FOO
141312
    1MOL0     O    1   7.210   6.372   4.880  0.6198 -0.1792  0.6904
    1MOL0     C    2   7.123   6.297   4.931  1.0302 -0.4199  0.1172
    1MOL0     O    3   7.153   6.176   5.000 -0.3720  0.5091  0.0276
    1MOL0     C    4   7.287   6.139   4.999  0.0801  0.4796  1.0075
    1MOL0     C    5   7.339   6.073   4.883 -1.0328 -0.6372  0.3824
    1MOL0     C    6   7.467   6.033   4.872 -1.2799  0.2090 -0.7861
    1MOL0     C    7   7.562   6.069   4.976  0.8399  0.0410 -0.7856
    1MOL0     O    8   7.693   6.048   4.950  0.2014 -0.6192  0.0250
    1MOL0     C    9   7.733   5.960   5.050 -0.7203  0.3470 -0.3805
    1MOL0     C   10   7.707   5.820   5.018  0.0761  0.4368  0.2313
    1MOL0     C   11   7.771   5.780   4.881  0.5829 -0.0675 -0.4831
    1MOL0     C   12   7.929   5.776   4.895  0.0926  0.5621  0.8483
    1MOL0     C   13   8.001   5.730   4.764  0.1198 -0.5231 -1.0885
    1MOL0     C   14   7.931   5.617   4.687  0.4365 -0.0445  0.3930
    1MOL0     C   15   8.016   5.539   4.585 -0.5801  0.3561 -0.0591
    1MOL0     C   16   8.089   5.638   4.493 -0.0837  1.0379 -0.7767
    1MOL0     N   17   8.168   5.570   4.387  0.5663  0.2419  0.0874
    1MOL0     C   18   8.292   5.515   4.400  1.3752  0.1388 -0.4372
    1MOL0     C   19   8.304   5.448   4.288 -0.4441 -0.8574 -0.2483
    1MOL0     C   20   8.429   5.378   4.261  0.7668 -0.0133 -0.4456
    1MOL0     C   21   8.435   5.242   4.336 -0.1997  0.0922  0.6873
    1MOL0     C   22   8.305   5.160   4.307  0.6772  0.5017 -0.8223
    1MOL0     C   23   8.330   5.010   4.340  0.2044  0.4288  0.4395
    1MOL0     O   24   8.208   4.936   4.313  0.2687 -0.0504  1.0257
    1MOL0     C   25   8.223   4.801   4.302 -1.1287  0.1059  0.2062
    1MOL0     C   26   8.282   4.742   4.189  0.8056  0.6935  0.0593
    1MOL0     C   27   8.299   4.603   4.173  0.0543 -1.9559 -0.1306
    1MOL0     C   28   8.351   4.558   4.037 -0.2507  0.0675  0.8248
    1MOL0     C   29   8.255   4.522   4.281  0.8460  0.0367 -0.7038
    1MOL0     C   30   8.273   4.368   4.274 -1.0114 -0.1167  0.8471
    1MOL0     O   31   8.196   4.294   4.364 -0.4250 -0.0933 -0.0747
    1MOL0     C   32   8.221   4.154   4.364 -0.6301 -0.3349 -0.0048
    1MOL0     C   33   8.134   4.067   4.295 -0.1914 -0.1551  0.4950
    1MOL0     C   34   8.166   3.932   4.273 -0.1817  0.4587  0.0542
    1MOL0     C   35   8.277   3.880   4.339 -0.4977  0.3204  0.0211
    1MOL0     O   36   8.320   3.746   4.320 -0.1233 -0.4800  0.3320
    1MOL0     C   37   8.229   3.636   4.315  0.2018  0.1493  0.6645
    1MOL0     C   38   8.302   3.516   4.353 -0.4284  0.2439 -0.1395
    1MOL0     C   39   8.420   3.475   4.264  0.2557  0.5924  0.2321
    1MOL0     C   40   8.394   3.406   4.133  0.3648 -0.2712 -0.4245
    1MOL0     C   41   8.523   3.386   4.053 -0.5038  0.1965  0.2155
    1MOL0     C   42   8.547   3.234   4.023  0.4347 -0.0082 -0.3403
    1MOL0     C   43   8.653   3.205   3.922 -0.3963 -1.0876  0.3026
    1MOL0     C   44   8.783   3.276   3.946  0.2651 -0.1785 -0.5973
    1MOL0    Cl   45   8.917   3.224   3.835 -0.1574  0.7330  0.4366
    1MOL0     C   46   8.358   3.965   4.419 -0.5933  0.0069  0.4051
    1MOL0     C   47   8.329   4.102   4.427 -0.7271  0.2836 -0.2821
    1MOL0     O   48   8.335   4.318   4.176 -0.6486 -0.0975  0.5331
    1MOL0     C   49   8.182   4.577   4.390  0.0722  0.3457 -0.0866
    1MOL0     C   50   8.168   4.718   4.394  0.5564  0.0302 -0.2069
    1MOL0     N   51   8.186   5.456   4.219 -0.2853 -0.6882  0.2161
    1MOL0     N   52   8.101   5.526   4.276 -0.4639 -0.1341 -0.1278
    1MOL0     C   53   7.517   6.151   5.087  0.1127  0.5740  0.4656
    1MOL0     C   54   7.379   6.179   5.096  0.8149 -0.8799 -0.0544
    1MOL0     C   55   6.988   6.363   4.938  1.3586  0.2390  1.0022
    1MOL0     C   56   6.900   6.317   5.039  0.0700  0.2889 -1.4916
    1MOL0     C   57   6.779   6.374   5.071 -0.2546  0.6955 -1.3563
    1MOL0     C   58   6.747   6.483   4.988 -0.1583  0.5676  1.0694
    1MOL0     O   59   6.626   6.548   5.012 -0.3641 -0.4283 -0.0748
    1MOL0     C   60   6.516   6.538   4.918  0.0275  0.1752  0.6342
    1MOL0     C   61   6.448   6.664   4.862 -0.2991  0.6506 -0.1983
    1MOL0     C   62   6.309   6.707   4.919 -0.7106  0.3098  0.4626
    1MOL0     C   63   6.190   6.675   4.832  0.6326  0.0118 -0.7187
    1MOL0     C   64   6.061   6.681   4.900  0.3451  0.1484  0.0485
    1MOL0     C   65   5.955   6.676   4.952 -0.4545  0.1578 -0.0386
    1MOL0     C   66   6.828   6.533   4.887 -0.1655  0.0986  0.3657
    1MOL0     C   67   6.947   6.472   4.859 -0.9892 -0.4954  0.3555
    1MOL0     C   68   7.027   6.536   4.747 -0.2393 -0.9173 -0.4069
    1MOL0     H   69   7.271   6.069   4.799 -0.1699 -2.1900 -0.2759
    1MOL0     H   70   7.510   5.987   4.784 -2.0110 -3.7767  0.7092
    1MOL0     H   71   7.700   5.985   5.151 -0.2006 -0.4813  0.0152
    1MOL0     H   72   7.842   5.971   5.048 -0.5962 -0.6249  0.1997
    1MOL0     H   73   7.751   5.760   5.099 -1.9862 -1.2064  0.2275
    1MOL0     H   74   7.599   5.801   5.018  0.4163 -1.7128 -0.4372
    1MOL0     H   75   7.725   5.682   4.865 -0.1168  0.0732  0.5706
    1MOL0     H   76   7.749   5.845   4.796  0.6430  0.0520 -0.4070
    1MOL0     H   77   7.980   5.867   4.929  5.4113 -2.7155  2.8345
    1MOL0     H   78   7.947   5.699   4.970  1.0632 -0.0041  0.0467
    1MOL0     H   79   8.105   5.701   4.780  0.0369 -0.3182 -0.0862
    1MOL0     H   80   8.008   5.824   4.709 -2.7460  0.3123 -0.2502
    1MOL0     H   81   7.890   5.538   4.751  1.3527 -0.8130  0.0542
    1MOL0     H   82   7.854   5.668   4.628  3.0063 -0.4563 -3.7732
    1MOL0     H   83   7.951   5.475   4.524  1.5038 -0.2803 -1.7442
    1MOL0     H   84   8.090   5.473   4.631  3.4891  1.5975 -4.0665
    1MOL0     H   85   8.011   5.704   4.454 -0.1237  1.7365  0.4319
    1MOL0     H   86   8.164   5.697   4.547 -0.9291 -1.3868  3.4837
    1MOL0     H   87   8.365   5.530   4.478  1.7544 -1.0779 -0.5291
    1MOL0     H   88   8.509   5.446   4.293 -1.0444  2.9999 -1.8045
    1MOL0     H   89   8.420   5.358   4.154 -3.6750 -0.0270 -0.2592
    1MOL0     H   90   8.518   5.177   4.305  0.2693 -1.0226  3.9333
    1MOL0     H   91   8.444   5.264   4.443 -1.6890  0.0575  0.8359
    1MOL0     H   92   8.216   5.199   4.358 -0.3051 -2.9842  0.4008
    1MOL0     H   93   8.281   5.160   4.200 -2.3468  1.6804 -0.2518
    1MOL0     H   94   8.415   4.971   4.284 -0.4208  1.3427 -1.2225
    1MOL0     H   95   8.348   4.997   4.447 -1.1585 -0.8780  0.5554
    1MOL0     H   96   8.320   4.807   4.111  1.0310  1.3245  0.6883
    1MOL0     H   97   8.450   4.514   4.054 -0.1081  0.9565  2.4810
    1MOL0     H   98   8.364   4.639   3.964  1.0309 -0.6335  0.2377
    1MOL0     H   99   8.285   4.485   3.991 -2.6371  0.8872  2.7561
    1MOL0     H  100   8.044   4.107   4.250  0.9750  1.7246 -0.2839
    1MOL0     H  101   8.108   3.870   4.206  3.8301  0.5182 -3.9278
    1MOL0     H  102   8.137   3.656   4.370 -0.5108 -0.5497 -0.2338
    1MOL0     H  103   8.195   3.614   4.213 -2.4032  2.5943  0.9035
    1MOL0     H  104   8.338   3.532   4.455 -0.1917  0.5836 -0.2745
    1MOL0     H  105   8.229   3.434   4.356 -1.7136  1.3457  2.7321
    1MOL0     H  106   8.481   3.406   4.322 -0.7492 -2.1325 -1.7586
    1MOL0     H  107   8.477   3.567   4.243 -1.4490  2.3490  2.7548
    1MOL0     H  108   8.320   3.463   4.075  2.0067  1.8410 -0.5876
    1MOL0     H  109   8.352   3.308   4.154  0.2366  0.0793  1.0361
    1MOL0     H  110   8.515   3.438   3.957  1.3725 -0.6555 -0.4515
    1MOL0     H  111   8.609   3.429   4.105  0.6811 -2.3958  0.5713
    1MOL0     H  112   8.461   3.186   3.976  1.4368  0.2289 -2.5685
    1MOL0     H  113   8.557   3.187   4.121 -0.7687  0.2626 -0.0651
    1MOL0     H  114   8.620   3.239   3.824 -0.5223 -2.4323 -0.1487
    1MOL0     H  115   8.664   3.096   3.928  1.4160 -0.9210  0.3031
    1MOL0     H  116   8.809   3.266   4.052  0.4191 -0.3208 -0.6466
    1MOL0     H  117   8.753   3.377   3.920  0.4384 -0.8242 -3.6581
    1MOL0     H  118   8.440   3.917   4.471 -1.6329 -3.8839 -1.2278
    1MOL0     H  119   8.395   4.153   4.495  0.8067 -0.8782 -0.8379
    1MOL0     H  120   8.131   4.526   4.470 -3.0676 -1.6623 -3.1032
    1MOL0     H  121   8.108   4.757   4.476 -1.1325 -0.8403 -0.9924
    1MOL0     H  122   7.589   6.202   5.150 -0.6795  1.5481  0.5937
    1MOL0     H  123   7.348   6.241   5.180  3.5921  0.4810  0.0831
    1MOL0     H  124   6.945   6.241   5.103  1.6481  1.5453 -1.0594
    1MOL0     H  125   6.709   6.343   5.148 -1.5840  0.5035 -2.6169
    1MOL0     H  126   6.546   6.473   4.835  2.1550  1.1549  0.5649
    1MOL0     H  127   6.441   6.480   4.972 -0.5558 -0.8167 -1.1435
    1MOL0     H  128   6.439   6.651   4.754 -0.3038  2.3666 -0.4299
    1MOL0     H  129   6.517   6.747   4.882 -0.1838  0.2434  1.2486
    1MOL0     H  130   6.284   6.650   5.009 -1.1239 -0.3301 -0.0456
    1MOL0     H  131   6.314   6.816   4.928  0.7531  0.1935  1.4208
    1MOL0     H  132   6.198   6.583   4.773  0.4835  0.3659 -1.2982
    1MOL0     H  133   6.187   6.761   4.765 -0.5254 -0.8965 -1.9053
    1MOL0     H  134   5.854   6.667   4.986 -0.5603  2.5081  0.4331
    1MOL0     H  135   6.798   6.623   4.834  1.6162 -0.8913 -2.5735
    1MOL0     H  136   6.980   6.621   4.696  2.7715  1.0087 -0.2448
    1MOL0     H  137   7.121   6.578   4.784 -0.1246  0.6085 -2.2707
    1MOL0     H  138   7.049   6.459   4.672  1.0484  0.4235 -1.4565
    2MOL0     O  139  11.418   5.408  10.714  0.0400  0.2135 -0.2422
    2MOL0     C  140  11.325   5.478  10.746  0.8870 -0.0502 -0.3579
    2MOL0     O  141  11.289   5.501  10.876 -0.2972  0.5199  0.1516
    2MOL0     C  142  11.343   5.418  10.973 -0.1200  0.2859  0.4884
    2MOL0     C  143  11.300   5.287  11.003 -0.2466  0.5192  0.4505
    2MOL0     C  144  11.375   5.210  11.090 -0.1572 -0.1698 -0.0649
    2MOL0     C  145  11.492   5.261  11.156  0.9159 -0.0600  0.6594
    2MOL0     O  146  11.579   5.201  11.251 -0.0061  0.5057 -0.1689
    2MOL0     C  147  11.571   5.059  11.244 -0.7255  0.3962 -0.5621
    2MOL0     C  148  11.683   4.983  11.313  0.2051 -0.3262 -0.6434
    2MOL0     C  149  11.704   5.025  11.454  0.4974  0.5121  0.3475
    2MOL0     C  150  11.805   4.940  11.521 -0.6508 -0.1277 -0.5365
    2MOL0     C  151  11.767   4.913  11.666  0.1903  0.8260 -0.2157
    2MOL0     C  152  11.859   4.827  11.751 -0.1012 -0.7795  0.4406
    2MOL0     C  153  11.787   4.805  11.890  0.3592 -0.4336 -0.0699
    2MOL0     C  154  11.886   4.731  11.983 -0.4391  0.4883  0.0665
    2MOL0     N  155  11.821   4.709  12.111  0.3858  0.4087  0.1948
    2MOL0     C  156  11.828   4.795  12.224  0.9161 -0.2590  0.6130
    2MOL0     C  157  11.740   4.737  12.312 -0.3302  0.1949  0.7490
    2MOL0     C  158  11.731   4.773  12.455 -0.2744  0.6430  0.1969
    2MOL0     C  159  11.869   4.780  12.529 -0.1548 -0.0770  0.1751
    2MOL0     C  160  11.851   4.776  12.678  0.4926  0.3709 -0.0927
    2MOL0     C  161  11.986   4.767  12.751  0.1310 -0.4099 -0.6359
    2MOL0     O  162  12.059   4.885  12.714 -0.5546  0.2688  0.0861
    2MOL0     C  163  12.198   4.897  12.747  0.3487 -0.4149  0.1516
    2MOL0     C  164  12.256   5.019  12.711 -0.2015  0.1510  0.0587
    2MOL0     C  165  12.384   5.056  12.760 -0.3667 -0.6266 -0.1072
    2MOL0     C  166  12.416   5.198  12.722  0.2834  0.8466  0.0221
    2MOL0     C  167  12.468   4.965  12.835 -0.9359 -0.1335  0.0348
    2MOL0     C  168  12.610   4.999  12.879 -0.8530 -0.3119  0.5192
    2MOL0     O  169  12.658   4.912  12.974  0.3344 -0.1652  0.0504
    2MOL0     C  170  12.782   4.918  13.034 -0.7513 -0.6093  0.4720
    2MOL0     C  171  12.842   4.790  13.048 -0.0736 -0.2154 -0.2791
    2MOL0     C  172  12.972   4.778  13.103 -0.0494 -0.0694  0.3372
    2MOL0     C  173  13.032   4.890  13.158 -0.1512 -0.9377 -0.1424
    2MOL0     O  174  13.157   4.879  13.215 -0.1087  0.0282  0.1117
    2MOL0     C  175  13.247   4.787  13.154  0.6552  0.2496 -0.3357
    2MOL0     C  176  13.386   4.840  13.186  0.0538  0.2800  0.3514
    2MOL0     C  177  13.434   4.796  13.323 -0.4451  0.7047  0.4000
    2MOL0     C  178  13.576   4.855  13.356 -0.6578  0.7681  0.1159
    2MOL0     C  179  13.670   4.731  13.360 -0.0977 -0.5626  0.5312
    2MOL0     C  180  13.643   4.680  13.503 -0.2417  0.4913  0.2959
    2MOL0     C  181  13.699   4.538  13.522  0.5366  0.1285 -0.4082
    2MOL0     C  182  13.623   4.440  13.432  0.1851  1.3286 -0.7245
    2MOL0    Cl  183  13.457   4.421  13.483 -0.2357 -0.1890 -0.0775
    2MOL0     C  184  12.969   5.014  13.148  0.9352 -0.1615 -0.0779
    2MOL0     C  185  12.845   5.033  13.080  0.0708 -0.1154 -0.3008
    2MOL0     O  186  12.660   5.103  12.838  0.7025  0.1019 -0.8379
    2MOL0     C  187  12.416   4.831  12.849  0.5503  0.4402 -0.6992
    2MOL0     C  188  12.279   4.799  12.808 -0.2783 -0.2325  0.4596
    2MOL0     N  189  11.680   4.627  12.256 -1.1157 -1.0374 -0.2552
    2MOL0     N  190  11.730   4.613  12.137 -0.6233  0.4045 -0.7203
    2MOL0     C  191  11.525   5.396  11.129  0.5694  0.0942 -0.5212
    2MOL0     C  192  11.456   5.469  11.035 -0.5707  0.0674 -0.7355
    2MOL0     C  193  11.263   5.573  10.655 -0.0991 -0.1869 -0.1221
    2MOL0     C  194  11.350   5.639  10.558  0.1777  0.4853 -0.0515
    2MOL0     C  195  11.302   5.720  10.450  0.5480  0.3364  0.4201
    2MOL0     C  196  11.170   5.750  10.451  0.1909  0.3371  0.5020
    2MOL0     O  197  11.127   5.835  10.353  0.6730 -0.4171 -0.0146
    2MOL0     C  198  11.022   5.772  10.268 -1.0005  0.0236 -0.7270
    2MOL0     C  199  11.015   5.847  10.138  0.5106  0.2638 -0.2280
    2MOL0     C  200  10.951   5.786  10.025  0.1795  0.3651 -0.2311
    2MOL0     C  201  10.974   5.633   9.996  0.9320 -0.0961  0.4295
    2MOL0     C  202  10.884   5.575   9.894  0.4399 -0.4431 -0.1616
    2MOL0     C  203  10.809   5.525   9.807 -0.2828 -0.2905 -0.3086
    2MOL0     C  204  11.084   5.698  10.547 -0.6285  0.3538  0.1998
    2MOL0     C  205  11.127   5.607  10.641 -0.7297  0.6960  0.5130
    2MOL0     C  206  11.029   5.540  10.733  0.0799  0.1239 -0.2764
    2MOL0     H  207  11.212   5.251  10.950 -0.2488  2.1797 -0.7676
    2MOL0     H  208  11.355   5.107  11.117 -0.3681  0.2334  1.4216
    2MOL0     H  209  11.586   5.039  11.137  0.2425  3.4627 -1.0949
    2MOL0     H  210  11.474   5.028  11.284 -0.4603  1.2078  0.7359
    2MOL0     H  211  11.674   4.875  11.303  1.2690 -0.9178  3.2801
    2MOL0     H  212  11.777   5.012  11.265  0.1796  1.6526  0.4033
    2MOL0     H  213  11.743   5.127  11.455  1.1911  0.2663 -0.4580
    2MOL0     H  214  11.615   4.998  11.512  1.6231  0.0333  1.9043
    2MOL0     H  215  11.824   4.848  11.466  0.4002 -1.2739  1.5899
    2MOL0     H  216  11.906   4.982  11.508  0.0703 -1.1052  1.4261
    2MOL0     H  217  11.671   4.862  11.661  0.8953 -0.4323 -3.2047
    2MOL0     H  218  11.755   5.007  11.721  1.4590 -0.7947  3.1317
    2MOL0     H  219  11.873   4.737  11.691  1.6705  0.3522 -0.9297
    2MOL0     H  220  11.951   4.884  11.760  1.0983 -2.4655 -0.6004
    2MOL0     H  221  11.698   4.748  11.863  1.1606 -0.8107 -2.2041
    2MOL0     H  222  11.765   4.901  11.936  2.3379 -0.1889  0.4784
    2MOL0     H  223  11.923   4.634  11.948 -2.6573 -1.7703  3.3879
    2MOL0     H  224  11.975   4.792  11.999 -0.3970  0.3125  0.5076
    2MOL0     H  225  11.883   4.887  12.233  1.5407 -0.0436 -3.4919
    2MOL0     H  226  11.677   4.691  12.503 -1.8761  0.2656 -2.0733
    2MOL0     H  227  11.676   4.866  12.475 -2.3544 -0.0834 -1.7249
    2MOL0     H  228  11.929   4.694  12.499 -2.5668 -2.3948  1.5546
    2MOL0     H  229  11.925   4.871  12.507 -0.1092 -0.2432 -0.4084
    2MOL0     H  230  11.800   4.865  12.715  0.5323  0.0409  0.8001
    2MOL0     H  231  11.796   4.684  12.704 -3.1504  1.9866 -1.3936
    2MOL0     H  232  11.988   4.754  12.859  1.7363  1.4700 -0.3934
    2MOL0     H  233  12.044   4.681  12.717  1.2975 -0.0757  0.4546
    2MOL0     H  234  12.192   5.097  12.671 -2.0155 -2.2278 -2.0262
    2MOL0     H  235  12.335   5.257  12.676  0.0878  0.4610 -0.1364
    2MOL0     H  236  12.500   5.206  12.652  0.4145 -0.2112  0.0526
    2MOL0     H  237  12.441   5.249  12.815  0.5915 -2.1965  1.7176
    2MOL0     H  238  12.767   4.717  13.021 -2.5464  1.9132  0.4279
    2MOL0     H  239  13.026   4.684  13.111 -0.0656 -0.1927 -0.8107
    2MOL0     H  240  13.236   4.682  13.185  2.4596  0.6564  1.9231
    2MOL0     H  241  13.240   4.783  13.045 -0.7600 -4.3830 -0.3078
    2MOL0     H  242  13.454   4.829  13.101 -1.9444 -0.5941 -1.2070
    2MOL0     H  243  13.368   4.947  13.197 -1.9283 -0.1381  1.7884
    2MOL0     H  244  13.430   4.687  13.310 -0.2165  0.3885  2.5984
    2MOL0     H  245  13.366   4.835  13.399  0.9662  2.9784  0.5789
    2MOL0     H  246  13.582   4.908  13.452 -2.0974 -2.6940  2.3257
    2MOL0     H  247  13.598   4.921  13.272 -0.2050 -0.2072 -0.5566
    2MOL0     H  248  13.638   4.671  13.275  1.9470 -0.2238 -0.5366
    2MOL0     H  249  13.776   4.755  13.344 -0.0232  1.0522  2.8718
    2MOL0     H  250  13.536   4.676  13.526 -1.0551  3.0598 -2.3901
    2MOL0     H  251  13.689   4.749  13.573  0.8129 -0.5649  0.6866
    2MOL0     H  252  13.690   4.515  13.629 -1.9004  1.5926 -0.2117
    2MOL0     H  253  13.803   4.532  13.489 -0.3177 -0.4485 -3.2348
    2MOL0     H  254  13.659   4.337  13.431 -0.6034  1.0508 -1.8641
    2MOL0     H  255  13.645   4.475  13.331  1.5272 -0.4467 -1.1084
    2MOL0     H  256  13.000   5.101  13.205  0.7559 -0.9922  1.3141
    2MOL0     H  257  12.794   5.128  13.068 -0.1578 -0.3863 -1.5738
    2MOL0     H  258  12.464   4.749  12.902 -2.2719 -0.8801  0.0290
    2MOL0     H  259  12.238   4.700  12.823 -1.9555  0.2349 -0.8078
    2MOL0     H  260  11.608   5.448  11.175 -1.4291  3.2058 -0.0857
    2MOL0     H  261  11.483   5.568  11.001 -0.7199 -0.2794 -1.9023
    2MOL0     H  262  11.455   5.612  10.555  0.2048  0.5699 -3.0640
    2MOL0     H  263  11.373   5.751  10.373 -1.0085 -2.9991 -2.6666
    2MOL0     H  264  11.065   5.674  10.245  1.2162  0.4370  1.2057
    2MOL0     H  265  10.922   5.764  10.311  0.1056 -0.6430  1.9331
    2MOL0     H  266  11.117   5.882  10.121  0.7387  0.6711  1.7752
    2MOL0     H  267  10.971   5.943  10.164 -0.2070 -0.6115  2.0358
    2MOL0     H  268  10.842   5.798  10.035 -0.0935  0.4651 -2.7741
    2MOL0     H  269  10.975   5.846   9.936 -1.8526 -0.9804 -1.7613
    2MOL0     H  270  10.975   5.568  10.083  1.5235  2.0061  2.0714
    2MOL0     H  271  11.078   5.625   9.963  1.0864 -0.7059  1.0590
    2MOL0     H  272  10.752   5.482   9.728  2.1467  0.2198 -2.4780
    2MOL0     H  273  10.979   5.721  10.539  0.2715  5.4569  0.0928
    2MOL0     H  274  11.059   5.437  10.754 -1.2740 -0.2066  0.1231
    2MOL0     H  275  11.020   5.604  10.822  1.5500  2.6435 -1.8281
    2MOL0     H  276  10.933   5.531  10.682 -0.3772  2.5183  0.0298
    3MOL0     O  277   0.314   3.300   5.316  0.4509 -0.0196 -0.1460
    3MOL0     C  278   0.346   3.185   5.287 -0.4089  0.6897 -0.3104
    3MOL0     O  279   0.439   3.112   5.353 -0.8471  0.1552 -0.5102
    3MOL0     C  280   0.550   3.183   5.399  0.0629 -0.4952  0.1137
    3MOL0     C  281   0.601   3.305   5.336 -0.2379 -0.1451  0.1825
    3MOL0     C  282   0.706   3.379   5.383 -0.2729 -0.0008  0.4639
    3MOL0     C  283   0.770   3.332   5.496  0.0709  0.7924 -0.1249
    3MOL0     O  284   0.860   3.416   5.557  0.6987  0.5956  0.2785
    3MOL0     C  285   0.996   3.420   5.508  0.0605 -0.1600 -0.0925
    3MOL0     C  286   1.072   3.288   5.538 -0.1326 -0.7143 -0.8645
    3MOL0     C  287   1.226   3.283   5.536  0.4152 -0.0191  0.2489
    3MOL0     C  288   1.281   3.260   5.396  0.1899  0.5921  0.6733
    3MOL0     C  289   1.428   3.259   5.397  0.0262  0.9549 -0.4071
    3MOL0     C  290   1.481   3.406   5.389 -0.1848  0.6588  0.0249
    3MOL0     C  291   1.626   3.425   5.422  0.3182  0.3124  0.2713
    3MOL0     C  292   1.645   3.566   5.473  0.0699 -0.0592 -0.4383
    3MOL0     N  293   1.787   3.623   5.459  0.4804  0.2730  0.1215
    3MOL0     C  294   1.829   3.693   5.350  1.6730  1.1043  0.4151
    3MOL0     C  295   1.965   3.726   5.365 -0.5636  0.0865  0.0923
    3MOL0     C  296   2.044   3.815   5.270  0.1595  0.7038  0.4010
    3MOL0     C  297   2.167   3.753   5.210  0.0183 -0.1921 -0.5849
    3MOL0     C  298   2.131   3.630   5.126  0.2932 -0.3228  0.1729
    3MOL0     C  299   2.236   3.594   5.024  0.4971  0.4155 -0.3474
    3MOL0     O  300   2.242   3.699   4.923 -0.4779 -0.0280 -0.7625
    3MOL0     C  301   2.335   3.688   4.819  0.9142  0.1911  0.6067
    3MOL0     C  302   2.454   3.617   4.820  0.3335 -0.0656 -0.0833
    3MOL0     C  303   2.546   3.607   4.711  0.0461 -0.2608  0.0594
    3MOL0     C  304   2.667   3.521   4.736  0.0178  0.9616 -0.6581
    3MOL0     C  305   2.524   3.701   4.607 -0.8098  0.2521  0.5544
    3MOL0     C  306   2.617   3.727   4.494  0.1132 -0.2213  0.4270
    3MOL0     O  307   2.584   3.815   4.397 -0.8437  0.3269 -0.2507
    3MOL0     C  308   2.678   3.836   4.298 -0.1147  0.2642  0.1060
    3MOL0     C  309   2.679   3.762   4.184 -0.2528  0.0654  0.3411
    3MOL0     C  310   2.778   3.779   4.086  1.0832 -1.3544  0.5294
    3MOL0     C  311   2.860   3.890   4.094  0.4634  0.7725 -0.5512
    3MOL0     O  312   2.932   3.910   3.979 -0.3324  0.3393 -0.3702
    3MOL0     C  313   2.976   4.043   3.937  0.3925 -0.2885 -0.5993
    3MOL0     C  314   3.063   4.042   3.818 -0.7478  0.0903  0.5852
    3MOL0     C  315   3.003   3.963   3.696 -0.0317 -0.6079 -1.1423
    3MOL0     C  316   2.871   4.025   3.642  0.2662  0.0488 -0.2727
    3MOL0     C  317   2.806   3.952   3.528 -0.2296 -0.0597 -0.4562
    3MOL0     C  318   2.795   3.801   3.533 -0.2376 -0.3533 -0.0328
    3MOL0     C  319   2.721   3.749   3.646  1.1569  0.0759 -0.1784
    3MOL0     C  320   2.703   3.594   3.634  0.6774  0.5034 -0.4038
    3MOL0    Cl  321   2.718   3.519   3.794  0.0126  0.4354  0.0218
    3MOL0     C  322   2.849   3.974   4.210 -0.0240  0.2335  0.8270
    3MOL0     C  323   2.767   3.945   4.316 -0.1277  0.0432  0.6745
    3MOL0     O  324   2.720   3.661   4.496  0.0930 -0.3779 -0.5746
    3MOL0     C  325   2.406   3.778   4.600  0.1102 -0.4818 -0.9576
    3MOL0     C  326   2.308   3.762   4.698 -0.2302  0.2263 -0.1985
    3MOL0     N  327   2.000   3.653   5.475  0.2872  0.2442  0.8435
    3MOL0     N  328   1.895   3.591   5.536  0.2727 -0.4129 -1.0535
    3MOL0     C  329   0.728   3.215   5.557  0.0099  0.3164 -1.0206
    3MOL0     C  330   0.621   3.141   5.506  0.7074  0.0472 -0.2093
    3MOL0     C  331   0.265   3.107   5.182 -0.6502  0.1664  0.7825
    3MOL0     C  332   0.307   2.971   5.166  0.1331 -0.5313 -0.4496
    3MOL0     C  333   0.247   2.893   5.071 -0.0959  0.1251  1.4211
    3MOL0     C  334   0.144   2.942   4.991 -0.0443 -0.0044 -0.4930
    3MOL0     O  335   0.060   2.872   4.903 -0.4043  0.1270 -0.1168
    3MOL0     C  336   0.088   2.737   4.868 -0.4935  0.1258 -0.8663
    3MOL0     C  337   0.154   2.724   4.730 -0.2446 -0.5191 -0.8055
    3MOL0     C  338   0.310   2.748   4.747 -0.1122  0.3264  0.1154
    3MOL0     C  339   0.385   2.744   4.608 -0.2434  0.6291  0.4612
    3MOL0     C  340   0.528   2.716   4.624  0.3694  0.8087  0.0588
    3MOL0     C  341   0.640   2.674   4.641 -0.9353 -0.1841 -0.0300
    3MOL0     C  342   0.085   3.066   5.020 -0.1842 -0.2000  0.4357
    3MOL0     C  343   0.150   3.151   5.109  0.0575  0.3880 -0.1748
    3MOL0     C  344   0.088   3.285   5.137  0.9438  0.1686  0.2519
    3MOL0     H  345   0.555   3.344   5.246 -4.7408 -1.0568  1.8052
    3MOL0     H  346   0.740   3.472   5.337 -0.4319  0.0932  0.5349
    3MOL0     H  347   1.044   3.504   5.558  1.1876 -1.6936  1.4929
    3MOL0     H  348   1.002   3.442   5.401 -0.7843 -0.2337 -0.1649
    3MOL0     H  349   1.051   3.283   5.645 -3.2470  3.4430 -1.0338
    3MOL0     H  350   1.032   3.207   5.477 -1.1932 -0.5243 -0.4319
    3MOL0     H  351   1.270   3.381   5.560  1.7105 -0.0423 -1.8300
    3MOL0     H  352   1.265   3.212   5.609  1.0856  1.2125  1.1398
    3MOL0     H  353   1.251   3.158   5.370  0.3014 -0.5243  4.3954
    3MOL0     H  354   1.237   3.325   5.319  0.9276  2.1598  1.5222
    3MOL0     H  355   1.467   3.207   5.309 -1.3057  0.0093 -0.4679
    3MOL0     H  356   1.469   3.210   5.486  1.0122 -1.2959 -2.0119
    3MOL0     H  357   1.457   3.432   5.285 -0.0562  0.0507 -0.1607
    3MOL0     H  358   1.426   3.474   5.453  0.6198  2.1736 -0.8274
    3MOL0     H  359   1.696   3.407   5.340  0.4836  0.2044  0.4350
    3MOL0     H  360   1.655   3.360   5.505  0.3599 -0.8579 -0.6277
    3MOL0     H  361   1.588   3.647   5.426  2.0002  1.1008 -0.9034
    3MOL0     H  362   1.615   3.573   5.577  1.2124 -1.3927  0.0145
    3MOL0     H  363   1.763   3.712   5.265 -0.4507 -3.5670  0.6899
    3MOL0     H  364   2.068   3.900   5.334 -0.6263 -0.4280  2.2674
    3MOL0     H  365   1.984   3.859   5.190 -0.7812 -1.2283 -0.0309
    3MOL0     H  366   2.209   3.834   5.149 -0.1248  0.9135  0.7222
    3MOL0     H  367   2.243   3.743   5.288  0.7145  0.1106 -1.2068
    3MOL0     H  368   2.113   3.545   5.192 -1.0442  0.1701  0.4881
    3MOL0     H  369   2.040   3.649   5.068  0.5870 -2.8519 -1.3058
    3MOL0     H  370   2.331   3.590   5.077  1.7109  0.0428 -2.4605
    3MOL0     H  371   2.218   3.492   4.989  0.0695 -0.2776  1.7297
    3MOL0     H  372   2.461   3.564   4.915 -2.1583 -0.3957 -0.0098
    3MOL0     H  373   2.740   3.577   4.795 -0.0031 -0.5821  0.8859
    3MOL0     H  374   2.705   3.479   4.642  0.2565  0.8114 -0.4954
    3MOL0     H  375   2.622   3.441   4.794  0.6474  0.5984 -0.6628
    3MOL0     H  376   2.616   3.674   4.178 -0.2170  0.1100 -1.1611
    3MOL0     H  377   2.783   3.711   4.002  0.0796 -0.8377  0.0354
    3MOL0     H  378   2.886   4.102   3.923  0.5840 -0.0989 -1.0671
    3MOL0     H  379   3.029   4.104   4.011  0.0276  1.7898 -1.9563
    3MOL0     H  380   3.071   4.148   3.792 -3.5331  0.2293  0.0048
    3MOL0     H  381   3.157   4.000   3.855 -0.1871  0.6728 -0.1333
    3MOL0     H  382   2.985   3.859   3.725  0.1335 -0.6271 -1.1097
    3MOL0     H  383   3.074   3.966   3.612  0.5182  4.3425 -0.8024
    3MOL0     H  384   2.893   4.125   3.603  1.6586  0.5968  1.7720
    3MOL0     H  385   2.798   4.037   3.723  0.9951  0.5061  0.3280
    3MOL0     H  386   2.704   3.992   3.526  0.1714  1.2423  1.5523
    3MOL0     H  387   2.840   3.982   3.429 -2.4079  1.2214 -0.8763
    3MOL0     H  388   2.899   3.768   3.528  1.6244  4.6941 -0.0691
    3MOL0     H  389   2.745   3.778   3.439 -0.5928 -1.1667  0.3461
    3MOL0     H  390   2.622   3.795   3.657  0.7333 -1.0530  1.0252
    3MOL0     H  391   2.785   3.760   3.734  2.0404 -3.9574 -0.1128
    3MOL0     H  392   2.769   3.551   3.559 -0.8068 -1.1598 -0.8211
    3MOL0     H  393   2.597   3.581   3.608 -0.4799  1.7892  3.0804
    3MOL0     H  394   2.914   4.059   4.225  0.6520  0.1713 -1.3139
    3MOL0     H  395   2.769   3.998   4.411 -1.5586  1.3418  0.0229
    3MOL0     H  396   2.383   3.854   4.526 -0.2496  1.2625  0.8604
    3MOL0     H  397   2.217   3.821   4.690 -2.0494 -2.4859 -0.8134
    3MOL0     H  398   0.766   3.188   5.655 -0.2362  0.8892 -0.7583
    3MOL0     H  399   0.585   3.051   5.555  1.7936  0.3663  1.2193
    3MOL0     H  400   0.385   2.933   5.232 -0.1431  1.9845  1.4882
    3MOL0     H  401   0.278   2.790   5.057  1.1281  0.3975  1.9780
    3MOL0     H  402   0.147   2.675   4.936 -3.2586 -3.5128 -1.4808
    3MOL0     H  403  -0.011   2.692   4.863 -0.6917  0.2561  1.3575
    3MOL0     H  404   0.109   2.783   4.650  1.8489  0.4380 -1.3666
    3MOL0     H  405   0.141   2.620   4.699  0.5809 -0.1808 -2.3998
    3MOL0     H  406   0.324   2.849   4.788  1.7802 -0.1717  0.7538
    3MOL0     H  407   0.352   2.673   4.814 -0.5522 -2.2774 -2.3721
    3MOL0     H  408   0.380   2.840   4.556 -3.7629  1.2430  1.6015
    3MOL0     H  409   0.341   2.665   4.547  0.1498 -0.4586  1.5454
    3MOL0     H  410   0.741   2.638   4.640 -0.6983  0.4197  0.8342
    3MOL0     H  411   0.001   3.094   4.957  0.9652  2.1860 -0.1400
    3MOL0     H  412   0.080   3.309   5.243 -0.8486  2.7113 -0.3592
    3MOL0     H  413   0.155   3.361   5.096  2.1194 -0.9186  0.0596
    3MOL0     H  414  -0.005   3.298   5.081  1.1617 -1.8899 -0.7037
    4MOL0     O  415   7.003   5.659   2.088  0.4946  0.5339  1.0937
    4MOL0     C  416   6.973   5.549   2.043 -0.5954 -0.1451  0.3176
    4MOL0     O  417   7.047   5.440   2.030  0.2344  0.1161 -0.4505
    4MOL0     C  418   7.178   5.435   2.043  0.3315  1.1440  0.0845
    4MOL0     C  419   7.254   5.511   2.136  0.3394  0.6142  0.3513
    4MOL0     C  420   7.396   5.489   2.155 -0.1511 -0.1653  0.4420
    4MOL0     C  421   7.461   5.385   2.089 -0.9377 -0.9969  0.1504
    4MOL0     O  422   7.591   5.363   2.123 -0.2512  0.0459 -0.7053
    4MOL0     C  423   7.668   5.276   2.032  0.2707 -0.1619  0.3054
    4MOL0     C  424   7.815   5.295   2.052  0.1170  0.4522 -0.3177
    4MOL0     C  425   7.850   5.220   2.179  0.2051 -1.0590  0.5980
    4MOL0     C  426   7.996   5.234   2.218 -0.1497 -0.9043 -0.3385
    4MOL0     C  427   8.011   5.204   2.373 -0.3964  0.0671  0.0896
    4MOL0     C  428   8.159   5.177   2.411 -0.9082  1.4690 -0.5101
    4MOL0     C  429   8.235   5.306   2.423 -0.2073  0.0279 -0.0849
    4MOL0     C  430   8.363   5.306   2.335  0.0295 -0.1954 -0.1359
    4MOL0     N  431   8.474   5.242   2.410  0.1707  1.2891  0.1003
    4MOL0     C  432   8.583   5.187   2.345  0.3747 -0.2485  0.0811
    4MOL0     C  433   8.645   5.118   2.444 -0.0917  0.3996  0.7299
    4MOL0     C  434   8.750   5.016   2.421 -0.3692 -0.1086 -0.2436
    4MOL0     C  435   8.693   4.872   2.386  0.1065 -0.4715 -0.3080
    4MOL0     C  436   8.808   4.765   2.380  0.8041 -0.3304 -0.5110
    4MOL0     C  437   8.749   4.632   2.327  0.4402 -0.3625 -0.6460
    4MOL0     O  438   8.669   4.641   2.208  0.2045 -0.2018 -0.2728
    4MOL0     C  439   8.586   4.536   2.195  0.8333 -0.0548 -0.2052
    4MOL0     C  440   8.491   4.550   2.097 -0.4885  0.8369 -0.6749
    4MOL0     C  441   8.402   4.450   2.065  0.8416 -0.0169  0.0574
    4MOL0     C  442   8.305   4.487   1.951  0.2998 -0.1445  0.7810
    4MOL0     C  443   8.401   4.326   2.132 -0.5156  0.0100  0.2626
    4MOL0     C  444   8.299   4.214   2.108 -0.5037 -0.6209  0.0722
    4MOL0     O  445   8.290   4.138   2.224  0.0614  0.7061  0.1304
    4MOL0     C  446   8.188   4.060   2.273 -0.0821 -0.6925 -0.8091
    4MOL0     C  447   8.059   4.039   2.230 -0.3098  0.6962  0.0547
    4MOL0     C  448   7.973   3.943   2.283 -0.2119  0.1896 -0.3743
    4MOL0     C  449   8.011   3.869   2.394  0.4810  0.0446  0.0553
    4MOL0     O  450   7.929   3.771   2.453 -0.5462 -0.3484 -0.4198
    4MOL0     C  451   7.787   3.758   2.445 -0.6554  0.4325 -0.0586
    4MOL0     C  452   7.741   3.677   2.567  0.6253 -0.2324 -0.4660
    4MOL0     C  453   7.593   3.649   2.568  0.5408 -0.5078 -0.0975
    4MOL0     C  454   7.539   3.534   2.663  0.1732 -0.5850  0.3542
    4MOL0     C  455   7.389   3.525   2.690 -0.0199  0.9627 -0.3470
    4MOL0     C  456   7.345   3.436   2.818 -0.9828 -0.1110  0.0113
    4MOL0     C  457   7.193   3.406   2.823  0.8831  0.4364 -0.3329
    4MOL0     C  458   7.172   3.313   2.949 -0.1835 -0.6073  0.3534
    4MOL0    Cl  459   6.993   3.277   2.965 -0.0932 -0.2677 -0.3301
    4MOL0     C  460   8.130   3.901   2.453 -0.2957 -0.0704  0.1905
    4MOL0     C  461   8.214   3.995   2.393 -0.6880  0.3142 -0.5323
    4MOL0     O  462   8.242   4.187   2.000 -0.2004  0.6990  0.3600
    4MOL0     C  463   8.500   4.305   2.229 -0.8423 -0.8303  0.7367
    4MOL0     C  464   8.590   4.412   2.262 -0.6377 -0.0706  0.4118
    4MOL0     N  465   8.575   5.134   2.558  0.2492 -0.3880 -0.0950
    4MOL0     N  466   8.470   5.215   2.542  0.0500  0.3868 -0.3731
    4MOL0     C  467   7.385   5.306   2.003  0.2828  0.7349  0.9909
    4MOL0     C  468   7.246   5.337   1.967 -0.1889 -0.4087  0.3858
    4MOL0     C  469   6.825   5.530   2.027 -0.6541 -0.3829 -0.4823
    4MOL0     C  470   6.775   5.399   1.995 -0.1358  0.0830  0.0246
    4MOL0     C  471   6.633   5.366   1.983 -0.8344 -0.7086 -0.3190
    4MOL0     C  472   6.532   5.466   1.987 -0.3177 -0.4882 -0.5125
    4MOL0     O  473   6.399   5.447   1.968  0.1820  0.0021 -0.2748
    4MOL0     C  474   6.342   5.319   1.950  0.7752  0.8267 -0.4279
    4MOL0     C  475   6.211   5.364   1.876  0.4664  0.0577 -0.0104
    4MOL0     C  476   6.143   5.243   1.822  0.1344 -0.2018 -0.1339
    4MOL0     C  477   6.048   5.286   1.707 -0.2419  0.7588 -0.0560
    4MOL0     C  478   5.930   5.353   1.757  0.1217  0.2878 -0.2053
    4MOL0     C  479   5.827   5.412   1.788 -0.1799  0.2802 -0.0266
    4MOL0     C  480   6.576   5.596   2.010 -0.2714 -0.0636 -0.5086
    4MOL0     C  481   6.719   5.629   2.035 -0.8501 -0.1420  0.5426
    4MOL0     C  482   6.751   5.777   2.057 -0.5378  0.1665  0.2773
    4MOL0     H  483   7.204   5.587   2.195 -3.0404 -1.8971  1.0672
    4MOL0     H  484   7.453   5.543   2.231  1.6291  1.1838 -1.7375
    4MOL0     H  485   7.644   5.313   1.932  0.2525 -1.8101 -0.3343
    4MOL0     H  486   7.635   5.172   2.036 -0.4091  0.0402  0.2115
    4MOL0     H  487   7.870   5.237   1.977 -0.2041 -1.9118  1.1578
    4MOL0     H  488   7.849   5.399   2.045  1.0711  0.5503  3.4094
    4MOL0     H  489   7.795   5.256   2.267  0.6406 -2.3609  1.4303
    4MOL0     H  490   7.826   5.116   2.156  0.9266 -0.9209 -0.8715
    4MOL0     H  491   8.072   5.176   2.164  1.9733  1.4380 -0.1046
    4MOL0     H  492   8.030   5.338   2.209  1.3025 -1.3672 -0.6023
    4MOL0     H  493   7.943   5.127   2.410  0.2032 -0.0657  0.9383
    4MOL0     H  494   7.980   5.294   2.427 -1.0576 -1.1448  1.8171
    4MOL0     H  495   8.181   5.128   2.506 -3.0365  0.5804 -0.4404
    4MOL0     H  496   8.201   5.114   2.332 -0.5316  1.5070 -0.3420
    4MOL0     H  497   8.246   5.332   2.529 -3.4413 -1.2032  0.6550
    4MOL0     H  498   8.181   5.390   2.378  1.4563  0.7769 -0.7893
    4MOL0     H  499   8.342   5.250   2.243 -1.5363 -1.4188  0.9186
    4MOL0     H  500   8.392   5.411   2.326 -3.1895  0.8797  0.7378
    4MOL0     H  501   8.607   5.192   2.239  0.9344 -1.6710  0.1140
    4MOL0     H  502   8.789   5.016   2.523  0.1041  0.7677 -0.4190
    4MOL0     H  503   8.831   5.055   2.359 -0.7971  0.3582 -0.5135
    4MOL0     H  504   8.626   4.832   2.462 -1.8736  1.6583 -0.8086
    4MOL0     H  505   8.636   4.871   2.292 -1.3988 -1.1119  0.5704
    4MOL0     H  506   8.886   4.796   2.309 -1.0532 -0.0652 -2.5597
    4MOL0     H  507   8.844   4.757   2.483 -1.2924 -0.0675  0.2797
    4MOL0     H  508   8.824   4.554   2.309  1.9162  1.3498 -2.2499
    4MOL0     H  509   8.684   4.593   2.406 -0.3543 -4.7463 -3.1210
    4MOL0     H  510   8.490   4.640   2.036 -0.0198  0.0815 -1.8438
    4MOL0     H  511   8.300   4.596   1.937 -1.0964 -0.4326 -1.5394
    4MOL0     H  512   8.206   4.456   1.985 -0.2861  0.9147  0.0985
    4MOL0     H  513   8.327   4.433   1.858 -1.5006 -3.4781  2.1050
    4MOL0     H  514   8.022   4.096   2.145  1.9006  2.4404  0.1782
    4MOL0     H  515   7.879   3.926   2.230 -0.8845 -1.4508  1.2717
    4MOL0     H  516   7.730   3.851   2.437 -3.8583 -1.1790  1.8352
    4MOL0     H  517   7.772   3.692   2.359  1.0106  1.2595 -1.0207
    4MOL0     H  518   7.797   3.585   2.589 -0.9535 -1.1580 -0.1632
    4MOL0     H  519   7.759   3.735   2.658 -0.5550  2.4847 -1.8433
    4MOL0     H  520   7.552   3.621   2.470 -3.7789  0.8994  1.0526
    4MOL0     H  521   7.542   3.745   2.582  2.2026  0.0814  2.5925
    4MOL0     H  522   7.586   3.551   2.761  0.5369  0.1997  0.0514
    4MOL0     H  523   7.570   3.439   2.619 -1.7653 -0.7246 -0.7950
    4MOL0     H  524   7.360   3.629   2.701 -1.3715  0.5453  0.2183
    4MOL0     H  525   7.331   3.487   2.606  1.4654 -0.0133 -0.9888
    4MOL0     H  526   7.377   3.486   2.910 -3.0190  0.6129  0.3859
    4MOL0     H  527   7.407   3.347   2.810 -1.3149 -0.3182 -0.2967
    4MOL0     H  528   7.170   3.355   2.729 -0.7520 -0.2992  0.4257
    4MOL0     H  529   7.133   3.498   2.825  1.0363  0.6206 -2.1664
    4MOL0     H  530   7.188   3.374   3.038 -2.6482 -2.8520  2.5307
    4MOL0     H  531   7.234   3.223   2.950  0.2567 -0.5330 -4.0045
    4MOL0     H  532   8.159   3.839   2.537  1.5663  1.2005  0.5296
    4MOL0     H  533   8.302   4.007   2.456 -2.0376  1.1168  1.2977
    4MOL0     H  534   8.511   4.205   2.270  0.5061  0.5516  4.1334
    4MOL0     H  535   8.660   4.379   2.339 -3.1142 -3.2299  1.5339
    4MOL0     H  536   7.430   5.215   1.963  2.8030  1.6030  1.6492
    4MOL0     H  537   7.196   5.273   1.895 -1.6405  0.7724  0.3056
    4MOL0     H  538   6.842   5.322   1.958 -0.1919  0.7916 -1.5979
    4MOL0     H  539   6.593   5.267   1.958 -0.2738 -0.9231 -0.3753
    4MOL0     H  540   6.406   5.254   1.889 -0.4621  1.0112 -1.9957
    4MOL0     H  541   6.321   5.269   2.045  0.1781 -1.3944 -1.6608
    4MOL0     H  542   6.222   5.432   1.791 -0.8747  0.7599  0.3621
    4MOL0     H  543   6.148   5.428   1.938  1.4210 -0.9910  2.1410
    4MOL0     H  544   6.215   5.176   1.774  1.0551  1.3795 -1.0603
    4MOL0     H  545   6.083   5.197   1.901 -0.4250 -0.4333 -0.6836
    4MOL0     H  546   6.000   5.198   1.662  0.3990 -0.6400  1.8981
    4MOL0     H  547   6.110   5.339   1.634  1.9822 -1.5553  0.0086
    4MOL0     H  548   5.735   5.456   1.822  0.0383  1.2813 -0.6926
    4MOL0     H  549   6.503   5.676   2.003  1.0269  1.2899  0.7975
    4MOL0     H  550   6.807   5.782   2.151 -1.6931 -1.2292  1.0901
    4MOL0     H  551   6.819   5.820   1.983  0.3561  1.8262  1.9620
    4MOL0     H  552   6.664   5.843   2.066 -1.3181 -0.7747 -0.1570
    5MOL0     O  553   8.062   8.193   9.818 -0.8202 -0.3966  0.5697
    5MOL0     C  554   8.114   8.130   9.726 -0.4421 -0.3036  0.1004
    5MOL0     O  555   8.202   8.026   9.737 -0.3356  0.8567 -0.0650
    5MOL0     C  556   8.279   8.007   9.847  0.5766  0.3379  0.0708
    5MOL0     C  557   8.374   8.101   9.892 -0.4617 -0.0941  0.0515
    5MOL0     C  558   8.441   8.089  10.013  0.0142  0.4741 -0.2504
    5MOL0     C  559   8.409   7.979  10.101  0.5318  0.2196  0.3760
    5MOL0     O  560   8.466   7.987  10.224 -0.7858  0.2270 -0.2320
    5MOL0     C  561   8.409   7.925  10.336  1.0996  0.6162  0.2684
    5MOL0     C  562   8.493   7.924  10.465  0.4118  0.1161 -0.8718
    5MOL0     C  563   8.637   7.874  10.441 -0.7642  0.3337 -0.5186
    5MOL0     C  564   8.642   7.722  10.427  0.2843  0.1955 -0.8499
    5MOL0     C  565   8.776   7.663  10.393  0.4760  0.7119  0.8621
    5MOL0     C  566   8.781   7.505  10.397 -0.3143  0.0469  0.6760
    5MOL0     C  567   8.917   7.447  10.341  0.2208 -0.0899  0.8526
    5MOL0     C  568   8.924   7.426  10.191 -0.4887 -0.4798 -0.2243
    5MOL0     N  569   8.847   7.313  10.140  0.0296 -0.6858  0.3389
    5MOL0     C  570   8.906   7.232  10.051  0.1582  0.1096  0.6940
    5MOL0     C  571   8.804   7.144  10.012  0.4018 -0.4763  0.5813
    5MOL0     C  572   8.815   7.029   9.909 -0.3193  0.7647 -0.3131
    5MOL0     C  573   8.809   7.062   9.765  0.7198 -0.2961  0.5740
    5MOL0     C  574   8.855   6.941   9.683 -0.6958  0.2712 -0.1264
    5MOL0     C  575   9.016   6.922   9.684  0.0825 -0.0669  0.1037
    5MOL0     O  576   9.078   7.044   9.653 -0.2678 -0.2986 -0.6548
    5MOL0     C  577   9.220   7.040   9.643  0.0285  0.3260  0.5590
    5MOL0     C  578   9.301   6.931   9.585 -0.0858  0.5446  0.1509
    5MOL0     C  579   9.438   6.931   9.578 -0.6060  0.3379 -0.1012
    5MOL0     C  580   9.506   6.812   9.504  0.4650 -0.0229 -0.9522
    5MOL0     C  581   9.501   7.041   9.646  0.1015 -0.4635 -0.4647
    5MOL0     C  582   9.650   7.056   9.663  0.9239 -0.6336 -0.5639
    5MOL0     O  583   9.687   7.191   9.697 -0.3822 -0.1063 -0.0121
    5MOL0     C  584   9.816   7.235   9.681  0.0106  0.4074  0.7906
    5MOL0     C  585   9.849   7.312   9.569 -1.1078  0.4182  0.7161
    5MOL0     C  586   9.986   7.343   9.547  0.3729 -0.2879  0.0814
    5MOL0     C  587  10.081   7.301   9.635 -0.0629  0.1282 -0.1549
    5MOL0     O  588  10.209   7.333   9.594  0.2075 -0.2870  0.5642
    5MOL0     C  589  10.326   7.263   9.636 -0.6639 -0.2291 -0.0881
    5MOL0     C  590  10.445   7.269   9.541  0.2299 -0.7548 -0.0597
    5MOL0     C  591  10.494   7.419   9.516 -0.3714  0.1685  0.2846
    5MOL0     C  592  10.577   7.479   9.627 -0.0206  0.2618 -0.5966
    5MOL0     C  593  10.609   7.626   9.588 -0.2138  0.1819  0.0117
    5MOL0     C  594  10.695   7.685   9.699  0.7614 -0.0047  0.5738
    5MOL0     C  595  10.718   7.835   9.667  0.1113 -0.0458  0.0565
    5MOL0     C  596  10.777   7.895   9.789 -0.6894 -0.2104  0.0274
    5MOL0    Cl  597  10.941   7.836   9.828  0.6653 -0.0686 -0.5165
    5MOL0     C  598  10.048   7.232   9.747  0.1113  0.3835 -0.1909
    5MOL0     C  599   9.915   7.197   9.777  0.2494 -1.1778  0.0039
    5MOL0     O  600   9.731   6.962   9.641  0.7181 -0.0713  0.7706
    5MOL0     C  601   9.427   7.153   9.694 -0.1744 -0.4748  0.2376
    5MOL0     C  602   9.290   7.154   9.685  0.2326  0.5118  0.1077
    5MOL0     N  603   8.689   7.176  10.091 -0.5569  0.6319  0.0369
    5MOL0     N  604   8.716   7.279  10.159 -0.3226 -0.5689 -0.4060
    5MOL0     C  605   8.309   7.893  10.056 -0.0671  0.1623 -0.1695
    5MOL0     C  606   8.246   7.904   9.937 -0.2084 -0.1289  0.1126
    5MOL0     C  607   8.043   8.139   9.594  0.9805 -0.0442  0.4741
    5MOL0     C  608   7.906   8.159   9.610  0.4819  0.5206  1.2423
    5MOL0     C  609   7.819   8.134   9.503 -0.8129  0.3075  0.4757
    5MOL0     C  610   7.871   8.102   9.383  0.0965 -0.3435  0.0207
    5MOL0     O  611   7.793   8.083   9.270 -0.1784  0.6616 -0.2418
    5MOL0     C  612   7.657   8.095   9.268  0.3743  0.1212 -1.1123
    5MOL0     C  613   7.616   8.043   9.134  0.2724  0.4219 -0.2817
    5MOL0     C  614   7.654   7.898   9.099  0.4282 -0.0834  0.1556
    5MOL0     C  615   7.553   7.796   9.153  0.3332 -0.1296  0.1983
    5MOL0     C  616   7.422   7.815   9.093 -0.1387 -0.9249  0.2170
    5MOL0     C  617   7.312   7.835   9.063  0.1405  0.1699  0.1966
    5MOL0     C  618   8.004   8.088   9.368 -0.5489 -0.3843  0.3849
    5MOL0     C  619   8.099   8.101   9.475  0.7503 -0.6751  0.5069
    5MOL0     C  620   8.249   8.076   9.435 -0.3527 -0.3600  0.2422
    5MOL0     H  621   8.395   8.190   9.833 -2.3298  1.7004  1.9135
    5MOL0     H  622   8.505   8.166  10.055  2.9598 -1.7434 -0.3873
    5MOL0     H  623   8.386   7.820  10.315 -0.2907  0.5793  1.7673
    5MOL0     H  624   8.312   7.971  10.353 -1.6715 -3.4813 -2.5030
    5MOL0     H  625   8.494   8.030  10.492 -0.2313  0.0584 -0.5999
    5MOL0     H  626   8.452   7.865  10.547  1.3753  1.4641  0.6384
    5MOL0     H  627   8.679   7.932  10.358  1.9000  0.5430  0.8722
    5MOL0     H  628   8.698   7.897  10.529 -0.0051 -0.5515 -0.7982
    5MOL0     H  629   8.615   7.677  10.523  1.3188 -1.2644 -1.2044
    5MOL0     H  630   8.575   7.691  10.347  0.5688  1.6821 -1.6803
    5MOL0     H  631   8.848   7.710  10.460  0.3076  2.0391  0.1373
    5MOL0     H  632   8.801   7.704  10.295  2.9968  0.1203  1.2021
    5MOL0     H  633   8.769   7.481  10.503  1.1026  1.3639  1.1802
    5MOL0     H  634   8.693   7.462  10.348  0.7010 -1.0332 -0.2726
    5MOL0     H  635   8.934   7.344  10.375  0.0204 -1.6515 -3.1948
    5MOL0     H  636   8.992   7.517  10.378 -1.1263  1.6640  0.3563
    5MOL0     H  637   8.887   7.518  10.144 -0.8878 -1.6793 -2.3918
    5MOL0     H  638   9.029   7.412  10.164 -0.3825  5.2979 -4.7325
    5MOL0     H  639   9.004   7.228  10.004  0.1484 -0.6952  0.7282
    5MOL0     H  640   8.728   6.963   9.918 -0.2918  0.5687 -1.3910
    5MOL0     H  641   8.903   6.969   9.934 -1.2461 -1.2370 -1.5491
    5MOL0     H  642   8.710   7.094   9.730  1.7029  3.8663  1.0322
    5MOL0     H  643   8.880   7.143   9.744  1.2843 -1.0006 -0.3017
    5MOL0     H  644   8.804   6.858   9.731 -2.9064  2.4785  1.5764
    5MOL0     H  645   8.822   6.953   9.579  0.6805 -2.1155 -0.9333
    5MOL0     H  646   9.054   6.886   9.780 -1.1364  1.9845  1.4530
    5MOL0     H  647   9.046   6.850   9.607  3.8309  1.9401 -0.5566
    5MOL0     H  648   9.248   6.843   9.552 -0.2169  1.7199 -3.1025
    5MOL0     H  649   9.578   6.761   9.569 -0.0318  0.4203 -0.0269
    5MOL0     H  650   9.563   6.856   9.422 -0.3437 -2.1089 -2.7197
    5MOL0     H  651   9.434   6.737   9.473 -2.4629  1.8287  0.8944
    5MOL0     H  652   9.780   7.339   9.490  1.0110  0.1551 -1.3557
    5MOL0     H  653  10.015   7.388   9.453 -2.8003  0.5809 -0.6042
    5MOL0     H  654  10.363   7.302   9.731 -0.2291 -0.2433 -0.2485
    5MOL0     H  655  10.303   7.156   9.633 -2.1255  0.0772 -2.5072
    5MOL0     H  656  10.530   7.213   9.581  1.2586  1.0907  0.4158
    5MOL0     H  657  10.414   7.236   9.441  0.9158 -2.9167  0.3780
    5MOL0     H  658  10.409   7.480   9.485 -2.1610 -1.8228  0.9926
    5MOL0     H  659  10.549   7.423   9.422  0.9855  1.7503  1.0995
    5MOL0     H  660  10.672   7.427   9.640  0.3682  1.0752 -0.0746
    5MOL0     H  661  10.517   7.470   9.718 -0.0140  1.1091 -0.5013
    5MOL0     H  662  10.662   7.642   9.494  0.4632  3.3663  0.8095
    5MOL0     H  663  10.517   7.678   9.562  0.6994  1.6145 -0.4639
    5MOL0     H  664  10.792   7.634   9.705  1.3285  0.8362 -0.9515
    5MOL0     H  665  10.633   7.667   9.787 -1.9804 -1.5001 -1.4904
    5MOL0     H  666  10.616   7.871   9.658  0.3936  0.4005 -1.7050
    5MOL0     H  667  10.780   7.858   9.580 -0.4668  2.1537  0.1648
    5MOL0     H  668  10.711   7.879   9.875  1.1696 -0.2158  1.5390
    5MOL0     H  669  10.790   8.004   9.781 -0.1281  0.1008  3.4230
    5MOL0     H  670  10.128   7.200   9.814  0.5752  1.0069 -0.4452
    5MOL0     H  671   9.895   7.139   9.867  1.2553 -2.7074 -0.7099
    5MOL0     H  672   9.472   7.246   9.728 -0.8649  0.2932 -0.8843
    5MOL0     H  673   9.238   7.244   9.718  0.5948  0.0394  2.1093
    5MOL0     H  674   8.288   7.809  10.121  0.4639  0.0695 -0.1113
    5MOL0     H  675   8.170   7.837   9.899 -0.6280  0.4561 -0.0984
    5MOL0     H  676   7.860   8.188   9.704 -0.7406 -0.8346  1.0983
    5MOL0     H  677   7.713   8.125   9.521 -1.0508 -1.6779 -1.5008
    5MOL0     H  678   7.597   8.057   9.352 -1.6184  4.9004 -0.0422
    5MOL0     H  679   7.640   8.202   9.281  1.4938  0.1934  0.0439
    5MOL0     H  680   7.667   8.105   9.060  0.0377  0.0071 -0.7966
    5MOL0     H  681   7.510   8.066   9.122  0.3050  0.3369 -0.7304
    5MOL0     H  682   7.648   7.892   8.990  1.4217  1.4054 -0.0113
    5MOL0     H  683   7.757   7.878   9.128  0.9299 -0.5538 -1.8467
    5MOL0     H  684   7.531   7.805   9.260 -0.7839 -1.0873  0.0605
    5MOL0     H  685   7.583   7.693   9.132  1.1540  0.2031 -0.3452
    5MOL0     H  686   7.208   7.861   9.057  0.4072  1.2977  0.2032
    5MOL0     H  687   8.025   8.055   9.267 -2.4625 -3.1287  0.7991
    5MOL0     H  688   8.296   8.160   9.384  1.0089  2.1180  5.0363
    5MOL0     H  689   8.322   8.054   9.513  0.3186  0.6365 -0.0897
    5MOL0     H  690   8.251   7.990   9.368  2.2466 -0.2837  0.1150
    6MOL0     O  691   5.776   9.273   3.874  0.0574 -0.5179 -0.1987
    6MOL0     C  692   5.733   9.273   3.758  0.3316 -0.9533  0.2976
    6MOL0     O  693   5.812   9.275   3.643 -0.3112  0.0115 -0.7884
    6MOL0     C  694   5.941   9.310   3.668 -0.9178 -0.6557 -0.4839
    6MOL0     C  695   5.983   9.435   3.618  0.0195  0.1633 -0.2579
    6MOL0     C  696   6.117   9.474   3.624  0.2890  0.8958  0.1304
    6MOL0     C  697   6.212   9.395   3.695  0.2467 -0.4661 -0.2315
    6MOL0     O  698   6.344   9.431   3.711 -0.0105 -0.1060  0.6026
    6MOL0     C  699   6.355   9.559   3.766  0.3948 -0.4207  0.3953
    6MOL0     C  700   6.504   9.603   3.784  0.1234  0.2894 -0.1702
    6MOL0     C  701   6.571   9.624   3.643 -0.2383  0.2502 -0.2870
    6MOL0     C  702   6.721   9.650   3.647 -0.9209  0.3776 -0.2202
    6MOL0     C  703   6.767   9.674   3.498  0.4310 -0.4489 -0.1382
    6MOL0     C  704   6.910   9.724   3.477  0.0646 -0.2159 -0.1984
    6MOL0     C  705   6.966   9.703   3.347 -0.6745  0.5705  0.3627
    6MOL0     C  706   7.119   9.736   3.333 -0.1301 -0.4453 -0.5796
    6MOL0     N  707   7.149   9.857   3.410 -0.2460 -0.3492 -0.1945
    6MOL0     C  708   7.250   9.879   3.494  0.0221 -0.5887  0.4298
    6MOL0     C  709   7.263  10.017   3.519 -0.0045  0.4372 -0.1021
    6MOL0     C  710   7.363  10.084   3.607  0.5372  0.9975  0.1475
    6MOL0     C  711   7.485  10.149   3.534  0.4919  0.9978  0.2899
    6MOL0     C  712   7.578  10.207   3.649  0.0919 -0.2669 -0.2931
    6MOL0     C  713   7.638  10.109   3.749 -0.2295 -0.4033 -0.1603
    6MOL0     O  714   7.660   9.975   3.690  0.6626  0.0546 -0.8531
    6MOL0     C  715   7.675   9.879   3.787  0.2235  0.4965  0.1555
    6MOL0     C  716   7.705   9.904   3.925  0.5961 -0.0935 -0.3720
    6MOL0     C  717   7.728   9.792   4.016  0.1325  0.6097 -0.2355
    6MOL0     C  718   7.756   9.828   4.164 -0.6147  0.3720 -0.6034
    6MOL0     C  719   7.709   9.657   3.973 -0.7612 -0.2200 -0.4924
    6MOL0     C  720   7.732   9.532   4.057 -0.9423  0.4657 -0.5946
    6MOL0     O  721   7.764   9.416   3.997 -0.1029 -0.2973  0.4293
    6MOL0     C  722   7.813   9.316   4.077 -0.7309  0.3086 -0.3032
    6MOL0     C  723   7.739   9.242   4.161 -0.4948 -0.2884 -0.0471
    6MOL0     C  724   7.794   9.147   4.254 -0.3535 -0.1381 -0.0590
    6MOL0     C  725   7.933   9.115   4.241 -0.6955 -0.1809 -0.0919
    6MOL0     O  726   7.989   9.013   4.309  0.3611  0.0642 -1.0719
    6MOL0     C  727   7.912   8.899   4.335 -0.4952 -0.6677 -0.5466
    6MOL0     C  728   8.003   8.786   4.378 -0.1089 -0.1624  0.1800
    6MOL0     C  729   8.059   8.814   4.519  0.8218 -0.0047 -0.1494
    6MOL0     C  730   8.134   8.697   4.581 -0.1733  0.5892  0.1930
    6MOL0     C  731   8.233   8.616   4.497 -0.3122  0.4118  0.0773
    6MOL0     C  732   8.299   8.509   4.582 -0.0725 -0.4565 -0.1643
    6MOL0     C  733   8.366   8.415   4.482 -0.2221  0.4212 -0.4049
    6MOL0     C  734   8.458   8.312   4.552 -0.1453  0.5122 -0.6920
    6MOL0    Cl  735   8.378   8.170   4.616 -0.0967  0.2341  0.1833
    6MOL0     C  736   8.008   9.197   4.151  0.0230  0.3352  0.3426
    6MOL0     C  737   7.952   9.299   4.072 -0.7947  0.5558  0.2637
    6MOL0     O  738   7.712   9.547   4.178 -0.2531 -0.0878  0.4865
    6MOL0     C  739   7.688   9.634   3.838 -0.1062 -0.2621  0.2361
    6MOL0     C  740   7.667   9.748   3.747 -0.4456 -0.4808 -0.5197
    6MOL0     N  741   7.169  10.078   3.444  0.0675  0.5709 -0.4214
    6MOL0     N  742   7.103   9.983   3.378  0.5150 -0.5970  0.0734
    6MOL0     C  743   6.172   9.267   3.739  0.3026 -0.7138 -0.0735
    6MOL0     C  744   6.044   9.225   3.711  0.3651 -0.9660 -0.1887
    6MOL0     C  745   5.585   9.258   3.739 -0.2072  0.1337 -0.7972
    6MOL0     C  746   5.541   9.214   3.613 -0.1743  0.1636 -0.3040
    6MOL0     C  747   5.408   9.187   3.587  0.8125  0.5208 -0.2526
    6MOL0     C  748   5.308   9.203   3.687  0.2350 -0.6060 -0.3508
    6MOL0     O  749   5.177   9.148   3.680 -0.3302 -0.0247  0.0698
    6MOL0     C  750   5.119   9.142   3.549 -0.5373 -0.6235  0.2854
    6MOL0     C  751   5.083   8.993   3.523 -0.9693 -0.4592 -0.5156
    6MOL0     C  752   5.007   8.963   3.395  0.2356 -0.3112 -0.0540
    6MOL0     C  753   4.964   8.818   3.391 -0.0447 -0.2645 -0.6667
    6MOL0     C  754   4.861   8.800   3.287  0.0809 -0.1961 -1.0162
    6MOL0     C  755   4.764   8.792   3.209 -0.2875  0.3882 -0.1784
    6MOL0     C  756   5.346   9.267   3.797 -0.3297 -0.1550  0.1866
    6MOL0     C  757   5.482   9.296   3.828  0.0882  0.8901 -1.3066
    6MOL0     C  758   5.501   9.358   3.959  0.4104 -0.4802 -0.1711
    6MOL0     H  759   5.911   9.506   3.577  0.9695  0.8525 -0.7516
    6MOL0     H  760   6.152   9.569   3.584  1.4839 -0.0467 -1.1996
    6MOL0     H  761   6.298   9.574   3.859 -1.0197  0.6690 -0.6036
    6MOL0     H  762   6.317   9.632   3.695 -0.1244 -0.3761  0.7128
    6MOL0     H  763   6.503   9.701   3.833  2.6467  0.7578 -0.9306
    6MOL0     H  764   6.550   9.527   3.848 -2.2402 -1.8196 -0.8137
    6MOL0     H  765   6.561   9.527   3.593  0.4533 -1.4669  2.6185
    6MOL0     H  766   6.528   9.709   3.591 -0.1693  0.7568  0.4762
    6MOL0     H  767   6.741   9.731   3.718  3.0092  0.3504 -1.1178
    6MOL0     H  768   6.782   9.569   3.687  1.7662  2.3336 -0.0798
    6MOL0     H  769   6.710   9.746   3.439  5.1823  3.3259 -0.7207
    6MOL0     H  770   6.773   9.575   3.452  2.1796 -0.3967 -0.1103
    6MOL0     H  771   6.912   9.829   3.507  1.5434 -0.0205 -0.8593
    6MOL0     H  772   6.970   9.662   3.545 -3.6159 -3.3796  0.4730
    6MOL0     H  773   6.914   9.763   3.271 -1.8348 -0.4659  0.3022
    6MOL0     H  774   6.953   9.599   3.318  3.7082 -0.2802  0.7384
    6MOL0     H  775   7.178   9.652   3.370  1.6611  1.1651  0.3739
    6MOL0     H  776   7.148   9.759   3.230  3.4394  1.7696  0.7297
    6MOL0     H  777   7.311   9.808   3.549 -0.1754  0.0486  1.4940
    6MOL0     H  778   7.391  10.009   3.681 -0.6124  1.8144  1.4537
    6MOL0     H  779   7.316  10.164   3.665  2.4246  1.2747  1.3978
    6MOL0     H  780   7.533  10.076   3.469  0.8106  0.8454  0.6896
    6MOL0     H  781   7.450  10.232   3.473  0.9592  0.6010 -0.5308
    6MOL0     H  782   7.662  10.260   3.603 -2.4828  2.0752 -2.6292
    6MOL0     H  783   7.522  10.292   3.689  0.2123 -0.2293 -0.2023
    6MOL0     H  784   7.733  10.150   3.784 -0.8607 -0.3638  1.6274
    6MOL0     H  785   7.569  10.110   3.835  0.1128  0.8091  0.1105
    6MOL0     H  786   7.707  10.003   3.969 -0.1940 -0.2338 -0.0021
    6MOL0     H  787   7.766   9.937   4.169 -2.9348  0.5651  2.6013
    6MOL0     H  788   7.850   9.789   4.204 -1.3283  3.0735  4.4965
    6MOL0     H  789   7.677   9.797   4.233  0.9960  2.0660  2.1784
    6MOL0     H  790   7.639   9.283   4.176  0.6289  2.4411  0.5904
    6MOL0     H  791   7.729   9.100   4.326 -2.2929  3.7655  1.0005
    6MOL0     H  792   7.844   8.921   4.418  0.4844 -2.7360  0.8896
    6MOL0     H  793   7.861   8.868   4.244  2.2143  0.3098 -2.5190
    6MOL0     H  794   7.953   8.689   4.366  1.0387 -0.7679  0.1496
    6MOL0     H  795   8.089   8.784   4.310 -1.2452 -3.0529 -1.3733
    6MOL0     H  796   7.972   8.840   4.581  0.5596  0.3625 -0.6649
    6MOL0     H  797   8.117   8.905   4.506  1.3328 -0.6055 -2.3853
    6MOL0     H  798   8.063   8.618   4.608  0.9903 -1.1956 -1.6395
    6MOL0     H  799   8.186   8.737   4.669  0.6261 -2.4960  1.2597
    6MOL0     H  800   8.188   8.578   4.405 -1.1704  1.6885 -0.0489
    6MOL0     H  801   8.308   8.686   4.459 -1.2542  1.7066  0.5401
    6MOL0     H  802   8.233   8.451   4.647  2.2061 -1.0883  1.7283
    6MOL0     H  803   8.375   8.555   4.646  1.0850 -1.1302 -1.0053
    6MOL0     H  804   8.429   8.467   4.409  1.9760  1.6983  2.1998
    6MOL0     H  805   8.287   8.350   4.444  0.1617 -0.3592  0.1203
    6MOL0     H  806   8.518   8.352   4.635  0.9174  2.6831 -2.4133
    6MOL0     H  807   8.525   8.274   4.475  0.2555 -3.2110  1.2828
    6MOL0     H  808   8.114   9.175   4.138 -0.2737 -0.9974 -0.0127
    6MOL0     H  809   8.013   9.356   4.003 -1.3713  0.5604 -0.2630
    6MOL0     H  810   7.682   9.534   3.794 -3.2837  0.2829 -0.8885
    6MOL0     H  811   7.645   9.726   3.643 -4.1029  0.6844 -0.1257
    6MOL0     H  812   6.247   9.202   3.782  3.3545 -0.9180 -4.9023
    6MOL0     H  813   6.020   9.121   3.729  0.7265 -0.7473  1.7703
    6MOL0     H  814   5.614   9.188   3.537  0.1982  0.9110 -0.2121
    6MOL0     H  815   5.372   9.136   3.498 -2.9187  0.0391  1.3203
    6MOL0     H  816   5.033   9.209   3.544  0.0781  0.1438 -0.0725
    6MOL0     H  817   5.180   9.180   3.467 -0.4878  1.7110  1.3245
    6MOL0     H  818   5.035   8.959   3.616  2.0165 -1.8941  0.6252
    6MOL0     H  819   5.172   8.930   3.530 -2.3383 -2.3007  1.9857
    6MOL0     H  820   4.916   9.023   3.393  0.1477 -0.4582 -0.6518
    6MOL0     H  821   5.077   8.982   3.313 -0.4182  1.2196 -0.2915
    6MOL0     H  822   4.926   8.783   3.488  3.2047 -0.0516  0.8205
    6MOL0     H  823   5.046   8.748   3.370 -1.2531 -2.3096  0.9155
    6MOL0     H  824   4.676   8.792   3.148 -1.1887 -2.4165  0.9135
    6MOL0     H  825   5.277   9.279   3.880  1.3170  0.6523  1.5030
    6MOL0     H  826   5.415   9.421   3.984 -0.3028 -0.4405 -2.4567
    6MOL0     H  827   5.520   9.285   4.038 -2.4377 -2.0467 -0.7746
    6MOL0     H  828   5.584   9.428   3.966 -0.0977 -0.0372  5.3701
    7MOL0     O  829   2.001   1.493   8.486 -0.4709 -0.0943  0.0477
    7MOL0     C  830   1.948   1.544   8.394  0.4076 -0.1674  0.2638
    7MOL0     O  831   2.001   1.628   8.303  0.9996 -0.0012  0.0170
    7MOL0     C  832   2.134   1.635   8.287 -0.3523  1.0791  0.8942
    7MOL0     C  833   2.178   1.631   8.156 -0.1381 -0.7146 -0.4853
    7MOL0     C  834   2.318   1.631   8.126 -0.0069  1.1884 -0.0906
    7MOL0     C  835   2.406   1.634   8.230 -0.1722 -0.2298 -0.6552
    7MOL0     O  836   2.541   1.635   8.212  0.0809 -0.4177  0.1650
    7MOL0     C  837   2.594   1.645   8.079 -0.6127 -0.6731 -0.0743
    7MOL0     C  838   2.750   1.659   8.085 -0.2849  0.0476 -0.7976
    7MOL0     C  839   2.794   1.775   8.177  0.3955 -1.0165  0.5368
    7MOL0     C  840   2.943   1.784   8.173  0.1896  0.9917 -0.0300
    7MOL0     C  841   3.002   1.867   8.283 -0.4633  0.5950  0.2611
    7MOL0     C  842   2.942   2.001   8.277  0.6515 -0.0285  1.0818
    7MOL0     C  843   3.027   2.103   8.350 -0.2963  0.3046  0.4979
    7MOL0     C  844   3.149   2.141   8.269 -0.3760 -0.5131  0.8226
    7MOL0     N  845   3.269   2.155   8.350 -0.0406  0.1986  0.7251
    7MOL0     C  846   3.348   2.050   8.391  0.0533  0.2019 -0.4195
    7MOL0     C  847   3.469   2.108   8.411 -0.1636 -0.3724  0.3066
    7MOL0     C  848   3.593   2.031   8.460 -0.7558  0.4994 -0.9216
    7MOL0     C  849   3.720   2.121   8.463  0.1947 -1.1868 -0.0710
    7MOL0     C  850   3.850   2.041   8.505  0.5441 -0.3884 -0.0462
    7MOL0     C  851   3.974   2.116   8.553  0.4643 -0.2623  0.1175
    7MOL0     O  852   4.058   2.023   8.610 -0.6629  0.1262  0.2024
    7MOL0     C  853   4.162   2.072   8.682  0.4447 -0.8770 -0.7079
    7MOL0     C  854   4.157   2.045   8.817  0.1886 -1.0746  0.6573
    7MOL0     C  855   4.261   2.083   8.902 -0.1922 -0.2968  0.9586
    7MOL0     C  856   4.234   2.031   9.044 -0.5243 -0.5422  0.3005
    7MOL0     C  857   4.374   2.160   8.847 -0.3161 -0.0460 -0.0045
    7MOL0     C  858   4.488   2.224   8.936 -0.4465 -0.1224  0.1077
    7MOL0     O  859   4.567   2.320   8.884 -0.3784  0.4398  0.4122
    7MOL0     C  860   4.669   2.377   8.949  0.6021 -0.1328  0.2541
    7MOL0     C  861   4.673   2.423   9.078  0.2939 -0.2881  0.1030
    7MOL0     C  862   4.787   2.470   9.138 -0.6622  0.2763  0.1676
    7MOL0     C  863   4.906   2.488   9.070 -0.1542 -0.5509  0.3173
    7MOL0     O  864   5.026   2.531   9.125 -0.0181  0.0308 -0.6392
    7MOL0     C  865   5.023   2.545   9.271 -0.1397 -0.1687 -0.0095
    7MOL0     C  866   5.166   2.576   9.316 -0.1638 -0.2990  0.2714
    7MOL0     C  867   5.260   2.456   9.317 -0.6654  0.6542  0.4640
    7MOL0     C  868   5.410   2.494   9.272  0.1034 -0.1156 -0.2092
    7MOL0     C  869   5.501   2.371   9.255  0.0827 -0.7721  0.4271
    7MOL0     C  870   5.529   2.270   9.377  0.3454 -0.1118  0.3144
    7MOL0     C  871   5.619   2.151   9.344  0.3684 -0.2068 -0.2078
    7MOL0     C  872   5.767   2.181   9.381 -0.3401  0.2441 -1.1514
    7MOL0    Cl  873   5.792   2.236   9.551 -0.1447  0.4624 -0.2993
    7MOL0     C  874   4.905   2.441   8.936 -0.0070 -0.3855 -1.0316
    7MOL0     C  875   4.788   2.395   8.880  0.2106  0.3869  0.4575
    7MOL0     O  876   4.493   2.189   9.050  0.1160  0.2779 -0.0573
    7MOL0     C  877   4.377   2.182   8.706 -0.3462  0.3392 -0.1493
    7MOL0     C  878   4.268   2.143   8.625 -0.9285  0.0341 -0.1114
    7MOL0     N  879   3.468   2.241   8.377 -0.2282 -0.5256  0.5724
    7MOL0     N  880   3.347   2.272   8.346 -0.9130  0.2607 -0.3893
    7MOL0     C  881   2.366   1.644   8.360  0.0842 -0.6824  0.5103
    7MOL0     C  882   2.229   1.637   8.393 -0.2606  0.3176 -0.3404
    7MOL0     C  883   1.795   1.532   8.400  0.9158  0.9990 -0.5661
    7MOL0     C  884   1.711   1.623   8.325 -0.1715 -0.6127  0.5224
    7MOL0     C  885   1.571   1.625   8.336 -0.0961  0.0327  0.7086
    7MOL0     C  886   1.509   1.535   8.420 -0.0593 -0.3839 -0.0942
    7MOL0     O  887   1.376   1.541   8.430 -0.6863  0.0801 -0.3095
    7MOL0     C  888   1.297   1.451   8.509  0.0367  0.0998 -0.4266
    7MOL0     C  889   1.152   1.481   8.491 -0.4724 -0.5247 -0.1145
    7MOL0     C  890   1.058   1.388   8.580 -0.2736 -0.3945 -0.6667
    7MOL0     C  891   0.906   1.414   8.547 -0.6855  0.4506  0.5844
    7MOL0     C  892   0.870   1.555   8.580 -0.5905 -0.3017  0.4736
    7MOL0     C  893   0.845   1.671   8.608 -0.4193  0.0906 -0.1873
    7MOL0     C  894   1.589   1.439   8.492  0.5703  0.2159  0.7663
    7MOL0     C  895   1.723   1.424   8.473  0.0231  0.7399 -0.3141
    7MOL0     C  896   1.788   1.307   8.536 -0.2695 -0.0981  0.9542
    7MOL0     H  897   2.099   1.629   8.082 -2.7859  0.5854  2.1464
    7MOL0     H  898   2.351   1.614   8.025 -2.0418  0.1236 -0.6413
    7MOL0     H  899   2.554   1.739   8.040 -1.1640 -0.8592  0.0273
    7MOL0     H  900   2.564   1.558   8.020 -2.0359  1.3689 -2.5838
    7MOL0     H  901   2.799   1.566   8.116  1.1394  0.6119 -1.2653
    7MOL0     H  902   2.794   1.689   7.989  0.1703 -1.7224 -1.1770
    7MOL0     H  903   2.755   1.871   8.143  2.7725 -0.8492 -2.0609
    7MOL0     H  904   2.759   1.762   8.280 -1.6367 -1.4538 -0.1636
    7MOL0     H  905   2.986   1.684   8.172  1.5195  1.4879  1.7556
    7MOL0     H  906   2.973   1.822   8.075 -2.5170  1.1812 -0.8799
    7MOL0     H  907   3.109   1.869   8.264 -0.6359 -1.6298 -1.3472
    7MOL0     H  908   2.982   1.825   8.383  1.2206 -0.2221  0.2800
    7MOL0     H  909   2.951   2.024   8.170  3.7953 -2.8801  0.5420
    7MOL0     H  910   2.837   1.992   8.305 -0.0245 -0.1042 -1.2264
    7MOL0     H  911   3.063   2.051   8.439 -2.7403 -3.2317 -0.3753
    7MOL0     H  912   2.968   2.194   8.365  0.9056  1.3484 -0.8672
    7MOL0     H  913   3.170   2.078   8.183  0.9691 -0.7411  1.2943
    7MOL0     H  914   3.137   2.237   8.218  2.2360  1.9368  4.3229
    7MOL0     H  915   3.317   1.947   8.406 -2.2128  0.9674  0.4758
    7MOL0     H  916   3.609   1.948   8.391 -5.8514  0.7018 -2.7742
    7MOL0     H  917   3.579   1.993   8.561 -0.0252 -1.5717 -1.5434
    7MOL0     H  918   3.712   2.167   8.364 -0.3993 -1.5576 -0.2021
    7MOL0     H  919   3.703   2.201   8.536 -2.7197  1.5250 -3.3911
    7MOL0     H  920   3.817   1.990   8.596  0.5461  2.5188  1.7211
    7MOL0     H  921   3.890   1.987   8.418  0.8614  1.8732 -1.3928
    7MOL0     H  922   4.020   2.173   8.472  1.6287  1.2224  1.7263
    7MOL0     H  923   3.937   2.188   8.627  0.0221 -0.2390 -0.1238
    7MOL0     H  924   4.076   1.977   8.843 -0.1071 -0.1017  2.3882
    7MOL0     H  925   4.128   2.006   9.046 -1.1744  1.8945 -0.2434
    7MOL0     H  926   4.258   2.109   9.117 -0.0458  0.8621 -1.2847
    7MOL0     H  927   4.292   1.941   9.067 -0.3103  0.1647  2.7992
    7MOL0     H  928   4.581   2.409   9.134  0.9083 -1.3598  0.8811
    7MOL0     H  929   4.777   2.493   9.244  1.5576 -1.8409  0.9300
    7MOL0     H  930   4.955   2.629   9.290  0.3401  0.7794 -2.2568
    7MOL0     H  931   4.987   2.452   9.316 -1.1644 -0.7241 -1.8711
    7MOL0     H  932   5.202   2.652   9.246  0.3631 -1.4694 -0.7623
    7MOL0     H  933   5.166   2.613   9.419  1.2866  0.9661 -0.1352
    7MOL0     H  934   5.218   2.384   9.246 -2.2143  2.4975 -0.5697
    7MOL0     H  935   5.270   2.414   9.417  1.7616 -1.2262 -0.4587
    7MOL0     H  936   5.448   2.564   9.348 -1.8719  0.7689  0.0056
    7MOL0     H  937   5.397   2.548   9.178  2.6080  0.1498 -0.4786
    7MOL0     H  938   5.468   2.303   9.176  0.0976 -1.2176  0.8003
    7MOL0     H  939   5.600   2.416   9.238 -0.8203  0.7720 -1.0371
    7MOL0     H  940   5.430   2.224   9.382  0.9313 -2.0842 -3.0224
    7MOL0     H  941   5.552   2.325   9.468 -3.4313  2.5224 -0.0759
    7MOL0     H  942   5.607   2.126   9.238  0.3314 -2.8492  0.3357
    7MOL0     H  943   5.590   2.064   9.405 -0.5038 -0.3119 -0.7622
    7MOL0     H  944   5.803   2.259   9.313 -0.3969  2.3793  1.1279
    7MOL0     H  945   5.826   2.089   9.371 -1.5155 -0.3154 -4.2288
    7MOL0     H  946   4.986   2.436   8.865 -1.4356 -0.0246 -2.7695
    7MOL0     H  947   4.800   2.362   8.777  1.3489  2.2789 -0.0493
    7MOL0     H  948   4.450   2.248   8.660 -1.0279 -0.4625 -2.5839
    7MOL0     H  949   4.271   2.164   8.518  3.0819  0.4718 -0.0501
    7MOL0     H  950   2.434   1.641   8.444 -1.2441 -0.4199  1.6220
    7MOL0     H  951   2.206   1.644   8.499 -1.1771  0.9571 -0.5743
    7MOL0     H  952   1.757   1.694   8.257 -0.3472  0.8312  1.8477
    7MOL0     H  953   1.523   1.693   8.267  0.6940 -2.4239 -2.5280
    7MOL0     H  954   1.305   1.344   8.486 -0.5719 -0.1704  0.5215
    7MOL0     H  955   1.325   1.465   8.614  2.0572  2.5721 -1.2005
    7MOL0     H  956   1.138   1.469   8.383 -2.5029  2.1233 -0.2616
    7MOL0     H  957   1.137   1.585   8.520 -0.0581 -0.9836  1.8771
    7MOL0     H  958   1.085   1.286   8.550  1.0980 -0.0697 -0.6171
    7MOL0     H  959   1.079   1.398   8.687  1.1323 -1.6791 -0.7867
    7MOL0     H  960   0.844   1.343   8.602  0.3813 -2.3442 -1.5394
    7MOL0     H  961   0.902   1.394   8.439  2.5856  2.1172 -0.0062
    7MOL0     H  962   0.824   1.775   8.626 -1.7974 -0.2943  0.5772
    7MOL0     H  963   1.537   1.378   8.564  0.9746 -3.6838 -1.9412
    7MOL0     H  964   1.725   1.218   8.528 -1.5854  0.9227 -0.8005
    7MOL0     H  965   1.881   1.282   8.485 -0.7748  1.7084 -0.9907
    7MOL0     H  966   1.810   1.326   8.642  0.9975  0.3760  0.6222
    8MOL0     O  967   1.967   8.471   0.527 -0.2270  0.1249 -0.0941
    8MOL0     C  968   2.088   8.451   0.553 -0.2823  0.1702  0.1520
    8MOL0     O  969   2.142   8.342   0.612  0.0887 -0.0987 -0.5584
    8MOL0     C  970   2.058   8.243   0.647  0.2976  0.7131  0.0722
    8MOL0     C  971   1.960   8.268   0.753  0.6792  0.6368 -0.4400
    8MOL0     C  972   1.862   8.172   0.779 -1.0471  0.3072  0.2564
    8MOL0     C  973   1.856   8.051   0.701 -0.1777 -0.4294 -0.8142
    8MOL0     O  974   1.766   7.946   0.735 -0.0957 -0.0143 -0.2341
    8MOL0     C  975   1.792   7.825   0.687 -0.0247  0.7783 -0.2029
    8MOL0     C  976   1.695   7.722   0.741 -0.4534 -0.8152  0.8537
    8MOL0     C  977   1.707   7.579   0.682 -0.0204 -0.9353 -0.3011
    8MOL0     C  978   1.670   7.562   0.535 -0.1896  0.4312 -0.1008
    8MOL0     C  979   1.673   7.419   0.474  0.0096 -0.0032 -0.6817
    8MOL0     C  980   1.635   7.436   0.323  0.0837  0.7831 -0.2935
    8MOL0     C  981   1.649   7.301   0.261 -0.4578 -0.6402  0.3311
    8MOL0     C  982   1.582   7.298   0.125  0.3532  1.1681 -0.1571
    8MOL0     N  983   1.605   7.163   0.066 -0.1386 -0.0354  0.2555
    8MOL0     C  984   1.512   7.090  -0.000  0.6256 -0.7766 -0.9220
    8MOL0     C  985   1.575   6.985  -0.044  0.3737  0.4202 -0.5663
    8MOL0     C  986   1.513   6.864  -0.097 -0.5255  0.0463  0.2412
    8MOL0     C  987   1.486   6.875  -0.249  0.3090  0.0711  0.1753
    8MOL0     C  988   1.476   6.734  -0.329 -1.4210 -0.8616 -0.9986
    8MOL0     C  989   1.370   6.641  -0.265 -0.2646 -0.5189  0.1927
    8MOL0     O  990   1.355   6.523  -0.342 -0.2037 -0.4072 -0.0981
    8MOL0     C  991   1.463   6.443  -0.352 -0.1008 -0.2581  0.8685
    8MOL0     C  992   1.538   6.397  -0.240 -0.6522 -0.1566 -0.5014
    8MOL0     C  993   1.644   6.308  -0.265  0.7419  0.2559  0.1886
    8MOL0     C  994   1.698   6.240  -0.142  0.2295  0.9673 -0.1717
    8MOL0     C  995   1.685   6.274  -0.395 -0.7625 -0.1529  0.5292
    8MOL0     C  996   1.804   6.189  -0.424  0.4414 -0.7080  0.5868
    8MOL0     O  997   1.897   6.182  -0.332 -0.7306  0.2199 -0.9035
    8MOL0     C  998   2.029   6.164  -0.357  0.2616  0.5110 -0.1233
    8MOL0     C  999   2.089   6.204  -0.469 -1.1494  0.8213 -0.5484
    8MOL0     C 1000   2.219   6.160  -0.494 -0.4339 -0.2570  0.4105
    8MOL0     C 1001   2.295   6.081  -0.400  0.2358 -0.5731  0.2044
    8MOL0     O 1002   2.424   6.056  -0.445  0.3130  0.1693 -0.0485
    8MOL0     C 1003   2.524   6.028  -0.352 -0.3939  0.3328  0.2445
    8MOL0     C 1004   2.663   6.027  -0.415 -0.4420 -0.8695  0.5751
    8MOL0     C 1005   2.763   6.003  -0.314 -0.5543 -0.4672 -0.6331
    8MOL0     C 1006   2.907   5.981  -0.348  0.6297  0.2831 -0.0414
    8MOL0     C 1007   2.953   6.065  -0.472  0.5280 -0.0688 -0.2388
    8MOL0     C 1008   3.094   6.028  -0.507  0.6513  0.4950  0.0982
    8MOL0     C 1009   3.162   6.139  -0.584 -0.2467  0.0251 -0.4464
    8MOL0     C 1010   3.309   6.109  -0.573 -0.0283 -0.4157  0.2425
    8MOL0    Cl 1011   3.362   5.952  -0.642 -0.3294 -0.1555  0.5488
    8MOL0     C 1012   2.236   6.047  -0.284 -0.2693  0.1359  0.0855
    8MOL0     C 1013   2.104   6.088  -0.260  0.8685 -1.1626 -0.4700
    8MOL0     O 1014   1.820   6.141  -0.540 -0.2121  0.3264  0.3478
    8MOL0     C 1015   1.617   6.328  -0.503 -0.0680 -0.2674 -0.5446
    8MOL0     C 1016   1.506   6.412  -0.479 -0.8093  0.1120 -0.0739
    8MOL0     N 1017   1.712   6.995  -0.014  1.2493  0.0554 -0.1831
    8MOL0     N 1018   1.728   7.104   0.059  0.3929  0.6228  0.3025
    8MOL0     C 1019   1.953   8.026   0.595  0.6322 -0.5124 -0.9116
    8MOL0     C 1020   2.056   8.122   0.576  0.3421  0.0003  0.4415
    8MOL0     C 1021   2.195   8.550   0.523 -0.4172 -0.6052  1.1347
    8MOL0     C 1022   2.327   8.501   0.521 -0.8551 -0.4188 -1.2403
    8MOL0     C 1023   2.434   8.586   0.531 -0.0092  0.2264  0.1868
    8MOL0     C 1024   2.417   8.726   0.517 -0.0017 -0.6220  0.9537
    8MOL0     O 1025   2.529   8.807   0.532 -0.6341  0.2517  0.1987
    8MOL0     C 1026   2.546   8.928   0.465  0.5176  0.2128  0.6942
    8MOL0     C 1027   2.690   8.969   0.455 -0.0152 -0.7090 -1.4201
    8MOL0     C 1028   2.751   9.010   0.595 -0.5388  0.2213 -0.3814
    8MOL0     C 1029   2.910   9.029   0.585  0.9772 -1.0068 -0.5745
    8MOL0     C 1030   2.974   9.073   0.708  0.2373  0.7568  1.0226
    8MOL0     C 1031   3.028   9.102   0.814  0.6835  0.3591 -0.6741
    8MOL0     C 1032   2.286   8.778   0.493 -0.4576  0.3175 -0.8752
    8MOL0     C 1033   2.178   8.693   0.502  0.2363  0.2894 -0.1314
    8MOL0     C 1034   2.039   8.756   0.506  0.3747 -0.4566 -0.3582
    8MOL0     H 1035   1.971   8.358   0.813  0.7921  1.5740 -1.8064
    8MOL0     H 1036   1.784   8.194   0.851 -1.4795  1.9061 -0.6474
    8MOL0     H 1037   1.895   7.799   0.710  0.4449  1.5048 -1.3855
    8MOL0     H 1038   1.773   7.824   0.579 -0.7337 -2.9411 -0.1932
    8MOL0     H 1039   1.714   7.712   0.848 -3.1478  1.9357  1.6994
    8MOL0     H 1040   1.594   7.758   0.722  0.4678  0.4878 -2.2665
    8MOL0     H 1041   1.800   7.524   0.703 -0.0936 -0.7308  0.5933
    8MOL0     H 1042   1.635   7.513   0.732  0.7471 -1.4221  0.1809
    8MOL0     H 1043   1.565   7.591   0.537 -0.8781 -1.8638 -0.1493
    8MOL0     H 1044   1.732   7.634   0.481  2.5703 -0.3837  1.7840
    8MOL0     H 1045   1.601   7.354   0.526  0.0105  0.1313 -0.5098
    8MOL0     H 1046   1.776   7.387   0.487  0.4264  0.0291 -3.3716
    8MOL0     H 1047   1.538   7.486   0.319 -2.0769 -2.7018  2.3306
    8MOL0     H 1048   1.697   7.499   0.260 -0.8291 -1.4276 -3.6534
    8MOL0     H 1049   1.601   7.226   0.324 -2.1852  0.4007  0.3336
    8MOL0     H 1050   1.755   7.277   0.257 -0.6632 -1.9768  1.9760
    8MOL0     H 1051   1.476   7.318   0.142  0.3958  1.1195  0.1553
    8MOL0     H 1052   1.620   7.367   0.048  1.5357  1.3517  0.5772
    8MOL0     H 1053   1.407   7.118  -0.009  0.1837 -2.0280  0.0542
    8MOL0     H 1054   1.420   6.840  -0.045 -0.0698 -2.7769 -0.1233
    8MOL0     H 1055   1.583   6.782  -0.079 -0.9579 -0.3847 -0.0201
    8MOL0     H 1056   1.388   6.921  -0.264 -1.1040 -3.3412 -2.2887
    8MOL0     H 1057   1.573   6.927  -0.290  3.6823 -2.9744  2.8190
    8MOL0     H 1058   1.453   6.735  -0.435  0.0255  2.1627 -1.3725
    8MOL0     H 1059   1.576   6.691  -0.319 -1.2339 -0.1655  0.4016
    8MOL0     H 1060   1.383   6.626  -0.157 -0.2779  2.1218  0.6307
    8MOL0     H 1061   1.278   6.699  -0.272  0.1416 -0.0512 -2.0403
    8MOL0     H 1062   1.500   6.422  -0.141 -1.6764 -2.4047 -0.2554
    8MOL0     H 1063   1.635   6.265  -0.057  3.2447  1.1179  2.1750
    8MOL0     H 1064   1.801   6.269  -0.121  0.0480  1.8676 -0.4892
    8MOL0     H 1065   1.693   6.132  -0.161  1.7850  1.0031 -0.9667
    8MOL0     H 1066   2.050   6.275  -0.541  0.0456  3.0814  0.9034
    8MOL0     H 1067   2.270   6.202  -0.580 -1.6686  0.7778  0.1560
    8MOL0     H 1068   2.533   6.097  -0.268 -0.3401  1.7305 -0.8554
    8MOL0     H 1069   2.488   5.934  -0.311 -5.2512  1.3578 -1.0486
    8MOL0     H 1070   2.664   5.950  -0.492 -1.6488 -0.3049 -0.0414
    8MOL0     H 1071   2.682   6.125  -0.460 -0.2470 -1.7810 -1.4117
    8MOL0     H 1072   2.726   5.918  -0.257  0.1907  0.2562  0.9881
    8MOL0     H 1073   2.762   6.094  -0.253 -0.9283  0.9635 -2.6504
    8MOL0     H 1074   2.921   5.875  -0.374  1.9619  0.9036 -2.1286
    8MOL0     H 1075   2.955   6.003  -0.252 -4.1681 -0.5050  2.8465
    8MOL0     H 1076   2.899   6.045  -0.565  0.6391  0.7344 -0.4839
    8MOL0     H 1077   2.933   6.170  -0.448  1.0885 -0.1512  0.6146
    8MOL0     H 1078   3.089   5.932  -0.559 -1.0017 -0.0462  1.1669
    8MOL0     H 1079   3.154   6.015  -0.417  1.5232  3.2796  0.0050
    8MOL0     H 1080   3.149   6.237  -0.537  1.2819 -0.3914  0.9200
    8MOL0     H 1081   3.111   6.149  -0.681 -4.7495 -0.1370  1.6332
    8MOL0     H 1082   3.338   6.090  -0.469  0.9201  0.6942  0.1932
    8MOL0     H 1083   3.369   6.188  -0.620  0.2981 -0.8076 -0.0126
    8MOL0     H 1084   2.285   5.988  -0.206  1.9151 -0.9454 -1.9719
    8MOL0     H 1085   2.050   6.036  -0.181  0.1145  0.3064  0.0136
    8MOL0     H 1086   1.648   6.300  -0.603  0.7052 -1.8288  0.0994
    8MOL0     H 1087   1.461   6.453  -0.570  0.4454 -1.5060 -1.4933
    8MOL0     H 1088   1.969   7.929   0.549  1.2519 -0.8986  0.0901
    8MOL0     H 1089   2.127   8.114   0.494 -1.2142  1.5982 -1.1528
    8MOL0     H 1090   2.351   8.396   0.509  1.5663 -0.1424  0.3894
    8MOL0     H 1091   2.527   8.534   0.554  0.7310  2.0442  1.5703
    8MOL0     H 1092   2.507   8.928   0.363 -0.1621  0.2319  0.9469
    8MOL0     H 1093   2.491   8.998   0.529 -0.7860  0.6532 -0.8518
    8MOL0     H 1094   2.706   9.056   0.390 -0.0419 -0.0173 -0.5142
    8MOL0     H 1095   2.747   8.883   0.418 -0.5909 -1.6871 -0.0912
    8MOL0     H 1096   2.707   9.103   0.632  0.7052  0.4438  0.6271
    8MOL0     H 1097   2.734   8.928   0.665  2.0013 -0.0944 -0.0286
    8MOL0     H 1098   2.927   9.103   0.506 -1.6531 -1.3748 -1.5559
    8MOL0     H 1099   2.957   8.934   0.560  0.7520 -2.3004  3.2027
    8MOL0     H 1100   3.068   9.118   0.912  1.6419 -1.7617 -0.6570
    8MOL0     H 1101   2.275   8.885   0.479 -2.5904  0.0390 -1.8504
    8MOL0     H 1102   1.992   8.725   0.599  1.0500 -2.0110 -0.5031
    8MOL0     H 1103   2.043   8.865   0.510 -0.4000 -0.4486  0.7296
    8MOL0     H 1104   1.979   8.711   0.426  1.4274 -1.5300 -0.5938
    9MOL0     O 1105   9.347   4.305   5.730  0.5250  0.2004  1.0067
    9MOL0     C 1106   9.345   4.430   5.700  0.1231  0.5620  1.0449
    9MOL0     O 1107   9.459   4.511   5.681  0.0649  0.2350 -0.3247
    9MOL0     C 1108   9.578   4.441   5.677 -0.3382 -0.7237 -0.1710
    9MOL0     C 1109   9.644   4.413   5.798  0.5986 -0.9109  0.2242
    9MOL0     C 1110   9.766   4.348   5.801 -0.0532 -0.3904 -0.1938
    9MOL0     C 1111   9.820   4.299   5.681  0.0734  0.0895  0.0678
    9MOL0     O 1112   9.940   4.229   5.701  0.4973  0.2985 -0.3954
    9MOL0     C 1113  10.013   4.183   5.581  0.4835  0.5314 -0.0587
    9MOL0     C 1114   9.955   4.058   5.520 -0.2654  0.3015 -0.0437
    9MOL0     C 1115  10.053   3.980   5.437  0.3056  0.2807 -0.4016
    9MOL0     C 1116  10.132   4.070   5.341 -0.2512  0.9035 -0.3804
    9MOL0     C 1117  10.188   3.991   5.226 -0.4967  0.8843 -0.3349
    9MOL0     C 1118  10.261   4.070   5.118 -0.0076 -0.2785  0.0539
    9MOL0     C 1119  10.166   4.116   5.005 -0.0746  0.5275  0.6348
    9MOL0     C 1120  10.233   4.145   4.877 -0.2117  0.0115  1.2647
    9MOL0     N 1121  10.146   4.232   4.788 -0.0390  0.5910  0.0521
    9MOL0     C 1122  10.056   4.187   4.699  0.5469  0.0752  0.3355
    9MOL0     C 1123   9.971   4.297   4.680 -0.0803  0.3643  0.8781
    9MOL0     C 1124   9.851   4.286   4.588  0.2770 -0.1289 -0.5216
    9MOL0     C 1125   9.719   4.243   4.652  0.1973  0.8412 -0.4378
    9MOL0     C 1126   9.726   4.090   4.689  0.2347  0.0686 -0.3566
    9MOL0     C 1127   9.610   4.051   4.769  0.3117 -0.5979 -0.0717
    9MOL0     O 1128   9.631   3.915   4.786 -0.0358 -0.0621 -0.0496
    9MOL0     C 1129   9.527   3.846   4.854 -1.0780 -0.7997  0.5137
    9MOL0     C 1130   9.424   3.908   4.927 -0.7490  0.3874 -0.3819
    9MOL0     C 1131   9.344   3.835   5.010 -0.2573 -0.5040 -0.0142
    9MOL0     C 1132   9.239   3.911   5.095 -0.1105 -0.2467  0.8018
    9MOL0     C 1133   9.353   3.698   5.010  0.4599  0.1818  0.0637
    9MOL0     C 1134   9.264   3.611   5.093  0.1440  0.9372 -0.7351
    9MOL0     O 1135   9.231   3.649   5.218  0.3974 -0.0850  0.3853
    9MOL0     C 1136   9.193   3.557   5.313  0.7047  0.6209  0.0448
    9MOL0     C 1137   9.050   3.572   5.340  1.0694  0.9878 -0.2951
    9MOL0     C 1138   8.988   3.481   5.427  0.1713  0.8187  0.1748
    9MOL0     C 1139   9.074   3.395   5.508  0.0863  0.8603  0.2330
    9MOL0     O 1140   9.019   3.333   5.620  0.2696 -0.4807  0.0478
    9MOL0     C 1141   9.062   3.204   5.666  0.3075 -0.2078 -0.6632
    9MOL0     C 1142   8.956   3.142   5.761  0.0176 -0.2812 -0.3021
    9MOL0     C 1143   8.820   3.105   5.687  0.2611 -0.1879 -0.2328
    9MOL0     C 1144   8.824   2.965   5.615  0.6991 -0.7486 -0.1778
    9MOL0     C 1145   8.686   2.936   5.547 -0.0679 -0.3348 -1.1210
    9MOL0     C 1146   8.688   2.794   5.488 -0.1323 -0.0540 -0.6226
    9MOL0     C 1147   8.585   2.764   5.378  0.8893 -0.8333 -0.9933
    9MOL0     C 1148   8.444   2.790   5.432  0.7364  0.0991 -0.0295
    9MOL0    Cl 1149   8.344   2.700   5.320  0.1722 -0.2862 -0.0024
    9MOL0     C 1150   9.211   3.398   5.488 -0.9429 -0.5592 -0.6025
    9MOL0     C 1151   9.271   3.471   5.385  0.7249 -0.1612 -0.3490
    9MOL0     O 1152   9.244   3.499   5.056 -0.3419 -0.2690  0.0865
    9MOL0     C 1153   9.458   3.629   4.941 -1.3860  0.2392  0.1518
    9MOL0     C 1154   9.547   3.709   4.868  0.3095  0.6208 -0.2518
    9MOL0     N 1155  10.021   4.405   4.744  0.1232  0.4702 -0.4243
    9MOL0     N 1156  10.126   4.366   4.808 -0.0316  0.7623  0.0398
    9MOL0     C 1157   9.741   4.309   5.560 -0.4159 -0.0296 -0.6937
    9MOL0     C 1158   9.626   4.385   5.562  0.1474  0.0103  0.0254
    9MOL0     C 1159   9.222   4.518   5.722 -0.3003 -0.0030 -0.0865
    9MOL0     C 1160   9.239   4.613   5.826  0.7137 -0.0941  0.6976
    9MOL0     C 1161   9.146   4.718   5.838 -0.0159  0.2581 -0.2923
    9MOL0     C 1162   9.027   4.711   5.772  0.6648  0.8173  0.1316
    9MOL0     O 1163   8.938   4.811   5.792  0.2635 -0.4937 -0.0094
    9MOL0     C 1164   8.807   4.791   5.853  1.2212 -0.2955  0.0635
    9MOL0     C 1165   8.805   4.775   6.011  0.0248  0.0672  0.3119
    9MOL0     C 1166   8.854   4.902   6.078 -0.9096  0.1767 -0.3286
    9MOL0     C 1167   8.746   5.010   6.095  0.0030 -0.4058  0.7224
    9MOL0     C 1168   8.626   4.975   6.176 -0.0885  0.4956  0.5851
    9MOL0     C 1169   8.518   4.953   6.237 -0.1616  0.1059  0.0443
    9MOL0     C 1170   9.012   4.606   5.678 -0.4040 -0.3257 -1.0318
    9MOL0     C 1171   9.108   4.513   5.644 -0.0200  0.1592 -0.6778
    9MOL0     C 1172   9.110   4.409   5.537 -0.4908  0.1508  1.4148
    9MOL0     H 1173   9.593   4.454   5.885 -1.7911 -0.5592 -1.2377
    9MOL0     H 1174   9.822   4.342   5.893  0.0722  3.3574  0.0915
    9MOL0     H 1175  10.118   4.166   5.605  0.4223  2.5654  1.9840
    9MOL0     H 1176  10.006   4.264   5.508  0.0328  0.7460  0.2177
    9MOL0     H 1177   9.932   3.985   5.599  0.7288  1.4320  1.3493
    9MOL0     H 1178   9.859   4.068   5.468 -1.7099 -0.5218  2.2997
    9MOL0     H 1179  10.120   3.927   5.505  1.9466  0.8105 -1.5355
    9MOL0     H 1180  10.014   3.892   5.386  0.2389  0.5077 -0.7497
    9MOL0     H 1181  10.072   4.152   5.302 -1.1591 -0.6551 -2.4488
    9MOL0     H 1182  10.210   4.117   5.403 -0.1758  1.6316 -1.0177
    9MOL0     H 1183  10.126   3.910   5.187  2.2388 -1.6443  0.1940
    9MOL0     H 1184  10.263   3.925   5.273  0.1789  2.2138  0.5322
    9MOL0     H 1185  10.310   4.152   5.171  1.1338 -0.6495 -0.3726
    9MOL0     H 1186  10.333   4.000   5.073  3.8175  2.7770  0.8668
    9MOL0     H 1187  10.096   4.193   5.038  0.2366  0.1432  2.2558
    9MOL0     H 1188  10.107   4.027   4.977  3.3496 -0.5931 -4.4430
    9MOL0     H 1189  10.327   4.201   4.887 -1.0117  1.9826 -1.2032
    9MOL0     H 1190  10.246   4.050   4.825 -0.0697 -0.4485  2.1222
    9MOL0     H 1191  10.045   4.084   4.665 -0.6472 -0.2391  1.5708
    9MOL0     H 1192   9.880   4.219   4.507 -0.8065  0.1054 -1.1245
    9MOL0     H 1193   9.834   4.389   4.554 -0.7179  0.8092  2.4654
    9MOL0     H 1194   9.695   4.292   4.747 -2.5351  4.0028 -2.5491
    9MOL0     H 1195   9.636   4.247   4.580  1.1073  0.7685 -1.5085
    9MOL0     H 1196   9.735   4.024   4.602 -1.2132 -0.0303 -0.4479
    9MOL0     H 1197   9.812   4.058   4.748 -0.5181  0.7446  1.1506
    9MOL0     H 1198   9.621   4.116   4.857  2.2763 -2.2825  1.0117
    9MOL0     H 1199   9.514   4.062   4.718  0.8046  0.6741 -0.7704
    9MOL0     H 1200   9.402   4.014   4.931 -0.3786  0.4611 -0.3287
    9MOL0     H 1201   9.264   3.897   5.201  0.1169  0.0247  0.7854
    9MOL0     H 1202   9.141   3.876   5.063 -0.6041  2.8832 -1.5603
    9MOL0     H 1203   9.243   4.018   5.070  1.6365 -0.5497 -0.4106
    9MOL0     H 1204   9.009   3.653   5.281  1.1670  2.0411  1.0278
    9MOL0     H 1205   8.881   3.486   5.447  0.5627  3.1424  2.2100
    9MOL0     H 1206   9.082   3.133   5.585  4.4997  1.3690 -1.2468
    9MOL0     H 1207   9.157   3.215   5.719  0.5740 -2.6699 -0.4897
    9MOL0     H 1208   9.009   3.057   5.803 -1.4760 -0.1729  1.9553
    9MOL0     H 1209   8.929   3.222   5.830 -5.3345 -0.0260 -2.1426
    9MOL0     H 1210   8.801   3.188   5.618 -2.4785  0.1170  0.7648
    9MOL0     H 1211   8.737   3.096   5.757  0.8818 -2.2817  0.2978
    9MOL0     H 1212   8.851   2.888   5.688 -0.8831  0.0839  1.3478
    9MOL0     H 1213   8.899   2.966   5.535 -0.8862 -2.2728 -1.7855
    9MOL0     H 1214   8.609   2.946   5.624 -2.7059 -0.1411 -3.6307
    9MOL0     H 1215   8.660   3.007   5.469 -1.0004 -1.2686 -1.6941
    9MOL0     H 1216   8.664   2.713   5.557  0.5139 -1.5449 -2.0852
    9MOL0     H 1217   8.784   2.772   5.440  0.2933 -3.6050  1.5188
    9MOL0     H 1218   8.584   2.656   5.360 -0.5222 -1.2097  1.0532
    9MOL0     H 1219   8.599   2.820   5.284 -0.6911  0.2763 -0.6250
    9MOL0     H 1220   8.427   2.897   5.419 -1.1033 -0.1802 -0.2804
    9MOL0     H 1221   8.440   2.767   5.538  3.4908 -0.2651  0.0674
    9MOL0     H 1222   9.275   3.351   5.562  0.7486 -0.7073 -2.1091
    9MOL0     H 1223   9.379   3.468   5.377  0.8082 -1.5346  0.9024
    9MOL0     H 1224   9.468   3.522   4.955 -0.0972  0.1628 -1.1643
    9MOL0     H 1225   9.634   3.666   4.820  0.0977  0.9127 -0.8959
    9MOL0     H 1226   9.753   4.268   5.461 -4.0287 -1.5951 -0.6003
    9MOL0     H 1227   9.564   4.395   5.473  2.0956 -1.4932 -1.5880
    9MOL0     H 1228   9.325   4.600   5.891  2.8161 -1.6885 -2.1681
    9MOL0     H 1229   9.158   4.800   5.908  0.7575 -0.4497  0.4278
    9MOL0     H 1230   8.754   4.878   5.814 -0.5905 -1.5401 -0.3429
    9MOL0     H 1231   8.760   4.706   5.802 -0.7922  0.3688  0.7346
    9MOL0     H 1232   8.867   4.689   6.039 -1.1182  0.1591  3.6728
    9MOL0     H 1233   8.701   4.750   6.036  0.0656  1.5015  2.1118
    9MOL0     H 1234   8.885   4.880   6.180  1.1845  1.5440 -0.6003
    9MOL0     H 1235   8.943   4.939   6.027  0.6180 -0.9601  1.3895
    9MOL0     H 1236   8.715   5.033   5.993  1.2410  2.0053  0.8249
    9MOL0     H 1237   8.795   5.102   6.129  1.1783 -2.2889  4.7151
    9MOL0     H 1238   8.448   4.925   6.313 -1.0138  1.8369 -0.0511
    9MOL0     H 1239   8.919   4.604   5.622 -1.9579 -1.4503  1.4217
    9MOL0     H 1240   9.193   4.416   5.467 -1.7799 -1.4990 -0.3528
    9MOL0     H 1241   9.110   4.308   5.579  3.7321 -0.5518  0.1456
    9MOL0     H 1242   9.023   4.416   5.471  1.4738  0.0358 -1.3029
   10MOL0     O 1243   3.328   5.937   4.120  0.3104  0.4893 -0.3845
   10MOL0     C 1244   3.223   5.986   4.160 -0.2226 -0.4703 -0.0545
   10MOL0     O 1245   3.201   6.050   4.280  0.5544 -0.4512  0.0397
   10MOL0     C 1246   3.318   6.069   4.352 -0.1509 -0.8924  0.4857
   10MOL0     C 1247   3.399   5.968   4.410 -0.9355 -0.7872  0.9776
   10MOL0     C 1248   3.504   6.009   4.492  0.1907 -0.5842 -0.0969
   10MOL0     C 1249   3.544   6.145   4.517  0.0974 -0.1758  0.0279
   10MOL0     O 1250   3.638   6.183   4.596  0.5440  0.1723 -0.2711
   10MOL0     C 1251   3.748   6.105   4.636  0.4151  0.1744  0.3459
   10MOL0     C 1252   3.872   6.197   4.647  0.1726 -0.6362  0.3891
   10MOL0     C 1253   4.013   6.128   4.635  0.0796  0.6362 -1.0141
   10MOL0     C 1254   4.130   6.229   4.638  0.5811 -0.4352 -0.3266
   10MOL0     C 1255   4.149   6.293   4.779 -0.1411  0.9663  0.6017
   10MOL0     C 1256   4.266   6.389   4.785 -1.2478 -0.5348  0.5585
   10MOL0     C 1257   4.293   6.459   4.919 -0.2302 -0.1928  0.4821
   10MOL0     C 1258   4.176   6.555   4.958  0.6152  0.1397 -0.1826
   10MOL0     N 1259   4.181   6.674   4.866 -0.2213  0.6689 -0.1465
   10MOL0     C 1260   4.271   6.783   4.880 -0.2880  0.5806  0.3065
   10MOL0     C 1261   4.263   6.845   4.763 -0.0608  0.2556  0.7034
   10MOL0     C 1262   4.343   6.964   4.710 -0.3535 -0.3798 -0.8703
   10MOL0     C 1263   4.471   6.937   4.629 -0.3021  0.2524 -0.1566
   10MOL0     C 1264   4.430   6.840   4.516 -0.4953  0.8238 -0.0048
   10MOL0     C 1265   4.542   6.818   4.411  0.2353  0.4474  0.6325
   10MOL0     O 1266   4.535   6.907   4.295  0.6708 -0.1707 -0.4086
   10MOL0     C 1267   4.647   6.912   4.220 -0.2976  0.0154  0.1271
   10MOL0     C 1268   4.639   6.992   4.101  0.2627 -0.3723  0.3936
   10MOL0     C 1269   4.754   7.012   4.012  0.8902 -1.0487 -0.3914
   10MOL0     C 1270   4.734   7.113   3.899 -0.2980  0.6072  1.0202
   10MOL0     C 1271   4.869   6.935   4.038 -0.3357 -0.4550 -0.8979
   10MOL0     C 1272   4.997   6.963   3.966  0.5533 -0.0333  0.4456
   10MOL0     O 1273   5.100   6.869   3.988  0.1293  0.1570 -0.2982
   10MOL0     C 1274   5.218   6.915   3.939 -0.1150  0.2410  0.7074
   10MOL0     C 1275   5.243   6.912   3.800 -1.3556  0.7255  0.5684
   10MOL0     C 1276   5.362   6.976   3.751  0.3564 -0.9504  0.5159
   10MOL0     C 1277   5.445   7.049   3.842  0.0136  0.7014 -0.6116
   10MOL0     O 1278   5.547   7.122   3.778  0.2051 -0.0418 -0.2521
   10MOL0     C 1279   5.663   7.164   3.855 -0.3766 -0.2331  0.5333
   10MOL0     C 1280   5.759   7.259   3.768 -0.7418 -0.7371 -0.1306
   10MOL0     C 1281   5.853   7.179   3.677  0.7073  0.3575 -1.0560
   10MOL0     C 1282   5.954   7.267   3.606 -0.8706 -0.1186 -0.0834
   10MOL0     C 1283   6.081   7.188   3.560 -0.8540 -0.4851 -0.7425
   10MOL0     C 1284   6.190   7.279   3.494 -0.6252 -0.0801 -0.1261
   10MOL0     C 1285   6.323   7.198   3.460 -1.2077  0.1341  0.0085
   10MOL0     C 1286   6.406   7.277   3.352  0.0402  0.7343 -0.3166
   10MOL0    Cl 1287   6.562   7.215   3.312  0.5670  0.9466 -0.2223
   10MOL0     C 1288   5.422   7.039   3.982  0.5502 -0.0934 -0.0866
   10MOL0     C 1289   5.306   6.978   4.028 -1.0407  0.0197  0.1148
   10MOL0     O 1290   5.024   7.079   3.919  1.3023  0.1208 -0.0841
   10MOL0     C 1291   4.868   6.851   4.148 -0.9496  0.0939  0.7973
   10MOL0     C 1292   4.770   6.844   4.239 -0.4592  0.4167  1.4204
   10MOL0     N 1293   4.163   6.780   4.681  0.3557 -0.5199  0.3683
   10MOL0     N 1294   4.123   6.679   4.743 -0.5170 -0.5234 -0.0472
   10MOL0     C 1295   3.471   6.247   4.455  0.3788 -0.4532  0.5296
   10MOL0     C 1296   3.353   6.212   4.374 -0.1820 -1.0546 -0.1819
   10MOL0     C 1297   3.114   5.982   4.068  0.4289 -0.0767 -0.3405
   10MOL0     C 1298   3.139   6.042   3.947 -0.6497 -0.4376  0.0155
   10MOL0     C 1299   3.041   6.048   3.855  0.1901 -0.5269  0.9887
   10MOL0     C 1300   2.908   6.002   3.875  0.1616  0.4828  0.1711
   10MOL0     O 1301   2.821   6.038   3.776  0.0587 -0.8333 -0.2123
   10MOL0     C 1302   2.684   5.981   3.785 -0.0810 -1.0840 -0.4008
   10MOL0     C 1303   2.616   5.988   3.647  0.2148 -0.1647  0.2172
   10MOL0     C 1304   2.562   6.123   3.607  0.3225 -0.5901 -0.3951
   10MOL0     C 1305   2.458   6.183   3.691  0.4198 -0.5609  0.6664
   10MOL0     C 1306   2.329   6.108   3.688  0.1309  0.0101  0.2676
   10MOL0     C 1307   2.227   6.041   3.657 -0.1689 -0.2901  0.0536
   10MOL0     C 1308   2.876   5.935   3.992  0.7208  0.2691 -0.3051
   10MOL0     C 1309   2.982   5.924   4.087  0.0944 -0.4932 -0.2165
   10MOL0     C 1310   2.946   5.864   4.224  0.5514 -0.2217  0.7011
   10MOL0     H 1311   3.372   5.864   4.399 -1.6731 -0.4715 -0.3278
   10MOL0     H 1312   3.564   5.929   4.533  0.1305 -0.6200 -0.0783
   10MOL0     H 1313   3.771   6.026   4.565  3.3568 -1.8446  3.2388
   10MOL0     H 1314   3.721   6.058   4.731  1.2290 -0.1135  0.4441
   10MOL0     H 1315   3.862   6.273   4.570 -1.7146  0.0738  1.2567
   10MOL0     H 1316   3.858   6.253   4.740  1.4067  1.4365 -0.6025
   10MOL0     H 1317   4.017   6.069   4.727 -6.2890  3.6910  1.8775
   10MOL0     H 1318   4.014   6.070   4.542 -3.0332  2.5617 -2.4198
   10MOL0     H 1319   4.221   6.170   4.623 -0.8530 -3.0800  0.7561
   10MOL0     H 1320   4.124   6.306   4.560 -1.5569 -1.3429 -1.1085
   10MOL0     H 1321   4.177   6.210   4.845  2.7321  0.0490 -1.5660
   10MOL0     H 1322   4.053   6.337   4.808  0.1936  2.4065 -0.3712
   10MOL0     H 1323   4.362   6.345   4.760 -0.0777  1.4223  1.3512
   10MOL0     H 1324   4.252   6.460   4.703  0.6734 -0.3257  0.3622
   10MOL0     H 1325   4.384   6.520   4.917 -0.1118 -0.2828  1.9745
   10MOL0     H 1326   4.300   6.382   4.996 -1.0264 -1.5025 -0.7140
   10MOL0     H 1327   4.081   6.505   4.940  1.2559 -1.5367  0.8308
   10MOL0     H 1328   4.181   6.590   5.062 -2.0948  4.6676 -1.3062
   10MOL0     H 1329   4.337   6.799   4.965  0.0037 -3.6134  1.0872
   10MOL0     H 1330   4.364   7.037   4.789 -0.7640 -0.8395 -0.3258
   10MOL0     H 1331   4.292   7.022   4.633  2.3576  2.8807 -0.4659
   10MOL0     H 1332   4.517   7.027   4.588  0.4295  0.5278  1.2195
   10MOL0     H 1333   4.547   6.901   4.699 -3.4479 -0.1734  3.4118
   10MOL0     H 1334   4.396   6.743   4.556  0.4185  0.3227 -0.4123
   10MOL0     H 1335   4.347   6.875   4.454  0.0840  0.1496 -1.1976
   10MOL0     H 1336   4.638   6.833   4.460  0.6992  2.1621 -0.6952
   10MOL0     H 1337   4.535   6.717   4.371 -4.4033  1.0667 -0.7491
   10MOL0     H 1338   4.553   7.052   4.073  0.8522  0.1080 -0.4268
   10MOL0     H 1339   4.773   7.065   3.808 -0.1682 -0.2171  1.4977
   10MOL0     H 1340   4.786   7.209   3.898 -1.5302  1.3056 -0.4421
   10MOL0     H 1341   4.628   7.138   3.889 -0.6644 -1.6011 -3.5063
   10MOL0     H 1342   5.178   6.867   3.726 -0.3729  1.3378 -0.7076
   10MOL0     H 1343   5.374   6.973   3.643 -2.9442 -0.8756  0.0218
   10MOL0     H 1344   5.634   7.206   3.952 -0.2889  2.9988 -0.7150
   10MOL0     H 1345   5.710   7.070   3.883 -1.3712 -1.7855 -2.6055
   10MOL0     H 1346   5.691   7.325   3.713 -0.9773  1.1902  2.3056
   10MOL0     H 1347   5.824   7.319   3.832 -1.8096  0.4512 -0.1265
   10MOL0     H 1348   5.784   7.124   3.611 -1.0159 -3.1285  3.1979
   10MOL0     H 1349   5.899   7.107   3.744 -0.4097  0.6176  0.0443
   10MOL0     H 1350   5.986   7.343   3.677 -2.8316  2.3769 -1.6694
   10MOL0     H 1351   5.904   7.306   3.517  0.1631 -2.6178 -1.8817
   10MOL0     H 1352   6.122   7.148   3.653 -0.9342  1.6780  0.2702
   10MOL0     H 1353   6.063   7.107   3.489 -3.8259 -2.1972  1.7371
   10MOL0     H 1354   6.199   7.372   3.551 -3.8665  2.0646 -2.7720
   10MOL0     H 1355   6.151   7.308   3.396 -1.0809  0.4868  0.2198
   10MOL0     H 1356   6.312   7.098   3.419 -1.7501  0.3462 -0.3826
   10MOL0     H 1357   6.370   7.179   3.556 -0.8318 -0.7010 -0.3349
   10MOL0     H 1358   6.422   7.376   3.397  0.4007  0.4457  0.2046
   10MOL0     H 1359   6.338   7.280   3.266 -0.9490 -0.7140  0.3711
   10MOL0     H 1360   5.488   7.087   4.053  1.4166 -0.7773 -0.4072
   10MOL0     H 1361   5.292   6.967   4.135  2.7434 -0.1283  0.7272
   10MOL0     H 1362   4.962   6.806   4.176  0.5880  2.4181 -0.3140
   10MOL0     H 1363   4.775   6.772   4.320 -0.3279 -0.5852  0.5436
   10MOL0     H 1364   3.503   6.348   4.481  0.5826 -0.3854  0.0293
   10MOL0     H 1365   3.289   6.290   4.334 -0.1100  0.0853  1.8164
   10MOL0     H 1366   3.235   6.087   3.925 -0.7062 -0.8112 -1.0773
   10MOL0     H 1367   3.054   6.111   3.767  0.1977 -1.3467  0.3925
   10MOL0     H 1368   2.679   5.880   3.826  0.6998 -1.7798 -1.9221
   10MOL0     H 1369   2.618   6.037   3.852  0.8526 -0.9647  0.4531
   10MOL0     H 1370   2.530   5.921   3.648  0.7145 -0.8940 -1.7752
   10MOL0     H 1371   2.697   5.960   3.579 -0.4355  1.2096 -1.2047
   10MOL0     H 1372   2.644   6.195   3.600 -0.3400  0.1592 -0.5775
   10MOL0     H 1373   2.519   6.114   3.507  0.1881 -1.4872 -0.2653
   10MOL0     H 1374   2.433   6.284   3.654 -2.2594 -0.5947  2.0775
   10MOL0     H 1375   2.495   6.199   3.792 -0.6559 -1.2064  1.1815
   10MOL0     H 1376   2.127   6.003   3.652 -0.8967  1.6566 -1.0609
   10MOL0     H 1377   2.772   5.907   4.006  0.3737  0.9336 -1.4260
   10MOL0     H 1378   2.998   5.906   4.311  1.3270  1.0681 -0.3483
   10MOL0     H 1379   2.838   5.883   4.236  0.2387 -2.4879  2.0525
   10MOL0     H 1380   2.958   5.756   4.224 -0.7022 -0.3978 -1.0998
   11MOL0     O 1381   4.790   0.795   1.066  0.0323 -0.4987  0.4510
   11MOL0     C 1382   4.836   0.907   1.045  0.1579 -0.1390  0.5447
   11MOL0     O 1383   4.966   0.947   0.989 -0.1958 -0.2142  0.0037
   11MOL0     C 1384   5.071   0.856   1.012 -0.9924 -0.1870 -0.2070
   11MOL0     C 1385   5.160   0.831   0.900 -0.0241 -0.2985 -0.9162
   11MOL0     C 1386   5.250   0.723   0.899 -0.3185 -0.3393 -1.0026
   11MOL0     C 1387   5.284   0.656   1.018  0.1865 -0.3965  0.3538
   11MOL0     O 1388   5.376   0.558   1.019  0.2970 -0.2263  0.7879
   11MOL0     C 1389   5.384   0.460   1.120 -1.1342 -1.4323  0.6586
   11MOL0     C 1390   5.449   0.333   1.066 -0.7142  1.0307  0.4450
   11MOL0     C 1391   5.601   0.360   1.032  0.2842 -0.3866 -0.6516
   11MOL0     C 1392   5.687   0.335   1.160 -0.0767 -0.1183 -0.0722
   11MOL0     C 1393   5.803   0.423   1.190  0.4367 -0.3831  0.7229
   11MOL0     C 1394   5.872   0.399   1.324  0.1797  0.1515  0.1560
   11MOL0     C 1395   5.814   0.452   1.443  1.2167 -0.6650  0.6084
   11MOL0     C 1396   5.857   0.394   1.571 -0.6516  0.0376  0.4201
   11MOL0     N 1397   6.000   0.419   1.586 -0.3715  0.3047  0.2349
   11MOL0     C 1398   6.106   0.325   1.593  0.5646 -0.6418 -0.3810
   11MOL0     C 1399   6.218   0.408   1.617  0.4053 -1.1156 -0.1648
   11MOL0     C 1400   6.354   0.358   1.640  0.3472 -0.2488  0.0844
   11MOL0     C 1401   6.458   0.477   1.637 -0.1289  0.2638  0.2143
   11MOL0     C 1402   6.589   0.424   1.715  0.3000 -1.0409  0.4026
   11MOL0     C 1403   6.700   0.521   1.700  0.4109  0.7311  0.0946
   11MOL0     O 1404   6.755   0.492   1.572  0.1943  0.2336 -0.3969
   11MOL0     C 1405   6.885   0.521   1.543  0.8757  0.2633 -0.4140
   11MOL0     C 1406   6.924   0.510   1.409  0.6725 -0.5783  0.0775
   11MOL0     C 1407   7.051   0.555   1.365  0.1086 -0.8576  0.2924
   11MOL0     C 1408   7.081   0.544   1.220  0.5344 -0.2124 -0.5703
   11MOL0     C 1409   7.145   0.612   1.450 -0.3196  0.0481 -0.5158
   11MOL0     C 1410   7.287   0.637   1.420  0.0286  0.1446  0.4650
   11MOL0     O 1411   7.361   0.671   1.525 -0.4455  0.2225  0.7359
   11MOL0     C 1412   7.496   0.711   1.518  0.8556  0.3089  0.6226
   11MOL0     C 1413   7.514   0.809   1.614  0.7088 -0.5545  0.0484
   11MOL0     C 1414   7.644   0.853   1.636  0.1790 -0.5694  0.4084
   11MOL0     C 1415   7.752   0.820   1.554  0.9128 -0.2958 -0.3827
   11MOL0     O 1416   7.878   0.863   1.565  0.3263 -0.4563  0.6399
   11MOL0     C 1417   7.925   0.945   1.672 -0.7440 -0.1851  0.5601
   11MOL0     C 1418   8.052   1.005   1.607  0.8976  0.3387 -0.7505
   11MOL0     C 1419   8.134   1.081   1.703 -0.2219 -0.3873 -0.1021
   11MOL0     C 1420   8.267   1.133   1.645 -0.7171 -0.6046  0.1000
   11MOL0     C 1421   8.355   1.220   1.743  0.5355 -0.2295  0.5592
   11MOL0     C 1422   8.307   1.364   1.748 -0.1732 -0.1386 -0.3523
   11MOL0     C 1423   8.359   1.441   1.621  0.0873 -0.1514  0.6912
   11MOL0     C 1424   8.341   1.593   1.654  0.2531 -0.0451 -0.0463
   11MOL0    Cl 1425   8.374   1.703   1.531 -0.5623  0.1735 -0.2957
   11MOL0     C 1426   7.726   0.735   1.445 -1.2593 -0.0359 -0.3051
   11MOL0     C 1427   7.599   0.676   1.434 -0.0137 -0.6378 -0.3911
   11MOL0     O 1428   7.330   0.633   1.305  0.3532  0.6531 -0.0371
   11MOL0     C 1429   7.103   0.623   1.587 -0.0900 -0.5984 -1.0423
   11MOL0     C 1430   6.974   0.579   1.635 -0.7842 -0.0260  0.0943
   11MOL0     N 1431   6.173   0.539   1.617 -0.0685  0.1394  0.0348
   11MOL0     N 1432   6.047   0.551   1.597 -0.2722  0.1405  0.5695
   11MOL0     C 1433   5.207   0.688   1.124  0.8013 -0.2427  0.1933
   11MOL0     C 1434   5.105   0.787   1.127  0.9784 -0.0803 -0.6244
   11MOL0     C 1435   4.736   1.019   1.067 -0.6064  0.5699  0.0840
   11MOL0     C 1436   4.692   1.025   1.195  0.1844 -0.1858 -0.1484
   11MOL0     C 1437   4.628   1.143   1.242 -0.7605  0.0280  0.1250
   11MOL0     C 1438   4.584   1.241   1.150  0.8454 -0.8506  0.3841
   11MOL0     O 1439   4.518   1.360   1.181  0.1938  0.6589 -0.7807
   11MOL0     C 1440   4.483   1.385   1.318 -0.1742 -0.4640 -0.6979
   11MOL0     C 1441   4.404   1.511   1.326 -0.2484  0.7466 -0.3088
   11MOL0     C 1442   4.282   1.510   1.240 -0.7632  0.2733 -0.1329
   11MOL0     C 1443   4.166   1.433   1.308  0.7669 -0.2032  0.1260
   11MOL0     C 1444   4.136   1.496   1.440 -0.1985 -0.4789 -0.4474
   11MOL0     C 1445   4.108   1.540   1.548  0.1638  0.0067  0.2992
   11MOL0     C 1446   4.633   1.232   1.016  0.0671  0.3036  1.1851
   11MOL0     C 1447   4.707   1.118   0.967 -0.2194 -0.3229 -0.6662
   11MOL0     C 1448   4.747   1.119   0.826 -0.2059  0.5798 -0.0271
   11MOL0     H 1449   5.149   0.880   0.804 -1.1007 -1.9233 -1.6724
   11MOL0     H 1450   5.311   0.704   0.811  0.5040  1.6448 -0.9274
   11MOL0     H 1451   5.283   0.439   1.155 -1.6283  1.7273  1.3739
   11MOL0     H 1452   5.447   0.508   1.196  0.9322 -0.1074 -1.7371
   11MOL0     H 1453   5.438   0.246   1.132 -2.0183  0.6508 -0.2514
   11MOL0     H 1454   5.391   0.288   0.985 -2.0611 -1.3063  2.5586
   11MOL0     H 1455   5.631   0.303   0.943 -1.0650 -0.5716 -1.0134
   11MOL0     H 1456   5.622   0.465   1.009  0.7789 -0.0274  1.2524
   11MOL0     H 1457   5.621   0.338   1.247 -0.1134 -0.3287 -0.0921
   11MOL0     H 1458   5.714   0.230   1.142 -1.7844 -0.5176 -0.5266
   11MOL0     H 1459   5.758   0.523   1.186  1.7461  0.2071 -0.3461
   11MOL0     H 1460   5.878   0.420   1.110 -1.2943  3.7350 -1.3575
   11MOL0     H 1461   5.885   0.291   1.331  2.0490  0.4108  1.4183
   11MOL0     H 1462   5.973   0.441   1.321 -0.5738  2.0388 -0.7893
   11MOL0     H 1463   5.707   0.431   1.435  0.8405  1.4774 -0.6530
   11MOL0     H 1464   5.830   0.560   1.449  4.2615 -1.0586  1.0073
   11MOL0     H 1465   5.793   0.437   1.647 -2.2161 -1.4018 -0.0247
   11MOL0     H 1466   5.852   0.285   1.578  0.1427  0.0204  0.8440
   11MOL0     H 1467   6.103   0.218   1.608 -1.3891 -0.4237  1.3081
   11MOL0     H 1468   6.375   0.292   1.555  3.3646  2.1315 -1.2011
   11MOL0     H 1469   6.365   0.294   1.727  3.8244 -1.9599 -1.4169
   11MOL0     H 1470   6.486   0.487   1.532  1.4361 -2.8675  0.2108
   11MOL0     H 1471   6.410   0.567   1.677 -1.1090 -0.4585  0.6898
   11MOL0     H 1472   6.570   0.433   1.822  1.0256  1.3355  0.3808
   11MOL0     H 1473   6.602   0.320   1.683 -2.7353 -0.9340 -1.5759
   11MOL0     H 1474   6.674   0.627   1.701 -0.7566  0.5112 -1.8833
   11MOL0     H 1475   6.771   0.515   1.783  0.5710  0.5451 -0.0531
   11MOL0     H 1476   6.857   0.468   1.334  0.0074 -0.5248  0.6394
   11MOL0     H 1477   6.988   0.530   1.164  2.0744 -0.2318 -3.2463
   11MOL0     H 1478   7.147   0.457   1.215 -1.2100 -2.1298  3.9831
   11MOL0     H 1479   7.128   0.633   1.178 -0.8667  1.8395  1.9139
   11MOL0     H 1480   7.439   0.855   1.678 -0.3844 -1.3225 -0.6525
   11MOL0     H 1481   7.674   0.909   1.723 -0.3255 -3.2714  2.4418
   11MOL0     H 1482   7.853   1.020   1.706 -1.4020 -0.5110 -0.0797
   11MOL0     H 1483   7.946   0.880   1.758 -1.1957 -1.9414 -0.5955
   11MOL0     H 1484   8.103   0.921   1.559 -0.6048 -0.0289 -1.7524
   11MOL0     H 1485   8.019   1.071   1.527  1.2482  1.3417 -0.0910
   11MOL0     H 1486   8.155   1.012   1.786  0.7419 -2.2805 -1.8252
   11MOL0     H 1487   8.074   1.165   1.736 -0.7348 -0.3867 -1.0067
   11MOL0     H 1488   8.247   1.200   1.561  0.0479 -0.0636  0.3338
   11MOL0     H 1489   8.320   1.045   1.606 -0.3566  0.1371 -1.1537
   11MOL0     H 1490   8.335   1.180   1.843 -1.1835  0.8632  0.6932
   11MOL0     H 1491   8.459   1.210   1.710  1.1518 -2.4265  2.8716
   11MOL0     H 1492   8.349   1.410   1.838  0.8741  1.2016 -1.4735
   11MOL0     H 1493   8.198   1.372   1.757 -0.0288  0.6011  0.8514
   11MOL0     H 1494   8.290   1.426   1.537 -2.6170 -0.5798  2.8485
   11MOL0     H 1495   8.462   1.426   1.589  0.1386 -0.9061  1.1789
   11MOL0     H 1496   8.403   1.625   1.738 -3.0974  1.0983  2.1995
   11MOL0     H 1497   8.238   1.620   1.678  1.1737  1.4568  2.7853
   11MOL0     H 1498   7.815   0.702   1.392  2.0410  0.8597  4.0707
   11MOL0     H 1499   7.581   0.602   1.356  0.0980 -0.1777 -0.8560
   11MOL0     H 1500   7.162   0.655   1.672 -1.1866 -1.6379  0.1568
   11MOL0     H 1501   6.961   0.588   1.742  0.5081  0.5893  0.2195
   11MOL0     H 1502   5.203   0.628   1.214 -0.7750 -0.5036 -0.0143
   11MOL0     H 1503   5.053   0.787   1.222  2.6021 -1.3296  0.3032
   11MOL0     H 1504   4.724   0.954   1.271  0.1365 -2.9275 -2.5139
   11MOL0     H 1505   4.608   1.159   1.348 -0.9647  2.6838 -0.2306
   11MOL0     H 1506   4.423   1.300   1.352  0.0504  0.1917  1.4361
   11MOL0     H 1507   4.575   1.404   1.374  0.5777  0.0998 -2.0648
   11MOL0     H 1508   4.467   1.595   1.295  2.4445  0.0269  2.6526
   11MOL0     H 1509   4.386   1.532   1.432  0.4388 -0.9418  0.1852
   11MOL0     H 1510   4.249   1.614   1.232 -1.6619 -0.0560 -1.0135
   11MOL0     H 1511   4.300   1.472   1.139 -2.7810  2.1046 -1.2763
   11MOL0     H 1512   4.205   1.331   1.323  0.0127 -1.0875 -3.1275
   11MOL0     H 1513   4.075   1.433   1.247  1.3082 -1.8160 -0.7395
   11MOL0     H 1514   4.062   1.594   1.628  1.7693  0.3622  1.0220
   11MOL0     H 1515   4.610   1.310   0.944  2.1174  0.5807  0.7618
   11MOL0     H 1516   4.855   1.134   0.814 -0.4873  3.5132  0.4805
   11MOL0     H 1517   4.719   1.027   0.772  1.4027  0.8511 -1.4106
   11MOL0     H 1518   4.702   1.198   0.765  1.5331 -1.5518 -4.5785
   12MOL0     O 1519  11.302   9.566   7.482  0.5721 -0.0115 -0.4920
   12MOL0     C 1520  11.221   9.578   7.393 -0.2846  0.6302  0.1701
   12MOL0     O 1521  11.248   9.646   7.277 -0.6729  0.7762  0.5144
   12MOL0     C 1522  11.374   9.700   7.256 -0.3769  0.5153 -0.6548
   12MOL0     C 1523  11.393   9.826   7.243  0.5078 -0.8173  0.4298
   12MOL0     C 1524  11.517   9.890   7.247 -0.5483  0.1214 -0.2274
   12MOL0     C 1525  11.638   9.815   7.237 -1.1130  0.1708  0.2791
   12MOL0     O 1526  11.769   9.863   7.227 -0.4887  0.8507  0.4629
   12MOL0     C 1527  11.795   9.992   7.180 -0.9935  0.1928  0.4363
   12MOL0     C 1528  11.935   9.995   7.115  0.3271 -0.1920  0.2139
   12MOL0     C 1529  12.048  10.019   7.203  0.4312  0.0386  0.5667
   12MOL0     C 1530  12.172  10.039   7.122 -0.1743  0.1247  0.1595
   12MOL0     C 1531  12.299  10.019   7.211 -0.9362  0.0751  0.0264
   12MOL0     C 1532  12.291  10.098   7.342 -0.1713 -0.1902  0.5524
   12MOL0     C 1533  12.396  10.044   7.444 -0.7293 -0.7356 -0.9297
   12MOL0     C 1534  12.389  10.130   7.574 -1.0166 -0.1674  0.6878
   12MOL0     N 1535  12.494  10.110   7.670 -0.5367  0.1093 -1.0073
   12MOL0     C 1536  12.621  10.080   7.637 -0.0304 -0.2577  0.7274
   12MOL0     C 1537  12.683  10.084   7.754 -0.3500  0.6448 -0.2951
   12MOL0     C 1538  12.834  10.058   7.764 -0.0841  0.6016  0.8131
   12MOL0     C 1539  12.857   9.928   7.848 -0.6905  0.1328  0.1127
   12MOL0     C 1540  13.004   9.889   7.840 -0.4648 -1.2088 -0.6651
   12MOL0     C 1541  13.097   9.997   7.888 -0.0990 -0.1022 -0.1243
   12MOL0     O 1542  13.149  10.074   7.782 -0.9486  0.0846  0.6325
   12MOL0     C 1543  13.279  10.080   7.745  0.0703  0.3687  0.3923
   12MOL0     C 1544  13.310  10.187   7.654 -0.2474 -0.3279 -0.1836
   12MOL0     C 1545  13.444  10.221   7.617  0.4247  0.2201  0.3940
   12MOL0     C 1546  13.464  10.345   7.533 -0.7225 -0.5668  0.0473
   12MOL0     C 1547  13.548  10.150   7.684  0.0935  0.1344 -0.4872
   12MOL0     C 1548  13.690  10.168   7.660  1.1703 -0.7342  0.4685
   12MOL0     O 1549  13.772  10.072   7.704  1.2000  0.7790  0.0777
   12MOL0     C 1550  13.908  10.081   7.680 -0.1043  0.1793 -0.0555
   12MOL0     C 1551  13.956  10.007   7.570  0.1096  0.2096  0.7703
   12MOL0     C 1552  14.091  10.024   7.539  0.1351 -0.0107  0.5033
   12MOL0     C 1553  14.177  10.099   7.624  0.7643 -1.2702  1.4296
   12MOL0     O 1554  14.314  10.104   7.611 -0.8373  0.2981 -0.3868
   12MOL0     C 1555  14.376   9.983   7.567  0.3700 -0.0869 -0.7692
   12MOL0     C 1556  14.518   9.968   7.622 -0.4561 -0.2941 -0.0013
   12MOL0     C 1557  14.557   9.813   7.611 -0.2528  0.2727  0.5599
   12MOL0     C 1558  14.684   9.786   7.685  0.5810 -0.0597 -0.2160
   12MOL0     C 1559  14.752   9.658   7.638 -0.0216  0.0467 -0.2483
   12MOL0     C 1560  14.863   9.606   7.731 -0.2199 -0.1020  0.7635
   12MOL0     C 1561  14.975   9.708   7.760  0.2389 -0.3169  0.1878
   12MOL0     C 1562  15.113   9.644   7.764 -0.3005 -0.7263 -0.4724
   12MOL0    Cl 1563  15.122   9.513   7.885  0.4873  0.2580  0.4385
   12MOL0     C 1564  14.121  10.177   7.731 -0.4183  0.6573  0.3285
   12MOL0     C 1565  13.986  10.171   7.754 -0.2902  1.0586 -0.3318
   12MOL0     O 1566  13.734  10.269   7.606 -0.2223 -0.1810  0.4236
   12MOL0     C 1567  13.513  10.043   7.766  0.4196  0.0881 -1.0170
   12MOL0     C 1568  13.378  10.008   7.799  0.1046 -0.4607 -0.5998
   12MOL0     N 1569  12.595  10.095   7.855  0.0497 -0.2307  0.1462
   12MOL0     N 1570  12.480  10.116   7.805 -0.3585  0.1208 -0.9805
   12MOL0     C 1571  11.615   9.678   7.251 -0.4004 -0.6074  0.4322
   12MOL0     C 1572  11.486   9.617   7.254  0.4826  0.0807 -0.0104
   12MOL0     C 1573  11.093   9.502   7.402 -0.0316 -0.7474 -0.9558
   12MOL0     C 1574  11.031   9.502   7.530 -0.2336 -0.7190 -0.2613
   12MOL0     C 1575  10.909   9.443   7.543  0.1530  0.1941  0.2601
   12MOL0     C 1576  10.841   9.389   7.435  0.2893  0.1135 -0.2290
   12MOL0     O 1577  10.705   9.345   7.442 -0.3434 -0.8262  0.4017
   12MOL0     C 1578  10.657   9.325   7.578  0.5323 -0.4244 -0.0050
   12MOL0     C 1579  10.505   9.289   7.559 -1.1967  0.2208 -0.2203
   12MOL0     C 1580  10.455   9.238   7.688 -0.1657  0.0493  0.0384
   12MOL0     C 1581  10.301   9.209   7.696  0.4931  1.0549  0.4458
   12MOL0     C 1582  10.271   9.176   7.840 -0.0929  1.6515  0.5128
   12MOL0     C 1583  10.260   9.159   7.956  0.4715  0.4467  0.2486
   12MOL0     C 1584  10.911   9.379   7.310  0.0600 -0.2487  0.0978
   12MOL0     C 1585  11.033   9.446   7.284  0.1631  0.4292 -0.4930
   12MOL0     C 1586  11.109   9.423   7.153 -0.0650  0.2702 -0.7321
   12MOL0     H 1587  11.306   9.891   7.252 -0.5627 -2.2604  0.7986
   12MOL0     H 1588  11.514   9.998   7.247 -0.6348  0.1176  0.2735
   12MOL0     H 1589  11.784  10.067   7.258  0.6865 -0.1523  1.0556
   12MOL0     H 1590  11.725  10.017   7.099 -0.2769 -2.4816 -1.1348
   12MOL0     H 1591  11.950   9.896   7.071 -1.3721 -1.2857  1.9108
   12MOL0     H 1592  11.922  10.057   7.026 -1.2874  0.3284  0.7728
   12MOL0     H 1593  12.033  10.116   7.251 -1.7944  0.2576 -0.4139
   12MOL0     H 1594  12.053   9.934   7.271  2.1882 -0.7651 -0.4963
   12MOL0     H 1595  12.175   9.956   7.051  2.6792 -0.0893  0.4193
   12MOL0     H 1596  12.185  10.136   7.072  4.4101 -0.7837 -0.9325
   12MOL0     H 1597  12.394  10.035   7.160 -1.3457  0.0071 -0.7850
   12MOL0     H 1598  12.296   9.911   7.231  0.9222 -0.8028 -3.5485
   12MOL0     H 1599  12.306  10.206   7.330  0.2904 -0.2999  0.1378
   12MOL0     H 1600  12.193  10.087   7.390 -0.0452  0.9227  1.0942
   12MOL0     H 1601  12.497  10.045   7.401 -0.3501 -0.0571 -0.0596
   12MOL0     H 1602  12.366   9.940   7.461  0.7826 -0.9188  0.9147
   12MOL0     H 1603  12.395  10.236   7.548 -2.6358 -0.4964 -1.3172
   12MOL0     H 1604  12.299  10.114   7.635 -0.1629  1.9761  2.6508
   12MOL0     H 1605  12.663  10.077   7.537  0.6009  1.1880  0.9248
   12MOL0     H 1606  12.882  10.150   7.800  2.6530 -0.7098  0.7645
   12MOL0     H 1607  12.876  10.035   7.665 -1.5161  0.2750  0.2511
   12MOL0     H 1608  12.832   9.940   7.954 -1.6558 -0.1101 -0.0835
   12MOL0     H 1609  12.793   9.849   7.811  0.2312 -0.9681  0.7986
   12MOL0     H 1610  13.017   9.797   7.897 -0.0894 -1.7361 -1.5876
   12MOL0     H 1611  13.041   9.858   7.742  0.0610 -2.2140 -0.1632
   12MOL0     H 1612  13.038  10.062   7.954  0.8728  0.1244  0.5510
   12MOL0     H 1613  13.174   9.951   7.951 -1.2801  0.9283  2.2030
   12MOL0     H 1614  13.229  10.239   7.605 -1.0276 -0.2140  1.2025
   12MOL0     H 1615  13.368  10.396   7.522  0.7882  2.5917  0.2855
   12MOL0     H 1616  13.503  10.325   7.432 -1.7808  1.6306 -0.8723
   12MOL0     H 1617  13.536  10.417   7.574  0.9748 -2.2676  0.2268
   12MOL0     H 1618  13.878   9.957   7.513  0.8971  0.4513 -0.5505
   12MOL0     H 1619  14.130   9.960   7.461 -3.4387 -0.2678 -1.2855
   12MOL0     H 1620  14.309   9.902   7.598 -1.9575  1.8301 -0.5221
   12MOL0     H 1621  14.378   9.987   7.458 -0.1864 -4.0017 -1.0838
   12MOL0     H 1622  14.576  10.027   7.550  0.8369 -0.3464  0.9660
   12MOL0     H 1623  14.520  10.005   7.724 -3.8584  1.3078 -0.3786
   12MOL0     H 1624  14.566   9.791   7.504 -1.8096  0.4686  0.3509
   12MOL0     H 1625  14.480   9.748   7.653  0.0723 -0.2743  0.3198
   12MOL0     H 1626  14.657   9.775   7.791 -0.1375  0.3944 -0.3531
   12MOL0     H 1627  14.757   9.866   7.670  1.3944 -0.7600 -0.0705
   12MOL0     H 1628  14.673   9.583   7.626  0.4137 -0.3973 -0.3770
   12MOL0     H 1629  14.790   9.672   7.536 -1.1464 -2.0108 -0.9911
   12MOL0     H 1630  14.903   9.522   7.672  0.0606 -0.5641  1.5937
   12MOL0     H 1631  14.816   9.572   7.824 -1.4912  0.2987  0.2863
   12MOL0     H 1632  14.959   9.756   7.857  1.7187 -3.3836  2.1322
   12MOL0     H 1633  14.983   9.791   7.690 -2.1465  0.6375  0.9277
   12MOL0     H 1634  15.187   9.720   7.788  1.7327 -3.3437  2.1541
   12MOL0     H 1635  15.134   9.622   7.658  0.3485  4.2380 -1.5918
   12MOL0     H 1636  14.180  10.242   7.795  1.7181  0.9950 -1.8740
   12MOL0     H 1637  13.943  10.232   7.833 -1.6417 -0.0669 -0.1701
   12MOL0     H 1638  13.575   9.985   7.833 -4.8017 -1.1776  3.4975
   12MOL0     H 1639  13.358   9.923   7.863  0.6837 -1.1092 -1.2760
   12MOL0     H 1640  11.701   9.612   7.250 -0.6971 -0.9914 -0.1437
   12MOL0     H 1641  11.477   9.510   7.272  0.5562  0.1120  0.2104
   12MOL0     H 1642  11.083   9.549   7.612  0.6178  0.3973 -1.4022
   12MOL0     H 1643  10.852   9.459   7.634 -2.7753 -0.4524 -1.3199
   12MOL0     H 1644  10.708   9.243   7.630 -0.8945  0.0479  2.2211
   12MOL0     H 1645  10.666   9.412   7.642 -0.6271 -0.3194  0.0319
   12MOL0     H 1646  10.506   9.216   7.478  0.0283  0.8571 -0.8018
   12MOL0     H 1647  10.443   9.375   7.530 -3.1336 -1.8828 -2.7400
   12MOL0     H 1648  10.501   9.146   7.725 -0.6316 -0.8668 -1.5458
   12MOL0     H 1649  10.465   9.321   7.758 -0.4393 -1.2816  1.7095
   12MOL0     H 1650  10.278   9.124   7.630  0.1607  0.2860  1.5343
   12MOL0     H 1651  10.249   9.300   7.668  0.5457  0.2748 -2.5816
   12MOL0     H 1652  10.244   9.141   8.060  1.2686 -0.7148  0.1809
   12MOL0     H 1653  10.863   9.334   7.223 -1.5909  2.9943 -0.8245
   12MOL0     H 1654  11.056   9.350   7.091 -2.1158  1.9925 -1.0997
   12MOL0     H 1655  11.124   9.515   7.097 -1.3569  0.5745 -0.6079
   12MOL0     H 1656  11.205   9.383   7.189 -0.4135  1.2211  1.4276
   13MOL0     O 1657   4.671   3.291   6.350 -0.4827  1.2020  0.0357
   13MOL0     C 1658   4.564   3.275   6.408  0.6885 -0.4198 -0.7421
   13MOL0     O 1659   4.489   3.377   6.460 -0.3831  0.1857 -0.4764
   13MOL0     C 1660   4.524   3.502   6.424 -0.0499 -1.1472  0.3945
   13MOL0     C 1661   4.594   3.579   6.516  0.2469  0.2160 -0.5004
   13MOL0     C 1662   4.636   3.710   6.496  0.5091  0.3715  0.4366
   13MOL0     C 1663   4.616   3.770   6.368  0.0870 -1.1168  0.5517
   13MOL0     O 1664   4.676   3.892   6.337  0.3563  0.0268 -0.2492
   13MOL0     C 1665   4.686   3.992   6.436 -0.5901 -0.2945  0.2575
   13MOL0     C 1666   4.643   4.124   6.373 -0.7997 -0.4320  0.8875
   13MOL0     C 1667   4.682   4.246   6.459 -0.4019 -0.2007 -0.0062
   13MOL0     C 1668   4.653   4.380   6.382  0.2319  0.9218 -0.7719
   13MOL0     C 1669   4.698   4.503   6.462 -0.7660  0.4529  0.0095
   13MOL0     C 1670   4.644   4.641   6.421  0.0619 -0.9852  0.4715
   13MOL0     C 1671   4.652   4.749   6.534 -0.4615 -0.2014 -1.0813
   13MOL0     C 1672   4.589   4.889   6.504 -0.9430 -0.7394 -0.0670
   13MOL0     N 1673   4.663   4.948   6.391 -0.3650 -1.2507  0.5977
   13MOL0     C 1674   4.628   4.942   6.259  0.5060 -1.3308 -0.3911
   13MOL0     C 1675   4.730   5.004   6.192  0.2779  0.5635  0.0877
   13MOL0     C 1676   4.751   5.033   6.044 -0.6952  0.3991 -0.0287
   13MOL0     C 1677   4.665   5.147   5.998  0.3205  0.3489 -0.0401
   13MOL0     C 1678   4.655   5.160   5.841 -0.2267  0.4159  0.4113
   13MOL0     C 1679   4.785   5.214   5.772 -0.4211  0.0119  0.0182
   13MOL0     O 1680   4.749   5.251   5.642  0.9717 -0.6174  0.5072
   13MOL0     C 1681   4.856   5.262   5.559 -0.4438  0.3116 -0.1106
   13MOL0     C 1682   4.913   5.392   5.532  1.7164 -0.7280 -0.2357
   13MOL0     C 1683   5.019   5.408   5.439 -0.0880  0.8692 -0.0951
   13MOL0     C 1684   5.069   5.546   5.413  0.2852 -0.3310 -0.2733
   13MOL0     C 1685   5.069   5.286   5.374 -0.2379 -0.0936  0.1451
   13MOL0     C 1686   5.175   5.280   5.272 -0.5287 -0.6694 -0.8732
   13MOL0     O 1687   5.278   5.190   5.294  0.4928  0.3139 -0.3977
   13MOL0     C 1688   5.364   5.182   5.187  0.7362  0.3490  0.5402
   13MOL0     C 1689   5.340   5.092   5.083  0.0977  0.0575  0.0876
   13MOL0     C 1690   5.429   5.079   4.975 -0.4661 -0.0306  0.4847
   13MOL0     C 1691   5.546   5.163   4.972 -0.1075  0.5231  0.5396
   13MOL0     O 1692   5.622   5.154   4.856 -0.2269  0.3694 -0.9122
   13MOL0     C 1693   5.624   5.275   4.777 -0.1978  0.1936 -0.3787
   13MOL0     C 1694   5.747   5.260   4.684  0.6658  0.0154  0.1702
   13MOL0     C 1695   5.879   5.304   4.760  0.2109 -0.3729  0.1807
   13MOL0     C 1696   5.951   5.176   4.807  0.6265  0.2843 -0.5522
   13MOL0     C 1697   6.076   5.216   4.899  0.6555  0.1798  0.2859
   13MOL0     C 1698   6.178   5.319   4.847  0.1788  0.0916 -0.4546
   13MOL0     C 1699   6.311   5.317   4.925  0.4331  0.5630 -0.2745
   13MOL0     C 1700   6.297   5.309   5.073  0.5990 -0.8002  0.7877
   13MOL0    Cl 1701   6.452   5.320   5.154 -0.0401  0.0133 -0.2358
   13MOL0     C 1702   5.571   5.258   5.076  0.2755  0.2429  0.0064
   13MOL0     C 1703   5.478   5.268   5.184  0.1962  0.3557  0.2812
   13MOL0     O 1704   5.170   5.360   5.180  0.3314  0.2884  0.0794
   13MOL0     C 1705   5.009   5.165   5.399 -0.1548 -0.7928  0.4433
   13MOL0     C 1706   4.904   5.152   5.489  0.5986 -0.2095  0.4719
   13MOL0     N 1707   4.817   5.053   6.285 -0.4428  0.2029 -0.4144
   13MOL0     N 1708   4.778   5.023   6.403 -0.1234  0.0610  0.1600
   13MOL0     C 1709   4.538   3.704   6.272 -0.3374  0.4221 -0.1103
   13MOL0     C 1710   4.497   3.567   6.294 -0.2921 -0.4130 -0.1972
   13MOL0     C 1711   4.506   3.141   6.427 -0.3966 -0.3493 -0.5219
   13MOL0     C 1712   4.368   3.142   6.452 -0.4618  0.2239 -0.4247
   13MOL0     C 1713   4.304   3.017   6.437  0.0525 -0.1779  0.1218
   13MOL0     C 1714   4.374   2.903   6.431 -0.3252 -0.1332 -1.0720
   13MOL0     O 1715   4.303   2.786   6.427  0.1365  0.1022 -0.1283
   13MOL0     C 1716   4.332   2.709   6.548  0.2148 -0.9838  0.7905
   13MOL0     C 1717   4.243   2.587   6.555 -0.4869  0.0740 -0.7702
   13MOL0     C 1718   4.098   2.621   6.596 -2.3061 -0.7880  0.2793
   13MOL0     C 1719   4.006   2.505   6.561 -0.8940 -0.5624 -0.3584
   13MOL0     C 1720   4.022   2.410   6.668 -0.0615 -0.9654 -0.0053
   13MOL0     C 1721   4.037   2.329   6.754 -0.1967 -0.3841 -0.9771
   13MOL0     C 1722   4.512   2.908   6.429 -1.2698  0.2633  0.9612
   13MOL0     C 1723   4.577   3.023   6.413 -1.3315  0.2496  0.8365
   13MOL0     C 1724   4.729   3.011   6.396  0.4325 -0.3474  0.3270
   13MOL0     H 1725   4.593   3.539   6.617  2.3444  1.9480  0.2974
   13MOL0     H 1726   4.691   3.766   6.571 -1.3111  2.3419  0.3945
   13MOL0     H 1727   4.792   4.008   6.459 -0.3306 -0.5406 -0.7019
   13MOL0     H 1728   4.632   3.979   6.530 -1.0046  2.7167  0.5511
   13MOL0     H 1729   4.674   4.148   6.271 -0.8406 -2.3021  0.3936
   13MOL0     H 1730   4.534   4.128   6.366 -0.7362 -1.1101 -1.1641
   13MOL0     H 1731   4.617   4.249   6.547  0.9129  0.5008  0.9724
   13MOL0     H 1732   4.787   4.237   6.488 -0.0021  0.4671 -1.1857
   13MOL0     H 1733   4.707   4.382   6.287  0.3266 -2.4192 -0.9271
   13MOL0     H 1734   4.545   4.383   6.361  0.2287 -0.5057 -1.0494
   13MOL0     H 1735   4.807   4.503   6.472 -0.4592  0.6417 -2.6633
   13MOL0     H 1736   4.649   4.494   6.560  0.9267 -0.8179  0.7791
   13MOL0     H 1737   4.711   4.683   6.345 -0.0528 -0.5592  0.6046
   13MOL0     H 1738   4.543   4.623   6.383  0.3951 -1.1202 -0.3744
   13MOL0     H 1739   4.758   4.758   6.560 -0.7651  1.4080 -0.2998
   13MOL0     H 1740   4.600   4.707   6.621  0.3940  1.0029  0.0452
   13MOL0     H 1741   4.480   4.894   6.493 -1.0631  1.4042  1.4552
   13MOL0     H 1742   4.609   4.948   6.594  0.0904 -0.5296 -0.4237
   13MOL0     H 1743   4.536   4.898   6.221  0.3661  1.1710 -3.2974
   13MOL0     H 1744   4.717   4.951   5.981  3.5879 -0.5290 -1.4490
   13MOL0     H 1745   4.858   5.045   6.027 -0.8302  0.1614 -1.0950
   13MOL0     H 1746   4.566   5.128   6.041  1.0061 -1.5123  0.8391
   13MOL0     H 1747   4.702   5.243   6.034  2.0433  0.0502 -0.9002
   13MOL0     H 1748   4.622   5.063   5.802 -0.0010 -1.0159  3.4494
   13MOL0     H 1749   4.577   5.230   5.812 -1.0770 -0.7463 -0.2112
   13MOL0     H 1750   4.822   5.301   5.828 -1.7294  0.8936 -0.4494
   13MOL0     H 1751   4.861   5.136   5.776  2.2233  2.4693  1.5123
   13MOL0     H 1752   4.875   5.482   5.580  1.4829  0.1516 -2.0106
   13MOL0     H 1753   5.178   5.543   5.424  0.4008 -0.1844 -1.2922
   13MOL0     H 1754   5.032   5.617   5.487 -2.2184  0.0967 -1.8038
   13MOL0     H 1755   5.041   5.584   5.314  1.4063  0.8467 -0.1666
   13MOL0     H 1756   5.255   5.023   5.089  1.8170 -2.0815  1.6854
   13MOL0     H 1757   5.408   5.008   4.896 -2.5689  0.2691  0.7248
   13MOL0     H 1758   5.533   5.268   4.715  0.2363 -3.5876 -0.8106
   13MOL0     H 1759   5.627   5.368   4.835  1.0437 -0.7893  1.1693
   13MOL0     H 1760   5.742   5.161   4.637 -2.9721 -0.4482  1.2296
   13MOL0     H 1761   5.733   5.337   4.608  0.6247 -0.7007 -0.5639
   13MOL0     H 1762   5.856   5.357   4.853  0.4581 -0.2579  0.1776
   13MOL0     H 1763   5.941   5.365   4.694 -1.8607  0.6669 -0.8793
   13MOL0     H 1764   5.994   5.111   4.730 -1.0495  1.9346 -3.0138
   13MOL0     H 1765   5.888   5.118   4.875  3.6010 -2.7671 -0.1150
   13MOL0     H 1766   6.025   5.257   4.987 -0.5444  0.3928 -0.4784
   13MOL0     H 1767   6.129   5.121   4.912  0.2379  0.0691  1.3067
   13MOL0     H 1768   6.158   5.426   4.859  0.9790  0.1157  0.9431
   13MOL0     H 1769   6.205   5.295   4.744 -2.7348  2.5233 -1.9356
   13MOL0     H 1770   6.377   5.402   4.903 -0.6981  1.8049  0.9529
   13MOL0     H 1771   6.379   5.239   4.888  1.2311  0.0274  2.1589
   13MOL0     H 1772   6.242   5.219   5.102  1.0041 -0.9406  1.1251
   13MOL0     H 1773   6.249   5.401   5.106  0.4599 -0.0079 -1.4816
   13MOL0     H 1774   5.656   5.327   5.076 -0.6519  1.6250 -3.4298
   13MOL0     H 1775   5.492   5.349   5.255  1.1379  1.4444 -1.1105
   13MOL0     H 1776   5.063   5.078   5.364 -0.0626 -0.4041 -0.3912
   13MOL0     H 1777   4.858   5.054   5.500 -1.9526  1.0214  1.4550
   13MOL0     H 1778   4.536   3.750   6.173 -0.8114  0.3723 -0.1279
   13MOL0     H 1779   4.461   3.508   6.210  1.3905  1.2389 -2.1974
   13MOL0     H 1780   4.302   3.228   6.455 -2.1420 -0.9686 -1.4519
   13MOL0     H 1781   4.196   3.026   6.440  0.1380  1.8414 -1.2648
   13MOL0     H 1782   4.437   2.681   6.539  0.6690  0.9113 -0.4662
   13MOL0     H 1783   4.317   2.779   6.630  1.0844  2.0360 -1.4435
   13MOL0     H 1784   4.284   2.518   6.629 -0.7649 -1.1138 -1.6894
   13MOL0     H 1785   4.237   2.534   6.459  1.2253  1.0631 -1.4735
   13MOL0     H 1786   4.095   2.660   6.698  1.6372  0.4535  0.0955
   13MOL0     H 1787   4.070   2.707   6.534  1.6147 -0.5270 -1.4412
   13MOL0     H 1788   4.021   2.452   6.466  3.7282 -0.7046  0.2173
   13MOL0     H 1789   3.907   2.553   6.563  0.3431  2.2665 -1.6151
   13MOL0     H 1790   4.058   2.256   6.830  1.0135  0.8499 -0.0937
   13MOL0     H 1791   4.573   2.818   6.426  0.0890  1.1138  1.8113
   13MOL0     H 1792   4.772   3.080   6.469  2.2359  0.7225 -1.6122
   13MOL0     H 1793   4.768   2.910   6.400 -0.3013 -1.0640 -4.2817
   13MOL0     H 1794   4.762   3.051   6.299  0.9411  1.6258  1.2640
   14MOL0     O 1795   1.922   4.483   7.651  0.1171 -0.4109  0.3022
   14MOL0     C 1796   1.862   4.584   7.689 -0.5743 -0.5556  0.3895
   14MOL0     O 1797   1.913   4.672   7.783 -0.9993 -0.3933  0.9502
   14MOL0     C 1798   2.046   4.655   7.816 -0.1278  0.4840 -0.2869
   14MOL0     C 1799   2.150   4.713   7.737  0.1096  0.1588 -0.0488
   14MOL0     C 1800   2.284   4.702   7.766  0.1984 -0.0385 -0.4571
   14MOL0     C 1801   2.331   4.632   7.874  0.5302  0.5243  0.4822
   14MOL0     O 1802   2.466   4.625   7.903 -0.3658  0.3307  0.6905
   14MOL0     C 1803   2.506   4.562   8.023 -0.7528  0.6110 -0.5166
   14MOL0     C 1804   2.654   4.524   8.010 -0.0136 -0.3370  0.3081
   14MOL0     C 1805   2.683   4.414   8.112 -0.1199  0.2415 -0.2539
   14MOL0     C 1806   2.834   4.375   8.099  0.7595  0.4070  0.5881
   14MOL0     C 1807   2.857   4.238   8.169 -0.1740 -0.0477  0.5493
   14MOL0     C 1808   2.876   4.243   8.318  0.1644 -1.2132 -0.3675
   14MOL0     C 1809   2.913   4.111   8.383  0.7520 -0.7147  0.6426
   14MOL0     C 1810   2.805   3.998   8.363 -0.3293 -0.5008  0.3321
   14MOL0     N 1811   2.674   4.040   8.412  0.0308  0.5265 -0.3483
   14MOL0     C 1812   2.651   4.065   8.548 -0.0585  0.6155 -0.0148
   14MOL0     C 1813   2.529   4.120   8.531 -0.4645 -0.6109  0.1143
   14MOL0     C 1814   2.460   4.187   8.642  1.0682 -0.5110 -0.7569
   14MOL0     C 1815   2.335   4.102   8.681 -0.2434  0.8265 -0.6944
   14MOL0     C 1816   2.244   4.164   8.779  0.5584  0.2534 -0.4664
   14MOL0     C 1817   2.192   4.310   8.753 -0.5490  0.0047  0.0146
   14MOL0     O 1818   2.094   4.304   8.647 -0.6446  0.6976  0.1331
   14MOL0     C 1819   1.972   4.330   8.701  0.7055 -0.3170 -0.4273
   14MOL0     C 1820   1.925   4.464   8.695 -0.4067 -0.3592  0.3627
   14MOL0     C 1821   1.800   4.502   8.749  0.4922 -0.0689 -0.6200
   14MOL0     C 1822   1.771   4.650   8.741 -0.2193  0.1769  0.2939
   14MOL0     C 1823   1.720   4.411   8.827  1.0042  0.7005 -0.8528
   14MOL0     C 1824   1.598   4.445   8.913 -0.1267 -0.6208 -0.0079
   14MOL0     O 1825   1.569   4.343   9.007 -0.2939 -0.0614 -0.4867
   14MOL0     C 1826   1.471   4.368   9.098  0.3039  0.2761 -0.0751
   14MOL0     C 1827   1.354   4.293   9.099  0.1703 -0.0566  0.4612
   14MOL0     C 1828   1.266   4.314   9.203  0.4717 -0.2211  0.0674
   14MOL0     C 1829   1.280   4.420   9.301 -0.9374 -0.3553  0.4778
   14MOL0     O 1830   1.195   4.450   9.402 -0.4868  0.8315  0.7411
   14MOL0     C 1831   1.103   4.341   9.437 -0.7652 -0.9828 -0.2446
   14MOL0     C 1832   1.024   4.379   9.564 -0.2912 -0.1694  0.8505
   14MOL0     C 1833   0.936   4.504   9.553 -0.1230 -0.2403  0.0373
   14MOL0     C 1834   0.864   4.530   9.684  0.6286 -0.0979 -0.1162
   14MOL0     C 1835   0.731   4.610   9.640 -0.2079 -0.2204 -0.1399
   14MOL0     C 1836   0.633   4.644   9.760 -0.2679 -0.1386  0.0282
   14MOL0     C 1837   0.502   4.716   9.701  1.5023  0.1358 -0.5644
   14MOL0     C 1838   0.429   4.760   9.834  0.8514 -0.3784  0.0126
   14MOL0    Cl 1839   0.517   4.901   9.915 -0.0749  0.1474 -0.0206
   14MOL0     C 1840   1.401   4.493   9.290 -0.0235 -0.2338  0.0436
   14MOL0     C 1841   1.499   4.468   9.194 -0.5897  0.0639  0.0891
   14MOL0     O 1842   1.541   4.550   8.901 -0.1693  0.1663 -0.3157
   14MOL0     C 1843   1.773   4.277   8.832 -0.4892  1.0355 -0.0625
   14MOL0     C 1844   1.896   4.235   8.773  0.3037 -0.0287  0.1674
   14MOL0     N 1845   2.481   4.111   8.402  0.3787  0.1272 -0.7305
   14MOL0     N 1846   2.569   4.056   8.332 -0.5319  0.4108 -0.4127
   14MOL0     C 1847   2.229   4.576   7.956  0.6296  0.4538 -0.0933
   14MOL0     C 1848   2.090   4.588   7.930  0.2194 -0.2355  0.5288
   14MOL0     C 1849   1.734   4.600   7.628 -0.0650 -0.1273  0.0031
   14MOL0     C 1850   1.700   4.537   7.506  0.4048  0.1874 -0.7503
   14MOL0     C 1851   1.581   4.547   7.444 -0.8576  0.0793 -0.5388
   14MOL0     C 1852   1.491   4.640   7.490  0.0989 -0.6323 -0.1084
   14MOL0     O 1853   1.364   4.664   7.445 -0.1122  0.3940 -0.2355
   14MOL0     C 1854   1.299   4.594   7.345  0.6120  0.0882  0.1871
   14MOL0     C 1855   1.147   4.613   7.366  0.4658  0.1024  0.6795
   14MOL0     C 1856   1.111   4.760   7.370 -0.4061  0.7835  0.6079
   14MOL0     C 1857   0.964   4.780   7.398  0.9227 -0.3662  0.2774
   14MOL0     C 1858   0.925   4.924   7.399 -0.2184 -0.6495  0.0547
   14MOL0     C 1859   0.879   5.112   7.418  0.4073 -0.0938  0.4469
   14MOL0     C 1860   1.514   4.698   7.612 -0.4120  0.3668  0.4488
   14MOL0     C 1861   1.634   4.681   7.678 -0.4588 -0.4793 -0.3960
   14MOL0     C 1862   1.650   4.757   7.804 -0.3068 -0.5304 -0.7579
   14MOL0     H 1863   2.124   4.762   7.644 -0.0589 -0.3620 -0.2812
   14MOL0     H 1864   2.358   4.745   7.700  2.1976 -2.3311  0.1498
   14MOL0     H 1865   2.451   4.468   8.027  1.2761 -0.7055 -1.6545
   14MOL0     H 1866   2.492   4.628   8.109 -2.1693 -1.1580  0.6789
   14MOL0     H 1867   2.678   4.492   7.908  0.4982  0.5456  0.1416
   14MOL0     H 1868   2.710   4.615   8.033 -2.5050  0.6589  2.9996
   14MOL0     H 1869   2.647   4.432   8.214  2.0818 -0.3697  0.7105
   14MOL0     H 1870   2.625   4.330   8.073 -2.9138  2.3036 -0.8582
   14MOL0     H 1871   2.873   4.368   7.997  1.0641  3.5101  0.3849
   14MOL0     H 1872   2.899   4.447   8.151  0.1923  2.3160 -1.2245
   14MOL0     H 1873   2.941   4.180   8.130 -1.0880 -0.2870 -1.1400
   14MOL0     H 1874   2.770   4.176   8.143  0.4947 -1.8917  2.4246
   14MOL0     H 1875   2.962   4.308   8.334 -0.3604 -0.7966  0.8870
   14MOL0     H 1876   2.790   4.290   8.367  2.0542  0.1706  1.8345
   14MOL0     H 1877   2.937   4.126   8.489  0.7507 -2.5574  0.9521
   14MOL0     H 1878   3.008   4.082   8.337  0.5989  0.3098 -0.3502
   14MOL0     H 1879   2.807   3.967   8.258  2.7328  0.1251  0.1177
   14MOL0     H 1880   2.829   3.911   8.426 -1.1567 -1.2112 -0.3089
   14MOL0     H 1881   2.716   4.048   8.633  3.1150  0.9169 -2.2051
   14MOL0     H 1882   2.423   4.281   8.601  0.9340  1.3249  3.0685
   14MOL0     H 1883   2.525   4.202   8.729  1.8360 -1.9118 -1.0667
   14MOL0     H 1884   2.279   4.089   8.587 -1.8053  3.5618 -0.2575
   14MOL0     H 1885   2.368   4.003   8.713 -2.0914  0.3878 -0.0057
   14MOL0     H 1886   2.163   4.090   8.777 -0.1038  0.9784 -1.2167
   14MOL0     H 1887   2.283   4.168   8.881  0.7085 -2.1148 -0.3725
   14MOL0     H 1888   2.160   4.357   8.846  3.9873  2.3510  0.6592
   14MOL0     H 1889   2.272   4.378   8.721  1.0049 -2.0890 -0.8251
   14MOL0     H 1890   1.989   4.535   8.643 -2.8841  2.2609  0.5965
   14MOL0     H 1891   1.748   4.704   8.833  2.4036 -1.1906  1.8816
   14MOL0     H 1892   1.692   4.659   8.666  1.2617  0.0503 -1.3366
   14MOL0     H 1893   1.864   4.698   8.711  0.7210  0.3725  3.2098
   14MOL0     H 1894   1.337   4.216   9.025  0.5049  0.4654 -0.1749
   14MOL0     H 1895   1.169   4.264   9.199  0.3804  0.0099 -0.8764
   14MOL0     H 1896   1.032   4.322   9.355 -2.0027 -2.4325  1.0851
   14MOL0     H 1897   1.164   4.254   9.463  2.2495  0.3322 -2.2610
   14MOL0     H 1898   0.963   4.291   9.591  1.8996 -1.3870  2.1854
   14MOL0     H 1899   1.102   4.392   9.639  0.3380  3.0118 -0.2202
   14MOL0     H 1900   0.857   4.478   9.482 -0.1543 -0.0245 -0.0083
   14MOL0     H 1901   0.981   4.593   9.507 -0.0224  0.2024  0.9595
   14MOL0     H 1902   0.925   4.578   9.761 -0.4835 -0.9287  1.3432
   14MOL0     H 1903   0.826   4.442   9.737 -0.9228  0.0856 -0.8845
   14MOL0     H 1904   0.738   4.706   9.587  0.8405 -0.1024  0.1933
   14MOL0     H 1905   0.667   4.546   9.578 -0.2774  1.4167 -1.8658
   14MOL0     H 1906   0.679   4.710   9.834  0.6010 -0.0015 -0.6165
   14MOL0     H 1907   0.609   4.559   9.825 -2.2996  0.4628  0.1251
   14MOL0     H 1908   0.445   4.640   9.647  1.6393 -1.4983  1.4711
   14MOL0     H 1909   0.520   4.801   9.634 -0.2242 -0.0652 -1.3387
   14MOL0     H 1910   0.392   4.685   9.904 -0.7809  1.4664  1.2304
   14MOL0     H 1911   0.328   4.794   9.808 -0.1274 -1.3971  2.2582
   14MOL0     H 1912   1.425   4.571   9.362  1.6680  0.5191 -1.2524
   14MOL0     H 1913   1.583   4.536   9.190 -0.0137 -0.5859  1.0162
   14MOL0     H 1914   1.715   4.199   8.880 -0.9148  0.5834 -1.2738
   14MOL0     H 1915   1.930   4.133   8.787 -0.5789  0.0842  4.1754
   14MOL0     H 1916   2.262   4.535   8.051  0.4430  1.9098  0.6218
   14MOL0     H 1917   2.018   4.553   8.004 -0.9800 -0.2027 -0.5745
   14MOL0     H 1918   1.776   4.479   7.455  3.2571  0.3936  2.8029
   14MOL0     H 1919   1.557   4.471   7.370  0.3390 -0.9862  0.1410
   14MOL0     H 1920   1.334   4.624   7.245 -1.8901 -0.1145 -0.8284
   14MOL0     H 1921   1.319   4.487   7.352  0.5511 -0.2265 -2.8433
   14MOL0     H 1922   1.126   4.563   7.461 -1.0363 -2.3869 -0.8454
   14MOL0     H 1923   1.088   4.566   7.286  0.6190 -0.4514  0.8894
   14MOL0     H 1924   1.185   4.810   7.433  2.3010 -0.4944 -1.3520
   14MOL0     H 1925   1.133   4.808   7.274  2.6024 -0.7490  0.3951
   14MOL0     H 1926   0.943   4.745   7.499 -4.1473  2.3467  0.4919
   14MOL0     H 1927   0.901   4.715   7.337 -2.6539  1.1156  2.1173
   14MOL0     H 1928   0.849   5.212   7.440 -1.4786 -0.5125 -0.0360
   14MOL0     H 1929   1.434   4.763   7.646  0.4761  0.7710  1.8003
   14MOL0     H 1930   1.553   4.801   7.827  0.7675  2.5565 -1.5526
   14MOL0     H 1931   1.690   4.705   7.892 -0.7113  1.1545  0.4675
   14MOL0     H 1932   1.722   4.838   7.786  0.8424 -1.3686 -0.0947
   15MOL0     O 1933   8.556   7.806   6.513  0.4669 -0.2420 -0.5123
   15MOL0     C 1934   8.465   7.732   6.510  0.7747 -0.6996 -0.0101
   15MOL0     O 1935   8.337   7.777   6.501  0.2327  0.1059  0.4335
   15MOL0     C 1936   8.312   7.911   6.511  0.0760 -0.2412  0.0173
   15MOL0     C 1937   8.322   7.996   6.402  0.2047  0.3828 -0.0911
   15MOL0     C 1938   8.318   8.131   6.413 -0.0755 -0.9628 -0.6219
   15MOL0     C 1939   8.295   8.195   6.539  0.6597  0.6063  0.0754
   15MOL0     O 1940   8.297   8.331   6.553  0.4474  0.1141 -0.9373
   15MOL0     C 1941   8.252   8.405   6.669  0.2720 -0.8893 -1.0862
   15MOL0     C 1942   8.249   8.558   6.637  0.7777 -0.3228  1.4703
   15MOL0     C 1943   8.147   8.610   6.525 -0.7050 -0.1700  0.0405
   15MOL0     C 1944   8.165   8.548   6.381  0.0769 -0.7727 -0.2844
   15MOL0     C 1945   8.081   8.623   6.274  0.6716 -0.9036  0.0020
   15MOL0     C 1946   8.121   8.568   6.143 -0.2382 -0.3421  0.6247
   15MOL0     C 1947   8.065   8.432   6.103 -0.2776  0.7638 -0.1053
   15MOL0     C 1948   8.051   8.431   5.947  0.0154 -0.1420 -0.5338
   15MOL0     N 1949   8.174   8.434   5.867  0.2172  0.5613 -0.3827
   15MOL0     C 1950   8.230   8.548   5.802 -0.2433 -1.1900 -1.0108
   15MOL0     C 1951   8.345   8.501   5.746  0.5043  0.9407 -0.2978
   15MOL0     C 1952   8.441   8.569   5.661  0.1129 -0.8066 -0.0008
   15MOL0     C 1953   8.438   8.719   5.700  0.5326  0.3558  0.3372
   15MOL0     C 1954   8.549   8.800   5.633 -0.2415 -0.5801 -0.4682
   15MOL0     C 1955   8.535   8.950   5.664  0.2409 -0.7223 -0.0626
   15MOL0     O 1956   8.635   9.034   5.609 -0.2798 -0.3417  0.0487
   15MOL0     C 1957   8.757   9.063   5.676 -0.1084  0.5086 -0.3380
   15MOL0     C 1958   8.871   9.104   5.604  0.5835  0.4390  0.1475
   15MOL0     C 1959   8.996   9.129   5.662 -0.3386  0.9134 -1.1050
   15MOL0     C 1960   9.093   9.186   5.557  0.4228  0.1853  0.2096
   15MOL0     C 1961   9.020   9.106   5.800  0.3879 -0.0671  0.7332
   15MOL0     C 1962   9.152   9.118   5.865  0.3933 -0.6011 -0.3220
   15MOL0     O 1963   9.175   9.042   5.971  0.2936  0.1119  0.2346
   15MOL0     C 1964   9.276   9.067   6.058  0.8293 -0.7468 -0.3887
   15MOL0     C 1965   9.245   9.074   6.199 -0.3303 -0.8601 -0.4162
   15MOL0     C 1966   9.337   9.087   6.300 -0.0862 -0.9224 -0.1536
   15MOL0     C 1967   9.470   9.096   6.268 -0.6396 -0.5926  0.3887
   15MOL0     O 1968   9.562   9.098   6.368  0.0115  0.1660 -0.3006
   15MOL0     C 1969   9.700   9.118   6.328 -0.2656  0.1312  0.3493
   15MOL0     C 1970   9.800   9.146   6.437 -0.4254  0.0051 -0.6834
   15MOL0     C 1971   9.949   9.145   6.382  1.0666  0.4838 -0.2289
   15MOL0     C 1972   9.982   9.255   6.289 -0.4779 -0.0081 -0.2848
   15MOL0     C 1973  10.097   9.219   6.191  0.7302 -0.0490 -0.4913
   15MOL0     C 1974  10.211   9.149   6.265 -0.6582 -0.4361 -0.0542
   15MOL0     C 1975  10.320   9.111   6.164 -0.6536 -0.6882 -0.8961
   15MOL0     C 1976  10.428   9.035   6.239 -0.8439 -0.0440 -0.5682
   15MOL0    Cl 1977  10.568   9.024   6.126 -0.3590  0.2474 -0.4338
   15MOL0     C 1978   9.503   9.107   6.130 -0.0671 -0.3356 -0.2423
   15MOL0     C 1979   9.412   9.080   6.028 -0.1033  0.0374 -0.3680
   15MOL0     O 1980   9.227   9.210   5.828 -0.0002 -0.0688 -0.0330
   15MOL0     C 1981   8.903   9.056   5.870 -0.4163 -0.0468  0.1041
   15MOL0     C 1982   8.774   9.041   5.814  0.2155 -0.3938  0.0090
   15MOL0     N 1983   8.350   8.365   5.772 -0.6515 -0.6733 -0.6787
   15MOL0     N 1984   8.254   8.325   5.848 -0.0404  0.4722 -1.0383
   15MOL0     C 1985   8.274   8.109   6.649 -0.5252  0.4620  0.5303
   15MOL0     C 1986   8.279   7.962   6.637  0.8084 -0.3413 -0.1152
   15MOL0     C 1987   8.482   7.588   6.501  0.4600 -0.0878  0.1320
   15MOL0     C 1988   8.372   7.511   6.460 -0.0014 -0.6806 -0.1147
   15MOL0     C 1989   8.386   7.369   6.440 -0.1833 -0.4988 -0.2130
   15MOL0     C 1990   8.507   7.299   6.460 -0.5106 -1.0072  0.4736
   15MOL0     O 1991   8.540   7.170   6.456  0.4936  0.0979  0.1382
   15MOL0     C 1992   8.422   7.091   6.474  0.3370 -0.9655 -0.2451
   15MOL0     C 1993   8.458   6.947   6.479  1.0243 -0.5078 -0.9218
   15MOL0     C 1994   8.508   6.892   6.607 -0.1638 -0.5659 -0.5225
   15MOL0     C 1995   8.628   6.970   6.657 -0.5404  1.1043 -0.1889
   15MOL0     C 1996   8.730   6.899   6.735 -1.2517  0.0377  0.1419
   15MOL0     C 1997   8.810   6.841   6.804 -0.7925  0.0152 -0.0322
   15MOL0     C 1998   8.609   7.382   6.501 -0.5687  0.0944 -0.6848
   15MOL0     C 1999   8.603   7.518   6.522 -1.0546 -0.0058 -0.3180
   15MOL0     C 2000   8.729   7.586   6.572  0.0894  0.4684 -0.1117
   15MOL0     H 2001   8.348   7.941   6.312  0.0295 -0.7910  0.5524
   15MOL0     H 2002   8.341   8.198   6.331  1.4068  0.3173  0.7378
   15MOL0     H 2003   8.325   8.396   6.750 -0.1436  1.2024 -0.4098
   15MOL0     H 2004   8.151   8.380   6.705 -0.4983  2.2079 -0.8653
   15MOL0     H 2005   8.231   8.618   6.726 -3.9565  0.0896  0.5025
   15MOL0     H 2006   8.351   8.578   6.603  0.4773 -2.9924 -1.6190
   15MOL0     H 2007   8.050   8.581   6.567 -0.7098 -0.0644  0.1029
   15MOL0     H 2008   8.161   8.718   6.532  3.7660 -0.6781  1.9426
   15MOL0     H 2009   8.268   8.560   6.344 -0.1046  3.3059  0.0176
   15MOL0     H 2010   8.135   8.443   6.382 -0.6347 -0.6099  2.2376
   15MOL0     H 2011   8.105   8.730   6.281 -4.2901  0.4952 -0.6338
   15MOL0     H 2012   7.976   8.611   6.303  0.0669  3.1372  0.1213
   15MOL0     H 2013   8.075   8.645   6.081 -1.4328  0.2847  2.2175
   15MOL0     H 2014   8.228   8.564   6.119 -0.1747 -2.2743  1.0431
   15MOL0     H 2015   7.972   8.424   6.160  1.0416  4.1039  2.9121
   15MOL0     H 2016   8.144   8.362   6.131 -1.4220 -1.3252 -1.7708
   15MOL0     H 2017   7.997   8.341   5.915  0.3470 -2.1110  3.7242
   15MOL0     H 2018   7.999   8.521   5.915  1.3194  0.0976 -2.1182
   15MOL0     H 2019   8.191   8.648   5.789  4.3752  0.7949 -1.4503
   15MOL0     H 2020   8.414   8.566   5.556  0.8860  0.3848 -0.2592
   15MOL0     H 2021   8.543   8.531   5.668  0.4129  0.0247  0.2694
   15MOL0     H 2022   8.342   8.759   5.669  0.9713  0.9882 -0.2393
   15MOL0     H 2023   8.436   8.733   5.808 -1.1938 -0.9944  0.5239
   15MOL0     H 2024   8.642   8.762   5.678  1.0753  0.5150 -2.1187
   15MOL0     H 2025   8.563   8.771   5.528 -0.1974 -1.4574 -0.2282
   15MOL0     H 2026   8.442   8.992   5.625  0.1411 -1.8124 -1.0561
   15MOL0     H 2027   8.531   8.957   5.774  0.2018 -2.4985  0.0774
   15MOL0     H 2028   8.843   9.120   5.500 -0.8681  1.0422  0.6062
   15MOL0     H 2029   9.062   9.147   5.460  1.6322  2.3492 -1.1075
   15MOL0     H 2030   9.201   9.175   5.568  0.3894  0.0508  0.4097
   15MOL0     H 2031   9.087   9.294   5.545  1.6958  0.2126 -0.3045
   15MOL0     H 2032   9.141   9.059   6.227 -1.0315  3.3880 -0.0163
   15MOL0     H 2033   9.296   9.092   6.401  3.0811 -3.6618  1.4511
   15MOL0     H 2034   9.736   9.037   6.264  1.9182  1.7112 -0.5356
   15MOL0     H 2035   9.716   9.213   6.275  0.5249 -0.9164 -1.3677
   15MOL0     H 2036   9.793   9.246   6.481  0.3409 -0.3077  0.1859
   15MOL0     H 2037   9.793   9.073   6.518 -2.3998 -0.2795 -1.0697
   15MOL0     H 2038   9.958   9.047   6.335 -2.3261  0.4692 -1.0970
   15MOL0     H 2039  10.011   9.153   6.471 -0.0015  1.3592  0.4687
   15MOL0     H 2040  10.028   9.333   6.351 -2.3129  0.0697  1.0345
   15MOL0     H 2041   9.898   9.307   6.242 -0.9110 -0.5986 -0.1547
   15MOL0     H 2042  10.044   9.158   6.117  0.1658 -1.5454  1.0613
   15MOL0     H 2043  10.131   9.313   6.147 -0.2568 -0.4224 -2.1371
   15MOL0     H 2044  10.166   9.065   6.317 -1.0100  0.7870  1.7285
   15MOL0     H 2045  10.249   9.211   6.347  0.9475 -1.1788 -0.2051
   15MOL0     H 2046  10.358   9.195   6.106  0.5662 -0.3331  0.3634
   15MOL0     H 2047  10.274   9.042   6.092 -0.0901  0.0312 -1.9722
   15MOL0     H 2048  10.397   8.934   6.267  0.5361 -0.2096  0.4675
   15MOL0     H 2049  10.455   9.091   6.329 -0.2552  0.9975 -1.3687
   15MOL0     H 2050   9.604   9.128   6.098 -0.2052  3.5605  1.3179
   15MOL0     H 2051   9.442   9.083   5.923 -0.0771 -0.8299 -0.3904
   15MOL0     H 2052   8.913   9.036   5.977  1.5790  1.2642  0.2187
   15MOL0     H 2053   8.688   8.998   5.865  0.2735  0.9672  1.3048
   15MOL0     H 2054   8.251   8.145   6.749 -0.3243  0.4594  0.5773
   15MOL0     H 2055   8.286   7.892   6.719 -0.1031 -0.1483  0.1386
   15MOL0     H 2056   8.273   7.551   6.443 -0.2516 -0.8757  0.8010
   15MOL0     H 2057   8.305   7.309   6.399  0.7402  0.0100 -3.0082
   15MOL0     H 2058   8.372   7.107   6.570 -1.1210 -3.5987 -0.4982
   15MOL0     H 2059   8.350   7.094   6.392 -0.1058 -0.9613  0.1410
   15MOL0     H 2060   8.536   6.925   6.406  1.2935  1.0772 -1.1610
   15MOL0     H 2061   8.361   6.903   6.455 -0.2783  0.7525  1.5544
   15MOL0     H 2062   8.431   6.876   6.682  0.1503  0.7197  0.1152
   15MOL0     H 2063   8.543   6.790   6.591 -0.9971 -0.4578 -3.7927
   15MOL0     H 2064   8.600   7.052   6.724  3.1020 -0.0870  3.2466
   15MOL0     H 2065   8.677   7.014   6.570 -0.9940  1.5168 -0.2408
   15MOL0     H 2066   8.880   6.798   6.871 -1.9848 -1.8312  0.0873
   15MOL0     H 2067   8.701   7.327   6.513 -2.9794 -4.5711 -1.1151
   15MOL0     H 2068   8.802   7.516   6.613  0.1298 -0.2797 -1.3915
   15MOL0     H 2069   8.768   7.642   6.486  0.1136 -0.4444 -0.7113
   15MOL0     H 2070   8.712   7.663   6.648  2.3888  2.9440 -1.9220
   16MOL0     O 2071  11.032   9.512   8.702  0.1218 -0.4714  0.6470
   16MOL0     C 2072  10.982   9.538   8.811  0.1797  0.4769 -0.4328
   16MOL0     O 2073  11.059   9.554   8.921 -0.2518 -0.2807 -0.4618
   16MOL0     C 2074  11.199   9.555   8.908  1.1380 -0.5107  0.2339
   16MOL0     C 2075  11.267   9.432   8.932  0.3133 -0.4400 -0.4668
   16MOL0     C 2076  11.406   9.428   8.919  0.0143  0.2604  0.5856
   16MOL0     C 2077  11.482   9.548   8.902 -0.2148  0.3281  0.0179
   16MOL0     O 2078  11.620   9.552   8.908 -0.3360 -0.4380 -0.0457
   16MOL0     C 2079  11.693   9.438   8.954 -0.8417  0.1522  0.4405
   16MOL0     C 2080  11.840   9.470   8.998  0.4019 -0.3050  0.1412
   16MOL0     C 2081  11.920   9.351   9.058 -0.6199 -0.7165  0.2802
   16MOL0     C 2082  12.072   9.372   9.040 -0.5129 -0.1379 -0.1125
   16MOL0     C 2083  12.164   9.294   9.133  0.1361 -0.6582 -0.1031
   16MOL0     C 2084  12.311   9.309   9.102  0.2482  0.0573  0.5416
   16MOL0     C 2085  12.395   9.194   9.162 -0.4394  1.5798  0.5420
   16MOL0     C 2086  12.392   9.187   9.314  0.5222  0.2997  0.1272
   16MOL0     N 2087  12.449   9.302   9.383  0.1642  0.5055 -0.5555
   16MOL0     C 2088  12.582   9.327   9.389  0.2155 -0.1139 -0.0522
   16MOL0     C 2089  12.591   9.450   9.438  0.5167  0.4838  0.5890
   16MOL0     C 2090  12.715   9.523   9.466  0.3825 -0.5910 -0.1871
   16MOL0     C 2091  12.803   9.558   9.338 -0.3568 -0.2824 -0.1155
   16MOL0     C 2092  12.927   9.636   9.385 -0.0191  0.0296  0.4636
   16MOL0     C 2093  13.032   9.547   9.443 -0.8188 -0.1675  0.4007
   16MOL0     O 2094  13.073   9.434   9.359  0.6205  0.2624 -0.3682
   16MOL0     C 2095  13.202   9.386   9.376 -0.5540  0.6423  0.1028
   16MOL0     C 2096  13.298   9.436   9.463  0.2428 -0.4299 -0.4919
   16MOL0     C 2097  13.428   9.384   9.464  0.9887  0.2416  0.4749
   16MOL0     C 2098  13.526   9.468   9.546  0.4491 -0.0125 -0.0038
   16MOL0     C 2099  13.468   9.282   9.374  0.3749 -0.2437  0.1844
   16MOL0     C 2100  13.596   9.204   9.368 -0.5209 -0.3446  0.0242
   16MOL0     O 2101  13.707   9.267   9.429  0.6828  0.2504  0.4962
   16MOL0     C 2102  13.822   9.201   9.421 -0.8954  0.5134 -0.1856
   16MOL0     C 2103  13.890   9.166   9.302 -0.1084 -0.7938 -0.6666
   16MOL0     C 2104  14.016   9.104   9.305  0.0159  0.2118 -0.2397
   16MOL0     C 2105  14.082   9.085   9.426  0.2460  0.3494  0.2851
   16MOL0     O 2106  14.205   9.026   9.443 -0.5074 -0.6481 -0.4001
   16MOL0     C 2107  14.262   8.943   9.341 -0.2699  0.6822  0.3127
   16MOL0     C 2108  14.394   8.897   9.400 -0.5710 -0.0896  0.0322
   16MOL0     C 2109  14.492   8.859   9.291  0.1585 -0.0915 -0.7546
   16MOL0     C 2110  14.617   8.779   9.333 -0.7925 -0.0787 -0.2284
   16MOL0     C 2111  14.709   8.829   9.447 -0.1936 -0.3271 -0.7402
   16MOL0     C 2112  14.759   8.973   9.437 -0.5102  0.1967  0.0976
   16MOL0     C 2113  14.886   8.984   9.522  0.0102 -0.1883 -0.2773
   16MOL0     C 2114  14.909   9.133   9.554  0.0461  1.4363  0.2951
   16MOL0    Cl 2115  15.040   9.136   9.668 -0.4257  0.2688 -0.4816
   16MOL0     C 2116  14.012   9.109   9.549 -0.2433  0.0229  0.0281
   16MOL0     C 2117  13.892   9.174   9.541  0.5939 -0.5571 -0.1924
   16MOL0     O 2118  13.594   9.092   9.316 -0.2031  0.0189 -0.1986
   16MOL0     C 2119  13.366   9.222   9.304 -0.4311 -0.4501  0.0982
   16MOL0     C 2120  13.240   9.273   9.301  0.9178  0.6490 -0.5648
   16MOL0     N 2121  12.463   9.499   9.466 -0.0240  0.7409 -0.4802
   16MOL0     N 2122  12.376   9.407   9.430  0.3204  0.8705  0.1563
   16MOL0     C 2123  11.411   9.673   8.907 -0.3424 -0.6578  0.7012
   16MOL0     C 2124  11.269   9.674   8.894 -0.4767  0.1412 -0.0599
   16MOL0     C 2125  10.834   9.553   8.838  0.3551  0.8543  0.5259
   16MOL0     C 2126  10.795   9.664   8.919 -0.4624  0.5590 -0.2255
   16MOL0     C 2127  10.657   9.687   8.942  0.2017  0.0535 -0.3865
   16MOL0     C 2128  10.553   9.609   8.893 -0.1726  0.5082  0.4794
   16MOL0     O 2129  10.422   9.614   8.927  0.0411  0.2104  0.1999
   16MOL0     C 2130  10.364   9.718   9.008  0.3312 -0.5187  0.6744
   16MOL0     C 2131  10.215   9.677   9.048  0.4418 -0.7177 -0.0749
   16MOL0     C 2132  10.121   9.616   8.936 -0.3408 -0.6363  0.7015
   16MOL0     C 2133  10.024   9.505   9.002 -0.4757 -0.0380 -0.1581
   16MOL0     C 2134   9.914   9.471   8.908 -0.3539  0.4347 -0.4604
   16MOL0     C 2135   9.826   9.449   8.826 -0.4238 -0.8392 -0.3199
   16MOL0     C 2136  10.587   9.504   8.806 -0.6899  0.9266  0.5538
   16MOL0     C 2137  10.722   9.480   8.772 -0.8482 -0.0009  0.3144
   16MOL0     C 2138  10.766   9.358   8.692  0.3461  0.5302  0.5953
   16MOL0     H 2139  11.204   9.345   8.951 -1.4173  0.7904 -0.2747
   16MOL0     H 2140  11.450   9.330   8.938 -0.8054 -0.1714  0.3388
   16MOL0     H 2141  11.707   9.366   8.873  0.8081  1.0352 -0.1156
   16MOL0     H 2142  11.641   9.394   9.040 -2.9979 -1.0016 -1.3361
   16MOL0     H 2143  11.884   9.508   8.905  0.2103 -0.6932 -0.1130
   16MOL0     H 2144  11.837   9.548   9.074 -0.9910  0.4085 -0.5981
   16MOL0     H 2145  11.894   9.339   9.164 -0.4839 -0.9416  0.2882
   16MOL0     H 2146  11.903   9.258   9.003  2.3368 -0.2640 -1.6087
   16MOL0     H 2147  12.096   9.359   8.934 -0.7784 -5.1295  0.1752
   16MOL0     H 2148  12.090   9.478   9.059  0.3184 -0.5876  1.7650
   16MOL0     H 2149  12.135   9.190   9.120  0.6162 -0.7692 -0.3093
   16MOL0     H 2150  12.140   9.327   9.235  1.2971 -0.9535  0.2793
   16MOL0     H 2151  12.324   9.314   8.993 -1.2744  1.5892  0.3809
   16MOL0     H 2152  12.350   9.401   9.147  0.7207 -0.4363  1.1515
   16MOL0     H 2153  12.501   9.215   9.146 -0.3155  0.8756  0.3764
   16MOL0     H 2154  12.374   9.103   9.106 -0.7776  3.0334 -1.8128
   16MOL0     H 2155  12.291   9.157   9.344  0.1394 -0.7662 -2.0291
   16MOL0     H 2156  12.449   9.098   9.342 -0.7798 -1.3802 -2.1715
   16MOL0     H 2157  12.667   9.262   9.369  0.2143 -0.2968  0.5093
   16MOL0     H 2158  12.773   9.480   9.548  1.1331 -1.5131 -1.1741
   16MOL0     H 2159  12.681   9.623   9.498 -0.8677 -1.0638  0.0397
   16MOL0     H 2160  12.827   9.459   9.296 -0.9615 -0.2906 -0.4703
   16MOL0     H 2161  12.746   9.604   9.256  0.1840  0.2396 -0.2077
   16MOL0     H 2162  12.970   9.676   9.293  1.1231 -2.1098 -0.0041
   16MOL0     H 2163  12.903   9.724   9.445 -0.4081 -1.0444  1.9392
   16MOL0     H 2164  13.116   9.611   9.471  0.4258 -2.5405  2.5575
   16MOL0     H 2165  12.998   9.508   9.540  5.0078 -0.0564  2.8896
   16MOL0     H 2166  13.274   9.525   9.519  0.3343 -1.5154  1.3450
   16MOL0     H 2167  13.470   9.522   9.623  1.0042 -1.2854  1.3343
   16MOL0     H 2168  13.592   9.539   9.494 -0.2082  3.3364  3.3211
   16MOL0     H 2169  13.592   9.407   9.608 -0.7691 -1.8723 -0.4345
   16MOL0     H 2170  13.837   9.194   9.211  0.3062 -0.9394 -0.9546
   16MOL0     H 2171  14.063   9.064   9.216 -1.4024 -1.4439 -0.2947
   16MOL0     H 2172  14.208   8.850   9.319  2.5665 -1.5071  1.8323
   16MOL0     H 2173  14.292   8.997   9.251  1.4863 -0.4092  0.1856
   16MOL0     H 2174  14.442   8.976   9.459 -0.9069  1.2660 -1.4380
   16MOL0     H 2175  14.381   8.808   9.462  0.4090  0.5668  1.2373
   16MOL0     H 2176  14.532   8.954   9.255 -1.1416  0.3339 -1.1183
   16MOL0     H 2177  14.440   8.804   9.212  0.3349 -0.8228 -0.3702
   16MOL0     H 2178  14.683   8.777   9.246 -0.0560 -0.5779  0.3354
   16MOL0     H 2179  14.592   8.674   9.346 -2.5006 -0.0876 -2.8630
   16MOL0     H 2180  14.664   8.814   9.546  2.1739 -0.2106  0.4361
   16MOL0     H 2181  14.800   8.770   9.436 -0.9193 -1.2874 -1.6890
   16MOL0     H 2182  14.674   9.034   9.471 -3.2770 -3.3081  0.0500
   16MOL0     H 2183  14.792   8.997   9.336 -1.7847  0.3933 -0.2908
   16MOL0     H 2184  14.977   8.949   9.472  0.8323 -3.3738  3.0163
   16MOL0     H 2185  14.880   8.932   9.618  2.5428 -0.4472 -0.1811
   16MOL0     H 2186  14.823   9.185   9.596 -1.7162 -1.3759  0.4395
   16MOL0     H 2187  14.937   9.179   9.459  2.0841 -0.5792 -0.1853
   16MOL0     H 2188  14.055   9.093   9.647 -2.0814  2.2672  1.2855
   16MOL0     H 2189  13.830   9.200   9.626  0.4753  0.8927 -0.6986
   16MOL0     H 2190  13.384   9.139   9.236  0.6304 -2.3130  2.5079
   16MOL0     H 2191  13.169   9.235   9.229  1.5095  2.5149 -2.2260
   16MOL0     H 2192  11.477   9.760   8.912  1.9648 -2.3719  4.0749
   16MOL0     H 2193  11.216   9.767   8.875 -1.8448 -0.6254 -0.1586
   16MOL0     H 2194  10.865   9.730   8.968 -1.2371  0.0226  1.7235
   16MOL0     H 2195  10.628   9.768   9.008 -1.8281 -0.7626 -0.1927
   16MOL0     H 2196  10.409   9.741   9.105  0.5704  0.7852  0.2725
   16MOL0     H 2197  10.373   9.803   8.940  1.2876 -1.3222 -0.2329
   16MOL0     H 2198  10.173   9.769   9.091  0.7768 -0.8415  0.5363
   16MOL0     H 2199  10.225   9.606   9.131 -0.8720 -1.2805 -0.3829
   16MOL0     H 2200  10.064   9.698   8.890  1.3565 -0.7311 -1.7808
   16MOL0     H 2201  10.172   9.575   8.848  1.6858  2.5601  0.2291
   16MOL0     H 2202   9.988   9.541   9.099  3.5520  0.1703  1.4513
   16MOL0     H 2203  10.079   9.411   9.009 -1.3005 -0.4342  3.0569
   16MOL0     H 2204   9.741   9.438   8.762 -0.5052 -0.6854 -0.2385
   16MOL0     H 2205  10.506   9.436   8.782 -0.3365  0.6371  0.1864
   16MOL0     H 2206  10.808   9.373   8.593  3.2911 -3.2128  1.0641
   16MOL0     H 2207  10.835   9.289   8.741  0.3133  0.4922  0.5875
   16MOL0     H 2208  10.677   9.296   8.678 -0.3573  1.1201  2.1929
   17MOL0     O 2209   9.233   4.873   9.567 -0.5838 -0.0502  0.7409
   17MOL0     C 2210   9.151   4.794   9.605 -0.5127 -0.4809  0.1455
   17MOL0     O 2211   9.170   4.656   9.608  0.0349 -0.7742 -0.0025
   17MOL0     C 2212   9.295   4.596   9.623 -0.4504  0.5055  0.7033
   17MOL0     C 2213   9.288   4.459   9.662  0.0013 -0.6690  0.0759
   17MOL0     C 2214   9.410   4.387   9.670  0.6001 -0.5202 -0.1177
   17MOL0     C 2215   9.534   4.437   9.634  0.1979 -0.2787  0.0918
   17MOL0     O 2216   9.651   4.362   9.635 -0.1767  0.2184 -0.3041
   17MOL0     C 2217   9.646   4.219   9.651 -0.2002 -1.5865 -0.8348
   17MOL0     C 2218   9.776   4.154   9.601 -0.2706  1.1660  0.1601
   17MOL0     C 2219   9.887   4.166   9.699  0.9976 -0.8834 -0.5929
   17MOL0     C 2220  10.006   4.085   9.656 -0.6324 -0.4876 -0.3023
   17MOL0     C 2221  10.119   4.094   9.756 -0.4376 -1.3375  0.3659
   17MOL0     C 2222  10.233   4.027   9.693 -0.6575 -0.5173  0.8521
   17MOL0     C 2223  10.347   4.013   9.793  0.2473  0.2032 -0.1357
   17MOL0     C 2224  10.415   4.147   9.812 -0.4687  0.4853 -0.0885
   17MOL0     N 2225  10.471   4.210   9.697  0.2904 -0.1189  0.1287
   17MOL0     C 2226  10.517   4.339   9.683 -1.8373 -0.0800  0.1342
   17MOL0     C 2227  10.590   4.342   9.569 -1.7498 -0.5201 -0.7267
   17MOL0     C 2228  10.677   4.455   9.527 -0.0729  0.2759 -0.6975
   17MOL0     C 2229  10.815   4.399   9.491  0.2008 -0.7900  0.4732
   17MOL0     C 2230  10.919   4.517   9.469  0.2761  0.9618 -0.3523
   17MOL0     C 2231  11.063   4.462   9.486 -0.5368 -0.7197  0.6350
   17MOL0     O 2232  11.141   4.571   9.448 -0.3095  0.1919  0.1171
   17MOL0     C 2233  11.268   4.543   9.442  0.5442 -0.0192  0.9741
   17MOL0     C 2234  11.352   4.558   9.561  0.1493  0.7195  0.8598
   17MOL0     C 2235  11.487   4.534   9.559  0.3065 -1.0329  0.5653
   17MOL0     C 2236  11.572   4.545   9.683 -0.0460  1.6127  0.8820
   17MOL0     C 2237  11.556   4.525   9.429 -0.4865 -0.5878 -0.5356
   17MOL0     C 2238  11.702   4.539   9.411 -0.2546  0.4308  0.2787
   17MOL0     O 2239  11.739   4.633   9.320  0.1427 -0.6092  0.0771
   17MOL0     C 2240  11.873   4.653   9.305 -0.6997 -0.3885 -0.6128
   17MOL0     C 2241  11.914   4.780   9.318  0.8480  0.2952 -0.7336
   17MOL0     C 2242  12.047   4.814   9.301 -0.7892  0.5776  0.3205
   17MOL0     C 2243  12.142   4.730   9.244 -0.6273 -1.0320 -0.4334
   17MOL0     O 2244  12.268   4.777   9.213 -0.0542  0.5172 -0.1855
   17MOL0     C 2245  12.365   4.679   9.178 -0.6364  0.9444 -0.3940
   17MOL0     C 2246  12.501   4.741   9.137 -0.3375 -0.3214  0.8095
   17MOL0     C 2247  12.586   4.776   9.263 -0.8272 -0.0515  0.1730
   17MOL0     C 2248  12.719   4.840   9.229  0.3845 -0.4616 -0.6205
   17MOL0     C 2249  12.795   4.864   9.354  0.4646  0.1157 -0.2188
   17MOL0     C 2250  12.937   4.895   9.315 -0.4905 -0.1920 -1.2324
   17MOL0     C 2251  13.032   4.883   9.425 -0.1465  0.1472 -0.6657
   17MOL0     C 2252  13.173   4.881   9.360 -0.2661  0.2843 -0.5764
   17MOL0    Cl 2253  13.219   5.008   9.248  0.2872 -0.1086 -0.6844
   17MOL0     C 2254  12.101   4.599   9.233  0.6416  0.1997  0.1256
   17MOL0     C 2255  11.969   4.564   9.257  0.0073  0.1203  0.5887
   17MOL0     O 2256  11.779   4.482   9.494  0.0571  0.8063  0.1486
   17MOL0     C 2257  11.474   4.500   9.311 -0.3470  0.0008 -0.6390
   17MOL0     C 2258  11.333   4.521   9.318  0.1591  0.4106  0.5566
   17MOL0     N 2259  10.597   4.210   9.524 -0.5199  0.8416 -0.7648
   17MOL0     N 2260  10.523   4.142   9.595  0.4456  0.3051  0.1624
   17MOL0     C 2261   9.538   4.573   9.600  0.5642 -0.2302 -0.1708
   17MOL0     C 2262   9.419   4.650   9.602 -0.4449  0.3163 -0.0838
   17MOL0     C 2263   9.011   4.842   9.626  0.5356  0.8885 -0.0096
   17MOL0     C 2264   8.910   4.766   9.564 -0.0501  0.3792 -0.5789
   17MOL0     C 2265   8.777   4.796   9.590 -0.7628  0.4183 -0.2533
   17MOL0     C 2266   8.738   4.905   9.672 -0.3897  0.8358  0.0163
   17MOL0     O 2267   8.606   4.944   9.694  0.1065  0.1914 -0.0328
   17MOL0     C 2268   8.497   4.864   9.634  0.5012  0.1312  0.5940
   17MOL0     C 2269   8.474   4.740   9.699 -0.3219  0.4889 -0.6544
   17MOL0     C 2270   8.399   4.761   9.836  0.2794 -0.3118  0.7236
   17MOL0     C 2271   8.338   4.633   9.911 -0.4419 -0.1464  0.7595
   17MOL0     C 2272   8.444   4.555   9.973 -0.7817 -0.6171 -0.1181
   17MOL0     C 2273   8.538   4.502  10.027  0.4012  0.7736  0.4611
   17MOL0     C 2274   8.836   4.993   9.721  1.2788 -0.4764  0.3816
   17MOL0     C 2275   8.974   4.955   9.697 -0.1567 -0.4420  0.0088
   17MOL0     C 2276   9.077   5.052   9.752 -0.1459 -0.1834  0.1891
   17MOL0     H 2277   9.193   4.412   9.686 -1.4161  1.2651 -1.4419
   17MOL0     H 2278   9.400   4.280   9.688  0.6518 -0.5887 -0.4679
   17MOL0     H 2279   9.567   4.179   9.587  1.5803 -5.5124 -0.9011
   17MOL0     H 2280   9.616   4.189   9.752  0.2246 -0.5862 -0.3969
   17MOL0     H 2281   9.751   4.050   9.580 -1.4255  1.4686 -0.0375
   17MOL0     H 2282   9.808   4.203   9.509 -2.2339  3.2241  0.4858
   17MOL0     H 2283   9.912   4.272   9.712 -1.0936 -0.4644  0.4914
   17MOL0     H 2284   9.848   4.154   9.801 -1.5812  0.5774 -1.3287
   17MOL0     H 2285   9.972   3.981   9.652  0.6597 -0.8854 -2.5776
   17MOL0     H 2286  10.055   4.101   9.560  3.1184 -1.6858  1.2349
   17MOL0     H 2287  10.099   4.056   9.856  0.4646 -2.7634  0.0335
   17MOL0     H 2288  10.155   4.197   9.754  2.3023 -2.2129  1.0272
   17MOL0     H 2289  10.220   3.930   9.645  0.1857 -0.0860 -0.3188
   17MOL0     H 2290  10.262   4.079   9.601  0.7473 -3.6466 -0.6309
   17MOL0     H 2291  10.418   3.936   9.764  1.1496  0.6331  0.8661
   17MOL0     H 2292  10.306   3.981   9.890  1.8200  3.1255  1.6375
   17MOL0     H 2293  10.349   4.220   9.860  1.7738  0.3010  3.6908
   17MOL0     H 2294  10.499   4.140   9.882 -1.9205  1.9737  1.9470
   17MOL0     H 2295  10.494   4.420   9.751 -3.2702 -0.0758 -0.3244
   17MOL0     H 2296  10.685   4.523   9.612 -2.0358  0.5563 -0.6856
   17MOL0     H 2297  10.638   4.515   9.444 -1.8476 -1.0436 -0.8746
   17MOL0     H 2298  10.849   4.337   9.574  0.3164 -1.3263  0.0301
   17MOL0     H 2299  10.795   4.343   9.399  0.0806  3.9222 -2.7578
   17MOL0     H 2300  10.898   4.558   9.369  1.2881  3.0358  0.2319
   17MOL0     H 2301  10.899   4.608   9.526 -2.0569  1.1071 -1.2664
   17MOL0     H 2302  11.083   4.427   9.588  0.1797  1.2068  1.2118
   17MOL0     H 2303  11.081   4.379   9.417  0.2744 -1.0309  1.1911
   17MOL0     H 2304  11.306   4.578   9.657 -1.9327 -0.4121  0.1545
   17MOL0     H 2305  11.653   4.618   9.673 -0.9939  2.4245 -1.8134
   17MOL0     H 2306  11.617   4.447   9.704  1.6049  2.0355 -0.4064
   17MOL0     H 2307  11.514   4.574   9.770  1.9788 -2.7418  4.0600
   17MOL0     H 2308  11.845   4.854   9.358  2.1405  1.2584 -0.2177
   17MOL0     H 2309  12.073   4.913   9.334  2.0754  0.0610 -0.1554
   17MOL0     H 2310  12.383   4.604   9.256 -1.7029  1.6108  0.5302
   17MOL0     H 2311  12.333   4.634   9.084 -1.1248  2.9348 -1.2424
   17MOL0     H 2312  12.564   4.668   9.084  3.6341  3.5106 -0.4015
   17MOL0     H 2313  12.482   4.831   9.078  0.1910  1.3503  3.0545
   17MOL0     H 2314  12.619   4.689   9.320  1.7519  1.2449  0.8064
   17MOL0     H 2315  12.534   4.839   9.335 -0.1945  2.4725 -1.4579
   17MOL0     H 2316  12.697   4.932   9.174 -1.3535 -1.8850 -2.4861
   17MOL0     H 2317  12.776   4.772   9.166  0.0621 -2.4290  1.1091
   17MOL0     H 2318  12.736   4.929   9.420 -0.1501 -1.0518  0.4235
   17MOL0     H 2319  12.798   4.772   9.414  0.3933  0.3163  0.0940
   17MOL0     H 2320  12.941   5.001   9.287  2.0629  0.9877  2.7636
   17MOL0     H 2321  12.972   4.829   9.236  2.6211  0.3871 -0.4771
   17MOL0     H 2322  13.037   4.794   9.488  0.5127  1.8068  1.7832
   17MOL0     H 2323  13.015   4.970   9.490 -1.3959  0.3524 -1.2385
   17MOL0     H 2324  13.178   4.790   9.301  0.1341 -0.6942  0.9130
   17MOL0     H 2325  13.257   4.876   9.430  0.7739 -0.4150 -1.8310
   17MOL0     H 2326  12.168   4.516   9.209  0.7505  0.3798 -0.1978
   17MOL0     H 2327  11.946   4.459   9.240 -2.9344  1.0143 -1.8616
   17MOL0     H 2328  11.511   4.474   9.213  2.6258  1.4354 -0.0267
   17MOL0     H 2329  11.269   4.513   9.231  1.1427  0.3490 -0.1872
   17MOL0     H 2330   9.623   4.632   9.568  1.5614 -1.0071  0.9521
   17MOL0     H 2331   9.428   4.753   9.566 -1.0013  0.5480  0.4296
   17MOL0     H 2332   8.920   4.679   9.500 -2.2029  0.7029 -1.4166
   17MOL0     H 2333   8.702   4.726   9.553  0.2959 -0.1177 -1.4571
   17MOL0     H 2334   8.403   4.921   9.637  1.2311  1.3544  1.2780
   17MOL0     H 2335   8.517   4.849   9.528  0.6671  0.1447  0.6229
   17MOL0     H 2336   8.570   4.690   9.711  0.6298  1.8721 -2.1288
   17MOL0     H 2337   8.406   4.686   9.632 -2.5413  4.0424 -1.5602
   17MOL0     H 2338   8.463   4.827   9.896 -0.9867  2.2451 -0.5646
   17MOL0     H 2339   8.310   4.823   9.822  0.3871  0.0986  1.7747
   17MOL0     H 2340   8.285   4.566   9.844  3.2307 -1.5569 -1.0571
   17MOL0     H 2341   8.276   4.674   9.991 -2.2733 -0.7141 -0.3204
   17MOL0     H 2342   8.620   4.445  10.067  0.2724  0.6014  0.4808
   17MOL0     H 2343   8.803   5.086   9.765  0.9922  0.0988 -1.0003
   17MOL0     H 2344   9.128   5.120   9.683 -0.4014  2.6851  2.6004
   17MOL0     H 2345   9.011   5.116   9.812 -1.0378 -1.7662  0.9543
   17MOL0     H 2346   9.153   5.006   9.816 -0.9952  0.5787  1.8178
   18MOL0     O 2347   2.389   2.624   9.445 -0.2994  0.3109 -0.5203
   18MOL0     C 2348   2.386   2.685   9.555 -0.2624  0.3525  0.0830
   18MOL0     O 2349   2.463   2.800   9.581 -0.2695  0.3087  0.7764
   18MOL0     C 2350   2.554   2.838   9.483  0.2428  0.3137 -0.2341
   18MOL0     C 2351   2.692   2.827   9.505 -0.0058  0.0841 -0.0760
   18MOL0     C 2352   2.782   2.868   9.410 -0.0315  0.5083  1.0911
   18MOL0     C 2353   2.737   2.922   9.289  0.0734 -0.7771  0.3633
   18MOL0     O 2354   2.816   2.985   9.198 -0.4847  0.1000 -0.5366
   18MOL0     C 2355   2.960   2.978   9.199  0.6144  1.1217 -0.3608
   18MOL0     C 2356   3.020   3.037   9.077  1.2349  0.4776 -0.0803
   18MOL0     C 2357   3.176   3.034   9.082 -0.1681  0.4331  0.3645
   18MOL0     C 2358   3.245   3.102   8.962  0.0633  0.0872 -1.2101
   18MOL0     C 2359   3.393   3.070   8.981 -0.7159  0.8379 -0.7814
   18MOL0     C 2360   3.474   3.115   8.863  0.2710  0.1424 -0.2286
   18MOL0     C 2361   3.620   3.102   8.895 -0.9960  0.2722 -0.3495
   18MOL0     C 2362   3.713   3.111   8.769 -0.5115  0.4093  0.1008
   18MOL0     N 2363   3.856   3.074   8.807 -0.8405  0.6599  0.1588
   18MOL0     C 2364   3.932   3.149   8.890  0.1172  0.3804  0.0913
   18MOL0     C 2365   4.054   3.078   8.892  0.4409 -0.1185 -0.2529
   18MOL0     C 2366   4.180   3.132   8.951  0.4538 -0.3289 -0.4813
   18MOL0     C 2367   4.291   3.117   8.844  0.2181  0.5468 -0.3387
   18MOL0     C 2368   4.264   3.180   8.705  0.2620  0.6233 -0.6235
   18MOL0     C 2369   4.377   3.143   8.608  0.0776 -0.3048 -0.1575
   18MOL0     O 2370   4.508   3.171   8.657 -0.2135 -0.2930  0.5217
   18MOL0     C 2371   4.587   3.259   8.588 -0.2149  0.2607 -0.1421
   18MOL0     C 2372   4.722   3.232   8.582  0.4816 -0.4706  0.0470
   18MOL0     C 2373   4.811   3.301   8.504  0.8906  0.1329 -0.1610
   18MOL0     C 2374   4.954   3.239   8.497  0.2422 -0.4938 -0.1570
   18MOL0     C 2375   4.765   3.416   8.436  0.8086 -0.3163  0.7922
   18MOL0     C 2376   4.859   3.502   8.352  0.4413 -1.1936 -0.6766
   18MOL0     O 2377   4.984   3.467   8.355 -0.1058  0.2256 -0.5383
   18MOL0     C 2378   5.081   3.544   8.298  0.6144 -0.0784  0.5367
   18MOL0     C 2379   5.170   3.491   8.209  0.7650  0.0856  0.4148
   18MOL0     C 2380   5.281   3.565   8.176  0.2021  0.7611 -0.1846
   18MOL0     C 2381   5.305   3.694   8.228 -0.7814  0.5569  0.5909
   18MOL0     O 2382   5.429   3.745   8.196 -0.0571 -0.0231  0.0205
   18MOL0     C 2383   5.496   3.853   8.259  0.1346  0.6863  0.6050
   18MOL0     C 2384   5.644   3.819   8.298 -0.3099 -0.7465  0.5606
   18MOL0     C 2385   5.719   3.760   8.182 -0.3981  0.0756  0.0618
   18MOL0     C 2386   5.846   3.687   8.238 -0.3508 -0.9834  0.5080
   18MOL0     C 2387   5.943   3.791   8.314  0.0590  0.0712 -0.3870
   18MOL0     C 2388   6.090   3.776   8.285 -0.5248  0.8741  0.0991
   18MOL0     C 2389   6.185   3.835   8.392  0.3348 -0.1303  0.5708
   18MOL0     C 2390   6.209   3.988   8.399  0.3850 -0.7875  0.0193
   18MOL0    Cl 2391   6.279   4.027   8.555 -0.2111  0.0804 -0.4714
   18MOL0     C 2392   5.209   3.755   8.307 -0.6165  0.4803 -0.0465
   18MOL0     C 2393   5.099   3.681   8.350  0.6294  0.8869  0.0203
   18MOL0     O 2394   4.815   3.605   8.294 -0.5578  0.1838 -0.1706
   18MOL0     C 2395   4.624   3.460   8.451  0.4620  1.0712 -1.1326
   18MOL0     C 2396   4.540   3.370   8.520 -0.5015  1.3457  0.4871
   18MOL0     N 2397   4.032   2.952   8.827 -0.0111 -0.3767  0.0293
   18MOL0     N 2398   3.920   2.952   8.774  0.0074 -0.1620  0.5668
   18MOL0     C 2399   2.601   2.935   9.262 -0.1112  0.0520  0.2941
   18MOL0     C 2400   2.511   2.888   9.354  0.0350  0.1177 -1.3092
   18MOL0     C 2401   2.288   2.628   9.651 -0.3096 -0.6540 -0.0648
   18MOL0     C 2402   2.245   2.500   9.636 -1.1562  0.4922  0.2912
   18MOL0     C 2403   2.161   2.438   9.736  0.6538 -0.6843  0.4684
   18MOL0     C 2404   2.120   2.506   9.847  0.8516 -0.6575 -0.4567
   18MOL0     O 2405   2.039   2.465   9.945  0.0072  0.4658 -0.3458
   18MOL0     C 2406   2.027   2.324   9.962  1.1643 -0.3319 -0.5036
   18MOL0     C 2407   1.898   2.289   9.879 -0.0544 -0.9430 -0.1725
   18MOL0     C 2408   1.776   2.353   9.951  0.9320  0.3191  0.0500
   18MOL0     C 2409   1.633   2.323   9.888  1.0910 -0.2910  0.0138
   18MOL0     C 2410   1.529   2.406   9.951  0.2453  0.0233 -0.1284
   18MOL0     C 2411   1.443   2.480   9.990  0.8972 -0.8789  0.4352
   18MOL0     C 2412   2.152   2.638   9.855 -0.8574 -0.8757 -0.4745
   18MOL0     C 2413   2.243   2.704   9.767 -0.4168 -0.0522  0.3862
   18MOL0     C 2414   2.289   2.836   9.812 -0.1893 -1.1638  0.1858
   18MOL0     H 2415   2.721   2.777   9.597  0.9035  0.2264 -0.2825
   18MOL0     H 2416   2.890   2.858   9.416 -0.0478 -1.0689 -0.4457
   18MOL0     H 2417   2.990   2.873   9.197  0.1882  0.9215  1.8171
   18MOL0     H 2418   2.995   3.025   9.291  0.6162  0.1592  0.1393
   18MOL0     H 2419   2.988   2.994   8.982 -1.7568 -0.5421  1.2641
   18MOL0     H 2420   2.992   3.142   9.082  3.8762  1.2685 -0.2540
   18MOL0     H 2421   3.206   3.086   9.174  2.1638  2.0515 -1.1984
   18MOL0     H 2422   3.211   2.931   9.079  0.3575  0.5800 -3.8370
   18MOL0     H 2423   3.204   3.068   8.866  1.2383 -0.1202 -1.6510
   18MOL0     H 2424   3.217   3.208   8.962 -1.8389 -0.3353  1.0587
   18MOL0     H 2425   3.402   2.962   8.991 -2.6725  0.7329  0.4152
   18MOL0     H 2426   3.426   3.115   9.075 -0.5866  1.8649 -1.3039
   18MOL0     H 2427   3.450   3.059   8.771 -0.9618  1.9159 -1.0472
   18MOL0     H 2428   3.433   3.214   8.840 -2.7776 -1.1659 -1.0212
   18MOL0     H 2429   3.641   3.006   8.942  2.8607  2.2365  2.6058
   18MOL0     H 2430   3.645   3.181   8.967 -0.0748 -0.6031  0.3174
   18MOL0     H 2431   3.670   3.036   8.702  1.3265 -2.3327  1.7976
   18MOL0     H 2432   3.710   3.215   8.736 -1.5983 -0.2110 -1.8934
   18MOL0     H 2433   3.925   3.254   8.918  2.2229  0.9891 -1.3416
   18MOL0     H 2434   4.206   3.083   9.045 -0.9839  3.6707  2.2510
   18MOL0     H 2435   4.174   3.239   8.971  3.6572 -0.3335  1.0213
   18MOL0     H 2436   4.378   3.161   8.893  1.2799 -2.4082  0.5806
   18MOL0     H 2437   4.301   3.010   8.825  2.1886  0.7755 -0.7875
   18MOL0     H 2438   4.171   3.142   8.662  1.2264 -2.0914 -0.5071
   18MOL0     H 2439   4.260   3.289   8.709 -1.8539  0.7121 -2.9636
   18MOL0     H 2440   4.383   3.036   8.588 -0.2964 -0.6523  1.4150
   18MOL0     H 2441   4.349   3.197   8.517 -0.8889  0.6557  0.6699
   18MOL0     H 2442   4.746   3.158   8.657  0.8083  1.8257  2.3394
   18MOL0     H 2443   5.026   3.295   8.557  2.0490 -2.9911  0.1603
   18MOL0     H 2444   4.979   3.231   8.390 -1.6483  1.2827 -0.8108
   18MOL0     H 2445   4.963   3.135   8.529 -1.4335 -0.8716 -0.7968
   18MOL0     H 2446   5.155   3.386   8.183  0.4716 -0.4290  2.4539
   18MOL0     H 2447   5.360   3.527   8.112  0.4497  2.6636 -1.0838
   18MOL0     H 2448   5.496   3.934   8.186 -1.3918 -0.3559 -0.6075
   18MOL0     H 2449   5.450   3.876   8.356  0.3795 -1.3678  1.2501
   18MOL0     H 2450   5.700   3.905   8.337 -1.4611 -0.2679  1.2113
   18MOL0     H 2451   5.632   3.747   8.380 -2.8474  0.1177  1.0360
   18MOL0     H 2452   5.755   3.829   8.104  4.1278 -3.2386 -1.1898
   18MOL0     H 2453   5.659   3.685   8.130 -0.2604  0.7870 -1.1785
   18MOL0     H 2454   5.899   3.645   8.152  1.0143 -0.7764  1.2248
   18MOL0     H 2455   5.830   3.592   8.290 -2.7161 -2.2787 -2.2870
   18MOL0     H 2456   5.923   3.895   8.286  1.3505  0.0543 -1.4316
   18MOL0     H 2457   5.924   3.776   8.421 -0.0878  4.8369  0.4706
   18MOL0     H 2458   6.119   3.812   8.186  4.6533 -1.8274  0.3046
   18MOL0     H 2459   6.122   3.672   8.286  1.9115  1.5189 -1.7243
   18MOL0     H 2460   6.279   3.779   8.386 -0.2290 -0.9683 -1.4146
   18MOL0     H 2461   6.142   3.799   8.486 -1.3221 -3.1762 -1.1821
   18MOL0     H 2462   6.116   4.044   8.388  0.3598 -0.8015  0.1588
   18MOL0     H 2463   6.271   4.022   8.317  2.1817  2.9150  2.6276
   18MOL0     H 2464   5.227   3.848   8.361  1.8973 -1.4351  2.6712
   18MOL0     H 2465   5.042   3.725   8.431 -0.2940 -1.1076  0.5048
   18MOL0     H 2466   4.593   3.547   8.394  2.3683  1.5478 -1.5043
   18MOL0     H 2467   4.435   3.395   8.533 -1.4851 -1.7520 -0.6868
   18MOL0     H 2468   2.557   2.980   9.175 -1.9079 -1.9837  0.0640
   18MOL0     H 2469   2.406   2.904   9.336 -0.9461 -3.2695  0.5768
   18MOL0     H 2470   2.280   2.443   9.550 -2.1630 -1.0881  0.8655
   18MOL0     H 2471   2.112   2.342   9.719 -1.8924  0.4211  1.0731
   18MOL0     H 2472   2.115   2.274   9.920  0.0539 -3.9905  1.1127
   18MOL0     H 2473   2.015   2.287  10.064 -0.9135 -1.0466 -0.9608
   18MOL0     H 2474   1.908   2.180   9.879  1.7561 -0.8827 -2.8029
   18MOL0     H 2475   1.906   2.322   9.775 -2.4611  1.2289  0.2558
   18MOL0     H 2476   1.772   2.336  10.059  1.1196 -1.9852 -0.2528
   18MOL0     H 2477   1.785   2.462   9.959 -1.2105  0.3848  3.8327
   18MOL0     H 2478   1.607   2.219   9.908  0.5036 -0.1630 -0.0839
   18MOL0     H 2479   1.637   2.337   9.780 -2.5561  2.3983  0.0551
   18MOL0     H 2480   1.355   2.533  10.022  0.7060 -0.9595  0.0544
   18MOL0     H 2481   2.094   2.694   9.929 -0.1974 -1.0283  0.1757
   18MOL0     H 2482   2.247   2.875   9.905 -0.2932  0.5397 -0.5393
   18MOL0     H 2483   2.395   2.838   9.836 -0.4383  2.0626  1.5720
   18MOL0     H 2484   2.274   2.910   9.733 -0.7488 -3.4271 -1.9766
   19MOL0     O 2485   8.986   2.370   7.208 -0.1553 -0.0795 -0.6245
   19MOL0     C 2486   8.940   2.335   7.097  0.5538 -0.5653 -0.2682
   19MOL0     O 2487   8.956   2.218   7.033  0.6102  0.0679  0.6193
   19MOL0     C 2488   9.032   2.116   7.093 -0.7534  0.5027  0.5252
   19MOL0     C 2489   9.157   2.090   7.039  1.2257 -0.3932 -0.2648
   19MOL0     C 2490   9.236   1.988   7.079 -0.2011  1.2119 -0.7112
   19MOL0     C 2491   9.197   1.912   7.193 -0.0970 -0.3778 -0.7686
   19MOL0     O 2492   9.292   1.816   7.233 -0.4351 -0.0343  0.1321
   19MOL0     C 2493   9.295   1.795   7.374  0.2233  0.1237  0.5343
   19MOL0     C 2494   9.419   1.710   7.402 -0.0878  0.8847 -0.2584
   19MOL0     C 2495   9.441   1.668   7.541 -0.4894  0.1968  0.0050
   19MOL0     C 2496   9.522   1.535   7.541  0.7056  0.7491 -0.2630
   19MOL0     C 2497   9.586   1.496   7.675 -0.0001 -0.6321 -0.1710
   19MOL0     C 2498   9.700   1.582   7.727  0.4119 -1.0816  0.2042
   19MOL0     C 2499   9.799   1.636   7.617 -0.0962  0.0786  0.2563
   19MOL0     C 2500   9.876   1.526   7.526  0.1981  0.3865 -1.0541
   19MOL0     N 2501   9.911   1.586   7.394  0.3746 -0.8143 -0.6687
   19MOL0     C 2502   9.814   1.627   7.298 -1.4778  0.2204 -0.8966
   19MOL0     C 2503   9.879   1.713   7.223  0.1527  0.4697  0.6038
   19MOL0     C 2504   9.810   1.817   7.131 -0.6499 -0.1934 -0.1685
   19MOL0     C 2505   9.868   1.812   6.998 -0.2595 -1.3989 -0.8543
   19MOL0     C 2506   9.839   1.941   6.920  0.3218  0.2743  0.4054
   19MOL0     C 2507   9.896   1.930   6.780 -0.4755  0.0358  0.3558
   19MOL0     O 2508   9.891   2.062   6.726 -0.4352  0.0837 -0.4522
   19MOL0     C 2509  10.000   2.122   6.666  0.3046 -0.0612  1.1470
   19MOL0     C 2510   9.970   2.232   6.591 -0.0514  0.1888 -0.5069
   19MOL0     C 2511  10.054   2.282   6.493  0.3562 -0.6390  0.7597
   19MOL0     C 2512  10.013   2.412   6.421  0.0151  0.2002 -0.5498
   19MOL0     C 2513  10.184   2.227   6.475  0.5439  0.3563  0.7209
   19MOL0     C 2514  10.301   2.283   6.387  0.7857 -0.2042 -0.4923
   19MOL0     O 2515  10.365   2.197   6.307 -0.2036 -0.3722 -0.4808
   19MOL0     C 2516  10.289   2.103   6.242 -0.2197  0.7213  0.1635
   19MOL0     C 2517  10.177   2.137   6.163  0.6286 -1.1084  0.4056
   19MOL0     C 2518  10.133   2.038   6.070 -0.4152 -0.0857  0.0313
   19MOL0     C 2519  10.180   1.909   6.071  0.6368 -0.0699 -0.5158
   19MOL0     O 2520  10.111   1.840   5.974 -0.5538 -0.2465 -0.5169
   19MOL0     C 2521  10.134   1.703   5.952  0.1716  0.5016  1.1888
   19MOL0     C 2522  10.235   1.659   5.846 -0.4845  0.0043 -0.2466
   19MOL0     C 2523  10.193   1.694   5.703 -0.0430 -0.2920  0.1335
   19MOL0     C 2524  10.272   1.613   5.595  0.4749  0.3708 -0.4491
   19MOL0     C 2525  10.226   1.637   5.445 -1.2221 -0.1698 -0.7562
   19MOL0     C 2526  10.107   1.551   5.418  0.0718 -0.0678 -0.0495
   19MOL0     C 2527  10.060   1.564   5.276  0.1436  0.3229 -0.3232
   19MOL0     C 2528   9.960   1.449   5.245  0.8190  0.5068  0.1914
   19MOL0    Cl 2529   9.795   1.493   5.308 -0.3345  0.0919 -0.0217
   19MOL0     C 2530  10.288   1.867   6.156  0.5090 -0.4327 -0.1944
   19MOL0     C 2531  10.339   1.966   6.241  0.3592 -0.0844 -0.4932
   19MOL0     O 2532  10.324   2.399   6.400 -0.3213 -0.5433 -0.2714
   19MOL0     C 2533  10.210   2.111   6.547  0.5833  0.1101 -0.8004
   19MOL0     C 2534  10.122   2.056   6.637  0.4988  1.2111  0.3077
   19MOL0     N 2535  10.015   1.722   7.258  0.0433  0.4773 -0.0413
   19MOL0     N 2536  10.027   1.655   7.369 -0.0621 -1.1878  0.2894
   19MOL0     C 2537   9.065   1.928   7.252  0.4725 -0.6304 -0.1356
   19MOL0     C 2538   8.987   2.036   7.199 -0.4877  0.3947  0.3810
   19MOL0     C 2539   8.866   2.434   7.022 -0.6721 -0.5615  0.6583
   19MOL0     C 2540   8.833   2.408   6.889  0.6390 -0.6085  0.0536
   19MOL0     C 2541   8.738   2.481   6.817  0.1373  0.4198 -0.3144
   19MOL0     C 2542   8.702   2.612   6.861 -0.3234  0.1524  0.2151
   19MOL0     O 2543   8.623   2.700   6.791 -0.0344  0.7418  0.0731
   19MOL0     C 2544   8.527   2.662   6.688 -0.8385  0.5066 -0.3954
   19MOL0     C 2545   8.437   2.776   6.663 -0.5913  0.4094  0.4961
   19MOL0     C 2546   8.342   2.737   6.542  0.2350  0.1255  0.4822
   19MOL0     C 2547   8.227   2.841   6.516  0.1563 -0.1689  0.6054
   19MOL0     C 2548   8.138   2.837   6.631  0.0724  0.0968 -0.2232
   19MOL0     C 2549   8.053   2.836   6.723 -0.1382 -0.3417  0.3360
   19MOL0     C 2550   8.749   2.645   6.993  0.0807 -0.3109 -0.2815
   19MOL0     C 2551   8.822   2.554   7.069  0.3267  0.4554 -0.1455
   19MOL0     C 2552   8.819   2.582   7.216  0.0039  0.5792  0.1335
   19MOL0     H 2553   9.177   2.136   6.943 -0.8521  1.1099 -0.0498
   19MOL0     H 2554   9.323   1.957   7.022  1.0474  0.8107  1.2996
   19MOL0     H 2555   9.206   1.733   7.391 -0.0078  0.1102 -0.6731
   19MOL0     H 2556   9.297   1.883   7.438  1.5740 -0.8636  1.9232
   19MOL0     H 2557   9.398   1.626   7.334 -0.0034  2.7203 -2.7078
   19MOL0     H 2558   9.504   1.764   7.360 -0.0926 -0.0831 -1.6200
   19MOL0     H 2559   9.503   1.742   7.593 -2.1728 -1.2169  4.5149
   19MOL0     H 2560   9.361   1.667   7.616  0.1445  1.0849  0.7274
   19MOL0     H 2561   9.466   1.445   7.512  0.1825  0.7396  0.7073
   19MOL0     H 2562   9.603   1.533   7.468  0.0983 -0.7393 -0.9453
   19MOL0     H 2563   9.625   1.395   7.657  3.4336  0.4266  0.5217
   19MOL0     H 2564   9.510   1.494   7.754  2.4768  2.6437  2.6554
   19MOL0     H 2565   9.648   1.669   7.768 -0.5961 -1.5807  0.0024
   19MOL0     H 2566   9.758   1.546   7.813  0.8695  3.2597  1.9742
   19MOL0     H 2567   9.883   1.692   7.659  0.1845  1.2089 -1.6882
   19MOL0     H 2568   9.754   1.712   7.553  0.2608 -0.1334 -0.2588
   19MOL0     H 2569   9.966   1.488   7.575  0.7917 -0.4784 -2.7201
   19MOL0     H 2570   9.810   1.440   7.514  2.4297 -1.7629  1.1042
   19MOL0     H 2571   9.708   1.604   7.309 -0.7034 -3.0192  1.5036
   19MOL0     H 2572   9.829   1.915   7.178  3.3429 -1.5560  1.5154
   19MOL0     H 2573   9.702   1.802   7.136 -0.6459  0.0513  1.3722
   19MOL0     H 2574   9.976   1.801   6.995  0.1250  1.5589 -2.2370
   19MOL0     H 2575   9.824   1.723   6.952 -2.1480 -1.3262  0.6559
   19MOL0     H 2576   9.732   1.940   6.900  0.4631 -1.1297 -0.3930
   19MOL0     H 2577   9.871   2.033   6.970  2.1905 -0.4817  0.7054
   19MOL0     H 2578   9.995   1.882   6.784 -1.4384 -2.3981 -1.8471
   19MOL0     H 2579   9.842   1.871   6.705  1.8437 -2.7242  0.6547
   19MOL0     H 2580   9.873   2.273   6.617 -0.1584 -0.3489 -0.0282
   19MOL0     H 2581  10.066   2.506   6.441  0.5123 -0.4516  1.3238
   19MOL0     H 2582   9.905   2.419   6.438 -0.3603  1.3271 -2.8972
   19MOL0     H 2583  10.031   2.390   6.315  2.9801  2.3114 -0.6032
   19MOL0     H 2584  10.128   2.234   6.165 -0.2291 -1.5302  0.7005
   19MOL0     H 2585  10.055   2.069   6.001 -0.5900  1.8985  1.0333
   19MOL0     H 2586  10.139   1.655   6.050 -0.2381  0.9053  1.4114
   19MOL0     H 2587  10.044   1.665   5.902  0.5266  0.7951  0.3029
   19MOL0     H 2588  10.336   1.695   5.867 -0.2636  0.0686 -1.3868
   19MOL0     H 2589  10.243   1.552   5.864  0.4518  0.4940  3.0678
   19MOL0     H 2590  10.211   1.801   5.685 -4.2406  0.3969 -1.0572
   19MOL0     H 2591  10.085   1.680   5.693 -0.3716 -1.4062  3.8697
   19MOL0     H 2592  10.277   1.507   5.624  0.2538  0.1846 -1.0847
   19MOL0     H 2593  10.376   1.646   5.598  0.4389  0.3988  0.8846
   19MOL0     H 2594  10.206   1.744   5.435  1.8729  0.5296 -0.3875
   19MOL0     H 2595  10.309   1.608   5.380 -0.1066 -4.7782  2.2127
   19MOL0     H 2596  10.029   1.587   5.485 -0.6607  0.8542 -1.3570
   19MOL0     H 2597  10.120   1.444   5.431  0.0341 -0.4676 -2.7207
   19MOL0     H 2598  10.145   1.548   5.208  0.3278  1.4233 -0.3566
   19MOL0     H 2599  10.013   1.661   5.260  1.1742  1.3043  2.0732
   19MOL0     H 2600  10.002   1.357   5.287  0.8325  0.1816 -0.5234
   19MOL0     H 2601   9.955   1.441   5.136  1.1506  2.9056 -0.0509
   19MOL0     H 2602  10.310   1.762   6.170 -0.8589 -0.6365  0.6999
   19MOL0     H 2603  10.411   1.938   6.317 -1.3607 -0.5650  1.0361
   19MOL0     H 2604  10.297   2.046   6.538 -0.0646 -1.1816  1.4858
   19MOL0     H 2605  10.143   1.961   6.686 -3.0454  0.2210  0.2509
   19MOL0     H 2606   9.037   1.865   7.336  2.6437 -0.0140  1.1262
   19MOL0     H 2607   8.884   2.043   7.233  0.1302  1.9935  2.0836
   19MOL0     H 2608   8.879   2.323   6.841  0.5158  0.4542 -2.0544
   19MOL0     H 2609   8.723   2.462   6.711 -0.4735 -3.7456  0.3693
   19MOL0     H 2610   8.573   2.641   6.591  1.2694  0.6827  0.4991
   19MOL0     H 2611   8.464   2.580   6.723 -0.2412  0.2784  0.1894
   19MOL0     H 2612   8.499   2.858   6.626 -1.7797  1.2890  0.4131
   19MOL0     H 2613   8.394   2.798   6.761 -1.0717 -0.7509  0.5583
   19MOL0     H 2614   8.393   2.723   6.447 -3.6973 -0.5997 -1.7496
   19MOL0     H 2615   8.293   2.642   6.568 -0.2082  0.3726  0.5740
   19MOL0     H 2616   8.176   2.813   6.423 -0.1911  0.7687  0.5050
   19MOL0     H 2617   8.266   2.941   6.501 -0.4852 -0.1398 -1.1325
   19MOL0     H 2618   7.969   2.839   6.790 -1.9797  2.1690 -1.8608
   19MOL0     H 2619   8.717   2.743   7.025  2.3012  0.5461 -0.4733
   19MOL0     H 2620   8.750   2.665   7.231 -1.9641 -0.5153 -2.0592
   19MOL0     H 2621   8.784   2.496   7.274 -0.6326  0.9773  0.3470
   19MOL0     H 2622   8.920   2.619   7.234  0.1733  0.3815 -0.3821
   20MOL0     O 2623   7.188   5.742   3.532 -0.0121  0.0793 -0.3361
   20MOL0     C 2624   7.087   5.673   3.563  0.1398 -0.5104 -0.9142
   20MOL0     O 2625   7.099   5.551   3.621  0.4598  0.3778  0.1067
   20MOL0     C 2626   7.215   5.482   3.632  0.1508 -0.0318  0.6387
   20MOL0     C 2627   7.351   5.526   3.613  0.2362  0.1816  0.0449
   20MOL0     C 2628   7.457   5.437   3.645 -0.4955 -0.9296  0.7952
   20MOL0     C 2629   7.425   5.311   3.696  0.3854 -0.3998 -0.8141
   20MOL0     O 2630   7.512   5.216   3.729 -0.4842 -0.4106 -0.1501
   20MOL0     C 2631   7.645   5.257   3.757  0.7852 -0.4820 -0.6467
   20MOL0     C 2632   7.740   5.135   3.783 -0.3895  0.2418  0.0858
   20MOL0     C 2633   7.777   5.084   3.648 -0.6131  0.4405 -0.4469
   20MOL0     C 2634   7.882   5.160   3.576  0.0897 -0.4804  0.5184
   20MOL0     C 2635   7.974   5.084   3.477  0.1645 -0.5609  0.6628
   20MOL0     C 2636   8.074   4.993   3.548 -0.5539 -0.1326  0.0698
   20MOL0     C 2637   8.160   4.912   3.452 -0.0702 -0.0200  0.1056
   20MOL0     C 2638   8.296   4.988   3.428 -0.2539  0.6231  0.0290
   20MOL0     N 2639   8.388   4.942   3.525 -0.4484  0.2906  0.4091
   20MOL0     C 2640   8.393   4.982   3.657 -0.0007  0.0580 -0.2281
   20MOL0     C 2641   8.481   4.897   3.720 -0.2065 -0.4733  0.5771
   20MOL0     C 2642   8.518   4.915   3.866 -0.5245 -0.1654 -0.1826
   20MOL0     C 2643   8.584   5.049   3.885 -0.3971  0.6654 -0.8575
   20MOL0     C 2644   8.728   5.066   3.821  1.4160 -0.6388 -0.8022
   20MOL0     C 2645   8.832   4.961   3.832 -0.0966  0.4146  0.4869
   20MOL0     O 2646   8.949   5.024   3.785 -0.5884 -0.2167 -0.5965
   20MOL0     C 2647   9.055   4.943   3.749 -0.6787  1.1671  0.0915
   20MOL0     C 2648   9.073   4.810   3.804  0.1063  0.5411 -0.4215
   20MOL0     C 2649   9.176   4.730   3.777 -0.4522 -0.2464  0.3646
   20MOL0     C 2650   9.166   4.579   3.821 -0.8373 -0.2808  0.1677
   20MOL0     C 2651   9.286   4.777   3.698  0.0607  1.0340  1.2137
   20MOL0     C 2652   9.404   4.689   3.656 -0.7422  0.4805  0.3451
   20MOL0     O 2653   9.471   4.740   3.546 -0.5987 -0.0498 -0.1022
   20MOL0     C 2654   9.542   4.658   3.461 -0.1187 -0.0539 -0.5029
   20MOL0     C 2655   9.503   4.538   3.402 -0.0680  0.7315  0.0297
   20MOL0     C 2656   9.584   4.449   3.328  0.3519 -0.4050  0.2020
   20MOL0     C 2657   9.717   4.491   3.307 -0.2417 -0.4509  0.6256
   20MOL0     O 2658   9.803   4.421   3.226  0.4083 -0.6951 -0.2485
   20MOL0     C 2659   9.775   4.285   3.198 -0.3419  0.2352  0.2819
   20MOL0     C 2660   9.898   4.216   3.121 -0.0313 -0.6649 -1.1332
   20MOL0     C 2661   9.890   4.227   2.964 -0.2317  0.0443  0.3589
   20MOL0     C 2662  10.037   4.195   2.907  0.0666 -0.2150 -0.3267
   20MOL0     C 2663  10.057   4.230   2.760 -0.2055 -0.1562 -0.0439
   20MOL0     C 2664   9.959   4.155   2.660  0.6866  0.2522 -0.3347
   20MOL0     C 2665  10.016   4.160   2.514  0.7624  0.5546 -0.2588
   20MOL0     C 2666   9.935   4.085   2.421 -0.4121  0.2138  0.9149
   20MOL0    Cl 2667   9.961   4.113   2.255  0.0374  0.0525  0.0977
   20MOL0     C 2668   9.752   4.622   3.342 -0.6416 -0.2389 -0.1867
   20MOL0     C 2669   9.670   4.702   3.424  0.1715 -0.1502  0.0938
   20MOL0     O 2670   9.446   4.612   3.749 -0.3820  0.6338  1.0576
   20MOL0     C 2671   9.272   4.909   3.643  0.3428 -0.6026  0.4719
   20MOL0     C 2672   9.154   4.992   3.662 -0.0275 -0.1335 -0.8247
   20MOL0     N 2673   8.530   4.806   3.629 -0.2100 -0.0649  0.4469
   20MOL0     N 2674   8.465   4.827   3.515  0.2398  0.0314 -0.9224
   20MOL0     C 2675   7.298   5.270   3.726  0.4069 -0.3392 -0.0971
   20MOL0     C 2676   7.197   5.355   3.683 -0.4715 -0.5999 -0.3741
   20MOL0     C 2677   6.962   5.741   3.576  0.5269  0.0794 -0.7726
   20MOL0     C 2678   6.859   5.678   3.658  0.4497 -0.4153  0.1248
   20MOL0     C 2679   6.743   5.745   3.696 -0.6819 -0.6067 -0.6457
   20MOL0     C 2680   6.724   5.872   3.657  0.1161 -0.9495 -0.0895
   20MOL0     O 2681   6.622   5.957   3.703  0.5580 -0.3397 -0.0260
   20MOL0     C 2682   6.565   5.932   3.832 -1.0473  0.2892 -0.5858
   20MOL0     C 2683   6.439   6.012   3.852  0.0044 -0.7275  0.3606
   20MOL0     C 2684   6.371   5.964   3.975 -0.5469 -0.0677 -0.5125
   20MOL0     C 2685   6.222   6.008   3.996  0.2133 -0.8362 -0.6072
   20MOL0     C 2686   6.150   5.938   4.102 -1.1281 -0.3821 -1.0043
   20MOL0     C 2687   6.081   5.883   4.188 -0.2457  0.2490 -0.4030
   20MOL0     C 2688   6.810   5.928   3.565 -0.9926 -0.5848 -0.4377
   20MOL0     C 2689   6.920   5.863   3.515  0.1348 -0.5107  0.5728
   20MOL0     C 2690   6.995   5.933   3.407  0.4351 -0.8402  0.2581
   20MOL0     H 2691   7.364   5.629   3.581 -2.1177  0.4076 -0.3450
   20MOL0     H 2692   7.556   5.469   3.615  0.4042 -0.0367  4.2555
   20MOL0     H 2693   7.635   5.316   3.849 -1.6933 -0.4348 -0.8740
   20MOL0     H 2694   7.692   5.328   3.688 -0.4143  0.8576 -0.1357
   20MOL0     H 2695   7.833   5.160   3.835 -0.8788 -0.4885  1.3626
   20MOL0     H 2696   7.692   5.060   3.846 -1.3511 -0.6559 -1.6353
   20MOL0     H 2697   7.804   4.981   3.673 -2.2368  0.5657  2.2037
   20MOL0     H 2698   7.678   5.096   3.603 -0.4838 -1.1739 -1.2250
   20MOL0     H 2699   7.828   5.239   3.522  0.2866  1.0123  2.3937
   20MOL0     H 2700   7.957   5.193   3.649  2.2584 -0.8460 -1.4476
   20MOL0     H 2701   8.035   5.154   3.420 -0.4164  1.0892  1.9827
   20MOL0     H 2702   7.908   5.031   3.406 -1.7273  2.1448  0.2458
   20MOL0     H 2703   8.129   5.042   3.629  0.2180 -0.3333 -0.3258
   20MOL0     H 2704   8.008   4.921   3.597  1.6510 -1.5674  1.0853
   20MOL0     H 2705   8.092   4.887   3.370 -0.8732  2.3675 -0.0570
   20MOL0     H 2706   8.187   4.818   3.500 -1.8938 -0.1762  0.8826
   20MOL0     H 2707   8.341   4.956   3.333 -0.1224 -2.9280  1.1494
   20MOL0     H 2708   8.272   5.094   3.429  0.9466  0.9074  1.5988
   20MOL0     H 2709   8.336   5.062   3.704 -3.8811 -3.0109  0.7487
   20MOL0     H 2710   8.594   4.839   3.888 -1.6117 -1.5573 -1.0247
   20MOL0     H 2711   8.426   4.908   3.925  0.4317 -0.5887  1.3114
   20MOL0     H 2712   8.525   5.127   3.835 -0.3991  0.3527 -1.3551
   20MOL0     H 2713   8.584   5.061   3.993  0.7130 -2.4272 -0.4202
   20MOL0     H 2714   8.715   5.073   3.713  0.2566 -1.2786 -0.7215
   20MOL0     H 2715   8.762   5.163   3.859  0.0343 -0.8587  1.1876
   20MOL0     H 2716   8.843   4.924   3.935  0.8824  0.0289  0.2613
   20MOL0     H 2717   8.815   4.878   3.763 -0.2040  1.8774 -1.3046
   20MOL0     H 2718   9.004   4.765   3.875 -0.0147 -0.4334 -1.1309
   20MOL0     H 2719   9.065   4.554   3.855 -1.0157 -0.4540 -0.4818
   20MOL0     H 2720   9.250   4.554   3.886  1.2374  3.3504 -0.8205
   20MOL0     H 2721   9.175   4.521   3.729  1.4975  0.4290 -0.1038
   20MOL0     H 2722   9.404   4.497   3.419  0.5836 -0.8360  0.2292
   20MOL0     H 2723   9.562   4.356   3.276 -0.3658 -1.0672  1.6580
   20MOL0     H 2724   9.750   4.231   3.290  0.4588 -1.0548 -0.2206
   20MOL0     H 2725   9.694   4.281   3.124  0.5126  2.8084 -0.8881
   20MOL0     H 2726   9.992   4.259   3.158  0.4832 -2.7711  0.1551
   20MOL0     H 2727   9.904   4.114   3.161  1.8964  0.0222  0.5361
   20MOL0     H 2728   9.841   4.321   2.935  0.0488 -0.2304 -1.0935
   20MOL0     H 2729   9.836   4.136   2.938 -1.9787 -0.0526  3.7601
   20MOL0     H 2730  10.045   4.088   2.925 -2.1823 -0.0467  2.6653
   20MOL0     H 2731  10.109   4.243   2.974 -2.1043  0.8984  1.3911
   20MOL0     H 2732  10.039   4.337   2.742 -0.3534 -0.3389 -1.0612
   20MOL0     H 2733  10.158   4.203   2.729 -0.1364 -0.5345  0.5013
   20MOL0     H 2734   9.864   4.210   2.670  0.2274 -0.9035  3.0869
   20MOL0     H 2735   9.946   4.053   2.698 -1.0695  2.2694  5.7903
   20MOL0     H 2736  10.111   4.106   2.511  0.9091  0.8630 -1.5780
   20MOL0     H 2737  10.037   4.261   2.477  1.9381 -0.2059 -1.7596
   20MOL0     H 2738   9.833   4.110   2.448  0.7454  1.0371  5.2093
   20MOL0     H 2739   9.943   3.977   2.438 -0.6128  0.1380  0.5425
   20MOL0     H 2740   9.848   4.663   3.312 -1.3046  0.2899 -1.6582
   20MOL0     H 2741   9.700   4.801   3.455 -0.7850 -0.5916  2.6915
   20MOL0     H 2742   9.348   4.949   3.577  0.0890 -2.8628 -1.3245
   20MOL0     H 2743   9.151   5.096   3.631 -2.1244 -0.1279 -0.6959
   20MOL0     H 2744   7.275   5.173   3.767  1.4400 -1.6271 -2.3772
   20MOL0     H 2745   7.094   5.328   3.705 -1.5902  2.1127 -1.7538
   20MOL0     H 2746   6.869   5.576   3.694 -1.1338 -0.6197  0.0631
   20MOL0     H 2747   6.670   5.691   3.756 -1.0204  1.1515  0.5819
   20MOL0     H 2748   6.542   5.827   3.854 -2.7470  0.7928  0.1447
   20MOL0     H 2749   6.633   5.961   3.912  0.7774 -4.4289 -0.0677
   20MOL0     H 2750   6.375   5.995   3.765 -1.8819  1.1311  1.2964
   20MOL0     H 2751   6.461   6.119   3.861  0.0484 -0.7643  0.6923
   20MOL0     H 2752   6.362   5.855   3.970  2.3758 -0.4458  0.6803
   20MOL0     H 2753   6.429   5.994   4.062 -0.5223  0.0875 -0.5820
   20MOL0     H 2754   6.156   5.995   3.910 -0.3246  0.8443 -0.4827
   20MOL0     H 2755   6.221   6.114   4.022  0.3132 -1.5194  2.5322
   20MOL0     H 2756   6.009   5.851   4.261 -0.6763  0.4654 -0.7314
   20MOL0     H 2757   6.787   6.031   3.541 -0.4794 -0.6397 -1.2045
   20MOL0     H 2758   7.072   5.870   3.363 -0.6494 -2.6084  0.7950
   20MOL0     H 2759   6.927   5.985   3.338  0.1912 -2.9404 -1.1674
   20MOL0     H 2760   7.045   6.018   3.455 -0.4730 -0.9536  1.4631
   21MOL0     O 2761   9.018   9.724   0.216  0.5014 -0.2751 -0.2375
   21MOL0     C 2762   8.957   9.656   0.302 -0.4713 -0.3968  0.1421
   21MOL0     O 2763   9.007   9.639   0.432 -0.2525 -0.0925  0.0994
   21MOL0     C 2764   9.132   9.687   0.451 -0.2973  1.4704  0.6058
   21MOL0     C 2765   9.249   9.606   0.475 -0.3858  0.1629  0.3889
   21MOL0     C 2766   9.365   9.659   0.535 -0.4146  0.5779  1.5651
   21MOL0     C 2767   9.378   9.795   0.567 -0.7108 -0.8235  0.4618
   21MOL0     O 2768   9.501   9.847   0.610 -0.0062  0.3036  0.0483
   21MOL0     C 2769   9.505   9.973   0.679  0.7200  0.0979 -0.2954
   21MOL0     C 2770   9.659   9.985   0.724  0.6910 -0.7128 -0.1678
   21MOL0     C 2771   9.699  10.124   0.777  0.4928  0.5123 -0.9422
   21MOL0     C 2772   9.855  10.128   0.807  0.1180 -0.4892 -0.6250
   21MOL0     C 2773   9.904  10.272   0.806  1.0732  0.7382  0.4169
   21MOL0     C 2774  10.058  10.286   0.813 -0.0348 -0.2852  0.2571
   21MOL0     C 2775  10.123  10.189   0.916  0.3476 -0.0116  0.1777
   21MOL0     C 2776  10.253  10.251   0.974 -0.0072  0.9139 -0.0092
   21MOL0     N 2777  10.374  10.232   0.889  0.6742  0.1858 -0.0832
   21MOL0     C 2778  10.502  10.244   0.941  0.5797 -0.5706 -0.0852
   21MOL0     C 2779  10.579  10.267   0.833  0.3326 -0.4791  0.2484
   21MOL0     C 2780  10.729  10.307   0.833  0.1595 -0.2605 -0.5901
   21MOL0     C 2781  10.808  10.184   0.818 -0.1770 -1.0581 -0.1617
   21MOL0     C 2782  10.944  10.214   0.746  0.0376  0.3343  0.7356
   21MOL0     C 2783  11.022  10.080   0.744  0.2183 -0.2507  0.0482
   21MOL0     O 2784  11.049  10.044   0.878  0.5141 -0.2459  0.8268
   21MOL0     C 2785  11.178  10.018   0.910  0.5455 -0.2331  0.3046
   21MOL0     C 2786  11.266   9.934   0.840  0.5656 -0.2759 -0.2622
   21MOL0     C 2787  11.391   9.898   0.883 -0.5401 -0.1930  0.4920
   21MOL0     C 2788  11.470   9.806   0.794  0.2306  0.4781  0.1211
   21MOL0     C 2789  11.448   9.961   0.994  0.2136 -0.8471 -0.2812
   21MOL0     C 2790  11.600   9.972   1.019  0.7868  0.0203 -0.4877
   21MOL0     O 2791  11.684   9.916   0.927 -0.4230 -0.2795 -0.0354
   21MOL0     C 2792  11.819   9.931   0.950 -0.2740  0.2828  0.4148
   21MOL0     C 2793  11.896   9.971   0.840  0.8364  0.2421 -0.3205
   21MOL0     C 2794  12.033   9.948   0.841 -1.4305 -0.4050  0.1059
   21MOL0     C 2795  12.101   9.891   0.949  0.2926  0.1400  0.5985
   21MOL0     O 2796  12.238   9.853   0.949 -0.1292 -0.1275 -0.0570
   21MOL0     C 2797  12.318   9.840   0.829  0.0669  0.1716 -0.6048
   21MOL0     C 2798  12.467   9.871   0.855 -0.0245 -0.0157  0.1088
   21MOL0     C 2799  12.554   9.826   0.738  0.4690  0.6825  0.1062
   21MOL0     C 2800  12.702   9.813   0.773 -0.7463 -0.1113 -0.6827
   21MOL0     C 2801  12.801   9.790   0.656  0.9033  0.6911 -0.0978
   21MOL0     C 2802  12.756   9.692   0.552 -0.2033  0.7876  0.7142
   21MOL0     C 2803  12.719   9.555   0.614 -0.3564 -1.1286 -0.1930
   21MOL0     C 2804  12.832   9.447   0.617  0.6194 -0.2307  0.8544
   21MOL0    Cl 2805  12.827   9.338   0.755  0.2508  0.3546 -0.6330
   21MOL0     C 2806  12.033   9.853   1.061  1.0044 -0.8930  0.5354
   21MOL0     C 2807  11.893   9.871   1.056  0.3068 -0.6380 -0.6597
   21MOL0     O 2808  11.626  10.018   1.131 -0.6496 -0.1036  0.2789
   21MOL0     C 2809  11.361  10.037   1.075  0.8969  0.3339  0.1485
   21MOL0     C 2810  11.229  10.061   1.030 -0.6633  0.0899 -0.1779
   21MOL0     N 2811  10.488  10.264   0.717  0.4479 -0.3883  1.1508
   21MOL0     N 2812  10.372  10.249   0.754 -0.1023 -0.4375 -0.2810
   21MOL0     C 2813   9.267   9.875   0.533 -0.6687  1.2077 -0.0033
   21MOL0     C 2814   9.146   9.821   0.479  0.5748 -1.0547  0.1127
   21MOL0     C 2815   8.831   9.592   0.272 -0.2460 -0.4209 -0.1030
   21MOL0     C 2816   8.764   9.532   0.382 -0.3173 -0.2335 -0.0800
   21MOL0     C 2817   8.639   9.474   0.371  0.6004 -0.3511 -0.1754
   21MOL0     C 2818   8.576   9.472   0.252  0.6674  0.4837 -0.9218
   21MOL0     O 2819   8.444   9.426   0.259 -0.1508 -0.1466  0.6930
   21MOL0     C 2820   8.362   9.433   0.141  0.3345  0.3266  0.2031
   21MOL0     C 2821   8.216   9.420   0.162 -0.1803  0.4402  0.4175
   21MOL0     C 2822   8.182   9.271   0.196  0.4114 -0.6352  0.2351
   21MOL0     C 2823   8.031   9.249   0.201 -0.6005 -0.8418 -0.7837
   21MOL0     C 2824   7.988   9.291   0.330 -0.5203 -0.6116 -0.0853
   21MOL0     C 2825   7.953   9.331   0.438  0.0835 -1.1665  0.0367
   21MOL0     C 2826   8.640   9.524   0.133 -0.0271 -0.0666 -0.3464
   21MOL0     C 2827   8.772   9.585   0.142  0.1683  0.8535  0.2484
   21MOL0     C 2828   8.834   9.628   0.013  0.1535  0.0904 -0.3780
   21MOL0     H 2829   9.246   9.499   0.459 -0.1589  0.4278 -1.6155
   21MOL0     H 2830   9.445   9.585   0.537 -1.8666 -1.0917  0.8790
   21MOL0     H 2831   9.442   9.977   0.768 -0.1217  0.8070 -0.9083
   21MOL0     H 2832   9.493  10.044   0.596 -0.9445 -0.1217 -0.2680
   21MOL0     H 2833   9.690   9.901   0.787 -1.0114 -1.3431 -0.1148
   21MOL0     H 2834   9.713   9.966   0.632  0.9095  0.0201 -0.2004
   21MOL0     H 2835   9.649  10.201   0.718  0.6956  1.1225 -0.3371
   21MOL0     H 2836   9.645  10.135   0.871 -1.0672 -0.4126 -1.6913
   21MOL0     H 2837   9.884  10.071   0.896  2.8489  3.2073  1.1340
   21MOL0     H 2838   9.913  10.069   0.735 -2.8828 -1.0185 -2.7897
   21MOL0     H 2839   9.854  10.327   0.887  0.1142  2.1152 -1.0562
   21MOL0     H 2840   9.871  10.328   0.718 -0.0263  2.9698  2.1227
   21MOL0     H 2841  10.110  10.267   0.719  1.0278 -2.0709  1.1476
   21MOL0     H 2842  10.087  10.386   0.849  1.0225 -0.5261  0.1123
   21MOL0     H 2843  10.145  10.090   0.876  0.5700  0.4018 -0.7538
   21MOL0     H 2844  10.059  10.175   1.003  1.7048 -1.2339  1.0247
   21MOL0     H 2845  10.234  10.352   1.010  0.5146  0.8450  0.4635
   21MOL0     H 2846  10.262  10.194   1.067  0.4604 -1.3458 -1.3660
   21MOL0     H 2847  10.534  10.259   1.044 -3.2696 -1.8859  1.4631
   21MOL0     H 2848  10.757  10.358   0.925 -0.2500 -1.9982  0.5549
   21MOL0     H 2849  10.749  10.377   0.751 -0.3640 -1.2304 -1.5815
   21MOL0     H 2850  10.818  10.150   0.922  0.0996  1.0902  0.5637
   21MOL0     H 2851  10.761  10.104   0.761 -0.2062 -2.2323  1.4147
   21MOL0     H 2852  10.923  10.252   0.646  0.8426 -1.0747  0.0023
   21MOL0     H 2853  11.005  10.290   0.796 -0.5566  2.4910 -1.6240
   21MOL0     H 2854  10.972   9.995   0.697  0.1401 -0.6099  0.7672
   21MOL0     H 2855  11.114  10.103   0.688  0.8764 -0.5402  0.9836
   21MOL0     H 2856  11.218   9.880   0.759 -2.0212 -0.8777  1.5644
   21MOL0     H 2857  11.546   9.858   0.736 -1.6738  2.6824 -0.5840
   21MOL0     H 2858  11.403   9.753   0.725 -0.5792  0.0193  1.2189
   21MOL0     H 2859  11.525   9.726   0.844 -1.0120 -3.5615 -4.2669
   21MOL0     H 2860  11.848  10.003   0.748  3.0471  0.0725 -1.6068
   21MOL0     H 2861  12.083   9.965   0.746 -0.9369 -2.6561 -0.0966
   21MOL0     H 2862  12.319   9.733   0.806  3.0369 -0.8535  3.2745
   21MOL0     H 2863  12.275   9.896   0.745 -0.3940  1.0235  0.1932
   21MOL0     H 2864  12.473   9.979   0.868 -0.8956  0.1004 -0.3660
   21MOL0     H 2865  12.499   9.815   0.944  1.0113  0.4292  0.0246
   21MOL0     H 2866  12.558   9.905   0.663 -0.9938 -1.5279 -2.4499
   21MOL0     H 2867  12.510   9.734   0.698 -1.3299  0.3432  2.5799
   21MOL0     H 2868  12.727   9.730   0.840  2.6301  1.1830 -0.1281
   21MOL0     H 2869  12.726   9.909   0.820 -1.1431  0.2601 -1.2254
   21MOL0     H 2870  12.812   9.888   0.609  3.3089  1.5643  2.0465
   21MOL0     H 2871  12.898   9.763   0.699  0.8011  3.2814  2.0503
   21MOL0     H 2872  12.829   9.677   0.472 -1.0655  1.5147 -0.2437
   21MOL0     H 2873  12.662   9.729   0.509  0.5034 -1.1296 -2.9067
   21MOL0     H 2874  12.650   9.513   0.540  0.0691 -0.6911 -0.8436
   21MOL0     H 2875  12.658   9.565   0.705 -1.3306 -0.9815 -0.8504
   21MOL0     H 2876  12.930   9.496   0.627  0.8318 -0.5396  0.3780
   21MOL0     H 2877  12.829   9.394   0.521 -2.8626  0.9929  0.1383
   21MOL0     H 2878  12.083   9.800   1.142  2.1798  0.8825  1.0546
   21MOL0     H 2879  11.835   9.844   1.144 -1.6229  1.9131 -1.0290
   21MOL0     H 2880  11.389  10.076   1.173  1.6099 -0.0533  0.1057
   21MOL0     H 2881  11.169  10.128   1.090  0.3418  0.4539  0.4551
   21MOL0     H 2882   9.279   9.980   0.557  2.4161  0.9602 -0.0863
   21MOL0     H 2883   9.067   9.892   0.456  2.1648  0.9060  0.3818
   21MOL0     H 2884   8.829   9.519   0.468  0.0301 -0.1406 -0.3236
   21MOL0     H 2885   8.603   9.425   0.460  3.8265 -1.8390  0.4594
   21MOL0     H 2886   8.378   9.532   0.098  0.3919  1.6520  3.0536
   21MOL0     H 2887   8.404   9.367   0.065 -0.9814 -0.7565  0.3746
   21MOL0     H 2888   8.165   9.460   0.074  0.3286 -0.2153 -0.1902
   21MOL0     H 2889   8.184   9.484   0.245 -1.9579 -0.2632  0.3128
   21MOL0     H 2890   8.205   9.206   0.111 -2.1141  0.6741 -1.5685
   21MOL0     H 2891   8.240   9.244   0.285  0.7300 -0.3734  0.1107
   21MOL0     H 2892   8.007   9.143   0.190 -2.4555 -0.4500 -0.8693
   21MOL0     H 2893   7.970   9.308   0.132  2.4364  1.3630 -1.8098
   21MOL0     H 2894   7.935   9.370   0.536 -1.5057 -0.5165 -0.4730
   21MOL0     H 2895   8.603   9.510   0.032  1.0022  1.6930 -1.0058
   21MOL0     H 2896   8.887   9.724   0.017  1.5338 -0.6418  2.7681
   21MOL0     H 2897   8.905   9.550  -0.016  0.6974  1.0957 -1.8157
   21MOL0     H 2898   8.754   9.630  -0.061  0.6869 -3.0792 -1.1929
   22MOL0     O 2899   1.982   7.286   2.467 -0.7723 -0.0943  0.3845
   22MOL0     C 2900   1.938   7.277   2.355  0.5640  0.5908  0.4390
   22MOL0     O 2901   2.002   7.229   2.247  0.2758  0.4570 -0.2654
   22MOL0     C 2902   2.085   7.107   2.261  0.1761 -0.5491  0.3069
   22MOL0     C 2903   2.153   7.073   2.142 -0.1305 -0.8601 -0.5063
   22MOL0     C 2904   2.232   6.961   2.131  0.5043  0.4125  0.5105
   22MOL0     C 2905   2.231   6.866   2.234 -0.9143  0.5619 -0.0669
   22MOL0     O 2906   2.290   6.742   2.229 -0.3428 -0.1926  0.1238
   22MOL0     C 2907   2.265   6.663   2.108  0.3810 -0.1282  0.0807
   22MOL0     C 2908   2.177   6.532   2.134 -0.6461  0.3471 -0.5784
   22MOL0     C 2909   2.245   6.430   2.211 -0.1349 -1.3226  0.5032
   22MOL0     C 2910   2.381   6.380   2.159 -0.0223  0.3662 -0.4707
   22MOL0     C 2911   2.374   6.310   2.024  0.1143 -0.5406  0.1270
   22MOL0     C 2912   2.510   6.235   1.971  0.9352  0.2539  0.8982
   22MOL0     C 2913   2.634   6.311   1.935 -0.2207 -0.5522 -0.0182
   22MOL0     C 2914   2.600   6.437   1.848 -0.1734  0.4375  1.1335
   22MOL0     N 2915   2.582   6.391   1.709 -0.2692 -1.2023  0.1656
   22MOL0     C 2916   2.643   6.441   1.595 -0.9458  0.0183 -0.5305
   22MOL0     C 2917   2.579   6.385   1.489  0.1555 -0.3818  0.7099
   22MOL0     C 2918   2.611   6.394   1.347  0.7936 -0.3442  0.3241
   22MOL0     C 2919   2.749   6.324   1.324 -0.1699  0.0359 -0.2580
   22MOL0     C 2920   2.795   6.306   1.175  0.2853 -0.6028  0.2717
   22MOL0     C 2921   2.860   6.429   1.118 -0.2584  0.3221 -0.4274
   22MOL0     O 2922   2.898   6.410   0.980 -0.6038 -0.1670 -0.0802
   22MOL0     C 2923   3.023   6.361   0.946  0.7262  0.8042 -0.4997
   22MOL0     C 2924   3.120   6.318   1.037 -0.1393  0.2404 -0.3069
   22MOL0     C 2925   3.249   6.277   1.000 -1.2839 -0.3709 -1.0819
   22MOL0     C 2926   3.353   6.250   1.111 -0.6635 -0.1500  0.1792
   22MOL0     C 2927   3.276   6.268   0.864  0.3183 -0.1901 -0.4822
   22MOL0     C 2928   3.414   6.256   0.813  0.7257 -0.5447 -0.1779
   22MOL0     O 2929   3.515   6.220   0.897  0.0033  0.5175 -0.0213
   22MOL0     C 2930   3.646   6.195   0.851 -0.3574  0.2321  0.5149
   22MOL0     C 2931   3.722   6.277   0.771 -0.5601 -0.1530 -0.5471
   22MOL0     C 2932   3.848   6.238   0.726 -0.2093 -0.0796  0.2878
   22MOL0     C 2933   3.891   6.108   0.753  0.0489 -0.0225  0.0875
   22MOL0     O 2934   4.000   6.058   0.685  0.5690  0.5636 -0.3079
   22MOL0     C 2935   4.084   5.959   0.744  0.4063 -0.6537  0.5489
   22MOL0     C 2936   4.175   5.887   0.635  0.4818  0.6677  0.2463
   22MOL0     C 2937   4.284   5.989   0.575 -0.6393  0.1956 -0.4074
   22MOL0     C 2938   4.393   5.996   0.688  0.0541 -0.1335 -0.0340
   22MOL0     C 2939   4.512   6.078   0.647  0.0918 -0.1878  0.1544
   22MOL0     C 2940   4.615   6.105   0.766 -0.2310  0.8189 -0.1196
   22MOL0     C 2941   4.754   6.147   0.703  0.2459 -0.1324 -0.5209
   22MOL0     C 2942   4.737   6.269   0.601  0.2032  1.3137 -0.4262
   22MOL0    Cl 2943   4.897   6.339   0.590 -0.0795  0.0670  0.2001
   22MOL0     C 2944   3.813   6.021   0.840  0.2004 -0.2410  0.7811
   22MOL0     C 2945   3.698   6.073   0.891  0.7040  0.1135 -0.3081
   22MOL0     O 2946   3.435   6.289   0.699 -0.0834 -0.6357  0.3659
   22MOL0     C 2947   3.173   6.305   0.778  0.1615  0.6089 -0.2235
   22MOL0     C 2948   3.050   6.351   0.820  0.1853 -0.0316 -0.1378
   22MOL0     N 2949   2.484   6.298   1.540  0.7709  0.6567  0.6257
   22MOL0     N 2950   2.483   6.313   1.669 -0.4652  0.8214  0.4921
   22MOL0     C 2951   2.177   6.902   2.355  0.4245  0.2486 -0.5471
   22MOL0     C 2952   2.106   7.022   2.367 -0.2819  0.4032  0.0765
   22MOL0     C 2953   1.790   7.308   2.329 -0.4622 -0.5710  0.6323
   22MOL0     C 2954   1.740   7.409   2.413 -0.0113 -0.0455 -0.4879
   22MOL0     C 2955   1.608   7.450   2.393 -0.8332 -0.2351 -0.2707
   22MOL0     C 2956   1.528   7.399   2.291 -0.8791  0.0844  0.1366
   22MOL0     O 2957   1.408   7.457   2.271  0.2197 -0.6719 -0.1516
   22MOL0     C 2958   1.305   7.379   2.205 -0.8055 -0.4446  1.6119
   22MOL0     C 2959   1.180   7.439   2.256 -0.2909 -0.1710 -0.4464
   22MOL0     C 2960   1.054   7.400   2.182  0.0760 -0.1613  0.0217
   22MOL0     C 2961   1.055   7.253   2.166 -0.0261 -0.4115  0.0221
   22MOL0     C 2962   0.926   7.197   2.119 -0.0514 -0.4535  0.4060
   22MOL0     C 2963   0.820   7.158   2.079 -0.0087 -0.2900  0.0516
   22MOL0     C 2964   1.578   7.297   2.206 -0.0137 -1.0467 -0.6491
   22MOL0     C 2965   1.706   7.245   2.234 -0.1372  0.4449  0.5893
   22MOL0     C 2966   1.744   7.129   2.146  0.1502 -0.3462  0.1236
   22MOL0     H 2967   2.140   7.146   2.062  0.9880  0.6591  0.6491
   22MOL0     H 2968   2.280   6.940   2.036 -1.6639 -4.4094  0.1740
   22MOL0     H 2969   2.353   6.635   2.049  0.3133  1.2061 -0.6803
   22MOL0     H 2970   2.198   6.717   2.040  0.7517 -1.1878 -1.1868
   22MOL0     H 2971   2.087   6.563   2.187 -0.3467 -0.1558  0.2514
   22MOL0     H 2972   2.157   6.482   2.039  3.1353 -0.4878 -1.1144
   22MOL0     H 2973   2.259   6.468   2.312  2.6740 -0.0552 -0.2443
   22MOL0     H 2974   2.174   6.347   2.217 -2.1681  0.3112  0.0575
   22MOL0     H 2975   2.455   6.459   2.142 -0.7359  1.1223 -0.1386
   22MOL0     H 2976   2.421   6.308   2.231 -2.8937 -0.8382  0.0426
   22MOL0     H 2977   2.341   6.388   1.953  1.4906  0.2511  0.3223
   22MOL0     H 2978   2.291   6.241   2.039 -0.1207  0.3137  3.3809
   22MOL0     H 2979   2.550   6.168   2.047  0.0431  1.8332  2.8396
   22MOL0     H 2980   2.472   6.175   1.887 -1.8192  1.9015  0.8639
   22MOL0     H 2981   2.704   6.247   1.880 -0.3705  0.4690 -1.4401
   22MOL0     H 2982   2.687   6.344   2.025  1.5080 -1.0997 -0.7828
   22MOL0     H 2983   2.516   6.495   1.888 -0.0975  0.4511  1.2713
   22MOL0     H 2984   2.693   6.494   1.853 -1.1782  2.0586  2.0981
   22MOL0     H 2985   2.730   6.506   1.581  0.2215 -0.9119  1.8542
   22MOL0     H 2986   2.628   6.500   1.325 -1.2369  0.2441  1.3284
   22MOL0     H 2987   2.531   6.341   1.294  1.4050 -1.6921  0.7146
   22MOL0     H 2988   2.823   6.386   1.376 -0.6208  1.1303 -0.8901
   22MOL0     H 2989   2.753   6.227   1.374 -0.0254 -1.3414 -2.7796
   22MOL0     H 2990   2.866   6.222   1.173  0.4339 -0.4682 -0.6686
   22MOL0     H 2991   2.710   6.272   1.116  1.3526 -0.5024 -1.3926
   22MOL0     H 2992   2.792   6.514   1.118  1.3295  1.6729 -1.7960
   22MOL0     H 2993   2.939   6.454   1.190 -0.5842  0.9034 -0.2719
   22MOL0     H 2994   3.105   6.341   1.142  2.1623 -0.4596  0.2274
   22MOL0     H 2995   3.306   6.258   1.210 -0.3325  2.2884  0.1893
   22MOL0     H 2996   3.437   6.319   1.111  0.6946 -1.6579 -2.2206
   22MOL0     H 2997   3.399   6.151   1.105 -0.9464 -0.2487 -0.4952
   22MOL0     H 2998   3.686   6.374   0.738 -1.0535 -0.7362 -1.7823
   22MOL0     H 2999   3.901   6.304   0.658 -3.0714  0.3433 -1.7502
   22MOL0     H 3000   4.152   5.998   0.820 -0.0233 -0.7590  0.9947
   22MOL0     H 3001   4.032   5.879   0.798  0.1677  0.4758  2.0502
   22MOL0     H 3002   4.223   5.804   0.688 -1.1394 -0.7017 -0.3419
   22MOL0     H 3003   4.109   5.840   0.562  0.5427  3.3101 -1.6264
   22MOL0     H 3004   4.246   6.092   0.571 -4.0511 -0.9187 -0.4483
   22MOL0     H 3005   4.315   5.948   0.478  0.5856  0.2319 -0.0450
   22MOL0     H 3006   4.420   5.895   0.721 -1.6146 -1.0575 -1.3193
   22MOL0     H 3007   4.352   6.051   0.773 -1.2309  1.9211 -1.8722
   22MOL0     H 3008   4.566   6.035   0.561  2.1336 -0.3455  1.4461
   22MOL0     H 3009   4.467   6.174   0.620 -1.8623 -1.6677 -2.2639
   22MOL0     H 3010   4.641   6.016   0.824 -2.4379  0.4664  0.4190
   22MOL0     H 3011   4.574   6.175   0.839  0.2747 -0.5919  1.5976
   22MOL0     H 3012   4.800   6.057   0.661  1.6643  0.3494 -0.0564
   22MOL0     H 3013   4.821   6.164   0.787  1.9582 -0.8742 -1.6806
   22MOL0     H 3014   4.666   6.344   0.638 -0.9878  0.6559 -1.3175
   22MOL0     H 3015   4.696   6.231   0.507 -0.0079 -1.0169  0.5513
   22MOL0     H 3016   3.842   5.925   0.881 -2.5128 -1.2674  0.5288
   22MOL0     H 3017   3.649   6.001   0.956  1.9942 -0.1074  0.4541
   22MOL0     H 3018   3.180   6.308   0.670 -1.1453  1.3818 -0.3009
   22MOL0     H 3019   2.975   6.383   0.748 -0.9111  0.5039  1.1992
   22MOL0     H 3020   2.174   6.838   2.442  0.8679  0.6591 -0.2293
   22MOL0     H 3021   2.058   7.052   2.459  0.4523 -0.7231  0.8647
   22MOL0     H 3022   1.811   7.445   2.487 -1.3789  2.2828 -0.2253
   22MOL0     H 3023   1.573   7.531   2.455 -0.6520 -0.4258  0.0831
   22MOL0     H 3024   1.304   7.394   2.097  1.3572 -1.8234  1.3412
   22MOL0     H 3025   1.310   7.271   2.224 -4.2814 -1.1356 -0.4386
   22MOL0     H 3026   1.184   7.548   2.255  1.7538 -0.1750  1.1252
   22MOL0     H 3027   1.168   7.412   2.361 -4.1739  1.0509 -0.4064
   22MOL0     H 3028   0.963   7.429   2.237  0.3511 -0.1407  0.4738
   22MOL0     H 3029   1.048   7.453   2.087  2.6806 -0.8164 -0.5699
   22MOL0     H 3030   1.075   7.220   2.268  2.4036  0.7675 -0.0243
   22MOL0     H 3031   1.133   7.215   2.100  0.0800 -0.5366  0.2171
   22MOL0     H 3032   0.731   7.109   2.046  0.3781 -0.6404 -0.4891
   22MOL0     H 3033   1.519   7.243   2.133  1.5083 -3.0966 -0.4606
   22MOL0     H 3034   1.653   7.074   2.120  0.8654 -0.7694 -1.6560
   22MOL0     H 3035   1.787   7.156   2.049 -0.7507  1.7684  0.2568
   22MOL0     H 3036   1.801   7.056   2.204 -1.7306 -0.6311  1.7191
   23MOL0     O 3037   2.002   8.828  10.017 -0.3166 -0.8575 -0.2484
   23MOL0     C 3038   1.955   8.717  10.003  0.2192 -0.8425 -0.1831
   23MOL0     O 3039   2.023   8.603   9.968  0.1401  0.3115  0.1692
   23MOL0     C 3040   2.153   8.585  10.019 -0.0545 -0.5067 -0.5423
   23MOL0     C 3041   2.228   8.483   9.955 -0.2335 -0.1401  0.7858
   23MOL0     C 3042   2.352   8.451  10.000 -0.4153 -0.5293  0.4080
   23MOL0     C 3043   2.414   8.539  10.102  0.8446 -0.2091  1.0810
   23MOL0     O 3044   2.543   8.529  10.138  0.0492 -0.5077  0.8606
   23MOL0     C 3045   2.621   8.429  10.070 -0.0699  0.1620 -0.1121
   23MOL0     C 3046   2.758   8.484  10.086  0.0746  0.2450 -0.4106
   23MOL0     C 3047   2.864   8.414  10.020  0.1968  0.4393 -0.2195
   23MOL0     C 3048   2.931   8.318  10.118 -0.1991  0.5887 -0.0015
   23MOL0     C 3049   3.046   8.252  10.044 -0.1652  0.6139 -0.2663
   23MOL0     C 3050   3.091   8.135  10.146  0.1662  0.3390 -0.0339
   23MOL0     C 3051   3.166   8.019  10.061 -0.1602 -0.8659 -0.2720
   23MOL0     C 3052   3.287   7.962  10.139 -0.2772  0.0218  0.3229
   23MOL0     N 3053   3.417   8.021  10.119 -0.0193 -0.5425 -0.2102
   23MOL0     C 3054   3.510   7.993  10.029 -0.6676  0.4454 -0.0142
   23MOL0     C 3055   3.595   8.097  10.025 -0.9093 -0.2188  0.0408
   23MOL0     C 3056   3.723   8.107   9.957 -0.6856 -0.0720 -0.0338
   23MOL0     C 3057   3.799   8.239   9.994  0.6825  0.4958  0.0296
   23MOL0     C 3058   3.730   8.379   9.967 -0.3929  0.5663  0.4094
   23MOL0     C 3059   3.715   8.474  10.086 -0.6686 -0.3820  0.7156
   23MOL0     O 3060   3.838   8.519  10.134  0.3264 -0.4626 -0.4554
   23MOL0     C 3061   3.841   8.628  10.217  0.1855  0.2757  0.2744
   23MOL0     C 3062   3.731   8.713  10.246 -0.0174  0.6049 -0.8607
   23MOL0     C 3063   3.744   8.832  10.312 -1.1986  0.5312 -0.6717
   23MOL0     C 3064   3.625   8.913  10.318  0.3580 -0.3557 -0.1662
   23MOL0     C 3065   3.865   8.861  10.375 -1.0154 -0.2408  0.9835
   23MOL0     C 3066   3.896   8.986  10.451  0.3050 -0.3111 -0.0759
   23MOL0     O 3067   4.021   9.022  10.482 -0.2370 -0.1568  1.1113
   23MOL0     C 3068   4.054   9.156  10.467  0.8497  0.2921 -0.3775
   23MOL0     C 3069   3.980   9.257  10.408 -0.3358 -0.0022  0.0172
   23MOL0     C 3070   4.036   9.379  10.387 -0.2810  0.0085  0.3867
   23MOL0     C 3071   4.174   9.405  10.407 -0.0989 -0.6826  0.2693
   23MOL0     O 3072   4.215   9.530  10.370  1.0083 -0.5424  0.5666
   23MOL0     C 3073   4.357   9.562  10.373  0.5079 -0.4365  0.4032
   23MOL0     C 3074   4.377   9.710  10.369  0.3164 -0.4530 -1.2902
   23MOL0     C 3075   4.517   9.757  10.399 -0.1483  0.2473  0.3711
   23MOL0     C 3076   4.508   9.905  10.412 -0.5794 -0.7820  0.5470
   23MOL0     C 3077   4.649   9.965  10.420 -0.2071 -0.4717  0.0629
   23MOL0     C 3078   4.744   9.900  10.527 -0.0697 -0.0976 -0.0571
   23MOL0     C 3079   4.891   9.942  10.522  0.4226 -0.7627  0.3146
   23MOL0     C 3080   4.954   9.872  10.399  0.9234 -0.0685 -0.6657
   23MOL0    Cl 3081   4.935   9.693  10.409  0.2737 -0.2889 -0.6725
   23MOL0     C 3082   4.249   9.306  10.460 -0.7668  0.1866  0.2256
   23MOL0     C 3083   4.192   9.177  10.494 -0.0718 -0.0183  0.0498
   23MOL0     O 3084   3.801   9.051  10.488  0.0695 -0.1942 -0.3871
   23MOL0     C 3085   3.979   8.774  10.351  0.2270  0.0730  0.1670
   23MOL0     C 3086   3.964   8.665  10.269  0.7141 -0.6327  0.9014
   23MOL0     N 3087   3.563   8.186  10.131  0.5731  0.3280 -0.7712
   23MOL0     N 3088   3.456   8.133  10.183  0.3629 -0.1507 -0.2960
   23MOL0     C 3089   2.347   8.643  10.161 -0.3668 -0.5139  0.9022
   23MOL0     C 3090   2.209   8.655  10.131  0.3900  0.5128 -0.1291
   23MOL0     C 3091   1.802   8.722   9.988 -1.5749  0.6602 -0.2613
   23MOL0     C 3092   1.746   8.830   9.937  0.5841 -0.4730 -0.1740
   23MOL0     C 3093   1.610   8.836   9.915  0.0038  0.4986 -0.9731
   23MOL0     C 3094   1.526   8.727   9.949 -0.5397 -0.8275 -0.0080
   23MOL0     O 3095   1.397   8.747   9.915  0.3237  0.1184 -0.2609
   23MOL0     C 3096   1.304   8.703  10.012 -0.4095  0.4284 -0.2221
   23MOL0     C 3097   1.157   8.709   9.960 -0.7570 -0.9724  0.0196
   23MOL0     C 3098   1.121   8.843   9.901 -0.2331 -0.3408 -0.5961
   23MOL0     C 3099   1.127   8.955  10.010 -0.3503 -0.1662 -1.0744
   23MOL0     C 3100   1.058   8.921  10.136  0.1448 -0.7826  0.2065
   23MOL0     C 3101   0.993   8.894  10.237  0.5060 -0.0754 -0.0470
   23MOL0     C 3102   1.586   8.613  10.009 -0.9645 -0.5117 -0.7523
   23MOL0     C 3103   1.726   8.605  10.021  0.3364 -0.1467  0.3129
   23MOL0     C 3104   1.784   8.477  10.077  0.2398 -0.3221 -0.3168
   23MOL0     H 3105   2.186   8.426   9.872  1.8171 -1.2372  0.4126
   23MOL0     H 3106   2.402   8.368   9.951 -2.6196 -1.4871 -0.3393
   23MOL0     H 3107   2.609   8.422   9.961 -1.6264  0.6677 -0.0014
   23MOL0     H 3108   2.614   8.334  10.123 -1.2545 -0.0494 -0.5920
   23MOL0     H 3109   2.758   8.587  10.048  0.2817  1.9589  3.7184
   23MOL0     H 3110   2.779   8.493  10.193  0.6448 -1.4138 -0.3553
   23MOL0     H 3111   2.831   8.352   9.936  2.1470  0.6931 -1.2526
   23MOL0     H 3112   2.936   8.489   9.985  1.8991  0.3068  2.6632
   23MOL0     H 3113   2.961   8.377  10.205 -3.2657 -0.2392  1.7690
   23MOL0     H 3114   2.857   8.242  10.144  0.1965 -0.2359 -1.2002
   23MOL0     H 3115   3.128   8.316  10.011 -0.3304  0.9485 -0.0350
   23MOL0     H 3116   3.011   8.203   9.953 -0.5422  0.1046  0.1447
   23MOL0     H 3117   3.161   8.167  10.224  2.2098  0.9947 -2.0346
   23MOL0     H 3118   3.006   8.089  10.198  0.2430  1.5355  1.1940
   23MOL0     H 3119   3.216   8.050   9.969 -1.5762  1.7540 -0.2413
   23MOL0     H 3120   3.093   7.943  10.033 -0.0680 -0.7177 -0.9327
   23MOL0     H 3121   3.266   7.967  10.246  0.8470 -1.2198  0.6347
   23MOL0     H 3122   3.301   7.859  10.104  0.2558  0.4633 -0.8288
   23MOL0     H 3123   3.522   7.899   9.977  1.5649  1.5134 -1.5895
   23MOL0     H 3124   3.702   8.101   9.850 -0.7451 -1.6364  0.0393
   23MOL0     H 3125   3.782   8.018   9.981 -0.7708  0.4253  2.2577
   23MOL0     H 3126   3.834   8.240  10.097 -4.5767  1.6036  2.1040
   23MOL0     H 3127   3.891   8.227   9.936  0.7663  1.6452 -0.1095
   23MOL0     H 3128   3.786   8.436   9.893  1.9486  0.6678  2.1214
   23MOL0     H 3129   3.627   8.365   9.932 -0.4350  1.1495  0.2886
   23MOL0     H 3130   3.643   8.551  10.058  0.5199  1.7479  3.0986
   23MOL0     H 3131   3.663   8.413  10.160 -1.2925 -1.1283 -0.3203
   23MOL0     H 3132   3.637   8.674  10.208  1.7314 -1.8837 -2.9660
   23MOL0     H 3133   3.660   9.015  10.305  0.7176 -0.5283 -0.5857
   23MOL0     H 3134   3.564   8.891  10.406  1.3380 -1.9579  0.1735
   23MOL0     H 3135   3.559   8.888  10.235 -2.6416  0.3548  1.8583
   23MOL0     H 3136   3.877   9.246  10.376 -1.4554 -0.0111  3.2613
   23MOL0     H 3137   3.972   9.462  10.358 -0.4508  0.0473  0.8690
   23MOL0     H 3138   4.405   9.528  10.465  0.9830  0.4762  0.5018
   23MOL0     H 3139   4.405   9.519  10.285  0.1140  1.6806 -0.9194
   23MOL0     H 3140   4.347   9.732  10.266 -1.2065 -1.9710 -1.1966
   23MOL0     H 3141   4.303   9.738  10.444 -1.4198 -3.1830 -1.8420
   23MOL0     H 3142   4.591   9.723  10.326 -0.4696  0.5766 -0.1135
   23MOL0     H 3143   4.540   9.708  10.494  0.4033  3.5533  2.0557
   23MOL0     H 3144   4.450   9.927  10.502 -1.3376  0.4818 -0.2193
   23MOL0     H 3145   4.459   9.954  10.327 -0.4243  2.2104  2.0457
   23MOL0     H 3146   4.687   9.957  10.318  0.7004  2.2038  0.1250
   23MOL0     H 3147   4.631  10.071  10.441 -0.7936 -0.1343 -1.9062
   23MOL0     H 3148   4.742   9.791  10.519 -1.8655 -0.5465  4.0348
   23MOL0     H 3149   4.703   9.919  10.627  0.2158 -1.4296  0.3287
   23MOL0     H 3150   4.945   9.905  10.610 -1.6512 -3.0707  0.7187
   23MOL0     H 3151   4.907  10.049  10.501 -1.7331 -0.6035 -0.7105
   23MOL0     H 3152   5.061   9.889  10.412  0.3317  2.9701  1.4088
   23MOL0     H 3153   4.911   9.897  10.302 -1.6438 -1.3745  0.0290
   23MOL0     H 3154   4.356   9.304  10.476 -0.8012 -3.3179  0.8506
   23MOL0     H 3155   4.247   9.095  10.540  0.7765 -0.0636 -1.0046
   23MOL0     H 3156   4.075   8.809  10.389 -0.2633  1.5754  0.0999
   23MOL0     H 3157   4.044   8.597  10.243  0.3903 -0.2342 -1.3002
   23MOL0     H 3158   2.397   8.708  10.230 -0.3721 -1.2411  1.6080
   23MOL0     H 3159   2.153   8.732  10.182 -0.4612 -0.6077  0.6690
   23MOL0     H 3160   1.802   8.919   9.912 -2.1851  1.7706  1.0149
   23MOL0     H 3161   1.563   8.924   9.874 -3.8012 -0.4699  0.8879
   23MOL0     H 3162   1.332   8.603  10.047 -1.6616 -0.9069 -2.7875
   23MOL0     H 3163   1.313   8.768  10.100 -2.2243 -2.2514  2.1502
   23MOL0     H 3164   1.082   8.680  10.034  0.3828 -1.3606  1.0459
   23MOL0     H 3165   1.127   8.636   9.884 -4.9121 -1.3936  1.8012
   23MOL0     H 3166   1.183   8.877   9.817  1.2197  1.2499  1.0459
   23MOL0     H 3167   1.018   8.838   9.864 -0.1966 -3.0170 -0.5167
   23MOL0     H 3168   1.072   9.045   9.980 -0.5042  0.7818  1.7480
   23MOL0     H 3169   1.230   8.986  10.032 -0.8169  0.1637  0.7726
   23MOL0     H 3170   0.939   8.874  10.327  3.3823 -0.5112  1.6879
   23MOL0     H 3171   1.523   8.535  10.050  0.2323 -0.6656  0.9018
   23MOL0     H 3172   1.795   8.400  10.001 -1.4118 -1.7010  0.7729
   23MOL0     H 3173   1.877   8.481  10.135 -1.9729 -3.3426  4.0064
   23MOL0     H 3174   1.708   8.431  10.141 -3.3014  0.2579 -3.7234
   24MOL0     O 3175   0.035   1.718   9.473  0.2299 -0.7511 -0.3392
   24MOL0     C 3176  -0.027   1.802   9.406  0.0712 -0.1837 -0.2321
   24MOL0     O 3177  -0.004   1.826   9.275  0.3489 -0.5601 -0.4524
   24MOL0     C 3178   0.119   1.786   9.235  0.0756 -0.2967 -0.7692
   24MOL0     C 3179   0.227   1.870   9.224 -0.0141 -0.2584 -0.6400
   24MOL0     C 3180   0.346   1.840   9.160 -0.0250 -0.3119  0.5504
   24MOL0     C 3181   0.363   1.711   9.114  0.2915  0.2890 -0.5242
   24MOL0     O 3182   0.468   1.652   9.045  0.6533  0.2439 -0.4278
   24MOL0     C 3183   0.588   1.734   9.034 -0.1207 -0.2302 -0.2438
   24MOL0     C 3184   0.669   1.767   9.162  0.1436  1.0996 -0.4267
   24MOL0     C 3185   0.814   1.799   9.113  0.1595 -0.5090 -0.1435
   24MOL0     C 3186   0.900   1.825   9.237  0.2597 -0.3595  0.3816
   24MOL0     C 3187   1.041   1.863   9.195  0.1182 -0.3866 -0.5827
   24MOL0     C 3188   1.115   1.924   9.315  0.8013  0.9256  0.3230
   24MOL0     C 3189   1.263   1.907   9.306  0.0444  0.3300 -0.2852
   24MOL0     C 3190   1.329   1.951   9.176 -0.4293 -0.0220 -0.0327
   24MOL0     N 3191   1.474   1.937   9.182 -0.2570 -0.4019 -0.4985
   24MOL0     C 3192   1.549   1.824   9.187 -0.1611  0.6031  0.3360
   24MOL0     C 3193   1.670   1.875   9.159 -1.2252 -0.0026  0.4341
   24MOL0     C 3194   1.798   1.792   9.148  0.3518 -0.0189  0.4593
   24MOL0     C 3195   1.898   1.774   9.267 -0.6305 -0.7701  0.5377
   24MOL0     C 3196   1.825   1.710   9.391  0.5098 -0.2148  0.7532
   24MOL0     C 3197   1.816   1.564   9.371  0.1834  0.0520  0.5253
   24MOL0     O 3198   1.941   1.502   9.360  0.4145 -0.7119 -0.4257
   24MOL0     C 3199   2.005   1.482   9.487  0.2169  0.6149 -0.0278
   24MOL0     C 3200   2.116   1.550   9.528  0.2350  0.9619 -0.0227
   24MOL0     C 3201   2.190   1.510   9.644  0.0868 -0.3627 -0.8081
   24MOL0     C 3202   2.312   1.591   9.689  0.0823 -0.1339  0.1529
   24MOL0     C 3203   2.144   1.395   9.724 -0.2976 -0.4308  0.2515
   24MOL0     C 3204   2.223   1.337   9.839  0.4101 -0.3162  0.8475
   24MOL0     O 3205   2.163   1.230   9.896 -0.1451  0.5261 -0.3987
   24MOL0     C 3206   2.243   1.155   9.982  0.3368  0.2239 -0.3928
   24MOL0     C 3207   2.321   1.047   9.933  0.3237  0.0161 -0.6448
   24MOL0     C 3208   2.396   0.974  10.029 -0.2700 -0.3735  0.2646
   24MOL0     C 3209   2.396   1.007  10.163 -0.2933 -0.0863  0.5083
   24MOL0     O 3210   2.473   0.939  10.255 -0.4829  0.2923 -0.1134
   24MOL0     C 3211   2.612   0.924  10.230 -0.2087 -0.2174 -0.2030
   24MOL0     C 3212   2.711   0.871  10.337  0.7000  0.1226  0.7730
   24MOL0     C 3213   2.742   0.971  10.452 -0.5035 -0.1585 -0.2814
   24MOL0     C 3214   2.617   1.035  10.510  0.4546  0.3808  0.0269
   24MOL0     C 3215   2.654   1.128  10.625  0.4497  0.1624  0.1854
   24MOL0     C 3216   2.719   1.074  10.751  0.1068 -0.5071 -0.3297
   24MOL0     C 3217   2.712   1.182  10.856  0.1123  0.8460 -0.1207
   24MOL0     C 3218   2.813   1.170  10.967  0.3933  0.0545  0.1618
   24MOL0    Cl 3219   2.771   1.022  11.065  0.1250  0.1672 -0.2411
   24MOL0     C 3220   2.319   1.115  10.209 -0.0040  0.9072 -0.4834
   24MOL0     C 3221   2.237   1.187  10.114 -0.1208 -0.2654 -0.0196
   24MOL0     O 3222   2.328   1.391   9.885  0.7773 -0.5842  1.3048
   24MOL0     C 3223   2.018   1.341   9.685 -0.1732 -0.2697 -0.6546
   24MOL0     C 3224   1.955   1.375   9.566  0.0877  0.6091  0.5225
   24MOL0     N 3225   1.673   2.010   9.133  1.0357 -0.7345  0.0788
   24MOL0     N 3226   1.549   2.046   9.144  0.1658 -0.7749  0.3032
   24MOL0     C 3227   0.257   1.624   9.130  0.8740  0.2137  0.9297
   24MOL0     C 3228   0.128   1.660   9.183 -0.5886  0.4169  0.3779
   24MOL0     C 3229  -0.143   1.864   9.471  0.2513  0.0617 -0.5691
   24MOL0     C 3230  -0.217   1.954   9.389  0.2064  0.2740 -0.5201
   24MOL0     C 3231  -0.321   2.020   9.447  0.3572 -0.6139  0.1514
   24MOL0     C 3232  -0.368   1.994   9.568  0.2529 -0.3368 -0.1178
   24MOL0     O 3233  -0.483   2.060   9.601  0.2600 -0.0440  0.4174
   24MOL0     C 3234  -0.538   2.040   9.732  0.4781  0.8701 -0.3501
   24MOL0     C 3235  -0.673   2.107   9.742 -0.2235  0.6577  0.0171
   24MOL0     C 3236  -0.741   2.086   9.877  0.6014  0.3784  0.2730
   24MOL0     C 3237  -0.900   2.110   9.854  0.0001 -0.5578 -0.4937
   24MOL0     C 3238  -0.971   2.059   9.971  0.1152 -0.0890  0.1014
   24MOL0     C 3239  -1.043   2.032  10.072 -0.0973 -0.4957  0.3253
   24MOL0     C 3240  -0.290   1.909   9.654 -0.6627 -0.0157 -0.4447
   24MOL0     C 3241  -0.180   1.841   9.608 -0.0828 -0.3852 -0.3995
   24MOL0     C 3242  -0.107   1.753   9.714  0.1373 -0.1230  0.3897
   24MOL0     H 3243   0.210   1.969   9.266 -0.5313 -0.8149  0.5461
   24MOL0     H 3244   0.416   1.923   9.163 -1.9048  1.3463  1.9133
   24MOL0     H 3245   0.564   1.826   8.980  0.9440 -1.0197 -2.1634
   24MOL0     H 3246   0.653   1.701   8.953 -2.0805  0.3993 -2.1897
   24MOL0     H 3247   0.627   1.851   9.218  0.2601  0.3203  0.8549
   24MOL0     H 3248   0.668   1.671   9.215 -1.6820  1.1611 -0.2927
   24MOL0     H 3249   0.847   1.715   9.051  3.8448  0.0699  0.7888
   24MOL0     H 3250   0.813   1.885   9.045 -0.7825 -0.3378  0.0716
   24MOL0     H 3251   0.855   1.911   9.289 -0.9605  1.4684 -3.3703
   24MOL0     H 3252   0.908   1.732   9.294  1.9598 -0.5208 -0.0719
   24MOL0     H 3253   1.026   1.932   9.111  0.4488 -2.6025 -2.5637
   24MOL0     H 3254   1.092   1.776   9.152 -1.2607 -0.4278 -2.2699
   24MOL0     H 3255   1.096   2.031   9.324  2.8010  1.2976  0.6115
   24MOL0     H 3256   1.085   1.859   9.398  0.1861 -0.7806 -1.1660
   24MOL0     H 3257   1.292   1.803   9.327 -3.2240 -0.1566  2.8443
   24MOL0     H 3258   1.309   1.966   9.387 -1.5044  0.7148  0.3571
   24MOL0     H 3259   1.307   1.880   9.096  2.1417 -0.9636  0.0249
   24MOL0     H 3260   1.304   2.054   9.147 -0.8220 -0.3817 -1.0365
   24MOL0     H 3261   1.512   1.722   9.192 -3.1797  1.6643  2.4091
   24MOL0     H 3262   1.858   1.835   9.068  1.2521 -0.2709  0.9925
   24MOL0     H 3263   1.777   1.688   9.120  0.4584 -0.3118  1.4402
   24MOL0     H 3264   1.983   1.712   9.238  0.0760  1.0472 -1.5783
   24MOL0     H 3265   1.937   1.867   9.308 -1.3726 -0.1667 -0.0913
   24MOL0     H 3266   1.881   1.734   9.481 -0.2323 -2.5506  1.9122
   24MOL0     H 3267   1.726   1.756   9.402  0.4333  0.1769 -1.1638
   24MOL0     H 3268   1.756   1.521   9.452  0.7871  0.3814  1.1593
   24MOL0     H 3269   1.764   1.544   9.277 -0.3894  2.0038  0.3889
   24MOL0     H 3270   2.152   1.639   9.477  1.6782  0.1712 -0.4338
   24MOL0     H 3271   2.406   1.536   9.700 -0.6452 -1.0301  2.3631
   24MOL0     H 3272   2.296   1.657   9.775 -2.9087  1.6569 -1.5818
   24MOL0     H 3273   2.334   1.661   9.607 -1.4796  1.5617  1.0897
   24MOL0     H 3274   2.311   1.014   9.830 -1.3284 -0.3181 -0.4008
   24MOL0     H 3275   2.455   0.889   9.995 -0.9284 -0.4156 -0.8445
   24MOL0     H 3276   2.625   0.867  10.137 -0.8106  0.5954 -0.7947
   24MOL0     H 3277   2.654   1.024  10.215  2.4183 -1.3644 -1.1094
   24MOL0     H 3278   2.649   0.789  10.374 -1.3114  0.7645 -0.9531
   24MOL0     H 3279   2.799   0.830  10.287  0.1755 -1.0628  0.8007
   24MOL0     H 3280   2.801   1.049  10.402  0.6012 -0.2893  0.7827
   24MOL0     H 3281   2.792   0.922  10.536 -0.0836  1.5093  0.4732
   24MOL0     H 3282   2.539   0.970  10.550 -0.5627  0.6957 -1.3619
   24MOL0     H 3283   2.569   1.088  10.427  0.2417 -1.9935 -1.4441
   24MOL0     H 3284   2.716   1.206  10.580 -0.5136 -0.5275 -2.5755
   24MOL0     H 3285   2.558   1.171  10.653  0.6000  1.6974 -1.4597
   24MOL0     H 3286   2.820   1.040  10.726 -1.1626 -3.5752 -1.6883
   24MOL0     H 3287   2.664   0.985  10.781 -0.6909  0.3500  0.8367
   24MOL0     H 3288   2.611   1.180  10.899  0.6199  1.1159  1.1296
   24MOL0     H 3289   2.735   1.280  10.812  2.0553  0.0760 -0.8733
   24MOL0     H 3290   2.822   1.257  11.032 -0.2471 -1.6859  2.7553
   24MOL0     H 3291   2.906   1.147  10.913  0.0330 -2.4473  0.4754
   24MOL0     H 3292   2.321   1.147  10.313 -2.7281 -1.2707  0.3832
   24MOL0     H 3293   2.159   1.261  10.133 -1.4780 -2.2661  3.0291
   24MOL0     H 3294   1.959   1.265   9.736  1.7474 -1.7108 -0.4968
   24MOL0     H 3295   1.868   1.326   9.523  1.0180 -1.1724  0.5647
   24MOL0     H 3296   0.266   1.520   9.099 -0.6465  1.0079 -2.6923
   24MOL0     H 3297   0.045   1.590   9.180 -1.2062  1.1545 -0.1584
   24MOL0     H 3298  -0.180   1.979   9.290 -0.5432  0.6265 -0.7197
   24MOL0     H 3299  -0.358   2.097   9.380  2.3940 -1.0446 -1.5887
   24MOL0     H 3300  -0.546   1.932   9.744 -1.7132  1.2140  2.2534
   24MOL0     H 3301  -0.476   2.081   9.812 -0.0831  0.0437  0.5298
   24MOL0     H 3302  -0.732   2.071   9.657 -0.0812 -2.0470  0.9673
   24MOL0     H 3303  -0.656   2.214   9.728 -2.5894  1.5596  2.9387
   24MOL0     H 3304  -0.737   1.980   9.903  1.0621 -0.4660 -2.8268
   24MOL0     H 3305  -0.693   2.148   9.954  1.8130 -0.7329  0.4588
   24MOL0     H 3306  -0.930   2.043   9.773  0.0177  1.4573 -2.2548
   24MOL0     H 3307  -0.929   2.214   9.833 -1.3915 -0.5259  1.3529
   24MOL0     H 3308  -1.104   1.991  10.150  0.7716 -1.4072  0.5507
   24MOL0     H 3309  -0.322   1.899   9.757  1.6003 -0.0989  0.3064
   24MOL0     H 3310  -0.115   1.649   9.681 -1.0347  0.3270 -0.8147
   24MOL0     H 3311  -0.003   1.776   9.739  0.3405  0.9476 -1.3178
   24MOL0     H 3312  -0.162   1.745   9.809 -0.4862 -0.2671  0.0208
   25MOL0     O 3313   9.039   9.181   3.489 -0.0516  0.2311  0.2275
   25MOL0     C 3314   9.029   9.234   3.379 -0.2091  0.3663  0.0277
   25MOL0     O 3315   9.099   9.192   3.266  0.0217  0.1013 -0.4162
   25MOL0     C 3316   9.179   9.081   3.274 -0.0986  0.4539  0.3075
   25MOL0     C 3317   9.150   8.967   3.348 -0.3077  0.0426 -0.4118
   25MOL0     C 3318   9.240   8.859   3.359  0.4923  0.2121  0.5439
   25MOL0     C 3319   9.367   8.869   3.301  0.0862 -0.0393 -1.0522
   25MOL0     O 3320   9.464   8.777   3.315 -0.2576  0.7583  0.1056
   25MOL0     C 3321   9.455   8.661   3.397  0.6328  0.1583  0.0950
   25MOL0     C 3322   9.603   8.625   3.420 -0.1132 -0.6162 -0.2051
   25MOL0     C 3323   9.608   8.486   3.475 -0.8459  0.0924 -0.5765
   25MOL0     C 3324   9.746   8.451   3.525  0.4645 -0.3238  0.1670
   25MOL0     C 3325   9.786   8.302   3.521 -0.9090  0.2086  0.1824
   25MOL0     C 3326   9.932   8.271   3.569  0.2945  0.3411  0.3157
   25MOL0     C 3327   9.947   8.120   3.552 -0.0908 -0.8307  0.4208
   25MOL0     C 3328  10.091   8.086   3.580 -0.0040  0.1811  0.7432
   25MOL0     N 3329  10.190   8.148   3.496 -0.2748 -0.1746 -0.8231
   25MOL0     C 3330  10.253   8.274   3.527  0.7516  0.2884 -0.3241
   25MOL0     C 3331  10.331   8.283   3.418 -0.1680  0.1741 -0.3284
   25MOL0     C 3332  10.447   8.377   3.416  1.2336 -0.2888 -0.9972
   25MOL0     C 3333  10.551   8.362   3.309  0.8821  0.0834 -0.0689
   25MOL0     C 3334  10.695   8.399   3.350  0.0517  0.3506 -1.0610
   25MOL0     C 3335  10.707   8.543   3.403 -0.4778 -0.2147  0.2457
   25MOL0     O 3336  10.649   8.560   3.536 -0.0680 -0.1867 -0.4610
   25MOL0     C 3337  10.727   8.557   3.654 -0.1792 -0.1039 -0.0517
   25MOL0     C 3338  10.680   8.627   3.765  0.1709 -0.0330  0.8061
   25MOL0     C 3339  10.757   8.634   3.880 -0.0114 -0.2002 -0.3385
   25MOL0     C 3340  10.672   8.683   4.000  0.4661  0.2833 -0.0446
   25MOL0     C 3341  10.889   8.565   3.880  0.5412 -0.1691 -0.6503
   25MOL0     C 3342  10.984   8.561   3.999  0.3262 -0.9581  0.0424
   25MOL0     O 3343  11.106   8.519   3.971 -1.1942 -0.2566  0.3897
   25MOL0     C 3344  11.192   8.465   4.064 -0.2616  0.2573  0.1497
   25MOL0     C 3345  11.170   8.421   4.194 -0.8254 -0.6372  0.0234
   25MOL0     C 3346  11.277   8.378   4.275 -0.7376  0.1974 -0.5067
   25MOL0     C 3347  11.409   8.400   4.244  1.0266  0.6530 -0.9871
   25MOL0     O 3348  11.508   8.367   4.330 -0.5352 -0.2319  0.5039
   25MOL0     C 3349  11.621   8.455   4.345 -0.5568 -0.1323 -0.1980
   25MOL0     C 3350  11.693   8.434   4.473 -0.2838  0.0585 -0.9217
   25MOL0     C 3351  11.827   8.513   4.477 -0.8147 -1.5355 -0.0047
   25MOL0     C 3352  11.892   8.486   4.617  0.5785  0.2014  0.6255
   25MOL0     C 3353  12.044   8.516   4.603 -0.1019  0.0634  0.6257
   25MOL0     C 3354  12.100   8.648   4.530  0.5089  0.6992 -0.5966
   25MOL0     C 3355  12.227   8.704   4.587 -0.7006 -0.0520 -0.1076
   25MOL0     C 3356  12.348   8.643   4.511 -0.2524 -0.0439  0.4923
   25MOL0    Cl 3357  12.399   8.504   4.591  0.0051  0.1925 -0.4085
   25MOL0     C 3358  11.431   8.464   4.116 -0.3257 -0.4247 -0.1210
   25MOL0     C 3359  11.322   8.484   4.030  0.3143  0.6555 -0.1090
   25MOL0     O 3360  10.942   8.587   4.107 -0.1964  0.7437  0.3314
   25MOL0     C 3361  10.929   8.490   3.775 -0.1687 -0.5263  0.5054
   25MOL0     C 3362  10.846   8.485   3.669  0.3561  0.4570  0.2564
   25MOL0     N 3363  10.297   8.191   3.318  0.6149 -0.2736 -0.3806
   25MOL0     N 3364  10.219   8.108   3.368 -0.3995 -1.6294 -0.6777
   25MOL0     C 3365   9.400   8.976   3.223 -0.0967 -0.1627  0.0747
   25MOL0     C 3366   9.304   9.078   3.207  1.1410  0.0616 -0.6338
   25MOL0     C 3367   8.948   9.350   3.363  0.8814  0.5952  0.4183
   25MOL0     C 3368   8.963   9.429   3.248  0.1896  0.3073  0.5671
   25MOL0     C 3369   8.885   9.540   3.228 -0.0455  0.3779  0.0161
   25MOL0     C 3370   8.801   9.587   3.331 -1.3566 -0.3328 -0.0729
   25MOL0     O 3371   8.732   9.702   3.319  0.8673  0.3320 -0.0753
   25MOL0     C 3372   8.735   9.785   3.203 -0.7306  0.2720  0.8506
   25MOL0     C 3373   8.654   9.916   3.234  0.0472  0.0720 -0.5285
   25MOL0     C 3374   8.656  10.006   3.116  0.2389  0.2869 -0.1718
   25MOL0     C 3375   8.551  10.118   3.120  0.3684 -0.8522 -0.2048
   25MOL0     C 3376   8.583  10.227   3.027  0.6014 -0.4143 -0.5665
   25MOL0     C 3377   8.601  10.317   2.946 -0.8434  0.1141 -0.2271
   25MOL0     C 3378   8.776   9.503   3.445  0.4849 -0.4024  0.2375
   25MOL0     C 3379   8.848   9.383   3.464 -0.2124 -0.5399  0.5442
   25MOL0     C 3380   8.803   9.293   3.578  0.2422 -0.4081 -0.6590
   25MOL0     H 3381   9.056   8.969   3.403  0.3716 -2.5181  1.0359
   25MOL0     H 3382   9.198   8.773   3.410 -1.0282  0.3195 -0.4691
   25MOL0     H 3383   9.409   8.589   3.327 -0.2581 -0.7825  1.5955
   25MOL0     H 3384   9.391   8.679   3.484 -0.8140  0.9384 -1.0836
   25MOL0     H 3385   9.662   8.635   3.328  0.3700  0.1943  0.1768
   25MOL0     H 3386   9.639   8.705   3.486 -0.2817 -1.7590  1.3064
   25MOL0     H 3387   9.529   8.459   3.546 -2.8617 -0.8066 -3.0142
   25MOL0     H 3388   9.594   8.415   3.393 -0.9710 -0.7316  0.1462
   25MOL0     H 3389   9.813   8.499   3.453  0.1114  0.5911  0.4349
   25MOL0     H 3390   9.744   8.485   3.629  0.5244 -1.7860  0.6641
   25MOL0     H 3391   9.793   8.286   3.413  0.7868  1.2098  0.1032
   25MOL0     H 3392   9.712   8.241   3.574 -0.5494  1.6574  2.4911
   25MOL0     H 3393  10.001   8.336   3.515 -0.7562  1.2814  0.0922
   25MOL0     H 3394   9.937   8.299   3.675  0.7580  0.5546  0.2390
   25MOL0     H 3395   9.921   8.096   3.449  1.7236  0.0165 -0.2827
   25MOL0     H 3396   9.889   8.064   3.626  0.7152 -3.5533 -0.8908
   25MOL0     H 3397  10.103   8.127   3.680 -1.8161  1.4201  0.4999
   25MOL0     H 3398  10.112   7.979   3.578  1.2831  0.4052  1.1121
   25MOL0     H 3399  10.257   8.334   3.618 -0.5216 -0.2910  0.1314
   25MOL0     H 3400  10.500   8.360   3.510  1.8211  1.0942 -1.0532
   25MOL0     H 3401  10.418   8.482   3.412 -1.7479 -1.0424 -1.6388
   25MOL0     H 3402  10.550   8.258   3.273 -1.0884  0.4330 -1.1758
   25MOL0     H 3403  10.527   8.416   3.217 -0.6573  0.1251  0.3212
   25MOL0     H 3404  10.733   8.323   3.419 -0.3545  0.5675 -0.6003
   25MOL0     H 3405  10.765   8.371   3.270  1.6159 -0.0006  0.3546
   25MOL0     H 3406  10.813   8.573   3.406  0.2339 -2.4331 -0.6557
   25MOL0     H 3407  10.659   8.611   3.331  2.0931  1.3898 -0.1216
   25MOL0     H 3408  10.578   8.661   3.746 -1.9106 -5.8584 -0.4733
   25MOL0     H 3409  10.594   8.609   4.018  2.7397 -1.9265  1.3565
   25MOL0     H 3410  10.627   8.783   3.993 -1.0295 -0.4251 -0.9592
   25MOL0     H 3411  10.738   8.681   4.088  0.9031 -0.0456 -0.3790
   25MOL0     H 3412  11.073   8.416   4.243  0.0627  2.4180  2.4201
   25MOL0     H 3413  11.248   8.326   4.366  2.5988  0.2521  0.7249
   25MOL0     H 3414  11.694   8.425   4.269 -0.4346  0.2522 -0.2344
   25MOL0     H 3415  11.608   8.562   4.328 -1.6675 -0.2945 -0.4667
   25MOL0     H 3416  11.636   8.465   4.560  1.0859 -1.6182  0.6631
   25MOL0     H 3417  11.709   8.327   4.491 -0.4134  0.0373 -0.9330
   25MOL0     H 3418  11.805   8.620   4.474 -0.7650 -1.4119  2.0930
   25MOL0     H 3419  11.897   8.487   4.397  0.3737 -2.9697  1.4168
   25MOL0     H 3420  11.876   8.382   4.649 -0.7141 -0.4894 -2.0084
   25MOL0     H 3421  11.843   8.554   4.688  0.6303  0.4704  0.4034
   25MOL0     H 3422  12.085   8.521   4.704  0.8457 -0.9656  0.3155
   25MOL0     H 3423  12.096   8.430   4.559  1.2975  1.0259  0.3123
   25MOL0     H 3424  12.031   8.727   4.560 -1.7728 -1.8149  1.2506
   25MOL0     H 3425  12.117   8.642   4.422  2.1358  0.8947 -0.3890
   25MOL0     H 3426  12.229   8.679   4.693 -0.5237 -1.0124 -0.3240
   25MOL0     H 3427  12.232   8.812   4.571 -0.7640 -0.3099 -2.1036
   25MOL0     H 3428  12.424   8.721   4.520 -1.6696  1.2174  2.1922
   25MOL0     H 3429  12.325   8.618   4.407 -1.1953  0.4582  0.5722
   25MOL0     H 3430  11.531   8.498   4.095  0.8000 -2.3355  1.7878
   25MOL0     H 3431  11.335   8.531   3.934 -2.0491 -0.4576 -1.0577
   25MOL0     H 3432  11.024   8.438   3.774 -1.0354 -2.1880 -0.4668
   25MOL0     H 3433  10.882   8.421   3.589 -0.3045  1.1306 -0.5991
   25MOL0     H 3434   9.501   8.974   3.183  0.5856  0.3074  1.7020
   25MOL0     H 3435   9.337   9.168   3.155  0.2389  1.3907  0.9881
   25MOL0     H 3436   9.036   9.405   3.172  0.5216  1.4926  0.4861
   25MOL0     H 3437   8.889   9.602   3.139 -1.4785 -0.6058 -0.7743
   25MOL0     H 3438   8.836   9.809   3.170 -1.2352  3.0169  1.0412
   25MOL0     H 3439   8.683   9.738   3.119 -0.0808 -0.0841  0.6513
   25MOL0     H 3440   8.702   9.958   3.324  0.7256  1.6121 -1.5567
   25MOL0     H 3441   8.556   9.876   3.259  0.5896 -0.2244  1.3180
   25MOL0     H 3442   8.757  10.048   3.107  0.2639  0.7704  1.8275
   25MOL0     H 3443   8.638   9.944   3.028  3.1545  0.3430 -0.9280
   25MOL0     H 3444   8.545  10.162   3.220 -0.4005  2.7146 -1.6563
   25MOL0     H 3445   8.446  10.098   3.094  0.2841 -1.2073  0.3870
   25MOL0     H 3446   8.626  10.394   2.876 -1.9356  1.6320  0.9880
   25MOL0     H 3447   8.698   9.535   3.513  2.0582  2.0012  1.0424
   25MOL0     H 3448   8.767   9.197   3.540 -0.9272 -1.1365  2.0687
   25MOL0     H 3449   8.890   9.282   3.643 -0.2700  1.0981  0.3179
   25MOL0     H 3450   8.724   9.339   3.639 -0.4717 -0.5034 -1.4906
   26MOL0     O 3451   5.669   7.508   0.085  0.2265 -0.3081 -0.0141
   26MOL0     C 3452   5.714   7.565   0.178 -0.7404 -0.4015 -0.2564
   26MOL0     O 3453   5.704   7.520   0.305  0.6380 -0.2392  0.3465
   26MOL0     C 3454   5.604   7.423   0.318  1.1552 -0.8559 -0.0915
   26MOL0     C 3455   5.626   7.309   0.391 -0.4593 -0.2557  0.2870
   26MOL0     C 3456   5.534   7.211   0.418  0.5547 -0.6683  0.2596
   26MOL0     C 3457   5.404   7.230   0.368 -1.2986 -0.0292 -1.3620
   26MOL0     O 3458   5.311   7.129   0.395  0.2402  0.2637 -0.0767
   26MOL0     C 3459   5.187   7.129   0.316  0.0784 -1.3034  0.6863
   26MOL0     C 3460   5.095   7.011   0.351  0.1602  0.6750  0.2421
   26MOL0     C 3461   5.009   7.047   0.472 -0.3218 -0.3826 -0.0715
   26MOL0     C 3462   4.898   6.951   0.493 -0.3009 -0.0863 -0.2369
   26MOL0     C 3463   4.810   6.989   0.613 -0.0111  0.0598  0.3834
   26MOL0     C 3464   4.699   6.883   0.638  0.3302 -0.3563 -0.1122
   26MOL0     C 3465   4.577   6.925   0.547  0.3338  0.5923 -0.5938
   26MOL0     C 3466   4.481   6.807   0.527 -0.2184 -0.0178 -0.2391
   26MOL0     N 3467   4.551   6.697   0.468  0.3776  0.7752  0.2604
   26MOL0     C 3468   4.598   6.694   0.336 -0.6817  0.8131 -0.4163
   26MOL0     C 3469   4.643   6.568   0.329 -0.4139 -0.8196  0.4001
   26MOL0     C 3470   4.731   6.514   0.218  0.6120 -0.0363 -0.5475
   26MOL0     C 3471   4.859   6.586   0.182  0.6710  0.8604  0.4933
   26MOL0     C 3472   4.951   6.590   0.299  0.4362 -0.4657 -0.4190
   26MOL0     C 3473   5.080   6.658   0.265  0.2041 -0.6270 -0.0531
   26MOL0     O 3474   5.158   6.580   0.166  0.1301 -0.2051 -0.0280
   26MOL0     C 3475   5.284   6.624   0.139  0.8205 -0.3614  0.8082
   26MOL0     C 3476   5.352   6.740   0.181  0.0824 -0.3984  0.1818
   26MOL0     C 3477   5.490   6.769   0.148 -0.3213  0.2680  0.4109
   26MOL0     C 3478   5.548   6.905   0.190  0.1980 -0.1545 -0.2462
   26MOL0     C 3479   5.567   6.675   0.069  0.2996  0.1112 -0.7796
   26MOL0     C 3480   5.712   6.693   0.017  0.0481  0.4735  0.0227
   26MOL0     O 3481   5.750   6.610  -0.086 -0.0279 -0.5508  0.2135
   26MOL0     C 3482   5.866   6.626  -0.144 -0.5593 -0.0110  0.5166
   26MOL0     C 3483   5.908   6.750  -0.202 -0.0363  0.0667 -0.7711
   26MOL0     C 3484   6.039   6.766  -0.248  0.1956  0.4013  0.3062
   26MOL0     C 3485   6.119   6.652  -0.262 -0.4139  0.6156 -0.1987
   26MOL0     O 3486   6.255   6.679  -0.301  0.7740 -0.5399  0.1909
   26MOL0     C 3487   6.321   6.585  -0.383 -0.8401  0.7006  0.0450
   26MOL0     C 3488   6.474   6.595  -0.368 -0.1568 -0.2432 -0.1836
   26MOL0     C 3489   6.529   6.522  -0.239  0.6245  0.8765  0.2809
   26MOL0     C 3490   6.561   6.370  -0.264  0.3905 -2.0344  0.1035
   26MOL0     C 3491   6.582   6.304  -0.131 -0.0555 -0.3534  0.2131
   26MOL0     C 3492   6.599   6.154  -0.132  0.2512 -0.0340 -0.0094
   26MOL0     C 3493   6.746   6.114  -0.164 -0.3612  0.0323 -0.5266
   26MOL0     C 3494   6.761   5.960  -0.184  0.2517  0.6606  0.0304
   26MOL0    Cl 3495   6.691   5.899  -0.347  0.4915 -0.4384  0.4189
   26MOL0     C 3496   6.072   6.530  -0.212 -0.6883  0.6894 -0.2386
   26MOL0     C 3497   5.948   6.518  -0.159  0.9348  0.4707  0.3726
   26MOL0     O 3498   5.785   6.772   0.074 -0.2998  0.3630  0.0752
   26MOL0     C 3499   5.503   6.557   0.030 -0.3601 -0.8487  0.0587
   26MOL0     C 3500   5.364   6.538   0.060  0.7700 -0.2338 -0.6081
   26MOL0     N 3501   4.616   6.499   0.446  0.4088  1.1021 -0.4259
   26MOL0     N 3502   4.561   6.575   0.528 -0.1180  0.1296 -0.1382
   26MOL0     C 3503   5.381   7.344   0.294 -0.9975  0.4548  0.0416
   26MOL0     C 3504   5.469   7.449   0.281 -0.6783  0.3628  0.5030
   26MOL0     C 3505   5.775   7.694   0.162 -0.2801 -0.7285  0.2077
   26MOL0     C 3506   5.909   7.693   0.117  0.2055  0.6245  0.9686
   26MOL0     C 3507   5.988   7.811   0.105  0.7720 -0.1644  0.8262
   26MOL0     C 3508   5.923   7.929   0.137 -0.3802  0.2241  0.1703
   26MOL0     O 3509   5.982   8.056   0.146 -0.4462 -0.3971 -0.7926
   26MOL0     C 3510   6.115   8.062   0.091 -0.0687  0.4620  0.4850
   26MOL0     C 3511   6.181   8.180   0.139 -0.5544 -0.9231  0.6399
   26MOL0     C 3512   6.323   8.203   0.092  0.0098  0.2779  0.1218
   26MOL0     C 3513   6.346   8.232  -0.055 -0.0299 -0.1843 -0.3117
   26MOL0     C 3514   6.480   8.193  -0.083 -0.9376 -1.0372  0.9684
   26MOL0     C 3515   6.598   8.168  -0.119  0.0405 -0.5826 -0.2286
   26MOL0     C 3516   5.799   7.932   0.177  0.7432  0.5140  0.0885
   26MOL0     C 3517   5.725   7.813   0.200 -0.0482 -0.4162 -0.3023
   26MOL0     C 3518   5.584   7.835   0.247 -0.0823 -0.4650  0.1472
   26MOL0     H 3519   5.727   7.290   0.427 -0.4931 -1.7218 -0.3122
   26MOL0     H 3520   5.562   7.118   0.466 -1.5013 -0.1806  2.6544
   26MOL0     H 3521   5.199   7.143   0.208 -1.2784  1.6346  0.8144
   26MOL0     H 3522   5.141   7.223   0.349  1.9716 -0.7502  1.9511
   26MOL0     H 3523   5.036   6.985   0.262 -1.2008  0.9330  1.0362
   26MOL0     H 3524   5.152   6.922   0.376  0.0119  0.8775  1.3295
   26MOL0     H 3525   5.080   7.041   0.555  1.7297  2.8335 -1.3854
   26MOL0     H 3526   4.977   7.151   0.463 -0.1136 -0.3540 -0.5573
   26MOL0     H 3527   4.835   6.955   0.403 -2.0814  0.2501  0.9605
   26MOL0     H 3528   4.939   6.853   0.516 -0.8948 -0.2152  0.3051
   26MOL0     H 3529   4.760   7.081   0.582 -1.6620 -1.0201 -0.2856
   26MOL0     H 3530   4.872   7.010   0.701 -2.3380  0.6884  1.9756
   26MOL0     H 3531   4.741   6.784   0.624 -0.0160 -0.8095  1.7915
   26MOL0     H 3532   4.676   6.880   0.745  1.7605 -1.6690  0.1781
   26MOL0     H 3533   4.609   6.961   0.449  0.4122 -1.8972 -1.5680
   26MOL0     H 3534   4.521   7.003   0.599 -2.9047 -1.9843  0.1479
   26MOL0     H 3535   4.448   6.780   0.628 -0.4758 -0.7320 -0.5066
   26MOL0     H 3536   4.404   6.827   0.453  0.1855  0.9783 -0.4018
   26MOL0     H 3537   4.614   6.782   0.274  4.8723  1.0176  0.7095
   26MOL0     H 3538   4.666   6.507   0.130  0.1959 -1.6904 -0.1496
   26MOL0     H 3539   4.762   6.411   0.238 -3.4060 -2.1976 -3.8389
   26MOL0     H 3540   4.910   6.519   0.112 -0.0224  0.1811  0.6189
   26MOL0     H 3541   4.842   6.683   0.135 -0.4867  0.7458  0.6451
   26MOL0     H 3542   4.902   6.642   0.381  0.9453  1.2815 -1.1702
   26MOL0     H 3543   4.956   6.485   0.328 -1.9289 -0.3046  0.8057
   26MOL0     H 3544   5.061   6.764   0.241 -1.1809 -0.2055  2.5823
   26MOL0     H 3545   5.134   6.661   0.360 -2.0679 -3.4417  1.4683
   26MOL0     H 3546   5.295   6.807   0.245 -0.6040  1.1779 -1.9477
   26MOL0     H 3547   5.656   6.892   0.207  0.7180  1.5316 -1.9498
   26MOL0     H 3548   5.508   6.932   0.288  0.2696 -2.1030  0.3714
   26MOL0     H 3549   5.531   6.984   0.116  1.3834  0.0132 -0.3605
   26MOL0     H 3550   5.844   6.837  -0.193 -2.1058 -1.1356 -2.9728
   26MOL0     H 3551   6.075   6.867  -0.267  2.0812 -0.3253 -0.1265
   26MOL0     H 3552   6.283   6.484  -0.367 -1.5402  1.1673  1.5416
   26MOL0     H 3553   6.301   6.593  -0.491 -0.0176  2.1814 -0.0352
   26MOL0     H 3554   6.540   6.563  -0.450  2.2413 -1.2713  2.0038
   26MOL0     H 3555   6.489   6.703  -0.365  2.0359 -0.4323 -1.6232
   26MOL0     H 3556   6.463   6.529  -0.152  2.2515 -0.6538  1.7308
   26MOL0     H 3557   6.619   6.569  -0.196  2.9254 -1.8129 -1.2376
   26MOL0     H 3558   6.648   6.369  -0.329 -0.7560  0.8734 -1.6397
   26MOL0     H 3559   6.487   6.312  -0.320 -1.8325  0.7202 -0.0439
   26MOL0     H 3560   6.668   6.356  -0.088 -0.1627 -0.5813  0.7079
   26MOL0     H 3561   6.495   6.339  -0.074 -0.3260 -0.1902 -0.2886
   26MOL0     H 3562   6.532   6.104  -0.202 -1.7040  0.8563  1.1272
   26MOL0     H 3563   6.576   6.118  -0.031  1.9030  1.3374  0.9045
   26MOL0     H 3564   6.818   6.140  -0.086  1.5917 -0.3082 -2.1294
   26MOL0     H 3565   6.780   6.160  -0.258  2.2222 -1.4192 -0.4141
   26MOL0     H 3566   6.708   5.910  -0.103 -1.2310 -0.4003 -1.5059
   26MOL0     H 3567   6.865   5.927  -0.174  0.5561  0.9729 -1.7435
   26MOL0     H 3568   6.146   6.450  -0.210 -1.3174  0.1055 -0.0080
   26MOL0     H 3569   5.919   6.423  -0.116 -1.9973  1.3141  0.4337
   26MOL0     H 3570   5.552   6.481  -0.029  2.4957  1.2578 -0.4997
   26MOL0     H 3571   5.312   6.456   0.012  1.4479 -1.0144 -0.0172
   26MOL0     H 3572   5.292   7.367   0.236  1.0552  1.7018 -2.8461
   26MOL0     H 3573   5.447   7.538   0.224  2.3797 -1.5922 -4.3967
   26MOL0     H 3574   5.956   7.598   0.094  0.6048  0.6261  1.7509
   26MOL0     H 3575   6.087   7.807   0.059  0.0766 -1.7532 -0.6441
   26MOL0     H 3576   6.173   7.976   0.125 -3.0352 -2.2081 -0.6943
   26MOL0     H 3577   6.098   8.063  -0.017 -2.8562 -3.7022  0.6217
   26MOL0     H 3578   6.184   8.163   0.247  0.1438  0.2350  0.8196
   26MOL0     H 3579   6.119   8.267   0.115 -0.5268 -1.5137 -1.7616
   26MOL0     H 3580   6.369   8.287   0.144  1.0907 -1.2916  1.7907
   26MOL0     H 3581   6.360   8.106   0.125 -3.2483 -0.0693  3.4097
   26MOL0     H 3582   6.319   8.334  -0.082 -0.7562 -0.5543 -1.0358
   26MOL0     H 3583   6.285   8.167  -0.119  0.1517  0.6835 -1.3998
   26MOL0     H 3584   6.697   8.150  -0.156  1.8326  3.4089  2.0039
   26MOL0     H 3585   5.747   8.023   0.206 -0.9481  0.0558 -1.3022
   26MOL0     H 3586   5.522   7.748   0.225  1.2492 -0.8925 -2.2982
   26MOL0     H 3587   5.593   7.853   0.354 -0.4804  0.9400 -0.0326
   26MOL0     H 3588   5.538   7.924   0.202 -3.4703 -1.9060  0.4799
   27MOL0     O 3589   8.814   5.335   9.835  0.0091  0.1283 -0.1155
   27MOL0     C 3590   8.822   5.451   9.801  0.5732 -0.1729  0.0493
   27MOL0     O 3591   8.936   5.518   9.798  0.1432 -0.5251 -0.6660
   27MOL0     C 3592   9.056   5.455   9.811  0.6325 -0.4034  0.3564
   27MOL0     C 3593   9.104   5.367   9.910  0.4452  0.4737 -0.1521
   27MOL0     C 3594   9.234   5.315   9.920  0.0765 -0.8173  0.5693
   27MOL0     C 3595   9.333   5.346   9.828 -0.4250  0.2541  0.2608
   27MOL0     O 3596   9.469   5.301   9.840 -0.3644 -0.2460 -0.4599
   27MOL0     C 3597   9.521   5.236   9.725  0.1666  0.2028  0.9407
   27MOL0     C 3598   9.504   5.088   9.732  0.3625  0.1414  0.6175
   27MOL0     C 3599   9.635   5.031   9.777  0.0820 -0.2440 -1.0987
   27MOL0     C 3600   9.638   4.877   9.766  0.0627 -0.3460  0.2261
   27MOL0     C 3601   9.755   4.804   9.823  0.2892  0.2868  0.7050
   27MOL0     C 3602   9.890   4.863   9.797  1.0785  0.1090 -0.0750
   27MOL0     C 3603  10.002   4.762   9.840  0.3958  0.5700 -0.7026
   27MOL0     C 3604  10.139   4.837   9.821 -0.0720  0.0655 -0.1169
   27MOL0     N 3605  10.252   4.752   9.856 -0.3680  0.1710  0.8718
   27MOL0     C 3606  10.295   4.741   9.984  0.1069  0.5997  1.1151
   27MOL0     C 3607  10.396   4.653   9.984  0.6112 -0.7378 -0.6111
   27MOL0     C 3608  10.468   4.605  10.114  0.2747 -0.0752 -0.1429
   27MOL0     C 3609  10.594   4.526  10.073 -0.7471  0.2001  0.4040
   27MOL0     C 3610  10.652   4.461  10.197 -0.5111 -0.3246  0.3613
   27MOL0     C 3611  10.773   4.386  10.163 -0.4522  0.1081  1.1863
   27MOL0     O 3612  10.747   4.294  10.058 -0.2463  0.2486  0.0713
   27MOL0     C 3613  10.851   4.216  10.008 -0.0992 -0.4109  0.1508
   27MOL0     C 3614  10.827   4.149   9.890  0.5835  0.5808  0.3505
   27MOL0     C 3615  10.919   4.059   9.845 -0.0614 -0.1737  0.4909
   27MOL0     C 3616  10.870   3.990   9.718  0.7040  0.9646  0.1689
   27MOL0     C 3617  11.031   4.017   9.917  0.7470 -0.4778  0.2972
   27MOL0     C 3618  11.125   3.906   9.877 -0.5453 -1.0830 -0.6489
   27MOL0     O 3619  11.126   3.874   9.744 -0.1879 -0.9197 -0.5974
   27MOL0     C 3620  11.206   3.779   9.694 -0.2043 -0.7021  0.7167
   27MOL0     C 3621  11.181   3.641   9.721 -0.5084  0.1575  1.2650
   27MOL0     C 3622  11.266   3.542   9.671 -0.2094 -0.8026 -0.1134
   27MOL0     C 3623  11.381   3.582   9.596 -0.4855  0.2966  0.1462
   27MOL0     O 3624  11.461   3.484   9.547 -0.5013  0.5779 -0.4857
   27MOL0     C 3625  11.589   3.517   9.503 -0.4978  0.2182  0.4141
   27MOL0     C 3626  11.671   3.388   9.499  0.2882 -0.1989 -0.5997
   27MOL0     C 3627  11.803   3.404   9.420  0.0508 -0.3340 -0.2410
   27MOL0     C 3628  11.883   3.287   9.433  0.3403  1.6517 -0.6531
   27MOL0     C 3629  11.994   3.287   9.331  0.1202 -0.3166 -0.0548
   27MOL0     C 3630  11.967   3.198   9.214 -0.6311  0.0419  0.2359
   27MOL0     C 3631  12.100   3.173   9.135 -0.3391 -0.0229  0.5330
   27MOL0     C 3632  12.186   3.297   9.084  0.0794  0.2437  0.4139
   27MOL0    Cl 3633  12.069   3.415   9.027  0.1901  0.3139 -0.2878
   27MOL0     C 3634  11.401   3.715   9.562  0.1325  0.4460  0.8601
   27MOL0     C 3635  11.320   3.818   9.618 -0.0522  0.3792  0.3192
   27MOL0     O 3636  11.191   3.856   9.966 -0.8063  0.0804  0.6414
   27MOL0     C 3637  11.049   4.081  10.045  0.1411  1.0117  0.8753
   27MOL0     C 3638  10.957   4.175  10.087 -1.1351 -0.3985  0.3020
   27MOL0     N 3639  10.424   4.622   9.856 -0.5264  0.4287  0.4517
   27MOL0     N 3640  10.327   4.670   9.779  0.0845 -0.6444 -0.6396
   27MOL0     C 3641   9.293   5.442   9.729  0.5366  0.3452 -0.5679
   27MOL0     C 3642   9.158   5.491   9.720 -0.1720  0.0302 -0.0239
   27MOL0     C 3643   8.703   5.516   9.754  0.7510  0.1545  0.5052
   27MOL0     C 3644   8.699   5.656   9.719  0.3939  0.0991 -0.0971
   27MOL0     C 3645   8.583   5.717   9.672 -0.0552  0.3258  0.2103
   27MOL0     C 3646   8.464   5.639   9.660 -0.2865  1.1292 -0.1941
   27MOL0     O 3647   8.335   5.686   9.610 -0.6328  0.0589  0.2017
   27MOL0     C 3648   8.290   5.817   9.647 -0.4011  0.1099 -0.2897
   27MOL0     C 3649   8.248   5.845   9.789 -0.4110 -1.0307  0.3900
   27MOL0     C 3650   8.127   5.764   9.819  0.7779  0.1341 -0.5879
   27MOL0     C 3651   8.115   5.719   9.970 -0.1692 -0.9222  0.9153
   27MOL0     C 3652   7.997   5.637   9.977 -1.1246  0.8905 -0.4342
   27MOL0     C 3653   7.898   5.573   9.989  0.4159  0.0234  0.9989
   27MOL0     C 3654   8.463   5.508   9.697 -0.0816 -0.0483 -0.4830
   27MOL0     C 3655   8.576   5.447   9.754 -0.2551 -0.2077 -0.5165
   27MOL0     C 3656   8.551   5.306   9.813  0.1864  0.0404  0.3106
   27MOL0     H 3657   9.028   5.328   9.978 -0.2054 -0.6452 -1.4748
   27MOL0     H 3658   9.265   5.251  10.003 -0.3427  0.6692  1.9338
   27MOL0     H 3659   9.626   5.265   9.715  0.2607  0.3026  2.0992
   27MOL0     H 3660   9.467   5.265   9.635  2.3956  0.5155 -0.3763
   27MOL0     H 3661   9.424   5.059   9.800  0.8056 -0.9019  0.7088
   27MOL0     H 3662   9.478   5.043   9.636  0.3576  1.5992 -0.0827
   27MOL0     H 3663   9.717   5.070   9.716  0.6394 -1.0132 -0.8765
   27MOL0     H 3664   9.651   5.056   9.882  2.3274 -0.3857 -1.3550
   27MOL0     H 3665   9.539   4.849   9.803 -1.1631  0.1552 -2.4351
   27MOL0     H 3666   9.635   4.863   9.657 -0.4308  0.5733  0.1025
   27MOL0     H 3667   9.757   4.701   9.786 -0.7115  1.3020 -2.4491
   27MOL0     H 3668   9.743   4.793   9.931 -1.8734 -3.4779  0.2709
   27MOL0     H 3669   9.895   4.886   9.690 -0.9055 -2.8528 -0.9422
   27MOL0     H 3670   9.887   4.955   9.856 -0.7174 -1.2530  2.0788
   27MOL0     H 3671  10.007   4.667   9.785  4.2705 -0.1015  0.5195
   27MOL0     H 3672   9.993   4.728   9.943  0.9935 -0.4481 -0.9706
   27MOL0     H 3673  10.155   4.881   9.722  0.3046 -2.0241 -1.0354
   27MOL0     H 3674  10.137   4.923   9.888  1.9837  0.5869 -0.6645
   27MOL0     H 3675  10.245   4.776  10.074 -1.7344 -1.9659  1.1841
   27MOL0     H 3676  10.395   4.541  10.164  1.0025  0.7112  2.0132
   27MOL0     H 3677  10.488   4.689  10.181  2.8280 -1.1083  0.4895
   27MOL0     H 3678  10.572   4.454   9.994 -2.1614  0.5959  0.4084
   27MOL0     H 3679  10.670   4.594  10.034 -0.3527 -0.6123 -0.2595
   27MOL0     H 3680  10.680   4.541  10.266 -0.3976 -0.4723  0.4888
   27MOL0     H 3681  10.584   4.389  10.246 -0.2514 -0.6525  0.2464
   27MOL0     H 3682  10.846   4.456  10.122  0.3003 -2.3083 -2.0001
   27MOL0     H 3683  10.809   4.342  10.257 -1.0796  0.0888  1.4219
   27MOL0     H 3684  10.727   4.176   9.857 -0.3538  0.3295  2.8281
   27MOL0     H 3685  10.933   4.012   9.632 -0.4955 -3.3507 -2.1040
   27MOL0     H 3686  10.774   4.025   9.679 -0.9258 -4.4030 -1.4065
   27MOL0     H 3687  10.866   3.882   9.737  3.0371  1.0186  1.3080
   27MOL0     H 3688  11.084   3.614   9.761 -0.0727 -2.4933  0.7247
   27MOL0     H 3689  11.264   3.441   9.709  2.3209 -0.8730  0.0510
   27MOL0     H 3690  11.583   3.560   9.402 -0.5263  0.5916  0.5757
   27MOL0     H 3691  11.640   3.590   9.566  6.0290 -2.5898 -0.7560
   27MOL0     H 3692  11.703   3.359   9.599  3.9105  1.6616 -1.0781
   27MOL0     H 3693  11.595   3.320   9.458 -3.3363  1.3263  2.9082
   27MOL0     H 3694  11.852   3.495   9.455 -1.2376  0.9633 -1.6577
   27MOL0     H 3695  11.785   3.419   9.313 -1.4982  2.3240  0.2966
   27MOL0     H 3696  11.828   3.195   9.451  1.8073  1.2365  2.6093
   27MOL0     H 3697  11.944   3.304   9.523 -0.5498  0.7982  0.1380
   27MOL0     H 3698  12.001   3.390   9.295 -1.1331 -0.4243 -0.6639
   27MOL0     H 3699  12.089   3.257   9.377  1.8586  1.9090 -1.9521
   27MOL0     H 3700  11.890   3.228   9.143 -0.7144  0.5041  0.5160
   27MOL0     H 3701  11.932   3.102   9.253  2.4117 -0.3327  2.3883
   27MOL0     H 3702  12.058   3.123   9.047 -3.0337  1.6863  0.7329
   27MOL0     H 3703  12.162   3.097   9.185  0.2192  0.3700  0.4459
   27MOL0     H 3704  12.252   3.267   9.002  0.7101  0.0387  0.9838
   27MOL0     H 3705  12.239   3.335   9.172 -1.2477 -3.3366  3.0167
   27MOL0     H 3706  11.477   3.754   9.495 -0.2010  0.4730  0.4906
   27MOL0     H 3707  11.344   3.923   9.604  0.3308  0.1726 -0.6732
   27MOL0     H 3708  11.133   4.054  10.109  0.2485 -0.4534  0.1661
   27MOL0     H 3709  10.966   4.213  10.189  0.7023 -1.8015  0.7224
   27MOL0     H 3710   9.369   5.468   9.656 -1.1316  1.6619 -1.9542
   27MOL0     H 3711   9.138   5.565   9.642  1.4093 -0.3681 -0.8492
   27MOL0     H 3712   8.786   5.720   9.721 -0.4789  1.3976  3.0038
   27MOL0     H 3713   8.586   5.824   9.656 -0.5829  0.5575  1.5169
   27MOL0     H 3714   8.368   5.890   9.624 -1.5666  1.6454  0.4407
   27MOL0     H 3715   8.208   5.843   9.580 -1.4532  2.0821  1.6476
   27MOL0     H 3716   8.241   5.952   9.805 -1.2953 -1.0662  0.2939
   27MOL0     H 3717   8.333   5.817   9.853  1.0509  2.3567  0.1099
   27MOL0     H 3718   8.040   5.830   9.806  0.7180  1.6664  5.0065
   27MOL0     H 3719   8.123   5.679   9.751  0.7435 -0.0247 -0.3882
   27MOL0     H 3720   8.104   5.806  10.035 -2.3224  0.9189 -1.6752
   27MOL0     H 3721   8.198   5.659  10.006 -0.6721  0.2939  4.5033
   27MOL0     H 3722   7.817   5.503   9.983  2.0796 -1.8480 -3.0818
   27MOL0     H 3723   8.371   5.451   9.707 -1.1605  1.6203 -0.4817
   27MOL0     H 3724   8.578   5.231   9.738 -1.3851 -0.6200  0.3645
   27MOL0     H 3725   8.606   5.292   9.906  1.8448 -0.8872 -0.7448
   27MOL0     H 3726   8.443   5.305   9.830  0.0877 -0.3653 -0.2880
   28MOL0     O 3727   8.153   5.277   1.901  0.0269  0.1080  0.0246
   28MOL0     C 3728   8.186   5.396   1.891 -0.1112  0.5491  0.4315
   28MOL0     O 3729   8.111   5.499   1.835 -0.0433  0.0485  0.4091
   28MOL0     C 3730   7.994   5.468   1.772 -1.6086  0.1995  0.3720
   28MOL0     C 3731   7.882   5.547   1.796 -0.7562 -0.4972 -0.3873
   28MOL0     C 3732   7.758   5.521   1.743  0.9913  0.6919  0.3759
   28MOL0     C 3733   7.748   5.404   1.658  0.3031 -0.1029 -0.2865
   28MOL0     O 3734   7.616   5.393   1.614  0.7727 -0.6691  0.1889
   28MOL0     C 3735   7.578   5.285   1.529 -0.2007  0.7614 -0.4920
   28MOL0     C 3736   7.425   5.270   1.514 -0.1825 -0.3460  0.2685
   28MOL0     C 3737   7.386   5.156   1.415 -0.0938  0.1447 -0.2808
   28MOL0     C 3738   7.430   5.182   1.261  0.8286  0.1451  0.5068
   28MOL0     C 3739   7.337   5.289   1.206 -0.0189 -0.1507  0.8341
   28MOL0     C 3740   7.384   5.329   1.064 -0.0371  0.2847 -0.0939
   28MOL0     C 3741   7.515   5.401   1.058 -0.4501 -0.0295  0.6985
   28MOL0     C 3742   7.546   5.506   1.161  1.0436  0.3773  0.5632
   28MOL0     N 3743   7.631   5.608   1.109 -0.2176  0.3424  0.3383
   28MOL0     C 3744   7.618   5.746   1.125  0.3238 -0.1924 -1.5178
   28MOL0     C 3745   7.741   5.796   1.103 -0.2023  0.2092  0.4386
   28MOL0     C 3746   7.772   5.930   1.146  0.2901 -1.2848  0.8358
   28MOL0     C 3747   7.923   5.945   1.159  0.3793 -0.1910  0.1168
   28MOL0     C 3748   7.956   6.094   1.185  0.2260  0.0122 -0.5309
   28MOL0     C 3749   8.085   6.108   1.259 -0.5718  0.3793 -0.1462
   28MOL0     O 3750   8.184   6.046   1.174 -0.0668  0.1794 -0.5112
   28MOL0     C 3751   8.304   6.032   1.234 -0.1685 -0.4555  0.9826
   28MOL0     C 3752   8.395   5.944   1.169 -0.0422 -0.0263 -0.7392
   28MOL0     C 3753   8.521   5.927   1.233 -0.1389  0.7202  0.4278
   28MOL0     C 3754   8.591   5.817   1.172 -0.0543 -0.2260  0.0971
   28MOL0     C 3755   8.572   5.993   1.346  0.1680 -0.0220 -0.1243
   28MOL0     C 3756   8.689   5.956   1.426  0.7512 -0.0017  0.3324
   28MOL0     O 3757   8.739   6.051   1.514  0.0935 -0.3567 -0.4049
   28MOL0     C 3758   8.855   6.015   1.588  0.6334 -0.7954  0.0681
   28MOL0     C 3759   8.959   6.108   1.607 -0.7129  0.0349  0.8735
   28MOL0     C 3760   9.064   6.083   1.691  0.3427 -0.5690  0.1505
   28MOL0     C 3761   9.082   5.964   1.749  0.1476  0.6377 -0.2682
   28MOL0     O 3762   9.187   5.934   1.833  0.3702 -0.6858  0.0867
   28MOL0     C 3763   9.300   6.027   1.829 -0.5619  0.0579 -0.8984
   28MOL0     C 3764   9.413   5.972   1.920  0.8626 -0.7831 -0.2361
   28MOL0     C 3765   9.474   5.856   1.849 -0.2740  0.4034  0.7898
   28MOL0     C 3766   9.569   5.766   1.918 -0.4755  0.2567  0.0460
   28MOL0     C 3767   9.640   5.681   1.828 -0.2163  0.2358  0.6529
   28MOL0     C 3768   9.756   5.606   1.888  0.1230  0.7436  0.1692
   28MOL0     C 3769   9.814   5.490   1.811  0.5040 -0.3688  0.2930
   28MOL0     C 3770   9.911   5.530   1.711 -0.2014  0.2618  0.0053
   28MOL0    Cl 3771   9.988   5.388   1.658  0.4786  0.4514 -0.0259
   28MOL0     C 3772   8.984   5.869   1.740  0.4646  0.5314  0.4083
   28MOL0     C 3773   8.873   5.895   1.651  0.8059  0.5856 -0.9501
   28MOL0     O 3774   8.736   5.838   1.408  0.7088 -0.2534 -0.2363
   28MOL0     C 3775   8.492   6.095   1.396 -0.3476  0.8955  0.6620
   28MOL0     C 3776   8.358   6.113   1.343 -0.3553  0.9321 -0.5523
   28MOL0     N 3777   7.826   5.700   1.077 -0.0918 -0.0281  0.4493
   28MOL0     N 3778   7.770   5.581   1.079 -0.1870 -0.2160 -0.5987
   28MOL0     C 3779   7.849   5.323   1.629 -0.5294 -0.8754 -0.6406
   28MOL0     C 3780   7.973   5.355   1.685  0.1339 -0.4095  0.0668
   28MOL0     C 3781   8.322   5.428   1.942 -0.2198  0.0937  0.5410
   28MOL0     C 3782   8.425   5.322   1.940 -0.1804 -0.2482  0.4076
   28MOL0     C 3783   8.558   5.344   1.982  0.7063 -0.2746 -0.2802
   28MOL0     C 3784   8.592   5.471   2.019 -0.6664 -0.4934 -0.5428
   28MOL0     O 3785   8.720   5.484   2.070  0.4451  0.2779 -0.4295
   28MOL0     C 3786   8.772   5.612   2.103 -0.1915 -0.0474 -0.1744
   28MOL0     C 3787   8.912   5.594   2.163 -0.0536  0.7762 -0.5051
   28MOL0     C 3788   8.965   5.708   2.259 -0.1216 -0.2526  0.6535
   28MOL0     C 3789   9.029   5.819   2.179  1.0590 -0.4951 -0.0974
   28MOL0     C 3790   9.089   5.919   2.268 -0.4032 -0.1457 -0.7178
   28MOL0     C 3791   9.121   5.999   2.350 -1.0131 -0.0803 -0.3638
   28MOL0     C 3792   8.500   5.579   2.015  1.0644  0.0902 -0.2796
   28MOL0     C 3793   8.361   5.557   1.980 -1.1447 -0.1669 -1.0827
   28MOL0     C 3794   8.268   5.674   2.001  0.1343  0.0620  0.2557
   28MOL0     H 3795   7.898   5.628   1.866 -1.2229  1.8759 -2.8422
   28MOL0     H 3796   7.674   5.587   1.761  1.5136  1.6361 -0.5893
   28MOL0     H 3797   7.603   5.192   1.582 -0.4842  0.5976 -0.6470
   28MOL0     H 3798   7.633   5.287   1.434 -3.2677 -0.4540 -2.4487
   28MOL0     H 3799   7.387   5.253   1.615 -0.9372  0.9945  0.2327
   28MOL0     H 3800   7.383   5.368   1.489  1.7719  0.9506  1.7100
   28MOL0     H 3801   7.438   5.065   1.445 -0.1700  0.5805  1.2432
   28MOL0     H 3802   7.280   5.127   1.420  0.0360 -0.2311  0.4726
   28MOL0     H 3803   7.534   5.216   1.262  0.0655  2.7495  2.4115
   28MOL0     H 3804   7.419   5.089   1.204  1.0383 -0.0329  0.7524
   28MOL0     H 3805   7.335   5.378   1.270  1.0690 -0.7259  1.7013
   28MOL0     H 3806   7.236   5.246   1.203  1.4912 -3.9525 -0.9000
   28MOL0     H 3807   7.405   5.243   0.999 -0.5864 -0.9837  1.3482
   28MOL0     H 3808   7.303   5.390   1.024  0.3772 -0.9574 -3.0826
   28MOL0     H 3809   7.517   5.441   0.956  2.7828  1.1897  1.1158
   28MOL0     H 3810   7.600   5.332   1.059  1.5664  2.3270  0.0146
   28MOL0     H 3811   7.454   5.552   1.200 -0.5377 -1.9264 -0.2300
   28MOL0     H 3812   7.593   5.459   1.248  2.2167  0.2065 -0.1484
   28MOL0     H 3813   7.536   5.805   1.164  0.7692 -0.1515 -0.6051
   28MOL0     H 3814   7.731   5.948   1.246 -1.4787  0.6863 -0.1566
   28MOL0     H 3815   7.738   6.008   1.077  0.2781 -0.4204  1.7912
   28MOL0     H 3816   7.962   5.881   1.238  1.1138 -0.7389 -0.6674
   28MOL0     H 3817   7.970   5.911   1.066  2.8711  0.6370  0.9829
   28MOL0     H 3818   7.972   6.146   1.090 -1.9986 -0.8845 -1.4580
   28MOL0     H 3819   7.884   6.132   1.259  0.3824 -0.4566 -0.1321
   28MOL0     H 3820   8.111   6.213   1.278  0.6895 -0.3756  2.9804
   28MOL0     H 3821   8.068   6.064   1.358 -0.5530  0.4303 -0.1202
   28MOL0     H 3822   8.364   5.896   1.076 -1.6670  1.9870 -1.3117
   28MOL0     H 3823   8.572   5.807   1.065 -1.4739  2.3419  0.0369
   28MOL0     H 3824   8.568   5.720   1.217  2.6019 -0.3438  1.3885
   28MOL0     H 3825   8.696   5.847   1.174  1.8023 -5.5155  2.4669
   28MOL0     H 3826   8.956   6.208   1.566 -0.8040 -0.3379 -0.0733
   28MOL0     H 3827   9.130   6.167   1.712  2.9484 -2.0788 -1.5135
   28MOL0     H 3828   9.347   6.031   1.730 -0.5613  0.3056 -0.8878
   28MOL0     H 3829   9.273   6.128   1.863 -1.9738 -0.2060 -1.1445
   28MOL0     H 3830   9.489   6.043   1.954  0.8568 -1.5309  1.4400
   28MOL0     H 3831   9.366   5.928   2.009  1.4604  0.7427  0.8745
   28MOL0     H 3832   9.518   5.900   1.759 -4.9066  1.7565 -1.1390
   28MOL0     H 3833   9.392   5.794   1.810 -1.5602 -0.0987  3.9504
   28MOL0     H 3834   9.518   5.700   1.989 -1.1547  0.5440 -0.1657
   28MOL0     H 3835   9.641   5.825   1.975  1.1157 -3.3977  2.1760
   28MOL0     H 3836   9.579   5.602   1.783 -0.1075  0.2037  0.5616
   28MOL0     H 3837   9.684   5.732   1.742 -2.4765 -0.9234 -1.3220
   28MOL0     H 3838   9.717   5.561   1.980  0.2580 -0.6341 -0.4295
   28MOL0     H 3839   9.838   5.672   1.918  2.2443 -2.0183  0.8861
   28MOL0     H 3840   9.739   5.430   1.757 -0.6417 -0.2720  1.7006
   28MOL0     H 3841   9.853   5.423   1.888  0.0495 -0.4379  0.4667
   28MOL0     H 3842   9.981   5.595   1.764 -0.3574  0.2541  0.2243
   28MOL0     H 3843   9.851   5.570   1.629 -2.1640 -2.5978 -0.1146
   28MOL0     H 3844   8.984   5.778   1.798 -2.4488  0.8610  1.0776
   28MOL0     H 3845   8.795   5.820   1.661  0.1464  1.3803  0.0204
   28MOL0     H 3846   8.532   6.150   1.480  0.5711  1.8753 -0.3897
   28MOL0     H 3847   8.297   6.190   1.388 -0.4731  2.1789 -2.7108
   28MOL0     H 3848   7.824   5.243   1.559 -0.5572 -1.2777 -0.1749
   28MOL0     H 3849   8.056   5.288   1.663 -1.1925 -2.0431 -0.0804
   28MOL0     H 3850   8.402   5.224   1.901 -1.0556 -0.8367  2.2959
   28MOL0     H 3851   8.635   5.268   1.986  1.6658  0.7200  1.0907
   28MOL0     H 3852   8.775   5.676   2.014  0.8129 -0.4358 -0.4318
   28MOL0     H 3853   8.712   5.672   2.172 -0.8547  0.2950 -1.0159
   28MOL0     H 3854   8.994   5.575   2.093  0.8829  0.7687  0.5553
   28MOL0     H 3855   8.905   5.497   2.214 -1.8679  0.6959 -0.8479
   28MOL0     H 3856   8.882   5.747   2.318  0.0729  0.5251  0.4228
   28MOL0     H 3857   9.039   5.663   2.326  0.0455  0.2423  0.8047
   28MOL0     H 3858   8.950   5.881   2.136  0.7881 -0.5401  0.3385
   28MOL0     H 3859   9.103   5.791   2.103  0.6359  3.2159 -2.1306
   28MOL0     H 3860   9.147   6.066   2.430 -1.1805 -1.6877  1.0950
   28MOL0     H 3861   8.528   5.681   2.039  0.7455 -0.2520  1.7486
   28MOL0     H 3862   8.193   5.648   2.075 -0.8263  0.5480 -0.5283
   28MOL0     H 3863   8.328   5.765   2.015 -1.6080  1.4788 -1.0253
   28MOL0     H 3864   8.220   5.703   1.907  1.4588  2.1691  0.1298
   29MOL0     O 3865   9.724   2.162   1.022 -0.6002 -0.6360 -0.4012
   29MOL0     C 3866   9.675   2.168   1.133  1.4989 -0.6523  1.0842
   29MOL0     O 3867   9.745   2.171   1.243  0.4181  0.0875  0.2829
   29MOL0     C 3868   9.880   2.186   1.234 -0.4746  0.1245 -0.9566
   29MOL0     C 3869   9.937   2.299   1.163 -0.3494  0.4698 -0.8081
   29MOL0     C 3870  10.079   2.310   1.161 -0.3446  0.7918  0.2348
   29MOL0     C 3871  10.159   2.224   1.242 -0.2415  0.1418 -0.2732
   29MOL0     O 3872  10.295   2.243   1.240  0.1980  0.5749 -0.4257
   29MOL0     C 3873  10.379   2.210   1.355 -0.3812 -0.7592 -0.6457
   29MOL0     C 3874  10.358   2.302   1.478  0.5606 -0.5429  0.3015
   29MOL0     C 3875  10.403   2.227   1.608  0.3375  0.0227 -0.8414
   29MOL0     C 3876  10.555   2.217   1.601 -0.0000 -0.2453 -0.1199
   29MOL0     C 3877  10.619   2.175   1.734  0.3237  0.1243  0.0460
   29MOL0     C 3878  10.772   2.177   1.736 -0.3994  0.7947 -0.1738
   29MOL0     C 3879  10.829   2.156   1.881  0.1941  0.4327 -0.8874
   29MOL0     C 3880  10.976   2.201   1.886  0.2572  0.4002 -0.5595
   29MOL0     N 3881  11.048   2.133   1.989  0.1533  0.0485 -0.2545
   29MOL0     C 3882  11.140   2.029   1.977  0.8506  0.8761  0.4063
   29MOL0     C 3883  11.163   1.983   2.102  0.3506 -0.6631  0.1780
   29MOL0     C 3884  11.279   1.889   2.141 -0.9328  0.6928 -0.2787
   29MOL0     C 3885  11.416   1.930   2.082 -0.1877  0.6180  0.5331
   29MOL0     C 3886  11.505   2.005   2.175  0.0121 -1.4585  0.4976
   29MOL0     C 3887  11.465   2.149   2.201 -0.1647  0.3462  0.4453
   29MOL0     O 3888  11.549   2.215   2.290 -0.5294 -0.1905  0.6953
   29MOL0     C 3889  11.545   2.188   2.423 -0.8381 -0.4109  0.0499
   29MOL0     C 3890  11.428   2.152   2.500 -0.4852 -0.1543  0.6370
   29MOL0     C 3891  11.432   2.146   2.639  0.4400 -0.2515 -0.3855
   29MOL0     C 3892  11.296   2.114   2.697  0.1664 -0.3733  0.1461
   29MOL0     C 3893  11.556   2.155   2.704 -0.1188  0.1183 -0.1848
   29MOL0     C 3894  11.573   2.129   2.859 -0.6477 -0.5892  0.1730
   29MOL0     O 3895  11.475   2.060   2.923 -0.1620  0.5001  0.0516
   29MOL0     C 3896  11.495   2.036   3.058 -0.2063  0.2752 -0.3315
   29MOL0     C 3897  11.512   1.903   3.108 -0.4423  0.9086 -0.0432
   29MOL0     C 3898  11.515   1.877   3.246 -0.1199  0.5597  0.1736
   29MOL0     C 3899  11.510   1.986   3.340  0.1407 -0.6517  0.0169
   29MOL0     O 3900  11.511   1.946   3.474 -0.1202 -0.6939  0.1565
   29MOL0     C 3901  11.510   2.043   3.584  0.3288  0.0781  1.0460
   29MOL0     C 3902  11.372   2.064   3.629 -0.0211  0.4918 -0.2623
   29MOL0     C 3903  11.374   2.144   3.760 -0.1167 -0.0380 -0.3034
   29MOL0     C 3904  11.234   2.163   3.824 -1.3171  0.2513 -0.7376
   29MOL0     C 3905  11.226   2.258   3.952  0.0204 -0.3599 -0.8463
   29MOL0     C 3906  11.092   2.304   3.984  0.1842 -0.0686 -0.3267
   29MOL0     C 3907  10.979   2.211   4.020 -0.0722  0.6903 -0.4640
   29MOL0     C 3908  10.978   2.171   4.158 -0.1184  0.1319  0.4456
   29MOL0    Cl 3909  10.935   2.324   4.243  0.0151  0.4826 -0.0405
   29MOL0     C 3910  11.496   2.115   3.289 -0.5937 -0.9709 -0.9425
   29MOL0     C 3911  11.470   2.134   3.158 -0.1463  0.6790 -0.4004
   29MOL0     O 3912  11.682   2.176   2.910  0.0456 -0.1080  1.0604
   29MOL0     C 3913  11.673   2.185   2.629  0.0041  0.0016 -0.8605
   29MOL0     C 3914  11.662   2.201   2.488  0.0528  0.5294 -0.0188
   29MOL0     N 3915  11.100   2.060   2.192  0.4749 -0.4754 -0.2531
   29MOL0     N 3916  11.027   2.149   2.125 -0.2301  0.1767 -0.2044
   29MOL0     C 3917  10.094   2.122   1.312 -0.6933  0.4520  0.0179
   29MOL0     C 3918   9.957   2.104   1.315  0.9220  0.2797 -0.4336
   29MOL0     C 3919   9.524   2.173   1.152  0.2558 -0.3775  0.3794
   29MOL0     C 3920   9.476   2.191   1.284  0.0381 -0.2305  0.1611
   29MOL0     C 3921   9.341   2.196   1.311  0.8240 -0.7752 -0.6155
   29MOL0     C 3922   9.247   2.171   1.209  0.3216 -0.0706 -0.2794
   29MOL0     O 3923   9.112   2.179   1.231 -1.0129 -0.3155 -0.1775
   29MOL0     C 3924   9.067   2.173   1.366 -1.1045  0.4099  0.8389
   29MOL0     C 3925   8.921   2.136   1.368 -0.7018 -0.3124  0.7276
   29MOL0     C 3926   8.894   2.012   1.288  0.1611 -0.0267  1.5057
   29MOL0     C 3927   8.750   1.978   1.316 -0.9633 -0.3778  0.1335
   29MOL0     C 3928   8.734   1.896   1.435 -0.0143  1.4876 -0.5278
   29MOL0     C 3929   8.720   1.830   1.540 -0.3638  1.1346 -0.1588
   29MOL0     C 3930   9.294   2.151   1.080 -0.6533 -0.5110 -0.1579
   29MOL0     C 3931   9.426   2.153   1.046  0.4228  0.8095 -0.1131
   29MOL0     C 3932   9.462   2.121   0.903  0.2101  0.1417  0.2153
   29MOL0     H 3933   9.875   2.374   1.116 -0.6571  2.5654  2.6444
   29MOL0     H 3934  10.138   2.391   1.119  2.9013 -1.1548  0.7223
   29MOL0     H 3935  10.487   2.217   1.339 -0.6935 -0.2993 -3.0473
   29MOL0     H 3936  10.359   2.115   1.405  1.3135 -0.1416  1.3705
   29MOL0     H 3937  10.404   2.398   1.453  0.0478 -0.4820 -0.4612
   29MOL0     H 3938  10.253   2.326   1.496  0.8878  0.0334  1.4881
   29MOL0     H 3939  10.363   2.275   1.698 -0.7930 -1.0980 -0.7183
   29MOL0     H 3940  10.363   2.127   1.625 -0.6930  0.7166  1.1920
   29MOL0     H 3941  10.583   2.140   1.529  1.6632 -0.1591  0.3805
   29MOL0     H 3942  10.603   2.314   1.591 -0.0828  0.3678  3.6786
   29MOL0     H 3943  10.593   2.073   1.765  0.8133  0.0387  0.1807
   29MOL0     H 3944  10.566   2.233   1.810 -0.5174 -0.1266 -0.3314
   29MOL0     H 3945  10.813   2.100   1.670  3.1832  0.5185  2.1323
   29MOL0     H 3946  10.813   2.270   1.697  2.8871 -0.6295 -0.4447
   29MOL0     H 3947  10.819   2.048   1.896  1.6062  0.5649  1.5649
   29MOL0     H 3948  10.774   2.209   1.959 -2.7319 -4.2213  0.6358
   29MOL0     H 3949  11.033   2.184   1.794  1.0278 -0.8961  0.1343
   29MOL0     H 3950  10.983   2.309   1.901 -0.9160  0.4225 -0.0238
   29MOL0     H 3951  11.166   1.989   1.880 -0.7534 -0.6454  0.5566
   29MOL0     H 3952  11.261   1.789   2.102 -0.7574  2.2074 -4.7533
   29MOL0     H 3953  11.292   1.885   2.250  2.2795 -1.4986 -0.6020
   29MOL0     H 3954  11.468   1.843   2.042 -1.1508 -0.6238  1.9047
   29MOL0     H 3955  11.389   1.989   1.993 -0.5607  1.4345  1.1686
   29MOL0     H 3956  11.517   1.951   2.269  1.2245 -1.1180  0.5430
   29MOL0     H 3957  11.602   2.010   2.124  0.3365 -2.2358  1.0134
   29MOL0     H 3958  11.468   2.203   2.105 -2.1730  0.6213  0.4763
   29MOL0     H 3959  11.359   2.147   2.230 -1.3605 -1.6441 -3.3784
   29MOL0     H 3960  11.336   2.143   2.443 -0.9248 -0.7759  1.4162
   29MOL0     H 3961  11.218   2.122   2.620  1.9323  0.3342 -1.6374
   29MOL0     H 3962  11.260   2.175   2.780 -1.7400 -1.2664  0.0609
   29MOL0     H 3963  11.298   2.007   2.720 -0.6486 -1.0068 -2.4063
   29MOL0     H 3964  11.501   1.816   3.044 -0.2869  0.0180  1.0993
   29MOL0     H 3965  11.516   1.782   3.297 -0.7014  0.3322 -0.2221
   29MOL0     H 3966  11.558   1.993   3.669 -0.5068 -0.4007  1.2478
   29MOL0     H 3967  11.547   2.143   3.559 -0.7664  0.8542  2.3777
   29MOL0     H 3968  11.314   2.111   3.549 -1.3936 -0.8221 -0.0992
   29MOL0     H 3969  11.325   1.966   3.639  1.7527 -0.3298  0.3900
   29MOL0     H 3970  11.408   2.246   3.738 -0.2377 -0.1983 -1.2506
   29MOL0     H 3971  11.433   2.089   3.834  0.6213  0.7133 -0.3060
   29MOL0     H 3972  11.208   2.068   3.872 -1.1692  0.7408  0.3382
   29MOL0     H 3973  11.147   2.181   3.760 -0.5155  0.0022 -1.9338
   29MOL0     H 3974  11.273   2.204   4.035 -0.7084 -2.0709 -1.5012
   29MOL0     H 3975  11.289   2.347   3.940 -2.5866  2.0690  1.7039
   29MOL0     H 3976  11.056   2.354   3.894 -3.4074 -0.9647  0.4692
   29MOL0     H 3977  11.106   2.382   4.058 -0.7047 -2.4438  2.5304
   29MOL0     H 3978  11.007   2.120   3.966 -2.2252 -0.3464  0.0910
   29MOL0     H 3979  10.878   2.238   3.988 -0.7073 -2.4172 -1.3958
   29MOL0     H 3980  11.079   2.142   4.188  0.3959  2.4203  1.1580
   29MOL0     H 3981  10.903   2.095   4.181  1.1555 -1.7970 -1.3959
   29MOL0     H 3982  11.488   2.199   3.358 -0.7686  1.0216 -3.2303
   29MOL0     H 3983  11.433   2.233   3.132  0.0427  0.6819 -0.6661
   29MOL0     H 3984  11.766   2.195   2.684 -0.8886 -2.2052  1.2491
   29MOL0     H 3985  11.743   2.220   2.419 -1.9074  0.4035 -2.4993
   29MOL0     H 3986  10.155   2.058   1.374  1.9417  2.3575 -0.4164
   29MOL0     H 3987   9.917   2.031   1.384  2.4147 -1.6745 -1.5455
   29MOL0     H 3988   9.548   2.187   1.365  1.7224 -1.9867 -1.3373
   29MOL0     H 3989   9.309   2.216   1.413  3.0878  0.7930 -0.1485
   29MOL0     H 3990   9.127   2.099   1.420  2.0958  1.6312 -0.7746
   29MOL0     H 3991   9.074   2.274   1.407 -1.2258  0.8298 -0.1589
   29MOL0     H 3992   8.864   2.218   1.323 -1.2268 -0.4782  1.0820
   29MOL0     H 3993   8.887   2.129   1.471 -2.3447  0.0221  0.2336
   29MOL0     H 3994   8.903   2.039   1.183  0.9056  2.2489  2.1048
   29MOL0     H 3995   8.954   1.923   1.310  0.9978  0.2740  0.5010
   29MOL0     H 3996   8.714   1.929   1.225  1.3862  1.9400 -2.2391
   29MOL0     H 3997   8.696   2.073   1.320  3.0839  2.2970 -1.3751
   29MOL0     H 3998   8.717   1.775   1.632 -1.6226 -0.2160 -0.9510
   29MOL0     H 3999   9.231   2.144   0.992 -1.7347 -2.1457  0.6881
   29MOL0     H 4000   9.524   2.197   0.854  1.8887 -2.2288 -1.5876
   29MOL0     H 4001   9.516   2.026   0.901  1.7713  1.0133 -1.0473
   29MOL0     H 4002   9.375   2.106   0.840  1.1142 -0.6619 -0.8856
   30MOL0     O 4003   1.578   8.208   1.735 -0.1409  0.0666  0.2742
   30MOL0     C 4004   1.510   8.137   1.811 -0.8459 -0.1456  0.7576
   30MOL0     O 4005   1.530   8.003   1.821 -0.3912 -1.0806  0.4178
   30MOL0     C 4006   1.614   7.950   1.729  0.8162 -0.1261  0.0890
   30MOL0     C 4007   1.578   7.901   1.601 -0.4351  1.1253  0.5034
   30MOL0     C 4008   1.680   7.845   1.517  0.1498 -0.4447 -0.3153
   30MOL0     C 4009   1.813   7.846   1.560  0.5481  0.5457  0.0390
   30MOL0     O 4010   1.913   7.815   1.480 -0.4092  0.3907 -0.3327
   30MOL0     C 4011   1.902   7.719   1.374  0.0681 -0.0129  0.0903
   30MOL0     C 4012   1.885   7.784   1.236 -0.0511 -0.4380  0.3718
   30MOL0     C 4013   2.005   7.869   1.183 -0.9329  0.2545  0.7074
   30MOL0     C 4014   1.975   7.905   1.033 -0.7226 -0.4650  0.4527
   30MOL0     C 4015   2.103   7.951   0.959  0.8061 -0.2119 -0.8156
   30MOL0     C 4016   2.160   8.079   1.028 -0.1431 -0.3618 -0.4202
   30MOL0     C 4017   2.281   8.140   0.962  0.5370  0.6226  0.1012
   30MOL0     C 4018   2.387   8.037   0.937 -0.4815  0.1238 -0.2623
   30MOL0     N 4019   2.507   8.113   0.896  0.2862  0.6345 -0.0316
   30MOL0     C 4020   2.520   8.178   0.774  0.3042 -0.5310 -0.1170
   30MOL0     C 4021   2.654   8.221   0.777  0.0793 -0.3642  0.5250
   30MOL0     C 4022   2.712   8.295   0.668  1.0570  0.1332  0.9978
   30MOL0     C 4023   2.863   8.261   0.663 -0.0831  0.7098  0.5678
   30MOL0     C 4024   2.938   8.303   0.540  0.5229  0.2326 -0.5433
   30MOL0     C 4025   3.094   8.305   0.541  0.2226 -0.1419 -0.2768
   30MOL0     O 4026   3.135   8.171   0.518  0.1813  0.0108  0.3773
   30MOL0     C 4027   3.247   8.158   0.429  1.1828 -0.3412 -0.5241
   30MOL0     C 4028   3.363   8.236   0.447  0.5880 -0.2217 -0.3824
   30MOL0     C 4029   3.460   8.241   0.343  0.4624  0.3850 -0.3305
   30MOL0     C 4030   3.581   8.338   0.369 -0.0930  0.4351  0.3280
   30MOL0     C 4031   3.459   8.146   0.247  0.0819  0.4958  0.5595
   30MOL0     C 4032   3.561   8.143   0.137  0.0710 -0.3661  1.2176
   30MOL0     O 4033   3.610   8.257   0.091 -0.6900  0.0705 -0.0343
   30MOL0     C 4034   3.710   8.264  -0.004 -0.0913 -0.5380 -0.4342
   30MOL0     C 4035   3.816   8.166  -0.025  0.3455 -0.5855 -0.5293
   30MOL0     C 4036   3.939   8.211  -0.088  0.2658 -0.8128 -0.8388
   30MOL0     C 4037   3.948   8.352  -0.136  0.0449 -0.5008 -0.3519
   30MOL0     O 4038   4.054   8.411  -0.198 -0.4291  0.2703 -0.3182
   30MOL0     C 4039   4.170   8.321  -0.207  0.0018 -0.3269 -0.0412
   30MOL0     C 4040   4.284   8.409  -0.254  0.0923  0.9058 -1.2360
   30MOL0     C 4041   4.415   8.336  -0.294 -0.0301  0.2509  0.1008
   30MOL0     C 4042   4.530   8.432  -0.328 -0.1033 -1.1576  0.0051
   30MOL0     C 4043   4.657   8.367  -0.383  0.8668  1.1349 -0.2066
   30MOL0     C 4044   4.760   8.468  -0.428  0.2032  0.5873 -0.0718
   30MOL0     C 4045   4.865   8.393  -0.514  0.9099 -0.1972 -0.5316
   30MOL0     C 4046   4.939   8.502  -0.592  0.5782  0.1766 -0.2595
   30MOL0    Cl 4047   5.066   8.442  -0.705 -0.0768 -0.4980  0.6332
   30MOL0     C 4048   3.839   8.443  -0.112 -0.6626  0.3068  0.4038
   30MOL0     C 4049   3.731   8.398  -0.042  0.1958 -0.7738 -0.4381
   30MOL0     O 4050   3.574   8.030   0.083 -0.0390 -0.1151 -0.6296
   30MOL0     C 4051   3.359   8.052   0.247  0.0059  1.0869 -0.0731
   30MOL0     C 4052   3.253   8.058   0.329 -0.6823 -0.3062 -0.7115
   30MOL0     N 4053   2.703   8.188   0.901 -0.9189 -0.6345 -0.7207
   30MOL0     N 4054   2.620   8.124   0.962  0.1442  0.5535  0.1864
   30MOL0     C 4055   1.848   7.908   1.676  0.1517 -0.1560  0.0253
   30MOL0     C 4056   1.749   7.961   1.756 -0.4704 -0.5769 -0.6699
   30MOL0     C 4057   1.411   8.206   1.900  0.0762  0.0098 -1.1909
   30MOL0     C 4058   1.395   8.146   2.030  1.0957 -0.1485  0.5701
   30MOL0     C 4059   1.320   8.195   2.133 -0.4531 -0.9054 -0.2059
   30MOL0     C 4060   1.254   8.319   2.120 -0.2403 -0.0755  0.0414
   30MOL0     O 4061   1.173   8.375   2.221  0.0099 -0.4860  0.1211
   30MOL0     C 4062   1.139   8.296   2.335  0.4973  0.1635 -0.9296
   30MOL0     C 4063   1.236   8.314   2.452  0.0248 -0.2350  0.9356
   30MOL0     C 4064   1.217   8.441   2.515  0.1430 -0.9513 -1.2440
   30MOL0     C 4065   1.297   8.448   2.646 -0.1250 -0.7739 -0.9251
   30MOL0     C 4066   1.438   8.477   2.620  0.2415  0.9253  0.0356
   30MOL0     C 4067   1.545   8.520   2.592  0.0150 -1.2017  0.4890
   30MOL0     C 4068   1.276   8.390   2.002 -0.5584  0.4171 -0.2847
   30MOL0     C 4069   1.351   8.337   1.891  0.2632  0.2058  0.2302
   30MOL0     C 4070   1.371   8.422   1.762  0.4402  0.2968 -0.3200
   30MOL0     H 4071   1.473   7.902   1.575 -0.4433  2.6317  0.4706
   30MOL0     H 4072   1.657   7.812   1.417 -0.6411 -1.9716  0.3363
   30MOL0     H 4073   1.814   7.658   1.398 -0.9548  2.1332  2.1570
   30MOL0     H 4074   1.991   7.656   1.380 -0.9286 -1.5403 -0.5222
   30MOL0     H 4075   1.868   7.708   1.160 -0.1885  0.1377 -0.1782
   30MOL0     H 4076   1.796   7.846   1.249 -1.2643 -2.4816  2.6320
   30MOL0     H 4077   2.016   7.960   1.242  2.7906  0.8588 -0.6679
   30MOL0     H 4078   2.102   7.819   1.175 -1.1910  0.1066 -3.0721
   30MOL0     H 4079   1.940   7.824   0.969 -1.2420  1.7006 -2.1772
   30MOL0     H 4080   1.901   7.986   1.028  1.0574  1.1676 -1.5386
   30MOL0     H 4081   2.079   7.978   0.856  2.0802  1.0592 -0.8272
   30MOL0     H 4082   2.187   7.881   0.957  1.5637  0.6600 -2.3110
   30MOL0     H 4083   2.081   8.152   1.044  0.7233  0.0052  3.2323
   30MOL0     H 4084   2.197   8.041   1.124  1.8709  1.5006 -0.3771
   30MOL0     H 4085   2.326   8.219   1.023  0.6121 -0.6291  1.7029
   30MOL0     H 4086   2.248   8.182   0.866  1.2462  0.5715 -0.1739
   30MOL0     H 4087   2.406   7.970   1.022  1.0786  0.5162 -0.2673
   30MOL0     H 4088   2.353   7.981   0.849  0.2944  3.0756 -2.6025
   30MOL0     H 4089   2.443   8.205   0.702 -3.2517 -1.2883  3.1138
   30MOL0     H 4090   2.696   8.400   0.695 -0.5529  0.4661 -1.0034
   30MOL0     H 4091   2.663   8.270   0.573  3.0683 -1.8415  0.3741
   30MOL0     H 4092   2.911   8.296   0.755  1.1422 -1.0336  0.6475
   30MOL0     H 4093   2.871   8.152   0.677 -1.9148  0.5808  0.9226
   30MOL0     H 4094   2.907   8.248   0.451  2.9310  0.8239 -1.8427
   30MOL0     H 4095   2.911   8.409   0.533 -0.6525 -0.0967 -1.3724
   30MOL0     H 4096   3.136   8.372   0.466 -0.6189  1.0593  0.2995
   30MOL0     H 4097   3.125   8.343   0.639  0.4116  0.7258 -0.6685
   30MOL0     H 4098   3.375   8.293   0.538 -0.5476 -1.5874  0.6582
   30MOL0     H 4099   3.563   8.416   0.444 -0.9483 -0.4646  1.0930
   30MOL0     H 4100   3.612   8.395   0.281 -2.8279  1.3730 -0.1286
   30MOL0     H 4101   3.669   8.287   0.408 -2.3911 -2.6026  1.8748
   30MOL0     H 4102   3.829   8.069   0.022 -2.8902 -1.4866 -1.2638
   30MOL0     H 4103   4.007   8.129  -0.107 -1.2199 -2.4552  0.5272
   30MOL0     H 4104   4.195   8.276  -0.110  1.3867  3.5348  1.5834
   30MOL0     H 4105   4.159   8.242  -0.282  1.4509 -0.2214 -0.3900
   30MOL0     H 4106   4.238   8.462  -0.338 -2.4280  1.2791  0.2821
   30MOL0     H 4107   4.301   8.472  -0.167  0.9091  0.7198 -1.2444
   30MOL0     H 4108   4.396   8.273  -0.382  1.9855 -0.0467 -0.1617
   30MOL0     H 4109   4.442   8.267  -0.213 -0.3142  0.4958  0.4053
   30MOL0     H 4110   4.561   8.498  -0.246  1.3994  2.2167 -2.9857
   30MOL0     H 4111   4.492   8.508  -0.398  0.9134  0.2759  0.9626
   30MOL0     H 4112   4.688   8.298  -0.305 -1.2879 -2.3570 -2.1988
   30MOL0     H 4113   4.636   8.308  -0.473  0.5031 -1.3737  1.4501
   30MOL0     H 4114   4.813   8.516  -0.345 -1.7703  2.0104  0.4419
   30MOL0     H 4115   4.708   8.544  -0.486 -2.8620 -0.8677  0.5454
   30MOL0     H 4116   4.817   8.331  -0.590  0.2142  0.5301 -0.7039
   30MOL0     H 4117   4.933   8.329  -0.459  1.5557  0.0017 -1.0853
   30MOL0     H 4118   4.999   8.569  -0.529 -0.0611  0.1786  0.3571
   30MOL0     H 4119   4.867   8.562  -0.648  1.4958  2.0387  0.4824
   30MOL0     H 4120   3.827   8.540  -0.160 -3.8757 -0.6474 -0.9543
   30MOL0     H 4121   3.657   8.462   0.006  0.8051 -0.4145  0.0447
   30MOL0     H 4122   3.368   7.975   0.171  2.4976 -0.5331  1.6661
   30MOL0     H 4123   3.167   7.992   0.331 -1.3469  0.4827  2.9619
   30MOL0     H 4124   1.954   7.923   1.692  0.2162  4.7933 -2.9229
   30MOL0     H 4125   1.788   8.000   1.850  0.9834  0.0631 -1.5086
   30MOL0     H 4126   1.446   8.052   2.046  0.6797 -0.3389  0.7794
   30MOL0     H 4127   1.317   8.146   2.230 -1.6298  0.7921  0.6799
   30MOL0     H 4128   1.039   8.320   2.372  0.5727 -0.8186 -0.0652
   30MOL0     H 4129   1.127   8.189   2.316  2.0445 -0.6252  1.9329
   30MOL0     H 4130   1.333   8.304   2.402  0.0307 -0.3618  0.9717
   30MOL0     H 4131   1.219   8.233   2.523  1.4080 -2.4515 -1.0984
   30MOL0     H 4132   1.225   8.532   2.455 -4.5432  3.3811  3.7164
   30MOL0     H 4133   1.112   8.449   2.545  0.6104 -1.4932  0.6985
   30MOL0     H 4134   1.289   8.352   2.698 -1.8678 -0.1312  0.1068
   30MOL0     H 4135   1.265   8.533   2.707 -3.1687 -2.6364  0.3408
   30MOL0     H 4136   1.632   8.571   2.555  0.2190  0.2027  2.7249
   30MOL0     H 4137   1.214   8.475   1.976 -0.0696  0.1339 -2.6022
   30MOL0     H 4138   1.314   8.515   1.768 -0.9215 -0.3745 -2.1406
   30MOL0     H 4139   1.477   8.440   1.742  1.0365 -1.7289  0.7433
   30MOL0     H 4140   1.330   8.373   1.674 -0.1291 -0.4038  0.3240
   31MOL0     O 4141   2.544   7.278   4.389  0.3052 -0.1479 -0.2098
   31MOL0     C 4142   2.595   7.356   4.313 -1.5691 -0.8721  0.2044
   31MOL0     O 4143   2.540   7.413   4.208  0.4196 -0.1471  0.3882
   31MOL0     C 4144   2.403   7.397   4.195 -0.0340 -0.4808  0.6803
   31MOL0     C 4145   2.315   7.482   4.253 -0.0600  0.6213  0.2709
   31MOL0     C 4146   2.174   7.468   4.231 -0.0970  0.4201  0.3535
   31MOL0     C 4147   2.124   7.365   4.155  0.1413  0.5770 -0.4080
   31MOL0     O 4148   1.990   7.342   4.133  0.2632  0.2551  0.0118
   31MOL0     C 4149   1.890   7.416   4.208 -0.6466  0.6123  0.6218
   31MOL0     C 4150   1.741   7.406   4.165 -0.2106 -0.0395 -0.6409
   31MOL0     C 4151   1.703   7.274   4.094  0.6547  0.6217  0.8080
   31MOL0     C 4152   1.721   7.161   4.181  0.3183  0.0727 -0.3509
   31MOL0     C 4153   1.789   7.040   4.111  0.9011 -0.0722 -0.0843
   31MOL0     C 4154   1.783   6.937   4.214 -0.3055  0.3283  0.1688
   31MOL0     C 4155   1.815   6.806   4.148  0.5400  0.2151  0.6300
   31MOL0     C 4156   1.947   6.806   4.077 -0.4600  0.9398  0.4016
   31MOL0     N 4157   1.966   6.669   4.023  0.1158  0.2131 -0.0619
   31MOL0     C 4158   2.032   6.562   4.078 -0.7493 -1.0247 -0.2585
   31MOL0     C 4159   2.020   6.461   3.986 -0.0291 -0.3618  0.2149
   31MOL0     C 4160   2.085   6.330   3.976  0.5064  0.5247  0.4780
   31MOL0     C 4161   2.238   6.341   3.970 -0.7668 -0.4471  0.2830
   31MOL0     C 4162   2.304   6.358   4.106  0.0440 -1.5233  0.0464
   31MOL0     C 4163   2.444   6.411   4.099 -0.3374 -0.1348  0.6538
   31MOL0     O 4164   2.511   6.309   4.021 -0.6312 -0.0846  0.4511
   31MOL0     C 4165   2.645   6.325   4.032  0.2420 -0.2521  0.1564
   31MOL0     C 4166   2.720   6.297   4.145  0.4711  0.5510  0.1312
   31MOL0     C 4167   2.856   6.296   4.149 -0.4248  0.2062  0.0704
   31MOL0     C 4168   2.912   6.270   4.284 -0.2168  0.1847 -0.1658
   31MOL0     C 4169   2.932   6.339   4.037 -0.8062  0.1025 -0.0009
   31MOL0     C 4170   3.082   6.356   4.027 -0.8543  0.3449  0.3926
   31MOL0     O 4171   3.145   6.402   3.911 -0.0121 -0.3359 -0.4849
   31MOL0     C 4172   3.269   6.462   3.944  1.0553  0.6751  1.3173
   31MOL0     C 4173   3.389   6.388   3.959 -1.0549 -0.6442  0.3250
   31MOL0     C 4174   3.515   6.454   3.966  0.1255 -0.0961  0.5210
   31MOL0     C 4175   3.520   6.590   3.968  0.0293  0.6499 -0.7654
   31MOL0     O 4176   3.633   6.669   3.977  0.0246 -0.4948 -0.6324
   31MOL0     C 4177   3.762   6.602   3.964  0.4175 -0.0493 -0.4230
   31MOL0     C 4178   3.806   6.585   3.817  0.8354 -0.9241  0.8378
   31MOL0     C 4179   3.788   6.713   3.739 -0.1573 -0.5337  0.2556
   31MOL0     C 4180   3.841   6.713   3.593 -0.1283 -0.2473 -0.4035
   31MOL0     C 4181   3.787   6.826   3.500  0.1914 -1.0379 -0.6482
   31MOL0     C 4182   3.890   6.944   3.507  0.3801  0.0943  0.3991
   31MOL0     C 4183   3.836   7.065   3.443  0.2742 -0.2417  0.3303
   31MOL0     C 4184   3.857   7.065   3.295  0.4845  1.0068 -0.1635
   31MOL0    Cl 4185   4.028   7.068   3.246 -0.4559  0.0122 -0.1246
   31MOL0     C 4186   3.393   6.659   3.956 -0.2972 -0.4413 -1.3734
   31MOL0     C 4187   3.269   6.598   3.934  0.4086 -0.0703  0.2913
   31MOL0     O 4188   3.151   6.326   4.128  0.0322 -0.3662  0.2893
   31MOL0     C 4189   2.858   6.364   3.917 -0.4463 -0.2944 -0.8416
   31MOL0     C 4190   2.716   6.368   3.918 -0.3325  0.6207 -0.3499
   31MOL0     N 4191   1.952   6.509   3.880 -0.2340  0.9263  0.3019
   31MOL0     N 4192   1.915   6.630   3.902 -0.6856 -0.4401  0.2392
   31MOL0     C 4193   2.214   7.285   4.085  0.8160 -0.7132  0.4080
   31MOL0     C 4194   2.355   7.298   4.111 -0.0760  0.3512  0.1011
   31MOL0     C 4195   2.742   7.395   4.331  0.2436 -0.4487 -0.2601
   31MOL0     C 4196   2.791   7.488   4.241 -0.4274  0.1702  0.0077
   31MOL0     C 4197   2.932   7.508   4.237  0.5153 -1.3850 -0.5919
   31MOL0     C 4198   3.014   7.446   4.332  1.1100  0.6943 -0.1184
   31MOL0     O 4199   3.146   7.483   4.355 -0.5468 -0.2598  0.0248
   31MOL0     C 4200   3.229   7.491   4.235 -0.3301  0.6973  0.1815
   31MOL0     C 4201   3.377   7.523   4.284 -0.2717 -0.0570  0.2390
   31MOL0     C 4202   3.444   7.419   4.368 -0.7938 -0.1338  0.0222
   31MOL0     C 4203   3.598   7.450   4.403 -0.0774 -0.1828 -0.4368
   31MOL0     C 4204   3.644   7.365   4.511  0.1529 -0.3520 -0.3607
   31MOL0     C 4205   3.675   7.298   4.602  0.0286  0.2265 -0.0187
   31MOL0     C 4206   2.966   7.357   4.430 -0.3534 -0.3196  0.2949
   31MOL0     C 4207   2.829   7.329   4.425  0.6408  0.1235  0.2041
   31MOL0     C 4208   2.788   7.215   4.508 -0.9772 -0.6840  0.2719
   31MOL0     H 4209   2.366   7.548   4.323  0.1293  4.2638 -2.9640
   31MOL0     H 4210   2.111   7.542   4.279  2.5068  2.3006  1.1434
   31MOL0     H 4211   1.919   7.521   4.199  1.5746 -0.1126 -1.6946
   31MOL0     H 4212   1.892   7.383   4.312 -1.5965 -1.3100  0.0762
   31MOL0     H 4213   1.673   7.416   4.250  1.8408  0.8034  0.9724
   31MOL0     H 4214   1.733   7.487   4.091  1.9500  1.7447  0.9432
   31MOL0     H 4215   1.599   7.263   4.065  0.4030 -1.1328  2.1902
   31MOL0     H 4216   1.752   7.260   3.997 -0.1103  3.0939 -0.0106
   31MOL0     H 4217   1.782   7.175   4.271  0.3251  0.6702 -0.4460
   31MOL0     H 4218   1.622   7.133   4.219  0.4519  1.7584  1.3822
   31MOL0     H 4219   1.894   7.057   4.087  1.5513 -1.5198  1.5513
   31MOL0     H 4220   1.742   7.014   4.016  0.4268  1.0266 -0.1738
   31MOL0     H 4221   1.862   6.951   4.289  0.6553 -1.8786 -0.3507
   31MOL0     H 4222   1.688   6.925   4.266 -0.2497  1.3689  0.5341
   31MOL0     H 4223   1.740   6.774   4.076 -2.2523  3.8220  1.6055
   31MOL0     H 4224   1.813   6.728   4.224 -1.6486 -1.4983 -1.0510
   31MOL0     H 4225   1.945   6.867   3.987  1.2159  1.3949  0.6549
   31MOL0     H 4226   2.029   6.843   4.139  2.0536 -1.8972 -0.9842
   31MOL0     H 4227   2.091   6.557   4.169 -3.5154  0.8146  1.8139
   31MOL0     H 4228   2.039   6.288   3.886  1.0826  0.4186  0.2302
   31MOL0     H 4229   2.055   6.269   4.062  0.7954  0.2873  0.4137
   31MOL0     H 4230   2.279   6.255   3.917 -0.3349  0.5729 -1.0857
   31MOL0     H 4231   2.265   6.425   3.905  0.6751 -1.5680 -0.6335
   31MOL0     H 4232   2.251   6.422   4.177  2.3045  0.8750 -0.2431
   31MOL0     H 4233   2.303   6.260   4.153  2.9470 -1.3193  0.7427
   31MOL0     H 4234   2.431   6.504   4.043 -3.2260 -0.8837 -0.1008
   31MOL0     H 4235   2.490   6.425   4.197 -0.5183 -2.1135  1.0816
   31MOL0     H 4236   2.663   6.258   4.229  0.5741  0.5056  0.1797
   31MOL0     H 4237   2.935   6.362   4.339 -0.7179  0.4238 -0.3577
   31MOL0     H 4238   3.005   6.212   4.282  0.1511  0.7357  0.3398
   31MOL0     H 4239   2.842   6.212   4.345 -1.1573  1.4968  0.0527
   31MOL0     H 4240   3.394   6.280   3.975 -0.0858 -0.6424  0.0725
   31MOL0     H 4241   3.609   6.401   3.959  0.0182 -0.1228 -0.9145
   31MOL0     H 4242   3.840   6.664   4.010 -0.8832  0.2841  1.4265
   31MOL0     H 4243   3.777   6.501   4.003 -1.4336  0.9720  3.4588
   31MOL0     H 4244   3.912   6.561   3.808  1.3607  1.1934  0.7540
   31MOL0     H 4245   3.740   6.508   3.775  0.3223 -0.2075  0.2903
   31MOL0     H 4246   3.835   6.798   3.788  1.0947 -1.0863  0.0700
   31MOL0     H 4247   3.681   6.734   3.732 -0.3917 -1.2670  1.3627
   31MOL0     H 4248   3.814   6.619   3.544 -0.6506  0.2349 -1.0444
   31MOL0     H 4249   3.950   6.722   3.598 -0.3797  3.7289  0.7184
   31MOL0     H 4250   3.788   6.789   3.397 -2.4613 -1.7672 -0.4974
   31MOL0     H 4251   3.683   6.846   3.529 -0.3219 -2.4037 -1.4192
   31MOL0     H 4252   3.975   6.896   3.458 -2.4151 -1.5706 -3.3594
   31MOL0     H 4253   3.898   6.965   3.614 -0.0664 -1.8135  0.8511
   31MOL0     H 4254   3.878   7.160   3.477  0.9367 -0.5507  0.3841
   31MOL0     H 4255   3.728   7.066   3.460  0.0035 -1.9114 -1.0301
   31MOL0     H 4256   3.800   7.149   3.255  0.1328  0.5268 -0.6859
   31MOL0     H 4257   3.807   6.971   3.268  0.4610  0.6611  1.0175
   31MOL0     H 4258   3.383   6.767   3.955  0.3016 -0.3802 -0.9023
   31MOL0     H 4259   3.185   6.663   3.910 -1.8177 -2.3641  1.3190
   31MOL0     H 4260   2.913   6.383   3.825  1.7000  0.7022  0.5722
   31MOL0     H 4261   2.660   6.392   3.828  0.9826  1.3095 -1.0237
   31MOL0     H 4262   2.172   7.204   4.026 -1.0017 -1.2298  2.2522
   31MOL0     H 4263   2.417   7.240   4.043 -2.1615 -0.0804 -1.5142
   31MOL0     H 4264   2.730   7.545   4.172 -0.6565  2.2179  1.7735
   31MOL0     H 4265   2.976   7.590   4.180  3.6715 -1.1316  1.9621
   31MOL0     H 4266   3.224   7.394   4.184  2.9690 -1.2684  3.0849
   31MOL0     H 4267   3.188   7.573   4.176  3.1565  2.3043 -0.2555
   31MOL0     H 4268   3.370   7.619   4.337 -1.6811  1.3954 -2.3841
   31MOL0     H 4269   3.440   7.550   4.199 -1.3411  2.1946  0.0914
   31MOL0     H 4270   3.381   7.399   4.455 -1.0543 -2.1810 -0.5954
   31MOL0     H 4271   3.447   7.323   4.317  2.7490 -0.3691  0.3809
   31MOL0     H 4272   3.592   7.555   4.433 -1.5744  0.2184 -1.9697
   31MOL0     H 4273   3.663   7.453   4.315  1.0299 -0.7963  0.3247
   31MOL0     H 4274   3.699   7.241   4.689  1.1349  0.7287  0.0291
   31MOL0     H 4275   3.021   7.318   4.515 -3.6656 -3.3616  1.3073
   31MOL0     H 4276   2.718   7.255   4.583  0.9817  0.5449  1.5284
   31MOL0     H 4277   2.744   7.132   4.451  1.4550 -0.3723 -2.2554
   31MOL0     H 4278   2.878   7.174   4.555  0.0652  1.9202  0.6732
   32MOL0     O 4279   3.936  11.140   0.043 -0.2458 -0.2652 -0.1501
   32MOL0     C 4280   3.924  11.023   0.063  0.2650 -0.4111 -1.3638
   32MOL0     O 4281   4.015  10.925   0.042 -0.1563  0.4107 -0.3025
   32MOL0     C 4282   4.135  10.972   0.041 -0.7067 -0.8425  0.5151
   32MOL0     C 4283   4.213  10.981  -0.077 -0.4048  0.1857 -0.2152
   32MOL0     C 4284   4.342  11.037  -0.080  0.8304  0.8575  0.3818
   32MOL0     C 4285   4.397  11.082   0.043  0.2029 -1.1152  0.0528
   32MOL0     O 4286   4.522  11.143   0.063  0.1615  0.6765 -0.2113
   32MOL0     C 4287   4.574  11.202  -0.056  1.1433 -0.0826 -0.2520
   32MOL0     C 4288   4.707  11.266  -0.026  0.0326 -0.0316  0.7980
   32MOL0     C 4289   4.710  11.396   0.066 -0.6026  0.5835 -0.0219
   32MOL0     C 4290   4.663  11.368   0.210  0.7513 -0.1539  0.0125
   32MOL0     C 4291   4.736  11.446   0.321 -0.5952 -0.8184  0.3717
   32MOL0     C 4292   4.663  11.448   0.450 -0.0590 -0.4185 -0.3078
   32MOL0     C 4293   4.758  11.517   0.550 -0.1377 -0.1840  0.2225
   32MOL0     C 4294   4.717  11.532   0.696 -0.4769 -1.0297 -0.2137
   32MOL0     N 4295   4.830  11.589   0.779  0.4293 -0.1328  0.0577
   32MOL0     C 4296   4.847  11.718   0.816 -0.6771 -0.6839 -0.3322
   32MOL0     C 4297   4.960  11.716   0.898 -0.1436  0.1182  0.2744
   32MOL0     C 4298   5.015  11.828   0.969  0.2714 -0.0629 -0.5168
   32MOL0     C 4299   4.910  11.913   1.046  0.2378  0.0471  0.5373
   32MOL0     C 4300   4.864  11.844   1.175  0.0009 -0.0946  0.6950
   32MOL0     C 4301   4.767  11.932   1.245  0.3729 -0.5779 -0.0896
   32MOL0     O 4302   4.829  12.028   1.332  0.0075  0.5265  0.2561
   32MOL0     C 4303   4.749  12.103   1.409 -0.0295 -0.0559 -0.4603
   32MOL0     C 4304   4.810  12.145   1.527 -0.2433  0.3740 -0.1171
   32MOL0     C 4305   4.755  12.235   1.616  0.2974 -0.3542 -0.3659
   32MOL0     C 4306   4.838  12.302   1.721  0.1355  0.2429  0.2241
   32MOL0     C 4307   4.624  12.284   1.583  0.7035  0.3070 -0.7696
   32MOL0     C 4308   4.549  12.394   1.654  0.0310  0.5560  0.6412
   32MOL0     O 4309   4.473  12.475   1.576  0.7548  0.0785 -0.5820
   32MOL0     C 4310   4.399  12.572   1.641  0.1939 -0.2270  0.1851
   32MOL0     C 4311   4.454  12.696   1.669 -0.0620 -0.2457  0.5035
   32MOL0     C 4312   4.382  12.788   1.747 -0.1710 -0.6709 -0.7961
   32MOL0     C 4313   4.252  12.755   1.785  0.0917  0.5874 -0.5327
   32MOL0     O 4314   4.175  12.842   1.854  0.3922  0.2084 -0.3538
   32MOL0     C 4315   4.224  12.944   1.938  0.1472 -0.1399 -0.4359
   32MOL0     C 4316   4.129  12.989   2.050  0.2055  0.3968 -0.3689
   32MOL0     C 4317   4.006  13.064   1.992 -0.2548  0.1765  0.0613
   32MOL0     C 4318   3.882  13.045   2.079 -0.0299  0.0199 -0.2780
   32MOL0     C 4319   3.776  13.150   2.036 -0.2342  0.8659  0.4354
   32MOL0     C 4320   3.653  13.141   2.129 -0.0419  0.3368 -0.4272
   32MOL0     C 4321   3.520  13.179   2.071 -0.6119 -0.1838  0.2285
   32MOL0     C 4322   3.512  13.324   2.052 -0.4920 -0.4996 -0.0190
   32MOL0    Cl 4323   3.362  13.366   1.965  0.0495 -0.0172 -0.3804
   32MOL0     C 4324   4.200  12.630   1.753  0.1669 -0.0593  0.4018
   32MOL0     C 4325   4.268  12.538   1.680  0.0953 -0.5844  0.5654
   32MOL0     O 4326   4.561  12.411   1.775 -0.1413 -0.0238  0.1179
   32MOL0     C 4327   4.559  12.234   1.466 -0.6084  0.1703  0.2463
   32MOL0     C 4328   4.617  12.136   1.388 -0.1628 -0.1466 -0.5591
   32MOL0     N 4329   5.007  11.585   0.896  0.6728  0.3994  0.3327
   32MOL0     N 4330   4.931  11.516   0.825 -0.2005  0.9524 -0.6765
   32MOL0     C 4331   4.321  11.065   0.159 -0.5283 -0.2024  0.7762
   32MOL0     C 4332   4.193  11.011   0.152 -0.7937  0.1490 -0.8531
   32MOL0     C 4333   3.788  10.973   0.104  0.1879  1.1128  0.5368
   32MOL0     C 4334   3.776  10.848   0.166 -0.3270  0.5546 -0.1335
   32MOL0     C 4335   3.652  10.789   0.186  0.3755 -1.2585  0.0165
   32MOL0     C 4336   3.531  10.862   0.156 -0.0509 -0.3298  0.5618
   32MOL0     O 4337   3.406  10.821   0.173  0.1355 -0.3351 -0.5430
   32MOL0     C 4338   3.387  10.691   0.231 -0.3361  0.2416  0.2262
   32MOL0     C 4339   3.246  10.652   0.220  0.5900 -0.0950 -0.6305
   32MOL0     C 4340   3.157  10.717   0.332 -0.9364  0.6604  0.8077
   32MOL0     C 4341   3.167  10.639   0.463 -0.7213 -0.4302 -0.2730
   32MOL0     C 4342   3.115  10.500   0.454  0.4683  0.3250 -0.2882
   32MOL0     C 4343   3.079  10.384   0.450 -0.7200 -0.7856  0.4732
   32MOL0     C 4344   3.546  10.990   0.108  0.6211 -0.2288 -0.1293
   32MOL0     C 4345   3.670  11.047   0.087  0.5053  0.1840 -0.4749
   32MOL0     C 4346   3.660  11.196   0.026  0.3231 -0.0851 -0.7570
   32MOL0     H 4347   4.186  10.950  -0.178 -0.6806 -3.3912  0.8057
   32MOL0     H 4348   4.385  11.053  -0.178 -2.4928  1.0705 -1.1404
   32MOL0     H 4349   4.512  11.280  -0.101 -0.5351 -0.1693  1.7616
   32MOL0     H 4350   4.601  11.118  -0.121  3.8689  0.0852  0.5552
   32MOL0     H 4351   4.752  11.185   0.031  1.0550 -0.1667 -0.1725
   32MOL0     H 4352   4.766  11.290  -0.115 -1.0004  0.8969  0.3394
   32MOL0     H 4353   4.813  11.430   0.080 -0.2453 -0.0071 -1.1526
   32MOL0     H 4354   4.647  11.471   0.017  0.9762  2.5829  0.8860
   32MOL0     H 4355   4.557  11.395   0.216  1.5076  3.1604  0.0772
   32MOL0     H 4356   4.681  11.262   0.232  0.4921 -0.6566 -2.0009
   32MOL0     H 4357   4.767  11.549   0.297 -0.8432 -0.8083  0.0955
   32MOL0     H 4358   4.837  11.408   0.342  0.6070  2.2494  0.8372
   32MOL0     H 4359   4.570  11.507   0.444 -0.4180 -0.8772  0.5442
   32MOL0     H 4360   4.638  11.347   0.483  4.8412 -1.5194  0.7515
   32MOL0     H 4361   4.768  11.620   0.514  1.1415  1.0914  3.8140
   32MOL0     H 4362   4.857  11.471   0.552 -0.8464 -2.2913 -3.4305
   32MOL0     H 4363   4.630  11.597   0.711  0.1333 -0.4971  1.2434
   32MOL0     H 4364   4.688  11.433   0.733 -1.4286 -0.4766  0.5571
   32MOL0     H 4365   4.793  11.803   0.776 -0.2875 -0.1229  0.3116
   32MOL0     H 4366   5.052  11.892   0.888  0.5562  1.2159  0.5884
   32MOL0     H 4367   5.104  11.800   1.025  0.3784  0.1415 -0.5834
   32MOL0     H 4368   4.954  12.010   1.072 -0.8129 -0.1815  3.6462
   32MOL0     H 4369   4.824  11.913   0.980  0.7316 -3.0617 -0.2811
   32MOL0     H 4370   4.822  11.749   1.142  0.7216 -1.1309  2.5728
   32MOL0     H 4371   4.947  11.815   1.240 -0.0535  1.9111  1.7563
   32MOL0     H 4372   4.704  11.986   1.174 -2.0524 -0.9912  1.6007
   32MOL0     H 4373   4.695  11.867   1.296 -1.7603  1.8398  0.1930
   32MOL0     H 4374   4.914  12.119   1.546 -0.2648  2.0274  2.8895
   32MOL0     H 4375   4.939  12.261   1.728 -0.1563 -0.3620  1.1536
   32MOL0     H 4376   4.790  12.282   1.817 -1.7709 -0.0988 -0.7557
   32MOL0     H 4377   4.852  12.409   1.706 -0.0787  0.2017 -0.3045
   32MOL0     H 4378   4.552  12.721   1.628 -1.7026  2.1663 -2.3463
   32MOL0     H 4379   4.430  12.880   1.776  1.3641 -1.1624 -1.6593
   32MOL0     H 4380   4.315  12.908   1.987  0.6615  3.1445  1.2815
   32MOL0     H 4381   4.264  13.034   1.892 -1.4615  1.2059  0.6992
   32MOL0     H 4382   4.111  12.905   2.118  1.8237  0.1812 -0.1596
   32MOL0     H 4383   4.184  13.064   2.108  2.5042 -1.1128 -0.4618
   32MOL0     H 4384   3.988  13.041   1.887 -1.0616  2.7729 -0.4374
   32MOL0     H 4385   4.029  13.171   2.003  0.5189 -0.2132  3.5779
   32MOL0     H 4386   3.903  13.058   2.186  1.1816 -1.6944 -0.2704
   32MOL0     H 4387   3.831  12.948   2.070 -1.5459  0.5587  1.6517
   32MOL0     H 4388   3.817  13.250   2.057  0.6867  0.5634  0.1368
   32MOL0     H 4389   3.756  13.137   1.929  1.2838 -0.4406  0.2696
   32MOL0     H 4390   3.673  13.182   2.229  0.6246  2.4124 -1.3558
   32MOL0     H 4391   3.641  13.033   2.139  0.2271  0.2237 -1.2729
   32MOL0     H 4392   3.443  13.140   2.138 -0.8315 -0.2332 -0.0484
   32MOL0     H 4393   3.514  13.131   1.973 -1.8071 -1.6025  0.9389
   32MOL0     H 4394   3.592  13.354   1.983  0.8535 -0.7267  1.3968
   32MOL0     H 4395   3.530  13.376   2.146  0.3815 -0.6104 -0.1117
   32MOL0     H 4396   4.098  12.611   1.785 -0.9189  0.0183 -2.7400
   32MOL0     H 4397   4.225  12.444   1.646 -0.2083 -0.2289 -0.0330
   32MOL0     H 4398   4.458  12.271   1.449 -0.4549  0.2247 -0.5945
   32MOL0     H 4399   4.564  12.096   1.302  2.5330 -0.5870 -2.1146
   32MOL0     H 4400   4.365  11.106   0.248 -1.0283 -0.4584  1.1503
   32MOL0     H 4401   4.140  11.007   0.247 -4.0947 -1.0218 -2.5858
   32MOL0     H 4402   3.862  10.788   0.194 -0.2526  1.2546  1.1776
   32MOL0     H 4403   3.635  10.687   0.218  1.1693 -1.2174  0.5915
   32MOL0     H 4404   3.448  10.619   0.177  0.0334  1.0190 -0.4302
   32MOL0     H 4405   3.417  10.688   0.336  2.6644  2.5265 -0.4327
   32MOL0     H 4406   3.246  10.544   0.237 -0.5986 -0.0984 -0.5225
   32MOL0     H 4407   3.198  10.666   0.122  1.4854  1.4151 -0.8818
   32MOL0     H 4408   3.204  10.814   0.348 -1.1392  0.7865  0.6468
   32MOL0     H 4409   3.053  10.720   0.298 -1.1918 -0.8004  1.3834
   32MOL0     H 4410   3.104  10.706   0.521 -1.7238 -1.3487 -0.2763
   32MOL0     H 4411   3.266  10.636   0.510  0.0894  1.0324 -1.7768
   32MOL0     H 4412   3.048  10.282   0.441  0.5764 -1.2460  0.9949
   32MOL0     H 4413   3.449  11.039   0.095 -0.0533 -1.5927 -0.4766
   32MOL0     H 4414   3.724  11.211  -0.061 -1.7464 -0.5686 -2.4321
   32MOL0     H 4415   3.554  11.211   0.005  0.1537 -0.9363 -0.5357
   32MOL0     H 4416   3.681  11.271   0.103  2.4548 -0.4393 -0.9497
   33MOL0     O 4417   6.486  10.372   2.036  0.2890 -0.9299  0.2230
   33MOL0     C 4418   6.365  10.383   2.052 -0.5283 -0.0546 -0.1920
   33MOL0     O 4419   6.296  10.469   2.134  0.5342 -0.0560 -0.3535
   33MOL0     C 4420   6.354  10.505   2.253 -0.0499  0.0993 -0.1297
   33MOL0     C 4421   6.451  10.431   2.323  1.7101 -0.1976 -0.4863
   33MOL0     C 4422   6.515  10.488   2.427  0.5559 -0.5001 -0.5633
   33MOL0     C 4423   6.490  10.617   2.465  0.7065 -0.1153  0.2874
   33MOL0     O 4424   6.565  10.670   2.561 -0.4931 -0.9297  0.4323
   33MOL0     C 4425   6.584  10.811   2.558  0.7133  0.1353  0.0378
   33MOL0     C 4426   6.686  10.850   2.664 -0.4227  0.9481  0.3681
   33MOL0     C 4427   6.826  10.793   2.630 -0.3059  0.1566  0.5950
   33MOL0     C 4428   6.925  10.788   2.749  0.4672  0.8091  0.6073
   33MOL0     C 4429   7.048  10.695   2.723 -0.1033  0.8027 -0.1519
   33MOL0     C 4430   7.157  10.727   2.814  0.2213  0.2498 -0.0955
   33MOL0     C 4431   7.285  10.641   2.801 -1.2287 -0.3246  0.3682
   33MOL0     C 4432   7.401  10.671   2.889 -1.1141 -0.3691  0.0474
   33MOL0     N 4433   7.446  10.814   2.905  0.5032 -0.7826  0.4715
   33MOL0     C 4434   7.529  10.889   2.818  0.9655 -0.1197 -1.2465
   33MOL0     C 4435   7.550  11.007   2.887  0.3713 -0.1105 -0.0954
   33MOL0     C 4436   7.629  11.122   2.846 -0.4590  0.2979  0.2242
   33MOL0     C 4437   7.722  11.171   2.962 -0.6793 -0.4528  0.3243
   33MOL0     C 4438   7.803  11.292   2.925 -0.6249  1.0992  1.4323
   33MOL0     C 4439   7.932  11.261   2.836  0.3502  0.4325 -0.2759
   33MOL0     O 4440   8.041  11.190   2.903 -0.0452 -0.0384 -0.3155
   33MOL0     C 4441   8.156  11.173   2.828  0.1409 -0.1787 -0.0828
   33MOL0     C 4442   8.264  11.115   2.898  0.1214 -0.7132 -0.0775
   33MOL0     C 4443   8.385  11.090   2.841  0.5259  0.5432  0.3495
   33MOL0     C 4444   8.482  11.028   2.937 -0.1129  0.4984 -0.4941
   33MOL0     C 4445   8.412  11.124   2.706  0.2447  0.3077 -0.2961
   33MOL0     C 4446   8.542  11.082   2.636  0.1789 -0.1921 -0.1983
   33MOL0     O 4447   8.544  11.111   2.501  0.1380  0.6790 -0.7953
   33MOL0     C 4448   8.643  11.042   2.436  0.3010  0.5322  0.4291
   33MOL0     C 4449   8.779  11.077   2.427 -0.1610  0.4271 -0.1886
   33MOL0     C 4450   8.868  10.982   2.383  0.0959 -0.2030 -0.2136
   33MOL0     C 4451   8.818  10.860   2.327 -0.2596 -0.2632 -0.8742
   33MOL0     O 4452   8.915  10.774   2.290  0.1377  0.2515  0.0062
   33MOL0     C 4453   8.978  10.811   2.171 -0.1530  0.5371 -0.1230
   33MOL0     C 4454   8.909  10.746   2.049 -0.2667  0.8273  0.1635
   33MOL0     C 4455   8.806  10.832   1.994  0.2029  0.5617  0.6276
   33MOL0     C 4456   8.865  10.954   1.915  0.4622 -0.0709  0.2197
   33MOL0     C 4457   8.748  11.023   1.844 -0.3070 -0.1649  0.3851
   33MOL0     C 4458   8.812  11.142   1.765 -0.6156  0.1545 -0.3963
   33MOL0     C 4459   8.718  11.236   1.683 -0.2152 -0.1773 -0.3838
   33MOL0     C 4460   8.711  11.378   1.718  0.0902  0.1674 -0.5966
   33MOL0    Cl 4461   8.612  11.467   1.599  0.6777 -0.2513 -0.1260
   33MOL0     C 4462   8.678  10.832   2.331 -0.9704  0.1430 -0.5448
   33MOL0     C 4463   8.591  10.925   2.386  0.0902 -0.1085 -0.2706
   33MOL0     O 4464   8.633  11.021   2.699  0.4890 -0.2023  0.1645
   33MOL0     C 4465   8.306  11.193   2.630 -0.6782 -0.2534  0.0170
   33MOL0     C 4466   8.180  11.215   2.695  0.2611  0.4211  0.6935
   33MOL0     N 4467   7.482  10.995   3.004 -0.6562  1.0252 -0.6024
   33MOL0     N 4468   7.417  10.887   3.019 -0.2702  0.0884  0.2656
   33MOL0     C 4469   6.383  10.688   2.402 -0.0752  0.0061  0.4810
   33MOL0     C 4470   6.321  10.632   2.291  0.8532  0.5444  0.1206
   33MOL0     C 4471   6.278  10.322   1.950  0.2158 -0.6000 -0.2360
   33MOL0     C 4472   6.151  10.380   1.926  0.6588  0.8017  0.7212
   33MOL0     C 4473   6.062  10.320   1.841 -0.2251 -0.0764  0.0995
   33MOL0     C 4474   6.103  10.219   1.758 -0.8164  0.3340 -0.5873
   33MOL0     O 4475   6.025  10.144   1.681  0.6776  0.2742 -0.2162
   33MOL0     C 4476   5.886  10.150   1.682  0.6178  0.0043  0.0526
   33MOL0     C 4477   5.833  10.051   1.577  0.1991 -0.2896  0.2217
   33MOL0     C 4478   5.907  10.046   1.446 -0.4245  0.0978  1.2923
   33MOL0     C 4479   5.860   9.919   1.351  0.3293  0.0861 -0.3906
   33MOL0     C 4480   5.905   9.930   1.218 -0.4696 -0.1825 -0.0708
   33MOL0     C 4481   5.950   9.949   1.106 -0.3269  0.9625  1.3871
   33MOL0     C 4482   6.234  10.181   1.766 -0.2300  0.5037  0.0460
   33MOL0     C 4483   6.321  10.219   1.865  0.3332 -0.7405  0.7307
   33MOL0     C 4484   6.465  10.164   1.873  0.2567  0.6362  0.0952
   33MOL0     H 4485   6.461  10.330   2.285 -4.3475 -1.2049 -0.4762
   33MOL0     H 4486   6.599  10.444   2.478 -0.5701 -2.1316 -0.0462
   33MOL0     H 4487   6.488  10.856   2.583 -1.0199 -2.7119 -1.0807
   33MOL0     H 4488   6.614  10.853   2.461  0.7855  1.0998  0.4656
   33MOL0     H 4489   6.685  10.958   2.682 -3.3997  0.8922  1.1104
   33MOL0     H 4490   6.651  10.812   2.760  2.2850 -0.7360  0.7963
   33MOL0     H 4491   6.825  10.690   2.591  2.7399  0.5379 -0.7358
   33MOL0     H 4492   6.879  10.849   2.552  0.7262 -2.6936 -0.9047
   33MOL0     H 4493   6.955  10.893   2.758  0.8480  0.4891  5.4772
   33MOL0     H 4494   6.870  10.762   2.839  0.2812  1.3369  0.6506
   33MOL0     H 4495   7.075  10.717   2.619  0.3162  2.6706  0.3016
   33MOL0     H 4496   7.020  10.592   2.746 -0.2719  0.9393  0.2656
   33MOL0     H 4497   7.183  10.832   2.798 -0.9715  0.5761 -0.0113
   33MOL0     H 4498   7.116  10.726   2.916 -0.3115  1.2710 -0.2782
   33MOL0     H 4499   7.331  10.659   2.703 -1.2585 -4.1494 -0.5157
   33MOL0     H 4500   7.268  10.533   2.802 -0.4006 -0.4763 -0.5211
   33MOL0     H 4501   7.373  10.638   2.989  0.3234  2.1335  1.3809
   33MOL0     H 4502   7.492  10.616   2.861 -0.7412  0.7898 -1.1575
   33MOL0     H 4503   7.569  10.849   2.726  1.9629 -0.6082 -0.6170
   33MOL0     H 4504   7.556  11.197   2.814 -1.9268 -1.6171 -1.1539
   33MOL0     H 4505   7.697  11.084   2.769  0.0966  1.1959  0.2510
   33MOL0     H 4506   7.654  11.195   3.045  0.6358  0.6490  1.1309
   33MOL0     H 4507   7.788  11.091   2.995 -0.9913 -1.2454 -0.9063
   33MOL0     H 4508   7.744  11.363   2.868  2.5957  3.7732  1.1305
   33MOL0     H 4509   7.828  11.335   3.022 -1.6708 -1.5683  3.0030
   33MOL0     H 4510   7.907  11.220   2.739  0.4133 -1.2689  0.3991
   33MOL0     H 4511   7.970  11.362   2.816 -0.6075  0.9272  0.3229
   33MOL0     H 4512   8.257  11.094   3.004  2.0156 -4.3067 -0.5202
   33MOL0     H 4513   8.452  11.039   3.042 -0.6513  1.3091 -0.7240
   33MOL0     H 4514   8.581  11.070   2.924  0.1521 -0.1224 -0.5463
   33MOL0     H 4515   8.495  10.926   2.898  1.5243  1.1010 -1.5867
   33MOL0     H 4516   8.815  11.166   2.478 -2.5110 -0.2990  3.0290
   33MOL0     H 4517   8.976  10.993   2.379  0.1319  0.1757  1.1189
   33MOL0     H 4518   8.996  10.918   2.160  1.5939  0.2583 -0.2998
   33MOL0     H 4519   9.079  10.769   2.179 -0.3995  0.2979  2.3653
   33MOL0     H 4520   8.985  10.723   1.975 -0.5330  1.5951 -0.3595
   33MOL0     H 4521   8.869  10.651   2.085  1.1355  0.7618  1.7090
   33MOL0     H 4522   8.737  10.871   2.069 -0.9080  2.2387 -1.1554
   33MOL0     H 4523   8.742  10.766   1.934  0.3105 -0.4103  1.5590
   33MOL0     H 4524   8.950  10.922   1.855  0.5744 -0.0220  0.3515
   33MOL0     H 4525   8.901  11.023   1.992  1.0850  1.2350 -1.1980
   33MOL0     H 4526   8.687  10.972   1.769  1.2725  2.4554 -2.9115
   33MOL0     H 4527   8.675  11.062   1.916 -0.9990  2.1341 -1.4500
   33MOL0     H 4528   8.889  11.098   1.701 -1.7938  0.4106 -2.0597
   33MOL0     H 4529   8.859  11.212   1.834 -3.9737  0.0602  2.2596
   33MOL0     H 4530   8.619  11.196   1.707 -0.1198 -0.0147  0.3022
   33MOL0     H 4531   8.730  11.223   1.575 -0.6663 -1.1778 -0.3304
   33MOL0     H 4532   8.809  11.425   1.704 -0.2068  0.4892 -1.7067
   33MOL0     H 4533   8.686  11.390   1.824  1.4589 -2.7493  0.1444
   33MOL0     H 4534   8.635  10.737   2.301 -0.7565  0.6465 -2.6406
   33MOL0     H 4535   8.486  10.902   2.397 -0.8216  4.1336  1.5621
   33MOL0     H 4536   8.323  11.224   2.528 -2.2889 -0.8600 -0.4530
   33MOL0     H 4537   8.095  11.256   2.641  0.1619  1.0867  1.3349
   33MOL0     H 4538   6.363  10.790   2.433  1.6735  0.2821  0.8006
   33MOL0     H 4539   6.254  10.692   2.230  3.0894  3.1507  0.0824
   33MOL0     H 4540   6.116  10.464   1.986 -0.6036  3.3290 -3.1330
   33MOL0     H 4541   5.962  10.361   1.847 -0.1769 -0.1823  1.9664
   33MOL0     H 4542   5.851  10.125   1.782  1.7152  3.3069  1.4064
   33MOL0     H 4543   5.855  10.252   1.657 -2.9238 -0.4274  2.0637
   33MOL0     H 4544   5.732  10.087   1.559  0.1915  0.3860  1.4236
   33MOL0     H 4545   5.824   9.951   1.619  1.0737  0.2654  1.8666
   33MOL0     H 4546   5.894  10.136   1.386  0.1802 -2.1387 -2.5370
   33MOL0     H 4547   6.014  10.037   1.464 -0.1257  0.6051 -0.1375
   33MOL0     H 4548   5.751   9.914   1.357  0.2803 -0.6985 -1.6433
   33MOL0     H 4549   5.893   9.825   1.395  5.2643  1.3161 -0.8788
   33MOL0     H 4550   5.993   9.970   1.010  1.3331  0.8795  2.0900
   33MOL0     H 4551   6.278  10.107   1.700  0.7096 -1.3984  2.6428
   33MOL0     H 4552   6.492  10.125   1.972  3.3429 -1.9441 -1.5561
   33MOL0     H 4553   6.463  10.081   1.802  3.5571  1.8231 -1.5967
   33MOL0     H 4554   6.541  10.235   1.839  1.1354  0.3222  1.3232
   34MOL0     O 4555   1.986   2.276   7.260 -0.3711 -0.4806  0.0915
   34MOL0     C 4556   1.913   2.372   7.280  0.4326 -0.5511  0.3661
   34MOL0     O 4557   1.939   2.502   7.237  0.4917  0.2105  0.3365
   34MOL0     C 4558   2.051   2.531   7.164  0.9626 -0.1257  0.3132
   34MOL0     C 4559   2.185   2.478   7.177 -0.5409 -0.7773 -0.1229
   34MOL0     C 4560   2.292   2.524   7.103  0.3196  0.0448  0.1496
   34MOL0     C 4561   2.277   2.615   6.997 -0.0516 -0.4329 -1.2858
   34MOL0     O 4562   2.381   2.646   6.923  0.3101 -0.2837  0.2836
   34MOL0     C 4563   2.345   2.658   6.783 -0.4960  0.3865  0.3683
   34MOL0     C 4564   2.461   2.630   6.694 -0.0285  0.2939  1.0891
   34MOL0     C 4565   2.575   2.726   6.723 -0.2801 -0.3165 -0.3879
   34MOL0     C 4566   2.673   2.720   6.604 -0.0125 -0.0297  0.0172
   34MOL0     C 4567   2.786   2.814   6.634 -0.1464 -0.6287  0.8746
   34MOL0     C 4568   2.885   2.800   6.514  0.9293  0.4323 -0.2324
   34MOL0     C 4569   3.000   2.911   6.514  0.8263 -0.3795  0.0648
   34MOL0     C 4570   3.103   2.904   6.635  0.4939 -0.1245 -0.2623
   34MOL0     N 4571   3.221   2.996   6.638  0.3393  0.1376 -0.7308
   34MOL0     C 4572   3.229   3.134   6.630  0.9414 -0.5307  0.1428
   34MOL0     C 4573   3.351   3.162   6.574 -0.9709 -0.3770 -0.7031
   34MOL0     C 4574   3.421   3.297   6.565 -0.8516 -0.0691 -0.2446
   34MOL0     C 4575   3.451   3.347   6.710  0.5997  0.0693 -0.4134
   34MOL0     C 4576   3.570   3.435   6.712  0.3291 -0.4720 -1.1557
   34MOL0     C 4577   3.535   3.573   6.642 -0.1911 -0.0216  0.1847
   34MOL0     O 4578   3.658   3.642   6.680 -0.3780 -0.0309 -0.2328
   34MOL0     C 4579   3.730   3.690   6.569 -1.3103  0.4107 -0.1409
   34MOL0     C 4580   3.857   3.639   6.556  0.8490  0.1437 -0.1691
   34MOL0     C 4581   3.929   3.657   6.438 -0.3249 -0.6654 -0.0315
   34MOL0     C 4582   4.051   3.574   6.430  0.4941 -0.3090 -0.1350
   34MOL0     C 4583   3.879   3.742   6.341  0.0291 -0.0633 -0.2208
   34MOL0     C 4584   3.946   3.763   6.202  0.9329 -0.3056  0.4220
   34MOL0     O 4585   4.071   3.798   6.204 -0.7406  0.2576 -0.1001
   34MOL0     C 4586   4.148   3.791   6.084 -0.8986  0.1182  0.3211
   34MOL0     C 4587   4.124   3.714   5.972  0.5804  0.2844 -0.2134
   34MOL0     C 4588   4.225   3.697   5.872  0.9124  1.0861 -0.3325
   34MOL0     C 4589   4.351   3.751   5.883 -0.4140 -0.3747  0.2543
   34MOL0     O 4590   4.454   3.735   5.790 -0.1741  0.7210 -0.4407
   34MOL0     C 4591   4.451   3.626   5.697  0.0424  0.6433  0.7811
   34MOL0     C 4592   4.570   3.610   5.605  0.4487 -0.8527  0.4733
   34MOL0     C 4593   4.586   3.743   5.533  0.5797 -0.5594 -0.2622
   34MOL0     C 4594   4.734   3.770   5.494 -0.6247  0.0968  1.2591
   34MOL0     C 4595   4.749   3.919   5.453  0.3103  0.3168  0.0531
   34MOL0     C 4596   4.865   3.945   5.354  0.0123 -0.3192  0.2103
   34MOL0     C 4597   4.886   4.096   5.334  0.2637 -0.5692 -0.2360
   34MOL0     C 4598   4.953   4.158   5.468 -0.6177  0.6799  0.1941
   34MOL0    Cl 4599   4.947   4.342   5.446 -0.2823 -0.1265 -0.0678
   34MOL0     C 4600   4.374   3.836   5.993 -0.5229  0.1025  0.0259
   34MOL0     C 4601   4.282   3.846   6.102 -0.1789 -0.1303  0.2590
   34MOL0     O 4602   3.870   3.765   6.103  0.2812 -0.1436  0.1788
   34MOL0     C 4603   3.759   3.803   6.358  0.2663  0.3739 -0.1938
   34MOL0     C 4604   3.680   3.776   6.476  0.9427  0.2839 -0.1765
   34MOL0     N 4605   3.404   3.043   6.539 -0.8078 -0.5533 -0.3167
   34MOL0     N 4606   3.340   2.947   6.594  0.2878 -0.0304 -0.4119
   34MOL0     C 4607   2.146   2.675   6.991 -0.5519 -0.5084  0.0435
   34MOL0     C 4608   2.032   2.627   7.067 -0.0162 -0.1755  0.5113
   34MOL0     C 4609   1.792   2.352   7.366 -0.8415 -0.0281 -0.1195
   34MOL0     C 4610   1.699   2.457   7.370  0.1480 -0.9458  0.6856
   34MOL0     C 4611   1.574   2.448   7.442  0.0321  0.6053 -0.9222
   34MOL0     C 4612   1.552   2.327   7.520 -0.6538  0.7358 -0.6954
   34MOL0     O 4613   1.444   2.286   7.584 -0.5874  0.4031  0.4665
   34MOL0     C 4614   1.322   2.362   7.579  0.4321 -0.0075  0.8365
   34MOL0     C 4615   1.249   2.352   7.446 -0.4864  0.3924  0.0885
   34MOL0     C 4616   1.102   2.381   7.444  0.2263  0.0609 -0.4060
   34MOL0     C 4617   1.047   2.384   7.297  0.2639  0.0755 -0.4305
   34MOL0     C 4618   1.063   2.251   7.238  0.5482  0.1353  0.0368
   34MOL0     C 4619   1.096   2.142   7.191 -0.5483  0.6260  0.2251
   34MOL0     C 4620   1.640   2.223   7.504 -0.5028 -0.8521  0.3586
   34MOL0     C 4621   1.759   2.235   7.432 -0.4433 -0.4477  0.5844
   34MOL0     C 4622   1.851   2.112   7.436  0.0698  0.1130  0.4598
   34MOL0     H 4623   2.201   2.400   7.251  0.2730 -2.0288 -1.5449
   34MOL0     H 4624   2.393   2.487   7.112  0.1131 -0.3108  1.0554
   34MOL0     H 4625   2.321   2.763   6.766 -1.6972  0.7541  3.7493
   34MOL0     H 4626   2.256   2.599   6.761 -0.3366  0.3165 -0.1088
   34MOL0     H 4627   2.504   2.530   6.708 -0.9408 -0.1340  0.9248
   34MOL0     H 4628   2.440   2.636   6.587  0.6926  0.9041  0.9697
   34MOL0     H 4629   2.532   2.825   6.740  0.9435  0.2511 -0.5002
   34MOL0     H 4630   2.626   2.686   6.811  0.8251 -1.1047 -1.3504
   34MOL0     H 4631   2.706   2.616   6.602 -2.7599 -0.9779 -0.1591
   34MOL0     H 4632   2.622   2.733   6.508  1.2141 -2.0691 -0.9631
   34MOL0     H 4633   2.845   2.800   6.726  0.9714  1.7679  0.6002
   34MOL0     H 4634   2.741   2.914   6.637 -1.6636 -1.2664  0.3677
   34MOL0     H 4635   2.928   2.699   6.521 -2.2162 -0.8962  3.0483
   34MOL0     H 4636   2.832   2.813   6.419  0.5062 -0.6116 -0.1529
   34MOL0     H 4637   2.949   3.008   6.505  1.4579 -0.0062  0.3833
   34MOL0     H 4638   3.055   2.889   6.422  4.0826  1.2709  1.4448
   34MOL0     H 4639   3.049   2.920   6.728  0.1334 -1.2719 -0.2676
   34MOL0     H 4640   3.147   2.805   6.622  1.9199  0.5233 -0.5767
   34MOL0     H 4641   3.173   3.217   6.670  1.2433  0.9465 -2.3293
   34MOL0     H 4642   3.366   3.366   6.501  0.2942 -1.5406 -2.9700
   34MOL0     H 4643   3.521   3.287   6.522 -0.0173 -1.8933  1.8559
   34MOL0     H 4644   3.360   3.394   6.747 -0.6293 -2.0454 -0.5757
   34MOL0     H 4645   3.467   3.262   6.777  0.1631 -0.2038 -0.6553
   34MOL0     H 4646   3.600   3.438   6.817 -0.0402  0.0628 -1.0607
   34MOL0     H 4647   3.655   3.391   6.659  1.8942  0.9062  0.1129
   34MOL0     H 4648   3.518   3.577   6.534  0.1602 -0.2710  0.1176
   34MOL0     H 4649   3.448   3.618   6.690 -1.2343  0.4784 -2.0062
   34MOL0     H 4650   3.897   3.570   6.631 -1.1132 -0.8146  0.0588
   34MOL0     H 4651   4.034   3.481   6.486 -2.1701  0.4425  0.4636
   34MOL0     H 4652   4.140   3.634   6.453 -0.1983  0.8837 -0.5032
   34MOL0     H 4653   4.060   3.556   6.323 -1.7028 -0.6834 -0.2915
   34MOL0     H 4654   4.026   3.670   5.964 -0.3604  2.3228 -0.6233
   34MOL0     H 4655   4.208   3.628   5.790  1.6226 -1.7820  1.7954
   34MOL0     H 4656   4.450   3.536   5.760  1.8042 -0.6444 -0.9221
   34MOL0     H 4657   4.361   3.630   5.635  0.0834  1.9184  0.7782
   34MOL0     H 4658   4.665   3.590   5.656 -0.0369 -0.5709  1.4988
   34MOL0     H 4659   4.560   3.525   5.537  6.1051 -0.5654 -1.2485
   34MOL0     H 4660   4.567   3.819   5.609  0.4168 -3.4532  2.8151
   34MOL0     H 4661   4.514   3.743   5.451 -0.6202 -2.2577  0.7223
   34MOL0     H 4662   4.760   3.703   5.412 -0.1116  1.3364  0.3719
   34MOL0     H 4663   4.801   3.752   5.579  0.3755  1.8221  0.8964
   34MOL0     H 4664   4.659   3.958   5.405 -1.5482  0.9666  3.7071
   34MOL0     H 4665   4.772   3.971   5.547 -1.1036 -2.0476  1.8363
   34MOL0     H 4666   4.838   3.890   5.264 -1.2018  1.2983 -0.4625
   34MOL0     H 4667   4.955   3.892   5.387 -1.0839 -1.8359  0.8955
   34MOL0     H 4668   4.790   4.147   5.323  1.0019  1.5244  1.9630
   34MOL0     H 4669   4.955   4.131   5.258 -0.0270 -3.1527 -1.8135
   34MOL0     H 4670   5.055   4.121   5.480 -0.7752  0.6031  1.4565
   34MOL0     H 4671   4.895   4.136   5.558 -3.1227 -0.9766 -1.6933
   34MOL0     H 4672   4.472   3.881   5.994  0.2358 -1.4941  0.7999
   34MOL0     H 4673   4.310   3.894   6.195  6.4667 -0.4119 -1.0729
   34MOL0     H 4674   3.728   3.866   6.275 -3.7999  0.3023  1.0361
   34MOL0     H 4675   3.579   3.814   6.486  0.7832 -0.2157  0.1305
   34MOL0     H 4676   2.125   2.742   6.908  2.1021 -2.1433 -2.1370
   34MOL0     H 4677   1.931   2.663   7.052 -0.3239 -1.1003  0.3482
   34MOL0     H 4678   1.715   2.557   7.331 -3.2205  0.5287  2.6097
   34MOL0     H 4679   1.509   2.534   7.439  1.1731  1.4643 -2.1634
   34MOL0     H 4680   1.249   2.330   7.654  1.0618 -1.6343  0.7827
   34MOL0     H 4681   1.341   2.469   7.592 -0.8331  0.1675  1.4529
   34MOL0     H 4682   1.253   2.250   7.406  1.6526  1.0354 -1.5369
   34MOL0     H 4683   1.304   2.421   7.381  0.0225 -0.9511 -0.9540
   34MOL0     H 4684   1.043   2.313   7.506 -0.1332  1.5868  0.9721
   34MOL0     H 4685   1.087   2.477   7.493 -1.4808 -1.5816  2.5787
   34MOL0     H 4686   1.104   2.458   7.241  0.2123  0.5755  0.1640
   34MOL0     H 4687   0.939   2.392   7.307 -0.3185 -2.1650 -3.5579
   34MOL0     H 4688   1.113   2.041   7.160 -3.1543  0.1604  0.0594
   34MOL0     H 4689   1.622   2.127   7.552 -3.7168  0.5748  2.3068
   34MOL0     H 4690   1.840   2.059   7.341  4.1000 -0.8028  0.3061
   34MOL0     H 4691   1.957   2.116   7.462  0.6980 -0.5108 -1.7878
   34MOL0     H 4692   1.812   2.039   7.508 -0.8748 -0.0987 -0.2457
   35MOL0     O 4693   3.511   5.619   4.059 -0.8845 -0.0608 -0.2441
   35MOL0     C 4694   3.421   5.583   4.132  0.3849  0.3128  0.4732
   35MOL0     O 4695   3.437   5.548   4.265 -0.2083  0.8613 -0.8466
   35MOL0     C 4696   3.554   5.576   4.334  0.1298  0.1128  0.7848
   35MOL0     C 4697   3.610   5.479   4.417  0.6283  1.2272  0.2935
   35MOL0     C 4698   3.723   5.505   4.489 -1.1845 -0.4156  0.0293
   35MOL0     C 4699   3.781   5.631   4.474 -0.3364 -0.3395 -0.8551
   35MOL0     O 4700   3.895   5.670   4.545 -0.3062  0.6595  1.0104
   35MOL0     C 4701   4.010   5.581   4.542 -0.0151 -0.6276  0.7534
   35MOL0     C 4702   4.119   5.618   4.638  1.0774 -0.3878  0.4966
   35MOL0     C 4703   4.181   5.762   4.645 -0.4568  0.0290  0.3130
   35MOL0     C 4704   4.332   5.765   4.613 -0.4088 -0.2305 -0.7503
   35MOL0     C 4705   4.379   5.910   4.620 -0.8400 -0.1819 -0.3580
   35MOL0     C 4706   4.532   5.909   4.614 -0.1515  0.5307  0.1903
   35MOL0     C 4707   4.593   6.047   4.608  0.6831 -0.0491  0.0636
   35MOL0     C 4708   4.523   6.154   4.511 -1.0551 -1.0334  0.1741
   35MOL0     N 4709   4.619   6.270   4.479 -0.1387  0.5305 -0.5576
   35MOL0     C 4710   4.749   6.258   4.415  0.3757 -0.1017 -1.6580
   35MOL0     C 4711   4.776   6.385   4.383 -0.1606 -0.9204  0.0756
   35MOL0     C 4712   4.902   6.440   4.327  0.5477  0.9641 -0.0171
   35MOL0     C 4713   4.973   6.552   4.415 -0.2255 -0.4726  0.3168
   35MOL0     C 4714   5.108   6.595   4.349 -0.3739  0.3911  0.2980
   35MOL0     C 4715   5.185   6.704   4.433  0.2603  0.4476 -0.0978
   35MOL0     O 4716   5.306   6.750   4.364  0.1939  0.0498  0.0398
   35MOL0     C 4717   5.379   6.853   4.417  0.3535 -0.4441  0.4434
   35MOL0     C 4718   5.475   6.900   4.326 -0.5700 -0.0782 -1.0209
   35MOL0     C 4719   5.563   7.000   4.368  0.0409 -0.2494 -0.2037
   35MOL0     C 4720   5.678   7.021   4.270 -0.7761  0.5378 -0.5617
   35MOL0     C 4721   5.540   7.068   4.491 -0.4555 -0.6103  0.1496
   35MOL0     C 4722   5.632   7.174   4.536 -0.5908  0.1097 -0.2053
   35MOL0     O 4723   5.575   7.292   4.581 -0.4706  0.0823 -0.2399
   35MOL0     C 4724   5.646   7.407   4.593 -0.0505  0.4606  0.4270
   35MOL0     C 4725   5.575   7.522   4.561 -0.4039  0.9223 -0.2905
   35MOL0     C 4726   5.630   7.647   4.595 -0.8657 -0.3038  1.1300
   35MOL0     C 4727   5.763   7.650   4.650 -0.4863  0.5918  0.0485
   35MOL0     O 4728   5.815   7.772   4.673  0.2628  0.3352 -1.2145
   35MOL0     C 4729   5.850   7.848   4.558 -0.0444 -1.0340  0.6178
   35MOL0     C 4730   6.001   7.874   4.531 -0.0767 -0.0671  0.9261
   35MOL0     C 4731   6.064   7.733   4.486  0.2554  0.6421 -0.6427
   35MOL0     C 4732   6.205   7.701   4.539 -0.5543  0.5572 -0.0819
   35MOL0     C 4733   6.241   7.563   4.507  0.2292  0.3546 -0.7424
   35MOL0     C 4734   6.391   7.555   4.469  0.1130  0.2807  0.2082
   35MOL0     C 4735   6.431   7.411   4.450  0.0798 -0.2807  0.3692
   35MOL0     C 4736   6.577   7.394   4.450  0.9057 -0.1313 -0.0500
   35MOL0    Cl 4737   6.642   7.447   4.285 -0.0730 -0.0454  0.0021
   35MOL0     C 4738   5.830   7.533   4.688  0.6219 -0.0867  0.2725
   35MOL0     C 4739   5.772   7.408   4.652 -0.3324  0.6122 -0.1851
   35MOL0     O 4740   5.753   7.151   4.537  1.0238  0.0045 -0.6864
   35MOL0     C 4741   5.442   7.029   4.576 -0.5867  0.0323  0.5999
   35MOL0     C 4742   5.357   6.925   4.542 -0.0425 -0.0300 -0.8177
   35MOL0     N 4743   4.677   6.472   4.445 -0.7575  0.0695 -0.3970
   35MOL0     N 4744   4.589   6.399   4.501 -0.2744  0.5189 -0.4411
   35MOL0     C 4745   3.730   5.728   4.388  0.7081  0.0887 -0.4181
   35MOL0     C 4746   3.612   5.694   4.323 -0.5509 -0.2321 -0.1316
   35MOL0     C 4747   3.281   5.559   4.087 -0.1249  0.2607 -0.2518
   35MOL0     C 4748   3.207   5.465   4.160  0.3444 -0.1081  0.1800
   35MOL0     C 4749   3.073   5.446   4.138 -0.6439 -0.3353  0.0356
   35MOL0     C 4750   3.005   5.525   4.052  0.0156  0.1140 -0.6431
   35MOL0     O 4751   2.870   5.509   4.033  0.2143 -0.7021  0.8983
   35MOL0     C 4752   2.844   5.384   3.984 -0.0201 -0.0256 -0.6206
   35MOL0     C 4753   2.702   5.403   3.934  0.9737  0.0180 -0.6894
   35MOL0     C 4754   2.667   5.495   3.817 -0.5472 -0.0955  0.4151
   35MOL0     C 4755   2.762   5.501   3.703  0.1036  0.2510 -0.2249
   35MOL0     C 4756   2.804   5.385   3.637 -0.0762  0.1644 -0.0553
   35MOL0     C 4757   2.861   5.289   3.579  0.7785  0.5651  0.2486
   35MOL0     C 4758   3.079   5.623   3.976 -0.4998  0.6942 -0.4236
   35MOL0     C 4759   3.217   5.639   3.992  1.0286  0.5862  0.5575
   35MOL0     C 4760   3.292   5.709   3.879  0.3214 -0.2332 -1.4750
   35MOL0     H 4761   3.559   5.384   4.425 -1.3416  2.2300  0.2367
   35MOL0     H 4762   3.768   5.433   4.557 -3.2053 -0.7738  1.0407
   35MOL0     H 4763   4.061   5.586   4.445  1.4027  1.9457  1.5344
   35MOL0     H 4764   3.983   5.477   4.558 -3.1626  0.0227  0.2316
   35MOL0     H 4765   4.092   5.588   4.740  0.3880 -0.9505  0.1555
   35MOL0     H 4766   4.205   5.557   4.610  2.3071  2.0702 -1.4418
   35MOL0     H 4767   4.129   5.826   4.573  0.0379 -2.2163 -2.2234
   35MOL0     H 4768   4.161   5.796   4.746  0.5918 -1.0858  0.9304
   35MOL0     H 4769   4.388   5.701   4.681 -3.3949 -1.0823  1.1190
   35MOL0     H 4770   4.349   5.722   4.514 -0.7821 -0.3679 -0.7559
   35MOL0     H 4771   4.340   5.952   4.713 -1.4076 -0.7311 -0.3451
   35MOL0     H 4772   4.336   5.969   4.538 -3.4045  0.3955  1.2788
   35MOL0     H 4773   4.575   5.863   4.703  2.1950 -0.1038 -1.1858
   35MOL0     H 4774   4.570   5.838   4.540  1.9963 -1.0820  2.6920
   35MOL0     H 4775   4.699   6.045   4.580  0.6469 -0.8764 -0.0460
   35MOL0     H 4776   4.581   6.086   4.710 -1.5649 -4.1950  1.5996
   35MOL0     H 4777   4.505   6.106   4.414  0.3024 -2.0248  0.3927
   35MOL0     H 4778   4.428   6.185   4.556 -0.2250  0.5165  0.9573
   35MOL0     H 4779   4.803   6.165   4.407  0.1468 -0.7246  2.1585
   35MOL0     H 4780   4.872   6.473   4.227  0.5649 -0.3492 -0.4744
   35MOL0     H 4781   4.973   6.357   4.324 -0.3950  0.1033  0.7987
   35MOL0     H 4782   4.910   6.641   4.419  1.4421  0.9535 -2.3418
   35MOL0     H 4783   5.001   6.523   4.517 -1.3062 -0.7738  0.5433
   35MOL0     H 4784   5.179   6.513   4.335  1.0599  1.8319 -1.4223
   35MOL0     H 4785   5.079   6.637   4.253  0.3169  0.5682  0.1601
   35MOL0     H 4786   5.127   6.793   4.458 -1.3223 -0.8914  1.1858
   35MOL0     H 4787   5.208   6.659   4.530  2.0936  1.2835 -0.0885
   35MOL0     H 4788   5.484   6.844   4.234 -1.1872  0.6448 -1.5338
   35MOL0     H 4789   5.748   7.104   4.283 -1.1638  0.7424  0.2947
   35MOL0     H 4790   5.627   7.036   4.174  1.0007 -1.5096 -1.9072
   35MOL0     H 4791   5.735   6.928   4.271 -1.7330 -0.0768  1.4169
   35MOL0     H 4792   5.473   7.521   4.525 -0.6923  4.1460  0.1851
   35MOL0     H 4793   5.582   7.743   4.581  3.2261  2.1576  2.3515
   35MOL0     H 4794   5.806   7.804   4.468  2.4949 -2.2133 -0.1437
   35MOL0     H 4795   5.803   7.946   4.572 -1.1497 -1.0006 -2.6251
   35MOL0     H 4796   6.000   7.953   4.456 -2.5846 -0.2082  0.7207
   35MOL0     H 4797   6.061   7.904   4.618 -0.0190 -0.2349  0.9447
   35MOL0     H 4798   6.067   7.741   4.377  2.9069  2.7147 -0.5113
   35MOL0     H 4799   6.006   7.644   4.513  0.6133 -0.3993 -3.0316
   35MOL0     H 4800   6.211   7.722   4.646  2.0607  0.0769 -0.0652
   35MOL0     H 4801   6.270   7.766   4.480  1.1363  0.8626  2.0173
   35MOL0     H 4802   6.210   7.481   4.574  3.9363 -2.2497 -1.9113
   35MOL0     H 4803   6.190   7.538   4.413 -0.2809 -1.3944 -0.0539
   35MOL0     H 4804   6.450   7.609   4.543  0.3336  1.0368 -0.5118
   35MOL0     H 4805   6.410   7.608   4.375 -0.0123 -2.6496 -1.5885
   35MOL0     H 4806   6.382   7.375   4.359 -1.5426  0.4186  0.9117
   35MOL0     H 4807   6.390   7.351   4.531  0.8150  0.1887  1.0970
   35MOL0     H 4808   6.605   7.290   4.470 -0.8076 -0.9151 -1.4801
   35MOL0     H 4809   6.620   7.457   4.529  0.4141  0.4915 -0.2690
   35MOL0     H 4810   5.924   7.533   4.741 -0.3376 -0.1754  2.0332
   35MOL0     H 4811   5.822   7.323   4.696  1.0196  1.2383 -0.4537
   35MOL0     H 4812   5.433   7.089   4.666  1.4754 -0.4958  1.1932
   35MOL0     H 4813   5.274   6.892   4.604 -0.2204  0.2722 -0.8946
   35MOL0     H 4814   3.775   5.827   4.381  0.2461  0.5519  2.0385
   35MOL0     H 4815   3.570   5.772   4.259 -0.5191 -0.3931 -0.3499
   35MOL0     H 4816   3.258   5.406   4.235  0.0973 -1.8793 -1.0002
   35MOL0     H 4817   3.020   5.373   4.198  1.2701 -2.0058 -0.2067
   35MOL0     H 4818   2.911   5.348   3.905 -1.2065 -3.6246 -0.1939
   35MOL0     H 4819   2.855   5.301   4.055 -1.3016 -1.2275 -1.7444
   35MOL0     H 4820   2.639   5.430   4.020 -0.9171 -0.8834 -1.7277
   35MOL0     H 4821   2.674   5.303   3.898  0.7839 -0.1345 -0.1262
   35MOL0     H 4822   2.568   5.469   3.779 -0.9993 -1.1519  2.2309
   35MOL0     H 4823   2.665   5.596   3.858  0.8853 -0.2504  0.9464
   35MOL0     H 4824   2.852   5.546   3.747  0.5242 -0.2318 -0.5780
   35MOL0     H 4825   2.724   5.570   3.627 -0.2781  1.0064  0.6302
   35MOL0     H 4826   2.923   5.211   3.539  2.2626  1.4920  0.6733
   35MOL0     H 4827   3.028   5.679   3.898  0.5889 -0.1188 -1.7490
   35MOL0     H 4828   3.359   5.644   3.822  0.6155  0.6860 -2.2155
   35MOL0     H 4829   3.216   5.753   3.813 -1.1122  0.6817  0.6925
   35MOL0     H 4830   3.341   5.796   3.922 -0.3306  0.2380 -1.6677
   36MOL0     O 4831   1.466   4.031   4.093 -0.0257  0.3776  0.0159
   36MOL0     C 4832   1.456   3.911   4.083 -0.6375  0.5521 -0.3731
   36MOL0     O 4833   1.560   3.820   4.118  0.7807 -0.5024  0.8058
   36MOL0     C 4834   1.679   3.868   4.165  0.2370  0.2663 -0.4010
   36MOL0     C 4835   1.795   3.830   4.100  0.0237 -0.2821 -0.3346
   36MOL0     C 4836   1.919   3.883   4.143  0.5823  0.5136 -0.4148
   36MOL0     C 4837   1.934   3.955   4.258  0.1857 -1.0183 -0.3384
   36MOL0     O 4838   2.048   3.994   4.328  0.9143 -0.2089 -0.0040
   36MOL0     C 4839   2.171   3.962   4.261  0.0664 -0.1770  0.7045
   36MOL0     C 4840   2.287   4.027   4.338  0.2102  0.5441 -0.5744
   36MOL0     C 4841   2.316   4.177   4.291 -0.4326 -0.1536 -0.3630
   36MOL0     C 4842   2.424   4.231   4.385  0.2272  0.1417  0.9467
   36MOL0     C 4843   2.494   4.361   4.351  0.4478  0.4390  0.1411
   36MOL0     C 4844   2.593   4.388   4.457 -0.6690  0.9581  0.4212
   36MOL0     C 4845   2.656   4.520   4.435 -1.0155 -0.4526 -0.0549
   36MOL0     C 4846   2.750   4.564   4.554  0.8150 -1.1237  0.4232
   36MOL0     N 4847   2.848   4.466   4.601  0.3541  0.0448  0.4720
   36MOL0     C 4848   2.947   4.417   4.522  0.1409  0.2803  0.5745
   36MOL0     C 4849   3.013   4.329   4.607  0.0967 -0.0316  0.5667
   36MOL0     C 4850   3.154   4.277   4.589 -0.3015 -0.1480  0.3821
   36MOL0     C 4851   3.260   4.375   4.553  0.8697 -0.2799  0.0090
   36MOL0     C 4852   3.402   4.322   4.571  0.5898  1.2921  0.7915
   36MOL0     C 4853   3.496   4.425   4.533  0.3057  0.3821  0.0322
   36MOL0     O 4854   3.628   4.375   4.526 -0.1929  0.6271  0.4685
   36MOL0     C 4855   3.680   4.349   4.405 -0.3536 -0.5672 -0.3653
   36MOL0     C 4856   3.821   4.356   4.393  0.3204  0.2188 -0.3163
   36MOL0     C 4857   3.892   4.335   4.274  1.3142  0.1370  0.3945
   36MOL0     C 4858   4.032   4.386   4.274 -0.3541 -0.4019 -0.1203
   36MOL0     C 4859   3.820   4.288   4.160  0.2277  0.0788 -0.0865
   36MOL0     C 4860   3.889   4.231   4.041 -0.3229  0.4828 -0.3294
   36MOL0     O 4861   3.816   4.137   3.972 -0.3549 -0.0272 -0.6159
   36MOL0     C 4862   3.896   4.057   3.896 -0.0538  1.0940 -0.3466
   36MOL0     C 4863   3.998   3.983   3.961  0.2669  0.6044 -0.5782
   36MOL0     C 4864   4.089   3.912   3.893  0.0153  0.4635 -0.6077
   36MOL0     C 4865   4.102   3.920   3.754  0.2512  0.2630  0.5354
   36MOL0     O 4866   4.203   3.871   3.679 -0.6620 -0.0325 -0.0971
   36MOL0     C 4867   4.292   3.781   3.746 -0.0005 -0.1619 -0.7447
   36MOL0     C 4868   4.410   3.763   3.645  0.6394 -0.3427 -0.1601
   36MOL0     C 4869   4.532   3.696   3.695 -0.5109  0.3418 -0.0008
   36MOL0     C 4870   4.586   3.756   3.824 -0.2281 -0.2086  0.2358
   36MOL0     C 4871   4.724   3.697   3.867 -0.8026 -0.5321  0.4277
   36MOL0     C 4872   4.764   3.730   4.017  0.1969  0.4432  0.9190
   36MOL0     C 4873   4.913   3.686   4.052 -0.2825 -0.5032 -0.0610
   36MOL0     C 4874   4.937   3.663   4.207 -0.1532  0.3021  0.6263
   36MOL0    Cl 4875   4.836   3.784   4.302 -0.4299  0.8182  0.0265
   36MOL0     C 4876   4.005   3.993   3.688  0.8960 -0.4787 -0.4076
   36MOL0     C 4877   3.900   4.054   3.756  0.6606 -0.8591  0.5056
   36MOL0     O 4878   3.993   4.283   4.002 -0.0003 -0.0539 -0.1196
   36MOL0     C 4879   3.678   4.282   4.173 -0.0540 -0.4901  1.0690
   36MOL0     C 4880   3.612   4.316   4.290  1.0572  0.2256  0.8916
   36MOL0     N 4881   2.937   4.314   4.727  0.1389  0.7162  0.2604
   36MOL0     N 4882   2.843   4.404   4.722 -0.3234 -0.2373 -0.7618
   36MOL0     C 4883   1.812   4.007   4.318  0.0921 -0.7580  0.9675
   36MOL0     C 4884   1.684   3.962   4.269 -0.2444  0.2835 -0.0077
   36MOL0     C 4885   1.339   3.850   4.017 -0.6543  0.1049  0.3286
   36MOL0     C 4886   1.344   3.707   4.000 -0.1123  0.4608  0.5464
   36MOL0     C 4887   1.237   3.635   3.944 -0.2864 -0.7091  0.2237
   36MOL0     C 4888   1.124   3.706   3.909 -0.6186  0.2942 -0.1102
   36MOL0     O 4889   1.011   3.664   3.846 -0.2918 -1.1155 -0.0616
   36MOL0     C 4890   0.968   3.528   3.871  0.1112 -0.2601  0.4999
   36MOL0     C 4891   0.903   3.460   3.748 -0.6588  0.8677  0.6906
   36MOL0     C 4892   0.755   3.514   3.712 -0.0999  0.4782  0.0745
   36MOL0     C 4893   0.716   3.443   3.590 -0.4441  0.7540  0.2292
   36MOL0     C 4894   0.582   3.493   3.551  0.2700  0.3552  0.0248
   36MOL0     C 4895   0.480   3.539   3.503 -0.0451  0.5017 -0.8121
   36MOL0     C 4896   1.124   3.845   3.919 -0.3200  0.3883 -0.6206
   36MOL0     C 4897   1.224   3.913   3.980  0.6697 -0.3478 -0.4629
   36MOL0     C 4898   1.217   4.065   3.987  0.6528 -0.5516  0.4605
   36MOL0     H 4899   1.786   3.768   4.011 -0.6665 -0.0820 -0.4097
   36MOL0     H 4900   2.007   3.842   4.095  1.5467 -0.5585  2.0986
   36MOL0     H 4901   2.175   3.997   4.157  1.9959 -0.7919  0.5127
   36MOL0     H 4902   2.184   3.853   4.256  0.3227 -0.1061 -0.6862
   36MOL0     H 4903   2.269   4.034   4.446  0.9865 -1.7551 -0.2362
   36MOL0     H 4904   2.376   3.970   4.311 -2.0464 -2.5610 -2.0904
   36MOL0     H 4905   2.356   4.182   4.189  5.0403  1.2254  1.5085
   36MOL0     H 4906   2.225   4.238   4.297  0.6389  1.5340 -0.6733
   36MOL0     H 4907   2.391   4.241   4.489  0.1409 -3.8301  1.4347
   36MOL0     H 4908   2.503   4.156   4.387 -1.4063 -1.6824  0.5305
   36MOL0     H 4909   2.417   4.438   4.348  0.2925  0.2907  0.2641
   36MOL0     H 4910   2.551   4.344   4.259  0.5346  2.5782 -0.2414
   36MOL0     H 4911   2.536   4.396   4.550  2.3494 -0.4337  2.5608
   36MOL0     H 4912   2.668   4.309   4.471  0.7212  2.3724  1.3115
   36MOL0     H 4913   2.578   4.595   4.419  1.7025  3.1662  1.9804
   36MOL0     H 4914   2.713   4.516   4.342  1.3464  0.4380  1.2768
   36MOL0     H 4915   2.811   4.649   4.522 -0.0108 -0.0875  1.4999
   36MOL0     H 4916   2.691   4.605   4.637  0.8237 -2.5805  1.1737
   36MOL0     H 4917   2.982   4.460   4.429  4.2729  2.2464  2.7732
   36MOL0     H 4918   3.168   4.209   4.505  2.0462 -0.8799  1.2788
   36MOL0     H 4919   3.185   4.221   4.678  3.1652  2.6705  1.1403
   36MOL0     H 4920   3.237   4.410   4.452  1.1626  1.6070  0.5711
   36MOL0     H 4921   3.249   4.468   4.608 -1.5195 -0.6457  0.2595
   36MOL0     H 4922   3.436   4.297   4.671  3.3484 -0.5037 -0.4799
   36MOL0     H 4923   3.404   4.237   4.502  1.2927  2.0330 -0.1294
   36MOL0     H 4924   3.474   4.463   4.433 -0.6184 -0.7417 -0.2196
   36MOL0     H 4925   3.501   4.505   4.607 -2.8031  0.6657  0.0809
   36MOL0     H 4926   3.872   4.382   4.485 -0.4411 -4.0794  1.5875
   36MOL0     H 4927   4.045   4.476   4.213 -1.0478 -1.4244 -1.8843
   36MOL0     H 4928   4.093   4.316   4.216 -0.0443  1.6287 -2.4123
   36MOL0     H 4929   4.066   4.392   4.377 -0.4106 -0.9579 -0.0653
   36MOL0     H 4930   3.996   3.986   4.070 -0.9996 -3.3096 -0.3363
   36MOL0     H 4931   4.169   3.860   3.946 -0.4723  1.2666  0.9911
   36MOL0     H 4932   4.331   3.824   3.838  3.9551 -1.0971 -1.7785
   36MOL0     H 4933   4.236   3.687   3.754 -0.3189 -0.1338 -2.2588
   36MOL0     H 4934   4.367   3.697   3.568  2.4567 -2.5814  0.6432
   36MOL0     H 4935   4.430   3.854   3.588  0.6236 -0.3926 -0.2458
   36MOL0     H 4936   4.616   3.690   3.625 -1.2706  0.7330 -0.9700
   36MOL0     H 4937   4.509   3.593   3.722 -1.8902  0.4316 -0.7802
   36MOL0     H 4938   4.509   3.747   3.902 -1.3644  0.4122 -0.7762
   36MOL0     H 4939   4.584   3.863   3.802 -1.5308 -0.2120  0.2406
   36MOL0     H 4940   4.709   3.588   3.864 -1.8606 -0.3754 -0.4730
   36MOL0     H 4941   4.810   3.727   3.808  0.6204 -2.2821  1.5091
   36MOL0     H 4942   4.693   3.681   4.085 -0.5075  1.4093  0.8951
   36MOL0     H 4943   4.763   3.839   4.023 -0.7681  0.6981 -2.2860
   36MOL0     H 4944   4.975   3.772   4.027 -1.3664  0.5030  0.6235
   36MOL0     H 4945   4.943   3.596   3.997 -3.4095 -3.0913  2.0313
   36MOL0     H 4946   5.040   3.661   4.241 -0.5854  1.5697  2.1583
   36MOL0     H 4947   4.907   3.560   4.225 -0.2013  0.2190  0.0631
   36MOL0     H 4948   4.006   3.996   3.580  1.8248 -1.0689 -0.4267
   36MOL0     H 4949   3.819   4.106   3.704  1.8539  0.5911  0.0096
   36MOL0     H 4950   3.624   4.237   4.090  0.5139  1.6957 -0.5762
   36MOL0     H 4951   3.505   4.295   4.291  1.4923 -2.3936  0.5654
   36MOL0     H 4952   1.820   4.075   4.402 -0.7915  0.2577  0.2467
   36MOL0     H 4953   1.588   3.984   4.313  0.0866  0.7871  0.4770
   36MOL0     H 4954   1.431   3.645   4.020  0.7259  0.9080 -1.4661
   36MOL0     H 4955   1.245   3.527   3.938  2.2129 -0.5391 -0.6376
   36MOL0     H 4956   1.048   3.463   3.909  0.8754 -0.8068 -1.8691
   36MOL0     H 4957   0.885   3.532   3.942  1.0007 -3.2733  1.8736
   36MOL0     H 4958   0.906   3.355   3.776  0.2918  1.2935  2.3316
   36MOL0     H 4959   0.973   3.469   3.665 -1.1815 -1.5224 -0.0801
   36MOL0     H 4960   0.687   3.487   3.793  0.0784 -0.9913 -0.2236
   36MOL0     H 4961   0.763   3.621   3.692  1.7309  0.3695 -0.0060
   36MOL0     H 4962   0.728   3.337   3.612  2.3357  1.6868  4.3595
   36MOL0     H 4963   0.788   3.468   3.512 -0.8579  1.2735  0.0091
   36MOL0     H 4964   0.391   3.577   3.458  0.1405 -0.8981 -2.4504
   36MOL0     H 4965   1.045   3.908   3.878  0.7063  0.4395 -2.6079
   36MOL0     H 4966   1.308   4.113   3.950  0.2629  0.7567  1.1330
   36MOL0     H 4967   1.130   4.100   3.931 -0.4716 -0.5984  2.1259
   36MOL0     H 4968   1.196   4.092   4.091 -5.0163  0.5831 -0.6534
   37MOL0     O 4969   1.974   0.944   5.843 -0.3347 -0.3441 -0.0873
   37MOL0     C 4970   1.921   0.840   5.804 -0.2835  0.2414 -0.1689
   37MOL0     O 4971   1.992   0.729   5.764  0.3823 -0.0329  0.3894
   37MOL0     C 4972   2.130   0.738   5.782  0.9407  0.0748  0.5026
   37MOL0     C 4973   2.217   0.754   5.679 -0.3768 -0.8675  0.2434
   37MOL0     C 4974   2.354   0.753   5.699  0.4215  0.7035  0.5862
   37MOL0     C 4975   2.401   0.720   5.822  0.0173 -1.0810  0.4792
   37MOL0     O 4976   2.536   0.701   5.847  0.0337 -0.2003  0.4929
   37MOL0     C 4977   2.638   0.753   5.750  0.8643 -0.1356  0.0107
   37MOL0     C 4978   2.778   0.755   5.818 -0.3909  0.0009 -0.6837
   37MOL0     C 4979   2.776   0.888   5.907 -0.4318  0.6596  0.5663
   37MOL0     C 4980   2.898   0.887   6.001  0.2096  0.2402 -0.2238
   37MOL0     C 4981   2.929   1.026   6.058  1.1379  0.3080  0.8158
   37MOL0     C 4982   3.042   1.008   6.159 -0.4452 -0.3567 -0.3091
   37MOL0     C 4983   3.101   1.140   6.198  0.4158  0.0334 -0.5485
   37MOL0     C 4984   3.213   1.140   6.312 -1.3580 -0.1931 -1.0112
   37MOL0     N 4985   3.180   1.075   6.441  0.0011 -0.5401  0.0714
   37MOL0     C 4986   3.057   1.084   6.502  0.0064  0.0113 -0.2182
   37MOL0     C 4987   3.077   1.010   6.615 -0.9612  0.0039  0.8287
   37MOL0     C 4988   2.975   0.977   6.713 -0.2023 -1.8469 -0.8442
   37MOL0     C 4989   2.904   0.847   6.684  0.9007 -0.7165  0.5792
   37MOL0     C 4990   2.810   0.814   6.798  0.2540 -0.4339  0.0337
   37MOL0     C 4991   2.737   0.689   6.764  0.5346  0.7163 -0.2741
   37MOL0     O 4992   2.627   0.658   6.854 -0.3741 -0.3000 -0.5236
   37MOL0     C 4993   2.509   0.736   6.853  0.1942  0.9487  0.1550
   37MOL0     C 4994   2.423   0.721   6.963  0.3906  0.4827  0.6885
   37MOL0     C 4995   2.288   0.763   6.979 -0.2965 -0.4466 -0.0205
   37MOL0     C 4996   2.237   0.728   7.115  0.6620  0.3306  0.3681
   37MOL0     C 4997   2.235   0.833   6.865  0.0509 -0.3384 -0.2694
   37MOL0     C 4998   2.092   0.874   6.854 -0.8752 -0.1260  0.5551
   37MOL0     O 4999   2.058   0.946   6.735 -0.4607  0.5433 -0.2987
   37MOL0     C 5000   1.924   0.936   6.702  0.8227 -0.2162 -0.2681
   37MOL0     C 5001   1.836   1.023   6.762  0.6100 -0.1149  0.1003
   37MOL0     C 5002   1.703   1.016   6.722 -0.9335 -0.2920  0.5983
   37MOL0     C 5003   1.654   0.927   6.636  1.0215  0.5915  0.4148
   37MOL0     O 5004   1.520   0.930   6.605  0.2049 -0.2190 -0.2910
   37MOL0     C 5005   1.495   0.890   6.472 -0.0356  0.4731 -0.5647
   37MOL0     C 5006   1.356   0.953   6.423 -0.3881  0.2141 -0.1023
   37MOL0     C 5007   1.332   1.099   6.455  0.1362 -0.4100  0.5867
   37MOL0     C 5008   1.260   1.121   6.595  1.3806 -0.0527  1.5594
   37MOL0     C 5009   1.246   1.268   6.605 -0.1659 -0.0143 -0.2778
   37MOL0     C 5010   1.223   1.319   6.747 -0.2653 -0.4645  0.2183
   37MOL0     C 5011   1.078   1.285   6.791  0.3127  0.4930  0.7358
   37MOL0     C 5012   1.018   1.366   6.905  0.2941 -0.1156  0.3927
   37MOL0    Cl 5013   0.862   1.293   6.948  0.4828 -0.0059 -0.0906
   37MOL0     C 5014   1.736   0.829   6.587 -1.2546 -0.8699 -0.5231
   37MOL0     C 5015   1.872   0.834   6.618  0.3898 -0.4089 -0.2053
   37MOL0     O 5016   2.004   0.840   6.932  0.5134  0.6430 -0.9649
   37MOL0     C 5017   2.317   0.860   6.752 -0.4152  0.0569 -0.2997
   37MOL0     C 5018   2.449   0.805   6.749  0.0729 -1.3305  0.2283
   37MOL0     N 5019   3.204   0.950   6.612 -1.0638  0.0938  0.0451
   37MOL0     N 5020   3.263   0.998   6.512 -0.2971 -0.6355 -0.0998
   37MOL0     C 5021   2.314   0.687   5.923 -0.5341 -0.3901 -0.5049
   37MOL0     C 5022   2.179   0.699   5.905 -0.3357 -0.2107  0.4015
   37MOL0     C 5023   1.774   0.837   5.786 -0.5527  0.1100 -0.0459
   37MOL0     C 5024   1.715   0.717   5.743 -0.4518  0.5954 -0.4715
   37MOL0     C 5025   1.589   0.704   5.701  0.1632  0.5411 -0.3963
   37MOL0     C 5026   1.507   0.813   5.723  1.0226 -0.5055  0.0102
   37MOL0     O 5027   1.369   0.808   5.698 -0.6656  0.0935 -0.2354
   37MOL0     C 5028   1.303   0.689   5.651  0.7347  0.7511 -0.6502
   37MOL0     C 5029   1.270   0.609   5.769 -0.1718  0.2832 -0.0516
   37MOL0     C 5030   1.157   0.666   5.859  0.0654 -0.5473  0.7637
   37MOL0     C 5031   1.152   0.608   5.995  0.9019  0.3688  0.0032
   37MOL0     C 5032   1.262   0.658   6.070 -0.0084  0.3733 -0.7834
   37MOL0     C 5033   1.347   0.696   6.144  0.5253 -0.0847 -0.7645
   37MOL0     C 5034   1.552   0.943   5.775  0.0631  0.1809  0.0191
   37MOL0     C 5035   1.692   0.957   5.794 -0.2392  0.4211  0.6082
   37MOL0     C 5036   1.739   1.095   5.842 -0.2207 -0.1251  0.1877
   37MOL0     H 5037   2.176   0.780   5.582  0.8033  0.9732  0.2020
   37MOL0     H 5038   2.414   0.759   5.608  1.5458 -2.0551  1.0512
   37MOL0     H 5039   2.616   0.856   5.718  1.2304  0.3525  1.2474
   37MOL0     H 5040   2.638   0.698   5.656 -2.0479  2.7996 -1.9345
   37MOL0     H 5041   2.801   0.662   5.870 -0.1378  0.6855  0.4485
   37MOL0     H 5042   2.855   0.758   5.740  0.7104  0.6670  0.4089
   37MOL0     H 5043   2.775   0.975   5.841 -0.9527 -1.3702 -2.2599
   37MOL0     H 5044   2.686   0.900   5.968 -0.6615  0.6603  0.2313
   37MOL0     H 5045   2.872   0.816   6.079 -0.1006 -0.8261 -1.2590
   37MOL0     H 5046   2.996   0.859   5.960  0.4665 -0.2696  0.7274
   37MOL0     H 5047   2.840   1.067   6.107  0.1393 -1.7855  0.8665
   37MOL0     H 5048   2.949   1.098   5.977 -1.2425 -0.0436 -0.1943
   37MOL0     H 5049   3.008   0.957   6.250  0.7823  0.7861  0.8501
   37MOL0     H 5050   3.131   0.956   6.122  1.0027  1.4160  0.5117
   37MOL0     H 5051   3.025   1.203   6.244 -0.4056 -2.1890  1.3319
   37MOL0     H 5052   3.132   1.190   6.106 -3.1943 -0.7139 -2.3487
   37MOL0     H 5053   3.295   1.084   6.267 -0.7817 -0.0196 -0.1834
   37MOL0     H 5054   3.248   1.239   6.341 -1.3164 -0.1367 -1.2468
   37MOL0     H 5055   2.965   1.137   6.480 -1.1234 -1.3435  1.0605
   37MOL0     H 5056   2.902   1.059   6.714  1.6750 -0.0844 -1.1768
   37MOL0     H 5057   3.018   0.972   6.813  2.2954  2.0065 -1.4996
   37MOL0     H 5058   2.839   0.869   6.599 -1.8226 -1.0265  2.4340
   37MOL0     H 5059   2.963   0.762   6.650 -0.8490 -0.7315 -2.8573
   37MOL0     H 5060   2.866   0.815   6.892 -0.9777  4.2367  0.9746
   37MOL0     H 5061   2.737   0.894   6.815 -0.3288 -1.4435  2.9092
   37MOL0     H 5062   2.699   0.702   6.663  2.1179  3.4564 -0.6237
   37MOL0     H 5063   2.797   0.598   6.772  2.3921  1.9015  0.0413
   37MOL0     H 5064   2.470   0.672   7.048 -1.2802  0.6513  1.7398
   37MOL0     H 5065   2.153   0.790   7.147 -0.8221 -1.4188  0.0565
   37MOL0     H 5066   2.309   0.732   7.197  2.2778 -0.2830 -0.9657
   37MOL0     H 5067   2.197   0.626   7.110 -0.2786  0.6813  0.6485
   37MOL0     H 5068   1.865   1.095   6.837  0.8694 -1.4664  1.3506
   37MOL0     H 5069   1.622   1.081   6.754 -1.4090 -0.8034  0.4617
   37MOL0     H 5070   1.575   0.927   6.406 -1.1387 -0.7459 -2.6757
   37MOL0     H 5071   1.504   0.783   6.453 -1.0874  0.8024 -3.5108
   37MOL0     H 5072   1.346   0.939   6.315  1.0529 -2.2903 -0.0069
   37MOL0     H 5073   1.275   0.890   6.461  1.1365 -1.2612  0.8922
   37MOL0     H 5074   1.280   1.159   6.380  0.1424  1.0108  1.6696
   37MOL0     H 5075   1.432   1.141   6.457  1.2691 -2.8157 -0.8016
   37MOL0     H 5076   1.299   1.074   6.685  0.4263 -2.7671  0.6489
   37MOL0     H 5077   1.160   1.076   6.597  1.0662  0.4189 -0.7049
   37MOL0     H 5078   1.343   1.315   6.582  0.3057 -1.2686 -0.9318
   37MOL0     H 5079   1.167   1.292   6.533 -0.2817  0.5996  0.0475
   37MOL0     H 5080   1.231   1.428   6.750 -1.1978 -0.3465 -0.7803
   37MOL0     H 5081   1.293   1.280   6.821  1.5368  1.3466 -0.4581
   37MOL0     H 5082   1.076   1.179   6.819  2.6077  0.1756 -0.0929
   37MOL0     H 5083   1.009   1.302   6.708 -0.7004 -1.0621  1.2054
   37MOL0     H 5084   1.002   1.468   6.869  0.5006 -0.4322 -0.6402
   37MOL0     H 5085   1.082   1.366   6.994 -1.6695 -0.3595  1.8493
   37MOL0     H 5086   1.707   0.751   6.517 -0.2630  1.8152 -4.3071
   37MOL0     H 5087   1.933   0.756   6.573  0.0200 -0.5155 -0.5303
   37MOL0     H 5088   2.277   0.902   6.661  0.3262  0.8009 -0.2997
   37MOL0     H 5089   2.502   0.814   6.655 -3.0849 -1.2299 -1.7076
   37MOL0     H 5090   2.348   0.657   6.022  1.5337  0.7729 -0.8274
   37MOL0     H 5091   2.116   0.670   5.989 -0.1756  1.6293  1.2043
   37MOL0     H 5092   1.778   0.629   5.735 -2.5203 -0.9399 -0.7003
   37MOL0     H 5093   1.561   0.606   5.665  0.3580  0.6525 -0.8571
   37MOL0     H 5094   1.212   0.728   5.605  1.1149  2.8330  0.2639
   37MOL0     H 5095   1.363   0.636   5.576  2.3423  0.0514  1.0289
   37MOL0     H 5096   1.358   0.598   5.833 -1.4944  0.9706  1.9729
   37MOL0     H 5097   1.255   0.504   5.741 -0.7283  0.3010  0.1788
   37MOL0     H 5098   1.176   0.773   5.865 -0.6579 -0.3430 -0.3602
   37MOL0     H 5099   1.062   0.660   5.806 -0.2425 -2.6701  1.4254
   37MOL0     H 5100   1.157   0.499   5.991 -0.5242  0.3111 -2.7938
   37MOL0     H 5101   1.063   0.645   6.048  0.1071 -2.3041  0.6795
   37MOL0     H 5102   1.421   0.715   6.219 -3.2677  0.6777  3.1323
   37MOL0     H 5103   1.489   1.030   5.793  1.6582  1.6850 -1.3479
   37MOL0     H 5104   1.806   1.132   5.765 -1.6378  1.2418 -0.4450
   37MOL0     H 5105   1.652   1.162   5.842 -1.8613 -2.1366  0.2355
   37MOL0     H 5106   1.776   1.094   5.945  0.6004 -2.1035 -0.0793
   38MOL0     O 5107   9.070   6.012   3.295  0.0626  0.0413  0.1533
   38MOL0     C 5108   9.019   5.962   3.390  0.4463 -0.9156 -0.0513
   38MOL0     O 5109   9.091   5.896   3.494  0.9872  0.4432  0.2894
   38MOL0     C 5110   9.222   5.921   3.512  0.3702  0.3224 -0.4782
   38MOL0     C 5111   9.278   6.049   3.497  0.4902 -0.6760  0.5461
   38MOL0     C 5112   9.418   6.069   3.504  0.0324 -0.5675 -0.9428
   38MOL0     C 5113   9.512   5.968   3.538  0.3592  0.2866  0.6389
   38MOL0     O 5114   9.642   5.998   3.547 -0.6669  0.6674  0.0692
   38MOL0     C 5115   9.727   5.880   3.561  0.3981 -0.1753 -0.1355
   38MOL0     C 5116   9.876   5.907   3.574  0.1723  0.8317  0.2595
   38MOL0     C 5117   9.929   5.955   3.441 -0.7985 -0.6176 -0.2077
   38MOL0     C 5118   9.915   5.864   3.312 -0.4847 -0.0439 -0.1103
   38MOL0     C 5119  10.032   5.901   3.219 -0.3218  0.2789 -0.4785
   38MOL0     C 5120  10.039   5.792   3.107 -0.5536 -0.6487 -0.6521
   38MOL0     C 5121   9.913   5.806   3.022 -0.1139 -0.6692  0.1082
   38MOL0     C 5122   9.880   5.944   2.954 -0.1631 -0.1114 -0.1291
   38MOL0     N 5123  10.003   5.981   2.886  0.6569 -0.3614 -0.9547
   38MOL0     C 5124  10.041   5.920   2.770  0.0315  0.4179 -0.4368
   38MOL0     C 5125  10.176   5.939   2.758 -0.1976 -0.0502  0.1244
   38MOL0     C 5126  10.245   5.901   2.631 -0.6239  0.6842 -1.1225
   38MOL0     C 5127  10.292   5.753   2.652 -0.8476 -0.6024 -0.7859
   38MOL0     C 5128  10.430   5.720   2.713 -0.0639 -0.0532 -0.7205
   38MOL0     C 5129  10.447   5.776   2.853  0.9745  0.2701 -0.3598
   38MOL0     O 5130  10.528   5.696   2.939  0.0757 -0.2342 -0.9886
   38MOL0     C 5131  10.472   5.591   3.014 -1.2519 -0.8029  0.3102
   38MOL0     C 5132  10.546   5.548   3.119 -0.5807 -0.3214  0.3095
   38MOL0     C 5133  10.521   5.438   3.192  0.8448 -0.0365  0.5477
   38MOL0     C 5134  10.609   5.407   3.315  0.1853  0.2503  0.0086
   38MOL0     C 5135  10.407   5.366   3.149  0.3689 -0.0395  0.4036
   38MOL0     C 5136  10.360   5.252   3.219  0.2172  1.2206  0.3490
   38MOL0     O 5137  10.284   5.157   3.136 -0.4672 -0.2499 -1.0512
   38MOL0     C 5138  10.244   5.047   3.204  0.3045  0.6128  0.8031
   38MOL0     C 5139  10.331   4.962   3.278  0.3875  0.9553  0.0475
   38MOL0     C 5140  10.280   4.846   3.346 -1.0506 -0.4490  0.2326
   38MOL0     C 5141  10.142   4.818   3.343  0.0507  0.1226  0.1339
   38MOL0     O 5142  10.088   4.717   3.416  0.0187  0.3090  0.2181
   38MOL0     C 5143  10.162   4.597   3.457 -0.2141  0.0186  0.4978
   38MOL0     C 5144  10.090   4.472   3.426  0.7604 -0.3703 -0.2853
   38MOL0     C 5145  10.161   4.348   3.480  0.2181 -0.2234  0.2200
   38MOL0     C 5146  10.290   4.314   3.392  0.0678  0.7676 -0.1603
   38MOL0     C 5147  10.363   4.191   3.450 -0.1939  0.3603  0.5310
   38MOL0     C 5148  10.279   4.062   3.456  0.1591 -0.8916 -0.4011
   38MOL0     C 5149  10.363   3.936   3.483 -0.0342 -0.4075 -0.0323
   38MOL0     C 5150  10.294   3.805   3.457 -0.4966 -0.5853  0.2744
   38MOL0    Cl 5151  10.142   3.780   3.552  0.0935  0.1953  0.7792
   38MOL0     C 5152  10.055   4.900   3.269  0.1477  0.7012 -0.0254
   38MOL0     C 5153  10.106   5.011   3.200  0.2205 -0.3450 -0.2683
   38MOL0     O 5154  10.369   5.255   3.345  0.1441  1.3825  0.0273
   38MOL0     C 5155  10.330   5.409   3.044  0.5817 -0.0818  0.1964
   38MOL0     C 5156  10.363   5.520   2.971  0.6552 -1.2662 -0.1064
   38MOL0     N 5157  10.215   6.028   2.852 -0.4907 -0.9092 -0.1029
   38MOL0     N 5158  10.109   6.048   2.930  0.3010  0.4893  0.2133
   38MOL0     C 5159   9.449   5.839   3.548  0.0737 -0.0791 -0.4530
   38MOL0     C 5160   9.308   5.821   3.534 -0.1683 -0.9003 -0.0577
   38MOL0     C 5161   8.869   5.955   3.398 -0.2490 -0.0057  0.0393
   38MOL0     C 5162   8.816   5.901   3.515 -0.5899  0.4264 -0.0837
   38MOL0     C 5163   8.674   5.889   3.541  0.2029 -0.3235  0.0034
   38MOL0     C 5164   8.590   5.943   3.443 -0.4468  0.5757  0.3464
   38MOL0     O 5165   8.452   5.952   3.449 -0.5490 -0.0356 -0.3286
   38MOL0     C 5166   8.384   5.831   3.482 -1.0495 -0.5601  0.3128
   38MOL0     C 5167   8.342   5.840   3.626  0.5276  0.2671  1.1115
   38MOL0     C 5168   8.227   5.933   3.653 -0.1512 -1.2980 -0.2225
   38MOL0     C 5169   8.107   5.914   3.566 -0.0835  0.0256  0.4264
   38MOL0     C 5170   7.987   5.950   3.639  0.3345 -0.4971 -0.6491
   38MOL0     C 5171   7.895   6.008   3.689  0.4820 -0.6088  0.3621
   38MOL0     C 5172   8.646   6.001   3.328  0.5037  0.0765 -0.5073
   38MOL0     C 5173   8.780   6.005   3.302  0.1214 -0.0808 -0.6298
   38MOL0     C 5174   8.824   6.079   3.177  0.4431  0.3586  0.5267
   38MOL0     H 5175   9.221   6.137   3.469 -0.1048 -1.3180 -0.3149
   38MOL0     H 5176   9.466   6.164   3.484  4.6133 -2.3155  0.4287
   38MOL0     H 5177   9.709   5.812   3.477 -0.1394 -0.5052  0.2397
   38MOL0     H 5178   9.689   5.818   3.643  2.5527 -0.8133  0.4489
   38MOL0     H 5179   9.899   5.966   3.664 -0.3512  0.9624  0.3146
   38MOL0     H 5180   9.921   5.809   3.591  0.5646  1.1962  1.4278
   38MOL0     H 5181   9.877   6.048   3.416  1.9713  0.5393 -2.1163
   38MOL0     H 5182  10.034   5.978   3.457 -0.6141 -0.5838 -1.4123
   38MOL0     H 5183   9.914   5.757   3.335 -0.2161  0.3985  2.1790
   38MOL0     H 5184   9.817   5.878   3.265  0.3138 -0.7491 -2.1026
   38MOL0     H 5185  10.125   5.899   3.278  0.6732  2.5325 -1.8513
   38MOL0     H 5186  10.013   6.004   3.190 -0.5352  0.4530  0.2569
   38MOL0     H 5187  10.130   5.803   3.047 -1.3571 -1.6670 -2.1251
   38MOL0     H 5188  10.047   5.692   3.151  0.5260 -0.0209  0.6389
   38MOL0     H 5189   9.826   5.780   3.083 -2.2645  1.1375 -2.0079
   38MOL0     H 5190   9.933   5.734   2.943 -0.0656  0.7257 -1.1801
   38MOL0     H 5191   9.799   5.928   2.881 -1.6115 -2.9577  1.8928
   38MOL0     H 5192   9.856   6.025   3.024  1.6591  0.4653 -0.1363
   38MOL0     H 5193   9.979   5.854   2.710 -1.6166 -0.1090  1.7003
   38MOL0     H 5194  10.319   5.979   2.612  1.9950 -1.3019  0.2926
   38MOL0     H 5195  10.176   5.883   2.548  0.6247 -2.3255 -1.6419
   38MOL0     H 5196  10.215   5.702   2.711 -1.2643 -0.8096 -1.4971
   38MOL0     H 5197  10.300   5.699   2.557  1.1317 -0.3227 -0.8140
   38MOL0     H 5198  10.441   5.612   2.725 -2.8488 -0.2600  0.8005
   38MOL0     H 5199  10.513   5.747   2.646  0.4558 -1.4913 -0.6956
   38MOL0     H 5200  10.496   5.873   2.841  3.7284 -0.6892  2.0266
   38MOL0     H 5201  10.344   5.781   2.890  0.9791 -0.0465 -0.3019
   38MOL0     H 5202  10.632   5.611   3.141 -0.9139  0.0552  0.5370
   38MOL0     H 5203  10.690   5.479   3.333  2.1002 -2.0040  0.9441
   38MOL0     H 5204  10.648   5.306   3.304 -1.7629 -0.7077  1.4157
   38MOL0     H 5205  10.555   5.412   3.410  2.6741  3.5023  1.4863
   38MOL0     H 5206  10.436   4.988   3.284  0.5598 -0.0473  2.2509
   38MOL0     H 5207  10.354   4.793   3.405 -2.3739 -1.5779  0.9351
   38MOL0     H 5208  10.265   4.603   3.420  0.0255 -2.7823  0.4844
   38MOL0     H 5209  10.177   4.613   3.564  0.1467 -0.2191  0.4853
   38MOL0     H 5210   9.988   4.475   3.467  0.6610 -3.2070 -0.0818
   38MOL0     H 5211  10.077   4.467   3.317 -2.5245  0.4356 -0.0571
   38MOL0     H 5212  10.083   4.273   3.468  0.0234 -0.3482  2.0889
   38MOL0     H 5213  10.189   4.364   3.584  0.5362  3.2377 -0.2675
   38MOL0     H 5214  10.357   4.401   3.384 -0.3116  1.0371 -0.4103
   38MOL0     H 5215  10.253   4.287   3.293  1.6962 -0.9871 -0.3626
   38MOL0     H 5216  10.451   4.177   3.388 -1.3755 -1.5449 -0.8192
   38MOL0     H 5217  10.387   4.203   3.556  1.3259 -1.1093  0.3999
   38MOL0     H 5218  10.235   4.043   3.358 -2.0160 -1.0456  0.5483
   38MOL0     H 5219  10.206   4.062   3.538 -0.2517  1.5830 -0.6904
   38MOL0     H 5220  10.372   3.928   3.591  1.3391 -1.0747 -0.1762
   38MOL0     H 5221  10.459   3.928   3.432 -0.7165 -0.8735 -1.2897
   38MOL0     H 5222  10.362   3.720   3.471 -0.4055  0.0254  5.2650
   38MOL0     H 5223  10.263   3.818   3.353 -2.0761  0.5513  0.8658
   38MOL0     H 5224   9.950   4.873   3.263 -1.0996  4.0660  3.0059
   38MOL0     H 5225  10.038   5.073   3.144 -0.5841 -0.8925  0.0852
   38MOL0     H 5226  10.239   5.354   3.024  0.4738 -0.6852  2.2016
   38MOL0     H 5227  10.302   5.551   2.887 -1.0719 -0.1563  1.4847
   38MOL0     H 5228   9.511   5.752   3.569 -0.8344 -0.8245 -0.8118
   38MOL0     H 5229   9.275   5.717   3.536  1.0676 -1.4548  4.6729
   38MOL0     H 5230   8.886   5.871   3.592 -0.4545 -2.3053 -1.1659
   38MOL0     H 5231   8.643   5.841   3.634 -1.9252 -1.2613 -1.1247
   38MOL0     H 5232   8.299   5.803   3.419 -0.7541 -2.2255  0.6124
   38MOL0     H 5233   8.460   5.756   3.461 -0.3219  0.4768 -0.8575
   38MOL0     H 5234   8.429   5.869   3.686  1.8075 -0.6292 -0.2328
   38MOL0     H 5235   8.306   5.744   3.663 -1.0284 -0.2332 -1.4506
   38MOL0     H 5236   8.203   5.916   3.758 -1.2384 -0.7840 -0.3717
   38MOL0     H 5237   8.272   6.032   3.641  0.7117 -1.6947 -0.3133
   38MOL0     H 5238   8.111   5.811   3.531  2.4356  0.0883  0.3293
   38MOL0     H 5239   8.124   5.993   3.492  0.6490 -0.1470  0.4084
   38MOL0     H 5240   7.813   6.062   3.730  1.5531  1.0118  0.4630
   38MOL0     H 5241   8.580   6.048   3.256 -0.6242 -0.8477 -0.1237
   38MOL0     H 5242   8.852   6.011   3.096  0.2721  2.4440 -1.3650
   38MOL0     H 5243   8.741   6.137   3.137 -1.1779 -2.6338 -0.8170
   38MOL0     H 5244   8.905   6.151   3.193  2.0387 -1.0912 -0.6418
   39MOL0     O 5245   6.666   0.835  10.456  0.8703 -0.2743 -0.5795
   39MOL0     C 5246   6.638   0.870  10.341  0.3997 -0.4511  0.2495
   39MOL0     O 5247   6.728   0.897  10.242 -0.2394  0.1260 -0.1659
   39MOL0     C 5248   6.864   0.878  10.253 -0.1428  0.3627  0.2514
   39MOL0     C 5249   6.932   0.878  10.366 -0.1561  0.5717 -1.0939
   39MOL0     C 5250   7.071   0.877  10.364  0.6167 -0.0630  0.2423
   39MOL0     C 5251   7.146   0.873  10.243  1.3775  0.2208 -0.6994
   39MOL0     O 5252   7.285   0.859  10.248  0.1371  0.1021  0.3981
   39MOL0     C 5253   7.349   0.787  10.140  0.1042 -0.9700 -0.2765
   39MOL0     C 5254   7.495   0.768  10.156  1.1969  0.1690 -0.5967
   39MOL0     C 5255   7.531   0.660  10.263  0.1334  0.4571  0.0370
   39MOL0     C 5256   7.544   0.733  10.396 -0.0261  0.1592  0.0979
   39MOL0     C 5257   7.546   0.636  10.514  0.2373 -0.4063 -1.0559
   39MOL0     C 5258   7.566   0.706  10.646  1.3117  0.4485  0.1767
   39MOL0     C 5259   7.565   0.608  10.765  0.5522  0.2327  0.3381
   39MOL0     C 5260   7.552   0.689  10.897 -0.7446  0.5590 -0.4634
   39MOL0     N 5261   7.685   0.739  10.934  0.0270  0.4092  0.4817
   39MOL0     C 5262   7.791   0.657  10.982  0.3183 -0.0860  0.0944
   39MOL0     C 5263   7.881   0.740  11.036  0.4812 -1.0428 -0.4412
   39MOL0     C 5264   8.014   0.713  11.074  0.2227  0.9157  0.3590
   39MOL0     C 5265   8.114   0.772  10.976 -0.2784 -0.0214  0.8743
   39MOL0     C 5266   8.267   0.767  11.029  0.2529  0.2566 -0.3200
   39MOL0     C 5267   8.349   0.879  10.968 -0.0588 -0.2580  0.1977
   39MOL0     O 5268   8.326   1.010  11.016  0.0418 -0.1789  0.7472
   39MOL0     C 5269   8.398   1.069  11.117 -0.4155 -0.1909 -0.0385
   39MOL0     C 5270   8.407   1.209  11.122 -0.6940  0.5624  0.4251
   39MOL0     C 5271   8.484   1.277  11.220 -0.2011 -0.8407 -0.4296
   39MOL0     C 5272   8.473   1.430  11.209  0.0946  0.4386 -0.2926
   39MOL0     C 5273   8.569   1.198  11.302  0.3225 -1.0042 -1.3891
   39MOL0     C 5274   8.649   1.257  11.406 -0.4995  0.1518  0.4774
   39MOL0     O 5275   8.720   1.169  11.488  0.1496  0.5588  0.5442
   39MOL0     C 5276   8.803   1.223  11.580 -0.7705  0.0651 -0.3394
   39MOL0     C 5277   8.922   1.282  11.545  0.8448  0.1052 -0.3401
   39MOL0     C 5278   9.001   1.340  11.641  0.6155  0.3571 -0.9059
   39MOL0     C 5279   8.969   1.322  11.782  0.4091 -0.3252  0.6071
   39MOL0     O 5280   9.065   1.366  11.866 -0.2691 -0.1826 -0.0876
   39MOL0     C 5281   9.076   1.296  11.991 -0.4966  0.2111 -1.4115
   39MOL0     C 5282   9.199   1.340  12.075 -0.5218 -0.0656 -0.0187
   39MOL0     C 5283   9.338   1.319  12.002  0.3000 -0.0786  0.8158
   39MOL0     C 5284   9.445   1.251  12.092 -0.2158  0.2902 -0.4158
   39MOL0     C 5285   9.581   1.258  12.016 -0.2271 -0.5880  0.7000
   39MOL0     C 5286   9.636   1.399  11.998  0.0232  0.7280  0.1277
   39MOL0     C 5287   9.786   1.402  11.986 -0.5001  0.4138  0.9062
   39MOL0     C 5288   9.838   1.545  11.983  0.0875 -0.0908 -0.5165
   39MOL0    Cl 5289   9.829   1.616  11.832 -0.0194 -0.2281  0.0005
   39MOL0     C 5290   8.851   1.259  11.822  0.4630  0.3797  0.1386
   39MOL0     C 5291   8.770   1.215  11.714  0.4645  0.5289 -0.1111
   39MOL0     O 5292   8.645   1.376  11.411  0.6103  0.1539 -0.7670
   39MOL0     C 5293   8.552   1.056  11.303  0.0695 -0.9477  0.5215
   39MOL0     C 5294   8.473   0.991  11.213  0.9126 -0.5824  0.2106
   39MOL0     N 5295   7.826   0.864  11.028  0.0784 -0.6499  0.2202
   39MOL0     N 5296   7.718   0.864  10.958  0.5910 -0.2807 -0.7357
   39MOL0     C 5297   7.073   0.875  10.123  0.3023 -0.3732 -0.1453
   39MOL0     C 5298   6.932   0.889  10.128  0.6650 -0.3677  0.1149
   39MOL0     C 5299   6.498   0.915  10.322 -0.1012  0.4975 -0.2647
   39MOL0     C 5300   6.407   0.868  10.411  0.2038 -0.2203 -0.1608
   39MOL0     C 5301   6.272   0.890  10.395  0.2260  0.9906  0.7442
   39MOL0     C 5302   6.231   0.963  10.292 -0.8685  0.2942 -0.5501
   39MOL0     O 5303   6.101   1.005  10.303 -0.1659  0.4631 -0.1680
   39MOL0     C 5304   6.041   1.085  10.202  0.5480  0.5382  0.1341
   39MOL0     C 5305   5.904   1.126  10.242  0.0565 -0.4885  0.7182
   39MOL0     C 5306   5.906   1.241  10.339  0.5799 -0.3243 -0.3658
   39MOL0     C 5307   5.772   1.320  10.348 -0.2543  0.8555 -0.5477
   39MOL0     C 5308   5.729   1.362  10.212  0.5441 -0.2272 -0.2624
   39MOL0     C 5309   5.692   1.389  10.097 -0.1708  0.3792  1.0906
   39MOL0     C 5310   6.322   1.005  10.194 -0.3168  0.5319 -0.1232
   39MOL0     C 5311   6.456   0.976  10.203 -0.7644 -0.8799 -0.6823
   39MOL0     C 5312   6.542   1.026  10.087 -0.8411 -0.2053 -1.1373
   39MOL0     H 5313   6.879   0.896  10.459  2.8641  0.2421  0.8304
   39MOL0     H 5314   7.130   0.867  10.454 -1.2845 -4.2720  1.2771
   39MOL0     H 5315   7.339   0.849  10.051 -1.8490  0.1329  0.6533
   39MOL0     H 5316   7.300   0.690  10.124  0.1839 -0.9850 -0.4381
   39MOL0     H 5317   7.527   0.729  10.059 -1.2740 -2.0878 -0.6139
   39MOL0     H 5318   7.550   0.862  10.168  0.9589  0.1334  1.0855
   39MOL0     H 5319   7.458   0.580  10.275  2.1759 -1.7231 -1.1114
   39MOL0     H 5320   7.619   0.608  10.225 -0.3274 -0.5153  0.2746
   39MOL0     H 5321   7.633   0.797  10.410  1.7871 -2.3279  0.5760
   39MOL0     H 5322   7.460   0.801  10.415 -0.5430 -0.7834  1.3286
   39MOL0     H 5323   7.631   0.568  10.502  0.2813 -0.6139  0.2824
   39MOL0     H 5324   7.456   0.575  10.525 -0.4991  0.7845 -0.2863
   39MOL0     H 5325   7.654   0.771  10.638  0.8516  1.0321 -0.2881
   39MOL0     H 5326   7.485   0.779  10.659 -1.4482 -1.9339 -2.2263
   39MOL0     H 5327   7.658   0.549  10.765 -0.2422 -1.0819  1.2034
   39MOL0     H 5328   7.482   0.537  10.754  0.0816  0.5878  1.4374
   39MOL0     H 5329   7.474   0.765  10.898 -2.6564 -0.9893 -4.8780
   39MOL0     H 5330   7.529   0.610  10.970  0.1276 -0.5991 -1.3816
   39MOL0     H 5331   7.797   0.549  10.968 -2.5524 -0.0417 -2.5079
   39MOL0     H 5332   8.026   0.605  11.088  0.0333  0.9342  0.6877
   39MOL0     H 5333   8.037   0.754  11.173 -0.3726  2.1244  0.0094
   39MOL0     H 5334   8.119   0.717  10.882 -2.2788  1.2815 -0.0580
   39MOL0     H 5335   8.084   0.876  10.963 -2.0776 -0.5355  0.6809
   39MOL0     H 5336   8.281   0.770  11.137  1.7093 -0.9803 -0.4518
   39MOL0     H 5337   8.316   0.674  10.999 -1.1723 -0.2145 -1.2991
   39MOL0     H 5338   8.456   0.859  10.985 -0.3187 -2.6363 -0.5216
   39MOL0     H 5339   8.349   0.880  10.859  0.9678 -0.8251  0.1705
   39MOL0     H 5340   8.343   1.258  11.049  0.5734  0.4403 -0.8114
   39MOL0     H 5341   8.463   1.486  11.302 -1.4860 -0.6647  0.2276
   39MOL0     H 5342   8.393   1.458  11.140  0.6579 -1.6090 -1.8730
   39MOL0     H 5343   8.571   1.465  11.175  0.8376  0.0482  1.3372
   39MOL0     H 5344   8.962   1.282  11.445 -0.1306  3.4940 -0.8624
   39MOL0     H 5345   9.088   1.398  11.614 -0.6839  3.5718  1.1890
   39MOL0     H 5346   8.982   1.310  12.046  0.4191 -0.1882  0.3492
   39MOL0     H 5347   9.086   1.187  11.982 -0.8809 -0.2682  2.3325
   39MOL0     H 5348   9.185   1.441  12.113 -2.3507 -0.4635  0.4782
   39MOL0     H 5349   9.204   1.274  12.162 -3.3152 -2.2492 -1.3346
   39MOL0     H 5350   9.364   1.412  11.950 -0.1097  0.5610  1.7149
   39MOL0     H 5351   9.322   1.237  11.933 -1.1262  1.0560 -0.2696
   39MOL0     H 5352   9.424   1.148  12.121  0.2447  0.6206  1.1770
   39MOL0     H 5353   9.453   1.304  12.187 -1.1380 -1.6711  0.8045
   39MOL0     H 5354   9.649   1.186  12.063 -2.6548 -1.9218  2.3977
   39MOL0     H 5355   9.569   1.217  11.915  1.9555  0.8304 -0.1974
   39MOL0     H 5356   9.616   1.461  12.085 -2.9723 -1.0516  0.8285
   39MOL0     H 5357   9.591   1.456  11.916  3.4364  4.1530  0.3194
   39MOL0     H 5358   9.822   1.347  11.899  0.5451  0.1837  1.4726
   39MOL0     H 5359   9.828   1.347  12.070  3.6575  0.0359 -1.1920
   39MOL0     H 5360   9.946   1.549  12.000 -0.0074  1.5628 -0.1062
   39MOL0     H 5361   9.795   1.606  12.063  0.1010 -2.3373  1.3113
   39MOL0     H 5362   8.822   1.241  11.925  1.3599  1.3662  0.5790
   39MOL0     H 5363   8.676   1.163  11.734  1.6012 -2.1958 -1.2775
   39MOL0     H 5364   8.604   0.996  11.376 -0.3842 -1.7664  0.1934
   39MOL0     H 5365   8.443   0.886  11.211 -0.7859 -0.1380  0.3018
   39MOL0     H 5366   7.120   0.866  10.026 -0.4714 -0.2623 -0.5380
   39MOL0     H 5367   6.874   0.892  10.037 -0.2987  4.3646  0.5924
   39MOL0     H 5368   6.436   0.829  10.508 -0.5800  1.5537  0.8523
   39MOL0     H 5369   6.203   0.855  10.472 -4.1049 -0.3417 -3.2760
   39MOL0     H 5370   6.106   1.169  10.178 -2.2951  2.3314 -2.0378
   39MOL0     H 5371   6.030   1.015  10.119  0.0111 -0.3789  0.9526
   39MOL0     H 5372   5.836   1.049  10.279  0.7512 -0.8109  1.3631
   39MOL0     H 5373   5.863   1.167  10.149  0.0834  0.6421  1.1853
   39MOL0     H 5374   5.935   1.209  10.439  0.4318  1.2534  0.2181
   39MOL0     H 5375   5.985   1.310  10.306  0.1031 -0.2907 -1.4706
   39MOL0     H 5376   5.794   1.405  10.414 -2.8350  2.5617 -1.7342
   39MOL0     H 5377   5.693   1.259  10.393  2.3995 -3.5305 -1.2354
   39MOL0     H 5378   5.651   1.418  10.003  3.5803 -1.2142 -1.2215
   39MOL0     H 5379   6.286   1.050  10.102  1.0788  1.4312 -0.2655
   39MOL0     H 5380   6.609   1.110  10.108 -2.2941  1.2723 -2.1142
   39MOL0     H 5381   6.613   0.952  10.050 -1.3630 -0.5673 -1.4304
   39MOL0     H 5382   6.473   1.046  10.004 -0.7275  1.4500 -0.8745
   40MOL0     O 5383   2.107  11.140   3.533 -0.3392 -0.5799 -0.2188
   40MOL0     C 5384   2.220  11.153   3.483 -0.8892  1.3874  0.4460
   40MOL0     O 5385   2.291  11.260   3.483  0.7305  0.0215 -0.1265
   40MOL0     C 5386   2.270  11.362   3.575 -1.3878  0.8725  0.0271
   40MOL0     C 5387   2.250  11.497   3.539 -0.3927  0.1813  1.3007
   40MOL0     C 5388   2.238  11.598   3.637 -0.0919  0.6213  0.8071
   40MOL0     C 5389   2.247  11.560   3.772 -0.2373 -0.3061 -0.2812
   40MOL0     O 5390   2.243  11.665   3.858 -0.0254 -0.1308 -0.1125
   40MOL0     C 5391   2.314  11.654   3.989  0.1503 -0.0310  0.2115
   40MOL0     C 5392   2.203  11.638   4.087  0.4716 -0.6099  0.6086
   40MOL0     C 5393   2.125  11.776   4.104 -0.7058 -0.6145 -0.2086
   40MOL0     C 5394   2.211  11.877   4.178  0.2620  0.6983 -0.5541
   40MOL0     C 5395   2.138  12.003   4.229  0.2576 -0.2948 -0.4140
   40MOL0     C 5396   2.245  12.103   4.274  0.0939  0.7994 -0.4679
   40MOL0     C 5397   2.174  12.219   4.356 -0.1021 -0.7478 -0.4297
   40MOL0     C 5398   2.293  12.310   4.405 -0.5751 -0.1761  0.2894
   40MOL0     N 5399   2.242  12.418   4.500  0.0919  0.0657  0.1563
   40MOL0     C 5400   2.180  12.527   4.458 -0.0180 -0.4326 -0.6314
   40MOL0     C 5401   2.170  12.607   4.565 -0.2436 -0.9023 -1.0195
   40MOL0     C 5402   2.111  12.750   4.555 -0.0503  0.1914 -0.6152
   40MOL0     C 5403   2.222  12.854   4.604  0.2346  0.0125  1.0960
   40MOL0     C 5404   2.175  12.982   4.658 -0.3276 -0.1258  0.4046
   40MOL0     C 5405   2.287  13.040   4.750 -0.3996 -0.8035 -0.2136
   40MOL0     O 5406   2.411  13.075   4.677 -1.0087  0.0511  0.6726
   40MOL0     C 5407   2.519  13.119   4.756  0.4162  0.1400 -0.1816
   40MOL0     C 5408   2.516  13.123   4.897 -0.6175 -0.4062  0.5438
   40MOL0     C 5409   2.632  13.157   4.965  0.1760 -0.5587  0.6826
   40MOL0     C 5410   2.644  13.129   5.109  0.0888  0.4348  0.1708
   40MOL0     C 5411   2.748  13.214   4.899  1.1102 -0.5836  0.2730
   40MOL0     C 5412   2.868  13.259   4.975 -0.4588  0.2315  0.8429
   40MOL0     O 5413   2.989  13.249   4.913  0.3233 -0.1700  0.3372
   40MOL0     C 5414   3.100  13.288   4.995 -0.5342 -0.0995  0.1422
   40MOL0     C 5415   3.159  13.203   5.094  0.2391  0.7256 -0.1945
   40MOL0     C 5416   3.280  13.244   5.156  0.2575  0.3141  0.1919
   40MOL0     C 5417   3.346  13.363   5.110 -0.2303 -0.7327  0.1885
   40MOL0     O 5418   3.459  13.415   5.178 -0.2037  0.1574  0.3576
   40MOL0     C 5419   3.500  13.359   5.301 -0.4573  0.4435 -0.3291
   40MOL0     C 5420   3.582  13.466   5.371  0.5463  1.0854  0.4063
   40MOL0     C 5421   3.603  13.416   5.520 -0.4725 -0.3758 -0.0666
   40MOL0     C 5422   3.730  13.322   5.526  0.5483  0.4198  0.0604
   40MOL0     C 5423   3.765  13.282   5.668  0.4386  0.3888  0.7262
   40MOL0     C 5424   3.909  13.230   5.687  0.3973 -0.8317  1.0517
   40MOL0     C 5425   3.957  13.215   5.831  0.1432  0.9664  0.4912
   40MOL0     C 5426   3.994  13.349   5.905 -0.3582 -0.0984  0.4443
   40MOL0    Cl 5427   4.082  13.310   6.050 -0.1830  0.4877 -0.2861
   40MOL0     C 5428   3.283  13.443   5.013  0.5027  0.3768  0.3897
   40MOL0     C 5429   3.165  13.407   4.963  0.5522 -0.1355  0.3625
   40MOL0     O 5430   2.848  13.313   5.083 -0.0626 -0.1455  0.2764
   40MOL0     C 5431   2.745  13.210   4.759 -0.0088 -0.1157  0.0929
   40MOL0     C 5432   2.626  13.172   4.685  0.3411 -0.3290  0.0860
   40MOL0     N 5433   2.233  12.540   4.673  0.0057  0.3033 -0.4979
   40MOL0     N 5434   2.277  12.435   4.631 -0.1901 -0.2365  1.3947
   40MOL0     C 5435   2.264  11.428   3.812  0.1530  0.2807 -0.6563
   40MOL0     C 5436   2.282  11.327   3.714  0.3356  0.3465 -0.4207
   40MOL0     C 5437   2.296  11.035   3.425  0.6975  0.4964  0.0602
   40MOL0     C 5438   2.216  10.921   3.388  0.0948 -0.3091  0.5175
   40MOL0     C 5439   2.279  10.804   3.341 -0.3335  0.6366  0.4333
   40MOL0     C 5440   2.417  10.796   3.337  0.1567 -0.8663  0.3141
   40MOL0     O 5441   2.486  10.683   3.292 -0.7584  0.4333 -0.3000
   40MOL0     C 5442   2.421  10.556   3.275 -0.1109 -0.3171  0.1032
   40MOL0     C 5443   2.519  10.440   3.244 -0.6735  0.2176  0.1939
   40MOL0     C 5444   2.624  10.413   3.354  0.1513  0.3151 -0.6457
   40MOL0     C 5445   2.761  10.352   3.313  0.0468  0.0600  0.5076
   40MOL0     C 5446   2.749  10.218   3.257  0.1221  0.5352  0.1595
   40MOL0     C 5447   2.729  10.112   3.196  0.8583  0.6126 -0.0665
   40MOL0     C 5448   2.494  10.897   3.372 -0.4351 -0.4681  0.7599
   40MOL0     C 5449   2.435  11.019   3.422  0.9710  0.2638 -0.3121
   40MOL0     C 5450   2.535  11.120   3.462  0.7110 -0.5921 -0.8271
   40MOL0     H 5451   2.240  11.510   3.432  2.7028  1.4320  1.0762
   40MOL0     H 5452   2.211  11.699   3.606 -0.3989 -0.1575 -1.6788
   40MOL0     H 5453   2.373  11.739   4.024  1.7770 -0.7357 -0.6796
   40MOL0     H 5454   2.383  11.570   4.004  2.8641  2.0528  0.1724
   40MOL0     H 5455   2.132  11.563   4.050 -0.9346  0.5231  0.9143
   40MOL0     H 5456   2.245  11.621   4.186  0.5638  0.0371  0.6867
   40MOL0     H 5457   2.090  11.820   4.010  1.0777 -0.2001 -0.7143
   40MOL0     H 5458   2.031  11.763   4.158  0.5114 -1.0598  1.9156
   40MOL0     H 5459   2.262  11.825   4.259 -1.0862 -1.0068 -0.7271
   40MOL0     H 5460   2.294  11.920   4.121  0.5628 -0.3258 -0.9270
   40MOL0     H 5461   2.081  11.978   4.318  1.3124 -0.9924  0.0867
   40MOL0     H 5462   2.069  12.036   4.150 -0.5340 -0.6239  0.1285
   40MOL0     H 5463   2.327  12.051   4.324 -2.5687 -0.6161  2.7880
   40MOL0     H 5464   2.291  12.150   4.186 -4.2903  0.4543 -3.2886
   40MOL0     H 5465   2.131  12.170   4.444 -0.5092 -2.0695 -1.3226
   40MOL0     H 5466   2.108  12.273   4.288  0.3083  1.6383  0.9815
   40MOL0     H 5467   2.366  12.244   4.453  0.7864  0.0162 -1.4067
   40MOL0     H 5468   2.350  12.364   4.330 -2.0420  1.8164  0.5149
   40MOL0     H 5469   2.147  12.555   4.359  0.2485  2.0403 -0.0916
   40MOL0     H 5470   2.029  12.750   4.627  0.9816  0.9374  0.5875
   40MOL0     H 5471   2.069  12.778   4.457 -4.8695 -2.6108  0.3106
   40MOL0     H 5472   2.291  12.805   4.672 -1.1184 -1.9845  1.1207
   40MOL0     H 5473   2.279  12.880   4.514 -2.2247 -0.3523 -0.6835
   40MOL0     H 5474   2.169  13.052   4.575 -0.3006  0.0529  0.5540
   40MOL0     H 5475   2.078  12.983   4.709 -0.7502  5.1830 -0.0374
   40MOL0     H 5476   2.246  13.129   4.798  1.0503  0.2215 -0.7873
   40MOL0     H 5477   2.301  12.970   4.833  1.1408  3.0161  3.0437
   40MOL0     H 5478   2.430  13.089   4.955 -1.9333  1.0850 -0.4631
   40MOL0     H 5479   2.611  13.215   5.167  1.9628  2.1405 -1.1570
   40MOL0     H 5480   2.744  13.097   5.140  0.5639  1.4203 -0.2904
   40MOL0     H 5481   2.568  13.054   5.134 -0.9514  1.1268 -0.8020
   40MOL0     H 5482   3.113  13.113   5.133 -0.3540  1.1049  0.0115
   40MOL0     H 5483   3.311  13.173   5.232 -0.1836 -0.2064 -0.1075
   40MOL0     H 5484   3.419  13.330   5.368 -0.4847  0.2027 -0.4672
   40MOL0     H 5485   3.567  13.276   5.276 -1.7642 -0.6188 -0.4263
   40MOL0     H 5486   3.683  13.470   5.330  0.8091 -1.1492  0.6985
   40MOL0     H 5487   3.544  13.568   5.369 -1.4415  0.3837 -0.4305
   40MOL0     H 5488   3.513  13.366   5.556 -1.2140  1.4131  0.6500
   40MOL0     H 5489   3.615  13.500   5.589 -0.2884 -0.5284  0.0901
   40MOL0     H 5490   3.815  13.379   5.486  1.4430  0.6699  2.1766
   40MOL0     H 5491   3.713  13.236   5.462 -1.2290 -0.1076  1.1666
   40MOL0     H 5492   3.763  13.364   5.739 -0.7181  0.5029  0.5721
   40MOL0     H 5493   3.691  13.207   5.698 -0.2900  0.4918 -0.7203
   40MOL0     H 5494   3.984  13.292   5.638  1.2040 -1.9914  0.7782
   40MOL0     H 5495   3.911  13.132   5.640  0.6182 -0.3230 -0.0123
   40MOL0     H 5496   4.053  13.163   5.829 -1.1040 -2.3847  5.9495
   40MOL0     H 5497   3.887  13.155   5.889  1.8239 -3.5299 -1.6898
   40MOL0     H 5498   3.899  13.403   5.917  0.3556  0.7884  2.6586
   40MOL0     H 5499   4.053  13.412   5.838 -0.6489  0.2712  0.5329
   40MOL0     H 5500   3.327  13.538   4.986 -1.3957  0.9121 -0.9691
   40MOL0     H 5501   3.132  13.471   4.882 -0.2481  0.5573  1.2184
   40MOL0     H 5502   2.832  13.244   4.704 -1.2596  1.0238 -1.2632
   40MOL0     H 5503   2.625  13.173   4.577 -1.6881  0.6973  0.0686
   40MOL0     H 5504   2.248  11.402   3.916 -4.1319 -0.6990 -1.3386
   40MOL0     H 5505   2.304  11.222   3.732  0.4923  0.1649 -1.5689
   40MOL0     H 5506   2.108  10.924   3.393  0.1499  0.4018  1.6132
   40MOL0     H 5507   2.219  10.720   3.305 -1.6757  1.2838  1.0736
   40MOL0     H 5508   2.370  10.529   3.368  0.9055 -3.1247 -0.0407
   40MOL0     H 5509   2.356  10.562   3.187  2.0862  0.9111 -1.5429
   40MOL0     H 5510   2.575  10.464   3.153  0.1466 -2.7296 -0.1791
   40MOL0     H 5511   2.469  10.347   3.216  0.3035  0.3536 -2.2343
   40MOL0     H 5512   2.647  10.509   3.403  2.5506  0.0982 -1.2265
   40MOL0     H 5513   2.570  10.349   3.424  0.4956  1.5442  0.7924
   40MOL0     H 5514   2.823  10.340   3.402 -1.2584  0.6744  1.5204
   40MOL0     H 5515   2.811  10.425   3.248  0.5473  2.1783  3.1008
   40MOL0     H 5516   2.695  10.027   3.141 -1.1213  0.8641  0.6946
   40MOL0     H 5517   2.601  10.887   3.355 -0.5248  1.5229 -1.4671
   40MOL0     H 5518   2.634  11.073   3.467  2.2909  2.3748 -1.6859
   40MOL0     H 5519   2.540  11.190   3.377  1.1560 -0.7201 -0.9104
   40MOL0     H 5520   2.507  11.170   3.555  1.5967 -1.7689  0.1110
   41MOL0     O 5521   0.224   5.253   0.622  0.8623 -0.0331  0.6198
   41MOL0     C 5522   0.197   5.139   0.675  0.8188  0.1476  0.5052
   41MOL0     O 5523   0.242   5.098   0.804 -0.1706  0.3356  0.5438
   41MOL0     C 5524   0.336   5.173   0.875  0.7902  0.4028  0.2187
   41MOL0     C 5525   0.293   5.266   0.969  0.3908 -0.5544  0.1997
   41MOL0     C 5526   0.385   5.334   1.054  0.2120 -0.6736 -0.7411
   41MOL0     C 5527   0.517   5.298   1.048  0.3570 -0.2298 -0.2999
   41MOL0     O 5528   0.617   5.353   1.122  0.6094 -0.0788 -0.4896
   41MOL0     C 5529   0.582   5.454   1.215  0.3784 -0.6661 -0.8441
   41MOL0     C 5530   0.709   5.485   1.305  0.0354  0.6451  0.2924
   41MOL0     C 5531   0.824   5.552   1.216 -0.7375  0.6656  0.3200
   41MOL0     C 5532   0.949   5.606   1.297  1.0861  0.6929  0.1772
   41MOL0     C 5533   0.918   5.730   1.375 -0.3762 -0.1837  0.0937
   41MOL0     C 5534   1.048   5.789   1.430  0.0676  0.3418 -0.0873
   41MOL0     C 5535   1.034   5.933   1.484 -0.1999  0.1881  0.4030
   41MOL0     C 5536   1.147   5.973   1.585  0.3915  0.4519 -0.2552
   41MOL0     N 5537   1.265   6.026   1.527 -0.6751  1.1055  0.4214
   41MOL0     C 5538   1.272   6.149   1.466 -0.5584  0.2765  0.0556
   41MOL0     C 5539   1.401   6.164   1.451 -0.4229  0.5048  0.0285
   41MOL0     C 5540   1.471   6.280   1.390 -0.0027  0.4598  0.7716
   41MOL0     C 5541   1.441   6.295   1.237 -0.6925 -0.0152  0.1224
   41MOL0     C 5542   1.535   6.401   1.174  0.1027 -0.2983 -0.2100
   41MOL0     C 5543   1.510   6.434   1.027  0.7335  0.1396 -0.8418
   41MOL0     O 5544   1.569   6.547   0.971 -0.1912 -0.0654  0.1822
   41MOL0     C 5545   1.694   6.547   0.925  0.1883  0.6274 -0.0510
   41MOL0     C 5546   1.796   6.452   0.937 -0.4728 -0.0665 -0.0573
   41MOL0     C 5547   1.917   6.456   0.867 -1.1961 -0.6921 -0.6357
   41MOL0     C 5548   2.010   6.337   0.868  0.5165 -0.1104  0.5525
   41MOL0     C 5549   1.942   6.576   0.787  1.5591  0.0544 -0.6079
   41MOL0     C 5550   2.044   6.591   0.680 -0.4798  0.5157 -0.1537
   41MOL0     O 5551   2.159   6.522   0.697 -0.4846 -0.2828  0.3151
   41MOL0     C 5552   2.252   6.552   0.598  0.2315  0.2829 -0.5128
   41MOL0     C 5553   2.251   6.486   0.474  0.5161 -0.1416 -0.2945
   41MOL0     C 5554   2.352   6.489   0.380 -0.2984 -0.0196  0.0168
   41MOL0     C 5555   2.466   6.570   0.414  0.1327 -0.7757  0.5369
   41MOL0     O 5556   2.590   6.572   0.342  0.5325 -0.2768  0.4753
   41MOL0     C 5557   2.606   6.466   0.253 -0.5417 -0.1347  0.8277
   41MOL0     C 5558   2.753   6.443   0.216 -0.7579  0.4445 -0.4227
   41MOL0     C 5559   2.776   6.305   0.144  0.1143  0.5974 -0.8074
   41MOL0     C 5560   2.921   6.274   0.119 -0.3509 -0.9606 -0.6202
   41MOL0     C 5561   2.951   6.146   0.041 -0.5494  0.0246  0.6858
   41MOL0     C 5562   3.099   6.117   0.020 -0.9075  0.5757  0.0270
   41MOL0     C 5563   3.120   5.964   0.034  0.1282 -0.8537  0.1066
   41MOL0     C 5564   3.258   5.924  -0.017 -0.3361  0.1873  0.2846
   41MOL0    Cl 5565   3.384   6.003   0.087  0.0374 -0.0510  0.0227
   41MOL0     C 5566   2.467   6.646   0.529  0.7082 -0.0090  0.5335
   41MOL0     C 5567   2.366   6.635   0.624  0.0222 -0.7720  0.9888
   41MOL0     O 5568   2.020   6.655   0.581 -0.3207  0.1966 -0.0961
   41MOL0     C 5569   1.837   6.673   0.780 -0.7646  0.4484  0.3296
   41MOL0     C 5570   1.719   6.655   0.840 -0.3300 -0.3509 -0.8000
   41MOL0     N 5571   1.470   6.052   1.495 -1.0756 -0.8011  0.5498
   41MOL0     N 5572   1.386   5.975   1.551 -0.3100 -0.1366 -0.2992
   41MOL0     C 5573   0.565   5.200   0.949  0.9846  0.1264 -1.0161
   41MOL0     C 5574   0.472   5.145   0.860  0.4325 -1.4551 -0.4153
   41MOL0     C 5575   0.130   5.030   0.593 -0.4468  0.2088  1.0556
   41MOL0     C 5576   0.089   4.911   0.654 -0.4446  0.1512 -0.1766
   41MOL0     C 5577   0.018   4.811   0.589  0.4096  0.2230 -0.1024
   41MOL0     C 5578  -0.015   4.828   0.453  0.1369  0.3016 -0.1983
   41MOL0     O 5579  -0.094   4.735   0.390 -0.7665 -0.2251 -0.7534
   41MOL0     C 5580  -0.218   4.706   0.443  0.4702  0.3077 -0.0269
   41MOL0     C 5581  -0.326   4.757   0.347 -0.0023  0.2647 -0.7417
   41MOL0     C 5582  -0.329   4.705   0.209  0.2361  0.2879  0.3353
   41MOL0     C 5583  -0.442   4.758   0.123  0.1633 -0.1398  0.1876
   41MOL0     C 5584  -0.568   4.689   0.154 -0.0843  0.8191 -0.0951
   41MOL0     C 5585  -0.670   4.630   0.174  0.4036 -0.3592  0.4352
   41MOL0     C 5586   0.029   4.941   0.388  0.1625  0.6772  1.3150
   41MOL0     C 5587   0.103   5.047   0.451 -0.4131  0.3911  0.0475
   41MOL0     C 5588   0.118   5.166   0.363  0.0011 -0.1928 -0.6123
   41MOL0     H 5589   0.185   5.277   0.972  0.2811 -0.6863 -1.6130
   41MOL0     H 5590   0.361   5.409   1.129  1.8201  1.5824 -2.3456
   41MOL0     H 5591   0.499   5.422   1.278  0.3089  0.9951 -0.0395
   41MOL0     H 5592   0.555   5.541   1.154  0.8814  1.2549  1.5092
   41MOL0     H 5593   0.693   5.553   1.389  0.3240  0.1633  0.7414
   41MOL0     H 5594   0.742   5.394   1.356 -1.3396  0.8083  1.5385
   41MOL0     H 5595   0.859   5.471   1.152 -0.0367  1.8071 -0.7905
   41MOL0     H 5596   0.781   5.626   1.147  1.0717 -0.2115 -1.8449
   41MOL0     H 5597   0.973   5.537   1.379 -0.3395  0.9566  0.8549
   41MOL0     H 5598   1.026   5.630   1.224  1.8722 -0.2926  0.6569
   41MOL0     H 5599   0.842   5.702   1.448 -2.1011  1.4039 -1.0019
   41MOL0     H 5600   0.860   5.803   1.317 -0.1199  0.5620  0.7748
   41MOL0     H 5601   1.088   5.725   1.509  0.0868 -0.0074 -0.3796
   41MOL0     H 5602   1.132   5.787   1.359  1.5257  0.1387  1.5593
   41MOL0     H 5603   0.941   5.937   1.541  0.0028  0.1523  0.7351
   41MOL0     H 5604   1.021   6.009   1.406  0.0793 -2.3447 -2.3104
   41MOL0     H 5605   1.105   6.052   1.647 -0.5816  1.2887 -1.9268
   41MOL0     H 5606   1.171   5.893   1.657  1.5197  2.6994  2.0489
   41MOL0     H 5607   1.197   6.220   1.431  1.6280  2.8136  0.2194
   41MOL0     H 5608   1.577   6.253   1.400  0.1353 -0.1952 -1.8863
   41MOL0     H 5609   1.449   6.378   1.433  3.0896  1.2023  0.8777
   41MOL0     H 5610   1.457   6.197   1.192 -3.7058  0.3468 -1.9880
   41MOL0     H 5611   1.339   6.334   1.229  0.9525  5.2582  0.5228
   41MOL0     H 5612   1.515   6.489   1.235 -0.2210 -0.7333  0.3170
   41MOL0     H 5613   1.639   6.374   1.193  0.5201  2.2821  1.6761
   41MOL0     H 5614   1.538   6.354   0.958  2.1935  1.3187 -1.6728
   41MOL0     H 5615   1.401   6.440   1.033  0.7411 -0.4125 -0.0481
   41MOL0     H 5616   1.776   6.369   1.004 -2.3275  2.9097  3.4845
   41MOL0     H 5617   2.009   6.314   0.761 -0.6972  0.5565  0.4019
   41MOL0     H 5618   1.961   6.263   0.932 -1.2724 -1.0451 -1.7420
   41MOL0     H 5619   2.111   6.357   0.906  0.2992  2.8530 -0.2016
   41MOL0     H 5620   2.160   6.433   0.448 -1.1774  1.5043  1.8502
   41MOL0     H 5621   2.354   6.414   0.301  0.7931 -0.5517  0.5219
   41MOL0     H 5622   2.562   6.378   0.301 -5.7239  1.4478 -0.3948
   41MOL0     H 5623   2.541   6.475   0.165  0.3140 -0.2640  0.1739
   41MOL0     H 5624   2.788   6.526   0.154  1.7066  0.9175  1.4452
   41MOL0     H 5625   2.801   6.445   0.314  0.5417 -4.6670 -0.6894
   41MOL0     H 5626   2.721   6.303   0.050 -1.3886  0.1555  0.0316
   41MOL0     H 5627   2.736   6.221   0.202  0.2405 -0.3265 -2.0167
   41MOL0     H 5628   2.970   6.283   0.216 -0.8350  2.0878 -0.5654
   41MOL0     H 5629   2.963   6.357   0.061  2.2769 -0.4616  1.8257
   41MOL0     H 5630   2.914   6.058   0.095  0.1910 -0.5032  0.3545
   41MOL0     H 5631   2.907   6.158  -0.059 -0.2696  0.9543  0.6643
   41MOL0     H 5632   3.160   6.173   0.092 -1.3689  0.6913  0.3350
   41MOL0     H 5633   3.134   6.136  -0.081  1.4151 -0.0517  0.6434
   41MOL0     H 5634   3.042   5.910  -0.019 -0.7309  1.8295 -1.5932
   41MOL0     H 5635   3.108   5.952   0.142 -0.4381  1.7395  0.4131
   41MOL0     H 5636   3.273   5.957  -0.120 -0.4862  1.7399  0.7407
   41MOL0     H 5637   3.264   5.815  -0.010 -1.2369 -0.0011 -1.3099
   41MOL0     H 5638   2.548   6.716   0.546  0.6568 -0.3439  2.3849
   41MOL0     H 5639   2.363   6.688   0.718  1.7835  0.0342  0.6295
   41MOL0     H 5640   1.857   6.763   0.722 -1.3281 -0.0994 -0.7608
   41MOL0     H 5641   1.658   6.745   0.837  0.5088  0.2047 -2.8738
   41MOL0     H 5642   0.670   5.179   0.932  0.2092 -3.2667 -2.6095
   41MOL0     H 5643   0.503   5.100   0.766 -2.3408 -0.6118 -1.8583
   41MOL0     H 5644   0.103   4.883   0.758 -3.0227 -0.8042 -0.0023
   41MOL0     H 5645  -0.012   4.721   0.641  3.8732 -1.9098 -1.4153
   41MOL0     H 5646  -0.228   4.597   0.446 -0.2029  0.3864  1.2773
   41MOL0     H 5647  -0.232   4.748   0.543 -2.8687  0.8792 -0.6080
   41MOL0     H 5648  -0.303   4.863   0.332 -0.5485  0.4652 -0.1832
   41MOL0     H 5649  -0.419   4.729   0.397  0.4048 -0.1932 -0.2305
   41MOL0     H 5650  -0.238   4.739   0.159  0.3755  0.0493  0.4222
   41MOL0     H 5651  -0.321   4.596   0.213 -2.2199  0.0560  0.6169
   41MOL0     H 5652  -0.427   4.751   0.015 -2.1486 -1.1106 -0.1459
   41MOL0     H 5653  -0.455   4.866   0.139  0.5042  0.1508 -1.3796
   41MOL0     H 5654  -0.770   4.600   0.198 -0.8730  3.5890  0.8597
   41MOL0     H 5655   0.000   4.940   0.284 -1.2370 -0.3471  1.6859
   41MOL0     H 5656   0.046   5.245   0.386 -0.7633 -0.9170 -0.4263
   41MOL0     H 5657   0.216   5.211   0.381 -1.5869  2.6310  1.9028
   41MOL0     H 5658   0.097   5.138   0.259 -0.3951 -4.1130  0.3677
   42MOL0     O 5659   1.049   7.240   5.140  0.1004 -0.1448  0.0519
   42MOL0     C 5660   0.953   7.264   5.064 -0.2196  0.0550  1.2309
   42MOL0     O 5661   0.966   7.290   4.931  0.1617 -0.8176 -0.0853
   42MOL0     C 5662   1.076   7.279   4.866 -0.4274  0.0108 -0.2512
   42MOL0     C 5663   1.181   7.370   4.888  0.6603  0.6651  0.3671
   42MOL0     C 5664   1.312   7.347   4.829 -0.5012 -0.0207  0.5514
   42MOL0     C 5665   1.337   7.226   4.761  0.5381 -0.3938 -0.5304
   42MOL0     O 5666   1.459   7.219   4.699  0.5776  0.0758  0.5655
   42MOL0     C 5667   1.503   7.091   4.649  0.0530 -0.1852 -0.6377
   42MOL0     C 5668   1.646   7.096   4.609  0.1254 -0.3099 -0.1334
   42MOL0     C 5669   1.735   7.145   4.723  0.1515 -0.2238  0.0867
   42MOL0     C 5670   1.889   7.114   4.706 -0.7715  0.1546 -0.3453
   42MOL0     C 5671   1.951   7.193   4.602  0.0674  0.1698 -0.3683
   42MOL0     C 5672   2.101   7.204   4.610 -0.1523  0.5331 -0.0555
   42MOL0     C 5673   2.184   7.072   4.587  0.2551  0.5262  0.2027
   42MOL0     C 5674   2.150   6.995   4.456  0.5308 -0.1849 -0.8875
   42MOL0     N 5675   2.249   6.916   4.387  0.4823 -0.8852 -0.1889
   42MOL0     C 5676   2.374   6.978   4.359  0.1553  0.0626 -0.3321
   42MOL0     C 5677   2.426   6.892   4.268 -0.3189  0.3227 -0.2384
   42MOL0     C 5678   2.552   6.910   4.194 -0.1706  0.1152  0.4584
   42MOL0     C 5679   2.624   6.774   4.181  0.0886 -0.3193  0.3966
   42MOL0     C 5680   2.739   6.788   4.088 -0.5943  0.0272  0.1528
   42MOL0     C 5681   2.878   6.722   4.136 -0.1874 -0.0331  0.1238
   42MOL0     O 5682   2.922   6.790   4.259 -0.9535 -0.0568 -0.1845
   42MOL0     C 5683   3.058   6.778   4.289 -0.6879  0.4282 -0.0236
   42MOL0     C 5684   3.122   6.888   4.345 -0.2485 -0.2419  0.2572
   42MOL0     C 5685   3.252   6.887   4.386  0.8222 -0.1646  0.1023
   42MOL0     C 5686   3.309   7.001   4.466 -0.4220 -0.4809 -0.1114
   42MOL0     C 5687   3.330   6.771   4.362  0.3688 -0.6587 -0.5135
   42MOL0     C 5688   3.483   6.767   4.374  0.0649  0.2255  0.6709
   42MOL0     O 5689   3.542   6.646   4.387 -0.1222  0.7021 -1.0627
   42MOL0     C 5690   3.668   6.623   4.375 -0.1249 -0.0903 -0.2793
   42MOL0     C 5691   3.701   6.507   4.304 -0.7000 -0.9326  1.0355
   42MOL0     C 5692   3.834   6.466   4.289  0.6538  0.3163  0.1256
   42MOL0     C 5693   3.940   6.537   4.344  0.5878 -0.2082 -0.1754
   42MOL0     O 5694   4.070   6.484   4.312 -0.0359 -0.6433  0.4313
   42MOL0     C 5695   4.189   6.563   4.360  0.3940  0.5555 -0.3581
   42MOL0     C 5696   4.301   6.533   4.262 -0.0874  0.2143 -0.2485
   42MOL0     C 5697   4.288   6.559   4.105  0.2595 -0.0841 -0.4691
   42MOL0     C 5698   4.283   6.707   4.059  0.1544  0.0470 -0.7011
   42MOL0     C 5699   4.255   6.720   3.907 -0.1278 -0.6440 -0.0219
   42MOL0     C 5700   4.253   6.862   3.864  0.2948 -0.5358 -0.5919
   42MOL0     C 5701   4.217   6.885   3.713 -0.3854 -0.2991 -0.2639
   42MOL0     C 5702   4.200   7.034   3.691 -0.6260 -0.6448  0.7095
   42MOL0    Cl 5703   4.359   7.113   3.713 -0.5391 -0.2296  0.3211
   42MOL0     C 5704   3.906   6.651   4.421 -0.1120  0.0104 -0.7415
   42MOL0     C 5705   3.775   6.692   4.435  0.7497 -0.9967 -0.3011
   42MOL0     O 5706   3.543   6.867   4.356 -0.3686  0.4581 -0.0054
   42MOL0     C 5707   3.269   6.654   4.318  0.0926  0.0574 -0.6061
   42MOL0     C 5708   3.136   6.665   4.277 -0.8535 -0.9023 -0.3883
   42MOL0     N 5709   2.332   6.791   4.243  0.1281  0.3917  0.9036
   42MOL0     N 5710   2.224   6.799   4.321  0.0857 -1.3284  0.7130
   42MOL0     C 5711   1.236   7.125   4.756 -0.6502 -0.3585  0.2220
   42MOL0     C 5712   1.103   7.159   4.803  0.2688  0.6855 -0.5330
   42MOL0     C 5713   0.827   7.255   5.129  0.0926 -0.1985 -0.3328
   42MOL0     C 5714   0.723   7.182   5.071 -0.4228  0.8033  0.9926
   42MOL0     C 5715   0.613   7.143   5.146 -0.7797  0.6266 -0.2431
   42MOL0     C 5716   0.585   7.211   5.261 -0.0462 -0.6792  0.2076
   42MOL0     O 5717   0.481   7.188   5.347 -0.4065 -0.5691 -0.1345
   42MOL0     C 5718   0.369   7.112   5.301  0.6826 -0.2453  0.6442
   42MOL0     C 5719   0.252   7.118   5.401 -0.0976 -0.7566  0.7374
   42MOL0     C 5720   0.285   7.053   5.530  0.6294 -0.0460 -0.0052
   42MOL0     C 5721   0.184   7.079   5.639 -0.2227 -0.2662  0.7651
   42MOL0     C 5722   0.059   7.008   5.605 -0.8981  0.3572  0.0119
   42MOL0     C 5723  -0.043   6.958   5.561  0.3446  0.1875  0.2480
   42MOL0     C 5724   0.676   7.295   5.318 -0.4341  0.2101  0.5510
   42MOL0     C 5725   0.797   7.305   5.255 -0.3018 -0.7102  0.2024
   42MOL0     C 5726   0.883   7.414   5.316  0.2314 -0.0459  0.5636
   42MOL0     H 5727   1.175   7.461   4.946  0.4102  0.3736  0.8019
   42MOL0     H 5728   1.392   7.420   4.831 -0.9295  0.4595  0.2288
   42MOL0     H 5729   1.440   7.066   4.563 -0.2772  4.2264 -1.9030
   42MOL0     H 5730   1.503   7.016   4.730  3.6199 -0.0562 -0.3546
   42MOL0     H 5731   1.685   6.997   4.585 -0.3340 -0.4738 -0.2141
   42MOL0     H 5732   1.673   7.170   4.533 -0.0711 -0.0690  0.0310
   42MOL0     H 5733   1.727   7.254   4.724  1.1155 -0.1381  0.1192
   42MOL0     H 5734   1.712   7.112   4.824  0.8998  1.0179  0.6892
   42MOL0     H 5735   1.948   7.137   4.796  1.2534  0.9777 -1.8115
   42MOL0     H 5736   1.898   7.006   4.689 -1.4643 -0.2855  1.7381
   42MOL0     H 5737   1.913   7.295   4.589 -1.5209 -0.5566 -1.8722
   42MOL0     H 5738   1.927   7.150   4.504  2.8215 -0.2381 -0.9521
   42MOL0     H 5739   2.136   7.283   4.543 -0.6185 -0.0013 -0.9470
   42MOL0     H 5740   2.123   7.235   4.713 -0.4166 -0.8528  0.4461
   42MOL0     H 5741   2.166   7.002   4.669 -0.1735  0.0397 -0.3016
   42MOL0     H 5742   2.291   7.097   4.589  0.7928 -1.6065  1.2946
   42MOL0     H 5743   2.066   6.932   4.486  0.5457 -0.5027 -1.4898
   42MOL0     H 5744   2.118   7.072   4.385 -1.5131 -1.2337 -1.1606
   42MOL0     H 5745   2.421   7.072   4.385  0.8314  0.0956 -1.6144
   42MOL0     H 5746   2.619   6.985   4.239  1.7166  0.9969 -3.4235
   42MOL0     H 5747   2.529   6.950   4.096  2.4636 -1.9618 -1.1672
   42MOL0     H 5748   2.665   6.727   4.271 -0.7552 -1.2491  0.3138
   42MOL0     H 5749   2.557   6.700   4.136 -1.8057  1.4787  0.0881
   42MOL0     H 5750   2.715   6.747   3.990 -0.2279  2.2537 -0.9438
   42MOL0     H 5751   2.761   6.893   4.064  0.4800 -0.1163  0.4692
   42MOL0     H 5752   2.867   6.616   4.163 -2.7189  0.5017  1.5647
   42MOL0     H 5753   2.952   6.734   4.056  2.0031 -2.7986  1.5695
   42MOL0     H 5754   3.052   6.968   4.367 -0.8857 -1.4913  3.3867
   42MOL0     H 5755   3.223   7.045   4.519  1.1444  0.1935  1.9916
   42MOL0     H 5756   3.352   7.086   4.412 -1.4307  1.0341  1.3396
   42MOL0     H 5757   3.379   6.967   4.542  0.0842  0.0379 -0.3343
   42MOL0     H 5758   3.623   6.450   4.256 -1.1212  0.0020  0.5722
   42MOL0     H 5759   3.849   6.380   4.225  2.1203 -0.7493  1.8168
   42MOL0     H 5760   4.190   6.673   4.367 -0.7401  0.5643 -0.1246
   42MOL0     H 5761   4.205   6.523   4.460 -4.9055  2.2466  1.5005
   42MOL0     H 5762   4.394   6.581   4.295 -2.1538  2.7770  2.3569
   42MOL0     H 5763   4.311   6.426   4.279 -2.1640 -0.0824 -0.6236
   42MOL0     H 5764   4.197   6.510   4.067  1.1518 -1.4508 -0.8998
   42MOL0     H 5765   4.352   6.497   4.043 -2.2566 -4.3852  0.8520
   42MOL0     H 5766   4.382   6.752   4.075 -0.0013  0.1506 -0.0044
   42MOL0     H 5767   4.201   6.760   4.108  0.5317 -1.1563  1.3408
   42MOL0     H 5768   4.328   6.649   3.867  0.5155 -1.2564  2.0741
   42MOL0     H 5769   4.154   6.681   3.889 -0.2611 -1.7483  2.6525
   42MOL0     H 5770   4.347   6.910   3.893  0.4714 -2.3922  2.2861
   42MOL0     H 5771   4.178   6.916   3.921 -0.0182 -2.7751  1.2727
   42MOL0     H 5772   4.129   6.827   3.683 -0.6340 -0.8719  1.4861
   42MOL0     H 5773   4.302   6.849   3.652 -0.3897  0.8796 -0.9913
   42MOL0     H 5774   4.128   7.076   3.763  0.1944  3.1535 -0.4939
   42MOL0     H 5775   4.166   7.038   3.587 -0.5322 -0.1604  0.6969
   42MOL0     H 5776   3.979   6.709   4.476  0.1494 -2.1084  1.2751
   42MOL0     H 5777   3.748   6.785   4.485  2.9515 -0.0084 -0.8483
   42MOL0     H 5778   3.321   6.562   4.290  0.8938 -0.8206  3.2742
   42MOL0     H 5779   3.088   6.580   4.231  0.9330 -1.1841 -1.8166
   42MOL0     H 5780   1.249   7.028   4.708 -3.2641 -0.4032 -0.5411
   42MOL0     H 5781   1.030   7.079   4.806  0.7066  0.2973  0.2686
   42MOL0     H 5782   0.725   7.155   4.966  0.6684  2.2819  0.6039
   42MOL0     H 5783   0.539   7.077   5.102 -0.7442  0.8902 -0.6994
   42MOL0     H 5784   0.336   7.162   5.210  0.9687  0.5668  0.9775
   42MOL0     H 5785   0.391   7.006   5.289  0.1103 -0.1987 -0.9949
   42MOL0     H 5786   0.169   7.068   5.351  0.0548  0.0123 -0.3069
   42MOL0     H 5787   0.228   7.224   5.411 -0.4130 -0.5213 -1.8738
   42MOL0     H 5788   0.275   6.946   5.511  1.7540  0.2066 -2.5206
   42MOL0     H 5789   0.381   7.096   5.561  1.0692 -0.5862 -0.5844
   42MOL0     H 5790   0.161   7.186   5.650 -0.2541 -0.2351  0.4071
   42MOL0     H 5791   0.220   7.045   5.736  0.4711 -0.3849  0.4690
   42MOL0     H 5792  -0.129   6.920   5.510  1.8266  0.9466 -3.1122
   42MOL0     H 5793   0.657   7.348   5.410 -1.4225 -3.3435  2.5632
   42MOL0     H 5794   0.942   7.461   5.238  1.5939 -1.3984  0.7250
   42MOL0     H 5795   0.825   7.496   5.361  3.6557  1.8882  1.7984
   42MOL0     H 5796   0.952   7.377   5.392  1.0924 -1.0276 -0.6659
   43MOL0     O 5797  10.832   5.531   5.450  0.5648 -0.6143 -0.8852
   43MOL0     C 5798  10.788   5.430   5.505  0.3787  0.4389  0.2926
   43MOL0     O 5799  10.835   5.299   5.490 -0.0305 -0.1143 -0.1960
   43MOL0     C 5800  10.950   5.281   5.431  0.0423  0.7057  0.6482
   43MOL0     C 5801  11.065   5.361   5.440 -0.5953 -0.0701  0.0346
   43MOL0     C 5802  11.186   5.330   5.375  0.8577  0.2850  0.8032
   43MOL0     C 5803  11.188   5.226   5.281  0.9712 -0.7739  0.3437
   43MOL0     O 5804  11.295   5.185   5.208  0.4143  0.6335  0.6889
   43MOL0     C 5805  11.422   5.191   5.275 -0.1619  0.5702  0.3388
   43MOL0     C 5806  11.510   5.320   5.237  0.2444  0.1919 -0.6644
   43MOL0     C 5807  11.654   5.286   5.269  0.5046  0.2519 -0.3397
   43MOL0     C 5808  11.742   5.421   5.271 -0.6198  0.7942  0.2602
   43MOL0     C 5809  11.891   5.388   5.254  0.0602 -0.1087  0.3324
   43MOL0     C 5810  11.984   5.507   5.226 -0.4276 -0.3161 -0.5786
   43MOL0     C 5811  12.137   5.467   5.251  0.6564 -1.0643  0.1005
   43MOL0     C 5812  12.205   5.456   5.121  0.5722  0.1139 -0.6400
   43MOL0     N 5813  12.348   5.419   5.132 -0.5541  0.4120  0.3730
   43MOL0     C 5814  12.449   5.517   5.120  1.1284 -0.3876 -0.1331
   43MOL0     C 5815  12.560   5.442   5.124  0.6185 -0.5499 -0.6413
   43MOL0     C 5816  12.697   5.492   5.108  1.0809 -1.3970  0.3895
   43MOL0     C 5817  12.703   5.567   4.976  0.6142 -0.3843  0.5442
   43MOL0     C 5818  12.853   5.597   4.949  0.8413  0.2395  0.1858
   43MOL0     C 5819  12.862   5.721   4.859 -0.4375  0.1229  0.3605
   43MOL0     O 5820  13.003   5.742   4.838 -0.5032 -0.2972 -0.0629
   43MOL0     C 5821  13.086   5.804   4.936 -0.4445 -0.2245  0.1460
   43MOL0     C 5822  13.038   5.868   5.053  0.3358 -0.6713  0.7410
   43MOL0     C 5823  13.118   5.947   5.132 -0.1563 -0.0683 -0.1971
   43MOL0     C 5824  13.049   6.014   5.254  0.6914 -0.1940 -0.3918
   43MOL0     C 5825  13.255   5.965   5.099 -0.1391 -0.2127 -0.1963
   43MOL0     C 5826  13.343   6.057   5.165  0.2253 -0.1835 -0.3770
   43MOL0     O 5827  13.478   6.039   5.140  1.1040 -0.3722 -0.2394
   43MOL0     C 5828  13.563   6.138   5.172  0.3449 -0.7963 -0.1869
   43MOL0     C 5829  13.571   6.177   5.306 -0.0907 -0.3753 -0.1310
   43MOL0     C 5830  13.642   6.289   5.349 -0.3602  0.5751  0.2865
   43MOL0     C 5831  13.699   6.372   5.259 -0.1208 -0.5945  0.2852
   43MOL0     O 5832  13.780   6.483   5.305 -0.0955 -0.0905 -0.4688
   43MOL0     C 5833  13.788   6.604   5.222 -0.3088 -0.1086 -0.4057
   43MOL0     C 5834  13.792   6.725   5.326  0.9079  0.0867  0.2023
   43MOL0     C 5835  13.907   6.735   5.421 -0.8522  0.1055  0.7821
   43MOL0     C 5836  14.040   6.730   5.350 -0.1331  0.4861  0.9507
   43MOL0     C 5837  14.153   6.755   5.450 -0.3262  0.4063 -0.4119
   43MOL0     C 5838  14.291   6.739   5.384  0.7260  0.1344 -0.5606
   43MOL0     C 5839  14.393   6.801   5.470 -0.1740 -0.1293  0.5216
   43MOL0     C 5840  14.538   6.793   5.412 -0.6124  0.0381  1.2413
   43MOL0    Cl 5841  14.603   6.957   5.374 -0.1981  0.7969  0.5199
   43MOL0     C 5842  13.683   6.350   5.118  0.5235  0.4735 -0.6134
   43MOL0     C 5843  13.612   6.232   5.082  0.1156  0.0477  0.0643
   43MOL0     O 5844  13.292   6.156   5.218  0.0066 -0.6287 -0.0157
   43MOL0     C 5845  13.302   5.886   4.995 -0.2979  0.3387 -0.3721
   43MOL0     C 5846  13.222   5.812   4.904  0.6192 -1.0981  0.2922
   43MOL0     N 5847  12.523   5.316   5.160  0.3321 -1.1235  0.0331
   43MOL0     N 5848  12.398   5.299   5.169 -0.2955 -0.2583  0.0931
   43MOL0     C 5849  11.071   5.154   5.260 -0.3907 -0.0069  0.1576
   43MOL0     C 5850  10.958   5.169   5.345 -0.1927  0.3740  0.4503
   43MOL0     C 5851  10.663   5.441   5.587 -0.2832  0.7944 -0.1749
   43MOL0     C 5852  10.610   5.328   5.644 -0.3109  1.1282  0.9560
   43MOL0     C 5853  10.489   5.334   5.717  0.0280  0.4062  0.7324
   43MOL0     C 5854  10.432   5.454   5.754 -0.0436  0.0670  1.0595
   43MOL0     O 5855  10.312   5.453   5.822  0.2395  0.8894  0.2592
   43MOL0     C 5856  10.222   5.568   5.823  0.6082 -0.5319  0.1399
   43MOL0     C 5857  10.088   5.528   5.880 -0.3545 -0.3885 -0.3822
   43MOL0     C 5858  10.008   5.473   5.755 -0.0244 -0.2104 -0.5276
   43MOL0     C 5859   9.902   5.377   5.805  0.2130 -0.5418  0.1805
   43MOL0     C 5860   9.806   5.345   5.698 -0.1743 -0.1983 -0.4251
   43MOL0     C 5861   9.714   5.306   5.630  0.0978  0.2806 -0.9501
   43MOL0     C 5862  10.497   5.571   5.699  0.6095 -1.1553  0.6695
   43MOL0     C 5863  10.608   5.568   5.619 -0.0505  0.5070 -0.8548
   43MOL0     C 5864  10.670   5.700   5.595 -0.0706  0.1201  0.2001
   43MOL0     H 5865  11.070   5.447   5.507 -0.2145 -0.9893  1.2186
   43MOL0     H 5866  11.269   5.400   5.380  0.9074  0.4952 -1.8246
   43MOL0     H 5867  11.478   5.101   5.247 -1.0097 -0.5750  2.1441
   43MOL0     H 5868  11.404   5.187   5.383 -1.3444 -0.0269  0.1333
   43MOL0     H 5869  11.498   5.348   5.132 -1.9079  2.0918  0.0163
   43MOL0     H 5870  11.482   5.408   5.295 -0.5122  0.0386 -0.7838
   43MOL0     H 5871  11.668   5.225   5.359  2.2952  2.3660  0.9211
   43MOL0     H 5872  11.693   5.225   5.187  1.2565 -1.1313  1.0168
   43MOL0     H 5873  11.704   5.484   5.190 -0.2402 -0.5271 -0.9850
   43MOL0     H 5874  11.728   5.477   5.364 -0.1236  1.0965  0.1587
   43MOL0     H 5875  11.898   5.322   5.167 -0.8046  1.2506 -0.7910
   43MOL0     H 5876  11.929   5.338   5.344  0.6429 -0.5562 -0.1523
   43MOL0     H 5877  11.960   5.533   5.123 -4.9156 -1.1673  0.0465
   43MOL0     H 5878  11.963   5.587   5.297 -0.2912 -0.5467 -0.2746
   43MOL0     H 5879  12.136   5.373   5.308 -1.2827 -1.3971 -0.4347
   43MOL0     H 5880  12.177   5.546   5.316 -1.8473 -0.9076  1.5692
   43MOL0     H 5881  12.155   5.382   5.057 -1.5566  0.7870  0.1751
   43MOL0     H 5882  12.194   5.551   5.069  2.3683 -0.7910 -2.8770
   43MOL0     H 5883  12.429   5.622   5.108 -3.2115 -0.9719  0.4025
   43MOL0     H 5884  12.768   5.408   5.111  1.5579 -1.2114 -2.3552
   43MOL0     H 5885  12.716   5.566   5.186 -0.4933 -2.1802  1.5626
   43MOL0     H 5886  12.663   5.510   4.892  0.8375  0.9059 -0.4743
   43MOL0     H 5887  12.657   5.666   4.983  2.6702  0.8337 -1.8610
   43MOL0     H 5888  12.903   5.621   5.043  1.7261 -0.2288 -0.1546
   43MOL0     H 5889  12.905   5.514   4.901 -1.3722 -2.4006  2.0556
   43MOL0     H 5890  12.823   5.717   4.757  1.1526  5.0417 -0.6917
   43MOL0     H 5891  12.815   5.805   4.911 -0.3953  0.4670 -0.1494
   43MOL0     H 5892  12.936   5.854   5.088 -0.1754  1.9748  0.5251
   43MOL0     H 5893  13.096   6.002   5.352 -2.7240  0.6562  1.4941
   43MOL0     H 5894  12.955   5.962   5.272  0.3068  0.5554 -0.2320
   43MOL0     H 5895  13.035   6.121   5.239 -0.7922 -0.5824 -2.1854
   43MOL0     H 5896  13.529   6.103   5.374  3.1473 -1.4651  0.8862
   43MOL0     H 5897  13.677   6.304   5.451  1.5877  0.7383 -0.3505
   43MOL0     H 5898  13.882   6.603   5.167  0.0322 -1.0524  0.1561
   43MOL0     H 5899  13.702   6.616   5.155  0.2317 -0.8751 -1.2488
   43MOL0     H 5900  13.798   6.823   5.278 -2.9582  0.4473  0.1057
   43MOL0     H 5901  13.690   6.723   5.365 -0.8436  1.7772 -3.7002
   43MOL0     H 5902  13.895   6.652   5.492 -2.8889 -0.8089 -0.5357
   43MOL0     H 5903  13.896   6.828   5.479 -1.7881 -0.0255  0.8302
   43MOL0     H 5904  14.048   6.807   5.272  0.0347  2.0251  2.4279
   43MOL0     H 5905  14.052   6.632   5.303 -1.0194  0.5545  0.5442
   43MOL0     H 5906  14.139   6.857   5.486 -0.8498 -0.5662  2.4344
   43MOL0     H 5907  14.148   6.694   5.541 -2.1686 -0.1928 -0.8621
   43MOL0     H 5908  14.293   6.797   5.291  2.6207 -0.2820 -0.8135
   43MOL0     H 5909  14.321   6.636   5.368  2.4122  0.4325  0.3668
   43MOL0     H 5910  14.389   6.756   5.570  0.4722 -1.9214 -0.2271
   43MOL0     H 5911  14.373   6.909   5.478  1.7261  0.1494  2.4809
   43MOL0     H 5912  14.547   6.736   5.320  1.8295  2.9893 -0.5618
   43MOL0     H 5913  14.595   6.734   5.484 -1.9670 -3.8437 -0.6264
   43MOL0     H 5914  13.728   6.418   5.046  4.0926 -0.5135  0.4691
   43MOL0     H 5915  13.578   6.219   4.979 -0.3816  1.2477  0.0570
   43MOL0     H 5916  13.406   5.890   4.964 -0.6694 -1.3254 -1.9938
   43MOL0     H 5917  13.264   5.765   4.816  0.0242  2.0079 -1.8497
   43MOL0     H 5918  11.062   5.086   5.176  0.5412 -0.1505  0.1614
   43MOL0     H 5919  10.878   5.097   5.331  0.9934 -0.6547 -1.5522
   43MOL0     H 5920  10.647   5.227   5.631  0.8106  1.8691 -2.8835
   43MOL0     H 5921  10.451   5.240   5.754  3.5832  0.3093  4.9867
   43MOL0     H 5922  10.260   5.650   5.885 -0.8353  0.7410 -0.6025
   43MOL0     H 5923  10.207   5.621   5.728  0.5253 -0.1998  0.3377
   43MOL0     H 5924  10.043   5.623   5.908 -1.7813 -1.4474  1.1818
   43MOL0     H 5925  10.093   5.462   5.968 -0.8296  0.4202  0.2560
   43MOL0     H 5926   9.963   5.554   5.696 -1.0367 -0.2661  0.1297
   43MOL0     H 5927  10.072   5.421   5.684  0.7441 -4.0070  2.6263
   43MOL0     H 5928   9.840   5.418   5.885 -0.1593 -2.1521  0.7677
   43MOL0     H 5929   9.952   5.283   5.833  0.1665 -0.0193  2.1707
   43MOL0     H 5930   9.635   5.268   5.568 -0.5997  1.0609 -0.5506
   43MOL0     H 5931  10.439   5.658   5.728  0.4856 -1.5718  1.7052
   43MOL0     H 5932  10.613   5.785   5.633 -1.9730  0.3074 -2.7111
   43MOL0     H 5933  10.770   5.705   5.638  0.1406 -1.4001 -0.0354
   43MOL0     H 5934  10.664   5.720   5.488 -0.2825 -1.3527 -0.0954
   44MOL0     O 5935   8.533   2.406   2.546  0.5167 -0.0766  0.1892
   44MOL0     C 5936   8.551   2.307   2.487  0.6303  0.7492 -0.4159
   44MOL0     O 5937   8.673   2.251   2.456 -0.0489 -1.5251  0.3352
   44MOL0     C 5938   8.797   2.311   2.485  0.3397  0.7158  0.6123
   44MOL0     C 5939   8.915   2.224   2.484 -0.5449  0.6275 -0.3169
   44MOL0     C 5940   9.046   2.277   2.503  0.0229  0.9098 -0.7736
   44MOL0     C 5941   9.059   2.408   2.543  0.1786 -0.7496 -0.1527
   44MOL0     O 5942   9.185   2.446   2.569 -0.2037  0.5142  0.4001
   44MOL0     C 5943   9.218   2.579   2.609  0.3309  0.2607 -0.5849
   44MOL0     C 5944   9.362   2.570   2.653 -0.0835  0.1009  0.3890
   44MOL0     C 5945   9.457   2.554   2.534  0.2814  0.1425 -0.1777
   44MOL0     C 5946   9.597   2.604   2.556  0.1112  0.1970  1.0774
   44MOL0     C 5947   9.680   2.604   2.424 -0.4040  0.3845 -0.1033
   44MOL0     C 5948   9.786   2.724   2.398  0.5636 -0.0036  0.2248
   44MOL0     C 5949   9.905   2.732   2.500  0.0053  0.1946 -0.0764
   44MOL0     C 5950   9.978   2.859   2.471 -0.5156  0.0997 -0.8275
   44MOL0     N 5951  10.107   2.882   2.535  0.4053 -0.1135  0.2769
   44MOL0     C 5952  10.182   2.785   2.599 -0.5588 -0.2411  0.0332
   44MOL0     C 5953  10.290   2.858   2.649  0.3431 -0.5331 -0.2860
   44MOL0     C 5954  10.407   2.802   2.737 -0.9903 -0.4305  0.0901
   44MOL0     C 5955  10.538   2.821   2.660 -0.9698  0.4473 -0.2076
   44MOL0     C 5956  10.660   2.759   2.742  0.7156 -0.5194 -0.4256
   44MOL0     C 5957  10.792   2.767   2.660 -0.1856 -0.2358  0.9193
   44MOL0     O 5958  10.839   2.903   2.650 -0.0574 -0.8176  0.0568
   44MOL0     C 5959  10.969   2.926   2.645 -0.9388  0.2733  0.3377
   44MOL0     C 5960  11.027   3.046   2.685  0.6296 -0.3193 -0.5227
   44MOL0     C 5961  11.168   3.078   2.695 -0.3768  0.1467  0.7844
   44MOL0     C 5962  11.198   3.228   2.729 -0.3617 -0.3835  0.0746
   44MOL0     C 5963  11.265   2.979   2.668 -0.1309  1.4550  0.6519
   44MOL0     C 5964  11.414   2.990   2.684  0.6893 -0.0879 -0.8863
   44MOL0     O 5965  11.457   3.075   2.788 -0.5250 -0.2728 -0.2726
   44MOL0     C 5966  11.598   3.089   2.798  0.3159 -0.3860 -0.9752
   44MOL0     C 5967  11.660   3.203   2.754  0.2211  0.0254 -0.9244
   44MOL0     C 5968  11.804   3.210   2.761  0.4325 -0.6225 -0.0399
   44MOL0     C 5969  11.880   3.109   2.819 -0.1672 -0.2598  0.3980
   44MOL0     O 5970  12.016   3.120   2.837 -0.0514 -0.1658 -0.3222
   44MOL0     C 5971  12.103   3.014   2.806 -0.2294 -0.2355 -0.1985
   44MOL0     C 5972  12.247   3.075   2.781 -0.1683  0.2367 -0.3664
   44MOL0     C 5973  12.348   2.977   2.736 -0.7056  0.4593  0.7385
   44MOL0     C 5974  12.470   3.050   2.678  0.2752 -0.6761 -0.2202
   44MOL0     C 5975  12.564   3.115   2.778 -0.1122  0.4594  0.7279
   44MOL0     C 5976  12.657   3.024   2.864  0.2446  0.3000 -0.1795
   44MOL0     C 5977  12.736   2.919   2.774  0.0428 -0.8361 -0.1358
   44MOL0     C 5978  12.867   2.871   2.833  0.1355  0.3121 -0.5965
   44MOL0    Cl 5979  12.957   2.793   2.687 -0.7247  0.2749 -0.1918
   44MOL0     C 5980  11.809   2.993   2.869 -0.0070  0.2853 -0.2644
   44MOL0     C 5981  11.669   2.984   2.852  0.2284  0.4681  0.3843
   44MOL0     O 5982  11.474   2.901   2.628  0.9295  0.1854  0.6373
   44MOL0     C 5983  11.211   2.855   2.612  0.0782  0.0353 -0.6590
   44MOL0     C 5984  11.070   2.839   2.607 -1.0276 -0.1383 -0.4176
   44MOL0     N 5985  10.284   2.982   2.605  0.4567 -0.3216 -0.1741
   44MOL0     N 5986  10.176   3.002   2.540 -0.2508 -0.7530  0.0221
   44MOL0     C 5987   8.948   2.491   2.552  0.3097  0.5292 -0.1453
   44MOL0     C 5988   8.818   2.445   2.521  0.2132  0.1584  0.2140
   44MOL0     C 5989   8.428   2.214   2.455  0.3233  0.1742 -0.3064
   44MOL0     C 5990   8.454   2.096   2.387  0.1973  0.5181  0.4694
   44MOL0     C 5991   8.357   2.000   2.371  0.7160  0.3352 -0.4621
   44MOL0     C 5992   8.218   2.027   2.387  0.1940  0.2500  0.8843
   44MOL0     O 5993   8.137   1.926   2.352 -0.5092  0.6873 -0.0553
   44MOL0     C 5994   7.990   1.946   2.355 -0.9639  0.3548 -0.1384
   44MOL0     C 5995   7.952   2.034   2.240  0.2263 -0.2025 -0.9218
   44MOL0     C 5996   7.793   2.046   2.220 -0.6388  0.4229  0.1669
   44MOL0     C 5997   7.730   2.090   2.346 -0.2581  0.2215  1.0906
   44MOL0     C 5998   7.790   2.215   2.392 -0.0042 -0.7018  0.5079
   44MOL0     C 5999   7.818   2.331   2.417 -0.3957 -0.4870  0.9251
   44MOL0     C 6000   8.188   2.146   2.456  0.1822 -0.7209 -0.3458
   44MOL0     C 6001   8.286   2.247   2.481  0.0588 -0.0372 -0.2371
   44MOL0     C 6002   8.239   2.387   2.529 -0.0454 -0.2751 -0.2107
   44MOL0     H 6003   8.908   2.117   2.465  0.5967 -0.2803  3.4734
   44MOL0     H 6004   9.132   2.211   2.493 -0.0984  0.7165 -0.5472
   44MOL0     H 6005   9.163   2.607   2.699  0.7874 -2.1065  0.5151
   44MOL0     H 6006   9.190   2.655   2.535 -0.9494  0.8887  0.5104
   44MOL0     H 6007   9.377   2.669   2.698 -2.5732  1.3073 -1.2103
   44MOL0     H 6008   9.385   2.494   2.728 -0.8442 -0.5522 -0.0273
   44MOL0     H 6009   9.455   2.448   2.508 -1.6244 -0.9069  3.4895
   44MOL0     H 6010   9.417   2.613   2.451 -0.4748 -1.1101 -0.7390
   44MOL0     H 6011   9.590   2.707   2.594  1.3888  0.1406  1.5134
   44MOL0     H 6012   9.633   2.544   2.640  1.3202  0.3656  0.6919
   44MOL0     H 6013   9.629   2.606   2.327  1.8787  0.5419 -1.3489
   44MOL0     H 6014   9.734   2.510   2.427 -0.3796  0.3717  3.2654
   44MOL0     H 6015   9.825   2.709   2.297  1.1120  0.6117  0.3445
   44MOL0     H 6016   9.732   2.819   2.400 -2.9347 -1.8210  2.2616
   44MOL0     H 6017   9.974   2.648   2.482  0.2316  0.2585  0.4703
   44MOL0     H 6018   9.883   2.733   2.607  3.4752 -1.5324  0.8076
   44MOL0     H 6019  10.005   2.852   2.365  2.8377  1.7717 -0.2194
   44MOL0     H 6020   9.920   2.947   2.501  3.1431  1.6180  2.8294
   44MOL0     H 6021  10.163   2.679   2.612 -0.0817 -0.2691  0.5118
   44MOL0     H 6022  10.385   2.698   2.764 -1.8268 -0.4611 -0.6529
   44MOL0     H 6023  10.411   2.864   2.827  1.2785 -0.8083  0.3076
   44MOL0     H 6024  10.535   2.767   2.565 -1.2217 -1.4361  0.8055
   44MOL0     H 6025  10.550   2.929   2.647  1.2397  0.7007  2.8534
   44MOL0     H 6026  10.668   2.807   2.839  0.7638 -1.8560  0.2544
   44MOL0     H 6027  10.640   2.654   2.766  2.0514 -0.5445  0.6814
   44MOL0     H 6028  10.873   2.712   2.709 -0.1282  2.1461  3.7594
   44MOL0     H 6029  10.779   2.719   2.563 -2.1503  0.3057  0.8684
   44MOL0     H 6030  10.964   3.130   2.712  2.2933  1.6007 -2.2435
   44MOL0     H 6031  11.117   3.292   2.692 -0.2117 -0.0253  0.3657
   44MOL0     H 6032  11.287   3.262   2.676  0.5273 -2.0310  0.4537
   44MOL0     H 6033  11.214   3.238   2.837 -2.4170 -0.6587  0.4672
   44MOL0     H 6034  11.610   3.292   2.715 -1.9474 -0.4465  0.5908
   44MOL0     H 6035  11.860   3.297   2.729  0.0943 -0.7085 -0.9096
   44MOL0     H 6036  12.107   2.939   2.885  2.2647 -1.9355 -1.7838
   44MOL0     H 6037  12.063   2.956   2.723 -0.1720 -0.8554  0.2003
   44MOL0     H 6038  12.242   3.152   2.704  1.5435 -0.5306 -1.3146
   44MOL0     H 6039  12.286   3.120   2.873  0.1855 -0.2505 -0.2658
   44MOL0     H 6040  12.320   2.900   2.663  4.0047  0.1458 -1.0741
   44MOL0     H 6041  12.373   2.916   2.823 -3.0037 -1.9621 -0.1463
   44MOL0     H 6042  12.439   3.131   2.611  0.5755 -0.3586  0.0209
   44MOL0     H 6043  12.524   2.974   2.622  0.6300  1.0911 -2.4318
   44MOL0     H 6044  12.630   3.180   2.720 -0.4786 -1.2324 -1.7211
   44MOL0     H 6045  12.509   3.166   2.858 -0.5373  0.2713  0.5539
   44MOL0     H 6046  12.593   2.971   2.935  1.7738 -0.5742  0.5882
   44MOL0     H 6047  12.733   3.075   2.924  0.6997 -0.9219  0.3290
   44MOL0     H 6048  12.759   2.970   2.680 -0.9591  0.1360  0.1186
   44MOL0     H 6049  12.668   2.834   2.762  2.5984 -3.2744  1.6123
   44MOL0     H 6050  12.852   2.800   2.914  3.3189  0.7658  0.5482
   44MOL0     H 6051  12.917   2.957   2.879 -1.6464 -0.5936  3.4428
   44MOL0     H 6052  11.872   2.916   2.912  1.8107  0.2449 -2.7676
   44MOL0     H 6053  11.610   2.898   2.881  0.2650 -0.3455 -1.8246
   44MOL0     H 6054  11.269   2.773   2.571 -1.1526 -0.6937 -1.0316
   44MOL0     H 6055  11.033   2.746   2.563 -1.1721 -1.1768  1.7689
   44MOL0     H 6056   8.973   2.596   2.563  2.3788  0.3417 -2.2279
   44MOL0     H 6057   8.745   2.526   2.523  2.8372  2.7493 -1.2817
   44MOL0     H 6058   8.555   2.078   2.352 -0.2473  3.0841 -2.6197
   44MOL0     H 6059   8.373   1.902   2.327 -4.6360 -2.4383  2.8106
   44MOL0     H 6060   7.928   1.855   2.349  1.1100 -1.1215 -0.1734
   44MOL0     H 6061   7.964   1.988   2.452 -1.4699 -1.1104  0.3894
   44MOL0     H 6062   8.011   2.003   2.153 -1.0961 -0.3927 -1.7803
   44MOL0     H 6063   7.993   2.134   2.260  2.6672 -1.5766  1.6444
   44MOL0     H 6064   7.773   2.112   2.135 -1.5912  0.3204  0.2975
   44MOL0     H 6065   7.750   1.948   2.195  0.8408  0.5195 -3.1981
   44MOL0     H 6066   7.733   2.010   2.421 -3.2385  0.6579  1.7965
   44MOL0     H 6067   7.626   2.112   2.320 -0.2039  0.2148  0.8682
   44MOL0     H 6068   7.844   2.435   2.432 -0.7784 -0.1773 -0.4499
   44MOL0     H 6069   8.088   2.180   2.483  0.1719 -1.2024  0.2304
   44MOL0     H 6070   8.278   2.463   2.460  0.0051  1.1471  1.3128
   44MOL0     H 6071   8.133   2.398   2.553  0.3479 -1.7143  2.5813
   44MOL0     H 6072   8.290   2.425   2.618  0.2089  1.9714 -1.2390
   45MOL0     O 6073   5.389  10.538   3.922 -0.5118 -0.3797  0.5866
   45MOL0     C 6074   5.429  10.481   4.022  0.0696  0.1826 -0.2574
   45MOL0     O 6075   5.352  10.448   4.128 -0.2369  0.3794  0.8245
   45MOL0     C 6076   5.213  10.441   4.113 -0.4214 -0.2795 -0.1347
   45MOL0     C 6077   5.144  10.467   4.240 -0.5241  0.2903  0.2389
   45MOL0     C 6078   5.002  10.465   4.239 -0.6381 -0.2472  0.6493
   45MOL0     C 6079   4.926  10.435   4.122 -0.5921  0.0719 -0.0466
   45MOL0     O 6080   4.784  10.427   4.121 -0.2655 -0.1149  0.7395
   45MOL0     C 6081   4.722  10.436   4.242 -0.0713  0.7401 -0.1680
   45MOL0     C 6082   4.568  10.424   4.227 -0.2968  0.1094 -0.3735
   45MOL0     C 6083   4.496  10.394   4.358 -0.1348  0.8392 -0.5887
   45MOL0     C 6084   4.349  10.389   4.331  0.4206  0.1037  0.1335
   45MOL0     C 6085   4.270  10.376   4.454 -0.0214  0.3532 -0.8480
   45MOL0     C 6086   4.138  10.332   4.439  0.2733  0.2865  0.3096
   45MOL0     C 6087   4.118  10.184   4.408 -0.2286  0.0881  0.4389
   45MOL0     C 6088   3.969  10.141   4.406  1.4506 -0.6213  0.6519
   45MOL0     N 6089   3.953   9.994   4.376  0.0697 -0.0297  0.3804
   45MOL0     C 6090   3.978   9.934   4.248  0.3500 -0.2030  0.3904
   45MOL0     C 6091   4.002   9.809   4.281  0.7944  0.1818 -0.5039
   45MOL0     C 6092   4.027   9.692   4.202 -1.1581 -0.0955 -0.0892
   45MOL0     C 6093   4.161   9.630   4.232  0.5263  0.3012  0.0628
   45MOL0     C 6094   4.197   9.531   4.132  0.5533 -0.6687  0.1095
   45MOL0     C 6095   4.325   9.465   4.151 -1.5487  0.7358 -0.5341
   45MOL0     O 6096   4.439   9.547   4.126 -0.7089  0.8503 -0.3474
   45MOL0     C 6097   4.561   9.486   4.124 -0.6475 -0.1581 -0.6143
   45MOL0     C 6098   4.663   9.568   4.076 -0.1132  0.1138  0.4203
   45MOL0     C 6099   4.790   9.530   4.061 -0.1075 -0.4228  0.2381
   45MOL0     C 6100   4.893   9.632   4.014 -0.6356  1.0910 -0.3265
   45MOL0     C 6101   4.826   9.406   4.104 -0.6431  0.6972 -0.3190
   45MOL0     C 6102   4.970   9.345   4.111 -0.2443  0.5499  0.6922
   45MOL0     O 6103   4.980   9.220   4.159  0.3594 -0.3102 -0.5014
   45MOL0     C 6104   5.094   9.158   4.158 -0.4429  0.0442  0.4130
   45MOL0     C 6105   5.174   9.156   4.269 -0.0974 -0.2740  0.1534
   45MOL0     C 6106   5.297   9.098   4.266  0.2796 -0.2270 -0.0564
   45MOL0     C 6107   5.344   9.026   4.157  0.7272 -0.1482 -0.1884
   45MOL0     O 6108   5.456   8.957   4.148 -0.7612  0.7418 -0.0520
   45MOL0     C 6109   5.548   8.946   4.260 -0.5511 -0.4669  0.4454
   45MOL0     C 6110   5.639   9.068   4.280  0.7199 -0.0224  0.5586
   45MOL0     C 6111   5.765   9.071   4.184  1.0207  0.4077 -0.4112
   45MOL0     C 6112   5.826   9.203   4.219  0.2520  0.4865  0.2840
   45MOL0     C 6113   5.970   9.232   4.155 -0.5669 -0.3566 -0.4191
   45MOL0     C 6114   6.037   9.353   4.217  0.5324 -0.1703  0.5031
   45MOL0     C 6115   6.160   9.392   4.128 -0.5813  0.4384 -0.1363
   45MOL0     C 6116   6.227   9.509   4.191  0.0207 -0.6915  1.0402
   45MOL0    Cl 6117   6.338   9.462   4.334  0.3115  0.1784  0.1857
   45MOL0     C 6118   5.254   9.020   4.046  0.5836 -0.5836  0.2394
   45MOL0     C 6119   5.131   9.087   4.045 -0.6294  0.4884  0.1983
   45MOL0     O 6120   5.060   9.400   4.048  0.1127  0.3398 -0.3095
   45MOL0     C 6121   4.730   9.320   4.157 -0.2874  0.0207  0.1651
   45MOL0     C 6122   4.596   9.360   4.178  0.5114  0.1450 -0.2146
   45MOL0     N 6123   3.984   9.796   4.418 -0.3714 -0.6571  0.6540
   45MOL0     N 6124   3.952   9.906   4.476 -0.1607  0.1391 -0.6246
   45MOL0     C 6125   4.994  10.406   4.004  0.0476 -0.0736 -0.0986
   45MOL0     C 6126   5.137  10.415   4.004  0.7014  0.2034 -0.2661
   45MOL0     C 6127   5.584  10.464   4.026 -0.3362  0.4768  0.1680
   45MOL0     C 6128   5.655  10.480   3.910  0.9013  0.1906  0.0877
   45MOL0     C 6129   5.789  10.475   3.906 -0.5869  0.6837 -0.0582
   45MOL0     C 6130   5.860  10.448   4.021  0.4173  0.1551  0.0542
   45MOL0     O 6131   5.997  10.447   4.012  0.6743 -1.3951  0.7200
   45MOL0     C 6132   6.072  10.388   4.111 -0.6392  0.3701 -0.2834
   45MOL0     C 6133   6.194  10.336   4.035 -0.2369  0.3252  0.0506
   45MOL0     C 6134   6.298  10.252   4.118 -0.4629 -0.0641  0.3275
   45MOL0     C 6135   6.321  10.309   4.258 -0.3360 -0.0489 -0.3291
   45MOL0     C 6136   6.361  10.448   4.265 -0.9550 -1.1259 -0.6470
   45MOL0     C 6137   6.394  10.564   4.272 -1.1196 -0.2193 -0.0488
   45MOL0     C 6138   5.789  10.421   4.133  0.5472  0.2819 -0.4558
   45MOL0     C 6139   5.657  10.430   4.142  0.7969 -0.7460  0.8507
   45MOL0     C 6140   5.587  10.411   4.276  0.0475  0.1442 -0.0801
   45MOL0     H 6141   5.209  10.492   4.324 -1.3721  3.3376  0.1025
   45MOL0     H 6142   4.954  10.480   4.335  0.3214 -1.8721  1.4205
   45MOL0     H 6143   4.748  10.527   4.296 -3.1223  2.5418 -1.4525
   45MOL0     H 6144   4.763  10.359   4.309 -2.6195  1.1028  2.0077
   45MOL0     H 6145   4.531  10.517   4.183 -2.5692  0.7855  2.6080
   45MOL0     H 6146   4.557  10.333   4.167 -0.3058 -0.5625  0.6246
   45MOL0     H 6147   4.536  10.310   4.415 -3.0728 -0.0137  0.4099
   45MOL0     H 6148   4.503  10.480   4.425  0.1931  1.7371 -1.7320
   45MOL0     H 6149   4.327  10.486   4.286  2.9939  0.4363 -0.5844
   45MOL0     H 6150   4.335  10.305   4.262  1.8559 -0.3297  0.3227
   45MOL0     H 6151   4.262  10.471   4.508  1.7615 -0.9934  2.0763
   45MOL0     H 6152   4.318  10.320   4.535 -2.6945  2.6645  2.6165
   45MOL0     H 6153   4.083  10.347   4.532 -0.3809 -0.8015  0.1167
   45MOL0     H 6154   4.085  10.393   4.366 -1.7503  1.5842  2.7023
   45MOL0     H 6155   4.157  10.126   4.492  1.4447 -0.0530 -0.3840
   45MOL0     H 6156   4.171  10.157   4.316 -0.3441 -0.6353  0.5785
   45MOL0     H 6157   3.925  10.161   4.504 -0.1766 -0.5580 -0.0591
   45MOL0     H 6158   3.910  10.199   4.336 -1.0001 -1.5335  1.8414
   45MOL0     H 6159   3.976   9.979   4.150  1.1140  1.2258  0.9883
   45MOL0     H 6160   4.026   9.722   4.097  0.0573 -4.1985 -1.4498
   45MOL0     H 6161   3.951   9.616   4.220 -0.2659 -0.7644  1.0007
   45MOL0     H 6162   4.235   9.711   4.233 -0.3290  1.1078 -0.6135
   45MOL0     H 6163   4.153   9.595   4.335 -0.4191 -0.1579 -0.1622
   45MOL0     H 6164   4.121   9.453   4.134  0.2454 -0.3481  1.0784
   45MOL0     H 6165   4.199   9.587   4.038  1.1857  2.2579  1.7507
   45MOL0     H 6166   4.326   9.441   4.258 -2.2607 -1.4583 -0.9858
   45MOL0     H 6167   4.325   9.378   4.086 -1.9076  0.2935  0.0564
   45MOL0     H 6168   4.641   9.665   4.033  1.3340 -0.0749 -0.8610
   45MOL0     H 6169   4.974   9.627   4.087 -1.2281 -0.5477  0.2677
   45MOL0     H 6170   4.843   9.730   4.017 -3.8862 -0.1374 -4.2738
   45MOL0     H 6171   4.926   9.612   3.912 -3.0823  2.2030 -1.4224
   45MOL0     H 6172   5.139   9.179   4.369 -1.4473  1.8913 -0.7493
   45MOL0     H 6173   5.344   9.088   4.363 -1.6150 -2.2597  0.7542
   45MOL0     H 6174   5.502   8.935   4.359  1.4391 -0.1447  1.4746
   45MOL0     H 6175   5.611   8.857   4.247 -1.0497 -0.6009 -1.3834
   45MOL0     H 6176   5.589   9.164   4.262  0.9947  0.2646  1.2807
   45MOL0     H 6177   5.679   9.059   4.381 -1.5539 -3.9975  1.2966
   45MOL0     H 6178   5.739   9.063   4.078 -1.4996  0.2158  0.1640
   45MOL0     H 6179   5.829   8.986   4.211  0.5586  0.9320  2.6478
   45MOL0     H 6180   5.826   9.194   4.328 -3.6852  1.0456  0.4975
   45MOL0     H 6181   5.757   9.284   4.194 -1.3970 -0.6364  1.0393
   45MOL0     H 6182   6.037   9.146   4.162 -0.3385 -0.0596  1.1992
   45MOL0     H 6183   5.967   9.252   4.047  1.3080  0.3328 -0.3784
   45MOL0     H 6184   6.066   9.341   4.322  0.6740 -1.9948  0.2987
   45MOL0     H 6185   5.957   9.428   4.213 -1.8260 -2.4882  1.1464
   45MOL0     H 6186   6.122   9.417   4.028 -0.5726  1.8709  0.1938
   45MOL0     H 6187   6.227   9.306   4.120  1.1524  1.8723 -2.3245
   45MOL0     H 6188   6.155   9.587   4.217  0.4739  0.5708 -1.2032
   45MOL0     H 6189   6.294   9.539   4.110 -0.7626 -1.8332 -0.0777
   45MOL0     H 6190   5.281   8.972   3.953 -1.4561 -3.6914  1.1012
   45MOL0     H 6191   5.064   9.089   3.959 -0.1968 -0.3500 -0.1697
   45MOL0     H 6192   4.751   9.218   4.188  2.1165 -0.3295 -2.2533
   45MOL0     H 6193   4.523   9.290   4.216 -0.1243 -0.7518 -2.8375
   45MOL0     H 6194   4.941  10.368   3.918  0.1884  0.0561 -0.2438
   45MOL0     H 6195   5.191  10.382   3.916  1.0337  1.1772 -0.4311
   45MOL0     H 6196   5.605  10.499   3.815  0.0167  2.4688  0.9406
   45MOL0     H 6197   5.846  10.475   3.814  0.3409 -2.1519  0.4236
   45MOL0     H 6198   6.115  10.464   4.177  1.1831 -1.8675  1.3080
   45MOL0     H 6199   6.020  10.308   4.165  0.0402 -0.6244 -1.0561
   45MOL0     H 6200   6.248  10.424   4.000 -1.1389  0.7038 -0.4407
   45MOL0     H 6201   6.168  10.277   3.946  0.3846 -0.5321  0.4223
   45MOL0     H 6202   6.252  10.152   4.124  2.2730 -1.5744 -1.7432
   45MOL0     H 6203   6.396  10.232   4.075  0.2550 -2.2590  2.6747
   45MOL0     H 6204   6.395  10.248   4.310 -1.0665  0.4211  1.3309
   45MOL0     H 6205   6.234  10.300   4.324  1.4312 -1.8017  1.9372
   45MOL0     H 6206   6.411  10.667   4.297 -0.2097 -0.4251  0.1849
   45MOL0     H 6207   5.853  10.405   4.220 -2.7270  0.2216  2.1121
   45MOL0     H 6208   5.659  10.413   4.359 -0.5906  2.5006  0.4953
   45MOL0     H 6209   5.515  10.490   4.300  0.4023  0.9469 -1.5750
   45MOL0     H 6210   5.536  10.314   4.267  2.2438 -0.8472 -3.8621
   46MOL0     O 6211   4.771   7.040   7.602 -0.6738 -0.4691  0.7429
   46MOL0     C 6212   4.739   7.152   7.643 -0.1775  0.3481  0.2078
   46MOL0     O 6213   4.773   7.271   7.579  0.0745  0.0684 -0.0572
   46MOL0     C 6214   4.892   7.281   7.505  0.0428  0.8189  0.6355
   46MOL0     C 6215   4.896   7.389   7.413  0.1918  0.3397 -0.5158
   46MOL0     C 6216   5.018   7.431   7.355  0.7259 -0.2628 -0.5736
   46MOL0     C 6217   5.135   7.363   7.392  1.0196  0.4987  0.4837
   46MOL0     O 6218   5.268   7.396   7.355  0.1528 -0.5613 -0.5123
   46MOL0     C 6219   5.291   7.539   7.342 -0.0798  0.4921  0.6154
   46MOL0     C 6220   5.435   7.556   7.299 -0.2776 -0.4282 -0.5865
   46MOL0     C 6221   5.540   7.513   7.404  0.1318  0.0849 -0.0658
   46MOL0     C 6222   5.664   7.591   7.385  0.6291  0.1252 -0.2055
   46MOL0     C 6223   5.771   7.547   7.489 -0.2165 -0.6105  0.1787
   46MOL0     C 6224   5.920   7.576   7.455  0.0840  0.0315  0.1671
   46MOL0     C 6225   6.017   7.535   7.570 -0.7717  0.3974  0.6019
   46MOL0     C 6226   6.119   7.638   7.603  0.6645  0.3223  0.3045
   46MOL0     N 6227   6.185   7.713   7.491  0.3674  0.6858  0.1058
   46MOL0     C 6228   6.267   7.655   7.399  0.5256 -0.4742 -0.1306
   46MOL0     C 6229   6.353   7.752   7.374 -0.3526  0.7658  0.5889
   46MOL0     C 6230   6.477   7.721   7.289  0.6157  1.0605  0.4045
   46MOL0     C 6231   6.610   7.760   7.357  0.0740  0.7596  0.0325
   46MOL0     C 6232   6.645   7.913   7.346 -0.4222  0.7092  0.1152
   46MOL0     C 6233   6.772   7.942   7.426 -0.1921 -0.7456  0.1225
   46MOL0     O 6234   6.776   7.928   7.565 -0.0032 -0.4538  0.0104
   46MOL0     C 6235   6.898   7.925   7.632  0.0454  0.1261  0.9739
   46MOL0     C 6236   7.016   7.898   7.566  1.1169  0.5318 -0.5441
   46MOL0     C 6237   7.132   7.896   7.645 -0.6763  0.1494 -0.2703
   46MOL0     C 6238   7.254   7.870   7.568 -1.0706  0.8744 -0.5354
   46MOL0     C 6239   7.124   7.926   7.782 -0.2641  0.0728 -0.2677
   46MOL0     C 6240   7.248   7.919   7.873  0.7784 -0.3073 -0.0098
   46MOL0     O 6241   7.374   7.922   7.814 -0.0400  0.7620 -0.0371
   46MOL0     C 6242   7.496   7.897   7.874 -0.5854  0.1778  0.9677
   46MOL0     C 6243   7.519   7.903   8.004 -0.0414  0.8519  0.4967
   46MOL0     C 6244   7.645   7.891   8.056  0.8434  0.0004  0.3747
   46MOL0     C 6245   7.760   7.884   7.973 -0.0570  0.1332 -1.1345
   46MOL0     O 6246   7.880   7.855   8.035  0.2633 -0.8736  0.2261
   46MOL0     C 6247   8.000   7.842   7.952  0.8181  0.6019  0.0754
   46MOL0     C 6248   8.120   7.856   8.042 -0.0399 -0.5296 -0.2418
   46MOL0     C 6249   8.252   7.834   7.972 -0.4986  0.2770 -0.0433
   46MOL0     C 6250   8.368   7.779   8.058  0.4109 -0.0209  0.6319
   46MOL0     C 6251   8.368   7.824   8.208 -0.0656 -0.9644 -0.3209
   46MOL0     C 6252   8.485   7.773   8.303 -0.1649  0.5502 -0.2867
   46MOL0     C 6253   8.627   7.787   8.241 -0.8628  0.5572  0.7810
   46MOL0     C 6254   8.666   7.929   8.222 -0.1929  0.6446  1.0809
   46MOL0    Cl 6255   8.835   7.953   8.166  0.4234 -0.1866  0.3464
   46MOL0     C 6256   7.741   7.892   7.833 -0.0890 -0.6596  1.0119
   46MOL0     C 6257   7.605   7.889   7.786 -0.7442  0.0442 -0.6711
   46MOL0     O 6258   7.227   7.906   7.991  0.1699 -0.2190  0.2446
   46MOL0     C 6259   7.000   7.952   7.845  0.2500 -0.0523 -0.5290
   46MOL0     C 6260   6.891   7.955   7.768  0.5095  0.0571 -0.6655
   46MOL0     N 6261   6.319   7.872   7.430 -0.1542 -0.9193  0.6481
   46MOL0     N 6262   6.210   7.849   7.502 -0.3788 -0.2185  0.4146
   46MOL0     C 6263   5.129   7.247   7.465 -0.0636  0.5059  0.2626
   46MOL0     C 6264   5.008   7.209   7.522  0.4927 -0.1896 -0.1540
   46MOL0     C 6265   4.648   7.158   7.767 -0.1449  0.4596  0.0524
   46MOL0     C 6266   4.660   7.059   7.867 -0.6091  0.0825  0.0308
   46MOL0     C 6267   4.589   7.076   7.988 -0.0617  0.5696  1.0559
   46MOL0     C 6268   4.501   7.181   8.013 -1.1391  0.3269  0.1815
   46MOL0     O 6269   4.445   7.200   8.136  0.2565 -0.6304 -0.2978
   46MOL0     C 6270   4.397   7.097   8.218 -0.3384 -0.0106  0.3981
   46MOL0     C 6271   4.286   7.014   8.148 -1.0575 -0.4424 -0.3172
   46MOL0     C 6272   4.182   7.096   8.081  0.6463 -0.3211 -0.7542
   46MOL0     C 6273   4.052   7.019   8.037 -0.4821 -1.3059  1.0471
   46MOL0     C 6274   3.963   6.988   8.151  0.1954  0.1508  0.4402
   46MOL0     C 6275   3.901   6.976   8.253  0.5268  0.1741 -0.2877
   46MOL0     C 6276   4.486   7.277   7.915 -0.2569  0.3498  0.2236
   46MOL0     C 6277   4.559   7.264   7.791 -0.4672 -0.6137  0.1399
   46MOL0     C 6278   4.527   7.366   7.681 -0.5216 -0.0238  0.1728
   46MOL0     H 6279   4.803   7.442   7.395  1.2547  2.4239 -0.1429
   46MOL0     H 6280   5.015   7.515   7.286  2.5072  0.2943 -0.0466
   46MOL0     H 6281   5.281   7.591   7.437  0.8844 -0.6186  1.3554
   46MOL0     H 6282   5.235   7.588   7.262  1.7146  0.0386 -0.9988
   46MOL0     H 6283   5.453   7.509   7.201 -1.2793 -0.2534 -0.8675
   46MOL0     H 6284   5.452   7.661   7.273 -1.4389 -0.3963 -1.3294
   46MOL0     H 6285   5.506   7.534   7.506  2.5678 -2.2881  1.3533
   46MOL0     H 6286   5.560   7.406   7.409 -0.3633 -0.0034  0.0825
   46MOL0     H 6287   5.703   7.574   7.284  0.2549  1.1088 -0.5343
   46MOL0     H 6288   5.638   7.697   7.387  0.4970  0.0780  0.6737
   46MOL0     H 6289   5.751   7.439   7.497 -0.8952 -0.4257  1.1492
   46MOL0     H 6290   5.752   7.593   7.587  0.5052 -2.1960  1.1079
   46MOL0     H 6291   5.941   7.509   7.371 -2.0099 -0.2449 -0.2043
   46MOL0     H 6292   5.927   7.682   7.428 -0.9069  0.7596  2.4826
   46MOL0     H 6293   6.065   7.438   7.555  0.1725  1.1005 -1.3460
   46MOL0     H 6294   5.944   7.523   7.651 -0.7909 -1.5126  0.3337
   46MOL0     H 6295   6.056   7.712   7.652 -0.4796 -0.1180 -0.4509
   46MOL0     H 6296   6.198   7.584   7.655  2.8169  0.2990 -2.7134
   46MOL0     H 6297   6.284   7.549   7.385  1.2361 -0.4501  0.4408
   46MOL0     H 6298   6.460   7.776   7.196  3.4037  3.5175  1.2160
   46MOL0     H 6299   6.477   7.614   7.267  1.4687  1.2966 -0.8231
   46MOL0     H 6300   6.606   7.736   7.463 -0.9434  0.3909 -0.0780
   46MOL0     H 6301   6.697   7.714   7.309 -0.4401  0.0135 -0.2064
   46MOL0     H 6302   6.654   7.938   7.240  0.5356 -0.3402 -0.0693
   46MOL0     H 6303   6.561   7.968   7.390 -0.3456 -0.6817  2.1576
   46MOL0     H 6304   6.857   7.893   7.377  0.6614 -0.6954  1.4921
   46MOL0     H 6305   6.784   8.050   7.409 -2.6216  0.0173  2.6602
   46MOL0     H 6306   7.030   7.873   7.461 -3.0296  1.9287 -1.6230
   46MOL0     H 6307   7.323   7.955   7.568 -2.2205  1.8408 -0.5899
   46MOL0     H 6308   7.238   7.842   7.463 -1.1613 -1.1190 -0.0238
   46MOL0     H 6309   7.307   7.781   7.602 -0.4670  1.5407  0.3121
   46MOL0     H 6310   7.436   7.931   8.068 -0.8020  2.5978 -1.1442
   46MOL0     H 6311   7.660   7.885   8.163 -2.0928  0.9814  0.9280
   46MOL0     H 6312   8.009   7.748   7.897  0.4347  0.0251  0.9611
   46MOL0     H 6313   8.008   7.919   7.875 -1.0738  3.0117  2.1085
   46MOL0     H 6314   8.117   7.959   8.078  1.1160 -0.3240 -0.7001
   46MOL0     H 6315   8.114   7.795   8.133  0.0489  0.9828  0.8180
   46MOL0     H 6316   8.292   7.929   7.937  0.9828 -0.2382  0.1739
   46MOL0     H 6317   8.246   7.767   7.886 -1.6906  3.1205 -2.3530
   46MOL0     H 6318   8.459   7.807   8.004 -0.2818 -0.8551 -1.0378
   46MOL0     H 6319   8.357   7.670   8.055 -1.2684  0.1327 -0.8031
   46MOL0     H 6320   8.378   7.933   8.209  1.9096 -1.0994 -0.5948
   46MOL0     H 6321   8.276   7.798   8.260  1.9540 -3.1594  2.4733
   46MOL0     H 6322   8.466   7.667   8.321 -1.2025  1.2118  3.0622
   46MOL0     H 6323   8.501   7.811   8.404  0.7497 -0.3883 -0.0553
   46MOL0     H 6324   8.620   7.742   8.142  1.5527  0.2287  0.7069
   46MOL0     H 6325   8.697   7.732   8.304 -0.3472 -2.0568 -1.8735
   46MOL0     H 6326   8.657   7.983   8.317 -2.2342  0.0211  1.2838
   46MOL0     H 6327   8.588   7.974   8.159  0.2985  4.3314  2.8353
   46MOL0     H 6328   7.826   7.887   7.765 -1.0885  1.2814 -0.4817
   46MOL0     H 6329   7.587   7.898   7.680 -0.7308  0.5139 -0.6352
   46MOL0     H 6330   6.989   7.993   7.944  0.9480  1.1118 -0.9120
   46MOL0     H 6331   6.794   7.993   7.799 -0.4485 -1.8111 -1.1882
   46MOL0     H 6332   5.208   7.181   7.501 -3.0363 -3.2297  0.6203
   46MOL0     H 6333   5.002   7.129   7.595 -2.1378  0.0400 -0.0127
   46MOL0     H 6334   4.725   6.976   7.843 -0.7354  0.6463 -2.5855
   46MOL0     H 6335   4.609   6.998   8.060  0.3318  0.9053  1.3102
   46MOL0     H 6336   4.473   7.025   8.250  0.4923 -0.1158 -1.6493
   46MOL0     H 6337   4.347   7.143   8.304 -1.6367 -3.2010  1.5240
   46MOL0     H 6338   4.250   6.956   8.234  1.4341 -1.1792  0.3055
   46MOL0     H 6339   4.318   6.943   8.071  0.7639  0.6986 -0.6647
   46MOL0     H 6340   4.159   7.174   8.154  2.7378  0.8104 -1.2227
   46MOL0     H 6341   4.228   7.148   7.997  0.1552  1.9057  0.2813
   46MOL0     H 6342   4.075   6.925   7.987 -1.0322 -0.0021 -1.8840
   46MOL0     H 6343   4.006   7.079   7.958  1.7369 -1.0294 -0.1181
   46MOL0     H 6344   3.845   6.992   8.343  0.6863  1.7049 -0.4458
   46MOL0     H 6345   4.421   7.364   7.920  0.7504  1.1348 -0.0335
   46MOL0     H 6346   4.510   7.307   7.590  0.7511 -1.5214  0.8558
   46MOL0     H 6347   4.439   7.426   7.705  1.4550  3.1037  0.2097
   46MOL0     H 6348   4.607   7.438   7.661 -2.4616  2.2275  0.0806
   47MOL0     O 6349   3.334   8.252   5.836 -0.0102 -0.1783  0.2819
   47MOL0     C 6350   3.226   8.305   5.864 -0.4009 -1.2317 -0.3962
   47MOL0     O 6351   3.199   8.387   5.968 -0.1321  0.2428  0.1921
   47MOL0     C 6352   3.301   8.414   6.056  0.4548  1.0735  0.8072
   47MOL0     C 6353   3.401   8.497   6.005 -1.4795 -0.8244 -0.2868
   47MOL0     C 6354   3.511   8.522   6.094  0.1520  0.6553  0.2388
   47MOL0     C 6355   3.515   8.463   6.223  0.4694 -0.8057 -1.2320
   47MOL0     O 6356   3.618   8.510   6.303  0.2132 -0.2441 -0.1324
   47MOL0     C 6357   3.618   8.463   6.440 -0.3845 -0.2573  0.2700
   47MOL0     C 6358   3.703   8.331   6.445 -0.7634  0.7810  0.2930
   47MOL0     C 6359   3.744   8.294   6.589  0.3288  0.3653  0.0970
   47MOL0     C 6360   3.792   8.153   6.603 -0.8153 -0.0305 -0.1283
   47MOL0     C 6361   3.852   8.100   6.733 -0.2043  0.3187 -0.1998
   47MOL0     C 6362   3.927   8.207   6.806 -0.7029 -0.1233 -0.1536
   47MOL0     C 6363   4.053   8.232   6.728 -0.2532  0.9911 -0.3579
   47MOL0     C 6364   4.144   8.322   6.801 -0.5155 -0.0549 -0.2290
   47MOL0     N 6365   4.273   8.323   6.733 -0.9465  0.8759  0.1658
   47MOL0     C 6366   4.376   8.414   6.756 -0.2368  0.0432 -0.7180
   47MOL0     C 6367   4.464   8.407   6.655  0.0359  0.5807  0.1297
   47MOL0     C 6368   4.591   8.488   6.626 -0.0890 -0.3398 -0.2485
   47MOL0     C 6369   4.663   8.518   6.758 -0.3606  0.2373  0.5994
   47MOL0     C 6370   4.800   8.586   6.733  0.6872 -0.2664  0.0269
   47MOL0     C 6371   4.867   8.645   6.857 -0.4154  0.1810 -0.7313
   47MOL0     O 6372   4.935   8.763   6.821 -0.3373 -0.3288  0.2740
   47MOL0     C 6373   5.060   8.784   6.859  0.9104 -0.4550 -0.2257
   47MOL0     C 6374   5.088   8.809   6.990  0.0836 -0.0328  0.2277
   47MOL0     C 6375   5.226   8.831   7.035  0.3286 -0.0088 -0.4366
   47MOL0     C 6376   5.242   8.854   7.184 -0.7003 -0.3652 -0.7259
   47MOL0     C 6377   5.332   8.829   6.943 -0.4586 -0.7959  0.7701
   47MOL0     C 6378   5.471   8.854   6.966  0.0961  0.1698 -0.3378
   47MOL0     O 6379   5.557   8.804   6.874 -0.1939  0.7230  0.6191
   47MOL0     C 6380   5.692   8.820   6.886  0.7889  0.5906 -0.2309
   47MOL0     C 6381   5.761   8.787   7.002 -0.1546 -0.4395 -0.0318
   47MOL0     C 6382   5.900   8.802   7.004 -0.4728 -0.0028 -0.8979
   47MOL0     C 6383   5.983   8.829   6.892 -0.2949  0.0329 -0.0755
   47MOL0     O 6384   6.118   8.856   6.904  0.8140  0.4292 -0.3020
   47MOL0     C 6385   6.201   8.889   6.792 -0.0284 -0.1571 -0.2429
   47MOL0     C 6386   6.349   8.922   6.835  0.9846 -0.1188 -0.8854
   47MOL0     C 6387   6.426   8.794   6.872  0.9915 -0.2579 -1.0629
   47MOL0     C 6388   6.564   8.834   6.922  0.2450  0.0716 -0.4934
   47MOL0     C 6389   6.631   8.722   6.994 -0.5234 -0.0008 -0.4141
   47MOL0     C 6390   6.762   8.772   7.070 -0.0917 -0.0869 -0.5394
   47MOL0     C 6391   6.880   8.813   6.981 -0.3212 -0.3472  0.2686
   47MOL0     C 6392   7.001   8.819   7.075 -0.2853  0.5299  0.1193
   47MOL0    Cl 6393   7.042   8.648   7.120  0.0018  0.0097  0.3343
   47MOL0     C 6394   5.904   8.834   6.772 -1.1187  0.0701  0.4377
   47MOL0     C 6395   5.768   8.830   6.768  0.4043  1.0308 -0.6637
   47MOL0     O 6396   5.503   8.918   7.070 -0.5393 -0.6683 -0.0039
   47MOL0     C 6397   5.293   8.789   6.810  0.7120  0.0189  0.2726
   47MOL0     C 6398   5.161   8.773   6.772  0.0593  0.1046  1.2979
   47MOL0     N 6399   4.407   8.317   6.569  1.1812  0.2326  0.6102
   47MOL0     N 6400   4.300   8.260   6.611 -0.0032  0.5144  0.2066
   47MOL0     C 6401   3.411   8.379   6.265  0.1793  0.6330 -0.1963
   47MOL0     C 6402   3.302   8.352   6.180 -0.6912 -0.1945 -0.0626
   47MOL0     C 6403   3.108   8.290   5.772  0.3129 -0.1127 -0.3904
   47MOL0     C 6404   3.015   8.398   5.766  0.0829  0.9586 -0.8603
   47MOL0     C 6405   2.907   8.393   5.683  0.7758  0.1818  0.0729
   47MOL0     C 6406   2.874   8.276   5.617  0.6768 -0.3105 -0.0084
   47MOL0     O 6407   2.758   8.278   5.535  0.5490  0.7913  0.3807
   47MOL0     C 6408   2.710   8.161   5.463 -0.9903 -0.5360  0.0012
   47MOL0     C 6409   2.607   8.092   5.544  0.0109  0.3000  0.5987
   47MOL0     C 6410   2.573   7.965   5.478 -0.4097  0.4922  0.0283
   47MOL0     C 6411   2.492   7.879   5.576 -0.5161 -0.0610  0.3282
   47MOL0     C 6412   2.435   7.760   5.508  1.0949 -0.0070  0.2148
   47MOL0     C 6413   2.384   7.655   5.457 -0.0889 -0.6687  0.7699
   47MOL0     C 6414   2.950   8.162   5.638 -0.2301  0.5164 -0.1110
   47MOL0     C 6415   3.070   8.169   5.710 -0.4216 -0.3643  0.4779
   47MOL0     C 6416   3.141   8.042   5.729  0.4405  0.1521 -1.3708
   47MOL0     H 6417   3.380   8.546   5.910 -0.2142  0.0906 -0.1342
   47MOL0     H 6418   3.605   8.568   6.065 -0.1140  2.3652  1.8946
   47MOL0     H 6419   3.518   8.454   6.482 -0.1094 -2.1779  0.5804
   47MOL0     H 6420   3.670   8.540   6.499 -1.2219  0.5560 -0.0295
   47MOL0     H 6421   3.655   8.249   6.389 -1.9217 -0.1260  2.4732
   47MOL0     H 6422   3.799   8.345   6.395  0.6856 -2.2684  1.9492
   47MOL0     H 6423   3.828   8.358   6.616  1.2147  0.2218 -2.1197
   47MOL0     H 6424   3.662   8.318   6.658  0.7191  0.2370  0.6127
   47MOL0     H 6425   3.703   8.095   6.577 -1.9043  2.2325 -1.8098
   47MOL0     H 6426   3.849   8.135   6.512 -2.9647 -0.3008 -1.4993
   47MOL0     H 6427   3.925   8.020   6.714 -0.5656  0.0289 -0.3704
   47MOL0     H 6428   3.763   8.063   6.785 -1.1528  0.5300 -1.6331
   47MOL0     H 6429   3.862   8.295   6.808 -1.7390 -0.8287 -0.9517
   47MOL0     H 6430   3.953   8.176   6.907  0.5769  0.2819 -0.3445
   47MOL0     H 6431   4.042   8.276   6.629  0.1310  0.7239 -0.5205
   47MOL0     H 6432   4.102   8.136   6.713  1.3444  1.8801 -1.1026
   47MOL0     H 6433   4.107   8.424   6.808  1.3746  0.9369 -3.0034
   47MOL0     H 6434   4.167   8.286   6.902 -0.1036  0.6056 -0.0810
   47MOL0     H 6435   4.376   8.486   6.838 -1.7215 -0.1511 -0.5342
   47MOL0     H 6436   4.553   8.582   6.585 -0.5051  0.2167  1.3655
   47MOL0     H 6437   4.650   8.440   6.547 -0.7623  0.8467 -1.5303
   47MOL0     H 6438   4.594   8.585   6.810 -0.4528  0.1437  0.5989
   47MOL0     H 6439   4.671   8.429   6.821  0.7310  0.8415  1.3547
   47MOL0     H 6440   4.862   8.519   6.674 -1.0259 -1.8427 -0.1005
   47MOL0     H 6441   4.786   8.671   6.667 -1.2644 -0.6912 -0.1873
   47MOL0     H 6442   4.794   8.670   6.934 -0.9996 -1.6548 -0.6332
   47MOL0     H 6443   4.930   8.564   6.895  0.3505  2.3969  3.2289
   47MOL0     H 6444   5.013   8.829   7.066 -0.8379 -1.8944 -0.1328
   47MOL0     H 6445   5.157   8.882   7.247  0.0278 -1.5240  0.8147
   47MOL0     H 6446   5.308   8.940   7.202 -2.0878  0.6767 -0.4042
   47MOL0     H 6447   5.280   8.769   7.240 -0.7527  0.5966  0.8366
   47MOL0     H 6448   5.728   8.769   7.104 -1.3961 -4.3778 -0.9722
   47MOL0     H 6449   5.941   8.787   7.103 -2.3048 -3.9657 -0.5210
   47MOL0     H 6450   6.204   8.812   6.714 -0.8707 -1.5095  1.0261
   47MOL0     H 6451   6.160   8.982   6.752  3.4373  0.8696 -1.8562
   47MOL0     H 6452   6.390   8.967   6.743  0.7634 -2.0788 -2.0072
   47MOL0     H 6453   6.340   8.999   6.912 -1.1643  0.2974 -1.4992
   47MOL0     H 6454   6.436   8.723   6.790  0.2761 -1.7427  0.0805
   47MOL0     H 6455   6.373   8.738   6.949  1.8954  1.6132  1.0484
   47MOL0     H 6456   6.554   8.919   6.989 -1.1118 -0.6086  0.2215
   47MOL0     H 6457   6.613   8.893   6.844  2.2076 -0.6043  0.1909
   47MOL0     H 6458   6.565   8.687   7.074  0.5416  1.1649  1.0422
   47MOL0     H 6459   6.647   8.645   6.918 -1.4503  0.4417 -1.0812
   47MOL0     H 6460   6.793   8.689   7.133 -0.9107 -0.7846 -1.0445
   47MOL0     H 6461   6.735   8.852   7.141 -1.6627  1.3464 -2.6272
   47MOL0     H 6462   6.867   8.918   6.953 -2.1429 -0.4945  0.4650
   47MOL0     H 6463   6.888   8.750   6.892  0.0093  1.0141 -0.6959
   47MOL0     H 6464   6.976   8.885   7.158  1.7956  2.9717 -1.0348
   47MOL0     H 6465   7.087   8.864   7.023 -0.4248 -2.3852 -3.0244
   47MOL0     H 6466   5.967   8.849   6.686  0.4138 -0.7027  1.3962
   47MOL0     H 6467   5.714   8.817   6.674  0.6444 -2.5180 -0.4331
   47MOL0     H 6468   5.368   8.774   6.734  0.9649 -0.5035  0.6232
   47MOL0     H 6469   5.131   8.759   6.669  0.9964 -0.7883  1.1217
   47MOL0     H 6470   3.420   8.316   6.352 -0.5224 -1.1759 -1.3844
   47MOL0     H 6471   3.220   8.288   6.212 -0.7477  0.0149  0.2143
   47MOL0     H 6472   3.023   8.474   5.843  1.0112 -1.4781  1.5805
   47MOL0     H 6473   2.848   8.483   5.672  0.7102 -0.0606 -1.8384
   47MOL0     H 6474   2.682   8.197   5.364  0.5027 -0.6643 -0.4874
   47MOL0     H 6475   2.792   8.093   5.439 -0.1991 -0.0617  1.2601
   47MOL0     H 6476   2.515   8.150   5.553 -1.0532 -1.4255  1.5660
   47MOL0     H 6477   2.641   8.068   5.646  2.0688  0.6701  0.0452
   47MOL0     H 6478   2.510   7.985   5.391  0.5117  1.7631 -0.3636
   47MOL0     H 6479   2.669   7.914   5.463  0.7228  2.6261 -0.2743
   47MOL0     H 6480   2.409   7.929   5.628 -1.1249 -0.1215 -0.5704
   47MOL0     H 6481   2.566   7.845   5.649 -0.0002  1.4330  0.5324
   47MOL0     H 6482   2.346   7.571   5.402 -1.5088  1.0140 -0.9878
   47MOL0     H 6483   2.920   8.062   5.606  0.4234  0.4804 -0.6303
   47MOL0     H 6484   3.170   8.033   5.834 -2.0005  0.4426 -0.6216
   47MOL0     H 6485   3.094   7.950   5.691  0.2696  0.3969 -1.7533
   47MOL0     H 6486   3.237   8.059   5.681  1.6443 -1.2954  0.3670
   48MOL0     O 6487   6.667   9.460   2.466  0.1793 -0.1594 -0.2816
   48MOL0     C 6488   6.629   9.420   2.358 -0.4438  0.3020  0.6359
   48MOL0     O 6489   6.700   9.345   2.263 -0.5785 -0.6237 -0.2404
   48MOL0     C 6490   6.828   9.306   2.288  0.0678  0.3668 -0.0580
   48MOL0     C 6491   6.871   9.192   2.234 -0.3365 -0.0341  0.1661
   48MOL0     C 6492   7.005   9.159   2.247  0.6950 -0.3635 -0.5604
   48MOL0     C 6493   7.098   9.233   2.318 -0.4146 -0.4802  0.6000
   48MOL0     O 6494   7.227   9.191   2.319  0.4362 -0.1223  0.3621
   48MOL0     C 6495   7.335   9.280   2.373  0.7232 -0.1982  1.1280
   48MOL0     C 6496   7.343   9.273   2.528 -0.2296 -0.2697  0.9657
   48MOL0     C 6497   7.354   9.130   2.573 -0.0173 -0.1621 -0.1881
   48MOL0     C 6498   7.410   9.111   2.719 -0.5528  0.3938 -0.5494
   48MOL0     C 6499   7.441   8.963   2.759 -0.0521 -0.6485  0.9920
   48MOL0     C 6500   7.473   8.956   2.903 -0.0041  0.3678 -0.2061
   48MOL0     C 6501   7.456   8.810   2.953  0.3985 -0.4715  0.1883
   48MOL0     C 6502   7.520   8.783   3.096  0.3942 -0.6489  0.4471
   48MOL0     N 6503   7.652   8.836   3.112 -0.1435 -0.3643  0.1075
   48MOL0     C 6504   7.779   8.788   3.087  0.3307  0.3039  0.1241
   48MOL0     C 6505   7.871   8.878   3.135  0.2064 -1.1302 -0.2271
   48MOL0     C 6506   8.021   8.859   3.139  1.0386 -0.5810 -0.4910
   48MOL0     C 6507   8.095   8.961   3.225  0.2935  0.6808  0.2228
   48MOL0     C 6508   8.249   8.942   3.218  1.0293 -0.3781  0.7835
   48MOL0     C 6509   8.297   8.822   3.282  0.1857 -0.0430 -0.2995
   48MOL0     O 6510   8.441   8.818   3.274  0.3592  0.1487 -0.0242
   48MOL0     C 6511   8.498   8.791   3.394  1.2829 -1.0405  0.1981
   48MOL0     C 6512   8.504   8.894   3.481 -0.0602  0.5186 -0.3401
   48MOL0     C 6513   8.563   8.881   3.610 -1.3109  0.3926  0.0888
   48MOL0     C 6514   8.584   8.999   3.711  0.1875 -0.4964 -0.6688
   48MOL0     C 6515   8.610   8.743   3.637 -0.0447 -0.4067 -0.0205
   48MOL0     C 6516   8.695   8.707   3.753  0.6678  0.1703 -0.4082
   48MOL0     O 6517   8.759   8.802   3.819 -0.0113  0.1163 -0.1353
   48MOL0     C 6518   8.810   8.760   3.946 -0.4823 -0.3181  0.3958
   48MOL0     C 6519   8.745   8.792   4.066  0.2120  0.0283 -0.2129
   48MOL0     C 6520   8.801   8.760   4.190 -0.2028  0.4510  0.7443
   48MOL0     C 6521   8.920   8.680   4.194  1.8070 -0.3624 -0.6789
   48MOL0     O 6522   8.960   8.632   4.314  0.4015 -0.6925  1.4974
   48MOL0     C 6523   9.096   8.593   4.340  0.3859  0.2436 -0.0610
   48MOL0     C 6524   9.125   8.561   4.487  0.7036  0.2493 -0.2367
   48MOL0     C 6525   9.058   8.434   4.532  0.3584 -0.6772 -0.4352
   48MOL0     C 6526   9.093   8.413   4.676 -0.0523 -0.2072 -0.1959
   48MOL0     C 6527   9.012   8.295   4.731 -0.2260 -0.2064 -0.1988
   48MOL0     C 6528   8.866   8.284   4.703 -0.2522  0.7790 -0.4476
   48MOL0     C 6529   8.774   8.390   4.767  0.2698  0.1287 -0.6950
   48MOL0     C 6530   8.686   8.330   4.876 -1.1357 -0.8596 -0.1348
   48MOL0    Cl 6531   8.786   8.286   5.007  0.0256  0.5666 -0.2293
   48MOL0     C 6532   8.981   8.652   4.073 -0.4820  0.2222 -0.3568
   48MOL0     C 6533   8.929   8.683   3.952 -0.1476 -0.2858 -0.6619
   48MOL0     O 6534   8.690   8.585   3.785  0.0272  0.0280  0.0222
   48MOL0     C 6535   8.578   8.638   3.550 -0.1752 -0.3046 -0.3640
   48MOL0     C 6536   8.529   8.667   3.429  0.1492  0.5259  0.0556
   48MOL0     N 6537   7.796   8.989   3.178  0.3231  0.2651 -0.3462
   48MOL0     N 6538   7.673   8.960   3.167  0.0549 -0.1984  0.9165
   48MOL0     C 6539   7.051   9.359   2.371 -0.4014  0.2187 -0.5763
   48MOL0     C 6540   6.917   9.388   2.360 -0.3910 -0.2758  0.6781
   48MOL0     C 6541   6.495   9.454   2.303 -0.0679  0.3136 -0.3246
   48MOL0     C 6542   6.462   9.431   2.168 -0.5870  0.3823  0.2468
   48MOL0     C 6543   6.332   9.440   2.131 -0.0103  0.4470  0.4866
   48MOL0     C 6544   6.231   9.484   2.215 -0.1039 -1.1022  0.0371
   48MOL0     O 6545   6.103   9.471   2.153 -0.3222  0.3825 -0.3659
   48MOL0     C 6546   5.997   9.546   2.210  0.3264 -0.5520 -0.0027
   48MOL0     C 6547   5.870   9.491   2.152  0.1471  0.3052  0.6235
   48MOL0     C 6548   5.867   9.496   1.995 -0.0119 -0.9117 -0.0413
   48MOL0     C 6549   5.728   9.461   1.942 -0.4906  0.2430  0.4348
   48MOL0     C 6550   5.609   9.526   1.993 -0.1126  0.8519 -0.1190
   48MOL0     C 6551   5.497   9.567   2.033 -1.2177 -0.3152  0.0611
   48MOL0     C 6552   6.263   9.520   2.349  0.2311 -0.8697 -0.1587
   48MOL0     C 6553   6.404   9.521   2.391  0.5261  0.3031 -0.6410
   48MOL0     C 6554   6.414   9.576   2.527  0.4930  0.5592  0.0897
   48MOL0     H 6555   6.793   9.131   2.188 -0.5222 -0.0530  0.5003
   48MOL0     H 6556   7.047   9.077   2.191 -1.4812 -2.1996  0.3402
   48MOL0     H 6557   7.323   9.384   2.341 -0.6635  0.1758  2.6965
   48MOL0     H 6558   7.422   9.231   2.328  0.0877 -0.3286  0.0205
   48MOL0     H 6559   7.430   9.331   2.561 -1.5452  1.5674  1.3756
   48MOL0     H 6560   7.256   9.318   2.576  0.3535  2.2824 -0.1941
   48MOL0     H 6561   7.251   9.099   2.557  0.6738 -2.2410 -0.9217
   48MOL0     H 6562   7.432   9.084   2.511  3.5417  2.1806  2.1297
   48MOL0     H 6563   7.502   9.168   2.731 -0.1527  0.3096 -2.9086
   48MOL0     H 6564   7.338   9.146   2.795  0.4604  1.1660  0.0892
   48MOL0     H 6565   7.530   8.940   2.701 -0.5357  2.2311 -1.1178
   48MOL0     H 6566   7.362   8.897   2.724 -3.2490  3.1339  0.3729
   48MOL0     H 6567   7.574   8.997   2.913  0.3350 -0.9556  3.1639
   48MOL0     H 6568   7.407   9.014   2.969  0.2209  0.9190 -0.4585
   48MOL0     H 6569   7.506   8.742   2.883 -0.7101  0.7416 -1.8881
   48MOL0     H 6570   7.350   8.786   2.964  0.0288 -0.6960 -2.9964
   48MOL0     H 6571   7.447   8.820   3.169 -1.2399  0.2028 -1.5060
   48MOL0     H 6572   7.523   8.674   3.110 -0.2602 -0.3986  3.0806
   48MOL0     H 6573   7.808   8.692   3.047 -1.5802  0.5382 -1.9698
   48MOL0     H 6574   8.055   8.885   3.038 -2.0726  0.2094 -1.4449
   48MOL0     H 6575   8.034   8.755   3.172 -1.0539 -0.4188  1.0372
   48MOL0     H 6576   8.072   9.060   3.186 -0.3641 -0.1703 -1.6590
   48MOL0     H 6577   8.060   8.955   3.328 -0.5468  0.1294 -0.0858
   48MOL0     H 6578   8.279   8.943   3.113 -0.5824 -2.3255  0.2308
   48MOL0     H 6579   8.284   9.032   3.269 -0.9284  2.0761 -1.8972
   48MOL0     H 6580   8.269   8.821   3.388  0.1023  1.2211 -0.2993
   48MOL0     H 6581   8.241   8.743   3.232 -3.6357  1.6013  1.0002
   48MOL0     H 6582   8.476   8.994   3.449 -1.4528  0.6912  1.3075
   48MOL0     H 6583   8.545   8.968   3.809  1.5311  1.7319  0.6668
   48MOL0     H 6584   8.535   9.094   3.687  0.3114 -0.5100 -0.9773
   48MOL0     H 6585   8.691   9.009   3.731  0.0960 -1.7435  0.6378
   48MOL0     H 6586   8.650   8.841   4.051 -0.4547 -1.7537 -2.3475
   48MOL0     H 6587   8.757   8.789   4.285 -2.6735 -1.5527  0.3042
   48MOL0     H 6588   9.123   8.514   4.269  0.4222  0.0956  0.1187
   48MOL0     H 6589   9.162   8.680   4.329 -0.8443  1.2076 -0.0625
   48MOL0     H 6590   9.233   8.566   4.505  0.6731  0.6339 -0.1470
   48MOL0     H 6591   9.077   8.643   4.541 -3.2672 -1.1035 -1.3688
   48MOL0     H 6592   9.105   8.346   4.488 -2.6958 -3.1262  0.8246
   48MOL0     H 6593   8.950   8.436   4.518  0.4022 -2.7750 -1.4760
   48MOL0     H 6594   9.061   8.503   4.729  1.4723 -0.4297  1.2041
   48MOL0     H 6595   9.199   8.393   4.696 -0.6320 -1.4456  2.0453
   48MOL0     H 6596   9.053   8.204   4.686 -0.3109  0.0323 -0.7670
   48MOL0     H 6597   9.028   8.287   4.839  2.3390 -0.3148 -0.5165
   48MOL0     H 6598   8.838   8.189   4.748  0.0907  1.0731  0.4205
   48MOL0     H 6599   8.855   8.270   4.595  0.6791  0.9440 -0.5735
   48MOL0     H 6600   8.706   8.441   4.699 -3.0520  0.8173  2.7494
   48MOL0     H 6601   8.844   8.468   4.798 -0.1181  1.1967 -2.3804
   48MOL0     H 6602   8.642   8.236   4.843  0.5420 -2.6244  2.2584
   48MOL0     H 6603   8.613   8.398   4.922  1.3080 -0.2828  3.2596
   48MOL0     H 6604   9.068   8.587   4.069 -0.1668  0.5110  1.2312
   48MOL0     H 6605   8.983   8.649   3.864  0.5799 -1.3386  0.1677
   48MOL0     H 6606   8.592   8.533   3.572 -2.2079 -0.6962 -0.7082
   48MOL0     H 6607   8.524   8.589   3.354  1.5033 -0.5051  0.9928
   48MOL0     H 6608   7.117   9.422   2.431 -1.2303 -0.9032  1.6554
   48MOL0     H 6609   6.894   9.490   2.391 -1.6640  0.0586 -1.1864
   48MOL0     H 6610   6.539   9.393   2.101  0.2172  3.6396 -0.8838
   48MOL0     H 6611   6.313   9.417   2.027  0.2542 -2.0710  0.9371
   48MOL0     H 6612   5.988   9.546   2.319 -1.1452  1.1065 -0.0783
   48MOL0     H 6613   5.996   9.652   2.184 -0.7511  0.4513  3.4731
   48MOL0     H 6614   5.790   9.549   2.198 -0.4081 -0.0476  0.1163
   48MOL0     H 6615   5.854   9.387   2.180  0.4904 -0.4254 -1.6295
   48MOL0     H 6616   5.891   9.598   1.965  0.0332 -0.1767  2.2848
   48MOL0     H 6617   5.945   9.431   1.954  0.8968  1.1807 -1.8195
   48MOL0     H 6618   5.708   9.355   1.960  0.3966  0.1039  0.6546
   48MOL0     H 6619   5.729   9.480   1.834  0.2894  1.2359  0.6009
   48MOL0     H 6620   5.404   9.596   2.077 -2.1823 -1.1169 -1.3497
   48MOL0     H 6621   6.193   9.552   2.425  0.8117 -0.0202  0.0256
   48MOL0     H 6622   6.338   9.651   2.550  0.3117  0.0793  1.1006
   48MOL0     H 6623   6.407   9.499   2.604  0.0519  1.5725  1.0866
   48MOL0     H 6624   6.511   9.626   2.536  1.2269  0.5661 -4.9405
   49MOL0     O 6625   5.350   4.856   6.717 -0.9273 -0.1330 -0.2026
   49MOL0     C 6626   5.349   4.879   6.598 -0.1407  0.3993  0.1437
   49MOL0     O 6627   5.433   4.967   6.540 -0.3908  0.0368  0.0560
   49MOL0     C 6628   5.528   5.020   6.626  0.5501 -0.2771  0.3045
   49MOL0     C 6629   5.643   4.944   6.663 -0.1047 -0.3188 -0.2608
   49MOL0     C 6630   5.753   4.987   6.735  0.0361 -0.7030  0.2432
   49MOL0     C 6631   5.758   5.124   6.768  0.6039 -0.3482  0.2731
   49MOL0     O 6632   5.864   5.170   6.843  0.2243  0.4844  0.9979
   49MOL0     C 6633   5.891   5.313   6.863  0.5338  0.0011 -0.4932
   49MOL0     C 6634   6.035   5.316   6.922  0.0315  0.0658  0.7883
   49MOL0     C 6635   6.143   5.283   6.819  0.8017  0.6696 -0.3020
   49MOL0     C 6636   6.284   5.269   6.871  0.9879 -0.1753  0.0728
   49MOL0     C 6637   6.317   5.397   6.948 -0.5142 -0.3311  0.2838
   49MOL0     C 6638   6.467   5.424   6.943 -0.1440  0.5876  0.5595
   49MOL0     C 6639   6.541   5.300   7.002  0.2447 -0.7933 -0.2170
   49MOL0     C 6640   6.688   5.318   7.011  0.2105 -0.1484  0.9246
   49MOL0     N 6641   6.765   5.193   7.041 -0.1899 -0.5133  0.0049
   49MOL0     C 6642   6.861   5.184   7.141 -0.7905  0.3561  0.2331
   49MOL0     C 6643   6.884   5.053   7.134 -0.4944 -0.5141 -0.9308
   49MOL0     C 6644   6.985   4.976   7.213 -0.2744  0.4316 -0.3309
   49MOL0     C 6645   7.127   4.990   7.156  0.4251  0.2657 -0.4380
   49MOL0     C 6646   7.236   4.960   7.265  0.3855 -0.2541 -0.3483
   49MOL0     C 6647   7.376   4.966   7.198 -0.7293  1.1655 -0.3746
   49MOL0     O 6648   7.467   4.887   7.283 -0.1506  0.9461 -0.7203
   49MOL0     C 6649   7.598   4.879   7.253 -0.0300 -0.5523 -0.1330
   49MOL0     C 6650   7.663   4.775   7.310  0.0867  0.2084  0.0161
   49MOL0     C 6651   7.807   4.763   7.292 -0.0105 -0.7175  0.6057
   49MOL0     C 6652   7.874   4.645   7.353 -0.1347  0.0547  0.1577
   49MOL0     C 6653   7.884   4.863   7.227  1.0203 -0.3422  0.7120
   49MOL0     C 6654   8.026   4.869   7.216  0.2284 -0.2046  0.0257
   49MOL0     O 6655   8.090   4.756   7.208 -0.3201  0.2408 -0.3076
   49MOL0     C 6656   8.225   4.769   7.214  0.1335 -0.5923 -0.1821
   49MOL0     C 6657   8.286   4.791   7.339  0.2154  0.7759  0.9099
   49MOL0     C 6658   8.429   4.796   7.346 -0.4331  0.1203  0.5270
   49MOL0     C 6659   8.514   4.775   7.226 -0.2804  0.2214  0.2990
   49MOL0     O 6660   8.645   4.783   7.238 -0.3294 -0.5902  0.1741
   49MOL0     C 6661   8.731   4.720   7.142  1.0402 -0.3012  0.2908
   49MOL0     C 6662   8.866   4.722   7.199 -0.4614 -0.0144  0.1862
   49MOL0     C 6663   8.888   4.596   7.283  0.4025 -0.1978 -0.3784
   49MOL0     C 6664   9.039   4.596   7.320 -0.8632  0.2699 -1.2312
   49MOL0     C 6665   9.075   4.467   7.383  0.2270 -0.5337 -0.2365
   49MOL0     C 6666   9.013   4.457   7.524 -0.1183 -0.2878 -0.2029
   49MOL0     C 6667   9.064   4.335   7.592 -0.2685  0.3137 -0.2379
   49MOL0     C 6668   9.040   4.318   7.746 -0.6825  0.4575 -0.2349
   49MOL0    Cl 6669   9.126   4.163   7.786 -0.3245  0.3788 -0.2195
   49MOL0     C 6670   8.443   4.757   7.109 -0.5097 -1.1610 -0.7672
   49MOL0     C 6671   8.304   4.755   7.101 -0.0909  0.2449 -0.2200
   49MOL0     O 6672   8.075   4.979   7.214 -0.3701 -0.2490 -0.3020
   49MOL0     C 6673   7.801   4.961   7.155  0.3616  0.1821 -1.5480
   49MOL0     C 6674   7.662   4.972   7.167  1.3084  0.3359  0.2186
   49MOL0     N 6675   6.818   4.996   7.028 -0.7204 -0.2367 -0.1813
   49MOL0     N 6676   6.750   5.086   6.964 -0.1438  0.8626  0.0054
   49MOL0     C 6677   5.653   5.213   6.730  0.1375 -0.5609  0.3304
   49MOL0     C 6678   5.538   5.159   6.661 -0.2027  0.7284 -0.0693
   49MOL0     C 6679   5.251   4.811   6.514 -0.4416  0.4883  0.0813
   49MOL0     C 6680   5.207   4.876   6.395 -0.6668  0.2258  0.3056
   49MOL0     C 6681   5.112   4.811   6.311  0.9073 -0.9617  0.5965
   49MOL0     C 6682   5.052   4.691   6.340 -0.3779 -0.2265 -1.1108
   49MOL0     O 6683   4.963   4.624   6.261  0.0530 -0.0181  0.2157
   49MOL0     C 6684   4.946   4.665   6.117 -0.1478  0.2493  0.2560
   49MOL0     C 6685   4.846   4.571   6.061  0.2668  0.3807  0.9224
   49MOL0     C 6686   4.906   4.428   6.031  0.2433 -0.3984  0.6036
   49MOL0     C 6687   4.790   4.352   5.961  0.5326 -0.1604 -0.3050
   49MOL0     C 6688   4.766   4.360   5.815 -0.2943 -0.3130 -0.5282
   49MOL0     C 6689   4.751   4.370   5.698  0.8909 -0.1736 -0.1302
   49MOL0     C 6690   5.094   4.630   6.453 -0.2261  0.9002  0.0964
   49MOL0     C 6691   5.195   4.681   6.537  0.2789 -0.2217 -0.0894
   49MOL0     C 6692   5.224   4.592   6.663  0.5196  0.5714 -0.2927
   49MOL0     H 6693   5.636   4.837   6.644  1.1026 -0.3416 -0.7074
   49MOL0     H 6694   5.825   4.917   6.776 -0.1916  0.1283  2.2168
   49MOL0     H 6695   5.811   5.361   6.921 -0.0259  0.2845 -1.4827
   49MOL0     H 6696   5.897   5.369   6.770 -2.2294  1.3004  0.0109
   49MOL0     H 6697   6.055   5.413   6.969 -1.7397  0.5589  0.5943
   49MOL0     H 6698   6.047   5.243   7.002  1.8892  0.6173  1.0654
   49MOL0     H 6699   6.108   5.190   6.774 -1.9263  1.4192  0.1034
   49MOL0     H 6700   6.133   5.361   6.743 -0.9982 -0.4491 -1.2817
   49MOL0     H 6701   6.292   5.177   6.930 -0.6929 -0.0024  0.6367
   49MOL0     H 6702   6.337   5.262   6.776 -0.4215 -2.9475 -0.6377
   49MOL0     H 6703   6.307   5.377   7.055  2.4025 -1.5599  0.4281
   49MOL0     H 6704   6.270   5.489   6.911 -0.1274 -0.9830 -2.0024
   49MOL0     H 6705   6.500   5.442   6.841 -2.0842 -0.8133 -0.3956
   49MOL0     H 6706   6.486   5.509   7.009  0.6441 -0.9021  2.3615
   49MOL0     H 6707   6.522   5.212   6.940  3.1350 -0.6978 -1.3769
   49MOL0     H 6708   6.507   5.284   7.104  0.2562  1.3447  0.1853
   49MOL0     H 6709   6.730   5.367   6.923  0.1338 -0.3375  0.7799
   49MOL0     H 6710   6.710   5.386   7.093  0.2743  1.7941 -0.6178
   49MOL0     H 6711   6.888   5.258   7.215 -2.1249  1.9834 -0.8495
   49MOL0     H 6712   6.955   4.870   7.214 -0.3446  0.3358 -3.5198
   49MOL0     H 6713   6.986   5.010   7.317  3.2090  2.0252 -0.7501
   49MOL0     H 6714   7.120   4.926   7.067 -1.2760  0.3492 -0.4049
   49MOL0     H 6715   7.128   5.095   7.128  0.8737  0.9491  1.9488
   49MOL0     H 6716   7.236   5.029   7.350  0.9577 -0.8116  0.1102
   49MOL0     H 6717   7.214   4.863   7.312  0.5764  0.3736  1.0549
   49MOL0     H 6718   7.368   4.914   7.102 -0.2023  1.6578 -0.6913
   49MOL0     H 6719   7.413   5.069   7.191 -0.4478  1.0316 -0.8812
   49MOL0     H 6720   7.603   4.698   7.358  0.5206 -0.3922 -0.3999
   49MOL0     H 6721   7.933   4.668   7.442  1.5836  1.5454 -1.2640
   49MOL0     H 6722   7.937   4.595   7.279 -1.0403 -0.2212 -0.4391
   49MOL0     H 6723   7.798   4.571   7.379 -1.8918  1.9363  0.5987
   49MOL0     H 6724   8.228   4.801   7.430 -0.0746  1.2201  0.6812
   49MOL0     H 6725   8.476   4.807   7.443 -0.8408 -1.6550  0.9684
   49MOL0     H 6726   8.692   4.620   7.119  0.2406 -0.2298  1.2539
   49MOL0     H 6727   8.719   4.780   7.052 -0.6536 -1.7458 -0.4982
   49MOL0     H 6728   8.945   4.732   7.123 -0.6002 -0.7659 -0.0692
   49MOL0     H 6729   8.872   4.811   7.262 -1.3069 -0.7453  1.3405
   49MOL0     H 6730   8.873   4.502   7.228 -1.9829 -1.7007  2.5654
   49MOL0     H 6731   8.815   4.589   7.363  0.2594  0.8530 -0.4016
   49MOL0     H 6732   9.061   4.684   7.380  4.5591  0.8414 -3.4885
   49MOL0     H 6733   9.081   4.607   7.219 -2.3996 -2.7740 -2.3529
   49MOL0     H 6734   9.049   4.377   7.326 -3.1119  0.3560 -0.3509
   49MOL0     H 6735   9.182   4.464   7.403  0.0716 -4.2243  0.7967
   49MOL0     H 6736   8.905   4.455   7.508 -0.0264 -1.0734 -0.8164
   49MOL0     H 6737   9.027   4.543   7.590  0.4324  0.1508 -0.8801
   49MOL0     H 6738   9.172   4.327   7.576 -0.4579 -1.1623 -0.8755
   49MOL0     H 6739   9.022   4.251   7.536  2.1682 -1.1602 -0.0014
   49MOL0     H 6740   8.934   4.307   7.772 -0.8212  2.4910  0.2756
   49MOL0     H 6741   9.078   4.399   7.809 -0.5100  1.2207 -1.2813
   49MOL0     H 6742   8.494   4.736   7.015  2.6304  1.3895  0.1979
   49MOL0     H 6743   8.259   4.747   7.003 -0.0278  2.8286 -0.5276
   49MOL0     H 6744   7.845   5.033   7.087 -1.1177  1.2353 -1.4313
   49MOL0     H 6745   7.603   5.049   7.118  0.4950 -0.8480 -0.7124
   49MOL0     H 6746   5.656   5.319   6.748  0.3828 -0.3371 -0.8981
   49MOL0     H 6747   5.451   5.218   6.635 -3.5347 -2.9827  1.6636
   49MOL0     H 6748   5.240   4.978   6.378  3.3050 -0.5779  2.1629
   49MOL0     H 6749   5.079   4.867   6.225  2.6952 -2.2218 -0.9861
   49MOL0     H 6750   4.906   4.766   6.107 -1.5012 -0.2992 -0.0684
   49MOL0     H 6751   5.033   4.669   6.050 -0.8237  2.5470 -0.5838
   49MOL0     H 6752   4.809   4.623   5.973  2.0164  2.5850  1.3998
   49MOL0     H 6753   4.766   4.567   6.136 -0.1612  0.7923  0.4995
   49MOL0     H 6754   4.998   4.441   5.973  0.9569 -1.0343  1.5493
   49MOL0     H 6755   4.934   4.376   6.123  1.2897 -1.5180 -0.3070
   49MOL0     H 6756   4.695   4.364   6.013  0.4033  2.2957 -0.9850
   49MOL0     H 6757   4.816   4.249   5.984  0.5441 -0.1266 -0.1662
   49MOL0     H 6758   4.731   4.366   5.593 -0.5097 -1.8065  0.1601
   49MOL0     H 6759   5.059   4.529   6.474  1.5965  0.3012  0.4583
   49MOL0     H 6760   5.327   4.601   6.697 -0.1562 -0.4725  2.2572
   49MOL0     H 6761   5.170   4.621   6.754 -0.2147  1.2267 -0.9176
   49MOL0     H 6762   5.188   4.491   6.644  0.6207  0.1145  1.7479
   50MOL0     O 6763  10.578   9.442   7.130  0.6309 -0.2259 -0.3540
   50MOL0     C 6764  10.495   9.518   7.179 -0.3225 -0.4409  0.0141
   50MOL0     O 6765  10.510   9.660   7.197  0.3033  0.0318 -0.1619
   50MOL0     C 6766  10.628   9.725   7.167  0.2741  0.1594  0.3070
   50MOL0     C 6767  10.748   9.669   7.200 -0.3179  0.8095  0.2278
   50MOL0     C 6768  10.865   9.745   7.170 -0.3416 -0.0009  0.1962
   50MOL0     C 6769  10.859   9.877   7.110  0.2024 -0.1706 -0.6670
   50MOL0     O 6770  10.956   9.973   7.093 -0.1441 -0.8753  0.1111
   50MOL0     C 6771  11.082   9.927   7.050  0.7844  0.4465 -0.2728
   50MOL0     C 6772  11.153  10.047   7.001 -0.0835 -0.4637  0.6020
   50MOL0     C 6773  11.290  10.005   6.931  0.8017  0.6902 -0.1698
   50MOL0     C 6774  11.375  10.126   6.903  0.3086  0.0604  0.6625
   50MOL0     C 6775  11.514  10.083   6.857  0.6066  0.3962 -0.7800
   50MOL0     C 6776  11.581  10.192   6.783 -0.2501 -0.4987 -0.4365
   50MOL0     C 6777  11.741  10.172   6.764 -0.2720  0.1718 -0.2486
   50MOL0     C 6778  11.776  10.047   6.691 -0.5524  0.0853  0.0239
   50MOL0     N 6779  11.914  10.049   6.640  0.2998 -0.0007  0.2148
   50MOL0     C 6780  12.020  10.064   6.715 -0.2035 -0.3934 -0.6754
   50MOL0     C 6781  12.123  10.107   6.639 -0.5174  0.5544 -0.4923
   50MOL0     C 6782  12.264  10.156   6.690  0.2168  0.6854  0.0507
   50MOL0     C 6783  12.282  10.300   6.661  0.7673 -0.8901  0.1531
   50MOL0     C 6784  12.407  10.366   6.731 -0.3299 -0.2284  0.3977
   50MOL0     C 6785  12.370  10.401   6.874 -1.0535 -0.0379 -0.1588
   50MOL0     O 6786  12.424  10.301   6.968 -0.0473  0.3187  0.0056
   50MOL0     C 6787  12.560  10.288   6.973  0.0618  0.8431 -0.1913
   50MOL0     C 6788  12.655  10.397   6.969 -0.4650 -0.0774 -0.1120
   50MOL0     C 6789  12.791  10.379   6.964 -0.4138  0.0003  0.3215
   50MOL0     C 6790  12.887  10.497   6.964 -0.2740  0.1686 -0.0125
   50MOL0     C 6791  12.846  10.250   6.969 -0.1877 -0.1575  0.9740
   50MOL0     C 6792  12.988  10.226   6.966  0.8699  0.6282  0.1612
   50MOL0     O 6793  13.068  10.306   6.893  0.4922 -0.8784 -0.0760
   50MOL0     C 6794  13.197  10.267   6.866 -0.8632  0.0335  0.5563
   50MOL0     C 6795  13.252  10.270   6.735 -0.1579 -0.1089 -0.6913
   50MOL0     C 6796  13.387  10.235   6.706  0.0238  0.5529 -0.5133
   50MOL0     C 6797  13.465  10.190   6.811  0.4417 -0.2984 -0.6041
   50MOL0     O 6798  13.589  10.136   6.805 -0.1907 -0.7412  0.6551
   50MOL0     C 6799  13.691  10.203   6.724  0.0683  0.5979  0.0700
   50MOL0     C 6800  13.822  10.130   6.750  0.5071  0.0554 -0.9012
   50MOL0     C 6801  13.945  10.205   6.702  0.1851 -1.0680 -0.1225
   50MOL0     C 6802  14.067  10.117   6.764 -0.5780  0.1283  0.2835
   50MOL0     C 6803  14.177  10.117   6.658  0.7418  0.7039  0.5755
   50MOL0     C 6804  14.306  10.051   6.717 -0.3923  0.0421 -0.8008
   50MOL0     C 6805  14.386  10.004   6.598 -0.8965 -0.4461  0.7459
   50MOL0     C 6806  14.535  10.002   6.638  0.8681  0.0306  0.5409
   50MOL0    Cl 6807  14.614  10.160   6.590 -0.2655 -0.1513  0.1488
   50MOL0     C 6808  13.411  10.181   6.943  0.0526 -0.5792 -0.2445
   50MOL0     C 6809  13.275  10.225   6.970  0.0284 -0.3582  0.3245
   50MOL0     O 6810  13.029  10.118   7.019  0.3179  0.6947  0.8262
   50MOL0     C 6811  12.752  10.144   6.980 -0.5845 -0.0827  0.2956
   50MOL0     C 6812  12.612  10.164   6.989  0.0997  0.0589  0.6063
   50MOL0     N 6813  12.074  10.108   6.506 -0.6120 -0.2438  0.6724
   50MOL0     N 6814  11.949  10.082   6.515  0.0856 -0.3490  0.0438
   50MOL0     C 6815  10.737   9.926   7.083  0.1506  0.8013  0.4899
   50MOL0     C 6816  10.624   9.848   7.111  0.0900 -0.4239 -0.3635
   50MOL0     C 6817  10.367   9.460   7.225  0.5103  0.9945 -0.4250
   50MOL0     C 6818  10.278   9.547   7.295  0.6118  0.1184 -0.0538
   50MOL0     C 6819  10.162   9.495   7.357  0.1768 -0.2702 -0.5101
   50MOL0     C 6820  10.132   9.361   7.356 -0.1560 -0.0720 -0.1544
   50MOL0     O 6821  10.017   9.326   7.420 -0.0917 -0.3554 -0.9373
   50MOL0     C 6822   9.997   9.189   7.456 -0.2536 -0.4301  0.1583
   50MOL0     C 6823   9.938   9.194   7.593  0.1467 -0.3910 -0.1719
   50MOL0     C 6824   9.891   9.053   7.626  0.6975  0.3657  0.1717
   50MOL0     C 6825   9.813   9.034   7.755 -0.4970  0.6420  1.2076
   50MOL0     C 6826   9.872   9.078   7.879  0.4403 -0.2320 -0.5062
   50MOL0     C 6827   9.907   9.105   7.992  1.5247  0.3763 -0.7904
   50MOL0     C 6828  10.211   9.281   7.275  0.1127  0.3191 -0.3544
   50MOL0     C 6829  10.321   9.326   7.199 -0.7145 -0.2896  0.0182
   50MOL0     C 6830  10.391   9.232   7.102  0.1335 -0.3580  0.3070
   50MOL0     H 6831  10.750   9.575   7.254 -0.3443 -0.0321 -1.1847
   50MOL0     H 6832  10.964   9.710   7.198 -0.3823 -1.8204 -1.7305
   50MOL0     H 6833  11.067   9.848   6.975 -1.5136  2.8485 -2.5451
   50MOL0     H 6834  11.138   9.882   7.132  4.4632  0.6997 -2.4169
   50MOL0     H 6835  11.088  10.104   6.934  0.7023 -0.2382  0.0141
   50MOL0     H 6836  11.177  10.115   7.084  0.6438  1.4504 -1.0941
   50MOL0     H 6837  11.346   9.943   7.002 -0.0380  1.2169  0.9811
   50MOL0     H 6838  11.272   9.940   6.845 -2.4458  0.7083  0.3320
   50MOL0     H 6839  11.316  10.187   6.833 -1.3990  0.8430  2.6987
   50MOL0     H 6840  11.390  10.180   6.997  0.3654  1.0029  0.1285
   50MOL0     H 6841  11.516   9.996   6.790  0.2052  0.0262 -0.3114
   50MOL0     H 6842  11.562  10.058   6.952 -1.5928 -1.8596 -0.1456
   50MOL0     H 6843  11.532  10.213   6.687 -1.2982  1.7517  0.5277
   50MOL0     H 6844  11.562  10.288   6.830 -0.2882 -0.1190 -1.2160
   50MOL0     H 6845  11.797  10.168   6.858  0.2461 -0.1209 -0.5647
   50MOL0     H 6846  11.779  10.261   6.713  0.3529 -0.8315 -1.5982
   50MOL0     H 6847  11.773   9.965   6.764 -0.7287 -0.1359 -0.2294
   50MOL0     H 6848  11.705  10.026   6.610  0.5431 -2.3428 -0.3987
   50MOL0     H 6849  12.012  10.048   6.822 -2.9684  0.5680 -0.6710
   50MOL0     H 6850  12.337  10.096   6.636  1.0699 -0.3237  2.1990
   50MOL0     H 6851  12.264  10.138   6.798 -3.6561 -1.3703 -0.1357
   50MOL0     H 6852  12.284  10.305   6.552 -0.5465 -1.4195  0.0915
   50MOL0     H 6853  12.199  10.361   6.699  1.3814  0.3223 -0.4117
   50MOL0     H 6854  12.483  10.287   6.729  0.0165  0.0944 -1.9857
   50MOL0     H 6855  12.451  10.455   6.685 -0.4636  1.4887  3.3113
   50MOL0     H 6856  12.417  10.500   6.886  3.9710 -2.1246 -0.0409
   50MOL0     H 6857  12.262  10.410   6.884 -1.5995 -5.5808  2.4591
   50MOL0     H 6858  12.619  10.499   6.964  0.8143  0.3279 -2.0389
   50MOL0     H 6859  12.829  10.590   6.969  0.4986  0.8035 -1.9432
   50MOL0     H 6860  12.954  10.512   6.878 -1.3219 -0.9190 -1.0631
   50MOL0     H 6861  12.955  10.497   7.049 -1.3306 -0.9147  0.8597
   50MOL0     H 6862  13.181  10.296   6.658  0.9688 -2.4237 -2.6459
   50MOL0     H 6863  13.431  10.243   6.608 -0.2674  0.1058 -0.6842
   50MOL0     H 6864  13.663  10.214   6.619  0.8288 -0.8081 -0.3003
   50MOL0     H 6865  13.702  10.307   6.758  0.4526  0.9531 -1.0710
   50MOL0     H 6866  13.819  10.093   6.852 -2.5784 -0.2674 -1.0262
   50MOL0     H 6867  13.811  10.038   6.691  2.4251  0.3510 -1.8159
   50MOL0     H 6868  13.957  10.308   6.735  0.4839  0.0052 -3.2925
   50MOL0     H 6869  13.963  10.205   6.594  2.5321  1.9923  0.1308
   50MOL0     H 6870  14.027  10.015   6.766 -2.2788  0.7665  0.9259
   50MOL0     H 6871  14.107  10.154   6.858  0.0839 -0.4617  0.2407
   50MOL0     H 6872  14.142  10.049   6.579 -1.8281  0.9967  1.3853
   50MOL0     H 6873  14.204  10.215   6.618  0.7781  0.9773  1.2590
   50MOL0     H 6874  14.281   9.963   6.778 -1.2527  0.8652  0.0652
   50MOL0     H 6875  14.354  10.122   6.784 -0.7247  2.3923 -2.9126
   50MOL0     H 6876  14.366  10.056   6.505 -0.8019  0.1471  1.0506
   50MOL0     H 6877  14.360   9.901   6.572  1.6590 -0.0962 -4.3050
   50MOL0     H 6878  14.579   9.919   6.582  1.9478  0.9756 -0.0402
   50MOL0     H 6879  14.546   9.987   6.746  0.1986  0.4505  0.6758
   50MOL0     H 6880  13.486  10.153   7.017  1.8602  4.1606  0.0548
   50MOL0     H 6881  13.241  10.220   7.073 -0.7482 -0.3153  0.0747
   50MOL0     H 6882  12.783  10.040   6.980 -0.2010  0.0207 -0.8702
   50MOL0     H 6883  12.548  10.077   6.996  1.8219 -1.7757 -3.5380
   50MOL0     H 6884  10.725  10.019   7.028  0.0134 -0.7762 -2.3322
   50MOL0     H 6885  10.533   9.902   7.086  0.8498  1.4032  0.5635
   50MOL0     H 6886  10.285   9.655   7.289 -0.9028  0.2177 -0.3648
   50MOL0     H 6887  10.085   9.560   7.398  0.3402 -1.0269  1.0701
   50MOL0     H 6888   9.912   9.143   7.405  0.3984 -6.2769  3.4038
   50MOL0     H 6889  10.080   9.117   7.456 -0.6956 -0.9761  1.5984
   50MOL0     H 6890   9.852   9.261   7.603 -0.5844 -1.1622 -1.1540
   50MOL0     H 6891  10.020   9.224   7.660 -2.7205 -1.4863  4.2691
   50MOL0     H 6892   9.834   9.006   7.545  1.8013 -0.1331 -0.3436
   50MOL0     H 6893   9.982   8.992   7.626  2.1659  2.4661  1.0240
   50MOL0     H 6894   9.784   8.929   7.764 -0.9766  0.6341 -0.2785
   50MOL0     H 6895   9.715   9.080   7.742 -0.8644 -0.7873 -1.8745
   50MOL0     H 6896   9.929   9.127   8.094 -2.9117  2.0944 -0.0230
   50MOL0     H 6897  10.183   9.177   7.264 -1.1216  0.3417  1.9075
   50MOL0     H 6898  10.354   9.132   7.129  2.2783 -1.1166  0.6038
   50MOL0     H 6899  10.363   9.259   7.000 -0.5789  1.0880  0.8506
   50MOL0     H 6900  10.499   9.221   7.112  0.1811  0.7224  1.1375
   51MOL0     O 6901   4.486   1.363   3.155 -1.0711 -0.0353  0.1791
   51MOL0     C 6902   4.440   1.364   3.265 -1.3336 -0.5827 -0.3807
   51MOL0     O 6903   4.454   1.259   3.359 -0.0921  0.1114  0.0249
   51MOL0     C 6904   4.571   1.201   3.375  0.3135  0.9530  0.0311
   51MOL0     C 6905   4.691   1.237   3.315 -0.7422  0.8802 -0.1019
   51MOL0     C 6906   4.806   1.174   3.351  0.0483  0.1654  0.2788
   51MOL0     C 6907   4.802   1.055   3.429 -0.0281 -0.1801  0.7833
   51MOL0     O 6908   4.912   0.969   3.445  0.3013 -0.1847 -0.8445
   51MOL0     C 6909   5.031   0.998   3.380 -0.2956 -0.4897 -0.2643
   51MOL0     C 6910   5.130   0.889   3.426  1.0071 -0.1118  0.0581
   51MOL0     C 6911   5.134   0.902   3.582  0.3456  0.8402 -0.1996
   51MOL0     C 6912   5.044   0.802   3.669 -0.7478 -0.3108  1.7680
   51MOL0     C 6913   5.065   0.817   3.817  0.5294 -1.1280 -0.3203
   51MOL0     C 6914   4.996   0.946   3.870 -0.4043 -0.5812 -0.1260
   51MOL0     C 6915   4.845   0.967   3.853  0.2547 -0.0255 -0.3156
   51MOL0     C 6916   4.808   1.107   3.873 -0.1902  0.5515 -0.5804
   51MOL0     N 6917   4.824   1.161   4.007  0.6610  0.2835 -0.7588
   51MOL0     C 6918   4.942   1.195   4.081  0.2297  0.5568  0.1385
   51MOL0     C 6919   4.911   1.253   4.200 -0.3085 -0.1670  0.3708
   51MOL0     C 6920   5.015   1.302   4.296 -0.2165 -1.5441  0.5861
   51MOL0     C 6921   4.968   1.413   4.406  0.4209 -0.4219  0.5672
   51MOL0     C 6922   5.092   1.484   4.472 -0.0136  0.1557 -0.0202
   51MOL0     C 6923   5.226   1.411   4.490  0.4199 -0.0797  0.4748
   51MOL0     O 6924   5.212   1.285   4.562  0.6289 -1.1566 -0.0293
   51MOL0     C 6925   5.304   1.186   4.543 -0.8930 -0.3717  0.3879
   51MOL0     C 6926   5.262   1.053   4.539  0.0094 -0.3131  0.1458
   51MOL0     C 6927   5.360   0.955   4.522  0.3250 -0.3946 -0.5698
   51MOL0     C 6928   5.313   0.814   4.517  0.3685  0.3319  0.5614
   51MOL0     C 6929   5.498   0.989   4.496  0.3962 -0.1534 -0.7304
   51MOL0     C 6930   5.607   0.894   4.469  0.6302  0.5365  0.7955
   51MOL0     O 6931   5.681   0.939   4.363 -0.0486  0.3301 -0.3637
   51MOL0     C 6932   5.807   0.872   4.347  0.6083 -1.3871 -0.8967
   51MOL0     C 6933   5.806   0.738   4.318  0.3848  0.5969  0.6960
   51MOL0     C 6934   5.927   0.665   4.302  0.3800 -0.2966  1.2176
   51MOL0     C 6935   6.050   0.730   4.322 -0.0629 -0.4627 -0.6718
   51MOL0     O 6936   6.168   0.672   4.294 -0.1695  0.0618  0.6926
   51MOL0     C 6937   6.187   0.535   4.337 -1.4890 -0.8958  0.2942
   51MOL0     C 6938   6.328   0.482   4.302 -0.3734 -0.3944  0.1824
   51MOL0     C 6939   6.359   0.467   4.155  0.8643  0.0594  0.0127
   51MOL0     C 6940   6.496   0.396   4.133  0.4436  0.6776  0.3910
   51MOL0     C 6941   6.545   0.423   3.986 -0.1180  1.2286 -0.9795
   51MOL0     C 6942   6.698   0.415   3.974 -0.1032  0.4779  0.2297
   51MOL0     C 6943   6.755   0.430   3.829 -0.2162  0.1142  0.6519
   51MOL0     C 6944   6.885   0.504   3.828  0.6445  0.1896 -0.5882
   51MOL0    Cl 6945   6.912   0.527   3.649 -0.0193  0.1190 -0.6313
   51MOL0     C 6946   6.051   0.864   4.364  0.0456  0.1738 -0.2192
   51MOL0     C 6947   5.930   0.939   4.372 -0.4099  0.1744 -0.1310
   51MOL0     O 6948   5.616   0.790   4.529 -0.8006  0.5197 -0.0574
   51MOL0     C 6949   5.532   1.121   4.508 -0.2400  0.2035 -0.5434
   51MOL0     C 6950   5.439   1.215   4.534  0.2634 -0.3025 -0.5942
   51MOL0     N 6951   4.773   1.237   4.214  0.2261 -0.2766  0.1118
   51MOL0     N 6952   4.722   1.191   4.096  0.4295 -0.0147 -0.1722
   51MOL0     C 6953   4.682   1.023   3.484 -0.1258  0.2863 -0.5398
   51MOL0     C 6954   4.564   1.088   3.455  0.2070 -0.4108  0.7851
   51MOL0     C 6955   4.329   1.463   3.289  0.1774 -0.2708  1.1071
   51MOL0     C 6956   4.266   1.461   3.410 -0.0634  0.9589 -0.2279
   51MOL0     C 6957   4.173   1.560   3.444 -0.1302 -0.6221  0.0257
   51MOL0     C 6958   4.138   1.660   3.355 -0.2540  0.3380  0.1180
   51MOL0     O 6959   4.060   1.763   3.387  0.0305  0.5577 -0.2219
   51MOL0     C 6960   3.962   1.742   3.491 -0.1330 -0.4880 -0.1342
   51MOL0     C 6961   3.893   1.877   3.527 -0.5767  0.1642  0.1066
   51MOL0     C 6962   3.997   1.983   3.576 -0.0639  1.2293 -1.1325
   51MOL0     C 6963   3.928   2.112   3.609  0.0844 -0.6205  0.2467
   51MOL0     C 6964   4.019   2.191   3.684  0.6799  0.1707 -0.2270
   51MOL0     C 6965   4.079   2.286   3.738  0.7269  0.8318 -0.3566
   51MOL0     C 6966   4.196   1.664   3.235  0.3430  0.4190  0.0942
   51MOL0     C 6967   4.290   1.566   3.188 -0.5264  0.5137  0.0937
   51MOL0     C 6968   4.326   1.574   3.044 -0.4359  0.2278 -0.6986
   51MOL0     H 6969   4.700   1.320   3.245  2.6619  1.9148  1.3438
   51MOL0     H 6970   4.899   1.196   3.300  0.2105 -2.2806 -0.6376
   51MOL0     H 6971   5.075   1.094   3.412 -3.5619  1.3285 -0.7858
   51MOL0     H 6972   5.012   1.003   3.272 -0.8124  1.9664 -0.1152
   51MOL0     H 6973   5.092   0.789   3.405  0.6091 -0.0425  0.4385
   51MOL0     H 6974   5.234   0.886   3.391  1.1013 -0.7824  0.3809
   51MOL0     H 6975   5.237   0.886   3.615 -0.4029 -1.8375  1.1087
   51MOL0     H 6976   5.103   1.006   3.599 -1.0994  1.3517 -4.7683
   51MOL0     H 6977   4.939   0.821   3.647 -0.2190 -0.8776 -1.7035
   51MOL0     H 6978   5.086   0.703   3.647  1.5860  1.0473 -0.3605
   51MOL0     H 6979   5.172   0.818   3.838 -0.0917  0.1955  3.6746
   51MOL0     H 6980   5.021   0.735   3.875  2.6835 -1.5434  0.8504
   51MOL0     H 6981   5.009   0.937   3.978 -3.6746 -1.6782  0.2733
   51MOL0     H 6982   5.052   1.032   3.834  1.8773 -1.4922  1.0249
   51MOL0     H 6983   4.783   0.902   3.915 -0.1605  0.2565 -0.4343
   51MOL0     H 6984   4.799   0.949   3.755 -0.5180  1.4837 -0.2618
   51MOL0     H 6985   4.869   1.171   3.808  0.9277 -2.9375 -3.2749
   51MOL0     H 6986   4.709   1.126   3.831  0.0650 -1.6796 -2.3835
   51MOL0     H 6987   5.046   1.180   4.053 -0.8389 -0.7671 -3.7766
   51MOL0     H 6988   5.086   1.362   4.238 -1.0015 -0.1854  0.9699
   51MOL0     H 6989   5.055   1.215   4.347  3.3609 -0.7972 -0.6629
   51MOL0     H 6990   4.915   1.493   4.354  0.7891  0.0717  0.9366
   51MOL0     H 6991   4.915   1.359   4.485  0.1836 -1.3606 -0.2084
   51MOL0     H 6992   5.101   1.578   4.416 -4.6191  0.7733 -0.1476
   51MOL0     H 6993   5.075   1.504   4.578  0.3512 -3.2544  0.7988
   51MOL0     H 6994   5.275   1.404   4.393 -1.1565 -1.1225 -0.2912
   51MOL0     H 6995   5.304   1.464   4.545 -1.3313 -1.1982  4.3866
   51MOL0     H 6996   5.158   1.026   4.555  0.2234 -1.1993  0.1250
   51MOL0     H 6997   5.362   0.760   4.599  0.5806  0.9490  0.8490
   51MOL0     H 6998   5.342   0.771   4.422 -1.0074  2.0157 -0.6917
   51MOL0     H 6999   5.205   0.809   4.532  0.0661  2.6393 -0.3920
   51MOL0     H 7000   5.714   0.681   4.314  1.7903 -1.7144 -1.8766
   51MOL0     H 7001   5.918   0.566   4.257  2.3327 -0.7033  1.6382
   51MOL0     H 7002   6.182   0.536   4.446  2.0851  1.2363  0.5719
   51MOL0     H 7003   6.122   0.465   4.282  1.0087 -2.2049 -1.1906
   51MOL0     H 7004   6.398   0.554   4.347  0.9688 -0.6958 -1.3496
   51MOL0     H 7005   6.349   0.378   4.331 -0.2334 -0.3144  0.3714
   51MOL0     H 7006   6.374   0.566   4.112  2.0646 -0.3009 -0.4333
   51MOL0     H 7007   6.272   0.427   4.103  0.4173 -1.2051  1.6567
   51MOL0     H 7008   6.487   0.287   4.135  2.4810  0.4326 -0.8009
   51MOL0     H 7009   6.563   0.428   4.213  2.0776 -0.1998 -0.5674
   51MOL0     H 7010   6.490   0.348   3.928 -2.1436  0.6424  1.5037
   51MOL0     H 7011   6.513   0.523   3.955 -3.7971  0.9395  1.2649
   51MOL0     H 7012   6.725   0.321   4.023  2.0126 -0.0080 -1.6871
   51MOL0     H 7013   6.745   0.496   4.031  1.3349 -1.2213  1.5908
   51MOL0     H 7014   6.680   0.484   3.771 -0.2861  0.5861  1.1712
   51MOL0     H 7015   6.768   0.330   3.787  1.6371 -0.3991  2.3264
   51MOL0     H 7016   6.959   0.442   3.878  0.5742 -1.2730 -2.2129
   51MOL0     H 7017   6.880   0.595   3.889  0.2081 -0.8532  0.9810
   51MOL0     H 7018   6.149   0.910   4.375 -1.1108  2.5713  0.6865
   51MOL0     H 7019   5.931   1.047   4.387 -0.6837  0.4557 -1.8674
   51MOL0     H 7020   5.634   1.154   4.492 -0.6471  0.8515 -1.9476
   51MOL0     H 7021   5.457   1.322   4.539  0.0451 -0.3071  0.7763
   51MOL0     H 7022   4.681   0.931   3.542  2.7675  0.6483  0.2213
   51MOL0     H 7023   4.474   1.046   3.499 -0.9280  1.5962  0.4707
   51MOL0     H 7024   4.292   1.385   3.482  2.2988  0.0936 -1.8680
   51MOL0     H 7025   4.121   1.556   3.539  1.1566  1.5779  0.9021
   51MOL0     H 7026   3.885   1.668   3.465 -0.0951 -0.6211  0.1302
   51MOL0     H 7027   4.002   1.706   3.586  0.2812 -1.5161 -0.6813
   51MOL0     H 7028   3.831   1.855   3.614 -1.3895  0.0647 -0.4871
   51MOL0     H 7029   3.829   1.910   3.445 -1.5246 -1.2431  0.2438
   51MOL0     H 7030   4.047   1.943   3.664  0.2999  2.2688 -0.8440
   51MOL0     H 7031   4.077   1.991   3.502  0.3488  3.9239 -0.5003
   51MOL0     H 7032   3.831   2.108   3.660  0.6426  2.5731  1.8526
   51MOL0     H 7033   3.903   2.160   3.513  0.2288  0.3458  0.6759
   51MOL0     H 7034   4.137   2.358   3.792 -2.1932  1.5793  2.0797
   51MOL0     H 7035   4.158   1.737   3.164  0.4805 -0.2501 -0.6870
   51MOL0     H 7036   4.287   1.483   2.999 -0.3821 -1.2174  2.0183
   51MOL0     H 7037   4.290   1.671   3.006  3.0594  2.2942  0.8037
   51MOL0     H 7038   4.433   1.576   3.024 -0.3652  1.1404 -0.2799
   52MOL0     O 7039  10.499   2.817   4.151  0.3081  0.0559  0.7304
   52MOL0     C 7040  10.385   2.814   4.199  0.7415  0.5825 -0.3181
   52MOL0     O 7041  10.342   2.895   4.297 -0.4611 -0.3596  0.3596
   52MOL0     C 7042  10.420   3.015   4.296  0.6789  0.7507 -0.2816
   52MOL0     C 7043  10.520   3.030   4.393  0.5460  0.3418  0.1210
   52MOL0     C 7044  10.598   3.146   4.406  0.1637 -0.7444 -0.5348
   52MOL0     C 7045  10.573   3.256   4.329  0.9583  0.6065 -0.7541
   52MOL0     O 7046  10.647   3.369   4.360  0.1620  0.7161 -0.2196
   52MOL0     C 7047  10.700   3.445   4.249  0.2663 -0.7223 -0.0039
   52MOL0     C 7048  10.787   3.560   4.303 -0.2861  0.0020  0.8983
   52MOL0     C 7049  10.852   3.649   4.195  1.3170  1.2945 -0.0517
   52MOL0     C 7050  10.925   3.778   4.253 -0.8860  0.2503 -0.4050
   52MOL0     C 7051  11.072   3.739   4.251  0.8317 -0.7715  0.1406
   52MOL0     C 7052  11.142   3.843   4.334  0.1789 -0.1634  0.7704
   52MOL0     C 7053  11.296   3.818   4.351  1.3044 -0.3275  0.2296
   52MOL0     C 7054  11.385   3.936   4.367 -0.1088  0.1572 -0.2887
   52MOL0     N 7055  11.529   3.915   4.395  0.0144 -1.0513 -0.4616
   52MOL0     C 7056  11.624   3.866   4.308  1.1114  0.0124 -0.0518
   52MOL0     C 7057  11.724   3.835   4.390 -0.0637  0.3446  0.9949
   52MOL0     C 7058  11.865   3.787   4.342 -0.7277 -1.3969 -0.6564
   52MOL0     C 7059  11.968   3.754   4.451  0.8531  1.4415 -0.6996
   52MOL0     C 7060  12.020   3.861   4.545  0.8895  0.0045  0.1780
   52MOL0     C 7061  12.090   3.794   4.665  0.1329 -0.7058 -0.4682
   52MOL0     O 7062  12.199   3.715   4.611 -0.2472 -1.0755 -0.3331
   52MOL0     C 7063  12.260   3.629   4.696 -0.1443 -0.4191  0.6145
   52MOL0     C 7064  12.259   3.625   4.834 -0.2244 -0.3399 -0.6199
   52MOL0     C 7065  12.321   3.525   4.915  0.4344  0.6452 -0.0642
   52MOL0     C 7066  12.295   3.540   5.067  0.5847  0.2143 -0.5875
   52MOL0     C 7067  12.390   3.426   4.851 -0.1931 -0.4241  0.0071
   52MOL0     C 7068  12.460   3.310   4.919 -0.4974  0.0845  0.2185
   52MOL0     O 7069  12.524   3.234   4.831 -0.1500 -0.1375 -0.0175
   52MOL0     C 7070  12.628   3.148   4.880  0.5908 -0.4421  0.1304
   52MOL0     C 7071  12.622   3.056   4.984  0.3061 -0.1375 -0.0861
   52MOL0     C 7072  12.723   2.972   5.012  0.8069  0.5381  0.2869
   52MOL0     C 7073  12.829   2.964   4.922  0.4247  0.5033 -0.3948
   52MOL0     O 7074  12.928   2.870   4.942  0.0492 -0.1150 -0.0914
   52MOL0     C 7075  12.970   2.851   5.074 -0.1250 -0.4242 -0.4253
   52MOL0     C 7076  13.113   2.792   5.087  0.3315  0.4253 -0.4789
   52MOL0     C 7077  13.228   2.894   5.104 -0.5703 -0.3289 -0.2911
   52MOL0     C 7078  13.367   2.832   5.099 -0.3464 -0.4753  0.0925
   52MOL0     C 7079  13.484   2.918   5.147  0.1372 -0.4878  0.6622
   52MOL0     C 7080  13.622   2.850   5.136  0.7140 -0.1277  0.3702
   52MOL0     C 7081  13.641   2.737   5.234  0.7843 -0.3444  0.1451
   52MOL0     C 7082  13.750   2.631   5.199  0.4659  0.1119 -0.7419
   52MOL0    Cl 7083  13.716   2.571   5.035  0.3070 -0.1275  0.6737
   52MOL0     C 7084  12.837   3.060   4.820 -1.1392  0.4722  0.5624
   52MOL0     C 7085  12.732   3.146   4.789 -0.0851  0.9839 -0.3442
   52MOL0     O 7086  12.460   3.291   5.044  0.3490 -0.1430  0.0530
   52MOL0     C 7087  12.389   3.426   4.708 -0.3997  0.1694 -0.1188
   52MOL0     C 7088  12.329   3.527   4.639  0.3094  0.2279  0.4017
   52MOL0     N 7089  11.689   3.852   4.520  0.5524 -0.7806 -0.7463
   52MOL0     N 7090  11.570   3.887   4.525  0.6456  0.6406 -0.7160
   52MOL0     C 7091  10.474   3.246   4.231  0.5456 -0.2430 -0.0658
   52MOL0     C 7092  10.394   3.130   4.210  0.2571 -0.0866  0.3916
   52MOL0     C 7093  10.278   2.731   4.142 -0.4207 -0.1397  0.3382
   52MOL0     C 7094  10.151   2.796   4.138 -0.8881  0.2151  0.9051
   52MOL0     C 7095  10.045   2.721   4.099  0.0281 -0.3001  0.1926
   52MOL0     C 7096  10.054   2.596   4.052  0.2831  0.5912 -0.7774
   52MOL0     O 7097   9.943   2.540   3.986 -0.8174  0.6235  0.1178
   52MOL0     C 7098   9.965   2.401   3.934 -1.0616 -0.7856  0.0228
   52MOL0     C 7099   9.837   2.338   3.862  0.3162 -0.1749 -0.1550
   52MOL0     C 7100   9.720   2.317   3.956 -0.1401 -0.6551  0.0942
   52MOL0     C 7101   9.609   2.266   3.867  0.0947  0.3585  0.3754
   52MOL0     C 7102   9.474   2.286   3.923 -0.7491 -0.2653  0.5705
   52MOL0     C 7103   9.363   2.311   3.966 -0.1826  0.6654 -1.0414
   52MOL0     C 7104  10.182   2.541   4.041 -0.3377 -0.0360  0.0354
   52MOL0     C 7105  10.299   2.602   4.093  0.6604  0.7516  0.2205
   52MOL0     C 7106  10.430   2.526   4.084 -0.5478  0.1386 -0.2168
   52MOL0     H 7107  10.548   2.948   4.459 -0.1769  0.1005  0.1300
   52MOL0     H 7108  10.678   3.163   4.478 -0.8774  2.3717  0.0255
   52MOL0     H 7109  10.619   3.481   4.184  0.7820  0.1556 -0.1740
   52MOL0     H 7110  10.768   3.381   4.193 -0.5630 -1.5311 -0.1060
   52MOL0     H 7111  10.732   3.626   4.370  0.7206  3.6036 -1.5432
   52MOL0     H 7112  10.871   3.509   4.351  0.4370 -2.2902 -2.4592
   52MOL0     H 7113  10.908   3.588   4.124 -1.9611 -2.8159  0.4986
   52MOL0     H 7114  10.773   3.683   4.127 -0.1165  0.7814  1.2803
   52MOL0     H 7115  10.910   3.869   4.194 -0.0374  1.9911  1.9318
   52MOL0     H 7116  10.903   3.806   4.356  0.7047  2.1495 -0.5433
   52MOL0     H 7117  11.107   3.745   4.147 -2.2630  0.8857 -0.9642
   52MOL0     H 7118  11.082   3.639   4.292 -1.9751 -0.7138  1.2133
   52MOL0     H 7119  11.136   3.943   4.292  1.5641  0.9212  2.9710
   52MOL0     H 7120  11.090   3.852   4.429 -0.1758 -0.9514  0.6609
   52MOL0     H 7121  11.328   3.783   4.252 -0.8579 -0.7395 -0.3949
   52MOL0     H 7122  11.312   3.733   4.418  0.4287 -0.7574 -0.0832
   52MOL0     H 7123  11.385   4.012   4.289  3.1343  1.4491  0.7966
   52MOL0     H 7124  11.344   3.991   4.453  0.7173  1.3333 -0.6263
   52MOL0     H 7125  11.611   3.870   4.200 -0.1379  0.4285  0.0926
   52MOL0     H 7126  11.911   3.863   4.278  0.2819 -1.9526 -0.6107
   52MOL0     H 7127  11.844   3.699   4.280 -1.6075  1.3362 -4.5822
   52MOL0     H 7128  11.919   3.672   4.504 -0.6742  0.1303 -3.8702
   52MOL0     H 7129  12.055   3.715   4.398  0.9274  0.2552  0.2447
   52MOL0     H 7130  12.084   3.928   4.487 -0.2172  1.2126  0.3159
   52MOL0     H 7131  11.940   3.925   4.584  2.9196  2.5603  0.3830
   52MOL0     H 7132  12.122   3.867   4.740 -1.7595 -1.2587  0.9515
   52MOL0     H 7133  12.019   3.729   4.716 -0.3536  1.7999  2.2954
   52MOL0     H 7134  12.203   3.704   4.884 -3.1001 -1.1728 -2.3043
   52MOL0     H 7135  12.280   3.445   5.120 -3.6096  0.4775 -0.9642
   52MOL0     H 7136  12.201   3.590   5.091  0.6488 -0.5611  1.4651
   52MOL0     H 7137  12.381   3.590   5.112  1.6100 -2.1268  0.2017
   52MOL0     H 7138  12.533   3.042   5.045  0.4787 -0.9125 -0.0013
   52MOL0     H 7139  12.711   2.899   5.091  1.0161 -1.4077 -1.3895
   52MOL0     H 7140  12.979   2.946   5.128 -0.8176 -1.4155  1.4870
   52MOL0     H 7141  12.902   2.784   5.126 -0.7404  1.3043  1.0743
   52MOL0     H 7142  13.125   2.733   5.178  1.3786 -1.4344 -1.7455
   52MOL0     H 7143  13.133   2.715   5.011  0.3843 -0.9409  0.8683
   52MOL0     H 7144  13.218   2.953   5.195  1.4022 -0.0365 -0.2180
   52MOL0     H 7145  13.235   2.957   5.015 -0.7515 -1.1471 -0.9018
   52MOL0     H 7146  13.385   2.792   4.999  1.8002 -2.0671  1.0235
   52MOL0     H 7147  13.363   2.735   5.149  1.8053 -1.1880 -0.9631
   52MOL0     H 7148  13.489   3.014   5.094  0.5677  0.3913  2.2165
   52MOL0     H 7149  13.463   2.943   5.251 -0.0560  2.3465  0.0214
   52MOL0     H 7150  13.699   2.928   5.143  0.1295  0.4310  0.6033
   52MOL0     H 7151  13.626   2.811   5.034  0.0319 -1.6305  0.8877
   52MOL0     H 7152  13.547   2.684   5.253  0.9053  0.1777  2.5494
   52MOL0     H 7153  13.663   2.786   5.329  0.4276 -0.1803  0.1425
   52MOL0     H 7154  13.761   2.546   5.267  0.7544 -0.1945 -1.1691
   52MOL0     H 7155  13.837   2.698   5.194 -0.1586  1.0277  0.0959
   52MOL0     H 7156  12.926   3.054   4.757 -1.9356  2.0995 -0.8066
   52MOL0     H 7157  12.740   3.199   4.695 -0.9694  0.7554 -0.5542
   52MOL0     H 7158  12.440   3.347   4.655 -0.9861 -0.7678  0.6740
   52MOL0     H 7159  12.353   3.528   4.533  1.5333 -1.7307  0.6096
   52MOL0     H 7160  10.455   3.332   4.168  1.4986  0.0356  0.0051
   52MOL0     H 7161  10.312   3.132   4.140  0.5344 -2.3533 -0.0745
   52MOL0     H 7162  10.141   2.901   4.166  0.5942  0.4783  0.5487
   52MOL0     H 7163   9.950   2.771   4.110 -0.4771 -0.9322 -1.0780
   52MOL0     H 7164  10.044   2.397   3.859  1.6494 -0.1006  2.6499
   52MOL0     H 7165  10.007   2.333   4.009  1.0279  1.0589  0.6652
   52MOL0     H 7166   9.869   2.249   3.808 -2.6252 -0.3884 -1.7704
   52MOL0     H 7167   9.809   2.409   3.783 -1.3458 -0.0839  0.4892
   52MOL0     H 7168   9.757   2.254   4.038  1.4727  0.8195  0.5646
   52MOL0     H 7169   9.697   2.416   3.995  1.7430  1.1154 -2.9366
   52MOL0     H 7170   9.617   2.161   3.840  0.0415  0.4581 -0.0286
   52MOL0     H 7171   9.613   2.320   3.772  1.7871 -0.5185 -0.0796
   52MOL0     H 7172   9.271   2.327   4.018 -1.3689  0.8487 -3.0986
   52MOL0     H 7173  10.203   2.442   4.004  1.7772 -0.0024  0.9851
   52MOL0     H 7174  10.452   2.511   3.978 -1.8216  0.4421 -0.5452
   52MOL0     H 7175  10.517   2.578   4.125 -0.9320 -0.4690  1.5023
   52MOL0     H 7176  10.420   2.430   4.137 -2.3370 -0.0544 -0.8279
   53MOL0     O 7177   2.577   3.145   0.136  0.3567 -0.6153 -0.1320
   53MOL0     C 7178   2.490   3.183   0.216  0.7025 -0.9615  0.3310
   53MOL0     O 7179   2.515   3.254   0.331 -0.5097 -0.5576  0.6060
   53MOL0     C 7180   2.642   3.317   0.349 -0.0727  0.0808  0.3129
   53MOL0     C 7181   2.656   3.459   0.331 -0.1462 -0.7286  0.0807
   53MOL0     C 7182   2.789   3.508   0.346  0.3740  1.0256  1.0291
   53MOL0     C 7183   2.890   3.418   0.394  0.9038 -0.6077  0.5987
   53MOL0     O 7184   3.019   3.452   0.412 -0.2501 -0.1158  0.7762
   53MOL0     C 7185   3.057   3.592   0.427  0.2031 -0.3188 -0.2532
   53MOL0     C 7186   3.208   3.608   0.462 -0.1594  0.0065 -0.2218
   53MOL0     C 7187   3.233   3.541   0.602 -1.0534 -0.1384  0.0767
   53MOL0     C 7188   3.376   3.515   0.640 -0.4878  0.9310 -0.9332
   53MOL0     C 7189   3.389   3.488   0.794 -0.5067 -0.0577 -0.0899
   53MOL0     C 7190   3.522   3.423   0.836  0.1995  0.1463 -0.4931
   53MOL0     C 7191   3.650   3.522   0.827 -0.1223 -0.8905  0.0864
   53MOL0     C 7192   3.780   3.434   0.822 -0.1114 -0.8959 -0.7250
   53MOL0     N 7193   3.885   3.536   0.829  0.9468  0.2415  0.4716
   53MOL0     C 7194   3.917   3.629   0.732  0.4240  0.0924 -0.3065
   53MOL0     C 7195   3.967   3.734   0.802  0.5808 -0.4707 -0.1629
   53MOL0     C 7196   4.018   3.861   0.754  0.4536 -0.3946 -0.7764
   53MOL0     C 7197   4.173   3.856   0.737  0.6133 -0.5574  0.9932
   53MOL0     C 7198   4.229   3.988   0.665  0.5279 -1.6430  0.0535
   53MOL0     C 7199   4.255   4.097   0.771  0.9507  0.0682  0.2949
   53MOL0     O 7200   4.384   4.077   0.817 -0.2088 -1.2712  0.5330
   53MOL0     C 7201   4.488   4.118   0.731  0.1277 -0.6270  0.0142
   53MOL0     C 7202   4.472   4.193   0.604 -0.4725 -0.1979 -0.5617
   53MOL0     C 7203   4.578   4.231   0.522 -0.4132  0.2089  0.0324
   53MOL0     C 7204   4.539   4.308   0.396  0.1219  0.4608 -0.2970
   53MOL0     C 7205   4.704   4.212   0.573 -0.5919 -0.7259 -0.2956
   53MOL0     C 7206   4.827   4.264   0.503 -0.2577 -0.4260  0.3639
   53MOL0     O 7207   4.944   4.187   0.519 -0.4781 -0.1257 -0.4159
   53MOL0     C 7208   5.058   4.208   0.446 -0.2233  0.3908  0.4063
   53MOL0     C 7209   5.102   4.337   0.413 -0.7504  0.3007  0.1286
   53MOL0     C 7210   5.224   4.355   0.337  1.0577 -0.7825  0.8818
   53MOL0     C 7211   5.298   4.252   0.295 -0.5615  0.0143 -0.2171
   53MOL0     O 7212   5.411   4.279   0.218  0.8519  0.5453  0.6165
   53MOL0     C 7213   5.535   4.228   0.267 -0.4991  0.2202  0.1260
   53MOL0     C 7214   5.627   4.343   0.294 -0.0030 -0.0427  0.0729
   53MOL0     C 7215   5.651   4.435   0.174 -0.8572 -0.5243  0.4538
   53MOL0     C 7216   5.739   4.551   0.217 -0.5116  0.3375  0.0874
   53MOL0     C 7217   5.782   4.629   0.085 -0.4055 -0.2071  0.3728
   53MOL0     C 7218   5.874   4.756   0.100  0.1347  0.7632  0.3784
   53MOL0     C 7219   5.811   4.867   0.199 -0.7021  0.2096  0.3313
   53MOL0     C 7220   5.908   4.992   0.224 -0.4537  0.0263  0.7205
   53MOL0    Cl 7221   5.928   5.080   0.076 -0.5368 -0.1759 -0.2653
   53MOL0     C 7222   5.258   4.115   0.331 -0.4799  0.0579 -0.1053
   53MOL0     C 7223   5.140   4.105   0.400  0.4130 -0.5014  0.0654
   53MOL0     O 7224   4.816   4.367   0.434 -0.2897 -0.0697 -0.7966
   53MOL0     C 7225   4.725   4.141   0.698  0.0057 -0.1026 -0.4222
   53MOL0     C 7226   4.619   4.087   0.765 -0.1370  0.2983 -0.7508
   53MOL0     N 7227   3.970   3.692   0.935 -0.2095  0.0751  0.4617
   53MOL0     N 7228   3.932   3.574   0.946  0.5660  0.3623 -0.1747
   53MOL0     C 7229   2.864   3.282   0.413 -0.9876 -0.4267 -0.1661
   53MOL0     C 7230   2.743   3.234   0.391 -0.1557 -0.1231  0.6687
   53MOL0     C 7231   2.345   3.146   0.186  0.1400  0.3833 -1.0359
   53MOL0     C 7232   2.318   3.050   0.089 -0.7299  0.1321  0.2520
   53MOL0     C 7233   2.187   3.012   0.063 -0.2033 -0.7361 -0.1552
   53MOL0     C 7234   2.086   3.068   0.127 -0.9698 -0.4349 -0.0067
   53MOL0     O 7235   1.971   3.023   0.090 -0.7376  0.3221  0.2338
   53MOL0     C 7236   1.847   3.063   0.145  0.2712 -0.8431 -0.8527
   53MOL0     C 7237   1.737   2.962   0.102 -0.0679  0.0597  0.2856
   53MOL0     C 7238   1.747   2.905  -0.048  0.3531 -0.5426 -0.6305
   53MOL0     C 7239   1.717   3.016  -0.146 -1.1155 -0.4531 -0.0640
   53MOL0     C 7240   1.583   3.069  -0.127  0.4134 -0.2049 -0.1811
   53MOL0     C 7241   1.468   3.117  -0.141 -0.2140  0.1894  0.7987
   53MOL0     C 7242   2.110   3.158   0.221 -0.2994  0.0569 -0.4290
   53MOL0     C 7243   2.236   3.211   0.248 -1.1899 -0.0200 -0.0814
   53MOL0     C 7244   2.246   3.325   0.353 -0.9700 -0.1493 -0.0048
   53MOL0     H 7245   2.571   3.520   0.304  0.2013  0.3685  1.3725
   53MOL0     H 7246   2.813   3.614   0.339  0.7284  1.0266  2.1333
   53MOL0     H 7247   3.006   3.646   0.508 -0.2837  1.4238 -1.6582
   53MOL0     H 7248   3.040   3.645   0.333  1.4314 -1.4415 -1.1431
   53MOL0     H 7249   3.262   3.557   0.381 -0.0609  0.0855 -0.2060
   53MOL0     H 7250   3.231   3.715   0.467  0.1453  0.1886 -3.4981
   53MOL0     H 7251   3.211   3.628   0.666 -2.0392  1.9934 -2.9181
   53MOL0     H 7252   3.167   3.457   0.626  1.7729 -3.2642 -2.1746
   53MOL0     H 7253   3.416   3.430   0.584  0.2308  1.4990 -1.3003
   53MOL0     H 7254   3.438   3.600   0.612 -0.1420  1.7140  1.8798
   53MOL0     H 7255   3.298   3.430   0.812 -0.3330 -0.9403 -1.8451
   53MOL0     H 7256   3.378   3.572   0.863  1.0181 -0.3192  0.5139
   53MOL0     H 7257   3.512   3.412   0.945 -0.1118  3.2928 -0.1153
   53MOL0     H 7258   3.534   3.321   0.800 -2.1181 -0.0148 -0.9684
   53MOL0     H 7259   3.633   3.593   0.908 -1.4050  0.9236 -1.6556
   53MOL0     H 7260   3.644   3.567   0.727 -0.0259 -3.1623 -1.0157
   53MOL0     H 7261   3.791   3.357   0.899  2.8908  0.8406  0.7786
   53MOL0     H 7262   3.788   3.382   0.726 -0.0055 -2.1613 -0.0407
   53MOL0     H 7263   3.896   3.639   0.626  0.1719 -2.7819 -0.6049
   53MOL0     H 7264   3.983   3.933   0.829 -2.1501 -4.2561  2.0652
   53MOL0     H 7265   3.976   3.893   0.658  0.9124 -0.7992 -1.1200
   53MOL0     H 7266   4.229   3.836   0.828  1.6758 -3.3628 -0.1601
   53MOL0     H 7267   4.196   3.768   0.675  1.1778 -0.7823  1.5121
   53MOL0     H 7268   4.325   3.972   0.615  0.8341  2.4839 -1.0736
   53MOL0     H 7269   4.159   4.024   0.588 -0.2678  0.5660  1.6964
   53MOL0     H 7270   4.232   4.197   0.735 -0.5072 -0.3604 -0.0083
   53MOL0     H 7271   4.192   4.082   0.859 -0.5046  0.2290 -0.6864
   53MOL0     H 7272   4.370   4.219   0.576  0.1921  2.4002 -0.7742
   53MOL0     H 7273   4.560   4.412   0.426  4.1554 -0.7616  1.9022
   53MOL0     H 7274   4.436   4.283   0.370 -0.6476  2.0418  1.0234
   53MOL0     H 7275   4.596   4.280   0.306 -1.2131 -1.9414 -0.4628
   53MOL0     H 7276   5.053   4.429   0.444  0.3919  1.0374 -0.1767
   53MOL0     H 7277   5.252   4.454   0.304  3.2548 -0.2898  3.7876
   53MOL0     H 7278   5.528   4.183   0.366  0.0264  2.0779  1.0433
   53MOL0     H 7279   5.575   4.153   0.197 -0.8669 -1.0599  1.2462
   53MOL0     H 7280   5.587   4.396   0.380  1.5248  0.0627  0.7443
   53MOL0     H 7281   5.722   4.310   0.335 -0.7330  1.8926  3.6886
   53MOL0     H 7282   5.557   4.478   0.136  0.0838  1.5659  0.3390
   53MOL0     H 7283   5.702   4.380   0.094  0.1244 -1.0201  1.4121
   53MOL0     H 7284   5.831   4.509   0.257  1.5934  3.5616 -0.9624
   53MOL0     H 7285   5.703   4.620   0.294 -1.0889 -0.7726  0.8289
   53MOL0     H 7286   5.827   4.554   0.020  0.1037  2.1186 -2.1802
   53MOL0     H 7287   5.694   4.667   0.032 -0.6181  0.3116  1.0797
   53MOL0     H 7288   5.898   4.789  -0.002  2.5047  1.4160  1.0888
   53MOL0     H 7289   5.967   4.728   0.149  0.3588 -1.0492 -0.9583
   53MOL0     H 7290   5.780   4.825   0.295  2.2332 -1.1788  0.7861
   53MOL0     H 7291   5.726   4.900   0.138 -1.3177 -1.5716  0.1688
   53MOL0     H 7292   6.005   4.958   0.263 -0.7217 -1.6033  0.0482
   53MOL0     H 7293   5.855   5.057   0.294  0.2681 -0.1095  1.4188
   53MOL0     H 7294   5.323   4.030   0.311  1.4597  0.6442  2.9893
   53MOL0     H 7295   5.110   4.005   0.430 -2.2562 -0.0468 -0.8044
   53MOL0     H 7296   4.819   4.116   0.747 -0.1359  2.2344  1.2148
   53MOL0     H 7297   4.640   4.037   0.859 -0.1583  2.7968  0.6582
   53MOL0     H 7298   2.956   3.228   0.433 -0.2636 -0.1821 -2.5302
   53MOL0     H 7299   2.715   3.130   0.399 -0.4009 -0.0335  0.9854
   53MOL0     H 7300   2.399   3.002   0.035 -1.8367 -2.0407  0.4070
   53MOL0     H 7301   2.154   2.951  -0.021 -1.1110  2.0573 -1.9447
   53MOL0     H 7302   1.857   3.060   0.254  2.6413 -0.7379 -1.0077
   53MOL0     H 7303   1.821   3.165   0.117  2.2305 -0.0759 -0.0811
   53MOL0     H 7304   1.639   2.996   0.135 -1.4182 -2.2881 -1.0240
   53MOL0     H 7305   1.754   2.880   0.173 -0.4140 -1.7911 -1.6485
   53MOL0     H 7306   1.840   2.849  -0.062  2.2519  1.9971  0.9900
   53MOL0     H 7307   1.672   2.826  -0.055  1.3844 -1.4791 -1.4263
   53MOL0     H 7308   1.725   2.974  -0.246 -0.3003 -1.3220  0.3466
   53MOL0     H 7309   1.782   3.103  -0.142  0.2310 -1.4573  0.8935
   53MOL0     H 7310   1.364   3.144  -0.143 -0.1180  0.9260 -3.6851
   53MOL0     H 7311   2.022   3.204   0.263 -0.7118 -1.1176  0.0351
   53MOL0     H 7312   2.145   3.351   0.388 -0.2360  2.8034  0.2021
   53MOL0     H 7313   2.307   3.311   0.442 -2.6446 -1.8461  0.9682
   53MOL0     H 7314   2.281   3.409   0.292  0.0194  0.0837  0.8699
   54MOL0     O 7315   7.177   1.484  10.362  0.2680  0.7041  0.1456
   54MOL0     C 7316   7.206   1.513  10.244  0.2932  0.5754 -0.4559
   54MOL0     O 7317   7.305   1.463  10.178 -0.4048  0.1786 -0.1087
   54MOL0     C 7318   7.392   1.382  10.252  0.0578  0.5819  1.1732
   54MOL0     C 7319   7.365   1.246  10.272 -0.1998  0.3768 -0.1492
   54MOL0     C 7320   7.447   1.162  10.342 -1.4264  1.1015  0.0494
   54MOL0     C 7321   7.567   1.206  10.395  0.6851  0.6969 -0.2082
   54MOL0     O 7322   7.655   1.108  10.435 -0.1111 -0.1472  0.0433
   54MOL0     C 7323   7.739   1.157  10.540  0.1312 -0.4267  0.0591
   54MOL0     C 7324   7.806   1.035  10.608 -0.8009  0.6034 -0.0453
   54MOL0     C 7325   7.922   1.079  10.698  0.3900  0.1746  0.0924
   54MOL0     C 7326   8.047   1.120  10.636 -0.0841  0.0795 -0.1504
   54MOL0     C 7327   8.140   1.193  10.739 -0.2783 -0.1632 -0.4682
   54MOL0     C 7328   8.095   1.339  10.751 -0.6744  0.5064  0.4543
   54MOL0     C 7329   8.184   1.428  10.837 -0.4586  0.1557 -0.2061
   54MOL0     C 7330   8.144   1.575  10.819 -0.4207 -0.5641 -0.2055
   54MOL0     N 7331   8.234   1.653  10.908  0.6067 -0.0889  1.1619
   54MOL0     C 7332   8.348   1.720  10.864  0.6110 -0.0873  0.6787
   54MOL0     C 7333   8.401   1.775  10.975  0.5768 -0.4712  0.3113
   54MOL0     C 7334   8.533   1.857  10.971  0.3180  0.0511 -0.2399
   54MOL0     C 7335   8.653   1.772  10.960 -0.1266  0.4138 -0.7375
   54MOL0     C 7336   8.780   1.851  10.974  0.8424 -0.1463 -0.1299
   54MOL0     C 7337   8.902   1.747  10.980  0.5192  0.0331  0.0516
   54MOL0     O 7338   8.916   1.685  10.848 -0.4775 -0.0845 -0.1799
   54MOL0     C 7339   9.029   1.615  10.821  0.2552  0.3243 -1.0757
   54MOL0     C 7340   9.019   1.547  10.707 -0.0697  0.4083 -0.4786
   54MOL0     C 7341   9.114   1.454  10.669  0.1708 -0.1841  0.5524
   54MOL0     C 7342   9.078   1.366  10.547  0.1766  0.1825 -0.5245
   54MOL0     C 7343   9.233   1.421  10.740 -0.1307  0.3830  0.0902
   54MOL0     C 7344   9.331   1.322  10.699 -0.1387 -0.6435 -0.2499
   54MOL0     O 7345   9.381   1.329  10.573  0.5119 -0.8538 -0.4371
   54MOL0     C 7346   9.460   1.224  10.531 -0.2343 -0.3207  0.8827
   54MOL0     C 7347   9.410   1.128  10.434  0.0225 -0.1625  0.2294
   54MOL0     C 7348   9.487   1.018  10.389  0.0318 -0.3794  0.0012
   54MOL0     C 7349   9.622   1.003  10.429  0.0162  0.5679  0.1137
   54MOL0     O 7350   9.693   0.905  10.359 -1.2483  0.0004  0.0739
   54MOL0     C 7351   9.841   0.929  10.334 -0.8728 -1.2324  0.2241
   54MOL0     C 7352   9.919   0.828  10.415  1.0114  0.3740 -0.1685
   54MOL0     C 7353   9.880   0.821  10.565 -0.9163  1.3607 -0.3610
   54MOL0     C 7354   9.969   0.711  10.641  0.4468 -0.2622  0.1088
   54MOL0     C 7355   9.916   0.693  10.787  0.2581  0.0512 -0.4850
   54MOL0     C 7356   9.985   0.583  10.869  0.4943 -0.3931 -0.5080
   54MOL0     C 7357   9.889   0.541  10.982  0.6246 -0.1503  1.1318
   54MOL0     C 7358   9.951   0.409  11.038 -0.7750 -0.1745 -0.5813
   54MOL0    Cl 7359   9.929   0.376  11.209  0.1267 -0.0719 -0.0655
   54MOL0     C 7360   9.675   1.095  10.530  0.8063  0.2348  0.5317
   54MOL0     C 7361   9.587   1.195  10.578  0.2649 -0.6423  0.1412
   54MOL0     O 7362   9.367   1.242  10.784  0.5815  0.3267  0.7342
   54MOL0     C 7363   9.243   1.493  10.859 -0.4547 -0.4572  0.1492
   54MOL0     C 7364   9.144   1.589  10.902  0.0576  0.7912  0.0567
   54MOL0     N 7365   8.318   1.736  11.086 -0.6004 -0.3474 -0.2351
   54MOL0     N 7366   8.230   1.667  11.042  0.3312 -0.3480 -0.7061
   54MOL0     C 7367   7.605   1.337  10.377  0.4835  0.4101 -0.8439
   54MOL0     C 7368   7.517   1.421  10.305 -0.2890  0.0256  0.4161
   54MOL0     C 7369   7.122   1.608  10.188 -0.3271 -1.2042 -0.3191
   54MOL0     C 7370   7.180   1.732  10.156 -0.4477  0.8109  0.9154
   54MOL0     C 7371   7.097   1.839  10.098 -0.1724 -0.5928  0.4081
   54MOL0     C 7372   6.967   1.805  10.050 -0.5797  1.2233  0.2988
   54MOL0     O 7373   6.897   1.893   9.977  0.3673 -0.0492  0.4200
   54MOL0     C 7374   6.959   1.944   9.862  0.4809 -0.2090 -0.1555
   54MOL0     C 7375   6.873   2.056   9.803  0.0759 -0.0865  0.9735
   54MOL0     C 7376   6.745   2.014   9.742  0.1702 -0.1751 -0.1149
   54MOL0     C 7377   6.678   2.127   9.664  0.1288 -0.4163  0.3070
   54MOL0     C 7378   6.542   2.087   9.618 -0.3019 -0.1950  0.6474
   54MOL0     C 7379   6.430   2.056   9.578 -0.0075 -0.5321 -0.0047
   54MOL0     C 7380   6.916   1.676  10.079  0.3214 -1.1930 -0.1147
   54MOL0     C 7381   6.991   1.581  10.145 -0.1535  0.3297 -0.0599
   54MOL0     C 7382   6.922   1.443  10.163  0.2266  0.2784  0.5054
   54MOL0     H 7383   7.278   1.195  10.230 -0.1458 -0.3323  0.5804
   54MOL0     H 7384   7.422   1.057  10.352  2.0822  0.2752  2.0835
   54MOL0     H 7385   7.678   1.214  10.611 -1.3587 -1.9069  0.0427
   54MOL0     H 7386   7.810   1.231  10.503 -0.5575 -0.7974 -2.1547
   54MOL0     H 7387   7.735   0.976  10.666 -0.5437 -0.2538 -0.5740
   54MOL0     H 7388   7.836   0.965  10.530 -1.2638  0.3269  0.0241
   54MOL0     H 7389   7.876   1.164  10.749  0.8330  1.5929 -1.7858
   54MOL0     H 7390   7.940   1.008  10.780 -0.5883  0.3376  0.4611
   54MOL0     H 7391   8.108   1.035  10.604 -0.4461 -1.3290  2.5918
   54MOL0     H 7392   8.028   1.184  10.550  0.3949 -1.2180 -1.2509
   54MOL0     H 7393   8.241   1.196  10.696 -0.0758  2.6775  0.0106
   54MOL0     H 7394   8.134   1.138  10.833  0.1375 -0.5300 -0.6509
   54MOL0     H 7395   8.094   1.382  10.650 -0.3827  2.6917  1.3356
   54MOL0     H 7396   7.999   1.338  10.804 -1.2522 -3.3872 -0.3013
   54MOL0     H 7397   8.284   1.406  10.800  0.1596 -0.6903  1.8321
   54MOL0     H 7398   8.173   1.398  10.942  0.9852 -0.2988 -0.1697
   54MOL0     H 7399   8.169   1.619  10.722 -0.0327  2.6724  1.2400
   54MOL0     H 7400   8.037   1.590  10.837 -0.3300 -1.6085  1.4280
   54MOL0     H 7401   8.397   1.735  10.769 -2.4779 -1.6169 -1.3028
   54MOL0     H 7402   8.552   1.911  11.065  1.0599  2.4358 -1.6817
   54MOL0     H 7403   8.530   1.940  10.900 -0.9791 -1.5158 -2.1156
   54MOL0     H 7404   8.646   1.700  11.042  1.1529 -2.7405 -3.1685
   54MOL0     H 7405   8.642   1.715  10.867  0.9679 -1.8605  0.4500
   54MOL0     H 7406   8.807   1.922  10.894 -3.1281  0.6085 -0.9846
   54MOL0     H 7407   8.775   1.914  11.063 -2.1560 -0.2743 -0.1239
   54MOL0     H 7408   8.994   1.800  11.004 -1.6653  3.7691  0.9138
   54MOL0     H 7409   8.888   1.664  11.050  0.7202 -1.4233 -1.5539
   54MOL0     H 7410   8.937   1.573  10.640 -1.6715  0.3947  1.3619
   54MOL0     H 7411   9.127   1.399  10.455 -0.4761 -0.8947 -1.2864
   54MOL0     H 7412   8.972   1.384  10.527 -0.0229 -0.0549  0.2950
   54MOL0     H 7413   9.096   1.258  10.559 -2.5162 -0.2014  0.6820
   54MOL0     H 7414   9.310   1.139  10.392  0.6855 -1.3234 -1.7564
   54MOL0     H 7415   9.462   0.951  10.308  3.1344  1.1135 -2.3538
   54MOL0     H 7416   9.866   0.919  10.228  0.9058 -0.7002  0.5517
   54MOL0     H 7417   9.866   1.034  10.352  1.4141 -1.8429  0.9683
   54MOL0     H 7418   9.901   0.726  10.380 -0.5184  0.5402  0.0908
   54MOL0     H 7419  10.028   0.844  10.411  1.1319  0.3289  1.9815
   54MOL0     H 7420   9.773   0.798  10.575 -0.7733  1.0683  0.5770
   54MOL0     H 7421   9.893   0.925  10.597  0.2699  1.9400 -2.5194
   54MOL0     H 7422  10.074   0.742  10.651  0.4975 -1.1256  3.1159
   54MOL0     H 7423   9.967   0.618  10.585  0.4411  1.3310 -2.7060
   54MOL0     H 7424   9.920   0.784  10.847 -2.4899 -1.1968  1.8167
   54MOL0     H 7425   9.812   0.661  10.779  0.5886 -2.1030  2.1895
   54MOL0     H 7426  10.084   0.613  10.903 -1.0067  3.0557  1.3865
   54MOL0     H 7427   9.982   0.497  10.801 -2.2784 -1.3957  0.7421
   54MOL0     H 7428   9.783   0.537  10.954  0.7758  0.8247  0.3312
   54MOL0     H 7429   9.891   0.628  11.049 -1.9665  1.5022 -0.7273
   54MOL0     H 7430  10.057   0.416  11.013  0.5554 -2.9665  3.2097
   54MOL0     H 7431   9.902   0.323  10.991 -0.1918 -1.1098  0.4580
   54MOL0     H 7432   9.770   1.078  10.579  1.2121  3.3735  0.9859
   54MOL0     H 7433   9.616   1.249  10.667  0.0374  0.9942 -0.7531
   54MOL0     H 7434   9.334   1.484  10.918 -0.3981 -0.2369  0.0930
   54MOL0     H 7435   9.162   1.643  10.994 -0.7057 -3.9075  3.3154
   54MOL0     H 7436   7.700   1.370  10.418  1.0422 -2.4451  0.3597
   54MOL0     H 7437   7.544   1.525  10.294 -1.5936  0.1977 -1.5537
   54MOL0     H 7438   7.287   1.745  10.169 -0.3329 -0.1163  0.9472
   54MOL0     H 7439   7.129   1.941  10.080 -4.5815  1.6774  3.5231
   54MOL0     H 7440   7.060   1.976   9.888 -0.4485  2.0583  0.8559
   54MOL0     H 7441   6.970   1.862   9.790 -0.3095  0.0456 -0.5833
   54MOL0     H 7442   6.938   2.102   9.728 -0.2402 -2.4631 -0.8742
   54MOL0     H 7443   6.847   2.122   9.886  2.1188  1.2547  0.6048
   54MOL0     H 7444   6.754   1.934   9.668  0.2239 -0.0911 -0.1996
   54MOL0     H 7445   6.672   1.983   9.817 -1.5762 -1.0354 -2.0788
   54MOL0     H 7446   6.733   2.163   9.577  0.9436  1.9048  1.6933
   54MOL0     H 7447   6.660   2.209   9.734 -0.0298 -1.3205  1.3527
   54MOL0     H 7448   6.339   2.008   9.548 -0.7130  0.8410 -0.1374
   54MOL0     H 7449   6.815   1.650  10.051  0.2886  1.3660 -2.7885
   54MOL0     H 7450   6.851   1.427  10.081 -0.6669 -3.4641  1.7968
   54MOL0     H 7451   6.988   1.357  10.173 -1.2375 -0.9407  0.0882
   54MOL0     H 7452   6.871   1.453  10.259  0.0947  1.5616  0.3129
   55MOL0     O 7453   6.107   0.776   2.066  0.1271  0.7093 -0.1295
   55MOL0     C 7454   6.034   0.844   1.994 -0.6547  0.4190 -0.0266
   55MOL0     O 7455   6.082   0.930   1.903 -0.1840  0.1495  0.3833
   55MOL0     C 7456   6.217   0.939   1.881 -0.1617 -0.0144 -0.0243
   55MOL0     C 7457   6.271   0.847   1.784  0.5827 -0.5039  0.4365
   55MOL0     C 7458   6.403   0.867   1.749 -0.0134  0.5018  0.5454
   55MOL0     C 7459   6.481   0.964   1.799  0.2624 -0.1481  0.2928
   55MOL0     O 7460   6.608   0.992   1.766  0.4551 -0.0275  0.8206
   55MOL0     C 7461   6.694   0.896   1.713 -0.2168 -0.5260 -0.1587
   55MOL0     C 7462   6.835   0.952   1.688  0.1243  1.0112 -0.2347
   55MOL0     C 7463   6.926   0.974   1.811 -0.3301 -0.3018  0.1036
   55MOL0     C 7464   7.062   0.990   1.741 -0.4350 -0.2317  0.3553
   55MOL0     C 7465   7.170   1.038   1.836  0.0634 -0.1676  0.1431
   55MOL0     C 7466   7.194   0.947   1.959  0.0393  0.8383 -0.5915
   55MOL0     C 7467   7.289   1.014   2.055 -0.5995  0.4011 -0.0531
   55MOL0     C 7468   7.433   1.029   2.009  0.0981  0.4023 -0.8643
   55MOL0     N 7469   7.466   1.141   1.915 -0.5802 -0.3650 -0.9243
   55MOL0     C 7470   7.400   1.265   1.905  0.1890 -0.4000  0.5522
   55MOL0     C 7471   7.459   1.325   1.796  0.1132  0.2365  0.0780
   55MOL0     C 7472   7.415   1.439   1.718 -0.0659 -0.6645 -0.1856
   55MOL0     C 7473   7.334   1.396   1.595  0.1376  0.1009 -0.1236
   55MOL0     C 7474   7.311   1.527   1.517  0.4092  0.4689 -1.0111
   55MOL0     C 7475   7.279   1.485   1.385 -0.6699 -0.1887  0.3455
   55MOL0     O 7476   7.233   1.593   1.312  0.2076  0.1876 -0.2136
   55MOL0     C 7477   7.329   1.686   1.267 -0.3950  0.3073 -0.2299
   55MOL0     C 7478   7.448   1.647   1.207  0.3640 -0.2929  0.4731
   55MOL0     C 7479   7.530   1.736   1.144 -0.6459  0.4839 -0.5862
   55MOL0     C 7480   7.636   1.676   1.052 -0.5226 -0.5048 -0.2261
   55MOL0     C 7481   7.524   1.871   1.165  0.1748 -0.5238 -0.6023
   55MOL0     C 7482   7.613   1.985   1.101  0.1114 -0.0448 -0.3877
   55MOL0     O 7483   7.726   1.941   1.028  0.1693  0.1235 -0.2139
   55MOL0     C 7484   7.806   2.033   0.961  0.3573  0.9925  0.6209
   55MOL0     C 7485   7.943   2.009   0.959 -0.2025 -0.4331 -0.1358
   55MOL0     C 7486   8.027   2.096   0.887  0.5792  0.3079 -0.1069
   55MOL0     C 7487   7.980   2.200   0.805 -0.3478 -0.2667  0.8503
   55MOL0     O 7488   8.043   2.269   0.706  0.1691  0.2773 -0.2210
   55MOL0     C 7489   8.178   2.226   0.687 -0.3179 -0.4694  0.6540
   55MOL0     C 7490   8.248   2.266   0.547  0.0518  0.1550 -0.2942
   55MOL0     C 7491   8.277   2.424   0.558  0.4014 -0.6649 -0.2425
   55MOL0     C 7492   8.429   2.451   0.584 -0.0787  0.0005 -1.2676
   55MOL0     C 7493   8.447   2.596   0.594 -0.6611  0.5116 -0.8010
   55MOL0     C 7494   8.597   2.633   0.626  0.0082 -0.4549 -0.2149
   55MOL0     C 7495   8.626   2.779   0.606 -0.2894  0.9645 -0.1616
   55MOL0     C 7496   8.629   2.865   0.730 -0.3161  0.8063  0.3443
   55MOL0    Cl 7497   8.784   2.844   0.815  0.2282  0.4705 -0.2191
   55MOL0     C 7498   7.842   2.214   0.795  0.0707  0.6172  0.0045
   55MOL0     C 7499   7.756   2.133   0.875  0.1029  0.5381  0.0820
   55MOL0     O 7500   7.575   2.103   1.103  0.4215  0.0409  0.2583
   55MOL0     C 7501   7.405   1.917   1.230 -0.7112 -0.1277  0.3259
   55MOL0     C 7502   7.309   1.820   1.281 -0.0565 -0.7375  0.4475
   55MOL0     N 7503   7.556   1.238   1.758  0.1436  0.2450 -0.4360
   55MOL0     N 7504   7.567   1.131   1.828 -0.7240 -0.9882  0.7854
   55MOL0     C 7505   6.431   1.047   1.897 -0.6177 -0.4285 -0.2416
   55MOL0     C 7506   6.295   1.039   1.939 -0.1275  0.2102 -0.5419
   55MOL0     C 7507   5.891   0.813   1.995  0.1822 -0.4425 -0.6046
   55MOL0     C 7508   5.846   0.684   1.966 -0.6442 -0.6227 -0.0424
   55MOL0     C 7509   5.711   0.656   1.962  0.1288  0.4467 -0.2914
   55MOL0     C 7510   5.613   0.749   2.006  0.4318 -0.1468  0.4658
   55MOL0     O 7511   5.482   0.722   2.009  0.7676 -0.8734 -0.4487
   55MOL0     C 7512   5.437   0.587   2.029 -0.8408 -0.1026  0.1988
   55MOL0     C 7513   5.292   0.597   2.058 -0.3421  0.2271  0.5684
   55MOL0     C 7514   5.208   0.609   1.934  0.2024  0.3693  0.7964
   55MOL0     C 7515   5.180   0.466   1.875 -0.1290 -1.0988 -1.0105
   55MOL0     C 7516   5.058   0.478   1.800  0.9380 -0.0685  0.3883
   55MOL0     C 7517   4.955   0.470   1.737  0.6924 -0.4299 -0.2848
   55MOL0     C 7518   5.655   0.880   2.026 -0.6108  0.0644  0.1834
   55MOL0     C 7519   5.790   0.911   2.025  0.1815 -0.5468  0.6837
   55MOL0     C 7520   5.827   1.054   2.054  0.5326 -0.2105 -0.5578
   55MOL0     H 7521   6.212   0.771   1.733  0.7249 -0.1838 -0.2140
   55MOL0     H 7522   6.448   0.796   1.679 -0.6474  0.1513  0.4825
   55MOL0     H 7523   6.654   0.861   1.618  0.6981  2.9354 -2.0070
   55MOL0     H 7524   6.704   0.820   1.791 -0.8354  0.8707  1.3580
   55MOL0     H 7525   6.885   0.878   1.625  0.7306 -0.0239  1.3980
   55MOL0     H 7526   6.821   1.046   1.633 -0.0946  0.6170 -0.8681
   55MOL0     H 7527   6.899   1.071   1.854  0.2788  0.5386 -1.3464
   55MOL0     H 7528   6.927   0.900   1.893  2.5296  0.9036  1.2962
   55MOL0     H 7529   7.096   0.901   1.687 -2.4817 -0.0232 -1.4056
   55MOL0     H 7530   7.050   1.067   1.664  1.4503 -0.3406 -0.1081
   55MOL0     H 7531   7.137   1.136   1.872 -2.3766 -0.3139 -1.4725
   55MOL0     H 7532   7.260   1.052   1.775 -2.0856 -0.1912 -3.3187
   55MOL0     H 7533   7.101   0.937   2.014 -2.1031  2.1303 -3.6835
   55MOL0     H 7534   7.212   0.844   1.926  0.4319  0.5609  0.4495
   55MOL0     H 7535   7.288   0.959   2.150 -3.9969  0.4022  0.0196
   55MOL0     H 7536   7.254   1.113   2.084  0.0317 -0.0771  2.6237
   55MOL0     H 7537   7.505   1.028   2.091  0.8055 -2.5095 -1.3908
   55MOL0     H 7538   7.465   0.939   1.956  1.3578  0.3603 -0.0844
   55MOL0     H 7539   7.318   1.301   1.966 -0.1306  4.6947 -2.3516
   55MOL0     H 7540   7.502   1.496   1.686  0.5227  0.1457  2.5613
   55MOL0     H 7541   7.362   1.509   1.785 -0.8747  0.7069 -2.1571
   55MOL0     H 7542   7.388   1.321   1.537 -2.9259 -1.3548 -1.2857
   55MOL0     H 7543   7.237   1.351   1.617  0.0455 -0.5961 -1.8282
   55MOL0     H 7544   7.226   1.587   1.553 -1.6164 -0.8369 -3.3070
   55MOL0     H 7545   7.399   1.593   1.517  0.2504  0.8622 -4.0935
   55MOL0     H 7546   7.365   1.433   1.342 -0.2067 -0.2292  1.2853
   55MOL0     H 7547   7.193   1.419   1.398 -0.3914 -0.2303  2.3753
   55MOL0     H 7548   7.459   1.539   1.193 -0.7686 -0.2889 -0.6778
   55MOL0     H 7549   7.735   1.675   1.099 -0.6723  1.8539  0.2294
   55MOL0     H 7550   7.645   1.731   0.958  0.7918  0.0732  0.2167
   55MOL0     H 7551   7.614   1.576   1.013  0.3139 -1.9552  2.6867
   55MOL0     H 7552   7.984   1.928   1.018  1.4424  1.2700  1.1649
   55MOL0     H 7553   8.135   2.083   0.892  0.8965  1.6692 -2.3224
   55MOL0     H 7554   8.246   2.263   0.764  0.4184 -2.2595  0.9094
   55MOL0     H 7555   8.193   2.119   0.697  0.8716 -0.3350  0.4297
   55MOL0     H 7556   8.336   2.203   0.533 -0.0195 -0.0943  0.3457
   55MOL0     H 7557   8.170   2.252   0.471  0.3257 -3.9394 -0.0826
   55MOL0     H 7558   8.210   2.477   0.626  1.2266  0.5565 -0.3499
   55MOL0     H 7559   8.244   2.457   0.459  0.3891 -0.0426 -0.0368
   55MOL0     H 7560   8.480   2.419   0.492 -0.6925  0.2447 -1.6994
   55MOL0     H 7561   8.461   2.407   0.679  1.1559 -0.1375 -1.7211
   55MOL0     H 7562   8.417   2.651   0.504 -0.9757  3.0782  0.7638
   55MOL0     H 7563   8.391   2.638   0.679  1.0224 -0.2951  0.7774
   55MOL0     H 7564   8.647   2.570   0.552 -3.1807 -4.6276  0.7416
   55MOL0     H 7565   8.636   2.595   0.721 -0.7326  1.8551  1.0701
   55MOL0     H 7566   8.558   2.819   0.530  0.3803  0.5032 -1.0165
   55MOL0     H 7567   8.723   2.789   0.557 -0.1601 -0.4411 -0.2421
   55MOL0     H 7568   8.549   2.832   0.798  2.8017 -1.3483  3.2988
   55MOL0     H 7569   8.614   2.969   0.701 -1.9106  0.2262 -1.1237
   55MOL0     H 7570   7.803   2.293   0.732 -1.3041  0.1892  0.2818
   55MOL0     H 7571   7.649   2.148   0.866 -0.1664 -1.4454 -0.5406
   55MOL0     H 7572   7.389   2.024   1.234  1.7222  0.3778 -1.2141
   55MOL0     H 7573   7.216   1.854   1.325 -0.8645 -0.2522 -1.5156
   55MOL0     H 7574   6.508   1.115   1.931  1.7084 -2.9922 -0.0468
   55MOL0     H 7575   6.259   1.112   2.011  0.3946  1.8399 -1.8583
   55MOL0     H 7576   5.922   0.613   1.936  0.9593  1.3481 -0.8395
   55MOL0     H 7577   5.685   0.554   1.936  1.4314  0.1576 -0.5186
   55MOL0     H 7578   5.455   0.522   1.943  4.7820  2.9670 -1.4570
   55MOL0     H 7579   5.486   0.556   2.122 -1.3641 -2.5217 -0.2464
   55MOL0     H 7580   5.270   0.687   2.116  1.9380  1.2134  0.0154
   55MOL0     H 7581   5.255   0.513   2.119  0.7354  1.4655  3.0790
   55MOL0     H 7582   5.111   0.654   1.958  0.1627  2.1034 -2.0625
   55MOL0     H 7583   5.242   0.676   1.854  0.7625  0.3589  1.0217
   55MOL0     H 7584   5.156   0.398   1.957  0.2460 -0.2975 -0.2193
   55MOL0     H 7585   5.270   0.434   1.821  0.6416  1.5475 -1.4495
   55MOL0     H 7586   4.865   0.460   1.680 -0.0678  0.3712  0.7192
   55MOL0     H 7587   5.581   0.957   2.043 -0.9265  0.0196 -0.9054
   55MOL0     H 7588   5.935   1.066   2.068  0.5257 -1.7713  1.3531
   55MOL0     H 7589   5.781   1.112   1.974 -1.9431 -2.6513 -1.0549
   55MOL0     H 7590   5.783   1.080   2.151  1.0328 -2.1284  0.2228
   56MOL0     O 7591   4.517  10.466  11.295 -0.1404  0.2006 -0.3705
   56MOL0     C 7592   4.434  10.539  11.255 -0.3663  0.3966  0.5514
   56MOL0     O 7593   4.445  10.672  11.230 -0.6783 -0.1059  0.8258
   56MOL0     C 7594   4.570  10.738  11.234  0.2421  0.8494  0.6099
   56MOL0     C 7595   4.676  10.717  11.330 -1.0560 -0.2122  0.2732
   56MOL0     C 7596   4.798  10.795  11.312  0.8233  0.2804 -1.1944
   56MOL0     C 7597   4.810  10.908  11.225  0.3462  0.0366 -0.4049
   56MOL0     O 7598   4.902  11.005  11.243 -0.0901  0.4644 -1.0406
   56MOL0     C 7599   4.987  10.988  11.359 -0.3756  0.3450  0.8712
   56MOL0     C 7600   5.075  11.122  11.360  0.4814 -0.5828 -0.6144
   56MOL0     C 7601   5.142  11.135  11.492 -0.1027 -0.0931  0.5331
   56MOL0     C 7602   5.199  11.275  11.511  0.3358  0.4718  0.4983
   56MOL0     C 7603   5.304  11.269  11.609 -0.3009 -0.4414 -0.1015
   56MOL0     C 7604   5.261  11.228  11.758  0.2331 -0.3250 -0.0233
   56MOL0     C 7605   5.128  11.300  11.805 -0.0575 -0.7622 -0.1769
   56MOL0     C 7606   5.076  11.221  11.922 -0.1305 -0.7088 -0.4818
   56MOL0     N 7607   5.167  11.224  12.041  0.3996  0.5287 -0.2700
   56MOL0     C 7608   5.213  11.335  12.110  0.8960 -0.0009  0.9822
   56MOL0     C 7609   5.297  11.279  12.199 -0.9117 -0.7457 -0.5724
   56MOL0     C 7610   5.369  11.351  12.305  0.7396  0.4842 -0.2737
   56MOL0     C 7611   5.521  11.314  12.299  0.4707  0.2624 -0.2453
   56MOL0     C 7612   5.594  11.427  12.366  0.3028 -0.4597 -0.1283
   56MOL0     C 7613   5.746  11.405  12.348 -0.2322 -0.7822 -1.3234
   56MOL0     O 7614   5.790  11.276  12.403 -0.5806 -0.1261  0.2468
   56MOL0     C 7615   5.919  11.242  12.395 -0.2764  0.0856 -0.2080
   56MOL0     C 7616   5.987  11.196  12.518  0.6782  0.2784  0.4323
   56MOL0     C 7617   6.124  11.179  12.532  0.4577  0.3274 -0.1945
   56MOL0     C 7618   6.155  11.114  12.663  0.2133  1.1413 -0.5591
   56MOL0     C 7619   6.201  11.174  12.417 -0.9200  0.5993 -0.7629
   56MOL0     C 7620   6.344  11.151  12.422  0.3013 -0.0591  0.1352
   56MOL0     O 7621   6.411  11.196  12.529 -0.7271 -0.1956 -0.2248
   56MOL0     C 7622   6.543  11.167  12.546 -0.4759  0.2980 -0.2598
   56MOL0     C 7623   6.634  11.267  12.535 -0.4603  0.7063  0.3510
   56MOL0     C 7624   6.767  11.243  12.545  1.3067  0.2086 -0.0530
   56MOL0     C 7625   6.807  11.118  12.582 -0.1973  0.0415  0.3162
   56MOL0     O 7626   6.945  11.089  12.607  0.4211 -0.8156  0.2613
   56MOL0     C 7627   7.043  11.180  12.582 -0.1364  0.2360 -0.8245
   56MOL0     C 7628   7.174  11.124  12.638  0.7986 -0.8379  0.1916
   56MOL0     C 7629   7.210  10.991  12.579 -0.6887 -0.3281 -0.4937
   56MOL0     C 7630   7.360  10.978  12.601  0.6335  0.4933 -0.3800
   56MOL0     C 7631   7.412  10.849  12.531  0.0186  0.4332  0.2980
   56MOL0     C 7632   7.388  10.855  12.377 -0.6215 -0.4125 -0.3657
   56MOL0     C 7633   7.436  10.726  12.331 -0.0584  0.9540  0.0679
   56MOL0     C 7634   7.417  10.700  12.184 -1.0785 -0.2015 -1.4107
   56MOL0    Cl 7635   7.253  10.719  12.127  0.2078  0.1306 -0.5568
   56MOL0     C 7636   6.718  11.013  12.597 -0.5276  0.8515  0.0510
   56MOL0     C 7637   6.577  11.036  12.576 -0.0778  0.1118  0.0448
   56MOL0     O 7638   6.392  11.090  12.328  0.1846 -0.0047  0.5957
   56MOL0     C 7639   6.131  11.203  12.293  0.0919  0.2829 -0.2231
   56MOL0     C 7640   5.998  11.247  12.282  0.5781 -0.2245  0.1111
   56MOL0     N 7641   5.306  11.140  12.180 -0.7370 -0.1996  0.6813
   56MOL0     N 7642   5.216  11.103  12.088 -0.4391 -0.3937 -0.4821
   56MOL0     C 7643   4.711  10.912  11.130 -0.9520 -0.3242 -1.2225
   56MOL0     C 7644   4.591  10.837  11.139  0.2278  0.0206 -0.9970
   56MOL0     C 7645   4.298  10.486  11.248  0.5962  0.7838 -0.3773
   56MOL0     C 7646   4.191  10.576  11.267  0.2848  0.3214  0.4735
   56MOL0     C 7647   4.063  10.547  11.247 -0.1715  0.2372 -0.3761
   56MOL0     C 7648   4.019  10.415  11.250 -0.1621 -0.8544  0.3261
   56MOL0     O 7649   3.883  10.380  11.270 -0.1177 -0.3468 -0.1482
   56MOL0     C 7650   3.785  10.477  11.310 -0.4733  0.5124 -0.1912
   56MOL0     C 7651   3.661  10.407  11.351  0.0796 -0.4397 -0.0514
   56MOL0     C 7652   3.547  10.506  11.363 -0.4222 -0.7725 -0.3690
   56MOL0     C 7653   3.507  10.565  11.225  0.3186 -0.1158  0.1483
   56MOL0     C 7654   3.550  10.703  11.202 -0.3897 -0.7658  0.3879
   56MOL0     C 7655   3.582  10.821  11.198  0.2929  0.7218  0.3623
   56MOL0     C 7656   4.116  10.313  11.244 -0.5665 -0.3687 -0.0313
   56MOL0     C 7657   4.255  10.348  11.235  0.6272  0.1303  0.0305
   56MOL0     C 7658   4.350  10.229  11.236  0.6599 -0.1771  0.8568
   56MOL0     H 7659   4.665  10.644  11.410  1.5613 -1.4590 -0.4141
   56MOL0     H 7660   4.871  10.773  11.389 -0.8732 -2.6622 -0.2642
   56MOL0     H 7661   5.057  10.904  11.347 -0.9709 -0.2698  1.6287
   56MOL0     H 7662   4.925  10.963  11.446 -1.7912 -0.3884 -0.3054
   56MOL0     H 7663   5.152  11.108  11.284  0.8328  0.5167 -0.4771
   56MOL0     H 7664   5.009  11.206  11.339  1.3091  0.3712  0.4630
   56MOL0     H 7665   5.071  11.121  11.574  0.3786 -2.9873  0.5587
   56MOL0     H 7666   5.216  11.055  11.501  1.8436  1.5090 -0.4457
   56MOL0     H 7667   5.249  11.310  11.420 -3.9127 -0.5060 -2.4741
   56MOL0     H 7668   5.118  11.348  11.522  0.6763  0.9554 -0.1557
   56MOL0     H 7669   5.340  11.373  11.616 -0.6272  0.1835 -4.5400
   56MOL0     H 7670   5.378  11.198  11.572 -1.1492 -0.7546 -1.2310
   56MOL0     H 7671   5.234  11.122  11.764 -0.8224 -0.1289 -1.0275
   56MOL0     H 7672   5.345  11.254  11.822 -1.3495 -1.4140  2.6750
   56MOL0     H 7673   5.043  11.291  11.736 -1.9096 -0.6319  1.9820
   56MOL0     H 7674   5.142  11.400  11.848 -0.0095 -1.3534  1.2026
   56MOL0     H 7675   4.980  11.255  11.963 -1.0722 -3.2328 -0.3962
   56MOL0     H 7676   5.053  11.118  11.891 -0.7553  0.6566 -5.3831
   56MOL0     H 7677   5.186  11.439  12.100  1.0327 -0.1228 -1.0878
   56MOL0     H 7678   5.326  11.329  12.404 -0.3512  0.2341 -0.7912
   56MOL0     H 7679   5.352  11.459  12.296  0.5995  0.5416  0.5841
   56MOL0     H 7680   5.539  11.213  12.335 -2.0617 -0.7031 -1.4246
   56MOL0     H 7681   5.547  11.317  12.193  0.1174 -0.4758 -0.3593
   56MOL0     H 7682   5.557  11.521  12.325 -2.5727 -0.1317  2.7766
   56MOL0     H 7683   5.575  11.432  12.474  4.0745  1.2795  0.5986
   56MOL0     H 7684   5.762  11.414  12.240  1.2104 -1.5354 -1.1903
   56MOL0     H 7685   5.805  11.484  12.395 -0.3070 -2.0087  0.9940
   56MOL0     H 7686   5.929  11.184  12.610  2.3323 -0.3107  1.4382
   56MOL0     H 7687   6.167  11.191  12.740 -0.0975  0.0942  0.5731
   56MOL0     H 7688   6.243  11.050  12.647 -0.9555  0.1105 -3.6238
   56MOL0     H 7689   6.074  11.047  12.693  0.9792  0.6342  0.4554
   56MOL0     H 7690   6.589  11.364  12.518 -0.4863  0.9887  1.9090
   56MOL0     H 7691   6.841  11.321  12.536  1.4007  0.1272  0.0129
   56MOL0     H 7692   7.055  11.207  12.476  2.5610  1.3464 -0.3381
   56MOL0     H 7693   7.025  11.274  12.635  2.8784  0.5784 -0.2219
   56MOL0     H 7694   7.240  11.207  12.612 -2.2913  2.0611  0.8730
   56MOL0     H 7695   7.172  11.122  12.747 -0.4681  0.4231  0.2199
   56MOL0     H 7696   7.177  10.982  12.475  2.6108 -1.9723 -1.5255
   56MOL0     H 7697   7.162  10.914  12.640  2.5263 -2.0489  0.1019
   56MOL0     H 7698   7.375  10.983  12.709 -1.7002  1.4969 -0.0535
   56MOL0     H 7699   7.406  11.068  12.558 -0.1312  1.9222  1.6639
   56MOL0     H 7700   7.521  10.835  12.536 -0.0468 -1.7767 -2.5512
   56MOL0     H 7701   7.357  10.762  12.567 -4.9385  2.7707 -0.8921
   56MOL0     H 7702   7.432  10.935  12.316  1.3010 -2.1740 -1.4207
   56MOL0     H 7703   7.279  10.851  12.366 -0.5701  0.0145 -1.1379
   56MOL0     H 7704   7.391  10.650  12.394  0.6396  0.7096  0.2815
   56MOL0     H 7705   7.545  10.726  12.341  0.0497 -0.8510 -0.7490
   56MOL0     H 7706   7.454  10.600  12.162  1.1288 -0.6145  2.9803
   56MOL0     H 7707   7.487  10.758  12.123 -0.0711  0.6464  0.4350
   56MOL0     H 7708   6.760  10.922  12.639  1.8404  0.3034 -3.0745
   56MOL0     H 7709   6.503  10.959  12.591  0.3714 -0.4188 -0.4123
   56MOL0     H 7710   6.190  11.185  12.204  1.7159  2.6438  0.2779
   56MOL0     H 7711   5.958  11.273  12.185 -3.2322 -1.3934  1.1719
   56MOL0     H 7712   4.723  10.988  11.053  2.4944  0.0832 -0.4742
   56MOL0     H 7713   4.505  10.860  11.076 -2.6248 -2.5829  1.6025
   56MOL0     H 7714   4.208  10.682  11.281  4.2182 -0.0514 -0.2139
   56MOL0     H 7715   3.994  10.630  11.240 -1.8850 -1.0122  0.6936
   56MOL0     H 7716   3.823  10.528  11.399  3.0542  0.7667 -1.6681
   56MOL0     H 7717   3.767  10.545  11.226 -0.4406 -0.5712 -1.1001
   56MOL0     H 7718   3.681  10.365  11.450 -2.7069 -1.1085  0.3139
   56MOL0     H 7719   3.628  10.329  11.281 -0.0808 -1.1222  0.7716
   56MOL0     H 7720   3.456  10.464  11.407 -1.6115 -0.0971 -2.0965
   56MOL0     H 7721   3.587  10.590  11.420  0.2325 -1.8654  0.8610
   56MOL0     H 7722   3.399  10.578  11.230  0.3639  0.1938  0.3119
   56MOL0     H 7723   3.524  10.501  11.138 -2.3232  1.3144 -1.5728
   56MOL0     H 7724   3.623  10.920  11.197  0.7509  0.5349  0.4059
   56MOL0     H 7725   4.076  10.212  11.242 -2.5219  0.3553 -1.9927
   56MOL0     H 7726   4.445  10.255  11.188  1.0067  0.0670  1.6558
   56MOL0     H 7727   4.364  10.178  11.332 -1.2920 -4.1447 -0.7330
   56MOL0     H 7728   4.313  10.148  11.172  0.9721  1.9329 -2.2613
   57MOL0     O 7729   9.967   6.464   9.329  0.6250  0.3330  0.5285
   57MOL0     C 7730   9.845   6.453   9.297 -0.3074  0.7154  1.1411
   57MOL0     O 7731   9.739   6.439   9.383 -0.0687  0.6646  0.5294
   57MOL0     C 7732   9.781   6.476   9.503 -0.8840  0.4401  0.1205
   57MOL0     C 7733   9.818   6.606   9.548 -1.2228 -0.4431  0.2153
   57MOL0     C 7734   9.857   6.635   9.675  0.4437 -0.4328 -0.5520
   57MOL0     C 7735   9.863   6.534   9.767 -0.4027  0.1252 -0.7337
   57MOL0     O 7736   9.902   6.582   9.890 -0.7078 -0.2883 -0.7213
   57MOL0     C 7737   9.877   6.487  10.001 -0.2470 -1.0842 -0.4350
   57MOL0     C 7738   9.913   6.553  10.137  0.4014 -0.2064 -0.3804
   57MOL0     C 7739   9.910   6.448  10.250  0.7472 -0.9176  0.0953
   57MOL0     C 7740   9.928   6.514  10.384 -0.4450 -0.5871 -0.0987
   57MOL0     C 7741   9.894   6.427  10.505  0.4259 -0.4501  0.2106
   57MOL0     C 7742  10.010   6.328  10.529  0.2218  0.0012 -0.2679
   57MOL0     C 7743   9.982   6.230  10.649  0.5035 -0.8911 -0.3230
   57MOL0     C 7744  10.031   6.295  10.772 -0.2406 -0.1226  0.2828
   57MOL0     N 7745  10.034   6.200  10.891 -0.0101  0.2575 -0.1623
   57MOL0     C 7746  10.155   6.160  10.951  0.6378 -0.0461  0.4275
   57MOL0     C 7747  10.116   6.105  11.067  0.4118 -0.6070  0.3077
   57MOL0     C 7748  10.203   6.052  11.176  0.2062 -0.1932  0.6203
   57MOL0     C 7749  10.207   6.170  11.275  0.4123  0.1239 -0.3848
   57MOL0     C 7750  10.316   6.137  11.383  0.0965 -0.6704  0.1589
   57MOL0     C 7751  10.383   6.266  11.444  0.6384 -0.1069 -0.7995
   57MOL0     O 7752  10.502   6.228  11.516 -0.0080 -0.4646 -0.6495
   57MOL0     C 7753  10.583   6.330  11.565 -0.5074  0.1281  0.4412
   57MOL0     C 7754  10.700   6.287  11.628 -0.3254  0.5744  0.6571
   57MOL0     C 7755  10.794   6.376  11.675 -0.7110 -0.2008  0.9330
   57MOL0     C 7756  10.925   6.326  11.738  0.1092 -0.3603  0.2503
   57MOL0     C 7757  10.772   6.520  11.652  0.2154  0.6647 -0.1486
   57MOL0     C 7758  10.863   6.627  11.689  0.2300 -0.5110 -0.1563
   57MOL0     O 7759  10.849   6.744  11.616 -0.3191 -0.4731 -0.4396
   57MOL0     C 7760  10.954   6.835  11.603 -0.0101 -0.7377 -0.2942
   57MOL0     C 7761  10.922   6.963  11.550  0.0169 -0.2793  0.6645
   57MOL0     C 7762  11.010   7.069  11.561  0.7438 -0.4319 -0.0115
   57MOL0     C 7763  11.128   7.059  11.624 -0.3941 -0.3258 -0.5804
   57MOL0     O 7764  11.197   7.174  11.633  0.0849  0.8467  0.1257
   57MOL0     C 7765  11.323   7.172  11.694 -0.7412  0.0835 -0.4862
   57MOL0     C 7766  11.432   7.193  11.595 -0.0931 -0.7649  0.3930
   57MOL0     C 7767  11.570   7.163  11.645 -0.3989 -0.1026 -0.6899
   57MOL0     C 7768  11.678   7.223  11.563 -0.3625  0.3612  0.2243
   57MOL0     C 7769  11.818   7.203  11.634 -0.4530 -0.0156  0.1438
   57MOL0     C 7770  11.936   7.270  11.561 -0.1528 -0.2704 -0.1879
   57MOL0     C 7771  12.054   7.285  11.658 -0.3831  0.1889  0.9039
   57MOL0     C 7772  12.186   7.335  11.582  0.1918  0.2456  0.3264
   57MOL0    Cl 7773  12.224   7.212  11.457 -0.1869 -0.4099  0.2352
   57MOL0     C 7774  11.175   6.933  11.662 -0.2715 -0.1185  0.5410
   57MOL0     C 7775  11.085   6.820  11.645 -0.2210  0.1180 -0.3669
   57MOL0     O 7776  10.933   6.616  11.786 -0.1063  0.4557 -0.9390
   57MOL0     C 7777  10.651   6.562  11.599 -0.9893  1.0301  0.6608
   57MOL0     C 7778  10.554   6.472  11.552  0.5118 -0.3316  0.9744
   57MOL0     N 7779   9.976   6.113  11.082 -0.3286 -0.3453  0.4380
   57MOL0     N 7780   9.931   6.172  10.979  0.6983 -0.1849 -0.4034
   57MOL0     C 7781   9.811   6.402   9.730  0.5707 -0.3081 -0.3771
   57MOL0     C 7782   9.780   6.374   9.599 -0.4576  0.3582 -0.6425
   57MOL0     C 7783   9.828   6.432   9.149  0.1732 -0.7462  1.2270
   57MOL0     C 7784   9.714   6.362   9.102 -0.6721  0.0931 -0.7127
   57MOL0     C 7785   9.672   6.372   8.972 -0.4943  0.4830 -0.2927
   57MOL0     C 7786   9.767   6.422   8.876  0.6575 -0.1563 -0.5038
   57MOL0     O 7787   9.755   6.418   8.740 -0.1140 -0.4315 -0.1404
   57MOL0     C 7788   9.636   6.351   8.681  0.6230 -0.0122  0.3210
   57MOL0     C 7789   9.517   6.446   8.676  0.6344 -0.7802 -0.1173
   57MOL0     C 7790   9.546   6.581   8.602  0.2430 -0.3886  0.6873
   57MOL0     C 7791   9.456   6.697   8.649  0.7230  0.9009 -0.9108
   57MOL0     C 7792   9.314   6.654   8.619 -0.3013 -0.2875 -0.1540
   57MOL0     C 7793   9.205   6.622   8.590 -0.0172 -0.3490 -0.1680
   57MOL0     C 7794   9.887   6.474   8.919 -0.3613  0.4900 -0.3563
   57MOL0     C 7795   9.917   6.485   9.047  0.1981  0.4395 -0.1553
   57MOL0     C 7796  10.043   6.570   9.081  0.4421 -0.2510 -0.3102
   57MOL0     H 7797   9.821   6.689   9.478 -1.9033  1.1624  1.9855
   57MOL0     H 7798   9.869   6.738   9.708  0.0898 -0.8592  1.0077
   57MOL0     H 7799   9.949   6.405   9.995  1.5234  0.3632  0.3224
   57MOL0     H 7800   9.771   6.459  10.000 -0.1743 -1.3434 -1.7558
   57MOL0     H 7801  10.010   6.602  10.122  1.3562 -2.4497 -1.9724
   57MOL0     H 7802   9.841   6.634  10.154  0.0701 -0.8220  1.3515
   57MOL0     H 7803   9.812   6.399  10.244 -0.2450  0.9579 -0.0382
   57MOL0     H 7804   9.987   6.372  10.234  2.3133  0.8273 -0.9943
   57MOL0     H 7805  10.024   6.565  10.395 -0.8064  0.2516 -0.7389
   57MOL0     H 7806   9.870   6.607  10.379  0.7264  0.2090  0.3456
   57MOL0     H 7807   9.801   6.373  10.482 -1.7549  2.6134  1.1679
   57MOL0     H 7808   9.878   6.490  10.593 -1.8968  0.5880 -0.8631
   57MOL0     H 7809  10.028   6.272  10.437  0.5945 -1.0140  0.3986
   57MOL0     H 7810  10.109   6.370  10.543  0.0277 -0.2897  2.8614
   57MOL0     H 7811  10.040   6.140  10.628  1.6775  0.0543 -1.2797
   57MOL0     H 7812   9.875   6.206  10.646  0.4999 -0.9540  0.1439
   57MOL0     H 7813  10.132   6.339  10.774 -0.3092  0.0197  1.4608
   57MOL0     H 7814   9.962   6.376  10.797  0.9120  1.1691 -0.5613
   57MOL0     H 7815  10.258   6.173  10.919  0.8394  2.7197  1.9750
   57MOL0     H 7816  10.304   6.029  11.143  0.0425 -2.4299  1.5292
   57MOL0     H 7817  10.159   5.957  11.206 -1.2910 -0.6924 -2.7617
   57MOL0     H 7818  10.233   6.261  11.221  2.0803 -1.4773 -2.5150
   57MOL0     H 7819  10.110   6.180  11.323  0.3806 -1.7263  0.0149
   57MOL0     H 7820  10.282   6.077  11.468  1.1980  0.8428  1.7673
   57MOL0     H 7821  10.396   6.075  11.342  0.6461  1.0774 -1.5842
   57MOL0     H 7822  10.399   6.340  11.366  0.6654  0.4774 -0.2473
   57MOL0     H 7823  10.312   6.306  11.517  0.4868 -0.8847 -0.5076
   57MOL0     H 7824  10.728   6.183  11.630  1.6393  1.0413 -0.0156
   57MOL0     H 7825  11.016   6.379  11.707 -0.0948  0.2643  0.6976
   57MOL0     H 7826  10.931   6.220  11.713 -0.2094 -0.3229  0.0094
   57MOL0     H 7827  10.925   6.337  11.846  1.1749 -2.3780  0.5050
   57MOL0     H 7828  10.825   6.981  11.504 -0.2331 -0.4574  1.1185
   57MOL0     H 7829  10.985   7.167  11.523 -0.6603 -1.6444 -2.4235
   57MOL0     H 7830  11.332   7.250  11.770  3.7780 -1.8659  1.3695
   57MOL0     H 7831  11.349   7.086  11.756  0.8560  2.0771  1.7671
   57MOL0     H 7832  11.406   7.125  11.515 -1.3007  1.8141 -1.5568
   57MOL0     H 7833  11.431   7.296  11.559  1.8612 -0.1945  1.7448
   57MOL0     H 7834  11.571   7.054  11.647  0.2315 -0.2050 -3.3406
   57MOL0     H 7835  11.574   7.210  11.744 -2.4943 -2.8761  0.8515
   57MOL0     H 7836  11.666   7.331  11.556  3.5225  0.8424 -1.8430
   57MOL0     H 7837  11.686   7.185  11.461 -0.8924 -0.2162  0.3939
   57MOL0     H 7838  11.817   7.253  11.732 -0.8573  0.5053 -0.1169
   57MOL0     H 7839  11.832   7.097  11.653  1.2017  0.4280  1.6837
   57MOL0     H 7840  11.909   7.372  11.535  0.2702 -0.5825 -1.9462
   57MOL0     H 7841  11.957   7.209  11.473  1.7410 -1.2747  0.8897
   57MOL0     H 7842  12.062   7.194  11.718 -2.9977  0.6362  2.0843
   57MOL0     H 7843  12.022   7.364  11.726 -2.7861  1.6705 -1.7131
   57MOL0     H 7844  12.261   7.341  11.662 -0.4073 -2.6674  1.2119
   57MOL0     H 7845  12.176   7.426  11.522 -0.8581  0.6138  1.0354
   57MOL0     H 7846  11.274   6.915  11.702  0.5412 -0.1989 -1.4298
   57MOL0     H 7847  11.129   6.724  11.670 -0.2361 -0.2337 -1.5887
   57MOL0     H 7848  10.628   6.668  11.586 -0.3317  1.1440  0.4255
   57MOL0     H 7849  10.473   6.511  11.491  1.2189 -1.1933 -0.5743
   57MOL0     H 7850   9.806   6.334   9.815  1.4367  1.3631  1.0829
   57MOL0     H 7851   9.754   6.271   9.577 -1.4964  0.4878 -0.1038
   57MOL0     H 7852   9.650   6.323   9.181 -1.5320  1.7394 -0.5564
   57MOL0     H 7853   9.579   6.327   8.942  0.7306 -1.6923 -1.0723
   57MOL0     H 7854   9.662   6.334   8.576  1.2291 -0.5228  0.5500
   57MOL0     H 7855   9.618   6.253   8.725 -0.5288 -0.2072 -0.5331
   57MOL0     H 7856   9.485   6.476   8.776 -0.6277  1.6460 -1.1569
   57MOL0     H 7857   9.429   6.402   8.627  0.8429 -1.2385 -0.0901
   57MOL0     H 7858   9.647   6.619   8.622  0.2417 -0.8330  1.5720
   57MOL0     H 7859   9.545   6.572   8.493  1.3681 -0.0797  0.6379
   57MOL0     H 7860   9.490   6.782   8.588  0.0942  1.0419 -1.0786
   57MOL0     H 7861   9.462   6.729   8.753 -2.5668  1.6245 -0.8168
   57MOL0     H 7862   9.111   6.571   8.585 -1.1498  1.4947  1.1283
   57MOL0     H 7863   9.966   6.498   8.848  0.2119  0.5489  0.2847
   57MOL0     H 7864  10.128   6.516   9.125 -0.0976 -1.3589 -0.5863
   57MOL0     H 7865  10.091   6.616   8.994  0.6149  1.1465  0.5033
   57MOL0     H 7866  10.018   6.652   9.149  0.7848  0.2299 -0.7578
   58MOL0     O 7867   8.265   8.712  10.993 -0.6299  0.4174  0.1304
   58MOL0     C 7868   8.239   8.725  10.876 -0.4627  0.2135  0.2049
   58MOL0     O 7869   8.321   8.791  10.786  0.0797  0.0798  0.7777
   58MOL0     C 7870   8.440   8.842  10.836  0.5435 -0.2216 -0.5225
   58MOL0     C 7871   8.452   8.979  10.858  1.0471  0.2001  0.0872
   58MOL0     C 7872   8.569   9.020  10.920 -0.0488  0.3204  0.3579
   58MOL0     C 7873   8.673   8.941  10.965  0.1260  0.2727  0.2616
   58MOL0     O 7874   8.779   9.013  11.019  0.8446 -0.0744 -0.1163
   58MOL0     C 7875   8.914   8.955  11.021 -0.3059 -0.2305 -0.1844
   58MOL0     C 7876   9.022   9.058  11.067 -0.2575 -0.2942  0.9259
   58MOL0     C 7877   9.153   8.983  11.104 -0.1348  0.2206 -0.5294
   58MOL0     C 7878   9.252   9.092  11.147 -0.2000 -0.6635 -0.3838
   58MOL0     C 7879   9.386   9.043  11.197  0.1946 -0.2495 -0.1955
   58MOL0     C 7880   9.479   9.162  11.238 -0.5676  0.1963 -0.8415
   58MOL0     C 7881   9.607   9.105  11.291  0.5024  0.5268  0.0208
   58MOL0     C 7882   9.694   9.220  11.341 -0.6132  0.5555  0.4314
   58MOL0     N 7883   9.825   9.153  11.384  0.7429 -0.1157 -0.0861
   58MOL0     C 7884   9.840   9.106  11.512  0.0572  0.0816 -0.1665
   58MOL0     C 7885   9.951   9.035  11.492 -1.1428 -0.4029  0.9470
   58MOL0     C 7886  10.014   8.956  11.603 -0.4389  0.3756 -0.1974
   58MOL0     C 7887  10.161   8.901  11.576  0.2200 -0.0300  1.0434
   58MOL0     C 7888  10.259   8.936  11.693  0.2176 -0.6345  0.2739
   58MOL0     C 7889  10.406   8.900  11.663 -0.1619 -0.9747 -0.7943
   58MOL0     O 7890  10.433   8.775  11.724  0.1885  0.6690 -0.6392
   58MOL0     C 7891  10.563   8.730  11.738 -0.1775 -0.8064  0.6971
   58MOL0     C 7892  10.673   8.810  11.760 -0.0241 -0.3554 -0.0406
   58MOL0     C 7893  10.797   8.756  11.782 -0.9795  0.1157  0.3139
   58MOL0     C 7894  10.915   8.855  11.798  1.0915 -0.1613 -0.5693
   58MOL0     C 7895  10.827   8.622  11.783  0.3349 -0.1265  0.4682
   58MOL0     C 7896  10.960   8.570  11.797 -0.8227 -0.1568  0.2765
   58MOL0     O 7897  11.030   8.605  11.911 -0.7104  0.2940  1.0829
   58MOL0     C 7898  11.163   8.572  11.919 -1.2476 -0.3975 -0.6091
   58MOL0     C 7899  11.260   8.611  11.821  0.7603 -0.3981 -0.2738
   58MOL0     C 7900  11.396   8.601  11.852 -0.6597  1.1184  0.5917
   58MOL0     C 7901  11.445   8.533  11.967 -0.1954 -0.7958 -0.7273
   58MOL0     O 7902  11.571   8.496  11.999  0.5745 -0.5344 -0.7251
   58MOL0     C 7903  11.672   8.553  11.923 -0.6079 -0.5000  0.1291
   58MOL0     C 7904  11.800   8.521  11.983 -0.7736 -0.7771  0.1524
   58MOL0     C 7905  11.872   8.628  12.073 -0.2952  0.5245  0.0811
   58MOL0     C 7906  11.948   8.729  11.976  0.2424  0.3677 -0.0066
   58MOL0     C 7907  12.044   8.812  12.055 -0.8820 -0.1657 -1.0367
   58MOL0     C 7908  11.977   8.895  12.163 -0.0158  0.2802  0.6123
   58MOL0     C 7909  12.062   8.999  12.228 -0.0304  0.1280  0.0997
   58MOL0     C 7910  12.023   9.018  12.378  0.5262 -0.5454  0.9246
   58MOL0    Cl 7911  11.859   9.097  12.387  0.3020  0.4263  0.1159
   58MOL0     C 7912  11.350   8.485  12.056 -0.2599  0.0804 -0.2940
   58MOL0     C 7913  11.215   8.503  12.030  0.5039 -0.7690  0.1230
   58MOL0     O 7914  11.000   8.506  11.701 -0.0828 -0.1808  0.7774
   58MOL0     C 7915  10.717   8.537  11.751  0.1794  0.1554  0.3318
   58MOL0     C 7916  10.591   8.594  11.720  0.4092  0.0596  0.8780
   58MOL0     N 7917   9.998   9.046  11.355  0.1718 -0.2690  0.3493
   58MOL0     N 7918   9.905   9.107  11.289 -0.2904 -0.3079 -0.2379
   58MOL0     C 7919   8.666   8.805  10.931 -0.0349  0.1576 -0.3868
   58MOL0     C 7920   8.546   8.757  10.857 -0.3936  0.3389  0.0981
   58MOL0     C 7921   8.118   8.674  10.818 -0.5335 -0.4462 -1.1430
   58MOL0     C 7922   8.080   8.551  10.871  0.6516 -0.2571 -0.5785
   58MOL0     C 7923   7.978   8.481  10.809 -0.2370 -0.5903 -0.3248
   58MOL0     C 7924   7.911   8.532  10.699  0.0213 -0.3279 -0.7144
   58MOL0     O 7925   7.809   8.450  10.647 -1.1095  0.5788  0.0997
   58MOL0     C 7926   7.720   8.498  10.545 -0.2415 -0.0183 -0.4502
   58MOL0     C 7927   7.621   8.600  10.599 -0.1768  0.5243 -0.2179
   58MOL0     C 7928   7.533   8.655  10.495 -0.0078 -0.0260 -0.0955
   58MOL0     C 7929   7.420   8.752  10.537  0.3366 -0.2220  0.1307
   58MOL0     C 7930   7.327   8.762  10.428  0.2762  0.1782  0.3661
   58MOL0     C 7931   7.243   8.776  10.343 -0.3095  0.3034 -0.5409
   58MOL0     C 7932   7.945   8.653  10.648  1.0828  0.6373 -0.2471
   58MOL0     C 7933   8.046   8.731  10.705 -0.2092  0.1234 -0.7387
   58MOL0     C 7934   8.076   8.852  10.629 -0.0382 -0.6204 -0.0362
   58MOL0     H 7935   8.369   9.049  10.846  1.4896  0.8405  0.6740
   58MOL0     H 7936   8.587   9.127  10.919  0.2283  0.2902  1.2834
   58MOL0     H 7937   8.928   8.923  10.917 -1.4457 -0.7910 -0.1845
   58MOL0     H 7938   8.901   8.871  11.090 -3.5991 -1.4692 -2.0815
   58MOL0     H 7939   9.037   9.126  10.983 -1.5306 -1.5577 -0.3641
   58MOL0     H 7940   8.977   9.121  11.144 -1.8541  1.8907 -1.6257
   58MOL0     H 7941   9.136   8.912  11.185 -4.0234 -0.1873 -1.4820
   58MOL0     H 7942   9.198   8.924  11.024  3.2164 -1.6696  2.4532
   58MOL0     H 7943   9.265   9.161  11.064  0.8113 -2.5053 -1.8519
   58MOL0     H 7944   9.202   9.147  11.227  1.9291  0.2273  0.3752
   58MOL0     H 7945   9.438   8.992  11.116 -1.2700 -1.2017 -0.5733
   58MOL0     H 7946   9.370   8.972  11.279  2.2854 -0.4997  0.0471
   58MOL0     H 7947   9.501   9.231  11.157  1.0107 -1.6384 -2.0613
   58MOL0     H 7948   9.429   9.218  11.317 -1.5252  0.0065 -1.2920
   58MOL0     H 7949   9.655   9.060  11.203 -1.9741  3.2252 -2.9316
   58MOL0     H 7950   9.594   9.028  11.369  2.1211  0.9483  0.7454
   58MOL0     H 7951   9.717   9.287  11.258  0.8608  2.4583  2.2693
   58MOL0     H 7952   9.656   9.281  11.424  3.2203  0.0045  2.8572
   58MOL0     H 7953   9.777   9.120  11.599  1.7338 -0.6780  1.2248
   58MOL0     H 7954   9.946   8.872  11.617 -1.0468  0.6779 -1.2139
   58MOL0     H 7955  10.015   9.003  11.702 -0.8774 -1.2470  0.6116
   58MOL0     H 7956  10.171   8.792  11.577  0.4620 -0.0117  0.6198
   58MOL0     H 7957  10.202   8.933  11.480 -1.7153  0.1492  0.2196
   58MOL0     H 7958  10.261   9.043  11.714 -1.6373  0.1962 -3.1102
   58MOL0     H 7959  10.236   8.874  11.780  0.0299 -0.8170  0.0953
   58MOL0     H 7960  10.430   8.920  11.558  1.1037 -0.4455 -0.4335
   58MOL0     H 7961  10.463   8.977  11.716 -1.7616  1.6416 -2.6355
   58MOL0     H 7962  10.664   8.918  11.764  1.1558 -0.2905  2.0721
   58MOL0     H 7963  10.936   8.848  11.905  0.4553  0.7016 -0.3871
   58MOL0     H 7964  10.888   8.960  11.789 -0.0940 -0.0257  3.0820
   58MOL0     H 7965  10.997   8.826  11.732 -0.2469  0.3051 -2.5230
   58MOL0     H 7966  11.215   8.663  11.737  0.0786 -0.8696 -0.2053
   58MOL0     H 7967  11.460   8.649  11.779  0.7698 -0.5203  0.7184
   58MOL0     H 7968  11.656   8.508  11.825 -3.1661 -0.0396  0.2805
   58MOL0     H 7969  11.658   8.661  11.912 -0.0782 -0.5556 -1.3154
   58MOL0     H 7970  11.795   8.428  12.040 -0.8347 -0.4505  0.6951
   58MOL0     H 7971  11.870   8.486  11.907  1.6819 -0.1671  1.9746
   58MOL0     H 7972  11.933   8.582  12.151  0.5235  1.1603 -0.1703
   58MOL0     H 7973  11.804   8.688  12.133  2.1786  1.8703  1.7374
   58MOL0     H 7974  11.880   8.781  11.908 -0.4918  2.3829  2.1764
   58MOL0     H 7975  12.018   8.662  11.924  1.3715 -0.2458  2.1995
   58MOL0     H 7976  12.124   8.754  12.103 -0.5875  1.0849  0.0358
   58MOL0     H 7977  12.088   8.885  11.987  0.7588 -0.0611  0.0689
   58MOL0     H 7978  11.939   8.822  12.235 -0.4636 -1.3389 -1.1742
   58MOL0     H 7979  11.888   8.944  12.122 -1.4718 -2.6283  0.0348
   58MOL0     H 7980  12.059   9.088  12.165 -0.4020  1.0270  1.3368
   58MOL0     H 7981  12.166   8.964  12.227  0.3469  1.0957  1.5606
   58MOL0     H 7982  12.098   9.084  12.422  1.1692 -0.1607 -0.6917
   58MOL0     H 7983  12.008   8.925  12.434 -0.9807  0.0254  1.5250
   58MOL0     H 7984  11.370   8.429  12.147 -0.8550 -2.9211 -1.8770
   58MOL0     H 7985  11.136   8.476  12.099  0.8045 -0.1870  0.7098
   58MOL0     H 7986  10.737   8.431  11.739  0.6647  0.3898 -1.1532
   58MOL0     H 7987  10.513   8.525  11.690  1.6279  0.0558 -2.7039
   58MOL0     H 7988   8.742   8.732  10.953  0.2830  0.8745  1.0556
   58MOL0     H 7989   8.536   8.652  10.831  2.8140 -0.2310  0.8005
   58MOL0     H 7990   8.140   8.497  10.942  0.1257 -1.8969 -1.3349
   58MOL0     H 7991   7.950   8.383  10.845 -1.4412 -0.5450 -1.1023
   58MOL0     H 7992   7.778   8.539  10.461  2.1971  1.6964  1.8712
   58MOL0     H 7993   7.659   8.415  10.509 -2.1792 -1.2434  4.8478
   58MOL0     H 7994   7.684   8.680  10.638  2.2927  0.3603 -3.4548
   58MOL0     H 7995   7.559   8.555  10.677  0.2143 -1.1544 -0.8423
   58MOL0     H 7996   7.595   8.701  10.417 -0.0386  0.5818  0.2381
   58MOL0     H 7997   7.476   8.574  10.448  1.9848 -1.5368 -0.0891
   58MOL0     H 7998   7.456   8.851  10.568 -0.2459  0.1854 -0.4734
   58MOL0     H 7999   7.363   8.720  10.625 -0.6759  0.8493 -0.1227
   58MOL0     H 8000   7.176   8.798  10.262  0.7372 -1.5347 -2.0256
   58MOL0     H 8001   7.892   8.686  10.559 -0.6024  0.5688  0.6690
   58MOL0     H 8002   8.181   8.860  10.598 -0.0560 -1.3351 -0.2844
   58MOL0     H 8003   8.013   8.861  10.540 -1.1538 -0.0618  0.7856
   58MOL0     H 8004   8.065   8.925  10.710  1.0142  0.8363 -1.1424
   59MOL0     O 8005   3.191   1.834   5.797  0.1584 -0.5342  0.1194
   59MOL0     C 8006   3.250   1.933   5.742  0.0703  0.0103  0.3384
   59MOL0     O 8007   3.202   1.995   5.633 -1.1780  0.0546 -0.1824
   59MOL0     C 8008   3.088   1.946   5.574 -0.0157 -0.6603 -0.3931
   59MOL0     C 8009   3.091   1.910   5.435 -0.4816  0.1184 -0.0704
   59MOL0     C 8010   2.976   1.842   5.389 -0.8148  0.3566  0.2280
   59MOL0     C 8011   2.859   1.828   5.470  0.9373  0.1237 -0.1323
   59MOL0     O 8012   2.750   1.774   5.405 -0.2407 -0.1202 -0.8625
   59MOL0     C 8013   2.651   1.693   5.474  0.7165  0.3400 -0.1784
   59MOL0     C 8014   2.673   1.556   5.524  0.8686  0.1811 -0.0836
   59MOL0     C 8015   2.779   1.566   5.645  0.7781 -0.0070  0.3424
   59MOL0     C 8016   2.781   1.426   5.698 -0.2432  0.5638 -0.0265
   59MOL0     C 8017   2.901   1.393   5.788 -0.4083 -0.1006  0.2374
   59MOL0     C 8018   2.923   1.509   5.887 -0.0017 -0.8276  0.6693
   59MOL0     C 8019   3.028   1.465   5.989  0.0181 -0.2272 -0.2450
   59MOL0     C 8020   3.051   1.581   6.083  0.5175  0.1749 -0.7839
   59MOL0     N 8021   3.117   1.546   6.209  0.0970  0.1861 -0.0861
   59MOL0     C 8022   3.246   1.585   6.238  0.5547 -0.4434 -0.5608
   59MOL0     C 8023   3.252   1.569   6.372  0.7836  0.3694 -0.5396
   59MOL0     C 8024   3.366   1.602   6.460  0.5108  0.0843  0.2460
   59MOL0     C 8025   3.325   1.704   6.562 -0.3866  0.2013 -0.1053
   59MOL0     C 8026   3.444   1.748   6.641 -0.3191  0.3341 -0.3023
   59MOL0     C 8027   3.485   1.635   6.733  0.5106 -1.0933 -0.4858
   59MOL0     O 8028   3.609   1.675   6.791  0.3670 -0.4481 -0.2576
   59MOL0     C 8029   3.667   1.594   6.884  0.9467 -0.7505  0.2916
   59MOL0     C 8030   3.798   1.631   6.915  0.0995 -0.3991  0.4438
   59MOL0     C 8031   3.876   1.549   6.999  0.4981  0.0742 -0.0576
   59MOL0     C 8032   4.021   1.592   7.017  0.5516 -0.3450  0.1080
   59MOL0     C 8033   3.815   1.445   7.077 -0.4201  0.5382 -0.4722
   59MOL0     C 8034   3.886   1.380   7.187 -0.8141 -0.6946 -0.5715
   59MOL0     O 8035   4.015   1.403   7.211 -0.5896 -0.7924  0.1330
   59MOL0     C 8036   4.073   1.334   7.309 -0.3750  0.4752  0.1560
   59MOL0     C 8037   4.095   1.384   7.446  0.7405 -0.8416  0.0294
   59MOL0     C 8038   4.137   1.294   7.545 -0.1452 -0.2078  0.0259
   59MOL0     C 8039   4.186   1.170   7.515 -0.7157  0.9753 -0.4464
   59MOL0     O 8040   4.245   1.089   7.619 -0.2660 -0.3350 -0.5492
   59MOL0     C 8041   4.388   1.087   7.612 -0.0526  0.6312  0.0501
   59MOL0     C 8042   4.463   1.205   7.689  0.6310 -0.1406 -0.2336
   59MOL0     C 8043   4.460   1.204   7.844  0.4400 -0.0788  1.0605
   59MOL0     C 8044   4.519   1.075   7.903  0.5993 -1.0492  0.3341
   59MOL0     C 8045   4.669   1.049   7.890 -0.0036  1.0348  0.3534
   59MOL0     C 8046   4.766   1.111   7.991  0.6807 -0.0641  0.2183
   59MOL0     C 8047   4.902   1.042   8.001  0.3480 -1.0462 -0.3522
   59MOL0     C 8048   4.983   1.075   8.136  0.0780 -0.3923  0.6382
   59MOL0    Cl 8049   5.010   1.248   8.142 -0.0457 -0.0953 -0.2562
   59MOL0     C 8050   4.182   1.126   7.385  0.1948  0.1233  0.4779
   59MOL0     C 8051   4.116   1.206   7.288  0.1332  0.2474  0.1694
   59MOL0     O 8052   3.815   1.298   7.251 -0.4873 -0.7228 -1.2303
   59MOL0     C 8053   3.685   1.412   7.039  0.1998 -0.5413 -0.4353
   59MOL0     C 8054   3.605   1.485   6.947  0.1876  0.2482  0.9897
   59MOL0     N 8055   3.130   1.519   6.415  0.1296 -0.4851  0.0638
   59MOL0     N 8056   3.060   1.500   6.315  0.1574  0.1957 -0.3284
   59MOL0     C 8057   2.865   1.876   5.600  0.1359 -0.9060  0.0024
   59MOL0     C 8058   2.977   1.937   5.654 -0.4914  0.0489  0.6897
   59MOL0     C 8059   3.367   1.984   5.806 -0.9839 -1.0468 -0.5264
   59MOL0     C 8060   3.410   2.120   5.776 -0.7593 -0.2487  0.1566
   59MOL0     C 8061   3.518   2.172   5.845 -0.4492  0.2711 -0.4652
   59MOL0     C 8062   3.588   2.093   5.942 -0.1471  0.5091  0.0153
   59MOL0     O 8063   3.694   2.137   6.018  0.4704 -0.2249  0.6596
   59MOL0     C 8064   3.771   2.259   5.981  0.4889  0.2884 -0.9157
   59MOL0     C 8065   3.902   2.266   6.073  0.4262  0.0249  1.0701
   59MOL0     C 8066   3.856   2.304   6.211 -0.0145  0.9648 -0.2925
   59MOL0     C 8067   3.797   2.443   6.225  0.0559 -0.6643 -0.0892
   59MOL0     C 8068   3.910   2.543   6.210  0.0813 -0.7778  0.0302
   59MOL0     C 8069   4.011   2.608   6.208  0.4082 -0.2170 -0.6245
   59MOL0     C 8070   3.539   1.967   5.973 -0.1897 -0.0209  0.4199
   59MOL0     C 8071   3.438   1.902   5.902 -0.1590 -0.2088 -0.4528
   59MOL0     C 8072   3.410   1.760   5.952  0.9719  0.1528 -0.2665
   59MOL0     H 8073   3.184   1.914   5.379 -1.1701  0.1344 -1.2533
   59MOL0     H 8074   2.966   1.812   5.285  0.1016  0.4825  0.0931
   59MOL0     H 8075   2.576   1.689   5.395  0.4702 -0.5497  0.0846
   59MOL0     H 8076   2.602   1.743   5.558  0.5452  0.8514 -0.5729
   59MOL0     H 8077   2.580   1.513   5.564  0.1371  0.8329 -1.0502
   59MOL0     H 8078   2.707   1.483   5.450  1.6863  0.0382  0.4133
   59MOL0     H 8079   2.880   1.594   5.612  0.6322  1.5843  1.1968
   59MOL0     H 8080   2.742   1.636   5.720  0.4567  0.3779 -0.1698
   59MOL0     H 8081   2.683   1.404   5.742  0.3262 -0.1631  0.9202
   59MOL0     H 8082   2.781   1.362   5.609 -1.0466 -0.6820  0.8393
   59MOL0     H 8083   2.987   1.375   5.724  0.4683  2.3016  0.6536
   59MOL0     H 8084   2.878   1.296   5.835 -0.6036 -0.3634 -0.3867
   59MOL0     H 8085   2.978   1.589   5.836 -1.4389 -1.4161 -2.0364
   59MOL0     H 8086   2.825   1.545   5.920 -0.1721  2.7171 -2.9477
   59MOL0     H 8087   3.116   1.433   5.933 -0.6001  1.4067 -2.2995
   59MOL0     H 8088   2.990   1.376   6.040 -0.2055 -0.6089 -1.0668
   59MOL0     H 8089   3.108   1.653   6.023 -1.7766  2.4923 -0.3960
   59MOL0     H 8090   2.963   1.641   6.106 -0.9687 -0.5699 -3.9669
   59MOL0     H 8091   3.310   1.638   6.168 -3.3314  2.3420 -2.3908
   59MOL0     H 8092   3.438   1.645   6.390 -0.4095 -1.0151 -1.4784
   59MOL0     H 8093   3.401   1.507   6.502 -1.1450 -1.1072 -0.9025
   59MOL0     H 8094   3.289   1.798   6.518  3.2672  2.4173  1.1433
   59MOL0     H 8095   3.247   1.666   6.628  0.8075 -1.0413  0.6268
   59MOL0     H 8096   3.520   1.769   6.565  1.8009 -3.4996  0.4870
   59MOL0     H 8097   3.424   1.839   6.699 -0.6291 -0.5363  1.0048
   59MOL0     H 8098   3.407   1.625   6.809  0.3206 -0.0599 -0.5249
   59MOL0     H 8099   3.505   1.543   6.679  0.1447 -1.5003  0.0593
   59MOL0     H 8100   3.849   1.708   6.857 -2.0678 -0.4101 -1.6691
   59MOL0     H 8101   4.039   1.629   7.119  0.4273  0.3696 -0.1192
   59MOL0     H 8102   4.056   1.669   6.947  1.7032 -0.2866  0.7210
   59MOL0     H 8103   4.086   1.506   7.003 -1.5256 -2.4648  2.4596
   59MOL0     H 8104   4.064   1.481   7.484  3.7765  0.8321 -1.4054
   59MOL0     H 8105   4.146   1.324   7.649 -0.1791 -0.9747  0.2578
   59MOL0     H 8106   4.420   0.987   7.644  2.2508  1.4352  0.4943
   59MOL0     H 8107   4.419   1.093   7.507 -2.7918 -1.9359 -1.0637
   59MOL0     H 8108   4.568   1.192   7.661 -0.1534 -2.1372 -2.7397
   59MOL0     H 8109   4.426   1.300   7.649  0.1196  0.0720  0.7393
   59MOL0     H 8110   4.360   1.216   7.888  0.7993  0.0039  1.8721
   59MOL0     H 8111   4.523   1.290   7.871 -0.3854  0.8465  0.1411
   59MOL0     H 8112   4.468   0.992   7.853 -2.4953  0.1109  1.2891
   59MOL0     H 8113   4.487   1.065   8.007  1.5433 -1.0339  0.6358
   59MOL0     H 8114   4.683   0.941   7.884  0.0692  1.1062 -1.1713
   59MOL0     H 8115   4.704   1.077   7.791  0.4136  0.1587  0.2484
   59MOL0     H 8116   4.715   1.103   8.087 -0.4851 -0.0347 -0.3798
   59MOL0     H 8117   4.779   1.216   7.962  2.8768  0.4411  2.6500
   59MOL0     H 8118   4.970   1.082   7.925  0.8236 -1.6928 -0.2751
   59MOL0     H 8119   4.899   0.933   8.006 -0.0695 -0.9794  1.5515
   59MOL0     H 8120   5.081   1.027   8.134  1.4983  2.3711 -1.0400
   59MOL0     H 8121   4.931   1.025   8.219 -1.1186 -1.4097 -0.6756
   59MOL0     H 8122   4.220   1.028   7.354 -0.8362 -0.6356  1.5262
   59MOL0     H 8123   4.097   1.160   7.192  2.3857  2.9524 -1.7209
   59MOL0     H 8124   3.638   1.327   7.087 -0.0598  0.2181  0.6990
   59MOL0     H 8125   3.506   1.451   6.920  0.1835  1.4386 -0.6550
   59MOL0     H 8126   2.772   1.874   5.656 -0.8420 -1.0690 -1.5585
   59MOL0     H 8127   2.966   1.973   5.756 -0.3041 -0.5867  0.9403
   59MOL0     H 8128   3.368   2.188   5.702  3.2459  2.2286 -0.1708
   59MOL0     H 8129   3.550   2.274   5.827  1.3300 -0.2458 -0.3832
   59MOL0     H 8130   3.797   2.249   5.875  2.6442 -2.0204 -0.2748
   59MOL0     H 8131   3.700   2.342   5.989 -3.9625 -2.9823 -2.7670
   59MOL0     H 8132   3.971   2.341   6.034 -0.5660  0.7363  0.6169
   59MOL0     H 8133   3.950   2.168   6.076  1.3241  0.4547  0.8671
   59MOL0     H 8134   3.773   2.236   6.232 -0.5526  1.8089  0.3980
   59MOL0     H 8135   3.940   2.284   6.278  1.1911  0.2051 -1.9671
   59MOL0     H 8136   3.753   2.455   6.325  4.3096  1.7324  1.7671
   59MOL0     H 8137   3.714   2.463   6.157  0.8842  3.9495 -0.0612
   59MOL0     H 8138   4.099   2.668   6.220  0.6781 -0.3289 -1.9244
   59MOL0     H 8139   3.594   1.908   6.045 -0.5408  0.6824  1.2900
   59MOL0     H 8140   3.501   1.734   6.007  0.7615  1.7020  0.9047
   59MOL0     H 8141   3.335   1.773   6.032 -0.5533 -0.7212 -1.4973
   59MOL0     H 8142   3.376   1.703   5.866 -1.2715  1.4962 -0.3598
   60MOL0     O 8143   2.959   9.696   2.140  0.3744 -0.1400 -0.2502
   60MOL0     C 8144   2.983   9.587   2.185  0.5590 -0.0775 -0.4340
   60MOL0     O 8145   3.066   9.561   2.286 -0.2642  0.4798 -0.0975
   60MOL0     C 8146   3.109   9.651   2.382  0.8183 -0.5835 -0.1614
   60MOL0     C 8147   3.028   9.763   2.416  0.4876 -0.1087 -0.7339
   60MOL0     C 8148   3.083   9.856   2.511 -0.3673 -0.7412 -0.0090
   60MOL0     C 8149   3.213   9.844   2.568 -0.4694 -0.3248 -0.4215
   60MOL0     O 8150   3.269   9.937   2.666  0.0401  1.2005  0.5141
   60MOL0     C 8151   3.192  10.050   2.706 -0.3934 -0.2084 -0.4684
   60MOL0     C 8152   3.071  10.019   2.789 -0.1730 -0.3618 -0.2480
   60MOL0     C 8153   3.094   9.999   2.937 -0.4410 -0.0250 -0.7415
   60MOL0     C 8154   3.131  10.124   3.016 -0.4254  0.5916 -0.5342
   60MOL0     C 8155   3.179  10.083   3.160  0.5255  0.6076  0.1196
   60MOL0     C 8156   3.229  10.201   3.241 -0.1661 -0.1055 -0.0807
   60MOL0     C 8157   3.295  10.149   3.367  0.8392 -0.2216 -0.2206
   60MOL0     C 8158   3.183  10.119   3.474  0.1947 -0.6870  0.7113
   60MOL0     N 8159   3.245  10.046   3.581  0.2763  0.1641 -0.7540
   60MOL0     C 8160   3.198   9.937   3.641  0.3412 -0.1948 -0.7043
   60MOL0     C 8161   3.241   9.945   3.772  0.8688  0.0254  0.6490
   60MOL0     C 8162   3.203   9.852   3.888  0.0730 -0.3002 -1.1307
   60MOL0     C 8163   3.277   9.716   3.881 -0.6356 -1.1119 -0.2177
   60MOL0     C 8164   3.212   9.610   3.795 -0.6208 -0.9136  0.2363
   60MOL0     C 8165   3.278   9.480   3.818  0.1167 -0.3063  0.4584
   60MOL0     O 8166   3.411   9.481   3.763  0.3849  0.1823  0.9036
   60MOL0     C 8167   3.498   9.380   3.805  0.0415  0.0489 -0.1691
   60MOL0     C 8168   3.576   9.390   3.922 -0.0428  0.6351  0.7076
   60MOL0     C 8169   3.675   9.289   3.949 -0.2181 -0.4180  0.1904
   60MOL0     C 8170   3.774   9.317   4.069  0.2587 -0.2593  0.0698
   60MOL0     C 8171   3.678   9.175   3.870 -0.5557  0.4911  0.3866
   60MOL0     C 8172   3.793   9.080   3.880 -1.0825  0.0201 -0.0406
   60MOL0     O 8173   3.926   9.134   3.886  0.0712 -0.5330  0.2092
   60MOL0     C 8174   4.030   9.062   3.931 -0.0653  0.0118  0.2817
   60MOL0     C 8175   4.022   8.985   4.045  0.0886 -0.0175  0.0645
   60MOL0     C 8176   4.135   8.917   4.102 -0.3867  0.9989  0.6906
   60MOL0     C 8177   4.258   8.929   4.035 -0.7387 -0.9313  0.2746
   60MOL0     O 8178   4.378   8.869   4.067 -0.1813 -0.3825  0.1001
   60MOL0     C 8179   4.409   8.856   4.212  0.4966 -1.3307  1.1018
   60MOL0     C 8180   4.557   8.826   4.238 -0.0800 -0.2020  0.7664
   60MOL0     C 8181   4.597   8.830   4.384  0.2259  0.2180 -0.2555
   60MOL0     C 8182   4.753   8.802   4.406 -0.1066 -0.4168  0.5861
   60MOL0     C 8183   4.840   8.933   4.421 -0.3056  0.0707 -0.2421
   60MOL0     C 8184   4.815   9.012   4.546  0.1145  0.1831 -0.4844
   60MOL0     C 8185   4.900   9.137   4.568  0.4314  0.7793 -0.2399
   60MOL0     C 8186   5.040   9.108   4.608  0.1414 -0.3371  0.0272
   60MOL0    Cl 8187   5.062   9.002   4.755 -0.2020 -0.5346 -0.3850
   60MOL0     C 8188   4.275   9.018   3.929  0.7536  1.4500  0.2322
   60MOL0     C 8189   4.160   9.091   3.882 -0.7645  0.4059 -0.0584
   60MOL0     O 8190   3.767   8.967   3.876 -0.2317 -0.0317 -0.0298
   60MOL0     C 8191   3.590   9.154   3.766  0.2769  0.7407  0.9160
   60MOL0     C 8192   3.490   9.258   3.730  0.5007 -0.2162  0.0693
   60MOL0     N 8193   3.303  10.062   3.787 -0.7018 -0.6108  0.1470
   60MOL0     N 8194   3.306  10.119   3.677  0.4745 -0.5955 -0.6842
   60MOL0     C 8195   3.292   9.726   2.531 -0.6321  0.0836  0.9926
   60MOL0     C 8196   3.242   9.638   2.434  0.4825  0.8148  0.6220
   60MOL0     C 8197   2.918   9.467   2.124  0.1347  0.8750 -0.5104
   60MOL0     C 8198   2.968   9.342   2.157 -0.2210 -1.2075  0.0210
   60MOL0     C 8199   2.908   9.227   2.114  0.2540  0.2182  0.2961
   60MOL0     C 8200   2.790   9.234   2.035 -0.2383  0.1914 -0.2111
   60MOL0     O 8201   2.726   9.114   2.017  0.1469  0.1138 -0.1943
   60MOL0     C 8202   2.637   9.092   1.911  0.3944 -0.0842 -0.1688
   60MOL0     C 8203   2.611   8.935   1.915  0.1317 -0.2018  0.0931
   60MOL0     C 8204   2.529   8.891   2.031  0.1392 -0.1705  0.8326
   60MOL0     C 8205   2.444   8.778   1.999 -0.0063 -0.0098 -0.4742
   60MOL0     C 8206   2.377   8.723   2.117 -0.7999 -0.1606  0.1034
   60MOL0     C 8207   2.332   8.683   2.219  0.1495 -0.8906  0.4565
   60MOL0     C 8208   2.744   9.358   1.991 -0.0891  0.7763  0.1596
   60MOL0     C 8209   2.805   9.474   2.037 -0.0098 -0.1302  0.9894
   60MOL0     C 8210   2.719   9.602   2.022 -0.9523 -0.3659  0.2600
   60MOL0     H 8211   2.936   9.789   2.364  1.2737 -1.6789 -3.0659
   60MOL0     H 8212   3.028   9.946   2.539 -0.0478 -0.2688 -0.8429
   60MOL0     H 8213   3.168  10.099   2.611  0.4387  0.4702 -0.3496
   60MOL0     H 8214   3.259  10.118   2.761 -0.9662 -0.8338  1.0579
   60MOL0     H 8215   2.991  10.092   2.774 -0.2686 -1.0144 -3.9947
   60MOL0     H 8216   3.035   9.921   2.756  0.8574 -1.0845  0.7493
   60MOL0     H 8217   3.005   9.953   2.981 -0.6406  1.8904  0.9769
   60MOL0     H 8218   3.174   9.925   2.946  0.0882  0.8042  3.1445
   60MOL0     H 8219   3.197  10.186   2.955 -1.5455  0.0677 -2.3618
   60MOL0     H 8220   3.042  10.187   3.024 -0.8165 -0.1273  1.2150
   60MOL0     H 8221   3.251  10.001   3.149  1.9218  1.8369 -0.1826
   60MOL0     H 8222   3.092  10.037   3.207 -1.7728  3.8530 -0.6365
   60MOL0     H 8223   3.309  10.256   3.191  1.5500 -2.4705 -0.1351
   60MOL0     H 8224   3.141  10.258   3.271  0.7831  0.7777  1.1196
   60MOL0     H 8225   3.355  10.230   3.408 -0.0776 -0.5149  1.8250
   60MOL0     H 8226   3.354  10.063   3.335  0.0935  0.0843 -2.7212
   60MOL0     H 8227   3.135  10.211   3.506 -2.1799 -0.4963 -2.9301
   60MOL0     H 8228   3.099  10.063   3.432  0.7403  0.2399 -1.7956
   60MOL0     H 8229   3.144   9.847   3.612  0.0863 -1.3693  2.8648
   60MOL0     H 8230   3.095   9.840   3.891  0.1128 -0.5669 -0.7162
   60MOL0     H 8231   3.223   9.896   3.986  0.2312 -0.0884 -1.2577
   60MOL0     H 8232   3.381   9.735   3.852 -0.1796 -0.2921  1.8175
   60MOL0     H 8233   3.293   9.679   3.982 -1.9513 -1.3035 -0.0561
   60MOL0     H 8234   3.109   9.599   3.829  0.0524 -0.2730  2.6288
   60MOL0     H 8235   3.225   9.628   3.687  1.2399 -1.8868  0.2413
   60MOL0     H 8236   3.285   9.468   3.927 -0.1391  1.6817  0.7402
   60MOL0     H 8237   3.218   9.395   3.785 -1.0008  0.1148  1.3045
   60MOL0     H 8238   3.590   9.483   3.977 -2.4646  1.7023 -0.3036
   60MOL0     H 8239   3.856   9.245   4.067  0.2714 -0.2576  0.4510
   60MOL0     H 8240   3.730   9.310   4.169  0.6960 -3.4427  0.1484
   60MOL0     H 8241   3.824   9.414   4.064  1.8355 -0.9840  0.8483
   60MOL0     H 8242   3.926   8.986   4.095 -0.4210  0.5594 -0.9224
   60MOL0     H 8243   4.129   8.855   4.191  0.3773  1.7133  1.2464
   60MOL0     H 8244   4.381   8.948   4.263  0.2143 -1.4089  1.0918
   60MOL0     H 8245   4.342   8.779   4.252 -1.2102 -0.1149  0.6854
   60MOL0     H 8246   4.578   8.726   4.201 -3.2320 -0.5391 -0.3781
   60MOL0     H 8247   4.626   8.891   4.183 -0.9112  1.3249  1.4676
   60MOL0     H 8248   4.536   8.753   4.431 -1.7448  0.8127 -1.7107
   60MOL0     H 8249   4.582   8.931   4.422 -2.9082 -1.5777  4.0422
   60MOL0     H 8250   4.788   8.750   4.317 -1.8580  1.5800 -1.4152
   60MOL0     H 8251   4.770   8.737   4.492 -0.0204 -0.7776  0.2952
   60MOL0     H 8252   4.945   8.901   4.423 -1.0007 -2.3408  1.5211
   60MOL0     H 8253   4.817   8.995   4.333 -3.5712  0.2376  0.6265
   60MOL0     H 8254   4.838   8.938   4.623 -0.0976  1.0933  0.4739
   60MOL0     H 8255   4.709   9.035   4.553  0.4182  1.2764  0.7820
   60MOL0     H 8256   4.847   9.179   4.653  3.2310  1.4019  1.3140
   60MOL0     H 8257   4.899   9.215   4.491  0.6205  1.5795  0.5511
   60MOL0     H 8258   5.103   9.197   4.617  0.0425  0.0909 -2.5627
   60MOL0     H 8259   5.083   9.045   4.530  1.5180 -1.2462  1.4709
   60MOL0     H 8260   4.377   9.028   3.893  0.1430 -0.2049 -2.1970
   60MOL0     H 8261   4.170   9.156   3.796  0.1671  1.0937  0.5535
   60MOL0     H 8262   3.590   9.065   3.704 -1.6284  0.6474  0.9682
   60MOL0     H 8263   3.414   9.247   3.654  0.1214  1.9413  0.0830
   60MOL0     H 8264   3.387   9.703   2.578 -0.7362  0.7839  1.5780
   60MOL0     H 8265   3.312   9.560   2.405  0.9726  1.7434 -0.8075
   60MOL0     H 8266   3.051   9.332   2.226  0.8401  0.7003 -0.8829
   60MOL0     H 8267   2.945   9.130   2.148 -0.7705 -0.8856 -1.5819
   60MOL0     H 8268   2.546   9.152   1.923  0.4374 -0.3290  1.6655
   60MOL0     H 8269   2.692   9.104   1.817  1.8997  0.9818  0.8284
   60MOL0     H 8270   2.708   8.885   1.915  1.0433  1.2938 -3.6201
   60MOL0     H 8271   2.565   8.917   1.818  0.0126  0.6493 -0.0097
   60MOL0     H 8272   2.592   8.874   2.119  4.2466  2.5373 -1.2823
   60MOL0     H 8273   2.457   8.966   2.066  0.7129  0.4736  0.6354
   60MOL0     H 8274   2.504   8.698   1.955 -4.2771 -3.7968 -0.1178
   60MOL0     H 8275   2.371   8.802   1.921  0.1661  1.0364 -0.3298
   60MOL0     H 8276   2.302   8.651   2.316 -0.7631 -0.4866  0.3174
   60MOL0     H 8277   2.654   9.375   1.934 -0.1698 -0.9842 -0.3018
   60MOL0     H 8278   2.706   9.645   2.122 -0.6988 -0.8363  0.5014
   60MOL0     H 8279   2.763   9.674   1.953  1.4997 -0.7936  1.2674
   60MOL0     H 8280   2.618   9.577   1.990 -0.3705  0.3786 -2.3310
   61MOL0     O 8281  10.483   9.824   8.119 -0.0548  0.3823  0.2539
   61MOL0     C 8282  10.440   9.836   8.235  0.0136  0.3292  0.2645
   61MOL0     O 8283  10.509   9.829   8.352 -0.6091 -1.2114  0.3244
   61MOL0     C 8284  10.649   9.840   8.365  0.3964 -0.1889  0.3086
   61MOL0     C 8285  10.707   9.762   8.455 -0.6608  0.2167 -0.1301
   61MOL0     C 8286  10.843   9.757   8.481 -0.0189 -0.0737 -0.0529
   61MOL0     C 8287  10.932   9.837   8.399  0.9304 -0.1591 -0.4191
   61MOL0     O 8288  11.067   9.838   8.421 -0.1569 -0.1308  0.0348
   61MOL0     C 8289  11.140   9.707   8.452 -0.5944 -0.2005 -0.2264
   61MOL0     C 8290  11.253   9.687   8.352  0.1379 -0.1395 -0.2346
   61MOL0     C 8291  11.354   9.564   8.382  0.2671 -0.2405 -0.0337
   61MOL0     C 8292  11.434   9.593   8.509  0.2474  0.4693  0.0588
   61MOL0     C 8293  11.561   9.510   8.516  0.0399  0.1092 -0.4769
   61MOL0     C 8294  11.533   9.371   8.547 -0.2546 -0.4860  0.0785
   61MOL0     C 8295  11.653   9.284   8.545  0.1214  0.5475  0.1923
   61MOL0     C 8296  11.706   9.261   8.397  0.1731 -0.5161 -0.4375
   61MOL0     N 8297  11.606   9.194   8.317  0.3542  0.8168 -0.0077
   61MOL0     C 8298  11.578   9.062   8.337 -0.4909  0.0830 -0.3405
   61MOL0     C 8299  11.496   9.027   8.225 -0.4434 -0.2015 -0.3956
   61MOL0     C 8300  11.433   8.886   8.215  0.7571 -0.6184 -0.3341
   61MOL0     C 8301  11.278   8.879   8.216 -0.7197 -0.4170  0.0386
   61MOL0     C 8302  11.220   8.739   8.201  1.4027 -0.4896 -0.0606
   61MOL0     C 8303  11.063   8.729   8.196  0.6136  0.5229 -0.1466
   61MOL0     O 8304  10.992   8.771   8.317 -0.3774 -0.4824 -0.0077
   61MOL0     C 8305  10.862   8.794   8.310 -0.1842  0.3453 -0.1880
   61MOL0     C 8306  10.820   8.915   8.354 -0.0941  0.8839 -0.7601
   61MOL0     C 8307  10.687   8.949   8.354  0.1356 -0.6575  0.2938
   61MOL0     C 8308  10.640   9.091   8.392  0.5683 -0.3576 -0.1600
   61MOL0     C 8309  10.584   8.861   8.310  0.0152 -0.5911  0.8480
   61MOL0     C 8310  10.435   8.882   8.312  0.3032  0.0667  0.1967
   61MOL0     O 8311  10.357   8.808   8.400  0.3262  0.2293  0.0600
   61MOL0     C 8312  10.224   8.830   8.400 -0.5632  0.3597  0.0385
   61MOL0     C 8313  10.172   8.935   8.475  0.2651 -0.1108 -0.1032
   61MOL0     C 8314  10.032   8.958   8.466  0.7634  0.4703 -0.2619
   61MOL0     C 8315   9.948   8.887   8.390 -0.3435 -0.1979  0.2307
   61MOL0     O 8316   9.813   8.918   8.386 -0.9398  0.1446  0.3710
   61MOL0     C 8317   9.744   8.849   8.487  0.2473 -0.0613  0.1105
   61MOL0     C 8318   9.594   8.886   8.472 -0.1341 -0.1745  0.6374
   61MOL0     C 8319   9.558   9.040   8.472  0.0714  0.0668  0.2327
   61MOL0     C 8320   9.420   9.057   8.435 -0.1298 -0.4701  0.1557
   61MOL0     C 8321   9.361   9.195   8.464  0.9029 -0.0244 -0.3375
   61MOL0     C 8322   9.241   9.208   8.379  0.2837  0.0513  0.2475
   61MOL0     C 8323   9.199   9.353   8.402  0.2766  0.1340 -0.9481
   61MOL0     C 8324   9.067   9.381   8.324 -0.1368  0.2466  0.4974
   61MOL0    Cl 8325   8.932   9.291   8.372  0.0640 -0.1808 -0.1151
   61MOL0     C 8326   9.996   8.777   8.314 -0.1727  0.4532 -0.3439
   61MOL0     C 8327  10.140   8.749   8.316 -0.0204 -0.6509 -0.0160
   61MOL0     O 8328  10.392   8.975   8.240 -0.0122  0.9305  0.0329
   61MOL0     C 8329  10.633   8.737   8.269 -0.0292  0.0481 -0.5687
   61MOL0     C 8330  10.762   8.701   8.278 -0.2434 -0.3635 -1.1591
   61MOL0     N 8331  11.495   9.142   8.145 -0.8421  0.3024  0.4735
   61MOL0     N 8332  11.565   9.238   8.194  0.1139  0.0675 -0.4160
   61MOL0     C 8333  10.873   9.918   8.295  1.2072 -0.4456  0.1410
   61MOL0     C 8334  10.732   9.916   8.276  0.3601 -0.0881  0.1723
   61MOL0     C 8335  10.297   9.869   8.251 -0.2397 -0.6416  0.9839
   61MOL0     C 8336  10.211   9.768   8.208  0.5354 -0.1010  0.2398
   61MOL0     C 8337  10.076   9.779   8.231  0.3476  0.8193 -0.3308
   61MOL0     C 8338  10.018   9.886   8.297 -0.3583  1.4297  0.3920
   61MOL0     O 8339   9.881   9.895   8.299  0.0908 -0.1033 -0.2455
   61MOL0     C 8340   9.836  10.005   8.219  0.6711 -0.5331 -0.8737
   61MOL0     C 8341   9.774  10.119   8.317  0.5746  0.1276  0.3704
   61MOL0     C 8342   9.699  10.070   8.436  0.2060  0.9071 -0.3483
   61MOL0     C 8343   9.592   9.963   8.396 -0.5247 -0.8441 -0.8829
   61MOL0     C 8344   9.493  10.010   8.309 -0.2562 -0.4073  0.0890
   61MOL0     C 8345   9.401  10.028   8.234  0.1994  0.0032 -0.1929
   61MOL0     C 8346  10.110   9.979   8.358  0.4719 -0.0334 -0.4023
   61MOL0     C 8347  10.244   9.972   8.333 -0.3741  0.2092  0.2642
   61MOL0     C 8348  10.317  10.089   8.387 -1.1051  0.5733  0.2544
   61MOL0     H 8349  10.633   9.702   8.506 -1.6257  1.8888  0.5243
   61MOL0     H 8350  10.891   9.690   8.552  0.6691  1.2613  0.7859
   61MOL0     H 8351  11.074   9.621   8.449 -2.2710  1.0634 -1.3435
   61MOL0     H 8352  11.177   9.702   8.555  0.7414  1.5551 -0.5636
   61MOL0     H 8353  11.213   9.670   8.252 -2.2810  1.2225  0.4340
   61MOL0     H 8354  11.302   9.785   8.341 -2.2905  0.9067 -2.7880
   61MOL0     H 8355  11.301   9.473   8.411  0.1757  0.3963  1.9254
   61MOL0     H 8356  11.424   9.556   8.298  2.6139  1.6008  1.5829
   61MOL0     H 8357  11.455   9.700   8.521 -0.9976  0.6140  1.1827
   61MOL0     H 8358  11.374   9.576   8.599 -0.6957 -0.9277 -0.8053
   61MOL0     H 8359  11.613   9.552   8.603  1.9225  1.5820 -2.1939
   61MOL0     H 8360  11.626   9.539   8.433  2.0402 -0.9580  0.6165
   61MOL0     H 8361  11.481   9.362   8.643  2.0312 -1.3893  1.3242
   61MOL0     H 8362  11.477   9.332   8.462  2.1485 -0.4818 -1.6264
   61MOL0     H 8363  11.622   9.184   8.578  0.3609 -0.0654 -1.3117
   61MOL0     H 8364  11.736   9.327   8.602  0.7864 -0.3823 -0.0431
   61MOL0     H 8365  11.729   9.359   8.355  0.1976  1.6986  4.1285
   61MOL0     H 8366  11.796   9.199   8.399 -0.5714 -1.6787 -1.2352
   61MOL0     H 8367  11.610   8.997   8.418  0.4141 -0.0882 -0.8196
   61MOL0     H 8368  11.470   8.823   8.297  2.3835 -1.4738 -1.6460
   61MOL0     H 8369  11.467   8.834   8.125  0.0071  0.0527 -1.0181
   61MOL0     H 8370  11.259   8.913   8.318  4.7840  0.0544  1.2063
   61MOL0     H 8371  11.234   8.956   8.152  2.6735  2.4970  0.9015
   61MOL0     H 8372  11.260   8.710   8.104  1.8690  1.8702 -0.6497
   61MOL0     H 8373  11.264   8.669   8.273 -0.9480  0.4443  2.4582
   61MOL0     H 8374  11.027   8.776   8.104  3.0852 -0.2601 -1.5921
   61MOL0     H 8375  11.054   8.620   8.190  1.0745  0.4230  0.7371
   61MOL0     H 8376  10.891   8.988   8.393  0.5557  1.9417 -3.6700
   61MOL0     H 8377  10.540   9.088   8.438 -0.6469 -1.0200 -2.6565
   61MOL0     H 8378  10.628   9.147   8.299  3.1005 -1.0049 -0.9442
   61MOL0     H 8379  10.721   9.134   8.451 -1.1587  0.9371  1.4123
   61MOL0     H 8380  10.239   8.991   8.539 -0.8631  1.6123 -0.3606
   61MOL0     H 8381   9.992   9.044   8.518  1.4867  0.3548  0.5181
   61MOL0     H 8382   9.744   8.740   8.498 -2.7512 -0.0458  1.0355
   61MOL0     H 8383   9.772   8.882   8.587 -0.7018 -3.1524  1.5295
   61MOL0     H 8384   9.549   8.837   8.384  1.4941 -1.6111  0.5478
   61MOL0     H 8385   9.534   8.844   8.553 -1.8388  0.6153 -0.1520
   61MOL0     H 8386   9.629   9.088   8.404 -1.4993  2.5419  0.1743
   61MOL0     H 8387   9.578   9.085   8.570  1.4016  1.1412 -0.4860
   61MOL0     H 8388   9.353   8.984   8.482 -0.8918 -1.1028 -1.8308
   61MOL0     H 8389   9.411   9.041   8.327 -2.4315 -1.2365  0.4021
   61MOL0     H 8390   9.340   9.204   8.571 -0.8961  2.2303 -0.8019
   61MOL0     H 8391   9.431   9.276   8.439  1.2827 -0.7603 -1.8203
   61MOL0     H 8392   9.163   9.134   8.401  0.7485  0.1882  2.5775
   61MOL0     H 8393   9.262   9.180   8.275 -2.0523 -2.0966  0.2494
   61MOL0     H 8394   9.277   9.420   8.366  1.3884 -1.1809 -1.0668
   61MOL0     H 8395   9.169   9.375   8.505  1.1987  1.2142 -0.8938
   61MOL0     H 8396   9.091   9.362   8.219  0.0855 -4.3072  1.1482
   61MOL0     H 8397   9.050   9.489   8.330  0.8869  0.4248  0.3971
   61MOL0     H 8398   9.931   8.721   8.247  0.1257  1.5689 -1.6153
   61MOL0     H 8399  10.180   8.670   8.253 -0.8847 -0.8913 -0.2784
   61MOL0     H 8400  10.566   8.655   8.242 -0.5009 -1.0540  3.3150
   61MOL0     H 8401  10.779   8.597   8.254 -1.3740 -1.6670  2.8258
   61MOL0     H 8402  10.926   9.978   8.222  0.0036  0.6058  0.1016
   61MOL0     H 8403  10.691   9.962   8.187  1.4719 -2.7245 -1.8109
   61MOL0     H 8404  10.251   9.675   8.171  1.3525 -1.0019  3.0811
   61MOL0     H 8405  10.015   9.703   8.183  1.0217 -0.6545  1.0162
   61MOL0     H 8406   9.899  10.049   8.141  1.5310 -3.2378 -1.7911
   61MOL0     H 8407   9.759   9.958   8.157 -0.4165 -3.2302  2.2306
   61MOL0     H 8408   9.711  10.182   8.253 -0.4730 -2.1302 -0.9277
   61MOL0     H 8409   9.858  10.178   8.355  1.2391  0.9624 -2.1538
   61MOL0     H 8410   9.771  10.017   8.499 -1.4695 -1.5445 -0.3827
   61MOL0     H 8411   9.647  10.149   8.492 -1.1435  0.3715 -0.8243
   61MOL0     H 8412   9.532   9.936   8.483 -0.5391  1.3109 -0.1506
   61MOL0     H 8413   9.646   9.881   8.348  2.0942  0.9957 -1.3317
   61MOL0     H 8414   9.322  10.045   8.165  1.3236 -2.2827 -2.1863
   61MOL0     H 8415  10.060  10.052   8.421 -1.1266 -1.4407  0.0523
   61MOL0     H 8416  10.365  10.055   8.479  1.3702  0.2441 -1.0746
   61MOL0     H 8417  10.402  10.119   8.325 -2.3887  2.6552 -0.6044
   61MOL0     H 8418  10.254  10.177   8.403  0.1506  1.4002  0.7603
   62MOL0     O 8419   9.210   5.149   5.988  0.2988  0.0869 -0.2348
   62MOL0     C 8420   9.155   5.145   5.877  0.3837  0.4592 -0.9561
   62MOL0     O 8421   9.196   5.071   5.774  0.0606  0.6334 -0.1626
   62MOL0     C 8422   9.324   5.026   5.765 -1.4653 -0.3339 -0.5322
   62MOL0     C 8423   9.443   5.079   5.817 -0.4922 -0.0815  0.5258
   62MOL0     C 8424   9.573   5.024   5.798  0.0191  0.4491 -0.3408
   62MOL0     C 8425   9.588   4.908   5.721  0.4451 -0.9033 -0.4200
   62MOL0     O 8426   9.715   4.870   5.694 -0.5628 -0.7834 -0.4725
   62MOL0     C 8427   9.729   4.814   5.566 -0.3707  0.2184 -0.4495
   62MOL0     C 8428   9.866   4.744   5.572 -0.2411  0.5438  0.4720
   62MOL0     C 8429   9.894   4.673   5.436  0.0492 -0.1549 -0.1548
   62MOL0     C 8430  10.042   4.664   5.408 -0.2977 -1.2902  0.3409
   62MOL0     C 8431  10.064   4.585   5.277 -0.1816 -0.8667 -0.7692
   62MOL0     C 8432  10.211   4.549   5.252 -0.5442 -0.5103  0.0691
   62MOL0     C 8433  10.240   4.518   5.107  0.4148 -0.3517  0.3450
   62MOL0     C 8434  10.394   4.485   5.088  0.1697  0.0341  0.7696
   62MOL0     N 8435  10.487   4.601   5.118 -0.0595  0.6444  0.0007
   62MOL0     C 8436  10.468   4.731   5.065  0.2747  0.8892  0.6990
   62MOL0     C 8437  10.548   4.817   5.125 -1.2383 -0.1351 -0.1170
   62MOL0     C 8438  10.569   4.961   5.092  0.5737 -0.2311 -0.4690
   62MOL0     C 8439  10.686   4.998   4.997 -0.7827 -0.0589 -0.8874
   62MOL0     C 8440  10.708   5.149   4.986 -0.4579  0.3014  0.6260
   62MOL0     C 8441  10.850   5.210   4.974 -0.5075  0.2718  0.7558
   62MOL0     O 8442  10.941   5.125   4.898 -0.4020 -0.3077 -0.6890
   62MOL0     C 8443  11.071   5.164   4.883  0.7225 -0.7142  0.5676
   62MOL0     C 8444  11.141   5.089   4.795  0.0480 -0.1346 -0.3513
   62MOL0     C 8445  11.272   5.122   4.769  0.0442 -0.5548 -0.4289
   62MOL0     C 8446  11.338   5.037   4.658 -0.2948 -0.9253  0.1570
   62MOL0     C 8447  11.346   5.229   4.839  0.3003  0.1860 -0.6123
   62MOL0     C 8448  11.482   5.265   4.817 -0.6114 -0.7649  0.2808
   62MOL0     O 8449  11.509   5.396   4.851 -0.1835 -0.1384  0.4609
   62MOL0     C 8450  11.636   5.444   4.840 -0.6751  0.9368  1.3893
   62MOL0     C 8451  11.646   5.559   4.772 -0.5947 -0.3003 -0.2873
   62MOL0     C 8452  11.772   5.615   4.738 -0.4991 -0.0705 -0.2283
   62MOL0     C 8453  11.892   5.551   4.779 -0.4039  0.4150 -0.8470
   62MOL0     O 8454  12.025   5.600   4.770  0.1026 -1.0782  0.1143
   62MOL0     C 8455  12.054   5.700   4.671  1.5660  0.7991 -0.0654
   62MOL0     C 8456  12.205   5.716   4.655  0.3959 -0.2148  0.0836
   62MOL0     C 8457  12.253   5.782   4.781  0.4497  0.5207 -0.6936
   62MOL0     C 8458  12.398   5.828   4.752 -0.0038  0.1060  0.3085
   62MOL0     C 8459  12.454   5.895   4.879  0.6082  0.1435  0.4497
   62MOL0     C 8460  12.579   5.971   4.826  0.9838  0.3356  0.0597
   62MOL0     C 8461  12.627   6.081   4.922  0.6856  0.7102  0.4553
   62MOL0     C 8462  12.742   6.164   4.873  0.1158 -0.3496 -0.0896
   62MOL0    Cl 8463  12.887   6.060   4.835 -0.1239 -0.2549  0.3401
   62MOL0     C 8464  11.875   5.436   4.853  0.0268  0.0038 -0.5509
   62MOL0     C 8465  11.750   5.387   4.890 -0.0314 -0.0811 -0.3754
   62MOL0     O 8466  11.566   5.184   4.777  0.0271  0.2014 -0.3865
   62MOL0     C 8467  11.264   5.306   4.932  0.2985  0.3606  0.3870
   62MOL0     C 8468  11.127   5.279   4.945 -1.0608 -0.0766 -0.2901
   62MOL0     N 8469  10.613   4.739   5.219 -0.5223 -0.7712 -0.3807
   62MOL0     N 8470  10.584   4.615   5.213  0.1803 -0.2341  0.5469
   62MOL0     C 8471   9.469   4.852   5.675  0.5094  0.5712 -0.6128
   62MOL0     C 8472   9.341   4.913   5.695  0.0628 -0.0970 -0.1971
   62MOL0     C 8473   9.033   5.234   5.860  0.8068 -0.1054 -0.9960
   62MOL0     C 8474   8.928   5.182   5.782 -0.5420  0.2531 -0.4191
   62MOL0     C 8475   8.812   5.251   5.769  0.3928  0.1408  0.5753
   62MOL0     C 8476   8.785   5.376   5.828 -0.3173 -0.5349 -0.1689
   62MOL0     O 8477   8.662   5.428   5.804  0.0715 -0.5200  0.5221
   62MOL0     C 8478   8.613   5.532   5.888  0.1022 -0.5366 -0.6044
   62MOL0     C 8479   8.583   5.494   6.029  0.5987 -0.0547 -0.3794
   62MOL0     C 8480   8.475   5.380   6.041  0.6814 -0.5096  0.8750
   62MOL0     C 8481   8.329   5.433   6.057  0.6712 -0.0132 -0.1601
   62MOL0     C 8482   8.298   5.528   6.172 -0.4217 -0.5491 -0.4193
   62MOL0     C 8483   8.291   5.606   6.269  0.3900 -0.2812  0.0001
   62MOL0     C 8484   8.893   5.430   5.907  0.4471  0.3982 -0.2176
   62MOL0     C 8485   9.011   5.358   5.921  0.1457  0.0555  0.1391
   62MOL0     C 8486   9.124   5.431   6.002 -0.1970  0.5773  0.7738
   62MOL0     H 8487   9.440   5.174   5.870 -0.8220  0.7276 -0.8960
   62MOL0     H 8488   9.656   5.077   5.843 -0.9897  0.5717  1.4548
   62MOL0     H 8489   9.734   4.899   5.497  2.8898  2.0051  1.6911
   62MOL0     H 8490   9.659   4.733   5.549  1.2985 -1.5855  0.8305
   62MOL0     H 8491   9.936   4.828   5.579 -0.7546  1.3781 -2.6930
   62MOL0     H 8492   9.871   4.671   5.653 -3.0316  0.5703  0.7902
   62MOL0     H 8493   9.856   4.571   5.437  0.2837 -0.3012  2.5690
   62MOL0     H 8494   9.847   4.723   5.351 -0.1658  1.6063  0.9418
   62MOL0     H 8495  10.099   4.756   5.403 -3.0269  0.4685 -1.6921
   62MOL0     H 8496  10.090   4.610   5.490 -1.0261  2.4716  3.5161
   62MOL0     H 8497  10.036   4.649   5.193  0.2828 -2.4763 -2.1983
   62MOL0     H 8498  10.005   4.493   5.280 -1.7123  0.0698  3.1336
   62MOL0     H 8499  10.270   4.639   5.272 -1.0900  0.0124 -0.6261
   62MOL0     H 8500  10.236   4.459   5.309 -0.7309 -0.1498  0.7247
   62MOL0     H 8501  10.201   4.600   5.046 -2.1610 -2.1818 -0.6492
   62MOL0     H 8502  10.175   4.436   5.075 -0.0367  0.3711 -0.6454
   62MOL0     H 8503  10.418   4.403   5.155  1.6741 -0.4149 -0.2531
   62MOL0     H 8504  10.427   4.443   4.992  2.8991 -1.1839  2.1243
   62MOL0     H 8505  10.406   4.746   4.977  0.3039  0.4631  0.6013
   62MOL0     H 8506  10.595   5.020   5.181  0.4869  0.2661 -0.7683
   62MOL0     H 8507  10.473   4.999   5.057 -0.3863 -0.5019  1.7500
   62MOL0     H 8508  10.777   4.956   5.041  0.3262  2.5867 -0.4112
   62MOL0     H 8509  10.670   4.956   4.897  0.5954 -1.5210 -0.5296
   62MOL0     H 8510  10.657   5.184   4.895 -0.1490  0.2205  0.4189
   62MOL0     H 8511  10.663   5.198   5.072  0.0908 -0.3089  1.2662
   62MOL0     H 8512  10.836   5.312   4.936 -0.5072 -1.2228 -3.9473
   62MOL0     H 8513  10.884   5.201   5.077 -0.6056 -2.1832  0.6235
   62MOL0     H 8514  11.097   5.003   4.746 -0.0816 -0.6337  0.6090
   62MOL0     H 8515  11.407   5.102   4.603 -0.4980 -1.7602 -1.1220
   62MOL0     H 8516  11.266   5.008   4.581  1.9667  0.3077 -2.6011
   62MOL0     H 8517  11.390   4.953   4.706 -1.5897 -3.2840 -2.3291
   62MOL0     H 8518  11.557   5.608   4.733 -1.5142 -2.7334 -1.4846
   62MOL0     H 8519  11.781   5.708   4.682 -0.0694 -0.1198 -0.2434
   62MOL0     H 8520  12.009   5.653   4.583 -1.6907 -2.5668  3.0585
   62MOL0     H 8521  12.003   5.795   4.690  2.7130  1.4869 -0.3357
   62MOL0     H 8522  12.266   5.630   4.626  1.2514  0.5289 -0.3819
   62MOL0     H 8523  12.219   5.795   4.581 -1.3025  0.6258  0.6053
   62MOL0     H 8524  12.244   5.720   4.870  0.6607  0.2570 -0.8539
   62MOL0     H 8525  12.196   5.871   4.808  1.1077  1.2352 -1.5781
   62MOL0     H 8526  12.393   5.898   4.668 -0.5485  1.8280  1.7322
   62MOL0     H 8527  12.463   5.750   4.710  0.5142  1.8870 -2.4591
   62MOL0     H 8528  12.383   5.962   4.927  0.3350 -0.9102  1.5761
   62MOL0     H 8529  12.487   5.833   4.963 -0.9451 -1.0171  0.2504
   62MOL0     H 8530  12.542   6.024   4.738  0.2280  0.0566  0.2046
   62MOL0     H 8531  12.651   5.892   4.806 -0.2007 -0.9046  0.5240
   62MOL0     H 8532  12.667   6.038   5.015 -1.0340  0.8989  1.3301
   62MOL0     H 8533  12.537   6.127   4.963  1.4229  1.3716  1.3888
   62MOL0     H 8534  12.770   6.240   4.945 -1.5279 -0.8381  1.1141
   62MOL0     H 8535  12.711   6.223   4.786  0.6164  0.8506  0.5234
   62MOL0     H 8536  11.949   5.383   4.913 -0.5262  0.0321  0.1669
   62MOL0     H 8537  11.742   5.299   4.952 -0.3759  2.9179  4.3010
   62MOL0     H 8538  11.285   5.399   4.984 -2.8869  0.8937  0.9087
   62MOL0     H 8539  11.072   5.347   5.010  0.5169 -0.4577  1.5406
   62MOL0     H 8540   9.471   4.756   5.624  0.0143  0.1183  0.1953
   62MOL0     H 8541   9.261   4.865   5.639  0.7800 -0.9831 -0.4983
   62MOL0     H 8542   8.935   5.086   5.733 -0.8415  0.5555 -1.0681
   62MOL0     H 8543   8.732   5.193   5.723  1.4644 -0.4408 -0.5983
   62MOL0     H 8544   8.679   5.619   5.886 -0.2503 -0.2388  0.3243
   62MOL0     H 8545   8.512   5.558   5.854  0.1017 -1.2451 -1.1545
   62MOL0     H 8546   8.554   5.578   6.094 -1.5949 -1.8739  1.1345
   62MOL0     H 8547   8.669   5.456   6.085  1.0365 -1.2999 -1.8374
   62MOL0     H 8548   8.485   5.329   5.945  2.8466  2.4004 -0.6048
   62MOL0     H 8549   8.493   5.313   6.126 -1.7753 -1.4638  0.7285
   62MOL0     H 8550   8.260   5.348   6.061  1.8957 -1.2638 -2.8018
   62MOL0     H 8551   8.299   5.490   5.968  1.5717 -0.9287 -1.0783
   62MOL0     H 8552   8.278   5.660   6.360 -1.0198 -0.7305  0.0837
   62MOL0     H 8553   8.885   5.532   5.941  0.4950 -0.0372  1.1489
   62MOL0     H 8554   9.168   5.374   6.084 -2.0276  0.1543  1.5067
   62MOL0     H 8555   9.216   5.458   5.951 -1.1462  1.6194 -0.4695
   62MOL0     H 8556   9.089   5.528   6.039  2.7439  2.0299  0.0714
   63MOL0     O 8557   9.069  10.636   4.745 -0.0215  0.2239  0.3214
   63MOL0     C 8558   9.041  10.751   4.749 -0.2281  0.1870  1.1377
   63MOL0     O 8559   8.973  10.822   4.657  0.0316 -0.1166  0.5810
   63MOL0     C 8560   8.949  10.762   4.532 -0.6176 -0.7642  0.2272
   63MOL0     C 8561   8.883  10.643   4.511 -0.4764  0.0831 -0.5004
   63MOL0     C 8562   8.840  10.600   4.389 -0.0483 -0.2366 -0.6770
   63MOL0     C 8563   8.865  10.689   4.276 -0.8080  0.6086  0.0635
   63MOL0     O 8564   8.836  10.635   4.151 -0.2213 -0.0391  0.2089
   63MOL0     C 8565   8.958  10.620   4.076 -0.6588 -0.1740 -0.4524
   63MOL0     C 8566   8.935  10.520   3.958 -0.6646  0.3313 -0.3593
   63MOL0     C 8567   8.915  10.372   4.008  0.1437  0.6268 -0.0674
   63MOL0     C 8568   8.866  10.280   3.906 -0.3913 -0.1316  0.5961
   63MOL0     C 8569   8.979  10.238   3.803 -0.5721 -0.1083 -0.0564
   63MOL0     C 8570   8.911  10.163   3.685 -0.1028 -0.2206 -0.1691
   63MOL0     C 8571   9.007  10.139   3.566  0.0931  0.4371 -0.5317
   63MOL0     C 8572   8.960  10.042   3.461  0.6763  0.3982 -0.1931
   63MOL0     N 8573   9.069   9.997   3.377  0.4516  0.3198  0.0326
   63MOL0     C 8574   9.154   9.890   3.404 -0.0473 -0.0475  0.0847
   63MOL0     C 8575   9.213   9.855   3.290  0.9547  0.6112 -0.2997
   63MOL0     C 8576   9.320   9.750   3.256  0.7991 -0.4291  0.3955
   63MOL0     C 8577   9.249   9.624   3.243  0.3545 -0.3379  0.7026
   63MOL0     C 8578   9.318   9.519   3.160  0.7016 -0.0931  0.5745
   63MOL0     C 8579   9.318   9.547   3.008 -0.6041  1.2211 -0.4235
   63MOL0     O 8580   9.379   9.440   2.932 -0.3375  0.2928 -0.8110
   63MOL0     C 8581   9.511   9.417   2.959 -0.7527 -0.4111 -0.3426
   63MOL0     C 8582   9.555   9.281   2.975 -0.1894 -0.1232  0.5540
   63MOL0     C 8583   9.686   9.245   3.017 -0.2110 -0.3471 -0.3841
   63MOL0     C 8584   9.716   9.101   3.019 -0.8731  0.5621 -0.5099
   63MOL0     C 8585   9.777   9.346   3.024  0.5052  1.0501 -0.5030
   63MOL0     C 8586   9.919   9.328   3.061  0.6690  1.0395 -0.6750
   63MOL0     O 8587  10.004   9.400   2.989 -0.2201  1.0201  0.5238
   63MOL0     C 8588  10.134   9.383   3.015  0.1698  0.4933 -0.2614
   63MOL0     C 8589  10.198   9.448   3.121 -1.0791  0.5194  0.4865
   63MOL0     C 8590  10.332   9.421   3.149 -0.2029 -1.0005 -0.3682
   63MOL0     C 8591  10.410   9.337   3.064  0.2096 -0.0075 -0.6000
   63MOL0     O 8592  10.534   9.310   3.102  1.2626  0.0529 -0.5452
   63MOL0     C 8593  10.594   9.183   3.074  0.3606 -0.2196 -0.8296
   63MOL0     C 8594  10.535   9.065   3.156 -0.1664 -0.2306  0.1884
   63MOL0     C 8595  10.565   9.091   3.308 -0.2796  0.9089  0.2644
   63MOL0     C 8596  10.553   8.957   3.391  0.3159  0.9122 -1.1385
   63MOL0     C 8597  10.579   8.983   3.545 -0.1090 -0.2483  0.6163
   63MOL0     C 8598  10.483   9.088   3.619  0.7409 -1.3275 -0.2433
   63MOL0     C 8599  10.476   9.081   3.772 -0.1796  0.1672  0.3149
   63MOL0     C 8600  10.372   8.968   3.809 -1.2204 -0.6620  0.1563
   63MOL0    Cl 8601  10.215   9.049   3.819 -0.6722 -0.0003  0.3078
   63MOL0     C 8602  10.344   9.274   2.957 -0.9701 -0.0715  0.0033
   63MOL0     C 8603  10.205   9.290   2.931  0.5010  0.2345  0.1093
   63MOL0     O 8604   9.945   9.249   3.149  0.0782 -0.0466 -0.8258
   63MOL0     C 8605   9.745   9.478   3.014 -0.0142  0.1755  0.0727
   63MOL0     C 8606   9.613   9.512   2.977 -0.0647  0.1195  0.8317
   63MOL0     N 8607   9.174   9.949   3.193 -0.0829 -0.8695  0.1649
   63MOL0     N 8608   9.086  10.033   3.241  0.2209  0.6321 -0.1086
   63MOL0     C 8609   8.939  10.809   4.297 -0.6350  0.2536  0.3238
   63MOL0     C 8610   8.986  10.842   4.422  0.0519  0.0694  0.1392
   63MOL0     C 8611   9.078  10.834   4.866  0.5121  0.3533 -0.1495
   63MOL0     C 8612   9.138  10.965   4.850  0.0393  0.2987  0.3312
   63MOL0     C 8613   9.192  11.034   4.960  0.1695 -0.7197  0.4310
   63MOL0     C 8614   9.200  10.983   5.091 -0.2325  0.9387  0.4272
   63MOL0     O 8615   9.266  11.050   5.186  0.1402 -0.3067 -0.4679
   63MOL0     C 8616   9.286  10.992   5.314  0.2867 -0.6951 -0.5480
   63MOL0     C 8617   9.403  10.893   5.324  0.1926  0.8243 -0.8654
   63MOL0     C 8618   9.527  10.943   5.245 -0.9890 -0.5890 -0.2371
   63MOL0     C 8619   9.632  10.834   5.225 -0.7506 -0.2872 -0.3136
   63MOL0     C 8620   9.751  10.870   5.142  0.3628 -0.5442 -0.4224
   63MOL0     C 8621   9.837  10.893   5.060 -0.4912  1.1722 -0.6541
   63MOL0     C 8622   9.143  10.854   5.104 -0.6205 -0.9856  0.0528
   63MOL0     C 8623   9.080  10.780   5.002  0.1800  0.9164 -0.8160
   63MOL0     C 8624   9.003  10.654   5.049 -0.5937  0.6529  0.4400
   63MOL0     H 8625   8.861  10.571   4.590 -0.9561  1.6036  0.8004
   63MOL0     H 8626   8.804  10.500   4.364  1.3671 -0.0181 -4.2966
   63MOL0     H 8627   9.037  10.568   4.131 -0.2204  2.1821  1.2837
   63MOL0     H 8628   9.001  10.717   4.050 -0.9083 -0.0116 -0.2683
   63MOL0     H 8629   8.842  10.536   3.902  0.1317 -1.4967 -2.3930
   63MOL0     H 8630   9.017  10.529   3.886  0.5215  1.3126  1.0680
   63MOL0     H 8631   9.008  10.330   4.047  1.2469  2.5565 -0.5014
   63MOL0     H 8632   8.843  10.375   4.091 -0.4944  0.2655 -0.6015
   63MOL0     H 8633   8.843  10.193   3.968 -0.1669  0.8365  2.1116
   63MOL0     H 8634   8.774  10.314   3.857 -2.3649 -1.1915  3.2868
   63MOL0     H 8635   9.055  10.171   3.845 -0.4537  0.4223  0.6129
   63MOL0     H 8636   9.034  10.324   3.763  0.0104 -1.2565 -1.8225
   63MOL0     H 8637   8.871  10.074   3.734 -0.4983  0.8005  1.4506
   63MOL0     H 8638   8.823  10.218   3.651  0.1297  0.4174  0.2437
   63MOL0     H 8639   9.099  10.090   3.600 -0.1551  0.1898 -0.2049
   63MOL0     H 8640   9.033  10.234   3.520 -1.3885  0.9204 -0.4282
   63MOL0     H 8641   8.909   9.955   3.505 -4.1384  1.3983 -3.0117
   63MOL0     H 8642   8.883  10.089   3.399  0.3852  0.8593  0.5124
   63MOL0     H 8643   9.156   9.836   3.498 -2.2519 -1.8078 -0.7747
   63MOL0     H 8644   9.379   9.737   3.348  0.0519  1.0525  1.1242
   63MOL0     H 8645   9.372   9.766   3.162 -2.2453 -3.6192 -2.1126
   63MOL0     H 8646   9.234   9.576   3.340 -0.3133 -2.6161 -0.4700
   63MOL0     H 8647   9.149   9.636   3.200 -0.1498 -4.7026  0.2294
   63MOL0     H 8648   9.418   9.518   3.204 -0.0813  2.4114  2.6508
   63MOL0     H 8649   9.263   9.426   3.175  3.0942 -2.1180 -2.0306
   63MOL0     H 8650   9.219   9.568   2.967 -0.6867  1.3204 -0.1715
   63MOL0     H 8651   9.378   9.636   2.985  3.1735 -1.0451 -0.2699
   63MOL0     H 8652   9.481   9.207   2.950 -0.0571  0.2801 -1.1526
   63MOL0     H 8653   9.621   9.047   3.004 -1.4930  1.6227 -0.4744
   63MOL0     H 8654   9.759   9.068   3.114  0.0554  1.6839 -0.5257
   63MOL0     H 8655   9.786   9.075   2.938  0.5804  0.7306  0.6589
   63MOL0     H 8656  10.138   9.506   3.191  1.0818  4.0117 -0.3228
   63MOL0     H 8657  10.370   9.463   3.241 -3.1720  0.6271  0.2371
   63MOL0     H 8658  10.600   9.147   2.971 -0.5013 -0.4175 -0.8246
   63MOL0     H 8659  10.700   9.195   3.097  1.0956 -3.3480 -2.1391
   63MOL0     H 8660  10.425   9.064   3.147 -0.3570 -1.5880  2.1748
   63MOL0     H 8661  10.578   8.968   3.130  0.9580 -0.4124  2.5453
   63MOL0     H 8662  10.495   9.172   3.335 -1.8433 -0.3654  0.1990
   63MOL0     H 8663  10.669   9.121   3.318  0.2178  0.4096 -2.6256
   63MOL0     H 8664  10.626   8.883   3.360 -1.0601 -0.7627 -0.5147
   63MOL0     H 8665  10.456   8.907   3.390  1.6340 -2.0679  1.6652
   63MOL0     H 8666  10.579   8.891   3.605  0.6674 -0.8731 -0.3047
   63MOL0     H 8667  10.684   9.011   3.558  0.1461  1.1382 -3.1155
   63MOL0     H 8668  10.385   9.062   3.577 -0.9810  1.6921  1.5263
   63MOL0     H 8669  10.504   9.189   3.584  0.8685 -1.9035 -1.8976
   63MOL0     H 8670  10.459   9.178   3.819 -1.6162 -0.1519  0.5027
   63MOL0     H 8671  10.570   9.040   3.809  0.1184  1.6585  1.3007
   63MOL0     H 8672  10.397   8.928   3.908 -0.3280 -2.8099 -0.8770
   63MOL0     H 8673  10.366   8.885   3.738  0.5364 -1.0252  0.3770
   63MOL0     H 8674  10.406   9.227   2.882  1.0059 -0.7345  1.9388
   63MOL0     H 8675  10.155   9.242   2.848  1.2750  3.6626 -2.5440
   63MOL0     H 8676   9.818   9.555   3.037  0.6962  0.4251 -2.6625
   63MOL0     H 8677   9.595   9.619   2.970 -0.9517  0.1582  2.9299
   63MOL0     H 8678   8.989  10.866   4.219 -0.4206 -0.5920 -0.1680
   63MOL0     H 8679   9.043  10.931   4.447 -1.6591  0.5267  2.9479
   63MOL0     H 8680   9.153  11.021   4.759  1.2418 -0.8564 -0.2033
   63MOL0     H 8681   9.238  11.130   4.939 -1.1815 -0.2475 -0.5828
   63MOL0     H 8682   9.305  11.065   5.393 -1.5850 -3.1423  2.3951
   63MOL0     H 8683   9.192  10.953   5.354 -1.0085  2.6188  0.0119
   63MOL0     H 8684   9.378  10.799   5.276 -0.2415  1.1962 -1.3705
   63MOL0     H 8685   9.414  10.867   5.430 -1.1731 -3.3424 -1.6012
   63MOL0     H 8686   9.507  10.978   5.143  0.7329 -0.0607 -0.4213
   63MOL0     H 8687   9.562  11.032   5.297  2.8027 -2.0799  0.1027
   63MOL0     H 8688   9.596  10.747   5.169  1.4839 -1.2528 -0.3746
   63MOL0     H 8689   9.673  10.781   5.311  0.3824  0.2188 -0.5230
   63MOL0     H 8690   9.914  10.894   4.985  1.0025 -1.5853  0.7163
   63MOL0     H 8691   9.156  10.807   5.201 -3.6047 -0.7536  0.6486
   63MOL0     H 8692   9.071  10.572   5.071 -0.4961  0.9127  1.1351
   63MOL0     H 8693   8.935  10.682   5.130 -0.2782  2.9848 -0.0196
   63MOL0     H 8694   8.950  10.604   4.967  2.2642 -2.2032  0.1615
   64MOL0     O 8695   4.677   9.440   9.056 -0.6217  0.3213 -0.2663
   64MOL0     C 8696   4.799   9.452   9.063  0.8023 -1.0873  0.4664
   64MOL0     O 8697   4.867   9.570   9.067  0.4876 -0.3895  0.4219
   64MOL0     C 8698   4.997   9.564   9.030  0.3636  0.6627 -0.2224
   64MOL0     C 8699   5.098   9.559   9.130 -0.0942 -0.1162 -0.5491
   64MOL0     C 8700   5.235   9.574   9.096  0.6026 -0.2200  0.2218
   64MOL0     C 8701   5.278   9.555   8.961  0.8112  0.7650  0.4589
   64MOL0     O 8702   5.403   9.546   8.908 -0.1986 -0.2661  0.6714
   64MOL0     C 8703   5.513   9.560   9.008 -1.1092  0.9653 -0.0268
   64MOL0     C 8704   5.635   9.547   8.926 -0.3701  0.0035  0.5055
   64MOL0     C 8705   5.764   9.593   8.997 -0.4505  0.1917 -0.2748
   64MOL0     C 8706   5.836   9.711   8.933 -0.6882 -0.2326  0.3815
   64MOL0     C 8707   5.929   9.679   8.804  0.0249 -0.0897 -0.5000
   64MOL0     C 8708   6.054   9.625   8.848  0.5350  0.2929  0.4571
   64MOL0     C 8709   6.167   9.731   8.840 -0.5920  0.9307  0.2918
   64MOL0     C 8710   6.141   9.862   8.906  0.4225  0.2180 -0.0815
   64MOL0     N 8711   6.238   9.952   8.854  0.1352  0.1848 -1.2260
   64MOL0     C 8712   6.354   9.984   8.914  0.3194 -0.4857 -0.5672
   64MOL0     C 8713   6.393  10.106   8.855  0.7800 -0.1649  0.3697
   64MOL0     C 8714   6.509  10.200   8.881 -0.3819 -0.1864 -1.8283
   64MOL0     C 8715   6.650  10.115   8.893 -0.1748  0.5370 -0.2091
   64MOL0     C 8716   6.765  10.207   8.922  0.4057 -0.1838 -0.3167
   64MOL0     C 8717   6.895  10.132   8.932  0.2232  0.5192  0.0900
   64MOL0     O 8718   6.995  10.225   8.956  0.2211  0.0606 -0.2859
   64MOL0     C 8719   7.129  10.186   8.952  0.0926 -0.0569 -0.2544
   64MOL0     C 8720   7.230  10.277   8.976  0.6515 -0.9026 -0.5547
   64MOL0     C 8721   7.372  10.240   8.978 -0.5471 -0.5584 -0.1858
   64MOL0     C 8722   7.460  10.357   8.998 -0.3080 -1.3322  0.5599
   64MOL0     C 8723   7.405  10.102   8.968 -0.3909 -0.0559 -0.4889
   64MOL0     C 8724   7.545  10.046   8.988 -0.7092  0.3989 -0.5352
   64MOL0     O 8725   7.560   9.911   9.010 -0.8639  0.4060  0.0366
   64MOL0     C 8726   7.688   9.850   8.998  0.1535 -0.4874 -0.1550
   64MOL0     C 8727   7.709   9.723   9.056  0.0591  0.1123  0.6377
   64MOL0     C 8728   7.834   9.664   9.042  0.1179  0.1357 -0.3554
   64MOL0     C 8729   7.937   9.732   8.976  0.1045 -0.1960 -0.3532
   64MOL0     O 8730   8.066   9.675   8.959 -0.3202 -0.5089 -0.2286
   64MOL0     C 8731   8.168   9.730   9.042 -0.3900 -0.0997 -0.0076
   64MOL0     C 8732   8.287   9.629   9.064 -0.0275  0.4834 -0.2179
   64MOL0     C 8733   8.345   9.580   8.931  0.0534  0.1301 -0.9960
   64MOL0     C 8734   8.460   9.478   8.946 -0.1246  0.5762  0.4367
   64MOL0     C 8735   8.495   9.422   8.803  0.2884 -0.4876 -0.1266
   64MOL0     C 8736   8.566   9.524   8.711  0.1709  0.4763 -0.2308
   64MOL0     C 8737   8.602   9.466   8.575 -0.2798 -0.0066  0.3568
   64MOL0     C 8738   8.637   9.580   8.476 -0.8629 -0.0190 -0.5649
   64MOL0    Cl 8739   8.489   9.686   8.444 -0.3383  0.2187 -0.1492
   64MOL0     C 8740   7.911   9.850   8.900  0.5483  0.6097  0.2938
   64MOL0     C 8741   7.788   9.908   8.917 -0.5152  0.2244  0.1399
   64MOL0     O 8742   7.637  10.129   8.998  0.1785  0.0439 -0.7785
   64MOL0     C 8743   7.302  10.011   8.947 -0.4008 -0.1787 -0.1025
   64MOL0     C 8744   7.167  10.057   8.939 -0.2327  0.7759  0.7769
   64MOL0     N 8745   6.306  10.133   8.747 -0.6876 -0.3369  0.6176
   64MOL0     N 8746   6.213  10.041   8.752 -0.3123 -0.0004 -0.6112
   64MOL0     C 8747   5.175   9.567   8.870  0.2192  0.4408  0.1747
   64MOL0     C 8748   5.037   9.572   8.899 -0.0415 -1.0743  0.0066
   64MOL0     C 8749   4.860   9.322   9.069  0.2230  0.4258  0.2299
   64MOL0     C 8750   4.898   9.250   8.953  0.6114 -0.7780 -0.0816
   64MOL0     C 8751   4.953   9.124   8.958 -0.0293 -0.8123  0.3899
   64MOL0     C 8752   4.967   9.065   9.084  0.6029  0.1164  0.1114
   64MOL0     O 8753   5.014   8.934   9.078 -0.3274  0.7171 -0.5035
   64MOL0     C 8754   4.917   8.842   9.021  0.1435 -0.2012 -0.4326
   64MOL0     C 8755   4.839   8.778   9.137 -0.5699  0.1871 -0.2324
   64MOL0     C 8756   4.922   8.689   9.236  0.2794 -0.0350  0.8340
   64MOL0     C 8757   4.849   8.689   9.376  0.3998 -0.4288 -0.2806
   64MOL0     C 8758   4.900   8.594   9.467 -0.3997 -0.0660 -0.6495
   64MOL0     C 8759   4.926   8.517   9.552 -0.7788 -0.4136  0.1648
   64MOL0     C 8760   4.926   9.126   9.203 -0.0726 -1.0223 -0.8404
   64MOL0     C 8761   4.878   9.260   9.196  0.3515  0.9690  0.8667
   64MOL0     C 8762   4.849   9.336   9.318  0.6133  0.4615 -0.3804
   64MOL0     H 8763   5.075   9.559   9.237 -2.6822 -2.1903 -0.9976
   64MOL0     H 8764   5.318   9.596   9.162  2.0756 -0.8665 -1.3267
   64MOL0     H 8765   5.514   9.478   9.081  1.9902  2.0435  1.3364
   64MOL0     H 8766   5.522   9.657   9.058  0.1407 -0.2954  2.4173
   64MOL0     H 8767   5.646   9.445   8.887  1.8155 -0.1788  1.4569
   64MOL0     H 8768   5.609   9.601   8.835  1.1118  2.5425  1.4882
   64MOL0     H 8769   5.743   9.629   9.098  2.0863 -2.2669  1.2573
   64MOL0     H 8770   5.838   9.513   8.999  1.8827  2.0712 -2.8532
   64MOL0     H 8771   5.767   9.785   8.892  0.9510 -0.2851 -2.7518
   64MOL0     H 8772   5.908   9.753   9.003  0.0266 -2.2806  0.9492
   64MOL0     H 8773   5.938   9.764   8.737 -4.5424  2.1242  1.2370
   64MOL0     H 8774   5.873   9.607   8.743 -0.3307 -2.9157  2.8027
   64MOL0     H 8775   6.033   9.581   8.946 -1.8330  0.3311  0.0499
   64MOL0     H 8776   6.083   9.540   8.785 -1.2638  1.5775 -2.3211
   64MOL0     H 8777   6.196   9.745   8.735 -0.3292 -0.0850  0.2185
   64MOL0     H 8778   6.255   9.694   8.894 -0.6558  1.2474  0.6182
   64MOL0     H 8779   6.039   9.900   8.891 -0.2781 -1.3881  0.3701
   64MOL0     H 8780   6.139   9.845   9.014  0.1381 -1.6033 -0.3285
   64MOL0     H 8781   6.405   9.941   8.999 -0.6562 -0.7657 -0.1109
   64MOL0     H 8782   6.494  10.246   8.979  0.8441 -0.2659 -1.5916
   64MOL0     H 8783   6.511  10.278   8.804  0.0254  0.8683 -0.7775
   64MOL0     H 8784   6.645  10.044   8.976 -0.5840  2.0071  1.0752
   64MOL0     H 8785   6.666  10.069   8.795 -3.5402 -0.7766 -0.2896
   64MOL0     H 8786   6.774  10.284   8.844  0.4393  0.8655  0.6960
   64MOL0     H 8787   6.736  10.256   9.015 -1.6941 -0.2160 -0.9209
   64MOL0     H 8788   6.889  10.060   9.015 -1.6749 -0.5316 -0.8988
   64MOL0     H 8789   6.904  10.083   8.835 -3.2321 -1.3560  0.5455
   64MOL0     H 8790   7.192  10.378   8.984  1.7857 -0.5348  0.6356
   64MOL0     H 8791   7.426  10.444   8.940  0.8608 -0.0373  1.7444
   64MOL0     H 8792   7.557  10.327   8.956  1.6407 -0.2989  3.9415
   64MOL0     H 8793   7.473  10.394   9.100 -0.1068  4.0598 -1.1131
   64MOL0     H 8794   7.631   9.660   9.096  0.8247 -2.7905 -2.0033
   64MOL0     H 8795   7.857   9.565   9.078  1.8061 -0.7641 -3.5056
   64MOL0     H 8796   8.193   9.825   8.995 -2.1458 -0.5661 -2.0509
   64MOL0     H 8797   8.122   9.752   9.139 -1.2792 -1.8691  0.0272
   64MOL0     H 8798   8.371   9.663   9.125  0.0153  0.6809 -0.3845
   64MOL0     H 8799   8.240   9.546   9.118 -0.9229  0.9501 -0.2568
   64MOL0     H 8800   8.371   9.670   8.874  1.8800 -1.2237 -2.4291
   64MOL0     H 8801   8.262   9.531   8.880 -0.5318  0.1757 -0.1159
   64MOL0     H 8802   8.421   9.387   8.994 -2.2949  1.5298  0.6098
   64MOL0     H 8803   8.546   9.512   9.004  0.4286 -2.4715  1.6230
   64MOL0     H 8804   8.553   9.331   8.825  0.9950  0.2635  1.2678
   64MOL0     H 8805   8.406   9.397   8.745 -0.9397  1.3345  0.8847
   64MOL0     H 8806   8.666   9.552   8.748  0.1524 -0.1820  0.3519
   64MOL0     H 8807   8.501   9.611   8.708  1.6540  1.6760  0.6994
   64MOL0     H 8808   8.521   9.405   8.535 -1.2593  1.4255  0.0706
   64MOL0     H 8809   8.690   9.401   8.583 -0.8998 -0.7453  1.6683
   64MOL0     H 8810   8.667   9.548   8.376 -1.8084  1.1861 -1.2754
   64MOL0     H 8811   8.726   9.633   8.513 -0.0023 -0.4584 -1.9353
   64MOL0     H 8812   7.986   9.891   8.833  1.3902  0.7035  1.2653
   64MOL0     H 8813   7.769   9.994   8.854 -1.9690 -2.3212 -3.2139
   64MOL0     H 8814   7.323   9.905   8.938  0.4118  0.1107 -2.2341
   64MOL0     H 8815   7.110   9.969   8.912 -0.6970  1.1399  0.5628
   64MOL0     H 8816   5.211   9.566   8.768  2.5255 -3.2378  0.8489
   64MOL0     H 8817   4.977   9.589   8.810  2.3087  1.6643 -1.2151
   64MOL0     H 8818   4.897   9.294   8.854  0.7821 -3.2872 -1.2753
   64MOL0     H 8819   5.007   9.083   8.873 -0.0098  0.7202 -0.3757
   64MOL0     H 8820   4.843   8.884   8.953 -0.2029 -2.2556 -1.3922
   64MOL0     H 8821   4.978   8.772   8.964  4.4156  2.3036  0.6036
   64MOL0     H 8822   4.755   8.724   9.092 -0.9216 -2.1393  2.8933
   64MOL0     H 8823   4.790   8.864   9.185 -0.3355  0.3185 -0.2313
   64MOL0     H 8824   4.923   8.586   9.199 -3.5222  0.0653 -0.0518
   64MOL0     H 8825   5.015   8.746   9.236 -0.7671  1.7660  0.6846
   64MOL0     H 8826   4.742   8.681   9.359  0.4757 -0.0722 -0.9817
   64MOL0     H 8827   4.873   8.787   9.419 -0.7402  0.0250 -0.6544
   64MOL0     H 8828   4.942   8.430   9.612 -0.1622  0.5616  1.4681
   64MOL0     H 8829   4.931   9.062   9.291 -0.1054 -3.0098 -2.2100
   64MOL0     H 8830   4.744   9.366   9.321  1.4903  3.9922  0.6711
   64MOL0     H 8831   4.881   9.274   9.402  0.2853  0.8323  0.0211
   64MOL0     H 8832   4.901   9.433   9.320 -1.3581  1.6186 -2.0624
   65MOL0     O 8833   4.817   4.041   4.606 -0.0546 -0.6040  0.0440
   65MOL0     C 8834   4.888   4.135   4.642  1.2629  0.1513  0.0110
   65MOL0     O 8835   5.022   4.130   4.678 -0.1898  0.4011  0.2143
   65MOL0     C 8836   5.074   4.004   4.705 -0.8949 -1.0334  0.6927
   65MOL0     C 8837   5.132   3.934   4.596  0.2165 -0.3746 -0.3189
   65MOL0     C 8838   5.180   3.798   4.621  0.9944 -0.6011  0.4250
   65MOL0     C 8839   5.182   3.748   4.753 -0.2288  0.6294  0.0009
   65MOL0     O 8840   5.226   3.621   4.779 -0.2579  0.1032  0.1815
   65MOL0     C 8841   5.146   3.541   4.868  0.9537 -0.1843  0.8443
   65MOL0     C 8842   5.236   3.486   4.975 -0.0088  0.0416 -0.0135
   65MOL0     C 8843   5.346   3.576   5.018 -0.1817  0.2850  0.1413
   65MOL0     C 8844   5.409   3.542   5.157  0.2270 -0.2462  0.0049
   65MOL0     C 8845   5.516   3.645   5.198 -0.0790  0.0640  0.2221
   65MOL0     C 8846   5.559   3.617   5.343  0.1548 -0.1739  0.1606
   65MOL0     C 8847   5.656   3.723   5.386  0.6613  0.0146  0.3258
   65MOL0     C 8848   5.718   3.714   5.529 -0.5720  0.0612 -0.7279
   65MOL0     N 8849   5.826   3.605   5.545  0.4507  0.1758  0.1005
   65MOL0     C 8850   5.930   3.586   5.458 -0.2907  1.2949 -0.6272
   65MOL0     C 8851   5.995   3.478   5.508  0.4384  0.2815 -0.1810
   65MOL0     C 8852   6.125   3.427   5.463  0.0785 -0.7066 -0.7344
   65MOL0     C 8853   6.248   3.493   5.536 -0.3879 -0.0094  0.2047
   65MOL0     C 8854   6.281   3.412   5.670 -0.4172 -0.2690  0.2819
   65MOL0     C 8855   6.321   3.268   5.646 -0.1887 -0.7072  0.0662
   65MOL0     O 8856   6.432   3.240   5.731 -0.2467  0.3499 -0.5988
   65MOL0     C 8857   6.515   3.135   5.699 -0.2172 -0.2367 -0.5640
   65MOL0     C 8858   6.515   3.034   5.601 -0.1085 -0.3696 -0.2297
   65MOL0     C 8859   6.587   2.917   5.610 -0.6833 -0.5264 -0.1755
   65MOL0     C 8860   6.562   2.805   5.509 -0.1852 -0.1306  0.1324
   65MOL0     C 8861   6.677   2.902   5.715  0.3506  0.8727  0.3219
   65MOL0     C 8862   6.774   2.793   5.728  0.1857  0.2071 -0.7812
   65MOL0     O 8863   6.748   2.660   5.680 -0.6457  0.0473 -0.2463
   65MOL0     C 8864   6.856   2.581   5.688  0.6143  0.2217  0.3180
   65MOL0     C 8865   6.858   2.476   5.780 -0.3187  0.0120 -0.0317
   65MOL0     C 8866   6.965   2.390   5.794 -0.0780 -0.4912 -0.5560
   65MOL0     C 8867   7.084   2.414   5.719 -0.4623  0.3927  0.5446
   65MOL0     O 8868   7.194   2.327   5.728 -1.1914 -0.2963  0.0860
   65MOL0     C 8869   7.325   2.389   5.730  0.0361  0.2201 -0.6065
   65MOL0     C 8870   7.367   2.439   5.869 -0.0035 -0.0057 -0.3071
   65MOL0     C 8871   7.504   2.508   5.839 -0.3552  0.2023 -0.4435
   65MOL0     C 8872   7.576   2.529   5.975  1.3137 -0.3753  0.0918
   65MOL0     C 8873   7.725   2.541   5.948 -0.7076  0.2324  0.4200
   65MOL0     C 8874   7.797   2.566   6.080  0.3491  0.1070  0.7241
   65MOL0     C 8875   7.947   2.585   6.066  0.0659 -0.7160  0.1613
   65MOL0     C 8876   7.997   2.656   6.183 -0.9960 -0.2912 -0.1972
   65MOL0    Cl 8877   8.170   2.658   6.189  0.0100 -0.4730 -0.4328
   65MOL0     C 8878   7.085   2.519   5.629 -0.2305  0.2672  0.6096
   65MOL0     C 8879   6.973   2.598   5.605  0.4433 -0.4292 -0.1433
   65MOL0     O 8880   6.877   2.829   5.786 -0.7194  0.3006 -0.9420
   65MOL0     C 8881   6.692   3.004   5.814 -0.1648 -0.3743 -0.7225
   65MOL0     C 8882   6.621   3.122   5.796 -0.7803  0.1126 -0.5060
   65MOL0     N 8883   5.915   3.418   5.607  0.4983  0.4352  0.4075
   65MOL0     N 8884   5.813   3.493   5.615  0.2877  0.1340  0.1086
   65MOL0     C 8885   5.115   3.820   4.850 -0.3129 -0.8492  0.9238
   65MOL0     C 8886   5.066   3.947   4.835  1.1708 -0.5979  0.4461
   65MOL0     C 8887   4.822   4.268   4.671  0.3016  0.3274 -0.1414
   65MOL0     C 8888   4.907   4.374   4.701  0.8983 -0.0701 -0.4436
   65MOL0     C 8889   4.863   4.491   4.749  0.0312 -0.7676  0.0010
   65MOL0     C 8890   4.730   4.525   4.752 -0.1331 -0.2788  0.4324
   65MOL0     O 8891   4.692   4.647   4.805 -0.8413 -0.6452 -0.4683
   65MOL0     C 8892   4.556   4.694   4.805  0.0330 -0.3260  0.4595
   65MOL0     C 8893   4.551   4.834   4.856  0.2527  0.3699 -0.0143
   65MOL0     C 8894   4.413   4.903   4.856 -0.2971 -1.0058  0.6224
   65MOL0     C 8895   4.336   4.894   4.987  0.1753 -0.3647 -0.5646
   65MOL0     C 8896   4.191   4.898   4.971 -0.5714 -0.4064 -0.4000
   65MOL0     C 8897   4.065   4.885   4.969  0.4917  0.0326 -0.2731
   65MOL0     C 8898   4.639   4.432   4.715 -0.4713  0.3415  0.2855
   65MOL0     C 8899   4.681   4.300   4.668 -0.4440 -0.5185  1.0274
   65MOL0     C 8900   4.579   4.218   4.598  0.1576  0.7384 -0.1229
   65MOL0     H 8901   5.138   3.988   4.501 -2.7537 -0.7625 -0.8488
   65MOL0     H 8902   5.219   3.740   4.538  2.7683 -0.2017  0.9343
   65MOL0     H 8903   5.097   3.459   4.814 -1.9733 -0.8907  4.2084
   65MOL0     H 8904   5.071   3.596   4.925  1.3863  2.1626 -0.7165
   65MOL0     H 8905   5.172   3.462   5.061 -0.5779 -2.7965 -1.0966
   65MOL0     H 8906   5.276   3.389   4.944 -2.6609 -1.2195  0.3008
   65MOL0     H 8907   5.421   3.574   4.939 -0.4809 -0.8261 -0.1199
   65MOL0     H 8908   5.300   3.675   5.025  4.0171  2.4484  0.4588
   65MOL0     H 8909   5.332   3.557   5.233  1.8935 -0.8818  1.8861
   65MOL0     H 8910   5.456   3.443   5.156 -0.6165 -0.6585 -1.2568
   65MOL0     H 8911   5.475   3.746   5.188 -1.1185 -0.3396  0.2539
   65MOL0     H 8912   5.602   3.627   5.133 -1.0143  0.5557 -1.2074
   65MOL0     H 8913   5.475   3.609   5.413 -1.6348  0.9805 -1.7443
   65MOL0     H 8914   5.608   3.519   5.349  2.7984  1.1079  3.8692
   65MOL0     H 8915   5.604   3.819   5.382  0.1750 -0.2341  0.6501
   65MOL0     H 8916   5.730   3.725   5.305  0.1018 -1.0896 -0.2281
   65MOL0     H 8917   5.759   3.812   5.554  0.1667 -0.4391  0.0610
   65MOL0     H 8918   5.639   3.688   5.600  0.6972 -1.4857  0.1899
   65MOL0     H 8919   5.963   3.651   5.377 -1.3663  1.4467 -0.9646
   65MOL0     H 8920   6.131   3.444   5.355  1.9544  0.3030 -0.5181
   65MOL0     H 8921   6.133   3.320   5.486 -1.3921 -1.0165 -1.5690
   65MOL0     H 8922   6.328   3.507   5.462 -0.6947  1.2469  0.0733
   65MOL0     H 8923   6.211   3.595   5.552 -1.2726 -0.0174 -1.4888
   65MOL0     H 8924   6.355   3.462   5.733  1.3293 -2.0600 -0.2537
   65MOL0     H 8925   6.184   3.415   5.720 -0.3816 -0.6418  0.3782
   65MOL0     H 8926   6.235   3.207   5.675 -2.1950  2.1920  0.6681
   65MOL0     H 8927   6.353   3.258   5.542  3.0615  0.0619  0.8647
   65MOL0     H 8928   6.450   3.054   5.517  0.3291 -2.8213 -1.2586
   65MOL0     H 8929   6.654   2.778   5.457 -0.7553  0.5202 -1.2632
   65MOL0     H 8930   6.490   2.838   5.433 -0.8163 -0.8827  0.3871
   65MOL0     H 8931   6.521   2.715   5.555  1.0517 -0.3122  0.9101
   65MOL0     H 8932   6.771   2.467   5.843 -0.7660  2.6101 -0.1826
   65MOL0     H 8933   6.967   2.312   5.869  0.9535  0.3128  0.2849
   65MOL0     H 8934   7.403   2.322   5.692  0.5887  0.2546  0.4225
   65MOL0     H 8935   7.328   2.477   5.665 -4.3554  2.0164  1.2145
   65MOL0     H 8936   7.301   2.514   5.915  0.9386  1.0950 -0.6806
   65MOL0     H 8937   7.385   2.355   5.937  1.5269  0.4723 -0.0672
   65MOL0     H 8938   7.485   2.602   5.787 -1.0350  0.4179  0.1686
   65MOL0     H 8939   7.564   2.444   5.775 -1.9091 -2.0517  0.2503
   65MOL0     H 8940   7.560   2.435   6.029  1.1426  0.0414  0.7812
   65MOL0     H 8941   7.527   2.614   6.023 -1.7628 -0.6671 -2.2447
   65MOL0     H 8942   7.770   2.460   5.891  1.1746  1.5610 -0.0953
   65MOL0     H 8943   7.729   2.637   5.895 -4.2120 -0.1497 -0.7366
   65MOL0     H 8944   7.785   2.473   6.135  1.0657  1.7587  3.9257
   65MOL0     H 8945   7.742   2.648   6.127  2.2124  1.1996  1.1322
   65MOL0     H 8946   7.968   2.648   5.979 -3.0998  2.8766  1.7197
   65MOL0     H 8947   7.996   2.487   6.062  1.3408 -0.1156  0.7127
   65MOL0     H 8948   7.957   2.605   6.272 -2.6214  0.5607 -0.4053
   65MOL0     H 8949   7.962   2.759   6.194  2.7012  0.9392  1.7674
   65MOL0     H 8950   7.158   2.536   5.551  0.8814 -1.0797  1.3030
   65MOL0     H 8951   6.977   2.674   5.528  0.2343 -1.0309 -0.7550
   65MOL0     H 8952   6.759   2.992   5.898 -0.5632 -1.5044 -0.5487
   65MOL0     H 8953   6.629   3.195   5.875  0.2920  0.8924 -1.2969
   65MOL0     H 8954   5.109   3.771   4.946  3.2411 -0.5202  1.4439
   65MOL0     H 8955   5.028   4.000   4.922  2.4194  0.5571  0.3105
   65MOL0     H 8956   5.015   4.372   4.709  0.7760 -0.0093  2.7173
   65MOL0     H 8957   4.932   4.566   4.786  1.3889 -0.7019 -2.4861
   65MOL0     H 8958   4.517   4.698   4.703  1.2078  1.7335  0.0193
   65MOL0     H 8959   4.491   4.635   4.869 -1.7692  0.4674 -0.5773
   65MOL0     H 8960   4.622   4.893   4.796 -0.7306 -0.1616 -1.7874
   65MOL0     H 8961   4.589   4.832   4.958  2.3769  0.0877 -0.7652
   65MOL0     H 8962   4.433   5.003   4.816 -1.6794 -1.1665 -0.5577
   65MOL0     H 8963   4.352   4.854   4.779  0.4621 -3.1074  1.3066
   65MOL0     H 8964   4.379   4.973   5.049  1.7982 -1.3663 -0.3566
   65MOL0     H 8965   4.358   4.805   5.047 -1.4315 -0.3412  0.1231
   65MOL0     H 8966   3.958   4.881   4.962  0.4651  2.1921 -1.9059
   65MOL0     H 8967   4.536   4.460   4.735 -0.5822  2.5316 -2.6991
   65MOL0     H 8968   4.518   4.287   4.539 -0.9385  0.6277  0.8468
   65MOL0     H 8969   4.616   4.142   4.528  0.2845  0.8391 -0.1659
   65MOL0     H 8970   4.512   4.159   4.661  1.0441 -0.7110 -0.4853
   66MOL0     O 8971  10.304   9.460   3.946 -0.4475  0.1342 -0.1629
   66MOL0     C 8972  10.217   9.499   4.023  0.1467  0.8364  0.1286
   66MOL0     O 8973  10.232   9.549   4.150 -1.0444  0.3760  0.4327
   66MOL0     C 8974  10.358   9.555   4.196  0.2868 -1.0640 -0.5559
   66MOL0     C 8975  10.427   9.684   4.204  0.4403  0.5738 -0.1679
   66MOL0     C 8976  10.549   9.696   4.263 -0.3029 -0.5617  0.4674
   66MOL0     C 8977  10.609   9.580   4.307 -0.3809 -0.0082 -0.2136
   66MOL0     O 8978  10.737   9.582   4.361  0.6068  0.8688 -0.2466
   66MOL0     C 8979  10.786   9.711   4.409  0.9697  0.3744 -1.2037
   66MOL0     C 8980  10.923   9.701   4.475  1.3238  0.1669 -0.0792
   66MOL0     C 8981  11.006   9.568   4.481  0.5606  1.0182  1.2666
   66MOL0     C 8982  11.092   9.528   4.355  0.3120 -0.0604  0.9428
   66MOL0     C 8983  11.220   9.613   4.343  0.0930  0.6829 -1.0026
   66MOL0     C 8984  11.338   9.553   4.424  0.6279  0.0832 -0.0125
   66MOL0     C 8985  11.472   9.637   4.412 -0.1342 -0.5503  0.7145
   66MOL0     C 8986  11.472   9.759   4.507 -0.2221 -0.0876 -0.5967
   66MOL0     N 8987  11.604   9.828   4.492  0.1458 -0.2286 -0.5492
   66MOL0     C 8988  11.612   9.955   4.453  0.8195  0.8207  0.6435
   66MOL0     C 8989  11.736   9.990   4.482  0.7311 -0.9705  0.5655
   66MOL0     C 8990  11.797  10.126   4.480 -0.5735  0.2486 -0.7069
   66MOL0     C 8991  11.891  10.144   4.354 -0.3770  0.6258 -0.5648
   66MOL0     C 8992  11.795  10.150   4.231  0.2745  0.4535 -0.1224
   66MOL0     C 8993  11.854  10.216   4.113 -0.5379  0.5865  0.5368
   66MOL0     O 8994  11.961  10.133   4.057 -0.4393 -0.1447 -0.1989
   66MOL0     C 8995  12.061  10.200   3.988 -0.3295  0.6224  0.1326
   66MOL0     C 8996  12.065  10.335   3.939 -0.2402 -0.1917 -0.8125
   66MOL0     C 8997  12.172  10.389   3.861  0.5572 -0.2953  1.3985
   66MOL0     C 8998  12.162  10.536   3.830  0.7631  1.2207  0.8593
   66MOL0     C 8999  12.281  10.296   3.839 -0.6603 -0.9856 -0.3533
   66MOL0     C 9000  12.404  10.346   3.768 -0.7549 -0.3210 -0.8057
   66MOL0     O 9001  12.519  10.279   3.802 -0.5678 -0.4410  0.2044
   66MOL0     C 9002  12.628  10.353   3.814  0.2675  0.7525  0.3062
   66MOL0     C 9003  12.677  10.381   3.940 -0.7775 -0.8541 -0.7031
   66MOL0     C 9004  12.806  10.429   3.962  0.3593  0.5691  0.4135
   66MOL0     C 9005  12.891  10.459   3.854  0.4039 -1.1779 -0.2475
   66MOL0     O 9006  13.022  10.488   3.873  0.6888  0.0018  0.1108
   66MOL0     C 9007  13.078  10.594   3.798  0.7654 -0.3566  0.6702
   66MOL0     C 9008  12.979  10.718   3.779 -0.3241 -0.5588 -0.2539
   66MOL0     C 9009  13.044  10.826   3.690  0.9311 -0.6263 -0.0363
   66MOL0     C 9010  13.042  10.770   3.544  0.1815  0.0371  0.4114
   66MOL0     C 9011  13.060  10.889   3.441 -0.2727 -0.7451 -0.2706
   66MOL0     C 9012  13.035  10.860   3.293  0.7187 -0.2443 -0.2217
   66MOL0     C 9013  13.131  10.743   3.240  0.8804 -0.7449 -0.1059
   66MOL0     C 9014  13.279  10.777   3.252  0.6291  0.1121 -0.0421
   66MOL0    Cl 9015  13.394  10.650   3.192 -0.0727  0.3525  0.0482
   66MOL0     C 9016  12.844  10.441   3.721 -0.2830  0.2097 -0.0270
   66MOL0     C 9017  12.715  10.379   3.704 -0.3310  0.4893 -0.3991
   66MOL0     O 9018  12.396  10.431   3.684 -0.5315  0.6097  0.0370
   66MOL0     C 9019  12.286  10.165   3.895  0.8271 -0.3298  0.7787
   66MOL0     C 9020  12.185  10.123   3.978  0.0507  0.2667 -0.3561
   66MOL0     N 9021  11.805   9.888   4.531 -0.4231 -0.1682  0.4112
   66MOL0     N 9022  11.721   9.789   4.542  0.0640  0.6386 -0.1665
   66MOL0     C 9023  10.548   9.453   4.287  0.3607 -0.1563  0.5915
   66MOL0     C 9024  10.416   9.441   4.244 -0.5510 -0.6580  0.1180
   66MOL0     C 9025  10.077   9.473   3.982 -0.2814  0.3338  0.7275
   66MOL0     C 9026  10.053   9.357   3.898 -0.1373  0.2765  0.2480
   66MOL0     C 9027   9.922   9.316   3.872 -0.6628  0.1145  0.4777
   66MOL0     C 9028   9.822   9.378   3.930 -0.0115  0.0651 -0.6308
   66MOL0     O 9029   9.691   9.329   3.904 -1.3414  0.2071  0.3917
   66MOL0     C 9030   9.610   9.404   3.819  0.2840 -0.8156  0.4561
   66MOL0     C 9031   9.515   9.306   3.764 -0.6634 -0.4761 -0.3093
   66MOL0     C 9032   9.387   9.355   3.691  0.8763 -1.1487 -0.8609
   66MOL0     C 9033   9.412   9.386   3.541 -0.5054  0.4361  1.1912
   66MOL0     C 9034   9.476   9.276   3.464 -0.2838  1.0994 -0.4266
   66MOL0     C 9035   9.540   9.193   3.394  0.7583  0.1788  0.3644
   66MOL0     C 9036   9.838   9.501   4.003 -0.4039  0.0114  0.4883
   66MOL0     C 9037   9.966   9.554   4.026  0.1037 -0.2238  0.2727
   66MOL0     C 9038   9.975   9.691   4.089 -0.6174 -0.1193 -0.4444
   66MOL0     H 9039  10.375   9.774   4.171 -0.6734 -0.3696 -1.0359
   66MOL0     H 9040  10.584   9.798   4.275 -0.4512  0.0024 -2.8227
   66MOL0     H 9041  10.727   9.746   4.494  1.6091 -2.1749  0.3966
   66MOL0     H 9042  10.789   9.783   4.326  0.3162  0.9007 -0.7806
   66MOL0     H 9043  10.977   9.766   4.405  1.0841  0.2764 -0.1618
   66MOL0     H 9044  10.911   9.745   4.574 -2.5231  1.8227 -1.0978
   66MOL0     H 9045  11.076   9.584   4.564  2.8203  3.0317 -0.8367
   66MOL0     H 9046  10.945   9.479   4.497 -1.3189  0.9741 -4.0998
   66MOL0     H 9047  11.113   9.421   4.356  1.5881  0.1690  1.8327
   66MOL0     H 9048  11.036   9.545   4.263 -1.0768  1.2835  2.0012
   66MOL0     H 9049  11.204   9.715   4.379 -0.9319  0.2727 -0.2376
   66MOL0     H 9050  11.258   9.619   4.240  0.0827  3.2809 -0.9260
   66MOL0     H 9051  11.301   9.533   4.525  0.4510  1.5917  0.2533
   66MOL0     H 9052  11.348   9.458   4.371 -1.0930  0.2534 -0.7277
   66MOL0     H 9053  11.500   9.672   4.312  3.0667 -1.2545  1.2723
   66MOL0     H 9054  11.559   9.574   4.434  1.6538  1.8688  0.9087
   66MOL0     H 9055  11.387   9.824   4.483 -1.1319 -1.0519 -0.0625
   66MOL0     H 9056  11.471   9.716   4.608  1.5099 -0.9671 -0.9021
   66MOL0     H 9057  11.532  10.016   4.413  0.2049 -1.7020 -2.3140
   66MOL0     H 9058  11.863  10.141   4.565 -0.2466  0.7555 -1.0445
   66MOL0     H 9059  11.734  10.215   4.480  1.9133  2.1667 -1.7336
   66MOL0     H 9060  11.962  10.227   4.358 -1.6673  1.7235  1.0719
   66MOL0     H 9061  11.943  10.048   4.344 -3.9350 -1.3635 -1.7657
   66MOL0     H 9062  11.756  10.054   4.198 -0.9144  1.4245 -1.6749
   66MOL0     H 9063  11.707  10.207   4.264 -0.1129 -0.7923  1.1299
   66MOL0     H 9064  11.785  10.223   4.028  1.0599  0.2237 -0.8195
   66MOL0     H 9065  11.893  10.313   4.147  0.4526  0.2639  0.3214
   66MOL0     H 9066  11.982  10.401   3.960 -0.9653 -1.2305 -0.3498
   66MOL0     H 9067  12.255  10.588   3.856  1.1218  1.4705 -0.7774
   66MOL0     H 9068  12.075  10.581   3.878  0.2514  2.4226 -1.0796
   66MOL0     H 9069  12.139  10.542   3.723  0.1690  0.2497  0.9232
   66MOL0     H 9070  12.622  10.346   4.026 -0.2401  0.3873  0.1806
   66MOL0     H 9071  12.853  10.425   4.060  2.0697  1.6021 -0.3138
   66MOL0     H 9072  13.161  10.639   3.853  1.7931 -2.1414  0.6576
   66MOL0     H 9073  13.111  10.553   3.702  0.8854 -1.7160  1.2630
   66MOL0     H 9074  12.882  10.699   3.731 -1.1649 -0.0022  1.1429
   66MOL0     H 9075  12.957  10.755   3.880  0.1606  2.6560 -1.2360
   66MOL0     H 9076  13.147  10.830   3.725  2.0996 -3.4835 -2.7527
   66MOL0     H 9077  12.989  10.921   3.698  2.8306  0.6592 -1.2285
   66MOL0     H 9078  12.947  10.721   3.522 -0.3723  0.9369  0.7367
   66MOL0     H 9079  13.128  10.705   3.526  1.9029  1.8774  1.5897
   66MOL0     H 9080  12.988  10.966   3.471 -1.4980 -2.9438  3.1384
   66MOL0     H 9081  13.158  10.934   3.456 -1.1577  0.3378  3.2098
   66MOL0     H 9082  13.063  10.943   3.227  1.4512 -0.6517 -0.4399
   66MOL0     H 9083  12.929  10.837   3.279  0.0972  2.0929  0.1682
   66MOL0     H 9084  13.100  10.732   3.135 -1.2748  1.3372  0.2064
   66MOL0     H 9085  13.109  10.651   3.295 -1.7852 -2.2386 -3.3237
   66MOL0     H 9086  13.307  10.807   3.354  2.0174 -0.8378 -0.1102
   66MOL0     H 9087  13.298  10.864   3.188 -0.2124 -0.9635 -1.8514
   66MOL0     H 9088  12.908  10.466   3.638  3.4400 -0.9468  2.2344
   66MOL0     H 9089  12.697  10.343   3.603  1.8969  2.7968 -1.7657
   66MOL0     H 9090  12.371  10.101   3.876 -0.7204 -2.0437 -0.7688
   66MOL0     H 9091  12.192  10.021   4.015 -0.8259 -0.7623 -2.8105
   66MOL0     H 9092  10.601   9.363   4.315 -1.3894 -1.2316  0.6077
   66MOL0     H 9093  10.359   9.349   4.236 -0.4750 -0.6497 -0.6867
   66MOL0     H 9094  10.140   9.315   3.849 -1.0402 -1.0234 -0.2921
   66MOL0     H 9095   9.902   9.229   3.811 -0.3025 -0.7230  1.5189
   66MOL0     H 9096   9.551   9.484   3.864  1.0567 -0.5911  1.0992
   66MOL0     H 9097   9.667   9.455   3.741 -2.7485  1.4727 -0.4501
   66MOL0     H 9098   9.481   9.228   3.831 -2.0447 -0.8068 -1.3578
   66MOL0     H 9099   9.574   9.257   3.685  1.2383  0.7493  0.2595
   66MOL0     H 9100   9.319   9.269   3.693  2.5088 -2.4862  0.9738
   66MOL0     H 9101   9.321   9.437   3.722  1.6906 -0.1638 -1.6607
   66MOL0     H 9102   9.465   9.480   3.523  0.3406 -0.6972 -3.5201
   66MOL0     H 9103   9.316   9.395   3.488  0.4951  0.6167 -0.6928
   66MOL0     H 9104   9.610   9.127   3.348  1.2385  0.8550  0.1134
   66MOL0     H 9105   9.757   9.566   4.034 -2.1006 -1.2896 -1.0108
   66MOL0     H 9106  10.065   9.737   4.047 -0.4545  0.3620  0.4022
   66MOL0     H 9107   9.881   9.746   4.077 -0.5772 -0.1029 -0.6869
   66MOL0     H 9108   9.988   9.685   4.197 -2.5891  0.7323 -0.1116
   67MOL0     O 9109   0.519   4.551   5.450 -0.0738  0.1827  0.0730
   67MOL0     C 9110   0.475   4.437   5.452  0.7743  0.2308 -0.0973
   67MOL0     O 9111   0.523   4.333   5.373  1.0375 -0.6579 -0.7444
   67MOL0     C 9112   0.601   4.358   5.266 -0.0034  0.4108  0.5097
   67MOL0     C 9113   0.715   4.281   5.264 -0.0645 -0.4541  0.6634
   67MOL0     C 9114   0.804   4.295   5.149  0.0950 -0.6616 -0.2000
   67MOL0     C 9115   0.777   4.383   5.042 -0.0223  0.2511  0.7880
   67MOL0     O 9116   0.849   4.372   4.921  0.3067  0.1639 -0.2171
   67MOL0     C 9117   0.951   4.473   4.903  1.5562  0.0411 -0.4777
   67MOL0     C 9118   1.064   4.401   4.828  0.8422 -0.4058 -0.1666
   67MOL0     C 9119   1.201   4.478   4.835 -0.4625  0.7458 -0.5505
   67MOL0     C 9120   1.199   4.607   4.752  0.0693  0.3430 -0.3263
   67MOL0     C 9121   1.311   4.701   4.805  0.1494  0.0435 -0.6695
   67MOL0     C 9122   1.447   4.700   4.740  0.1534 -0.3674  0.2524
   67MOL0     C 9123   1.453   4.779   4.605 -0.8450 -0.6067  0.0187
   67MOL0     C 9124   1.578   4.787   4.523 -0.1898 -0.0353 -0.4694
   67MOL0     N 9125   1.686   4.852   4.597  0.7365  0.3000 -0.5551
   67MOL0     C 9126   1.769   4.799   4.700  0.2477 -0.8391 -0.9167
   67MOL0     C 9127   1.845   4.908   4.746 -0.0812 -0.2629 -0.2865
   67MOL0     C 9128   1.946   4.897   4.861 -0.3148 -0.7998  0.2244
   67MOL0     C 9129   2.068   4.991   4.844 -0.3416  0.0396  0.5969
   67MOL0     C 9130   2.165   4.985   4.962  1.0414 -0.1930  0.1111
   67MOL0     C 9131   2.292   5.071   4.943 -0.5109  0.1705 -0.4257
   67MOL0     O 9132   2.360   5.036   5.060 -0.3907  0.0342  1.2972
   67MOL0     C 9133   2.494   5.064   5.079 -0.4558 -0.3753  0.6613
   67MOL0     C 9134   2.575   4.992   5.163 -0.2842 -0.0509 -0.1379
   67MOL0     C 9135   2.715   5.016   5.181 -0.1804  0.0795 -0.0242
   67MOL0     C 9136   2.777   4.926   5.285  0.2514  0.3719  0.2344
   67MOL0     C 9137   2.784   5.112   5.098 -0.0961 -0.6926 -0.4268
   67MOL0     C 9138   2.925   5.152   5.119 -0.4235  0.2510  0.4591
   67MOL0     O 9139   2.978   5.272   5.077  0.5974  0.0570  0.0733
   67MOL0     C 9140   3.116   5.302   5.097  0.4535 -0.6647 -0.0352
   67MOL0     C 9141   3.188   5.353   4.987 -0.0284  0.3456 -0.1449
   67MOL0     C 9142   3.323   5.390   5.006 -0.2569 -0.5046  0.7680
   67MOL0     C 9143   3.385   5.397   5.132 -0.1959  0.5139 -0.2606
   67MOL0     O 9144   3.516   5.436   5.145 -0.2707  0.1229 -0.2281
   67MOL0     C 9145   3.582   5.462   5.275 -0.3671  0.3642  0.7104
   67MOL0     C 9146   3.560   5.605   5.324 -0.5350 -0.3843  0.5352
   67MOL0     C 9147   3.667   5.641   5.428  0.1055  0.0804  0.1130
   67MOL0     C 9148   3.664   5.765   5.504  0.2613  0.6876 -0.0770
   67MOL0     C 9149   3.793   5.809   5.580  0.0143 -0.3005  0.5884
   67MOL0     C 9150   3.755   5.947   5.638 -0.2379 -0.3348  0.2813
   67MOL0     C 9151   3.888   6.022   5.683  0.0138  0.3172  0.2869
   67MOL0     C 9152   3.870   6.163   5.727 -0.7421  1.4316  0.2667
   67MOL0    Cl 9153   4.022   6.227   5.784 -0.3424 -0.0683  0.6395
   67MOL0     C 9154   3.311   5.348   5.240  0.4342 -0.1729  0.3860
   67MOL0     C 9155   3.179   5.306   5.227 -0.0632 -0.3250  0.1413
   67MOL0     O 9156   3.006   5.072   5.175  0.2477  0.1343 -0.4550
   67MOL0     C 9157   2.709   5.184   5.003 -0.3528  0.1903  0.1800
   67MOL0     C 9158   2.570   5.148   4.987 -0.0735  0.3451  0.0498
   67MOL0     N 9159   1.796   5.021   4.688  0.1716 -0.0400 -0.5024
   67MOL0     N 9160   1.700   4.990   4.603 -0.0046  0.1053  0.2766
   67MOL0     C 9161   0.659   4.455   5.047  0.3691  0.8717 -0.4810
   67MOL0     C 9162   0.578   4.454   5.160  0.1267 -0.5206 -0.4181
   67MOL0     C 9163   0.351   4.395   5.532 -0.1573 -0.4499  0.0572
   67MOL0     C 9164   0.351   4.268   5.579  0.4179  0.0083 -0.6019
   67MOL0     C 9165   0.243   4.227   5.658  0.0910 -0.8082 -0.3505
   67MOL0     C 9166   0.125   4.304   5.674 -0.1679  0.8839 -0.5597
   67MOL0     O 9167   0.020   4.238   5.727  0.2738  0.6289  0.2893
   67MOL0     C 9168  -0.091   4.318   5.771 -0.4920 -0.2183 -0.2309
   67MOL0     C 9169  -0.184   4.222   5.844 -0.2819  0.4085  0.8234
   67MOL0     C 9170  -0.259   4.282   5.958  0.5602  0.3373 -0.2590
   67MOL0     C 9171  -0.372   4.193   6.006 -0.1657  0.2686  0.1905
   67MOL0     C 9172  -0.481   4.190   5.910  0.4581 -0.5497  0.0007
   67MOL0     C 9173  -0.567   4.181   5.830  0.2376  0.8291  0.7506
   67MOL0     C 9174   0.131   4.432   5.620  0.5550 -0.2426 -1.4120
   67MOL0     C 9175   0.238   4.481   5.547  0.3126 -0.7060 -0.7596
   67MOL0     C 9176   0.220   4.622   5.484  0.5412  0.0305 -0.2333
   67MOL0     H 9177   0.733   4.213   5.346  1.7895  0.5474  1.1364
   67MOL0     H 9178   0.884   4.221   5.151  1.2802  0.6049  1.0220
   67MOL0     H 9179   0.985   4.503   5.003  0.8085  2.5701 -0.8977
   67MOL0     H 9180   0.925   4.568   4.854  1.3646  1.3242  1.9379
   67MOL0     H 9181   1.067   4.304   4.879 -1.9061 -0.8825 -0.7464
   67MOL0     H 9182   1.035   4.366   4.728 -1.2615 -0.1461  0.3054
   67MOL0     H 9183   1.221   4.478   4.942 -0.4253  1.7320 -0.5561
   67MOL0     H 9184   1.275   4.417   4.782  0.4290  0.4230  1.0077
   67MOL0     H 9185   1.205   4.590   4.644 -0.9576 -2.9044  0.0282
   67MOL0     H 9186   1.104   4.661   4.759 -0.3736 -0.3379 -0.9504
   67MOL0     H 9187   1.325   4.695   4.914  0.7630 -0.6479 -0.7777
   67MOL0     H 9188   1.272   4.802   4.791 -3.2798 -1.1556 -0.7259
   67MOL0     H 9189   1.505   4.758   4.813 -3.3397  1.2669  1.9399
   67MOL0     H 9190   1.497   4.604   4.726  0.6032 -0.3570  1.6718
   67MOL0     H 9191   1.443   4.886   4.626  0.3132 -0.6054  0.6600
   67MOL0     H 9192   1.369   4.749   4.542  0.6928 -2.1175 -1.4020
   67MOL0     H 9193   1.613   4.685   4.503  0.1860  0.0372 -0.1863
   67MOL0     H 9194   1.547   4.837   4.431 -3.5018  0.0669  0.5447
   67MOL0     H 9195   1.778   4.696   4.734  2.3014  0.1453  1.8210
   67MOL0     H 9196   1.984   4.796   4.873  2.7151  0.2366  0.2760
   67MOL0     H 9197   1.900   4.933   4.954 -1.1658 -2.3445  0.4293
   67MOL0     H 9198   2.121   4.970   4.751  0.9166  1.2072  1.0027
   67MOL0     H 9199   2.036   5.093   4.821 -3.5828 -1.0820 -0.3899
   67MOL0     H 9200   2.130   5.018   5.060  1.4904  1.0076 -0.1109
   67MOL0     H 9201   2.199   4.882   4.970  1.7561 -0.4159 -3.8701
   67MOL0     H 9202   2.350   5.047   4.854  0.3640 -0.6928  0.3589
   67MOL0     H 9203   2.270   5.178   4.940 -0.3974  0.2296  0.6821
   67MOL0     H 9204   2.516   4.921   5.220  0.3796  0.3119  1.0517
   67MOL0     H 9205   2.877   4.888   5.260  0.5390  0.2554  1.4817
   67MOL0     H 9206   2.705   4.845   5.298  0.2815 -0.5789 -4.1893
   67MOL0     H 9207   2.787   4.981   5.379  4.1803 -0.4429  0.4570
   67MOL0     H 9208   3.138   5.344   4.891  0.6794 -0.9790 -0.4216
   67MOL0     H 9209   3.378   5.423   4.919  0.2884 -0.8443  0.9800
   67MOL0     H 9210   3.558   5.381   5.344 -3.0726 -0.3471 -0.9323
   67MOL0     H 9211   3.687   5.466   5.244 -0.5228  1.8980  0.2869
   67MOL0     H 9212   3.566   5.666   5.234  2.5909 -3.2778 -1.4091
   67MOL0     H 9213   3.465   5.617   5.378 -1.4703  0.9215 -1.2816
   67MOL0     H 9214   3.765   5.636   5.378 -0.8739 -0.0835 -1.8876
   67MOL0     H 9215   3.657   5.559   5.501 -0.5329 -1.1732 -1.3200
   67MOL0     H 9216   3.587   5.750   5.580  0.9363  0.8514  0.6541
   67MOL0     H 9217   3.644   5.848   5.435  1.1765  2.1964  1.3843
   67MOL0     H 9218   3.831   5.740   5.655  2.3199  0.2490  0.0005
   67MOL0     H 9219   3.867   5.839   5.505 -0.4679  3.6934  1.5045
   67MOL0     H 9220   3.682   5.942   5.720  0.8282  1.5228  1.4000
   67MOL0     H 9221   3.706   6.007   5.561 -2.1153  1.6506  2.8180
   67MOL0     H 9222   3.971   6.010   5.613  1.5180 -1.6438  2.3073
   67MOL0     H 9223   3.921   5.971   5.773  0.3437 -2.5241 -1.3306
   67MOL0     H 9224   3.783   6.174   5.793 -0.0314  0.2961  1.4215
   67MOL0     H 9225   3.841   6.213   5.633 -5.0328  0.6666  0.9693
   67MOL0     H 9226   3.357   5.352   5.338 -0.3120  0.9603  0.7152
   67MOL0     H 9227   3.109   5.278   5.304 -0.4073  0.2106  0.0252
   67MOL0     H 9228   2.741   5.271   4.946 -1.7608  2.0707  2.0934
   67MOL0     H 9229   2.522   5.207   4.910  2.4890  2.2799 -0.1717
   67MOL0     H 9230   0.643   4.526   4.966 -0.1950  1.3512  0.0360
   67MOL0     H 9231   0.495   4.524   5.165  1.3533  1.1616 -2.2800
   67MOL0     H 9232   0.432   4.197   5.571 -1.1227 -1.6415 -2.7836
   67MOL0     H 9233   0.239   4.124   5.694 -0.2540 -0.7162 -0.1202
   67MOL0     H 9234  -0.058   4.393   5.844 -0.0870 -1.2718  0.7022
   67MOL0     H 9235  -0.139   4.362   5.683  0.1943 -2.9590 -2.1046
   67MOL0     H 9236  -0.128   4.139   5.888  0.5432 -0.6487 -1.9635
   67MOL0     H 9237  -0.258   4.186   5.772 -0.3426  0.6749  0.7506
   67MOL0     H 9238  -0.193   4.285   6.045 -2.0849 -3.9644  2.2639
   67MOL0     H 9239  -0.303   4.380   5.939 -3.3499 -1.5507 -2.0203
   67MOL0     H 9240  -0.413   4.235   6.098 -0.2905 -0.2271  0.3622
   67MOL0     H 9241  -0.328   4.095   6.025 -2.3055 -1.2004 -1.9360
   67MOL0     H 9242  -0.651   4.173   5.764 -0.6937 -4.2775  2.1744
   67MOL0     H 9243   0.040   4.490   5.616  0.8502  0.2266 -1.3274
   67MOL0     H 9244   0.241   4.616   5.377 -0.1961  1.0347 -0.4458
   67MOL0     H 9245   0.121   4.659   5.511 -0.4205 -2.2129 -0.4900
   67MOL0     H 9246   0.295   4.687   5.530  0.7003 -0.4153  0.1525
   68MOL0     O 9247   3.427   2.677   3.557  0.0998 -0.6099  0.3574
   68MOL0     C 9248   3.397   2.757   3.644  0.3327  0.3213 -0.6063
   68MOL0     O 9249   3.491   2.823   3.722  0.6900  0.1807 -0.4198
   68MOL0     C 9250   3.625   2.799   3.712 -0.7221 -0.0047 -0.1311
   68MOL0     C 9251   3.681   2.716   3.803 -0.2541 -0.1321  0.0615
   68MOL0     C 9252   3.818   2.682   3.807 -1.4960 -0.4721 -0.4577
   68MOL0     C 9253   3.903   2.738   3.714  0.3607  0.0409  0.1135
   68MOL0     O 9254   4.040   2.728   3.734  0.2706  0.2284  0.2771
   68MOL0     C 9255   4.104   2.675   3.854  0.9754 -0.3733  0.2273
   68MOL0     C 9256   4.246   2.636   3.811 -0.1340 -0.7675 -0.3587
   68MOL0     C 9257   4.348   2.753   3.801  0.0926  0.0369  0.1449
   68MOL0     C 9258   4.485   2.712   3.741 -0.1936 -0.3839  0.5313
   68MOL0     C 9259   4.563   2.846   3.718 -0.1960  0.2305  0.1861
   68MOL0     C 9260   4.702   2.807   3.659  0.4771 -0.3369 -0.3881
   68MOL0     C 9261   4.804   2.915   3.685 -0.0422 -0.4424  0.4368
   68MOL0     C 9262   4.942   2.871   3.653  0.2298 -0.0071 -0.3296
   68MOL0     N 9263   4.966   2.883   3.509  0.6864 -0.0612  0.9623
   68MOL0     C 9264   4.947   2.791   3.407 -0.3111  0.5442 -0.2719
   68MOL0     C 9265   5.006   2.842   3.297  0.1854 -0.2671  0.1231
   68MOL0     C 9266   5.017   2.791   3.157 -0.5663 -0.1022 -0.6339
   68MOL0     C 9267   5.125   2.683   3.151 -0.4048  0.7273 -0.3791
   68MOL0     C 9268   5.154   2.652   3.002  0.6215 -0.3001 -0.2120
   68MOL0     C 9269   5.273   2.556   2.990  0.1960 -0.0981  0.0145
   68MOL0     O 9270   5.324   2.532   2.857 -0.0269  0.0606 -0.2966
   68MOL0     C 9271   5.451   2.479   2.841 -0.2301 -0.1297  0.6110
   68MOL0     C 9272   5.505   2.393   2.935 -1.4783  0.1245  0.4601
   68MOL0     C 9273   5.636   2.358   2.921  0.5255  0.2669  0.1047
   68MOL0     C 9274   5.677   2.265   3.035 -0.2509 -0.4793  0.2623
   68MOL0     C 9275   5.711   2.390   2.804  0.6854 -0.7844 -0.6872
   68MOL0     C 9276   5.853   2.339   2.776 -0.1088  0.4889 -0.0603
   68MOL0     O 9277   5.893   2.336   2.646 -0.0758 -0.2724  0.1963
   68MOL0     C 9278   6.026   2.312   2.616 -0.1896  0.2066 -0.5173
   68MOL0     C 9279   6.074   2.180   2.631  0.1593  0.7879 -0.2179
   68MOL0     C 9280   6.202   2.153   2.592  0.1583  0.3967 -0.2291
   68MOL0     C 9281   6.287   2.251   2.542 -0.1944  0.1584 -0.1699
   68MOL0     O 9282   6.412   2.205   2.515  0.3292 -0.0139  0.4414
   68MOL0     C 9283   6.511   2.284   2.573  0.3780  0.0552  0.0484
   68MOL0     C 9284   6.650   2.229   2.542  0.1468  0.3105  1.2964
   68MOL0     C 9285   6.747   2.306   2.621  0.7949 -0.0552 -0.9589
   68MOL0     C 9286   6.803   2.414   2.538  0.4082  0.1395  1.0888
   68MOL0     C 9287   6.900   2.508   2.607 -0.1192 -0.9455 -0.1930
   68MOL0     C 9288   7.039   2.447   2.652 -0.4760 -0.1307 -0.4846
   68MOL0     C 9289   7.037   2.381   2.792  0.0330 -0.9062  0.0374
   68MOL0     C 9290   7.056   2.476   2.906  0.0680 -0.3997  0.2173
   68MOL0    Cl 9291   7.093   2.394   3.063  0.0680 -0.2886 -0.2104
   68MOL0     C 9292   6.241   2.381   2.525 -1.0028 -0.0286 -0.4043
   68MOL0     C 9293   6.112   2.408   2.567  0.3624  0.0923 -0.0931
   68MOL0     O 9294   5.920   2.320   2.872 -0.0340 -0.4433  0.3821
   68MOL0     C 9295   5.654   2.462   2.699  0.0799 -0.3260 -0.4998
   68MOL0     C 9296   5.524   2.499   2.725 -0.3035  0.2044  0.2988
   68MOL0     N 9297   5.062   2.958   3.336  0.8201 -0.7209  0.5368
   68MOL0     N 9298   5.024   2.988   3.445 -0.2081 -0.1687 -0.5712
   68MOL0     C 9299   3.843   2.820   3.611 -0.2076  0.5560 -0.2571
   68MOL0     C 9300   3.707   2.843   3.608  0.0038 -0.5631  0.0625
   68MOL0     C 9301   3.257   2.785   3.683  0.5277  0.6298  0.2687
   68MOL0     C 9302   3.223   2.862   3.803  0.2642 -0.8348 -0.1413
   68MOL0     C 9303   3.093   2.889   3.844  0.2269 -0.5840 -0.0786
   68MOL0     C 9304   2.983   2.829   3.781  0.1470 -0.0525  0.4553
   68MOL0     O 9305   2.851   2.836   3.825 -0.2289  0.2480  0.4544
   68MOL0     C 9306   2.745   2.843   3.731 -0.3467  1.1647  0.2945
   68MOL0     C 9307   2.610   2.844   3.806 -0.1851  0.0432  0.2003
   68MOL0     C 9308   2.482   2.835   3.723  0.3392 -0.4402 -0.0895
   68MOL0     C 9309   2.372   2.737   3.763 -0.2848  0.1818  0.0929
   68MOL0     C 9310   2.310   2.777   3.885 -0.2019 -0.2823  0.2305
   68MOL0     C 9311   2.253   2.821   3.983 -0.0831  0.7553 -0.7114
   68MOL0     C 9312   3.014   2.762   3.657 -0.6104 -0.0348  0.1391
   68MOL0     C 9313   3.143   2.733   3.612  0.6011  0.2774 -0.0500
   68MOL0     C 9314   3.155   2.669   3.472 -0.2738  0.1678  0.2267
   68MOL0     H 9315   3.623   2.674   3.884 -0.7400 -1.8161 -1.0941
   68MOL0     H 9316   3.867   2.632   3.890 -2.1175 -3.0407 -1.5490
   68MOL0     H 9317   4.055   2.578   3.869 -0.9884  0.4661 -0.4684
   68MOL0     H 9318   4.100   2.741   3.942  1.4132  2.6641 -1.8893
   68MOL0     H 9319   4.286   2.563   3.882  0.8539  0.3605  0.2836
   68MOL0     H 9320   4.246   2.587   3.713 -1.6085 -0.2938 -0.6240
   68MOL0     H 9321   4.305   2.831   3.738 -1.7934 -0.9074  0.1896
   68MOL0     H 9322   4.363   2.804   3.897  0.6324  0.8281 -0.3477
   68MOL0     H 9323   4.548   2.646   3.801  2.2346 -0.5738 -1.9972
   68MOL0     H 9324   4.472   2.671   3.641 -1.7993 -0.7260  0.8577
   68MOL0     H 9325   4.586   2.894   3.814  0.0967  0.5752 -0.0548
   68MOL0     H 9326   4.517   2.924   3.657 -0.5677 -0.3785 -0.3303
   68MOL0     H 9327   4.744   2.712   3.692 -0.1976 -1.3224 -2.2094
   68MOL0     H 9328   4.694   2.793   3.551 -1.2536  0.1004 -0.3460
   68MOL0     H 9329   4.812   2.935   3.792  3.7548  0.2268  0.1650
   68MOL0     H 9330   4.779   3.013   3.643 -0.8285 -1.3511 -1.3230
   68MOL0     H 9331   5.019   2.927   3.707  1.3553 -2.1274  0.3563
   68MOL0     H 9332   4.945   2.765   3.680 -1.5771  0.0354  0.1341
   68MOL0     H 9333   4.897   2.696   3.420 -0.5403  0.6998  0.0062
   68MOL0     H 9334   5.030   2.877   3.090  0.0371  2.5199  2.6158
   68MOL0     H 9335   4.920   2.747   3.132 -1.3789  1.1680  0.1165
   68MOL0     H 9336   5.211   2.726   3.204 -1.0333  1.9373 -0.3084
   68MOL0     H 9337   5.082   2.593   3.195 -0.5183  1.6905  1.5902
   68MOL0     H 9338   5.059   2.619   2.958  1.3483 -2.9642  0.0237
   68MOL0     H 9339   5.181   2.746   2.953 -2.7557  1.1029  0.3529
   68MOL0     H 9340   5.353   2.602   3.049 -1.0865  2.3886 -0.0571
   68MOL0     H 9341   5.247   2.458   3.030 -0.1922 -0.7112 -1.6744
   68MOL0     H 9342   5.429   2.349   2.998 -2.4556  0.0225 -0.7432
   68MOL0     H 9343   5.741   2.323   3.102  0.7617 -2.2250  0.8874
   68MOL0     H 9344   5.726   2.183   2.981 -0.8941 -0.1576 -0.8333
   68MOL0     H 9345   5.588   2.233   3.091  0.2822  0.1288  1.5033
   68MOL0     H 9346   6.007   2.098   2.653 -0.2333  0.6067 -1.9068
   68MOL0     H 9347   6.246   2.054   2.584  0.5390  0.5748 -0.3755
   68MOL0     H 9348   6.519   2.390   2.547  2.3952  0.0231  0.3696
   68MOL0     H 9349   6.489   2.283   2.680 -4.1013 -0.0700 -0.6834
   68MOL0     H 9350   6.658   2.123   2.569 -2.3421 -0.2809 -0.0248
   68MOL0     H 9351   6.674   2.249   2.438  2.5400  0.1945  1.7746
   68MOL0     H 9352   6.836   2.245   2.638  1.2384  0.8619  0.1007
   68MOL0     H 9353   6.718   2.336   2.722  1.8405 -0.8491 -0.3934
   68MOL0     H 9354   6.718   2.472   2.501  1.1562 -0.6749 -2.2939
   68MOL0     H 9355   6.850   2.374   2.448  0.2568  0.4212  0.8833
   68MOL0     H 9356   6.933   2.583   2.535 -1.2713 -0.7034 -0.4900
   68MOL0     H 9357   6.852   2.556   2.693 -1.3812  2.3885 -2.5461
   68MOL0     H 9358   7.116   2.525   2.655 -0.2378 -0.3980  1.3227
   68MOL0     H 9359   7.083   2.383   2.576  0.2508  0.2625 -0.4016
   68MOL0     H 9360   7.117   2.308   2.801 -1.7381 -2.7052  2.2477
   68MOL0     H 9361   6.940   2.332   2.804 -2.0075  2.6056 -0.4406
   68MOL0     H 9362   6.960   2.528   2.922  0.1569 -0.7046  1.8894
   68MOL0     H 9363   7.131   2.552   2.882  1.2782 -1.4684  0.5194
   68MOL0     H 9364   6.305   2.464   2.497 -0.2747  0.0441  1.3899
   68MOL0     H 9365   6.079   2.510   2.549 -2.1498 -0.2366  1.9420
   68MOL0     H 9366   5.700   2.505   2.610 -0.0432  1.3333  0.2008
   68MOL0     H 9367   5.473   2.556   2.647 -0.2585  1.7704  1.3608
   68MOL0     H 9368   3.900   2.859   3.527  1.7968 -0.5536  0.5161
   68MOL0     H 9369   3.658   2.908   3.537 -1.3621  1.0560  2.3486
   68MOL0     H 9370   3.302   2.912   3.858 -0.1533  0.2436 -0.4985
   68MOL0     H 9371   3.074   2.958   3.925 -0.0335 -1.5905  0.7317
   68MOL0     H 9372   2.752   2.938   3.675 -1.1013 -0.0087 -1.9180
   68MOL0     H 9373   2.738   2.761   3.659  0.6340  3.0113 -2.0714
   68MOL0     H 9374   2.606   2.934   3.867  2.5995  0.6296 -0.3597
   68MOL0     H 9375   2.609   2.756   3.872 -4.5322 -0.3599 -0.0736
   68MOL0     H 9376   2.438   2.932   3.697 -2.9787 -0.9695  2.6904
   68MOL0     H 9377   2.512   2.791   3.627 -2.3230  0.7607 -1.5890
   68MOL0     H 9378   2.420   2.639   3.764 -0.3235  0.1164 -1.6576
   68MOL0     H 9379   2.299   2.722   3.683  0.5418  3.0644 -1.3461
   68MOL0     H 9380   2.205   2.857   4.072 -2.0960  0.3046 -1.5582
   68MOL0     H 9381   2.930   2.717   3.605 -1.9658  3.3499 -0.8891
   68MOL0     H 9382   3.179   2.744   3.396  1.6466  1.2524  1.8127
   68MOL0     H 9383   3.223   2.583   3.474  1.2391  1.3069 -0.3468
   68MOL0     H 9384   3.060   2.626   3.438  1.3239 -1.8948 -1.9776
   69MOL0     O 9385   6.018   1.698   5.296 -0.1850  0.3083  0.4475
   69MOL0     C 9386   5.935   1.622   5.249  0.4010 -0.3715  0.3163
   69MOL0     O 9387   5.966   1.521   5.160  0.2164 -0.3597  0.9338
   69MOL0     C 9388   6.101   1.522   5.122  0.1269 -0.0498  0.2875
   69MOL0     C 9389   6.158   1.636   5.048 -0.2423 -0.4821 -1.1854
   69MOL0     C 9390   6.289   1.627   4.999  0.1747  0.4035  0.5142
   69MOL0     C 9391   6.362   1.510   5.008 -0.2536  0.2638 -0.3504
   69MOL0     O 9392   6.486   1.505   4.948 -0.7095 -0.6999 -0.0607
   69MOL0     C 9393   6.596   1.426   5.006 -0.0212 -0.0782  0.1075
   69MOL0     C 9394   6.717   1.466   4.920  0.1008 -0.4803  0.7308
   69MOL0     C 9395   6.842   1.381   4.947 -0.7550 -0.3691 -0.0814
   69MOL0     C 9396   6.964   1.416   4.853  0.8136 -0.1817 -0.4340
   69MOL0     C 9397   7.077   1.323   4.888 -0.0031 -0.1758 -0.0439
   69MOL0     C 9398   7.176   1.325   4.773 -0.3988 -0.5708  0.2700
   69MOL0     C 9399   7.280   1.220   4.815 -0.2352 -0.0351  0.0840
   69MOL0     C 9400   7.396   1.213   4.722 -0.2103  0.2517  0.1020
   69MOL0     N 9401   7.510   1.152   4.793  0.6412 -0.7659  0.3581
   69MOL0     C 9402   7.630   1.212   4.821  0.7003 -0.3480  0.0170
   69MOL0     C 9403   7.687   1.126   4.911  0.3789  0.0737  0.6961
   69MOL0     C 9404   7.821   1.150   4.972 -0.0492  0.4670 -0.2776
   69MOL0     C 9405   7.927   1.083   4.883  0.0998 -1.3758  0.2130
   69MOL0     C 9406   8.065   1.056   4.948 -0.1056  0.6552 -0.6451
   69MOL0     C 9407   8.189   1.039   4.867 -0.0263 -0.9264 -0.6683
   69MOL0     O 9408   8.223   1.157   4.791 -0.2835  0.4631  0.3330
   69MOL0     C 9409   8.297   1.263   4.838  0.5023 -0.6285 -0.1507
   69MOL0     C 9410   8.338   1.286   4.966  0.1868 -0.0709  0.0221
   69MOL0     C 9411   8.408   1.405   5.003  0.8592  0.1171 -0.3090
   69MOL0     C 9412   8.479   1.398   5.141  0.2749 -0.4698 -0.7999
   69MOL0     C 9413   8.430   1.501   4.901 -1.0518 -0.0178 -0.6453
   69MOL0     C 9414   8.498   1.624   4.946  0.0456  0.4035  0.3431
   69MOL0     O 9415   8.572   1.694   4.849 -0.1310  0.8142 -0.0861
   69MOL0     C 9416   8.642   1.798   4.887 -0.4464 -0.5401 -0.3772
   69MOL0     C 9417   8.744   1.810   4.989  0.5894  0.2805  0.2271
   69MOL0     C 9418   8.818   1.929   5.002  0.0607  0.5384  0.5819
   69MOL0     C 9419   8.784   2.049   4.928  0.3836  0.6235 -0.3680
   69MOL0     O 9420   8.850   2.170   4.939  0.4045 -0.3475 -0.5935
   69MOL0     C 9421   8.993   2.167   4.941  0.3544 -0.0479  0.2862
   69MOL0     C 9422   9.040   2.307   4.992  0.4812  0.4061 -0.7028
   69MOL0     C 9423   9.070   2.311   5.139 -0.2458  0.1147  0.0274
   69MOL0     C 9424   8.937   2.326   5.222  1.0312  0.0826 -0.2725
   69MOL0     C 9425   8.944   2.367   5.369 -1.4058 -0.7932 -0.2111
   69MOL0     C 9426   9.029   2.486   5.405  0.1125 -0.4425 -0.4951
   69MOL0     C 9427   8.987   2.532   5.546  0.0127 -0.5336 -0.4977
   69MOL0     C 9428   9.054   2.657   5.595 -0.1975 -0.6282 -0.4922
   69MOL0    Cl 9429   9.235   2.644   5.587  0.8400  0.5010 -0.0082
   69MOL0     C 9430   8.682   2.036   4.827 -1.1635  0.4551  0.0752
   69MOL0     C 9431   8.621   1.911   4.811 -0.6379  0.6607 -0.3108
   69MOL0     O 9432   8.477   1.667   5.060 -0.0643 -0.1113 -0.2462
   69MOL0     C 9433   8.400   1.470   4.773 -0.1448  0.2891 -0.1047
   69MOL0     C 9434   8.338   1.355   4.735 -0.6515 -0.4466  0.5615
   69MOL0     N 9435   7.610   1.013   4.913 -1.0520 -0.2562  0.3979
   69MOL0     N 9436   7.500   1.025   4.846  0.3410 -0.0241 -0.4543
   69MOL0     C 9437   6.317   1.407   5.093  0.6229 -0.2515 -0.1394
   69MOL0     C 9438   6.184   1.416   5.146  0.5509 -0.2244  0.0256
   69MOL0     C 9439   5.790   1.621   5.287 -0.0328  0.2025  0.5134
   69MOL0     C 9440   5.708   1.515   5.236  0.6237  0.9355  0.0417
   69MOL0     C 9441   5.568   1.519   5.252 -0.4893 -0.7793 -0.0581
   69MOL0     C 9442   5.509   1.614   5.332  0.5257 -0.5120 -0.3269
   69MOL0     O 9443   5.369   1.616   5.325 -0.9075 -0.7175 -0.1785
   69MOL0     C 9444   5.303   1.688   5.431 -0.2362  0.2434  0.3580
   69MOL0     C 9445   5.156   1.651   5.431 -0.1672  0.1179 -0.2084
   69MOL0     C 9446   5.067   1.748   5.512 -0.2452 -0.5444 -0.6217
   69MOL0     C 9447   4.921   1.741   5.472  0.0825 -0.7465 -0.1205
   69MOL0     C 9448   4.834   1.824   5.549  0.2203 -0.8201  0.0708
   69MOL0     C 9449   4.760   1.910   5.594 -0.7178  0.1703 -0.2242
   69MOL0     C 9450   5.593   1.707   5.396  0.3712  0.2121 -0.2637
   69MOL0     C 9451   5.730   1.722   5.372  0.2609 -0.2967  0.7166
   69MOL0     C 9452   5.809   1.835   5.437  0.5714 -0.3574  0.6740
   69MOL0     H 9453   6.107   1.732   5.045 -0.3309 -0.4729  0.0555
   69MOL0     H 9454   6.340   1.708   4.947  2.8964 -2.5452 -1.8008
   69MOL0     H 9455   6.590   1.318   4.989  2.9580 -0.5535  1.4849
   69MOL0     H 9456   6.611   1.437   5.114  1.0434 -3.0147  0.3430
   69MOL0     H 9457   6.681   1.451   4.818 -1.3851 -1.4736  1.3692
   69MOL0     H 9458   6.728   1.573   4.939 -0.7887 -0.2275 -0.0754
   69MOL0     H 9459   6.872   1.418   5.045  0.7748  0.6790 -0.9030
   69MOL0     H 9460   6.818   1.274   4.951  1.4244 -0.8674  0.8247
   69MOL0     H 9461   6.926   1.385   4.756  0.8942  2.2458 -1.3163
   69MOL0     H 9462   6.985   1.524   4.852  3.0027 -0.5449  0.0318
   69MOL0     H 9463   7.041   1.222   4.909  1.5508 -1.2622 -2.1419
   69MOL0     H 9464   7.130   1.362   4.975 -0.4069  0.6966 -0.1779
   69MOL0     H 9465   7.131   1.298   4.677  1.2173 -1.6732 -0.2030
   69MOL0     H 9466   7.224   1.423   4.757 -1.8752  0.2251  0.5109
   69MOL0     H 9467   7.236   1.121   4.824  0.0628 -0.0874  1.2116
   69MOL0     H 9468   7.325   1.255   4.909 -0.2599  0.0682  0.0573
   69MOL0     H 9469   7.370   1.158   4.630  0.6123 -1.0360  0.6212
   69MOL0     H 9470   7.418   1.318   4.698  0.6117 -0.0955 -0.7222
   69MOL0     H 9471   7.657   1.317   4.809  0.2804  0.2977  3.6685
   69MOL0     H 9472   7.831   1.104   5.071 -1.9865 -0.7969 -0.6208
   69MOL0     H 9473   7.863   1.250   4.977  3.4214 -0.6989 -2.5676
   69MOL0     H 9474   7.883   0.994   4.836 -2.5201 -1.7034  2.9228
   69MOL0     H 9475   7.955   1.161   4.812  2.2297 -2.5354 -0.3086
   69MOL0     H 9476   8.081   1.140   5.015 -0.7748  1.3910 -1.3798
   69MOL0     H 9477   8.053   0.969   5.014  3.9116  2.0897  2.3659
   69MOL0     H 9478   8.279   1.019   4.927 -0.3150 -0.6453 -0.1372
   69MOL0     H 9479   8.178   0.958   4.794 -1.7603  0.6919 -2.3170
   69MOL0     H 9480   8.312   1.203   5.030  0.6582  0.3042  0.7065
   69MOL0     H 9481   8.577   1.446   5.148  0.1804 -0.2646 -0.8678
   69MOL0     H 9482   8.496   1.293   5.163 -0.7131 -0.5769 -0.5075
   69MOL0     H 9483   8.409   1.436   5.216  1.7215 -1.5405  1.1672
   69MOL0     H 9484   8.747   1.729   5.061 -2.3429 -1.0894 -0.9871
   69MOL0     H 9485   8.889   1.941   5.084 -0.0421  2.1160  0.4681
   69MOL0     H 9486   9.032   2.090   5.009  1.3822 -0.2539 -0.4982
   69MOL0     H 9487   9.034   2.135   4.845  1.3531 -0.1082  0.7156
   69MOL0     H 9488   9.128   2.337   4.934  0.5214 -1.5791 -1.7623
   69MOL0     H 9489   8.958   2.379   4.979 -1.7184 -2.1418 -2.0016
   69MOL0     H 9490   9.127   2.403   5.154 -0.1890 -0.0127  0.6036
   69MOL0     H 9491   9.116   2.213   5.156 -1.4599 -0.9047 -2.1174
   69MOL0     H 9492   8.871   2.240   5.209  0.8886 -0.2176  2.0141
   69MOL0     H 9493   8.867   2.401   5.185 -1.2932 -0.8970  1.8214
   69MOL0     H 9494   8.839   2.375   5.400 -1.2379 -3.1304  1.2611
   69MOL0     H 9495   8.984   2.288   5.435  1.3556  1.6433  1.2490
   69MOL0     H 9496   9.006   2.573   5.342  0.9559 -0.1155 -0.3716
   69MOL0     H 9497   9.134   2.456   5.409  1.0388  2.6163  0.7192
   69MOL0     H 9498   9.010   2.445   5.608  2.4330  0.8982  0.7341
   69MOL0     H 9499   8.878   2.546   5.553 -0.1211 -0.6032 -2.0933
   69MOL0     H 9500   9.024   2.678   5.698 -1.2138 -0.2288 -0.8589
   69MOL0     H 9501   9.027   2.745   5.535  1.1619 -1.0789 -1.8301
   69MOL0     H 9502   8.652   2.123   4.769  1.7333  0.7659 -1.1344
   69MOL0     H 9503   8.539   1.901   4.741  0.0158 -2.8645 -0.8095
   69MOL0     H 9504   8.422   1.532   4.687  1.6276 -2.0045 -1.4463
   69MOL0     H 9505   8.315   1.341   4.630 -0.2374  1.5763  0.1637
   69MOL0     H 9506   6.377   1.318   5.113 -1.1605 -1.1154  1.6921
   69MOL0     H 9507   6.147   1.336   5.209 -1.8666  0.3019 -0.6563
   69MOL0     H 9508   5.749   1.442   5.168 -0.0735 -1.0242  1.6373
   69MOL0     H 9509   5.502   1.444   5.209  0.9684 -0.1389 -3.8018
   69MOL0     H 9510   5.367   1.666   5.518  1.5102  0.3942 -0.8405
   69MOL0     H 9511   5.312   1.794   5.404  0.6322  0.0211 -0.2620
   69MOL0     H 9512   5.152   1.553   5.480 -0.2025 -0.5251 -1.4440
   69MOL0     H 9513   5.133   1.657   5.324  0.0824  1.0014 -0.2193
   69MOL0     H 9514   5.084   1.734   5.619 -1.9553  2.6154  0.2033
   69MOL0     H 9515   5.096   1.853   5.498 -0.1854 -0.5753 -0.7278
   69MOL0     H 9516   4.883   1.638   5.476 -0.8936 -0.4849 -1.6494
   69MOL0     H 9517   4.917   1.765   5.365 -2.2386 -1.4087 -0.2423
   69MOL0     H 9518   4.695   1.983   5.638  0.3605  1.1680 -0.2498
   69MOL0     H 9519   5.545   1.767   5.472 -0.1472 -0.3567 -0.1383
   69MOL0     H 9520   5.749   1.924   5.456  0.5541  0.2345 -1.7996
   69MOL0     H 9521   5.840   1.809   5.539  0.4530 -4.0107 -0.0942
   69MOL0     H 9522   5.899   1.863   5.381  0.8807  0.1012  1.3834
   70MOL0     O 9523   0.980   7.991   1.476  0.1727 -0.4321 -0.4464
   70MOL0     C 9524   0.871   8.019   1.430  0.0911  0.2425 -0.2453
   70MOL0     O 9525   0.833   8.133   1.362  0.5892  0.3471  0.4212
   70MOL0     C 9526   0.933   8.222   1.364  0.4435 -1.5423 -0.2397
   70MOL0     C 9527   0.960   8.306   1.467  0.3196 -0.1317 -0.1927
   70MOL0     C 9528   1.064   8.404   1.454 -0.1479 -0.0095 -0.5156
   70MOL0     C 9529   1.141   8.407   1.341 -0.1005 -0.2944 -0.4495
   70MOL0     O 9530   1.251   8.493   1.353  1.1013 -0.5900 -0.2856
   70MOL0     C 9531   1.370   8.457   1.278 -0.1611 -0.2108 -1.2862
   70MOL0     C 9532   1.491   8.483   1.364 -1.2940  0.2696 -0.0654
   70MOL0     C 9533   1.507   8.636   1.393  0.5708 -0.9026  0.1369
   70MOL0     C 9534   1.590   8.669   1.516  0.8496  0.2595 -0.0226
   70MOL0     C 9535   1.733   8.680   1.480 -0.4797 -0.0156  0.0942
   70MOL0     C 9536   1.776   8.825   1.432 -0.7211  0.6697  0.2777
   70MOL0     C 9537   1.921   8.859   1.414  0.2822 -0.2269  0.7300
   70MOL0     C 9538   1.972   8.790   1.288 -0.9483  0.9570  0.0979
   70MOL0     N 9539   2.117   8.829   1.268 -0.2508 -0.3753  0.3708
   70MOL0     C 9540   2.217   8.777   1.346  0.0668  0.0702 -0.2641
   70MOL0     C 9541   2.329   8.834   1.296 -0.2374  0.0440  0.4865
   70MOL0     C 9542   2.468   8.798   1.346  0.3120 -0.6992 -0.0701
   70MOL0     C 9543   2.557   8.907   1.292 -0.1181  0.2064  0.2304
   70MOL0     C 9544   2.690   8.898   1.368 -0.1623 -0.2120  0.3894
   70MOL0     C 9545   2.752   8.755   1.364 -1.3007 -0.1302  1.1597
   70MOL0     O 9546   2.892   8.756   1.425  0.2537 -0.0967  0.0441
   70MOL0     C 9547   3.004   8.795   1.355 -0.4003 -0.2245  0.8995
   70MOL0     C 9548   3.125   8.761   1.412 -0.3065  0.9017 -0.6301
   70MOL0     C 9549   3.249   8.772   1.343 -0.2286 -0.1007  0.4695
   70MOL0     C 9550   3.374   8.713   1.404  0.7404  0.4929  0.0189
   70MOL0     C 9551   3.250   8.836   1.217  0.1361 -0.2762 -0.0497
   70MOL0     C 9552   3.380   8.858   1.142 -0.0477  0.1400  0.3763
   70MOL0     O 9553   3.489   8.903   1.218  0.1898 -0.2267  0.6360
   70MOL0     C 9554   3.612   8.901   1.155  0.4274  0.6629 -0.5631
   70MOL0     C 9555   3.653   8.997   1.073  0.8689  0.7848 -0.8090
   70MOL0     C 9556   3.780   8.996   1.016 -0.4789  0.0446 -0.7522
   70MOL0     C 9557   3.860   8.884   1.033  0.2928  1.2452 -0.5120
   70MOL0     O 9558   3.975   8.873   0.954 -0.5194  0.3847 -0.7577
   70MOL0     C 9559   4.097   8.808   1.004  0.6001  0.1315  0.0482
   70MOL0     C 9560   4.111   8.677   0.927 -0.2013  0.0491  0.4801
   70MOL0     C 9561   4.212   8.592   1.007  0.2854  0.2077  0.1033
   70MOL0     C 9562   4.214   8.461   0.928 -0.2610  0.7747 -0.4037
   70MOL0     C 9563   4.287   8.342   0.998  0.8933 -0.1625 -0.3738
   70MOL0     C 9564   4.431   8.361   0.996 -0.2749 -0.1577 -0.5602
   70MOL0     C 9565   4.501   8.321   0.876  0.5374  0.0155  0.6090
   70MOL0     C 9566   4.655   8.336   0.872  0.1178  1.1701 -0.7278
   70MOL0    Cl 9567   4.700   8.508   0.857 -0.1371  0.3528 -0.1169
   70MOL0     C 9568   3.817   8.790   1.132 -0.5132  0.2867  0.1661
   70MOL0     C 9569   3.696   8.799   1.198  0.4289  0.8169  0.5734
   70MOL0     O 9570   3.367   8.852   1.021  0.3078  0.3639 -0.6801
   70MOL0     C 9571   3.128   8.877   1.165 -0.7848 -0.1580 -0.6396
   70MOL0     C 9572   3.008   8.862   1.231 -0.8319  0.5076  0.5389
   70MOL0     N 9573   2.298   8.913   1.184  0.6133 -0.6331  0.0490
   70MOL0     N 9574   2.174   8.898   1.161 -0.3690  1.4048 -0.0195
   70MOL0     C 9575   1.109   8.329   1.232 -0.2269 -0.0654  0.8168
   70MOL0     C 9576   1.007   8.235   1.244 -0.0963  0.0294 -0.5603
   70MOL0     C 9577   0.769   7.915   1.455 -0.3391 -0.0653 -0.6360
   70MOL0     C 9578   0.639   7.947   1.416 -0.0518  0.1149 -0.2971
   70MOL0     C 9579   0.532   7.866   1.439 -0.1497  0.0443  0.5342
   70MOL0     C 9580   0.546   7.736   1.501  0.8989  0.1401 -0.1799
   70MOL0     O 9581   0.434   7.656   1.512 -0.6393  0.2208  0.0115
   70MOL0     C 9582   0.438   7.534   1.589 -0.4748  0.3447 -0.2629
   70MOL0     C 9583   0.308   7.514   1.663 -0.7078  0.5236  0.0464
   70MOL0     C 9584   0.198   7.473   1.554 -0.4199  0.3718 -1.2560
   70MOL0     C 9585   0.209   7.314   1.508 -0.7703 -0.6439  0.0043
   70MOL0     C 9586   0.152   7.238   1.614  0.3434 -0.3711  0.0799
   70MOL0     C 9587   0.099   7.153   1.686 -0.0335 -0.2286 -0.0696
   70MOL0     C 9588   0.673   7.703   1.537  0.1266 -0.4055 -1.5156
   70MOL0     C 9589   0.786   7.792   1.531  0.6224  0.1982  0.1007
   70MOL0     C 9590   0.918   7.736   1.578  0.2913  0.0194 -0.1295
   70MOL0     H 9591   0.898   8.296   1.555  0.6864  0.3754  0.1342
   70MOL0     H 9592   1.091   8.454   1.547 -2.1652  1.2133 -0.5449
   70MOL0     H 9593   1.379   8.497   1.177  1.2048  1.4766 -0.5378
   70MOL0     H 9594   1.367   8.349   1.259  0.7805 -0.2809 -1.0741
   70MOL0     H 9595   1.472   8.431   1.458 -3.0103  2.0720  0.6555
   70MOL0     H 9596   1.572   8.447   1.300 -1.1384  0.1830  0.1813
   70MOL0     H 9597   1.527   8.692   1.301  0.9174  0.7513  1.1891
   70MOL0     H 9598   1.410   8.672   1.427  1.7761 -0.0224  2.8862
   70MOL0     H 9599   1.547   8.752   1.573  0.7404  0.4155 -0.3342
   70MOL0     H 9600   1.591   8.584   1.585  1.5968 -0.1730 -0.5535
   70MOL0     H 9601   1.779   8.600   1.421 -1.1692 -0.0334 -0.4275
   70MOL0     H 9602   1.779   8.686   1.579 -2.4127  2.7832  0.9359
   70MOL0     H 9603   1.728   8.852   1.337  1.3716  0.4831 -0.8907
   70MOL0     H 9604   1.737   8.895   1.507 -1.1186  2.3875 -1.4237
   70MOL0     H 9605   1.977   8.819   1.500  2.0752  0.1662 -0.1959
   70MOL0     H 9606   1.940   8.967   1.415  1.9669 -0.4534 -1.0323
   70MOL0     H 9607   1.964   8.683   1.308  1.1253  1.3415  4.1035
   70MOL0     H 9608   1.904   8.815   1.206 -1.4382 -0.9618 -0.1073
   70MOL0     H 9609   2.211   8.711   1.431  3.0520  1.1997  0.9553
   70MOL0     H 9610   2.490   8.707   1.291 -1.5717 -1.6953  0.7256
   70MOL0     H 9611   2.475   8.786   1.455  0.2706 -0.6053 -0.0572
   70MOL0     H 9612   2.569   8.911   1.184 -3.2084 -2.7569 -0.3789
   70MOL0     H 9613   2.511   9.001   1.324  1.8234  0.4111  2.7954
   70MOL0     H 9614   2.755   8.960   1.305 -2.5021  1.4994 -0.5059
   70MOL0     H 9615   2.675   8.953   1.461 -2.5795  0.0272 -0.0656
   70MOL0     H 9616   2.693   8.684   1.423  0.3525 -0.1302  2.9096
   70MOL0     H 9617   2.749   8.731   1.257 -0.3443  2.3267  0.5070
   70MOL0     H 9618   3.106   8.718   1.509  0.7610  2.5853  0.3764
   70MOL0     H 9619   3.445   8.794   1.421 -0.2787  1.3097  0.5145
   70MOL0     H 9620   3.417   8.633   1.344  1.5698  0.6921  0.3318
   70MOL0     H 9621   3.350   8.673   1.503  1.2164  0.2240  0.0252
   70MOL0     H 9622   3.589   9.082   1.050 -0.6808 -0.5371 -1.5623
   70MOL0     H 9623   3.800   9.075   0.944 -0.9111  0.5543 -0.3183
   70MOL0     H 9624   4.180   8.878   0.995  0.5232  0.3389  0.8775
   70MOL0     H 9625   4.088   8.786   1.111 -1.9919  0.0624 -0.1049
   70MOL0     H 9626   4.016   8.623   0.930 -1.2378  1.7433 -0.2830
   70MOL0     H 9627   4.135   8.688   0.821 -0.0637 -3.2476  0.0632
   70MOL0     H 9628   4.195   8.561   1.110  3.1572 -0.1662  0.5449
   70MOL0     H 9629   4.309   8.642   1.004  0.9004 -0.9705 -2.0701
   70MOL0     H 9630   4.268   8.493   0.839  2.5151  1.2031  1.3264
   70MOL0     H 9631   4.114   8.427   0.900  1.0568 -2.2846 -1.7437
   70MOL0     H 9632   4.248   8.329   1.100  2.8865  0.2455  0.5008
   70MOL0     H 9633   4.271   8.251   0.941  0.3912 -1.4516  1.7322
   70MOL0     H 9634   4.475   8.305   1.079  1.6150  2.0002  0.0190
   70MOL0     H 9635   4.440   8.465   1.031  0.3463 -1.3622  3.4432
   70MOL0     H 9636   4.466   8.364   0.782  2.5695 -2.4996 -1.4498
   70MOL0     H 9637   4.492   8.213   0.863  1.6206 -0.4294  3.0315
   70MOL0     H 9638   4.689   8.272   0.790 -0.2061 -0.1438  0.1222
   70MOL0     H 9639   4.709   8.302   0.961 -1.8441  1.3155  0.5773
   70MOL0     H 9640   3.887   8.718   1.173 -1.3945  0.4349  2.0502
   70MOL0     H 9641   3.666   8.736   1.281 -0.7169  0.4147 -0.1264
   70MOL0     H 9642   3.130   8.938   1.075 -0.2417  0.8957  0.0565
   70MOL0     H 9643   2.921   8.893   1.174 -1.9629  0.1402  2.0010
   70MOL0     H 9644   1.156   8.334   1.135 -2.4983  0.2437 -0.3366
   70MOL0     H 9645   0.965   8.182   1.159 -1.1625  0.5379 -0.3711
   70MOL0     H 9646   0.638   8.033   1.350  1.9568  0.1807 -0.2863
   70MOL0     H 9647   0.438   7.898   1.395 -0.3435  0.4582  1.2495
   70MOL0     H 9648   0.465   7.453   1.521 -0.5722  0.1265 -0.0451
   70MOL0     H 9649   0.507   7.548   1.673 -0.6985  1.6448 -0.2849
   70MOL0     H 9650   0.276   7.608   1.709  3.6930  1.6240  1.3096
   70MOL0     H 9651   0.317   7.438   1.740 -1.2315  0.3457 -0.0662
   70MOL0     H 9652   0.099   7.505   1.587 -1.3314 -1.8284 -1.6694
   70MOL0     H 9653   0.225   7.526   1.461 -0.2865 -1.2975 -2.2077
   70MOL0     H 9654   0.308   7.286   1.472 -1.4451 -0.7937 -1.8400
   70MOL0     H 9655   0.147   7.319   1.418  2.2890  4.8124 -2.3208
   70MOL0     H 9656   0.069   7.075   1.753  1.3373 -0.0072  0.8496
   70MOL0     H 9657   0.700   7.606   1.576  0.4832  0.1752 -0.2300
   70MOL0     H 9658   0.994   7.748   1.500 -1.7400  3.8456 -1.7666
   70MOL0     H 9659   0.956   7.796   1.661  1.5149 -0.4101 -0.3593
   70MOL0     H 9660   0.901   7.633   1.613  1.3802  0.6899  2.6266
   71MOL0     O 9661   1.224   1.506   9.163  0.1772  0.3867  0.2526
   71MOL0     C 9662   1.138   1.435   9.225 -0.3424 -0.1776 -0.0706
   71MOL0     O 9663   1.149   1.371   9.348 -0.1385  0.6337 -0.0156
   71MOL0     C 9664   1.259   1.419   9.422  0.1037  0.0976 -0.1056
   71MOL0     C 9665   1.277   1.550   9.443  0.0568  0.5381  0.0354
   71MOL0     C 9666   1.385   1.598   9.522 -0.1248  0.4779 -0.3212
   71MOL0     C 9667   1.484   1.511   9.580  0.6462  0.8745  0.3609
   71MOL0     O 9668   1.587   1.535   9.664 -0.2975  0.0905  0.9332
   71MOL0     C 9669   1.596   1.673   9.707 -0.3027 -0.3767  0.0415
   71MOL0     C 9670   1.732   1.695   9.770  0.2223 -0.2925  0.1145
   71MOL0     C 9671   1.788   1.586   9.855 -0.3834 -0.0299 -0.3356
   71MOL0     C 9672   1.900   1.630   9.943  0.8650 -0.5184 -0.9504
   71MOL0     C 9673   1.914   1.527  10.072  0.5092  0.0769  0.0752
   71MOL0     C 9674   2.032   1.570  10.175  0.5898  0.5679 -1.5003
   71MOL0     C 9675   2.160   1.608  10.112  0.4716  0.0588 -0.3352
   71MOL0     C 9676   2.266   1.629  10.218  0.3183  0.5124  0.9723
   71MOL0     N 9677   2.373   1.694  10.142 -0.0421  0.4233 -0.3370
   71MOL0     C 9678   2.483   1.624  10.101  0.4341  0.8038 -0.7960
   71MOL0     C 9679   2.564   1.718  10.040  0.9272  0.4542  0.1101
   71MOL0     C 9680   2.694   1.702   9.973  0.4809  0.6173  0.5265
   71MOL0     C 9681   2.677   1.673   9.825  0.0353  0.2020 -0.1849
   71MOL0     C 9682   2.809   1.665   9.754  1.2038  0.0061 -0.0908
   71MOL0     C 9683   2.865   1.800   9.719 -1.4238  0.1231 -0.5096
   71MOL0     O 9684   2.916   1.873   9.830  0.1117  0.0697 -0.4330
   71MOL0     C 9685   3.055   1.888   9.818  0.8977 -0.1359  0.1944
   71MOL0     C 9686   3.106   2.004   9.759  0.4245 -0.3086 -0.0191
   71MOL0     C 9687   3.242   2.016   9.737  0.4051  0.1023 -0.1370
   71MOL0     C 9688   3.299   2.147   9.691  0.7607  0.6989 -0.2724
   71MOL0     C 9689   3.330   1.914   9.780 -0.4333  0.5315 -1.0559
   71MOL0     C 9690   3.480   1.928   9.772 -0.0388 -0.4614 -0.1991
   71MOL0     O 9691   3.548   2.050   9.773 -0.5605  0.3387 -0.2002
   71MOL0     C 9692   3.683   2.047   9.802 -0.0669  0.4202 -0.6603
   71MOL0     C 9693   3.715   2.052   9.938 -0.2385  0.5752 -0.4942
   71MOL0     C 9694   3.847   2.036   9.979 -0.6006  0.2080 -0.1339
   71MOL0     C 9695   3.952   2.015   9.882 -0.0435  0.4838 -0.0873
   71MOL0     O 9696   4.089   1.997   9.911 -0.1622 -0.6224  0.8056
   71MOL0     C 9697   4.139   1.963  10.036  0.5208 -0.4446 -0.3258
   71MOL0     C 9698   4.271   1.895  10.035 -0.3738  0.0901 -0.5739
   71MOL0     C 9699   4.320   1.848  10.181  0.5119 -0.0074  0.3730
   71MOL0     C 9700   4.470   1.812  10.188 -0.1623 -0.1117 -0.0434
   71MOL0     C 9701   4.508   1.746  10.319  0.1894  0.3536 -0.1934
   71MOL0     C 9702   4.655   1.709  10.343  0.0044  0.6169  0.1786
   71MOL0     C 9703   4.710   1.639  10.221 -0.6745 -0.4202 -0.6307
   71MOL0     C 9704   4.850   1.578  10.263 -0.4465  0.6393  0.4497
   71MOL0    Cl 9705   4.842   1.478  10.404  0.6477  0.1547 -0.0717
   71MOL0     C 9706   3.915   2.004   9.746 -0.2423  0.1521  0.2991
   71MOL0     C 9707   3.781   2.018   9.708  0.0215  0.1051 -0.3724
   71MOL0     O 9708   3.534   1.819   9.747 -0.0879 -0.5343 -0.7309
   71MOL0     C 9709   3.273   1.793   9.828 -0.5310 -0.3482 -0.0426
   71MOL0     C 9710   3.144   1.787   9.848 -0.0070  0.2758  0.7033
   71MOL0     N 9711   2.499   1.838  10.059 -0.4147  0.2229  0.0922
   71MOL0     N 9712   2.397   1.824  10.132  0.1177  0.0742  0.6411
   71MOL0     C 9713   1.460   1.379   9.551  0.4883  0.1330 -0.0772
   71MOL0     C 9714   1.350   1.331   9.484 -0.3312 -0.1591 -0.3254
   71MOL0     C 9715   1.012   1.406   9.147 -0.6076  0.5064  0.1424
   71MOL0     C 9716   1.008   1.419   9.008  0.3933  1.6011 -0.0628
   71MOL0     C 9717   0.886   1.414   8.937 -0.2814  1.2369 -0.8582
   71MOL0     C 9718   0.771   1.378   8.997  0.2621  0.0430 -0.4602
   71MOL0     O 9719   0.673   1.348   8.909  0.3656 -0.2138 -0.9296
   71MOL0     C 9720   0.546   1.322   8.972 -0.4864 -0.0459 -0.5671
   71MOL0     C 9721   0.433   1.315   8.864  0.0947 -0.0054 -0.3783
   71MOL0     C 9722   0.321   1.224   8.918  0.0922  0.1332 -0.3262
   71MOL0     C 9723   0.204   1.235   8.821 -0.0568  0.4462  1.1591
   71MOL0     C 9724   0.103   1.144   8.858 -0.0031 -0.2328 -0.5555
   71MOL0     C 9725   0.011   1.076   8.896 -0.3968 -0.1532 -0.8388
   71MOL0     C 9726   0.771   1.353   9.139 -0.4917 -0.3437  0.3859
   71MOL0     C 9727   0.884   1.380   9.209 -0.6291  0.8070  0.4131
   71MOL0     C 9728   0.854   1.363   9.359  0.6503  0.2261  0.9133
   71MOL0     H 9729   1.203   1.621   9.408 -0.6664  0.5206  1.4414
   71MOL0     H 9730   1.403   1.703   9.543  1.6599  0.0168  0.6788
   71MOL0     H 9731   1.523   1.718   9.773  1.8449  1.8011  1.0642
   71MOL0     H 9732   1.591   1.738   9.619 -0.8729  1.0020  1.0737
   71MOL0     H 9733   1.806   1.722   9.694 -0.0354  1.1730  0.3708
   71MOL0     H 9734   1.708   1.783   9.829 -2.9247 -0.8101 -0.2098
   71MOL0     H 9735   1.711   1.549   9.923  1.7579 -1.7713  1.2610
   71MOL0     H 9736   1.827   1.508   9.790 -3.2685  0.3439 -2.7867
   71MOL0     H 9737   1.990   1.637   9.882  1.9411  0.4214  0.6812
   71MOL0     H 9738   1.878   1.727   9.988  1.0867 -0.9614  0.1460
   71MOL0     H 9739   1.943   1.428  10.035 -0.5419  0.5736 -2.2471
   71MOL0     H 9740   1.820   1.508  10.124 -2.1687 -2.4049 -4.9793
   71MOL0     H 9741   2.003   1.664  10.223  1.8805 -0.1990  0.9269
   71MOL0     H 9742   2.054   1.495  10.251 -2.2788 -1.1163 -2.1778
   71MOL0     H 9743   2.146   1.699  10.053  2.3694  2.2083  2.2852
   71MOL0     H 9744   2.181   1.527  10.041  2.3549 -0.0650  0.2894
   71MOL0     H 9745   2.236   1.688  10.305 -4.2094  0.0673 -0.0397
   71MOL0     H 9746   2.302   1.530  10.247 -0.4448 -0.2390 -0.5259
   71MOL0     H 9747   2.490   1.516  10.113 -0.5313  0.6359 -1.6220
   71MOL0     H 9748   2.742   1.623  10.032 -1.9133 -1.4458 -0.0853
   71MOL0     H 9749   2.749   1.796   9.981  0.9566  0.6889 -2.4031
   71MOL0     H 9750   2.623   1.578   9.824 -1.1942  0.8588  0.9834
   71MOL0     H 9751   2.607   1.740   9.774 -1.1047 -1.6612 -1.1663
   71MOL0     H 9752   2.891   1.612   9.803  0.4361 -0.4011  0.7892
   71MOL0     H 9753   2.788   1.611   9.661 -0.0251 -2.6036  1.6105
   71MOL0     H 9754   2.944   1.784   9.644 -0.5333  0.2478  0.3853
   71MOL0     H 9755   2.789   1.859   9.666 -1.3231 -0.3129 -1.1591
   71MOL0     H 9756   3.039   2.082   9.725  2.3144  1.1922 -0.5136
   71MOL0     H 9757   3.342   2.192   9.781  3.0004 -0.8810 -0.4654
   71MOL0     H 9758   3.226   2.212   9.642  1.8270 -0.4545 -3.7110
   71MOL0     H 9759   3.371   2.131   9.610  1.3422 -1.3039  0.5705
   71MOL0     H 9760   3.647   2.072  10.020 -0.6135  0.8289 -0.8646
   71MOL0     H 9761   3.879   2.052  10.081  0.3764  0.5919 -0.4902
   71MOL0     H 9762   4.135   2.059  10.090 -1.2493 -1.0261  0.6723
   71MOL0     H 9763   4.074   1.892  10.088  1.0647 -1.4202 -0.9464
   71MOL0     H 9764   4.267   1.809   9.969 -0.0891 -1.8422  1.8037
   71MOL0     H 9765   4.350   1.962   9.998  2.1791 -0.0068  3.9342
   71MOL0     H 9766   4.255   1.771  10.222  1.0017 -0.6161  0.0172
   71MOL0     H 9767   4.300   1.927  10.254  3.7919 -0.7840  2.2850
   71MOL0     H 9768   4.538   1.894  10.163  0.7438 -1.1871 -1.2446
   71MOL0     H 9769   4.481   1.753  10.096 -1.4916  1.9378 -1.5971
   71MOL0     H 9770   4.482   1.812  10.402 -1.5563 -1.0444  0.4544
   71MOL0     H 9771   4.446   1.657  10.337 -1.0460  0.7686 -2.1888
   71MOL0     H 9772   4.654   1.639  10.426 -1.9180 -2.7112 -2.3798
   71MOL0     H 9773   4.722   1.794  10.359 -0.2025  0.5768  1.3400
   71MOL0     H 9774   4.727   1.716  10.145  1.2912  0.7784  0.9020
   71MOL0     H 9775   4.648   1.557  10.185  2.5430 -1.9940 -3.2097
   71MOL0     H 9776   4.926   1.652  10.291  0.1518 -0.6240  2.3392
   71MOL0     H 9777   4.887   1.523  10.176 -0.6518  2.3190 -0.7584
   71MOL0     H 9778   3.988   1.994   9.666 -1.1367  4.7633 -1.4177
   71MOL0     H 9779   3.769   2.000   9.602 -0.3936  0.8663 -0.4612
   71MOL0     H 9780   3.342   1.710   9.842  0.5052  0.4806 -0.0655
   71MOL0     H 9781   3.101   1.699   9.893 -2.3122  0.5757 -0.7352
   71MOL0     H 9782   1.521   1.292   9.576 -2.5622 -1.8512  1.1716
   71MOL0     H 9783   1.336   1.227   9.457 -1.5378 -0.1398  0.1924
   71MOL0     H 9784   1.104   1.433   8.959  0.8202  2.5109  0.9921
   71MOL0     H 9785   0.901   1.433   8.831 -1.1796 -0.4525 -1.3302
   71MOL0     H 9786   0.558   1.226   9.024 -2.6539  0.0830  0.2421
   71MOL0     H 9787   0.529   1.407   9.038 -0.3501  0.9335 -1.7634
   71MOL0     H 9788   0.471   1.268   8.773 -2.7841 -0.0810 -1.6486
   71MOL0     H 9789   0.391   1.413   8.840 -0.9571 -0.5065 -0.6585
   71MOL0     H 9790   0.354   1.120   8.913 -1.2454 -0.3024 -0.7104
   71MOL0     H 9791   0.301   1.257   9.020 -1.7889  2.2225 -1.2859
   71MOL0     H 9792   0.226   1.220   8.715 -1.0778 -1.5589  1.1812
   71MOL0     H 9793   0.171   1.339   8.828  1.5012  1.1293 -0.7354
   71MOL0     H 9794  -0.072   1.021   8.935 -0.4803  3.0354  4.4218
   71MOL0     H 9795   0.684   1.310   9.187 -1.0177 -1.0677 -1.1315
   71MOL0     H 9796   0.901   1.446   9.414  0.5442  1.3514 -0.6168
   71MOL0     H 9797   0.751   1.375   9.393 -0.0654 -0.3395 -0.9390
   71MOL0     H 9798   0.891   1.268   9.397  3.1801 -0.1574 -2.0786
   72MOL0     O 9799   3.157   5.085   5.960  0.3714 -0.1732 -0.9044
   72MOL0     C 9800   3.068   5.169   5.968  0.2925  0.6949  0.3673
   72MOL0     O 9801   3.091   5.290   6.013  0.4025  0.7940  0.1337
   72MOL0     C 9802   3.215   5.324   6.062 -0.8502 -0.4905 -0.5226
   72MOL0     C 9803   3.344   5.310   6.005  0.2874 -0.8253  0.8119
   72MOL0     C 9804   3.445   5.377   6.068 -0.4656  0.6622  0.2019
   72MOL0     C 9805   3.431   5.434   6.191 -0.4252  0.5105  0.0424
   72MOL0     O 9806   3.543   5.500   6.243  0.8438 -0.1082  0.2033
   72MOL0     C 9807   3.543   5.527   6.384 -0.4801 -0.7714 -0.4062
   72MOL0     C 9808   3.685   5.584   6.424  0.0954  0.1764  0.0060
   72MOL0     C 9809   3.679   5.585   6.576 -0.0588 -0.3037 -0.1376
   72MOL0     C 9810   3.789   5.687   6.631  0.3044 -0.4790  0.0797
   72MOL0     C 9811   3.922   5.611   6.647  0.4302 -0.3498 -0.3219
   72MOL0     C 9812   4.044   5.702   6.657 -0.3366 -0.6295 -0.4083
   72MOL0     C 9813   4.177   5.622   6.683  0.4196 -0.3051  0.2005
   72MOL0     C 9814   4.170   5.521   6.797 -0.5351  0.0758 -0.1676
   72MOL0     N 9815   4.300   5.494   6.855 -0.5086  0.6330  0.4867
   72MOL0     C 9816   4.400   5.420   6.788  0.8851 -0.6369  1.0397
   72MOL0     C 9817   4.475   5.368   6.884 -0.2430 -0.0417  0.4541
   72MOL0     C 9818   4.604   5.295   6.845  1.2658  0.1453 -0.1245
   72MOL0     C 9819   4.716   5.375   6.795  0.0746  0.0772 -0.7155
   72MOL0     C 9820   4.752   5.498   6.890 -0.0361  0.1000 -0.1503
   72MOL0     C 9821   4.834   5.609   6.808  0.6526 -0.5224  0.5366
   72MOL0     O 9822   4.862   5.727   6.884 -0.2605  0.1768  0.2670
   72MOL0     C 9823   4.921   5.830   6.829  0.4432 -0.0330  1.1796
   72MOL0     C 9824   4.963   5.840   6.692  0.1937  0.6239  0.1389
   72MOL0     C 9825   5.008   5.963   6.646  0.5707  0.5327  0.5386
   72MOL0     C 9826   5.033   5.961   6.491 -0.3237 -0.2385 -1.0296
   72MOL0     C 9827   5.029   6.076   6.730 -0.3819 -0.1936 -0.2963
   72MOL0     C 9828   5.091   6.201   6.692  0.6295  0.1937  0.7289
   72MOL0     O 9829   5.132   6.287   6.792 -0.0715 -0.5937  0.2434
   72MOL0     C 9830   5.203   6.397   6.744 -0.1137 -0.3664  0.4059
   72MOL0     C 9831   5.342   6.399   6.766 -0.8131 -0.4827 -0.2351
   72MOL0     C 9832   5.427   6.509   6.741  0.2927  0.7625  0.1730
   72MOL0     C 9833   5.362   6.626   6.693 -1.0124  0.6610 -0.5456
   72MOL0     O 9834   5.440   6.732   6.655 -0.2973  0.3837  0.1852
   72MOL0     C 9835   5.414   6.773   6.525 -0.2452  0.1494 -0.1460
   72MOL0     C 9836   5.510   6.887   6.489 -0.2971  0.6162  0.2987
   72MOL0     C 9837   5.654   6.829   6.498 -0.4857 -0.7446 -0.2028
   72MOL0     C 9838   5.769   6.926   6.475 -0.4323 -0.2422 -0.7510
   72MOL0     C 9839   5.914   6.866   6.469  0.7064  0.3957  0.1678
   72MOL0     C 9840   6.018   6.973   6.421  0.0947  0.1746 -0.4841
   72MOL0     C 9841   6.159   6.914   6.431  0.3158 -1.0984  0.1908
   72MOL0     C 9842   6.253   6.993   6.343 -0.0073  0.4653 -0.8606
   72MOL0    Cl 9843   6.422   6.933   6.348 -0.1103 -0.1078  0.5178
   72MOL0     C 9844   5.220   6.626   6.681 -0.3053  0.5890  0.0024
   72MOL0     C 9845   5.145   6.508   6.692  0.6257 -0.3058  0.7174
   72MOL0     O 9846   5.101   6.219   6.572 -0.1454 -0.6089  0.1834
   72MOL0     C 9847   4.983   6.064   6.866 -0.3181  0.3639 -0.2470
   72MOL0     C 9848   4.924   5.944   6.906  0.7079 -0.9818 -0.1427
   72MOL0     N 9849   4.425   5.393   7.008  0.2690 -0.2810 -0.3282
   72MOL0     N 9850   4.321   5.470   6.992  0.5396  0.4085 -0.1682
   72MOL0     C 9851   3.302   5.440   6.251  0.2994  0.9339  0.2698
   72MOL0     C 9852   3.197   5.393   6.189  0.4945  0.8637 -0.1783
   72MOL0     C 9853   2.929   5.136   5.900 -0.1084  0.6505 -0.3811
   72MOL0     C 9854   2.911   5.023   5.823  0.2653  0.0980 -0.0870
   72MOL0     C 9855   2.786   4.985   5.769 -0.3990 -0.7407  0.5490
   72MOL0     C 9856   2.675   5.065   5.775 -1.3627 -0.3723  0.1088
   72MOL0     O 9857   2.558   5.046   5.724  0.6539 -0.2893  0.3920
   72MOL0     C 9858   2.517   4.913   5.681  0.0811 -0.1099 -0.5607
   72MOL0     C 9859   2.368   4.917   5.656  0.7089  0.0773  0.0587
   72MOL0     C 9860   2.363   5.014   5.534  0.7347  0.0542 -0.5045
   72MOL0     C 9861   2.228   5.007   5.461  0.9728  0.0522 -0.0257
   72MOL0     C 9862   2.128   5.103   5.513  0.0425  0.1654 -0.6154
   72MOL0     C 9863   2.040   5.185   5.555  0.0189  0.6167 -0.1742
   72MOL0     C 9864   2.696   5.187   5.844  0.4568  0.2674  0.9336
   72MOL0     C 9865   2.814   5.216   5.914 -0.0330  0.0663  0.5400
   72MOL0     C 9866   2.809   5.342   6.003  0.6615  0.6846  0.8005
   72MOL0     H 9867   3.358   5.270   5.905  1.4781  0.7936  0.2895
   72MOL0     H 9868   3.548   5.382   6.032 -1.0741  0.1966 -1.7239
   72MOL0     H 9869   3.513   5.438   6.440  1.2999 -1.2211 -0.1072
   72MOL0     H 9870   3.463   5.597   6.414 -0.8331 -1.7323  1.0173
   72MOL0     H 9871   3.766   5.518   6.390  2.1023  0.6119  3.4179
   72MOL0     H 9872   3.698   5.684   6.382  1.8835  0.9562  2.2248
   72MOL0     H 9873   3.580   5.622   6.607 -0.1911 -0.4255 -0.4091
   72MOL0     H 9874   3.699   5.486   6.617  0.5190 -0.4716 -0.8070
   72MOL0     H 9875   3.801   5.774   6.566  0.7337  1.3493  2.4490
   72MOL0     H 9876   3.752   5.714   6.731 -1.7558  0.6549 -0.9181
   72MOL0     H 9877   3.933   5.547   6.559 -2.2175  1.9057 -2.5212
   72MOL0     H 9878   3.911   5.546   6.734  2.4761  0.5123  0.6605
   72MOL0     H 9879   4.048   5.759   6.564  0.6606 -4.0352 -2.6496
   72MOL0     H 9880   4.041   5.778   6.736  0.3782 -1.2001  0.1800
   72MOL0     H 9881   4.260   5.692   6.697 -1.3517  1.4951  2.5268
   72MOL0     H 9882   4.206   5.568   6.592 -0.5418  3.3538 -2.5252
   72MOL0     H 9883   4.103   5.557   6.876 -1.9236 -4.3847  0.9453
   72MOL0     H 9884   4.128   5.425   6.766 -1.9556  0.7399 -0.4260
   72MOL0     H 9885   4.427   5.426   6.683 -0.8361 -0.7674  0.5585
   72MOL0     H 9886   4.583   5.207   6.782  0.5494 -0.6091  1.1242
   72MOL0     H 9887   4.640   5.240   6.933  1.6528  2.1430  1.0207
   72MOL0     H 9888   4.806   5.320   6.766  0.2230 -0.0322 -0.0557
   72MOL0     H 9889   4.683   5.414   6.698 -0.5172  0.0228 -0.5433
   72MOL0     H 9890   4.666   5.555   6.927 -0.3121 -0.8245  0.6681
   72MOL0     H 9891   4.818   5.477   6.975  0.5661  1.3506 -0.2911
   72MOL0     H 9892   4.929   5.570   6.769  0.8985  0.4464  0.1479
   72MOL0     H 9893   4.775   5.638   6.721  1.8236  2.4155  0.6120
   72MOL0     H 9894   4.957   5.762   6.617  3.6105  0.3933 -0.0489
   72MOL0     H 9895   4.935   5.969   6.444 -1.4162 -1.3036  0.9283
   72MOL0     H 9896   5.064   5.860   6.464  0.3171 -0.0924 -0.8577
   72MOL0     H 9897   5.111   6.030   6.460  1.5782 -0.4183  2.7524
   72MOL0     H 9898   5.394   6.308   6.790 -2.1175 -0.6906  2.0486
   72MOL0     H 9899   5.534   6.497   6.732  0.1783 -0.2853  0.0072
   72MOL0     H 9900   5.429   6.688   6.458 -0.5324 -2.1582  2.5499
   72MOL0     H 9901   5.311   6.811   6.522 -0.4492 -0.1852  1.6318
   72MOL0     H 9902   5.483   6.928   6.391 -1.9964  2.2668  1.3783
   72MOL0     H 9903   5.489   6.961   6.567 -1.7203 -0.6454  1.1645
   72MOL0     H 9904   5.647   6.747   6.426 -0.2238 -0.4597 -0.5533
   72MOL0     H 9905   5.668   6.784   6.597  1.5046  0.2094 -0.0002
   72MOL0     H 9906   5.763   7.005   6.551 -2.4281 -1.5432  0.5369
   72MOL0     H 9907   5.733   6.985   6.390 -1.4139  2.6496  1.5120
   72MOL0     H 9908   5.931   6.810   6.561  0.8802  1.4177  0.7750
   72MOL0     H 9909   5.914   6.793   6.387 -1.3914  1.0983 -0.5061
   72MOL0     H 9910   6.013   7.061   6.486  2.1875 -0.8584  1.2276
   72MOL0     H 9911   5.991   7.015   6.324  1.9262  0.5050 -0.9042
   72MOL0     H 9912   6.149   6.811   6.397 -0.8000 -0.5433 -1.3265
   72MOL0     H 9913   6.193   6.927   6.534  1.5823 -1.9385 -0.1038
   72MOL0     H 9914   6.259   7.097   6.377 -1.2570 -0.1384  1.3700
   72MOL0     H 9915   6.211   6.983   6.242 -2.2689 -1.1316  0.1496
   72MOL0     H 9916   5.172   6.711   6.635 -0.0377  2.0468  2.2350
   72MOL0     H 9917   5.040   6.508   6.665  0.6080  0.0162  0.7842
   72MOL0     H 9918   4.985   6.144   6.940  0.3914  0.8057 -0.7299
   72MOL0     H 9919   4.890   5.930   7.008  2.2085 -0.6381  0.4279
   72MOL0     H 9920   3.272   5.487   6.344 -1.1115 -0.6339  0.6416
   72MOL0     H 9921   3.100   5.417   6.230 -0.0809 -1.0780 -0.2730
   72MOL0     H 9922   2.995   4.957   5.803  1.3710  0.3208  3.1776
   72MOL0     H 9923   2.791   4.888   5.722 -0.8214 -0.9525  0.9345
   72MOL0     H 9924   2.570   4.887   5.588  0.9072  0.8381 -0.3815
   72MOL0     H 9925   2.540   4.838   5.757 -2.8337 -0.4358  0.0941
   72MOL0     H 9926   2.310   4.950   5.742  0.7683 -0.2662  0.2349
   72MOL0     H 9927   2.328   4.820   5.627 -1.1365  0.1102  2.2855
   72MOL0     H 9928   2.374   5.117   5.567  0.0009  0.3267 -1.0712
   72MOL0     H 9929   2.431   4.999   5.449  0.9052  0.7392 -0.4913
   72MOL0     H 9930   2.191   4.905   5.474  2.1792 -0.3938  0.0721
   72MOL0     H 9931   2.241   5.011   5.353 -1.1282  0.8403 -0.2874
   72MOL0     H 9932   1.951   5.239   5.579 -0.5396  1.0741 -2.9703
   72MOL0     H 9933   2.608   5.250   5.855  0.4385  0.3575  0.2710
   72MOL0     H 9934   2.844   5.426   5.942 -0.0296  2.7791  3.1138
   72MOL0     H 9935   2.706   5.366   6.031  0.5059  0.1053  0.7464
   72MOL0     H 9936   2.866   5.334   6.097  0.3944 -0.4824  0.8768
   73MOL0     O 9937   6.832   3.488   0.891 -0.5487 -0.0890 -0.2389
   73MOL0     C 9938   6.750   3.417   0.835 -0.2706 -0.4133  0.0385
   73MOL0     O 9939   6.731   3.415   0.695  0.2757  0.1409  0.2086
   73MOL0     C 9940   6.807   3.503   0.628 -0.5932  0.0491  0.4105
   73MOL0     C 9941   6.933   3.480   0.564  0.0668  0.9562  0.3526
   73MOL0     C 9942   7.003   3.578   0.496  0.4617  0.3008 -1.0261
   73MOL0     C 9943   6.953   3.709   0.485  0.3851  0.4334  1.1073
   73MOL0     O 9944   7.037   3.780   0.408 -0.0591  0.8656 -0.1342
   73MOL0     C 9945   7.008   3.911   0.372 -0.7388 -0.4401 -1.1128
   73MOL0     C 9946   6.918   3.913   0.251 -0.4645 -0.0621  0.0871
   73MOL0     C 9947   6.816   4.037   0.249 -0.4661 -0.3754 -0.2605
   73MOL0     C 9948   6.892   4.174   0.258 -0.2341  0.4459  0.1960
   73MOL0     C 9949   6.811   4.298   0.208  0.4230 -0.7812  0.2888
   73MOL0     C 9950   6.900   4.416   0.178 -0.3400 -0.0527 -0.2171
   73MOL0     C 9951   6.835   4.521   0.086 -0.7849  0.1930  0.1156
   73MOL0     C 9952   6.933   4.646   0.071 -1.5029  0.0990  0.0923
   73MOL0     N 9953   6.885   4.758  -0.012 -0.3115  0.3950  0.4426
   73MOL0     C 9954   6.950   4.883  -0.025 -0.8335 -0.0596  0.7709
   73MOL0     C 9955   6.867   4.945  -0.120 -0.4068 -0.4959  0.5586
   73MOL0     C 9956   6.897   5.090  -0.161  0.1722  0.3068 -0.0809
   73MOL0     C 9957   7.047   5.104  -0.212 -0.5676 -0.3793 -0.2631
   73MOL0     C 9958   7.085   5.241  -0.265 -0.0216 -0.2750  0.3870
   73MOL0     C 9959   7.199   5.231  -0.358 -0.5423 -0.2979 -1.0663
   73MOL0     O 9960   7.318   5.194  -0.286 -0.1771  0.5457  0.2521
   73MOL0     C 9961   7.435   5.232  -0.352  0.6569 -0.3384  0.4183
   73MOL0     C 9962   7.488   5.357  -0.309  0.8265  0.6472  0.1468
   73MOL0     C 9963   7.614   5.397  -0.364 -0.6650  0.9336 -1.0331
   73MOL0     C 9964   7.656   5.536  -0.325 -0.4145 -0.0843  0.8871
   73MOL0     C 9965   7.692   5.308  -0.449  0.1844 -1.6210 -0.1730
   73MOL0     C 9966   7.824   5.352  -0.509 -0.9119 -0.1626  0.2921
   73MOL0     O 9967   7.852   5.482  -0.541 -0.3114 -0.1522 -0.4457
   73MOL0     C 9968   7.971   5.503  -0.615 -0.1531  0.2312 -0.3675
   73MOL0     C 9969   7.980   5.522  -0.753 -0.1334 -0.0932  0.2377
   73MOL0     C 9970   8.107   5.530  -0.821  0.6308 -0.6477 -0.1915
   73MOL0     C 9971   8.223   5.535  -0.745  0.0304 -0.4888  0.7106
   73MOL0     O 9972   8.345   5.542  -0.800  0.2173 -0.0989 -0.0629
   73MOL0     C 9973   8.373   5.639  -0.902 -0.4985  0.3350  0.5570
   73MOL0     C 9974   8.369   5.779  -0.858  0.1127  0.2526 -0.3134
   73MOL0     C 9975   8.429   5.863  -0.972  0.8533  0.1104  0.3054
   73MOL0     C 9976   8.573   5.921  -0.930  0.0244  0.5111 -0.2769
   73MOL0     C 9977   8.603   6.035  -1.019  0.7616 -0.6011 -0.4806
   73MOL0     C 9978   8.624   5.989  -1.167  0.6952 -0.2308 -0.4715
   73MOL0     C 9979   8.721   5.876  -1.201 -0.6602  0.0533  1.2266
   73MOL0     C 9980   8.747   5.846  -1.354 -0.2638  0.0358 -0.2684
   73MOL0    Cl 9981   8.595   5.788  -1.415  0.0480  0.2338 -0.1769
   73MOL0     C 9982   8.211   5.518  -0.602  1.0995 -0.3879  0.4848
   73MOL0     C 9983   8.087   5.498  -0.543 -0.2460  0.3985  0.8500
   73MOL0     O 9984   7.898   5.258  -0.531  0.1516  0.6767 -0.0706
   73MOL0     C 9985   7.622   5.191  -0.488  0.2440  0.0882  0.6254
   73MOL0     C 9986   7.499   5.160  -0.439 -0.2616 -0.5608 -0.4272
   73MOL0     N 9987   6.764   4.858  -0.167  0.1756 -0.6530 -0.3859
   73MOL0     N 9988   6.778   4.750  -0.101 -0.6651 -0.1754  0.1256
   73MOL0     C 9989   6.833   3.741   0.549  0.9488 -0.4726 -0.4403
   73MOL0     C 9990   6.763   3.634   0.613  0.3523  0.7719  0.3367
   73MOL0     C 9991   6.671   3.310   0.914 -0.2948 -0.4408 -0.5297
   73MOL0     C 9992   6.612   3.207   0.841  0.5674 -0.1675  0.1314
   73MOL0     C 9993   6.531   3.105   0.899 -0.7025 -0.7113 -0.4208
   73MOL0     C 9994   6.506   3.104   1.032  0.3125  0.1342 -0.0612
   73MOL0     O 9995   6.431   3.000   1.081 -0.2167  0.0902 -0.3881
   73MOL0     C 9996   6.298   3.031   1.127 -0.2226 -0.4013  0.4394
   73MOL0     C 9997   6.269   2.996   1.275 -0.0798 -0.1044  0.4620
   73MOL0     C 9998   6.371   3.055   1.378  0.6524 -0.6081 -0.1977
   73MOL0     C 9999   6.322   3.033   1.526 -1.0453  0.5991  0.7398
   73MOL0     C10000   6.217   3.139   1.560 -0.6616  0.5378 -0.0698
   73MOL0     C10001   6.141   3.230   1.576 -0.7524  0.1711  0.0694
   73MOL0     C10002   6.556   3.213   1.101  0.1328 -0.7728 -0.0768
   73MOL0     C10003   6.646   3.312   1.049  0.2824  0.7153 -0.1913
   73MOL0     C10004   6.718   3.399   1.152  0.1160 -0.5154 -0.1595
   73MOL0     H10005   6.967   3.379   0.548 -0.5231  1.0468 -1.8418
   73MOL0     H10006   7.096   3.539   0.456  1.7927  1.9662  0.3007
   73MOL0     H10007   7.094   3.970   0.339 -1.6016  0.6989 -1.3437
   73MOL0     H10008   6.961   3.954   0.461  0.6306 -3.7707  1.4493
   73MOL0     H10009   6.975   3.911   0.158 -2.0180  0.5200 -0.9115
   73MOL0     H10010   6.855   3.824   0.247 -4.3383  2.4088 -4.6737
   73MOL0     H10011   6.755   4.034   0.158 -0.2680 -1.6838 -0.3603
   73MOL0     H10012   6.745   4.044   0.332 -0.2935 -1.1421 -0.0418
   73MOL0     H10013   6.923   4.182   0.363 -0.0508  2.0774  0.0409
   73MOL0     H10014   6.984   4.170   0.199 -2.4368  1.8764 -3.7118
   73MOL0     H10015   6.732   4.319   0.280 -0.6918  0.2386 -1.1656
   73MOL0     H10016   6.757   4.273   0.116 -0.4044 -0.3538  0.6445
   73MOL0     H10017   6.936   4.470   0.266  0.3628  2.2333 -1.8068
   73MOL0     H10018   6.988   4.388   0.119 -0.3414 -1.1161  0.2758
   73MOL0     H10019   6.732   4.547   0.112 -0.1368  0.9017  2.2306
   73MOL0     H10020   6.828   4.486  -0.017  3.4687  0.9898 -0.6617
   73MOL0     H10021   6.943   4.691   0.170 -2.3764 -2.8146  1.6258
   73MOL0     H10022   7.036   4.622   0.044 -0.7845  2.0658  0.9366
   73MOL0     H10023   7.045   4.906   0.023  1.0988 -2.5360 -1.5417
   73MOL0     H10024   6.875   5.162  -0.081 -0.7432 -0.5939  0.4965
   73MOL0     H10025   6.821   5.114  -0.237 -0.7358  2.0018  1.2734
   73MOL0     H10026   7.117   5.090  -0.129 -0.8041  0.3294  0.0683
   73MOL0     H10027   7.051   5.017  -0.277  0.8903 -1.5055  1.2424
   73MOL0     H10028   7.007   5.291  -0.323 -0.0785  1.1988  1.6631
   73MOL0     H10029   7.112   5.313  -0.186  0.7706  0.8017 -0.8090
   73MOL0     H10030   7.176   5.160  -0.438  0.4565 -0.3319 -1.3278
   73MOL0     H10031   7.210   5.330  -0.403  0.9743  1.1483  2.1842
   73MOL0     H10032   7.442   5.420  -0.234 -0.2659 -1.6024  1.4600
   73MOL0     H10033   7.747   5.527  -0.264  0.4994 -1.6070 -0.6122
   73MOL0     H10034   7.571   5.574  -0.267 -0.4292  0.2700  0.6353
   73MOL0     H10035   7.679   5.596  -0.413 -1.0676 -2.0699 -0.6948
   73MOL0     H10036   7.890   5.521  -0.813 -2.0029 -1.7346  2.8682
   73MOL0     H10037   8.114   5.544  -0.929  0.1570  1.6704  0.0107
   73MOL0     H10038   8.471   5.617  -0.946 -1.3421 -0.2029 -1.1011
   73MOL0     H10039   8.302   5.627  -0.984 -0.3083  1.0345  0.2816
   73MOL0     H10040   8.264   5.810  -0.848  0.3134  0.6749  0.7234
   73MOL0     H10041   8.424   5.800  -0.766 -0.2546  0.2456 -0.0884
   73MOL0     H10042   8.367   5.951  -0.992  0.2272 -0.2191  0.7644
   73MOL0     H10043   8.449   5.802  -1.060  0.5442  2.1848 -1.2617
   73MOL0     H10044   8.641   5.837  -0.917 -1.2986 -0.2080  3.0809
   73MOL0     H10045   8.565   5.968  -0.832  0.7109 -0.0629  0.0591
   73MOL0     H10046   8.519   6.103  -1.028  2.0345  1.0531 -0.3620
   73MOL0     H10047   8.690   6.091  -0.983 -1.2700  1.2480  1.8800
   73MOL0     H10048   8.666   6.076  -1.218  2.9925  1.4125  3.6968
   73MOL0     H10049   8.522   5.967  -1.199  0.2032  1.5259 -0.1755
   73MOL0     H10050   8.687   5.781  -1.160 -1.4451  0.7416  2.2352
   73MOL0     H10051   8.818   5.904  -1.159 -0.2728  2.1226 -0.8404
   73MOL0     H10052   8.828   5.776  -1.377 -0.5637 -0.4096 -0.0025
   73MOL0     H10053   8.753   5.943  -1.404 -0.4918 -1.0021 -2.4335
   73MOL0     H10054   8.302   5.507  -0.543  0.3756  0.1447  1.7455
   73MOL0     H10055   8.084   5.488  -0.435  1.8528  0.1777  0.9338
   73MOL0     H10056   7.672   5.121  -0.555  0.0147 -0.6139  1.1757
   73MOL0     H10057   7.456   5.061  -0.455  1.5299 -1.1799 -1.7247
   73MOL0     H10058   6.780   3.832   0.523 -1.9713 -1.8409  0.2166
   73MOL0     H10059   6.661   3.644   0.646  0.3653  0.9216  0.3301
   73MOL0     H10060   6.631   3.201   0.735  0.1379  1.2391 -0.0466
   73MOL0     H10061   6.497   3.022   0.838  2.6127 -0.5227 -2.8051
   73MOL0     H10062   6.284   3.139   1.123 -0.9671 -0.4359  1.4809
   73MOL0     H10063   6.221   2.980   1.067 -1.2321  0.6422  0.8129
   73MOL0     H10064   6.257   2.888   1.287  2.3273 -0.5523 -0.5032
   73MOL0     H10065   6.169   3.034   1.295 -0.3585 -1.0147  0.8400
   73MOL0     H10066   6.473   3.021   1.360  0.6748 -0.2703 -0.7158
   73MOL0     H10067   6.378   3.162   1.356 -0.5748 -0.1153  1.5157
   73MOL0     H10068   6.404   3.021   1.598 -1.7288 -2.6146  1.1395
   73MOL0     H10069   6.276   2.935   1.538 -0.7302  0.3773  0.1501
   73MOL0     H10070   6.069   3.307   1.593  0.0039  1.3885 -1.8900
   73MOL0     H10071   6.528   3.219   1.206 -0.1346  1.3600 -0.2133
   73MOL0     H10072   6.664   3.392   1.246  0.8773 -1.1532  0.2379
   73MOL0     H10073   6.822   3.370   1.167  0.0587 -0.8451 -0.3822
   73MOL0     H10074   6.713   3.502   1.115  0.3974 -0.6879 -0.7026
   74MOL0     O10075   6.118   1.021   6.750 -0.0142 -0.2284  0.0652
   74MOL0     C10076   6.141   1.072   6.857 -0.3013  0.2101  0.0400
   74MOL0     O10077   6.267   1.084   6.911  0.4788  0.3563  0.2026
   74MOL0     C10078   6.378   1.036   6.847  0.0331 -0.2740 -0.8795
   74MOL0     C10079   6.479   1.125   6.813 -0.4331  0.0569  0.3456
   74MOL0     C10080   6.600   1.074   6.748  0.1096 -1.0527  0.8572
   74MOL0     C10081   6.614   0.936   6.728 -0.8524 -0.1724 -0.0269
   74MOL0     O10082   6.720   0.875   6.663  0.5629 -0.7173  0.4927
   74MOL0     C10083   6.847   0.930   6.688 -1.1143 -0.0773  0.0408
   74MOL0     C10084   6.941   0.863   6.583 -0.1173  1.2022  0.0292
   74MOL0     C10085   7.090   0.912   6.609 -0.0682  0.2249  0.6850
   74MOL0     C10086   7.113   1.045   6.532  0.8816 -0.2509  0.5012
   74MOL0     C10087   7.166   1.042   6.392 -0.5188  0.0980 -0.3565
   74MOL0     C10088   7.324   1.028   6.400  0.3052 -0.3052 -0.0452
   74MOL0     C10089   7.384   1.033   6.266 -0.3443 -0.5380  1.2316
   74MOL0     C10090   7.535   1.048   6.272 -0.7657  0.0596 -0.2038
   74MOL0     N10091   7.609   1.025   6.150 -0.2354 -0.6376 -0.3301
   74MOL0     C10092   7.624   1.126   6.055  0.2783 -0.0741  0.0038
   74MOL0     C10093   7.698   1.067   5.961 -0.5086 -0.2923 -0.1423
   74MOL0     C10094   7.722   1.133   5.828 -0.9286  0.1791  0.1138
   74MOL0     C10095   7.619   1.077   5.718 -0.3849 -0.2253 -1.7887
   74MOL0     C10096   7.485   1.141   5.735 -0.7729  0.0994  0.3939
   74MOL0     C10097   7.377   1.061   5.660 -0.1409 -0.3899  0.0122
   74MOL0     O10098   7.251   1.123   5.693 -0.4446 -0.2677 -0.1351
   74MOL0     C10099   7.140   1.053   5.644  0.3535  0.6514  1.3324
   74MOL0     C10100   7.152   0.938   5.563  0.5634 -0.0601  0.7017
   74MOL0     C10101   7.035   0.871   5.522  0.0453 -0.3008  0.6496
   74MOL0     C10102   7.050   0.756   5.427  0.3016 -0.3384  0.4311
   74MOL0     C10103   6.907   0.916   5.556  0.3904 -0.2406 -0.0733
   74MOL0     C10104   6.781   0.837   5.541  0.4023 -0.3975 -0.6954
   74MOL0     O10105   6.658   0.906   5.548  0.2618 -0.7838 -0.4781
   74MOL0     C10106   6.540   0.839   5.518 -0.6970 -0.3955  0.2222
   74MOL0     C10107   6.438   0.868   5.613  0.2070 -0.0621  0.2676
   74MOL0     C10108   6.314   0.801   5.597 -0.6606  0.5032 -0.5123
   74MOL0     C10109   6.295   0.715   5.490 -0.2626 -0.1054 -0.5152
   74MOL0     O10110   6.174   0.656   5.465  0.0424 -0.6207  0.5345
   74MOL0     C10111   6.098   0.610   5.573  0.4723 -0.0313  0.2418
   74MOL0     C10112   5.975   0.706   5.584 -0.9306 -0.0903  0.1930
   74MOL0     C10113   5.887   0.641   5.690  0.5490  0.1613  0.2497
   74MOL0     C10114   5.747   0.716   5.694 -0.3363 -0.2256  0.4312
   74MOL0     C10115   5.686   0.719   5.831 -0.1981  0.7542 -0.1997
   74MOL0     C10116   5.540   0.782   5.838  0.3489  0.1421 -0.6084
   74MOL0     C10117   5.528   0.926   5.780 -0.2482  0.0740 -0.4548
   74MOL0     C10118   5.583   1.041   5.880  0.4481  0.1258 -1.6489
   74MOL0    Cl10119   5.477   1.061   6.033 -0.2694  0.3758  0.2264
   74MOL0     C10120   6.399   0.690   5.394 -0.7202  0.0250  0.0294
   74MOL0     C10121   6.521   0.758   5.413 -0.6602 -1.0868  0.6482
   74MOL0     O10122   6.786   0.712   5.540  0.1347  0.1991 -0.2738
   74MOL0     C10123   6.898   1.029   5.643 -0.6599 -0.3811  0.2330
   74MOL0     C10124   7.018   1.094   5.684  0.1036  0.7275 -0.3547
   74MOL0     N10125   7.737   0.943   6.001 -0.8373 -0.1040  0.5295
   74MOL0     N10126   7.698   0.929   6.125 -0.3230 -0.5150 -0.5139
   74MOL0     C10127   6.511   0.851   6.776 -0.1071  0.5315  0.3065
   74MOL0     C10128   6.394   0.899   6.829 -0.4917 -0.2505 -1.1587
   74MOL0     C10129   6.028   1.128   6.928 -0.1002  0.4044 -0.4616
   74MOL0     C10130   5.896   1.094   6.892  0.5364 -0.3136 -0.2717
   74MOL0     C10131   5.788   1.135   6.967 -0.2362  0.5829  0.5629
   74MOL0     C10132   5.802   1.220   7.073  0.3751 -0.2627 -0.4589
   74MOL0     O10133   5.681   1.250   7.125 -0.1278  0.2189 -0.4200
   74MOL0     C10134   5.679   1.322   7.247 -0.3113  0.1773  0.1689
   74MOL0     C10135   5.695   1.223   7.371 -0.5724 -0.1647 -0.5041
   74MOL0     C10136   5.735   1.282   7.504  0.6013 -0.2208 -1.1130
   74MOL0     C10137   5.875   1.352   7.503  0.1311  0.4840 -0.5068
   74MOL0     C10138   5.986   1.254   7.486  0.4863 -0.7202 -0.4188
   74MOL0     C10139   6.083   1.191   7.469 -0.0158 -0.7457 -0.3588
   74MOL0     C10140   5.928   1.256   7.114 -0.1024 -0.7793  0.5441
   74MOL0     C10141   6.040   1.219   7.041 -0.8237  0.8822 -0.3089
   74MOL0     C10142   6.169   1.256   7.098 -0.3848  0.3236 -0.3297
   74MOL0     H10143   6.468   1.233   6.820  0.1718  0.0922  0.8319
   74MOL0     H10144   6.680   1.140   6.715  0.6062 -1.5239  1.1065
   74MOL0     H10145   6.877   0.896   6.787 -0.0158 -0.4794 -0.4113
   74MOL0     H10146   6.853   1.039   6.687 -1.5728 -0.0466 -0.4802
   74MOL0     H10147   6.943   0.755   6.599  0.5929  0.8954 -1.9131
   74MOL0     H10148   6.907   0.882   6.481 -0.8746  0.5496  0.1530
   74MOL0     H10149   7.092   0.935   6.715 -2.3194  0.6787  0.6921
   74MOL0     H10150   7.159   0.834   6.574 -0.2648  0.6008 -0.6089
   74MOL0     H10151   7.012   1.085   6.522  1.0804 -0.0438 -0.8272
   74MOL0     H10152   7.150   1.128   6.592 -0.0449  0.0408  0.6945
   74MOL0     H10153   7.121   1.131   6.348  2.3007  2.5365  1.3435
   74MOL0     H10154   7.117   0.961   6.338  0.2939 -0.2986 -0.5120
   74MOL0     H10155   7.362   1.114   6.456  0.0507  0.7047 -1.3899
   74MOL0     H10156   7.354   0.936   6.451 -0.4961 -1.5134 -1.6686
   74MOL0     H10157   7.345   1.121   6.215 -1.9814 -0.1723  2.9963
   74MOL0     H10158   7.363   0.946   6.202  1.6647  0.1072 -0.4214
   74MOL0     H10159   7.570   1.137   6.326  0.5480 -0.3820 -0.2839
   74MOL0     H10160   7.576   0.967   6.334  0.9086  1.5183  0.6645
   74MOL0     H10161   7.583   1.226   6.047 -1.0812 -0.7530 -2.6523
   74MOL0     H10162   7.821   1.099   5.794 -1.1291 -0.4050  0.1094
   74MOL0     H10163   7.725   1.242   5.836  3.3667  0.1242  2.1811
   74MOL0     H10164   7.655   1.099   5.617 -0.4927  1.5811 -1.4802
   74MOL0     H10165   7.619   0.969   5.731  1.1913 -0.0659 -0.1821
   74MOL0     H10166   7.471   1.134   5.843  0.9881  2.3883  0.8357
   74MOL0     H10167   7.499   1.243   5.698  0.9459 -0.2737 -0.0464
   74MOL0     H10168   7.382   1.070   5.551  1.6874  0.0153  0.0914
   74MOL0     H10169   7.386   0.954   5.682  1.8544 -0.4968 -1.0269
   74MOL0     H10170   7.245   0.923   5.510 -0.9223  1.8824 -2.7710
   74MOL0     H10171   7.039   0.658   5.475 -0.5732 -0.0261  0.8962
   74MOL0     H10172   7.150   0.753   5.383  0.4847  2.0756  0.5330
   74MOL0     H10173   6.979   0.767   5.344  1.3083  3.0532 -0.1253
   74MOL0     H10174   6.437   0.934   5.698 -2.5722  1.7646 -1.0089
   74MOL0     H10175   6.235   0.813   5.671 -1.2457  2.6235 -1.4215
   74MOL0     H10176   6.060   0.508   5.561 -0.5300  0.0507  2.3717
   74MOL0     H10177   6.146   0.610   5.671  0.3387 -1.5438  0.3324
   74MOL0     H10178   6.004   0.804   5.624 -2.7533 -0.1509  1.8124
   74MOL0     H10179   5.926   0.711   5.487  1.5297 -0.3651 -1.1350
   74MOL0     H10180   5.943   0.641   5.785  0.1379  1.1250  0.5085
   74MOL0     H10181   5.870   0.536   5.666  0.3897  0.5729 -1.5888
   74MOL0     H10182   5.672   0.680   5.623  2.7233 -2.6059 -1.9198
   74MOL0     H10183   5.769   0.820   5.670 -2.2823  0.0222 -0.4989
   74MOL0     H10184   5.690   0.619   5.876 -0.0086  0.1942 -1.4396
   74MOL0     H10185   5.753   0.782   5.890 -0.7217  0.0089  1.2590
   74MOL0     H10186   5.491   0.778   5.936 -2.9944  2.2434 -2.0249
   74MOL0     H10187   5.488   0.705   5.780  2.0390 -2.9929  1.7785
   74MOL0     H10188   5.423   0.943   5.755 -1.2194  1.9081  4.0100
   74MOL0     H10189   5.587   0.945   5.690  1.0072 -0.8097  0.1449
   74MOL0     H10190   5.570   1.138   5.832 -0.0839  2.0056  1.9186
   74MOL0     H10191   5.681   1.007   5.915 -1.2069 -2.8903  0.5401
   74MOL0     H10192   6.388   0.627   5.307 -1.6646  1.5723 -1.0295
   74MOL0     H10193   6.606   0.733   5.350  0.4145 -1.6771  2.2502
   74MOL0     H10194   6.802   1.063   5.681 -1.0485  1.0601 -1.8636
   74MOL0     H10195   7.009   1.181   5.749  0.6937 -0.0545  0.8074
   74MOL0     H10196   6.520   0.743   6.768 -0.5173  0.5209 -0.0400
   74MOL0     H10197   6.312   0.833   6.856 -0.8894  0.6407 -0.1060
   74MOL0     H10198   5.880   1.031   6.805  1.5260  0.4978 -1.0769
   74MOL0     H10199   5.694   1.091   6.937  0.2127 -0.6761  0.9185
   74MOL0     H10200   5.755   1.400   7.240  0.2317 -0.4891 -2.7484
   74MOL0     H10201   5.586   1.380   7.258  1.1115  2.8931 -1.2317
   74MOL0     H10202   5.779   1.155   7.352  1.2649  1.0789  2.4583
   74MOL0     H10203   5.609   1.155   7.366  0.7034 -1.9068  0.1941
   74MOL0     H10204   5.662   1.348   7.551  0.4847 -0.4332 -0.9946
   74MOL0     H10205   5.733   1.198   7.574 -1.6294  0.5771 -0.1247
   74MOL0     H10206   5.886   1.405   7.598 -3.0338 -3.1363  2.2247
   74MOL0     H10207   5.872   1.424   7.421 -0.0585  0.2913 -0.6695
   74MOL0     H10208   6.171   1.135   7.444 -0.9185 -2.6753  0.5119
   74MOL0     H10209   5.949   1.310   7.206  2.2111  0.2922 -0.5240
   74MOL0     H10210   6.231   1.170   7.127 -1.3277 -0.8691 -1.7520
   74MOL0     H10211   6.226   1.312   7.023  0.5313 -0.6608 -0.3896
   74MOL0     H10212   6.168   1.323   7.185 -0.4264  1.1988 -0.9888
   75MOL0     O10213   9.411   2.157   4.638  0.4339 -0.2166  0.4930
   75MOL0     C10214   9.474   2.104   4.730  0.6982  0.6616 -0.2146
   75MOL0     O10215   9.530   1.977   4.732 -0.5476 -0.3265 -0.0246
   75MOL0     C10216   9.491   1.887   4.633  0.0162  0.5162  0.6051
   75MOL0     C10217   9.582   1.794   4.590 -0.7926 -0.1961  0.1861
   75MOL0     C10218   9.547   1.699   4.494 -0.5150  0.2299 -0.2516
   75MOL0     C10219   9.422   1.685   4.439 -0.1400 -0.4889 -0.7979
   75MOL0     O10220   9.387   1.588   4.351  0.4811 -1.0069  0.2859
   75MOL0     C10221   9.408   1.458   4.412 -0.5657  1.0494 -0.2751
   75MOL0     C10222   9.295   1.366   4.358  0.3857  0.0938  0.0683
   75MOL0     C10223   9.283   1.236   4.445  0.4523 -0.6419  0.6967
   75MOL0     C10224   9.172   1.140   4.392 -0.3457 -0.7559  0.5644
   75MOL0     C10225   9.144   1.020   4.484  0.4836 -0.0151  0.4777
   75MOL0     C10226   9.107   0.898   4.398 -1.2889 -0.5153  0.2064
   75MOL0     C10227   8.996   0.923   4.310  0.2513  0.4427 -0.4460
   75MOL0     C10228   8.966   0.784   4.240  1.2018 -0.0041  0.3105
   75MOL0     N10229   8.836   0.787   4.175 -0.3197 -0.2333 -0.4036
   75MOL0     C10230   8.787   0.886   4.093 -0.5148 -0.1110 -0.7698
   75MOL0     C10231   8.653   0.865   4.094  0.8460  0.8399  0.6781
   75MOL0     C10232   8.558   0.945   4.011 -0.1472 -0.2524  0.5297
   75MOL0     C10233   8.486   1.029   4.108 -0.5573 -0.2080 -0.4892
   75MOL0     C10234   8.365   1.102   4.050  0.0813  0.0524 -0.2966
   75MOL0     C10235   8.246   1.089   4.149  1.6734  0.1392 -0.2782
   75MOL0     O10236   8.136   1.161   4.088  0.0539  0.1321 -0.1430
   75MOL0     C10237   8.012   1.166   4.157 -0.4828  0.1080  0.5016
   75MOL0     C10238   7.989   1.152   4.301 -0.6832 -0.0507  0.0730
   75MOL0     C10239   7.860   1.173   4.359 -0.3244 -0.0273  0.0838
   75MOL0     C10240   7.848   1.147   4.515 -0.8013  0.2572 -0.2892
   75MOL0     C10241   7.757   1.209   4.275  0.1997 -0.1197  0.7510
   75MOL0     C10242   7.623   1.233   4.317  1.1587  0.6935  0.7660
   75MOL0     O10243   7.540   1.316   4.233 -0.5854  0.0154  0.5126
   75MOL0     C10244   7.429   1.370   4.291 -0.0480  0.3256 -0.5440
   75MOL0     C10245   7.439   1.503   4.330  0.4123  0.7062  0.4256
   75MOL0     C10246   7.328   1.574   4.378  0.2963  0.1646  0.4316
   75MOL0     C10247   7.207   1.508   4.390 -0.4345  0.2748  0.4647
   75MOL0     O10248   7.101   1.593   4.406 -0.3508  0.0345 -0.2210
   75MOL0     C10249   6.970   1.542   4.431 -0.0231 -0.2192 -0.5314
   75MOL0     C10250   6.895   1.677   4.440  0.0316  0.5703  0.6724
   75MOL0     C10251   6.763   1.646   4.501 -0.1719 -1.0471 -0.1742
   75MOL0     C10252   6.683   1.777   4.477  0.3437 -0.1951 -0.2123
   75MOL0     C10253   6.544   1.762   4.545 -0.4322  1.0442 -0.5311
   75MOL0     C10254   6.488   1.900   4.561  0.0023  0.4176  0.8332
   75MOL0     C10255   6.342   1.903   4.616  1.3461  0.2945 -0.7755
   75MOL0     C10256   6.275   2.020   4.577 -0.8591  0.0289  0.3304
   75MOL0    Cl10257   6.138   2.045   4.684 -0.3284  0.1678 -0.0535
   75MOL0     C10258   7.196   1.378   4.359 -0.1970  0.1236  0.2152
   75MOL0     C10259   7.301   1.303   4.307 -0.5798 -0.8168  0.6765
   75MOL0     O10260   7.590   1.192   4.423  0.0673  0.2924  0.0287
   75MOL0     C10261   7.778   1.224   4.134  0.0913 -0.6618 -0.2197
   75MOL0     C10262   7.903   1.209   4.078 -1.3816 -0.2582 -0.2450
   75MOL0     N10263   8.621   0.766   4.183  0.7134 -0.0607  0.2607
   75MOL0     N10264   8.731   0.709   4.226 -0.6274  0.5373  0.7787
   75MOL0     C10265   9.322   1.779   4.475  0.0584 -0.5218  0.5190
   75MOL0     C10266   9.362   1.875   4.572 -0.7862 -0.4885 -0.5849
   75MOL0     C10267   9.490   2.184   4.855  0.2010  0.4140  0.3972
   75MOL0     C10268   9.550   2.114   4.961 -0.6229 -0.6934  0.3958
   75MOL0     C10269   9.569   2.175   5.083  0.6836 -0.2248  0.6812
   75MOL0     C10270   9.541   2.309   5.100  0.0081  0.0098 -0.1156
   75MOL0     O10271   9.572   2.363   5.217  0.3496 -0.6434 -0.6636
   75MOL0     C10272   9.537   2.298   5.339 -0.2386 -0.1876  0.3347
   75MOL0     C10273   9.397   2.239   5.351 -0.1403 -0.3059  0.6267
   75MOL0     C10274   9.383   2.157   5.479  0.2694  0.0780  0.3586
   75MOL0     C10275   9.238   2.152   5.527  1.0041  0.0141  0.1350
   75MOL0     C10276   9.155   2.056   5.449  0.2628  0.0097  0.2166
   75MOL0     C10277   9.080   1.984   5.387  0.2784 -0.2342 -0.9817
   75MOL0     C10278   9.481   2.378   4.999 -0.0028 -0.4407  0.5273
   75MOL0     C10279   9.450   2.318   4.871 -0.2863 -0.1826 -0.6757
   75MOL0     C10280   9.365   2.415   4.790 -0.1771  0.8788 -0.7874
   75MOL0     H10281   9.679   1.793   4.640 -1.0058 -1.6751  0.5906
   75MOL0     H10282   9.619   1.621   4.471  1.5929  1.4641  1.7573
   75MOL0     H10283   9.395   1.462   4.521  0.4568 -0.0462 -0.0965
   75MOL0     H10284   9.509   1.423   4.390 -0.5957  0.1154  0.9514
   75MOL0     H10285   9.202   1.419   4.335  0.2118 -0.6012 -0.9463
   75MOL0     H10286   9.326   1.333   4.258  0.1739  0.3074 -0.0682
   75MOL0     H10287   9.383   1.194   4.460  1.3060  1.6174  1.6915
   75MOL0     H10288   9.239   1.275   4.537 -1.6198 -1.5703  0.1671
   75MOL0     H10289   9.072   1.183   4.378 -0.4324 -1.3541 -0.8560
   75MOL0     H10290   9.207   1.104   4.295 -4.8490 -0.0972 -1.5654
   75MOL0     H10291   9.056   1.041   4.545 -0.7880 -2.8926 -0.1860
   75MOL0     H10292   9.228   0.997   4.551 -0.1252 -0.7666  0.9982
   75MOL0     H10293   9.197   0.865   4.345 -1.7304 -1.9376  0.3184
   75MOL0     H10294   9.088   0.815   4.466  0.9488 -1.3528 -0.1238
   75MOL0     H10295   9.021   0.993   4.230 -0.3430  0.1752 -0.8772
   75MOL0     H10296   8.908   0.958   4.364  1.8119 -1.0007  3.3681
   75MOL0     H10297   9.029   0.749   4.158 -1.1038 -0.7906 -1.1948
   75MOL0     H10298   8.952   0.706   4.316 -1.1183 -2.4512 -2.3915
   75MOL0     H10299   8.856   0.960   4.052  2.0177 -0.4500  2.4032
   75MOL0     H10300   8.488   0.879   3.958  1.9620 -0.0948 -2.7237
   75MOL0     H10301   8.624   1.002   3.946  0.2439  2.3053  2.9658
   75MOL0     H10302   8.451   0.963   4.188  1.0115  1.4326  1.6876
   75MOL0     H10303   8.552   1.092   4.169  0.5565 -1.8943  0.1232
   75MOL0     H10304   8.385   1.208   4.037 -0.9193  0.1266 -1.4123
   75MOL0     H10305   8.325   1.067   3.954  1.4364 -0.3899 -0.7300
   75MOL0     H10306   8.221   0.986   4.175  0.3673  0.8760  1.6274
   75MOL0     H10307   8.270   1.131   4.247  2.2528 -0.2233 -0.2640
   75MOL0     H10308   8.069   1.115   4.364  0.0195 -0.9228 -1.3046
   75MOL0     H10309   7.841   1.246   4.560  0.4551  0.1866  0.0913
   75MOL0     H10310   7.943   1.103   4.547 -0.2133  1.2145 -0.6883
   75MOL0     H10311   7.775   1.068   4.538 -1.3960  0.1167 -2.4126
   75MOL0     H10312   7.539   1.546   4.326  1.8514 -2.1157  2.5491
   75MOL0     H10313   7.339   1.679   4.402  1.0008  0.9481 -2.9616
   75MOL0     H10314   6.932   1.468   4.360 -1.9411 -0.5792  0.7777
   75MOL0     H10315   6.967   1.491   4.528 -1.6175 -0.2658 -0.5654
   75MOL0     H10316   6.947   1.755   4.496  3.3786 -1.2353  0.3107
   75MOL0     H10317   6.893   1.708   4.335  1.9644 -1.1631  0.0707
   75MOL0     H10318   6.774   1.635   4.609  2.0859 -0.6781 -0.3302
   75MOL0     H10319   6.717   1.562   4.448 -1.3784  0.5581 -1.8205
   75MOL0     H10320   6.677   1.799   4.370 -0.0974 -0.9909 -0.3587
   75MOL0     H10321   6.735   1.859   4.528 -2.3207  0.9909  0.8072
   75MOL0     H10322   6.483   1.700   4.477 -2.9448  3.5687 -0.7712
   75MOL0     H10323   6.555   1.706   4.638 -3.4133 -1.6114 -1.5835
   75MOL0     H10324   6.496   1.954   4.466  0.1973 -1.3701 -0.2012
   75MOL0     H10325   6.542   1.954   4.640  2.8607 -0.6597 -0.2388
   75MOL0     H10326   6.344   1.880   4.723  0.0328 -2.3689 -1.2535
   75MOL0     H10327   6.277   1.827   4.572  0.2126 -0.8695  2.5814
   75MOL0     H10328   6.228   2.006   4.479 -0.8705  0.4938  0.2665
   75MOL0     H10329   6.349   2.100   4.572 -1.0954  0.3774  1.7686
   75MOL0     H10330   7.099   1.331   4.346  0.1282  0.0041 -2.4032
   75MOL0     H10331   7.286   1.201   4.276  3.3177 -1.7658  1.3612
   75MOL0     H10332   7.707   1.250   4.055  0.9880 -0.4266 -0.9597
   75MOL0     H10333   7.927   1.228   3.974 -0.8159 -1.8647 -0.4402
   75MOL0     H10334   9.226   1.779   4.423 -0.1229  0.2206  0.8265
   75MOL0     H10335   9.287   1.942   4.614  0.3566  2.7113 -3.2063
   75MOL0     H10336   9.575   2.010   4.947 -0.5993 -0.4532 -1.6983
   75MOL0     H10337   9.614   2.127   5.169  2.2868 -1.5356 -0.8170
   75MOL0     H10338   9.623   2.233   5.358  0.1958  0.6118  1.1743
   75MOL0     H10339   9.543   2.362   5.427  3.3199 -1.8696  1.4972
   75MOL0     H10340   9.370   2.166   5.273 -1.5885  1.2239 -0.3621
   75MOL0     H10341   9.328   2.324   5.345 -0.5609 -0.7100 -0.5973
   75MOL0     H10342   9.417   2.057   5.450  0.1942  0.0394  0.4012
   75MOL0     H10343   9.435   2.188   5.570 -2.5475  2.2017  1.4123
   75MOL0     H10344   9.187   2.246   5.504 -2.9239 -2.3533 -1.8818
   75MOL0     H10345   9.235   2.119   5.631 -2.6697 -0.1313  0.1161
   75MOL0     H10346   9.015   1.910   5.344 -1.5457  1.0694 -0.5904
   75MOL0     H10347   9.459   2.484   5.010 -1.2221 -0.5372 -0.6977
   75MOL0     H10348   9.321   2.496   4.849 -1.4041 -0.4524  0.2068
   75MOL0     H10349   9.434   2.450   4.714 -0.9455 -0.3087 -2.0812
   75MOL0     H10350   9.285   2.364   4.735 -2.1155  0.8576  1.8547
   76MOL0     O10351  11.172   7.826   5.987  0.3577  0.4264 -0.0222
   76MOL0     C10352  11.088   7.763   5.928  0.5424  0.6900  0.2170
   76MOL0     O10353  11.112   7.715   5.809  0.3645  0.3496 -0.0236
   76MOL0     C10354  11.236   7.657   5.776 -0.7330  0.1305  0.1013
   76MOL0     C10355  11.259   7.632   5.641  0.1628  0.1011 -0.6279
   76MOL0     C10356  11.392   7.599   5.606 -0.3194 -0.4233  0.2441
   76MOL0     C10357  11.500   7.570   5.695  0.1561 -0.2784  0.4291
   76MOL0     O10358  11.622   7.525   5.652  0.2945  0.3754  0.4605
   76MOL0     C10359  11.639   7.524   5.507 -0.6147 -0.6294  0.0764
   76MOL0     C10360  11.777   7.474   5.474 -0.1559 -0.6660  0.5708
   76MOL0     C10361  11.897   7.575   5.492  0.9541 -0.2877  0.5380
   76MOL0     C10362  11.881   7.702   5.425 -0.2899  0.3116 -0.7320
   76MOL0     C10363  11.879   7.690   5.271 -0.0688 -0.2600 -0.0203
   76MOL0     C10364  12.015   7.641   5.226  0.2850 -0.6537 -0.0877
   76MOL0     C10365  12.027   7.642   5.076  0.3808 -0.5402 -0.2919
   76MOL0     C10366  12.139   7.552   5.011 -0.1305 -0.1856 -0.7045
   76MOL0     N10367  12.144   7.581   4.871  0.6297  0.3087  0.7549
   76MOL0     C10368  12.258   7.604   4.785  0.3784 -0.0546 -0.2879
   76MOL0     C10369  12.204   7.608   4.663  0.3404  0.4704  0.1462
   76MOL0     C10370  12.269   7.630   4.534 -0.7699 -0.6573 -0.2995
   76MOL0     C10371  12.424   7.646   4.527 -0.6266 -0.8306 -0.0713
   76MOL0     C10372  12.513   7.526   4.581 -0.0074  0.7559  0.7997
   76MOL0     C10373  12.442   7.389   4.575  0.0979 -0.0293 -0.2984
   76MOL0     O10374  12.402   7.352   4.440  0.4418  0.1284  0.0784
   76MOL0     C10375  12.487   7.272   4.366  0.0376 -0.6271 -1.0795
   76MOL0     C10376  12.430   7.209   4.254 -0.1969  0.0454  0.5784
   76MOL0     C10377  12.496   7.120   4.173 -0.0715 -1.0653 -0.2896
   76MOL0     C10378  12.416   7.050   4.059 -0.0468  0.6336  0.3150
   76MOL0     C10379  12.634   7.110   4.196  0.2638 -0.3534 -0.3509
   76MOL0     C10380  12.711   7.017   4.114 -0.0261 -0.7393 -0.6540
   76MOL0     O10381  12.844   7.053   4.086  1.0434 -0.1680  0.6128
   76MOL0     C10382  12.889   7.011   3.966  0.0941 -0.1143  0.4083
   76MOL0     C10383  12.884   7.101   3.855 -0.2770  0.5376  0.0282
   76MOL0     C10384  12.940   7.055   3.733 -0.4051 -0.1899 -0.0204
   76MOL0     C10385  13.003   6.931   3.714  0.2275 -0.0278 -0.8398
   76MOL0     O10386  13.056   6.899   3.587  0.8282  0.0275 -0.5696
   76MOL0     C10387  13.098   6.760   3.575  1.2291 -0.0316  0.3737
   76MOL0     C10388  13.177   6.747   3.451  0.3337 -0.1829  0.3364
   76MOL0     C10389  13.260   6.613   3.447  0.3970 -1.2288 -0.6237
   76MOL0     C10390  13.285   6.549   3.308  0.9531 -1.0917  0.5379
   76MOL0     C10391  13.394   6.608   3.216  0.0642 -1.0313 -1.0736
   76MOL0     C10392  13.398   6.763   3.213  0.3051  0.2514  0.7613
   76MOL0     C10393  13.481   6.804   3.091 -0.1298  0.0216  0.4848
   76MOL0     C10394  13.510   6.953   3.118 -0.9454  0.3241 -0.6983
   76MOL0    Cl10395  13.634   6.992   3.254  0.0672  0.1811 -0.4047
   76MOL0     C10396  12.984   6.837   3.820  0.1348  0.2147  1.0588
   76MOL0     C10397  12.934   6.881   3.942 -0.0745  0.5443 -0.7214
   76MOL0     O10398  12.660   6.906   4.099 -0.0440 -0.2768 -0.5111
   76MOL0     C10399  12.706   7.169   4.307 -0.0421  0.1462 -0.9978
   76MOL0     C10400  12.626   7.251   4.389 -0.5150  0.6648  0.2823
   76MOL0     N10401  12.066   7.595   4.669 -0.3491 -0.5153  0.4036
   76MOL0     N10402  12.033   7.592   4.793  0.5695 -0.3035  0.2149
   76MOL0     C10403  11.466   7.584   5.834  0.7180 -0.7479  0.6672
   76MOL0     C10404  11.334   7.620   5.870 -0.2643  0.3473 -0.1310
   76MOL0     C10405  10.949   7.766   5.978  0.5063  0.6189  0.1990
   76MOL0     C10406  10.844   7.741   5.881 -0.5029 -1.1383 -0.6284
   76MOL0     C10407  10.711   7.744   5.917 -0.1478 -0.1088 -0.1840
   76MOL0     C10408  10.672   7.750   6.051  0.3857 -0.7354 -0.1069
   76MOL0     O10409  10.545   7.751   6.104 -0.3679 -0.3535 -0.4964
   76MOL0     C10410  10.447   7.760   5.995  0.4213  0.4120 -0.1944
   76MOL0     C10411  10.297   7.742   6.035  0.0092 -0.7247 -0.1320
   76MOL0     C10412  10.254   7.598   6.072 -0.5329  0.6594 -0.9133
   76MOL0     C10413  10.129   7.603   6.159 -0.4019  1.0205  0.1269
   76MOL0     C10414  10.013   7.643   6.082 -0.2452 -0.0804  0.1431
   76MOL0     C10415   9.923   7.690   6.003  0.0536  0.4618  0.3149
   76MOL0     C10416  10.770   7.780   6.141 -0.1957  0.0076 -0.5442
   76MOL0     C10417  10.905   7.801   6.106 -0.8392  0.1644 -0.7807
   76MOL0     C10418  11.001   7.860   6.208 -0.7042 -0.0460  0.2961
   76MOL0     H10419  11.189   7.661   5.564  0.7912  2.4194 -0.4136
   76MOL0     H10420  11.401   7.603   5.498  0.9380 -0.9892  0.3093
   76MOL0     H10421  11.630   7.617   5.450 -3.7658 -2.0157 -2.0186
   76MOL0     H10422  11.560   7.456   5.472 -2.2194  2.4144 -2.7099
   76MOL0     H10423  11.799   7.384   5.532  1.5621 -1.8970 -1.8471
   76MOL0     H10424  11.771   7.439   5.371  3.4897 -0.6295  0.2216
   76MOL0     H10425  11.908   7.604   5.597  0.4184 -0.6216  0.6892
   76MOL0     H10426  11.995   7.536   5.464  0.9819  1.2719 -1.8045
   76MOL0     H10427  11.789   7.745   5.466  0.9707  0.2768  2.3942
   76MOL0     H10428  11.968   7.764   5.450  0.6229 -0.9180 -0.7959
   76MOL0     H10429  11.854   7.779   5.213  0.2863 -1.2756 -1.8056
   76MOL0     H10430  11.807   7.613   5.239  0.6943 -1.2972  0.6708
   76MOL0     H10431  12.085   7.719   5.257 -1.4114  0.5251  0.9586
   76MOL0     H10432  12.037   7.539   5.258  1.2667 -0.1645  0.8767
   76MOL0     H10433  12.038   7.747   5.048  2.5120  0.2760  3.0721
   76MOL0     H10434  11.930   7.614   5.033  0.0931 -0.8997  0.5630
   76MOL0     H10435  12.237   7.576   5.053 -0.2679 -0.7690 -0.0284
   76MOL0     H10436  12.110   7.451   5.041 -2.1641 -0.3515 -2.9381
   76MOL0     H10437  12.363   7.611   4.812  0.7751 -1.3946 -1.3762
   76MOL0     H10438  12.220   7.714   4.484  0.5588  0.2502 -0.1154
   76MOL0     H10439  12.240   7.542   4.476 -0.9532 -1.9205  1.6128
   76MOL0     H10440  12.440   7.656   4.419 -0.8275 -1.6163 -0.1793
   76MOL0     H10441  12.450   7.741   4.575  1.1496 -0.5109 -1.5480
   76MOL0     H10442  12.603   7.508   4.522 -1.0201  0.3246 -0.6811
   76MOL0     H10443  12.542   7.530   4.686  0.2326  0.5560  0.7402
   76MOL0     H10444  12.522   7.319   4.602  1.9716  1.2696 -2.2156
   76MOL0     H10445  12.360   7.390   4.647  1.1412  3.3928  1.0294
   76MOL0     H10446  12.326   7.231   4.237 -0.5165 -1.5840  0.2649
   76MOL0     H10447  12.437   6.943   4.051 -0.2715  0.7378 -2.4494
   76MOL0     H10448  12.441   7.098   3.963  0.0177  0.7719  0.3996
   76MOL0     H10449  12.310   7.069   4.076 -0.4189  1.0631 -2.1511
   76MOL0     H10450  12.842   7.201   3.854 -0.1101  0.6037 -1.3669
   76MOL0     H10451  12.940   7.129   3.653  0.3804  0.4492  0.5511
   76MOL0     H10452  13.160   6.732   3.661 -0.7846 -1.9978  1.2970
   76MOL0     H10453  13.012   6.693   3.582  0.5687  0.8820  1.3015
   76MOL0     H10454  13.117   6.747   3.359  0.9544 -1.6871 -0.1012
   76MOL0     H10455  13.241   6.836   3.454  0.4674 -0.3057  1.5765
   76MOL0     H10456  13.206   6.539   3.506 -3.3613  0.4767 -1.6816
   76MOL0     H10457  13.353   6.631   3.502 -0.3865  2.0319 -0.1845
   76MOL0     H10458  13.191   6.547   3.253  1.5375 -0.3467 -0.5226
   76MOL0     H10459  13.309   6.443   3.319  2.3934 -1.2033 -2.5022
   76MOL0     H10460  13.488   6.564   3.252 -0.7583 -1.9592  0.0184
   76MOL0     H10461  13.391   6.582   3.110 -0.3783 -0.3497 -1.2341
   76MOL0     H10462  13.434   6.803   3.308 -2.2120  1.5194  1.2597
   76MOL0     H10463  13.296   6.800   3.198  0.7211  1.9205  1.8427
   76MOL0     H10464  13.420   6.805   3.001 -2.0319  0.3263  1.7040
   76MOL0     H10465  13.573   6.746   3.077  0.8566  2.3539 -4.9526
   76MOL0     H10466  13.410   6.992   3.143 -0.5141  0.6383  0.5898
   76MOL0     H10467  13.547   7.005   3.029  0.9523 -2.4267 -1.6325
   76MOL0     H10468  13.005   6.731   3.807 -1.9187  0.0109 -1.3207
   76MOL0     H10469  12.959   6.808   4.018  1.5577 -0.3492 -2.0569
   76MOL0     H10470  12.811   7.156   4.332 -0.1587  1.0767 -0.0112
   76MOL0     H10471  12.690   7.295   4.465  3.2844 -2.1768 -0.9419
   76MOL0     H10472  11.535   7.559   5.914 -0.2052 -0.1418  1.6792
   76MOL0     H10473  11.305   7.623   5.975  3.0256  0.6597  0.8930
   76MOL0     H10474  10.867   7.736   5.775  3.1867 -2.7366  0.0885
   76MOL0     H10475  10.648   7.729   5.830  2.5682 -3.6709 -1.7526
   76MOL0     H10476  10.453   7.854   5.939 -2.1775 -0.5700 -2.3479
   76MOL0     H10477  10.462   7.684   5.918 -0.2799 -0.2986  0.3504
   76MOL0     H10478  10.235   7.780   5.954  0.8651  0.1225 -0.4005
   76MOL0     H10479  10.289   7.802   6.126  1.0566  0.5990 -0.8913
   76MOL0     H10480  10.226   7.548   5.979 -2.3200 -0.1623  0.0117
   76MOL0     H10481  10.336   7.539   6.115 -0.8135 -0.6183 -2.0638
   76MOL0     H10482  10.143   7.665   6.248 -0.8920 -0.1505  1.0470
   76MOL0     H10483  10.108   7.501   6.193  2.9625  0.0132 -0.4992
   76MOL0     H10484   9.852   7.731   5.933 -0.4667 -0.6605  0.1645
   76MOL0     H10485  10.729   7.807   6.238 -2.5894  2.8142 -2.1728
   76MOL0     H10486  11.065   7.936   6.162 -0.8720 -0.2110 -0.2114
   76MOL0     H10487  10.947   7.903   6.293 -2.6558  0.6555 -1.2512
   76MOL0     H10488  11.068   7.779   6.239  0.3770  0.6935 -0.0514
   77MOL0     O10489   8.823   0.418  11.004  0.0179  0.6662  0.7043
   77MOL0     C10490   8.798   0.532  10.988  0.2373 -0.5595  0.4972
   77MOL0     O10491   8.851   0.633  11.063 -0.1951 -0.4360  0.0927
   77MOL0     C10492   8.979   0.620  11.112  0.3614  0.1916  0.9484
   77MOL0     C10493   8.987   0.567  11.240 -0.6096 -0.4710 -0.0507
   77MOL0     C10494   9.108   0.563  11.307  0.6069 -0.0980  0.1761
   77MOL0     C10495   9.222   0.620  11.244 -0.1024  0.0971 -1.2504
   77MOL0     O10496   9.339   0.604  11.311  0.0068  0.0806  0.0392
   77MOL0     C10497   9.466   0.610  11.238 -0.9563 -0.3983 -1.1344
   77MOL0     C10498   9.586   0.605  11.340  0.1682 -0.2588  0.0022
   77MOL0     C10499   9.568   0.499  11.446  0.2525  0.2048  0.2176
   77MOL0     C10500   9.653   0.528  11.567 -1.1033  0.1637  0.8589
   77MOL0     C10501   9.637   0.411  11.664  0.7390 -0.2174  0.6301
   77MOL0     C10502   9.722   0.427  11.787  0.5875 -0.0225 -0.1811
   77MOL0     C10503   9.673   0.320  11.884 -0.2935 -0.3796 -0.0514
   77MOL0     C10504   9.746   0.342  12.020  0.1245 -0.1681  0.5392
   77MOL0     N10505   9.893   0.355  12.019  0.0046  0.4087 -0.6463
   77MOL0     C10506   9.978   0.265  11.964  0.7975  0.2290 -1.1696
   77MOL0     C10507  10.096   0.329  11.960 -0.6133 -0.1462  0.1839
   77MOL0     C10508  10.222   0.261  11.907  0.3345  0.1986 -0.3259
   77MOL0     C10509  10.315   0.190  12.013  0.2753  0.0804 -0.0091
   77MOL0     C10510  10.391   0.068  11.969 -1.2629  0.0002 -0.1562
   77MOL0     C10511  10.522   0.095  11.891  0.6963 -0.6955  0.6085
   77MOL0     O10512  10.598   0.202  11.967 -0.2043 -0.0982 -0.1314
   77MOL0     C10513  10.735   0.193  11.952 -0.8040 -0.4644 -0.3309
   77MOL0     C10514  10.805   0.101  11.871  0.9826 -0.5404 -0.0241
   77MOL0     C10515  10.943   0.094  11.860  0.3297  0.4798 -0.3176
   77MOL0     C10516  10.999  -0.011  11.764  0.8724  0.2893  1.0859
   77MOL0     C10517  11.019   0.186  11.941 -0.3818 -0.2694  0.5026
   77MOL0     C10518  11.172   0.199  11.939 -0.0483 -0.5884 -0.3779
   77MOL0     O10519  11.234   0.282  12.033  0.4505  0.0065  0.3946
   77MOL0     C10520  11.374   0.288  12.040 -0.6374  0.0303 -0.2260
   77MOL0     C10521  11.444   0.263  12.161  0.0552 -0.7371  0.5009
   77MOL0     C10522  11.581   0.256  12.156  0.3468 -0.0310 -0.3216
   77MOL0     C10523  11.659   0.269  12.039 -0.2967 -0.4230 -0.3412
   77MOL0     O10524  11.796   0.262  12.035 -0.1344  0.4963  0.6255
   77MOL0     C10525  11.859   0.227  12.160 -0.2564  0.1107 -0.2201
   77MOL0     C10526  12.013   0.247  12.155  0.3721  0.0724  0.5052
   77MOL0     C10527  12.041   0.383  12.094 -0.4177  0.5845 -0.0967
   77MOL0     C10528  12.045   0.501  12.199  0.0294 -0.4824  0.2088
   77MOL0     C10529  12.056   0.635  12.133  0.4637 -0.4769  0.4799
   77MOL0     C10530  12.038   0.751  12.239  1.0554  0.6888 -0.4816
   77MOL0     C10531  12.024   0.895  12.175 -0.0902 -0.4402 -0.0610
   77MOL0     C10532  12.160   0.967  12.198 -0.4374  0.1665 -0.6387
   77MOL0    Cl10533  12.189   1.103  12.077 -0.0395 -0.3729  0.0109
   77MOL0     C10534  11.593   0.302  11.922 -0.8698 -0.1124  0.0135
   77MOL0     C10535  11.452   0.315  11.926 -0.0330 -0.6005  0.1429
   77MOL0     O10536  11.229   0.142  11.846 -0.0820 -0.5122 -0.0388
   77MOL0     C10537  10.954   0.281  12.019 -0.5541 -0.2534  0.0217
   77MOL0     C10538  10.815   0.282  12.023  0.0232  0.9968 -0.1658
   77MOL0     N10539  10.086   0.455  12.016  0.5892  0.1037 -0.0809
   77MOL0     N10540   9.957   0.473  12.038 -0.1461  0.0371  0.8874
   77MOL0     C10541   9.212   0.669  11.119  0.0775  0.2619 -0.2867
   77MOL0     C10542   9.090   0.681  11.055 -0.1798  0.0057  0.1328
   77MOL0     C10543   8.707   0.565  10.879 -0.2464 -0.5875  0.1575
   77MOL0     C10544   8.627   0.467  10.829  0.6767  0.2994  0.4631
   77MOL0     C10545   8.528   0.490  10.724  0.3342 -0.1520 -0.5321
   77MOL0     C10546   8.503   0.616  10.669 -1.2607 -0.6510  0.6079
   77MOL0     O10547   8.386   0.622  10.598  0.4760 -0.5183  0.2762
   77MOL0     C10548   8.374   0.727  10.506 -0.0236  0.2144  0.2597
   77MOL0     C10549   8.228   0.757  10.473 -0.2305  0.5966 -0.4357
   77MOL0     C10550   8.135   0.740  10.603 -0.8877 -0.2484  1.3033
   77MOL0     C10551   7.991   0.733  10.553 -0.2746  0.9149  0.3025
   77MOL0     C10552   7.960   0.603  10.483  0.1005  0.2646  0.1337
   77MOL0     C10553   7.932   0.494  10.439  0.0239  0.3998  0.7112
   77MOL0     C10554   8.593   0.718  10.716  0.2602 -0.6246  0.3563
   77MOL0     C10555   8.686   0.697  10.818 -0.3745 -0.0653 -0.8788
   77MOL0     C10556   8.767   0.813  10.864  0.6456  1.0648  0.1567
   77MOL0     H10557   8.896   0.537  11.292 -1.4711  1.7124 -0.2258
   77MOL0     H10558   9.115   0.518  11.405 -0.1343 -0.8072 -0.0902
   77MOL0     H10559   9.475   0.700  11.176 -0.7799  0.6053  0.2962
   77MOL0     H10560   9.477   0.528  11.166  0.6549 -2.7756  1.5964
   77MOL0     H10561   9.679   0.590  11.285 -0.2332 -1.2837 -0.4301
   77MOL0     H10562   9.582   0.706  11.381 -0.6241  0.4777 -1.7809
   77MOL0     H10563   9.465   0.489  11.481 -0.6613 -2.2208 -2.8037
   77MOL0     H10564   9.605   0.403  11.410 -0.8995 -0.7554  1.4827
   77MOL0     H10565   9.755   0.511  11.532 -1.4713 -1.4528  0.5038
   77MOL0     H10566   9.632   0.628  11.607 -0.2758  0.5154  0.4317
   77MOL0     H10567   9.661   0.313  11.623  1.1982 -0.2987  1.0763
   77MOL0     H10568   9.534   0.392  11.695  0.8218  1.5026  2.1518
   77MOL0     H10569   9.829   0.413  11.773  0.6811 -1.5658  1.6134
   77MOL0     H10570   9.694   0.522  11.833  2.1157  0.1492  0.4513
   77MOL0     H10571   9.701   0.225  11.836 -0.3033 -0.4469  0.0755
   77MOL0     H10572   9.564   0.327  11.892 -0.3976 -2.3361  0.7747
   77MOL0     H10573   9.703   0.421  12.083 -2.2199 -2.8874  2.5996
   77MOL0     H10574   9.728   0.256  12.085 -1.5665 -1.0779 -1.0261
   77MOL0     H10575   9.969   0.163  11.927  3.8584 -0.5501 -0.0999
   77MOL0     H10576  10.275   0.331  11.842  0.4431  0.0611 -0.3849
   77MOL0     H10577  10.191   0.181  11.839 -1.4279 -0.1654  0.8187
   77MOL0     H10578  10.381   0.269  12.050 -0.8825  1.0493  0.0425
   77MOL0     H10579  10.245   0.152  12.088 -1.5005 -2.4706 -2.7096
   77MOL0     H10580  10.420  -0.004  12.047  2.7402  1.5432  0.0031
   77MOL0     H10581  10.338   0.002  11.900  1.7547 -0.8620 -1.8034
   77MOL0     H10582  10.574  -0.001  11.881  1.1131 -0.2505 -2.7692
   77MOL0     H10583  10.494   0.124  11.789  0.2021 -0.4148  0.8238
   77MOL0     H10584  10.749   0.023  11.821  0.2233 -0.1960  0.2809
   77MOL0     H10585  10.922  -0.083  11.736  2.8759 -1.2178 -0.9254
   77MOL0     H10586  11.081  -0.069  11.809 -1.7685 -3.6983  1.2721
   77MOL0     H10587  11.030   0.028  11.667 -1.0248 -2.7892 -0.9153
   77MOL0     H10588  11.389   0.256  12.254 -2.5013 -1.8318 -0.9861
   77MOL0     H10589  11.630   0.260  12.253  2.5575  1.3170 -1.4164
   77MOL0     H10590  11.820   0.301  12.231 -2.3987  0.2040 -1.4142
   77MOL0     H10591  11.837   0.125  12.191  1.1491 -0.0091  0.4374
   77MOL0     H10592  12.057   0.233  12.254  1.3104 -0.3994  0.0331
   77MOL0     H10593  12.050   0.172  12.085 -0.7878  1.5943 -1.8414
   77MOL0     H10594  11.975   0.403  12.009 -0.7673  1.8946  0.4539
   77MOL0     H10595  12.140   0.375  12.049  0.2339  1.2999  1.1485
   77MOL0     H10596  12.131   0.487  12.265  0.1396  0.9290  0.4037
   77MOL0     H10597  11.953   0.504  12.258  1.2351  0.5336  2.1588
   77MOL0     H10598  12.146   0.652  12.073  0.5477 -1.9068  0.1526
   77MOL0     H10599  11.966   0.627  12.071  0.5201 -1.7050  0.5256
   77MOL0     H10600  12.121   0.756  12.310  1.1664  2.6359 -0.6909
   77MOL0     H10601  11.947   0.730  12.296  3.3232  0.4557  3.4215
   77MOL0     H10602  11.957   0.964  12.226  0.3871 -0.9247  1.2538
   77MOL0     H10603  12.010   0.895  12.066  2.8632  0.0712 -0.5109
   77MOL0     H10604  12.235   0.890  12.177  0.3136  1.1925 -1.8859
   77MOL0     H10605  12.187   0.998  12.299  3.7511 -0.2260 -1.4456
   77MOL0     H10606  11.636   0.326  11.825  0.9103  0.3479  0.8812
   77MOL0     H10607  11.408   0.348  11.832 -2.2214 -0.2211  1.2569
   77MOL0     H10608  11.005   0.346  12.090 -0.9790 -0.2682  0.3439
   77MOL0     H10609  10.770   0.347  12.098 -1.4601 -0.9604  0.7265
   77MOL0     H10610   9.296   0.722  11.074 -2.7838  1.3862 -5.0168
   77MOL0     H10611   9.069   0.740  10.966  1.2600 -2.1411 -1.7382
   77MOL0     H10612   8.640   0.365  10.865  2.2248  1.1609  2.5820
   77MOL0     H10613   8.461   0.413  10.686 -0.6412  1.5544 -2.5195
   77MOL0     H10614   8.411   0.822  10.547  0.5401 -0.2207  0.7889
   77MOL0     H10615   8.441   0.713  10.421 -0.9424  3.0354 -1.0345
   77MOL0     H10616   8.203   0.679  10.401  1.3922 -0.3154 -0.0551
   77MOL0     H10617   8.218   0.861  10.441 -0.3968  1.5293  2.3783
   77MOL0     H10618   8.162   0.653  10.663 -3.3084 -1.6233  0.5800
   77MOL0     H10619   8.132   0.824  10.673 -1.4464  0.4321  0.4880
   77MOL0     H10620   7.993   0.818  10.483 -1.3970  1.3528  0.7723
   77MOL0     H10621   7.920   0.762  10.631 -0.1216 -1.5507  1.4530
   77MOL0     H10622   7.924   0.396  10.396  1.7516  0.6248 -0.2419
   77MOL0     H10623   8.586   0.821  10.682  2.1693  0.3202  2.5160
   77MOL0     H10624   8.738   0.834  10.967 -0.5556  1.9837 -0.3511
   77MOL0     H10625   8.871   0.782  10.851  0.0191 -0.7347 -0.9552
   77MOL0     H10626   8.757   0.904  10.804  0.5735  1.0700  0.1763
   78MOL0     O10627   3.337   9.352   4.557 -0.0055 -0.7544 -0.7136
   78MOL0     C10628   3.372   9.454   4.624  0.2254 -0.5372  0.7004
   78MOL0     O10629   3.502   9.492   4.647  0.5288  0.0208  0.3072
   78MOL0     C10630   3.596   9.430   4.566 -0.4652 -0.2077 -0.9147
   78MOL0     C10631   3.683   9.509   4.491 -0.2195  0.0670 -0.0666
   78MOL0     C10632   3.788   9.440   4.426  0.9210  0.1875 -0.9863
   78MOL0     C10633   3.820   9.307   4.444  0.0141  0.2271  0.6042
   78MOL0     O10634   3.937   9.264   4.389 -0.1602 -0.5916 -0.1212
   78MOL0     C10635   3.977   9.127   4.406 -0.6602  0.1888  0.0340
   78MOL0     C10636   4.130   9.124   4.394  0.6650  0.9524  0.3185
   78MOL0     C10637   4.210   9.192   4.500 -0.4349 -0.0918  1.0183
   78MOL0     C10638   4.358   9.175   4.472  0.6456 -0.8519  0.8830
   78MOL0     C10639   4.449   9.248   4.569 -1.1938  0.5842 -1.4149
   78MOL0     C10640   4.455   9.187   4.717  0.2906  0.5470  0.0285
   78MOL0     C10641   4.532   9.278   4.816 -0.0319 -0.8400 -0.3737
   78MOL0     C10642   4.540   9.219   4.957  0.0782 -0.3689 -0.1937
   78MOL0     N10643   4.582   9.079   4.966 -0.6757  0.5661  1.0210
   78MOL0     C10644   4.718   9.053   4.971  0.9834 -0.1681 -0.5919
   78MOL0     C10645   4.723   8.923   4.997  0.5241  0.2269 -0.7068
   78MOL0     C10646   4.848   8.840   5.017 -1.3133  0.1667 -0.4285
   78MOL0     C10647   4.953   8.894   5.123  0.2181  0.7277  1.0528
   78MOL0     C10648   5.082   8.802   5.132  1.0235  0.2124 -0.7236
   78MOL0     C10649   5.155   8.848   5.253  0.0115  0.2768 -0.4528
   78MOL0     O10650   5.177   8.990   5.251 -0.0973 -0.2762  0.4811
   78MOL0     C10651   5.291   9.049   5.300 -0.8713  0.8695 -0.3218
   78MOL0     C10652   5.389   8.970   5.374  0.9999 -0.0226 -0.1834
   78MOL0     C10653   5.502   9.024   5.424 -0.4813  0.3687  0.2888
   78MOL0     C10654   5.596   8.931   5.498  0.0905 -1.0904  0.5703
   78MOL0     C10655   5.522   9.162   5.409  0.4029 -0.1048  0.1209
   78MOL0     C10656   5.643   9.223   5.476  0.5276 -0.7506 -0.0146
   78MOL0     O10657   5.713   9.323   5.409 -0.3179  0.2306  0.2901
   78MOL0     C10658   5.835   9.369   5.455  0.1375 -0.2479 -0.2701
   78MOL0     C10659   5.875   9.491   5.420 -0.1473  0.0559  0.2855
   78MOL0     C10660   5.992   9.550   5.459  0.0407 -1.2782  0.4231
   78MOL0     C10661   6.080   9.474   5.541  0.2115 -0.3071 -0.3776
   78MOL0     O10662   6.201   9.515   5.589 -0.8071  0.7012 -0.6383
   78MOL0     C10663   6.252   9.646   5.596 -0.7987 -0.1802  0.7852
   78MOL0     C10664   6.373   9.633   5.692 -0.3146  0.4394  0.5862
   78MOL0     C10665   6.435   9.760   5.746 -0.2316  0.1703 -0.0030
   78MOL0     C10666   6.483   9.849   5.634  0.1027  0.3964  0.1410
   78MOL0     C10667   6.561   9.973   5.683 -0.0311 -0.5002 -0.4025
   78MOL0     C10668   6.631  10.052   5.568  0.5325 -0.9936 -0.0467
   78MOL0     C10669   6.716  10.163   5.623 -0.0626  0.0589 -0.1799
   78MOL0     C10670   6.802  10.221   5.518 -0.0621 -0.2555  0.6256
   78MOL0    Cl10671   6.942  10.116   5.475 -0.1910  0.0511 -0.2111
   78MOL0     C10672   6.046   9.339   5.577  0.1131  0.4742  0.4134
   78MOL0     C10673   5.924   9.289   5.529  0.5071  0.2986  0.0936
   78MOL0     O10674   5.662   9.192   5.593  0.4653 -0.0066  0.5027
   78MOL0     C10675   5.435   9.237   5.339 -0.1712  0.6788 -0.8144
   78MOL0     C10676   5.320   9.177   5.282 -0.7281 -0.9416  0.1170
   78MOL0     N10677   4.597   8.875   5.020  1.2623 -0.2216 -0.2283
   78MOL0     N10678   4.515   8.970   4.999  0.8895 -0.3457  0.1304
   78MOL0     C10679   3.728   9.229   4.510  0.3260 -0.1316  0.1606
   78MOL0     C10680   3.616   9.294   4.572 -0.5254  0.4005  0.0981
   78MOL0     C10681   3.265   9.519   4.704  0.6458 -0.2364 -0.8315
   78MOL0     C10682   3.128   9.502   4.668 -0.0562  0.4740 -1.1755
   78MOL0     C10683   3.025   9.562   4.744 -0.2547 -0.4984  0.7703
   78MOL0     C10684   3.048   9.664   4.839 -0.6162  0.3685 -0.2940
   78MOL0     O10685   2.952   9.726   4.910 -0.3959  0.2819 -0.3809
   78MOL0     C10686   2.813   9.720   4.862 -0.3443 -0.3356  0.3241
   78MOL0     C10687   2.706   9.777   4.960 -0.1190 -0.6379 -1.0423
   78MOL0     C10688   2.567   9.806   4.899 -0.1141  0.1693  0.3762
   78MOL0     C10689   2.442   9.807   4.980 -0.1982  0.2434  0.2323
   78MOL0     C10690   2.423   9.679   5.061  0.2382 -0.5845 -0.3411
   78MOL0     C10691   2.394   9.587   5.126 -0.4003  0.6487 -0.7686
   78MOL0     C10692   3.181   9.686   4.876 -0.1681  0.4378 -0.6527
   78MOL0     C10693   3.293   9.617   4.811 -0.1290 -0.9826  0.1126
   78MOL0     C10694   3.431   9.649   4.864 -0.1683  0.0076  0.5168
   78MOL0     H10695   3.678   9.617   4.495 -0.7452  0.0052  1.3282
   78MOL0     H10696   3.863   9.502   4.378 -0.8940  0.5799 -3.4760
   78MOL0     H10697   3.946   9.054   4.331  0.4031 -0.0946 -0.1502
   78MOL0     H10698   3.944   9.099   4.506 -0.1988  0.9531  0.4140
   78MOL0     H10699   4.158   9.020   4.411 -0.7291  0.3366 -0.8450
   78MOL0     H10700   4.162   9.157   4.295  0.8318 -0.6134 -0.1806
   78MOL0     H10701   4.182   9.297   4.492  0.6047  0.1343  0.1047
   78MOL0     H10702   4.190   9.166   4.605 -1.4129  1.3481  1.2045
   78MOL0     H10703   4.379   9.068   4.473  0.6729 -0.8684 -0.0238
   78MOL0     H10704   4.380   9.221   4.375  0.8846 -3.3558 -0.3150
   78MOL0     H10705   4.414   9.351   4.583 -2.1205  0.1889 -0.6022
   78MOL0     H10706   4.554   9.246   4.539 -0.5328  1.0514  0.6465
   78MOL0     H10707   4.354   9.174   4.757  0.7424 -0.3975  0.9122
   78MOL0     H10708   4.493   9.085   4.706  1.2507  0.9049 -0.0613
   78MOL0     H10709   4.485   9.376   4.827  2.9876  0.7719 -0.8068
   78MOL0     H10710   4.634   9.301   4.785  0.1348  0.4354  1.0288
   78MOL0     H10711   4.610   9.282   5.013 -1.2284  1.2926 -0.3444
   78MOL0     H10712   4.448   9.223   5.016 -0.9636  0.3283 -1.8014
   78MOL0     H10713   4.786   9.132   4.941 -0.4565  0.5846 -2.0165
   78MOL0     H10714   4.901   8.838   4.921  0.5924  1.3966  0.5382
   78MOL0     H10715   4.809   8.740   5.036  1.5171 -0.6757  1.6111
   78MOL0     H10716   4.981   8.994   5.089  0.9953  0.0584 -0.3988
   78MOL0     H10717   4.906   8.898   5.221 -0.6298  0.5512  0.6638
   78MOL0     H10718   5.048   8.698   5.144  0.9262  0.4532  1.6210
   78MOL0     H10719   5.149   8.828   5.050  1.3731 -0.1444 -0.5556
   78MOL0     H10720   5.119   8.807   5.348  1.2278 -2.6554 -1.1552
   78MOL0     H10721   5.251   8.796   5.247 -0.2285 -0.4535  1.2574
   78MOL0     H10722   5.366   8.866   5.399 -2.3747  1.1742  2.4752
   78MOL0     H10723   5.697   8.936   5.457 -0.6982 -3.0768 -1.8849
   78MOL0     H10724   5.560   8.828   5.486  0.0089 -1.0526  0.5005
   78MOL0     H10725   5.589   8.948   5.606 -1.2650 -3.8109  1.0041
   78MOL0     H10726   5.815   9.554   5.355  1.3290 -0.3579 -1.5407
   78MOL0     H10727   6.025   9.649   5.429 -1.8355 -0.8325 -0.2862
   78MOL0     H10728   6.288   9.679   5.498 -0.8961  0.8091  1.0748
   78MOL0     H10729   6.184   9.720   5.637 -1.1599 -1.5356  2.8001
   78MOL0     H10730   6.350   9.566   5.776  2.6437 -1.3245  0.1207
   78MOL0     H10731   6.452   9.577   5.642  0.0884 -1.2547  2.9772
   78MOL0     H10732   6.516   9.736   5.815 -2.0580 -2.0264  1.5478
   78MOL0     H10733   6.359   9.807   5.809  1.4122 -0.6505  2.7268
   78MOL0     H10734   6.397   9.874   5.571  1.1750 -0.6913 -1.8636
   78MOL0     H10735   6.549   9.789   5.572 -1.3669  0.5945 -1.7045
   78MOL0     H10736   6.490  10.043   5.728  0.8731  0.2314 -0.0688
   78MOL0     H10737   6.641   9.944   5.751  0.9575  1.2915 -0.7122
   78MOL0     H10738   6.555  10.093   5.502  0.2049 -3.9921 -1.7157
   78MOL0     H10739   6.692   9.979   5.513 -0.8907 -2.3416  0.0745
   78MOL0     H10740   6.769  10.128   5.712  0.3954 -1.4915 -1.0248
   78MOL0     H10741   6.655  10.246   5.658  2.2326  1.1501  1.5150
   78MOL0     H10742   6.850  10.310   5.559 -0.5796  1.0468 -1.4280
   78MOL0     H10743   6.745  10.252   5.430  0.8319 -1.0189 -0.2426
   78MOL0     H10744   6.106   9.282   5.647 -1.2855 -2.2177 -0.4468
   78MOL0     H10745   5.901   9.186   5.554  0.5126 -0.0389 -1.2352
   78MOL0     H10746   5.444   9.345   5.336 -4.8291  1.2621 -2.7433
   78MOL0     H10747   5.245   9.237   5.231 -0.4279  0.8312  1.6761
   78MOL0     H10748   3.738   9.122   4.521  3.3210 -0.2011 -2.0285
   78MOL0     H10749   3.545   9.237   4.632  0.0438 -1.2182 -0.6889
   78MOL0     H10750   3.090   9.437   4.590 -1.6842  2.0610 -1.7777
   78MOL0     H10751   2.923   9.529   4.732 -0.8990  1.9809 -1.7625
   78MOL0     H10752   2.803   9.763   4.762  0.8592  1.6824  0.9986
   78MOL0     H10753   2.786   9.614   4.863  1.3083 -0.8157 -0.6365
   78MOL0     H10754   2.739   9.875   4.995  1.8206 -1.7059  0.2976
   78MOL0     H10755   2.699   9.711   5.047  3.0636  0.3045  0.0512
   78MOL0     H10756   2.576   9.901   4.845 -1.8638  0.6513  0.8560
   78MOL0     H10757   2.561   9.737   4.814  1.2544  2.5665 -1.8133
   78MOL0     H10758   2.352   9.815   4.919  0.0902  4.2368  0.0709
   78MOL0     H10759   2.432   9.901   5.035  0.2226  1.3713 -1.5397
   78MOL0     H10760   2.373   9.506   5.192  0.4554 -0.3726 -1.7113
   78MOL0     H10761   3.203   9.760   4.953  0.3111 -0.3883  0.0195
   78MOL0     H10762   3.487   9.560   4.894 -0.7497 -0.4112  0.3882
   78MOL0     H10763   3.490   9.704   4.792 -1.0411 -0.5887 -0.6921
   78MOL0     H10764   3.423   9.710   4.955  0.0428 -0.2001  0.6761
   79MOL0     O10765   4.719   7.071  11.080 -0.2556 -0.1494  0.5680
   79MOL0     C10766   4.675   6.995  10.991  0.4133  0.0095 -0.6273
   79MOL0     O10767   4.542   6.959  10.989  0.4035  0.4139 -0.4585
   79MOL0     C10768   4.455   7.047  11.050  0.3446  0.0393  0.0018
   79MOL0     C10769   4.403   7.018  11.178 -0.7503 -0.6756 -0.0911
   79MOL0     C10770   4.299   7.096  11.233 -0.8884 -0.2911  0.6853
   79MOL0     C10771   4.261   7.217  11.174 -0.0530  0.1548  0.6848
   79MOL0     O10772   4.153   7.289  11.231 -0.0356  0.3328 -0.7125
   79MOL0     C10773   4.146   7.311  11.373  0.3477  0.0314 -0.1863
   79MOL0     C10774   4.268   7.339  11.459 -0.0659  0.0539 -0.7808
   79MOL0     C10775   4.292   7.494  11.441  0.5871 -0.7365 -0.6312
   79MOL0     C10776   4.420   7.524  11.518  0.0426 -0.2367  0.5266
   79MOL0     C10777   4.460   7.674  11.527  0.1189 -0.4976 -0.2668
   79MOL0     C10778   4.550   7.703  11.643  0.3059  0.1028 -0.2812
   79MOL0     C10779   4.682   7.619  11.667 -1.1027 -0.0287 -0.4465
   79MOL0     C10780   4.773   7.606  11.542  1.1280 -0.0930 -0.7522
   79MOL0     N10781   4.833   7.730  11.499 -0.5954 -0.0406  0.2629
   79MOL0     C10782   4.829   7.780  11.373 -0.1816 -0.0642  0.1881
   79MOL0     C10783   4.897   7.896  11.389  0.6597  0.6048 -0.5369
   79MOL0     C10784   4.919   7.981  11.263  0.4327 -0.8161  0.3217
   79MOL0     C10785   5.052   7.957  11.191  0.2876  0.5290  0.1891
   79MOL0     C10786   5.045   8.034  11.057 -0.0659 -0.6056 -1.0113
   79MOL0     C10787   5.179   8.057  10.990 -0.3401  0.8371 -0.0775
   79MOL0     O10788   5.224   7.931  10.927  0.0770  0.5657 -0.2469
   79MOL0     C10789   5.338   7.936  10.854 -0.0141 -0.8645  0.0257
   79MOL0     C10790   5.345   7.851  10.743 -0.1604 -0.5684  0.4905
   79MOL0     C10791   5.470   7.853  10.666 -0.3760  0.2758 -0.1299
   79MOL0     C10792   5.462   7.786  10.531  0.8460  0.0367 -0.1560
   79MOL0     C10793   5.580   7.929  10.711 -0.4728  0.0390  0.1117
   79MOL0     C10794   5.712   7.925  10.635 -0.2856 -0.4907  0.0706
   79MOL0     O10795   5.789   8.033  10.636 -0.6327 -0.4998  0.6840
   79MOL0     C10796   5.919   8.028  10.588  0.0268 -0.8514  0.5526
   79MOL0     C10797   6.012   7.928  10.628 -0.1317 -0.7009 -0.2874
   79MOL0     C10798   6.146   7.932  10.583  0.6090  0.0822 -0.1866
   79MOL0     C10799   6.185   8.040  10.500 -1.0476 -0.5220 -0.3997
   79MOL0     O10800   6.320   8.043  10.470  0.2266 -0.1374 -0.3333
   79MOL0     C10801   6.379   8.122  10.363 -0.2201 -0.3665  0.3654
   79MOL0     C10802   6.346   8.074  10.220  0.6344 -0.0796 -0.8851
   79MOL0     C10803   6.387   8.183  10.122  0.1636 -0.1827 -0.9538
   79MOL0     C10804   6.293   8.183   9.998  0.3155 -0.8996  0.1791
   79MOL0     C10805   6.351   8.305   9.914  0.3067 -0.5087 -0.4857
   79MOL0     C10806   6.478   8.276   9.832  0.1221  0.5730 -0.7866
   79MOL0     C10807   6.533   8.405   9.769  0.4737  0.4852 -0.9006
   79MOL0     C10808   6.468   8.413   9.629  0.0111  0.5586  0.1474
   79MOL0    Cl10809   6.309   8.512   9.639 -0.1419  0.4685 -0.3501
   79MOL0     C10810   6.093   8.138  10.456  0.6713 -0.2813  0.0189
   79MOL0     C10811   5.960   8.132  10.501  0.6789  0.2660  0.1554
   79MOL0     O10812   5.748   7.817  10.594  1.1699  0.0944  0.0763
   79MOL0     C10813   5.571   8.006  10.827 -0.4041  0.1582  0.3823
   79MOL0     C10814   5.450   8.011  10.890  0.1953 -0.8056 -0.7748
   79MOL0     N10815   4.948   7.917  11.513 -0.1303 -0.6159  0.6555
   79MOL0     N10816   4.906   7.807  11.577  0.1421 -0.4805  0.9436
   79MOL0     C10817   4.307   7.242  11.042  0.0980  0.4119 -0.3500
   79MOL0     C10818   4.406   7.157  10.982  0.8562  0.3431  0.7928
   79MOL0     C10819   4.764   6.917  10.900 -1.2133  0.2608 -0.5384
   79MOL0     C10820   4.720   6.799  10.850  0.6439 -0.2588  1.1523
   79MOL0     C10821   4.806   6.732  10.761 -0.5894  0.3693  1.0253
   79MOL0     C10822   4.929   6.778  10.722  0.0953 -0.2579 -0.3709
   79MOL0     O10823   4.995   6.706  10.628 -0.5480 -0.0120 -0.2336
   79MOL0     C10824   5.133   6.735  10.589 -0.5833 -0.5755 -0.8120
   79MOL0     C10825   5.182   6.628  10.507 -1.6233  0.6899 -0.4568
   79MOL0     C10826   5.292   6.681  10.421 -0.2492  0.5913  0.4077
   79MOL0     C10827   5.331   6.580  10.308  0.1140 -0.1558 -0.2942
   79MOL0     C10828   5.464   6.604  10.255  0.5291 -0.8195  0.8957
   79MOL0     C10829   5.566   6.621  10.185  0.6900  0.3610  0.2048
   79MOL0     C10830   4.977   6.897  10.780 -0.2133  0.1234 -0.2339
   79MOL0     C10831   4.894   6.973  10.860  0.3076 -0.1401 -1.0366
   79MOL0     C10832   4.930   7.129  10.879 -0.1745 -0.3677 -0.2892
   79MOL0     H10833   4.423   6.927  11.233  0.4179 -1.9150 -2.4009
   79MOL0     H10834   4.254   7.070  11.328 -1.9146 -1.8233 -0.1842
   79MOL0     H10835   4.122   7.208  11.402 -0.2612  0.3724  0.5391
   79MOL0     H10836   4.067   7.384  11.390  0.5660 -0.2163  2.2351
   79MOL0     H10837   4.243   7.317  11.563 -1.6595 -1.8862 -1.5038
   79MOL0     H10838   4.357   7.282  11.431  0.4955 -1.5708  3.4782
   79MOL0     H10839   4.315   7.522  11.338  1.8566 -1.4015 -0.5438
   79MOL0     H10840   4.210   7.554  11.481 -1.0449 -2.3076 -1.4760
   79MOL0     H10841   4.416   7.485  11.620 -2.5171 -0.2960  0.4581
   79MOL0     H10842   4.502   7.467  11.473 -0.9446 -1.2317 -0.0582
   79MOL0     H10843   4.373   7.736  11.549 -0.0249 -1.4987  2.2668
   79MOL0     H10844   4.505   7.700  11.430  0.0691  0.4876 -0.0347
   79MOL0     H10845   4.579   7.808  11.643  1.9147 -0.1795  3.2705
   79MOL0     H10846   4.488   7.695  11.732  2.0785  0.9041  1.0976
   79MOL0     H10847   4.657   7.518  11.699 -2.4860  0.3130 -0.4039
   79MOL0     H10848   4.746   7.651  11.750 -2.2767  2.2105 -0.3167
   79MOL0     H10849   4.847   7.529  11.564  2.6271  1.6505  0.6376
   79MOL0     H10850   4.697   7.568  11.473 -2.0127  0.4743  2.1154
   79MOL0     H10851   4.780   7.740  11.285 -3.6850 -0.2676  2.0483
   79MOL0     H10852   4.905   8.086  11.292  0.8445 -0.3869 -0.9390
   79MOL0     H10853   4.855   7.949  11.180  2.2306 -0.5582 -1.2495
   79MOL0     H10854   5.133   7.994  11.254  0.5188 -0.2412  0.3530
   79MOL0     H10855   5.067   7.849  11.178  0.4699  0.7286 -1.4707
   79MOL0     H10856   4.978   7.996  10.979  0.5612  1.2799 -2.5519
   79MOL0     H10857   5.007   8.133  11.085 -0.2296 -0.6937 -0.9151
   79MOL0     H10858   5.171   8.135  10.914  0.4232 -2.0877 -3.4327
   79MOL0     H10859   5.247   8.107  11.060  1.3678  0.2508 -1.2375
   79MOL0     H10860   5.254   7.804  10.707  0.6001  0.1796 -2.7224
   79MOL0     H10861   5.487   7.679  10.536  0.6617 -0.1362 -2.2398
   79MOL0     H10862   5.530   7.826  10.455  1.2616 -3.3603 -1.7572
   79MOL0     H10863   5.362   7.797  10.489  0.0713  1.4645  1.9217
   79MOL0     H10864   5.982   7.861  10.709  1.8869  1.3969  2.4003
   79MOL0     H10865   6.217   7.861  10.625  2.0338  1.6093  0.1165
   79MOL0     H10866   6.337   8.223  10.365 -2.6783 -1.3232  0.5699
   79MOL0     H10867   6.487   8.118  10.380 -0.2263 -1.5632  0.2079
   79MOL0     H10868   6.398   7.982  10.193  1.5038 -0.4337  1.6867
   79MOL0     H10869   6.239   8.052  10.223  0.3626  1.0738 -1.3976
   79MOL0     H10870   6.490   8.165  10.091  0.3852  1.5654 -1.3041
   79MOL0     H10871   6.393   8.279  10.174 -0.1845 -1.2787  1.2595
   79MOL0     H10872   6.191   8.189  10.035 -0.2069 -2.8768 -0.7929
   79MOL0     H10873   6.298   8.097   9.930  4.1861  0.0527 -1.0400
   79MOL0     H10874   6.266   8.331   9.851  1.7348  3.6610 -0.9806
   79MOL0     H10875   6.364   8.387   9.986  3.0160 -2.0280  0.9328
   79MOL0     H10876   6.444   8.198   9.763 -0.7348 -0.4106  0.6656
   79MOL0     H10877   6.555   8.226   9.891 -1.5143  0.2513  1.2046
   79MOL0     H10878   6.639   8.387   9.749  0.3418 -2.6461  0.5232
   79MOL0     H10879   6.512   8.495   9.828 -1.7002 -1.6892  1.9816
   79MOL0     H10880   6.456   8.316   9.580  1.6983  1.0855 -1.4514
   79MOL0     H10881   6.542   8.464   9.566 -1.3420  2.0643 -0.3012
   79MOL0     H10882   6.123   8.221  10.394  2.1002 -0.1938  0.7975
   79MOL0     H10883   5.881   8.197  10.465  1.0976 -0.3382 -1.9824
   79MOL0     H10884   5.654   8.071  10.851 -1.2049  1.4003 -0.0911
   79MOL0     H10885   5.432   8.072  10.978 -0.5001 -1.0392 -0.7464
   79MOL0     H10886   4.283   7.337  10.995  1.7150  2.7416  3.1334
   79MOL0     H10887   4.446   7.185  10.884 -0.6305  0.4811  0.2086
   79MOL0     H10888   4.624   6.756  10.876  0.2864 -0.0961  0.1520
   79MOL0     H10889   4.765   6.640  10.722  2.3285 -0.1320 -1.2274
   79MOL0     H10890   5.120   6.826  10.529 -1.6157  0.3991  0.8227
   79MOL0     H10891   5.200   6.756  10.673 -1.1508  3.0635 -1.0748
   79MOL0     H10892   5.103   6.590  10.442 -0.5627 -1.3649 -0.6526
   79MOL0     H10893   5.221   6.538  10.556 -0.4853  0.3061 -1.9574
   79MOL0     H10894   5.271   6.778  10.375 -1.1766  0.7671  1.1785
   79MOL0     H10895   5.383   6.697  10.480  0.4078 -0.9790 -0.1464
   79MOL0     H10896   5.261   6.579  10.224 -0.3151  0.9581  0.0372
   79MOL0     H10897   5.323   6.481  10.355 -1.1057  0.0937  0.0670
   79MOL0     H10898   5.657   6.630  10.129  0.8746  2.5409  0.7518
   79MOL0     H10899   5.074   6.941  10.760  0.0885  2.4223  4.7971
   79MOL0     H10900   4.863   7.195  10.823  0.4898  1.8780  1.3996
   79MOL0     H10901   4.942   7.148  10.987 -0.5763 -1.0784 -0.1136
   79MOL0     H10902   5.026   7.152  10.832 -1.8290  1.8741 -2.8922
   80MOL0     O10903   9.594   2.165   7.380 -0.0207  0.1508  0.0186
   80MOL0     C10904   9.609   2.270   7.439  0.4289 -1.3501  0.8059
   80MOL0     O10905   9.683   2.297   7.549 -0.5309 -0.7794  0.3576
   80MOL0     C10906   9.785   2.205   7.577  0.0588  0.2671  0.9585
   80MOL0     C10907   9.862   2.129   7.491  0.3451  0.2117  0.2275
   80MOL0     C10908   9.953   2.043   7.542  0.2348  0.7323  0.1064
   80MOL0     C10909   9.982   2.025   7.675 -0.6843  0.8116  0.5334
   80MOL0     O10910  10.069   1.938   7.737 -1.2384  1.1089  0.3897
   80MOL0     C10911  10.145   1.848   7.661 -0.7600 -0.2397  0.0213
   80MOL0     C10912  10.255   1.782   7.743 -0.0835 -0.3775  0.1829
   80MOL0     C10913  10.391   1.852   7.726  0.1080  0.1335  0.3274
   80MOL0     C10914  10.474   1.856   7.853 -0.2853  0.2325  0.5246
   80MOL0     C10915  10.522   1.718   7.907  0.6056  0.1341  0.3997
   80MOL0     C10916  10.662   1.699   7.965  0.1332 -0.0777 -0.0225
   80MOL0     C10917  10.688   1.583   8.068  0.1871  0.2853  0.4399
   80MOL0     C10918  10.690   1.620   8.219  0.1084  0.1948  0.3364
   80MOL0     N10919  10.551   1.631   8.264 -0.5125 -0.6377  0.4402
   80MOL0     C10920  10.472   1.737   8.240 -0.4814 -0.7042 -0.0009
   80MOL0     C10921  10.367   1.733   8.323  1.0417  0.2982  0.0934
   80MOL0     C10922  10.271   1.829   8.359 -0.2232  0.3550 -0.1046
   80MOL0     C10923  10.162   1.783   8.456 -0.2684 -0.0687  0.7983
   80MOL0     C10924  10.061   1.900   8.482 -0.2230 -0.7240  0.0552
   80MOL0     C10925   9.966   1.874   8.595  0.2571 -0.2746  0.5067
   80MOL0     O10926   9.872   1.770   8.575  0.2619  0.5765 -0.5438
   80MOL0     C10927   9.751   1.794   8.512 -0.2617 -0.5278 -0.5624
   80MOL0     C10928   9.723   1.914   8.445  0.1844 -0.2663 -0.5480
   80MOL0     C10929   9.592   1.929   8.391  0.1581  0.6591  0.0573
   80MOL0     C10930   9.576   2.055   8.312 -0.2441  0.6988 -0.8995
   80MOL0     C10931   9.492   1.824   8.401 -0.2183 -0.0011 -0.3123
   80MOL0     C10932   9.346   1.850   8.381 -0.2230 -0.3119  0.4805
   80MOL0     O10933   9.312   1.977   8.355 -0.3844  0.5322 -0.3391
   80MOL0     C10934   9.183   2.013   8.334  0.5949  0.1202 -0.7023
   80MOL0     C10935   9.157   2.150   8.358  1.1565  0.3456 -0.1003
   80MOL0     C10936   9.033   2.202   8.326  0.3904  0.5087  0.3702
   80MOL0     C10937   8.925   2.111   8.297 -0.5481 -0.3739  0.0899
   80MOL0     O10938   8.798   2.151   8.272 -0.5709  0.6122 -0.2017
   80MOL0     C10939   8.767   2.287   8.246  0.0419 -0.7947  0.4197
   80MOL0     C10940   8.633   2.307   8.187  0.2254  0.5192  0.5223
   80MOL0     C10941   8.614   2.244   8.052  0.3209  0.0565 -0.1692
   80MOL0     C10942   8.474   2.210   8.020 -0.1421 -0.1531  0.4947
   80MOL0     C10943   8.454   2.169   7.878 -0.1733  0.3821  0.4647
   80MOL0     C10944   8.302   2.170   7.826 -0.7228  0.3301  0.2586
   80MOL0     C10945   8.294   2.074   7.701  0.0330  0.2047 -0.4269
   80MOL0     C10946   8.162   2.097   7.637  0.5681 -0.0483  0.2846
   80MOL0    Cl10947   8.158   2.261   7.582  0.0300  0.0354 -0.5890
   80MOL0     C10948   8.943   1.971   8.283  0.3837  0.8785  0.7898
   80MOL0     C10949   9.078   1.931   8.287  0.3953 -0.1302  0.0068
   80MOL0     O10950   9.270   1.761   8.409  0.2673  0.4517  1.0108
   80MOL0     C10951   9.534   1.700   8.450  0.2867  0.1767 -0.4511
   80MOL0     C10952   9.659   1.694   8.509 -0.4734  0.6869 -0.6682
   80MOL0     N10953  10.380   1.616   8.390  0.7649  0.3189 -0.7489
   80MOL0     N10954  10.491   1.555   8.357  0.6177 -0.1757  0.4511
   80MOL0     C10955   9.904   2.100   7.764  0.0108 -0.5402 -0.1952
   80MOL0     C10956   9.821   2.200   7.713 -0.1882  0.3476  0.3444
   80MOL0     C10957   9.546   2.386   7.377 -0.0671 -0.1657  0.0569
   80MOL0     C10958   9.607   2.508   7.381 -0.6374  0.1101 -0.7481
   80MOL0     C10959   9.546   2.632   7.355 -0.2626 -0.6622 -0.9114
   80MOL0     C10960   9.416   2.630   7.308  0.5811 -0.0919 -0.2199
   80MOL0     O10961   9.364   2.753   7.269  0.0156  0.1019 -0.2116
   80MOL0     C10962   9.281   2.753   7.155 -0.6255  0.0592  0.2465
   80MOL0     C10963   9.250   2.896   7.122 -0.6176 -0.0515 -0.0809
   80MOL0     C10964   9.152   2.912   7.004 -0.4920  0.6447  0.0112
   80MOL0     C10965   9.008   2.886   7.031  0.5110  0.0622 -0.6042
   80MOL0     C10966   8.933   2.893   6.904  0.4725  0.5990  0.0649
   80MOL0     C10967   8.879   2.903   6.797  0.3130 -0.5368  0.1104
   80MOL0     C10968   9.345   2.504   7.301  0.4910  0.5827  0.0438
   80MOL0     C10969   9.407   2.388   7.339 -0.1146 -0.3013 -0.9239
   80MOL0     C10970   9.321   2.256   7.340 -0.1346  0.5284 -0.2910
   80MOL0     H10971   9.856   2.138   7.383  2.9261 -0.1325  0.0065
   80MOL0     H10972   9.990   1.968   7.473  0.2205  1.5694 -0.8458
   80MOL0     H10973  10.184   1.891   7.568 -0.3310 -0.6927 -0.0155
   80MOL0     H10974  10.080   1.768   7.622  0.4809 -0.6270 -1.3461
   80MOL0     H10975  10.230   1.782   7.849  0.6550  0.9465  0.3747
   80MOL0     H10976  10.272   1.678   7.712 -2.3513 -0.7526  0.0704
   80MOL0     H10977  10.435   1.796   7.643 -0.6727 -4.5917  2.7732
   80MOL0     H10978  10.383   1.960   7.708  0.0238  0.3845  1.7326
   80MOL0     H10979  10.561   1.917   7.828  0.6991 -1.1241  0.5322
   80MOL0     H10980  10.417   1.897   7.936 -0.4127  1.9083 -0.3497
   80MOL0     H10981  10.514   1.637   7.834  0.8705  0.2418  0.2524
   80MOL0     H10982  10.445   1.693   7.981 -1.8524  0.2405 -1.9452
   80MOL0     H10983  10.733   1.681   7.884  1.1497  0.6680  0.6919
   80MOL0     H10984  10.680   1.797   8.008 -1.3907  0.2803 -0.1549
   80MOL0     H10985  10.789   1.545   8.052 -0.2484 -1.7341  2.0115
   80MOL0     H10986  10.623   1.496   8.058  2.7247 -1.7888  0.8098
   80MOL0     H10987  10.726   1.527   8.263 -0.5611  0.7984  2.2328
   80MOL0     H10988  10.758   1.699   8.250  2.0637 -0.9409 -0.7851
   80MOL0     H10989  10.497   1.827   8.183 -3.4996  0.8576  0.9387
   80MOL0     H10990  10.235   1.888   8.274 -1.3657  0.7820  0.6597
   80MOL0     H10991  10.324   1.906   8.416 -2.1103  0.1510  2.0550
   80MOL0     H10992  10.110   1.694   8.420 -2.2839  0.3737  2.4632
   80MOL0     H10993  10.205   1.751   8.551 -0.5441 -2.4750  0.1677
   80MOL0     H10994  10.121   1.985   8.516 -0.9428 -0.4361  0.6282
   80MOL0     H10995  10.009   1.932   8.392 -1.6097  0.6368  1.2793
   80MOL0     H10996  10.025   1.849   8.684  0.1024 -0.0596  0.6703
   80MOL0     H10997   9.911   1.966   8.618  1.7799  0.9098 -0.4223
   80MOL0     H10998   9.794   1.994   8.428  0.0287 -0.0979 -0.4137
   80MOL0     H10999   9.670   2.094   8.273  0.8547 -0.4528  0.4871
   80MOL0     H11000   9.534   2.117   8.393  0.4700 -0.2627  0.2446
   80MOL0     H11001   9.494   2.055   8.240 -0.4985  0.2876 -0.6146
   80MOL0     H11002   9.233   2.222   8.387  2.1131 -0.8445  0.4404
   80MOL0     H11003   9.019   2.309   8.315 -0.0659  0.3036 -1.2924
   80MOL0     H11004   8.777   2.338   8.342  1.3589 -1.2919  0.5667
   80MOL0     H11005   8.829   2.339   8.172 -0.5460 -1.8439 -0.8706
   80MOL0     H11006   8.571   2.258   8.263 -1.9173 -0.0007 -1.4554
   80MOL0     H11007   8.613   2.415   8.189  0.5622  0.6409 -1.2080
   80MOL0     H11008   8.672   2.153   8.034 -1.5351 -0.9619 -1.2776
   80MOL0     H11009   8.663   2.314   7.984  0.2041 -0.0877 -0.4008
   80MOL0     H11010   8.419   2.303   8.038 -2.3576 -0.7309 -2.5025
   80MOL0     H11011   8.449   2.128   8.088  1.4665 -1.2349 -0.1682
   80MOL0     H11012   8.518   2.229   7.811  1.4884 -1.3241  0.4273
   80MOL0     H11013   8.500   2.070   7.868  0.3337  0.6053  0.5455
   80MOL0     H11014   8.296   2.273   7.790  2.0494 -0.0906 -1.7606
   80MOL0     H11015   8.224   2.144   7.899 -0.7902  0.6027  0.2872
   80MOL0     H11016   8.299   1.969   7.733 -0.0701  0.3595  0.1124
   80MOL0     H11017   8.373   2.095   7.629 -0.6364  2.8346 -0.4985
   80MOL0     H11018   8.080   2.085   7.709  0.8299  2.4359  1.1014
   80MOL0     H11019   8.155   2.017   7.563  0.5460  0.9024 -0.7604
   80MOL0     H11020   8.866   1.907   8.242  1.3835  0.2518 -0.1465
   80MOL0     H11021   9.105   1.828   8.262  0.1885 -0.2620  0.3166
   80MOL0     H11022   9.460   1.621   8.457 -1.3915  1.4551 -2.4405
   80MOL0     H11023   9.681   1.597   8.553 -0.8975  1.2086  0.7623
   80MOL0     H11024   9.935   2.097   7.868  0.3396  0.2987 -0.2612
   80MOL0     H11025   9.763   2.267   7.775 -1.3175  0.2574 -0.6051
   80MOL0     H11026   9.712   2.506   7.405 -0.7635 -3.2583  0.0447
   80MOL0     H11027   9.605   2.724   7.356  0.4613 -1.1217 -0.9424
   80MOL0     H11028   9.328   2.703   7.070 -1.7939 -0.3544 -0.1904
   80MOL0     H11029   9.189   2.696   7.176  0.1257 -0.7670  1.4171
   80MOL0     H11030   9.346   2.942   7.096 -0.2446 -0.4121  0.6265
   80MOL0     H11031   9.205   2.943   7.209 -2.3859 -1.1964 -0.3155
   80MOL0     H11032   9.158   3.018   6.976 -1.9535  0.4777 -1.1139
   80MOL0     H11033   9.194   2.863   6.916 -0.3081  2.1819 -0.7995
   80MOL0     H11034   8.976   2.968   7.096  1.2043  1.6433 -2.1673
   80MOL0     H11035   8.988   2.792   7.082 -2.7903  1.6208  1.2883
   80MOL0     H11036   8.833   2.906   6.700 -0.0934 -1.5746  0.2559
   80MOL0     H11037   9.242   2.499   7.269 -0.0528  1.9932  1.4697
   80MOL0     H11038   9.345   2.197   7.429  0.4420 -0.3582 -1.0004
   80MOL0     H11039   9.212   2.263   7.347 -0.1763 -1.2159  1.9198
   80MOL0     H11040   9.346   2.186   7.259 -2.4542  0.4156 -0.9967
   81MOL0     O11041   7.774   8.784   1.029 -0.0712 -0.2525 -0.7034
   81MOL0     C11042   7.712   8.822   0.930  0.1564  1.0601 -0.2156
   81MOL0     O11043   7.752   8.793   0.803 -0.3011  0.2442  0.9471
   81MOL0     C11044   7.850   8.696   0.787  0.0575 -0.6411  0.6078
   81MOL0     C11045   7.985   8.736   0.800 -0.8355  0.2285 -0.0027
   81MOL0     C11046   8.087   8.638   0.801  0.7306  0.8338 -0.1230
   81MOL0     C11047   8.057   8.501   0.790  1.5443  0.4203 -0.1958
   81MOL0     O11048   8.162   8.412   0.789 -0.1733  0.5100  0.1616
   81MOL0     C11049   8.129   8.275   0.816  0.4703 -0.1717 -0.4072
   81MOL0     C11050   8.252   8.190   0.831  0.3234 -0.9993 -0.0777
   81MOL0     C11051   8.339   8.233   0.958  0.2441 -0.4377  0.2814
   81MOL0     C11052   8.490   8.190   0.955  0.7598  0.3952 -0.1981
   81MOL0     C11053   8.581   8.241   1.069 -0.9078 -0.4206  0.7861
   81MOL0     C11054   8.725   8.166   1.045  0.9757 -0.0695  0.6289
   81MOL0     C11055   8.815   8.213   1.160 -0.5906 -0.0651  0.2676
   81MOL0     C11056   8.963   8.155   1.151  0.5307 -0.0789  0.0902
   81MOL0     N11057   8.973   8.020   1.220  0.3694  0.3493  0.0329
   81MOL0     C11058   9.042   7.907   1.183 -0.0782 -1.2804  0.0655
   81MOL0     C11059   9.018   7.817   1.283  0.2342 -0.3675  1.2704
   81MOL0     C11060   9.073   7.682   1.282  0.1613 -0.0494 -0.1403
   81MOL0     C11061   9.192   7.662   1.195 -0.4943 -0.5648 -0.1821
   81MOL0     C11062   9.328   7.725   1.245 -0.1758 -0.8163  0.0565
   81MOL0     C11063   9.445   7.673   1.155 -0.1144  0.1094 -0.9234
   81MOL0     O11064   9.569   7.709   1.199 -0.6593 -0.7433 -0.0054
   81MOL0     C11065   9.649   7.614   1.262 -0.2355  0.0123  0.2650
   81MOL0     C11066   9.607   7.489   1.311 -0.5924  0.8057 -0.1227
   81MOL0     C11067   9.681   7.402   1.389  0.4018 -0.6799 -0.4674
   81MOL0     C11068   9.599   7.284   1.435  0.5405 -0.0783  0.0524
   81MOL0     C11069   9.807   7.442   1.424 -0.5074 -0.0973 -0.6967
   81MOL0     C11070   9.904   7.362   1.510 -0.5011 -0.5299 -0.0018
   81MOL0     O11071  10.023   7.410   1.513 -0.4529 -0.7137 -0.2706
   81MOL0     C11072  10.114   7.355   1.599 -0.7688 -0.5790  0.4110
   81MOL0     C11073  10.186   7.448   1.679 -0.2824  0.2392  0.4295
   81MOL0     C11074  10.265   7.410   1.781 -0.4872 -0.4236 -0.3189
   81MOL0     C11075  10.286   7.271   1.806 -0.7618 -0.3116 -0.4960
   81MOL0     O11076  10.360   7.234   1.916  0.0349 -0.0242  0.0658
   81MOL0     C11077  10.289   7.146   2.009 -0.1606  0.3752  0.4928
   81MOL0     C11078  10.372   7.155   2.144  0.2720  0.3491  0.2183
   81MOL0     C11079  10.300   7.084   2.255  0.1626  0.1875 -0.5950
   81MOL0     C11080  10.353   7.132   2.394 -0.4446 -0.2368 -0.3388
   81MOL0     C11081  10.495   7.091   2.423 -0.1939  0.2494  0.9243
   81MOL0     C11082  10.537   7.111   2.569  0.2507 -0.5001 -0.0123
   81MOL0     C11083  10.688   7.101   2.603 -0.4323  0.2766 -0.3662
   81MOL0     C11084  10.783   7.140   2.490 -0.2440  0.3471  0.0944
   81MOL0    Cl11085  10.952   7.122   2.552 -0.0670 -0.1215  0.3490
   81MOL0     C11086  10.228   7.176   1.718 -0.0815  0.8236  0.1251
   81MOL0     C11087  10.141   7.220   1.614  0.2928  0.0154  0.0744
   81MOL0     O11088   9.867   7.260   1.571  0.3081  0.5982  0.2453
   81MOL0     C11089   9.852   7.570   1.389 -0.4276 -0.0434  0.0922
   81MOL0     C11090   9.779   7.654   1.302 -0.7199 -0.1544 -0.8122
   81MOL0     N11091   8.936   7.868   1.378 -0.4921  0.8535 -0.1786
   81MOL0     N11092   8.908   7.986   1.342 -1.0201  1.2872  0.3622
   81MOL0     C11093   7.925   8.466   0.773  0.9789 -0.7808 -0.3718
   81MOL0     C11094   7.820   8.558   0.776  0.7164  0.0581 -0.0627
   81MOL0     C11095   7.590   8.901   0.953  1.0069 -0.4566 -0.0531
   81MOL0     C11096   7.485   8.896   0.855  0.6297 -0.4540 -0.8364
   81MOL0     C11097   7.360   8.959   0.875 -0.0873  0.6353 -0.5729
   81MOL0     C11098   7.339   9.030   0.994  0.5634  0.1653 -1.1853
   81MOL0     O11099   7.214   9.076   1.006 -0.3114 -1.6025  0.2412
   81MOL0     C11100   7.135   9.015   1.104  0.1420  0.6066 -0.8061
   81MOL0     C11101   7.132   9.104   1.227 -0.2205 -1.2166 -1.4513
   81MOL0     C11102   7.030   9.065   1.338  0.0710 -0.1242 -0.0426
   81MOL0     C11103   7.037   9.151   1.462  0.3104 -1.0462  0.1690
   81MOL0     C11104   6.947   9.267   1.452  0.5697 -0.4762  0.1324
   81MOL0     C11105   6.862   9.354   1.441 -0.0347  0.4048 -0.1709
   81MOL0     C11106   7.441   9.041   1.081 -0.2140  0.4828 -0.6122
   81MOL0     C11107   7.567   8.988   1.066  1.0849  0.1586 -0.4922
   81MOL0     C11108   7.675   9.026   1.170  0.0541  0.2931  0.1288
   81MOL0     H11109   8.013   8.840   0.813  4.0827 -0.6778 -1.2948
   81MOL0     H11110   8.192   8.658   0.818  0.9182 -0.1672 -0.0459
   81MOL0     H11111   8.079   8.237   0.727 -1.0436  0.7778  0.0032
   81MOL0     H11112   8.059   8.273   0.900  1.7959  0.3190  0.7559
   81MOL0     H11113   8.229   8.083   0.837  1.7802 -1.3807 -0.8329
   81MOL0     H11114   8.310   8.218   0.743 -0.1355  1.4733  0.3239
   81MOL0     H11115   8.347   8.342   0.960  0.0231 -0.2787 -2.7733
   81MOL0     H11116   8.291   8.201   1.051  0.5151 -1.0343  0.2238
   81MOL0     H11117   8.489   8.081   0.948 -1.1892  0.4187 -1.0471
   81MOL0     H11118   8.528   8.223   0.857  0.5091  0.1899 -0.3669
   81MOL0     H11119   8.537   8.214   1.165 -0.5506 -1.0474  0.7841
   81MOL0     H11120   8.586   8.350   1.078  0.8353 -0.1574 -2.0681
   81MOL0     H11121   8.714   8.058   1.036 -0.1838 -0.1138  2.1376
   81MOL0     H11122   8.769   8.193   0.949 -1.1366  1.8464  0.1290
   81MOL0     H11123   8.774   8.216   1.261  0.6519  1.9750  0.7692
   81MOL0     H11124   8.832   8.318   1.134 -0.9295  0.8732  3.4518
   81MOL0     H11125   8.993   8.144   1.047 -0.3310  0.7879 -0.2693
   81MOL0     H11126   9.031   8.226   1.200  0.9848  0.3049 -1.0624
   81MOL0     H11127   9.095   7.903   1.089  1.2773  3.0951  0.4106
   81MOL0     H11128   8.997   7.612   1.248  1.2141 -0.2926 -2.1573
   81MOL0     H11129   9.103   7.650   1.382 -2.5596  4.2537  2.3745
   81MOL0     H11130   9.205   7.553   1.194  1.3345 -0.4016 -1.8982
   81MOL0     H11131   9.163   7.683   1.091 -1.3830 -1.9374 -0.2512
   81MOL0     H11132   9.342   7.833   1.240  2.2280 -0.9521  2.0421
   81MOL0     H11133   9.342   7.704   1.351 -2.3345  1.2974  0.8493
   81MOL0     H11134   9.432   7.566   1.136 -0.8702  0.4876 -2.7398
   81MOL0     H11135   9.434   7.720   1.057  2.3212  1.6473 -0.5583
   81MOL0     H11136   9.508   7.460   1.277 -0.0832  0.7872 -1.6563
   81MOL0     H11137   9.591   7.286   1.544  1.1310  1.6789  0.1010
   81MOL0     H11138   9.651   7.193   1.404  0.0392 -1.3064  2.5404
   81MOL0     H11139   9.501   7.280   1.389  1.7505  0.3297 -2.7789
   81MOL0     H11140  10.166   7.554   1.671  1.4138  0.6709  1.4752
   81MOL0     H11141  10.310   7.470   1.859  0.1286 -1.1709 -0.0869
   81MOL0     H11142  10.182   7.169   2.019  0.5322  3.0193  3.5592
   81MOL0     H11143  10.299   7.045   1.969 -2.9432  1.0632 -2.3588
   81MOL0     H11144  10.469   7.106   2.138 -0.7326 -1.5537 -2.9374
   81MOL0     H11145  10.384   7.263   2.157 -1.3800  1.0195 -2.6947
   81MOL0     H11146  10.314   6.976   2.245  1.2782  0.2377  0.2960
   81MOL0     H11147  10.196   7.117   2.247 -0.4619 -2.0358 -2.9815
   81MOL0     H11148  10.282   7.081   2.461 -0.9903  1.0494  0.1043
   81MOL0     H11149  10.340   7.241   2.398 -0.9422 -0.2964 -0.2462
   81MOL0     H11150  10.510   6.988   2.391 -2.9344 -0.9985  3.2053
   81MOL0     H11151  10.559   7.150   2.356 -2.7114  2.8876  0.6327
   81MOL0     H11152  10.481   7.032   2.620 -1.8087  1.4477  0.8678
   81MOL0     H11153  10.495   7.207   2.600 -1.7700 -1.7350  1.2886
   81MOL0     H11154  10.711   7.000   2.640 -0.8931  0.7166  1.1846
   81MOL0     H11155  10.714   7.174   2.680  0.6293  1.2213 -1.5796
   81MOL0     H11156  10.771   7.246   2.466 -0.6950  0.0041 -1.2512
   81MOL0     H11157  10.770   7.072   2.405 -1.2686 -0.0266  0.5324
   81MOL0     H11158  10.245   7.071   1.742  0.2817  0.3383 -2.0529
   81MOL0     H11159  10.104   7.146   1.543 -0.8651  0.6895 -0.0587
   81MOL0     H11160   9.946   7.604   1.432  0.3305 -2.9366  0.9989
   81MOL0     H11161   9.817   7.751   1.272 -0.3368 -0.5048 -1.5200
   81MOL0     H11162   7.892   8.363   0.761  1.1222 -1.0223  1.0646
   81MOL0     H11163   7.719   8.520   0.786  0.9113  0.0380  2.3886
   81MOL0     H11164   7.494   8.840   0.762 -2.8166 -1.4009 -0.7633
   81MOL0     H11165   7.288   8.946   0.794 -0.9210  1.8526 -0.0583
   81MOL0     H11166   7.031   8.999   1.074  0.0809 -1.2831  0.2406
   81MOL0     H11167   7.178   8.919   1.133 -3.6893 -0.5333  2.0602
   81MOL0     H11168   7.104   9.206   1.202 -0.3932 -0.4398  1.4911
   81MOL0     H11169   7.232   9.101   1.272 -1.6186  1.7566  2.4126
   81MOL0     H11170   6.931   9.064   1.291  0.5102  1.2193 -1.0668
   81MOL0     H11171   7.047   8.966   1.379 -1.0600 -0.9683 -1.5261
   81MOL0     H11172   7.138   9.192   1.459  0.4519 -1.4236 -2.3757
   81MOL0     H11173   7.020   9.097   1.555 -0.5864 -0.7613  0.1789
   81MOL0     H11174   6.786   9.430   1.440  0.1994  0.6370 -0.5864
   81MOL0     H11175   7.427   9.105   1.168 -4.7138  1.6478 -1.9128
   81MOL0     H11176   7.688   8.943   1.240 -0.3661 -1.8903 -2.2275
   81MOL0     H11177   7.773   9.049   1.126 -0.2665  0.3567 -0.5567
   81MOL0     H11178   7.647   9.110   1.235 -0.5270  0.0858  0.1490
   82MOL0     O11179   6.794   8.589   4.289  0.0809  0.4631 -0.1050
   82MOL0     C11180   6.705   8.657   4.342  0.6784 -0.1900 -0.4822
   82MOL0     O11181   6.732   8.760   4.421  0.0795 -0.5790 -0.6425
   82MOL0     C11182   6.849   8.776   4.487 -0.3605  0.4062  0.8763
   82MOL0     C11183   6.964   8.823   4.419 -0.6023  0.4317 -0.0365
   82MOL0     C11184   7.083   8.860   4.485  0.4741 -0.4152  0.6053
   82MOL0     C11185   7.085   8.835   4.619 -0.0302 -0.1884  1.0955
   82MOL0     O11186   7.208   8.860   4.676  0.3519  0.1649  0.4644
   82MOL0     C11187   7.214   8.892   4.814 -0.2778 -0.8754  0.5330
   82MOL0     C11188   7.360   8.930   4.854  0.7085 -0.1707 -0.1806
   82MOL0     C11189   7.346   9.039   4.965 -0.0149 -1.1247  0.5361
   82MOL0     C11190   7.479   9.088   5.012  0.1721 -0.1451 -0.4570
   82MOL0     C11191   7.484   9.219   5.086 -0.5760 -0.3933  0.5509
   82MOL0     C11192   7.616   9.289   5.072  0.3666  0.3703 -0.3492
   82MOL0     C11193   7.606   9.423   5.142  0.5951  0.1190 -0.0715
   82MOL0     C11194   7.741   9.495   5.098  0.2373  0.5762 -0.1382
   82MOL0     N11195   7.771   9.614   5.185 -0.0757 -0.1290  0.1104
   82MOL0     C11196   7.693   9.727   5.190  0.0813  0.0252 -0.3365
   82MOL0     C11197   7.739   9.796   5.297 -0.1172 -1.0391 -0.3339
   82MOL0     C11198   7.681   9.929   5.341 -0.4872 -0.8324 -0.1571
   82MOL0     C11199   7.697  10.035   5.234  0.3299 -0.4660 -0.4659
   82MOL0     C11200   7.842  10.053   5.189 -0.5371 -0.2537  0.0447
   82MOL0     C11201   7.864  10.165   5.084  0.1117 -0.7579  0.1567
   82MOL0     O11202   7.792  10.143   4.962 -0.8471  0.3885  0.0470
   82MOL0     C11203   7.848  10.197   4.855 -0.1068  0.0756 -0.0655
   82MOL0     C11204   7.939  10.307   4.848  0.8641 -1.2035 -0.0624
   82MOL0     C11205   8.002  10.336   4.727 -0.0294  0.7017  0.8766
   82MOL0     C11206   8.085  10.461   4.719 -1.1720  0.0914  0.0504
   82MOL0     C11207   7.984  10.250   4.612 -0.9445 -0.1338 -0.6376
   82MOL0     C11208   8.024  10.286   4.478  0.4351 -0.0508 -0.3226
   82MOL0     O11209   8.133  10.230   4.423 -0.2427  0.5262 -0.2754
   82MOL0     C11210   8.200  10.129   4.483  0.0690 -0.8419 -0.3757
   82MOL0     C11211   8.162   9.990   4.485 -0.8532  0.2681  0.2399
   82MOL0     C11212   8.239   9.893   4.550 -0.3632  0.3565 -0.3536
   82MOL0     C11213   8.362   9.926   4.618  0.5939  0.2857 -0.0478
   82MOL0     O11214   8.429   9.824   4.680  0.0131 -0.7820  0.3574
   82MOL0     C11215   8.547   9.846   4.755  0.3436  0.4611  0.9804
   82MOL0     C11216   8.669   9.822   4.660 -0.6284 -0.0541 -0.5258
   82MOL0     C11217   8.791   9.812   4.761  0.4517  0.2146  0.2469
   82MOL0     C11218   8.921   9.824   4.684 -0.5082 -0.9469 -0.2811
   82MOL0     C11219   9.045   9.777   4.769  0.0080  0.0372 -0.0413
   82MOL0     C11220   9.180   9.811   4.699 -0.3205 -0.8215 -0.2202
   82MOL0     C11221   9.188   9.739   4.560  0.6443  0.3164 -0.4107
   82MOL0     C11222   9.331   9.744   4.501 -0.5811 -1.1266 -0.5072
   82MOL0    Cl11223   9.458   9.660   4.598 -0.0123 -0.0560  0.2093
   82MOL0     C11224   8.399  10.057   4.610  0.5168 -0.0929  0.3188
   82MOL0     C11225   8.319  10.161   4.553 -0.4275 -0.6503  0.1524
   82MOL0     O11226   7.950  10.368   4.425 -0.5643 -0.7903 -0.2441
   82MOL0     C11227   7.886  10.153   4.629  0.2222  0.3760  0.4923
   82MOL0     C11228   7.818  10.125   4.744 -0.2904  0.1352 -1.4822
   82MOL0     N11229   7.847   9.730   5.354 -0.2658 -0.8190 -0.9117
   82MOL0     N11230   7.860   9.620   5.290 -0.6175  0.4941 -0.2511
   82MOL0     C11231   6.977   8.788   4.686  0.0670 -0.3358 -0.7086
   82MOL0     C11232   6.855   8.760   4.623 -0.2620  0.7134 -0.7228
   82MOL0     C11233   6.559   8.639   4.300  0.0407  0.8306 -0.3293
   82MOL0     C11234   6.470   8.742   4.311  0.0631  0.5050 -0.4753
   82MOL0     C11235   6.335   8.725   4.299 -0.0161 -0.4460  0.6124
   82MOL0     C11236   6.272   8.603   4.250 -0.3280  1.2018 -0.1759
   82MOL0     O11237   6.135   8.570   4.240 -0.4522 -0.2988  0.3354
   82MOL0     C11238   6.038   8.676   4.269 -0.2190 -0.3303  0.0212
   82MOL0     C11239   5.892   8.648   4.238  0.6909  0.7637 -0.1072
   82MOL0     C11240   5.850   8.654   4.095 -0.3743 -0.0056 -0.1287
   82MOL0     C11241   5.763   8.533   4.051 -0.8885  0.8722 -0.3457
   82MOL0     C11242   5.631   8.545   4.103  0.7109  0.4891  0.2709
   82MOL0     C11243   5.517   8.559   4.143 -0.1560 -0.5071  0.7558
   82MOL0     C11244   6.369   8.502   4.225  0.0611 -0.0070  0.4554
   82MOL0     C11245   6.510   8.512   4.250 -0.0225 -0.6281  0.0545
   82MOL0     C11246   6.603   8.389   4.220 -0.3327 -0.4081  0.1742
   82MOL0     H11247   6.946   8.830   4.312  0.7136 -1.7180 -0.4470
   82MOL0     H11248   7.171   8.899   4.435  0.3753  0.1199  0.8398
   82MOL0     H11249   7.181   8.801   4.866 -0.9687  0.0884  1.8326
   82MOL0     H11250   7.154   8.982   4.826  0.6264  0.8757 -5.0514
   82MOL0     H11251   7.422   8.850   4.897  0.6739  0.7908  1.7780
   82MOL0     H11252   7.418   8.980   4.776 -1.1224  2.5432  0.0759
   82MOL0     H11253   7.286   9.122   4.927  0.8942 -1.4687 -1.8073
   82MOL0     H11254   7.306   9.000   5.059 -0.5347  2.2215  1.8125
   82MOL0     H11255   7.528   9.009   5.070  2.1752  2.1590  1.1699
   82MOL0     H11256   7.545   9.095   4.925  0.9507  0.9678  0.2015
   82MOL0     H11257   7.462   9.196   5.191 -2.3247  0.0976  0.3103
   82MOL0     H11258   7.408   9.284   5.043 -0.3072 -1.1779 -1.2051
   82MOL0     H11259   7.693   9.227   5.119  0.0832  0.9851  0.9847
   82MOL0     H11260   7.647   9.315   4.971 -1.9808  0.1474 -1.1936
   82MOL0     H11261   7.606   9.416   5.251 -0.7767 -1.4991 -0.1215
   82MOL0     H11262   7.522   9.474   5.093  0.2307 -0.2217  0.1947
   82MOL0     H11263   7.821   9.425   5.123  0.5288  0.8325 -0.3445
   82MOL0     H11264   7.740   9.522   4.992  1.6085 -3.4842 -1.3586
   82MOL0     H11265   7.609   9.758   5.127 -0.4190  1.4858  0.9737
   82MOL0     H11266   7.736   9.963   5.429  0.0343  2.3514 -1.5770
   82MOL0     H11267   7.577   9.908   5.369  0.2399 -2.6574  1.4092
   82MOL0     H11268   7.631  10.018   5.149  2.1357 -1.1428 -1.7934
   82MOL0     H11269   7.669  10.130   5.281  0.2866 -0.8689  0.3359
   82MOL0     H11270   7.900  10.078   5.278 -2.4150  2.6060  0.6184
   82MOL0     H11271   7.876   9.959   5.146  0.4928  0.5825 -1.0417
   82MOL0     H11272   7.825  10.255   5.133 -0.3643  0.5070 -2.4002
   82MOL0     H11273   7.972  10.178   5.072  0.2226 -3.4057 -2.7121
   82MOL0     H11274   7.955  10.369   4.936  1.2606 -2.1210  0.5201
   82MOL0     H11275   8.040  10.534   4.787 -0.1884  2.6325 -1.8506
   82MOL0     H11276   8.087  10.500   4.616  0.0905  1.0697  0.4187
   82MOL0     H11277   8.187  10.446   4.754  1.5038 -0.6372 -6.5461
   82MOL0     H11278   8.083   9.951   4.422  0.4527 -2.1285 -0.0441
   82MOL0     H11279   8.206   9.790   4.534 -2.0981  0.8977 -0.5300
   82MOL0     H11280   8.556   9.941   4.808  2.4291 -0.2270  1.9275
   82MOL0     H11281   8.541   9.770   4.833 -1.7809  0.4598  0.8702
   82MOL0     H11282   8.676   9.721   4.619  1.6240 -1.2705  2.4661
   82MOL0     H11283   8.664   9.898   4.582 -2.4056 -0.5585 -0.9389
   82MOL0     H11284   8.787   9.717   4.815  1.1044  1.3802  2.4655
   82MOL0     H11285   8.777   9.892   4.834 -0.3300 -0.5016  0.9093
   82MOL0     H11286   8.947   9.923   4.646 -0.8405 -0.4649  0.7329
   82MOL0     H11287   8.920   9.763   4.593  2.6248 -1.8735  0.1939
   82MOL0     H11288   9.048   9.826   4.866 -2.7897  1.5070 -0.5600
   82MOL0     H11289   9.040   9.668   4.775 -1.4020 -0.1982 -3.0397
   82MOL0     H11290   9.258   9.779   4.770  1.8190  1.5400 -1.3300
   82MOL0     H11291   9.192   9.919   4.689  2.2091 -0.8932  1.2398
   82MOL0     H11292   9.116   9.787   4.493 -1.0127 -1.3501  0.0802
   82MOL0     H11293   9.154   9.635   4.560  2.9403 -0.4989 -0.5909
   82MOL0     H11294   9.360   9.849   4.493 -1.5686 -0.6041  1.8932
   82MOL0     H11295   9.332   9.700   4.401  0.8060 -2.3712  0.0202
   82MOL0     H11296   8.487  10.092   4.664 -0.7685  0.4624  2.1122
   82MOL0     H11297   8.350  10.262   4.578  2.3286 -1.8215  1.9326
   82MOL0     H11298   7.847  10.101   4.542  1.5967  1.2050 -0.6606
   82MOL0     H11299   7.736  10.054   4.755 -2.2286  2.3599 -0.8688
   82MOL0     H11300   6.993   8.757   4.788 -1.3127  0.0250 -0.3563
   82MOL0     H11301   6.770   8.713   4.672 -1.2599  1.4419 -1.6910
   82MOL0     H11302   6.502   8.830   4.367 -0.2648  0.1295  0.3257
   82MOL0     H11303   6.271   8.810   4.323  2.0210  1.3452  0.0726
   82MOL0     H11304   6.050   8.697   4.375 -0.2833  0.8791 -0.1957
   82MOL0     H11305   6.067   8.766   4.214 -2.9810  1.4750  1.3206
   82MOL0     H11306   5.832   8.711   4.304 -0.2301 -1.9997  1.8508
   82MOL0     H11307   5.875   8.546   4.272 -3.5248  0.7665 -1.5778
   82MOL0     H11308   5.798   8.749   4.080  1.0626  1.0292  1.1243
   82MOL0     H11309   5.938   8.647   4.030 -1.2143 -0.3860 -1.2626
   82MOL0     H11310   5.801   8.435   4.083 -2.2526  0.2843 -0.4618
   82MOL0     H11311   5.758   8.538   3.942 -1.2533  2.1783 -0.2785
   82MOL0     H11312   5.417   8.576   4.176 -2.0798 -3.8146 -2.6232
   82MOL0     H11313   6.306   8.418   4.199  1.8570 -1.3560  0.2241
   82MOL0     H11314   6.660   8.350   4.306  1.9734  0.7855 -0.7285
   82MOL0     H11315   6.542   8.310   4.176  0.9626 -1.7311  0.6715
   82MOL0     H11316   6.667   8.410   4.134 -0.5956  0.3722  0.1659
   83MOL0     O11317   1.736   5.834   9.128 -0.2495 -0.3919 -0.3249
   83MOL0     C11318   1.705   5.773   9.030 -0.5766 -0.4605 -1.1461
   83MOL0     O11319   1.792   5.715   8.940 -0.6590 -0.2730 -0.5911
   83MOL0     C11320   1.923   5.689   8.984  0.2911  0.2333 -0.1044
   83MOL0     C11321   2.022   5.677   8.884  0.1291  0.4002  0.1478
   83MOL0     C11322   2.160   5.640   8.910 -0.6390 -0.2382 -0.8817
   83MOL0     C11323   2.200   5.591   9.035  0.3418  0.3274 -1.1339
   83MOL0     O11324   2.332   5.558   9.056 -0.6919  0.5946 -0.1391
   83MOL0     C11325   2.392   5.558   9.184 -0.5474  0.1927  0.6861
   83MOL0     C11326   2.538   5.568   9.163 -0.4876 -0.1266  1.0493
   83MOL0     C11327   2.570   5.430   9.120 -0.1191  0.7634  0.5210
   83MOL0     C11328   2.721   5.412   9.117  0.0233 -0.5363  0.1051
   83MOL0     C11329   2.801   5.496   9.011 -0.2348 -0.0942 -0.0954
   83MOL0     C11330   2.771   5.464   8.863 -0.0986 -0.0187 -0.3564
   83MOL0     C11331   2.860   5.549   8.774  0.0167 -0.3303 -0.6287
   83MOL0     C11332   2.998   5.498   8.760 -0.4938 -0.5112 -0.0986
   83MOL0     N11333   3.090   5.612   8.721 -0.3727 -0.1109 -0.1052
   83MOL0     C11334   3.164   5.685   8.813  0.0478  0.4223  0.4289
   83MOL0     C11335   3.243   5.764   8.736  0.1827 -0.4816 -0.0124
   83MOL0     C11336   3.336   5.875   8.800  0.4656 -0.1262 -0.0596
   83MOL0     C11337   3.484   5.860   8.780 -0.4504 -0.1266 -0.1945
   83MOL0     C11338   3.544   5.738   8.857  1.2649 -0.3348  0.5103
   83MOL0     C11339   3.686   5.734   8.831  0.3754 -0.2244  0.6206
   83MOL0     O11340   3.736   5.607   8.873 -0.4434  0.2802 -0.3218
   83MOL0     C11341   3.876   5.601   8.858  0.2338 -0.2955  0.2009
   83MOL0     C11342   3.972   5.702   8.823  0.4592  0.1270  0.1846
   83MOL0     C11343   4.110   5.671   8.812  0.2239  0.0112  0.1717
   83MOL0     C11344   4.193   5.782   8.764 -0.3862  0.6888  0.0456
   83MOL0     C11345   4.156   5.540   8.834 -0.0938  0.2268 -0.8067
   83MOL0     C11346   4.303   5.500   8.830 -0.7099  0.6157  0.8623
   83MOL0     O11347   4.329   5.361   8.802  0.6801 -0.0079  0.3881
   83MOL0     C11348   4.456   5.317   8.789 -0.2881  0.9707  0.7724
   83MOL0     C11349   4.469   5.173   8.796  0.2626 -0.5840  0.1393
   83MOL0     C11350   4.567   5.105   8.739 -0.8709  0.3915  0.7300
   83MOL0     C11351   4.677   5.175   8.692  0.1991 -1.3709  1.1741
   83MOL0     O11352   4.785   5.090   8.678  0.1341  0.2438  0.6541
   83MOL0     C11353   4.896   5.125   8.597  1.1455 -1.0529  0.3559
   83MOL0     C11354   5.008   5.043   8.645  0.4787 -1.0235 -0.0417
   83MOL0     C11355   5.115   5.063   8.540 -1.2271 -0.4024 -0.3601
   83MOL0     C11356   5.239   4.978   8.580 -0.6181 -0.0432  0.1053
   83MOL0     C11357   5.299   4.907   8.456  0.2546  0.4902 -0.6183
   83MOL0     C11358   5.422   4.809   8.490  0.4337  0.0264  0.1701
   83MOL0     C11359   5.458   4.719   8.364  0.0536  0.4884 -0.5088
   83MOL0     C11360   5.613   4.693   8.346 -0.0076  0.0123  0.3437
   83MOL0    Cl11361   5.702   4.655   8.502 -0.0469  0.4182 -0.4011
   83MOL0     C11362   4.682   5.316   8.689  0.3266 -0.2146  0.0746
   83MOL0     C11363   4.570   5.386   8.738  0.4515 -0.2560 -0.1418
   83MOL0     O11364   4.390   5.576   8.850  0.0802 -0.6941  0.0970
   83MOL0     C11365   4.065   5.453   8.876 -0.8000  1.1237  0.5169
   83MOL0     C11366   3.929   5.480   8.881 -0.7311 -0.2846 -0.7885
   83MOL0     N11367   3.226   5.727   8.601 -0.5293  0.2125  0.0873
   83MOL0     N11368   3.135   5.637   8.597 -1.1748  0.9965 -0.3863
   83MOL0     C11369   2.100   5.584   9.135  0.9403 -0.0781  0.2289
   83MOL0     C11370   1.968   5.637   9.110 -0.5055  0.2097 -0.1533
   83MOL0     C11371   1.554   5.758   9.004  0.4182 -0.3560 -0.4435
   83MOL0     C11372   1.469   5.767   9.117  0.3570  0.0378  0.1688
   83MOL0     C11373   1.324   5.770   9.098  0.0913  0.6158  0.1259
   83MOL0     C11374   1.273   5.759   8.966  0.1515  0.7869 -1.0388
   83MOL0     O11375   1.142   5.733   8.938 -0.0628 -0.3785 -0.2812
   83MOL0     C11376   1.052   5.688   9.037  0.3633 -0.2775  0.6133
   83MOL0     C11377   0.971   5.812   9.099 -0.2188 -0.2307 -0.7774
   83MOL0     C11378   0.904   5.917   9.004  0.4737 -0.5585  0.0992
   83MOL0     C11379   0.802   6.016   9.078 -0.3101  0.3168  0.0995
   83MOL0     C11380   0.683   5.944   9.104  0.9298 -0.1098  0.1559
   83MOL0     C11381   0.575   5.888   9.120 -1.1250  0.3988  0.1481
   83MOL0     C11382   1.354   5.765   8.855 -0.1713 -0.9128 -0.5982
   83MOL0     C11383   1.494   5.761   8.874  0.1485 -0.0878  0.0984
   83MOL0     C11384   1.572   5.784   8.743  0.4586 -1.0489 -0.0090
   83MOL0     H11385   1.993   5.713   8.786 -2.1051  0.9254  0.9594
   83MOL0     H11386   2.231   5.663   8.831  2.0523 -4.2058  0.0729
   83MOL0     H11387   2.357   5.472   9.242  0.7564 -3.4730 -3.4577
   83MOL0     H11388   2.370   5.649   9.241 -0.0502  1.4980 -1.1267
   83MOL0     H11389   2.553   5.644   9.086 -2.6036 -0.5942  0.1243
   83MOL0     H11390   2.582   5.606   9.257 -1.1322  1.7653  0.6376
   83MOL0     H11391   2.533   5.357   9.193  2.0082  0.1798  1.0833
   83MOL0     H11392   2.527   5.412   9.021  1.0175 -0.4915  0.2367
   83MOL0     H11393   2.755   5.437   9.218  1.6536 -2.2123  0.0253
   83MOL0     H11394   2.749   5.306   9.114 -0.6902 -0.7836  1.4154
   83MOL0     H11395   2.909   5.484   9.022 -0.1966 -0.1893 -0.5135
   83MOL0     H11396   2.775   5.600   9.028 -4.4706 -1.1280  1.0736
   83MOL0     H11397   2.795   5.359   8.840  1.9624  0.3854 -0.2384
   83MOL0     H11398   2.665   5.476   8.837 -0.6240 -3.2796 -0.2482
   83MOL0     H11399   2.870   5.647   8.821  2.5288  0.1157 -1.9171
   83MOL0     H11400   2.816   5.570   8.676 -0.0937  1.8438 -0.1597
   83MOL0     H11401   3.035   5.453   8.852  1.7600  0.8597 -0.2714
   83MOL0     H11402   2.995   5.412   8.693 -1.5709 -1.6554  1.3517
   83MOL0     H11403   3.151   5.686   8.921  1.5751 -2.3216  0.7483
   83MOL0     H11404   3.326   5.877   8.909  2.3380  1.4312  0.1295
   83MOL0     H11405   3.297   5.969   8.761 -1.1710 -0.9579 -0.5096
   83MOL0     H11406   3.498   5.875   8.673  0.7814 -1.1484 -0.2033
   83MOL0     H11407   3.532   5.952   8.815  0.7527  0.8657 -4.0457
   83MOL0     H11408   3.528   5.767   8.961  0.3479  3.6492 -0.5871
   83MOL0     H11409   3.494   5.643   8.831  0.1535  0.4981 -0.5398
   83MOL0     H11410   3.692   5.741   8.722 -1.5049  0.3057  0.5233
   83MOL0     H11411   3.736   5.818   8.881  0.4780 -0.2528  0.5645
   83MOL0     H11412   3.938   5.802   8.798 -0.2414 -0.5648 -1.7993
   83MOL0     H11413   4.220   5.830   8.858  2.3875  1.1954 -0.9322
   83MOL0     H11414   4.145   5.846   8.689  0.4479  1.8104  0.4373
   83MOL0     H11415   4.278   5.748   8.705 -0.7970  2.8292 -1.9459
   83MOL0     H11416   4.379   5.120   8.829  0.4992 -0.5870  0.7861
   83MOL0     H11417   4.564   4.997   8.732 -1.3055  0.2700  2.3677
   83MOL0     H11418   4.870   5.115   8.491  0.4730 -1.0451  0.5166
   83MOL0     H11419   4.927   5.228   8.612 -1.3510 -0.3243  1.0234
   83MOL0     H11420   5.052   5.072   8.741 -2.2748  0.1089  0.9952
   83MOL0     H11421   4.975   4.939   8.641 -2.4969 -0.2416  1.6260
   83MOL0     H11422   5.146   5.167   8.534  0.5507 -0.8948 -0.2310
   83MOL0     H11423   5.073   5.035   8.443 -0.1124  2.9336 -1.9328
   83MOL0     H11424   5.205   4.901   8.650 -0.8052  1.6595  1.9678
   83MOL0     H11425   5.301   5.047   8.637 -2.1782 -0.9146  3.0474
   83MOL0     H11426   5.224   4.835   8.422  1.8418 -1.4736 -0.1233
   83MOL0     H11427   5.335   4.976   8.379  0.2674 -1.2005 -2.1872
   83MOL0     H11428   5.401   4.734   8.566 -2.3426 -1.6756 -2.0524
   83MOL0     H11429   5.516   4.861   8.509 -1.1596  3.8950 -1.4431
   83MOL0     H11430   5.425   4.773   8.275 -0.5216  1.0383  0.0238
   83MOL0     H11431   5.392   4.634   8.383 -1.7076  2.3221  2.4363
   83MOL0     H11432   5.657   4.776   8.290 -0.7432 -1.8220 -3.2348
   83MOL0     H11433   5.636   4.611   8.278 -0.2847 -0.8159  1.2171
   83MOL0     H11434   4.774   5.363   8.655  0.6591 -0.5179  0.5479
   83MOL0     H11435   4.570   5.494   8.728 -0.4918  0.0874  2.7236
   83MOL0     H11436   4.106   5.355   8.897 -2.4098  0.5421  1.1131
   83MOL0     H11437   3.857   5.402   8.907 -2.2584  1.3713  0.1505
   83MOL0     H11438   2.129   5.542   9.231 -2.3628  0.2227  1.5101
   83MOL0     H11439   1.899   5.621   9.192  1.9693 -0.5252  1.9053
   83MOL0     H11440   1.513   5.767   9.216 -2.2841 -1.3597  1.4517
   83MOL0     H11441   1.263   5.797   9.184  0.6899  0.8577  0.4760
   83MOL0     H11442   0.987   5.619   8.981  3.2920 -2.4169 -0.4434
   83MOL0     H11443   1.090   5.625   9.118 -1.4026  0.6870  2.2922
   83MOL0     H11444   1.032   5.862   9.175  0.2925  1.5430 -2.2746
   83MOL0     H11445   0.890   5.770   9.159 -0.5098  1.3848  0.0235
   83MOL0     H11446   0.978   5.975   8.948 -0.6781 -1.0560 -2.0275
   83MOL0     H11447   0.845   5.866   8.927 -0.5311 -2.1228  1.8123
   83MOL0     H11448   0.797   6.111   9.023  4.2323  1.4185  1.1528
   83MOL0     H11449   0.844   6.025   9.178  0.9610 -0.7373 -0.3046
   83MOL0     H11450   0.497   5.816   9.125  0.9284 -2.1973 -2.0498
   83MOL0     H11451   1.312   5.756   8.755  2.7292 -0.8166 -1.9145
   83MOL0     H11452   1.527   5.748   8.650 -0.4162 -0.6929  0.2627
   83MOL0     H11453   1.609   5.887   8.744  2.1405 -1.5713  2.5886
   83MOL0     H11454   1.665   5.727   8.745  0.0890 -1.6531  0.1220
   84MOL0     O11455   9.895   3.720   5.552 -0.2019  0.5220 -0.3533
   84MOL0     C11456   9.881   3.722   5.671 -0.5447 -0.2392 -0.1932
   84MOL0     O11457   9.767   3.759   5.733 -0.4265  0.1095  0.9829
   84MOL0     C11458   9.665   3.806   5.655 -0.4166 -0.2286  0.1219
   84MOL0     C11459   9.571   3.719   5.605 -0.7004 -0.4859  0.4367
   84MOL0     C11460   9.464   3.773   5.530 -0.0000 -0.6226  0.5120
   84MOL0     C11461   9.449   3.909   5.511 -0.0040  0.1755 -0.0846
   84MOL0     O11462   9.336   3.945   5.445  0.5504 -0.4593 -0.3497
   84MOL0     C11463   9.252   4.041   5.507 -0.5430 -0.3346 -0.4614
   84MOL0     C11464   9.107   4.048   5.436  0.2260 -0.6202  0.5101
   84MOL0     C11465   9.034   3.917   5.438 -0.0979  0.4031 -0.5701
   84MOL0     C11466   8.950   3.916   5.567  0.9720  0.2790 -0.4189
   84MOL0     C11467   8.857   3.796   5.585 -0.5863  0.0669 -0.7670
   84MOL0     C11468   8.784   3.803   5.715 -0.1924  0.2677 -0.4363
   84MOL0     C11469   8.729   3.665   5.753  1.1614  0.4640  0.1348
   84MOL0     C11470   8.625   3.679   5.864 -0.4054 -0.3480 -0.0314
   84MOL0     N11471   8.636   3.565   5.948  0.3241 -0.1508  0.3787
   84MOL0     C11472   8.757   3.517   5.995  0.0426 -0.5283  0.3750
   84MOL0     C11473   8.729   3.391   6.033  0.3421  0.5127 -1.0420
   84MOL0     C11474   8.819   3.296   6.112  0.8618 -1.2749 -0.2328
   84MOL0     C11475   8.957   3.364   6.127 -0.6297  0.2755  0.0542
   84MOL0     C11476   9.040   3.265   6.210 -0.6258 -0.4263  0.4469
   84MOL0     C11477   9.173   3.327   6.270  0.0763 -0.1016  0.4532
   84MOL0     O11478   9.246   3.226   6.345  0.3731 -0.8904  0.0948
   84MOL0     C11479   9.363   3.265   6.405 -0.7422  0.5279 -0.6388
   84MOL0     C11480   9.413   3.390   6.406 -0.7892  0.0003  0.7671
   84MOL0     C11481   9.528   3.428   6.481 -0.0853  0.0887  0.1750
   84MOL0     C11482   9.567   3.577   6.483 -0.6648 -0.0594 -0.1612
   84MOL0     C11483   9.599   3.331   6.553  0.5329 -0.3912 -0.7931
   84MOL0     C11484   9.715   3.371   6.645  0.6969 -0.4950 -0.1315
   84MOL0     O11485   9.803   3.269   6.667  0.3173  0.1367  0.0824
   84MOL0     C11486   9.912   3.280   6.751 -0.9686 -0.3614  0.7173
   84MOL0     C11487   9.974   3.153   6.773  0.4607 -0.3371  1.0387
   84MOL0     C11488  10.090   3.132   6.852  0.4221  0.8327 -0.1674
   84MOL0     C11489  10.141   3.242   6.922 -0.2416 -0.7405  0.0483
   84MOL0     O11490  10.259   3.236   7.000  0.3774  0.1481 -0.1713
   84MOL0     C11491  10.324   3.360   7.055  0.4354 -0.0987 -0.3815
   84MOL0     C11492  10.452   3.325   7.126  0.0870  0.1055  0.0857
   84MOL0     C11493  10.513   3.445   7.202 -0.4511 -0.0488 -0.0310
   84MOL0     C11494  10.661   3.419   7.248  0.4684 -0.0265  0.8073
   84MOL0     C11495  10.742   3.544   7.238  0.1509 -0.0024  1.2267
   84MOL0     C11496  10.714   3.646   7.343  0.5750 -0.0550 -0.3783
   84MOL0     C11497  10.786   3.775   7.322  0.4548 -0.9722  0.0923
   84MOL0     C11498  10.768   3.861   7.446 -0.2862 -0.1460  0.6203
   84MOL0    Cl11499  10.793   4.031   7.393 -0.3023 -0.4677 -0.0469
   84MOL0     C11500  10.073   3.368   6.910 -0.2099  0.0266  0.4790
   84MOL0     C11501   9.962   3.387   6.825  0.5160 -0.9275  1.0464
   84MOL0     O11502   9.724   3.483   6.707  0.5044 -0.2450  1.1116
   84MOL0     C11503   9.554   3.197   6.538  0.2522  1.1897  0.4089
   84MOL0     C11504   9.438   3.159   6.463 -0.1142  0.9984  0.2796
   84MOL0     N11505   8.593   3.374   6.021  0.3387  0.1629 -0.2362
   84MOL0     N11506   8.537   3.485   5.982  0.0407  1.0783  0.3986
   84MOL0     C11507   9.541   3.995   5.567 -0.0774 -0.6970 -0.4708
   84MOL0     C11508   9.645   3.948   5.642 -0.8446  0.1046  0.4980
   84MOL0     C11509   9.990   3.668   5.755 -0.4507  1.0324 -0.7193
   84MOL0     C11510  10.099   3.615   5.690  0.0668  1.1804  0.1511
   84MOL0     C11511  10.206   3.550   5.755  0.5335  0.6766  0.0143
   84MOL0     C11512  10.201   3.543   5.893 -1.0081  0.4522  0.2277
   84MOL0     O11513  10.293   3.477   5.974  0.9625  0.1167 -0.2195
   84MOL0     C11514  10.421   3.446   5.927  0.5230 -0.1774 -0.0143
   84MOL0     C11515  10.517   3.502   6.036  0.1730 -0.0524 -0.0811
   84MOL0     C11516  10.494   3.448   6.176  0.5392 -0.2848  0.0642
   84MOL0     C11517  10.490   3.291   6.196 -1.0946 -0.2088 -0.6289
   84MOL0     C11518  10.616   3.234   6.228 -0.0152 -0.0318 -0.3005
   84MOL0     C11519  10.727   3.182   6.242 -0.3166 -0.3273 -0.2690
   84MOL0     C11520  10.091   3.600   5.961  0.1350 -0.4654 -0.2681
   84MOL0     C11521   9.989   3.663   5.899  0.0230 -1.0462  0.3599
   84MOL0     C11522   9.871   3.705   5.984 -0.1413  0.1548  0.5289
   84MOL0     H11523   9.594   3.615   5.625 -2.2576 -0.6077  1.7940
   84MOL0     H11524   9.401   3.695   5.488 -0.3782 -0.2848  0.4384
   84MOL0     H11525   9.296   4.141   5.504  0.9859 -1.0049 -1.6919
   84MOL0     H11526   9.242   4.018   5.613  1.3597  2.3459  0.4134
   84MOL0     H11527   9.045   4.128   5.477 -2.3867 -2.3276  0.1616
   84MOL0     H11528   9.118   4.070   5.329  3.9183 -1.9303  0.5012
   84MOL0     H11529   8.959   3.917   5.358 -0.3708  0.3606 -0.3194
   84MOL0     H11530   9.105   3.835   5.426  1.8720  2.0257 -0.4412
   84MOL0     H11531   9.014   3.915   5.656 -0.6650 -0.5685  0.8219
   84MOL0     H11532   8.893   4.009   5.566  1.3697  0.5213 -0.2887
   84MOL0     H11533   8.920   3.707   5.594 -0.1939  0.3365 -0.8288
   84MOL0     H11534   8.783   3.788   5.505 -2.5030 -2.0481  1.0564
   84MOL0     H11535   8.850   3.830   5.797 -1.7038  1.3353  0.4678
   84MOL0     H11536   8.704   3.878   5.715 -0.8963 -0.3422  2.9323
   84MOL0     H11537   8.822   3.616   5.782  0.1073 -2.4394 -1.0078
   84MOL0     H11538   8.685   3.607   5.671  0.2875  1.1170  0.1207
   84MOL0     H11539   8.649   3.766   5.925  0.5460  1.6959 -3.0872
   84MOL0     H11540   8.526   3.689   5.817 -0.4168 -0.7319 -0.0961
   84MOL0     H11541   8.851   3.571   6.002 -1.3782  2.1051  0.4325
   84MOL0     H11542   8.823   3.201   6.058 -0.2351 -1.5247  0.1007
   84MOL0     H11543   8.774   3.264   6.206  0.7875 -0.9826 -0.1673
   84MOL0     H11544   9.013   3.390   6.037  2.6708 -1.9250  1.3060
   84MOL0     H11545   8.932   3.453   6.186 -4.1646 -1.4106  1.4133
   84MOL0     H11546   8.987   3.234   6.300 -2.8604  0.3624 -0.5260
   84MOL0     H11547   9.062   3.172   6.157 -0.1719 -1.2619  2.0453
   84MOL0     H11548   9.223   3.374   6.185  0.0290 -1.7983 -0.5554
   84MOL0     H11549   9.138   3.404   6.340  0.1900  1.9411 -1.6490
   84MOL0     H11550   9.371   3.478   6.358  1.2033 -0.0966 -1.2928
   84MOL0     H11551   9.512   3.641   6.414  0.7872  1.0456 -0.3406
   84MOL0     H11552   9.674   3.592   6.464 -0.9230  1.1899 -0.7045
   84MOL0     H11553   9.532   3.613   6.580 -1.6569 -0.3050 -0.4221
   84MOL0     H11554   9.933   3.063   6.729  0.9897  0.9582 -2.4378
   84MOL0     H11555  10.137   3.035   6.864 -0.0977  0.3997 -1.4586
   84MOL0     H11556  10.346   3.426   6.971  0.2663  2.0872  1.1941
   84MOL0     H11557  10.252   3.406   7.123 -2.0719 -1.4535 -1.9579
   84MOL0     H11558  10.434   3.246   7.200 -1.7784  0.1704 -0.2448
   84MOL0     H11559  10.521   3.284   7.052 -0.6931  1.4419 -1.4414
   84MOL0     H11560  10.468   3.468   7.299 -1.7714  0.9328 -0.8497
   84MOL0     H11561  10.511   3.529   7.132 -1.9346  2.7570  3.1056
   84MOL0     H11562  10.705   3.347   7.179 -1.8867 -1.2446  0.4707
   84MOL0     H11563  10.660   3.377   7.349  2.2986  0.2952  0.9895
   84MOL0     H11564  10.850   3.532   7.238  0.1907 -0.4652 -1.5840
   84MOL0     H11565  10.716   3.590   7.142 -1.7469  0.8886  2.1170
   84MOL0     H11566  10.738   3.606   7.442 -0.5967 -2.7043 -1.0730
   84MOL0     H11567  10.609   3.676   7.341  0.6800  0.2919 -0.8621
   84MOL0     H11568  10.738   3.812   7.231  0.5283  0.0808  0.4762
   84MOL0     H11569  10.894   3.759   7.315  0.3676 -1.7412  0.3914
   84MOL0     H11570  10.830   3.839   7.533 -0.6507 -1.6103  0.5348
   84MOL0     H11571  10.665   3.857   7.482 -0.3568 -0.8437  0.3456
   84MOL0     H11572  10.110   3.443   6.979  2.0932  0.2256 -0.8770
   84MOL0     H11573   9.907   3.480   6.838  3.1550  0.4747  2.9742
   84MOL0     H11574   9.592   3.120   6.604  1.3457 -1.3538 -2.9303
   84MOL0     H11575   9.393   3.061   6.472 -0.4470  1.0693 -0.5070
   84MOL0     H11576   9.528   4.103   5.570 -0.9226 -0.8046  1.1882
   84MOL0     H11577   9.715   4.024   5.674 -0.1546  1.4546 -3.5869
   84MOL0     H11578  10.111   3.614   5.582  0.2850 -3.8729 -0.0365
   84MOL0     H11579  10.291   3.503   5.705 -0.7111 -2.8165  0.8549
   84MOL0     H11580  10.421   3.337   5.918  0.2060 -0.1387 -0.5270
   84MOL0     H11581  10.451   3.491   5.832  3.7381 -1.7397  0.1167
   84MOL0     H11582  10.497   3.609   6.034 -0.4375 -0.1514  0.2983
   84MOL0     H11583  10.621   3.474   6.018 -0.6507 -2.5377 -1.4635
   84MOL0     H11584  10.577   3.483   6.239 -0.0048  0.8052  0.2004
   84MOL0     H11585  10.409   3.501   6.220 -1.0580 -3.1694  0.7311
   84MOL0     H11586  10.459   3.247   6.101 -0.1174  1.3712 -1.7330
   84MOL0     H11587  10.423   3.264   6.277  1.1135 -1.1940  0.9873
   84MOL0     H11588  10.821   3.142   6.273 -0.6033  0.0307  1.1597
   84MOL0     H11589  10.081   3.602   6.069 -0.3214  0.9419 -0.3188
   84MOL0     H11590   9.843   3.810   5.974  2.0516  0.6159 -2.0070
   84MOL0     H11591   9.784   3.646   5.954 -0.6331  0.4329  1.3903
   84MOL0     H11592   9.902   3.698   6.089  0.1663  1.3036  0.5264
   85MOL0     O11593   7.432   1.356   7.175 -0.2010 -0.3740 -0.0521
   85MOL0     C11594   7.347   1.295   7.108 -0.2574 -0.0206  0.2179
   85MOL0     O11595   7.381   1.195   7.028  0.9116  0.3607  0.3349
   85MOL0     C11596   7.501   1.126   7.029  1.1565 -0.5709  0.3006
   85MOL0     C11597   7.517   1.042   6.918  0.2177 -0.6959 -0.1364
   85MOL0     C11598   7.640   0.974   6.903 -0.2220  0.1847  0.1852
   85MOL0     C11599   7.743   0.980   6.998 -0.2146  0.2170  0.1599
   85MOL0     O11600   7.851   0.897   6.986 -0.6266 -0.6811 -0.6645
   85MOL0     C11601   7.974   0.968   6.978  0.0325 -0.6409  0.3246
   85MOL0     C11602   8.083   0.860   6.958 -1.8051 -0.1947 -0.4707
   85MOL0     C11603   8.211   0.914   6.883 -0.6120 -0.8207 -0.3714
   85MOL0     C11604   8.285   1.023   6.963 -0.5661  0.3949 -0.7510
   85MOL0     C11605   8.388   1.090   6.872 -0.4775  0.1478  0.7823
   85MOL0     C11606   8.497   1.154   6.952 -0.6648  0.2866  0.8706
   85MOL0     C11607   8.581   1.257   6.869  0.0830 -0.3003 -0.1219
   85MOL0     C11608   8.672   1.180   6.758  0.2632 -1.0790  0.4978
   85MOL0     N11609   8.782   1.252   6.699 -0.5933  0.1168 -0.4973
   85MOL0     C11610   8.899   1.248   6.771  0.2936 -0.3958  0.2378
   85MOL0     C11611   8.961   1.359   6.735 -0.5572  0.0580  0.3548
   85MOL0     C11612   9.103   1.391   6.774 -0.0500  1.2230  0.1762
   85MOL0     C11613   9.123   1.425   6.922 -0.3808  0.6598 -0.4409
   85MOL0     C11614   9.034   1.535   6.972 -0.8299  0.2442 -0.6136
   85MOL0     C11615   9.056   1.573   7.123  0.8378 -0.1741  0.0163
   85MOL0     O11616   9.024   1.456   7.202  0.0851 -0.5244  0.3889
   85MOL0     C11617   9.060   1.453   7.329 -0.2821 -0.7032  0.3455
   85MOL0     C11618   9.012   1.542   7.430  0.6092 -0.4436  0.3325
   85MOL0     C11619   9.067   1.534   7.563  0.0731 -0.7113 -0.4640
   85MOL0     C11620   9.019   1.633   7.668  0.5059 -0.0399 -0.9321
   85MOL0     C11621   9.169   1.437   7.595  0.3097  0.1496  0.1296
   85MOL0     C11622   9.215   1.401   7.727 -0.0477 -0.1596 -0.1822
   85MOL0     O11623   9.177   1.474   7.836 -0.2397  0.1195 -0.4734
   85MOL0     C11624   9.259   1.459   7.945  0.7920  0.3635  0.4484
   85MOL0     C11625   9.264   1.333   8.011  0.1590 -0.3625 -0.7714
   85MOL0     C11626   9.345   1.304   8.123 -0.4361 -0.6486  0.4408
   85MOL0     C11627   9.439   1.403   8.170  0.0765  0.8784  0.9353
   85MOL0     O11628   9.526   1.380   8.277  0.2159 -0.1238  0.7249
   85MOL0     C11629   9.510   1.280   8.367 -0.7725  0.6666  0.1629
   85MOL0     C11630   9.598   1.304   8.487  0.6100 -0.8409  0.1080
   85MOL0     C11631   9.742   1.288   8.458 -0.1769  0.8964  0.0935
   85MOL0     C11632   9.833   1.332   8.564 -0.5740  0.3139 -0.0324
   85MOL0     C11633   9.976   1.327   8.515 -0.3412  0.1428 -0.5443
   85MOL0     C11634  10.081   1.377   8.623 -0.4112 -0.0357 -0.2860
   85MOL0     C11635  10.225   1.366   8.563  0.3483 -0.2583 -0.2264
   85MOL0     C11636  10.337   1.439   8.642  1.1456  0.8133  0.0054
   85MOL0    Cl11637  10.364   1.352   8.791  0.0640 -0.4330  0.0069
   85MOL0     C11638   9.430   1.533   8.104 -0.1936  0.4448  0.0580
   85MOL0     C11639   9.342   1.557   7.994  0.2102 -0.2245 -0.3870
   85MOL0     O11640   9.281   1.301   7.729 -0.1077  0.1502  0.3846
   85MOL0     C11641   9.201   1.344   7.487  0.2112  0.0956  0.6643
   85MOL0     C11642   9.159   1.366   7.357  0.0524  0.8805 -0.5909
   85MOL0     N11643   8.879   1.431   6.652  0.5843  0.1188 -0.1307
   85MOL0     N11644   8.768   1.365   6.634 -0.5517  0.2519  0.3358
   85MOL0     C11645   7.725   1.056   7.111  0.0508 -0.2012 -0.1765
   85MOL0     C11646   7.610   1.130   7.123 -0.5176  0.3683  1.0001
   85MOL0     C11647   7.212   1.358   7.116 -0.4897  0.4356 -0.5856
   85MOL0     C11648   7.201   1.491   7.159  0.1456  0.3927  1.1644
   85MOL0     C11649   7.073   1.558   7.165 -0.3233 -0.5495 -0.3983
   85MOL0     C11650   6.955   1.496   7.128 -0.2167 -0.2366 -0.2942
   85MOL0     O11651   6.839   1.562   7.139 -0.2835 -0.5615  0.3959
   85MOL0     C11652   6.713   1.503   7.110 -0.2783  0.2194 -0.0569
   85MOL0     C11653   6.668   1.418   7.228 -1.2943 -0.0915  1.0208
   85MOL0     C11654   6.542   1.333   7.206  0.2060 -0.7049  0.7794
   85MOL0     C11655   6.507   1.273   7.332 -0.8707 -0.1333 -0.5836
   85MOL0     C11656   6.450   1.372   7.434 -0.7425  0.2897 -0.2935
   85MOL0     C11657   6.405   1.441   7.526  0.2442  0.1235 -0.2735
   85MOL0     C11658   6.971   1.363   7.070  0.1764 -0.0507  0.6054
   85MOL0     C11659   7.092   1.289   7.076  1.0437  0.5057 -0.1843
   85MOL0     C11660   7.078   1.141   7.025  0.2281 -1.2875 -0.5339
   85MOL0     H11661   7.435   1.045   6.847 -0.5340 -0.0354  0.7391
   85MOL0     H11662   7.656   0.916   6.812  0.6941  4.0245 -2.3058
   85MOL0     H11663   7.991   1.034   7.063  1.1879 -2.0558  1.2411
   85MOL0     H11664   7.977   1.029   6.888  0.3543 -2.0355 -0.6457
   85MOL0     H11665   8.105   0.827   7.061  2.9529  2.1954 -0.4573
   85MOL0     H11666   8.038   0.775   6.905 -0.0473 -0.8466 -0.9790
   85MOL0     H11667   8.279   0.831   6.861 -0.5761 -0.2847 -2.5113
   85MOL0     H11668   8.182   0.955   6.786 -1.8314  0.0658  0.3276
   85MOL0     H11669   8.220   1.103   6.999 -0.0400  0.4090  0.2191
   85MOL0     H11670   8.332   0.970   7.046  0.3648  1.9415 -0.2456
   85MOL0     H11671   8.348   1.167   6.805  1.6948 -0.0640 -0.8455
   85MOL0     H11672   8.423   1.012   6.803  0.6142  1.2901  0.0233
   85MOL0     H11673   8.443   1.206   7.032 -0.3588 -1.0912  2.0157
   85MOL0     H11674   8.553   1.082   7.014 -1.9029 -0.4929  1.1255
   85MOL0     H11675   8.653   1.317   6.927 -0.4991  1.3769 -1.0809
   85MOL0     H11676   8.518   1.327   6.815  0.8852 -0.1210 -0.8417
   85MOL0     H11677   8.697   1.082   6.799 -0.3545 -0.9611  1.1675
   85MOL0     H11678   8.612   1.150   6.672 -1.5959  0.2795  1.2448
   85MOL0     H11679   8.940   1.157   6.814  1.8581  0.7924  1.3452
   85MOL0     H11680   9.133   1.479   6.716 -2.4574  1.6450 -0.5198
   85MOL0     H11681   9.163   1.303   6.752 -0.9789  0.2690  1.3302
   85MOL0     H11682   9.099   1.338   6.983 -0.6332  1.2094  0.2615
   85MOL0     H11683   9.229   1.451   6.932  0.8257 -4.0664  1.7260
   85MOL0     H11684   9.062   1.624   6.916  0.5244 -0.9044 -1.8402
   85MOL0     H11685   8.928   1.516   6.953 -0.5370 -1.5684 -0.6616
   85MOL0     H11686   9.159   1.607   7.142  1.3284 -0.0393 -2.4716
   85MOL0     H11687   8.989   1.655   7.148  1.7324  0.6919 -0.3489
   85MOL0     H11688   8.940   1.620   7.410  0.9508  0.6062  2.8046
   85MOL0     H11689   8.964   1.718   7.627  0.0640  1.1789  1.9540
   85MOL0     H11690   9.105   1.680   7.717  0.2615 -0.6542  0.1245
   85MOL0     H11691   8.953   1.576   7.735  3.0124  0.5821  2.3262
   85MOL0     H11692   9.206   1.243   7.993 -0.7367 -0.6017  2.6528
   85MOL0     H11693   9.342   1.205   8.167  0.1742 -0.5688  0.6679
   85MOL0     H11694   9.406   1.263   8.398 -0.7576 -1.3286 -0.7095
   85MOL0     H11695   9.525   1.181   8.324 -1.3925 -0.0246  1.4983
   85MOL0     H11696   9.569   1.406   8.516  1.0321 -0.2007 -1.5642
   85MOL0     H11697   9.581   1.236   8.570 -0.0238  0.7574  1.3494
   85MOL0     H11698   9.759   1.346   8.367  0.1878 -0.6299 -0.8501
   85MOL0     H11699   9.762   1.182   8.439 -1.4460  0.7601 -0.5991
   85MOL0     H11700   9.825   1.261   8.648  0.3535 -1.4839 -1.3958
   85MOL0     H11701   9.805   1.434   8.591  1.5081  1.0167 -0.4061
   85MOL0     H11702  10.009   1.223   8.506 -1.0111 -0.8184  4.8234
   85MOL0     H11703   9.983   1.381   8.420 -1.5439 -0.7744 -1.1981
   85MOL0     H11704  10.078   1.316   8.713  0.9141  2.2040  1.3886
   85MOL0     H11705  10.070   1.482   8.651 -1.3130 -0.2337  0.1131
   85MOL0     H11706  10.221   1.412   8.464 -1.2989 -1.5283 -0.7930
   85MOL0     H11707  10.242   1.259   8.549 -0.8289 -0.3386 -1.2767
   85MOL0     H11708  10.299   1.540   8.663 -0.3475  0.6279 -1.5937
   85MOL0     H11709  10.424   1.457   8.577  0.4969 -0.0889 -1.1547
   85MOL0     H11710   9.497   1.605   8.149  0.2385 -0.8283  1.5329
   85MOL0     H11711   9.349   1.647   7.934  1.5155  0.7147  1.0973
   85MOL0     H11712   9.278   1.267   7.489  0.1596  0.0226  2.8423
   85MOL0     H11713   9.185   1.288   7.286  0.7239 -0.5390  1.1154
   85MOL0     H11714   7.801   1.055   7.188  0.5753 -1.0908 -0.6884
   85MOL0     H11715   7.614   1.206   7.201  0.7196  0.2207  1.0950
   85MOL0     H11716   7.295   1.537   7.190  0.9515 -1.0422  0.9429
   85MOL0     H11717   7.077   1.659   7.207 -1.9507 -1.4277  2.1149
   85MOL0     H11718   6.633   1.574   7.090 -0.2478  0.0662 -0.7711
   85MOL0     H11719   6.730   1.445   7.018  1.1527 -0.6369  0.7033
   85MOL0     H11720   6.660   1.496   7.305  2.4197  3.0447 -1.3965
   85MOL0     H11721   6.748   1.347   7.253 -1.4917 -1.1676 -1.2114
   85MOL0     H11722   6.458   1.395   7.171  1.0508 -0.6704 -1.3166
   85MOL0     H11723   6.569   1.267   7.123  3.9373  1.5503 -0.0161
   85MOL0     H11724   6.581   1.203   7.371 -1.1388  0.6957  1.5172
   85MOL0     H11725   6.427   1.200   7.313 -0.3581 -1.3439  1.5348
   85MOL0     H11726   6.371   1.498   7.611 -0.6591 -1.8438  0.7540
   85MOL0     H11727   6.881   1.311   7.038 -0.0798  0.2641  0.8015
   85MOL0     H11728   6.983   1.090   7.041  0.0957 -0.8937 -0.0492
   85MOL0     H11729   7.103   1.154   6.919  1.2204  0.7817 -0.1091
   85MOL0     H11730   7.150   1.085   7.086 -0.2108  0.2660  1.5320
   86MOL0     O11731   7.068   9.758   9.026 -0.2328  0.7435 -0.2857
   86MOL0     C11732   6.992   9.817   9.103 -0.0573 -1.2231 -0.5676
   86MOL0     O11733   7.022   9.908   9.206 -0.5502  0.1081  0.3576
   86MOL0     C11734   7.153   9.948   9.243  0.1961  0.2991  0.3067
   86MOL0     C11735   7.183  10.070   9.313  0.7810  0.6786 -0.1187
   86MOL0     C11736   7.312  10.110   9.364 -0.0437  0.3918 -0.8399
   86MOL0     C11737   7.423  10.016   9.355 -0.2150 -0.3987  0.7443
   86MOL0     O11738   7.548  10.054   9.408 -0.4399 -0.2086  0.0816
   86MOL0     C11739   7.653   9.963   9.390 -0.3669 -0.0951  0.2934
   86MOL0     C11740   7.766  10.010   9.474  0.2834 -0.0682  0.8076
   86MOL0     C11741   7.881   9.910   9.500  0.4029 -0.1700  0.0648
   86MOL0     C11742   7.971   9.967   9.618  0.1038 -0.2607 -0.5949
   86MOL0     C11743   8.084   9.890   9.660  0.0336 -0.3243 -0.2654
   86MOL0     C11744   8.039   9.753   9.714  0.0639 -0.4132  0.7134
   86MOL0     C11745   8.159   9.682   9.773 -0.0872 -0.1384  0.1879
   86MOL0     C11746   8.105   9.536   9.810 -0.5913  0.5443  0.3794
   86MOL0     N11747   8.176   9.491   9.928 -0.2556  0.6229 -0.4223
   86MOL0     C11748   8.315   9.502   9.950  0.8950 -0.5378  0.3654
   86MOL0     C11749   8.319   9.427  10.066 -0.1067  0.7854  0.8009
   86MOL0     C11750   8.447   9.408  10.149 -0.2256  0.5898 -0.4821
   86MOL0     C11751   8.572   9.472  10.091  0.3506  0.0047 -0.1688
   86MOL0     C11752   8.699   9.436  10.166 -0.2828  1.1664  0.5372
   86MOL0     C11753   8.824   9.497  10.091  0.5219  0.2391  0.1912
   86MOL0     O11754   8.933   9.476  10.188  0.6606 -0.2442 -0.5953
   86MOL0     C11755   9.061   9.525  10.164  0.8020  0.9610  0.0941
   86MOL0     C11756   9.161   9.490  10.251 -0.0856  0.4086 -0.4316
   86MOL0     C11757   9.292   9.537  10.237 -0.6945 -0.0168  0.0168
   86MOL0     C11758   9.393   9.465  10.321 -0.2371  0.4540 -0.3166
   86MOL0     C11759   9.328   9.627  10.126  0.6716 -0.4285 -0.7263
   86MOL0     C11760   9.462   9.669  10.092  0.4871  0.2464  0.6956
   86MOL0     O11761   9.484   9.754   9.987  0.4221 -0.0851 -0.1531
   86MOL0     C11762   9.593   9.815   9.948 -0.6133  1.3714 -0.4384
   86MOL0     C11763   9.593   9.885   9.822 -0.9579 -0.0968 -0.6384
   86MOL0     C11764   9.702   9.952   9.776 -0.5113 -0.2807  0.6528
   86MOL0     C11765   9.830   9.935   9.837 -0.0760 -0.7845 -1.1871
   86MOL0     O11766   9.951   9.988   9.793 -0.9503 -0.0774  0.0083
   86MOL0     C11767   9.961  10.090   9.691  0.7196  1.4692 -0.3342
   86MOL0     C11768   9.956  10.230   9.752 -0.6155 -0.2843  0.0803
   86MOL0     C11769   9.986  10.327   9.640  0.1512  0.3211  0.0942
   86MOL0     C11770   9.988  10.479   9.685  0.3170 -0.2261  0.3017
   86MOL0     C11771   9.858  10.551   9.728  0.3762  0.5967  0.4964
   86MOL0     C11772   9.750  10.560   9.632 -0.4138 -0.0319 -0.7403
   86MOL0     C11773   9.788  10.639   9.506 -0.2947 -0.4439  0.9535
   86MOL0     C11774   9.659  10.681   9.424 -0.3160 -0.0643 -0.5571
   86MOL0    Cl11775   9.675  10.822   9.309 -0.2096  0.7159 -0.0925
   86MOL0     C11776   9.836   9.870   9.962 -0.0786  0.5766 -0.2037
   86MOL0     C11777   9.714   9.811  10.019 -0.6376 -0.5179 -0.2951
   86MOL0     O11778   9.549   9.623  10.161 -0.2830  0.2623  0.5406
   86MOL0     C11779   9.217   9.675  10.046  0.7348  0.5856  0.0650
   86MOL0     C11780   9.090   9.616  10.051  0.3977 -0.2304  0.6383
   86MOL0     N11781   8.198   9.390  10.114  0.1901 -0.1111 -0.1546
   86MOL0     N11782   8.112   9.450  10.044  0.7008 -0.4304  0.0778
   86MOL0     C11783   7.396   9.899   9.279  1.0334 -0.4295  0.5058
   86MOL0     C11784   7.267   9.867   9.231 -0.6980  0.0520  1.8614
   86MOL0     C11785   6.843   9.785   9.084 -0.9916  0.0303 -0.1986
   86MOL0     C11786   6.808   9.691   8.994  0.4515 -0.0260 -1.1883
   86MOL0     C11787   6.682   9.626   8.990  0.8054 -0.4820  0.2644
   86MOL0     C11788   6.580   9.673   9.072  0.7174  0.9189 -0.6658
   86MOL0     O11789   6.461   9.608   9.076  0.1242 -0.1256 -0.5283
   86MOL0     C11790   6.355   9.637   9.166  0.6439  0.2762  0.1227
   86MOL0     C11791   6.365   9.575   9.300 -0.0829  1.6532 -0.4533
   86MOL0     C11792   6.401   9.419   9.285  0.3214 -0.3278 -1.1285
   86MOL0     C11793   6.399   9.341   9.418  0.2153  0.6777 -0.7377
   86MOL0     C11794   6.266   9.310   9.466  0.7685 -0.3082 -0.7259
   86MOL0     C11795   6.157   9.276   9.517 -0.1908 -0.4082  0.5446
   86MOL0     C11796   6.619   9.778   9.158  1.0032 -0.0585 -0.2045
   86MOL0     C11797   6.745   9.837   9.161  0.6425  0.0605 -0.1561
   86MOL0     C11798   6.758   9.951   9.258  0.3589  0.2299 -0.1648
   86MOL0     H11799   7.102  10.141   9.327  0.2335  0.1131 -0.3704
   86MOL0     H11800   7.327  10.192   9.433  1.2646  1.1397 -1.9716
   86MOL0     H11801   7.687   9.959   9.287 -1.5493  0.0409 -0.1160
   86MOL0     H11802   7.630   9.859   9.416 -2.0712  0.1176 -0.2553
   86MOL0     H11803   7.808  10.097   9.423 -3.2961  0.4292 -1.6587
   86MOL0     H11804   7.729  10.031   9.575  2.2472 -0.7734  1.7308
   86MOL0     H11805   7.828   9.820   9.532 -1.4722  0.0436 -2.1306
   86MOL0     H11806   7.938   9.896   9.407 -0.3355 -0.5033 -0.3480
   86MOL0     H11807   8.010  10.064   9.586 -0.4235 -0.8948 -3.4150
   86MOL0     H11808   7.905   9.980   9.705 -0.3052 -0.6199 -0.8455
   86MOL0     H11809   8.112   9.935   9.756  1.2265 -1.0269 -0.2696
   86MOL0     H11810   8.165   9.883   9.587  1.1506 -0.2178  0.9231
   86MOL0     H11811   7.952   9.773   9.778 -1.3331  0.1405 -1.2588
   86MOL0     H11812   7.989   9.697   9.634 -1.5544  1.9476 -0.0294
   86MOL0     H11813   8.204   9.731   9.860  0.0514  2.7718 -1.4107
   86MOL0     H11814   8.237   9.675   9.697 -1.9929  1.5985 -2.0777
   86MOL0     H11815   7.999   9.512   9.824 -0.0031 -2.0190  0.9712
   86MOL0     H11816   8.135   9.472   9.726 -1.8949  1.0799 -0.5383
   86MOL0     H11817   8.395   9.542   9.889  0.9138 -1.7574 -0.4395
   86MOL0     H11818   8.471   9.301  10.151  2.2727  1.0672 -0.8621
   86MOL0     H11819   8.425   9.447  10.249 -1.0212  1.6041 -1.0406
   86MOL0     H11820   8.578   9.431   9.989  0.7789  2.6116 -1.2694
   86MOL0     H11821   8.563   9.580  10.080 -0.1418 -0.1870 -2.0210
   86MOL0     H11822   8.698   9.485  10.264  0.4749  2.7660 -0.2157
   86MOL0     H11823   8.702   9.327  10.157 -3.3223  0.8457  2.2829
   86MOL0     H11824   8.842   9.436  10.002  0.0423 -2.4545  1.8308
   86MOL0     H11825   8.806   9.602  10.066 -4.0474  0.1910  2.3770
   86MOL0     H11826   9.133   9.413  10.322 -0.3017 -0.3807 -1.3503
   86MOL0     H11827   9.342   9.406  10.398  2.1226  0.5694  1.4350
   86MOL0     H11828   9.461   9.522  10.385 -3.0489  3.4205  0.3189
   86MOL0     H11829   9.457   9.398  10.264  2.7585 -0.9849  4.2350
   86MOL0     H11830   9.507   9.898   9.758 -1.7064 -1.1162  0.1276
   86MOL0     H11831   9.702   9.991   9.675  0.1745  0.8636  1.0801
   86MOL0     H11832  10.057  10.081   9.639  0.0849  2.1947 -1.6850
   86MOL0     H11833   9.884  10.070   9.616  1.4173 -1.9782 -0.3238
   86MOL0     H11834   9.861  10.262   9.796 -1.1596 -1.7905  0.0704
   86MOL0     H11835  10.030  10.253   9.829 -1.2851  0.4004  0.5350
   86MOL0     H11836   9.916  10.316   9.556  1.7667  0.1359 -1.2865
   86MOL0     H11837  10.081  10.300   9.592 -1.5053 -1.8385 -2.2713
   86MOL0     H11838  10.024  10.533   9.598 -1.3363 -1.2751 -1.0900
   86MOL0     H11839  10.059  10.487   9.768  0.1781 -1.6794  0.5883
   86MOL0     H11840   9.816  10.505   9.818 -1.4509 -2.1481 -1.6013
   86MOL0     H11841   9.874  10.655   9.756 -2.1207  0.7590  1.5183
   86MOL0     H11842   9.674  10.609   9.693  1.4634  2.0223  0.1045
   86MOL0     H11843   9.713  10.459   9.609 -2.9595  0.5509  0.4168
   86MOL0     H11844   9.852  10.575   9.444 -1.9273 -1.6027  0.4130
   86MOL0     H11845   9.843  10.730   9.529 -1.4886 -0.3060  3.6418
   86MOL0     H11846   9.579  10.709   9.494  0.8851 -0.2444  0.9548
   86MOL0     H11847   9.630  10.591   9.369  1.4564 -1.5938  0.8441
   86MOL0     H11848   9.934   9.873  10.008 -1.6148 -1.4647  3.5896
   86MOL0     H11849   9.729   9.770  10.119  0.5155 -1.1004 -0.6853
   86MOL0     H11850   9.241   9.744   9.966  0.7419  0.3353 -0.1480
   86MOL0     H11851   9.015   9.635   9.975  1.5902  1.7668 -0.1379
   86MOL0     H11852   7.469   9.819   9.273  0.5787 -1.3074  4.0338
   86MOL0     H11853   7.258   9.767   9.189  0.6971  0.7956 -0.3760
   86MOL0     H11854   6.900   9.640   8.963  2.1046  0.3999  2.5172
   86MOL0     H11855   6.660   9.542   8.924  0.7603 -1.1579  1.1224
   86MOL0     H11856   6.332   9.744   9.169  0.0912  0.1604  0.2083
   86MOL0     H11857   6.271   9.589   9.114  1.3786 -1.5703  0.5472
   86MOL0     H11858   6.270   9.589   9.351 -1.0413  0.7739 -1.9309
   86MOL0     H11859   6.437   9.631   9.362  3.3221 -0.4438 -2.2035
   86MOL0     H11860   6.337   9.360   9.220  1.4715 -2.6334 -0.3079
   86MOL0     H11861   6.502   9.415   9.243  0.2056 -0.9257 -1.3538
   86MOL0     H11862   6.434   9.407   9.497  1.8532 -1.3991  0.3774
   86MOL0     H11863   6.459   9.250   9.422 -0.0482  0.5543  1.4011
   86MOL0     H11864   6.065   9.237   9.556 -1.4964  0.9495 -1.0423
   86MOL0     H11865   6.545   9.823   9.224 -1.7762 -1.2876 -2.2740
   86MOL0     H11866   6.795   9.904   9.349 -1.3123  0.0130  0.4408
   86MOL0     H11867   6.823  10.036   9.235 -1.2157  1.4223 -0.4069
   86MOL0     H11868   6.661   9.995   9.285 -0.6770 -0.1121 -2.9209
   87MOL0     O11869   3.049   6.020   8.821  0.5043  0.6730  0.3029
   87MOL0     C11870   2.939   5.966   8.820 -0.4179 -0.0892 -0.7643
   87MOL0     O11871   2.862   5.948   8.717 -0.1375  0.0150 -0.4664
   87MOL0     C11872   2.900   6.003   8.596  0.3469 -0.2084 -0.6775
   87MOL0     C11873   2.959   5.924   8.501 -1.0179 -0.1941 -0.1644
   87MOL0     C11874   3.005   5.967   8.373  1.0913 -0.1529 -0.0972
   87MOL0     C11875   2.980   6.096   8.335 -0.6353 -1.1608 -1.3049
   87MOL0     O11876   3.025   6.160   8.222  1.0864  0.6543 -0.5534
   87MOL0     C11877   3.155   6.114   8.185 -0.4971  0.4731 -0.4449
   87MOL0     C11878   3.222   6.215   8.113 -0.0527 -0.3211  1.1109
   87MOL0     C11879   3.368   6.165   8.063  0.5019  0.2962 -0.7070
   87MOL0     C11880   3.458   6.259   7.972  0.3432 -0.2666 -0.2879
   87MOL0     C11881   3.594   6.204   7.944 -0.2249  0.0555  0.0124
   87MOL0     C11882   3.695   6.227   8.058 -0.1276 -0.0586 -0.9875
   87MOL0     C11883   3.839   6.217   8.003  1.2483  1.1324  0.1040
   87MOL0     C11884   3.934   6.198   8.130  1.0225 -0.0151  0.1520
   87MOL0     N11885   4.049   6.288   8.140  0.4809 -0.1364 -0.8234
   87MOL0     C11886   4.163   6.290   8.072 -0.5584  1.4112 -0.1932
   87MOL0     C11887   4.252   6.355   8.145  0.4034  0.4158  0.2804
   87MOL0     C11888   4.395   6.369   8.117 -0.4793  0.8071  0.2367
   87MOL0     C11889   4.474   6.300   8.226 -0.6423  0.3274  0.2918
   87MOL0     C11890   4.623   6.301   8.196  0.6956 -0.0006 -0.2775
   87MOL0     C11891   4.693   6.224   8.302 -0.0850  0.4472 -1.0834
   87MOL0     O11892   4.831   6.248   8.282  0.1907  0.4873  0.1267
   87MOL0     C11893   4.916   6.222   8.386  0.2080  0.0378 -0.3947
   87MOL0     C11894   4.905   6.296   8.503  0.0812 -0.1797 -0.8396
   87MOL0     C11895   4.997   6.273   8.613  0.3066  0.4045 -0.5372
   87MOL0     C11896   4.986   6.367   8.724 -0.8618 -0.3114 -0.4239
   87MOL0     C11897   5.108   6.183   8.599  0.5973  0.1333  0.5772
   87MOL0     C11898   5.219   6.173   8.706  0.3873 -0.3238  0.0176
   87MOL0     O11899   5.334   6.142   8.646 -0.0503 -0.3130  0.1517
   87MOL0     C11900   5.439   6.069   8.691 -0.2406 -0.1459 -0.4573
   87MOL0     C11901   5.567   6.134   8.696 -0.2136  0.0714 -0.5632
   87MOL0     C11902   5.674   6.051   8.741  0.2505 -0.0921  1.0920
   87MOL0     C11903   5.661   5.924   8.795 -0.0208  0.2798  0.0378
   87MOL0     O11904   5.768   5.858   8.840  0.3408  0.9395  0.0476
   87MOL0     C11905   5.740   5.743   8.937 -0.6501 -0.1154  0.0835
   87MOL0     C11906   5.876   5.693   8.963 -0.9340  0.3279  0.0289
   87MOL0     C11907   5.963   5.805   9.024 -0.3002  0.3265 -0.5307
   87MOL0     C11908   6.105   5.744   9.018 -0.0580  0.3363  0.2551
   87MOL0     C11909   6.214   5.847   9.048  0.4871 -0.4852 -0.2616
   87MOL0     C11910   6.242   5.944   8.945 -0.1035 -0.2204  1.2299
   87MOL0     C11911   6.359   6.037   8.965 -1.2233  0.2274 -0.6489
   87MOL0     C11912   6.490   5.976   8.919 -0.5116  0.2000  0.2094
   87MOL0    Cl11913   6.509   5.959   8.741  0.0371  0.3462  0.1512
   87MOL0     C11914   5.525   5.874   8.811  0.1423  0.0461 -0.1089
   87MOL0     C11915   5.416   5.945   8.758 -0.1754 -0.3520  0.6303
   87MOL0     O11916   5.195   6.175   8.825  0.2732 -0.2964  0.8254
   87MOL0     C11917   5.125   6.126   8.470  0.4101  0.7184 -0.2238
   87MOL0     C11918   5.033   6.148   8.366 -0.0332 -0.2722 -0.5985
   87MOL0     N11919   4.185   6.392   8.262 -0.1133 -0.8433 -0.1438
   87MOL0     N11920   4.068   6.355   8.258 -0.3836  0.0724 -0.0786
   87MOL0     C11921   2.931   6.182   8.434 -0.2068  0.1482 -0.1807
   87MOL0     C11922   2.892   6.138   8.562 -0.5099  0.2537 -1.0920
   87MOL0     C11923   2.886   5.922   8.957  0.2772 -0.7051  0.3716
   87MOL0     C11924   2.982   5.900   9.060  0.5475  1.2277  0.9069
   87MOL0     C11925   2.942   5.840   9.182 -0.5597 -0.2721  0.6161
   87MOL0     C11926   2.814   5.804   9.211 -0.5288  0.1910 -0.7063
   87MOL0     O11927   2.774   5.759   9.338  0.0316 -0.3660  0.0946
   87MOL0     C11928   2.871   5.694   9.427 -0.4234 -1.0395 -0.3359
   87MOL0     C11929   2.822   5.704   9.568  0.5472 -0.1075 -0.7718
   87MOL0     C11930   2.816   5.847   9.626 -0.1351  0.4386 -0.5523
   87MOL0     C11931   2.949   5.911   9.667 -0.0736  0.4250  0.2703
   87MOL0     C11932   3.025   5.968   9.556  0.4295 -0.7974 -0.9464
   87MOL0     C11933   3.085   6.027   9.465  0.7333 -0.0606  0.2449
   87MOL0     C11934   2.723   5.839   9.120 -1.3638  0.4649 -0.4469
   87MOL0     C11935   2.750   5.898   8.994  0.0918 -0.5100  0.2107
   87MOL0     C11936   2.634   5.912   8.912  0.1936 -0.8628  0.7591
   87MOL0     H11937   2.972   5.820   8.529  0.2051  0.1497  0.6087
   87MOL0     H11938   3.070   5.905   8.313  2.8617  0.5597  0.9690
   87MOL0     H11939   3.137   6.024   8.126 -2.1017 -1.0341  2.1419
   87MOL0     H11940   3.223   6.090   8.268  1.5911  2.6459 -1.4096
   87MOL0     H11941   3.166   6.242   8.023 -0.7090 -0.4805  1.4690
   87MOL0     H11942   3.240   6.309   8.166  2.3158  1.1474 -1.9625
   87MOL0     H11943   3.414   6.128   8.154 -2.1891 -0.4689  0.4655
   87MOL0     H11944   3.347   6.074   8.005  1.1136  1.4742 -2.8834
   87MOL0     H11945   3.403   6.269   7.878 -3.9341 -1.9193  1.7273
   87MOL0     H11946   3.450   6.359   8.018 -3.3220 -0.9386  0.8994
   87MOL0     H11947   3.631   6.246   7.850 -0.1731 -0.2505 -0.1073
   87MOL0     H11948   3.587   6.096   7.928 -2.3500  0.3764 -1.7301
   87MOL0     H11949   3.675   6.325   8.103  0.8244  1.3903 -3.5221
   87MOL0     H11950   3.678   6.149   8.133  2.4831  1.4636  1.3630
   87MOL0     H11951   3.862   6.308   7.948 -0.7711  1.6910  0.1213
   87MOL0     H11952   3.842   6.132   7.934 -2.9107  1.9172 -1.3217
   87MOL0     H11953   3.873   6.199   8.222 -1.5630  3.5084 -1.3748
   87MOL0     H11954   3.969   6.095   8.118  0.2755 -0.2401 -0.1654
   87MOL0     H11955   4.193   6.252   7.975 -2.0027 -1.8638  0.5068
   87MOL0     H11956   4.408   6.477   8.122 -0.5946  0.7858  3.9191
   87MOL0     H11957   4.412   6.319   8.022 -1.0932 -0.1902  0.6363
   87MOL0     H11958   4.452   6.346   8.322  1.0839 -1.2449  1.4978
   87MOL0     H11959   4.438   6.198   8.246  0.5852 -0.7099 -2.2781
   87MOL0     H11960   4.646   6.250   8.102 -1.1913  1.3276 -1.5177
   87MOL0     H11961   4.653   6.406   8.196 -1.3096  0.6021 -0.2916
   87MOL0     H11962   4.662   6.265   8.398  0.6929  4.2519 -2.2518
   87MOL0     H11963   4.668   6.119   8.290  1.7728  0.0689 -2.0625
   87MOL0     H11964   4.833   6.377   8.516  0.1519 -0.1125 -0.8679
   87MOL0     H11965   5.017   6.334   8.824  0.0837  0.5721 -0.4055
   87MOL0     H11966   4.883   6.402   8.738 -1.2357 -0.8399 -1.7396
   87MOL0     H11967   5.043   6.455   8.692  1.7510 -1.4824  0.7115
   87MOL0     H11968   5.589   6.229   8.649  1.5592 -0.0377 -0.0366
   87MOL0     H11969   5.773   6.097   8.747 -0.1318  0.9832 -0.3880
   87MOL0     H11970   5.692   5.765   9.033 -2.4348 -1.1271 -0.5221
   87MOL0     H11971   5.675   5.668   8.892 -1.8174 -0.0028  1.4959
   87MOL0     H11972   5.865   5.606   9.028 -1.4150  0.1005 -0.3554
   87MOL0     H11973   5.914   5.663   8.865 -1.5746  0.0617 -0.1451
   87MOL0     H11974   5.940   5.826   9.128  1.2739  0.3139 -0.1462
   87MOL0     H11975   5.959   5.898   8.966 -0.4805  2.8500  3.2174
   87MOL0     H11976   6.134   5.685   8.931 -0.3449 -0.6086  0.7797
   87MOL0     H11977   6.086   5.675   9.102 -2.6895  0.1095 -0.4442
   87MOL0     H11978   6.184   5.907   9.135 -2.3033 -2.1714  0.0720
   87MOL0     H11979   6.311   5.806   9.076  0.5142  0.0769  0.5275
   87MOL0     H11980   6.160   6.015   8.927  0.3603 -0.1653 -1.0128
   87MOL0     H11981   6.258   5.887   8.853 -1.8858 -4.0150  3.0731
   87MOL0     H11982   6.363   6.064   9.071 -0.0169  1.2011 -0.9141
   87MOL0     H11983   6.347   6.128   8.905 -0.8879  0.1741 -0.8002
   87MOL0     H11984   6.503   5.877   8.964 -0.3277  0.6006  1.0582
   87MOL0     H11985   6.574   6.032   8.961 -0.5788 -1.3735  2.5973
   87MOL0     H11986   5.497   5.777   8.852  0.7033 -0.1820 -0.2456
   87MOL0     H11987   5.311   5.925   8.775 -1.2525  1.5178 -2.9269
   87MOL0     H11988   5.191   6.044   8.446  0.5851  1.0182 -0.7947
   87MOL0     H11989   5.044   6.097   8.270  0.5982  2.0771 -1.8485
   87MOL0     H11990   2.929   6.286   8.402  2.9448  1.1883  2.4667
   87MOL0     H11991   2.869   6.212   8.638  2.9813 -2.5197  3.2671
   87MOL0     H11992   3.087   5.919   9.041  0.7511 -2.5377 -3.7165
   87MOL0     H11993   3.024   5.819   9.249  0.1573 -4.2757 -1.2217
   87MOL0     H11994   2.878   5.589   9.401 -0.2880 -0.8610 -1.0250
   87MOL0     H11995   2.968   5.744   9.419 -0.8919 -0.4012 -2.5489
   87MOL0     H11996   2.865   5.632   9.639 -0.0996 -1.7992 -2.0501
   87MOL0     H11997   2.720   5.666   9.573  0.5424  0.0315  0.5143
   87MOL0     H11998   2.760   5.916   9.562  0.3577 -0.0690 -1.5584
   87MOL0     H11999   2.761   5.840   9.720  0.9553  2.1619  0.2562
   87MOL0     H12000   3.007   5.831   9.713  1.1448 -0.4932 -2.6243
   87MOL0     H12001   2.929   5.987   9.744 -1.7305 -0.2985  0.5919
   87MOL0     H12002   3.136   6.078   9.385  1.4904 -2.9421 -1.2669
   87MOL0     H12003   2.626   5.822   9.165  0.3340 -0.8950  3.0845
   87MOL0     H12004   2.641   5.996   8.843 -0.1211 -2.1134 -0.8603
   87MOL0     H12005   2.636   5.825   8.846  0.0718  0.7465 -1.4500
   87MOL0     H12006   2.547   5.924   8.978 -0.1226  3.3097 -0.1428
   88MOL0     O12007  10.634   3.942   8.803  0.3741 -0.1228 -0.1222
   88MOL0     C12008  10.609   3.953   8.918  0.3628  1.1279  0.2029
   88MOL0     O12009  10.679   3.891   9.018  0.5268  0.1736 -0.3879
   88MOL0     C12010  10.801   3.849   8.975  0.5445 -0.0288  0.4825
   88MOL0     C12011  10.909   3.940   8.975  0.0107 -0.0155 -0.0817
   88MOL0     C12012  11.031   3.896   8.913 -0.3643 -0.0282  0.2226
   88MOL0     C12013  11.049   3.771   8.863 -0.9750 -0.3301 -0.1286
   88MOL0     O12014  11.170   3.731   8.804 -0.5840 -0.4323 -0.2514
   88MOL0     C12015  11.266   3.816   8.741  0.6850 -1.3398  0.4510
   88MOL0     C12016  11.368   3.731   8.673 -0.3107  0.2416 -0.0535
   88MOL0     C12017  11.468   3.815   8.592  0.0304 -0.1880 -0.0568
   88MOL0     C12018  11.594   3.735   8.553 -0.4911 -0.2479  0.4890
   88MOL0     C12019  11.689   3.826   8.470 -0.4214  0.3529  0.3040
   88MOL0     C12020  11.639   3.838   8.317  0.8026 -0.3975 -0.0070
   88MOL0     C12021  11.733   3.916   8.230  0.7751  0.1917  0.2186
   88MOL0     C12022  11.726   4.072   8.265  0.1473 -0.7400  0.9666
   88MOL0     N12023  11.846   4.150   8.235  0.1888  0.1441 -0.0323
   88MOL0     C12024  11.965   4.154   8.313  0.5083 -0.4258  0.4270
   88MOL0     C12025  12.043   4.240   8.247  0.2976  0.7772 -0.4769
   88MOL0     C12026  12.175   4.287   8.300  1.0972 -0.4467 -0.6291
   88MOL0     C12027  12.297   4.202   8.246  0.4488 -0.2439  0.4200
   88MOL0     C12028  12.424   4.276   8.261 -0.3867 -0.3033  0.0998
   88MOL0     C12029  12.546   4.185   8.225  0.2341  0.7164 -0.6478
   88MOL0     O12030  12.536   4.126   8.095 -0.7280  0.6509  0.5365
   88MOL0     C12031  12.624   4.022   8.081  0.1365 -0.2859  0.2252
   88MOL0     C12032  12.589   3.892   8.081 -0.3023 -0.4523 -0.6303
   88MOL0     C12033  12.690   3.789   8.069 -0.5553 -0.0462  0.3705
   88MOL0     C12034  12.642   3.640   8.079 -0.2008  0.3737  0.4156
   88MOL0     C12035  12.830   3.827   8.052 -0.3722  0.4165  0.7355
   88MOL0     C12036  12.944   3.735   8.022 -0.2146 -0.1007 -0.3979
   88MOL0     O12037  13.073   3.776   8.049  0.4185 -0.2322  1.1569
   88MOL0     C12038  13.168   3.679   8.022  0.1966 -0.5600 -0.4559
   88MOL0     C12039  13.225   3.615   8.134 -0.6717 -0.5259 -0.0940
   88MOL0     C12040  13.337   3.534   8.110  0.2349 -0.3181 -0.0744
   88MOL0     C12041  13.393   3.517   7.977  0.1016  1.3036  0.4136
   88MOL0     O12042  13.486   3.420   7.940  0.0648 -0.4559  0.4823
   88MOL0     C12043  13.558   3.346   8.039 -0.1936  0.2729 -0.8324
   88MOL0     C12044  13.674   3.253   7.976  0.4539  0.4852 -0.2048
   88MOL0     C12045  13.806   3.328   7.971 -0.6737  0.4178  0.1035
   88MOL0     C12046  13.887   3.310   8.109 -0.0513 -0.8152  0.4637
   88MOL0     C12047  13.979   3.187   8.099  0.1329  0.4092  0.5737
   88MOL0     C12048  14.045   3.166   8.232 -0.3678 -0.2639 -0.1245
   88MOL0     C12049  14.126   3.032   8.221  0.3551  0.3882 -0.0837
   88MOL0     C12050  14.230   3.030   8.336  0.8188  0.4401  0.7812
   88MOL0    Cl12051  14.146   3.050   8.487 -0.0892 -0.1639  0.1298
   88MOL0     C12052  13.326   3.586   7.880  0.0806  1.1671 -0.6755
   88MOL0     C12053  13.225   3.675   7.888 -0.8602 -1.0543 -0.3090
   88MOL0     O12054  12.913   3.628   7.956 -0.5353 -0.0958  0.4276
   88MOL0     C12055  12.858   3.957   8.056  0.5033  0.0818  0.1243
   88MOL0     C12056  12.759   4.055   8.071  0.4595 -0.6317  0.9601
   88MOL0     N12057  11.984   4.279   8.127  0.2144 -0.1149  1.1236
   88MOL0     N12058  11.871   4.215   8.122 -0.2497  0.3532  0.1562
   88MOL0     C12059  10.947   3.681   8.868 -0.5767 -0.1462  0.3445
   88MOL0     C12060  10.820   3.718   8.923  1.1651 -0.4608 -0.3743
   88MOL0     C12061  10.487   4.032   8.962 -0.4535 -0.3741  0.0208
   88MOL0     C12062  10.468   4.050   9.105 -0.6280 -0.1206  0.7927
   88MOL0     C12063  10.356   4.107   9.156  0.1884 -0.7108 -0.2572
   88MOL0     C12064  10.259   4.158   9.064  0.1972 -0.2628 -0.3319
   88MOL0     O12065  10.144   4.206   9.114  0.9555 -0.0966 -0.1200
   88MOL0     C12066  10.115   4.226   9.257 -0.1904 -0.0672  0.5623
   88MOL0     C12067  10.172   4.357   9.312  0.0048  0.7710  0.7864
   88MOL0     C12068  10.184   4.344   9.471  0.6547  0.0750  0.5823
   88MOL0     C12069  10.191   4.469   9.553  0.1738 -0.4432 -0.1025
   88MOL0     C12070  10.058   4.534   9.558  0.1947 -0.9751  0.0726
   88MOL0     C12071   9.946   4.580   9.548 -0.1010  0.2282 -0.4232
   88MOL0     C12072  10.288   4.167   8.928  0.9515 -0.4753 -0.2883
   88MOL0     C12073  10.403   4.105   8.871  0.1131  0.5911 -1.2558
   88MOL0     C12074  10.416   4.095   8.721 -0.2239  0.3106  0.1028
   88MOL0     H12075  10.899   4.047   8.990 -1.2423  0.4110 -3.0771
   88MOL0     H12076  11.103   3.973   8.887 -2.1054  1.9223  0.8967
   88MOL0     H12077  11.298   3.888   8.816  0.8276  1.7894 -2.4098
   88MOL0     H12078  11.214   3.865   8.659  1.2060 -3.2825 -1.1099
   88MOL0     H12079  11.431   3.685   8.750 -2.3375  0.8171  2.0761
   88MOL0     H12080  11.318   3.652   8.616  1.1477 -2.1243  1.7628
   88MOL0     H12081  11.418   3.844   8.499 -0.1222  0.2153  0.1508
   88MOL0     H12082  11.501   3.903   8.647 -0.2510 -1.1376  1.6867
   88MOL0     H12083  11.645   3.710   8.646 -0.3912 -2.3695 -0.0973
   88MOL0     H12084  11.581   3.638   8.504 -1.4264 -0.1466  0.5145
   88MOL0     H12085  11.792   3.789   8.473 -0.3653  0.3924 -0.8224
   88MOL0     H12086  11.698   3.925   8.516 -0.5280 -1.3335  4.3033
   88MOL0     H12087  11.620   3.741   8.272  1.0658 -1.6493  2.4099
   88MOL0     H12088  11.544   3.891   8.315  0.7164 -0.5576 -0.0675
   88MOL0     H12089  11.704   3.898   8.126 -1.0741 -0.0785  0.7419
   88MOL0     H12090  11.835   3.880   8.247  0.2155 -2.3265 -1.1597
   88MOL0     H12091  11.645   4.114   8.205  2.1384  0.9382 -0.7194
   88MOL0     H12092  11.716   4.086   8.373  0.5130  0.6886  0.8301
   88MOL0     H12093  11.972   4.110   8.411 -2.5902  1.1608  1.4817
   88MOL0     H12094  12.190   4.277   8.408  4.6647 -0.4418 -0.9838
   88MOL0     H12095  12.186   4.391   8.268  0.6257 -0.2825 -0.2617
   88MOL0     H12096  12.301   4.105   8.295 -0.1431 -0.8476 -0.6943
   88MOL0     H12097  12.273   4.188   8.140 -0.6868  2.7658  0.1569
   88MOL0     H12098  12.430   4.358   8.188  1.6383 -0.0702  0.4533
   88MOL0     H12099  12.437   4.321   8.359  3.1786  0.8828 -0.7549
   88MOL0     H12100  12.636   4.248   8.229  2.3396 -2.0497 -1.1438
   88MOL0     H12101  12.559   4.107   8.302  0.6368  1.7439  0.3551
   88MOL0     H12102  12.488   3.852   8.093 -0.1820 -0.3054  1.1167
   88MOL0     H12103  12.539   3.641   8.113 -1.3401 -0.8641 -2.6542
   88MOL0     H12104  12.702   3.578   8.147  2.9225  2.0126 -0.6460
   88MOL0     H12105  12.651   3.603   7.977  2.0969  1.6056  0.1130
   88MOL0     H12106  13.180   3.632   8.231  0.3538 -5.3796  1.4850
   88MOL0     H12107  13.390   3.490   8.194 -1.8572  1.1476  2.1491
   88MOL0     H12108  13.600   3.407   8.120  3.8001 -3.3830  0.2619
   88MOL0     H12109  13.488   3.280   8.091 -0.1721 -1.7681 -3.1854
   88MOL0     H12110  13.685   3.154   8.023  0.9868 -0.4419 -2.1828
   88MOL0     H12111  13.651   3.227   7.873  2.5883 -1.7061 -0.2188
   88MOL0     H12112  13.782   3.434   7.958  1.4396  0.7284 -1.7332
   88MOL0     H12113  13.862   3.294   7.884 -1.6571 -0.0822 -0.3556
   88MOL0     H12114  13.819   3.298   8.194  0.9712 -1.9600  1.1433
   88MOL0     H12115  13.952   3.397   8.122  1.2957 -1.1072 -3.1578
   88MOL0     H12116  13.918   3.098   8.081 -2.8198  2.3049  0.5142
   88MOL0     H12117  14.048   3.199   8.014 -1.0716 -2.2263 -0.9168
   88MOL0     H12118  13.969   3.160   8.311 -1.3319  0.6180 -0.9643
   88MOL0     H12119  14.108   3.252   8.257 -2.3103  1.4875 -1.0151
   88MOL0     H12120  14.190   3.029   8.132  1.2058 -2.4012  0.5286
   88MOL0     H12121  14.058   2.947   8.207 -0.3888  1.2485 -1.9618
   88MOL0     H12122  14.302   3.112   8.325  1.1869 -0.1727 -2.2925
   88MOL0     H12123  14.285   2.936   8.352 -1.1799 -0.7154  1.2240
   88MOL0     H12124  13.378   3.573   7.786  1.1602  0.0565  0.0460
   88MOL0     H12125  13.199   3.721   7.793  1.0460  2.2495  0.6298
   88MOL0     H12126  12.960   3.990   8.043  1.1330 -0.1325  3.5077
   88MOL0     H12127  12.800   4.154   8.053 -0.4083 -0.7560 -2.3452
   88MOL0     H12128  10.961   3.585   8.819 -0.0471 -1.4751  2.9481
   88MOL0     H12129  10.737   3.648   8.926 -2.8797  3.8991  0.0839
   88MOL0     H12130  10.546   4.024   9.175  1.4219 -2.2834 -2.0798
   88MOL0     H12131  10.350   4.110   9.264  0.7235  0.3409 -0.2482
   88MOL0     H12132  10.007   4.237   9.273 -0.2909  0.7715 -0.5782
   88MOL0     H12133  10.148   4.140   9.317 -4.4588 -1.8738  0.7488
   88MOL0     H12134  10.105   4.438   9.280 -0.5635 -0.0862 -0.2672
   88MOL0     H12135  10.271   4.380   9.272 -0.0945 -0.2994 -0.1130
   88MOL0     H12136  10.089   4.301   9.505 -0.7302  2.7362  0.3957
   88MOL0     H12137  10.264   4.273   9.488  2.0080  0.9487 -1.7376
   88MOL0     H12138  10.264   4.539   9.510  0.7638 -1.1178 -0.1997
   88MOL0     H12139  10.229   4.440   9.651  0.2562 -0.9630 -0.2903
   88MOL0     H12140   9.845   4.616   9.552 -0.2367 -0.0460 -1.1615
   88MOL0     H12141  10.211   4.209   8.865 -1.6290 -1.4462  2.0258
   88MOL0     H12142  10.340   4.159   8.676  1.2947  2.7655  0.8337
   88MOL0     H12143  10.514   4.132   8.691 -1.1002  2.3401 -0.3999
   88MOL0     H12144  10.407   3.990   8.690  0.7845  0.2761 -0.0917
   89MOL0     O12145   3.354  11.089   7.215 -0.3782  0.0983 -0.5095
   89MOL0     C12146   3.313  11.015   7.304 -0.1554  0.3681  0.0212
   89MOL0     O12147   3.395  10.923   7.362  0.2676  0.1722  0.2496
   89MOL0     C12148   3.524  10.966   7.378  0.3233 -0.5530 -0.1869
   89MOL0     C12149   3.631  10.877   7.347 -0.5679 -0.5012  0.8880
   89MOL0     C12150   3.761  10.914   7.355 -0.2998 -0.0064 -0.4269
   89MOL0     C12151   3.798  11.041   7.411 -0.0132  0.2074 -0.1631
   89MOL0     O12152   3.929  11.054   7.448 -0.2777 -0.1864 -0.7663
   89MOL0     C12153   3.978  11.183   7.486 -0.0597 -0.6016 -0.3642
   89MOL0     C12154   4.122  11.174   7.519  0.6083 -0.1842  0.0018
   89MOL0     C12155   4.151  11.097   7.649  0.7600 -0.0835 -0.2491
   89MOL0     C12156   4.302  11.071   7.676 -0.7448 -0.3067  0.2447
   89MOL0     C12157   4.340  11.031   7.816  0.2330  0.3119 -0.3123
   89MOL0     C12158   4.477  11.090   7.856  0.9353 -0.2739 -0.2822
   89MOL0     C12159   4.589  11.047   7.761  0.2636 -0.1500  0.5500
   89MOL0     C12160   4.715  11.132   7.784 -0.2976  0.1527 -0.0891
   89MOL0     N12161   4.790  11.092   7.907  0.2714  0.6123  0.3439
   89MOL0     C12162   4.763  11.138   8.032 -0.3681  0.4102 -0.7818
   89MOL0     C12163   4.841  11.061   8.123 -0.5320 -0.2402  0.5792
   89MOL0     C12164   4.870  11.075   8.272  0.3524 -0.0487 -0.1906
   89MOL0     C12165   5.013  11.118   8.315 -0.6249 -0.0270 -0.4293
   89MOL0     C12166   5.043  11.266   8.274 -0.0947  0.8903  0.3611
   89MOL0     C12167   5.197  11.287   8.279 -0.3646 -0.8411 -0.2071
   89MOL0     O12168   5.257  11.257   8.408  0.2199 -0.1294  0.1719
   89MOL0     C12169   5.381  11.311   8.440 -0.0500  0.1759  0.5461
   89MOL0     C12170   5.393  11.381   8.558 -0.0897 -0.1935 -0.6500
   89MOL0     C12171   5.511  11.443   8.598 -0.9931  0.1127 -0.1249
   89MOL0     C12172   5.521  11.507   8.734  1.0349 -0.0555  0.9173
   89MOL0     C12173   5.617  11.447   8.507 -0.8820  0.6242 -0.2880
   89MOL0     C12174   5.754  11.509   8.530  0.4350  0.0005  0.2716
   89MOL0     O12175   5.823  11.552   8.419 -0.4010  0.0549  0.0344
   89MOL0     C12176   5.959  11.579   8.433 -0.0697  0.7014 -0.2134
   89MOL0     C12177   6.023  11.671   8.520  0.0377  0.0163 -0.4255
   89MOL0     C12178   6.165  11.692   8.516  0.6199 -0.5646 -0.1503
   89MOL0     C12179   6.249  11.622   8.436  0.9658  0.2959 -0.1544
   89MOL0     O12180   6.380  11.659   8.444 -0.2906  0.3292 -0.7796
   89MOL0     C12181   6.464  11.607   8.339 -0.4166  0.0779  0.2967
   89MOL0     C12182   6.611  11.647   8.368  0.2619 -0.6586 -0.0119
   89MOL0     C12183   6.705  11.584   8.272  0.0142 -1.0108  0.3213
   89MOL0     C12184   6.841  11.640   8.259  0.2385 -0.1774 -0.8360
   89MOL0     C12185   6.910  11.596   8.125 -0.2808 -0.0396  0.5490
   89MOL0     C12186   7.056  11.640   8.124  0.1580 -0.1965  0.3045
   89MOL0     C12187   7.134  11.568   8.022 -0.8928 -0.5054  0.1043
   89MOL0     C12188   7.206  11.658   7.920 -0.1908 -0.0684 -0.3272
   89MOL0    Cl12189   7.077  11.729   7.819  0.0867 -0.1006  0.1420
   89MOL0     C12190   6.185  11.540   8.344 -0.0409 -0.4339  0.6728
   89MOL0     C12191   6.046  11.520   8.335  0.6374  0.4945  0.0472
   89MOL0     O12192   5.795  11.517   8.645  0.5645 -0.0972  0.6481
   89MOL0     C12193   5.597  11.390   8.385 -0.1692 -0.6420  0.0211
   89MOL0     C12194   5.485  11.319   8.345  0.0546  0.0175 -0.1273
   89MOL0     N12195   4.903  10.969   8.047  0.4419 -0.5613  0.6232
   89MOL0     N12196   4.875  10.989   7.921  0.0733  0.1296 -0.2145
   89MOL0     C12197   3.695  11.130   7.444  0.2383  0.0652  0.4637
   89MOL0     C12198   3.558  11.092   7.429  0.1935  0.3293  1.1819
   89MOL0     C12199   3.179  11.031   7.361 -0.3346 -0.2985 -0.2914
   89MOL0     C12200   3.115  10.922   7.413 -0.1242  0.0435 -1.0789
   89MOL0     C12201   2.989  10.925   7.469 -0.1196  0.2754 -1.4872
   89MOL0     C12202   2.917  11.049   7.472  0.5007  0.5848 -0.8328
   89MOL0     O12203   2.802  11.044   7.544  0.4315  0.5772  1.2970
   89MOL0     C12204   2.693  11.130   7.512 -0.7544  0.1561  0.0997
   89MOL0     C12205   2.637  11.139   7.366  1.1950 -0.0304 -0.1300
   89MOL0     C12206   2.687  11.263   7.287 -0.0812  1.5281  0.4592
   89MOL0     C12207   2.623  11.274   7.148  0.1592  0.0637 -0.1675
   89MOL0     C12208   2.636  11.153   7.073  0.6471 -0.2954  0.2115
   89MOL0     C12209   2.661  11.057   6.999 -0.2995  0.2704  0.1709
   89MOL0     C12210   2.980  11.156   7.411 -0.6365 -0.8061 -0.1750
   89MOL0     C12211   3.102  11.151   7.346 -0.6759  0.3593  0.0172
   89MOL0     C12212   3.162  11.277   7.281 -0.3484  0.0372  0.2760
   89MOL0     H12213   3.609  10.779   7.306 -0.8029  0.2003 -0.7285
   89MOL0     H12214   3.836  10.837   7.345  1.4995  1.3830  1.5892
   89MOL0     H12215   3.922  11.229   7.568  0.0191 -1.0089 -0.0795
   89MOL0     H12216   3.961  11.240   7.394 -1.1203  0.5712  0.5189
   89MOL0     H12217   4.172  11.121   7.437  0.0373  1.3524 -1.4146
   89MOL0     H12218   4.164  11.275   7.528 -0.0725  0.0495  0.5953
   89MOL0     H12219   4.122  11.161   7.733 -0.3575 -0.5454 -0.2631
   89MOL0     H12220   4.105  10.999   7.660  1.0900 -0.1999  0.1100
   89MOL0     H12221   4.334  10.993   7.606 -1.5247 -0.4305  0.0262
   89MOL0     H12222   4.350  11.164   7.647 -2.6417  0.4724 -0.5257
   89MOL0     H12223   4.335  10.922   7.816 -1.7500  0.3657  0.4843
   89MOL0     H12224   4.268  11.076   7.885 -0.0273  2.3148 -1.7866
   89MOL0     H12225   4.476  11.200   7.857 -1.4821 -0.2379  0.9525
   89MOL0     H12226   4.511  11.060   7.956 -0.1246 -1.5563 -0.2770
   89MOL0     H12227   4.568  11.065   7.655  2.0578  1.1638  0.3878
   89MOL0     H12228   4.628  10.944   7.763  1.1274  0.0711 -1.8282
   89MOL0     H12229   4.784  11.138   7.699  1.1598  0.8846  1.0959
   89MOL0     H12230   4.691  11.238   7.786 -1.5463 -0.0891 -1.0355
   89MOL0     H12231   4.700  11.221   8.064 -1.8743  0.6501 -3.9764
   89MOL0     H12232   4.850  10.976   8.314 -2.2774  0.8967  0.9930
   89MOL0     H12233   4.806  11.147   8.322 -1.8483 -0.2111 -2.5805
   89MOL0     H12234   5.014  11.115   8.424 -1.1899 -0.9746 -0.4394
   89MOL0     H12235   5.084  11.043   8.278 -0.8438 -1.9823  2.7467
   89MOL0     H12236   5.001  11.301   8.180 -0.0958  1.7810  0.6818
   89MOL0     H12237   4.991  11.325   8.350  1.4163 -0.2696  2.4411
   89MOL0     H12238   5.249  11.232   8.200  1.0761  0.3549 -0.1422
   89MOL0     H12239   5.219  11.392   8.257 -0.0908 -1.3893 -2.9246
   89MOL0     H12240   5.297  11.369   8.609  0.3893  1.5199  0.7228
   89MOL0     H12241   5.425  11.513   8.786  0.7534  0.7943  0.3151
   89MOL0     H12242   5.572  11.604   8.733 -0.8096  0.9656  1.1129
   89MOL0     H12243   5.596  11.451   8.790  3.9017 -0.1330 -2.6445
   89MOL0     H12244   5.963  11.729   8.590  0.3973  1.0834 -0.9721
   89MOL0     H12245   6.203  11.766   8.585 -0.3892 -0.1343 -0.0439
   89MOL0     H12246   6.451  11.499   8.335 -2.6039  0.3103 -0.2134
   89MOL0     H12247   6.432  11.643   8.240  0.1591 -0.5730 -0.1289
   89MOL0     H12248   6.617  11.756   8.362 -2.0905 -0.4328  0.6751
   89MOL0     H12249   6.635  11.617   8.470  2.3069  0.3436 -0.1483
   89MOL0     H12250   6.662  11.581   8.172  1.1968 -3.9230 -0.1939
   89MOL0     H12251   6.715  11.476   8.285  0.8720 -0.8540  1.1051
   89MOL0     H12252   6.909  11.616   8.342 -0.3557  1.3789  0.1624
   89MOL0     H12253   6.835  11.749   8.257  0.9517 -0.1130 -0.0289
   89MOL0     H12254   6.889  11.490   8.108 -4.0862  0.2107  2.4275
   89MOL0     H12255   6.864  11.647   8.040  0.9468 -1.9601 -1.3864
   89MOL0     H12256   7.099  11.629   8.224  1.6308  1.2821 -0.1255
   89MOL0     H12257   7.059  11.744   8.092  1.3193 -0.5852 -0.9448
   89MOL0     H12258   7.073  11.498   7.963 -2.7219 -1.6389  3.1020
   89MOL0     H12259   7.214  11.512   8.072 -1.8055 -2.2115 -0.2569
   89MOL0     H12260   7.278  11.593   7.870  0.0393 -0.9214  1.0876
   89MOL0     H12261   7.257  11.742   7.967 -0.1394 -0.6663  0.7068
   89MOL0     H12262   6.257  11.485   8.284 -0.1485  0.6046 -0.4495
   89MOL0     H12263   5.996  11.465   8.256 -0.0675 -1.7846  1.9665
   89MOL0     H12264   5.666  11.402   8.301 -0.2867  0.6947  0.0850
   89MOL0     H12265   5.475  11.293   8.240 -0.0948 -1.2901  0.1905
   89MOL0     H12266   3.721  11.218   7.501  2.4590 -0.7626  0.7980
   89MOL0     H12267   3.485  11.156   7.477 -1.5483  0.8988 -1.9816
   89MOL0     H12268   3.168  10.828   7.427 -0.1610 -0.0612 -1.6278
   89MOL0     H12269   2.951  10.843   7.528 -1.5279  1.9983  0.1306
   89MOL0     H12270   2.605  11.086   7.559 -0.4173 -2.2581 -1.3899
   89MOL0     H12271   2.702  11.234   7.545 -2.7801  0.4541 -0.1606
   89MOL0     H12272   2.529  11.154   7.374  1.4614  0.6620  3.6388
   89MOL0     H12273   2.650  11.041   7.318  0.1724 -0.8675  1.2482
   89MOL0     H12274   2.649  11.351   7.340 -2.4042  0.8971 -0.0542
   89MOL0     H12275   2.796  11.268   7.285  0.0644 -0.7896  0.0740
   89MOL0     H12276   2.668  11.356   7.092 -0.7459  0.2261 -0.6835
   89MOL0     H12277   2.514  11.283   7.158  0.0396 -1.3394 -0.0845
   89MOL0     H12278   2.690  10.982   6.928  1.4283  1.3601 -0.3363
   89MOL0     H12279   2.939  11.256   7.421 -0.1554 -0.4437 -1.5964
   89MOL0     H12280   3.165  11.272   7.172  2.1430 -0.4455  0.2977
   89MOL0     H12281   3.118  11.375   7.302  1.1904  0.5230  1.4515
   89MOL0     H12282   3.266  11.293   7.310  0.4925 -2.8126 -0.8690
   90MOL0     O12283   8.975  11.113   4.038  0.4051  0.6509  0.1237
   90MOL0     C12284   8.853  11.099   4.039  0.3465  0.0510  0.8616
   90MOL0     O12285   8.769  11.158   4.125 -0.0156  0.8043 -1.0218
   90MOL0     C12286   8.826  11.213   4.236  0.1178 -0.7427 -0.7460
   90MOL0     C12287   8.895  11.331   4.225  0.9585 -0.2424 -0.1683
   90MOL0     C12288   8.972  11.389   4.333  0.3369  0.4606 -0.1734
   90MOL0     C12289   8.968  11.320   4.460 -0.9360  0.2660 -0.0039
   90MOL0     O12290   9.044  11.382   4.552  0.4134 -0.0895 -0.6332
   90MOL0     C12291   9.046  11.327   4.685 -0.7471 -0.3119 -0.3922
   90MOL0     C12292   9.136  11.414   4.779 -0.0725  0.4121 -0.9646
   90MOL0     C12293   9.099  11.404   4.926  0.2314 -0.2845  0.6626
   90MOL0     C12294   9.221  11.452   5.002  0.3216 -0.0620  0.4561
   90MOL0     C12295   9.201  11.493   5.147 -0.7423  0.2651 -1.1143
   90MOL0     C12296   9.146  11.398   5.244  0.0477 -0.6235 -0.3042
   90MOL0     C12297   9.141  11.442   5.392  0.7717  0.9441 -0.3947
   90MOL0     C12298   9.097  11.586   5.405 -0.8324 -0.6802 -0.3567
   90MOL0     N12299   9.103  11.622   5.550 -0.5663  0.6631 -0.7760
   90MOL0     C12300   9.223  11.621   5.622  0.2162 -0.0585  0.4232
   90MOL0     C12301   9.186  11.627   5.752 -0.7947  0.6040 -0.3301
   90MOL0     C12302   9.270  11.627   5.872  0.5205  0.3727  0.1464
   90MOL0     C12303   9.388  11.527   5.862  0.0513  0.1678 -0.5374
   90MOL0     C12304   9.492  11.545   5.975 -0.0268  0.1152  0.4126
   90MOL0     C12305   9.617  11.448   5.971  0.3172 -0.1635 -0.3778
   90MOL0     O12306   9.562  11.320   5.965 -0.5079  0.7883 -0.1607
   90MOL0     C12307   9.538  11.253   6.088 -0.2647 -0.1495 -0.0334
   90MOL0     C12308   9.424  11.180   6.099 -0.4818  0.2203  1.4815
   90MOL0     C12309   9.392  11.103   6.217 -0.4403  0.0766  0.9808
   90MOL0     C12310   9.252  11.036   6.238  0.1292 -0.7558  0.9437
   90MOL0     C12311   9.494  11.099   6.320  0.3378 -0.5057  0.7864
   90MOL0     C12312   9.483  11.015   6.440  0.4990  0.0426  0.2760
   90MOL0     O12313   9.425  10.893   6.428 -0.4717  1.1706 -0.6866
   90MOL0     C12314   9.336  10.830   6.521 -1.1901 -0.6768 -0.1158
   90MOL0     C12315   9.250  10.730   6.482 -0.1757 -0.6643  0.8380
   90MOL0     C12316   9.154  10.676   6.569 -0.6444  0.2227  0.3808
   90MOL0     C12317   9.141  10.725   6.702 -0.7307  1.1878 -0.4150
   90MOL0     O12318   9.049  10.692   6.801  0.1324  1.2475  0.5106
   90MOL0     C12319   8.914  10.638   6.762  0.0869 -0.7386  0.3022
   90MOL0     C12320   8.819  10.757   6.783 -0.2586 -0.2958  0.0045
   90MOL0     C12321   8.781  10.775   6.934  0.3643 -0.2514 -0.5236
   90MOL0     C12322   8.685  10.672   6.995 -0.1091  0.4807 -0.0875
   90MOL0     C12323   8.664  10.682   7.146  0.3990  0.1623 -0.1875
   90MOL0     C12324   8.609  10.822   7.179 -0.5731 -0.3364 -0.2675
   90MOL0     C12325   8.573  10.824   7.323  0.6204  0.9728 -0.9658
   90MOL0     C12326   8.445  10.736   7.354  0.3696 -0.6083  0.4372
   90MOL0    Cl12327   8.441  10.693   7.534  0.0310  0.0477  0.4497
   90MOL0     C12328   9.233  10.828   6.740  0.1593  0.2765  0.4356
   90MOL0     C12329   9.327  10.874   6.654  0.3078 -0.9188 -0.0571
   90MOL0     O12330   9.546  11.047   6.538  0.3652  0.8876  0.5959
   90MOL0     C12331   9.607  11.181   6.307  0.2086 -0.2033 -0.8164
   90MOL0     C12332   9.632  11.251   6.193 -0.3634  0.0701 -0.0558
   90MOL0     N12333   9.045  11.641   5.757 -0.1362  0.7127 -0.7173
   90MOL0     N12334   9.003  11.628   5.636  0.2379 -0.4435 -0.0587
   90MOL0     C12335   8.890  11.200   4.473 -0.4879 -0.2321 -0.0885
   90MOL0     C12336   8.817  11.150   4.365 -0.4569  0.1824 -0.7245
   90MOL0     C12337   8.794  11.001   3.941 -1.0601 -0.1741 -0.2012
   90MOL0     C12338   8.710  10.903   3.996 -0.1992 -0.0016 -0.5579
   90MOL0     C12339   8.656  10.802   3.920  0.0599 -0.0958 -0.6419
   90MOL0     C12340   8.677  10.803   3.781  0.0985  0.6198 -0.2780
   90MOL0     O12341   8.635  10.688   3.710  0.0093  0.1127 -0.9563
   90MOL0     C12342   8.692  10.662   3.586  0.5446 -0.4561 -0.6410
   90MOL0     C12343   8.814  10.579   3.595 -0.0900  0.0474  0.0401
   90MOL0     C12344   8.866  10.546   3.467 -1.1017 -1.0337 -0.9146
   90MOL0     C12345   8.777  10.451   3.396 -0.2587  0.7012 -0.3708
   90MOL0     C12346   8.848  10.378   3.293  0.0831  0.0514  0.3685
   90MOL0     C12347   8.913  10.317   3.204  0.1684  0.4273  0.2097
   90MOL0     C12348   8.745  10.913   3.719  0.2536  0.1943 -0.3915
   90MOL0     C12349   8.803  11.011   3.799  0.4113  0.4755  0.2817
   90MOL0     C12350   8.890  11.110   3.729  0.3911 -0.2633  0.0126
   90MOL0     H12351   8.903  11.370   4.124  3.9018  0.8052  0.3646
   90MOL0     H12352   9.043  11.471   4.319 -1.2348  1.7870 -0.6880
   90MOL0     H12353   9.079  11.223   4.677  1.4894  0.4837 -3.6794
   90MOL0     H12354   8.944  11.328   4.724 -0.4778  3.7043  0.6396
   90MOL0     H12355   9.239  11.379   4.770  0.5444  2.1949 -1.3334
   90MOL0     H12356   9.144  11.511   4.730  4.2907 -0.3568 -2.2210
   90MOL0     H12357   9.012  11.465   4.952  0.1631 -1.1776  2.6970
   90MOL0     H12358   9.076  11.300   4.949  0.2812 -0.2417  0.9095
   90MOL0     H12359   9.316  11.397   4.993  0.6966  0.3092  1.8119
   90MOL0     H12360   9.248  11.541   4.944 -1.9581  0.0195 -0.5802
   90MOL0     H12361   9.140  11.584   5.145  1.1202  1.5641 -1.3534
   90MOL0     H12362   9.298  11.517   5.192 -2.2739  1.0325  2.0634
   90MOL0     H12363   9.045  11.389   5.202 -0.6646  5.8164 -0.9093
   90MOL0     H12364   9.198  11.302   5.232  3.0321  1.0697 -2.0387
   90MOL0     H12365   9.243  11.433   5.430  1.9214 -1.4124 -3.5364
   90MOL0     H12366   9.065  11.377   5.436  0.4626  0.5731 -1.4496
   90MOL0     H12367   9.168  11.654   5.357  0.1374 -0.0788  1.8232
   90MOL0     H12368   8.994  11.603   5.372 -2.1741  0.1762  3.7219
   90MOL0     H12369   9.318  11.605   5.572 -0.9658 -0.9978 -1.6716
   90MOL0     H12370   9.208  11.596   5.956 -2.7512 -1.0953 -2.6017
   90MOL0     H12371   9.308  11.730   5.880 -0.3308  0.9804 -2.4831
   90MOL0     H12372   9.342  11.428   5.860  4.5998 -2.2069 -0.8994
   90MOL0     H12373   9.437  11.541   5.766  0.7653 -3.2642 -0.8036
   90MOL0     H12374   9.525  11.647   5.958 -1.0182  0.0161 -2.8022
   90MOL0     H12375   9.447  11.544   6.074 -0.5230 -0.6323  0.1979
   90MOL0     H12376   9.672  11.457   5.877 -0.8190 -0.4561 -1.0889
   90MOL0     H12377   9.690  11.469   6.050 -0.4090 -0.5344  0.4121
   90MOL0     H12378   9.350  11.191   6.021  0.4316 -1.5332  0.2977
   90MOL0     H12379   9.267  10.928   6.231  0.0471 -0.6632 -1.1914
   90MOL0     H12380   9.189  11.066   6.154  2.7814  2.1024 -0.2366
   90MOL0     H12381   9.209  11.065   6.335  1.3780  0.6838  1.1053
   90MOL0     H12382   9.247  10.705   6.376 -3.8697  2.1554  0.0316
   90MOL0     H12383   9.066  10.617   6.545 -1.2118  0.2646  2.2155
   90MOL0     H12384   8.913  10.608   6.657  0.3245  0.0387  0.0740
   90MOL0     H12385   8.899  10.553   6.830  3.5440  0.7314  3.2842
   90MOL0     H12386   8.870  10.846   6.744  1.8785 -1.7000 -0.5258
   90MOL0     H12387   8.740  10.733   6.711  1.7024 -1.4011 -1.8795
   90MOL0     H12388   8.733  10.873   6.941 -0.6547 -0.7578 -0.1943
   90MOL0     H12389   8.876  10.784   6.987  1.2872  1.3586 -2.3346
   90MOL0     H12390   8.712  10.571   6.962  3.4375  1.3675 -0.3365
   90MOL0     H12391   8.584  10.684   6.956 -0.6488 -2.1995  0.3049
   90MOL0     H12392   8.605  10.597   7.182  2.2404 -0.4848  1.5158
   90MOL0     H12393   8.760  10.680   7.199 -0.7416  0.3116  2.0045
   90MOL0     H12394   8.524  10.852   7.117  0.3752  0.2471 -1.3222
   90MOL0     H12395   8.693  10.889   7.159 -1.0170 -0.2822 -2.1418
   90MOL0     H12396   8.566  10.922   7.370 -1.0778 -0.7826  2.8828
   90MOL0     H12397   8.647  10.770   7.384 -1.0324 -0.7666 -0.4177
   90MOL0     H12398   8.452  10.636   7.311  0.3083 -0.5664  0.3301
   90MOL0     H12399   8.352  10.787   7.326  0.5525 -0.4548  0.1190
   90MOL0     H12400   9.226  10.874   6.838  0.9897 -1.1574  1.1902
   90MOL0     H12401   9.380  10.961   6.691  0.1687 -0.7476 -0.2574
   90MOL0     H12402   9.680  11.183   6.387  0.3141  0.2523 -0.9220
   90MOL0     H12403   9.729  11.299   6.179  1.0886 -1.7353  2.9094
   90MOL0     H12404   8.884  11.159   4.573  0.1449  1.4250  0.6499
   90MOL0     H12405   8.762  11.058   4.380  0.3010 -0.3607 -1.2222
   90MOL0     H12406   8.675  10.887   4.098  1.5881 -0.3579  0.0243
   90MOL0     H12407   8.610  10.713   3.961  0.3989 -0.9759 -2.1106
   90MOL0     H12408   8.613  10.611   3.530 -1.3831  2.7426 -1.1159
   90MOL0     H12409   8.715  10.748   3.523  2.6451 -0.8182 -0.4348
   90MOL0     H12410   8.790  10.498   3.665 -0.0949  0.2054  0.2238
   90MOL0     H12411   8.886  10.646   3.643  0.0304 -0.8874  1.2282
   90MOL0     H12412   8.879  10.634   3.403 -1.8455 -0.4116 -0.2203
   90MOL0     H12413   8.969  10.509   3.477 -1.2904 -1.9695 -2.1367
   90MOL0     H12414   8.698  10.510   3.349  1.6759  3.6180 -0.2242
   90MOL0     H12415   8.714  10.384   3.456 -1.6985  0.1905 -2.3531
   90MOL0     H12416   8.977  10.261   3.139  1.8040 -0.8962  2.8347
   90MOL0     H12417   8.757  10.922   3.611  2.2342 -1.3615 -0.3578
   90MOL0     H12418   8.899  11.101   3.620  1.9573 -0.9320  0.1716
   90MOL0     H12419   8.851  11.206   3.763 -0.3182 -0.6733  0.3993
   90MOL0     H12420   8.989  11.087   3.768  0.0397 -0.2314  0.9562
   91MOL0     O12421   8.481   6.427   2.698 -0.1936  0.3123 -0.3227
   91MOL0     C12422   8.496   6.428   2.578 -0.7038  0.1262  1.2241
   91MOL0     O12423   8.606   6.467   2.507  0.5513  0.1269 -0.2597
   91MOL0     C12424   8.718   6.492   2.581  0.3994 -0.4607 -0.6634
   91MOL0     C12425   8.768   6.623   2.578 -0.7597  0.1972 -0.5999
   91MOL0     C12426   8.900   6.659   2.619  0.1459 -0.4776  0.2923
   91MOL0     C12427   8.975   6.561   2.676 -0.2922  0.2999 -0.7048
   91MOL0     O12428   9.104   6.606   2.706  0.3473  0.3809  0.2917
   91MOL0     C12429   9.202   6.509   2.741  0.1717 -0.0011  0.0102
   91MOL0     C12430   9.341   6.566   2.716 -0.2942 -0.1100  0.2618
   91MOL0     C12431   9.380   6.651   2.841 -0.1109  0.7914  0.6275
   91MOL0     C12432   9.523   6.703   2.830 -0.5583  0.5743 -0.0402
   91MOL0     C12433   9.572   6.806   2.936 -0.7847 -0.0091  0.6721
   91MOL0     C12434   9.704   6.867   2.886  0.0426  0.0142 -0.4121
   91MOL0     C12435   9.754   6.950   3.011 -0.5901 -0.3775  0.6305
   91MOL0     C12436   9.828   7.077   2.958 -0.8732  0.2247  0.1527
   91MOL0     N12437   9.897   7.163   3.063 -0.6146  0.2071  0.1539
   91MOL0     C12438   9.981   7.118   3.166  0.3907 -0.3274  0.3302
   91MOL0     C12439  10.011   7.226   3.234 -0.6493  0.0033  0.0999
   91MOL0     C12440  10.072   7.239   3.374  0.5829 -0.3227  0.3808
   91MOL0     C12441  10.223   7.265   3.359  0.2039  0.8202  0.4230
   91MOL0     C12442  10.254   7.407   3.365 -0.0066 -0.1436  0.0124
   91MOL0     C12443  10.405   7.438   3.339  0.4786 -0.1197  0.4022
   91MOL0     O12444  10.480   7.379   3.439 -0.4935 -0.2922  0.2110
   91MOL0     C12445  10.613   7.414   3.459  0.5012 -1.0620 -0.1092
   91MOL0     C12446  10.684   7.513   3.385 -0.2510  0.5628  0.7511
   91MOL0     C12447  10.813   7.553   3.415 -0.2852 -0.4076  0.0062
   91MOL0     C12448  10.863   7.666   3.323  0.2830  0.0464 -0.4437
   91MOL0     C12449  10.878   7.499   3.527  0.1783 -0.0828 -0.9970
   91MOL0     C12450  11.011   7.549   3.574  0.5567 -0.7918 -0.4173
   91MOL0     O12451  11.086   7.633   3.491  0.4853  0.1379  0.5918
   91MOL0     C12452  11.208   7.648   3.544 -0.0106 -0.3041 -1.0173
   91MOL0     C12453  11.304   7.548   3.531 -0.0437  0.4756  0.0400
   91MOL0     C12454  11.433   7.574   3.565 -0.2145 -0.1363  0.2386
   91MOL0     C12455  11.475   7.698   3.616  0.8008  0.2235  0.4151
   91MOL0     O12456  11.603   7.741   3.631  0.2042 -0.3495 -0.2043
   91MOL0     C12457  11.699   7.673   3.550  0.3531 -0.1087 -0.8197
   91MOL0     C12458  11.824   7.752   3.536  0.1978  0.7035  0.0900
   91MOL0     C12459  11.792   7.902   3.512 -0.2624 -0.4962  0.3053
   91MOL0     C12460  11.912   7.971   3.438 -0.0477 -0.4904  0.0900
   91MOL0     C12461  12.033   8.007   3.520  0.3769  0.1726  0.5648
   91MOL0     C12462  12.019   8.126   3.616 -0.0104 -0.2537 -1.2140
   91MOL0     C12463  12.157   8.149   3.691 -0.6299 -0.2479 -0.1420
   91MOL0     C12464  12.279   8.171   3.604 -0.5704  0.1606  0.0725
   91MOL0    Cl12465  12.276   8.310   3.496  0.2270 -0.3179  0.1953
   91MOL0     C12466  11.379   7.803   3.616  0.6690  0.1608 -0.6356
   91MOL0     C12467  11.247   7.781   3.600  0.6084  0.1086  0.6506
   91MOL0     O12468  11.060   7.489   3.675  0.6366  0.1493  0.4361
   91MOL0     C12469  10.812   7.394   3.601  0.2048  0.1984 -0.3995
   91MOL0     C12470  10.677   7.359   3.575  0.5463 -0.2455 -0.2971
   91MOL0     N12471   9.948   7.333   3.176 -0.7171 -0.3401  0.2549
   91MOL0     N12472   9.882   7.294   3.074 -0.0331 -1.2134 -0.4579
   91MOL0     C12473   8.924   6.429   2.685 -0.3708 -0.1168 -0.6140
   91MOL0     C12474   8.795   6.395   2.637 -0.9088  0.1170 -0.1288
   91MOL0     C12475   8.388   6.384   2.497  0.4407  1.1086 -0.5537
   91MOL0     C12476   8.374   6.429   2.365 -0.0016  0.1687  0.0674
   91MOL0     C12477   8.257   6.409   2.287 -0.2572 -0.4581 -0.9299
   91MOL0     C12478   8.156   6.327   2.340  0.5388  0.5747 -0.0056
   91MOL0     O12479   8.040   6.291   2.278  0.4586 -0.1041 -0.0605
   91MOL0     C12480   7.993   6.361   2.158  0.0170  0.1145  0.2788
   91MOL0     C12481   7.945   6.507   2.177 -0.8605 -0.6729 -0.2418
   91MOL0     C12482   7.815   6.538   2.243  0.9091 -0.0259  0.6224
   91MOL0     C12483   7.801   6.452   2.372 -0.1116 -0.7500 -0.2165
   91MOL0     C12484   7.691   6.497   2.459  0.2043 -0.9644  0.1203
   91MOL0     C12485   7.621   6.513   2.550 -0.4831 -0.4569  0.1781
   91MOL0     C12486   8.179   6.266   2.471  0.0820  0.0095  0.5658
   91MOL0     C12487   8.290   6.294   2.546 -0.0227  1.2545 -0.1135
   91MOL0     C12488   8.292   6.220   2.685  0.1512  0.4136 -0.5092
   91MOL0     H12489   8.701   6.684   2.517 -3.4047 -1.3786  0.5671
   91MOL0     H12490   8.932   6.762   2.617  0.7924 -0.6721  0.4058
   91MOL0     H12491   9.181   6.419   2.684 -2.4684  0.1834  0.5452
   91MOL0     H12492   9.196   6.467   2.842  0.1647 -1.1219 -0.4483
   91MOL0     H12493   9.408   6.479   2.715  0.7605  0.6867 -1.3430
   91MOL0     H12494   9.344   6.612   2.617 -4.5290 -1.7819 -0.8958
   91MOL0     H12495   9.300   6.725   2.851 -1.6890 -1.0631  2.9625
   91MOL0     H12496   9.372   6.583   2.926  2.0463 -0.9999 -0.4951
   91MOL0     H12497   9.597   6.625   2.849  0.7448  0.8345 -3.3945
   91MOL0     H12498   9.533   6.738   2.727  0.5101  1.2177  0.2644
   91MOL0     H12499   9.584   6.754   3.032 -0.1905 -0.0377  0.5886
   91MOL0     H12500   9.499   6.886   2.953 -0.4838  0.1284  1.3854
   91MOL0     H12501   9.785   6.795   2.868  2.0682  2.5560 -2.1703
   91MOL0     H12502   9.693   6.933   2.800 -1.9502  0.9165  0.4836
   91MOL0     H12503   9.817   6.887   3.074  0.1837 -0.7211 -0.4445
   91MOL0     H12504   9.671   6.975   3.076 -0.0805  0.3986  0.9961
   91MOL0     H12505   9.907   7.048   2.889  1.7092  2.1448  2.1022
   91MOL0     H12506   9.765   7.134   2.888 -1.7781 -1.4191 -0.4185
   91MOL0     H12507  10.012   7.015   3.184  1.0616 -0.4422 -1.2816
   91MOL0     H12508  10.056   7.148   3.433  1.6892 -0.8671 -0.1254
   91MOL0     H12509  10.030   7.315   3.440 -0.5745 -3.5612  3.7575
   91MOL0     H12510  10.273   7.226   3.448 -2.1031  0.6740  1.7333
   91MOL0     H12511  10.256   7.213   3.269  0.4787 -0.3318  1.1678
   91MOL0     H12512  10.187   7.470   3.305 -1.0045 -0.2235  1.0067
   91MOL0     H12513  10.233   7.446   3.465  0.6907  2.5055 -0.7929
   91MOL0     H12514  10.437   7.387   3.248 -2.4101 -1.2902 -0.0655
   91MOL0     H12515  10.426   7.546   3.338  2.1219 -0.4140  0.7665
   91MOL0     H12516  10.636   7.569   3.306 -3.4261 -4.0404 -1.0807
   91MOL0     H12517  10.792   7.684   3.242  1.6069  2.7104 -1.1072
   91MOL0     H12518  10.957   7.632   3.279  0.7752  2.1176 -1.0653
   91MOL0     H12519  10.877   7.762   3.374  0.0754  2.5285 -4.6616
   91MOL0     H12520  11.284   7.454   3.480  0.7124  0.5464 -0.4016
   91MOL0     H12521  11.512   7.501   3.546  1.5783  2.2055 -1.9735
   91MOL0     H12522  11.729   7.586   3.610  0.1217  0.9525  0.9224
   91MOL0     H12523  11.662   7.655   3.449  0.8708  1.6511 -1.3577
   91MOL0     H12524  11.885   7.745   3.626  0.4478 -1.3769 -0.2034
   91MOL0     H12525  11.869   7.709   3.446 -2.0075  1.3562 -1.4171
   91MOL0     H12526  11.777   7.945   3.611  1.6802 -2.2184  1.4272
   91MOL0     H12527  11.701   7.903   3.451 -0.5882  2.9051  0.6495
   91MOL0     H12528  11.870   8.056   3.383 -1.7348  0.0834  2.1591
   91MOL0     H12529  11.942   7.900   3.360 -0.0813  0.3287 -0.6865
   91MOL0     H12530  12.061   7.920   3.580  1.2999 -1.4235 -1.9993
   91MOL0     H12531  12.111   8.024   3.445 -0.4298  0.2443 -0.2790
   91MOL0     H12532  11.938   8.111   3.688  0.1728 -1.8948 -1.3066
   91MOL0     H12533  12.004   8.223   3.568  0.1346  0.0070 -0.7447
   91MOL0     H12534  12.187   8.060   3.748  1.5058  0.3709 -0.2144
   91MOL0     H12535  12.139   8.229   3.763 -0.4261  3.4790 -3.8962
   91MOL0     H12536  12.298   8.081   3.544  1.5963 -1.8217  3.4145
   91MOL0     H12537  12.374   8.175   3.657 -1.1226  1.1846  1.0173
   91MOL0     H12538  11.410   7.896   3.663  0.6921  0.0110 -0.3507
   91MOL0     H12539  11.176   7.860   3.620  0.2640 -0.2081  0.6998
   91MOL0     H12540  10.852   7.346   3.690 -2.1649 -0.4512  0.3809
   91MOL0     H12541  10.619   7.293   3.639 -1.5069  2.9927  1.4478
   91MOL0     H12542   8.977   6.344   2.727  1.2076  1.8392  1.5712
   91MOL0     H12543   8.756   6.293   2.636  0.8268 -0.5816  0.8854
   91MOL0     H12544   8.436   6.508   2.326 -0.7746  0.5030 -0.5105
   91MOL0     H12545   8.234   6.465   2.197  1.5933  1.0896 -0.5068
   91MOL0     H12546   8.081   6.368   2.093  0.0151 -0.9459  0.1436
   91MOL0     H12547   7.922   6.296   2.105 -1.7968  2.0208  0.2541
   91MOL0     H12548   7.959   6.559   2.082  1.4301 -1.9931 -0.7220
   91MOL0     H12549   8.023   6.555   2.237 -0.8701  0.0152 -0.7769
   91MOL0     H12550   7.807   6.645   2.263  0.9266  0.0140  0.4147
   91MOL0     H12551   7.734   6.522   2.171  0.1796 -2.1274  1.8176
   91MOL0     H12552   7.895   6.476   2.423 -0.9983  1.1260  0.6387
   91MOL0     H12553   7.799   6.345   2.348 -0.5396 -0.1234 -3.4121
   91MOL0     H12554   7.556   6.526   2.634 -1.3769  1.1796 -0.7139
   91MOL0     H12555   8.111   6.190   2.506  1.3744 -0.8213  1.3726
   91MOL0     H12556   8.243   6.283   2.761 -0.8326 -1.5656  0.5760
   91MOL0     H12557   8.226   6.134   2.671  0.9773 -0.1662 -0.9220
   91MOL0     H12558   8.392   6.185   2.713  1.7315  3.7124 -1.5559
   92MOL0     O12559   7.856  10.375   3.329  0.0323 -0.1539  0.2956
   92MOL0     C12560   7.772  10.294   3.283  0.5635  0.2149 -0.8411
   92MOL0     O12561   7.792  10.163   3.278 -0.3247 -0.4809 -0.5875
   92MOL0     C12562   7.902  10.100   3.337 -1.2617  0.3502  0.6751
   92MOL0     C12563   7.901  10.075   3.467  1.0844 -0.5555 -0.1575
   92MOL0     C12564   8.005  10.027   3.532  0.4676  0.0869 -0.2047
   92MOL0     C12565   8.122   9.984   3.457  0.7792 -0.4086 -0.3932
   92MOL0     O12566   8.244   9.943   3.517  0.6499  0.2372 -0.0542
   92MOL0     C12567   8.246   9.815   3.575 -0.2481  0.1290 -0.1926
   92MOL0     C12568   8.342   9.718   3.503  0.1908  0.1107  0.0518
   92MOL0     C12569   8.288   9.684   3.365 -0.2080  1.2172 -0.5108
   92MOL0     C12570   8.368   9.560   3.306  0.5140  0.7273 -0.1615
   92MOL0     C12571   8.314   9.519   3.165  0.9839 -0.4889 -0.3196
   92MOL0     C12572   8.366   9.385   3.110  0.2447 -0.5600 -0.2649
   92MOL0     C12573   8.520   9.369   3.122 -0.1962  0.2441 -0.0823
   92MOL0     C12574   8.583   9.227   3.101  0.1746 -0.3483 -0.3826
   92MOL0     N12575   8.722   9.228   3.063  0.6259  0.7066  0.5513
   92MOL0     C12576   8.809   9.124   3.076  0.6928  0.2847  1.2150
   92MOL0     C12577   8.907   9.151   2.993 -0.7771  0.1613  0.1998
   92MOL0     C12578   9.025   9.070   2.954 -0.4313  0.5831  0.1117
   92MOL0     C12579   9.002   8.920   2.980 -0.9619 -0.4724 -0.1606
   92MOL0     C12580   9.108   8.817   2.930  0.3252 -0.2869 -0.9246
   92MOL0     C12581   9.123   8.812   2.775 -0.6013  0.5054 -0.0910
   92MOL0     O12582   9.237   8.727   2.736  0.1928 -0.0807  0.5567
   92MOL0     C12583   9.362   8.780   2.712 -0.0996 -0.5171 -0.1350
   92MOL0     C12584   9.435   8.731   2.601  1.1470  0.5539  0.2224
   92MOL0     C12585   9.545   8.795   2.555 -0.1845 -0.3912  0.3559
   92MOL0     C12586   9.603   8.741   2.428  0.1054  0.3032  1.1000
   92MOL0     C12587   9.593   8.908   2.615  0.5721 -0.1569  0.6727
   92MOL0     C12588   9.709   8.976   2.566 -0.0576 -0.2489  0.6959
   92MOL0     O12589   9.698   9.116   2.563 -0.6887  0.5490  0.0002
   92MOL0     C12590   9.819   9.178   2.547  0.1214  0.0661  0.5307
   92MOL0     C12591   9.866   9.267   2.646  0.5828 -0.1033  0.1483
   92MOL0     C12592   9.983   9.345   2.620 -0.9361  0.4670  0.7149
   92MOL0     C12593  10.044   9.327   2.494  0.1687 -0.4240 -0.8867
   92MOL0     O12594  10.167   9.380   2.458  0.0372 -0.8183  0.4710
   92MOL0     C12595  10.240   9.465   2.549  0.4326 -0.1162  0.1179
   92MOL0     C12596  10.391   9.484   2.511  0.6282 -0.6226  0.4982
   92MOL0     C12597  10.454   9.349   2.515 -0.9563  0.6313 -0.2200
   92MOL0     C12598  10.604   9.354   2.477 -1.0791  0.4809 -0.0618
   92MOL0     C12599  10.663   9.211   2.460  0.1292  0.7143 -0.1006
   92MOL0     C12600  10.805   9.223   2.408 -0.8347 -0.8198 -0.5195
   92MOL0     C12601  10.815   9.278   2.257  0.2544 -0.7683 -0.6490
   92MOL0     C12602  10.957   9.283   2.203  0.6028  1.1165  0.6658
   92MOL0    Cl12603  10.977   9.432   2.094  0.2380  0.2436  0.0596
   92MOL0     C12604  10.007   9.234   2.400  0.3657 -0.4471  0.0358
   92MOL0     C12605   9.886   9.167   2.424  0.5342  0.8843 -1.1595
   92MOL0     O12606   9.804   8.910   2.524 -0.4031 -0.4331  0.5044
   92MOL0     C12607   9.527   8.957   2.732  0.4883  0.5896 -0.2127
   92MOL0     C12608   9.409   8.893   2.776  0.3415  0.0204 -0.4258
   92MOL0     N12609   8.886   9.278   2.943 -0.3206  0.0518 -0.2644
   92MOL0     N12610   8.772   9.324   2.979  0.3510  0.2303  0.5831
   92MOL0     C12611   8.121  10.011   3.317  0.6278  0.1404  0.0662
   92MOL0     C12612   8.014  10.072   3.251 -0.5545 -0.2264  0.3041
   92MOL0     C12613   7.633  10.329   3.236 -0.0648 -0.1815 -0.1816
   92MOL0     C12614   7.569  10.266   3.127  1.3057  0.7728  0.1687
   92MOL0     C12615   7.441  10.296   3.085  0.5058 -0.0125 -0.2271
   92MOL0     C12616   7.373  10.399   3.138  0.5921  0.3487  0.3976
   92MOL0     O12617   7.245  10.410   3.090 -0.3901 -0.1945 -0.0824
   92MOL0     C12618   7.168  10.509   3.164  0.0590 -0.2713 -0.3775
   92MOL0     C12619   7.034  10.521   3.100 -0.1726 -0.8230  0.3526
   92MOL0     C12620   6.956  10.392   3.120  0.4072 -0.2084 -0.2326
   92MOL0     C12621   6.806  10.422   3.097 -0.8952 -0.1375 -0.2697
   92MOL0     C12622   6.772  10.458   2.964  0.2569  0.2956 -1.0799
   92MOL0     C12623   6.740  10.479   2.855  0.1663  0.0385  0.2716
   92MOL0     C12624   7.434  10.467   3.244  0.5521 -0.3055 -0.7462
   92MOL0     C12625   7.559  10.438   3.295  0.0448  0.0001 -0.1260
   92MOL0     C12626   7.609  10.523   3.407  0.4002  0.2591  0.4314
   92MOL0     H12627   7.812  10.089   3.528 -0.1935 -1.4056 -1.7420
   92MOL0     H12628   8.000  10.011   3.639  2.2212  2.5227  0.3255
   92MOL0     H12629   8.147   9.770   3.568  0.3818 -1.1681 -1.5268
   92MOL0     H12630   8.272   9.828   3.680  1.1237 -0.7912 -0.3872
   92MOL0     H12631   8.441   9.765   3.500 -0.4661  1.4980 -1.4564
   92MOL0     H12632   8.349   9.628   3.565 -2.6767  0.1598  0.5781
   92MOL0     H12633   8.179   9.673   3.372 -0.2615  0.3233 -2.0954
   92MOL0     H12634   8.305   9.766   3.294  3.2927 -0.3629 -1.6975
   92MOL0     H12635   8.475   9.586   3.302 -0.2715  4.4484 -0.6377
   92MOL0     H12636   8.361   9.470   3.369  0.5458  0.6395 -0.2830
   92MOL0     H12637   8.351   9.601   3.103 -0.6791 -0.0088 -0.7202
   92MOL0     H12638   8.205   9.524   3.160  0.4804  0.3062  4.9431
   92MOL0     H12639   8.323   9.310   3.179  1.2537 -0.4070  0.5492
   92MOL0     H12640   8.329   9.359   3.010 -4.0356 -0.4887  1.0785
   92MOL0     H12641   8.538   9.380   3.229 -1.1917 -0.3779  0.1583
   92MOL0     H12642   8.555   9.458   3.067 -1.7962  1.1382  0.2684
   92MOL0     H12643   8.573   9.165   3.191 -1.6019 -0.8125 -0.8412
   92MOL0     H12644   8.529   9.175   3.020  0.8249 -0.5255 -0.7084
   92MOL0     H12645   8.799   9.037   3.140 -3.0690 -0.3450  0.0043
   92MOL0     H12646   9.118   9.110   2.994 -1.1145  1.2923  1.0486
   92MOL0     H12647   9.047   9.080   2.847  0.2466  0.6749  0.2573
   92MOL0     H12648   9.013   8.909   3.088  0.3664  0.3639 -0.1890
   92MOL0     H12649   8.898   8.896   2.954 -1.0956  1.8233 -2.1063
   92MOL0     H12650   9.188   8.840   3.002 -1.7435  2.8173  0.6418
   92MOL0     H12651   9.074   8.717   2.956 -2.7377  0.4481 -1.7690
   92MOL0     H12652   9.038   8.767   2.724  1.4421 -0.6619 -2.7090
   92MOL0     H12653   9.141   8.913   2.738 -0.7663  0.3624 -0.5643
   92MOL0     H12654   9.396   8.649   2.542  3.1743  0.9521 -1.7953
   92MOL0     H12655   9.531   8.679   2.373  0.0543  3.6853 -3.1179
   92MOL0     H12656   9.687   8.678   2.458 -1.5871 -1.9138  1.4946
   92MOL0     H12657   9.637   8.817   2.357 -3.8448  1.3379  0.0704
   92MOL0     H12658   9.813   9.282   2.739 -1.2087 -1.0884 -0.6642
   92MOL0     H12659  10.031   9.399   2.701 -1.1677  1.2734  0.3279
   92MOL0     H12660  10.191   9.563   2.552  1.3118  0.3353  2.3618
   92MOL0     H12661  10.247   9.416   2.647 -1.2024 -0.9218 -0.1459
   92MOL0     H12662  10.388   9.520   2.408  1.8161 -1.5214  0.1313
   92MOL0     H12663  10.430   9.560   2.579 -2.0009  3.3287 -1.9655
   92MOL0     H12664  10.408   9.283   2.441 -2.8914  2.0137 -0.3120
   92MOL0     H12665  10.442   9.302   2.613 -0.2137  0.9324  0.0238
   92MOL0     H12666  10.663   9.390   2.562 -0.1887 -0.6704 -0.1717
   92MOL0     H12667  10.618   9.420   2.391 -1.8692  2.3886  1.2280
   92MOL0     H12668  10.667   9.145   2.547 -1.2415 -1.3340 -1.5007
   92MOL0     H12669  10.602   9.164   2.383 -0.0443  1.0083 -0.1399
   92MOL0     H12670  10.856   9.128   2.422  0.0342 -0.4711 -1.1957
   92MOL0     H12671  10.868   9.292   2.466 -1.2613 -0.8290 -0.0436
   92MOL0     H12672  10.778   9.381   2.252  1.6854 -0.1806  0.2990
   92MOL0     H12673  10.750   9.215   2.195  0.0490 -0.4508 -0.7578
   92MOL0     H12674  10.972   9.194   2.141 -1.1770  2.5800 -2.0905
   92MOL0     H12675  11.032   9.291   2.282 -0.2755 -1.4814  1.8584
   92MOL0     H12676  10.064   9.218   2.309 -0.0883 -0.6780 -0.2078
   92MOL0     H12677   9.845   9.099   2.351 -2.5338 -0.0726  1.2599
   92MOL0     H12678   9.560   9.045   2.787 -1.5592  2.2504 -1.4763
   92MOL0     H12679   9.362   8.928   2.868  0.5143  0.6495 -0.5714
   92MOL0     H12680   8.217   9.987   3.271  1.0455  0.5662  0.6908
   92MOL0     H12681   8.007  10.106   3.148  1.6652 -0.8334 -0.0786
   92MOL0     H12682   7.606  10.177   3.078  1.2609  2.6422 -3.6364
   92MOL0     H12683   7.379  10.243   3.013  0.4807  0.1641 -0.3365
   92MOL0     H12684   7.163  10.482   3.270  1.2212 -1.2173 -0.5360
   92MOL0     H12685   7.214  10.609   3.166 -1.8289  0.6337  1.1308
   92MOL0     H12686   7.033  10.539   2.993 -1.7991 -0.7331  0.3575
   92MOL0     H12687   6.985  10.613   3.137  2.8330  1.6282 -1.3431
   92MOL0     H12688   7.001  10.311   3.062  2.1441  1.5204 -1.3982
   92MOL0     H12689   6.958  10.363   3.225 -2.5809  1.0317  0.2713
   92MOL0     H12690   6.784  10.513   3.153 -1.0978 -1.0344  1.1890
   92MOL0     H12691   6.744  10.333   3.117  0.5236 -1.6664 -2.2924
   92MOL0     H12692   6.707  10.513   2.759  0.0730  0.1308  0.3357
   92MOL0     H12693   7.383  10.556   3.280  3.0399  1.5119 -1.4497
   92MOL0     H12694   7.687  10.469   3.462  0.3444 -1.6025 -1.2160
   92MOL0     H12695   7.653  10.613   3.362  1.0225 -0.3898 -0.2844
   92MOL0     H12696   7.520  10.544   3.467  0.8022 -0.5209  1.3114
   93MOL0     O12697  10.507  11.090   8.678  0.3239  0.3325  0.7179
   93MOL0     C12698  10.523  11.115   8.564  0.0308  0.8638  0.6633
   93MOL0     O12699  10.610  11.209   8.519 -0.1007  0.0917  0.6505
   93MOL0     C12700  10.714  11.251   8.597 -0.4248  0.9731  1.2076
   93MOL0     C12701  10.701  11.354   8.688 -0.4884  1.1582 -0.0406
   93MOL0     C12702  10.818  11.401   8.756  0.4057  0.0991  0.0199
   93MOL0     C12703  10.942  11.343   8.722 -0.3443 -0.1835 -0.4938
   93MOL0     O12704  11.061  11.388   8.769  0.0135  0.0432 -0.0272
   93MOL0     C12705  11.062  11.507   8.849  0.6328 -0.1575  0.0933
   93MOL0     C12706  11.199  11.554   8.860  0.0294 -0.2513 -0.6150
   93MOL0     C12707  11.263  11.467   8.973 -0.6766 -0.6250 -0.1959
   93MOL0     C12708  11.406  11.488   8.997 -0.0110 -0.0150 -0.6627
   93MOL0     C12709  11.463  11.388   9.099 -0.1904  1.0238  0.1580
   93MOL0     C12710  11.615  11.401   9.128  0.7848 -0.5709  0.5571
   93MOL0     C12711  11.656  11.545   9.139 -0.0736 -0.2387 -0.9046
   93MOL0     C12712  11.798  11.562   9.182 -0.4647  0.1605  0.0212
   93MOL0     N12713  11.835  11.694   9.216  0.3891 -0.2791  0.9205
   93MOL0     C12714  11.763  11.804   9.174 -0.2627 -0.2805  0.3909
   93MOL0     C12715  11.833  11.914   9.223  0.6905  0.2792 -0.3752
   93MOL0     C12716  11.795  12.056   9.199 -0.0795  0.2248  0.4016
   93MOL0     C12717  11.863  12.169   9.280  0.7601  0.2843  0.3983
   93MOL0     C12718  11.806  12.311   9.250  0.1445  0.2583  0.7942
   93MOL0     C12719  11.874  12.371   9.125 -0.2236  0.1372 -0.4537
   93MOL0     O12720  12.012  12.400   9.148 -0.0879 -0.4426 -0.0221
   93MOL0     C12721  12.108  12.403   9.058 -0.4149 -0.9643 -0.1128
   93MOL0     C12722  12.235  12.412   9.104  0.2560  0.5700 -0.4824
   93MOL0     C12723  12.347  12.432   9.019  0.2755 -0.3355  0.0147
   93MOL0     C12724  12.489  12.446   9.074 -0.0449 -0.2083 -0.6078
   93MOL0     C12725  12.333  12.447   8.883  0.8185  1.2901  0.3857
   93MOL0     C12726  12.436  12.471   8.781  0.4209 -0.4012 -0.5324
   93MOL0     O12727  12.424  12.401   8.660 -0.0359 -0.6142 -0.1394
   93MOL0     C12728  12.512  12.432   8.558  0.5159 -0.6363 -0.6056
   93MOL0     C12729  12.651  12.452   8.583 -0.7771  0.3654  0.3281
   93MOL0     C12730  12.732  12.479   8.468 -0.4366  0.3830  0.9723
   93MOL0     C12731  12.683  12.510   8.344 -0.1306  0.1075 -0.5406
   93MOL0     O12732  12.767  12.549   8.244  0.2070  0.6547  0.6422
   93MOL0     C12733  12.740  12.668   8.164 -0.1383  0.3445  0.1264
   93MOL0     C12734  12.846  12.684   8.048 -0.1545 -0.2590  0.1148
   93MOL0     C12735  12.984  12.729   8.093 -0.0401  0.1871 -0.5575
   93MOL0     C12736  13.088  12.734   7.980 -0.2757 -0.2660  0.0010
   93MOL0     C12737  13.229  12.768   8.044 -0.0716 -1.0028  0.3669
   93MOL0     C12738  13.333  12.757   7.928 -0.1908 -0.2363 -0.1831
   93MOL0     C12739  13.483  12.787   7.963 -0.3960  0.0815  0.4838
   93MOL0     C12740  13.590  12.773   7.861  0.2418  0.6912 -0.2346
   93MOL0    Cl12741  13.547  12.843   7.700 -0.0575 -0.1053 -0.2718
   93MOL0     C12742  12.541  12.494   8.325  0.5693  0.1619 -0.7075
   93MOL0     C12743  12.461  12.448   8.431  0.4395 -0.0540  0.2376
   93MOL0     O12744  12.511  12.565   8.807  0.3684 -0.2583 -0.2435
   93MOL0     C12745  12.209  12.421   8.832  0.6607 -0.3850 -0.1806
   93MOL0     C12746  12.092  12.410   8.915  0.1764 -0.6277 -0.6117
   93MOL0     N12747  11.935  11.866   9.305 -0.5774 -0.2678 -1.0463
   93MOL0     N12748  11.935  11.738   9.297 -0.0493  0.5008  0.0437
   93MOL0     C12749  10.961  11.243   8.626 -0.7963 -0.4736  0.1520
   93MOL0     C12750  10.844  11.201   8.563  0.3491  0.0207  0.2411
   93MOL0     C12751  10.437  11.026   8.470  0.0806 -0.6825 -0.0591
   93MOL0     C12752  10.363  10.921   8.517 -0.3283 -0.4308  0.2494
   93MOL0     C12753  10.306  10.824   8.433 -1.0596 -0.5947  0.0679
   93MOL0     C12754  10.313  10.839   8.294 -0.1274  0.1055  0.2849
   93MOL0     O12755  10.244  10.742   8.223  0.7091  0.3718 -0.5380
   93MOL0     C12756  10.272  10.742   8.084 -0.0313  0.4475  0.7012
   93MOL0     C12757  10.207  10.622   8.005  0.1546  0.1270  0.4315
   93MOL0     C12758  10.224  10.629   7.851  1.3271  0.6860  0.3555
   93MOL0     C12759  10.365  10.580   7.806  0.1564  0.4513  0.1961
   93MOL0     C12760  10.473  10.683   7.802 -0.3285 -1.2792  0.5387
   93MOL0     C12761  10.555  10.770   7.817  0.5189  0.3612  0.6843
   93MOL0     C12762  10.377  10.952   8.241 -0.5976  0.2274  0.4664
   93MOL0     C12763  10.446  11.044   8.323 -0.0804  0.7330  0.1986
   93MOL0     C12764  10.549  11.140   8.267  0.3944 -0.7428 -0.7724
   93MOL0     H12765  10.598  11.379   8.714 -1.2416 -0.3288 -1.3889
   93MOL0     H12766  10.807  11.488   8.821  1.4952 -0.9290  1.6267
   93MOL0     H12767  11.011  11.502   8.945  0.0357  1.9305 -0.0663
   93MOL0     H12768  11.002  11.576   8.789  2.0162  0.6432 -0.4170
   93MOL0     H12769  11.267  11.545   8.774  1.5785  0.5141  0.4771
   93MOL0     H12770  11.200  11.659   8.889  1.6017 -0.5489  0.5312
   93MOL0     H12771  11.216  11.480   9.070 -2.9538 -0.3452 -1.2774
   93MOL0     H12772  11.249  11.360   8.952 -1.2535 -0.5692 -0.0873
   93MOL0     H12773  11.464  11.484   8.904  2.1082 -1.6102  0.6307
   93MOL0     H12774  11.419  11.593   9.025 -1.9454  0.1598 -0.2971
   93MOL0     H12775  11.452  11.289   9.054  2.4412  0.1963  1.1194
   93MOL0     H12776  11.415  11.378   9.197  0.4710  2.1923  0.6136
   93MOL0     H12777  11.648  11.346   9.217 -0.3415  0.1617  1.4500
   93MOL0     H12778  11.659  11.350   9.042  1.9455 -1.3758  1.5819
   93MOL0     H12779  11.596  11.601   9.211  1.7959 -2.2757  2.4761
   93MOL0     H12780  11.641  11.598   9.044  0.5107  1.9432  0.1738
   93MOL0     H12781  11.821  11.498   9.267 -0.8968  2.1616  1.7313
   93MOL0     H12782  11.867  11.537   9.101  1.1326  0.2749  1.2957
   93MOL0     H12783  11.691  11.804   9.093 -0.2037 -0.6094  0.3365
   93MOL0     H12784  11.686  12.056   9.210 -0.0728  2.3937  0.8447
   93MOL0     H12785  11.808  12.073   9.092 -0.9115 -3.5270 -0.4650
   93MOL0     H12786  11.851  12.147   9.387  0.0989  0.1811  0.3061
   93MOL0     H12787  11.971  12.163   9.264  1.1313  1.8906  1.8791
   93MOL0     H12788  11.698  12.310   9.233  0.1656  0.2924  0.6596
   93MOL0     H12789  11.816  12.373   9.339 -1.4028  1.8531 -0.0905
   93MOL0     H12790  11.865  12.312   9.033  1.0312 -0.1138 -0.4346
   93MOL0     H12791  11.820  12.463   9.103 -1.6056 -0.0938  1.6369
   93MOL0     H12792  12.262  12.403   9.208 -0.6382  0.9709 -0.2102
   93MOL0     H12793  12.493  12.407   9.176  2.3496  0.6372 -0.3019
   93MOL0     H12794  12.520  12.551   9.078 -1.0756  0.1552 -1.6408
   93MOL0     H12795  12.559  12.391   9.011  1.4934  0.2151  0.6639
   93MOL0     H12796  12.683  12.446   8.686  0.0796  2.8975  0.2722
   93MOL0     H12797  12.838  12.500   8.481 -0.0219  1.1391 -2.5191
   93MOL0     H12798  12.635  12.672   8.131 -0.9817  0.8800  2.6699
   93MOL0     H12799  12.760  12.759   8.222  3.5238  0.8542 -1.6779
   93MOL0     H12800  12.869  12.587   8.004  2.1465 -0.5332  1.7453
   93MOL0     H12801  12.814  12.757   7.973  2.4941  0.3288 -0.5630
   93MOL0     H12802  13.016  12.650   8.162 -0.5682  0.8787  0.4827
   93MOL0     H12803  12.972  12.816   8.158  0.6230 -0.4596  0.4580
   93MOL0     H12804  13.055  12.808   7.907 -2.0741  0.8765  1.8792
   93MOL0     H12805  13.097  12.638   7.929  0.8468 -0.5372  0.6619
   93MOL0     H12806  13.229  12.872   8.079  1.9520 -1.3662  1.5771
   93MOL0     H12807  13.263  12.705   8.127 -2.9027 -1.3712  1.3637
   93MOL0     H12808  13.306  12.821   7.844  1.4275  0.7568 -0.0029
   93MOL0     H12809  13.336  12.653   7.896 -0.5791  0.0758 -1.2390
   93MOL0     H12810  13.509  12.719   8.045 -0.3949  1.8106  1.9839
   93MOL0     H12811  13.491  12.887   8.007  0.4272 -0.6513  2.0845
   93MOL0     H12812  13.604  12.667   7.842 -0.4061  0.9529 -2.4589
   93MOL0     H12813  13.687  12.820   7.882  0.9961 -1.6128  1.8086
   93MOL0     H12814  12.489  12.507   8.230 -1.7532 -1.1339  0.2853
   93MOL0     H12815  12.354  12.434   8.425  0.5608 -1.6369  1.2853
   93MOL0     H12816  12.199  12.427   8.724 -0.1485 -1.1672 -0.1554
   93MOL0     H12817  11.996  12.411   8.865 -2.1033 -1.5261  3.3304
   93MOL0     H12818  11.062  11.210   8.605 -0.9262 -1.5697  1.1062
   93MOL0     H12819  10.862  11.125   8.488  5.3629  1.0308  0.0321
   93MOL0     H12820  10.355  10.904   8.624 -2.4674  2.6585  0.7156
   93MOL0     H12821  10.265  10.739   8.485  0.8191 -1.6573 -0.0782
   93MOL0     H12822  10.227  10.833   8.042  0.4659 -0.6144 -2.3579
   93MOL0     H12823  10.381  10.744   8.073 -0.0436 -0.4290  0.4047
   93MOL0     H12824  10.099  10.620   8.026  0.1190 -1.0202  0.1815
   93MOL0     H12825  10.242  10.524   8.037 -0.5202 -1.9064 -4.2339
   93MOL0     H12826  10.155  10.555   7.809  1.2356 -0.8414  2.9512
   93MOL0     H12827  10.206  10.731   7.815 -0.0258 -0.3198 -2.0306
   93MOL0     H12828  10.343  10.542   7.706 -1.8481 -3.9593  2.0118
   93MOL0     H12829  10.399  10.495   7.866 -1.2650 -1.0910 -1.0801
   93MOL0     H12830  10.621  10.848   7.849 -0.1577  2.2366 -2.1579
   93MOL0     H12831  10.385  10.981   8.137  1.2045  0.2992  0.5894
   93MOL0     H12832  10.652  11.107   8.284 -0.0656 -2.1274 -0.6125
   93MOL0     H12833  10.539  11.147   8.159 -2.9954  0.5037 -0.5050
   93MOL0     H12834  10.523  11.236   8.313  0.3461 -1.3861  0.5872
   94MOL0     O12835   3.860   1.775   7.486 -0.3551 -1.1022  0.2648
   94MOL0     C12836   3.886   1.807   7.372 -0.0822 -0.1496 -1.1957
   94MOL0     O12837   4.013   1.825   7.322  0.4610 -0.5443  0.3272
   94MOL0     C12838   4.115   1.826   7.411 -0.4923  0.3012 -0.7281
   94MOL0     C12839   4.145   1.930   7.498  0.3866  0.2075 -0.2222
   94MOL0     C12840   4.259   1.916   7.580  0.4971 -0.3884 -0.5417
   94MOL0     C12841   4.338   1.804   7.581 -1.1218  0.5282 -0.0828
   94MOL0     O12842   4.463   1.788   7.639 -0.2969 -0.1029  0.4770
   94MOL0     C12843   4.537   1.909   7.649  0.0770 -0.6150 -0.4218
   94MOL0     C12844   4.520   1.979   7.787  0.6234 -0.5559 -0.2994
   94MOL0     C12845   4.638   2.076   7.817  0.0960 -1.0123 -0.5845
   94MOL0     C12846   4.602   2.158   7.950  0.0707  1.2853 -0.4892
   94MOL0     C12847   4.690   2.274   7.995 -0.1374  0.1960  0.6553
   94MOL0     C12848   4.840   2.245   8.000 -0.7857 -0.2284  0.2254
   94MOL0     C12849   4.919   2.374   8.046  1.1353 -0.0733  0.0964
   94MOL0     C12850   5.069   2.369   8.028  0.8212  0.9436 -0.1174
   94MOL0     N12851   5.153   2.341   8.152  0.7969  0.5882 -0.6431
   94MOL0     C12852   5.232   2.433   8.213 -0.9527  0.3849  0.2628
   94MOL0     C12853   5.286   2.374   8.318  0.3791  0.3730  0.0132
   94MOL0     C12854   5.389   2.426   8.415  0.8140 -0.0134  0.3354
   94MOL0     C12855   5.525   2.379   8.374 -0.3068 -0.2094 -0.1057
   94MOL0     C12856   5.581   2.267   8.454 -0.2464 -0.2426  0.0325
   94MOL0     C12857   5.721   2.230   8.427 -0.4545 -0.6812  0.3991
   94MOL0     O12858   5.744   2.186   8.295 -0.7402  0.2108  1.0606
   94MOL0     C12859   5.873   2.148   8.267  0.0821  1.0381  0.0091
   94MOL0     C12860   5.898   2.083   8.149 -1.2188 -0.4456 -0.0281
   94MOL0     C12861   6.031   2.036   8.112 -0.6111 -1.0326 -0.6422
   94MOL0     C12862   6.039   1.961   7.985  0.8515  0.3659 -0.1631
   94MOL0     C12863   6.144   2.056   8.200  0.0025  0.0195  0.0545
   94MOL0     C12864   6.288   2.025   8.171 -1.0969  0.2312 -0.1405
   94MOL0     O12865   6.370   2.021   8.279 -0.3400  0.7564 -0.1771
   94MOL0     C12866   6.502   1.992   8.279 -0.5130  0.1998  0.6199
   94MOL0     C12867   6.579   2.059   8.380 -1.1029 -0.2720 -0.0199
   94MOL0     C12868   6.714   2.024   8.405 -0.4363 -0.2694 -0.1418
   94MOL0     C12869   6.774   1.928   8.322  0.2640  0.1130 -0.3733
   94MOL0     O12870   6.901   1.897   8.341 -0.2592  0.1789 -0.6818
   94MOL0     C12871   6.995   1.988   8.401 -0.0769  0.2859 -0.2426
   94MOL0     C12872   7.143   1.940   8.371  0.5740  0.5047  0.2332
   94MOL0     C12873   7.229   2.020   8.467  0.3842 -0.2094  0.0605
   94MOL0     C12874   7.378   2.019   8.422 -0.3064  0.1116 -0.0843
   94MOL0     C12875   7.404   2.123   8.312  0.1638 -0.0175 -0.6441
   94MOL0     C12876   7.544   2.120   8.285 -0.4708 -0.0165 -0.1697
   94MOL0     C12877   7.569   2.194   8.158  0.5665  0.1919  0.8113
   94MOL0     C12878   7.517   2.126   8.024  0.1999  0.2158 -0.2357
   94MOL0    Cl12879   7.622   2.158   7.882 -0.3260 -0.3664  0.1580
   94MOL0     C12880   6.705   1.869   8.223 -0.3158  0.1813 -0.4808
   94MOL0     C12881   6.575   1.903   8.197 -0.3664  0.5036  0.1967
   94MOL0     O12882   6.321   2.009   8.053  0.9858  0.5133  0.0811
   94MOL0     C12883   6.116   2.120   8.326 -0.7655  0.6031 -0.0361
   94MOL0     C12884   5.979   2.149   8.359 -0.1809  0.0889  0.7206
   94MOL0     N12885   5.229   2.249   8.331  0.0896  0.4077  0.1150
   94MOL0     N12886   5.160   2.228   8.221  0.0760  0.5276 -0.7456
   94MOL0     C12887   4.296   1.694   7.508  0.4001  0.4828 -0.7874
   94MOL0     C12888   4.191   1.706   7.414  0.5404 -1.3972 -0.3246
   94MOL0     C12889   3.775   1.810   7.287 -1.2824 -0.0638  0.2106
   94MOL0     C12890   3.765   1.917   7.189  0.3557  0.4322 -0.5862
   94MOL0     C12891   3.650   1.925   7.119  0.1048  0.1291  0.8927
   94MOL0     C12892   3.553   1.819   7.111 -1.0435 -0.2402 -0.5262
   94MOL0     O12893   3.454   1.816   7.017  0.0282  0.1637  0.1968
   94MOL0     C12894   3.402   1.946   6.970  0.6777 -0.2455  0.0943
   94MOL0     C12895   3.247   1.948   6.989  0.3703  0.2141  0.3325
   94MOL0     C12896   3.159   1.866   6.879  0.1062 -0.4042  0.0596
   94MOL0     C12897   3.015   1.867   6.908  0.0528  0.5940 -0.5170
   94MOL0     C12898   2.942   1.988   6.899 -0.1646 -0.1868  0.4224
   94MOL0     C12899   2.885   2.094   6.904  0.0226 -0.5344  0.3564
   94MOL0     C12900   3.563   1.710   7.205  0.4298  1.2695  0.2821
   94MOL0     C12901   3.674   1.708   7.290  0.6901 -0.2283 -0.6782
   94MOL0     C12902   3.668   1.599   7.398  1.2524 -0.4731 -0.1305
   94MOL0     H12903   4.073   2.012   7.495  0.8431  0.6016 -0.8860
   94MOL0     H12904   4.264   2.001   7.648 -3.8425  1.4330 -2.1410
   94MOL0     H12905   4.518   1.968   7.560 -0.7138  0.9602  0.7451
   94MOL0     H12906   4.641   1.873   7.649  0.7364  0.9011  2.6470
   94MOL0     H12907   4.429   2.039   7.784 -0.7225 -2.4399  0.9103
   94MOL0     H12908   4.509   1.904   7.866  1.0334  0.1829  0.4802
   94MOL0     H12909   4.728   2.021   7.847 -1.2877 -1.6504  2.7892
   94MOL0     H12910   4.653   2.140   7.729 -2.1157 -1.3193 -1.2390
   94MOL0     H12911   4.504   2.200   7.926 -1.5606 -0.0738  3.1151
   94MOL0     H12912   4.579   2.089   8.032 -0.2250  0.9100 -0.8863
   94MOL0     H12913   4.673   2.299   8.100  0.1505 -0.1424  0.7847
   94MOL0     H12914   4.667   2.355   7.925 -0.1526 -2.1138 -2.2306
   94MOL0     H12915   4.849   2.171   8.081  1.8819 -1.0216 -0.7073
   94MOL0     H12916   4.878   2.195   7.911 -0.9489 -0.4521  0.2778
   94MOL0     H12917   4.904   2.391   8.153 -0.6731  3.3751 -0.5572
   94MOL0     H12918   4.889   2.460   7.986 -1.2733 -0.6536  0.3387
   94MOL0     H12919   5.094   2.298   7.949  0.7298  1.8312 -0.9695
   94MOL0     H12920   5.092   2.468   7.986  1.2070  1.6652  1.7324
   94MOL0     H12921   5.265   2.533   8.188  0.9297 -0.3698 -0.4194
   94MOL0     H12922   5.367   2.397   8.518 -0.7974  2.0744  0.6552
   94MOL0     H12923   5.385   2.535   8.407  2.9099  0.0002 -1.8763
   94MOL0     H12924   5.516   2.353   8.268 -1.9362 -1.0239  0.2020
   94MOL0     H12925   5.585   2.469   8.389 -2.8889  1.9153 -1.6346
   94MOL0     H12926   5.571   2.297   8.559 -1.1353 -2.5623  0.6917
   94MOL0     H12927   5.510   2.185   8.439 -0.0079 -0.3282 -0.6187
   94MOL0     H12928   5.783   2.318   8.446  0.6690 -1.4672  0.4560
   94MOL0     H12929   5.752   2.153   8.498  2.0308  0.4097  0.6037
   94MOL0     H12930   5.817   2.070   8.078 -2.4521 -1.4729  1.4872
   94MOL0     H12931   5.941   1.969   7.936 -0.5772  1.7266  2.6703
   94MOL0     H12932   6.046   1.856   8.014 -0.0741 -0.3704 -2.3669
   94MOL0     H12933   6.111   1.999   7.912 -0.0642  0.3287 -1.1083
   94MOL0     H12934   6.546   2.137   8.448  0.4378  0.1214  0.3115
   94MOL0     H12935   6.775   2.072   8.481  0.4112 -1.7545  0.1492
   94MOL0     H12936   6.975   2.088   8.362 -0.0606  0.3946  0.0267
   94MOL0     H12937   6.982   1.988   8.510  0.6033  1.6838 -0.1414
   94MOL0     H12938   7.157   1.832   8.380 -0.1510  0.3678 -0.2003
   94MOL0     H12939   7.171   1.950   8.265 -1.1990  0.0750 -0.3036
   94MOL0     H12940   7.225   1.980   8.569 -2.6827 -1.6189 -0.4871
   94MOL0     H12941   7.197   2.123   8.487  1.6243 -0.3613  3.5586
   94MOL0     H12942   7.409   1.920   8.388  3.5166  0.9015  0.6542
   94MOL0     H12943   7.443   2.054   8.502 -0.3055  0.9204 -0.4239
   94MOL0     H12944   7.337   2.100   8.229  0.8191  0.6152 -1.3691
   94MOL0     H12945   7.395   2.228   8.344  1.0783  0.4808 -1.9656
   94MOL0     H12946   7.591   2.021   8.283 -0.0846  0.1293  1.0785
   94MOL0     H12947   7.597   2.160   8.371  2.6236 -2.3342 -0.8279
   94MOL0     H12948   7.677   2.209   8.146  0.5186 -1.2660 -2.4891
   94MOL0     H12949   7.514   2.288   8.161 -2.1069 -1.2770  0.5103
   94MOL0     H12950   7.411   2.152   8.010  0.0845  1.1179  1.8342
   94MOL0     H12951   7.520   2.018   8.039  1.7551  0.0851 -1.3516
   94MOL0     H12952   6.754   1.805   8.151 -0.6684  0.9680 -1.4365
   94MOL0     H12953   6.531   1.854   8.111  2.1954 -1.5685 -0.0673
   94MOL0     H12954   6.201   2.145   8.388 -1.2962  3.9190 -0.4521
   94MOL0     H12955   5.968   2.185   8.461 -2.2253  1.9654 -0.0988
   94MOL0     H12956   4.345   1.598   7.523  0.7981  1.0429  1.8795
   94MOL0     H12957   4.175   1.625   7.344  2.9876 -1.8784 -0.4212
   94MOL0     H12958   3.834   1.999   7.171  0.9925 -0.3607 -1.9159
   94MOL0     H12959   3.629   2.019   7.069 -2.5270  0.0566  1.7076
   94MOL0     H12960   3.437   2.020   7.042  0.1737  1.2970 -1.1812
   94MOL0     H12961   3.438   1.971   6.870 -1.2979  0.1801 -0.5512
   94MOL0     H12962   3.203   2.046   7.013 -0.8934 -0.8887  2.9003
   94MOL0     H12963   3.228   1.899   7.084  2.9963  1.2976  1.5102
   94MOL0     H12964   3.163   1.925   6.788 -1.1037 -0.0624  0.2065
   94MOL0     H12965   3.204   1.767   6.868 -1.7260 -1.2961  0.1240
   94MOL0     H12966   2.990   1.827   7.006 -0.2436  1.4176 -0.2459
   94MOL0     H12967   2.964   1.814   6.827  2.1907 -0.0351 -1.5316
   94MOL0     H12968   2.826   2.183   6.906 -0.1551 -0.6346 -0.2386
   94MOL0     H12969   3.488   1.632   7.208  0.9832  0.7726  1.9886
   94MOL0     H12970   3.585   1.531   7.377  0.7838  0.8534 -3.0646
   94MOL0     H12971   3.751   1.528   7.389 -0.4370 -2.5317 -0.5195
   94MOL0     H12972   3.662   1.637   7.500  2.5358 -0.3228 -0.0972
   95MOL0     O12973   8.127   9.877   3.890 -0.2766 -0.2335 -0.4828
   95MOL0     C12974   8.186   9.909   3.990 -0.4302  0.1333  0.6611
   95MOL0     O12975   8.194  10.035   4.043  0.5506 -0.1405  0.5441
   95MOL0     C12976   8.130  10.140   3.984 -0.1651  0.3923 -0.2675
   95MOL0     C12977   8.042  10.219   4.056  0.2200  0.2004 -1.2710
   95MOL0     C12978   7.964  10.321   3.992 -0.0663  0.2209 -0.5325
   95MOL0     C12979   7.989  10.356   3.857 -0.4080  0.6469 -0.3498
   95MOL0     O12980   7.923  10.460   3.798 -0.4159 -0.0884  0.0388
   95MOL0     C12981   7.972  10.516   3.677  0.0404 -0.2258  0.5614
   95MOL0     C12982   7.909  10.657   3.653 -0.3669 -0.3555  0.6284
   95MOL0     C12983   7.993  10.772   3.713 -0.1570 -0.1815 -0.9144
   95MOL0     C12984   7.904  10.898   3.722  0.6539 -0.8670 -0.1435
   95MOL0     C12985   7.982  11.009   3.797 -0.6604 -0.6026 -0.5333
   95MOL0     C12986   7.880  11.120   3.827  0.0433  0.6750 -0.2611
   95MOL0     C12987   7.942  11.244   3.888  0.1807 -0.4487  1.2054
   95MOL0     C12988   8.023  11.206   4.016 -0.0414  0.1968  0.4318
   95MOL0     N12989   8.098  11.321   4.063  0.3034 -0.7167 -1.2029
   95MOL0     C12990   8.195  11.398   4.003  0.2492  1.1605  0.3705
   95MOL0     C12991   8.257  11.470   4.105  0.6628 -0.4882  0.2169
   95MOL0     C12992   8.375  11.558   4.115 -0.0693 -0.2654  0.2435
   95MOL0     C12993   8.510  11.474   4.135  0.0049 -0.2213 -0.6405
   95MOL0     C12994   8.637  11.559   4.133 -0.3919  0.3536 -0.5546
   95MOL0     C12995   8.660  11.610   4.280  0.3685  0.1176  0.0585
   95MOL0     O12996   8.784  11.680   4.293  0.5078  0.1240  0.1464
   95MOL0     C12997   8.792  11.740   4.416  0.2599 -0.3975 -0.2088
   95MOL0     C12998   8.766  11.877   4.437  0.1503 -0.6104  0.3868
   95MOL0     C12999   8.777  11.932   4.562  0.2210  0.0594  0.2147
   95MOL0     C13000   8.729  12.079   4.579  0.2545 -1.0972 -0.4149
   95MOL0     C13001   8.807  11.848   4.667  0.4065 -0.3314 -0.0431
   95MOL0     C13002   8.814  11.888   4.807 -0.7849 -0.6240 -0.7808
   95MOL0     O13003   8.915  11.827   4.876  0.3164  1.0250  0.2963
   95MOL0     C13004   8.954  11.860   5.001  0.1302 -0.2697 -0.5901
   95MOL0     C13005   8.869  11.922   5.093 -0.5638 -0.4962 -0.1369
   95MOL0     C13006   8.922  11.956   5.217  0.3605 -0.6791  0.3512
   95MOL0     C13007   9.061  11.928   5.251 -0.0213 -0.1493 -0.0405
   95MOL0     O13008   9.122  11.972   5.366  0.1413  0.1427 -0.7629
   95MOL0     C13009   9.039  12.038   5.473 -1.2143 -0.8650  0.3278
   95MOL0     C13010   9.112  12.109   5.578 -0.1332 -0.1771 -0.1628
   95MOL0     C13011   9.214  12.009   5.636 -0.1183 -0.2106  0.4204
   95MOL0     C13012   9.293  12.075   5.745  0.1832 -0.2531 -0.6637
   95MOL0     C13013   9.431  12.135   5.693 -1.5402  0.0168 -0.6467
   95MOL0     C13014   9.511  12.176   5.817 -0.8934 -0.7597 -0.3147
   95MOL0     C13015   9.632  12.266   5.781  0.0237 -0.1229 -0.5297
   95MOL0     C13016   9.749  12.198   5.720 -0.5346  0.4401  0.0839
   95MOL0    Cl13017   9.881  12.301   5.707 -0.5642  0.1275 -0.4934
   95MOL0     C13018   9.132  11.850   5.164 -0.3179  0.7916  0.2781
   95MOL0     C13019   9.079  11.823   5.036  0.0931  0.3069 -0.3914
   95MOL0     O13020   8.746  11.988   4.849  0.4920  0.1359 -0.3028
   95MOL0     C13021   8.821  11.713   4.647 -0.0288 -1.2962 -0.4675
   95MOL0     C13022   8.815  11.658   4.521 -0.2646  0.9411 -0.4573
   95MOL0     N13023   8.191  11.442   4.224 -0.7229  0.1419  0.1041
   95MOL0     N13024   8.095  11.363   4.196 -0.5550 -0.1088  0.4600
   95MOL0     C13025   8.083  10.275   3.784 -0.0592 -0.2718  0.2561
   95MOL0     C13026   8.144  10.172   3.849 -0.3250  1.0072 -0.7319
   95MOL0     C13027   8.255   9.801   4.068 -0.2400 -0.5451  0.9484
   95MOL0     C13028   8.327   9.845   4.183  0.7318  0.0379 -0.6757
   95MOL0     C13029   8.405   9.758   4.262 -1.0808  0.2648 -0.2838
   95MOL0     C13030   8.397   9.624   4.236 -0.2397  0.6964 -0.0407
   95MOL0     O13031   8.468   9.529   4.301  0.3506 -0.0801  0.2590
   95MOL0     C13032   8.463   9.539   4.441 -0.3582 -0.3573 -0.5268
   95MOL0     C13033   8.337   9.477   4.517  0.6145 -0.1904 -0.6152
   95MOL0     C13034   8.285   9.360   4.441  0.8929  1.1302  0.6740
   95MOL0     C13035   8.149   9.307   4.485  0.1463  0.0686  0.1665
   95MOL0     C13036   8.056   9.410   4.440  0.3295 -0.0102  0.1839
   95MOL0     C13037   7.997   9.487   4.368 -0.3019 -0.3762 -0.2383
   95MOL0     C13038   8.320   9.571   4.129 -1.0768  0.6185  0.0836
   95MOL0     C13039   8.257   9.654   4.037  0.1194  0.4766  0.1923
   95MOL0     C13040   8.200   9.594   3.907 -0.4017 -0.1827  1.1333
   95MOL0     H13041   8.029  10.194   4.161 -0.5381  3.5752 -0.4397
   95MOL0     H13042   7.900  10.374   4.062  2.6820  0.1798  2.1887
   95MOL0     H13043   7.941  10.451   3.595 -0.6791  0.4281  0.3020
   95MOL0     H13044   8.081  10.512   3.669  0.0478  1.6561 -0.8870
   95MOL0     H13045   7.900  10.675   3.545  0.2784  1.0265  0.7837
   95MOL0     H13046   7.809  10.656   3.697 -1.4763 -0.8529 -1.7206
   95MOL0     H13047   8.015  10.740   3.815 -0.8138 -0.3255 -0.8116
   95MOL0     H13048   8.078  10.802   3.651  1.4065 -0.3380  1.0662
   95MOL0     H13049   7.862  10.935   3.628  2.3434  0.8753 -0.2694
   95MOL0     H13050   7.818  10.871   3.783 -0.6820 -1.4611 -2.1691
   95MOL0     H13051   8.056  11.058   3.732 -0.2797 -1.4269 -0.7334
   95MOL0     H13052   8.025  10.977   3.892 -0.0568 -0.2349 -0.6737
   95MOL0     H13053   7.842  11.139   3.726  0.4666 -1.4683 -0.8880
   95MOL0     H13054   7.796  11.085   3.888  1.2075  1.4637  1.9003
   95MOL0     H13055   7.862  11.318   3.900  0.3599  0.0317 -0.3957
   95MOL0     H13056   8.006  11.280   3.807 -2.1327  0.1045 -0.4739
   95MOL0     H13057   7.938  11.180   4.080 -0.1490 -1.9262 -0.5129
   95MOL0     H13058   8.095  11.126   3.998 -0.5055 -0.4203  1.2262
   95MOL0     H13059   8.223  11.405   3.898  1.2627  1.7908  0.6646
   95MOL0     H13060   8.363  11.625   4.200  1.4464 -0.9192  1.0220
   95MOL0     H13061   8.381  11.622   4.026  0.0403 -0.2061  0.2933
   95MOL0     H13062   8.519  11.421   4.231 -1.3892 -1.8427 -1.3639
   95MOL0     H13063   8.521  11.405   4.051 -0.5153 -2.2876  0.9158
   95MOL0     H13064   8.725  11.499   4.106 -1.4180 -2.1129  1.1179
   95MOL0     H13065   8.623  11.639   4.060 -3.2665 -2.0118 -2.8588
   95MOL0     H13066   8.578  11.679   4.301  0.0335 -0.9300  2.5065
   95MOL0     H13067   8.655  11.521   4.344  1.6054  0.8098  1.1505
   95MOL0     H13068   8.746  11.928   4.343  1.1107  0.2483  0.6230
   95MOL0     H13069   8.716  12.123   4.479  1.6823  0.0172 -0.1402
   95MOL0     H13070   8.801  12.146   4.627 -0.8013  0.3070 -0.7166
   95MOL0     H13071   8.634  12.072   4.633 -0.2689 -1.3359 -1.3325
   95MOL0     H13072   8.763  11.932   5.070 -0.3258 -3.3621 -3.2393
   95MOL0     H13073   8.872  12.010   5.297  1.7013  4.2183 -1.7215
   95MOL0     H13074   8.997  12.125   5.423  0.4293  0.7220  1.5475
   95MOL0     H13075   8.959  11.972   5.507 -1.1677 -1.3636 -0.5003
   95MOL0     H13076   9.162  12.197   5.536 -1.0208 -0.3157 -1.5895
   95MOL0     H13077   9.042  12.133   5.659 -0.8066 -4.9622  0.9837
   95MOL0     H13078   9.278  11.973   5.555 -0.4803 -0.6901  0.3383
   95MOL0     H13079   9.176  11.920   5.689 -0.0223  0.2317  1.2541
   95MOL0     H13080   9.309  11.992   5.814 -1.7144 -0.9688 -1.0100
   95MOL0     H13081   9.240  12.152   5.802 -0.9692 -0.6672 -1.1237
   95MOL0     H13082   9.476  12.057   5.631 -1.2102 -0.4629  0.1817
   95MOL0     H13083   9.412  12.221   5.629  1.0333  1.4221  0.3097
   95MOL0     H13084   9.544  12.083   5.866 -0.4786 -1.0675 -1.1565
   95MOL0     H13085   9.443  12.227   5.886 -3.8146 -4.3040 -0.2838
   95MOL0     H13086   9.667  12.320   5.870  2.2440  0.5871 -1.7509
   95MOL0     H13087   9.601  12.360   5.735 -0.0863 -1.0394 -2.4203
   95MOL0     H13088   9.720  12.169   5.618 -0.6473 -1.2159  0.5526
   95MOL0     H13089   9.791  12.125   5.789 -0.1451  1.7383  1.2635
   95MOL0     H13090   9.233  11.812   5.181 -0.3516 -0.8899 -2.5394
   95MOL0     H13091   9.140  11.770   4.964  0.4615 -1.3987  1.0907
   95MOL0     H13092   8.844  11.648   4.732  2.1874  1.9325  1.6360
   95MOL0     H13093   8.809  11.552   4.499 -0.9807  1.4066 -2.7959
   95MOL0     H13094   8.106  10.290   3.679 -0.8627  0.2220  0.1424
   95MOL0     H13095   8.213  10.110   3.792 -1.2457  1.6409 -2.6342
   95MOL0     H13096   8.330   9.949   4.214  0.5168 -0.2413  0.2962
   95MOL0     H13097   8.462   9.801   4.343 -1.2987  1.8041 -0.9105
   95MOL0     H13098   8.553   9.488   4.475  0.6817  0.0943 -2.4915
   95MOL0     H13099   8.473   9.642   4.476 -0.7710  0.1561 -1.8518
   95MOL0     H13100   8.264   9.557   4.531  1.2406  0.6884 -2.0299
   95MOL0     H13101   8.365   9.436   4.614  1.1628 -0.0462 -0.7053
   95MOL0     H13102   8.289   9.385   4.335 -0.5068  2.1094  0.8304
   95MOL0     H13103   8.357   9.279   4.457  0.3259  0.5473  0.2895
   95MOL0     H13104   8.152   9.305   4.594 -2.1627  2.9850  0.4007
   95MOL0     H13105   8.137   9.208   4.439  0.0315 -1.2076  2.7715
   95MOL0     H13106   7.952   9.563   4.309 -1.0401  0.4877  1.3655
   95MOL0     H13107   8.322   9.463   4.116 -0.3265  0.8942 -2.8132
   95MOL0     H13108   8.091   9.596   3.913 -0.4562 -1.4891  0.7985
   95MOL0     H13109   8.237   9.635   3.813  0.3704 -0.0508  1.4888
   95MOL0     H13110   8.230   9.489   3.898 -0.4353 -0.1205  0.1943
   96MOL0     O13111   5.561   0.144   9.307  0.3891  0.5188  0.0816
   96MOL0     C13112   5.604   0.189   9.412  0.2308 -0.5503  0.3958
   96MOL0     O13113   5.725   0.166   9.466  0.3763 -0.5971 -1.2863
   96MOL0     C13114   5.805   0.069   9.410  0.1497 -0.6498 -0.2686
   96MOL0     C13115   5.808  -0.062   9.457 -0.3951  0.0568 -0.7499
   96MOL0     C13116   5.898  -0.152   9.393  1.3200 -0.1749  0.9259
   96MOL0     C13117   5.982  -0.112   9.297  0.6714 -0.3971 -0.0528
   96MOL0     O13118   6.056  -0.216   9.247 -0.2487  0.4487 -0.1367
   96MOL0     C13119   6.186  -0.191   9.184  0.6193  0.5899 -0.0474
   96MOL0     C13120   6.289  -0.201   9.290 -0.8087 -0.3533  0.1159
   96MOL0     C13121   6.435  -0.160   9.238 -0.0089 -0.5294  0.7724
   96MOL0     C13122   6.470  -0.241   9.106 -0.4739 -0.2155  0.1311
   96MOL0     C13123   6.609  -0.210   9.056 -0.0820  0.0419  0.3940
   96MOL0     C13124   6.723  -0.258   9.149 -0.4105 -0.2000  0.7391
   96MOL0     C13125   6.864  -0.242   9.080  0.7935  0.2898 -0.2887
   96MOL0     C13126   6.887  -0.100   9.023  1.5065 -0.6416 -0.5298
   96MOL0     N13127   7.026  -0.064   8.999 -0.1155 -0.5495  0.1767
   96MOL0     C13128   7.101  -0.131   8.909 -0.8267 -0.6683 -0.9026
   96MOL0     C13129   7.210  -0.062   8.891 -0.6511 -0.0402  0.0839
   96MOL0     C13130   7.338  -0.104   8.821  0.3912  0.1165  0.1630
   96MOL0     C13131   7.464  -0.086   8.911  0.0074  0.6340  0.4372
   96MOL0     C13132   7.467  -0.189   9.024  0.0585  0.1147  0.3368
   96MOL0     C13133   7.564  -0.155   9.138 -0.4805 -0.5377  0.0548
   96MOL0     O13134   7.703  -0.156   9.097 -0.7105  0.1432  0.6672
   96MOL0     C13135   7.783  -0.077   9.172  0.2473  0.1263 -0.5184
   96MOL0     C13136   7.879  -0.141   9.255  0.3437  0.6298 -0.0116
   96MOL0     C13137   7.963  -0.074   9.346  0.5128  0.5625  0.3678
   96MOL0     C13138   8.057  -0.144   9.441 -0.5825  0.1172 -0.2455
   96MOL0     C13139   7.954   0.073   9.344  0.1443  0.2109  0.3498
   96MOL0     C13140   8.052   0.165   9.416  0.5916 -0.3922  0.9391
   96MOL0     O13141   8.167   0.115   9.470  0.8635  0.0447  0.0034
   96MOL0     C13142   8.238   0.195   9.555  0.4620 -0.5652 -0.3587
   96MOL0     C13143   8.214   0.182   9.699 -0.2284 -0.1398  0.7249
   96MOL0     C13144   8.281   0.265   9.786  0.5641 -0.0783 -0.5819
   96MOL0     C13145   8.355   0.378   9.736  0.1148 -0.5073  0.5134
   96MOL0     O13146   8.428   0.456   9.811  0.0202 -0.1434 -0.4171
   96MOL0     C13147   8.569   0.460   9.774  1.1284  0.7528 -0.3989
   96MOL0     C13148   8.644   0.552   9.870  0.5159 -0.2492  0.5275
   96MOL0     C13149   8.794   0.545   9.828 -0.3602 -0.5912 -0.0172
   96MOL0     C13150   8.903   0.569   9.946  0.1225  0.2733  0.5901
   96MOL0     C13151   8.936   0.714   9.973 -0.3319 -0.3474 -0.4685
   96MOL0     C13152   9.055   0.721  10.073  0.6133 -0.9622 -0.5464
   96MOL0     C13153   9.098   0.870  10.081  0.6680  0.3262 -0.4262
   96MOL0     C13154   9.211   0.883  10.173 -0.1514 -0.2378  0.3590
   96MOL0    Cl13155   9.343   0.793  10.115 -0.2189 -0.2195  0.0505
   96MOL0     C13156   8.361   0.396   9.597 -0.2513 -0.6638  0.5916
   96MOL0     C13157   8.317   0.303   9.506  0.9357 -0.7954  0.0702
   96MOL0     O13158   8.026   0.286   9.409 -0.2003  0.5770  0.4148
   96MOL0     C13159   7.854   0.130   9.260 -0.6822 -0.1321 -0.8868
   96MOL0     C13160   7.768   0.062   9.182 -0.3442  0.7166  0.0535
   96MOL0     N13161   7.193   0.056   8.963 -0.2015 -0.4856 -1.2720
   96MOL0     N13162   7.083   0.050   9.035  0.0044  0.1044  0.5135
   96MOL0     C13163   5.981   0.019   9.245  0.1782  0.4012 -0.0461
   96MOL0     C13164   5.897   0.110   9.310  0.3474 -0.0548 -0.1168
   96MOL0     C13165   5.512   0.274   9.491  0.1109  0.3944  0.4346
   96MOL0     C13166   5.400   0.329   9.420 -0.0734  0.1837 -0.6458
   96MOL0     C13167   5.309   0.416   9.480  0.3268  0.0671 -0.1455
   96MOL0     C13168   5.328   0.461   9.609 -0.4233  1.5779 -0.3604
   96MOL0     O13169   5.239   0.544   9.674 -0.1763  0.4133 -0.5561
   96MOL0     C13170   5.117   0.591   9.613  0.9287  0.0329  0.0647
   96MOL0     C13171   4.994   0.485   9.620  0.1985 -0.2384  0.4539
   96MOL0     C13172   4.966   0.436   9.764 -0.1858 -0.3433  0.7889
   96MOL0     C13173   5.044   0.303   9.788 -0.5441 -0.1732  0.7260
   96MOL0     C13174   4.971   0.178   9.741  0.7505  0.0939  0.3557
   96MOL0     C13175   4.907   0.068   9.721 -0.0249 -0.5203  0.3942
   96MOL0     C13176   5.446   0.411   9.683  0.0503 -0.2547  0.5889
   96MOL0     C13177   5.529   0.318   9.626 -0.2617  0.0866 -0.8373
   96MOL0     C13178   5.639   0.269   9.716  1.0257  0.0800 -0.7081
   96MOL0     H13179   5.747  -0.088   9.543  1.4835  2.3098  1.4428
   96MOL0     H13180   5.891  -0.257   9.421  0.5148  0.2994  2.5757
   96MOL0     H13181   6.181  -0.091   9.140 -1.4774  0.3222 -0.5163
   96MOL0     H13182   6.204  -0.268   9.109  1.2770  0.6909  0.0008
   96MOL0     H13183   6.260  -0.136   9.373 -0.4433 -0.9723  0.7340
   96MOL0     H13184   6.279  -0.301   9.332  0.4417  0.8363  3.6193
   96MOL0     H13185   6.434  -0.053   9.212  0.7335 -0.9174 -1.0634
   96MOL0     H13186   6.503  -0.180   9.321 -0.8648  1.2071  1.9371
   96MOL0     H13187   6.462  -0.347   9.133 -2.9825 -0.2359 -0.4377
   96MOL0     H13188   6.396  -0.213   9.031 -0.7699  1.7847  1.1021
   96MOL0     H13189   6.615  -0.101   9.052 -0.9965  0.0830 -0.2696
   96MOL0     H13190   6.615  -0.265   8.962 -2.5399 -0.2577  0.3319
   96MOL0     H13191   6.711  -0.205   9.243  1.0310 -1.2679  1.5604
   96MOL0     H13192   6.715  -0.364   9.176 -1.7381 -0.4324 -0.4172
   96MOL0     H13193   6.871  -0.322   9.006 -2.1608 -1.0872  0.7210
   96MOL0     H13194   6.941  -0.259   9.156  0.3347  0.9984  0.3610
   96MOL0     H13195   6.839  -0.092   8.925  2.1734 -1.2589 -0.9137
   96MOL0     H13196   6.837  -0.033   9.094  0.5424 -1.6881 -0.2011
   96MOL0     H13197   7.079  -0.225   8.859 -0.2180 -1.4966  0.3437
   96MOL0     H13198   7.362  -0.052   8.728  0.2004 -2.7818 -1.6357
   96MOL0     H13199   7.328  -0.210   8.796  1.4127 -0.0675  0.4831
   96MOL0     H13200   7.554  -0.093   8.848 -0.9510 -4.3110 -0.8102
   96MOL0     H13201   7.462   0.013   8.957  1.1020  1.7175 -1.6821
   96MOL0     H13202   7.367  -0.186   9.067 -0.5513 -0.4350 -0.9893
   96MOL0     H13203   7.499  -0.289   8.993  1.0570 -0.9405  4.2787
   96MOL0     H13204   7.529  -0.064   9.188  0.0346 -0.6449  0.6216
   96MOL0     H13205   7.557  -0.231   9.216 -0.6729 -1.6583 -1.0376
   96MOL0     H13206   7.874  -0.248   9.234 -0.8926  0.8696 -1.0516
   96MOL0     H13207   8.057  -0.113   9.546 -0.3790 -1.2385  0.1757
   96MOL0     H13208   8.158  -0.145   9.399 -0.7106 -1.8930 -0.6143
   96MOL0     H13209   8.029  -0.250   9.446  0.8979 -0.2196  2.1457
   96MOL0     H13210   8.148   0.107   9.742  2.0457 -1.2816  2.4370
   96MOL0     H13211   8.268   0.250   9.892  0.2415 -1.4666 -0.7926
   96MOL0     H13212   8.607   0.359   9.791 -3.2387 -1.7111 -3.2291
   96MOL0     H13213   8.594   0.485   9.670  0.1309 -1.0904 -1.1196
   96MOL0     H13214   8.611   0.656   9.874 -0.1922 -0.3400 -1.6611
   96MOL0     H13215   8.632   0.510   9.970  1.0515 -0.1729  0.6283
   96MOL0     H13216   8.807   0.611   9.742  0.4163 -0.0185  0.5262
   96MOL0     H13217   8.814   0.441   9.800  1.1724 -0.6686  1.2701
   96MOL0     H13218   8.993   0.513   9.920 -0.9510 -0.7562 -1.1111
   96MOL0     H13219   8.856   0.527  10.036  0.0007 -0.8788  0.0149
   96MOL0     H13220   8.963   0.766   9.880 -0.1254  1.5170  0.5898
   96MOL0     H13221   8.853   0.773  10.013  0.0555 -1.7646  2.7381
   96MOL0     H13222   9.137   0.655  10.044  0.6332 -0.1224 -2.5392
   96MOL0     H13223   9.031   0.686  10.174 -0.7473  0.1459 -0.4545
   96MOL0     H13224   9.016   0.932  10.119  0.9719 -0.1824  1.1451
   96MOL0     H13225   9.116   0.905   9.979  0.2112  1.4418 -0.1450
   96MOL0     H13226   9.180   0.845  10.271 -0.9427 -0.6915 -0.0535
   96MOL0     H13227   9.253   0.983  10.190  2.0010 -1.6721  5.3017
   96MOL0     H13228   8.403   0.485   9.551  1.5242 -2.4395 -1.4598
   96MOL0     H13229   8.329   0.318   9.399  0.4976 -2.1747 -0.1861
   96MOL0     H13230   7.850   0.238   9.244 -0.1753  0.1512  0.7008
   96MOL0     H13231   7.694   0.106   9.116 -3.2456 -2.9943  0.4668
   96MOL0     H13232   6.046   0.043   9.161  2.6300 -0.1316  1.5728
   96MOL0     H13233   5.885   0.206   9.262  1.5979  0.7969  1.1971
   96MOL0     H13234   5.383   0.306   9.315 -1.1499 -1.5099 -0.1419
   96MOL0     H13235   5.234   0.451   9.411  1.6779  2.8798 -0.3389
   96MOL0     H13236   5.086   0.681   9.667  0.1422 -0.2814  0.1439
   96MOL0     H13237   5.141   0.618   9.509  1.0581 -1.3895 -0.2892
   96MOL0     H13238   4.997   0.398   9.553 -0.3659 -0.0307  0.1530
   96MOL0     H13239   4.913   0.544   9.575 -0.2215  1.6916  3.4823
   96MOL0     H13240   5.006   0.506   9.838  0.3915  0.7198 -0.4867
   96MOL0     H13241   4.858   0.435   9.781 -0.1300 -1.2422  1.1482
   96MOL0     H13242   5.059   0.288   9.895  0.6619 -1.3280  0.4172
   96MOL0     H13243   5.144   0.309   9.744 -1.7375  0.7235 -2.1252
   96MOL0     H13244   4.850  -0.020   9.696 -2.2676  0.1159  2.8072
   96MOL0     H13245   5.463   0.439   9.787 -1.7268  2.5664  0.2172
   96MOL0     H13246   5.632   0.160   9.720  0.4552 -0.1284 -4.2793
   96MOL0     H13247   5.741   0.285   9.680  1.2521  1.5995  0.5003
   96MOL0     H13248   5.642   0.315   9.816 -2.4213  0.7884 -0.8013
   97MOL0     O13249   9.719   9.464   6.132 -0.1701 -0.1585 -0.0661
   97MOL0     C13250   9.666   9.545   6.056 -0.0151  0.4148  0.0805
   97MOL0     O13251   9.724   9.629   5.980 -0.6600 -0.5820  1.1197
   97MOL0     C13252   9.864   9.639   5.988 -0.3637  0.3454 -0.0784
   97MOL0     C13253   9.961   9.538   5.971  0.0459  0.0181  0.0361
   97MOL0     C13254  10.103   9.563   5.988 -0.2397  1.4096 -0.9994
   97MOL0     C13255  10.143   9.693   5.999  0.4487  0.6135 -0.0697
   97MOL0     O13256  10.276   9.721   6.009 -0.3350 -0.5864 -0.1222
   97MOL0     C13257  10.320   9.858   6.009  0.5416 -1.9527  0.8147
   97MOL0     C13258  10.320   9.922   5.871  0.8170 -0.1539 -0.2813
   97MOL0     C13259  10.462   9.961   5.814 -0.9307 -0.1333 -1.0732
   97MOL0     C13260  10.517  10.086   5.891 -0.2572 -0.7723  0.6581
   97MOL0     C13261  10.653  10.122   5.841 -0.5671  0.7714 -0.1982
   97MOL0     C13262  10.652  10.181   5.699  0.5709  1.1643  0.0054
   97MOL0     C13263  10.772  10.261   5.670 -0.0296 -0.5038 -0.1642
   97MOL0     C13264  10.776  10.321   5.531  0.8218 -0.2895  1.0855
   97MOL0     N13265  10.904  10.389   5.504 -0.0001  0.3878  0.2144
   97MOL0     C13266  10.938  10.483   5.415 -0.7164 -0.4260 -0.2699
   97MOL0     C13267  11.072  10.480   5.391 -0.3631  0.4624 -0.3576
   97MOL0     C13268  11.161  10.563   5.313 -0.0924 -0.1781 -0.3364
   97MOL0     C13269  11.266  10.642   5.390  0.0778 -0.2140  0.3346
   97MOL0     C13270  11.208  10.725   5.506 -0.2019 -0.1416 -0.2248
   97MOL0     C13271  11.321  10.808   5.572 -0.0838 -0.4321 -0.7375
   97MOL0     O13272  11.258  10.870   5.694  0.0559  0.7568  0.4145
   97MOL0     C13273  11.271  11.002   5.708  0.3384 -0.4517  0.5379
   97MOL0     C13274  11.161  11.067   5.764  1.0386 -0.2252 -0.3714
   97MOL0     C13275  11.167  11.202   5.781 -0.3146 -0.4350 -0.2067
   97MOL0     C13276  11.042  11.256   5.842 -0.6246  0.2470  0.0746
   97MOL0     C13277  11.285  11.273   5.731  0.4905 -0.7923  0.5029
   97MOL0     C13278  11.295  11.418   5.710  0.2025  0.2312  0.2825
   97MOL0     O13279  11.389  11.454   5.633  0.1818  0.0006 -0.0931
   97MOL0     C13280  11.419  11.583   5.599 -0.4251  1.3786 -0.3231
   97MOL0     C13281  11.459  11.674   5.690 -0.5052  0.0550  0.1673
   97MOL0     C13282  11.485  11.809   5.655  0.3753  0.6636  0.2240
   97MOL0     C13283  11.474  11.843   5.514 -0.3475 -0.4023 -0.3308
   97MOL0     O13284  11.492  11.959   5.451 -0.0493  0.3245 -0.9443
   97MOL0     C13285  11.551  12.063   5.529  0.0939  0.0339 -1.2205
   97MOL0     C13286  11.647  12.127   5.421  0.0359 -0.7059 -0.8329
   97MOL0     C13287  11.761  12.209   5.480 -0.2861  0.8591  0.2723
   97MOL0     C13288  11.843  12.276   5.367 -0.2721  0.6560 -0.0837
   97MOL0     C13289  11.952  12.369   5.416 -0.0557  0.1547  0.2312
   97MOL0     C13290  12.014  12.451   5.308 -0.0913 -0.1112 -0.9821
   97MOL0     C13291  12.127  12.374   5.242  0.0512 -0.0477  0.3279
   97MOL0     C13292  12.163  12.438   5.110 -0.6225  0.4433 -0.5452
   97MOL0    Cl13293  12.314  12.350   5.057  0.1505 -0.7329 -0.3489
   97MOL0     C13294  11.444  11.740   5.419 -0.6814  0.1428 -0.3644
   97MOL0     C13295  11.402  11.613   5.469  0.1251  0.4214  0.4327
   97MOL0     O13296  11.209  11.492   5.767  0.1206 -0.0795  0.5436
   97MOL0     C13297  11.398  11.198   5.703 -0.4738  0.1211  0.0059
   97MOL0     C13298  11.393  11.061   5.699 -0.1159  0.8363  0.3627
   97MOL0     N13299  11.115  10.376   5.470  0.5455  0.1975  0.1596
   97MOL0     N13300  11.020  10.330   5.540 -0.0515 -0.0154  0.1071
   97MOL0     C13301  10.047   9.797   6.007  0.4153 -0.2317  0.3887
   97MOL0     C13302   9.910   9.775   6.004  0.4982  0.6262 -0.6104
   97MOL0     C13303   9.521   9.572   6.062  0.5099 -0.7412  0.7982
   97MOL0     C13304   9.428   9.466   6.032 -0.3956 -0.3541 -0.0910
   97MOL0     C13305   9.290   9.489   6.030  0.0684  0.9048  0.2369
   97MOL0     C13306   9.236   9.612   6.059 -0.5219  0.2892 -0.6685
   97MOL0     O13307   9.105   9.615   6.033  0.2164 -0.0539 -0.2269
   97MOL0     C13308   9.038   9.737   6.004  0.8108 -0.7090 -1.0717
   97MOL0     C13309   8.891   9.692   5.972 -0.0543 -0.4250  0.4323
   97MOL0     C13310   8.829   9.786   5.864 -0.0053  0.1984  0.9074
   97MOL0     C13311   8.693   9.727   5.818  0.4048  0.7028  1.1239
   97MOL0     C13312   8.709   9.586   5.780 -0.6101 -0.3328 -0.6755
   97MOL0     C13313   8.721   9.463   5.771  0.3278  0.4525 -0.1961
   97MOL0     C13314   9.326   9.716   6.091  0.7725 -0.7969 -0.4467
   97MOL0     C13315   9.459   9.695   6.096 -0.5109 -0.2739 -0.0858
   97MOL0     C13316   9.542   9.814   6.135  1.1174  0.7305  0.5721
   97MOL0     H13317   9.924   9.438   5.953  2.4426 -1.2662  1.8239
   97MOL0     H13318  10.174   9.482   5.996 -0.5102  1.3503  1.8024
   97MOL0     H13319  10.423   9.855   6.046  0.6124 -2.2280  0.5996
   97MOL0     H13320  10.284   9.909   6.099  1.0981 -3.0186  1.6753
   97MOL0     H13321  10.279   9.851   5.798 -2.7793 -0.1580  1.5013
   97MOL0     H13322  10.248  10.004   5.877  0.2267 -0.7349  1.4453
   97MOL0     H13323  10.532   9.882   5.844 -2.4936  0.1907  4.7011
   97MOL0     H13324  10.460   9.981   5.707  2.5305 -0.5429 -1.3289
   97MOL0     H13325  10.453  10.174   5.888 -0.4945 -0.9725 -0.2516
   97MOL0     H13326  10.534  10.064   5.997  1.9173 -0.6712  0.3915
   97MOL0     H13327  10.725  10.040   5.841  0.1284  1.2673  2.3381
   97MOL0     H13328  10.698  10.188   5.917  0.9566 -3.6897  3.2501
   97MOL0     H13329  10.631  10.104   5.624  0.9532  0.9975  0.0709
   97MOL0     H13330  10.579  10.260   5.680 -0.6657 -0.5764 -3.3392
   97MOL0     H13331  10.855  10.191   5.687  0.4435  0.3257  1.1010
   97MOL0     H13332  10.778  10.337   5.748  1.7381 -1.0332  0.2694
   97MOL0     H13333  10.763  10.241   5.457 -0.2575  0.8716 -0.0260
   97MOL0     H13334  10.693  10.388   5.508 -0.2300 -2.1412 -0.9812
   97MOL0     H13335  10.868  10.543   5.358  1.3914  1.9875 -0.5332
   97MOL0     H13336  11.103  10.634   5.253  1.8384 -0.3209 -2.5156
   97MOL0     H13337  11.209  10.505   5.234 -0.5853 -1.0051 -0.0452
   97MOL0     H13338  11.343  10.572   5.426 -1.3809 -0.8147  2.4878
   97MOL0     H13339  11.298  10.720   5.321 -3.1848  0.0045 -1.0853
   97MOL0     H13340  11.127  10.785   5.464 -1.5706 -2.2180 -0.7150
   97MOL0     H13341  11.160  10.665   5.583  1.7376  1.7432  2.6918
   97MOL0     H13342  11.393  10.731   5.603  1.1020  0.9106 -0.0214
   97MOL0     H13343  11.373  10.884   5.513 -1.3513 -0.3175 -1.7494
   97MOL0     H13344  11.078  11.011   5.807 -0.1714  2.1990  0.7008
   97MOL0     H13345  10.984  11.294   5.758  0.2959 -2.1212 -1.7331
   97MOL0     H13346  11.071  11.342   5.904  2.5522  0.0300 -0.9450
   97MOL0     H13347  10.991  11.179   5.901  3.3447 -3.6537 -1.0528
   97MOL0     H13348  11.464  11.631   5.790 -0.7238  0.8751  0.5360
   97MOL0     H13349  11.525  11.873   5.734 -1.7980  2.2904  0.0858
   97MOL0     H13350  11.470  12.132   5.555 -0.4318 -1.9668  3.2295
   97MOL0     H13351  11.603  12.028   5.618 -1.2317  0.9187 -0.0419
   97MOL0     H13352  11.698  12.048   5.365 -1.8143 -0.4453 -3.0408
   97MOL0     H13353  11.581  12.190   5.361 -0.9869 -1.5942 -0.6731
   97MOL0     H13354  11.818  12.138   5.542 -0.7640  0.6696  0.4946
   97MOL0     H13355  11.720  12.284   5.548  1.3524  0.8730  1.3243
   97MOL0     H13356  11.773  12.340   5.313  1.6079  2.4834 -0.4742
   97MOL0     H13357  11.885  12.202   5.298 -2.5229 -0.1007 -0.7335
   97MOL0     H13358  11.899  12.429   5.490  0.2879 -1.2195  1.6544
   97MOL0     H13359  12.026  12.314   5.475 -0.9372 -1.1365  0.1635
   97MOL0     H13360  12.035  12.553   5.343  0.3886 -0.8007  0.8372
   97MOL0     H13361  11.937  12.469   5.232 -0.4885 -2.7487 -1.2993
   97MOL0     H13362  12.075  12.283   5.208  0.1157  0.0879 -0.1440
   97MOL0     H13363  12.212  12.347   5.305  0.6692 -0.5216 -0.6885
   97MOL0     H13364  12.191  12.542   5.130 -1.7221  0.9272 -1.4258
   97MOL0     H13365  12.080  12.440   5.039 -0.6737 -0.3873 -0.5154
   97MOL0     H13366  11.438  11.761   5.312  1.7112 -1.4591 -0.8925
   97MOL0     H13367  11.364  11.543   5.397 -0.4961  1.8597 -0.6850
   97MOL0     H13368  11.494  11.238   5.673 -0.2975 -1.7353 -2.1467
   97MOL0     H13369  11.478  10.995   5.684 -0.8228 -0.1288  0.4711
   97MOL0     H13370  10.077   9.900   6.025  0.8819 -0.1531 -0.7475
   97MOL0     H13371   9.844   9.861   5.998  1.2404  1.1817 -0.8862
   97MOL0     H13372   9.468   9.367   6.010 -0.9874 -0.6473  0.1490
   97MOL0     H13373   9.216   9.416   6.001  1.4391 -0.5129  0.2218
   97MOL0     H13374   9.036   9.793   6.098  1.6174 -1.7205 -0.4257
   97MOL0     H13375   9.075   9.795   5.919  0.5778  2.4013  0.7919
   97MOL0     H13376   8.830   9.705   6.062 -0.0210  0.7190  0.3055
   97MOL0     H13377   8.893   9.587   5.942 -1.0937 -0.1403 -0.6811
   97MOL0     H13378   8.829   9.892   5.890  3.2657  0.7977 -0.9426
   97MOL0     H13379   8.896   9.784   5.777 -0.2534  2.6054  0.6038
   97MOL0     H13380   8.646   9.771   5.730 -1.4663  0.6354  2.0408
   97MOL0     H13381   8.622   9.743   5.900 -0.4956  0.8831  0.3341
   97MOL0     H13382   8.722   9.357   5.758  1.5350  0.4042  0.1712
   97MOL0     H13383   9.279   9.813   6.105 -1.5023 -1.6741 -1.4941
   97MOL0     H13384   9.582   9.844   6.037  0.6385 -2.8680 -0.8778
   97MOL0     H13385   9.472   9.891   6.168  0.3378  0.3562 -0.1684
   97MOL0     H13386   9.620   9.794   6.209  0.5719  1.4518  1.3618
   98MOL0     O13387   3.938  10.831   6.404  0.1386  0.2950 -0.2044
   98MOL0     C13388   3.925  10.760   6.501 -0.6869 -0.1793 -0.1899
   98MOL0     O13389   4.022  10.717   6.585  0.0614  0.1685 -0.7432
   98MOL0     C13390   4.147  10.758   6.549  0.9071  0.0641 -0.4646
   98MOL0     C13391   4.199  10.861   6.622 -0.0706  0.3419  0.1157
   98MOL0     C13392   4.332  10.904   6.609  0.0496 -0.9274  0.5499
   98MOL0     C13393   4.420  10.831   6.527 -0.3294 -0.7110 -0.1442
   98MOL0     O13394   4.542  10.889   6.506 -0.0600 -0.0993  0.0032
   98MOL0     C13395   4.551  10.979   6.395  0.9556  0.3051 -0.1713
   98MOL0     C13396   4.673  11.068   6.406  0.7979  0.7058 -0.2780
   98MOL0     C13397   4.676  11.139   6.551  1.1200 -0.0286 -0.0244
   98MOL0     C13398   4.780  11.250   6.551  0.2269 -0.4097  0.3681
   98MOL0     C13399   4.923  11.198   6.528 -0.2452  0.7598  0.0097
   98MOL0     C13400   5.014  11.320   6.533 -0.2035 -0.4534 -0.0095
   98MOL0     C13401   5.156  11.280   6.481  0.3713 -0.3260  0.1114
   98MOL0     C13402   5.261  11.394   6.503  1.0365 -0.4911  0.2671
   98MOL0     N13403   5.303  11.375   6.638 -0.0871  0.2150 -0.0985
   98MOL0     C13404   5.394  11.283   6.691 -0.9038  0.5251  0.0027
   98MOL0     C13405   5.409  11.318   6.821  0.1149  0.1942  0.5036
   98MOL0     C13406   5.502  11.253   6.916 -0.9878 -0.1509 -0.4564
   98MOL0     C13407   5.644  11.244   6.851  0.5067 -0.4338 -0.4271
   98MOL0     C13408   5.740  11.195   6.956  0.0093  1.0384 -0.3613
   98MOL0     C13409   5.865  11.125   6.896  0.3899 -0.6031  0.4235
   98MOL0     O13410   5.935  11.061   7.004  0.1813 -0.5002 -0.3624
   98MOL0     C13411   6.075  11.062   6.995 -0.5257  1.1952  0.2509
   98MOL0     C13412   6.141  11.083   7.114 -0.8899 -0.1645 -0.2720
   98MOL0     C13413   6.285  11.097   7.115  0.4113 -0.8828 -0.2353
   98MOL0     C13414   6.353  11.122   7.256  0.5242 -0.4363  0.8165
   98MOL0     C13415   6.358  11.094   6.992  0.0617 -0.2102 -0.0969
   98MOL0     C13416   6.493  11.132   6.974 -1.0664 -0.4823  0.1229
   98MOL0     O13417   6.546  11.224   7.063  1.3258 -0.0703  0.1205
   98MOL0     C13418   6.684  11.239   7.043  0.1274  0.3133 -0.8565
   98MOL0     C13419   6.729  11.358   6.995 -0.4166  0.8283 -0.3366
   98MOL0     C13420   6.866  11.377   6.977  0.2874  0.2116 -0.8127
   98MOL0     C13421   6.958  11.280   7.025 -0.5421  0.1248 -0.3851
   98MOL0     O13422   7.090  11.299   7.016  0.0441  0.0819  0.7557
   98MOL0     C13423   7.140  11.410   7.088  0.2456  0.0440 -0.1355
   98MOL0     C13424   7.279  11.377   7.141  0.9200 -0.4287  0.5493
   98MOL0     C13425   7.389  11.376   7.030 -0.4746 -0.6821  0.5386
   98MOL0     C13426   7.511  11.300   7.077  0.8281 -0.1723  0.2351
   98MOL0     C13427   7.609  11.311   6.959 -0.0154 -0.1430 -0.1155
   98MOL0     C13428   7.761  11.292   6.997  0.8838 -0.4037  0.0110
   98MOL0     C13429   7.811  11.401   7.093  0.1631  0.4195  0.0929
   98MOL0     C13430   7.965  11.416   7.098  0.4889  0.5875  0.3299
   98MOL0    Cl13431   8.006  11.531   7.222  0.0567  0.1263 -0.0569
   98MOL0     C13432   6.915  11.155   7.052  0.4002  0.7075  0.2116
   98MOL0     C13433   6.775  11.135   7.075 -0.2929  0.8683 -0.6770
   98MOL0     O13434   6.559  11.077   6.885  0.1444  0.4267 -0.0044
   98MOL0     C13435   6.283  11.061   6.878  0.7734 -0.1653 -0.0429
   98MOL0     C13436   6.150  11.047   6.877  1.1023 -0.1457  0.2461
   98MOL0     N13437   5.330  11.424   6.844 -0.8212  0.3053 -0.2516
   98MOL0     N13438   5.268  11.463   6.735  0.3981 -0.1393 -0.1327
   98MOL0     C13439   4.371  10.724   6.452 -0.4057 -0.3021 -0.0850
   98MOL0     C13440   4.234  10.694   6.464  0.0616  0.3708  0.8087
   98MOL0     C13441   3.790  10.730   6.539  0.2926  1.1745  0.1033
   98MOL0     C13442   3.706  10.640   6.463  0.1151 -0.5104  0.4247
   98MOL0     C13443   3.580  10.614   6.492  0.1945 -0.2956  0.0953
   98MOL0     C13444   3.509  10.683   6.594 -0.8997  0.2768  0.3148
   98MOL0     O13445   3.377  10.661   6.613  0.2301 -0.5353 -0.1185
   98MOL0     C13446   3.314  10.571   6.524  0.2903 -0.4201  0.9350
   98MOL0     C13447   3.165  10.553   6.564 -0.5738 -0.4519  0.5702
   98MOL0     C13448   3.088  10.482   6.448  0.1211  0.6508  0.9518
   98MOL0     C13449   2.939  10.461   6.482  0.4273 -0.8209 -0.2072
   98MOL0     C13450   2.867  10.592   6.488  0.1510 -0.6242 -0.2189
   98MOL0     C13451   2.810  10.701   6.503  0.1650  0.8943 -0.6466
   98MOL0     C13452   3.587  10.773   6.669 -0.0102 -0.0756 -0.5628
   98MOL0     C13453   3.724  10.797   6.641 -0.0498 -0.3909 -0.4349
   98MOL0     C13454   3.789  10.907   6.729  0.1750  0.2581 -0.0258
   98MOL0     H13455   4.144  10.905   6.705  1.1660  2.0095  0.0846
   98MOL0     H13456   4.367  10.987   6.670  2.1828 -1.9809  0.8468
   98MOL0     H13457   4.463  11.043   6.388  1.7307  1.3812 -0.2627
   98MOL0     H13458   4.576  10.915   6.310  0.8664 -2.8800  2.0344
   98MOL0     H13459   4.763  11.009   6.387 -0.1773 -0.3913 -1.6395
   98MOL0     H13460   4.667  11.147   6.331 -0.9346  0.3960 -0.5171
   98MOL0     H13461   4.579  11.177   6.583  0.7968  1.7419 -2.7396
   98MOL0     H13462   4.708  11.062   6.622 -0.1443  0.1945  0.8150
   98MOL0     H13463   4.757  11.315   6.466 -1.1498 -0.8374  0.3865
   98MOL0     H13464   4.771  11.309   6.642  3.7332  0.9652 -0.0586
   98MOL0     H13465   4.927  11.160   6.425 -4.3931 -1.4948  0.4601
   98MOL0     H13466   4.952  11.123   6.602  1.6111  0.0378 -1.3815
   98MOL0     H13467   4.982  11.402   6.468 -0.3863  0.7674  1.5692
   98MOL0     H13468   5.021  11.359   6.635  1.9341  0.4206 -0.4277
   98MOL0     H13469   5.150  11.249   6.377 -0.4833 -0.7601  0.2845
   98MOL0     H13470   5.188  11.192   6.538  1.7040  0.4827  0.6761
   98MOL0     H13471   5.345  11.391   6.434  0.1576 -1.5089 -0.8006
   98MOL0     H13472   5.212  11.491   6.502 -2.9058 -1.9651  5.1626
   98MOL0     H13473   5.452  11.212   6.632 -0.2163  0.3453  0.8764
   98MOL0     H13474   5.466  11.155   6.948 -4.0972  1.5194  1.7278
   98MOL0     H13475   5.499  11.313   7.007  1.5985 -0.0319 -0.3646
   98MOL0     H13476   5.629  11.175   6.768 -2.3017 -0.5252  0.0390
   98MOL0     H13477   5.688  11.330   6.800  1.3156 -0.9774 -0.6626
   98MOL0     H13478   5.772  11.280   7.017  1.1170 -0.5017  1.3351
   98MOL0     H13479   5.691  11.122   7.021  0.4411  1.8782  0.9533
   98MOL0     H13480   5.847  11.055   6.814 -2.6643  1.5788 -0.9657
   98MOL0     H13481   5.922  11.209   6.854 -1.2896  0.6782  0.5759
   98MOL0     H13482   6.083  11.099   7.205  0.9992 -0.0089  0.9595
   98MOL0     H13483   6.295  11.076   7.337 -0.1297  1.4373  1.4517
   98MOL0     H13484   6.372  11.226   7.283  0.2854 -0.6133  1.6876
   98MOL0     H13485   6.450  11.072   7.257 -0.3875 -2.3454  2.8209
   98MOL0     H13486   6.659  11.439   6.980  0.9710  2.3220  0.9098
   98MOL0     H13487   6.900  11.474   6.940 -0.6398  0.2252 -1.6825
   98MOL0     H13488   7.144  11.501   7.027 -2.4399  0.7575  0.5876
   98MOL0     H13489   7.073  11.424   7.173 -1.0764 -3.2669 -0.4838
   98MOL0     H13490   7.302  11.445   7.223 -0.3596  0.9132 -0.1521
   98MOL0     H13491   7.272  11.282   7.195 -1.4982  0.4537  1.9278
   98MOL0     H13492   7.421  11.480   7.017  2.4110 -1.7691 -2.2432
   98MOL0     H13493   7.355  11.331   6.936 -0.1773 -2.2221  1.1355
   98MOL0     H13494   7.490  11.198   7.110  1.2115  0.5854  3.0234
   98MOL0     H13495   7.558  11.349   7.163  2.0330 -0.4259 -0.2521
   98MOL0     H13496   7.586  11.229   6.891 -4.3321 -0.4226  1.3408
   98MOL0     H13497   7.606  11.404   6.901  0.0521 -0.8737 -1.3192
   98MOL0     H13498   7.834  11.297   6.915  2.4574 -1.3076  1.2941
   98MOL0     H13499   7.777  11.192   7.039  0.3626 -1.0280 -1.1998
   98MOL0     H13500   7.775  11.377   7.194  1.3897  0.4862  0.5646
   98MOL0     H13501   7.772  11.498   7.061  1.2734  0.2607 -1.8637
   98MOL0     H13502   7.978  11.457   6.997 -1.9270 -1.2574 -0.8306
   98MOL0     H13503   8.006  11.316   7.111  0.6536  0.9200  2.6471
   98MOL0     H13504   6.989  11.075   7.054 -0.1242  0.1426 -1.3231
   98MOL0     H13505   6.750  11.031   7.094 -2.5944  1.4761 -0.1459
   98MOL0     H13506   6.346  11.038   6.792  1.4055  2.0476 -0.2304
   98MOL0     H13507   6.099  11.027   6.783 -1.4104 -1.1297  1.7278
   98MOL0     H13508   4.437  10.666   6.388  3.5253  2.0766  1.4561
   98MOL0     H13509   4.189  10.618   6.401 -0.2735 -0.8153  2.4095
   98MOL0     H13510   3.747  10.591   6.376 -0.2432  0.5310 -0.3447
   98MOL0     H13511   3.532  10.548   6.421  2.3181 -1.8087 -0.0433
   98MOL0     H13512   3.318  10.616   6.424  2.4766  0.2751  1.2792
   98MOL0     H13513   3.363  10.473   6.521 -0.3601 -0.7754 -2.4227
   98MOL0     H13514   3.137  10.657   6.586  1.0770 -0.4737  3.1800
   98MOL0     H13515   3.150  10.493   6.654 -1.6321  1.0226  1.4210
   98MOL0     H13516   3.102  10.544   6.359  1.6714  0.2982  0.9225
   98MOL0     H13517   3.138  10.388   6.426 -0.6931  0.4152  0.0267
   98MOL0     H13518   2.926  10.419   6.582  0.5071  1.9477  1.0515
   98MOL0     H13519   2.892  10.400   6.403  0.9603  0.7777 -1.8241
   98MOL0     H13520   2.752  10.790   6.510 -2.6469 -0.9081  1.4269
   98MOL0     H13521   3.530  10.824   6.747 -0.9246 -2.2180  0.2712
   98MOL0     H13522   3.839  10.974   6.658 -1.6251  0.4614 -1.1833
   98MOL0     H13523   3.724  10.968   6.793  0.1171  1.1888 -0.9317
   98MOL0     H13524   3.859  10.851   6.791 -1.8511 -1.0691  1.1992
   99MOL0     O13525   5.378   1.594   6.498  0.0111  0.0684  0.0077
   99MOL0     C13526   5.357   1.689   6.574  0.1625  0.0298 -0.4668
   99MOL0     O13527   5.441   1.794   6.585  0.2550 -0.2748  0.5020
   99MOL0     C13528   5.567   1.793   6.524 -0.0952 -0.7526  0.3687
   99MOL0     C13529   5.670   1.706   6.558  0.8341  0.1448 -0.0068
   99MOL0     C13530   5.792   1.712   6.487  0.2805  0.1826  0.4129
   99MOL0     C13531   5.813   1.804   6.385  0.6287 -0.6145 -0.6052
   99MOL0     O13532   5.928   1.797   6.305  0.1242 -0.1591 -0.8447
   99MOL0     C13533   5.990   1.922   6.299  0.0318  0.1607  0.7117
   99MOL0     C13534   6.104   1.913   6.209  0.1695  0.9516  0.3905
   99MOL0     C13535   6.210   1.828   6.280  0.1232 -0.0937  0.0220
   99MOL0     C13536   6.297   1.743   6.194 -0.1774  0.8880  0.4320
   99MOL0     C13537   6.404   1.667   6.273 -0.8984  0.0737  0.2286
   99MOL0     C13538   6.496   1.608   6.165  0.3237  0.5894 -0.2826
   99MOL0     C13539   6.423   1.477   6.110 -0.0715 -1.1150 -0.9557
   99MOL0     C13540   6.476   1.420   5.979 -0.1882  0.2081  0.3653
   99MOL0     N13541   6.618   1.379   5.979  0.4219 -0.4790 -0.0907
   99MOL0     C13542   6.700   1.349   6.083  0.1078 -0.0177 -0.0956
   99MOL0     C13543   6.822   1.319   6.042 -0.1579  0.8767 -0.5215
   99MOL0     C13544   6.933   1.267   6.131  0.0621 -0.8680 -0.4294
   99MOL0     C13545   7.054   1.364   6.143  0.7272  0.0252  0.6361
   99MOL0     C13546   7.138   1.363   6.016 -0.7279 -0.5855 -0.0608
   99MOL0     C13547   7.268   1.450   6.013 -0.3822 -0.1886  0.1475
   99MOL0     O13548   7.373   1.429   6.102 -0.4270  0.3079  0.3839
   99MOL0     C13549   7.486   1.506   6.084 -0.0071  0.5581 -1.0232
   99MOL0     C13550   7.508   1.606   5.988 -0.0900  0.3429  0.6025
   99MOL0     C13551   7.630   1.674   5.976  0.3135  0.6300  0.6083
   99MOL0     C13552   7.627   1.774   5.868  0.0832 -0.2728 -0.0650
   99MOL0     C13553   7.739   1.639   6.054  0.1119  0.3208  1.0051
   99MOL0     C13554   7.873   1.690   6.025  0.4629  0.0094 -0.3809
   99MOL0     O13555   7.952   1.697   6.135 -0.0837  0.4783 -0.3683
   99MOL0     C13556   8.090   1.700   6.109  0.4507 -0.8701 -0.8148
   99MOL0     C13557   8.163   1.814   6.073  0.4666  0.2968  0.1476
   99MOL0     C13558   8.298   1.811   6.026 -0.0618  1.3826  0.5615
   99MOL0     C13559   8.365   1.689   6.016  0.8704  0.1568 -0.4371
   99MOL0     O13560   8.490   1.659   5.971 -0.5384 -0.9366  0.2119
   99MOL0     C13561   8.570   1.766   5.929 -0.8141  0.2540  1.2964
   99MOL0     C13562   8.707   1.697   5.907 -0.5924 -0.4258 -0.3363
   99MOL0     C13563   8.817   1.798   5.866  0.1972 -0.5595 -0.0661
   99MOL0     C13564   8.950   1.728   5.862  0.5118 -0.1344  0.0037
   99MOL0     C13565   9.064   1.816   5.823  0.0053  0.3223  0.0036
   99MOL0     C13566   9.192   1.743   5.804  0.5394 -0.3809  0.1216
   99MOL0     C13567   9.318   1.835   5.782  0.7560 -0.2050  0.2698
   99MOL0     C13568   9.341   1.925   5.905 -1.0244  0.3172  0.5478
   99MOL0    Cl13569   9.477   2.022   5.846  0.1228 -0.5040  0.3591
   99MOL0     C13570   8.294   1.576   6.061  1.3133  0.5444 -0.0103
   99MOL0     C13571   8.158   1.584   6.110 -0.2075  0.9762 -0.3423
   99MOL0     O13572   7.903   1.730   5.913 -0.2387  0.2070  0.4545
   99MOL0     C13573   7.717   1.555   6.161 -0.4145 -0.0555  0.7489
   99MOL0     C13574   7.596   1.484   6.170  0.0078 -0.9501  0.4561
   99MOL0     N13575   6.812   1.332   5.905  0.4729  0.2908 -0.2295
   99MOL0     N13576   6.696   1.377   5.867 -0.3210 -0.4445 -0.1758
   99MOL0     C13577   5.703   1.899   6.353 -0.0927 -0.7549 -1.2811
   99MOL0     C13578   5.589   1.892   6.430 -0.0423  0.8579  0.5319
   99MOL0     C13579   5.240   1.701   6.663  0.0639 -0.3452 -0.5565
   99MOL0     C13580   5.218   1.831   6.733  0.2432  0.2243 -0.9064
   99MOL0     C13581   5.108   1.852   6.813 -0.0779  0.4895  0.0310
   99MOL0     C13582   5.020   1.744   6.835 -0.2517 -1.5025 -1.1062
   99MOL0     O13583   4.922   1.744   6.930  0.6699 -0.4531  0.0913
   99MOL0     C13584   4.856   1.863   6.974  1.2299 -0.0442  0.4508
   99MOL0     C13585   4.709   1.866   6.951  0.1862 -0.1827  0.7549
   99MOL0     C13586   4.675   1.833   6.808  0.1198  0.4748  0.6680
   99MOL0     C13587   4.550   1.740   6.805  0.7833  0.0397  0.1290
   99MOL0     C13588   4.442   1.799   6.878  0.1258  1.4291 -0.3930
   99MOL0     C13589   4.343   1.818   6.940 -0.6457  0.2390 -0.3291
   99MOL0     C13590   5.043   1.624   6.771  0.9732 -0.2746  0.0077
   99MOL0     C13591   5.148   1.601   6.690 -0.0128  0.2411  0.0995
   99MOL0     C13592   5.170   1.454   6.640 -0.2066 -0.0347 -0.1496
   99MOL0     H13593   5.658   1.634   6.638 -4.7669  0.6593 -0.0093
   99MOL0     H13594   5.871   1.641   6.509 -0.8266 -0.7428  1.5339
   99MOL0     H13595   6.008   1.951   6.403  0.4391 -0.9395  0.9589
   99MOL0     H13596   5.923   1.995   6.252 -2.0593 -1.9148  0.2829
   99MOL0     H13597   6.081   1.865   6.113  0.3189  1.2320  0.2135
   99MOL0     H13598   6.139   2.010   6.174 -0.3871  0.5553 -1.4035
   99MOL0     H13599   6.278   1.893   6.336 -0.8315 -0.7615  2.0438
   99MOL0     H13600   6.172   1.754   6.350  0.2312 -0.8106 -0.6704
   99MOL0     H13601   6.229   1.677   6.140  2.3884  1.0151 -3.2495
   99MOL0     H13602   6.349   1.786   6.109  1.9954 -4.9881 -1.7311
   99MOL0     H13603   6.366   1.584   6.334 -2.5617  0.8380  0.2871
   99MOL0     H13604   6.470   1.738   6.322  0.6284  0.3398 -2.0557
   99MOL0     H13605   6.518   1.686   6.091  1.9465  0.2641 -0.1572
   99MOL0     H13606   6.589   1.572   6.208  1.0475  1.0261 -1.4477
   99MOL0     H13607   6.319   1.507   6.093  0.2227  1.1329  0.8027
   99MOL0     H13608   6.425   1.403   6.190  1.5969  2.4333  2.6457
   99MOL0     H13609   6.411   1.334   5.961  1.2105 -0.6744 -0.7352
   99MOL0     H13610   6.473   1.497   5.902  3.4971  3.1749  2.8195
   99MOL0     H13611   6.668   1.360   6.186  2.0778  1.6690  0.3881
   99MOL0     H13612   6.976   1.174   6.094 -0.2470 -0.1568 -2.7389
   99MOL0     H13613   6.893   1.244   6.230  2.8642  0.8416  1.2347
   99MOL0     H13614   7.022   1.464   6.172  1.3735  0.4141  0.0236
   99MOL0     H13615   7.118   1.316   6.218  2.0438  1.7934  0.6965
   99MOL0     H13616   7.163   1.259   5.995  0.2807 -0.1342 -1.1825
   99MOL0     H13617   7.073   1.400   5.936 -0.3406  0.8197  0.2503
   99MOL0     H13618   7.310   1.453   5.912 -0.4071  0.2627  0.1488
   99MOL0     H13619   7.234   1.552   6.034 -1.3823 -0.8176  1.7159
   99MOL0     H13620   7.424   1.629   5.923  1.5741 -1.1533 -2.2779
   99MOL0     H13621   7.691   1.854   5.907  0.6947 -2.5198  4.0095
   99MOL0     H13622   7.532   1.824   5.845  1.0677  2.0136  0.4728
   99MOL0     H13623   7.661   1.724   5.777  1.0186  0.7905 -0.3370
   99MOL0     H13624   8.120   1.914   6.077  3.1111  1.5080  0.0024
   99MOL0     H13625   8.348   1.901   5.993  0.0076  0.3682 -2.2982
   99MOL0     H13626   8.528   1.802   5.834 -1.5066 -1.0811  1.0802
   99MOL0     H13627   8.587   1.850   5.998  0.9139  1.0472 -0.0098
   99MOL0     H13628   8.733   1.653   6.004 -1.2301 -2.3955 -0.9969
   99MOL0     H13629   8.701   1.615   5.834 -0.7579  1.3073 -2.3422
   99MOL0     H13630   8.824   1.879   5.939 -0.1198  1.6212 -2.3179
   99MOL0     H13631   8.790   1.837   5.768  0.4250  2.2538  0.9038
   99MOL0     H13632   8.951   1.641   5.796 -2.5904 -1.2383  1.2241
   99MOL0     H13633   8.982   1.684   5.957  0.3170  0.5841  0.4132
   99MOL0     H13634   9.038   1.859   5.726 -0.2108  2.1504  0.8275
   99MOL0     H13635   9.077   1.890   5.902  0.9426 -1.8394  2.0238
   99MOL0     H13636   9.179   1.673   5.721 -2.4827  0.4538 -0.2543
   99MOL0     H13637   9.201   1.688   5.898 -0.6932  1.6583  1.5049
   99MOL0     H13638   9.291   1.897   5.696  2.3085  0.5854  0.3124
   99MOL0     H13639   9.410   1.784   5.753  0.4883 -1.1986  1.1285
   99MOL0     H13640   9.372   1.869   5.993 -1.7393 -0.2713  0.4311
   99MOL0     H13641   9.259   1.992   5.933 -0.6596  0.2675  1.7751
   99MOL0     H13642   8.336   1.476   6.060  1.7356  0.7250 -0.4417
   99MOL0     H13643   8.119   1.493   6.156 -0.3648  1.1278 -0.1724
   99MOL0     H13644   7.795   1.533   6.233 -0.5913  1.6246  1.4876
   99MOL0     H13645   7.583   1.413   6.251 -0.8326 -0.0592  1.1222
   99MOL0     H13646   5.720   1.977   6.280  0.9951  0.9194  0.6469
   99MOL0     H13647   5.515   1.966   6.404  0.4698  0.5423 -2.1213
   99MOL0     H13648   5.274   1.920   6.708  1.8463 -0.4757  0.0750
   99MOL0     H13649   5.099   1.944   6.869 -1.2467  0.0309  0.6369
   99MOL0     H13650   4.877   1.876   7.081 -1.9918  0.5076  1.1043
   99MOL0     H13651   4.902   1.952   6.930  0.7762 -1.1602 -2.4863
   99MOL0     H13652   4.670   1.961   6.989  2.1109  1.9022 -2.0348
   99MOL0     H13653   4.679   1.788   7.021  1.1058 -0.7639  0.5181
   99MOL0     H13654   4.648   1.917   6.743 -0.0483  1.9316  2.5437
   99MOL0     H13655   4.757   1.775   6.766 -1.1608 -1.0434  0.1814
   99MOL0     H13656   4.577   1.641   6.846 -1.6854  0.1104  2.1911
   99MOL0     H13657   4.503   1.728   6.708 -1.2108  4.1869  0.4077
   99MOL0     H13658   4.247   1.836   6.983 -0.5642  1.7263 -0.7168
   99MOL0     H13659   4.969   1.549   6.798 -0.4455  1.2600  0.5737
   99MOL0     H13660   5.101   1.384   6.688 -0.6601  0.9394  0.6521
   99MOL0     H13661   5.156   1.450   6.532  1.1253  0.2844 -0.3525
   99MOL0     H13662   5.271   1.421   6.666  1.2515  2.8995 -1.6437
  100MOL0     O13663   0.359   2.574   7.560 -0.0417 -0.2013 -0.6133
  100MOL0     C13664   0.265   2.634   7.501  0.1748  0.5878  0.6632
  100MOL0     O13665   0.282   2.704   7.382 -0.3114 -0.1514  0.3769
  100MOL0     C13666   0.404   2.688   7.325  0.1588 -0.8829  1.0693
  100MOL0     C13667   0.430   2.564   7.261  1.0107  0.1884 -0.0028
  100MOL0     C13668   0.545   2.546   7.186  1.2063 -0.0072 -0.0559
  100MOL0     C13669   0.625   2.654   7.155 -0.3820 -0.5416  0.2622
  100MOL0     O13670   0.743   2.640   7.094 -0.0991 -0.5695 -0.9436
  100MOL0     C13671   0.752   2.575   6.966  0.3550 -0.4071  0.4678
  100MOL0     C13672   0.894   2.588   6.909  0.4977 -0.2673  0.3579
  100MOL0     C13673   0.944   2.727   6.872 -0.6054 -0.0874  0.1716
  100MOL0     C13674   1.091   2.720   6.834  0.5787 -0.4604 -0.3026
  100MOL0     C13675   1.141   2.865   6.823 -0.0453  0.1240  0.7771
  100MOL0     C13676   1.278   2.863   6.734  0.2154  1.0108  0.4558
  100MOL0     C13677   1.330   3.009   6.714 -0.9320 -0.7075 -0.9059
  100MOL0     C13678   1.351   3.083   6.847  0.5899  0.1702  1.0132
  100MOL0     N13679   1.448   3.199   6.833 -1.3918 -0.2817 -0.7433
  100MOL0     C13680   1.437   3.317   6.909  0.5784  0.8035 -0.2086
  100MOL0     C13681   1.541   3.395   6.882 -0.3009 -0.3318 -0.5196
  100MOL0     C13682   1.574   3.539   6.920  0.0302 -0.3679 -1.1031
  100MOL0     C13683   1.595   3.622   6.794  0.2402  0.3749  0.2695
  100MOL0     C13684   1.591   3.775   6.807  0.3394 -0.1211  0.3112
  100MOL0     C13685   1.708   3.848   6.870  0.1674  0.3700 -0.2567
  100MOL0     O13686   1.809   3.860   6.773  0.2355  0.3815  0.1305
  100MOL0     C13687   1.926   3.911   6.811  0.6076 -0.1039 -0.6253
  100MOL0     C13688   1.971   3.945   6.944  0.8725 -0.1332  0.5095
  100MOL0     C13689   2.102   3.979   6.979 -0.5721  0.2576  0.7877
  100MOL0     C13690   2.135   3.955   7.121 -0.5079 -1.3011 -0.5467
  100MOL0     C13691   2.198   4.003   6.872 -0.2839 -0.0844 -0.1668
  100MOL0     C13692   2.328   4.053   6.907  0.2648  0.8228  0.6105
  100MOL0     O13693   2.428   4.057   6.809 -0.2607 -0.1742  0.2230
  100MOL0     C13694   2.554   4.103   6.848  0.0811  0.7851  0.2675
  100MOL0     C13695   2.646   4.000   6.878  0.4162 -0.5651  0.3818
  100MOL0     C13696   2.774   4.049   6.914 -0.2982  0.5223  0.3906
  100MOL0     C13697   2.819   4.184   6.912  0.3933 -0.1903 -0.0530
  100MOL0     O13698   2.933   4.226   6.978 -0.3803  0.1123  0.1090
  100MOL0     C13699   3.040   4.245   6.885 -0.7896  0.0583 -0.6201
  100MOL0     C13700   3.154   4.318   6.949  0.1407  0.5832 -0.3293
  100MOL0     C13701   3.240   4.407   6.851 -0.1913  0.7701 -0.2680
  100MOL0     C13702   3.359   4.474   6.933  0.3792  0.5301  0.2551
  100MOL0     C13703   3.429   4.582   6.854  0.5909  0.0691 -0.4947
  100MOL0     C13704   3.534   4.643   6.941  0.6789  0.8862  0.1728
  100MOL0     C13705   3.607   4.767   6.873  0.5006  0.4634 -0.5788
  100MOL0     C13706   3.710   4.727   6.768 -0.1731 -0.1982  0.4930
  100MOL0    Cl13707   3.810   4.880   6.734 -0.0756  0.3041 -0.2782
  100MOL0     C13708   2.726   4.278   6.862  0.1758 -0.0145  0.4054
  100MOL0     C13709   2.589   4.239   6.836 -0.2114 -0.8452  0.6818
  100MOL0     O13710   2.345   4.099   7.016 -0.1115  0.0383 -0.6594
  100MOL0     C13711   2.148   3.985   6.741 -0.2106 -0.3029  0.0643
  100MOL0     C13712   2.021   3.947   6.714  0.8876  0.7357  0.8777
  100MOL0     N13713   1.608   3.322   6.782 -0.1161  0.1757 -0.9545
  100MOL0     N13714   1.567   3.198   6.775 -0.5452  0.0580 -0.9919
  100MOL0     C13715   0.594   2.785   7.207 -0.2063  0.6052  0.5676
  100MOL0     C13716   0.485   2.803   7.289 -0.0542  1.0781 -0.0706
  100MOL0     C13717   0.125   2.591   7.528  0.2073  0.0895  0.0660
  100MOL0     C13718   0.035   2.604   7.426  0.3841 -0.4031  0.1631
  100MOL0     C13719  -0.107   2.578   7.442 -0.4148  0.0345  0.2248
  100MOL0     C13720  -0.146   2.513   7.558  0.7188 -1.0979  0.3857
  100MOL0     O13721  -0.285   2.476   7.568 -0.1096  0.1904  0.6503
  100MOL0     C13722  -0.345   2.395   7.463 -0.7210 -0.0081 -0.1506
  100MOL0     C13723  -0.490   2.440   7.448  0.1955 -0.3010 -0.1217
  100MOL0     C13724  -0.516   2.591   7.410  0.2607 -0.2807  0.1174
  100MOL0     C13725  -0.661   2.641   7.418  0.5349  0.7342 -0.3936
  100MOL0     C13726  -0.701   2.675   7.557  0.9117  0.2590 -0.3390
  100MOL0     C13727  -0.742   2.700   7.665 -0.2826 -0.1468 -0.7204
  100MOL0     C13728  -0.053   2.507   7.655 -0.0671  0.1946 -0.4429
  100MOL0     C13729   0.076   2.546   7.648 -1.0145 -0.1871 -0.3339
  100MOL0     C13730   0.155   2.546   7.780  0.7033 -0.1695  0.3995
  100MOL0     H13731   0.355   2.487   7.276  0.6612  0.4151 -0.5625
  100MOL0     H13732   0.569   2.449   7.142  0.0716 -1.3296  2.0642
  100MOL0     H13733   0.678   2.623   6.901 -0.1385  0.7258  1.8066
  100MOL0     H13734   0.737   2.468   6.956  0.5584 -0.4620  0.7630
  100MOL0     H13735   0.970   2.541   6.972  0.1134  0.9511  1.7856
  100MOL0     H13736   0.893   2.524   6.820 -0.4817 -0.2546  0.3496
  100MOL0     H13737   0.883   2.764   6.789 -1.6843 -2.5862 -0.2327
  100MOL0     H13738   0.935   2.790   6.960  2.5786 -0.2244  0.7186
  100MOL0     H13739   1.146   2.658   6.905 -1.1046 -1.7705 -0.0868
  100MOL0     H13740   1.102   2.667   6.738 -1.0893 -0.9291 -0.2555
  100MOL0     H13741   1.145   2.896   6.928 -0.6617 -0.3769  0.9530
  100MOL0     H13742   1.063   2.920   6.770  0.7245 -1.3607 -2.1650
  100MOL0     H13743   1.348   2.806   6.795 -0.2174 -2.8794 -2.2930
  100MOL0     H13744   1.264   2.810   6.639  0.7555  1.0293  0.3631
  100MOL0     H13745   1.261   3.066   6.652 -2.6075 -1.8621 -0.1560
  100MOL0     H13746   1.423   2.999   6.656 -1.8118 -0.4726 -2.4066
  100MOL0     H13747   1.258   3.115   6.894 -1.8571 -2.3768 -1.6841
  100MOL0     H13748   1.390   3.002   6.910  0.4486 -2.5165 -2.0744
  100MOL0     H13749   1.346   3.353   6.956 -0.3208 -1.7595  0.1610
  100MOL0     H13750   1.662   3.558   6.981  0.5764 -0.2160 -1.9170
  100MOL0     H13751   1.482   3.577   6.966  0.8226 -1.3111  1.4189
  100MOL0     H13752   1.695   3.599   6.755  0.6456  0.2722  1.3465
  100MOL0     H13753   1.518   3.600   6.719 -1.8862  2.1434  1.8090
  100MOL0     H13754   1.575   3.829   6.713 -0.5930 -2.3353 -0.8537
  100MOL0     H13755   1.506   3.794   6.874 -0.9683 -1.9614 -0.7311
  100MOL0     H13756   1.681   3.939   6.923  1.9982 -0.0675  1.5728
  100MOL0     H13757   1.746   3.774   6.942  0.4453  0.1588 -0.6171
  100MOL0     H13758   1.891   3.937   7.016 -0.1117  2.6334 -0.1646
  100MOL0     H13759   2.124   4.051   7.173  1.4406 -1.4710  0.2677
  100MOL0     H13760   2.235   3.916   7.138 -1.0242 -1.1872  3.9708
  100MOL0     H13761   2.075   3.874   7.164 -0.9622 -1.4372 -1.4026
  100MOL0     H13762   2.621   3.895   6.884 -1.4956 -0.1363  0.5188
  100MOL0     H13763   2.827   3.970   6.967 -2.0884 -0.3735  0.9416
  100MOL0     H13764   3.077   4.148   6.850  3.3597  1.0722  0.3615
  100MOL0     H13765   3.011   4.298   6.794  1.4993  0.8038 -0.9899
  100MOL0     H13766   3.108   4.383   7.024 -1.0346 -0.9615  0.3343
  100MOL0     H13767   3.221   4.249   7.001 -0.2587 -0.0583 -0.6441
  100MOL0     H13768   3.180   4.486   6.803 -0.8628  0.8453  0.6672
  100MOL0     H13769   3.291   4.345   6.776  0.9864  0.7577  0.5250
  100MOL0     H13770   3.436   4.397   6.944  1.0002  1.0816 -0.1623
  100MOL0     H13771   3.327   4.512   7.031 -0.6993  1.0595 -0.2748
  100MOL0     H13772   3.475   4.541   6.763  0.5876 -3.0008  0.7683
  100MOL0     H13773   3.351   4.653   6.826  0.9139  1.5620  2.0868
  100MOL0     H13774   3.608   4.566   6.967 -0.6803 -0.4948  0.1223
  100MOL0     H13775   3.485   4.681   7.030 -0.0555 -1.0084  0.6406
  100MOL0     H13776   3.662   4.826   6.947  0.9055  0.4334 -0.8510
  100MOL0     H13777   3.531   4.833   6.830 -0.3774  1.2356  1.9506
  100MOL0     H13778   3.665   4.705   6.671 -2.5917  1.6912  1.0923
  100MOL0     H13779   3.773   4.651   6.814  0.7859  0.0277 -0.4129
  100MOL0     H13780   2.757   4.381   6.855 -1.3881  0.4747  0.2827
  100MOL0     H13781   2.517   4.316   6.810  2.2101  1.1942 -0.3743
  100MOL0     H13782   2.220   4.008   6.663  0.3530 -1.6532  0.1467
  100MOL0     H13783   1.978   3.945   6.614 -1.7356  1.5461  1.9021
  100MOL0     H13784   0.653   2.872   7.181  0.0087  0.9350  2.0592
  100MOL0     H13785   0.454   2.905   7.311 -0.5403  0.7705  0.6617
  100MOL0     H13786   0.069   2.625   7.325 -0.5564 -0.7436 -0.2342
  100MOL0     H13787  -0.176   2.587   7.359 -0.6633  0.5354  0.4813
  100MOL0     H13788  -0.290   2.394   7.369  0.2813 -0.1706  0.4287
  100MOL0     H13789  -0.334   2.290   7.492 -1.4289 -0.7130 -2.1905
  100MOL0     H13790  -0.550   2.408   7.533 -1.0508 -0.3292 -0.9949
  100MOL0     H13791  -0.527   2.388   7.360  0.2290  0.0860 -0.3690
  100MOL0     H13792  -0.461   2.655   7.480 -1.4487 -0.8183  2.0205
  100MOL0     H13793  -0.477   2.603   7.308 -0.4990 -3.0675 -0.5759
  100MOL0     H13794  -0.731   2.574   7.366  0.8463 -0.1446  0.2946
  100MOL0     H13795  -0.675   2.734   7.362  2.9164  0.3016 -1.8151
  100MOL0     H13796  -0.779   2.709   7.766  0.5320  0.5775 -0.4821
  100MOL0     H13797  -0.097   2.472   7.748  1.4619  0.4938  0.4179
  100MOL0     H13798   0.241   2.479   7.772  1.1936  0.6620 -2.4922
  100MOL0     H13799   0.188   2.648   7.802  1.4941  0.2628 -2.3985
  100MOL0     H13800   0.084   2.524   7.860  0.3501 -0.8625 -0.0949
  101MOL0     O13801   6.340   7.144   9.063 -0.1881  0.6407  0.3617
  101MOL0     C13802   6.266   7.115   8.965  0.2657  0.3595 -0.1259
  101MOL0     O13803   6.306   7.129   8.835 -0.2051  0.2475  0.0500
  101MOL0     C13804   6.423   7.196   8.800  0.8066 -0.4146  0.5677
  101MOL0     C13805   6.510   7.135   8.711 -0.0776  0.4301  0.4336
  101MOL0     C13806   6.630   7.203   8.665  0.4630 -0.0542 -1.0034
  101MOL0     C13807   6.657   7.332   8.706  0.2400  0.3204 -0.4810
  101MOL0     O13808   6.764   7.386   8.648 -0.2597  0.5784 -0.3653
  101MOL0     C13809   6.818   7.501   8.718  0.1548  0.2497 -0.2233
  101MOL0     C13810   6.933   7.564   8.634  0.3701 -0.4310  0.1406
  101MOL0     C13811   7.060   7.567   8.715  0.6216  0.3567  0.5306
  101MOL0     C13812   7.181   7.612   8.627  0.5831 -0.5831  0.0995
  101MOL0     C13813   7.304   7.643   8.713  0.1483  0.1416  0.2608
  101MOL0     C13814   7.427   7.684   8.628 -0.4484 -0.5819  0.2101
  101MOL0     C13815   7.541   7.719   8.733 -0.1306  0.2791 -0.6584
  101MOL0     C13816   7.648   7.611   8.757 -0.3055  0.2606  0.8458
  101MOL0     N13817   7.749   7.640   8.858  0.1974  0.7135 -0.4681
  101MOL0     C13818   7.835   7.739   8.844 -0.0896 -0.6633 -0.9576
  101MOL0     C13819   7.907   7.727   8.956  0.3529 -0.2173 -0.1584
  101MOL0     C13820   8.024   7.811   8.985  0.2549  0.2427 -0.5510
  101MOL0     C13821   8.154   7.743   8.931 -0.3391  0.5711 -0.6059
  101MOL0     C13822   8.169   7.593   8.957 -0.5774 -0.7303  0.9641
  101MOL0     C13823   8.298   7.531   8.918 -0.0109 -0.7465  0.1058
  101MOL0     O13824   8.397   7.606   8.992  0.3052 -0.5026 -0.4541
  101MOL0     C13825   8.523   7.574   8.978 -0.3910  0.0098  0.5495
  101MOL0     C13826   8.571   7.444   8.938 -0.3736  0.1030 -0.8027
  101MOL0     C13827   8.709   7.424   8.914 -0.3671 -0.7232 -0.0808
  101MOL0     C13828   8.756   7.278   8.883  0.3225 -0.6059  0.6707
  101MOL0     C13829   8.804   7.525   8.934  0.2016 -0.3219 -0.4277
  101MOL0     C13830   8.957   7.513   8.927  0.6678  0.2751 -0.2180
  101MOL0     O13831   9.034   7.618   8.949  0.2282 -0.6842  0.0203
  101MOL0     C13832   9.176   7.618   8.957  0.9236  0.0477  0.1674
  101MOL0     C13833   9.232   7.740   8.989  0.8259  0.4820 -0.7287
  101MOL0     C13834   9.366   7.769   8.977  0.3022  0.4414  0.0926
  101MOL0     C13835   9.447   7.668   8.937 -0.6279 -0.0005  0.1415
  101MOL0     O13836   9.586   7.674   8.925  0.0246  0.2112  0.0179
  101MOL0     C13837   9.659   7.777   8.997  0.0439  0.5036 -0.2129
  101MOL0     C13838   9.809   7.744   8.995 -0.2342  0.6098 -0.2945
  101MOL0     C13839   9.869   7.736   8.852 -0.2925 -0.2444 -0.0588
  101MOL0     C13840  10.018   7.706   8.863 -0.2557  0.1013 -0.2330
  101MOL0     C13841  10.081   7.720   8.727 -0.4267  0.1086  0.1392
  101MOL0     C13842  10.224   7.653   8.713  1.1651  0.2388 -0.2874
  101MOL0     C13843  10.289   7.669   8.573 -0.5897 -0.5511  0.8171
  101MOL0     C13844  10.425   7.593   8.584  0.1785 -0.6918  0.7965
  101MOL0    Cl13845  10.395   7.415   8.572  0.1296  0.1261  0.1249
  101MOL0     C13846   9.394   7.542   8.897  0.2728 -0.4079 -0.7414
  101MOL0     C13847   9.255   7.511   8.912 -0.1823 -0.3896  0.5326
  101MOL0     O13848   9.002   7.403   8.920 -0.3825  0.4271  0.1248
  101MOL0     C13849   8.757   7.649   8.964  0.7067  0.6544 -0.0522
  101MOL0     C13850   8.618   7.674   8.983  0.5696 -0.7337  0.7453
  101MOL0     N13851   7.863   7.624   9.034 -0.3719 -0.3544 -0.0111
  101MOL0     N13852   7.772   7.569   8.970  0.0762  0.1194  0.0690
  101MOL0     C13853   6.568   7.386   8.795  0.3092 -0.2414 -0.0055
  101MOL0     C13854   6.456   7.326   8.846 -0.3082  0.7987  0.2001
  101MOL0     C13855   6.129   7.074   8.992 -0.3804 -0.3401 -0.3659
  101MOL0     C13856   6.032   7.069   8.890  0.5286  0.1484  0.1674
  101MOL0     C13857   5.903   7.021   8.911  0.7146  0.4012  0.5248
  101MOL0     C13858   5.867   6.969   9.035 -0.3045 -0.5636  1.1357
  101MOL0     O13859   5.735   6.926   9.059  0.1441 -0.1555  0.0304
  101MOL0     C13860   5.726   6.782   9.064  0.2782 -0.3986  0.3675
  101MOL0     C13861   5.638   6.716   8.953  0.5522  1.1843 -0.7382
  101MOL0     C13862   5.604   6.574   8.991 -0.2938  0.2565 -0.4850
  101MOL0     C13863   5.509   6.491   8.892  0.5057  0.2785  0.0727
  101MOL0     C13864   5.362   6.520   8.894 -0.3757  0.2008 -0.8532
  101MOL0     C13865   5.252   6.552   8.879  0.1324  0.5399  0.0709
  101MOL0     C13866   5.950   6.969   9.141  0.2372 -0.5161  1.0181
  101MOL0     C13867   6.084   7.025   9.127  0.8154 -0.1241  0.2169
  101MOL0     C13868   6.160   7.035   9.255  0.3578  0.6648  0.0837
  101MOL0     H13869   6.497   7.032   8.679 -0.5118 -0.2937  2.7219
  101MOL0     H13870   6.705   7.153   8.606  0.7785 -3.7969  2.1804
  101MOL0     H13871   6.855   7.461   8.813  0.0858  0.6565 -0.0251
  101MOL0     H13872   6.737   7.573   8.731  0.6721  2.0627 -4.9883
  101MOL0     H13873   6.951   7.515   8.538  3.1078 -3.3814  1.9568
  101MOL0     H13874   6.915   7.668   8.607 -0.2181 -1.0263 -1.9244
  101MOL0     H13875   7.050   7.635   8.800 -0.1962 -0.0716  0.7933
  101MOL0     H13876   7.089   7.465   8.740 -1.3461 -0.9377 -1.9933
  101MOL0     H13877   7.215   7.539   8.553 -0.0344  0.2246 -1.0091
  101MOL0     H13878   7.156   7.703   8.572  1.0321  0.6333  1.8317
  101MOL0     H13879   7.319   7.563   8.786 -0.4538 -0.7513 -0.5644
  101MOL0     H13880   7.282   7.734   8.769 -0.4156  1.2998 -1.7576
  101MOL0     H13881   7.454   7.607   8.555  0.5666  1.0328 -1.2150
  101MOL0     H13882   7.400   7.772   8.569  1.6085 -0.0536 -0.0211
  101MOL0     H13883   7.495   7.743   8.829  0.4904 -2.6383  0.4815
  101MOL0     H13884   7.603   7.807   8.716 -1.1811  0.8326 -1.8824
  101MOL0     H13885   7.599   7.521   8.796 -0.9696  0.2403 -0.0010
  101MOL0     H13886   7.697   7.611   8.660 -0.2322 -0.1911  0.8810
  101MOL0     H13887   7.853   7.799   8.755 -0.3969 -0.6333 -0.9995
  101MOL0     H13888   8.038   7.817   9.094  3.7779  1.9871 -0.9286
  101MOL0     H13889   8.002   7.915   8.959 -0.2059  0.8049  1.8640
  101MOL0     H13890   8.155   7.755   8.823 -1.9026  0.1076 -0.6942
  101MOL0     H13891   8.240   7.798   8.971 -0.4355 -0.2920  0.8678
  101MOL0     H13892   8.156   7.572   9.063 -4.0089 -0.9861  0.5911
  101MOL0     H13893   8.094   7.534   8.904  0.5605 -1.8075  0.4799
  101MOL0     H13894   8.274   7.430   8.952 -1.7094 -0.4807 -0.2363
  101MOL0     H13895   8.326   7.525   8.813  1.3893  1.5128  0.2871
  101MOL0     H13896   8.499   7.362   8.944  1.1484 -1.1542  1.5972
  101MOL0     H13897   8.669   7.217   8.856  1.4745 -1.4907 -1.3016
  101MOL0     H13898   8.802   7.233   8.971 -0.8772  1.0626  2.1943
  101MOL0     H13899   8.831   7.265   8.804 -0.0322  4.5448 -0.9145
  101MOL0     H13900   9.161   7.818   9.015 -1.8717 -1.4440 -1.8451
  101MOL0     H13901   9.403   7.866   9.007 -0.8985  0.5871  1.1897
  101MOL0     H13902   9.633   7.875   8.956  2.3368  0.5971 -1.6254
  101MOL0     H13903   9.634   7.786   9.103  1.2397  3.5112 -0.0849
  101MOL0     H13904   9.865   7.821   9.049  1.7339 -1.0679  0.1526
  101MOL0     H13905   9.835   7.659   9.058 -0.1488  0.8160 -0.0481
  101MOL0     H13906   9.862   7.827   8.791  0.0255 -1.3310 -1.7830
  101MOL0     H13907   9.829   7.658   8.787 -0.3981  1.8727 -2.7018
  101MOL0     H13908  10.031   7.603   8.896  3.0153 -0.0573 -1.6045
  101MOL0     H13909  10.075   7.772   8.930  0.3485 -3.0560  2.6333
  101MOL0     H13910  10.015   7.671   8.655  1.0141  1.3884 -2.1699
  101MOL0     H13911  10.089   7.826   8.703 -1.4058 -0.7668 -5.6357
  101MOL0     H13912  10.226   7.546   8.736  1.2297 -0.5630 -3.5816
  101MOL0     H13913  10.278   7.710   8.789 -1.3383  1.0452  1.0415
  101MOL0     H13914  10.309   7.776   8.565 -0.8865 -0.4648  1.1948
  101MOL0     H13915  10.225   7.637   8.489 -3.6251 -0.8296  3.0592
  101MOL0     H13916  10.477   7.631   8.673 -0.8243  0.2929  0.9885
  101MOL0     H13917  10.482   7.632   8.500 -0.9734 -1.2656 -0.2760
  101MOL0     H13918   9.446   7.459   8.850 -0.5743  0.6801 -3.8674
  101MOL0     H13919   9.224   7.411   8.882 -0.9728 -0.0224  0.1051
  101MOL0     H13920   8.820   7.735   8.979  2.5303 -0.8668  1.5131
  101MOL0     H13921   8.589   7.776   9.007  0.2500 -0.7070  0.2590
  101MOL0     H13922   6.584   7.488   8.828  3.2344 -0.6795  0.2549
  101MOL0     H13923   6.381   7.378   8.905 -0.3279  0.3146  0.6148
  101MOL0     H13924   6.053   7.116   8.795  1.9905 -2.0539 -0.6692
  101MOL0     H13925   5.826   7.026   8.834  0.6580  0.9974  0.6179
  101MOL0     H13926   5.821   6.730   9.053  0.7390  0.8398 -2.0583
  101MOL0     H13927   5.684   6.765   9.164 -0.1175 -1.7943 -0.0182
  101MOL0     H13928   5.678   6.730   8.852  1.2217 -1.2896 -0.8897
  101MOL0     H13929   5.547   6.776   8.951 -0.7870 -0.6682  0.7928
  101MOL0     H13930   5.697   6.518   9.004 -0.7390  0.0180  2.1576
  101MOL0     H13931   5.554   6.558   9.087  0.6753 -1.6206 -0.2420
  101MOL0     H13932   5.522   6.386   8.921  1.0794  1.0025  2.7565
  101MOL0     H13933   5.548   6.507   8.791  1.7621  0.5128  0.5690
  101MOL0     H13934   5.157   6.603   8.877  0.1167  0.8906  3.6245
  101MOL0     H13935   5.922   6.928   9.238  0.1141 -2.1088  0.3544
  101MOL0     H13936   6.195   6.937   9.287 -1.4782 -0.0813 -0.0562
  101MOL0     H13937   6.234   7.115   9.254  0.5007  0.5710 -2.2451
  101MOL0     H13938   6.094   7.059   9.339  1.3337  1.4934  0.6340
  102MOL0     O13939   7.535   2.867   6.060  0.1892  0.7026  0.0229
  102MOL0     C13940   7.513   2.962   5.990  0.4890 -0.7146 -0.3687
  102MOL0     O13941   7.519   3.089   6.031  0.2187  0.4748  0.6303
  102MOL0     C13942   7.557   3.095   6.165  0.2458 -0.0874  0.0978
  102MOL0     C13943   7.691   3.085   6.202 -0.1993  0.3967  0.0067
  102MOL0     C13944   7.732   3.076   6.344 -0.6512 -0.8571  1.0827
  102MOL0     C13945   7.636   3.090   6.438  0.6716  0.8609 -0.4273
  102MOL0     O13946   7.675   3.116   6.560 -0.2790  0.2559  0.4004
  102MOL0     C13947   7.582   3.108   6.673 -0.1693 -0.3760  1.3496
  102MOL0     C13948   7.651   3.138   6.810  0.4465 -0.1410  0.4411
  102MOL0     C13949   7.746   3.036   6.858 -0.8350  0.3359 -0.3727
  102MOL0     C13950   7.774   3.075   7.006  0.6160  0.5797  1.3316
  102MOL0     C13951   7.860   3.198   7.025 -0.3347 -0.1435 -1.1421
  102MOL0     C13952   8.014   3.165   7.003 -0.2126 -0.3633  0.0986
  102MOL0     C13953   8.089   3.070   7.093 -0.0143  0.2241  0.1751
  102MOL0     C13954   8.100   3.134   7.238  0.7057  0.4051  0.2219
  102MOL0     N13955   8.164   3.028   7.330  0.2675 -0.7589 -0.2854
  102MOL0     C13956   8.166   2.897   7.319 -0.3945 -0.6710  0.3642
  102MOL0     C13957   8.249   2.847   7.411 -0.2534 -0.3439  0.2874
  102MOL0     C13958   8.272   2.698   7.424 -0.0265  0.4742 -0.1738
  102MOL0     C13959   8.423   2.668   7.461  0.3139  0.8591 -0.7549
  102MOL0     C13960   8.439   2.526   7.499 -0.9625  0.6239  0.4845
  102MOL0     C13961   8.596   2.508   7.520 -0.8643 -0.7865  0.6818
  102MOL0     O13962   8.630   2.375   7.546 -0.4812 -0.1911 -0.4724
  102MOL0     C13963   8.762   2.330   7.567  0.3501 -0.7225  0.0059
  102MOL0     C13964   8.786   2.194   7.583 -0.2315  0.5466 -0.1061
  102MOL0     C13965   8.913   2.138   7.595 -0.4794  0.8366  0.8998
  102MOL0     C13966   8.912   1.985   7.623 -1.1149  0.2485 -0.0225
  102MOL0     C13967   9.028   2.224   7.592  0.2663  0.4662 -0.1662
  102MOL0     C13968   9.171   2.186   7.628  0.5338  0.1449  0.0855
  102MOL0     O13969   9.199   2.055   7.637 -0.2171 -0.1493 -0.1374
  102MOL0     C13970   9.300   2.022   7.736 -0.3906 -0.4922 -0.6086
  102MOL0     C13971   9.265   1.986   7.868  0.5938 -0.6159  0.8023
  102MOL0     C13972   9.360   1.958   7.971 -0.0433  0.0645  0.4108
  102MOL0     C13973   9.498   1.965   7.935  0.4707 -0.2077  0.3370
  102MOL0     O13974   9.594   1.913   8.028  0.6849 -0.6091  0.4235
  102MOL0     C13975   9.728   1.925   8.002 -0.2342 -0.3232  0.5125
  102MOL0     C13976   9.801   1.813   8.082  1.0612  0.9325 -0.9197
  102MOL0     C13977   9.792   1.669   8.021 -0.2816 -0.2027  0.0289
  102MOL0     C13978   9.848   1.562   8.117  0.4415  0.4694  0.3318
  102MOL0     C13979   9.875   1.429   8.052 -0.3609 -0.8992 -0.2264
  102MOL0     C13980  10.003   1.429   7.971 -0.5556  0.3676 -0.2604
  102MOL0     C13981  10.129   1.417   8.060  0.8987 -0.6513 -0.7620
  102MOL0     C13982  10.250   1.396   7.971  0.0299 -0.4298 -0.4272
  102MOL0    Cl13983  10.384   1.311   8.072 -0.4146  0.1539 -0.1071
  102MOL0     C13984   9.534   1.990   7.798  0.2065 -0.1070 -0.2509
  102MOL0     C13985   9.437   2.025   7.707  0.9492  0.3287  0.3663
  102MOL0     O13986   9.248   2.278   7.656  0.5104  0.2751 -0.2265
  102MOL0     C13987   9.003   2.362   7.558  1.0205 -0.8922  0.2599
  102MOL0     C13988   8.872   2.414   7.549 -0.5350 -0.0478  0.3545
  102MOL0     N13989   8.298   2.953   7.484  0.0100 -0.7799 -0.8033
  102MOL0     N13990   8.238   3.061   7.438 -0.2176  0.5437  0.5908
  102MOL0     C13991   7.500   3.104   6.402 -0.1627  0.1977  0.5177
  102MOL0     C13992   7.462   3.103   6.267 -0.2044 -0.2012 -0.2454
  102MOL0     C13993   7.454   2.942   5.864  0.4578 -0.1968  0.2818
  102MOL0     C13994   7.342   2.857   5.858  0.9960  1.2311  0.0955
  102MOL0     C13995   7.275   2.825   5.741 -0.8357  0.3751  0.2407
  102MOL0     C13996   7.315   2.885   5.625  0.0492 -0.3010  0.8479
  102MOL0     O13997   7.249   2.851   5.510 -0.1645  0.1266  0.1062
  102MOL0     C13998   7.223   2.954   5.413  0.0477  0.9913  0.2214
  102MOL0     C13999   7.082   2.912   5.367  0.4275 -0.1702 -0.0516
  102MOL0     C14000   7.042   2.967   5.229 -0.3655  0.3988  0.2802
  102MOL0     C14001   6.903   2.913   5.189 -0.5208  0.3952  0.3953
  102MOL0     C14002   6.839   2.988   5.082  0.3107  0.4191 -0.8389
  102MOL0     C14003   6.780   3.050   5.000 -0.6499  1.0770 -0.4672
  102MOL0     C14004   7.429   2.962   5.630  0.4955 -0.6864  0.3531
  102MOL0     C14005   7.499   2.995   5.744  0.8123  0.0545 -0.1825
  102MOL0     C14006   7.606   3.100   5.739  0.0410 -0.7767 -0.5675
  102MOL0     H14007   7.764   3.071   6.123 -1.6027 -0.8411 -1.1089
  102MOL0     H14008   7.839   3.084   6.354 -0.8309 -0.6743  3.5402
  102MOL0     H14009   7.530   3.012   6.675 -0.1762 -0.5005 -1.6031
  102MOL0     H14010   7.502   3.181   6.659  1.6364  1.3564 -0.4889
  102MOL0     H14011   7.697   3.237   6.813 -0.3624  0.3459  5.5535
  102MOL0     H14012   7.565   3.151   6.875  1.6334  2.1645  1.6695
  102MOL0     H14013   7.704   2.935   6.857  1.9244 -0.8776 -0.3086
  102MOL0     H14014   7.834   3.047   6.794 -1.2122 -1.5717 -1.2821
  102MOL0     H14015   7.681   3.090   7.062  0.3462 -0.0047  1.0473
  102MOL0     H14016   7.826   2.988   7.046  1.7286 -0.7851 -2.6308
  102MOL0     H14017   7.841   3.241   7.123 -2.9528 -1.5904 -0.9258
  102MOL0     H14018   7.835   3.278   6.954 -0.1952 -0.1021 -1.1454
  102MOL0     H14019   8.042   3.132   6.903 -0.3775 -1.1139  0.2934
  102MOL0     H14020   8.060   3.264   7.012 -1.1573  0.1625 -0.6167
  102MOL0     H14021   8.185   3.063   7.041  0.6500  3.0923  0.8380
  102MOL0     H14022   8.044   2.970   7.095  1.1776 -0.3450 -0.7387
  102MOL0     H14023   8.161   3.225   7.247 -0.1111  0.7879  2.6081
  102MOL0     H14024   7.998   3.148   7.275  1.4004  2.6242  1.4984
  102MOL0     H14025   8.108   2.837   7.250  0.2670  2.5512 -3.3532
  102MOL0     H14026   8.230   2.649   7.336 -4.3767 -0.2793  2.0572
  102MOL0     H14027   8.200   2.663   7.498 -0.3933  0.3963 -0.5629
  102MOL0     H14028   8.485   2.692   7.374  2.1830 -0.7829  0.0409
  102MOL0     H14029   8.451   2.726   7.549  1.3404 -2.0837  1.0106
  102MOL0     H14030   8.382   2.503   7.590 -0.4956  2.9036  1.4279
  102MOL0     H14031   8.413   2.465   7.412  0.1126  0.2765  0.3911
  102MOL0     H14032   8.653   2.550   7.436  0.0595  0.4530  1.8845
  102MOL0     H14033   8.632   2.575   7.598  2.6617  1.9832 -2.8494
  102MOL0     H14034   8.701   2.129   7.602  0.3735 -0.1539  0.2411
  102MOL0     H14035   8.810   1.962   7.657 -0.5094  0.6725  2.2823
  102MOL0     H14036   8.983   1.940   7.693  1.5110 -0.6705 -3.0455
  102MOL0     H14037   8.919   1.928   7.530 -1.0967 -1.6288  1.0637
  102MOL0     H14038   9.163   1.982   7.906 -0.0031 -0.7804 -0.7385
  102MOL0     H14039   9.335   1.940   8.075  2.5658 -1.3463  0.8742
  102MOL0     H14040   9.752   1.901   7.897  2.0888  1.3853  0.5870
  102MOL0     H14041   9.767   2.024   8.024 -1.2114  0.4604 -1.1159
  102MOL0     H14042   9.907   1.838   8.078  1.2968  0.0756 -0.3745
  102MOL0     H14043   9.767   1.826   8.185  2.3609  1.6436 -0.5624
  102MOL0     H14044   9.848   1.674   7.928 -4.5204  2.8491 -2.7111
  102MOL0     H14045   9.689   1.635   8.001 -0.0335 -1.8381  1.2752
  102MOL0     H14046   9.776   1.542   8.197  2.4504 -0.1827  2.0590
  102MOL0     H14047   9.942   1.590   8.165  0.1165 -1.0582  1.9520
  102MOL0     H14048   9.888   1.363   8.138 -1.1947 -2.8311 -1.5198
  102MOL0     H14049   9.790   1.394   7.992 -0.8868  0.1145 -0.1016
  102MOL0     H14050  10.009   1.517   7.907 -0.7237  0.8666  0.3923
  102MOL0     H14051   9.999   1.343   7.903 -0.5078  0.7319 -0.7274
  102MOL0     H14052  10.111   1.326   8.118  0.0576  0.2443  0.4366
  102MOL0     H14053  10.151   1.496   8.131 -1.1973 -1.5419  0.9813
  102MOL0     H14054  10.287   1.490   7.929 -1.5488  0.0276 -0.8654
  102MOL0     H14055  10.226   1.329   7.888  2.1088 -1.5797 -0.1658
  102MOL0     H14056   9.636   1.985   7.762 -0.7019 -3.5604 -2.9086
  102MOL0     H14057   9.465   2.052   7.606  0.8611  0.4843  0.3832
  102MOL0     H14058   9.074   2.442   7.542 -0.6760  0.9164  1.2726
  102MOL0     H14059   8.862   2.519   7.524  0.1125 -0.4661 -1.8421
  102MOL0     H14060   7.420   3.111   6.475 -0.4170 -0.8409  0.3526
  102MOL0     H14061   7.359   3.108   6.232 -0.5870 -2.3872  0.4325
  102MOL0     H14062   7.306   2.803   5.946  0.6568 -0.7969 -1.2113
  102MOL0     H14063   7.188   2.760   5.735 -1.1339  0.8886 -1.8447
  102MOL0     H14064   7.237   3.056   5.451  1.6068 -0.0196  2.6432
  102MOL0     H14065   7.286   2.949   5.324  0.1534  1.8426  0.2380
  102MOL0     H14066   7.008   2.931   5.445 -0.1910  1.1642 -0.9187
  102MOL0     H14067   7.077   2.807   5.339 -1.8124  0.3804 -2.1061
  102MOL0     H14068   7.049   3.076   5.223  0.9114  0.2768 -0.9488
  102MOL0     H14069   7.120   2.926   5.163 -0.4734 -0.5346  0.7122
  102MOL0     H14070   6.834   2.923   5.273 -0.1424  3.8969  0.4631
  102MOL0     H14071   6.913   2.810   5.156 -1.5065  0.6936 -0.9082
  102MOL0     H14072   6.709   3.068   4.922 -0.7718  1.8609 -0.1868
  102MOL0     H14073   7.448   3.012   5.535  1.0583 -0.3187  0.6556
  102MOL0     H14074   7.704   3.060   5.768 -0.0695 -0.3208  0.4360
  102MOL0     H14075   7.636   3.129   5.637 -1.7902 -1.5831 -1.3828
  102MOL0     H14076   7.573   3.184   5.800  1.4138 -0.7711  0.1943
  103MOL0     O14077   0.215   6.819   7.021 -0.6317 -0.0136 -0.3002
  103MOL0     C14078   0.208   6.708   6.974 -0.5852  0.7677 -0.2632
  103MOL0     O14079   0.295   6.669   6.884 -0.4605  0.4573  0.0482
  103MOL0     C14080   0.424   6.721   6.885  0.4613  0.2052 -0.9889
  103MOL0     C14081   0.492   6.749   6.767  0.1879 -0.4128 -0.3662
  103MOL0     C14082   0.629   6.773   6.763 -0.0936  0.3165 -0.4370
  103MOL0     C14083   0.695   6.790   6.886  0.9021  0.3039 -0.6620
  103MOL0     O14084   0.819   6.833   6.876  0.0953  0.1372 -0.4126
  103MOL0     C14085   0.915   6.819   6.979 -0.3643 -0.0436 -0.0276
  103MOL0     C14086   1.037   6.889   6.927 -0.0405 -0.3349 -0.3389
  103MOL0     C14087   1.159   6.865   7.010 -0.0026  0.7772 -0.1721
  103MOL0     C14088   1.283   6.907   6.929 -0.0767 -0.4277  0.0153
  103MOL0     C14089   1.404   6.884   7.014 -0.1154  0.3421  0.4977
  103MOL0     C14090   1.528   6.942   6.933  0.0784 -0.4860 -0.4959
  103MOL0     C14091   1.646   6.938   7.017 -0.4817 -0.1079 -0.3005
  103MOL0     C14092   1.709   6.805   7.052  0.1957  0.7304  0.0938
  103MOL0     N14093   1.831   6.817   7.132  1.1979  0.3166  0.8053
  103MOL0     C14094   1.840   6.866   7.253  0.7440  0.7154  0.9504
  103MOL0     C14095   1.958   6.929   7.270 -0.3497 -0.4739 -0.0192
  103MOL0     C14096   1.996   7.025   7.383 -0.3608 -0.3968  0.1925
  103MOL0     C14097   2.082   6.948   7.487 -0.0490  0.8103 -1.0601
  103MOL0     C14098   2.218   6.907   7.432  0.3363  0.5197 -0.7406
  103MOL0     C14099   2.278   6.794   7.517  0.6235  0.4709 -0.0493
  103MOL0     O14100   2.420   6.791   7.503  0.2162 -0.1211  0.1073
  103MOL0     C14101   2.496   6.883   7.573  0.5468  0.9370  0.1469
  103MOL0     C14102   2.453   7.000   7.641  0.1283 -0.8028  0.2876
  103MOL0     C14103   2.553   7.088   7.699 -0.7397  0.1003 -0.2770
  103MOL0     C14104   2.493   7.206   7.774 -0.0935  0.3725 -0.6828
  103MOL0     C14105   2.690   7.059   7.680 -0.7433  0.1084 -0.1561
  103MOL0     C14106   2.798   7.140   7.746 -0.4450  0.3932 -0.2308
  103MOL0     O14107   2.765   7.248   7.824 -0.3046 -0.1520 -0.0590
  103MOL0     C14108   2.854   7.341   7.861 -0.4129  0.7930 -0.3485
  103MOL0     C14109   2.979   7.306   7.903 -0.2093 -0.6713  0.3144
  103MOL0     C14110   3.061   7.412   7.943 -0.0659  0.4093 -0.5161
  103MOL0     C14111   3.020   7.543   7.937 -0.4902 -0.3341 -1.2224
  103MOL0     O14112   3.104   7.645   7.982 -0.2651 -0.1861  0.3544
  103MOL0     C14113   3.093   7.772   7.907  0.1285  0.9020  0.4587
  103MOL0     C14114   3.215   7.850   7.912 -0.6454  0.2439  0.2202
  103MOL0     C14115   3.238   7.932   7.793  0.3759  0.6449  1.2708
  103MOL0     C14116   3.390   7.990   7.801  0.2473 -0.9127  0.4712
  103MOL0     C14117   3.430   8.089   7.916 -0.5516 -0.2472 -1.1678
  103MOL0     C14118   3.558   8.159   7.890 -0.5602  0.1780  0.4507
  103MOL0     C14119   3.595   8.277   7.979  0.0431 -0.1371 -1.8086
  103MOL0     C14120   3.744   8.311   7.965 -0.2653 -0.3520  0.1034
  103MOL0    Cl14121   3.800   8.340   7.802 -0.4112  0.2046 -0.4090
  103MOL0     C14122   2.887   7.573   7.902  0.1555 -0.5044 -0.5025
  103MOL0     C14123   2.804   7.468   7.869 -0.3401  0.1974  0.9785
  103MOL0     O14124   2.916   7.103   7.727  0.4098 -0.2244 -0.0267
  103MOL0     C14125   2.722   6.947   7.602  0.6515 -0.1212  0.3223
  103MOL0     C14126   2.631   6.861   7.560 -0.1244 -0.1180 -0.5102
  103MOL0     N14127   2.023   6.921   7.148 -0.7787 -0.6852  0.7800
  103MOL0     N14128   1.944   6.851   7.070  0.5745 -0.5845  0.4361
  103MOL0     C14129   0.630   6.760   7.006  0.4855  0.1234 -0.3798
  103MOL0     C14130   0.491   6.721   7.009 -0.3474  0.0981  0.3157
  103MOL0     C14131   0.079   6.626   6.983 -0.2396  0.2743  0.4324
  103MOL0     C14132  -0.043   6.696   7.003 -0.3601  0.3290 -0.6437
  103MOL0     C14133  -0.159   6.624   7.027 -0.4147 -0.0571  0.2187
  103MOL0     C14134  -0.158   6.486   7.034 -0.3012 -0.4741  0.9746
  103MOL0     O14135  -0.270   6.419   7.061  0.3791 -0.8097 -0.7958
  103MOL0     C14136  -0.308   6.319   6.961  0.3777 -0.0008 -0.1576
  103MOL0     C14137  -0.448   6.374   6.917  0.3839 -0.1511  0.0879
  103MOL0     C14138  -0.549   6.359   7.026 -0.4050  0.2692 -0.3766
  103MOL0     C14139  -0.691   6.371   6.982  0.4205 -0.5066  0.0335
  103MOL0     C14140  -0.729   6.249   6.917 -0.5451  0.3625 -0.2743
  103MOL0     C14141  -0.768   6.152   6.861 -0.0622  0.0788 -0.2951
  103MOL0     C14142  -0.042   6.420   7.014 -0.4406 -0.4651  0.7630
  103MOL0     C14143   0.078   6.487   6.998 -0.2842 -0.0073 -0.5971
  103MOL0     C14144   0.197   6.396   6.999 -0.6423  0.2916 -0.6004
  103MOL0     H14145   0.441   6.743   6.672 -0.9003 -3.7887  0.2893
  103MOL0     H14146   0.678   6.806   6.671 -1.5804 -1.5934 -2.0111
  103MOL0     H14147   0.934   6.715   7.008 -1.3065  0.7035  3.8145
  103MOL0     H14148   0.885   6.876   7.068 -0.9981  0.1148 -0.3422
  103MOL0     H14149   1.051   6.845   6.828 -0.7122 -4.0512  1.0593
  103MOL0     H14150   1.010   6.995   6.917 -6.0458 -1.2975  1.5532
  103MOL0     H14151   1.161   6.902   7.113 -1.2858 -0.8560  0.4866
  103MOL0     H14152   1.158   6.757   7.024 -3.1778  0.8894  1.1219
  103MOL0     H14153   1.281   6.860   6.830  1.1057  2.0721 -1.2924
  103MOL0     H14154   1.274   7.013   6.901  2.8086 -0.4657 -1.4400
  103MOL0     H14155   1.409   6.775   7.025 -2.7382  0.1045 -0.1218
  103MOL0     H14156   1.401   6.931   7.112  0.1309  0.2592  0.5458
  103MOL0     H14157   1.547   6.877   6.847  1.7796 -0.8375  0.1014
  103MOL0     H14158   1.518   7.048   6.907  1.3632 -0.3002 -0.3245
  103MOL0     H14159   1.617   6.988   7.110 -0.2903  2.1638 -1.4046
  103MOL0     H14160   1.725   7.007   6.987 -1.3757  0.9931 -0.1576
  103MOL0     H14161   1.637   6.743   7.106  0.9431  0.4609  0.8037
  103MOL0     H14162   1.729   6.747   6.961 -1.3589  1.1469 -0.5548
  103MOL0     H14163   1.753   6.863   7.318 -0.7272 -2.6616 -0.9012
  103MOL0     H14164   1.914   7.084   7.424  0.6605  0.7460  0.6396
  103MOL0     H14165   2.053   7.108   7.342  0.5322  0.9693  3.8514
  103MOL0     H14166   2.095   7.017   7.570  0.9637  1.0119 -1.3789
  103MOL0     H14167   2.027   6.859   7.521 -1.6152  1.1408 -2.5595
  103MOL0     H14168   2.206   6.872   7.329  2.6120  1.3327 -1.3456
  103MOL0     H14169   2.289   6.991   7.433  1.4167 -0.3608  0.6883
  103MOL0     H14170   2.248   6.793   7.622 -0.0448  1.1498 -0.2225
  103MOL0     H14171   2.239   6.699   7.477 -2.2473  1.6178 -0.2178
  103MOL0     H14172   2.351   7.037   7.651  0.1338 -0.5308 -0.6168
  103MOL0     H14173   2.522   7.298   7.724 -2.0425  0.5742 -1.5548
  103MOL0     H14174   2.522   7.217   7.878  2.3455 -0.1267 -1.2488
  103MOL0     H14175   2.384   7.210   7.771 -0.1532 -0.1958  0.2793
  103MOL0     H14176   3.030   7.211   7.900  2.0802  0.5068 -0.1795
  103MOL0     H14177   3.160   7.389   7.981  0.6353  4.4324  0.5153
  103MOL0     H14178   3.077   7.742   7.803  0.9022  1.7434  0.0820
  103MOL0     H14179   3.009   7.829   7.948  1.3943  3.0695  0.1669
  103MOL0     H14180   3.206   7.923   7.993 -0.0178 -1.3201  1.7611
  103MOL0     H14181   3.296   7.781   7.938  0.8038  2.0564  0.7491
  103MOL0     H14182   3.155   8.002   7.787 -0.0707  0.0778  0.7583
  103MOL0     H14183   3.237   7.866   7.706  1.3574  1.6108  0.5057
  103MOL0     H14184   3.410   8.030   7.701  0.4046  0.4440  1.0253
  103MOL0     H14185   3.467   7.913   7.812  3.0442  1.8163  1.5546
  103MOL0     H14186   3.340   8.148   7.935 -0.4194 -0.5487  0.6537
  103MOL0     H14187   3.439   8.033   8.010  0.9949  0.1015 -1.0767
  103MOL0     H14188   3.558   8.198   7.788  0.4864  4.1037  1.7724
  103MOL0     H14189   3.628   8.076   7.883 -1.5163 -0.6339  0.1652
  103MOL0     H14190   3.569   8.238   8.078 -1.4508  0.0506 -2.1042
  103MOL0     H14191   3.532   8.360   7.945 -2.3616 -0.8112  0.6346
  103MOL0     H14192   3.796   8.226   8.010 -1.6584 -0.2202  2.0871
  103MOL0     H14193   3.776   8.393   8.029 -0.1109  1.0725 -1.7209
  103MOL0     H14194   2.843   7.672   7.912 -0.9551 -1.0849  0.7202
  103MOL0     H14195   2.711   7.505   7.827  1.2672  1.2590 -1.8900
  103MOL0     H14196   2.827   6.924   7.587  0.2850 -0.5774 -1.9666
  103MOL0     H14197   2.665   6.769   7.513  2.3119  1.3360 -1.7809
  103MOL0     H14198   0.681   6.772   7.101 -1.1987  1.9790  0.3404
  103MOL0     H14199   0.441   6.688   7.099 -1.6183  1.6394  0.2320
  103MOL0     H14200  -0.040   6.804   6.999  0.2931  0.2860 -1.8044
  103MOL0     H14201  -0.256   6.673   7.031 -1.5351 -1.8086 -2.4720
  103MOL0     H14202  -0.248   6.302   6.871 -0.4645 -0.9438 -0.5616
  103MOL0     H14203  -0.322   6.225   7.015  0.5615  1.2670  2.2170
  103MOL0     H14204  -0.488   6.316   6.833 -0.4505 -0.4201  0.6619
  103MOL0     H14205  -0.447   6.477   6.880 -0.3921  0.6622  2.1697
  103MOL0     H14206  -0.538   6.266   7.083 -1.9282 -0.1998 -0.8067
  103MOL0     H14207  -0.522   6.421   7.112  1.4931  1.8793 -2.0255
  103MOL0     H14208  -0.709   6.451   6.910 -0.6622 -2.1874 -1.6552
  103MOL0     H14209  -0.752   6.391   7.070  0.6755  3.4103 -0.5092
  103MOL0     H14210  -0.801   6.066   6.807  1.4816  0.7769 -2.5254
  103MOL0     H14211  -0.043   6.312   7.017  1.1284 -0.6994 -2.3777
  103MOL0     H14212   0.215   6.361   7.101  1.8928  2.7661 -0.0881
  103MOL0     H14213   0.173   6.310   6.935 -1.3688 -0.9129  1.2066
  103MOL0     H14214   0.289   6.436   6.956  0.7915 -3.2570 -1.1152
  104MOL0     O14215   1.638  11.053   6.377  0.3399  0.2251  0.5209
  104MOL0     C14216   1.651  11.154   6.452 -0.0409 -0.0445  0.4982
  104MOL0     O14217   1.756  11.185   6.531  0.1531  0.4948  0.2267
  104MOL0     C14218   1.880  11.119   6.516 -0.1307  0.5455 -0.8447
  104MOL0     C14219   1.937  11.084   6.393 -0.6658 -0.2283  0.1130
  104MOL0     C14220   2.053  11.001   6.378 -0.1176 -0.4442  0.8979
  104MOL0     C14221   2.125  10.962   6.498  0.2127  0.0504 -0.2569
  104MOL0     O14222   2.239  10.891   6.491 -0.5761  0.0978  0.0698
  104MOL0     C14223   2.338  10.911   6.385  0.1474 -0.1151 -0.0776
  104MOL0     C14224   2.404  11.049   6.385 -0.9698  0.4424  0.3094
  104MOL0     C14225   2.493  11.084   6.263  0.7645 -0.5692 -0.9760
  104MOL0     C14226   2.462  11.223   6.197 -0.1054 -0.3362  0.4031
  104MOL0     C14227   2.564  11.277   6.095  0.3346 -0.0351  0.4330
  104MOL0     C14228   2.492  11.326   5.970 -0.6560 -0.4362 -0.4135
  104MOL0     C14229   2.605  11.368   5.870  0.5994 -0.4280 -0.0508
  104MOL0     C14230   2.547  11.470   5.771  0.4440 -0.0718 -0.0024
  104MOL0     N14231   2.659  11.493   5.680  0.6694  0.2681 -0.4189
  104MOL0     C14232   2.716  11.406   5.596 -0.6910 -0.2838  0.1871
  104MOL0     C14233   2.819  11.482   5.539  0.4512 -0.0133  0.0240
  104MOL0     C14234   2.925  11.424   5.455  1.0286  0.5267 -0.8104
  104MOL0     C14235   3.039  11.526   5.430 -0.4772 -0.3170  0.4415
  104MOL0     C14236   3.161  11.472   5.355 -0.2992  0.2660 -0.2133
  104MOL0     C14237   3.283  11.564   5.344  0.7603 -0.0648  0.3594
  104MOL0     O14238   3.254  11.681   5.251 -0.5121  0.0634  0.2537
  104MOL0     C14239   3.359  11.770   5.224 -0.1832  0.1502 -0.1735
  104MOL0     C14240   3.485  11.772   5.290 -0.7063  0.3962 -0.0190
  104MOL0     C14241   3.593  11.842   5.240 -0.5973  0.5532 -0.8043
  104MOL0     C14242   3.728  11.815   5.305  1.0665  0.8601  0.9210
  104MOL0     C14243   3.575  11.910   5.113  0.7092 -0.1347 -0.2479
  104MOL0     C14244   3.680  11.984   5.030 -0.6021  1.0815 -0.9364
  104MOL0     O14245   3.789  12.024   5.102 -0.5236  0.3560 -0.0096
  104MOL0     C14246   3.894  12.080   5.045 -0.0284  0.4943  0.2091
  104MOL0     C14247   3.923  12.207   5.077 -0.4782 -0.8676 -0.1041
  104MOL0     C14248   4.023  12.275   5.015 -0.4353 -0.4108  0.3029
  104MOL0     C14249   4.111  12.208   4.922  1.2353 -0.1360 -0.3263
  104MOL0     O14250   4.224  12.263   4.874  0.7536 -0.3998 -0.3593
  104MOL0     C14251   4.317  12.340   4.960 -0.2279  0.6012 -0.4708
  104MOL0     C14252   4.380  12.257   5.080 -0.1826 -0.1221 -0.2329
  104MOL0     C14253   4.471  12.346   5.172  0.0754  0.3364 -0.3350
  104MOL0     C14254   4.611  12.345   5.127 -0.2827  0.7413  0.0678
  104MOL0     C14255   4.701  12.362   5.247  0.3522  0.4396  0.0270
  104MOL0     C14256   4.844  12.340   5.203 -0.2165  0.5427  0.2295
  104MOL0     C14257   4.946  12.352   5.313  0.4831  0.3046 -0.7082
  104MOL0     C14258   5.003  12.211   5.347  0.6667  0.0370  0.3229
  104MOL0    Cl14259   5.154  12.238   5.441  0.0308  0.4734  0.1074
  104MOL0     C14260   4.082  12.070   4.900 -0.1996  0.2040 -0.3786
  104MOL0     C14261   3.967  12.011   4.948 -0.4792 -0.8999  0.2649
  104MOL0     O14262   3.662  12.001   4.909  0.4589 -0.8042 -0.3029
  104MOL0     C14263   3.443  11.918   5.058  0.2099  0.3819  0.6000
  104MOL0     C14264   3.345  11.846   5.114 -0.2403 -0.4948 -0.3123
  104MOL0     N14265   2.798  11.609   5.579 -0.1642 -0.5248  0.3993
  104MOL0     N14266   2.704  11.617   5.664  0.2191  0.2121  1.2496
  104MOL0     C14267   2.068  11.004   6.619 -0.6701  0.1885 -0.5866
  104MOL0     C14268   1.945  11.074   6.629 -0.9915  0.0771  0.4282
  104MOL0     C14269   1.540  11.249   6.464  0.0969 -0.4012 -0.0372
  104MOL0     C14270   1.411  11.180   6.488 -1.1573 -0.2674  0.0226
  104MOL0     C14271   1.298  11.261   6.510 -0.3370 -0.1519 -0.0060
  104MOL0     C14272   1.301  11.397   6.503 -0.4622 -0.5083 -0.3523
  104MOL0     O14273   1.176  11.456   6.537 -0.1337  0.3291  0.2278
  104MOL0     C14274   1.184  11.595   6.577  0.2447  0.4490 -1.0405
  104MOL0     C14275   1.215  11.593   6.731  0.0093  0.0346  0.1627
  104MOL0     C14276   1.198  11.734   6.807 -0.3123  1.2910  1.4667
  104MOL0     C14277   1.083  11.731   6.912  0.2761 -0.0104 -0.5381
  104MOL0     C14278   0.951  11.690   6.871  0.8371 -0.2834  0.0010
  104MOL0     C14279   0.832  11.663   6.847  1.4622  0.4665  0.1836
  104MOL0     C14280   1.425  11.463   6.473 -0.4671  0.1005  0.2101
  104MOL0     C14281   1.548  11.389   6.453  1.1646  0.5969 -0.0028
  104MOL0     C14282   1.677  11.453   6.430  0.1894  1.0343  0.2596
  104MOL0     H14283   1.896  11.111   6.297 -0.4715 -1.1541 -0.2447
  104MOL0     H14284   2.084  10.975   6.278  1.1291  0.3193  1.0683
  104MOL0     H14285   2.293  10.898   6.286 -1.0661 -1.0712  0.5753
  104MOL0     H14286   2.410  10.829   6.381 -1.7790 -2.0430  1.9161
  104MOL0     H14287   2.323  11.122   6.387 -2.7252 -1.4292  0.9192
  104MOL0     H14288   2.480  11.064   6.463 -2.0137 -1.3544  1.7659
  104MOL0     H14289   2.593  11.090   6.308 -0.5913 -1.5942  2.4537
  104MOL0     H14290   2.497  11.003   6.190  1.4192 -1.8705  0.4312
  104MOL0     H14291   2.371  11.220   6.137 -0.5222 -1.1898  1.0581
  104MOL0     H14292   2.453  11.301   6.274  3.1360  1.7983 -1.1618
  104MOL0     H14293   2.641  11.201   6.076  0.0230 -0.0639 -0.8496
  104MOL0     H14294   2.617  11.359   6.143  0.2871 -1.3103  2.8120
  104MOL0     H14295   2.429  11.244   5.934 -0.8093 -0.9385  0.9685
  104MOL0     H14296   2.431  11.413   5.996  2.0335  1.6002 -0.4079
  104MOL0     H14297   2.637  11.279   5.815 -0.6361 -0.5797 -0.5469
  104MOL0     H14298   2.694  11.410   5.918  1.1249 -1.0789 -0.4374
  104MOL0     H14299   2.461  11.426   5.720  1.4866  0.3025 -2.1820
  104MOL0     H14300   2.520  11.566   5.816  0.2448  0.1704 -0.6348
  104MOL0     H14301   2.697  11.300   5.584  1.7146 -0.5656 -2.2513
  104MOL0     H14302   2.886  11.388   5.359 -0.3124 -0.3785  0.0449
  104MOL0     H14303   2.961  11.336   5.509  0.1401  0.5945 -0.0935
  104MOL0     H14304   3.012  11.612   5.369  0.5512 -1.8271 -2.3195
  104MOL0     H14305   3.080  11.558   5.527  2.2295  0.4082 -0.8286
  104MOL0     H14306   3.191  11.384   5.413 -0.5817 -0.9807 -1.8722
  104MOL0     H14307   3.147  11.431   5.254  3.6333 -1.7372 -0.1193
  104MOL0     H14308   3.308  11.601   5.445  0.4210  1.6081 -0.1373
  104MOL0     H14309   3.366  11.508   5.301  0.8924  1.3618 -1.3559
  104MOL0     H14310   3.510  11.723   5.384  2.3434 -2.2249 -2.0197
  104MOL0     H14311   3.723  11.768   5.403 -0.4359 -0.9312  0.0441
  104MOL0     H14312   3.772  11.912   5.330  0.6204  1.4401 -0.4048
  104MOL0     H14313   3.796  11.765   5.236 -1.8566  1.4682 -2.7583
  104MOL0     H14314   3.872  12.271   5.149  1.3549  0.9454 -0.3376
  104MOL0     H14315   4.034  12.380   5.042 -0.3948 -1.0204  2.9656
  104MOL0     H14316   4.393  12.382   4.894  0.3522 -0.2924 -0.3868
  104MOL0     H14317   4.260  12.424   5.002 -0.8391  1.0549 -2.1177
  104MOL0     H14318   4.306  12.209   5.145  0.5541 -2.3595 -0.9520
  104MOL0     H14319   4.436  12.181   5.024 -0.0363 -0.2377  0.0622
  104MOL0     H14320   4.471  12.301   5.271  0.9720  2.6106  0.7732
  104MOL0     H14321   4.427  12.445   5.191 -1.5301 -0.7475  2.1671
  104MOL0     H14322   4.628  12.423   5.053 -1.9866 -0.7572 -2.0109
  104MOL0     H14323   4.644  12.251   5.082  0.0441  0.3664  1.0473
  104MOL0     H14324   4.689  12.465   5.284 -1.3381  1.0282 -1.9878
  104MOL0     H14325   4.682  12.291   5.328  0.5355 -0.1190 -0.4168
  104MOL0     H14326   4.881  12.401   5.120 -2.1716 -0.9422 -1.8129
  104MOL0     H14327   4.837  12.234   5.178 -2.6075  0.2900  1.6364
  104MOL0     H14328   4.905  12.391   5.407 -1.2141  0.8872 -1.6572
  104MOL0     H14329   5.029  12.414   5.280  0.3226 -0.4092 -2.5477
  104MOL0     H14330   5.038  12.165   5.254  2.7200 -0.6716  1.3813
  104MOL0     H14331   4.929  12.145   5.393  0.0583  0.6676  0.2511
  104MOL0     H14332   4.143  12.018   4.828  0.2768  1.2355 -0.7280
  104MOL0     H14333   3.948  11.911   4.908 -1.7840 -0.2814 -0.7417
  104MOL0     H14334   3.423  11.981   4.972  0.3603 -2.7285 -1.9106
  104MOL0     H14335   3.249  11.853   5.065 -0.3418 -4.3563 -0.9558
  104MOL0     H14336   2.126  10.986   6.709  0.3065  1.9400 -0.8184
  104MOL0     H14337   1.915  11.095   6.731  1.7561  1.0723  1.1375
  104MOL0     H14338   1.411  11.072   6.490  1.3705 -0.3098  0.3306
  104MOL0     H14339   1.207  11.206   6.530  0.7005 -2.7531 -1.8621
  104MOL0     H14340   1.245  11.659   6.513 -0.8979  1.3745 -1.2539
  104MOL0     H14341   1.081  11.628   6.561 -0.2647 -0.1406  0.7220
  104MOL0     H14342   1.309  11.541   6.751  0.2338  0.4617  0.2483
  104MOL0     H14343   1.142  11.523   6.773 -1.8782  2.9705  2.1803
  104MOL0     H14344   1.297  11.762   6.846  1.1427  0.3502 -1.2851
  104MOL0     H14345   1.173  11.804   6.727 -1.0582  1.1643  1.5823
  104MOL0     H14346   1.076  11.833   6.952  4.3357  0.8400 -1.5125
  104MOL0     H14347   1.109  11.660   6.991  0.8294  0.4638 -0.2852
  104MOL0     H14348   0.729  11.648   6.821  1.5631 -1.3350  0.6850
  104MOL0     H14349   1.423  11.570   6.452 -0.1847  0.0317 -0.1753
  104MOL0     H14350   1.737  11.454   6.521 -0.0815  0.3104  0.4514
  104MOL0     H14351   1.731  11.396   6.353  0.0121  0.3762  0.6209
  104MOL0     H14352   1.678  11.561   6.412  0.7983  1.0259  0.2134
  105MOL0     O14353   9.818   3.735   0.180 -0.5331 -0.4160 -1.0037
  105MOL0     C14354   9.810   3.855   0.183  0.3562  0.1645 -0.1443
  105MOL0     O14355   9.914   3.946   0.181 -0.2496  0.2319 -0.6741
  105MOL0     C14356  10.037   3.900   0.146 -0.1416 -0.6343 -0.6226
  105MOL0     C14357  10.117   3.846   0.248  0.1788 -0.1548 -0.1375
  105MOL0     C14358  10.241   3.792   0.218  0.2998  0.1752 -0.1376
  105MOL0     C14359  10.285   3.775   0.089  0.4751  0.4048  0.2696
  105MOL0     O14360  10.413   3.723   0.078  0.3873  0.1772  0.0734
  105MOL0     C14361  10.456   3.711  -0.057  0.3746 -0.4017 -0.8199
  105MOL0     C14362  10.600   3.658  -0.057  0.2177  0.4194 -0.5671
  105MOL0     C14363  10.615   3.515  -0.000  0.3152  0.0321  0.8384
  105MOL0     C14364  10.739   3.461  -0.069  0.5268 -0.0741 -0.5440
  105MOL0     C14365  10.762   3.337   0.008 -0.5345  0.6266 -0.0872
  105MOL0     C14366  10.876   3.242  -0.045  0.7368  1.0575  0.4816
  105MOL0     C14367  10.893   3.117   0.027  0.5532 -0.5121  0.4687
  105MOL0     C14368  11.009   3.028  -0.022 -0.0644  0.0875 -0.4354
  105MOL0     N14369  11.043   2.940   0.091 -0.1084  0.3889 -0.1808
  105MOL0     C14370  11.166   2.918   0.146 -0.0860 -0.2303  0.8358
  105MOL0     C14371  11.151   2.820   0.233  0.3832 -0.6661  0.1593
  105MOL0     C14372  11.250   2.759   0.329  0.6916  0.6387 -0.2090
  105MOL0     C14373  11.377   2.735   0.256 -1.0804  0.0008  0.4854
  105MOL0     C14374  11.468   2.641   0.335 -0.3338  0.0229 -0.1025
  105MOL0     C14375  11.620   2.666   0.302  0.3912 -0.6553  0.2956
  105MOL0     O14376  11.700   2.559   0.351 -0.1016 -0.4621 -0.3481
  105MOL0     C14377  11.836   2.553   0.313 -0.6372  0.4928  0.1669
  105MOL0     C14378  11.898   2.428   0.313  0.8474 -0.3288 -0.0379
  105MOL0     C14379  12.036   2.405   0.298 -0.3432 -0.2015 -0.2020
  105MOL0     C14380  12.091   2.264   0.319  0.3096  0.4805 -0.1092
  105MOL0     C14381  12.113   2.516   0.251  0.4274 -0.0156 -0.4605
  105MOL0     C14382  12.263   2.502   0.208  0.9074 -0.8689 -1.0093
  105MOL0     O14383  12.319   2.383   0.209  0.8759 -0.0617 -0.5666
  105MOL0     C14384  12.455   2.373   0.199  0.7896 -0.0588 -0.0425
  105MOL0     C14385  12.537   2.444   0.287 -0.0941 -0.0403 -0.2844
  105MOL0     C14386  12.674   2.433   0.282 -0.3379  0.4541 -0.4886
  105MOL0     C14387  12.734   2.351   0.186 -0.5000  0.8396 -0.1991
  105MOL0     O14388  12.875   2.346   0.167  0.3705  0.1003  0.4540
  105MOL0     C14389  12.962   2.394   0.263 -0.2956  0.0434  0.3188
  105MOL0     C14390  13.112   2.374   0.215 -0.0334 -0.0524 -0.2019
  105MOL0     C14391  13.144   2.442   0.079  0.1762  0.7833 -0.3753
  105MOL0     C14392  13.297   2.436   0.061 -0.5072  0.7163  0.4803
  105MOL0     C14393  13.364   2.569   0.095 -0.6878  0.0560 -0.4764
  105MOL0     C14394  13.517   2.572   0.082  0.1177  0.0307 -0.4211
  105MOL0     C14395  13.547   2.512  -0.057 -0.1107 -0.1041 -0.4497
  105MOL0     C14396  13.701   2.528  -0.093  0.3619  0.5407 -0.2560
  105MOL0    Cl14397  13.727   2.462  -0.260 -0.1839  0.4718  0.5273
  105MOL0     C14398  12.648   2.280   0.094 -0.9619  0.8344  0.6179
  105MOL0     C14399  12.505   2.286   0.104 -0.3938 -0.6080 -0.3395
  105MOL0     O14400  12.323   2.604   0.171 -0.0437  0.4313 -0.5198
  105MOL0     C14401  12.047   2.641   0.245  0.1996 -0.3629 -0.0367
  105MOL0     C14402  11.913   2.659   0.266 -0.2485  0.6883 -0.0482
  105MOL0     N14403  11.017   2.793   0.233 -0.6185  0.2054 -0.6091
  105MOL0     N14404  10.954   2.864   0.147 -0.0249  0.0946  0.6873
  105MOL0     C14405  10.202   3.828  -0.019 -0.7706  0.5789  0.0643
  105MOL0     C14406  10.078   3.889   0.011  0.0452 -0.8828  0.0052
  105MOL0     C14407   9.672   3.917   0.189  1.2641  0.4172  0.0770
  105MOL0     C14408   9.649   4.036   0.254 -1.1979  1.8321 -0.0861
  105MOL0     C14409   9.530   4.104   0.247  0.2368 -0.0427 -0.2991
  105MOL0     C14410   9.418   4.044   0.184  0.1856 -0.2375  0.4938
  105MOL0     O14411   9.288   4.099   0.201 -0.4236 -0.5658  0.2456
  105MOL0     C14412   9.175   4.055   0.128 -0.6811  0.1222  0.0035
  105MOL0     C14413   9.108   3.941   0.209 -0.4282  0.6479  0.5599
  105MOL0     C14414   9.021   3.986   0.332  1.2007 -0.5280 -0.1121
  105MOL0     C14415   9.099   4.089   0.410  0.4175  0.4469 -0.2817
  105MOL0     C14416   9.020   4.131   0.525  0.4083 -0.3174 -0.2598
  105MOL0     C14417   8.958   4.169   0.619  0.5771 -0.0090 -0.3977
  105MOL0     C14418   9.436   3.919   0.126  0.1809 -0.0476 -0.4679
  105MOL0     C14419   9.563   3.861   0.119  0.0341  0.8338  0.1115
  105MOL0     C14420   9.574   3.731   0.030 -0.2504 -0.4214  0.4376
  105MOL0     H14421  10.089   3.844   0.353  4.0569  1.0987  1.1190
  105MOL0     H14422  10.302   3.766   0.304  1.6527  1.0368 -0.8010
  105MOL0     H14423  10.455   3.806  -0.111 -0.4230 -0.2605 -0.5750
  105MOL0     H14424  10.387   3.644  -0.110 -1.4302  0.9510 -0.3035
  105MOL0     H14425  10.630   3.667  -0.161  0.0460 -1.8914 -0.8638
  105MOL0     H14426  10.660   3.731  -0.002 -0.8524 -0.9573  2.7227
  105MOL0     H14427  10.630   3.508   0.108  1.8164 -1.6929  0.5788
  105MOL0     H14428  10.534   3.451  -0.035  1.2279 -0.8506  0.2794
  105MOL0     H14429  10.720   3.439  -0.174  0.1453  0.0990 -0.5112
  105MOL0     H14430  10.811   3.541  -0.050  1.7284 -1.6180  2.0704
  105MOL0     H14431  10.671   3.276   0.010 -0.3043  0.1938 -1.7595
  105MOL0     H14432  10.778   3.359   0.114 -0.0313  1.0928 -0.2581
  105MOL0     H14433  10.856   3.220  -0.150 -2.5419  2.7118  0.6184
  105MOL0     H14434  10.971   3.296  -0.034  1.5594 -0.4474  0.9079
  105MOL0     H14435  10.801   3.058   0.028  1.3482 -1.9332 -1.9691
  105MOL0     H14436  10.921   3.143   0.129  3.2102  1.1198 -0.5631
  105MOL0     H14437  10.972   2.967  -0.104  2.5569 -2.9500  0.4603
  105MOL0     H14438  11.089   3.093  -0.059  0.9829 -1.5612 -1.1505
  105MOL0     H14439  11.251   2.976   0.110 -2.3309  2.3765 -0.6352
  105MOL0     H14440  11.205   2.668   0.370 -0.5049  2.4942  2.9993
  105MOL0     H14441  11.255   2.834   0.409 -4.6201  3.6172 -2.1657
  105MOL0     H14442  11.369   2.703   0.152  0.6245  1.1493 -0.0406
  105MOL0     H14443  11.430   2.831   0.252  0.3487 -0.7961 -2.3339
  105MOL0     H14444  11.446   2.669   0.439 -2.0738 -1.2141 -0.0896
  105MOL0     H14445  11.438   2.536   0.332 -1.7783  0.3098  1.6889
  105MOL0     H14446  11.624   2.679   0.194 -1.7873  0.8960  0.3493
  105MOL0     H14447  11.652   2.759   0.350  1.1225 -1.8072  2.1502
  105MOL0     H14448  11.846   2.343   0.356  2.0937 -0.5005  1.1915
  105MOL0     H14449  12.016   2.190   0.349  2.4968 -2.5763 -1.7174
  105MOL0     H14450  12.162   2.272   0.402  0.9130  2.2900 -0.7471
  105MOL0     H14451  12.141   2.220   0.233  0.5605 -0.5837  0.5523
  105MOL0     H14452  12.493   2.515   0.355 -1.5743 -0.9991 -0.1908
  105MOL0     H14453  12.732   2.495   0.349 -1.2670  0.0733  0.6951
  105MOL0     H14454  12.945   2.502   0.264 -2.0183 -0.0568 -2.9004
  105MOL0     H14455  12.944   2.344   0.359  1.5916 -1.0438  0.1468
  105MOL0     H14456  13.175   2.427   0.287  1.4294 -0.7493 -0.9412
  105MOL0     H14457  13.142   2.270   0.226  0.8377  0.2929  0.8722
  105MOL0     H14458  13.109   2.545   0.080  0.3263  0.8318 -0.2175
  105MOL0     H14459  13.108   2.387  -0.009 -0.2053 -1.0359  0.8421
  105MOL0     H14460  13.316   2.411  -0.043 -3.3120 -3.9838  0.8232
  105MOL0     H14461  13.348   2.357   0.117  1.0923 -0.0064 -1.8788
  105MOL0     H14462  13.327   2.650   0.033 -0.1711  1.9188  1.5137
  105MOL0     H14463  13.338   2.586   0.200 -1.9741 -4.0721  0.0571
  105MOL0     H14464  13.562   2.506   0.157 -1.5029  1.6455  2.1189
  105MOL0     H14465  13.563   2.670   0.099 -0.0106 -0.0199  0.2398
  105MOL0     H14466  13.484   2.563  -0.131  0.9661  0.6385 -0.8799
  105MOL0     H14467  13.525   2.405  -0.053 -0.9406  0.0949  1.4195
  105MOL0     H14468  13.761   2.459  -0.034 -0.7632 -0.2135  0.0371
  105MOL0     H14469  13.739   2.630  -0.079 -0.2040  0.6952  0.2139
  105MOL0     H14470  12.700   2.220   0.020  0.1940  3.8313 -1.1969
  105MOL0     H14471  12.440   2.231   0.037  1.6980 -1.5284 -1.6803
  105MOL0     H14472  12.110   2.721   0.206  1.1132 -1.7311 -1.4748
  105MOL0     H14473  11.862   2.755   0.262 -0.3531  0.6521  0.4433
  105MOL0     H14474  10.228   3.809  -0.123 -3.1777  2.4185 -0.9879
  105MOL0     H14475  10.012   3.928  -0.066  0.1556 -0.5166  0.0939
  105MOL0     H14476   9.732   4.089   0.298 -0.6116  1.8977 -1.2159
  105MOL0     H14477   9.524   4.205   0.285  0.6883  0.4957 -1.5965
  105MOL0     H14478   9.101   4.133   0.111 -3.0320 -1.4578  2.1134
  105MOL0     H14479   9.220   4.016   0.036  1.9433 -0.7242  1.5130
  105MOL0     H14480   9.186   3.868   0.234  0.8404  1.3325 -1.1662
  105MOL0     H14481   9.035   3.896   0.142 -1.1721  3.6844 -0.8243
  105MOL0     H14482   8.927   4.031   0.297  0.1390  0.0525  3.1366
  105MOL0     H14483   8.987   3.901   0.392  0.8560 -0.4879 -0.2453
  105MOL0     H14484   9.104   4.174   0.341  1.3696  0.4560 -0.2096
  105MOL0     H14485   9.196   4.048   0.438  0.2393 -1.6132 -2.3983
  105MOL0     H14486   8.907   4.200   0.708  0.1392 -0.0666 -0.6277
  105MOL0     H14487   9.359   3.858   0.080  0.9681 -2.7785  1.5599
  105MOL0     H14488   9.674   3.732  -0.015 -0.8287  1.4679 -0.9041
  105MOL0     H14489   9.557   3.642   0.092 -0.7117  0.2888  1.3474
  105MOL0     H14490   9.497   3.728  -0.047 -1.9626  0.6738  2.0379
  106MOL0     O14491   6.556  10.828   8.854  0.2546  0.4708 -0.6055
  106MOL0     C14492   6.489  10.728   8.839  0.1225 -0.1159  0.8479
  106MOL0     O14493   6.534  10.608   8.799  0.1946  0.1152 -0.1866
  106MOL0     C14494   6.663  10.601   8.762  0.3160 -0.3853  0.1090
  106MOL0     C14495   6.708  10.629   8.632  0.1008  0.0499 -0.0976
  106MOL0     C14496   6.850  10.617   8.598 -0.5073  0.0148  0.9932
  106MOL0     C14497   6.932  10.567   8.691 -0.5331  0.5277  1.4514
  106MOL0     O14498   7.059  10.537   8.642  0.2964  0.6550  0.0507
  106MOL0     C14499   7.176  10.570   8.717  0.6148 -0.8284 -0.7744
  106MOL0     C14500   7.292  10.509   8.633  0.6714 -0.1009 -0.2494
  106MOL0     C14501   7.286  10.539   8.482  0.0043  0.8090  0.3095
  106MOL0     C14502   7.301  10.689   8.445 -0.4141 -0.6124 -0.0150
  106MOL0     C14503   7.442  10.734   8.464 -0.0949 -0.5831 -0.2553
  106MOL0     C14504   7.451  10.827   8.594 -0.1399 -0.2166  0.1802
  106MOL0     C14505   7.596  10.862   8.628  0.1428 -0.2843 -0.1686
  106MOL0     C14506   7.609  10.991   8.712  0.8800 -0.7355 -0.5777
  106MOL0     N14507   7.752  11.018   8.729  0.1579 -0.5165 -1.0764
  106MOL0     C14508   7.804  11.066   8.845 -1.4201 -0.0118  0.2665
  106MOL0     C14509   7.931  11.112   8.812 -0.1864 -0.6683 -0.1171
  106MOL0     C14510   8.033  11.162   8.917  0.3193  0.1519  0.3547
  106MOL0     C14511   8.110  11.060   8.993  0.1555  0.1508  0.4549
  106MOL0     C14512   8.223  10.993   8.916  0.6676 -0.2454  0.1101
  106MOL0     C14513   8.254  10.850   8.983 -0.3568 -0.5640  0.0215
  106MOL0     O14514   8.338  10.787   8.887 -0.3673 -0.1064 -0.0569
  106MOL0     C14515   8.471  10.827   8.875  0.3154  0.4514  0.5914
  106MOL0     C14516   8.533  10.922   8.957 -1.0293 -0.5485  0.0662
  106MOL0     C14517   8.670  10.944   8.958 -0.4946  0.1037  0.5855
  106MOL0     C14518   8.728  11.065   9.031  0.0412 -1.0353 -1.0528
  106MOL0     C14519   8.754  10.860   8.873 -0.1154  1.0631  1.2927
  106MOL0     C14520   8.901  10.854   8.883 -0.1559  0.2917  1.4684
  106MOL0     O14521   8.967  10.797   8.772 -0.2103 -0.2267  0.4953
  106MOL0     C14522   9.096  10.764   8.803 -0.5358 -0.7632 -0.2429
  106MOL0     C14523   9.120  10.628   8.792 -0.2994 -0.6400 -0.2767
  106MOL0     C14524   9.245  10.578   8.821  0.0236 -0.2272 -0.9242
  106MOL0     C14525   9.356  10.668   8.846  1.6763  0.0944  1.4278
  106MOL0     O14526   9.480  10.608   8.846  0.5509  0.0909  0.7261
  106MOL0     C14527   9.591  10.703   8.857  0.4751  0.9485  1.4016
  106MOL0     C14528   9.726  10.624   8.877 -0.0429 -0.5011 -0.1437
  106MOL0     C14529   9.711  10.534   9.003 -0.1097  0.1731  0.7229
  106MOL0     C14530   9.844  10.482   9.043 -0.6602  0.6292 -0.2384
  106MOL0     C14531   9.836  10.413   9.182  0.3734 -0.0439  0.3487
  106MOL0     C14532   9.819  10.259   9.171 -0.2217 -0.3373 -1.0925
  106MOL0     C14533   9.786  10.194   9.311  0.5191  1.0087  0.1637
  106MOL0     C14534   9.745  10.053   9.307  0.2090  0.0938  0.3641
  106MOL0    Cl14535   9.602  10.062   9.196 -0.4911  0.4037 -0.2192
  106MOL0     C14536   9.338  10.805   8.850  0.1276  0.1622 -0.2511
  106MOL0     C14537   9.205  10.853   8.827 -0.8299  0.4808 -0.9650
  106MOL0     O14538   8.955  10.916   8.974 -0.1460 -0.0755  0.2844
  106MOL0     C14539   8.697  10.774   8.784  0.1831  0.5007  0.2657
  106MOL0     C14540   8.553  10.759   8.787 -0.7781 -0.0373 -0.2448
  106MOL0     N14541   7.944  11.106   8.675 -0.0269  0.1833 -0.6342
  106MOL0     N14542   7.841  11.036   8.629 -0.5451 -0.9582 -0.9540
  106MOL0     C14543   6.890  10.551   8.822  1.0638  0.9260  0.2836
  106MOL0     C14544   6.758  10.573   8.860  0.0295 -0.0315  0.4887
  106MOL0     C14545   6.345  10.752   8.874  0.4405 -0.2711  0.2119
  106MOL0     C14546   6.289  10.878   8.901 -0.7586  0.0363 -0.5137
  106MOL0     C14547   6.168  10.898   8.970  0.4610 -0.1578  0.8131
  106MOL0     C14548   6.076  10.793   8.995  0.4173  0.2257  0.7374
  106MOL0     O14549   5.948  10.809   9.037  0.5567 -0.5602 -0.1587
  106MOL0     C14550   5.900  10.944   9.069 -0.4846  0.0633  0.8797
  106MOL0     C14551   5.747  10.962   9.079 -0.6912 -0.1638 -0.7357
  106MOL0     C14552   5.673  10.853   8.985  0.1779  0.5891 -0.6914
  106MOL0     C14553   5.521  10.874   9.013  0.2828 -0.0732 -0.1873
  106MOL0     C14554   5.480  11.006   8.968 -0.1987 -0.2253  0.0123
  106MOL0     C14555   5.447  11.118   8.927  0.1783 -0.3027 -1.0268
  106MOL0     C14556   6.123  10.670   8.968 -0.5924  0.8642  0.8499
  106MOL0     C14557   6.248  10.646   8.907  0.3824  0.2037 -0.2095
  106MOL0     C14558   6.270  10.498   8.882  0.0403 -0.0982 -0.8257
  106MOL0     H14559   6.649  10.673   8.553  2.8709  0.6382 -1.9958
  106MOL0     H14560   6.888  10.646   8.500  0.2329 -0.9284  0.9918
  106MOL0     H14561   7.184  10.535   8.821  0.7724 -1.7080 -1.0771
  106MOL0     H14562   7.191  10.678   8.711 -0.7410 -0.5848 -0.1588
  106MOL0     H14563   7.389  10.555   8.655  0.0713  1.4132 -0.6539
  106MOL0     H14564   7.282  10.400   8.641 -0.5762  0.0687  0.7113
  106MOL0     H14565   7.372  10.485   8.442 -0.1930  1.3240 -0.8693
  106MOL0     H14566   7.194  10.494   8.442  1.3556 -1.0390 -0.8927
  106MOL0     H14567   7.284  10.700   8.338  1.7839 -3.2761 -0.7837
  106MOL0     H14568   7.235  10.758   8.497 -0.8471  1.0425 -2.6095
  106MOL0     H14569   7.473  10.806   8.387  0.9275  2.4181  2.7009
  106MOL0     H14570   7.518  10.655   8.468  0.1584 -0.3162  2.6018
  106MOL0     H14571   7.389  10.915   8.577 -0.6393 -0.4460  0.7369
  106MOL0     H14572   7.398  10.776   8.676  0.5705 -1.2405  0.0257
  106MOL0     H14573   7.647  10.892   8.535  1.1942  0.0281  0.4946
  106MOL0     H14574   7.651  10.774   8.664 -0.2977 -0.2454  0.6134
  106MOL0     H14575   7.557  11.075   8.666 -1.1242  0.3422  3.2377
  106MOL0     H14576   7.558  10.964   8.805  0.1163  1.0835 -0.4403
  106MOL0     H14577   7.764  11.080   8.945  1.5385 -0.2601  1.5806
  106MOL0     H14578   7.989  11.225   8.995  0.9702  0.2802  0.6273
  106MOL0     H14579   8.103  11.225   8.861  0.3534  0.6993  0.9982
  106MOL0     H14580   8.157  11.109   9.078 -0.7953  1.7734  0.0807
  106MOL0     H14581   8.038  10.985   9.030  2.1511 -1.9526  0.3057
  106MOL0     H14582   8.189  10.978   8.813 -1.4510 -0.0789  0.7570
  106MOL0     H14583   8.310  11.060   8.915  0.5588 -0.0951 -1.0590
  106MOL0     H14584   8.313  10.865   9.074 -1.6247  3.9283  0.3287
  106MOL0     H14585   8.163  10.790   8.989  0.2812 -1.7480 -1.4800
  106MOL0     H14586   8.483  10.985   9.031  0.2917 -3.3131  3.6357
  106MOL0     H14587   8.747  11.029   9.132 -1.9621 -1.1910 -0.6829
  106MOL0     H14588   8.652  11.142   9.048  0.9628 -0.3223 -0.0062
  106MOL0     H14589   8.820  11.104   8.988  3.2559 -0.3325  5.2908
  106MOL0     H14590   9.035  10.574   8.752 -1.2751  0.6150  0.0344
  106MOL0     H14591   9.254  10.471   8.802 -0.5447 -0.4783  0.1333
  106MOL0     H14592   9.597  10.758   8.762 -0.7705  0.3195  0.9385
  106MOL0     H14593   9.583  10.778   8.936  0.3412  1.4353  0.9377
  106MOL0     H14594   9.749  10.567   8.787  0.0696 -1.1367  0.2772
  106MOL0     H14595   9.805  10.697   8.900  0.9222 -2.1228  2.0503
  106MOL0     H14596   9.633  10.459   8.986  1.8166 -2.2464  1.9692
  106MOL0     H14597   9.673  10.607   9.075  0.2678  1.3756 -0.2444
  106MOL0     H14598   9.910  10.569   9.052  2.1154 -1.1998 -1.7000
  106MOL0     H14599   9.888  10.412   8.972  0.8390 -0.0791  1.3215
  106MOL0     H14600   9.922  10.431   9.248 -1.8727 -0.6328  3.6671
  106MOL0     H14601   9.756  10.459   9.241 -0.8664 -3.4012  1.4925
  106MOL0     H14602   9.907  10.213   9.125  2.1621  0.5392  2.2368
  106MOL0     H14603   9.736  10.244   9.100 -0.3719 -0.8999 -0.8077
  106MOL0     H14604   9.718  10.250   9.377  0.2814  1.5357 -0.5208
  106MOL0     H14605   9.884  10.194   9.359 -0.2319 -0.5847  1.8233
  106MOL0     H14606   9.728  10.009   9.406  1.9021  1.5480  1.3623
  106MOL0     H14607   9.829   9.999   9.261  1.1610  2.1293 -0.4082
  106MOL0     H14608   9.415  10.880   8.864 -1.1650  1.2488  1.3890
  106MOL0     H14609   9.199  10.961   8.819  4.6507  1.2306  1.0213
  106MOL0     H14610   8.745  10.712   8.708  2.1978  1.8471  0.3762
  106MOL0     H14611   8.500  10.696   8.716  0.1248  0.7907 -1.7063
  106MOL0     H14612   6.965  10.517   8.893  0.0407  2.4896  2.2242
  106MOL0     H14613   6.721  10.561   8.962  1.4734 -0.7705  0.9598
  106MOL0     H14614   6.336  10.971   8.871 -2.5718  1.2220  0.1476
  106MOL0     H14615   6.148  11.002   8.994  2.1742  0.1468  1.0487
  106MOL0     H14616   5.955  10.991   9.151 -1.7336  0.2855  1.6155
  106MOL0     H14617   5.927  11.014   8.990  0.0621 -0.0440  0.9686
  106MOL0     H14618   5.721  11.061   9.042 -0.1027 -0.2430 -1.3594
  106MOL0     H14619   5.711  10.958   9.183 -1.4355  1.1582 -0.9306
  106MOL0     H14620   5.694  10.868   8.878  1.5689  3.4841 -0.1087
  106MOL0     H14621   5.697  10.749   9.009 -2.8526 -0.7662 -2.8154
  106MOL0     H14622   5.502  10.860   9.120  2.1851  3.6601  0.8418
  106MOL0     H14623   5.463  10.801   8.956 -1.6763 -0.7890  2.5455
  106MOL0     H14624   5.423  11.221   8.908  0.9447  0.4924  1.7486
  106MOL0     H14625   6.061  10.582   8.982  0.6459  0.0103  1.1128
  106MOL0     H14626   6.264  10.491   8.774  1.7968  0.9791 -1.0486
  106MOL0     H14627   6.368  10.471   8.925 -0.8096 -2.5848 -0.2991
  106MOL0     H14628   6.191  10.433   8.920 -2.9961  3.5849 -0.2002
  107MOL0     O14629   4.389   3.518   4.140 -0.6564  0.3211 -0.1122
  107MOL0     C14630   4.455   3.554   4.243 -0.7920 -0.2107  0.0458
  107MOL0     O14631   4.571   3.496   4.298  0.7658  0.0217 -0.5918
  107MOL0     C14632   4.664   3.414   4.229  0.0641  1.0066 -0.7244
  107MOL0     C14633   4.678   3.416   4.086  1.1376  0.1707 -0.0715
  107MOL0     C14634   4.775   3.341   4.034 -0.2282 -0.4288  0.7084
  107MOL0     C14635   4.877   3.281   4.115 -0.4342 -0.3838 -0.3749
  107MOL0     O14636   4.989   3.235   4.049  0.0451 -0.2153  1.0671
  107MOL0     C14637   5.115   3.217   4.112 -0.4766  0.3901  0.0713
  107MOL0     C14638   5.215   3.190   4.000  0.4088  0.3968 -1.0163
  107MOL0     C14639   5.356   3.201   4.046 -0.3392 -0.9752 -0.6335
  107MOL0     C14640   5.393   3.346   4.046 -0.1627 -0.9419 -0.8022
  107MOL0     C14641   5.540   3.372   4.100  0.8481  0.2318 -1.0646
  107MOL0     C14642   5.594   3.514   4.071 -0.0243  0.1084  0.3254
  107MOL0     C14643   5.744   3.512   4.081 -0.1778  0.9071  0.1639
  107MOL0     C14644   5.805   3.489   3.951 -0.5667 -0.2726  0.4547
  107MOL0     N14645   5.945   3.470   3.958 -0.3226 -0.3973 -0.3862
  107MOL0     C14646   6.019   3.350   3.992 -0.4328 -0.1355 -0.3695
  107MOL0     C14647   6.151   3.390   3.994  0.8243  0.5093  0.3015
  107MOL0     C14648   6.269   3.292   4.009  0.5973 -0.2469 -0.4266
  107MOL0     C14649   6.244   3.168   4.099 -0.7678 -0.9126 -0.4743
  107MOL0     C14650   6.370   3.075   4.090 -0.6316  0.2114 -0.4068
  107MOL0     C14651   6.369   2.948   4.179 -0.4876  0.5620 -0.4761
  107MOL0     O14652   6.373   2.995   4.318  0.0536 -0.1130  1.0434
  107MOL0     C14653   6.502   3.017   4.372  0.5807 -0.0066 -0.1667
  107MOL0     C14654   6.498   3.089   4.490 -0.1457  0.8597 -0.6798
  107MOL0     C14655   6.615   3.128   4.556 -0.4474  0.1683  0.5194
  107MOL0     C14656   6.600   3.204   4.680  0.4284 -0.8994  0.1441
  107MOL0     C14657   6.737   3.082   4.507  0.2473 -0.0717 -0.7571
  107MOL0     C14658   6.871   3.107   4.576  0.5694 -0.0819  1.0734
  107MOL0     O14659   6.973   3.130   4.491  0.7931  0.3690 -0.0396
  107MOL0     C14660   7.092   3.147   4.550 -0.4391 -0.8300  0.0791
  107MOL0     C14661   7.126   3.221   4.671  0.3363  0.3399  0.2313
  107MOL0     C14662   7.259   3.220   4.721  0.4714  0.2736  0.5419
  107MOL0     C14663   7.361   3.164   4.648 -0.9226 -0.4260 -0.3993
  107MOL0     O14664   7.498   3.154   4.686 -0.8106 -0.0101  0.3998
  107MOL0     C14665   7.519   3.121   4.819 -0.0148 -0.2387 -0.1951
  107MOL0     C14666   7.656   3.061   4.859  0.3808  0.1362 -0.5694
  107MOL0     C14667   7.697   2.962   4.752  0.6211  0.3299 -0.7579
  107MOL0     C14668   7.842   2.927   4.776 -0.1448 -0.7289  0.1815
  107MOL0     C14669   7.852   2.824   4.887 -0.4851 -0.3373  0.1727
  107MOL0     C14670   7.993   2.762   4.886  0.5433  0.2559  0.4628
  107MOL0     C14671   8.009   2.641   4.983 -0.2626  0.4695  0.2392
  107MOL0     C14672   8.159   2.605   4.989 -0.3554  0.3763 -0.5256
  107MOL0    Cl14673   8.224   2.590   4.824 -0.1183  0.3183 -0.4488
  107MOL0     C14674   7.339   3.104   4.525  0.4738 -0.4752 -0.4436
  107MOL0     C14675   7.204   3.101   4.479 -1.0286 -0.0900 -1.1018
  107MOL0     O14676   6.877   3.110   4.695  0.4297  0.6445  0.5686
  107MOL0     C14677   6.742   3.025   4.382 -1.1190  0.5833  0.2308
  107MOL0     C14678   6.627   2.995   4.318 -0.4246  0.0692  0.1192
  107MOL0     N14679   6.154   3.520   3.955 -0.2597 -0.8690 -0.2303
  107MOL0     N14680   6.036   3.573   3.946 -0.3266  0.3808 -0.2676
  107MOL0     C14681   4.873   3.282   4.252  0.4882  0.0117  0.3760
  107MOL0     C14682   4.757   3.340   4.311 -0.7034 -0.1434 -0.4886
  107MOL0     C14683   4.398   3.676   4.306  0.3022  0.2661 -0.3403
  107MOL0     C14684   4.468   3.730   4.418 -0.5611 -0.6342 -0.1141
  107MOL0     C14685   4.427   3.846   4.483  0.0085  0.5532 -0.6067
  107MOL0     C14686   4.301   3.911   4.457 -0.9337 -0.1811  0.3561
  107MOL0     O14687   4.276   4.015   4.540 -0.1846 -0.3866  0.6357
  107MOL0     C14688   4.151   4.082   4.517 -0.0966 -0.3099 -0.7692
  107MOL0     C14689   4.107   4.162   4.635 -1.3820  0.4716  0.3587
  107MOL0     C14690   4.064   4.072   4.753 -0.6025  0.0974 -0.6697
  107MOL0     C14691   3.918   4.029   4.731 -0.1189 -0.4030 -0.3120
  107MOL0     C14692   3.847   4.147   4.784  1.0672  0.4737  0.9093
  107MOL0     C14693   3.794   4.239   4.842 -0.2159  0.2970  0.3425
  107MOL0     C14694   4.225   3.856   4.349 -0.4886 -0.8091 -0.7262
  107MOL0     C14695   4.274   3.742   4.271  0.5748 -0.4948 -0.0056
  107MOL0     C14696   4.186   3.694   4.168  0.7165 -0.5548 -0.3192
  107MOL0     H14697   4.604   3.462   4.020  0.1279 -0.7662  0.3871
  107MOL0     H14698   4.775   3.324   3.927 -3.3832 -0.2392  0.5894
  107MOL0     H14699   5.111   3.136   4.186  2.1314 -2.2490 -2.4192
  107MOL0     H14700   5.137   3.309   4.166 -0.8093  0.6634 -0.2521
  107MOL0     H14701   5.204   3.087   3.964 -1.2369  0.5974 -1.1905
  107MOL0     H14702   5.185   3.258   3.920 -2.9958  2.2900  1.6033
  107MOL0     H14703   5.366   3.163   4.148 -0.8003 -0.5950 -0.4426
  107MOL0     H14704   5.419   3.146   3.975 -0.7939 -0.6021 -1.3425
  107MOL0     H14705   5.385   3.394   3.947 -0.7591  2.6017  0.8168
  107MOL0     H14706   5.331   3.400   4.118 -0.9105  2.3323 -3.6266
  107MOL0     H14707   5.603   3.299   4.049  0.7895 -1.4801  1.1610
  107MOL0     H14708   5.533   3.349   4.206  0.9428  1.0263 -0.8817
  107MOL0     H14709   5.562   3.533   3.968 -0.2178 -0.2327  0.3231
  107MOL0     H14710   5.555   3.586   4.143 -0.2785  1.7653 -1.3872
  107MOL0     H14711   5.779   3.442   4.157 -1.0160 -1.2639 -1.3628
  107MOL0     H14712   5.771   3.604   4.134 -1.1917  0.0872  2.2286
  107MOL0     H14713   5.771   3.406   3.889  1.4980  1.7599 -3.8379
  107MOL0     H14714   5.780   3.579   3.895  1.8819  0.7699  0.8820
  107MOL0     H14715   5.981   3.250   4.008 -2.3693  0.5124 -0.5623
  107MOL0     H14716   6.355   3.351   4.041  0.7637  1.2160 -3.2591
  107MOL0     H14717   6.291   3.255   3.909 -1.1014 -1.0665 -0.5299
  107MOL0     H14718   6.228   3.201   4.203  1.7272  0.6022 -0.4779
  107MOL0     H14719   6.150   3.124   4.065 -0.7586 -1.5296  0.2662
  107MOL0     H14720   6.372   3.038   3.986 -0.6422 -2.2333  0.3833
  107MOL0     H14721   6.459   3.131   4.120 -0.5716 -0.3471  0.4962
  107MOL0     H14722   6.272   2.899   4.167 -0.1073 -0.1844 -0.5509
  107MOL0     H14723   6.448   2.879   4.150 -0.4183  1.1791 -1.8338
  107MOL0     H14724   6.403   3.110   4.539  0.9570  0.3105  1.8910
  107MOL0     H14725   6.493   3.219   4.700  1.1842  2.8425  2.5020
  107MOL0     H14726   6.639   3.306   4.670  0.5035 -0.7885  1.4399
  107MOL0     H14727   6.644   3.155   4.767 -0.4922 -1.1051  0.5123
  107MOL0     H14728   7.055   3.265   4.740  1.8185  3.6458 -0.1880
  107MOL0     H14729   7.289   3.257   4.819 -0.7739  0.1780  0.9865
  107MOL0     H14730   7.507   3.217   4.870 -0.2971 -0.7818  0.7848
  107MOL0     H14731   7.438   3.057   4.854 -1.0763  1.4198  0.4716
  107MOL0     H14732   7.727   3.144   4.868 -0.6422  0.7777  3.1864
  107MOL0     H14733   7.657   3.017   4.959 -0.0066 -2.1755 -1.4980
  107MOL0     H14734   7.683   3.006   4.653  0.7277  1.7026 -0.1894
  107MOL0     H14735   7.628   2.878   4.761  0.3946  0.6637  0.9767
  107MOL0     H14736   7.902   3.013   4.807 -0.1258 -0.8806  0.5664
  107MOL0     H14737   7.890   2.884   4.687  4.3149  1.5001  1.2586
  107MOL0     H14738   7.847   2.869   4.986  1.3191  1.2189 -0.3797
  107MOL0     H14739   7.772   2.751   4.872 -0.5295  0.2839 -3.9997
  107MOL0     H14740   8.057   2.844   4.919 -0.7569  2.0268 -1.1790
  107MOL0     H14741   8.017   2.727   4.785 -0.5253  2.8664 -0.7761
  107MOL0     H14742   7.955   2.549   4.957  0.4086  0.9477 -3.3406
  107MOL0     H14743   7.978   2.668   5.084  1.7837  1.5984  0.6347
  107MOL0     H14744   8.159   2.510   5.044 -0.9509  0.8205  0.2431
  107MOL0     H14745   8.222   2.674   5.046  0.2638 -0.6348  0.0553
  107MOL0     H14746   7.421   3.056   4.472  0.6705 -1.4422  0.6824
  107MOL0     H14747   7.184   3.060   4.380 -4.7926 -2.0727  0.2835
  107MOL0     H14748   6.835   3.007   4.330 -1.9071  0.9444 -1.3653
  107MOL0     H14749   6.624   2.946   4.221 -0.4874 -1.0378  0.6617
  107MOL0     H14750   4.937   3.231   4.323 -0.8796  0.6626  2.1570
  107MOL0     H14751   4.721   3.346   4.413  1.3101 -2.0916  0.4246
  107MOL0     H14752   4.568   3.694   4.441  0.3717  1.3860 -0.7498
  107MOL0     H14753   4.486   3.882   4.567 -1.4585 -1.5972  1.4937
  107MOL0     H14754   4.166   4.161   4.442  1.7220  1.1155  0.9667
  107MOL0     H14755   4.078   4.011   4.479 -1.3486  0.7000 -0.3267
  107MOL0     H14756   4.025   4.230   4.611 -1.9099 -0.2971 -0.0965
  107MOL0     H14757   4.191   4.218   4.675  1.9921 -4.5097  1.2123
  107MOL0     H14758   4.126   3.982   4.745  2.8029  2.2594 -0.4771
  107MOL0     H14759   4.077   4.110   4.855 -3.1567 -2.4420  0.7653
  107MOL0     H14760   3.879   3.943   4.788 -1.2727 -0.8717 -1.7461
  107MOL0     H14761   3.910   4.007   4.625 -1.4380  0.5726 -0.4445
  107MOL0     H14762   3.763   4.336   4.877  4.8756  1.9530  1.0876
  107MOL0     H14763   4.128   3.896   4.323  0.1005  0.8372 -0.4929
  107MOL0     H14764   4.100   3.760   4.151  1.4100  0.5533  0.3758
  107MOL0     H14765   4.232   3.680   4.069 -0.0177  2.4403 -1.1930
  107MOL0     H14766   4.153   3.592   4.186 -0.3914 -0.9912 -3.9740
  108MOL0     O14767   5.005   0.087   8.061 -0.2135 -0.3680 -0.2725
  108MOL0     C14768   4.947   0.067   7.952 -0.1665 -0.4298 -0.9847
  108MOL0     O14769   4.999   0.008   7.847 -0.3483 -0.1190  0.1645
  108MOL0     C14770   5.126  -0.041   7.871 -0.5392  0.4367 -0.4561
  108MOL0     C14771   5.144  -0.176   7.915 -1.0376  0.2741  0.1227
  108MOL0     C14772   5.274  -0.232   7.937 -1.2284 -0.2461 -0.2361
  108MOL0     C14773   5.390  -0.149   7.890 -0.3245  0.3797  0.5893
  108MOL0     O14774   5.523  -0.192   7.889 -0.1815  0.7632  0.5023
  108MOL0     C14775   5.557  -0.246   7.762  0.6598  0.1546 -0.9941
  108MOL0     C14776   5.702  -0.298   7.782  0.0689  0.2700  0.6072
  108MOL0     C14777   5.741  -0.404   7.681 -0.1039  0.6539 -0.7400
  108MOL0     C14778   5.854  -0.492   7.740  0.0181  0.3032  0.3633
  108MOL0     C14779   5.975  -0.414   7.799  0.5610 -1.0056  0.8844
  108MOL0     C14780   6.099  -0.506   7.781 -0.3101 -0.1033 -0.6855
  108MOL0     C14781   6.224  -0.420   7.809  0.9980 -0.3778 -0.6832
  108MOL0     C14782   6.248  -0.411   7.956 -1.0042 -0.3771  0.1963
  108MOL0     N14783   6.388  -0.360   7.980 -0.5294 -0.7989 -0.4726
  108MOL0     C14784   6.422  -0.227   7.992 -0.5227  0.6386 -0.1305
  108MOL0     C14785   6.559  -0.234   8.013  0.1507  0.4557  0.5119
  108MOL0     C14786   6.650  -0.121   8.011  0.6828 -0.6265 -0.0711
  108MOL0     C14787   6.677  -0.065   7.867 -0.8153  0.0214  0.7784
  108MOL0     C14788   6.715  -0.171   7.758 -1.9193 -0.6710 -0.3094
  108MOL0     C14789   6.829  -0.277   7.795 -0.1357 -0.3153  0.0539
  108MOL0     O14790   6.947  -0.209   7.827  0.6829  0.9919 -0.5888
  108MOL0     C14791   7.065  -0.274   7.852  0.4135  0.3046 -0.1590
  108MOL0     C14792   7.086  -0.414   7.848  0.8448  0.8210 -0.3573
  108MOL0     C14793   7.205  -0.475   7.887 -1.3761  0.1047 -0.0801
  108MOL0     C14794   7.200  -0.623   7.907  0.0463 -0.5974 -0.5139
  108MOL0     C14795   7.326  -0.398   7.891 -0.0596 -0.4089 -0.4032
  108MOL0     C14796   7.467  -0.443   7.917 -0.7139  0.2390 -0.2115
  108MOL0     O14797   7.576  -0.369   7.860  0.2802  0.6047  0.0607
  108MOL0     C14798   7.703  -0.417   7.868 -0.0959 -0.1520  0.1089
  108MOL0     C14799   7.740  -0.502   7.776  0.2103 -0.1615 -0.4645
  108MOL0     C14800   7.863  -0.568   7.783 -0.6306 -0.7816  0.2986
  108MOL0     C14801   7.945  -0.532   7.885 -0.0657  0.2076  0.4662
  108MOL0     O14802   8.070  -0.587   7.889  0.3148 -0.3067 -0.1399
  108MOL0     C14803   8.160  -0.486   7.854  0.1216  0.1763 -0.1941
  108MOL0     C14804   8.282  -0.564   7.793  0.1934  0.1253  0.4055
  108MOL0     C14805   8.397  -0.470   7.764  0.3206 -0.1586 -0.5509
  108MOL0     C14806   8.384  -0.395   7.632  0.4640 -1.3573 -0.1463
  108MOL0     C14807   8.516  -0.315   7.587  0.2408  0.0870 -0.3314
  108MOL0     C14808   8.546  -0.182   7.660 -0.0795  1.3506 -0.3111
  108MOL0     C14809   8.446  -0.069   7.636  0.3295  0.7749  0.1455
  108MOL0     C14810   8.506   0.069   7.653 -0.1198  0.9100 -0.4869
  108MOL0    Cl14811   8.410   0.189   7.559  0.6267  0.0533  0.2254
  108MOL0     C14812   7.907  -0.437   7.978  0.0065 -0.5159  0.1314
  108MOL0     C14813   7.778  -0.388   7.977 -0.1060 -0.3561 -0.5715
  108MOL0     O14814   7.485  -0.549   7.970  0.0710  0.2894  0.3543
  108MOL0     C14815   7.304  -0.253   7.874 -0.5024 -0.3719 -0.2737
  108MOL0     C14816   7.179  -0.195   7.871 -0.0477 -0.2806  0.5198
  108MOL0     N14817   6.597  -0.368   8.009  0.5239 -0.2936  1.1054
  108MOL0     N14818   6.496  -0.440   7.990  0.7506 -0.1696 -0.4109
  108MOL0     C14819   5.364  -0.027   7.829 -0.4463 -0.0223  0.0225
  108MOL0     C14820   5.242   0.023   7.828 -0.4187 -0.1740  0.1811
  108MOL0     C14821   4.800   0.098   7.945  0.4262  0.0876  0.6596
  108MOL0     C14822   4.742   0.091   7.817 -0.1346 -0.5730 -0.0656
  108MOL0     C14823   4.607   0.104   7.794 -0.7549  0.7019  0.0414
  108MOL0     C14824   4.516   0.117   7.902 -0.7842  0.1356  0.1241
  108MOL0     O14825   4.386   0.126   7.886  0.8082 -0.2000 -0.0503
  108MOL0     C14826   4.328   0.115   7.752  0.7406 -0.6919 -0.7885
  108MOL0     C14827   4.177   0.118   7.747 -0.8717  0.4279 -0.0515
  108MOL0     C14828   4.121   0.247   7.798 -0.0548 -0.7591 -0.2936
  108MOL0     C14829   3.973   0.258   7.808 -0.2581 -1.0178  0.0714
  108MOL0     C14830   3.904   0.176   7.709  0.4011 -0.1026  0.1462
  108MOL0     C14831   3.831   0.102   7.647  0.7031  0.3923  0.5553
  108MOL0     C14832   4.572   0.115   8.029  0.1528  0.0366 -0.4242
  108MOL0     C14833   4.708   0.097   8.057  0.3808 -0.4448  0.1741
  108MOL0     C14834   4.751   0.101   8.199  0.0622  0.0812 -0.1433
  108MOL0     H14835   5.051  -0.227   7.932 -0.6003  0.2120  2.6322
  108MOL0     H14836   5.291  -0.329   7.982  0.3746  1.9044  4.3429
  108MOL0     H14837   5.539  -0.172   7.683 -2.0768 -0.9927 -1.5870
  108MOL0     H14838   5.490  -0.328   7.732  1.9679 -1.3612  0.0693
  108MOL0     H14839   5.767  -0.212   7.768 -1.4737  1.0403 -2.5973
  108MOL0     H14840   5.705  -0.351   7.878 -0.4039 -1.3642 -0.2444
  108MOL0     H14841   5.658  -0.469   7.652  0.4934 -0.6773  0.4381
  108MOL0     H14842   5.783  -0.349   7.596  0.2692 -3.9206 -3.8972
  108MOL0     H14843   5.823  -0.555   7.825 -1.6898 -1.6963 -1.6155
  108MOL0     H14844   5.873  -0.563   7.660 -2.2882 -0.6714  0.5885
  108MOL0     H14845   5.967  -0.385   7.904 -1.3078 -1.4993  0.9217
  108MOL0     H14846   6.000  -0.322   7.746  3.0832 -0.7984  2.2887
  108MOL0     H14847   6.093  -0.582   7.860  2.2328  2.1767  1.9023
  108MOL0     H14848   6.106  -0.550   7.681  1.0917  1.3808 -1.2815
  108MOL0     H14849   6.239  -0.332   7.745  3.7983 -1.2585 -1.3321
  108MOL0     H14850   6.298  -0.487   7.767  1.3330 -0.0532 -0.6199
  108MOL0     H14851   6.173  -0.348   8.005 -0.9405  0.7318 -1.0818
  108MOL0     H14852   6.235  -0.504   8.013  2.0168 -0.2295  1.2837
  108MOL0     H14853   6.368  -0.133   7.983 -0.8813  0.3742 -0.7630
  108MOL0     H14854   6.742  -0.154   8.060  0.3350  0.6918  1.5859
  108MOL0     H14855   6.613  -0.045   8.080  1.2612 -0.4806  0.0807
  108MOL0     H14856   6.602  -0.000   7.822 -0.6439 -1.8176 -2.4454
  108MOL0     H14857   6.757   0.008   7.880  0.1890 -1.0481  0.8567
  108MOL0     H14858   6.624  -0.220   7.722 -1.5979 -0.8008 -0.9616
  108MOL0     H14859   6.750  -0.112   7.672  1.7536 -1.1682  0.6566
  108MOL0     H14860   6.790  -0.344   7.872 -0.6059 -0.6768 -0.4844
  108MOL0     H14861   6.846  -0.345   7.711  0.2108 -0.0655 -0.0787
  108MOL0     H14862   7.006  -0.482   7.821  3.2403 -0.5841 -4.9004
  108MOL0     H14863   7.253  -0.676   7.827  1.5205 -0.2498  0.1903
  108MOL0     H14864   7.103  -0.673   7.909  0.7739 -2.1120 -1.5879
  108MOL0     H14865   7.245  -0.647   8.004  0.1840 -1.6436 -0.8254
  108MOL0     H14866   7.676  -0.511   7.689  0.0620 -2.8787 -0.1477
  108MOL0     H14867   7.884  -0.638   7.703  1.2455 -1.0943  1.0355
  108MOL0     H14868   8.118  -0.407   7.792  1.0598  2.5178  1.9908
  108MOL0     H14869   8.205  -0.444   7.945  4.5432 -0.5354 -1.8001
  108MOL0     H14870   8.319  -0.641   7.862  0.8906  1.3770  1.4710
  108MOL0     H14871   8.243  -0.610   7.701 -0.0187 -0.7709  0.9277
  108MOL0     H14872   8.490  -0.528   7.759  0.2427 -0.3105 -0.2854
  108MOL0     H14873   8.405  -0.400   7.847  1.6093 -0.4220 -0.4239
  108MOL0     H14874   8.304  -0.323   7.648  0.7092 -1.3169  0.9963
  108MOL0     H14875   8.352  -0.457   7.548 -0.6926  1.4205 -1.8856
  108MOL0     H14876   8.600  -0.385   7.584  0.3695  0.2664 -2.2940
  108MOL0     H14877   8.504  -0.277   7.485  3.4466  1.5377 -0.3254
  108MOL0     H14878   8.647  -0.150   7.635  0.0631  1.2104  0.0771
  108MOL0     H14879   8.552  -0.205   7.767  0.7218  1.9922 -0.2134
  108MOL0     H14880   8.366  -0.075   7.711 -0.1030  4.0458  0.0864
  108MOL0     H14881   8.404  -0.083   7.537 -0.9203  2.0567  0.4702
  108MOL0     H14882   8.603   0.064   7.604  0.7401  1.4397  1.1058
  108MOL0     H14883   8.534   0.071   7.758  4.9664 -1.9709 -1.4559
  108MOL0     H14884   7.977  -0.387   8.044  2.3607 -0.1167 -2.4782
  108MOL0     H14885   7.736  -0.315   8.046  0.0669 -0.5237 -0.2852
  108MOL0     H14886   7.380  -0.176   7.870 -1.8391  0.9456 -1.8996
  108MOL0     H14887   7.166  -0.091   7.841  1.8721  0.6814  2.6918
  108MOL0     H14888   5.442   0.036   7.789 -1.2935  3.1862  2.9299
  108MOL0     H14889   5.233   0.126   7.795  1.0562  0.0173  0.2971
  108MOL0     H14890   4.808   0.096   7.730  0.5594  0.4563  0.4923
  108MOL0     H14891   4.576   0.101   7.690  0.0339 -3.4523 -0.2454
  108MOL0     H14892   4.362   0.202   7.695  1.2150 -0.7713 -0.6364
  108MOL0     H14893   4.366   0.020   7.712 -2.7146 -1.8902 -1.5464
  108MOL0     H14894   4.142   0.030   7.801  3.0520 -0.9296  0.5563
  108MOL0     H14895   4.156   0.115   7.640  0.6019 -1.2812 -0.3394
  108MOL0     H14896   4.159   0.260   7.900 -2.4154  3.3802  0.2745
  108MOL0     H14897   4.154   0.331   7.736  1.6727 -1.2068 -0.0310
  108MOL0     H14898   3.940   0.361   7.794 -3.0919 -1.7363  0.9643
  108MOL0     H14899   3.928   0.220   7.900 -1.1933 -0.7781 -0.2772
  108MOL0     H14900   3.769   0.042   7.584 -0.1092  0.0369  1.6590
  108MOL0     H14901   4.517   0.146   8.118  3.3607  0.5217  1.5594
  108MOL0     H14902   4.826   0.171   8.238  2.2244 -2.8066  1.2974
  108MOL0     H14903   4.669   0.135   8.263 -0.2687 -1.4573  0.2869
  108MOL0     H14904   4.791   0.004   8.230  0.0876 -0.5263 -1.9558
  109MOL0     O14905   2.731   1.657   3.869 -0.0330 -0.1970 -0.2757
  109MOL0     C14906   2.684   1.766   3.906 -0.3029  0.9879 -0.2893
  109MOL0     O14907   2.755   1.862   3.969 -0.0230 -0.8434  0.0544
  109MOL0     C14908   2.885   1.830   3.999 -0.0209 -0.3517 -0.4093
  109MOL0     C14909   2.985   1.921   3.949 -0.4360  0.7338  0.8377
  109MOL0     C14910   3.120   1.894   3.971  0.3229 -0.7623 -1.4122
  109MOL0     C14911   3.162   1.784   4.056  0.3225 -0.0149 -1.1356
  109MOL0     O14912   3.295   1.754   4.083  0.1658 -0.4934  1.0760
  109MOL0     C14913   3.397   1.854   4.049 -0.8621  0.4450  0.2464
  109MOL0     C14914   3.518   1.791   4.103 -0.2799 -0.1779  0.7552
  109MOL0     C14915   3.643   1.861   4.026  0.9185 -0.2443 -0.3675
  109MOL0     C14916   3.774   1.804   4.076 -0.1019 -0.0037  0.7866
  109MOL0     C14917   3.889   1.909   4.057 -0.4445  1.1444  0.4939
  109MOL0     C14918   4.009   1.836   3.995  0.2157 -0.3951 -0.0172
  109MOL0     C14919   4.147   1.908   3.993 -0.5105 -0.4454  0.0584
  109MOL0     C14920   4.229   1.880   4.121  0.6827  0.1959  0.3045
  109MOL0     N14921   4.240   1.741   4.153 -0.0293 -0.4335  0.0808
  109MOL0     C14922   4.238   1.677   4.274  0.0523 -0.7046 -0.1448
  109MOL0     C14923   4.246   1.539   4.244  0.3516 -0.2034  0.8906
  109MOL0     C14924   4.226   1.423   4.344  0.9656 -0.0108  0.4649
  109MOL0     C14925   4.313   1.299   4.307  0.2724  1.7299  0.2328
  109MOL0     C14926   4.286   1.187   4.399  0.4125  0.1162 -0.5723
  109MOL0     C14927   4.354   1.059   4.346 -0.3796 -0.5673 -0.4964
  109MOL0     O14928   4.272   1.015   4.244  0.4631 -1.1303  0.2310
  109MOL0     C14929   4.316   0.953   4.133  0.5135 -0.3483  0.2287
  109MOL0     C14930   4.219   0.904   4.043 -0.5687 -0.5595  0.2206
  109MOL0     C14931   4.252   0.839   3.926 -0.0661 -0.2740  0.6044
  109MOL0     C14932   4.135   0.782   3.841 -0.4171 -0.6730 -0.4351
  109MOL0     C14933   4.387   0.816   3.892  0.0826 -0.4328  0.7284
  109MOL0     C14934   4.433   0.755   3.762 -0.2337 -0.8524 -0.5760
  109MOL0     O14935   4.564   0.713   3.762 -0.0073 -0.1000  0.4445
  109MOL0     C14936   4.621   0.645   3.658 -0.9326 -0.4838 -1.0361
  109MOL0     C14937   4.581   0.647   3.529  0.1179 -0.5066 -0.4560
  109MOL0     C14938   4.660   0.587   3.434  0.3313  1.2367 -0.4263
  109MOL0     C14939   4.788   0.529   3.471  0.2608  0.5988  0.2452
  109MOL0     O14940   4.862   0.473   3.370  0.2122  0.2193 -0.3313
  109MOL0     C14941   4.876   0.331   3.385 -0.5404  0.1082 -0.1444
  109MOL0     C14942   4.953   0.281   3.268 -0.7498  0.0067  0.3258
  109MOL0     C14943   5.100   0.322   3.282 -0.2062 -0.5465  0.6539
  109MOL0     C14944   5.182   0.338   3.147  0.9111  0.1148 -0.8043
  109MOL0     C14945   5.339   0.328   3.162  0.3032 -0.3066 -1.0549
  109MOL0     C14946   5.389   0.467   3.204 -1.0969 -0.2820 -0.0850
  109MOL0     C14947   5.548   0.466   3.187 -0.0468  0.1104  0.1773
  109MOL0     C14948   5.613   0.597   3.124  0.5206 -0.6124  0.2024
  109MOL0    Cl14949   5.533   0.736   3.208 -0.1977  0.3191  0.5597
  109MOL0     C14950   4.822   0.530   3.606  0.0985 -0.2752  0.3912
  109MOL0     C14951   4.734   0.583   3.699  0.6222  0.1264  0.0855
  109MOL0     O14952   4.358   0.760   3.664 -0.1776 -0.4285  0.0234
  109MOL0     C14953   4.483   0.870   3.967 -0.2469  0.3081 -0.1157
  109MOL0     C14954   4.452   0.943   4.086  0.1779 -0.0887  0.0688
  109MOL0     N14955   4.256   1.529   4.111  0.3202 -0.0301 -0.3185
  109MOL0     N14956   4.260   1.646   4.058 -0.1250 -0.4113  0.5157
  109MOL0     C14957   3.065   1.703   4.105 -0.8842  0.2445 -0.9671
  109MOL0     C14958   2.931   1.719   4.076 -1.0874 -0.0389  0.3119
  109MOL0     C14959   2.534   1.774   3.889  0.5948  0.4718  0.2020
  109MOL0     C14960   2.473   1.888   3.950 -0.1219 -0.0972  0.0363
  109MOL0     C14961   2.338   1.906   3.949  0.3381  0.1855  0.0902
  109MOL0     C14962   2.254   1.821   3.879  0.1906 -0.8400 -0.4201
  109MOL0     O14963   2.122   1.844   3.854  0.2067  0.1446 -0.5828
  109MOL0     C14964   2.072   1.963   3.889  0.3949 -0.5706  0.6488
  109MOL0     C14965   1.921   1.946   3.876 -0.7814 -0.1346  0.4819
  109MOL0     C14966   1.893   1.891   3.733 -0.4927  0.5832 -0.5679
  109MOL0     C14967   1.746   1.908   3.705  0.0948  0.0150  0.6356
  109MOL0     C14968   1.673   1.787   3.754  0.4148 -0.4271 -0.0794
  109MOL0     C14969   1.615   1.694   3.805  0.7354 -0.2763 -0.7270
  109MOL0     C14970   2.306   1.706   3.836 -0.8037 -0.4593  0.5548
  109MOL0     C14971   2.449   1.683   3.824  0.4937 -0.1677 -1.0140
  109MOL0     C14972   2.487   1.554   3.760  0.4844 -0.3814  0.1905
  109MOL0     H14973   2.958   2.010   3.893  2.9522 -0.0434 -2.3901
  109MOL0     H14974   3.189   1.966   3.928  1.0408 -1.0980 -0.8476
  109MOL0     H14975   3.372   1.937   4.115  0.4250 -1.2285  3.0109
  109MOL0     H14976   3.406   1.875   3.942 -0.5587 -1.4985 -0.1547
  109MOL0     H14977   3.533   1.814   4.209 -2.1171 -2.7772  1.7026
  109MOL0     H14978   3.526   1.682   4.088  1.6193 -0.1525  1.3350
  109MOL0     H14979   3.640   1.835   3.920  0.0770 -0.0959 -0.3872
  109MOL0     H14980   3.643   1.970   4.040  1.4411 -0.3679  0.6697
  109MOL0     H14981   3.772   1.782   4.183  3.5862 -0.8194  0.8188
  109MOL0     H14982   3.796   1.715   4.015  0.5414  1.0674 -0.5966
  109MOL0     H14983   3.917   1.951   4.154  2.6457  1.4499 -0.4478
  109MOL0     H14984   3.856   1.988   3.989 -1.4166 -0.6022 -1.1577
  109MOL0     H14985   4.020   1.736   4.039 -1.5484  0.6361  3.0693
  109MOL0     H14986   3.987   1.815   3.890 -1.1867  0.9104 -0.0113
  109MOL0     H14987   4.129   2.015   3.989 -0.6096 -0.2731  3.0370
  109MOL0     H14988   4.203   1.883   3.903  0.8145  5.0877 -1.0014
  109MOL0     H14989   4.334   1.910   4.129  0.6393  0.2681  0.6615
  109MOL0     H14990   4.175   1.932   4.201 -1.7286  0.0794 -1.1519
  109MOL0     H14991   4.232   1.718   4.375  0.5323 -0.4760 -0.2066
  109MOL0     H14992   4.121   1.393   4.338  1.0611 -0.3245  0.3279
  109MOL0     H14993   4.242   1.459   4.446  3.0227 -0.5114  0.3632
  109MOL0     H14994   4.278   1.263   4.210  1.7093  0.5667  0.1169
  109MOL0     H14995   4.421   1.316   4.306  0.4891  0.4280 -0.0715
  109MOL0     H14996   4.321   1.208   4.500  0.5574 -1.4804 -0.2642
  109MOL0     H14997   4.179   1.165   4.406  0.5773 -1.8228 -2.7557
  109MOL0     H14998   4.460   1.079   4.328  0.0315 -1.6345  0.6326
  109MOL0     H14999   4.362   0.978   4.418  2.7558 -0.3063 -0.4258
  109MOL0     H15000   4.114   0.901   4.069 -0.6727  2.4421  0.5148
  109MOL0     H15001   4.149   0.675   3.825  0.6301 -0.6503  0.2144
  109MOL0     H15002   4.132   0.825   3.741  0.6404  0.3048 -0.0755
  109MOL0     H15003   4.039   0.791   3.892 -1.0074 -2.5634 -1.1629
  109MOL0     H15004   4.495   0.703   3.494 -1.8502 -3.0327  0.0190
  109MOL0     H15005   4.640   0.590   3.327  1.5480 -1.4135 -0.7974
  109MOL0     H15006   4.928   0.313   3.480 -5.2737  0.6995  2.9162
  109MOL0     H15007   4.780   0.281   3.396 -0.1729 -0.9133 -1.4198
  109MOL0     H15008   4.954   0.172   3.259  0.7965  0.1220 -1.5327
  109MOL0     H15009   4.901   0.326   3.183 -2.1468  0.4171  1.3692
  109MOL0     H15010   5.152   0.245   3.339  2.1425 -1.3889 -2.3428
  109MOL0     H15011   5.099   0.419   3.333  1.3509  0.1287 -0.5217
  109MOL0     H15012   5.149   0.427   3.092 -1.0761 -0.2167 -0.2249
  109MOL0     H15013   5.148   0.250   3.092  0.5177 -0.6002  0.5451
  109MOL0     H15014   5.368   0.248   3.231  1.2959  1.2167  0.3664
  109MOL0     H15015   5.374   0.310   3.060 -1.1897 -0.4661 -1.5732
  109MOL0     H15016   5.374   0.479   3.312  1.9023 -0.6650  0.4832
  109MOL0     H15017   5.345   0.553   3.153 -0.2021 -0.1402 -0.6403
  109MOL0     H15018   5.565   0.386   3.116  1.3637 -0.4751  1.1244
  109MOL0     H15019   5.602   0.438   3.279  0.4522  0.4064 -0.0199
  109MOL0     H15020   5.602   0.591   3.015 -0.9047 -4.7280  0.3996
  109MOL0     H15021   5.721   0.593   3.142  0.5369  1.8133  0.9353
  109MOL0     H15022   4.915   0.478   3.629 -0.0452 -1.0733 -0.7528
  109MOL0     H15023   4.765   0.581   3.802  2.4570 -0.1168 -0.4399
  109MOL0     H15024   4.585   0.874   3.930  0.0542  0.1863  0.6856
  109MOL0     H15025   4.534   0.984   4.143  1.9201 -3.0896 -0.0663
  109MOL0     H15026   3.110   1.625   4.166  3.9676  0.6136 -3.5458
  109MOL0     H15027   2.872   1.635   4.111 -1.1719 -2.2900 -4.4314
  109MOL0     H15028   2.524   1.967   4.003 -0.5851  1.9683 -2.3914
  109MOL0     H15029   2.305   1.997   3.999 -0.8529 -0.3307  0.2709
  109MOL0     H15030   2.097   1.998   3.990  1.8040  0.4413 -0.0280
  109MOL0     H15031   2.106   2.041   3.821  2.1702 -0.4221  1.6299
  109MOL0     H15032   1.878   2.044   3.899 -0.1008 -0.2638  2.4955
  109MOL0     H15033   1.888   1.883   3.959 -0.2903 -1.7753 -0.5034
  109MOL0     H15034   1.953   1.947   3.661  0.6033 -3.5180 -3.1393
  109MOL0     H15035   1.916   1.786   3.711 -1.0376  0.5005 -0.7807
  109MOL0     H15036   1.735   1.903   3.596 -0.7250 -3.3508  0.7395
  109MOL0     H15037   1.708   2.002   3.744  0.0846 -0.6376  2.2643
  109MOL0     H15038   1.573   1.623   3.873  1.4050 -0.2893 -0.3140
  109MOL0     H15039   2.235   1.637   3.791 -1.1399 -0.6026  1.2847
  109MOL0     H15040   2.537   1.580   3.666  2.3309 -0.6886  1.0364
  109MOL0     H15041   2.566   1.500   3.812  1.1924  0.1000 -0.3701
  109MOL0     H15042   2.401   1.487   3.748 -0.9908  0.8067  3.0646
  110MOL0     O15043   3.149   4.356   0.348  1.1880 -0.9436 -0.2342
  110MOL0     C15044   3.073   4.439   0.390  0.1725  0.1711  0.0835
  110MOL0     O15045   3.087   4.516   0.499 -0.5045 -0.1352 -0.0536
  110MOL0     C15046   3.193   4.501   0.594  0.4518 -0.4351  0.4060
  110MOL0     C15047   3.171   4.574   0.708  0.3744 -0.0990 -0.1915
  110MOL0     C15048   3.261   4.587   0.818 -0.2668  0.9510  0.2227
  110MOL0     C15049   3.374   4.509   0.818  0.0116  0.1036  0.0153
  110MOL0     O15050   3.463   4.522   0.924  0.5358  0.4722 -0.1852
  110MOL0     C15051   3.605   4.503   0.904  0.3585  0.5497  0.2015
  110MOL0     C15052   3.673   4.633   0.935 -0.0509  0.4831  0.6110
  110MOL0     C15053   3.707   4.710   0.810 -0.5848  0.1135 -0.5598
  110MOL0     C15054   3.791   4.840   0.838  0.3815 -0.2299  0.5639
  110MOL0     C15055   3.939   4.819   0.866  0.1837  0.6469  0.0213
  110MOL0     C15056   3.995   4.959   0.918 -0.4593 -0.0558 -0.1611
  110MOL0     C15057   4.147   4.974   0.940 -0.0826 -0.3235 -0.2608
  110MOL0     C15058   4.241   4.944   0.824 -0.2753  0.3311  0.4085
  110MOL0     N15059   4.385   4.986   0.849 -0.2871 -0.4683 -0.5330
  110MOL0     C15060   4.418   5.108   0.885 -0.2179  0.2303 -0.3196
  110MOL0     C15061   4.556   5.099   0.898  0.9414 -0.1979 -0.0507
  110MOL0     C15062   4.649   5.214   0.924 -0.3842  0.6470 -0.3535
  110MOL0     C15063   4.615   5.300   1.044 -0.2775 -0.6724  1.0096
  110MOL0     C15064   4.707   5.424   1.052 -0.0477  0.0422 -0.2606
  110MOL0     C15065   4.853   5.398   1.078  0.2143  1.0770  0.2311
  110MOL0     O15066   4.916   5.519   1.113  0.2451 -0.6807 -0.1570
  110MOL0     C15067   5.049   5.512   1.135 -0.0227  0.2325 -0.9565
  110MOL0     C15068   5.108   5.636   1.156 -0.1594 -0.5620  0.1600
  110MOL0     C15069   5.244   5.653   1.164 -0.1032  0.4671 -0.0464
  110MOL0     C15070   5.291   5.795   1.182 -0.1779 -0.3860  0.7441
  110MOL0     C15071   5.328   5.538   1.169  0.0128 -1.0556  0.8256
  110MOL0     C15072   5.474   5.540   1.194 -0.3608 -0.0142  0.0231
  110MOL0     O15073   5.534   5.421   1.168 -0.4049  0.3072  0.2330
  110MOL0     C15074   5.667   5.396   1.209  0.5126 -0.3923 -0.3890
  110MOL0     C15075   5.710   5.407   1.345  0.0049  0.1030 -0.1151
  110MOL0     C15076   5.836   5.376   1.387 -0.1044 -0.1052 -0.1629
  110MOL0     C15077   5.919   5.309   1.301  0.2193 -0.0661 -0.2394
  110MOL0     O15078   6.043   5.292   1.350 -0.2165 -0.3101 -0.3475
  110MOL0     C15079   6.155   5.308   1.266 -0.0748 -0.4924  0.2492
  110MOL0     C15080   6.271   5.210   1.310  0.5224 -0.0002  0.0553
  110MOL0     C15081   6.337   5.222   1.445 -0.8931  0.1733  1.0504
  110MOL0     C15082   6.391   5.361   1.465  0.4985  0.2124 -0.2817
  110MOL0     C15083   6.487   5.364   1.581 -0.7253 -0.0812 -0.3112
  110MOL0     C15084   6.572   5.491   1.605 -0.0795  0.5423 -0.3136
  110MOL0     C15085   6.484   5.617   1.630 -0.9155 -0.2865 -0.0008
  110MOL0     C15086   6.556   5.749   1.656 -0.7061 -1.5058  1.0464
  110MOL0    Cl15087   6.678   5.771   1.529 -0.0569  0.2323  0.1744
  110MOL0     C15088   5.879   5.285   1.163 -0.1972  0.4704  0.4127
  110MOL0     C15089   5.758   5.337   1.121  0.4032  0.0020  0.8958
  110MOL0     O15090   5.520   5.633   1.257 -0.8230  0.6917  1.0046
  110MOL0     C15091   5.275   5.410   1.142  0.9409 -0.5752 -0.0344
  110MOL0     C15092   5.135   5.397   1.136  0.8628 -0.7253 -0.4891
  110MOL0     N15093   4.594   4.974   0.856  0.3916  0.3728 -0.5068
  110MOL0     N15094   4.491   4.904   0.820 -0.6391  0.0740  1.2083
  110MOL0     C15095   3.403   4.438   0.698 -0.5648  1.2375 -0.0960
  110MOL0     C15096   3.318   4.432   0.586  0.0981 -0.5190  0.1747
  110MOL0     C15097   2.943   4.452   0.324  0.2553 -0.0956  0.0216
  110MOL0     C15098   2.894   4.344   0.252  0.8641 -0.1218 -0.1630
  110MOL0     C15099   2.772   4.350   0.193  0.0789  0.3745  1.3943
  110MOL0     C15100   2.698   4.467   0.198 -0.1586  0.7837  0.4076
  110MOL0     O15101   2.566   4.471   0.153  0.7764 -0.7737 -0.3348
  110MOL0     C15102   2.513   4.373   0.066 -0.2923 -0.0145  0.2517
  110MOL0     C15103   2.434   4.263   0.140 -0.2178 -0.2338  0.5687
  110MOL0     C15104   2.291   4.306   0.163 -0.5165 -0.2978  0.1405
  110MOL0     C15105   2.211   4.196   0.230 -0.4955  0.1435 -0.7427
  110MOL0     C15106   2.164   4.093   0.133  0.5040 -0.0011  0.0870
  110MOL0     C15107   2.127   4.016   0.048 -0.2366 -0.1216  0.3761
  110MOL0     C15108   2.743   4.570   0.273  0.7081 -0.9252  0.6974
  110MOL0     C15109   2.864   4.571   0.334  0.0096  0.1779 -1.0165
  110MOL0     C15110   2.908   4.699   0.415  0.1852  0.3382 -0.9474
  110MOL0     H15111   3.089   4.642   0.724 -0.8358 -1.7447  0.9288
  110MOL0     H15112   3.227   4.649   0.901  5.0429  3.6369  0.8088
  110MOL0     H15113   3.637   4.459   0.809 -0.2574  1.6614 -0.5447
  110MOL0     H15114   3.640   4.429   0.976  1.0288  0.9332  0.2720
  110MOL0     H15115   3.607   4.694   0.997 -1.0052  0.0004  0.1001
  110MOL0     H15116   3.766   4.617   0.991  0.3845  3.0385  0.7147
  110MOL0     H15117   3.768   4.643   0.750  1.8278 -0.1002  1.9195
  110MOL0     H15118   3.618   4.740   0.754 -0.9280  1.0704  0.4592
  110MOL0     H15119   3.783   4.914   0.759 -2.2281 -1.7051 -0.6967
  110MOL0     H15120   3.742   4.887   0.924 -0.1445 -0.7017  0.5337
  110MOL0     H15121   3.972   4.801   0.764 -0.5292 -2.8019  0.2953
  110MOL0     H15122   3.962   4.732   0.929 -1.1194 -1.3080 -2.0617
  110MOL0     H15123   3.965   5.034   0.845  0.7421  1.0341  0.4430
  110MOL0     H15124   3.954   4.986   1.016  0.8976  1.9776 -0.0909
  110MOL0     H15125   4.180   4.906   1.020  2.3487  0.8702 -0.1403
  110MOL0     H15126   4.169   5.077   0.970  2.1050 -1.3091  1.8858
  110MOL0     H15127   4.236   4.837   0.801 -0.4118  0.0408  1.6716
  110MOL0     H15128   4.198   5.000   0.741  1.8556  1.3273 -0.0802
  110MOL0     H15129   4.352   5.193   0.889  0.3424  0.7754 -1.7868
  110MOL0     H15130   4.659   5.278   0.835 -0.3110 -4.0194 -4.1453
  110MOL0     H15131   4.747   5.166   0.935 -0.8145 -0.5018 -1.2229
  110MOL0     H15132   4.514   5.340   1.025  0.7116  2.0673  1.0058
  110MOL0     H15133   4.594   5.241   1.133 -3.4753  1.8962  2.1577
  110MOL0     H15134   4.705   5.498   0.971  2.7852 -1.7326 -2.1216
  110MOL0     H15135   4.672   5.486   1.136 -1.4877  1.4455 -1.8233
  110MOL0     H15136   4.868   5.329   1.162  0.8881  1.6676  0.6063
  110MOL0     H15137   4.898   5.353   0.989 -2.5512 -0.5779 -0.4380
  110MOL0     H15138   5.053   5.730   1.156 -0.4165 -0.6626 -1.9692
  110MOL0     H15139   5.379   5.812   1.119  0.7747  0.0485  2.1434
  110MOL0     H15140   5.304   5.823   1.287 -2.3240  0.1001  0.9363
  110MOL0     H15141   5.214   5.865   1.149  0.5176 -0.3450 -0.9025
  110MOL0     H15142   5.638   5.444   1.417 -0.4263  2.1106 -1.5081
  110MOL0     H15143   5.870   5.395   1.488  1.8604 -2.5598 -0.2769
  110MOL0     H15144   6.129   5.267   1.168 -3.1107  1.3405  0.1743
  110MOL0     H15145   6.188   5.412   1.259  2.4858 -1.0179  2.6714
  110MOL0     H15146   6.235   5.107   1.302  0.0100  0.1702  0.1238
  110MOL0     H15147   6.349   5.223   1.234 -0.7222  0.0780 -1.2492
  110MOL0     H15148   6.422   5.154   1.435  2.1085  3.8637 -1.1783
  110MOL0     H15149   6.273   5.183   1.525 -0.1085 -1.5228  0.8972
  110MOL0     H15150   6.314   5.434   1.495  0.5866  0.0015  0.4807
  110MOL0     H15151   6.446   5.399   1.379 -0.3822 -1.4135 -1.6089
  110MOL0     H15152   6.440   5.334   1.675  1.9676  5.2196  3.2523
  110MOL0     H15153   6.560   5.284   1.570  0.7687  0.8430  2.0642
  110MOL0     H15154   6.640   5.520   1.524  2.2861 -0.2816  1.2577
  110MOL0     H15155   6.631   5.464   1.693 -2.3632  0.4372  1.2831
  110MOL0     H15156   6.412   5.599   1.710 -1.0934 -0.8257 -0.2779
  110MOL0     H15157   6.436   5.628   1.532 -1.5851 -2.2854  0.0691
  110MOL0     H15158   6.589   5.767   1.758  2.5491 -1.3097  0.0713
  110MOL0     H15159   6.493   5.835   1.630  3.6595  1.6428 -0.3948
  110MOL0     H15160   5.941   5.225   1.096 -2.3632  0.0301 -1.3325
  110MOL0     H15161   5.738   5.313   1.017  2.9904 -3.3245  1.0095
  110MOL0     H15162   5.332   5.325   1.106 -1.0709 -1.8564 -0.3544
  110MOL0     H15163   5.101   5.296   1.115  0.8816 -0.6846 -0.7250
  110MOL0     H15164   3.491   4.376   0.690 -0.2518  1.5974  0.5071
  110MOL0     H15165   3.347   4.375   0.498 -0.0431  0.0129 -0.2157
  110MOL0     H15166   2.938   4.245   0.262 -0.4772 -0.5307  2.9597
  110MOL0     H15167   2.729   4.265   0.140 -1.7104  1.1953  1.4639
  110MOL0     H15168   2.449   4.430  -0.001  3.0091  1.7304 -1.6568
  110MOL0     H15169   2.587   4.328  -0.001 -1.4959 -0.0995 -1.0639
  110MOL0     H15170   2.476   4.235   0.236 -0.5847 -0.3641  0.6956
  110MOL0     H15171   2.439   4.177   0.072 -2.7300 -0.4412  0.5316
  110MOL0     H15172   2.289   4.399   0.220 -0.6871  0.5082 -1.1207
  110MOL0     H15173   2.244   4.318   0.065 -0.2808 -1.5911 -0.1435
  110MOL0     H15174   2.125   4.225   0.291 -0.9270 -0.5461 -1.0117
  110MOL0     H15175   2.280   4.150   0.302 -1.6624 -0.0309  0.2951
  110MOL0     H15176   2.108   3.940  -0.025  2.2055 -0.8011  0.3726
  110MOL0     H15177   2.676   4.655   0.279 -0.5269 -1.7793 -0.4830
  110MOL0     H15178   2.828   4.773   0.420 -0.1465 -0.0133 -1.0355
  110MOL0     H15179   2.923   4.669   0.519 -1.2413  0.1517 -0.7818
  110MOL0     H15180   3.003   4.736   0.376  0.4262 -0.6631 -1.3367
  111MOL0     O15181   6.275   6.008  10.466  0.5356 -0.3503  0.0228
  111MOL0     C15182   6.249   5.926  10.561  0.0685  0.7164 -0.7269
  111MOL0     O15183   6.336   5.882  10.655  0.0161  0.0693  0.7817
  111MOL0     C15184   6.470   5.889  10.628  0.3415 -0.3116  0.3329
  111MOL0     C15185   6.530   5.838  10.508  0.2376 -0.4326 -0.5139
  111MOL0     C15186   6.665   5.846  10.482 -0.2639  0.6149 -0.3284
  111MOL0     C15187   6.745   5.915  10.570  0.8437 -0.6205 -1.4394
  111MOL0     O15188   6.879   5.935  10.537 -0.6680 -0.1687  0.4117
  111MOL0     C15189   6.932   6.064  10.532 -0.2238 -0.5264 -0.3316
  111MOL0     C15190   7.078   6.074  10.481  0.3125 -0.9748  0.1343
  111MOL0     C15191   7.181   6.010  10.584  0.6029  0.0287  1.0688
  111MOL0     C15192   7.328   6.023  10.548  0.4468  0.0999  0.3887
  111MOL0     C15193   7.438   5.949  10.619 -0.5636 -0.0521 -0.8065
  111MOL0     C15194   7.416   5.795  10.603  0.2892  0.4727  0.8619
  111MOL0     C15195   7.515   5.706  10.688 -0.8644 -0.8837  0.9483
  111MOL0     C15196   7.521   5.558  10.665 -1.1156  0.1268 -0.1594
  111MOL0     N15197   7.552   5.525  10.529 -0.5977 -0.0208  0.3854
  111MOL0     C15198   7.476   5.506  10.418  0.7581 -0.1469 -0.3244
  111MOL0     C15199   7.559   5.491  10.314  0.5094 -0.2600  0.6686
  111MOL0     C15200   7.526   5.460  10.163 -0.6708  0.1944  0.5503
  111MOL0     C15201   7.509   5.589  10.085 -0.2544  0.0359  0.7957
  111MOL0     C15202   7.437   5.575   9.952 -0.4136 -0.4668 -0.3879
  111MOL0     C15203   7.443   5.718   9.883  0.1837 -0.0779 -0.8457
  111MOL0     O15204   7.566   5.743   9.807 -0.8669 -0.7787  0.6974
  111MOL0     C15205   7.588   5.674   9.694 -0.2849 -1.2275 -1.0596
  111MOL0     C15206   7.720   5.639   9.663  0.0199  0.4503 -0.3816
  111MOL0     C15207   7.742   5.558   9.550 -0.7818  0.1840  0.1192
  111MOL0     C15208   7.893   5.539   9.522 -0.2568  0.1824  0.7337
  111MOL0     C15209   7.639   5.507   9.471 -0.0592 -0.8580  0.0305
  111MOL0     C15210   7.666   5.416   9.350 -0.2987 -0.4645  0.2538
  111MOL0     O15211   7.792   5.363   9.335 -0.8274  0.1573 -1.1015
  111MOL0     C15212   7.800   5.244   9.268 -0.5145  0.8778 -0.3037
  111MOL0     C15213   7.866   5.237   9.152  0.1069  0.1132 -0.3949
  111MOL0     C15214   7.874   5.118   9.083 -0.8243 -0.6073  0.4497
  111MOL0     C15215   7.819   5.002   9.133 -0.9742 -0.2881 -0.0919
  111MOL0     O15216   7.839   4.881   9.066 -0.6081 -0.8429 -0.1723
  111MOL0     C15217   7.759   4.771   9.101  0.0152 -0.3374 -0.5893
  111MOL0     C15218   7.784   4.649   9.019 -0.4805 -0.2665 -0.1007
  111MOL0     C15219   7.928   4.599   9.039 -0.2739  0.4546 -0.4250
  111MOL0     C15220   7.983   4.534   8.911  0.2247 -0.2808 -0.1127
  111MOL0     C15221   8.133   4.493   8.906  0.1871  0.0698  0.3282
  111MOL0     C15222   8.182   4.499   8.762 -0.3803  0.2195 -0.5034
  111MOL0     C15223   8.340   4.481   8.754  0.5805 -0.5067 -0.1696
  111MOL0     C15224   8.381   4.495   8.607  0.2440 -0.1198 -0.5126
  111MOL0    Cl15225   8.557   4.464   8.600 -0.2794  0.4065 -0.0665
  111MOL0     C15226   7.750   5.008   9.252 -0.5772  0.2485  0.2164
  111MOL0     C15227   7.742   5.130   9.317  0.3595 -0.1928  0.2309
  111MOL0     O15228   7.575   5.400   9.276  0.1548  0.5152  0.4211
  111MOL0     C15229   7.511   5.562   9.488 -0.6083 -0.2925  0.2376
  111MOL0     C15230   7.484   5.645   9.608  0.5262  0.3159 -0.0173
  111MOL0     N15231   7.688   5.477  10.365 -0.3951 -0.8333 -0.7366
  111MOL0     N15232   7.682   5.510  10.489  0.9362  0.2713  0.2702
  111MOL0     C15233   6.694   5.962  10.693 -0.3012 -0.1825  0.5543
  111MOL0     C15234   6.560   5.946  10.724  0.5541 -0.0282 -0.3993
  111MOL0     C15235   6.108   5.890  10.588  0.4574  0.0570 -0.4036
  111MOL0     C15236   6.010   5.982  10.547 -0.9745 -0.1093  0.2402
  111MOL0     C15237   5.879   5.945  10.556  0.0862  0.7745 -0.9670
  111MOL0     C15238   5.840   5.818  10.612 -0.7241 -0.4567  0.1512
  111MOL0     O15239   5.707   5.797  10.608  0.5799  0.3079 -0.7059
  111MOL0     C15240   5.659   5.665  10.651 -0.5046 -0.1897 -0.7653
  111MOL0     C15241   5.515   5.668  10.618  1.0150  0.1037  0.9507
  111MOL0     C15242   5.493   5.641  10.465  0.6729 -0.7823 -0.1642
  111MOL0     C15243   5.339   5.643  10.444  0.8786  0.3908  0.0844
  111MOL0     C15244   5.293   5.574  10.322 -0.2166  1.0996  0.3938
  111MOL0     C15245   5.259   5.529  10.214 -0.9229 -0.3488 -0.5119
  111MOL0     C15246   5.938   5.726  10.647  0.4734  0.6391 -0.0499
  111MOL0     C15247   6.074   5.757  10.630 -0.3555 -0.4907 -0.1260
  111MOL0     C15248   6.178   5.649  10.643  1.0108 -1.1364  0.3526
  111MOL0     H15249   6.468   5.787  10.435 -0.2744  2.4937 -2.3085
  111MOL0     H15250   6.694   5.817  10.382 -0.6864 -0.2903 -0.2015
  111MOL0     H15251   6.909   6.107  10.631 -1.0548  0.2777 -0.8491
  111MOL0     H15252   6.864   6.116  10.464 -0.8676 -0.2480  0.4941
  111MOL0     H15253   7.081   6.029  10.382 -2.6153  3.8286 -2.5516
  111MOL0     H15254   7.100   6.181  10.479  0.6658 -1.0563 -0.1678
  111MOL0     H15255   7.161   6.046  10.685 -0.2190 -0.4693  1.0919
  111MOL0     H15256   7.165   5.902  10.578 -2.2395  0.4119  0.1467
  111MOL0     H15257   7.338   5.993  10.444  2.9663 -0.4035  0.6962
  111MOL0     H15258   7.356   6.129  10.554  2.7809 -0.4746  1.0348
  111MOL0     H15259   7.442   5.970  10.726  0.8341 -3.5767 -0.0443
  111MOL0     H15260   7.535   5.978  10.579 -0.0880  1.5251  1.3135
  111MOL0     H15261   7.320   5.753  10.633  0.2993 -1.1508 -1.1426
  111MOL0     H15262   7.427   5.767  10.498 -2.9502  0.5216  0.4110
  111MOL0     H15263   7.490   5.723  10.793  1.2767 -0.5078  1.4467
  111MOL0     H15264   7.616   5.750  10.682 -1.6094  0.7130 -0.9976
  111MOL0     H15265   7.587   5.516  10.742 -1.5290  1.6190  1.0814
  111MOL0     H15266   7.424   5.508  10.680 -2.2803  2.3591  0.1857
  111MOL0     H15267   7.368   5.497  10.411  0.3510  3.3584 -0.3518
  111MOL0     H15268   7.435   5.399  10.160 -0.6081  0.1471 -1.2442
  111MOL0     H15269   7.598   5.389  10.121  0.7583  0.7784  1.8905
  111MOL0     H15270   7.457   5.665  10.145 -0.5338  0.4778  0.0091
  111MOL0     H15271   7.608   5.630  10.065 -1.1624  1.4679 -1.1735
  111MOL0     H15272   7.490   5.492   9.904  0.0469 -1.8822  2.3636
  111MOL0     H15273   7.332   5.544   9.961 -0.5641 -0.0734 -0.7165
  111MOL0     H15274   7.346   5.744   9.839 -0.0091 -0.8461 -0.8867
  111MOL0     H15275   7.454   5.798   9.957  0.2221  1.5115 -2.4937
  111MOL0     H15276   7.806   5.677   9.717 -0.1423  2.0104 -1.1568
  111MOL0     H15277   7.966   5.592   9.584  1.0846 -0.8327  0.0682
  111MOL0     H15278   7.914   5.577   9.421 -2.1364  1.7405  0.8617
  111MOL0     H15279   7.915   5.432   9.529  0.1830  0.0751 -1.4586
  111MOL0     H15280   7.902   5.334   9.118 -0.5344  0.9252  1.1497
  111MOL0     H15281   7.937   5.109   8.995  0.7151 -1.1416  1.5613
  111MOL0     H15282   7.783   4.735   9.202 -1.4556  1.3896  0.4330
  111MOL0     H15283   7.652   4.793   9.091 -0.5058 -0.1593  3.6362
  111MOL0     H15284   7.707   4.577   9.049 -2.9773  1.8228 -1.1736
  111MOL0     H15285   7.774   4.681   8.915 -1.6130  1.3140  0.4713
  111MOL0     H15286   7.937   4.527   9.121  0.5460  0.6599 -0.3197
  111MOL0     H15287   8.000   4.680   9.054 -1.8993  1.9765 -0.6247
  111MOL0     H15288   7.975   4.608   8.831 -0.6651  1.5711  1.6048
  111MOL0     H15289   7.925   4.443   8.888  0.1225 -0.8263  2.0651
  111MOL0     H15290   8.186   4.568   8.965  0.0373  0.8507 -0.5015
  111MOL0     H15291   8.132   4.389   8.942 -3.0682 -0.2532 -0.3784
  111MOL0     H15292   8.155   4.599   8.728 -1.5248 -0.1377 -0.6912
  111MOL0     H15293   8.132   4.429   8.695  1.0583 -0.4017 -0.9744
  111MOL0     H15294   8.365   4.377   8.778 -1.6176 -0.8273  0.9620
  111MOL0     H15295   8.386   4.554   8.822 -2.0016  1.6021 -0.5524
  111MOL0     H15296   8.369   4.595   8.566 -1.5226 -0.4593 -0.9049
  111MOL0     H15297   8.326   4.427   8.541 -1.1459  0.1559  0.3010
  111MOL0     H15298   7.697   4.930   9.305 -2.1811  2.2375  1.7211
  111MOL0     H15299   7.689   5.157   9.408 -2.2326  0.6710 -1.4336
  111MOL0     H15300   7.434   5.533   9.418  0.2632 -0.4825 -0.6672
  111MOL0     H15301   7.380   5.669   9.625 -0.0131 -2.5030  1.2584
  111MOL0     H15302   6.761   6.003  10.768  1.5031 -1.1924 -0.4151
  111MOL0     H15303   6.527   5.966  10.825  3.5993 -1.9226  1.1151
  111MOL0     H15304   6.024   6.085  10.514 -1.0685  0.8036  2.8489
  111MOL0     H15305   5.802   6.018  10.532 -3.6239 -2.6366 -0.6513
  111MOL0     H15306   5.705   5.584  10.593 -1.4682 -2.2828  1.2435
  111MOL0     H15307   5.687   5.648  10.755  3.2502  0.7038 -1.4750
  111MOL0     H15308   5.472   5.766  10.643  0.6888  0.8035 -1.9933
  111MOL0     H15309   5.458   5.591  10.671 -1.1354  0.2380 -1.0279
  111MOL0     H15310   5.555   5.709  10.407  1.0499 -0.6851  0.3424
  111MOL0     H15311   5.537   5.544  10.440  2.0107  0.0844 -1.2667
  111MOL0     H15312   5.308   5.748  10.438  1.7817  0.6361 -0.4583
  111MOL0     H15313   5.285   5.600  10.529  1.8902  1.3274  1.2461
  111MOL0     H15314   5.223   5.487  10.123 -1.2423  0.6316 -0.8567
  111MOL0     H15315   5.920   5.628  10.692 -0.2300  0.3867 -0.8331
  111MOL0     H15316   6.251   5.666  10.722  1.4411  0.0757 -0.2860
  111MOL0     H15317   6.118   5.558  10.655 -2.6363  0.5245 -2.9326
  111MOL0     H15318   6.224   5.653  10.544 -1.1967 -2.5750 -0.8059
  112MOL0     O15319  11.023  11.316  11.183  0.7425  0.3671 -0.3358
  112MOL0     C15320  10.934  11.227  11.172 -0.5935 -0.7464 -1.7944
  112MOL0     O15321  10.947  11.109  11.099  0.6528 -0.2060 -0.7437
  112MOL0     C15322  11.064  11.080  11.028  0.1487  0.5948 -0.0193
  112MOL0     C15323  11.126  10.945  11.029  0.7396 -0.6858  0.1664
  112MOL0     C15324  11.228  10.920  10.947  0.0784  0.5611  0.4381
  112MOL0     C15325  11.275  11.012  10.857 -0.0987 -0.4073 -1.1183
  112MOL0     O15326  11.383  10.968  10.781  0.3818  0.9346  0.3052
  112MOL0     C15327  11.461  11.070  10.726  0.4932 -0.6173  0.5258
  112MOL0     C15328  11.596  11.017  10.679  0.7871 -0.0485 -0.3660
  112MOL0     C15329  11.611  11.019  10.530  0.5078 -0.0292  0.8494
  112MOL0     C15330  11.637  11.164  10.476 -0.4027  0.0167 -0.8145
  112MOL0     C15331  11.612  11.170  10.328  0.1971 -0.4189  0.5259
  112MOL0     C15332  11.644  11.316  10.262  0.3057  0.2007 -0.6840
  112MOL0     C15333  11.621  11.328  10.113  0.0688  0.2337 -0.3623
  112MOL0     C15334  11.703  11.224  10.038 -0.9979 -0.6146  0.7723
  112MOL0     N15335  11.751  11.262   9.899 -0.6092  0.3497 -0.2080
  112MOL0     C15336  11.881  11.255   9.856 -0.4612  0.2775 -0.0895
  112MOL0     C15337  11.875  11.260   9.719  0.0333 -0.3319  0.9155
  112MOL0     C15338  11.990  11.249   9.623  0.8097  0.2868 -0.3083
  112MOL0     C15339  11.954  11.308   9.483  1.0974 -0.7285  0.5832
  112MOL0     C15340  12.082  11.311   9.402  0.3168  0.1528 -0.2813
  112MOL0     C15341  12.078  11.397   9.280  0.6249 -0.5624 -0.1572
  112MOL0     O15342  12.214  11.420   9.216 -0.0352  1.1882 -0.4877
  112MOL0     C15343  12.309  11.513   9.256  0.4104  0.4610  0.2775
  112MOL0     C15344  12.279  11.604   9.364 -0.2886  0.1213  0.1277
  112MOL0     C15345  12.371  11.705   9.391 -0.6383 -0.1730 -0.9250
  112MOL0     C15346  12.332  11.806   9.504 -0.2118 -0.4008  0.6129
  112MOL0     C15347  12.499  11.704   9.324 -0.4185 -0.0727 -0.6511
  112MOL0     C15348  12.610  11.796   9.361  0.0059 -0.2511 -0.0524
  112MOL0     O15349  12.739  11.751   9.378 -0.0904  0.0436 -0.5322
  112MOL0     C15350  12.829  11.833   9.319  0.4945 -0.6963 -0.0984
  112MOL0     C15351  12.841  11.818   9.183 -0.0556 -0.5644 -0.1365
  112MOL0     C15352  12.945  11.901   9.127  0.0523  1.4855  0.3319
  112MOL0     C15353  13.029  11.974   9.197  0.2539  0.2979  0.2977
  112MOL0     O15354  13.135  12.043   9.149  0.2198 -0.4145  0.7267
  112MOL0     C15355  13.100  12.140   9.046 -0.4534 -0.1298 -0.4613
  112MOL0     C15356  13.028  12.257   9.104 -0.6891  0.5265 -0.3246
  112MOL0     C15357  12.996  12.358   8.994  0.1470  0.2947  0.3196
  112MOL0     C15358  12.891  12.458   9.059 -0.5888  0.3544 -0.2182
  112MOL0     C15359  12.888  12.591   8.973 -0.1590  0.5606  0.2124
  112MOL0     C15360  12.999  12.695   9.001  0.1081  0.2442 -0.1379
  112MOL0     C15361  13.045  12.764   8.865  0.4833 -0.1545 -0.1842
  112MOL0     C15362  13.122  12.884   8.909 -0.6923 -0.7048 -0.4006
  112MOL0    Cl15363  13.267  12.823   9.007  0.2402  0.1948 -0.2998
  112MOL0     C15364  13.008  11.983   9.334  0.1482  0.1896 -0.2181
  112MOL0     C15365  12.909  11.911   9.400  0.0329  1.6479  0.1453
  112MOL0     O15366  12.583  11.915   9.358 -0.2647 -0.9662 -0.8271
  112MOL0     C15367  12.527  11.617   9.215  0.0987 -0.7138 -0.2233
  112MOL0     C15368  12.430  11.520   9.187 -0.0019  0.0355  0.5769
  112MOL0     N15369  11.739  11.250   9.684  0.4463 -0.0166 -0.7484
  112MOL0     N15370  11.670  11.277   9.793  0.1400 -0.3472  0.6845
  112MOL0     C15371  11.219  11.141  10.853 -0.5452  0.4136 -0.9704
  112MOL0     C15372  11.111  11.172  10.937 -0.7938  0.5372 -0.3913
  112MOL0     C15373  10.797  11.257  11.218 -0.2878 -0.3290  0.1590
  112MOL0     C15374  10.697  11.185  11.160 -0.7688  0.1167 -0.7523
  112MOL0     C15375  10.568  11.221  11.191  0.6148  1.0169  0.4218
  112MOL0     C15376  10.540  11.330  11.271  0.9454  0.4170 -0.5785
  112MOL0     O15377  10.409  11.361  11.278  0.0448 -0.2749 -1.0124
  112MOL0     C15378  10.379  11.503  11.277 -0.0078  0.7633  0.6869
  112MOL0     C15379  10.229  11.527  11.273  0.3897 -0.2430 -0.9326
  112MOL0     C15380  10.175  11.520  11.413  0.6316 -0.3803  0.1598
  112MOL0     C15381  10.046  11.591  11.407  1.4568 -0.3349  0.2289
  112MOL0     C15382   9.977  11.594  11.541 -1.2286 -0.2993  0.8418
  112MOL0     C15383   9.909  11.583  11.639 -0.0583 -1.0574 -1.3334
  112MOL0     C15384  10.640  11.406  11.334 -0.1346 -0.5548  0.1866
  112MOL0     C15385  10.774  11.355  11.318 -0.2736 -0.3531 -0.0018
  112MOL0     C15386  10.884  11.424  11.394 -0.3064  0.1802  0.3817
  112MOL0     H15387  11.096  10.871  11.102  4.4358 -0.4004  2.2072
  112MOL0     H15388  11.286  10.828  10.954 -2.2640 -0.8576  2.7873
  112MOL0     H15389  11.480  11.162  10.782  1.1806 -0.3326 -0.1589
  112MOL0     H15390  11.411  11.090  10.630  0.3006 -2.2022  0.2773
  112MOL0     H15391  11.672  11.074  10.734 -1.8154  0.5128  2.9536
  112MOL0     H15392  11.584  10.913  10.713  1.4000  0.7235  2.4728
  112MOL0     H15393  11.701  10.961  10.503 -0.3611 -2.4136  2.6975
  112MOL0     H15394  11.522  10.976  10.483  1.1065 -0.3760 -0.0020
  112MOL0     H15395  11.574  11.235  10.529 -0.1018 -0.1364 -0.2344
  112MOL0     H15396  11.741  11.184  10.504 -0.5493 -0.3723  0.0432
  112MOL0     H15397  11.504  11.160  10.310 -0.1059  3.5533 -0.8985
  112MOL0     H15398  11.661  11.086  10.277 -1.2514  0.8214 -3.2913
  112MOL0     H15399  11.580  11.388  10.314 -0.9740 -0.3128 -1.5064
  112MOL0     H15400  11.747  11.340  10.292 -0.6560  1.4928  1.9059
  112MOL0     H15401  11.649  11.427  10.075 -1.3023  0.3282 -1.1833
  112MOL0     H15402  11.514  11.314  10.093  0.0320 -2.2512  1.0841
  112MOL0     H15403  11.794  11.195  10.092 -0.0126 -1.2550 -1.1419
  112MOL0     H15404  11.636  11.138  10.035  0.3152 -1.6566  0.3099
  112MOL0     H15405  11.967  11.238   9.919 -0.6968 -1.9066 -0.2842
  112MOL0     H15406  12.003  11.142   9.608 -1.1922  0.0863 -0.9756
  112MOL0     H15407  12.069  11.305   9.675 -1.0227  0.8578  2.0126
  112MOL0     H15408  11.872  11.257   9.431 -0.9012  2.8746 -0.1789
  112MOL0     H15409  11.914  11.410   9.495  1.1356 -0.8006  1.3505
  112MOL0     H15410  12.164  11.350   9.464  0.4635  2.4542 -1.7936
  112MOL0     H15411  12.106  11.210   9.368  0.8553  0.1001  0.2459
  112MOL0     H15412  12.015  11.338   9.212 -3.1108  0.0590  2.4809
  112MOL0     H15413  12.037  11.497   9.296 -0.7423 -0.6784 -2.4895
  112MOL0     H15414  12.185  11.605   9.418 -0.0284 -1.6040  0.6565
  112MOL0     H15415  12.269  11.887   9.466  0.0535  0.8671  2.7474
  112MOL0     H15416  12.423  11.836   9.558 -0.4307  2.4545 -0.4191
  112MOL0     H15417  12.273  11.758   9.581 -0.2939 -2.6612 -0.7748
  112MOL0     H15418  12.775  11.768   9.113  0.2867 -2.4495  0.8286
  112MOL0     H15419  12.966  11.911   9.021  0.5115  0.9183  0.3663
  112MOL0     H15420  13.193  12.176   9.001  0.9787 -0.2684  2.1712
  112MOL0     H15421  13.044  12.093   8.965 -2.1386  0.3125  0.4098
  112MOL0     H15422  12.928  12.220   9.125  0.1255 -2.3442 -1.0436
  112MOL0     H15423  13.085  12.300   9.187 -0.4841 -0.3797  0.0113
  112MOL0     H15424  12.955  12.308   8.906 -0.4928 -1.8078  1.7477
  112MOL0     H15425  13.091  12.405   8.964  1.6328 -2.2582  0.7099
  112MOL0     H15426  12.923  12.485   9.160 -1.2775 -1.4783  0.5363
  112MOL0     H15427  12.793  12.409   9.055 -0.5636  0.3499 -0.8388
  112MOL0     H15428  12.873  12.569   8.866 -1.0631  3.0233 -0.2220
  112MOL0     H15429  12.795  12.638   9.003 -1.5843 -2.2716  0.6016
  112MOL0     H15430  13.080  12.652   9.062 -1.4466 -1.8996  0.5493
  112MOL0     H15431  12.945  12.760   9.071 -1.3148  2.6488 -3.2398
  112MOL0     H15432  12.957  12.785   8.804 -0.1743  0.4318  0.9244
  112MOL0     H15433  13.105  12.697   8.803 -0.4316 -1.0916 -0.0969
  112MOL0     H15434  13.064  12.952   8.972  1.9860  0.0225  1.4703
  112MOL0     H15435  13.167  12.934   8.823 -0.5181 -0.2379 -0.0413
  112MOL0     H15436  13.072  12.036   9.404  0.5720 -2.6558  1.7658
  112MOL0     H15437  12.897  11.928   9.507 -2.7013  1.4989 -0.0805
  112MOL0     H15438  12.622  11.631   9.164 -0.3971  1.6025 -0.5938
  112MOL0     H15439  12.448  11.458   9.100 -1.4494 -1.3928  1.2310
  112MOL0     H15440  11.250  11.217  10.782  0.5943 -0.4365 -1.4071
  112MOL0     H15441  11.067  11.271  10.935  2.7332  2.4167  2.6009
  112MOL0     H15442  10.710  11.093  11.104 -1.8189 -2.3076  2.6987
  112MOL0     H15443  10.484  11.160  11.159  1.1240  0.9448 -0.8351
  112MOL0     H15444  10.415  11.559  11.364 -1.5777  0.7453  1.3925
  112MOL0     H15445  10.412  11.547  11.182  3.2736 -1.5440  0.5821
  112MOL0     H15446  10.177  11.444  11.224  3.5095 -3.0132  0.0753
  112MOL0     H15447  10.198  11.614  11.215  0.6713  1.1899  0.9719
  112MOL0     H15448  10.166  11.417  11.449 -0.0200 -0.5240 -0.3889
  112MOL0     H15449  10.229  11.580  11.487 -2.7311  2.6220  0.4671
  112MOL0     H15450   9.982  11.549  11.329  2.2792  0.2733 -0.8114
  112MOL0     H15451  10.061  11.698  11.386  2.6348 -0.2598  1.3052
  112MOL0     H15452   9.837  11.578  11.719 -1.7852  1.1078 -2.6510
  112MOL0     H15453  10.617  11.471  11.418 -1.3294 -2.7452  1.6612
  112MOL0     H15454  10.962  11.360  11.437  2.1871  3.1995  0.7404
  112MOL0     H15455  10.940  11.495  11.333 -1.1713 -0.0678 -0.7304
  112MOL0     H15456  10.830  11.462  11.481 -0.9125  0.2710 -0.0317
  113MOL0     O15457   8.581   9.050   2.325  0.7556  0.0478  0.3007
  113MOL0     C15458   8.595   8.935   2.374  0.3968 -0.1868 -0.5629
  113MOL0     O15459   8.692   8.895   2.457 -0.5184  0.0497  0.3118
  113MOL0     C15460   8.806   8.975   2.471 -0.5742 -0.3236 -0.2933
  113MOL0     C15461   8.923   8.936   2.421  0.1177 -0.3425  0.3922
  113MOL0     C15462   9.039   9.017   2.430 -0.3735 -0.4111 -0.0490
  113MOL0     C15463   9.033   9.139   2.500  0.0528 -0.0918 -0.2084
  113MOL0     O15464   9.143   9.215   2.520  0.3818 -0.0855 -0.1200
  113MOL0     C15465   9.129   9.358   2.501 -0.5564 -0.0010  0.4061
  113MOL0     C15466   9.227   9.428   2.587  0.0776 -0.4980  0.4855
  113MOL0     C15467   9.362   9.446   2.520 -0.2473  0.3847 -0.2748
  113MOL0     C15468   9.472   9.501   2.612  0.1190  0.4338  0.0637
  113MOL0     C15469   9.605   9.521   2.545 -0.1695  0.5347 -0.3210
  113MOL0     C15470   9.604   9.644   2.455  0.3507  0.3309 -0.3106
  113MOL0     C15471   9.728   9.683   2.367 -0.2750 -0.1209 -0.3369
  113MOL0     C15472   9.860   9.689   2.443 -0.9437 -0.2804 -0.5301
  113MOL0     N15473   9.975   9.704   2.350  0.3711  0.2179  0.9042
  113MOL0     C15474  10.037   9.602   2.278  0.1957  0.0567 -0.7743
  113MOL0     C15475  10.153   9.650   2.229  0.9000 -0.2950 -0.2170
  113MOL0     C15476  10.255   9.577   2.152 -0.0180  0.1096  0.0021
  113MOL0     C15477  10.379   9.661   2.119  0.6615  0.4654 -0.4806
  113MOL0     C15478  10.492   9.570   2.052  0.5017 -0.4797  0.1336
  113MOL0     C15479  10.618   9.655   2.020 -0.6962  0.0780  0.8853
  113MOL0     O15480  10.658   9.710   2.146  0.7035  0.4987 -0.4587
  113MOL0     C15481  10.775   9.786   2.145  0.3848  0.4114  0.2478
  113MOL0     C15482  10.794   9.883   2.247 -0.4012 -0.0767 -0.4929
  113MOL0     C15483  10.911   9.951   2.277 -0.7824 -0.3219 -0.0153
  113MOL0     C15484  10.908  10.026   2.409 -0.5242  0.3991  0.2451
  113MOL0     C15485  11.011   9.960   2.172 -0.4169 -0.6273  0.1005
  113MOL0     C15486  11.139  10.031   2.172 -0.7046  0.3774 -0.1997
  113MOL0     O15487  11.213  10.033   2.053  0.6276 -0.1475 -0.5340
  113MOL0     C15488  11.344  10.075   2.037 -0.0833 -0.4430  0.7888
  113MOL0     C15489  11.382  10.190   2.101  0.4718 -0.0907 -0.4116
  113MOL0     C15490  11.514  10.238   2.087  0.2770  0.2019  0.4496
  113MOL0     C15491  11.606  10.177   2.006 -0.1193  0.3722 -0.1452
  113MOL0     O15492  11.736  10.230   1.997  0.1758 -0.4149  0.3461
  113MOL0     C15493  11.736  10.352   1.927 -0.3337 -0.4798  0.1027
  113MOL0     C15494  11.882  10.381   1.879 -1.1751 -0.2291  0.7349
  113MOL0     C15495  11.985  10.404   1.985  0.1994 -0.8449 -0.3324
  113MOL0     C15496  12.129  10.408   1.943  1.1286 -1.0185  0.4147
  113MOL0     C15497  12.222  10.375   2.061  0.0448 -0.1086  0.1849
  113MOL0     C15498  12.371  10.395   2.020  0.0098  0.6189  0.1284
  113MOL0     C15499  12.455  10.470   2.123  0.7135 -0.0713 -0.4786
  113MOL0     C15500  12.597  10.467   2.074 -0.3858 -0.5021 -0.9047
  113MOL0    Cl15501  12.697  10.545   2.192  0.0782  0.4534  0.0065
  113MOL0     C15502  11.568  10.061   1.929  0.9596 -0.1445 -0.7442
  113MOL0     C15503  11.436  10.016   1.950 -0.3033  0.4827 -0.1877
  113MOL0     O15504  11.164  10.096   2.275 -0.3282  0.5666  0.5085
  113MOL0     C15505  11.001   9.862   2.070 -0.0637 -0.2576 -0.6455
  113MOL0     C15506  10.888   9.775   2.066 -0.3643 -0.3712 -1.1114
  113MOL0     N15507  10.157   9.782   2.269 -0.7855  0.3095  0.3806
  113MOL0     N15508  10.053   9.812   2.333  0.5629  0.3678 -0.2949
  113MOL0     C15509   8.917   9.170   2.576 -0.1822  0.4023  0.0585
  113MOL0     C15510   8.807   9.088   2.560  0.3183 -0.1450 -0.3858
  113MOL0     C15511   8.490   8.831   2.349 -0.4901 -0.2533 -0.1987
  113MOL0     C15512   8.495   8.714   2.420  0.3361  0.1202  0.1497
  113MOL0     C15513   8.395   8.615   2.406  1.2102  1.2811 -0.6747
  113MOL0     C15514   8.286   8.636   2.324 -0.4656 -0.9107 -0.2696
  113MOL0     O15515   8.188   8.545   2.294  0.1648  0.6332  0.1615
  113MOL0     C15516   8.157   8.438   2.384  0.8072 -0.4902 -0.4277
  113MOL0     C15517   8.049   8.333   2.335 -0.2646 -0.1009  0.0500
  113MOL0     C15518   7.910   8.397   2.325  0.2351 -0.1988 -0.2318
  113MOL0     C15519   7.801   8.292   2.292 -0.1386 -0.0360 -0.1620
  113MOL0     C15520   7.662   8.345   2.263 -0.4646  0.1476  0.8602
  113MOL0     C15521   7.555   8.372   2.216  0.9247 -0.0133 -0.6584
  113MOL0     C15522   8.281   8.750   2.256  0.4337 -0.6759 -0.4708
  113MOL0     C15523   8.372   8.859   2.272 -0.4702  0.6334  0.1529
  113MOL0     C15524   8.339   8.981   2.189  0.5647  0.0326 -0.3917
  113MOL0     H15525   8.934   8.852   2.353  0.2485 -0.5858  0.7107
  113MOL0     H15526   9.132   9.006   2.375 -1.6380 -3.8908 -1.7876
  113MOL0     H15527   9.025   9.387   2.519 -0.6969  0.0337 -0.4443
  113MOL0     H15528   9.162   9.373   2.398  1.5191 -3.5379  0.3945
  113MOL0     H15529   9.188   9.529   2.600  0.6888  0.3594 -3.3509
  113MOL0     H15530   9.231   9.380   2.686 -3.2004 -1.8170  0.1190
  113MOL0     H15531   9.397   9.348   2.485  2.1537  1.4142 -0.9619
  113MOL0     H15532   9.347   9.506   2.431  0.0464  1.8256  0.6211
  113MOL0     H15533   9.439   9.591   2.664 -1.7045  1.6768 -2.9871
  113MOL0     H15534   9.496   9.427   2.690  2.8429  1.1331 -0.0001
  113MOL0     H15535   9.618   9.431   2.485 -1.6828 -0.0690  0.2173
  113MOL0     H15536   9.685   9.530   2.619 -2.0099  1.4176  1.6628
  113MOL0     H15537   9.517   9.637   2.389  0.4925  0.8658 -0.5635
  113MOL0     H15538   9.585   9.726   2.525  1.0428  0.6223 -0.4552
  113MOL0     H15539   9.704   9.774   2.311 -2.5740 -0.1368  0.5128
  113MOL0     H15540   9.722   9.600   2.297 -3.0575  1.7370 -2.5266
  113MOL0     H15541   9.854   9.772   2.514 -0.7053 -0.4991 -0.2489
  113MOL0     H15542   9.875   9.599   2.504 -0.6372  0.0240 -0.1450
  113MOL0     H15543  10.002   9.501   2.261  1.5340 -0.9211  1.8389
  113MOL0     H15544  10.200   9.550   2.062 -2.0487  2.3119  0.4672
  113MOL0     H15545  10.274   9.484   2.206  0.3984  0.7959  1.0774
  113MOL0     H15546  10.352   9.746   2.056  1.5371  0.0933 -1.4024
  113MOL0     H15547  10.417   9.697   2.215 -0.6477  1.8027 -0.4347
  113MOL0     H15548  10.522   9.487   2.116  1.3053 -1.3965 -1.3570
  113MOL0     H15549  10.446   9.536   1.959  1.7761 -0.4444 -0.5276
  113MOL0     H15550  10.700   9.592   1.984 -1.2007  0.2590 -0.6117
  113MOL0     H15551  10.605   9.737   1.949 -0.5402 -2.1522 -1.8549
  113MOL0     H15552  10.717   9.903   2.321  0.8177  0.1717  0.7303
  113MOL0     H15553  10.960  10.122   2.403 -2.2507  1.3846  0.3777
  113MOL0     H15554  10.960   9.961   2.480 -1.4659 -0.3724  0.2496
  113MOL0     H15555  10.807  10.058   2.439 -1.7794 -0.2252 -2.9013
  113MOL0     H15556  11.326  10.236   2.180  0.0956 -1.3899  0.1126
  113MOL0     H15557  11.546  10.331   2.133 -0.6838  0.6911  0.1544
  113MOL0     H15558  11.672  10.348   1.839 -1.6843  3.0170  0.7802
  113MOL0     H15559  11.694  10.435   1.985 -2.1347 -1.9494  1.0017
  113MOL0     H15560  11.928  10.297   1.826  0.7601  0.9815  0.3699
  113MOL0     H15561  11.886  10.464   1.807 -0.3473 -1.3760 -0.5843
  113MOL0     H15562  11.973  10.335   2.068 -3.5123  0.0874  0.0990
  113MOL0     H15563  11.966  10.501   2.032  2.8525  0.9585 -2.6665
  113MOL0     H15564  12.151  10.509   1.907  2.5978 -2.1557 -2.0923
  113MOL0     H15565  12.156  10.338   1.864  0.3590  1.4952 -2.2757
  113MOL0     H15566  12.201  10.435   2.149 -1.4797  1.4183 -1.1525
  113MOL0     H15567  12.200  10.268   2.072  1.6552 -0.3816  1.1546
  113MOL0     H15568  12.380  10.443   1.922 -0.0456 -2.5273 -1.5304
  113MOL0     H15569  12.408  10.294   2.005  0.2618  0.8288 -0.7369
  113MOL0     H15570  12.450  10.414   2.217  1.8443 -0.8467 -0.8577
  113MOL0     H15571  12.405  10.567   2.137 -2.1038 -1.3770 -0.9759
  113MOL0     H15572  12.606  10.526   1.982 -5.0510  2.5939  0.2860
  113MOL0     H15573  12.619  10.364   2.043 -1.0611 -0.8587 -0.2200
  113MOL0     H15574  11.635  10.001   1.868  0.4101  0.5521 -2.0710
  113MOL0     H15575  11.404   9.924   1.900  1.9829  0.7160 -2.2971
  113MOL0     H15576  11.082   9.835   2.002  0.2163 -0.3368 -0.2870
  113MOL0     H15577  10.887   9.690   1.998 -3.0836 -1.8389  0.5931
  113MOL0     H15578   8.921   9.255   2.643  0.1248 -1.2184  2.2174
  113MOL0     H15579   8.719   9.109   2.620  2.2450  1.9988  1.9246
  113MOL0     H15580   8.573   8.701   2.494 -1.1801 -0.5752  1.6957
  113MOL0     H15581   8.404   8.527   2.469  1.8622  0.4573 -1.8725
  113MOL0     H15582   8.249   8.383   2.404  0.2444 -1.7957 -1.3372
  113MOL0     H15583   8.126   8.485   2.479  0.6025  0.4975 -0.9675
  113MOL0     H15584   8.041   8.257   2.413  1.1155  2.3589  2.8275
  113MOL0     H15585   8.091   8.284   2.247 -0.1752 -0.0086  0.0405
  113MOL0     H15586   7.875   8.432   2.423  0.4188 -0.0035 -0.2349
  113MOL0     H15587   7.912   8.485   2.261 -0.2252  0.3865  0.5351
  113MOL0     H15588   7.798   8.223   2.376  2.7057 -1.4194 -1.0747
  113MOL0     H15589   7.841   8.245   2.201 -1.0327 -0.7972 -0.1758
  113MOL0     H15590   7.451   8.399   2.211  0.9930  0.6366  0.9133
  113MOL0     H15591   8.197   8.766   2.188  0.7163  0.6107 -0.5389
  113MOL0     H15592   8.236   8.983   2.154  0.2406  0.1836  0.5250
  113MOL0     H15593   8.336   9.061   2.264 -0.5275  0.2787 -0.6900
  113MOL0     H15594   8.412   9.010   2.113  0.9214  1.7902  0.5632
  114MOL0     O15595  10.996   9.377   3.785  0.9200 -0.0142 -0.0054
  114MOL0     C15596  10.953   9.358   3.670 -0.2857 -0.6039  0.3661
  114MOL0     O15597  11.016   9.294   3.568  0.3576 -0.4289  0.1375
  114MOL0     C15598  11.150   9.288   3.577 -0.6056  0.9321 -0.1425
  114MOL0     C15599  11.219   9.249   3.697  0.5599  0.2925 -0.1345
  114MOL0     C15600  11.364   9.256   3.698  0.6821  0.3584  0.0557
  114MOL0     C15601  11.437   9.302   3.590 -0.0562  0.2194  0.4732
  114MOL0     O15602  11.573   9.308   3.602 -0.0463 -0.1350  0.1782
  114MOL0     C15603  11.640   9.331   3.728  0.7117  0.5822 -0.5161
  114MOL0     C15604  11.793   9.315   3.707  0.9717 -0.0603  1.0327
  114MOL0     C15605  11.847   9.428   3.619  0.0873 -0.6893 -0.4646
  114MOL0     C15606  11.850   9.568   3.698 -0.8390 -0.7696 -0.1396
  114MOL0     C15607  11.960   9.585   3.798 -0.1178 -0.5657 -0.2300
  114MOL0     C15608  12.027   9.719   3.791 -0.0497 -0.1239 -0.3773
  114MOL0     C15609  12.136   9.732   3.682  0.3986 -1.0177  0.2050
  114MOL0     C15610  12.174   9.875   3.668 -0.2500  0.5669  0.7393
  114MOL0     N15611  12.294   9.910   3.582  0.2259 -0.4492 -0.5193
  114MOL0     C15612  12.328  10.038   3.534 -0.0264  0.8999 -0.3810
  114MOL0     C15613  12.455  10.026   3.475 -0.4740 -0.1221 -0.4117
  114MOL0     C15614  12.542  10.136   3.412 -0.0265 -0.4621 -0.3413
  114MOL0     C15615  12.475  10.270   3.382 -0.5040  1.2368 -0.1413
  114MOL0     C15616  12.556  10.374   3.290  0.2304  0.2050 -0.4819
  114MOL0     C15617  12.610  10.313   3.156 -0.5735 -0.3828  0.4819
  114MOL0     O15618  12.723  10.233   3.190 -0.1006 -0.0351  0.4575
  114MOL0     C15619  12.817  10.217   3.093  0.2716 -0.5279 -0.2100
  114MOL0     C15620  12.935  10.298   3.081  0.1777 -0.0857  0.4114
  114MOL0     C15621  13.018  10.277   2.970 -0.6958 -0.0268  0.1507
  114MOL0     C15622  13.114  10.387   2.944 -1.1015 -0.5391 -0.0721
  114MOL0     C15623  12.999  10.157   2.891  0.4753 -0.9672  0.2729
  114MOL0     C15624  13.102  10.100   2.796 -0.0651  0.2122  0.1496
  114MOL0     O15625  13.055  10.002   2.714 -0.1601 -0.2604 -0.1721
  114MOL0     C15626  13.136   9.938   2.625 -0.6890 -0.2178 -0.5830
  114MOL0     C15627  13.179   9.996   2.507  0.5121  0.4832  0.2759
  114MOL0     C15628  13.253   9.924   2.413 -0.2442  0.2916  0.1782
  114MOL0     C15629  13.269   9.784   2.426  0.7354  0.4467  0.3903
  114MOL0     O15630  13.352   9.718   2.339  0.0141  0.2350 -0.0985
  114MOL0     C15631  13.301   9.700   2.205  0.4605  0.1163 -0.0462
  114MOL0     C15632  13.232   9.567   2.176 -0.3464 -0.1424 -0.8729
  114MOL0     C15633  13.145   9.560   2.050  0.5448  0.1691 -0.5292
  114MOL0     C15634  13.029   9.648   2.062 -0.6602  0.1551 -0.0720
  114MOL0     C15635  12.924   9.600   1.952  0.7589  0.6707 -0.1605
  114MOL0     C15636  12.825   9.713   1.921 -0.6325  0.4742 -0.5651
  114MOL0     C15637  12.881   9.826   1.845 -0.5593  0.0318 -0.0859
  114MOL0     C15638  12.779   9.908   1.769  0.2295 -0.1884 -0.2427
  114MOL0    Cl15639  12.661   9.973   1.895  0.4036 -0.3310  0.3250
  114MOL0     C15640  13.209   9.719   2.538  0.5077 -0.5468  0.0931
  114MOL0     C15641  13.155   9.801   2.637 -0.4697  0.1171 -1.2518
  114MOL0     O15642  13.220  10.137   2.799 -0.0259 -0.1720 -0.7384
  114MOL0     C15643  12.880  10.087   2.905  0.2585  0.6380  0.5071
  114MOL0     C15644  12.790  10.123   3.006 -0.5539  0.1526  0.3692
  114MOL0     N15645  12.489   9.891   3.481 -1.0562  0.1038 -0.5448
  114MOL0     N15646  12.396   9.833   3.547 -0.0630 -0.0410  0.0106
  114MOL0     C15647  11.368   9.327   3.468  0.0683 -0.4452 -0.9743
  114MOL0     C15648  11.226   9.326   3.467  0.1596  0.0297  0.0758
  114MOL0     C15649  10.810   9.401   3.645  0.3770  0.6889  0.3607
  114MOL0     C15650  10.734   9.427   3.762 -0.0998 -0.3929  0.3704
  114MOL0     C15651  10.598   9.446   3.748 -0.8055 -0.1062 -0.2106
  114MOL0     C15652  10.540   9.477   3.627 -0.7013  0.1045 -0.3610
  114MOL0     O15653  10.407   9.520   3.634  0.0861  0.1684 -0.7426
  114MOL0     C15654  10.332   9.537   3.510  0.3273  0.0004 -0.4479
  114MOL0     C15655  10.183   9.564   3.531 -0.5589 -0.5166  0.6153
  114MOL0     C15656  10.096   9.439   3.542 -0.3480  0.0329  1.4924
  114MOL0     C15657   9.956   9.484   3.586 -0.2270 -0.3570  0.1399
  114MOL0     C15658   9.886   9.569   3.493  0.2525  0.7121  0.1210
  114MOL0     C15659   9.830   9.644   3.417 -0.2529 -0.2954  0.0255
  114MOL0     C15660  10.619   9.458   3.510 -0.5024 -0.0805  0.5315
  114MOL0     C15661  10.749   9.413   3.517  0.5548 -0.3536  0.2505
  114MOL0     C15662  10.802   9.363   3.387  0.2777  0.0611 -0.2045
  114MOL0     H15663  11.163   9.216   3.784  0.4465 -3.4588 -1.4649
  114MOL0     H15664  11.403   9.226   3.794 -1.0877  2.1558  1.4217
  114MOL0     H15665  11.604   9.270   3.811  2.3974 -0.6254 -0.6244
  114MOL0     H15666  11.621   9.429   3.773  0.6348 -0.1951  1.2367
  114MOL0     H15667  11.853   9.302   3.797  1.0508 -0.0676  0.9789
  114MOL0     H15668  11.802   9.220   3.654 -0.6422 -0.3681  1.2433
  114MOL0     H15669  11.949   9.399   3.596  0.4579 -0.5450  0.9016
  114MOL0     H15670  11.783   9.438   3.530 -4.2862 -2.1092  2.1884
  114MOL0     H15671  11.868   9.641   3.619  0.6502  0.3015  1.1241
  114MOL0     H15672  11.750   9.589   3.736 -0.7689 -1.6043  0.5401
  114MOL0     H15673  12.036   9.513   3.768 -1.4555 -0.7264 -3.6605
  114MOL0     H15674  11.931   9.562   3.901 -0.4858 -2.3423 -0.7057
  114MOL0     H15675  11.947   9.792   3.775 -0.4184  0.3052  2.7520
  114MOL0     H15676  12.071   9.745   3.888 -0.0911  0.8901 -0.6160
  114MOL0     H15677  12.106   9.707   3.580 -1.5180 -1.2992  0.8098
  114MOL0     H15678  12.221   9.665   3.702 -0.1598 -2.0743 -0.8064
  114MOL0     H15679  12.088   9.924   3.622 -1.6668  0.1986  2.8315
  114MOL0     H15680  12.185   9.923   3.766 -0.2081  1.0756  0.4888
  114MOL0     H15681  12.267  10.127   3.547 -0.9599 -0.0679  2.5884
  114MOL0     H15682  12.572  10.082   3.322 -3.7438 -1.5519 -1.1052
  114MOL0     H15683  12.626  10.170   3.473 -0.8075  0.8134  0.0653
  114MOL0     H15684  12.384  10.252   3.324 -0.7008  0.0694  0.5018
  114MOL0     H15685  12.440  10.322   3.471 -1.1586  5.2090 -2.4874
  114MOL0     H15686  12.480  10.446   3.260 -0.8664 -1.1518 -1.0809
  114MOL0     H15687  12.640  10.427   3.337  3.2100 -3.3367 -1.3215
  114MOL0     H15688  12.527  10.261   3.108 -1.9160  0.6160  1.6396
  114MOL0     H15689  12.644  10.394   3.092  0.3580  0.4910  2.0100
  114MOL0     H15690  12.953  10.390   3.136  0.8121 -1.5258  2.7959
  114MOL0     H15691  13.101  10.421   2.841  0.1054 -0.7266 -0.2953
  114MOL0     H15692  13.217  10.351   2.948 -0.0440  2.0937 -1.0679
  114MOL0     H15693  13.114  10.475   3.010 -1.5131 -2.4689  2.6871
  114MOL0     H15694  13.163  10.103   2.493  1.6755  0.5719 -0.4730
  114MOL0     H15695  13.297   9.982   2.332  0.1284  1.2193  1.0186
  114MOL0     H15696  13.227   9.774   2.173 -2.3518 -2.5081 -0.0636
  114MOL0     H15697  13.393   9.712   2.147  0.5854 -2.7243 -0.5380
  114MOL0     H15698  13.315   9.497   2.162  0.5840  0.2817  1.9995
  114MOL0     H15699  13.176   9.530   2.262  2.6003 -0.9371  0.8716
  114MOL0     H15700  13.098   9.461   2.040 -0.7060  0.5261  1.3933
  114MOL0     H15701  13.197   9.589   1.958 -2.2284  4.0552 -1.1186
  114MOL0     H15702  13.056   9.750   2.034 -1.7174  1.1046  2.0885
  114MOL0     H15703  12.981   9.648   2.160 -1.4086  1.3409 -0.4246
  114MOL0     H15704  12.976   9.566   1.861 -0.6386  1.8672 -1.4494
  114MOL0     H15705  12.863   9.515   1.984  0.5660  1.0142  0.3817
  114MOL0     H15706  12.791   9.752   2.018  0.8683 -0.6455  0.4625
  114MOL0     H15707  12.740   9.675   1.864  0.1242  0.7479 -1.9086
  114MOL0     H15708  12.956   9.788   1.776  1.0506  0.0466  1.5769
  114MOL0     H15709  12.932   9.895   1.913  1.5524 -0.0776 -1.4676
  114MOL0     H15710  12.735   9.830   1.706  1.7394 -0.5671 -0.8687
  114MOL0     H15711  12.837   9.984   1.715  0.5039  1.1842  1.8556
  114MOL0     H15712  13.249   9.619   2.552  2.4699 -0.1993 -2.4992
  114MOL0     H15713  13.133   9.751   2.731 -0.0245  0.4328 -0.9754
  114MOL0     H15714  12.861   9.998   2.846  0.1295 -0.4778  2.1652
  114MOL0     H15715  12.698  10.066   3.018  0.3419 -1.4499  0.0006
  114MOL0     H15716  11.435   9.340   3.384 -0.1522 -1.5833 -1.3365
  114MOL0     H15717  11.172   9.368   3.383 -0.8390  1.8421  1.5524
  114MOL0     H15718  10.771   9.422   3.864 -3.4723 -1.9663  1.6853
  114MOL0     H15719  10.537   9.456   3.837  0.0450 -0.2255  0.3926
  114MOL0     H15720  10.386   9.624   3.471 -0.4952  1.9260  2.4043
  114MOL0     H15721  10.340   9.448   3.448 -1.0939  0.1615 -0.8944
  114MOL0     H15722  10.149   9.618   3.442 -0.7641 -1.6584 -0.0227
  114MOL0     H15723  10.170   9.624   3.621  0.4498  1.5516 -0.5510
  114MOL0     H15724  10.088   9.382   3.449 -4.5405  0.9887  1.0668
  114MOL0     H15725  10.138   9.369   3.615 -0.4477 -3.1490 -1.2347
  114MOL0     H15726   9.959   9.529   3.686  0.4752  0.9577 -0.4523
  114MOL0     H15727   9.886   9.401   3.591 -0.9000  0.2527  1.9627
  114MOL0     H15728   9.782   9.711   3.349  1.3170 -1.7489 -2.6746
  114MOL0     H15729  10.572   9.486   3.416  2.5706 -1.1562 -1.4674
  114MOL0     H15730  10.899   9.405   3.360  0.7501 -0.7540  0.1916
  114MOL0     H15731  10.818   9.255   3.388 -1.9997 -0.4228 -2.7539
  114MOL0     H15732  10.724   9.384   3.312 -1.9525  2.3946  2.5273
  115MOL0     O15733   8.663   8.530   0.424 -0.0319  0.1469 -0.7090
  115MOL0     C15734   8.611   8.607   0.341 -0.4078 -0.3519  0.3466
  115MOL0     O15735   8.678   8.715   0.281 -0.1562  0.3603  0.0357
  115MOL0     C15736   8.804   8.747   0.317  0.0929 -0.1659  0.0553
  115MOL0     C15737   8.902   8.739   0.223  0.0815  0.2801  0.2337
  115MOL0     C15738   9.040   8.760   0.250  0.5186  0.0990  0.0270
  115MOL0     C15739   9.079   8.783   0.385 -0.0890  0.2755 -0.0456
  115MOL0     O15740   9.217   8.775   0.413 -0.2727  0.0307  0.3258
  115MOL0     C15741   9.249   8.700   0.529 -0.4277  0.5049 -0.3472
  115MOL0     C15742   9.394   8.663   0.500 -0.3314 -0.2253  0.3329
  115MOL0     C15743   9.450   8.575   0.603  0.0899  0.0937  0.3389
  115MOL0     C15744   9.454   8.625   0.750  0.4874  0.5715 -0.4933
  115MOL0     C15745   9.540   8.748   0.757  0.2714  0.3399 -0.4341
  115MOL0     C15746   9.529   8.807   0.902  0.6282 -0.3795 -0.0009
  115MOL0     C15747   9.586   8.710   1.005 -0.3828  0.4186 -0.5211
  115MOL0     C15748   9.652   8.796   1.122  0.2921  0.5722  0.2438
  115MOL0     N15749   9.715   8.726   1.238  0.0248 -0.1369  0.5713
  115MOL0     C15750   9.657   8.682   1.357 -0.2166 -0.8155  0.6774
  115MOL0     C15751   9.750   8.617   1.430 -0.0095 -0.6064  0.1901
  115MOL0     C15752   9.756   8.550   1.568 -0.3403 -0.4399  0.0161
  115MOL0     C15753   9.907   8.566   1.621 -0.1768  0.1756 -0.3407
  115MOL0     C15754   9.919   8.498   1.762 -0.6789 -0.5894 -0.3452
  115MOL0     C15755  10.048   8.543   1.833 -0.1922  0.8930 -0.9837
  115MOL0     O15756  10.075   8.440   1.929  0.0820  0.3490 -0.2064
  115MOL0     C15757  10.180   8.460   2.019 -0.1601 -0.2093 -0.1956
  115MOL0     C15758  10.258   8.567   2.032 -0.5688 -0.3444 -0.2846
  115MOL0     C15759  10.366   8.584   2.121  0.5032  0.3690  0.7040
  115MOL0     C15760  10.451   8.703   2.102  0.0973  1.0277  1.1330
  115MOL0     C15761  10.396   8.474   2.209  0.5447 -0.7301 -0.2842
  115MOL0     C15762  10.509   8.479   2.304  0.6015  0.0151 -0.5474
  115MOL0     O15763  10.633   8.515   2.252 -0.0917  0.1851 -0.6951
  115MOL0     C15764  10.742   8.501   2.341 -0.5967 -0.4996 -0.0404
  115MOL0     C15765  10.864   8.484   2.277  0.0996  0.7248 -0.5968
  115MOL0     C15766  10.980   8.492   2.359  0.6737  0.9250  0.3808
  115MOL0     C15767  10.974   8.516   2.494 -1.1011 -0.2337 -0.5479
  115MOL0     O15768  11.100   8.521   2.539  0.0744  0.0094  0.8572
  115MOL0     C15769  11.123   8.549   2.677 -0.8072 -0.3260 -0.2562
  115MOL0     C15770  11.114   8.692   2.710  0.0495  0.0182  0.1627
  115MOL0     C15771  11.161   8.799   2.611 -0.2249 -0.5956 -0.1972
  115MOL0     C15772  11.134   8.937   2.663 -0.2992 -0.3756  0.1461
  115MOL0     C15773  11.159   9.052   2.556 -0.0472  0.3007 -0.5299
  115MOL0     C15774  11.159   9.189   2.615 -0.4935 -0.1538 -0.2602
  115MOL0     C15775  11.026   9.223   2.684 -0.1607 -0.3417  0.1696
  115MOL0     C15776  11.048   9.213   2.839 -0.2722  0.2172 -0.1807
  115MOL0    Cl15777  11.140   9.358   2.881  0.4479 -0.1743 -0.0242
  115MOL0     C15778  10.853   8.534   2.556  0.6882 -0.5194  0.7779
  115MOL0     C15779  10.738   8.525   2.481  0.3975  1.5019 -0.3260
  115MOL0     O15780  10.487   8.437   2.420  0.2480 -0.7036 -0.2328
  115MOL0     C15781  10.321   8.364   2.199  0.0518  0.9858  0.3314
  115MOL0     C15782  10.208   8.364   2.113 -0.6420 -0.1219  0.0216
  115MOL0     N15783   9.857   8.610   1.345 -0.1054 -0.3529  0.6495
  115MOL0     N15784   9.838   8.674   1.238 -0.5691  0.7137 -0.4057
  115MOL0     C15785   8.981   8.797   0.485 -0.4730  0.5518  0.3140
  115MOL0     C15786   8.843   8.769   0.454 -1.0349 -0.1350  0.3198
  115MOL0     C15787   8.476   8.576   0.288  0.1282 -0.3761  0.1333
  115MOL0     C15788   8.452   8.612   0.152 -0.2468 -0.2859  0.3975
  115MOL0     C15789   8.326   8.576   0.091 -0.5938 -0.2349  0.5714
  115MOL0     C15790   8.224   8.513   0.162 -0.0787 -1.0010 -0.4238
  115MOL0     O15791   8.094   8.476   0.119 -1.4594  0.3035 -0.0706
  115MOL0     C15792   8.071   8.485  -0.018 -1.0461 -0.0080  0.5685
  115MOL0     C15793   7.940   8.420  -0.061  0.0684  0.3412 -0.6470
  115MOL0     C15794   7.894   8.482  -0.191  0.8909 -0.6729 -0.0748
  115MOL0     C15795   7.748   8.436  -0.236  0.2339 -0.1053 -0.4542
  115MOL0     C15796   7.747   8.298  -0.273  0.2261  0.1563  0.3519
  115MOL0     C15797   7.780   8.195  -0.332  0.0807  0.5421  0.7174
  115MOL0     C15798   8.246   8.488   0.296  0.4208 -0.0339 -0.3158
  115MOL0     C15799   8.373   8.513   0.360 -0.2434 -0.2555  0.1636
  115MOL0     C15800   8.391   8.465   0.499  0.3139  0.0610 -0.5075
  115MOL0     H15801   8.874   8.703   0.125  2.0668  1.1069 -0.6932
  115MOL0     H15802   9.117   8.749   0.174 -0.0943  1.9288 -0.9098
  115MOL0     H15803   9.192   8.609   0.552  0.2815  0.3955  1.0393
  115MOL0     H15804   9.229   8.769   0.611 -3.1013  4.4453 -3.8381
  115MOL0     H15805   9.403   8.618   0.401 -0.6601  1.1814 -0.3595
  115MOL0     H15806   9.458   8.751   0.496  0.7436 -1.0259 -1.3520
  115MOL0     H15807   9.395   8.481   0.600  0.8702 -0.3441 -1.1630
  115MOL0     H15808   9.548   8.536   0.573 -1.0310 -3.0478  0.4802
  115MOL0     H15809   9.349   8.641   0.777 -1.2876 -5.3211 -2.4269
  115MOL0     H15810   9.478   8.538   0.811  1.0090  0.4419 -0.8730
  115MOL0     H15811   9.514   8.823   0.682  1.2300  1.4233  0.2732
  115MOL0     H15812   9.647   8.734   0.743  0.6627 -1.6054  3.2318
  115MOL0     H15813   9.586   8.900   0.900 -0.5763  0.3754 -0.8589
  115MOL0     H15814   9.426   8.839   0.925  1.2678  2.2341 -0.4403
  115MOL0     H15815   9.658   8.645   0.955 -0.8474 -1.1286  0.7664
  115MOL0     H15816   9.515   8.642   1.052  1.0123 -0.0167  1.0456
  115MOL0     H15817   9.733   8.846   1.068  1.2297 -1.1179  0.0179
  115MOL0     H15818   9.572   8.861   1.159 -0.1406 -0.3853  1.0242
  115MOL0     H15819   9.557   8.715   1.382  1.0599  2.0998  2.3723
  115MOL0     H15820   9.719   8.447   1.568  0.0738 -0.5922 -0.7992
  115MOL0     H15821   9.699   8.601   1.646  0.5588 -1.3722  1.3160
  115MOL0     H15822   9.981   8.519   1.555 -0.5144  0.7578 -1.1586
  115MOL0     H15823   9.940   8.671   1.622  2.7605 -0.6129 -2.3032
  115MOL0     H15824   9.837   8.508   1.834  1.3276 -0.2917  2.0391
  115MOL0     H15825   9.928   8.390   1.751 -1.9025 -0.9239  1.4468
  115MOL0     H15826  10.136   8.557   1.769  0.0517 -2.3397 -1.4915
  115MOL0     H15827  10.031   8.643   1.876  0.3924 -0.1276  1.8534
  115MOL0     H15828  10.227   8.649   1.968 -1.3680  0.6870  1.3734
  115MOL0     H15829  10.554   8.678   2.075  0.2592  1.3107  1.4891
  115MOL0     H15830  10.455   8.759   2.196  2.3361  0.8710  1.1746
  115MOL0     H15831  10.416   8.768   2.021  1.4004  0.6399  0.2330
  115MOL0     H15832  10.866   8.467   2.170  1.1799  0.6334 -0.5692
  115MOL0     H15833  11.077   8.471   2.315 -0.0824  0.0393 -0.9431
  115MOL0     H15834  11.044   8.497   2.732 -2.1457  0.3724 -1.4555
  115MOL0     H15835  11.220   8.522   2.720 -2.9219 -2.2936  3.8539
  115MOL0     H15836  11.009   8.721   2.722  0.5550  3.6303 -2.5045
  115MOL0     H15837  11.165   8.721   2.803  2.0166  1.5265 -1.3040
  115MOL0     H15838  11.110   8.783   2.516  0.1972 -2.1523 -0.2003
  115MOL0     H15839  11.270   8.789   2.600 -0.1769  0.0509 -0.3176
  115MOL0     H15840  11.209   8.948   2.742  1.4557 -2.1646 -1.1510
  115MOL0     H15841  11.034   8.935   2.706  0.5586 -0.7637  2.2235
  115MOL0     H15842  11.258   9.042   2.509 -0.5451  2.1065 -2.0961
  115MOL0     H15843  11.083   9.047   2.477 -0.0190  2.6927 -0.7848
  115MOL0     H15844  11.170   9.256   2.529 -1.3730 -1.0336 -1.0857
  115MOL0     H15845  11.246   9.190   2.681  1.8178 -2.9414 -2.9701
  115MOL0     H15846  10.954   9.150   2.649 -0.3467 -0.1456  0.1428
  115MOL0     H15847  10.989   9.324   2.661 -0.6744 -0.9966 -2.1287
  115MOL0     H15848  11.102   9.125   2.873 -0.2366  0.4787  0.4538
  115MOL0     H15849  10.956   9.230   2.897  0.1653  2.0165  0.0577
  115MOL0     H15850  10.849   8.546   2.664 -2.1443  3.8495  0.3830
  115MOL0     H15851  10.649   8.547   2.538 -0.5498  0.8989 -1.5101
  115MOL0     H15852  10.356   8.283   2.262 -0.4661  0.8611  0.4591
  115MOL0     H15853  10.138   8.281   2.102  0.0316 -0.7251  0.2103
  115MOL0     H15854   9.003   8.808   0.590 -0.3447  0.8350  0.2585
  115MOL0     H15855   8.780   8.770   0.543 -0.5141 -1.5802  0.7342
  115MOL0     H15856   8.533   8.654   0.093  1.4152  2.0275  3.9658
  115MOL0     H15857   8.321   8.590  -0.016 -1.6157  0.1548  0.6646
  115MOL0     H15858   8.065   8.590  -0.048 -0.6560 -0.8065 -2.6262
  115MOL0     H15859   8.155   8.434  -0.065 -0.6819 -1.6813  2.8659
  115MOL0     H15860   7.865   8.427   0.019  1.2980 -0.2163  0.6031
  115MOL0     H15861   7.960   8.313  -0.070  3.0752  0.5795  1.5480
  115MOL0     H15862   7.878   8.589  -0.176 -1.6811 -1.2109  1.6753
  115MOL0     H15863   7.968   8.482  -0.271  0.4398  0.3025 -0.5150
  115MOL0     H15864   7.724   8.501  -0.321  1.0122  0.6283 -0.1296
  115MOL0     H15865   7.680   8.454  -0.152  1.4308 -1.2551  0.8101
  115MOL0     H15866   7.798   8.095  -0.366 -3.6783  0.0975 -0.3534
  115MOL0     H15867   8.168   8.443   0.357 -0.5311  0.1155 -1.3800
  115MOL0     H15868   8.454   8.532   0.558 -1.1543  0.5401  0.5722
  115MOL0     H15869   8.293   8.451   0.545 -0.9800  1.1567 -2.7154
  115MOL0     H15870   8.449   8.372   0.496 -0.4991 -0.4359 -1.8881
  116MOL0     O15871   5.630  10.413   3.557  0.0267 -0.2948  0.1696
  116MOL0     C15872   5.621  10.292   3.560  1.4196  1.1778 -0.4541
  116MOL0     O15873   5.727  10.202   3.537  0.2921 -0.1003  0.9189
  116MOL0     C15874   5.858  10.244   3.552  0.1215 -0.1698 -0.0286
  116MOL0     C15875   5.926  10.330   3.454 -0.5194  0.4230  0.4183
  116MOL0     C15876   6.056  10.358   3.472  1.0572 -0.2606 -0.1769
  116MOL0     C15877   6.122  10.316   3.591  0.3607  0.2264  0.5156
  116MOL0     O15878   6.256  10.338   3.595  0.0542 -0.6678 -0.5743
  116MOL0     C15879   6.292  10.475   3.638 -0.3276  0.8008 -0.3553
  116MOL0     C15880   6.443  10.508   3.630 -0.3994 -0.3532 -0.5165
  116MOL0     C15881   6.473  10.626   3.722  0.0895 -0.6241 -0.7476
  116MOL0     C15882   6.586  10.717   3.676  0.0012 -0.0290  0.2110
  116MOL0     C15883   6.722  10.685   3.746 -0.1270  0.2288  0.1601
  116MOL0     C15884   6.827  10.788   3.742 -0.3859 -0.8920 -0.8614
  116MOL0     C15885   6.958  10.754   3.824 -0.7684 -0.6752 -0.1057
  116MOL0     C15886   7.039  10.887   3.820  0.4966 -0.4836 -0.2720
  116MOL0     N15887   7.152  10.866   3.912  0.1211 -0.5504 -0.0722
  116MOL0     C15888   7.166  10.821   4.045  0.6773  0.0754  0.7090
  116MOL0     C15889   7.299  10.816   4.063 -0.4604 -0.2888 -0.3159
  116MOL0     C15890   7.372  10.786   4.187 -0.4580  0.3103  0.2088
  116MOL0     C15891   7.352  10.887   4.302  0.2731  0.1495  0.9912
  116MOL0     C15892   7.439  10.860   4.427  0.2297 -0.3008  0.4185
  116MOL0     C15893   7.350  10.801   4.534 -0.3766  0.3973 -0.2216
  116MOL0     O15894   7.328  10.665   4.493  0.2323 -0.1955  0.4759
  116MOL0     C15895   7.205  10.607   4.505 -0.3671 -0.6710  0.5378
  116MOL0     C15896   7.104  10.654   4.594 -0.7321  0.2245  0.3178
  116MOL0     C15897   6.976  10.594   4.607  0.0366 -0.3611  1.1635
  116MOL0     C15898   6.878  10.663   4.694 -0.4925 -0.3235  0.2995
  116MOL0     C15899   6.950  10.471   4.540  0.1629 -0.3258 -0.2206
  116MOL0     C15900   6.834  10.388   4.584  0.3593  0.9898  0.9547
  116MOL0     O15901   6.850  10.261   4.539  0.6294  0.0776  0.5555
  116MOL0     C15902   6.747  10.169   4.555 -0.7985  0.4325 -0.9862
  116MOL0     C15903   6.793  10.037   4.582 -0.2472  0.3343 -0.1844
  116MOL0     C15904   6.706   9.934   4.579 -0.0858  0.0898  0.7124
  116MOL0     C15905   6.567   9.959   4.539  0.0331  0.5516 -0.6290
  116MOL0     O15906   6.478   9.858   4.543  0.2248 -0.0005 -0.1392
  116MOL0     C15907   6.409   9.852   4.669  0.1221 -0.5404  0.4351
  116MOL0     C15908   6.353   9.712   4.688  0.0396 -1.0415  0.2891
  116MOL0     C15909   6.214   9.705   4.640 -0.0240  0.2009  0.6989
  116MOL0     C15910   6.146   9.563   4.656  0.0850  0.5147  0.0264
  116MOL0     C15911   6.019   9.544   4.576 -0.1461  0.2998 -0.3018
  116MOL0     C15912   5.954   9.412   4.609 -0.5731 -0.1164 -0.2546
  116MOL0     C15913   5.806   9.395   4.568 -0.1123  0.7342 -0.9362
  116MOL0     C15914   5.741   9.268   4.628 -1.0931 -0.8003  0.2022
  116MOL0    Cl15915   5.562   9.263   4.626 -0.1764  0.0670 -0.2393
  116MOL0     C15916   6.523  10.084   4.518 -0.5775 -0.3286  0.9101
  116MOL0     C15917   6.616  10.192   4.520  0.0195 -0.3886  0.2112
  116MOL0     O15918   6.750  10.423   4.665 -0.0018  0.5681 -0.4462
  116MOL0     C15919   7.060  10.424   4.456  0.0956  0.5325  0.1432
  116MOL0     C15920   7.179  10.494   4.434 -0.5157  0.5517 -0.3867
  116MOL0     N15921   7.368  10.861   3.955  0.0964  0.3912  1.1572
  116MOL0     N15922   7.276  10.890   3.870 -0.4224 -0.5944 -0.6206
  116MOL0     C15923   6.060  10.244   3.692  0.9822  0.3861  0.1095
  116MOL0     C15924   5.931  10.200   3.662  0.3501 -0.1513  0.2117
  116MOL0     C15925   5.480  10.244   3.579  0.1245  0.3999  0.2693
  116MOL0     C15926   5.378  10.337   3.619 -0.3428 -0.3440  0.1933
  116MOL0     C15927   5.251  10.283   3.649  0.1433 -1.5206 -0.1966
  116MOL0     C15928   5.215  10.148   3.639  1.2156  0.5204 -0.6478
  116MOL0     O15929   5.086  10.115   3.670  0.0378 -0.0372  0.0790
  116MOL0     C15930   5.038   9.976   3.654  0.3091 -0.0563  0.0617
  116MOL0     C15931   4.899   9.973   3.716 -0.0404  0.0263 -0.0534
  116MOL0     C15932   4.785   9.987   3.614  0.7037 -0.2015 -0.5331
  116MOL0     C15933   4.656  10.018   3.693  0.5304 -0.0205  0.7809
  116MOL0     C15934   4.641  10.153   3.757  0.6171 -0.7563 -0.8007
  116MOL0     C15935   4.607  10.253   3.819 -0.0877  0.2251 -0.3353
  116MOL0     C15936   5.308  10.064   3.592 -0.2792  0.4318  0.7838
  116MOL0     C15937   5.444  10.105   3.559  0.2648 -0.9444  0.0554
  116MOL0     C15938   5.535   9.998   3.502 -0.3826 -0.2358 -0.1343
  116MOL0     H15939   5.864  10.361   3.371 -1.5104  0.0268  0.9932
  116MOL0     H15940   6.114  10.395   3.388  2.0647 -2.5967 -0.5833
  116MOL0     H15941   6.258  10.482   3.742 -1.1629 -0.3903 -0.5364
  116MOL0     H15942   6.229  10.544   3.580 -0.9211 -1.5010 -2.6373
  116MOL0     H15943   6.508  10.424   3.655 -0.2349  0.3952  1.8107
  116MOL0     H15944   6.458  10.543   3.528  2.8028  0.9450  0.2989
  116MOL0     H15945   6.382  10.687   3.720 -0.2728 -1.0793  0.6205
  116MOL0     H15946   6.491  10.590   3.824 -0.5890  1.5822  0.2228
  116MOL0     H15947   6.612  10.713   3.570  4.2627  0.0108  1.0701
  116MOL0     H15948   6.566  10.821   3.704  0.7819  0.2320 -0.1929
  116MOL0     H15949   6.767  10.593   3.710 -1.4067 -0.8018  1.1038
  116MOL0     H15950   6.689  10.660   3.848 -3.1022 -2.6759 -1.3248
  116MOL0     H15951   6.866  10.788   3.640  0.5856 -1.1030 -0.5021
  116MOL0     H15952   6.774  10.881   3.763  2.5520  1.4958 -3.0477
  116MOL0     H15953   7.010  10.678   3.765  1.0049  2.0880 -2.3687
  116MOL0     H15954   6.933  10.726   3.927  1.5149 -0.3988  0.5856
  116MOL0     H15955   7.078  10.919   3.723 -3.3334 -1.2238 -2.2866
  116MOL0     H15956   6.980  10.972   3.855 -0.6275 -1.9483  1.5757
  116MOL0     H15957   7.090  10.806   4.121 -0.2651  2.7559  0.4163
  116MOL0     H15958   7.479  10.795   4.170 -0.0782 -0.0459  2.1877
  116MOL0     H15959   7.351  10.684   4.221 -0.5671  0.5074  0.7461
  116MOL0     H15960   7.368  10.987   4.261  2.9316 -0.8876 -0.8061
  116MOL0     H15961   7.245  10.871   4.318  0.4070 -3.6849 -0.8135
  116MOL0     H15962   7.528  10.800   4.406  1.3694  1.0333  1.2243
  116MOL0     H15963   7.465  10.963   4.456  0.5152 -0.1446 -0.3650
  116MOL0     H15964   7.394  10.785   4.633 -1.3469 -3.4089 -0.2322
  116MOL0     H15965   7.255  10.853   4.547 -0.2909  0.7610 -1.0357
  116MOL0     H15966   7.134  10.737   4.657 -0.7446  0.7965 -0.4132
  116MOL0     H15967   6.772  10.668   4.669 -0.3919  3.2391  0.1450
  116MOL0     H15968   6.906  10.768   4.692 -0.3618 -0.2820  2.1008
  116MOL0     H15969   6.881  10.616   4.793  0.2066  0.2211  0.5395
  116MOL0     H15970   6.900  10.019   4.594  0.5997  1.0844 -4.6932
  116MOL0     H15971   6.745   9.833   4.586  1.3742  0.6334  0.8273
  116MOL0     H15972   6.484   9.859   4.749  0.1737 -1.0881  0.4401
  116MOL0     H15973   6.333   9.928   4.685  0.5975 -0.4069  2.2982
  116MOL0     H15974   6.406   9.645   4.620 -0.9277  0.2341 -1.7996
  116MOL0     H15975   6.368   9.682   4.793  0.6628  0.7712  0.7528
  116MOL0     H15976   6.228   9.738   4.536  3.0187  0.4872  1.0983
  116MOL0     H15977   6.150   9.778   4.688  2.7952  3.4021 -0.0028
  116MOL0     H15978   6.127   9.539   4.761  2.1131  1.8371  0.7532
  116MOL0     H15979   6.215   9.486   4.619  2.6853  3.0929 -0.9574
  116MOL0     H15980   5.948   9.622   4.605 -2.9708 -2.1866  0.0638
  116MOL0     H15981   6.026   9.560   4.468 -2.8449 -2.0775 -0.9791
  116MOL0     H15982   5.963   9.390   4.716  0.2961 -1.2132 -0.5364
  116MOL0     H15983   6.014   9.337   4.556  2.0290  0.2472  1.9799
  116MOL0     H15984   5.788   9.384   4.461  0.1920  0.9184 -1.0068
  116MOL0     H15985   5.743   9.477   4.605 -2.0308 -0.9210 -0.3456
  116MOL0     H15986   5.776   9.266   4.732  0.5074  1.5960 -0.2110
  116MOL0     H15987   5.771   9.173   4.583  0.2230 -0.7403  0.8972
  116MOL0     H15988   6.430  10.109   4.467 -0.5832  0.7232  1.4280
  116MOL0     H15989   6.574  10.287   4.490  1.7223 -0.2160 -1.8164
  116MOL0     H15990   7.052  10.331   4.400  0.5280  0.0410  0.8808
  116MOL0     H15991   7.261  10.454   4.376 -0.4840 -0.4841  0.3493
  116MOL0     H15992   6.116  10.203   3.776 -0.8687  1.1777  1.8330
  116MOL0     H15993   5.873  10.126   3.716 -0.8789 -0.8300 -1.9200
  116MOL0     H15994   5.399  10.442   3.634 -1.3427 -0.2043  0.6856
  116MOL0     H15995   5.171  10.347   3.686  0.0689 -1.4691 -0.4469
  116MOL0     H15996   5.029   9.955   3.547 -3.2554  0.4448  0.1469
  116MOL0     H15997   5.107   9.913   3.711  0.6318 -0.8376 -1.1524
  116MOL0     H15998   4.884  10.057   3.784 -2.5356 -0.0076 -0.4378
  116MOL0     H15999   4.881   9.882   3.775 -0.3532  0.2274  0.1689
  116MOL0     H16000   4.795  10.059   3.533 -3.3540 -1.7839 -2.7198
  116MOL0     H16001   4.768   9.889   3.568 -0.2921 -0.3802  0.1733
  116MOL0     H16002   4.652   9.936   3.765  1.5038  0.6160  1.5933
  116MOL0     H16003   4.571  10.001   3.627  1.2427 -0.6353  0.0038
  116MOL0     H16004   4.574  10.340   3.873  1.4611 -1.3817  3.5855
  116MOL0     H16005   5.270   9.968   3.558 -1.1285  1.3790 -1.1404
  116MOL0     H16006   5.620   9.981   3.569 -0.1568 -0.3697 -0.4568
  116MOL0     H16007   5.480   9.904   3.498  0.1364 -0.6895  1.9012
  116MOL0     H16008   5.571  10.024   3.402 -4.3076  0.1985 -1.6062
  117MOL0     O16009   5.221   3.159   6.898  0.0824  0.4617 -0.7623
  117MOL0     C16010   5.128   3.171   6.817  0.3436  0.0595  0.1933
  117MOL0     O16011   5.143   3.183   6.688  0.0666  0.3859 -0.0175
  117MOL0     C16012   5.270   3.198   6.634 -0.0409 -0.4999 -0.0921
  117MOL0     C16013   5.341   3.102   6.573  0.7665 -0.5438 -0.3876
  117MOL0     C16014   5.463   3.134   6.502  0.0902 -0.2347 -0.5123
  117MOL0     C16015   5.514   3.268   6.492  0.5893  0.4121  0.6002
  117MOL0     O16016   5.630   3.308   6.423 -0.7348 -0.1900  1.1530
  117MOL0     C16017   5.686   3.228   6.313 -0.3113 -0.9877 -0.6780
  117MOL0     C16018   5.782   3.302   6.213  0.5151 -0.3399 -0.4945
  117MOL0     C16019   5.891   3.388   6.275 -0.1171  0.8578 -0.6607
  117MOL0     C16020   6.018   3.308   6.303 -0.2344  0.0336  0.3547
  117MOL0     C16021   6.122   3.365   6.399  0.1374 -0.2810 -0.9131
  117MOL0     C16022   6.165   3.513   6.355 -0.0350 -0.1089 -0.0349
  117MOL0     C16023   6.246   3.582   6.461  0.3246  0.3198  0.5265
  117MOL0     C16024   6.383   3.515   6.468  1.1590  0.0633  0.4086
  117MOL0     N16025   6.464   3.584   6.563 -1.0591  0.2618  0.2596
  117MOL0     C16026   6.478   3.557   6.695  0.1710 -0.2459 -0.8094
  117MOL0     C16027   6.553   3.657   6.741 -0.3075  0.0668  0.1473
  117MOL0     C16028   6.589   3.666   6.882  0.7609 -0.4750  0.2566
  117MOL0     C16029   6.721   3.587   6.905 -0.1385  0.6033  0.1916
  117MOL0     C16030   6.822   3.664   6.984  0.0954  0.5858  0.7161
  117MOL0     C16031   6.940   3.568   7.023 -0.2686 -0.1514  0.6772
  117MOL0     O16032   7.013   3.619   7.139  0.5110  0.9477  0.0705
  117MOL0     C16033   7.144   3.581   7.152 -0.0929 -0.9806 -0.2271
  117MOL0     C16034   7.207   3.485   7.064  0.4178  0.1200  0.1774
  117MOL0     C16035   7.349   3.465   7.077 -0.5184  1.0883 -0.0073
  117MOL0     C16036   7.397   3.360   6.975 -0.3491  0.0435 -0.0535
  117MOL0     C16037   7.427   3.520   7.178 -0.4477 -0.7030 -0.4568
  117MOL0     C16038   7.572   3.488   7.198 -0.5945  0.3977 -0.9717
  117MOL0     O16039   7.634   3.538   7.310  0.0424  0.0640  0.4604
  117MOL0     C16040   7.759   3.479   7.342 -0.1253 -0.3182 -0.5575
  117MOL0     C16041   7.871   3.507   7.271  0.1220 -0.2612  0.6916
  117MOL0     C16042   7.999   3.480   7.319  0.2579 -0.4966  0.5972
  117MOL0     C16043   8.016   3.415   7.442 -0.3162  0.3194 -0.5634
  117MOL0     O16044   8.146   3.402   7.499  0.1280 -0.0855  0.3626
  117MOL0     C16045   8.162   3.332   7.625  0.3156  0.8200 -0.0590
  117MOL0     C16046   8.308   3.338   7.665 -0.4646 -0.1870 -0.7433
  117MOL0     C16047   8.390   3.453   7.621  0.3455 -0.8445  0.1286
  117MOL0     C16048   8.538   3.421   7.642  0.4767 -0.3454  1.7441
  117MOL0     C16049   8.629   3.542   7.616  0.5980 -0.3216  0.5333
  117MOL0     C16050   8.782   3.521   7.607 -0.1540 -0.6317 -0.6113
  117MOL0     C16051   8.828   3.443   7.478 -0.7190 -1.2114  0.1993
  117MOL0     C16052   8.987   3.463   7.469 -0.0756  0.4598  0.1562
  117MOL0    Cl16053   9.060   3.382   7.619 -0.8640 -0.2341 -0.1040
  117MOL0     C16054   7.902   3.378   7.511  0.2694  0.3129  0.2230
  117MOL0     C16055   7.773   3.402   7.464 -0.1996 -0.9511  0.4209
  117MOL0     O16056   7.632   3.414   7.115  0.4696 -0.5165 -0.9405
  117MOL0     C16057   7.361   3.609   7.270  0.2559 -0.6952 -0.3021
  117MOL0     C16058   7.220   3.632   7.255 -0.4086 -0.4425  0.1431
  117MOL0     N16059   6.584   3.750   6.638  0.7331  1.3055  0.6425
  117MOL0     N16060   6.529   3.708   6.535  0.0193 -0.2574  0.3792
  117MOL0     C16061   5.442   3.361   6.564  0.4357  0.6916 -0.2328
  117MOL0     C16062   5.320   3.331   6.629 -0.7992  0.2248 -0.9167
  117MOL0     C16063   4.987   3.155   6.869 -1.2659 -0.1542  0.0756
  117MOL0     C16064   4.884   3.207   6.788 -0.0196 -0.6894 -0.3077
  117MOL0     C16065   4.753   3.195   6.837 -0.6526 -0.2787  0.8083
  117MOL0     C16066   4.714   3.148   6.968 -0.3944  0.2531 -0.1758
  117MOL0     O16067   4.585   3.151   7.023 -0.7571 -0.4844 -0.1196
  117MOL0     C16068   4.475   3.185   6.941 -0.1683 -0.7397 -0.5903
  117MOL0     C16069   4.420   3.059   6.870  0.1458 -1.4256 -0.8724
  117MOL0     C16070   4.360   2.962   6.966  0.0769  0.1641 -0.6327
  117MOL0     C16071   4.221   2.993   7.017 -0.3154 -0.2056 -0.1678
  117MOL0     C16072   4.122   2.967   6.914 -0.3352 -0.6601  0.0101
  117MOL0     C16073   4.030   2.937   6.842 -0.2270 -0.2793 -0.0914
  117MOL0     C16074   4.823   3.097   7.051  0.5936 -0.1919 -0.6549
  117MOL0     C16075   4.957   3.113   7.001  0.2942  0.1631 -0.0185
  117MOL0     C16076   5.055   3.071   7.111 -0.6563  0.2580  0.2109
  117MOL0     H16077   5.291   3.006   6.581 -0.5685  0.1797  0.2423
  117MOL0     H16078   5.521   3.055   6.455  0.5294 -0.3268  0.1654
  117MOL0     H16079   5.603   3.183   6.257  0.6629 -0.6462 -2.4825
  117MOL0     H16080   5.735   3.141   6.359 -0.3611  0.6654  2.8326
  117MOL0     H16081   5.823   3.229   6.143 -0.2412  0.7044 -2.0777
  117MOL0     H16082   5.728   3.368   6.144  2.4480 -0.1004 -1.8519
  117MOL0     H16083   5.913   3.474   6.211 -0.3588 -0.2669 -2.3014
  117MOL0     H16084   5.869   3.421   6.377 -0.1318  1.2249 -0.7808
  117MOL0     H16085   5.991   3.213   6.350 -0.2879 -0.1787 -0.0980
  117MOL0     H16086   6.063   3.286   6.206 -1.5926 -2.0017  0.1241
  117MOL0     H16087   6.205   3.294   6.401  0.8061  0.4874 -0.7463
  117MOL0     H16088   6.085   3.367   6.502  1.4266  1.8092 -0.4072
  117MOL0     H16089   6.226   3.512   6.264  0.3437 -0.1596  0.2196
  117MOL0     H16090   6.069   3.562   6.338 -2.1604 -3.9483 -0.3825
  117MOL0     H16091   6.204   3.583   6.562  4.6685  0.8140  2.5465
  117MOL0     H16092   6.258   3.688   6.439 -0.2422  0.7278  2.0342
  117MOL0     H16093   6.368   3.415   6.511  0.1181  0.4221  0.9060
  117MOL0     H16094   6.436   3.520   6.373  1.2592 -1.9726  0.3025
  117MOL0     H16095   6.437   3.474   6.752  0.4007 -0.1339 -0.4808
  117MOL0     H16096   6.515   3.616   6.944 -0.5677  0.3424 -0.6258
  117MOL0     H16097   6.583   3.771   6.911 -5.0227 -0.2269 -0.7777
  117MOL0     H16098   6.692   3.503   6.968 -0.1033  0.0031 -0.5821
  117MOL0     H16099   6.765   3.544   6.815  0.7224  1.3342  0.2484
  117MOL0     H16100   6.867   3.738   6.916  1.2489 -2.3549 -1.9896
  117MOL0     H16101   6.775   3.709   7.072 -1.9357  0.5486 -0.3071
  117MOL0     H16102   6.904   3.465   7.035 -0.0866 -0.6867 -2.4375
  117MOL0     H16103   7.001   3.570   6.932 -2.0789 -1.0374 -0.6371
  117MOL0     H16104   7.166   3.447   6.971  0.9845 -1.7007  0.6350
  117MOL0     H16105   7.317   3.333   6.906 -0.3829  1.0961 -0.4479
  117MOL0     H16106   7.424   3.269   7.029  0.6571  0.5967  0.4237
  117MOL0     H16107   7.485   3.400   6.924  1.8351 -0.0449  3.2912
  117MOL0     H16108   7.851   3.550   7.173 -2.2079 -1.0054  0.7874
  117MOL0     H16109   8.094   3.495   7.268  0.2489 -1.8722  0.1456
  117MOL0     H16110   8.098   3.362   7.708 -2.2275 -0.2532 -1.5306
  117MOL0     H16111   8.134   3.227   7.610  0.1574  0.8805 -0.1955
  117MOL0     H16112   8.314   3.318   7.772  0.5445 -3.1255 -1.2306
  117MOL0     H16113   8.357   3.251   7.618  0.8209 -0.2897  0.7094
  117MOL0     H16114   8.361   3.546   7.672  1.5343  0.4383 -1.4225
  117MOL0     H16115   8.384   3.476   7.514 -1.4801 -1.6760  0.0157
  117MOL0     H16116   8.575   3.345   7.573 -1.3538 -0.0357  0.3462
  117MOL0     H16117   8.539   3.386   7.746 -2.0019  0.9943  2.2918
  117MOL0     H16118   8.591   3.591   7.526  3.1886  1.7345  0.4065
  117MOL0     H16119   8.617   3.608   7.702  0.3628 -0.5423  0.6713
  117MOL0     H16120   8.814   3.470   7.698 -1.2639  0.0912  0.1980
  117MOL0     H16121   8.829   3.620   7.606  0.2367 -0.8181 -0.7385
  117MOL0     H16122   8.785   3.501   7.395  0.0843 -2.4459 -1.1229
  117MOL0     H16123   8.798   3.338   7.478 -0.4113 -1.3026  0.4360
  117MOL0     H16124   9.018   3.567   7.455 -1.5704  0.7357 -1.4881
  117MOL0     H16125   9.014   3.403   7.381 -0.8867 -1.4757  1.1736
  117MOL0     H16126   7.916   3.324   7.604  0.2251  0.2586  0.1983
  117MOL0     H16127   7.689   3.399   7.532 -0.9388  0.0656 -0.4265
  117MOL0     H16128   7.415   3.673   7.339  0.3658  1.5233 -2.2923
  117MOL0     H16129   7.173   3.681   7.339  0.0725  0.7588 -0.2658
  117MOL0     H16130   5.481   3.462   6.561 -0.6127  1.0810 -1.1493
  117MOL0     H16131   5.261   3.414   6.668  1.3318  0.5148  2.1155
  117MOL0     H16132   4.895   3.249   6.689 -1.6540  0.7118  0.0553
  117MOL0     H16133   4.678   3.225   6.765  0.4747  0.7388  0.0138
  117MOL0     H16134   4.399   3.223   7.011  0.9475 -1.2204  0.9485
  117MOL0     H16135   4.502   3.266   6.872  0.0676 -0.9561 -0.7547
  117MOL0     H16136   4.500   3.012   6.811 -1.0861 -1.6361 -2.4478
  117MOL0     H16137   4.348   3.084   6.792 -0.2046  1.8970  0.3567
  117MOL0     H16138   4.376   2.869   6.911  6.2974  0.5137 -0.1872
  117MOL0     H16139   4.426   2.961   7.053  1.7698  2.3280 -1.7853
  117MOL0     H16140   4.218   3.097   7.051  1.3965 -0.4446  0.8456
  117MOL0     H16141   4.202   2.934   7.107  0.4156 -1.9668 -1.1135
  117MOL0     H16142   3.939   2.922   6.788 -0.2702  1.0625 -0.4158
  117MOL0     H16143   4.792   3.046   7.142 -1.0631  0.3883 -0.8597
  117MOL0     H16144   5.125   2.995   7.078  0.3509  0.5754  1.5272
  117MOL0     H16145   5.126   3.148   7.143 -0.4827  0.1577  0.0640
  117MOL0     H16146   5.009   3.041   7.206 -4.1751  3.5156 -0.2103
  118MOL0     O16147   4.453   2.683  11.009  0.2288  0.3809  0.1217
  118MOL0     C16148   4.422   2.802  10.998  0.3529  0.6534  0.1904
  118MOL0     O16149   4.512   2.903  11.003  0.1844  0.0242  0.2306
  118MOL0     C16150   4.642   2.881  11.047 -1.0468  0.0504  0.1967
  118MOL0     C16151   4.737   2.902  10.950  0.6216  0.4165  0.4118
  118MOL0     C16152   4.873   2.908  10.975 -0.5826 -0.1931 -0.4135
  118MOL0     C16153   4.913   2.882  11.110 -0.3445  0.6816 -0.3269
  118MOL0     O16154   5.046   2.880  11.148  0.2189 -0.1637  0.9908
  118MOL0     C16155   5.146   2.864  11.048  0.4736  0.4316  0.5244
  118MOL0     C16156   5.284   2.861  11.103 -0.2861 -0.1371 -0.6073
  118MOL0     C16157   5.390   2.825  10.994 -0.2855 -0.1647 -0.1401
  118MOL0     C16158   5.527   2.799  11.056  0.0086  0.0341 -0.8619
  118MOL0     C16159   5.626   2.818  10.937 -1.0140  0.7647 -0.5635
  118MOL0     C16160   5.772   2.783  10.983 -0.3233  0.5435 -0.4920
  118MOL0     C16161   5.863   2.775  10.857  0.2375 -0.2019 -0.4259
  118MOL0     C16162   6.009   2.819  10.887  1.0450 -0.1193 -0.2588
  118MOL0     N16163   6.095   2.814  10.771 -0.6145 -0.8468 -0.5412
  118MOL0     C16164   6.230   2.861  10.769  0.6255  0.0673  0.5966
  118MOL0     C16165   6.284   2.812  10.659  0.1281 -0.7907  0.9159
  118MOL0     C16166   6.422   2.834  10.607 -0.9055 -0.3385 -0.5569
  118MOL0     C16167   6.534   2.761  10.683 -0.3847 -0.5042 -0.6705
  118MOL0     C16168   6.648   2.862  10.704 -0.7781 -0.6404 -1.3195
  118MOL0     C16169   6.764   2.816  10.792 -0.4152  0.6851 -0.5878
  118MOL0     O16170   6.833   2.705  10.720 -0.4850  0.0022 -0.1564
  118MOL0     C16171   6.968   2.725  10.726 -0.6393 -0.9123  0.3296
  118MOL0     C16172   7.047   2.681  10.833 -0.1211  0.9360  0.1980
  118MOL0     C16173   7.194   2.702  10.826 -0.3104  0.4912 -0.8897
  118MOL0     C16174   7.265   2.635  10.935  0.4433  0.2737 -0.2940
  118MOL0     C16175   7.253   2.767  10.713 -0.6099 -0.5052 -0.0870
  118MOL0     C16176   7.391   2.779  10.686 -0.7951 -0.8757 -0.1910
  118MOL0     O16177   7.438   2.838  10.572 -0.1933 -0.1409  0.4344
  118MOL0     C16178   7.575   2.856  10.550  0.1002  0.1539 -0.6828
  118MOL0     C16179   7.677   2.755  10.557 -0.5202  0.0223 -0.7443
  118MOL0     C16180   7.813   2.800  10.546 -0.1776 -0.4083 -0.3799
  118MOL0     C16181   7.841   2.934  10.510  0.5605 -0.1706  0.2269
  118MOL0     O16182   7.971   2.981  10.488  0.4423  0.2714  0.1296
  118MOL0     C16183   7.989   3.107  10.431  0.5835 -0.5687 -0.3578
  118MOL0     C16184   8.134   3.143  10.435 -1.2926 -0.0671 -0.3950
  118MOL0     C16185   8.211   3.100  10.565  0.2443 -0.3918 -0.3048
  118MOL0     C16186   8.283   2.971  10.563  0.0812 -0.3083  0.3076
  118MOL0     C16187   8.348   2.952  10.694  0.9840 -0.1723  0.6422
  118MOL0     C16188   8.369   2.801  10.715  0.9823  0.9920  0.2268
  118MOL0     C16189   8.457   2.758  10.837 -0.1099 -0.3415  0.6409
  118MOL0     C16190   8.600   2.821  10.833  0.3127 -0.2723 -0.9582
  118MOL0    Cl16191   8.708   2.779  10.973 -0.1399  0.8403  0.3059
  118MOL0     C16192   7.731   3.026  10.504  0.1039 -0.7919  0.9476
  118MOL0     C16193   7.600   2.993  10.525  0.7130  0.0812 -0.0780
  118MOL0     O16194   7.465   2.729  10.765 -0.4851 -0.1074 -0.3184
  118MOL0     C16195   7.165   2.806  10.610  0.5020 -0.6367  0.8949
  118MOL0     C16196   7.026   2.782  10.612  0.0847 -0.2656 -0.1981
  118MOL0     N16197   6.188   2.752  10.584 -0.4338 -0.7546 -0.9120
  118MOL0     N16198   6.081   2.752  10.657  0.2677 -0.2724  0.2412
  118MOL0     C16199   4.819   2.865  11.210  0.1011  0.9540  0.1810
  118MOL0     C16200   4.681   2.879  11.180 -0.3270  0.4740  1.0451
  118MOL0     C16201   4.277   2.829  10.968  0.6284 -0.7407 -0.7542
  118MOL0     C16202   4.210   2.748  10.883  0.1287 -0.4630  0.2360
  118MOL0     C16203   4.080   2.787  10.838 -0.6635  0.1800  0.0697
  118MOL0     C16204   4.016   2.892  10.887  0.3460  0.7157  0.3798
  118MOL0     O16205   3.898   2.937  10.843 -0.0707 -0.6587  1.1497
  118MOL0     C16206   3.807   2.834  10.799 -0.1207  0.5987 -0.0999
  118MOL0     C16207   3.658   2.890  10.806  1.0615 -0.0194  0.1884
  118MOL0     C16208   3.608   2.832  10.946  0.2029  0.1851  0.2072
  118MOL0     C16209   3.466   2.882  10.973 -1.0022 -0.0840  0.3728
  118MOL0     C16210   3.394   2.802  11.077  0.6166 -0.5567 -0.3571
  118MOL0     C16211   3.347   2.755  11.174 -0.0490 -0.4278 -0.4757
  118MOL0     C16212   4.077   2.959  10.980 -0.3189  0.0038 -0.6940
  118MOL0     C16213   4.209   2.934  11.020  0.2929  0.2140  0.6829
  118MOL0     C16214   4.256   3.016  11.131 -0.1806 -0.0879 -0.5344
  118MOL0     H16215   4.708   2.911  10.846  2.0579  0.0213 -0.0590
  118MOL0     H16216   4.946   2.943  10.903  0.5931  1.6821  1.5845
  118MOL0     H16217   5.151   2.950  10.980 -2.3805 -0.6232 -1.1907
  118MOL0     H16218   5.116   2.777  10.989 -1.3670  0.6080  1.1258
  118MOL0     H16219   5.299   2.960  11.149 -3.9850  0.5031 -0.4310
  118MOL0     H16220   5.298   2.793  11.187  0.8516  1.1531  0.2894
  118MOL0     H16221   5.355   2.752  10.920 -0.7232  1.2881 -1.4076
  118MOL0     H16222   5.397   2.910  10.926 -1.3730  0.1582  0.1397
  118MOL0     H16223   5.544   2.872  11.136  0.8040 -1.6787  0.6036
  118MOL0     H16224   5.538   2.707  11.115  0.8548  1.8612  1.9949
  118MOL0     H16225   5.613   2.924  10.910 -2.9887  0.6358 -0.3229
  118MOL0     H16226   5.597   2.763  10.847  2.5051 -0.7030 -0.9225
  118MOL0     H16227   5.804   2.867  11.045 -1.5357  1.0148 -0.4749
  118MOL0     H16228   5.773   2.691  11.042 -0.2256 -0.7712 -2.4441
  118MOL0     H16229   5.818   2.826  10.772 -0.1055  0.2622  0.0301
  118MOL0     H16230   5.861   2.669  10.830 -0.5781 -0.1885 -0.4443
  118MOL0     H16231   6.014   2.919  10.932 -2.9571 -0.9729  2.5819
  118MOL0     H16232   6.045   2.755  10.968 -2.8166 -0.1583  1.6490
  118MOL0     H16233   6.273   2.920  10.850 -1.1815 -0.9071  2.3389
  118MOL0     H16234   6.445   2.941  10.602 -0.0397 -0.5072 -0.3732
  118MOL0     H16235   6.428   2.801  10.503 -1.2015 -1.5924 -0.1927
  118MOL0     H16236   6.502   2.718  10.779  1.2302  0.2141  0.2389
  118MOL0     H16237   6.563   2.679  10.616 -1.2417  0.0019 -1.6843
  118MOL0     H16238   6.691   2.893  10.608  1.3425  2.6616  0.5285
  118MOL0     H16239   6.610   2.954  10.748  1.7458  0.2615 -0.8655
  118MOL0     H16240   6.829   2.899  10.819 -1.4281  0.9621  1.1744
  118MOL0     H16241   6.729   2.778  10.889 -3.7573  2.6801 -0.8464
  118MOL0     H16242   6.992   2.623  10.906 -1.1444  0.4483 -0.9294
  118MOL0     H16243   7.348   2.572  10.903  1.2093  0.4343  1.2940
  118MOL0     H16244   7.187   2.581  10.989  0.7261  0.4645  0.3094
  118MOL0     H16245   7.305   2.712  11.002  0.5169 -0.7124  0.8275
  118MOL0     H16246   7.649   2.654  10.587  0.4359 -0.3309 -0.9999
  118MOL0     H16247   7.902   2.742  10.568 -0.3812  0.3236  3.0621
  118MOL0     H16248   7.952   3.109  10.328  0.9357  0.0406 -0.4733
  118MOL0     H16249   7.934   3.187  10.482  1.0218  0.6967 -1.8186
  118MOL0     H16250   8.180   3.092  10.349  2.0364 -2.1046  2.3269
  118MOL0     H16251   8.152   3.251  10.432 -0.0159 -0.2426  0.1750
  118MOL0     H16252   8.140   3.098  10.648  1.0610 -2.4189  0.4204
  118MOL0     H16253   8.281   3.180  10.590  0.0179 -0.4694  0.6205
  118MOL0     H16254   8.359   2.968  10.484 -0.3070  2.0036 -0.2135
  118MOL0     H16255   8.208   2.892  10.552  1.7140 -1.7239 -1.4380
  118MOL0     H16256   8.446   3.002  10.693  1.4936 -1.1247 -1.6808
  118MOL0     H16257   8.270   2.989  10.762  0.8516 -0.5368  0.6900
  118MOL0     H16258   8.427   2.769  10.627 -0.0533  2.6806 -1.1309
  118MOL0     H16259   8.268   2.761  10.727  0.2927  2.8637  0.9593
  118MOL0     H16260   8.461   2.649  10.840  0.2379 -0.5418 -3.1292
  118MOL0     H16261   8.412   2.801  10.928  2.2772 -0.9268  2.1982
  118MOL0     H16262   8.601   2.929  10.818 -2.4890  0.1893  1.2097
  118MOL0     H16263   8.650   2.777  10.746  1.4575 -0.9545  0.0041
  118MOL0     H16264   7.752   3.130  10.480  3.6307 -1.2730  1.3181
  118MOL0     H16265   7.512   3.057  10.520  0.4614 -0.3344 -1.6111
  118MOL0     H16266   7.200   2.859  10.521 -1.7532 -0.9804 -0.2590
  118MOL0     H16267   6.960   2.818  10.535  1.1253  1.3377 -0.3874
  118MOL0     H16268   4.859   2.846  11.310 -0.3616  1.5562  0.4896
  118MOL0     H16269   4.615   2.884  11.266 -0.5100  0.1563  0.9266
  118MOL0     H16270   4.268   2.665  10.845  0.2024 -1.0554  1.5711
  118MOL0     H16271   4.036   2.718  10.767  2.4162 -1.6719 -0.2269
  118MOL0     H16272   3.841   2.821  10.696 -2.2522 -0.2864 -0.7558
  118MOL0     H16273   3.804   2.741  10.857  2.4344  0.8032  0.4500
  118MOL0     H16274   3.589   2.855  10.729 -0.2567  0.8018  0.9602
  118MOL0     H16275   3.665   2.998  10.818 -0.3033 -0.1748  3.3122
  118MOL0     H16276   3.609   2.723  10.955  0.2524  0.2546  1.1648
  118MOL0     H16277   3.676   2.876  11.020 -1.9450 -0.6105  2.8540
  118MOL0     H16278   3.421   2.863  10.875 -0.6625 -3.9793  0.7941
  118MOL0     H16279   3.469   2.986  11.005 -0.3474 -0.4927  1.7034
  118MOL0     H16280   3.326   2.707  11.268  0.6387 -1.6967 -0.9485
  118MOL0     H16281   4.018   3.033  11.033 -1.6232 -0.2959 -1.6877
  118MOL0     H16282   4.313   2.948  11.195 -1.4753  0.6139  1.4456
  118MOL0     H16283   4.318   3.101  11.101  2.5206 -1.2664  1.2786
  118MOL0     H16284   4.174   3.068  11.181  2.4965  4.5425 -0.3656
  119MOL0     O16285   2.597   6.959   4.936 -1.2514  0.4758 -0.4281
  119MOL0     C16286   2.582   6.856   4.876  0.4322 -0.2494 -0.1674
  119MOL0     O16287   2.682   6.771   4.830  0.0481  0.0437  0.3004
  119MOL0     C16288   2.808   6.823   4.826 -0.5702  0.1020  0.3264
  119MOL0     C16289   2.876   6.865   4.939 -0.1114 -0.4309 -0.9584
  119MOL0     C16290   3.004   6.929   4.935  0.4545  0.2311  0.2200
  119MOL0     C16291   3.057   6.953   4.805 -0.0261 -0.0104  0.1710
  119MOL0     O16292   3.192   7.003   4.790 -0.0072  0.4859 -0.6307
  119MOL0     C16293   3.207   7.132   4.839 -0.4478 -0.4854  0.2317
  119MOL0     C16294   3.306   7.132   4.961 -0.4187 -0.3902  0.1928
  119MOL0     C16295   3.443   7.070   4.924 -1.5078 -0.1367 -0.2799
  119MOL0     C16296   3.536   7.072   5.045 -0.7419  0.2270 -0.1651
  119MOL0     C16297   3.654   6.971   5.035  0.1097 -0.2801 -0.1748
  119MOL0     C16298   3.723   6.978   4.901  0.2312 -0.2414 -0.7470
  119MOL0     C16299   3.863   6.920   4.901 -0.2794 -0.4188 -0.5164
  119MOL0     C16300   3.976   7.028   4.897  0.4525  0.9867  0.5435
  119MOL0     N16301   3.996   7.094   4.769  0.3497 -1.0660 -0.2892
  119MOL0     C16302   3.969   7.048   4.637  0.0547 -0.6288  0.0786
  119MOL0     C16303   3.990   7.153   4.558 -0.1425 -0.2465 -0.1192
  119MOL0     C16304   3.991   7.157   4.408 -0.2681  0.3206 -0.9250
  119MOL0     C16305   3.924   7.045   4.343  0.0045  0.8048 -0.6569
  119MOL0     C16306   3.908   7.068   4.185  0.2459 -0.3765  0.3114
  119MOL0     C16307   3.848   6.952   4.114  0.1670 -0.0769 -0.6615
  119MOL0     O16308   3.792   6.988   3.988 -0.7095 -0.1039 -0.3834
  119MOL0     C16309   3.664   7.029   3.979 -0.9164 -0.4644  0.4910
  119MOL0     C16310   3.623   7.061   3.851 -0.8097  0.0174 -0.1251
  119MOL0     C16311   3.495   7.097   3.827  0.0743  0.0148  0.3295
  119MOL0     C16312   3.472   7.120   3.684 -0.2886 -0.2384  0.4165
  119MOL0     C16313   3.394   7.102   3.926 -0.1914 -0.6888  0.1508
  119MOL0     C16314   3.252   7.155   3.915 -0.0053  0.0904  1.3867
  119MOL0     O16315   3.158   7.095   3.999 -0.4009  0.0400  0.5889
  119MOL0     C16316   3.030   7.110   3.962 -0.0896 -0.4963  0.2589
  119MOL0     C16317   2.949   7.183   4.054  0.2108 -0.3422  0.2072
  119MOL0     C16318   2.812   7.197   4.034 -0.5167  0.2373  0.2226
  119MOL0     C16319   2.749   7.143   3.918 -0.5674  0.4867 -0.4209
  119MOL0     O16320   2.620   7.162   3.911 -0.0661  0.4310  0.6049
  119MOL0     C16321   2.572   7.155   3.772 -0.4846  0.5186 -0.3814
  119MOL0     C16322   2.447   7.233   3.759 -0.0302 -0.1450  0.2128
  119MOL0     C16323   2.425   7.297   3.620  0.4473  0.2120 -0.4975
  119MOL0     C16324   2.411   7.194   3.509  1.5710  0.1558 -0.3479
  119MOL0     C16325   2.376   7.261   3.374  0.2888 -0.5917  0.1513
  119MOL0     C16326   2.240   7.326   3.372 -0.2981  0.5148  0.4589
  119MOL0     C16327   2.200   7.364   3.230  0.4361 -0.5643 -0.8094
  119MOL0     C16328   2.046   7.381   3.227  0.1133 -0.6833  0.3803
  119MOL0    Cl16329   1.999   7.513   3.343 -0.1601 -0.3025  0.1550
  119MOL0     C16330   2.839   7.089   3.825  0.0618 -0.8758 -0.6028
  119MOL0     C16331   2.972   7.062   3.850  0.1778 -0.0885  0.1517
  119MOL0     O16332   3.227   7.233   3.819 -0.8100 -0.1861 -0.4435
  119MOL0     C16333   3.440   7.078   4.050 -0.8391 -0.0902 -0.9066
  119MOL0     C16334   3.575   7.049   4.082  0.6053 -0.3772 -0.2955
  119MOL0     N16335   4.021   7.261   4.640 -0.1136 -0.5412 -0.2081
  119MOL0     N16336   4.026   7.229   4.767 -0.6572  0.6672 -0.4127
  119MOL0     C16337   2.985   6.923   4.690 -0.0267  0.4280 -0.0394
  119MOL0     C16338   2.857   6.864   4.701 -0.1904  0.1806 -0.0334
  119MOL0     C16339   2.446   6.805   4.845  0.0975  0.5274 -0.6661
  119MOL0     C16340   2.428   6.668   4.808 -0.7187 -0.6042  1.4191
  119MOL0     C16341   2.298   6.607   4.785  0.1752  0.6096 -0.5357
  119MOL0     C16342   2.184   6.684   4.800  0.2687 -0.6788 -1.0237
  119MOL0     O16343   2.058   6.630   4.780 -0.5202 -0.3542 -0.0873
  119MOL0     C16344   2.023   6.520   4.868  0.1468  0.0046 -0.4106
  119MOL0     C16345   1.893   6.454   4.823  0.1572  0.3688 -0.3110
  119MOL0     C16346   1.868   6.319   4.895  0.4735  0.1576  0.2286
  119MOL0     C16347   1.733   6.254   4.874  0.1790  0.3741 -0.3055
  119MOL0     C16348   1.628   6.347   4.901 -0.6392  0.9205 -0.6101
  119MOL0     C16349   1.547   6.427   4.929 -0.1548  0.6515  0.4967
  119MOL0     C16350   2.204   6.821   4.838 -0.4287 -0.1027  0.4337
  119MOL0     C16351   2.330   6.880   4.862  0.1686  0.6414 -0.2733
  119MOL0     C16352   2.331   7.025   4.908 -0.8456 -0.4199 -0.7748
  119MOL0     H16353   2.842   6.848   5.040 -0.8418  2.4672 -0.6294
  119MOL0     H16354   3.049   6.948   5.032 -1.6073  0.4196  1.1778
  119MOL0     H16355   3.116   7.187   4.863  0.3481  1.4921 -0.9602
  119MOL0     H16356   3.250   7.187   4.754 -1.5644 -1.4890 -1.0339
  119MOL0     H16357   3.316   7.232   5.003 -2.8906  0.3173 -0.7659
  119MOL0     H16358   3.248   7.070   5.030 -2.3758  1.5128  0.3539
  119MOL0     H16359   3.426   6.968   4.888  2.8570 -1.1261 -0.0481
  119MOL0     H16360   3.488   7.124   4.840  3.3821 -2.2652  0.6566
  119MOL0     H16361   3.563   7.177   5.060 -0.5918  0.2904 -0.8494
  119MOL0     H16362   3.468   7.041   5.125 -3.8801  1.0323 -2.3367
  119MOL0     H16363   3.616   6.871   5.053 -1.0515 -0.0629 -1.2680
  119MOL0     H16364   3.727   7.001   5.112 -0.9180  2.9231 -0.2767
  119MOL0     H16365   3.663   6.927   4.825 -3.2117  2.0376  0.1738
  119MOL0     H16366   3.725   7.082   4.866  0.7582 -0.3332 -0.9950
  119MOL0     H16367   3.871   6.864   4.807 -1.7485  0.8845 -1.4741
  119MOL0     H16368   3.885   6.868   4.994 -0.1565  1.6877  0.6833
  119MOL0     H16369   3.962   7.097   4.980  0.1453 -0.4309  1.7261
  119MOL0     H16370   4.064   6.969   4.925 -2.3822 -3.1392  1.7274
  119MOL0     H16371   3.942   6.946   4.610  1.1783 -0.6734 -0.9328
  119MOL0     H16372   4.096   7.153   4.375 -0.5455  0.7375 -1.8791
  119MOL0     H16373   3.929   7.245   4.388  0.2107  1.4775  2.1350
  119MOL0     H16374   3.995   6.966   4.370 -0.7096 -0.0057 -1.1089
  119MOL0     H16375   3.830   7.018   4.392  0.4288  0.2031 -0.1497
  119MOL0     H16376   3.828   7.141   4.168  0.1962 -0.8020 -1.4603
  119MOL0     H16377   3.993   7.097   4.123 -1.1234  1.3440 -0.8461
  119MOL0     H16378   3.925   6.876   4.096 -1.6943 -2.1235 -0.3980
  119MOL0     H16379   3.780   6.902   4.184  0.5044  0.6060  0.1844
  119MOL0     H16380   3.696   7.054   3.771  1.7763  0.3965  2.0587
  119MOL0     H16381   3.562   7.134   3.624 -1.0263  4.8135 -0.0137
  119MOL0     H16382   3.432   7.221   3.671 -0.6829 -0.5020 -0.4932
  119MOL0     H16383   3.406   7.050   3.633 -0.8173 -0.0335  0.8054
  119MOL0     H16384   3.007   7.220   4.138  3.2451 -3.6438 -0.1476
  119MOL0     H16385   2.763   7.238   4.121  3.0694 -0.0826  2.6026
  119MOL0     H16386   2.636   7.200   3.696 -1.6383 -0.7829 -2.2195
  119MOL0     H16387   2.542   7.053   3.745  1.1171  0.9054 -4.1824
  119MOL0     H16388   2.359   7.174   3.786  0.7120 -0.1074  3.0110
  119MOL0     H16389   2.456   7.310   3.835  2.3359  1.5198 -1.6241
  119MOL0     H16390   2.510   7.360   3.592  0.3047  2.7248  3.8702
  119MOL0     H16391   2.343   7.369   3.621  1.2390  1.1611 -1.6255
  119MOL0     H16392   2.328   7.131   3.539  2.5275 -1.7285 -1.4564
  119MOL0     H16393   2.503   7.137   3.493  2.5829  1.3025  1.1134
  119MOL0     H16394   2.458   7.327   3.342  0.1443 -0.3482  0.2796
  119MOL0     H16395   2.380   7.181   3.299 -1.0771 -0.6236  0.1026
  119MOL0     H16396   2.230   7.417   3.431 -1.3944  0.9912 -0.4264
  119MOL0     H16397   2.167   7.256   3.413 -0.9751  1.9893  1.8898
  119MOL0     H16398   2.228   7.292   3.153  1.3876  0.9002 -1.8785
  119MOL0     H16399   2.248   7.460   3.208 -2.9553  1.3384 -0.4642
  119MOL0     H16400   1.989   7.291   3.252  0.6614 -1.1981 -0.1654
  119MOL0     H16401   2.024   7.413   3.125  0.6630  2.0420  1.0283
  119MOL0     H16402   2.797   7.048   3.734 -2.8301 -0.6771  0.5129
  119MOL0     H16403   3.034   6.999   3.787  1.8160 -1.5798  3.0485
  119MOL0     H16404   3.376   7.083   4.137  2.3381  0.6063  1.5848
  119MOL0     H16405   3.601   7.027   4.185 -3.1729 -2.0436  0.4547
  119MOL0     H16406   3.027   6.935   4.590 -0.4090 -1.6812 -0.5098
  119MOL0     H16407   2.789   6.860   4.617 -0.7873 -1.3923  0.4909
  119MOL0     H16408   2.515   6.606   4.792 -1.9705 -2.1400  0.2624
  119MOL0     H16409   2.299   6.504   4.752  0.9169  0.5446 -0.3361
  119MOL0     H16410   2.105   6.450   4.884  0.0204 -0.3281 -1.2026
  119MOL0     H16411   1.999   6.551   4.971  0.5070 -1.9712  0.3067
  119MOL0     H16412   1.895   6.446   4.714 -0.4451  1.1486 -0.3902
  119MOL0     H16413   1.809   6.523   4.838 -0.1551  0.0900 -0.7455
  119MOL0     H16414   1.950   6.252   4.867  1.0235  0.0539  1.9507
  119MOL0     H16415   1.874   6.353   4.999 -1.2415  2.0226 -0.2154
  119MOL0     H16416   1.723   6.160   4.929  0.0257  1.5159  1.7083
  119MOL0     H16417   1.723   6.228   4.768  0.1982 -1.3745  0.0960
  119MOL0     H16418   1.474   6.502   4.950  1.6555  4.1457 -4.0173
  119MOL0     H16419   2.110   6.873   4.853 -0.4481 -0.6798  2.6844
  119MOL0     H16420   2.380   7.044   5.003 -1.3024  3.6371 -1.1473
  119MOL0     H16421   2.388   7.084   4.835  1.7909  0.6902  1.9797
  119MOL0     H16422   2.230   7.068   4.912 -0.5441  0.2341  0.0389
  120MOL0     O16423  11.293   0.755   0.273  0.5052 -0.1120  0.1101
  120MOL0     C16424  11.369   0.809   0.192  0.8838 -1.0348 -0.0178
  120MOL0     O16425  11.329   0.855   0.066  0.2041  0.0281  0.3330
  120MOL0     C16426  11.223   0.800   0.005 -0.3162  0.5282  1.3627
  120MOL0     C16427  11.230   0.755  -0.131  0.3324 -0.5828  0.1379
  120MOL0     C16428  11.116   0.698  -0.193 -0.0443  0.0987 -0.0529
  120MOL0     C16429  10.995   0.688  -0.123  0.4599 -0.0574  0.2500
  120MOL0     O16430  10.888   0.609  -0.160 -0.2385 -0.0431  0.5354
  120MOL0     C16431  10.871   0.581  -0.299  0.0169 -0.1901  1.4880
  120MOL0     C16432  10.934   0.452  -0.344  0.1943  0.3297 -0.2740
  120MOL0     C16433  10.897   0.413  -0.486  0.2337  0.3080 -0.4606
  120MOL0     C16434  10.937   0.264  -0.520  0.6879  0.0774  0.2203
  120MOL0     C16435  10.926   0.229  -0.670  0.0996 -0.4866 -0.8006
  120MOL0     C16436  10.785   0.241  -0.720  0.1748  0.1239  0.9833
  120MOL0     C16437  10.785   0.297  -0.868  0.4360 -0.1257  0.5667
  120MOL0     C16438  10.645   0.352  -0.909 -0.9270  0.2143  0.4037
  120MOL0     N16439  10.623   0.396  -1.048 -0.1493  0.2094 -0.2320
  120MOL0     C16440  10.546   0.322  -1.130 -0.0194 -0.0821 -0.7717
  120MOL0     C16441  10.579   0.369  -1.259 -0.3685  0.5470 -1.0804
  120MOL0     C16442  10.525   0.302  -1.385  0.4210  1.1592  0.8594
  120MOL0     C16443  10.619   0.193  -1.435 -0.0412 -0.6535  0.4549
  120MOL0     C16444  10.572   0.135  -1.565 -0.4577  0.9193  0.3001
  120MOL0     C16445  10.659   0.016  -1.608 -1.0341 -1.4672  0.1005
  120MOL0     O16446  10.799   0.057  -1.616  0.0355  0.1290 -0.3739
  120MOL0     C16447  10.893  -0.042  -1.643  0.2711 -0.9382 -0.4417
  120MOL0     C16448  11.032  -0.017  -1.626 -0.2968 -0.0168 -0.2620
  120MOL0     C16449  11.138  -0.109  -1.664  0.1940 -0.9687 -0.3366
  120MOL0     C16450  11.285  -0.071  -1.611 -0.1215 -0.9026 -0.1745
  120MOL0     C16451  11.100  -0.239  -1.719 -0.6169 -0.9866  0.1235
  120MOL0     C16452  11.206  -0.339  -1.754  0.4713 -0.0680  0.1359
  120MOL0     O16453  11.313  -0.363  -1.662  0.3447  0.3458  0.4512
  120MOL0     C16454  11.404  -0.460  -1.682  0.6808 -0.3833  0.2260
  120MOL0     C16455  11.522  -0.435  -1.757  0.5826 -0.6280 -0.5893
  120MOL0     C16456  11.621  -0.529  -1.761 -1.1713  0.0140 -0.0342
  120MOL0     C16457  11.603  -0.656  -1.702 -1.2225 -0.7780  0.0419
  120MOL0     O16458  11.713  -0.736  -1.716 -0.5754  0.9851 -0.2661
  120MOL0     C16459  11.717  -0.863  -1.653  0.3083  0.8597  0.5232
  120MOL0     C16460  11.857  -0.925  -1.658 -0.9183 -0.4769 -0.4874
  120MOL0     C16461  11.903  -0.950  -1.803  0.4177  0.0734 -0.1061
  120MOL0     C16462  11.986  -0.834  -1.864  0.5721 -0.1922 -0.1351
  120MOL0     C16463  12.007  -0.833  -2.020 -0.4133  0.1196 -0.7818
  120MOL0     C16464  12.120  -0.748  -2.062  0.0130  0.5905  0.5055
  120MOL0     C16465  12.078  -0.602  -2.084 -0.1087  0.6612  0.8457
  120MOL0     C16466  12.180  -0.528  -2.168 -0.9735  1.0673 -0.4850
  120MOL0    Cl16467  12.330  -0.541  -2.084 -0.0430  0.1064 -0.0019
  120MOL0     C16468  11.485  -0.681  -1.635 -0.4210  0.6405 -0.3127
  120MOL0     C16469  11.383  -0.587  -1.625 -0.2582 -0.3879  0.0847
  120MOL0     O16470  11.196  -0.392  -1.865 -0.1119  0.1502  0.2319
  120MOL0     C16471  10.960  -0.263  -1.737 -0.2455 -0.3054  0.1811
  120MOL0     C16472  10.864  -0.168  -1.699 -1.0392 -1.0026 -0.0137
  120MOL0     N16473  10.675   0.463  -1.246 -0.3148 -0.1406 -0.5316
  120MOL0     N16474  10.709   0.470  -1.121 -0.5450 -0.0394 -0.3690
  120MOL0     C16475  10.988   0.731   0.009  0.9516 -0.5553  0.1415
  120MOL0     C16476  11.099   0.784   0.072 -0.0960 -0.2323 -0.4373
  120MOL0     C16477  11.504   0.865   0.233 -0.1196 -0.2483 -0.3249
  120MOL0     C16478  11.556   0.985   0.168 -0.5607  0.1078  0.3212
  120MOL0     C16479  11.689   1.032   0.191  0.0903  0.0871  0.3537
  120MOL0     C16480  11.769   0.955   0.285  0.0081  0.0071 -0.4884
  120MOL0     O16481  11.892   0.996   0.317  0.0433 -0.7412 -0.3733
  120MOL0     C16482  11.988   0.981   0.209 -0.9650  0.8877 -0.2669
  120MOL0     C16483  12.040   0.839   0.205  0.1097  0.4804 -0.0986
  120MOL0     C16484  12.113   0.804   0.337  0.3975 -1.2264 -0.2151
  120MOL0     C16485  12.124   0.656   0.343  0.3645 -0.0454  0.4107
  120MOL0     C16486  11.998   0.580   0.332  0.9849  0.3926  0.0923
  120MOL0     C16487  11.887   0.530   0.340  0.1350  0.5034  0.4469
  120MOL0     C16488  11.702   0.863   0.372 -0.1025  0.2119  0.0230
  120MOL0     C16489  11.574   0.820   0.347  0.7301 -0.4246  0.9178
  120MOL0     C16490  11.518   0.710   0.436 -1.2909 -0.2097  0.1673
  120MOL0     H16491  11.314   0.767  -0.199 -2.6050  2.7840 -3.3784
  120MOL0     H16492  11.126   0.664  -0.295 -1.0257  0.9479 -0.4417
  120MOL0     H16493  10.911   0.661  -0.361 -1.7177 -0.1874  0.2917
  120MOL0     H16494  10.764   0.565  -0.317  0.5364 -0.9009 -1.6247
  120MOL0     H16495  11.042   0.470  -0.343  0.2804 -0.1342 -0.7407
  120MOL0     H16496  10.903   0.370  -0.278 -0.7843 -0.0848 -1.2206
  120MOL0     H16497  10.793   0.434  -0.516  0.3844  0.0609 -1.1711
  120MOL0     H16498  10.959   0.473  -0.553  2.4781 -1.2017  0.1728
  120MOL0     H16499  11.043   0.265  -0.496  0.2605  0.6684  2.2582
  120MOL0     H16500  10.872   0.193  -0.468  0.5450  0.5826  0.7529
  120MOL0     H16501  10.962   0.126  -0.678 -0.2224 -0.9310  2.2656
  120MOL0     H16502  10.999   0.291  -0.723  1.1653 -1.4089 -0.4375
  120MOL0     H16503  10.737   0.143  -0.711  1.3056 -0.3937  1.6863
  120MOL0     H16504  10.727   0.300  -0.649 -0.1544  1.6969 -0.5313
  120MOL0     H16505  10.812   0.215  -0.936 -0.1098 -2.6206  3.1686
  120MOL0     H16506  10.855   0.381  -0.879 -1.2211  0.9768 -2.8980
  120MOL0     H16507  10.571   0.275  -0.887  2.8609 -3.2280  2.4647
  120MOL0     H16508  10.637   0.441  -0.847  1.6461  0.9715 -0.2016
  120MOL0     H16509  10.464   0.257  -1.099  0.7628  0.3168  2.4469
  120MOL0     H16510  10.524   0.375  -1.466 -1.0377 -1.5846 -1.8085
  120MOL0     H16511  10.423   0.266  -1.371  1.0563  0.2694  4.2684
  120MOL0     H16512  10.715   0.244  -1.450 -1.7966  2.5991 -0.7654
  120MOL0     H16513  10.627   0.115  -1.358 -1.2854 -0.4813  0.7864
  120MOL0     H16514  10.468   0.102  -1.559 -1.0132  1.7965 -2.9374
  120MOL0     H16515  10.595   0.211  -1.640  1.0047 -1.2108 -1.5212
  120MOL0     H16516  10.652  -0.066  -1.535  0.3529 -0.7418  1.0918
  120MOL0     H16517  10.623  -0.016  -1.707  3.1064  0.3754 -2.2361
  120MOL0     H16518  11.054   0.076  -1.575  0.1016 -0.2637  0.0244
  120MOL0     H16519  11.310  -0.132  -1.524 -2.6437 -0.0799  1.2288
  120MOL0     H16520  11.291   0.030  -1.569  4.2048  0.2158 -2.7893
  120MOL0     H16521  11.369  -0.069  -1.682  0.6429  0.3858  0.7242
  120MOL0     H16522  11.531  -0.328  -1.774 -0.6276 -0.2016  1.1510
  120MOL0     H16523  11.722  -0.506  -1.794 -1.1816 -1.3222 -1.1067
  120MOL0     H16524  11.676  -0.855  -1.552 -4.5363  0.8132 -1.1455
  120MOL0     H16525  11.652  -0.925  -1.716  0.9095  0.3562  0.3870
  120MOL0     H16526  11.933  -0.866  -1.605 -1.1787 -0.3769 -0.2208
  120MOL0     H16527  11.846  -1.016  -1.599  3.0679  0.0564  1.4628
  120MOL0     H16528  11.810  -0.969  -1.858  1.2183  0.0637 -1.5059
  120MOL0     H16529  11.964  -1.040  -1.806 -1.0944 -1.0001 -0.0247
  120MOL0     H16530  12.086  -0.841  -1.820 -0.4280  0.7710  2.4891
  120MOL0     H16531  11.952  -0.737  -1.826 -0.6729 -1.0362  0.9516
  120MOL0     H16532  12.020  -0.936  -2.054  2.0131 -0.0979  0.5628
  120MOL0     H16533  11.921  -0.795  -2.077 -1.8843 -1.5815  0.1807
  120MOL0     H16534  12.153  -0.798  -2.153 -2.5086 -3.2160  1.4491
  120MOL0     H16535  12.195  -0.748  -1.983  0.0179 -2.8548  0.6603
  120MOL0     H16536  12.069  -0.553  -1.987 -0.6430  0.8656  0.6939
  120MOL0     H16537  11.985  -0.594  -2.141  0.0828 -0.1911  0.3958
  120MOL0     H16538  12.161  -0.420  -2.167 -0.6263  1.1257  0.0900
  120MOL0     H16539  12.181  -0.576  -2.266 -0.1143 -1.0383  0.5022
  120MOL0     H16540  11.465  -0.777  -1.588  0.9299  0.5173  0.0545
  120MOL0     H16541  11.286  -0.616  -1.586 -3.2258  2.7779 -4.0341
  120MOL0     H16542  10.913  -0.347  -1.787  0.7990  0.2835 -1.9038
  120MOL0     H16543  10.763  -0.206  -1.711 -0.4543 -2.7333  0.1977
  120MOL0     H16544  10.895   0.745   0.063  1.3197 -0.2186  0.6980
  120MOL0     H16545  11.088   0.822   0.174 -1.6225 -0.0121 -0.6592
  120MOL0     H16546  11.487   1.037   0.103 -2.1029 -0.0117  1.8066
  120MOL0     H16547  11.726   1.117   0.134  1.1561  0.4572  1.5647
  120MOL0     H16548  11.947   1.001   0.109 -1.6838  1.3856  0.1142
  120MOL0     H16549  12.072   1.050   0.220  1.1164 -0.7452 -3.9588
  120MOL0     H16550  12.117   0.841   0.127  1.0135 -3.5513  0.4753
  120MOL0     H16551  11.959   0.777   0.167 -1.5386  2.1042  0.5958
  120MOL0     H16552  12.205   0.862   0.348  1.1438 -2.0313 -1.8359
  120MOL0     H16553  12.049   0.842   0.417 -0.4682  4.5973 -3.1295
  120MOL0     H16554  12.178   0.624   0.432  1.9722 -1.4308 -0.9960
  120MOL0     H16555  12.181   0.640   0.251  0.7844  1.9284  0.2735
  120MOL0     H16556  11.790   0.489   0.358  0.3843  0.5688  2.1164
  120MOL0     H16557  11.763   0.808   0.443  1.1600 -1.8232 -2.4386
  120MOL0     H16558  11.597   0.709   0.511  1.0854 -2.2384 -2.1782
  120MOL0     H16559  11.421   0.741   0.477 -2.0550  0.5595 -2.0524
  120MOL0     H16560  11.516   0.609   0.393  2.1932 -0.1939 -0.3202
  121MOL0     O16561   9.520   1.952   1.671 -0.0361 -0.2978 -0.0597
  121MOL0     C16562   9.522   2.079   1.681  0.1476  0.6755 -0.5278
  121MOL0     O16563   9.627   2.157   1.679 -0.2185  0.5311 -0.3876
  121MOL0     C16564   9.756   2.109   1.707 -0.4238 -0.0718 -0.8089
  121MOL0     C16565   9.866   2.171   1.636 -0.1172 -0.4627 -0.5351
  121MOL0     C16566  10.000   2.139   1.661 -0.1056  0.7599  0.1424
  121MOL0     C16567  10.028   2.033   1.757 -0.2068 -0.4744 -0.4545
  121MOL0     O16568  10.160   2.007   1.781  0.2034  0.8587 -0.3078
  121MOL0     C16569  10.184   1.942   1.906  0.5056  0.0756  0.1623
  121MOL0     C16570  10.336   1.917   1.910  0.3897 -0.0929 -0.0523
  121MOL0     C16571  10.377   1.924   2.056 -0.3249  0.7430 -0.0266
  121MOL0     C16572  10.530   1.923   2.051 -0.0525  0.7174 -0.5102
  121MOL0     C16573  10.591   1.929   2.191  0.6048  0.0494  0.6764
  121MOL0     C16574  10.745   1.949   2.182  0.5891  0.1245  0.3589
  121MOL0     C16575  10.808   1.931   2.329  1.0098  0.6470  1.0899
  121MOL0     C16576  10.800   2.054   2.419  0.1712  0.9459 -0.6111
  121MOL0     N16577  10.828   2.014   2.562 -0.1985 -1.2804 -0.9230
  121MOL0     C16578  10.948   1.962   2.603  0.4810  0.5154 -0.1121
  121MOL0     C16579  10.906   1.920   2.733 -0.2923  0.6597  0.2664
  121MOL0     C16580  10.996   1.827   2.806 -1.1445 -0.7714  0.1416
  121MOL0     C16581  10.989   1.849   2.957 -0.5035  0.6298 -0.5477
  121MOL0     C16582  11.054   1.739   3.033  0.0337  0.1824 -0.3850
  121MOL0     C16583  11.205   1.746   3.016 -0.3227  0.4767 -0.1681
  121MOL0     O16584  11.278   1.640   3.085  0.1170  0.4848 -0.0082
  121MOL0     C16585  11.300   1.632   3.222 -0.7551  0.4284 -1.0497
  121MOL0     C16586  11.391   1.534   3.256 -0.1808 -0.0465 -0.3593
  121MOL0     C16587  11.433   1.515   3.394 -0.1623  0.1650  0.5069
  121MOL0     C16588  11.559   1.423   3.405 -0.7649 -0.2064  0.1298
  121MOL0     C16589  11.371   1.587   3.497  0.5296 -0.0317 -0.0109
  121MOL0     C16590  11.404   1.570   3.635 -0.8737  0.1525 -0.3823
  121MOL0     O16591  11.405   1.440   3.678  0.1433 -0.0083  0.6186
  121MOL0     C16592  11.442   1.406   3.806 -0.1046  0.2911  0.1273
  121MOL0     C16593  11.573   1.416   3.854 -0.4618 -0.8340 -0.1805
  121MOL0     C16594  11.600   1.373   3.984  0.3139 -0.4580 -0.5746
  121MOL0     C16595  11.505   1.309   4.066 -0.4100  0.5446  0.1852
  121MOL0     O16596  11.518   1.280   4.203 -0.5774  0.2071 -0.2513
  121MOL0     C16597  11.639   1.331   4.274 -0.0820  0.4657 -0.3766
  121MOL0     C16598  11.752   1.227   4.268 -0.1769 -0.9612  0.9778
  121MOL0     C16599  11.890   1.271   4.337 -0.0088 -0.2023 -0.5947
  121MOL0     C16600  11.942   1.413   4.302 -0.1844  0.1621  0.1979
  121MOL0     C16601  12.059   1.445   4.391  0.8223 -0.3731 -0.1465
  121MOL0     C16602  12.025   1.522   4.522 -0.0426 -0.2768  0.3043
  121MOL0     C16603  12.136   1.502   4.628  0.6061  0.7330 -0.3005
  121MOL0     C16604  12.094   1.576   4.752 -0.2669  0.0725  0.1600
  121MOL0    Cl16605  11.976   1.482   4.844  0.0491 -0.4676 -0.4115
  121MOL0     C16606  11.378   1.283   4.008 -1.1179 -0.2308  0.1959
  121MOL0     C16607  11.351   1.331   3.875  0.7458 -1.2239  0.2352
  121MOL0     O16608  11.429   1.665   3.707  0.6571 -0.1680  0.8024
  121MOL0     C16609  11.268   1.677   3.455  0.0366  0.1967 -0.3124
  121MOL0     C16610  11.245   1.711   3.325  0.2912 -0.2770  0.5213
  121MOL0     N16611  10.772   1.946   2.757  0.3657 -0.4923 -0.1436
  121MOL0     N16612  10.729   2.011   2.654 -0.2904  0.0835 -0.1084
  121MOL0     C16613   9.920   1.966   1.818  0.2395 -0.2164  0.9054
  121MOL0     C16614   9.781   2.007   1.796  0.4697 -0.7863  0.4900
  121MOL0     C16615   9.388   2.145   1.680  0.2962 -0.4459  0.0435
  121MOL0     C16616   9.278   2.067   1.702 -0.3932  1.0446 -0.4349
  121MOL0     C16617   9.154   2.121   1.695 -0.4652 -0.2159 -0.1428
  121MOL0     C16618   9.129   2.253   1.683 -0.6169 -0.7866  0.9726
  121MOL0     O16619   8.998   2.300   1.700 -0.6496 -0.0792 -0.4676
  121MOL0     C16620   8.958   2.435   1.678  0.0943  0.3878 -0.3356
  121MOL0     C16621   8.812   2.461   1.712 -0.4649 -0.2582  0.1534
  121MOL0     C16622   8.716   2.368   1.627  0.2615  0.1802 -0.3309
  121MOL0     C16623   8.583   2.428   1.605 -0.1292 -0.0989 -0.0319
  121MOL0     C16624   8.516   2.468   1.726 -0.0595 -0.3557  0.1994
  121MOL0     C16625   8.480   2.511   1.831  0.2191  0.4248 -0.2477
  121MOL0     C16626   9.242   2.336   1.660 -0.1801 -0.1182  0.2633
  121MOL0     C16627   9.370   2.287   1.651 -0.1032 -0.1005  1.1222
  121MOL0     C16628   9.484   2.388   1.627  0.3640  0.4971  0.5664
  121MOL0     H16629   9.840   2.245   1.560  3.5529  0.9575 -0.6463
  121MOL0     H16630  10.085   2.184   1.610  0.8480 -0.4910  0.5816
  121MOL0     H16631  10.136   1.844   1.900  1.5411 -0.3980 -0.5915
  121MOL0     H16632  10.144   2.003   1.988  3.3317  0.8359  1.0703
  121MOL0     H16633  10.369   1.823   1.865  1.6780  0.4076 -0.1968
  121MOL0     H16634  10.383   1.994   1.849 -1.2594  0.3196 -0.8638
  121MOL0     H16635  10.352   2.013   2.114  1.9356 -0.7296  3.5085
  121MOL0     H16636  10.354   1.838   2.120 -0.5775  3.1252  3.2910
  121MOL0     H16637  10.553   1.825   2.010  2.6887  0.5329  1.2313
  121MOL0     H16638  10.568   2.005   1.988 -1.3778  2.7056  1.1395
  121MOL0     H16639  10.573   1.829   2.231  2.1556 -0.1309  0.9931
  121MOL0     H16640  10.546   2.005   2.255 -0.6874 -0.5789  0.5463
  121MOL0     H16641  10.789   1.866   2.127  1.8591 -0.5692  2.2912
  121MOL0     H16642  10.766   2.049   2.143 -0.9285  0.5395  0.5331
  121MOL0     H16643  10.914   1.905   2.326  1.2960  1.5042  3.0256
  121MOL0     H16644  10.766   1.840   2.373 -0.1434 -0.2806 -1.6722
  121MOL0     H16645  10.877   2.120   2.378  1.3799  0.4813  0.8177
  121MOL0     H16646  10.703   2.106   2.419  0.0118  0.6997  0.8009
  121MOL0     H16647  11.042   1.956   2.549  0.8453  0.8806  0.4733
  121MOL0     H16648  11.096   1.845   2.765 -1.3057  1.3488  0.5483
  121MOL0     H16649  10.971   1.723   2.785 -2.2421 -0.9867  2.2407
  121MOL0     H16650  11.046   1.941   2.973  3.0148 -1.0284 -2.3825
  121MOL0     H16651  10.883   1.856   2.981 -0.8043 -0.0209 -1.6027
  121MOL0     H16652  11.037   1.736   3.141  1.6520  1.2356 -0.0786
  121MOL0     H16653  11.025   1.639   2.998 -1.0999  0.6385 -0.7753
  121MOL0     H16654  11.230   1.714   2.914  1.0702 -2.3990  0.9812
  121MOL0     H16655  11.248   1.845   3.038  1.2401 -0.3633  0.7322
  121MOL0     H16656  11.447   1.483   3.178  2.3414  3.0151 -0.7665
  121MOL0     H16657  11.589   1.380   3.310  0.0317 -0.0389  0.2948
  121MOL0     H16658  11.541   1.343   3.477 -0.3862  0.0831  0.5558
  121MOL0     H16659  11.642   1.487   3.439  0.3061 -0.7901 -1.3344
  121MOL0     H16660  11.655   1.460   3.797 -0.7768  0.4114  0.2837
  121MOL0     H16661  11.703   1.386   4.016  0.9467 -1.0651 -2.2448
  121MOL0     H16662  11.668   1.435   4.256 -3.6213  2.4022  3.5470
  121MOL0     H16663  11.604   1.335   4.378  1.1002 -2.4812  0.2394
  121MOL0     H16664  11.704   1.137   4.307  0.0126 -1.7473 -0.5268
  121MOL0     H16665  11.772   1.202   4.164  1.9365 -0.1908  1.1518
  121MOL0     H16666  11.970   1.207   4.299 -0.0613  0.8653 -2.6434
  121MOL0     H16667  11.874   1.251   4.443  3.2799  0.8968  0.2049
  121MOL0     H16668  11.873   1.498   4.303 -0.0216  0.2864  1.2182
  121MOL0     H16669  11.986   1.410   4.202  2.2033  1.1970  1.1530
  121MOL0     H16670  12.110   1.351   4.413  0.2784 -1.6169 -3.6497
  121MOL0     H16671  12.127   1.509   4.334  1.0365 -2.1592 -1.9770
  121MOL0     H16672  11.935   1.482   4.569  2.2111 -4.8470  1.2401
  121MOL0     H16673  12.020   1.630   4.504 -1.9256  0.3418  3.7146
  121MOL0     H16674  12.225   1.538   4.575  1.1803 -0.7300 -0.3850
  121MOL0     H16675  12.165   1.399   4.649  0.8283  0.7692 -0.4184
  121MOL0     H16676  12.055   1.676   4.729  0.1274  0.4690  1.1412
  121MOL0     H16677  12.179   1.592   4.819 -0.7910  2.9580  0.2454
  121MOL0     H16678  11.310   1.219   4.064 -0.2715 -0.6824  0.7309
  121MOL0     H16679  11.261   1.311   3.817  0.5389 -4.4106  1.4740
  121MOL0     H16680  11.212   1.743   3.520 -1.9328  0.8928 -2.5667
  121MOL0     H16681  11.176   1.786   3.288  0.4277 -0.8162 -0.9075
  121MOL0     H16682   9.932   1.877   1.879  1.2874 -2.0252 -1.7444
  121MOL0     H16683   9.696   1.953   1.836  2.0867 -1.4561  3.2476
  121MOL0     H16684   9.284   1.966   1.741 -0.0070  0.2722 -2.3616
  121MOL0     H16685   9.075   2.051   1.719  0.6885 -1.6979 -0.5461
  121MOL0     H16686   9.021   2.508   1.730  1.6694  0.4441 -2.1920
  121MOL0     H16687   8.966   2.449   1.569 -1.2979 -0.3100 -0.5436
  121MOL0     H16688   8.792   2.567   1.693  1.6650  0.1392 -0.0288
  121MOL0     H16689   8.794   2.444   1.818  1.1692 -0.4888  0.4189
  121MOL0     H16690   8.757   2.342   1.529  2.5548 -0.4721  0.7521
  121MOL0     H16691   8.697   2.274   1.679 -1.3315  0.4989 -0.2773
  121MOL0     H16692   8.521   2.368   1.538  2.4300  0.0672 -2.7081
  121MOL0     H16693   8.599   2.519   1.546  1.9333 -0.0690  0.5201
  121MOL0     H16694   8.427   2.547   1.917 -0.2474  1.3597 -0.9081
  121MOL0     H16695   9.233   2.443   1.639 -0.8032 -0.3944 -0.9670
  121MOL0     H16696   9.527   2.413   1.724  2.3309  2.8734 -0.8018
  121MOL0     H16697   9.562   2.355   1.558  0.3878  2.3293 -0.3461
  121MOL0     H16698   9.455   2.482   1.579 -1.2522 -0.1837  0.1376
  122MOL0     O16699   4.691   1.681   1.101 -0.1849  0.0976 -0.4034
  122MOL0     C16700   4.620   1.690   1.006 -0.2110  0.0179  0.3472
  122MOL0     O16701   4.658   1.639   0.883  0.3295 -0.4717 -0.0052
  122MOL0     C16702   4.773   1.560   0.869  0.3152  0.2984 -0.3163
  122MOL0     C16703   4.835   1.471   0.961  0.2599 -0.8082 -0.2147
  122MOL0     C16704   4.936   1.386   0.913 -0.8907  0.6586 -0.1427
  122MOL0     C16705   4.987   1.401   0.777  0.4537  0.4877 -0.3807
  122MOL0     O16706   5.087   1.314   0.733  0.4050 -0.5044  0.4866
  122MOL0     C16707   5.142   1.330   0.601 -0.5094  0.5363 -0.3710
  122MOL0     C16708   5.148   1.192   0.535  0.9042  0.6341 -0.2376
  122MOL0     C16709   5.003   1.161   0.488 -0.8943 -0.1081 -0.3947
  122MOL0     C16710   4.991   1.034   0.417 -0.1809  0.4223  0.7136
  122MOL0     C16711   4.847   0.993   0.392  0.2392 -1.1032 -0.6445
  122MOL0     C16712   4.831   0.865   0.317 -0.3092 -0.1336  0.7965
  122MOL0     C16713   4.688   0.821   0.311  0.4131  1.1435 -0.0085
  122MOL0     C16714   4.675   0.688   0.222  0.1864 -0.1461 -0.4776
  122MOL0     N16715   4.726   0.695   0.085  0.0659  0.3996  0.5777
  122MOL0     C16716   4.685   0.781  -0.011  0.1890  0.8833 -0.1357
  122MOL0     C16717   4.753   0.749  -0.127  0.1779  0.8046 -0.9269
  122MOL0     C16718   4.760   0.815  -0.267 -0.0644 -0.0234 -1.4015
  122MOL0     C16719   4.622   0.841  -0.312 -0.0156  0.5614 -0.4365
  122MOL0     C16720   4.605   0.891  -0.450  0.4033 -0.0704 -0.1353
  122MOL0     C16721   4.458   0.929  -0.473 -0.1144  1.2442 -0.1323
  122MOL0     O16722   4.378   0.807  -0.460  0.1880 -0.4587  0.0295
  122MOL0     C16723   4.253   0.799  -0.513 -0.1843  0.5113 -0.1906
  122MOL0     C16724   4.196   0.886  -0.608  0.0697  0.2109 -0.1991
  122MOL0     C16725   4.061   0.877  -0.646  0.5149 -0.3928 -0.3072
  122MOL0     C16726   4.018   0.994  -0.731  0.1880  0.3946  0.6225
  122MOL0     C16727   3.985   0.764  -0.603 -0.2629 -0.3713 -0.1206
  122MOL0     C16728   3.841   0.734  -0.641  0.4426  0.2943 -0.1534
  122MOL0     O16729   3.766   0.661  -0.546 -0.5433  0.0572 -0.5021
  122MOL0     C16730   3.628   0.653  -0.565  0.0593  0.2854  0.1986
  122MOL0     C16731   3.552   0.679  -0.449  0.1020  0.1395  0.2807
  122MOL0     C16732   3.418   0.698  -0.454 -0.4577 -0.1761  0.3269
  122MOL0     C16733   3.348   0.675  -0.571  0.2074 -0.1630  0.3860
  122MOL0     O16734   3.214   0.700  -0.578 -0.2882  0.4654  0.6732
  122MOL0     C16735   3.146   0.600  -0.664 -0.1000  0.2208 -1.1546
  122MOL0     C16736   2.991   0.611  -0.671  1.0711 -0.8274  0.4599
  122MOL0     C16737   2.934   0.606  -0.533  0.1410  0.9171 -0.0479
  122MOL0     C16738   2.785   0.554  -0.527 -0.1724  0.4560  0.4194
  122MOL0     C16739   2.709   0.603  -0.409 -0.0637 -0.3839  0.3678
  122MOL0     C16740   2.715   0.492  -0.303  0.4077 -0.2051 -0.0848
  122MOL0     C16741   2.618   0.499  -0.176  0.7581 -0.6289  0.1079
  122MOL0     C16742   2.508   0.382  -0.176 -0.7026  0.1955 -0.0664
  122MOL0    Cl16743   2.594   0.219  -0.186  0.1362  0.0559 -0.0191
  122MOL0     C16744   3.417   0.641  -0.685  0.5434 -0.2456  0.3039
  122MOL0     C16745   3.555   0.634  -0.689 -0.6551 -0.5887  0.9116
  122MOL0     O16746   3.793   0.785  -0.741 -0.3262  0.0484 -0.6153
  122MOL0     C16747   4.047   0.680  -0.512  0.4608 -0.6203  0.0697
  122MOL0     C16748   4.174   0.701  -0.464 -0.1715  0.6893  0.4544
  122MOL0     N16749   4.833   0.633  -0.102 -0.0325 -0.3429  0.1556
  122MOL0     N16750   4.812   0.609   0.024 -0.2724 -0.3473  0.3756
  122MOL0     C16751   4.938   1.512   0.704  0.4820  0.7278 -0.2163
  122MOL0     C16752   4.838   1.587   0.748  0.1316  0.2347 -0.2423
  122MOL0     C16753   4.495   1.757   1.034  1.0520 -0.4140  1.0272
  122MOL0     C16754   4.485   1.852   1.136  0.4904  1.3071 -0.1903
  122MOL0     C16755   4.367   1.921   1.165 -0.0318  0.9873 -0.5509
  122MOL0     C16756   4.249   1.884   1.110  0.0634  0.0125 -0.1822
  122MOL0     O16757   4.130   1.951   1.149 -0.6357  0.3898 -0.6014
  122MOL0     C16758   4.001   1.929   1.074  0.2490  0.2662 -0.4128
  122MOL0     C16759   3.936   1.788   1.117 -0.1747 -0.4833 -0.3921
  122MOL0     C16760   3.934   1.748   1.268  0.9749  1.0026  0.5712
  122MOL0     C16761   3.823   1.819   1.347  0.0181  0.4338 -0.0645
  122MOL0     C16762   3.827   1.792   1.488 -0.1240 -0.7182  0.0782
  122MOL0     C16763   3.807   1.796   1.612  0.2761  0.7584 -0.5906
  122MOL0     C16764   4.259   1.794   1.002  0.0869  0.3424  0.1473
  122MOL0     C16765   4.379   1.738   0.955  0.2012 -0.8460 -0.2769
  122MOL0     C16766   4.380   1.635   0.846 -0.4900  0.1240  0.3408
  122MOL0     H16767   4.790   1.462   1.059  0.6608  0.5765  0.1213
  122MOL0     H16768   4.988   1.318   0.979 -1.9912  1.2097  1.3328
  122MOL0     H16769   5.247   1.357   0.615  0.0783 -1.8917  0.5670
  122MOL0     H16770   5.089   1.395   0.531 -0.8398 -2.2323 -2.9156
  122MOL0     H16771   5.213   1.200   0.448  0.0982 -2.9428 -1.3400
  122MOL0     H16772   5.185   1.110   0.598  2.6070  1.7721  0.3185
  122MOL0     H16773   4.935   1.153   0.573 -1.7037 -0.2225 -1.0409
  122MOL0     H16774   4.976   1.240   0.416 -2.2102  0.1472  0.3617
  122MOL0     H16775   5.038   1.042   0.319 -0.7564  2.1118  0.5419
  122MOL0     H16776   5.040   0.957   0.478 -0.6169  0.4201  1.0670
  122MOL0     H16777   4.791   1.071   0.339  0.2052 -0.3884  0.4020
  122MOL0     H16778   4.797   0.979   0.489  0.2409  0.1852 -0.4348
  122MOL0     H16779   4.867   0.884   0.216  0.2071  1.4223  1.2471
  122MOL0     H16780   4.895   0.788   0.362  1.8244 -0.7956 -2.9703
  122MOL0     H16781   4.616   0.890   0.267 -0.0421  0.2182 -0.7622
  122MOL0     H16782   4.664   0.797   0.415  1.7712 -0.6932 -0.0682
  122MOL0     H16783   4.730   0.617   0.286 -3.1073 -1.3654  1.2163
  122MOL0     H16784   4.569   0.664   0.231  0.8278 -2.4729  2.9352
  122MOL0     H16785   4.620   0.867  -0.005 -0.7407  0.3544 -2.0225
  122MOL0     H16786   4.825   0.751  -0.327 -0.4807 -1.9895  0.1429
  122MOL0     H16787   4.808   0.912  -0.256 -1.8810  0.7122  0.9866
  122MOL0     H16788   4.576   0.742  -0.302  1.5135 -0.0040  1.6787
  122MOL0     H16789   4.566   0.899  -0.239 -2.9631 -1.1870 -1.1342
  122MOL0     H16790   4.669   0.978  -0.458  1.3482 -0.8388 -1.1415
  122MOL0     H16791   4.637   0.818  -0.525 -0.6713 -2.7182  1.7866
  122MOL0     H16792   4.427   0.989  -0.386  0.3733  0.4655  0.5859
  122MOL0     H16793   4.451   0.975  -0.572  3.6117  0.9778 -0.6596
  122MOL0     H16794   4.256   0.965  -0.653 -0.1466 -1.6343 -4.1781
  122MOL0     H16795   4.016   0.960  -0.836 -1.4190 -1.4231  1.1708
  122MOL0     H16796   4.074   1.086  -0.714  0.0688  0.9661 -1.6526
  122MOL0     H16797   3.914   1.017  -0.707 -0.7493 -0.4983 -2.1318
  122MOL0     H16798   3.603   0.695  -0.354 -1.0404  0.2483  0.8966
  122MOL0     H16799   3.368   0.743  -0.369  0.4379  3.1215 -0.7236
  122MOL0     H16800   3.170   0.620  -0.768 -2.0926  1.3695 -1.4356
  122MOL0     H16801   3.181   0.501  -0.632  0.3441  0.7831  0.2043
  122MOL0     H16802   2.953   0.697  -0.727 -0.4584 -1.5593  0.3413
  122MOL0     H16803   2.953   0.525  -0.727  0.0649  0.0994 -0.3123
  122MOL0     H16804   2.938   0.707  -0.491  0.6464  0.9967 -0.2784
  122MOL0     H16805   2.993   0.537  -0.472  0.2949 -0.7530 -1.9828
  122MOL0     H16806   2.781   0.446  -0.544 -1.6238  0.8217 -2.1063
  122MOL0     H16807   2.746   0.605  -0.616  3.6344 -0.2472 -1.8630
  122MOL0     H16808   2.753   0.692  -0.364 -4.4103  1.8963  0.6473
  122MOL0     H16809   2.609   0.627  -0.445 -1.2399 -2.7431  1.7442
  122MOL0     H16810   2.817   0.499  -0.262  0.5589  1.5297 -0.6354
  122MOL0     H16811   2.697   0.397  -0.353  0.8758  0.8185 -2.3344
  122MOL0     H16812   2.562   0.593  -0.175  0.7526 -0.6299 -0.0555
  122MOL0     H16813   2.658   0.497  -0.075 -0.0001  0.6282  0.4540
  122MOL0     H16814   2.453   0.392  -0.270  0.4361  3.7953 -0.5077
  122MOL0     H16815   2.434   0.386  -0.096 -0.6956  0.5202 -0.0728
  122MOL0     H16816   3.364   0.623  -0.778  1.1925 -1.8464  0.1976
  122MOL0     H16817   3.620   0.607  -0.772 -0.2593 -0.3001  1.1211
  122MOL0     H16818   4.005   0.590  -0.468  1.5913 -2.3270 -2.2037
  122MOL0     H16819   4.220   0.633  -0.393  0.8661  0.6533 -0.2278
  122MOL0     H16820   4.991   1.539   0.613 -0.7952  2.9756 -0.3602
  122MOL0     H16821   4.799   1.674   0.694 -0.5046  0.5276  0.6709
  122MOL0     H16822   4.577   1.863   1.193  1.9589 -1.3859 -1.7982
  122MOL0     H16823   4.364   2.002   1.237 -0.6740  0.1346  0.4040
  122MOL0     H16824   3.927   2.004   1.100  1.4670  1.1954  0.5161
  122MOL0     H16825   4.010   1.939   0.966  0.8572 -1.0975 -0.5098
  122MOL0     H16826   4.009   1.717   1.077  0.9673  0.9009 -0.8615
  122MOL0     H16827   3.844   1.765   1.063 -0.6447  0.2474  0.0853
  122MOL0     H16828   3.917   1.641   1.281  0.0212  0.7545 -2.2051
  122MOL0     H16829   4.032   1.779   1.307  1.8957 -1.8578  0.7386
  122MOL0     H16830   3.734   1.800   1.286  1.6472  2.1215 -3.2237
  122MOL0     H16831   3.835   1.928   1.343  0.6809  0.5494  2.9607
  122MOL0     H16832   3.797   1.789   1.719  4.9640  0.8240  0.0828
  122MOL0     H16833   4.174   1.760   0.943  1.8462 -0.5700 -2.0101
  122MOL0     H16834   4.466   1.653   0.781  1.8611 -0.1773  3.1450
  122MOL0     H16835   4.398   1.536   0.890 -0.1467 -0.1138 -0.3141
  122MOL0     H16836   4.288   1.639   0.787  1.1948  1.0439 -2.4232
  123MOL0     O16837   2.152  10.024   3.925 -0.0293 -0.3497  0.0705
  123MOL0     C16838   2.078  10.118   3.890 -0.3016 -0.2181 -0.6298
  123MOL0     O16839   2.112  10.238   3.844 -0.1466  0.7819  0.2516
  123MOL0     C16840   2.239  10.280   3.839 -0.3985  0.1269  0.4868
  123MOL0     C16841   2.273  10.400   3.902 -0.0082  0.5308 -0.0822
  123MOL0     C16842   2.406  10.447   3.899  0.9396  0.1859 -0.4440
  123MOL0     C16843   2.503  10.379   3.827 -0.5173  0.1848  0.0538
  123MOL0     O16844   2.625  10.442   3.819  0.1299 -0.3113  0.0985
  123MOL0     C16845   2.714  10.395   3.717 -0.7354  0.5056  0.0914
  123MOL0     C16846   2.836  10.456   3.769  0.2124  0.2035 -0.4372
  123MOL0     C16847   2.969  10.424   3.695 -0.0998 -0.3996 -0.5639
  123MOL0     C16848   3.082  10.469   3.791  0.5823  0.5554  0.0707
  123MOL0     C16849   3.216  10.486   3.716 -0.1103 -0.0704  0.3523
  123MOL0     C16850   3.338  10.478   3.815  0.7084  0.0251  0.1238
  123MOL0     C16851   3.325  10.593   3.917 -0.2442  0.1605  0.3470
  123MOL0     C16852   3.466  10.648   3.929 -0.4925 -0.3104 -0.0561
  123MOL0     N16853   3.466  10.766   4.017 -0.4344 -0.3263  0.2479
  123MOL0     C16854   3.510  10.894   3.982  0.1472 -0.0947  0.3444
  123MOL0     C16855   3.480  10.969   4.086 -1.0324 -0.6964  0.6515
  123MOL0     C16856   3.491  11.120   4.086 -0.2433  0.1687  1.1053
  123MOL0     C16857   3.628  11.161   4.150  0.2897 -1.1048 -0.2191
  123MOL0     C16858   3.611  11.294   4.223  0.4612  0.3737 -0.2035
  123MOL0     C16859   3.527  11.270   4.346 -0.4005  0.3037 -0.1013
  123MOL0     O16860   3.500  11.405   4.390 -0.1779 -0.0944  0.3337
  123MOL0     C16861   3.584  11.473   4.479 -0.4119  0.4786  0.3686
  123MOL0     C16862   3.557  11.599   4.517 -0.4902 -0.0239 -0.8536
  123MOL0     C16863   3.654  11.678   4.582  0.1514  1.0972 -0.2301
  123MOL0     C16864   3.617  11.820   4.622 -0.7536 -0.3533  0.2981
  123MOL0     C16865   3.782  11.623   4.618 -0.0160 -0.0020 -0.5826
  123MOL0     C16866   3.900  11.684   4.680 -0.5775  0.7039  0.2887
  123MOL0     O16867   3.994  11.605   4.738 -0.3688  0.1535 -0.5158
  123MOL0     C16868   4.098  11.678   4.793 -1.0195  0.5389  0.0268
  123MOL0     C16869   4.131  11.680   4.929  0.1131 -0.9755  0.7094
  123MOL0     C16870   4.240  11.755   4.975 -0.8342  1.2560  0.6313
  123MOL0     C16871   4.326  11.830   4.889  0.0620 -0.0404  0.6095
  123MOL0     O16872   4.434  11.914   4.927  0.4267  0.0738  0.5506
  123MOL0     C16873   4.484  11.910   5.061 -0.7155 -0.5222  0.3263
  123MOL0     C16874   4.546  11.775   5.100 -0.0618 -0.9294  0.7540
  123MOL0     C16875   4.649  11.736   4.994  0.2663 -0.2449  0.3482
  123MOL0     C16876   4.743  11.622   5.030 -0.5315 -0.8232 -0.4062
  123MOL0     C16877   4.855  11.605   4.931 -0.6751 -0.2046 -0.1323
  123MOL0     C16878   4.960  11.503   4.970  0.6962  0.1015  0.1301
  123MOL0     C16879   5.040  11.554   5.087  0.0461  0.5946 -0.5850
  123MOL0     C16880   5.149  11.457   5.138 -0.7438 -0.0920 -0.4309
  123MOL0    Cl16881   5.275  11.447   5.015  0.1587 -0.1393  0.1673
  123MOL0     C16882   4.304  11.808   4.750 -0.4592  0.1118  0.3345
  123MOL0     C16883   4.189  11.735   4.708  0.1372  0.1189  0.1531
  123MOL0     O16884   3.915  11.805   4.657  0.1942 -0.5737 -0.7333
  123MOL0     C16885   3.801  11.487   4.584 -0.5129  0.3808  0.3308
  123MOL0     C16886   3.708  11.416   4.515  0.4479  0.0910 -0.0622
  123MOL0     N16887   3.435  10.892   4.187  0.7657  0.6500 -0.0002
  123MOL0     N16888   3.421  10.772   4.142  0.0694 -0.3660  0.4383
  123MOL0     C16889   2.470  10.255   3.765 -0.3478 -0.0212  0.5730
  123MOL0     C16890   2.341  10.209   3.769 -0.0897 -0.2990 -0.6753
  123MOL0     C16891   1.937  10.090   3.887  0.4060 -0.0520 -1.6978
  123MOL0     C16892   1.886   9.952   3.876 -0.7438  0.4440  0.2524
  123MOL0     C16893   1.764   9.910   3.869  0.6672  0.1617 -0.6971
  123MOL0     C16894   1.660  10.004   3.895  0.4222 -0.9059 -1.2888
  123MOL0     O16895   1.531   9.963   3.896  0.8110 -0.0918 -0.3388
  123MOL0     C16896   1.436  10.057   3.946  0.5059 -0.5865 -0.6349
  123MOL0     C16897   1.310   9.986   3.960 -0.5277 -0.5305 -0.0355
  123MOL0     C16898   1.251   9.930   3.831  0.4474  0.1226 -1.1066
  123MOL0     C16899   1.141   9.823   3.848  0.6269 -0.6510 -0.1040
  123MOL0     C16900   1.065   9.828   3.974 -1.1392 -0.2411 -0.2042
  123MOL0     C16901   0.994   9.827   4.079 -0.0196 -0.0389  0.9217
  123MOL0     C16902   1.702  10.136   3.929 -0.1690  0.7808  0.0594
  123MOL0     C16903   1.835  10.181   3.928  0.1288 -0.0556 -0.3800
  123MOL0     C16904   1.865  10.333   3.958  0.3833 -0.0799 -0.2838
  123MOL0     H16905   2.193  10.456   3.949 -0.3920 -0.2761  0.2290
  123MOL0     H16906   2.428  10.538   3.954 -3.7538  0.9830  0.6067
  123MOL0     H16907   2.699  10.431   3.615  2.5250  2.1664  0.0711
  123MOL0     H16908   2.715  10.286   3.711  0.1806  0.5219 -0.2259
  123MOL0     H16909   2.822  10.565   3.766 -0.8058  0.0840 -0.2514
  123MOL0     H16910   2.843  10.432   3.875 -0.3324  5.3244  1.0679
  123MOL0     H16911   2.969  10.322   3.657 -2.3923  0.0459 -1.9402
  123MOL0     H16912   2.976  10.486   3.605  1.8861 -0.4690 -0.4969
  123MOL0     H16913   3.053  10.561   3.843 -2.9237  0.3658 -1.2469
  123MOL0     H16914   3.099  10.394   3.868 -1.3940  0.0886  0.1179
  123MOL0     H16915   3.215  10.588   3.677 -2.1902  1.3963  3.8079
  123MOL0     H16916   3.239  10.420   3.631  2.6151  2.6557 -1.2538
  123MOL0     H16917   3.332  10.375   3.852 -1.7114 -0.8284 -2.2410
  123MOL0     H16918   3.425  10.492   3.751  1.0036 -1.7629  0.0889
  123MOL0     H16919   3.282  10.569   4.014 -1.8907  1.9351  0.1173
  123MOL0     H16920   3.266  10.673   3.872  1.5668  1.6684  0.5456
  123MOL0     H16921   3.532  10.572   3.972 -0.7331 -1.4606 -1.6467
  123MOL0     H16922   3.504  10.677   3.830  0.1245 -4.0749 -1.0955
  123MOL0     H16923   3.545  10.921   3.883  2.0084  3.1649  1.7483
  123MOL0     H16924   3.401  11.161   4.132  0.5289 -1.0977  3.9676
  123MOL0     H16925   3.487  11.150   3.981  1.1434  0.8958  1.2319
  123MOL0     H16926   3.665  11.090   4.226 -3.5170 -0.2990  2.6965
  123MOL0     H16927   3.710  11.181   4.080  1.2243  1.4729  1.4862
  123MOL0     H16928   3.712  11.328   4.245 -0.5455  2.3576  1.8045
  123MOL0     H16929   3.565  11.368   4.156  1.5094  1.9365  0.7364
  123MOL0     H16930   3.431  11.227   4.317 -1.2894  1.1394  1.4857
  123MOL0     H16931   3.570  11.205   4.422  1.8455  1.3822 -0.3676
  123MOL0     H16932   3.464  11.648   4.490  0.3117  1.3325 -1.2526
  123MOL0     H16933   3.654  11.897   4.554 -3.0449  2.4960  2.0823
  123MOL0     H16934   3.662  11.838   4.720  1.5453  1.2920 -0.9825
  123MOL0     H16935   3.512  11.849   4.629 -0.7140  0.1508 -0.9055
  123MOL0     H16936   4.077  11.621   5.003 -2.3226  1.2286  0.8183
  123MOL0     H16937   4.250  11.755   5.083 -2.2301  0.0066  0.7931
  123MOL0     H16938   4.568  11.980   5.054  0.5289 -1.9470  0.2428
  123MOL0     H16939   4.401  11.943   5.123  1.2722  0.3416  2.6823
  123MOL0     H16940   4.605  11.800   5.189 -0.5775 -0.2573  0.9144
  123MOL0     H16941   4.477  11.691   5.112 -1.0146 -0.2282  0.2572
  123MOL0     H16942   4.704  11.828   4.973 -1.2899  0.7309  0.3709
  123MOL0     H16943   4.596  11.723   4.899 -0.3686 -0.0306  0.6665
  123MOL0     H16944   4.685  11.529   5.023 -1.2024 -0.3733 -1.0061
  123MOL0     H16945   4.769  11.646   5.133  1.8435  1.6574 -1.4685
  123MOL0     H16946   4.819  11.570   4.833  0.6747 -1.2775 -0.2852
  123MOL0     H16947   4.907  11.700   4.925 -1.5642  0.3131  0.1951
  123MOL0     H16948   5.018  11.470   4.883 -0.3620  0.3773 -0.7102
  123MOL0     H16949   4.909  11.411   5.000  1.5355 -0.0982  0.9612
  123MOL0     H16950   4.974  11.574   5.172  1.9391  0.0655  1.0802
  123MOL0     H16951   5.081  11.650   5.054  1.6306 -0.6225 -2.3172
  123MOL0     H16952   5.096  11.363   5.158 -1.8578  0.2980 -1.4920
  123MOL0     H16953   5.191  11.480   5.237  0.3157 -0.3154 -0.8180
  123MOL0     H16954   4.377  11.848   4.681  2.4669 -2.4151  1.7316
  123MOL0     H16955   4.184  11.719   4.601  0.5820  2.1394 -0.2131
  123MOL0     H16956   3.888  11.427   4.607 -0.9030 -0.9532 -1.4382
  123MOL0     H16957   3.733  11.314   4.489 -1.1237  0.1008 -1.8103
  123MOL0     H16958   2.540  10.185   3.720 -0.5750  1.0467 -1.5704
  123MOL0     H16959   2.318  10.109   3.733  0.7433 -0.1921 -1.5663
  123MOL0     H16960   1.966   9.886   3.844  1.2749  1.9430  1.8791
  123MOL0     H16961   1.734   9.810   3.839  0.1182 -0.2534  1.0542
  123MOL0     H16962   1.472  10.095   4.041  1.9626 -0.6181 -1.1583
  123MOL0     H16963   1.413  10.142   3.881 -0.1350  1.9250  2.6121
  123MOL0     H16964   1.236  10.044   4.017 -1.1368 -0.5261 -0.8127
  123MOL0     H16965   1.327   9.897   4.021 -3.3011 -1.8098 -0.9809
  123MOL0     H16966   1.210  10.009   3.766 -0.3611 -0.7608 -1.7017
  123MOL0     H16967   1.328   9.873   3.778  1.9354  1.5763 -0.5966
  123MOL0     H16968   1.186   9.724   3.859  3.6317  0.7895  1.8927
  123MOL0     H16969   1.073   9.823   3.762  1.3114 -2.0248 -0.6821
  123MOL0     H16970   0.917   9.825   4.153 -0.6071  2.9017  0.5141
  123MOL0     H16971   1.626  10.211   3.947  0.8644  1.6557  0.9613
  123MOL0     H16972   1.959  10.347   4.013  0.4825  2.6089 -1.0286
  123MOL0     H16973   1.886  10.380   3.862  1.0233  1.3980  0.5531
  123MOL0     H16974   1.782  10.375   4.016  1.3901  0.5393  0.7569
  124MOL0     O16975   2.866   0.428   8.779 -0.0339 -0.3291  0.3589
  124MOL0     C16976   2.802   0.421   8.889  0.1106 -0.5825  0.1866
  124MOL0     O16977   2.840   0.471   9.011 -0.7385  0.4339  0.3463
  124MOL0     C16978   2.970   0.515   9.026  0.3763  1.0192 -1.1955
  124MOL0     C16979   3.021   0.633   8.977 -0.3418 -0.6915  0.4652
  124MOL0     C16980   3.156   0.664   8.994 -0.7799 -0.0835  0.3556
  124MOL0     C16981   3.246   0.575   9.054  0.0377  0.2852  0.3603
  124MOL0     O16982   3.382   0.589   9.045 -0.0506 -0.4216  0.1010
  124MOL0     C16983   3.452   0.571   8.920  0.7987 -0.5930  0.1034
  124MOL0     C16984   3.593   0.598   8.947  0.1607 -0.2061 -0.3395
  124MOL0     C16985   3.684   0.603   8.824  0.0879  0.5084  0.0429
  124MOL0     C16986   3.796   0.698   8.834 -0.0146 -0.6204  0.4225
  124MOL0     C16987   3.863   0.708   8.691 -0.3481 -0.0973  0.2621
  124MOL0     C16988   3.991   0.800   8.678 -0.0139  0.1599 -0.3436
  124MOL0     C16989   4.027   0.831   8.532  0.2257  0.6296 -0.1773
  124MOL0     C16990   3.950   0.959   8.489 -0.0627  0.0905  0.0922
  124MOL0     N16991   4.018   0.991   8.361  0.7611 -0.6784  0.5894
  124MOL0     C16992   4.029   0.903   8.255  0.3000  0.0877  0.1470
  124MOL0     C16993   4.077   0.971   8.153 -0.5957  0.5690  0.1314
  124MOL0     C16994   4.117   0.930   8.017 -0.0788 -0.0516 -0.1512
  124MOL0     C16995   4.007   0.950   7.912  0.2435 -0.0262 -0.2487
  124MOL0     C16996   4.003   1.100   7.873 -0.4286 -0.1958 -0.1846
  124MOL0     C16997   3.919   1.111   7.747 -0.0099 -0.1605 -0.0159
  124MOL0     O16998   3.784   1.099   7.790 -0.2286 -0.3630 -0.6458
  124MOL0     C16999   3.689   1.091   7.693  0.7861  0.3644  0.7850
  124MOL0     C17000   3.563   1.025   7.719 -0.0940 -0.7401  0.0330
  124MOL0     C17001   3.451   1.030   7.626 -0.0299  0.5431 -1.0244
  124MOL0     C17002   3.320   0.956   7.666  0.6858 -0.3009 -1.2594
  124MOL0     C17003   3.467   1.080   7.496  1.3214 -0.6613  1.0412
  124MOL0     C17004   3.365   1.070   7.387 -0.6022  0.0245 -0.3567
  124MOL0     O17005   3.248   1.123   7.415 -0.1177 -0.0244  0.6963
  124MOL0     C17006   3.141   1.102   7.334  0.4723 -0.0553  0.6508
  124MOL0     C17007   3.135   1.017   7.219  0.4078 -0.3649  0.2484
  124MOL0     C17008   3.017   0.998   7.143 -0.2944  1.4912  0.7136
  124MOL0     C17009   2.893   1.047   7.185 -0.0770  0.9062  0.7399
  124MOL0     O17010   2.787   1.003   7.110 -0.7466  0.1306 -0.1454
  124MOL0     C17011   2.658   1.038   7.140 -0.0938 -0.2866  1.6713
  124MOL0     C17012   2.632   1.176   7.074 -0.0649 -0.1369 -0.1348
  124MOL0     C17013   2.624   1.160   6.919 -0.0750  0.5630 -0.1693
  124MOL0     C17014   2.556   1.278   6.862  0.3893  0.3242  0.0638
  124MOL0     C17015   2.545   1.293   6.715 -0.5796 -0.1660  0.2469
  124MOL0     C17016   2.466   1.182   6.656 -0.6558 -0.2641  0.9866
  124MOL0     C17017   2.458   1.211   6.498  0.1699 -1.2867  0.0762
  124MOL0     C17018   2.600   1.195   6.424  1.2784  0.2494  0.5804
  124MOL0    Cl17019   2.649   1.027   6.468  0.0266  0.2081 -0.0816
  124MOL0     C17020   2.900   1.133   7.299  0.0593  0.5064 -0.0676
  124MOL0     C17021   3.017   1.153   7.368 -0.3406  0.5260 -0.1869
  124MOL0     O17022   3.418   1.044   7.283 -0.0987  0.1811  0.7705
  124MOL0     C17023   3.593   1.139   7.466 -1.2106 -0.2407 -0.1558
  124MOL0     C17024   3.703   1.142   7.557 -0.0509 -0.5736 -0.5424
  124MOL0     N17025   4.103   1.105   8.204  0.2120 -0.1048  0.5135
  124MOL0     N17026   4.054   1.115   8.321 -0.0693 -0.3269 -0.0021
  124MOL0     C17027   3.193   0.459   9.114 -0.4290  0.5124 -1.0003
  124MOL0     C17028   3.060   0.430   9.098  0.1159 -0.0192 -0.7913
  124MOL0     C17029   2.657   0.361   8.873 -0.7538 -0.1218  0.1879
  124MOL0     C17030   2.575   0.380   8.990 -0.3236  0.1163  0.4928
  124MOL0     C17031   2.445   0.332   8.998  0.9138 -0.3962 -0.0088
  124MOL0     C17032   2.381   0.272   8.884  0.0386 -0.0671 -0.1100
  124MOL0     O17033   2.253   0.222   8.883 -0.3690 -0.7592  0.8081
  124MOL0     C17034   2.157   0.296   8.960 -0.2113  0.8166  0.0300
  124MOL0     C17035   2.014   0.239   8.945 -0.1296 -0.5925 -0.5016
  124MOL0     C17036   1.955   0.272   8.810 -0.5054 -0.0485 -0.2774
  124MOL0     C17037   1.849   0.390   8.814 -0.1070 -0.1980  0.9562
  124MOL0     C17038   1.908   0.523   8.832 -0.2189 -0.2319 -0.5603
  124MOL0     C17039   1.973   0.627   8.843  0.5060  0.7788 -0.5211
  124MOL0     C17040   2.455   0.256   8.765 -0.3001  0.2740  0.7785
  124MOL0     C17041   2.595   0.298   8.760  0.8854 -0.5728 -0.9132
  124MOL0     C17042   2.668   0.274   8.625  0.3170  0.1275  0.4962
  124MOL0     H17043   2.945   0.696   8.933 -1.7124 -1.9602  0.9067
  124MOL0     H17044   3.193   0.754   8.946 -1.5402 -0.3080 -0.6744
  124MOL0     H17045   3.415   0.631   8.836  1.5422  1.5423  1.2284
  124MOL0     H17046   3.446   0.466   8.891 -0.8077 -1.5507  3.3878
  124MOL0     H17047   3.600   0.691   9.003  0.2093 -0.4517  0.0662
  124MOL0     H17048   3.627   0.514   9.009 -0.8801 -0.2619  0.1856
  124MOL0     H17049   3.720   0.502   8.802  0.7721  0.6826  0.3301
  124MOL0     H17050   3.620   0.634   8.741  0.7347 -2.6026 -1.7995
  124MOL0     H17051   3.767   0.801   8.860  1.3109 -0.3060  0.7430
  124MOL0     H17052   3.868   0.659   8.906  1.8900 -1.2054 -1.6704
  124MOL0     H17053   3.796   0.748   8.614  3.0653  0.2327 -2.8191
  124MOL0     H17054   3.887   0.612   8.645  2.4297  2.2229 -3.8478
  124MOL0     H17055   3.992   0.898   8.727 -0.9957  0.0988 -0.1925
  124MOL0     H17056   4.067   0.737   8.725 -0.2492 -3.5747 -4.3325
  124MOL0     H17057   4.007   0.738   8.477  2.6402 -0.3602  0.5128
  124MOL0     H17058   4.133   0.851   8.518  0.7680 -2.2722 -0.8729
  124MOL0     H17059   3.845   0.930   8.481 -0.3997  0.0751  3.3070
  124MOL0     H17060   3.958   1.051   8.549 -1.0257  0.1249  0.1806
  124MOL0     H17061   4.001   0.799   8.245 -0.5535  0.3654 -0.4942
  124MOL0     H17062   4.153   0.828   8.029  1.4302  0.4198 -0.4043
  124MOL0     H17063   4.206   0.988   7.991  1.9781 -4.0295 -3.0061
  124MOL0     H17064   4.028   0.897   7.819  0.1673 -0.1037 -0.2220
  124MOL0     H17065   3.909   0.913   7.942  1.0172 -1.4352  0.6123
  124MOL0     H17066   3.963   1.162   7.954  1.2281  1.7161 -0.7204
  124MOL0     H17067   4.102   1.140   7.848  0.7765 -3.7982 -1.8305
  124MOL0     H17068   3.946   1.212   7.715  1.3784 -0.1391  1.0863
  124MOL0     H17069   3.941   1.031   7.676 -3.3168 -0.9797 -0.2814
  124MOL0     H17070   3.559   0.968   7.812 -0.2399 -0.7718  0.0071
  124MOL0     H17071   3.327   0.907   7.763 -0.4730  2.0850  0.1284
  124MOL0     H17072   3.291   0.876   7.598 -0.0047  1.1857 -2.7991
  124MOL0     H17073   3.233   1.023   7.677 -1.1711 -2.8830  1.2442
  124MOL0     H17074   3.223   0.980   7.167 -0.8806 -0.4344 -2.0560
  124MOL0     H17075   3.028   0.933   7.057  1.8062 -0.0543  2.0495
  124MOL0     H17076   2.585   0.969   7.097 -0.7112  1.1200  0.3529
  124MOL0     H17077   2.635   1.055   7.246  1.7575 -0.9411  2.2161
  124MOL0     H17078   2.534   1.213   7.105  1.1318  2.4603  0.8807
  124MOL0     H17079   2.705   1.245   7.118 -0.3215 -1.2433  2.1772
  124MOL0     H17080   2.562   1.073   6.896  1.0363 -0.4749  0.6029
  124MOL0     H17081   2.726   1.148   6.880 -0.0787 -2.2158  0.4674
  124MOL0     H17082   2.609   1.370   6.888 -1.0761  1.4892 -0.9152
  124MOL0     H17083   2.457   1.280   6.908  0.0285 -4.1527 -0.0827
  124MOL0     H17084   2.487   1.385   6.703 -1.9478 -0.7644  1.8817
  124MOL0     H17085   2.649   1.291   6.681 -0.1530 -2.8856  1.4751
  124MOL0     H17086   2.367   1.172   6.702 -1.2335  1.5650  0.2456
  124MOL0     H17087   2.508   1.082   6.658  1.3885  0.5549  1.3721
  124MOL0     H17088   2.407   1.306   6.481 -2.8406 -2.9233 -0.7291
  124MOL0     H17089   2.389   1.143   6.447  0.8029 -2.5654  0.8965
  124MOL0     H17090   2.666   1.276   6.454 -1.8546  3.0092  0.6232
  124MOL0     H17091   2.574   1.192   6.317 -1.3231 -4.2598  1.0953
  124MOL0     H17092   2.811   1.190   7.325 -1.9206 -2.1593 -0.5262
  124MOL0     H17093   3.002   1.214   7.456 -0.7948  1.0250 -0.6081
  124MOL0     H17094   3.618   1.166   7.364  0.5542 -2.3348 -0.3721
  124MOL0     H17095   3.798   1.186   7.527 -0.0575  2.2450  2.9060
  124MOL0     H17096   3.258   0.405   9.182  0.4354  0.1447 -2.0871
  124MOL0     H17097   3.029   0.334   9.139 -0.7425  0.5639 -0.0421
  124MOL0     H17098   2.604   0.435   9.079  3.5454  1.3274 -1.3469
  124MOL0     H17099   2.397   0.339   9.096  0.7326 -0.9373 -0.0550
  124MOL0     H17100   2.187   0.283   9.064  1.5573  1.2463 -0.3889
  124MOL0     H17101   2.166   0.402   8.935 -2.0771  1.9257  3.4359
  124MOL0     H17102   1.950   0.278   9.025  1.5479 -0.0312  0.6221
  124MOL0     H17103   2.013   0.130   8.948  1.9897 -0.6246  0.4157
  124MOL0     H17104   2.033   0.272   8.734 -0.3699  0.4954 -0.1431
  124MOL0     H17105   1.895   0.184   8.783  0.2994 -1.0287  0.9708
  124MOL0     H17106   1.780   0.390   8.898  0.1527 -1.6215  1.2021
  124MOL0     H17107   1.799   0.380   8.718  1.2241  0.3436  0.1736
  124MOL0     H17108   2.030   0.714   8.865  2.0316 -0.6677  1.6750
  124MOL0     H17109   2.408   0.211   8.678 -0.0414  0.3751  0.5863
  124MOL0     H17110   2.750   0.207   8.652  1.1435  0.8217 -0.2069
  124MOL0     H17111   2.608   0.212   8.558 -0.0498 -1.3949  2.1597
  124MOL0     H17112   2.705   0.368   8.582  1.4108  0.0823  1.3030
  125MOL0     O17113   2.341   5.397   0.328  0.3569 -0.0255 -0.3975
  125MOL0     C17114   2.294   5.396   0.443 -0.8038  0.9470  0.0379
  125MOL0     O17115   2.373   5.408   0.557 -0.7984  0.2259  0.3705
  125MOL0     C17116   2.503   5.382   0.533  0.3948 -0.1750  0.0972
  125MOL0     C17117   2.594   5.481   0.507  0.3097  0.1579  0.7576
  125MOL0     C17118   2.725   5.444   0.485  0.0510  0.6601  0.1695
  125MOL0     C17119   2.763   5.310   0.495  0.8343  0.7488  0.6027
  125MOL0     O17120   2.895   5.266   0.461 -0.2351  0.2390 -0.1694
  125MOL0     C17121   3.005   5.353   0.462  0.2344 -0.4827  0.5414
  125MOL0     C17122   3.066   5.380   0.597  0.7531 -0.7288  0.0273
  125MOL0     C17123   3.164   5.493   0.589  0.4759  0.6466  0.1219
  125MOL0     C17124   3.312   5.448   0.535  1.0701 -0.6849  0.0560
  125MOL0     C17125   3.380   5.372   0.647 -0.7381 -0.5085 -0.8742
  125MOL0     C17126   3.520   5.326   0.604 -0.1705  1.0544  0.3562
  125MOL0     C17127   3.613   5.318   0.725 -0.1186  0.5576 -0.2697
  125MOL0     C17128   3.765   5.301   0.683  0.5088 -0.2976  0.5453
  125MOL0     N17129   3.835   5.434   0.674  0.6323  0.1536  0.8457
  125MOL0     C17130   3.813   5.511   0.568 -0.3329 -0.3583 -0.3778
  125MOL0     C17131   3.840   5.633   0.614  0.2733 -0.5594  0.0930
  125MOL0     C17132   3.819   5.773   0.544  0.1932  0.4069 -0.3987
  125MOL0     C17133   3.696   5.771   0.461 -0.7376  0.1566 -0.6535
  125MOL0     C17134   3.730   5.736   0.323  0.5547 -0.2407 -0.0322
  125MOL0     C17135   3.609   5.706   0.241 -0.0722 -0.5216  0.0414
  125MOL0     O17136   3.537   5.591   0.278  0.1407  0.5316 -0.1666
  125MOL0     C17137   3.402   5.578   0.242  0.2761  0.1540 -0.1781
  125MOL0     C17138   3.356   5.463   0.184 -0.2984 -0.4727 -1.2807
  125MOL0     C17139   3.218   5.449   0.150  0.1000  0.1741  0.4465
  125MOL0     C17140   3.178   5.319   0.094  0.1510  1.0498  0.0489
  125MOL0     C17141   3.126   5.558   0.174 -0.0842  0.4779 -0.8412
  125MOL0     C17142   2.986   5.559   0.130 -0.5722  0.0965  0.4219
  125MOL0     O17143   2.926   5.679   0.124 -0.2239 -0.0834 -0.9037
  125MOL0     C17144   2.786   5.690   0.130  1.0610 -0.7459 -0.0392
  125MOL0     C17145   2.691   5.584   0.168  0.4325 -0.4296 -0.2489
  125MOL0     C17146   2.554   5.608   0.167 -0.4185 -0.2347  0.0049
  125MOL0     C17147   2.501   5.729   0.126  0.5307 -0.0034  0.0635
  125MOL0     O17148   2.367   5.762   0.116  1.4518 -0.2969  0.4963
  125MOL0     C17149   2.292   5.723   0.227 -0.8995  0.1474  0.2153
  125MOL0     C17150   2.151   5.787   0.236  0.4220  0.0355 -0.1802
  125MOL0     C17151   2.077   5.756   0.107 -0.2854  0.5493  0.0619
  125MOL0     C17152   1.921   5.775   0.122  0.0588  0.1907  0.4045
  125MOL0     C17153   1.871   5.914   0.180 -0.7706  0.0638  0.1306
  125MOL0     C17154   1.727   5.902   0.202  0.3728  0.3219  0.2961
  125MOL0     C17155   1.650   5.926   0.074  0.1424 -0.7461 -0.0686
  125MOL0     C17156   1.505   5.981   0.098 -0.8673 -0.9419  0.9455
  125MOL0    Cl17157   1.501   6.141   0.179  0.0125 -0.1681  0.1205
  125MOL0     C17158   2.590   5.827   0.083  0.1641 -0.9407 -0.6185
  125MOL0     C17159   2.732   5.813   0.093  0.3704 -0.2969  0.4327
  125MOL0     O17160   2.935   5.452   0.093  0.0046  0.6801 -0.6842
  125MOL0     C17161   3.174   5.673   0.242  0.0066  0.4332  0.3601
  125MOL0     C17162   3.310   5.679   0.270 -0.4597  0.0494 -0.0756
  125MOL0     N17163   3.879   5.623   0.746  0.3809 -0.4080  0.2859
  125MOL0     N17164   3.888   5.503   0.777 -0.3825  0.3673 -0.0304
  125MOL0     C17165   2.674   5.206   0.511  0.1443 -0.7138 -0.7124
  125MOL0     C17166   2.542   5.241   0.539  1.1942  0.3986  0.6979
  125MOL0     C17167   2.150   5.399   0.454 -0.0615  0.1276 -0.1515
  125MOL0     C17168   2.075   5.423   0.333  0.6969 -0.6953  0.4398
  125MOL0     C17169   1.935   5.419   0.322 -0.1800  0.0010 -0.2700
  125MOL0     C17170   1.868   5.397   0.440  0.4188  0.3849 -1.1154
  125MOL0     O17171   1.728   5.373   0.450  0.2906 -0.4056 -0.1767
  125MOL0     C17172   1.638   5.362   0.336 -0.0953  0.0236  0.6009
  125MOL0     C17173   1.657   5.225   0.258 -0.4639 -0.9087  0.6735
  125MOL0     C17174   1.615   5.105   0.346 -0.6480  0.5571 -0.2657
  125MOL0     C17175   1.572   4.980   0.272  0.2089 -0.2865 -0.0999
  125MOL0     C17176   1.672   4.946   0.169 -0.5855 -0.0841  0.5778
  125MOL0     C17177   1.769   4.916   0.103 -0.0175  0.0805  0.3807
  125MOL0     C17178   1.936   5.373   0.566 -0.0447  0.6054  0.4575
  125MOL0     C17179   2.071   5.365   0.570 -1.1129 -0.3355 -0.4326
  125MOL0     C17180   2.141   5.319   0.700 -0.1625 -0.1303  1.1368
  125MOL0     H17181   2.559   5.584   0.513 -4.4265 -1.1867  0.2257
  125MOL0     H17182   2.808   5.511   0.466 -0.3605  1.2405  0.3787
  125MOL0     H17183   2.991   5.444   0.403  0.2008 -1.4871 -1.0402
  125MOL0     H17184   3.084   5.299   0.409 -0.7828  0.0934 -1.6765
  125MOL0     H17185   2.985   5.400   0.668 -0.8429 -1.4457 -1.5263
  125MOL0     H17186   3.119   5.291   0.634  0.9187 -0.2723  0.9114
  125MOL0     H17187   3.122   5.566   0.519  2.4099 -0.1466 -2.0037
  125MOL0     H17188   3.167   5.547   0.684 -1.3543  0.2619  0.4339
  125MOL0     H17189   3.316   5.387   0.444  0.3572 -0.9561  0.1947
  125MOL0     H17190   3.368   5.538   0.508  1.7819 -1.5991 -1.6963
  125MOL0     H17191   3.314   5.292   0.683 -0.7868  0.6935  1.9287
  125MOL0     H17192   3.387   5.453   0.720  2.2300  0.2849 -1.8622
  125MOL0     H17193   3.518   5.228   0.556 -0.3314  2.0253 -1.7145
  125MOL0     H17194   3.562   5.392   0.527  1.3943 -0.5374 -0.2141
  125MOL0     H17195   3.584   5.233   0.787  1.9859  1.7805  2.6722
  125MOL0     H17196   3.597   5.401   0.795  0.1885 -0.4941  1.1080
  125MOL0     H17197   3.811   5.236   0.758  1.1746 -0.8080 -0.2821
  125MOL0     H17198   3.766   5.255   0.583 -3.2545 -3.2189  1.6171
  125MOL0     H17199   3.774   5.490   0.469  2.0028  0.3576 -1.5199
  125MOL0     H17200   3.902   5.798   0.477  0.2762  0.2300 -0.3624
  125MOL0     H17201   3.823   5.851   0.620 -1.3364  0.2459 -0.1364
  125MOL0     H17202   3.622   5.709   0.512  0.7526 -2.3590 -1.3896
  125MOL0     H17203   3.666   5.876   0.453 -0.6993  0.2964  0.7794
  125MOL0     H17204   3.797   5.812   0.282  0.5953  0.5507  1.4097
  125MOL0     H17205   3.792   5.646   0.317  1.7695  0.6252 -0.9000
  125MOL0     H17206   3.547   5.796   0.237 -0.2566 -0.5585  1.4525
  125MOL0     H17207   3.635   5.676   0.139  0.1158  0.6994 -0.2740
  125MOL0     H17208   3.431   5.392   0.148  0.1908 -1.5609  1.6125
  125MOL0     H17209   3.093   5.272   0.144 -1.0777  2.3454 -0.7684
  125MOL0     H17210   3.258   5.245   0.100 -0.8975 -0.0143  2.1342
  125MOL0     H17211   3.146   5.321  -0.010  0.5934  0.2245 -0.1166
  125MOL0     H17212   2.728   5.495   0.218  0.8427 -0.0623  0.1142
  125MOL0     H17213   2.484   5.530   0.197 -0.4481 -0.0497  0.4320
  125MOL0     H17214   2.287   5.613   0.227 -0.9292  0.1398 -0.8532
  125MOL0     H17215   2.355   5.746   0.314 -1.1968  0.3074  0.3903
  125MOL0     H17216   2.095   5.744   0.319 -0.4368  2.4644  0.5978
  125MOL0     H17217   2.142   5.895   0.255  1.0215 -0.0883  0.8835
  125MOL0     H17218   2.097   5.650   0.090  1.8105  0.3425  3.1193
  125MOL0     H17219   2.127   5.820   0.034 -0.5287  1.0831  0.3592
  125MOL0     H17220   1.895   5.696   0.193  3.0160 -0.2734  1.1199
  125MOL0     H17221   1.861   5.750   0.034 -0.2949 -3.3188  1.4940
  125MOL0     H17222   1.926   5.915   0.275  3.7990  0.8906 -2.2577
  125MOL0     H17223   1.909   5.998   0.123  1.4204 -0.0293  1.3385
  125MOL0     H17224   1.700   5.982   0.271 -1.7007 -1.4578  1.7049
  125MOL0     H17225   1.700   5.801   0.236 -0.6456  1.2110  2.3062
  125MOL0     H17226   1.644   5.831   0.021  2.7514 -0.1684 -1.6237
  125MOL0     H17227   1.710   5.993   0.011 -0.5788 -2.0410 -2.2231
  125MOL0     H17228   1.450   5.916   0.165 -1.7998  1.9306  3.1711
  125MOL0     H17229   1.443   5.995   0.009 -0.1449 -1.3308  0.3700
  125MOL0     H17230   2.552   5.924   0.053  1.2601 -0.6650 -1.1518
  125MOL0     H17231   2.798   5.895   0.067 -1.8982  1.2831 -0.6947
  125MOL0     H17232   3.110   5.759   0.258 -3.4743 -2.0290  0.8501
  125MOL0     H17233   3.349   5.769   0.317 -0.1284 -1.5623  2.9843
  125MOL0     H17234   2.707   5.104   0.496  1.4435 -0.4791  0.4348
  125MOL0     H17235   2.467   5.165   0.558  2.8528 -1.6503 -0.4098
  125MOL0     H17236   2.119   5.438   0.235  1.1606 -0.7049  0.6433
  125MOL0     H17237   1.889   5.439   0.226  2.7281 -1.0117 -1.9967
  125MOL0     H17238   1.535   5.354   0.371 -0.3496 -5.1824 -0.5448
  125MOL0     H17239   1.657   5.448   0.271 -2.7672 -0.2531 -0.6742
  125MOL0     H17240   1.753   5.213   0.207 -1.0338 -0.3674 -0.5582
  125MOL0     H17241   1.577   5.227   0.184 -2.4771  0.7157  2.7536
  125MOL0     H17242   1.703   5.083   0.407 -0.5188  1.1864 -0.2161
  125MOL0     H17243   1.533   5.129   0.414  2.4036  3.6589  2.7181
  125MOL0     H17244   1.480   4.991   0.215  0.0115 -3.7788 -0.6648
  125MOL0     H17245   1.564   4.892   0.337 -1.6519 -0.1495 -0.1121
  125MOL0     H17246   1.859   4.895   0.049  0.1377 -1.9434  1.3266
  125MOL0     H17247   1.873   5.354   0.652  0.5214 -0.0965  0.7252
  125MOL0     H17248   2.197   5.399   0.750  0.3894 -1.2327  2.3290
  125MOL0     H17249   2.073   5.266   0.767  0.9408 -2.1455  0.7362
  125MOL0     H17250   2.214   5.241   0.676 -1.8826 -1.0564 -1.5869
  126MOL0     O17251  11.280   5.351   8.083 -0.0835 -0.8677 -0.5561
  126MOL0     C17252  11.290   5.335   7.962 -0.8848  0.7849 -0.5849
  126MOL0     O17253  11.398   5.276   7.907 -0.0113 -0.2196  0.1142
  126MOL0     C17254  11.500   5.233   7.987 -1.4735 -0.1492 -0.9293
  126MOL0     C17255  11.613   5.317   7.998  0.0154 -0.1478  0.9161
  126MOL0     C17256  11.723   5.276   8.071 -0.2537  0.7553 -0.0621
  126MOL0     C17257  11.720   5.157   8.144  0.0136 -0.1833 -0.4126
  126MOL0     O17258  11.816   5.120   8.228  0.0321  0.2602 -0.7735
  126MOL0     C17259  11.893   5.004   8.203 -0.2379 -0.4844  0.0398
  126MOL0     C17260  12.025   5.038   8.135 -0.8526  0.6018 -0.5537
  126MOL0     C17261  12.105   5.119   8.243 -1.0838 -0.2254 -1.0425
  126MOL0     C17262  12.257   5.134   8.196  1.3052  0.1566  0.0279
  126MOL0     C17263  12.263   5.249   8.099 -0.2698  0.2465 -0.2967
  126MOL0     C17264  12.417   5.258   8.067  0.0109  1.0571  0.1592
  126MOL0     C17265  12.436   5.366   7.962  0.6303  0.6463 -0.0293
  126MOL0     C17266  12.575   5.361   7.911  0.0076  0.3574  1.0724
  126MOL0     N17267  12.594   5.454   7.802 -1.1840 -0.6922 -0.6778
  126MOL0     C17268  12.564   5.416   7.678  0.3430  0.0654 -0.7755
  126MOL0     C17269  12.601   5.520   7.593 -1.0344  0.0781 -0.2808
  126MOL0     C17270  12.592   5.507   7.444 -0.3228  0.0943  0.8239
  126MOL0     C17271  12.545   5.646   7.379 -0.4946  0.7376  0.2302
  126MOL0     C17272  12.546   5.655   7.223 -0.5016  0.3991 -0.9030
  126MOL0     C17273  12.483   5.782   7.172 -0.1021 -0.9093 -0.2004
  126MOL0     O17274  12.542   5.905   7.220 -0.1544  0.3530 -0.0034
  126MOL0     C17275  12.676   5.926   7.202  0.3027  0.8910  0.2792
  126MOL0     C17276  12.732   5.937   7.079 -0.2285 -0.3301 -0.1838
  126MOL0     C17277  12.865   5.994   7.057 -0.0760  0.6385 -1.1609
  126MOL0     C17278  12.922   6.007   6.920  0.0903 -0.4770 -0.4081
  126MOL0     C17279  12.939   6.027   7.168 -0.0004  0.1698 -0.6740
  126MOL0     C17280  13.073   6.084   7.152  0.0642 -0.6618  0.2676
  126MOL0     O17281  13.162   6.021   7.238 -0.2818  0.0454 -0.2514
  126MOL0     C17282  13.291   6.061   7.248 -0.1245 -0.0836 -0.0240
  126MOL0     C17283  13.341   6.081   7.374  0.2273 -0.8324  0.6986
  126MOL0     C17284  13.472   6.142   7.387  0.3201 -0.2302  0.5352
  126MOL0     C17285  13.548   6.184   7.280 -0.9371  0.8500  0.8854
  126MOL0     O17286  13.675   6.247   7.295  0.1511 -0.8339  0.7648
  126MOL0     C17287  13.736   6.248   7.425  0.7070 -0.2778  0.1202
  126MOL0     C17288  13.880   6.302   7.409 -0.1038 -0.4950 -0.0668
  126MOL0     C17289  13.884   6.450   7.390  0.9053  0.1517 -0.8206
  126MOL0     C17290  13.946   6.480   7.253  0.3336 -0.6224 -0.2530
  126MOL0     C17291  13.907   6.619   7.196 -0.7090 -0.2359 -0.3707
  126MOL0     C17292  13.760   6.635   7.153  0.1100 -0.5256  0.8181
  126MOL0     C17293  13.715   6.517   7.067 -0.8114  0.5059 -0.7068
  126MOL0     C17294  13.594   6.540   6.980  0.3814  0.0704  0.4724
  126MOL0    Cl17295  13.460   6.534   7.102 -0.5937  0.1182  0.6446
  126MOL0     C17296  13.498   6.149   7.154  0.2366 -0.2367  0.0868
  126MOL0     C17297  13.370   6.091   7.135 -0.3377  0.4310 -0.8536
  126MOL0     O17298  13.093   6.173   7.072 -0.0055  1.1635  0.1032
  126MOL0     C17299  12.882   6.001   7.295  0.1039  0.2085  0.0375
  126MOL0     C17300  12.752   5.949   7.308  0.9102 -0.7856  0.3198
  126MOL0     N17301  12.642   5.621   7.679  0.5943  0.1279  0.1962
  126MOL0     N17302  12.630   5.583   7.802  1.1451 -1.6162  0.0579
  126MOL0     C17303  11.600   5.089   8.143 -1.4393 -0.6010  0.5791
  126MOL0     C17304  11.493   5.113   8.060  0.0874 -0.0223  0.9505
  126MOL0     C17305  11.174   5.349   7.869  0.3367  0.2409 -0.0564
  126MOL0     C17306  11.196   5.352   7.730  0.8368 -0.5574 -0.4174
  126MOL0     C17307  11.090   5.389   7.646  0.0536  0.6559 -0.3293
  126MOL0     C17308  10.959   5.401   7.691 -0.3476 -0.5878  0.5474
  126MOL0     O17309  10.847   5.431   7.609 -0.0875 -0.4551 -0.0800
  126MOL0     C17310  10.844   5.398   7.470 -0.3793  0.2194  0.9008
  126MOL0     C17311  10.912   5.511   7.377 -0.1461  0.6338 -0.2085
  126MOL0     C17312  10.892   5.654   7.430 -0.2280 -0.4904  0.8504
  126MOL0     C17313  10.748   5.707   7.417 -0.4318  0.0433  0.5549
  126MOL0     C17314  10.743   5.836   7.469  0.4005 -0.6125 -0.6221
  126MOL0     C17315  10.724   5.942   7.528  0.3295  0.4875  0.0584
  126MOL0     C17316  10.935   5.397   7.828  0.1173  0.6908 -0.5461
  126MOL0     C17317  11.038   5.365   7.918 -0.3302 -1.3038 -0.9464
  126MOL0     C17318  10.991   5.348   8.059 -1.0295 -0.2233  0.6411
  126MOL0     H17319  11.615   5.415   7.953 -1.3235  1.1898  3.5666
  126MOL0     H17320  11.812   5.337   8.085  1.8947 -1.7868 -1.6455
  126MOL0     H17321  11.834   4.931   8.146 -1.7670  0.5695  0.2126
  126MOL0     H17322  11.917   4.949   8.294  2.6900  2.9110  1.5685
  126MOL0     H17323  12.074   4.941   8.122 -1.1169  0.4402 -0.3438
  126MOL0     H17324  12.010   5.082   8.035 -1.1588 -1.6243 -1.5345
  126MOL0     H17325  12.071   5.223   8.254 -0.7484 -0.2399  0.3148
  126MOL0     H17326  12.104   5.066   8.339 -0.9051 -0.8744 -1.3930
  126MOL0     H17327  12.331   5.139   8.276 -0.0253  2.2670  1.2474
  126MOL0     H17328  12.282   5.041   8.144 -0.3794  1.2589 -2.9433
  126MOL0     H17329  12.231   5.342   8.146 -0.0933 -0.6803  1.7953
  126MOL0     H17330  12.204   5.218   8.013 -0.7464  4.1982 -1.5857
  126MOL0     H17331  12.468   5.282   8.161  0.7890 -0.8842  0.2845
  126MOL0     H17332  12.454   5.163   8.030  0.1538  1.1527  0.0584
  126MOL0     H17333  12.424   5.470   7.994 -1.5011  1.5266 -3.2172
  126MOL0     H17334  12.375   5.349   7.873  0.8628  2.1715 -0.5113
  126MOL0     H17335  12.647   5.382   7.990  0.2454 -0.8340  1.1873
  126MOL0     H17336  12.594   5.263   7.865 -0.4440 -0.6946  3.0052
  126MOL0     H17337  12.525   5.319   7.650  1.1627 -0.6196  0.3755
  126MOL0     H17338  12.517   5.434   7.411 -0.7484 -0.3930  2.7531
  126MOL0     H17339  12.689   5.473   7.405 -1.6505 -0.7361 -1.9718
  126MOL0     H17340  12.442   5.669   7.407 -1.0677 -0.9821 -0.3570
  126MOL0     H17341  12.616   5.718   7.421  1.1868 -1.7075  1.7822
  126MOL0     H17342  12.646   5.643   7.179 -0.8428  2.1165 -2.2387
  126MOL0     H17343  12.487   5.570   7.189 -1.0412  1.3044 -2.3098
  126MOL0     H17344  12.475   5.786   7.063  0.6959 -1.1474 -0.2709
  126MOL0     H17345  12.382   5.785   7.213  0.7558  1.5931  2.0235
  126MOL0     H17346  12.670   5.909   6.994 -0.1287 -2.9871  0.5380
  126MOL0     H17347  12.943   6.112   6.901 -4.8131  0.4532 -2.1047
  126MOL0     H17348  12.844   5.981   6.848 -1.0009  0.8219  0.2570
  126MOL0     H17349  13.018   5.958   6.901  0.4165 -0.0553  0.1410
  126MOL0     H17350  13.281   6.052   7.459 -1.0016  0.1314  0.1795
  126MOL0     H17351  13.519   6.153   7.484  4.0344 -2.4592 -0.8008
  126MOL0     H17352  13.692   6.311   7.502  1.2381  0.2849 -0.0254
  126MOL0     H17353  13.743   6.145   7.459  2.9929 -0.7382 -1.4800
  126MOL0     H17354  13.930   6.280   7.503  0.1998  0.0895 -0.0880
  126MOL0     H17355  13.930   6.244   7.331 -3.4959 -2.3538 -1.0884
  126MOL0     H17356  13.941   6.502   7.467  2.6056  1.3242 -2.7573
  126MOL0     H17357  13.785   6.495   7.394  1.0147  0.3896  3.1137
  126MOL0     H17358  13.911   6.404   7.183  0.4676 -1.4730  0.5887
  126MOL0     H17359  14.054   6.470   7.262  0.3417  0.7245  1.6796
  126MOL0     H17360  13.932   6.696   7.269 -0.3149  3.1159 -3.7285
  126MOL0     H17361  13.970   6.634   7.108 -2.8358 -1.9815 -2.3396
  126MOL0     H17362  13.738   6.727   7.097 -0.8787 -2.7671 -2.8422
  126MOL0     H17363  13.696   6.630   7.242 -1.0430 -4.8521 -0.0190
  126MOL0     H17364  13.695   6.431   7.132 -0.7194  1.1329  0.1696
  126MOL0     H17365  13.797   6.489   7.000 -2.4802  1.2847 -3.2241
  126MOL0     H17366  13.585   6.456   6.910  1.2817 -1.0753  1.6880
  126MOL0     H17367  13.599   6.639   6.934 -2.2027  0.4903  0.9540
  126MOL0     H17368  13.554   6.164   7.062  1.4573  0.6325  0.9488
  126MOL0     H17369  13.342   6.070   7.032 -1.7926 -0.7677 -0.2429
  126MOL0     H17370  12.939   6.033   7.382  1.9188  1.5845 -1.5558
  126MOL0     H17371  12.724   5.917   7.408  1.3793 -0.3973  0.5815
  126MOL0     H17372  11.593   5.008   8.216  1.0160 -0.5213  0.9960
  126MOL0     H17373  11.402   5.055   8.070  1.8354 -3.0906  0.5757
  126MOL0     H17374  11.295   5.346   7.686 -0.2105  0.5126 -3.1483
  126MOL0     H17375  11.105   5.399   7.539  0.7547  3.2112 -0.0677
  126MOL0     H17376  10.902   5.307   7.453 -0.7994  0.3198 -1.3606
  126MOL0     H17377  10.742   5.388   7.433  0.5915  0.3030 -1.9935
  126MOL0     H17378  10.870   5.511   7.275  1.0411  2.4628 -0.7494
  126MOL0     H17379  11.020   5.492   7.370  0.0087  0.9521  1.2050
  126MOL0     H17380  10.921   5.659   7.535  0.6964 -0.1681  0.5876
  126MOL0     H17381  10.958   5.721   7.374 -0.1822 -0.5750  0.8029
  126MOL0     H17382  10.681   5.643   7.476 -0.8557 -0.2594 -0.2389
  126MOL0     H17383  10.708   5.708   7.315 -0.0246  0.6481  0.3990
  126MOL0     H17384  10.690   6.021   7.592  1.5171  0.3098  0.9532
  126MOL0     H17385  10.835   5.400   7.871  1.7944  1.0636  3.8216
  126MOL0     H17386  11.010   5.437   8.121  0.1373 -1.7143  2.5634
  126MOL0     H17387  10.882   5.342   8.069 -1.0274  1.1041  1.8575
  126MOL0     H17388  11.028   5.255   8.103 -3.4685 -0.6750  1.9658
  127MOL0     O17389   2.129   5.909   1.619 -0.5369  0.5617 -0.1366
  127MOL0     C17390   2.017   5.955   1.581 -0.5850  0.1124 -0.2738
  127MOL0     O17391   1.940   5.893   1.483 -0.0530 -0.1012  0.3347
  127MOL0     C17392   1.998   5.794   1.405 -0.3354  0.4844  0.3306
  127MOL0     C17393   2.123   5.786   1.356 -0.7015 -0.4759 -0.6492
  127MOL0     C17394   2.168   5.672   1.285 -0.2561  0.4012 -0.2017
  127MOL0     C17395   2.080   5.565   1.259 -0.0758 -0.3302  0.1495
  127MOL0     O17396   2.110   5.452   1.192 -0.2286 -0.0756  0.0027
  127MOL0     C17397   2.243   5.401   1.193 -0.1193  0.3159  0.0968
  127MOL0     C17398   2.260   5.279   1.106  0.0586  0.4505  0.7192
  127MOL0     C17399   2.414   5.242   1.068  0.1082 -0.1115  0.0142
  127MOL0     C17400   2.424   5.151   0.946  0.0286 -0.0013  0.5295
  127MOL0     C17401   2.564   5.155   0.871 -0.0679  0.3767 -0.1993
  127MOL0     C17402   2.671   5.113   0.967  0.2300  1.1718  0.4103
  127MOL0     C17403   2.805   5.111   0.888  0.5192  0.2924  0.1739
  127MOL0     C17404   2.813   4.983   0.810 -0.2632  0.8866 -0.1289
  127MOL0     N17405   2.951   4.962   0.761  0.8589  0.2678 -0.3047
  127MOL0     C17406   3.014   5.032   0.669 -0.7804 -0.2166  0.0680
  127MOL0     C17407   3.151   5.007   0.670 -0.0769 -0.7482  0.5797
  127MOL0     C17408   3.253   5.046   0.572 -0.8958 -0.7850  0.6065
  127MOL0     C17409   3.255   4.954   0.455 -0.1576  0.4450 -1.0699
  127MOL0     C17410   3.309   4.814   0.490  0.0214  0.9733  0.1426
  127MOL0     C17411   3.460   4.814   0.486 -0.2362  0.6456  0.5816
  127MOL0     O17412   3.515   4.876   0.369  0.2349  0.6278  0.2978
  127MOL0     C17413   3.642   4.933   0.376  0.4037  0.3702  0.1589
  127MOL0     C17414   3.665   5.044   0.300 -0.3060  0.5282  0.0307
  127MOL0     C17415   3.781   5.118   0.305 -0.3699 -0.2803 -0.0689
  127MOL0     C17416   3.790   5.231   0.207 -0.6000 -0.0548  0.1823
  127MOL0     C17417   3.878   5.090   0.406 -0.4988 -0.8977  0.4252
  127MOL0     C17418   4.007   5.160   0.418 -0.0007 -0.1510  0.7105
  127MOL0     O17419   4.082   5.120   0.524  0.8711 -0.1321  0.1199
  127MOL0     C17420   4.197   5.186   0.540 -0.4754  0.8907  0.1537
  127MOL0     C17421   4.308   5.185   0.448  1.1318  0.0448  0.1787
  127MOL0     C17422   4.422   5.262   0.483  0.0451  0.2744  0.1982
  127MOL0     C17423   4.423   5.348   0.601 -0.1148  0.1453 -0.5393
  127MOL0     O17424   4.533   5.421   0.636 -0.4517 -0.4879 -0.0622
  127MOL0     C17425   4.543   5.545   0.564 -0.1396  0.9385 -0.4022
  127MOL0     C17426   4.611   5.647   0.654  0.2017  0.7660 -0.1034
  127MOL0     C17427   4.757   5.636   0.651 -0.4934  0.8772  1.3158
  127MOL0     C17428   4.818   5.720   0.776  1.0666  0.6284  0.2950
  127MOL0     C17429   4.966   5.708   0.795  0.0921 -0.0351  0.3414
  127MOL0     C17430   5.044   5.762   0.680 -0.0305 -0.3883  0.4831
  127MOL0     C17431   5.190   5.783   0.725 -0.0792  0.8986 -0.3312
  127MOL0     C17432   5.263   5.651   0.772  0.1145 -0.5633 -0.2191
  127MOL0    Cl17433   5.430   5.703   0.801 -0.2273 -0.2629 -0.1425
  127MOL0     C17434   4.305   5.352   0.683 -0.0085  0.1475  0.9465
  127MOL0     C17435   4.196   5.277   0.646 -0.1424 -0.6915 -1.4225
  127MOL0     O17436   4.041   5.236   0.326  0.4180 -0.2134 -0.0189
  127MOL0     C17437   3.852   4.978   0.486  0.0245 -0.3315 -0.3497
  127MOL0     C17438   3.736   4.905   0.474 -0.0511  0.0810 -0.5828
  127MOL0     N17439   3.161   4.923   0.781  0.4810  0.3126  0.3899
  127MOL0     N17440   3.046   4.894   0.831 -0.4059  0.0161  0.3544
  127MOL0     C17441   1.945   5.579   1.293 -0.2366  0.0540 -0.0012
  127MOL0     C17442   1.903   5.690   1.365  0.5501 -0.8190 -0.4178
  127MOL0     C17443   1.952   6.078   1.636 -0.6229  0.0690  0.0410
  127MOL0     C17444   1.817   6.103   1.602 -0.1822  1.4087 -0.2557
  127MOL0     C17445   1.746   6.199   1.667  0.5706 -0.6353  0.6075
  127MOL0     C17446   1.819   6.299   1.744  0.1963  0.8181  0.4173
  127MOL0     O17447   1.771   6.409   1.810 -0.4209  0.1935 -0.1320
  127MOL0     C17448   1.645   6.462   1.764  0.6972  0.1008 -0.3283
  127MOL0     C17449   1.630   6.607   1.821  1.0785  0.0449 -1.2724
  127MOL0     C17450   1.631   6.610   1.975  0.5743 -0.4104 -0.9627
  127MOL0     C17451   1.759   6.642   2.055  0.0685 -0.6541 -0.8162
  127MOL0     C17452   1.828   6.758   2.006  0.6357 -0.8406 -1.0963
  127MOL0     C17453   1.867   6.868   1.959 -0.6151  0.1127 -0.4759
  127MOL0     C17454   1.954   6.285   1.759  0.2913  0.4117 -0.1655
  127MOL0     C17455   2.028   6.176   1.707 -0.0179 -0.8296 -0.1052
  127MOL0     C17456   2.183   6.175   1.745 -0.9241 -0.2432 -0.1678
  127MOL0     H17457   2.187   5.872   1.375  2.7321 -2.9964  0.1629
  127MOL0     H17458   2.267   5.678   1.241 -0.7518  0.5956 -1.3441
  127MOL0     H17459   2.278   5.383   1.295  0.4342  0.1910 -0.1167
  127MOL0     H17460   2.306   5.472   1.139  0.0225 -0.4447 -0.7681
  127MOL0     H17461   2.210   5.191   1.149 -1.4357  0.2814 -1.1929
  127MOL0     H17462   2.208   5.300   1.012 -0.5416  1.9117  1.3423
  127MOL0     H17463   2.470   5.335   1.052 -1.8807  0.8825 -1.7295
  127MOL0     H17464   2.458   5.186   1.151 -2.6166 -2.4789  0.0307
  127MOL0     H17465   2.412   5.044   0.962 -1.6495  0.0736  0.0116
  127MOL0     H17466   2.345   5.186   0.879 -0.0641  0.3019  0.7921
  127MOL0     H17467   2.589   5.260   0.851  1.6400 -0.4916 -3.3115
  127MOL0     H17468   2.568   5.090   0.784 -2.1535  0.5925 -0.5130
  127MOL0     H17469   2.678   5.174   1.058  0.7445 -0.0932  1.2436
  127MOL0     H17470   2.648   5.018   1.016 -0.7719  2.1329  1.9058
  127MOL0     H17471   2.885   5.125   0.962  0.1277  0.6988  0.5207
  127MOL0     H17472   2.822   5.196   0.821  2.0134 -1.5462 -1.9340
  127MOL0     H17473   2.788   4.898   0.874  4.1487 -0.2000  0.4530
  127MOL0     H17474   2.738   4.989   0.730 -1.9153 -2.0133  1.0387
  127MOL0     H17475   2.962   5.106   0.609 -0.3407  1.3208  1.4921
  127MOL0     H17476   3.354   5.061   0.611 -0.8829  2.8778 -0.3887
  127MOL0     H17477   3.219   5.141   0.528 -0.8624 -0.2013  1.7988
  127MOL0     H17478   3.155   4.939   0.413 -0.9658 -1.7869  1.3532
  127MOL0     H17479   3.309   4.993   0.369  0.2245 -2.4199 -2.2331
  127MOL0     H17480   3.260   4.759   0.570  2.9629  0.6613  1.8953
  127MOL0     H17481   3.273   4.750   0.409  0.0997 -1.9083  2.2366
  127MOL0     H17482   3.481   4.876   0.573  0.0734  2.9758 -1.0564
  127MOL0     H17483   3.500   4.713   0.500 -0.7480  0.3619  0.0389
  127MOL0     H17484   3.585   5.064   0.230 -0.9946  0.3744  0.7565
  127MOL0     H17485   3.693   5.236   0.157  0.1070 -0.2335 -1.2710
  127MOL0     H17486   3.872   5.211   0.138 -1.1020 -1.4732 -0.0425
  127MOL0     H17487   3.810   5.324   0.261  2.4339  1.0828 -2.5583
  127MOL0     H17488   4.293   5.122   0.361 -0.4809  0.8909 -0.1931
  127MOL0     H17489   4.504   5.261   0.411  0.5894 -0.6478  0.8118
  127MOL0     H17490   4.601   5.531   0.472 -0.1071  0.7828 -0.3577
  127MOL0     H17491   4.443   5.580   0.538 -0.7939 -0.6268 -0.0874
  127MOL0     H17492   4.593   5.745   0.610  0.6289  1.5348  1.3420
  127MOL0     H17493   4.567   5.639   0.754 -0.4239  1.8591 -0.2864
  127MOL0     H17494   4.795   5.671   0.554 -0.7159 -1.2226  0.4122
  127MOL0     H17495   4.793   5.533   0.659 -0.6897  0.1623 -3.5682
  127MOL0     H17496   4.762   5.698   0.868 -0.3817 -1.4790 -0.9809
  127MOL0     H17497   4.793   5.826   0.762  2.0667  0.9226  0.6945
  127MOL0     H17498   4.985   5.771   0.882 -2.5129  2.6068 -0.8321
  127MOL0     H17499   4.995   5.604   0.813 -0.1589 -0.7094 -2.6498
  127MOL0     H17500   5.005   5.855   0.637  2.6189  0.7996  0.4686
  127MOL0     H17501   5.035   5.690   0.598 -3.3403  0.0334  0.3678
  127MOL0     H17502   5.195   5.859   0.803 -1.1214 -1.8884  2.6831
  127MOL0     H17503   5.254   5.815   0.643  0.4394 -0.7428 -0.6014
  127MOL0     H17504   5.262   5.570   0.698 -0.0845 -1.2219  0.4890
  127MOL0     H17505   5.217   5.614   0.864 -4.6568 -0.1057 -2.1451
  127MOL0     H17506   4.303   5.409   0.776  1.6307 -1.5656  2.1225
  127MOL0     H17507   4.110   5.286   0.711  0.5440  4.9317 -0.7719
  127MOL0     H17508   3.921   4.941   0.561 -0.0384  2.8275  1.4001
  127MOL0     H17509   3.719   4.808   0.520  1.3613  0.5605  1.0290
  127MOL0     H17510   1.875   5.506   1.254 -0.1895 -1.1797  2.0757
  127MOL0     H17511   1.799   5.698   1.393  0.9693  0.5205  0.8381
  127MOL0     H17512   1.759   6.037   1.539  0.6275 -2.0809  2.3541
  127MOL0     H17513   1.640   6.224   1.664  0.4059 -1.1966  1.3252
  127MOL0     H17514   1.637   6.466   1.655 -2.2483  3.0003 -0.1788
  127MOL0     H17515   1.561   6.409   1.809  1.4128  0.9804  2.1863
  127MOL0     H17516   1.530   6.639   1.790  0.9380  0.2678 -0.6013
  127MOL0     H17517   1.711   6.672   1.785  0.6949 -0.5325 -3.3279
  127MOL0     H17518   1.555   6.682   2.005  1.4009  0.8619 -1.8322
  127MOL0     H17519   1.596   6.513   2.012 -0.1963 -0.1473 -0.9776
  127MOL0     H17520   1.820   6.551   2.051  0.4989 -0.6271  2.3898
  127MOL0     H17521   1.735   6.662   2.160  0.9326 -2.2132 -0.2882
  127MOL0     H17522   1.902   6.963   1.924 -3.4959  1.6887  0.5966
  127MOL0     H17523   2.012   6.360   1.812  0.5925  0.0168  0.0695
  127MOL0     H17524   2.221   6.277   1.749  0.6203 -0.8138  0.2875
  127MOL0     H17525   2.206   6.132   1.843 -2.4289 -1.5248 -0.3248
  127MOL0     H17526   2.244   6.123   1.671  1.6491  2.6662 -0.2720
  128MOL0     O17527   7.141  11.139   0.813  0.3483  0.1390  0.2512
  128MOL0     C17528   7.092  11.181   0.706  0.4143  0.2683  0.3188
  128MOL0     O17529   7.166  11.213   0.591 -0.1655  0.4565 -0.1859
  128MOL0     C17530   7.301  11.178   0.592  0.2881 -1.1687  1.0183
  128MOL0     C17531   7.396  11.281   0.548  1.3613 -0.1758 -0.3703
  128MOL0     C17532   7.528  11.250   0.521  0.2744  0.3376  0.6763
  128MOL0     C17533   7.576  11.123   0.537  2.0879  0.0615  0.3735
  128MOL0     O17534   7.703  11.095   0.499 -0.6987  0.0163  0.0714
  128MOL0     C17535   7.745  10.959   0.494  0.5864 -0.6881 -0.0168
  128MOL0     C17536   7.838  10.929   0.374  0.0411 -0.1729  0.5172
  128MOL0     C17537   7.951  10.822   0.398 -1.4364 -0.1368 -0.4210
  128MOL0     C17538   7.992  10.755   0.270 -0.2667 -0.8634  0.4715
  128MOL0     C17539   8.134  10.711   0.240 -0.9183 -0.3611 -0.4525
  128MOL0     C17540   8.224  10.837   0.222 -0.0703  0.4757  0.0679
  128MOL0     C17541   8.322  10.857   0.341  0.2336 -0.5707 -0.0422
  128MOL0     C17542   8.442  10.761   0.338 -0.4186  0.6050 -0.3715
  128MOL0     N17543   8.541  10.796   0.239 -0.5579 -0.2244 -0.2348
  128MOL0     C17544   8.650  10.873   0.274 -0.6503  0.4666  0.2805
  128MOL0     C17545   8.712  10.892   0.152  0.1707 -0.5738  0.2166
  128MOL0     C17546   8.835  10.964   0.121 -0.0659 -0.4199  0.3728
  128MOL0     C17547   8.962  10.880   0.123 -1.2489  0.2670 -0.0202
  128MOL0     C17548   8.998  10.799   0.247 -0.7162  0.4220  0.3306
  128MOL0     C17549   9.131  10.720   0.238  0.3046 -0.1731 -0.2388
  128MOL0     O17550   9.248  10.805   0.209 -0.8972  0.5458 -0.0422
  128MOL0     C17551   9.366  10.736   0.191 -0.3152 -0.8718 -0.3279
  128MOL0     C17552   9.490  10.803   0.181 -0.7649  0.5566 -0.7655
  128MOL0     C17553   9.619  10.737   0.175 -0.2309 -0.2901  0.5423
  128MOL0     C17554   9.736  10.827   0.168 -0.2977 -0.4884  1.2250
  128MOL0     C17555   9.630  10.601   0.181  0.3806  0.1175 -0.8956
  128MOL0     C17556   9.756  10.523   0.179 -1.1597  0.4163 -0.8719
  128MOL0     O17557   9.862  10.575   0.245 -0.3147 -0.1635  0.0388
  128MOL0     C17558   9.983  10.512   0.237  0.6710 -0.0015 -0.8505
  128MOL0     C17559  10.059  10.488   0.350 -0.1259  0.1923  0.1277
  128MOL0     C17560  10.191  10.428   0.340  0.7971  0.2134 -0.0213
  128MOL0     C17561  10.240  10.385   0.214 -0.1505  0.1942 -0.3460
  128MOL0     O17562  10.355  10.304   0.205  0.0342  0.4300  0.0202
  128MOL0     C17563  10.441  10.301   0.313  0.4314  0.2061 -0.5716
  128MOL0     C17564  10.562  10.211   0.280  0.7442 -0.1132 -0.1507
  128MOL0     C17565  10.634  10.165   0.402 -0.6568  0.1665 -0.1980
  128MOL0     C17566  10.738  10.052   0.356  0.0911  0.5014  0.3967
  128MOL0     C17567  10.843  10.085   0.256  0.2675  0.2939 -0.2232
  128MOL0     C17568  10.966   9.992   0.282  0.5556 -0.1711  0.0038
  128MOL0     C17569  11.062  10.052   0.387 -0.5097 -0.1130 -0.5839
  128MOL0     C17570  11.171   9.957   0.434  0.0416  0.3729 -0.2060
  128MOL0    Cl17571  11.125   9.800   0.499 -0.2383 -0.3977 -0.3573
  128MOL0     C17572  10.164  10.416   0.104  0.9892 -0.6975 -0.1601
  128MOL0     C17573  10.036  10.480   0.111 -0.3529  0.3503  0.3326
  128MOL0     O17574   9.752  10.415   0.116 -0.4814 -0.2971  0.0541
  128MOL0     C17575   9.499  10.529   0.178 -0.5441 -0.0320  0.0241
  128MOL0     C17576   9.376  10.595   0.196  0.1704  0.0847 -0.6198
  128MOL0     N17577   8.651  10.809   0.056 -0.2669  0.3978 -0.4232
  128MOL0     N17578   8.546  10.765   0.106  0.1055 -0.1369 -0.6963
  128MOL0     C17579   7.484  11.033   0.599  0.0106 -0.6424 -0.4886
  128MOL0     C17580   7.353  11.048   0.607  0.9874 -0.7916  1.0615
  128MOL0     C17581   6.948  11.229   0.703  0.1612 -0.3331  0.0666
  128MOL0     C17582   6.941  11.358   0.646  0.3315 -0.3381  0.5527
  128MOL0     C17583   6.813  11.416   0.644  0.1551  0.3182 -0.4756
  128MOL0     C17584   6.698  11.357   0.700  0.5768 -0.3183 -0.6334
  128MOL0     O17585   6.579  11.432   0.703  0.0261  0.8952  0.0236
  128MOL0     C17586   6.453  11.382   0.754 -0.1917 -0.3974  0.3749
  128MOL0     C17587   6.329  11.448   0.701 -0.1194  0.5831  0.0971
  128MOL0     C17588   6.360  11.597   0.680  0.1522 -0.0444  0.2731
  128MOL0     C17589   6.239  11.684   0.645  0.0691 -0.4153  0.0506
  128MOL0     C17590   6.140  11.696   0.755 -0.0667 -0.9313 -0.5991
  128MOL0     C17591   6.053  11.695   0.835  0.3355 -0.1966  0.5308
  128MOL0     C17592   6.719  11.233   0.768  0.3331 -0.0409  0.3105
  128MOL0     C17593   6.843  11.169   0.770  0.2056 -0.5405 -0.5339
  128MOL0     C17594   6.867  11.037   0.837 -0.2134  0.4993 -0.9715
  128MOL0     H17595   7.363  11.382   0.526 -0.8940 -0.8082 -0.1373
  128MOL0     H17596   7.599  11.317   0.473  2.0699 -2.6918 -1.2288
  128MOL0     H17597   7.655  10.899   0.477  0.2532 -0.5890  1.2454
  128MOL0     H17598   7.775  10.927   0.594 -0.7686  0.2618  0.7364
  128MOL0     H17599   7.766  10.887   0.303  0.9045 -1.4327  0.3502
  128MOL0     H17600   7.889  11.018   0.338 -0.1239 -1.1674 -2.4439
  128MOL0     H17601   8.036  10.879   0.436 -0.3551 -2.2412  0.5043
  128MOL0     H17602   7.925  10.744   0.470  1.9507 -0.4250  0.6541
  128MOL0     H17603   7.936  10.662   0.258  1.6416 -1.8024 -2.2282
  128MOL0     H17604   7.954  10.813   0.185 -3.7981  0.9025  3.0064
  128MOL0     H17605   8.129  10.655   0.147  2.7362 -1.5889 -0.0781
  128MOL0     H17606   8.167  10.644   0.320 -1.2757  0.7554  0.6686
  128MOL0     H17607   8.274  10.820   0.127  1.0611  0.2969  0.6784
  128MOL0     H17608   8.169  10.932   0.220 -0.5744  0.2463  1.7278
  128MOL0     H17609   8.267  10.847   0.435 -0.6509  3.5087  0.0447
  128MOL0     H17610   8.367  10.956   0.335 -1.6297  0.3815  0.8373
  128MOL0     H17611   8.488  10.760   0.437 -0.6702 -3.9175 -0.1016
  128MOL0     H17612   8.404  10.660   0.319  1.4613 -0.2164 -0.0030
  128MOL0     H17613   8.672  10.923   0.368  1.3958 -1.3741  0.8544
  128MOL0     H17614   8.847  11.045   0.193 -0.7948 -3.1333  3.8008
  128MOL0     H17615   8.817  10.998   0.018  0.8194 -0.5784  0.1554
  128MOL0     H17616   8.964  10.815   0.035 -0.5377 -0.4006  0.4842
  128MOL0     H17617   9.042  10.951   0.102 -0.6059  0.5561  3.0544
  128MOL0     H17618   9.002  10.862   0.336  1.8719 -0.3726  0.8435
  128MOL0     H17619   8.916  10.726   0.253 -0.0944 -0.2220  1.0457
  128MOL0     H17620   9.146  10.678   0.338 -1.2781 -0.1274  0.0424
  128MOL0     H17621   9.121  10.635   0.171  0.1006  1.1602 -1.9890
  128MOL0     H17622   9.487  10.911   0.174 -2.1684  0.6114  0.2954
  128MOL0     H17623   9.718  10.916   0.108  0.0869 -1.7732 -0.9232
  128MOL0     H17624   9.822  10.772   0.128  1.4350  2.1578  1.1090
  128MOL0     H17625   9.763  10.856   0.270 -1.9990  1.9048  1.0687
  128MOL0     H17626  10.019  10.519   0.446 -1.2190  0.2315 -0.3373
  128MOL0     H17627  10.242  10.404   0.432 -0.8237  1.6705  1.3365
  128MOL0     H17628  10.485  10.396   0.344  0.0827  0.2713 -0.2738
  128MOL0     H17629  10.388  10.256   0.397  1.0158  0.1722 -0.2172
  128MOL0     H17630  10.519  10.127   0.224 -0.3351 -0.3866  1.0407
  128MOL0     H17631  10.639  10.256   0.216  2.3637 -0.3497  1.5196
  128MOL0     H17632  10.575  10.126   0.485 -0.4567 -2.0603 -1.0323
  128MOL0     H17633  10.692  10.247   0.446 -1.6954  0.2908  0.9763
  128MOL0     H17634  10.699   9.956   0.322  3.3734 -0.3880 -1.2702
  128MOL0     H17635  10.788  10.023   0.449  0.3762 -2.6527 -0.6469
  128MOL0     H17636  10.814  10.072   0.152  2.0803  1.5912 -0.9386
  128MOL0     H17637  10.877  10.188   0.270  0.0987  0.4643 -1.0661
  128MOL0     H17638  11.014   9.974   0.185 -1.6174  1.0659 -1.3980
  128MOL0     H17639  10.932   9.892   0.312  1.4885  0.0076  1.7755
  128MOL0     H17640  11.012  10.085   0.478  0.4709 -0.5500  0.1238
  128MOL0     H17641  11.109  10.137   0.334 -0.5363 -2.4627 -4.8440
  128MOL0     H17642  11.231  10.017   0.503 -0.0111  1.1666 -0.8324
  128MOL0     H17643  11.233   9.942   0.345  1.2184  0.1495  0.6280
  128MOL0     H17644  10.206  10.401   0.005 -1.1119  0.2992 -1.2845
  128MOL0     H17645   9.974  10.500   0.025  0.3213 -2.1732 -0.8093
  128MOL0     H17646   9.511  10.422   0.172 -1.4118 -0.0727 -1.4077
  128MOL0     H17647   9.286  10.536   0.209  0.3318  0.3845  2.7794
  128MOL0     H17648   7.516  10.933   0.627 -2.2485 -0.1719  5.2605
  128MOL0     H17649   7.281  10.971   0.633  0.5027 -0.6517  0.1636
  128MOL0     H17650   7.028  11.412   0.608 -1.3949  1.2366 -1.4219
  128MOL0     H17651   6.797  11.516   0.606 -0.7378  1.1155  1.8431
  128MOL0     H17652   6.451  11.275   0.733  0.3625 -0.8556  2.3997
  128MOL0     H17653   6.450  11.390   0.863 -2.7322  1.2112  0.2688
  128MOL0     H17654   6.243  11.441   0.768 -0.9899  3.4030 -0.5807
  128MOL0     H17655   6.305  11.408   0.602  2.3000 -2.2743  0.4923
  128MOL0     H17656   6.401  11.631   0.776 -0.3649 -2.5905  1.4794
  128MOL0     H17657   6.431  11.612   0.598  1.0082 -2.6575  0.4435
  128MOL0     H17658   6.191  11.625   0.567 -1.2482  1.2257 -0.4479
  128MOL0     H17659   6.267  11.784   0.610  1.2999 -0.9013 -0.3983
  128MOL0     H17660   5.974  11.709   0.907  0.8624 -1.2212  1.3348
  128MOL0     H17661   6.637  11.193   0.827 -1.3840 -0.4576 -2.1850
  128MOL0     H17662   6.784  10.996   0.896  1.3560  0.5939  1.4458
  128MOL0     H17663   6.902  10.965   0.763  0.8369  0.7478 -0.7381
  128MOL0     H17664   6.954  11.037   0.904 -0.0379 -0.0694 -1.1945
  129MOL0     O17665   7.191  11.321   0.123  0.1428  0.0230 -0.1146
  129MOL0     C17666   7.192  11.435   0.175  0.3724  0.8534 -0.2569
  129MOL0     O17667   7.303  11.513   0.207  0.0964  0.6200 -0.4874
  129MOL0     C17668   7.426  11.465   0.155  0.4773  1.0092 -0.6326
  129MOL0     C17669   7.483  11.533   0.050 -0.3061  0.3226  0.0079
  129MOL0     C17670   7.604  11.482  -0.007 -0.3136 -0.1855 -0.6183
  129MOL0     C17671   7.663  11.369   0.048 -1.5188 -0.1464 -0.0229
  129MOL0     O17672   7.767  11.316  -0.027 -0.4027 -0.1861 -0.2154
  129MOL0     C17673   7.892  11.275   0.045  0.4338 -0.3778  0.2354
  129MOL0     C17674   7.969  11.175  -0.045  0.0539  0.1644  0.4792
  129MOL0     C17675   8.088  11.106   0.027 -0.7908 -0.0845  0.2426
  129MOL0     C17676   8.199  11.212   0.058 -1.3229 -0.0373  0.3214
  129MOL0     C17677   8.337  11.150   0.083  0.3505  0.4877  0.6158
  129MOL0     C17678   8.446  11.256   0.075 -0.6953 -0.0077  0.6687
  129MOL0     C17679   8.588  11.207   0.115 -0.8392 -0.3635  0.5889
  129MOL0     C17680   8.682  11.318   0.084  0.1537 -0.5083 -0.3087
  129MOL0     N17681   8.824  11.291   0.123 -0.6997  0.1655 -0.3720
  129MOL0     C17682   8.930  11.300   0.036  0.5270 -0.1713  0.1618
  129MOL0     C17683   9.035  11.297   0.110 -1.2493 -0.7967 -0.1549
  129MOL0     C17684   9.179  11.309   0.070  0.4353  0.1331 -0.1831
  129MOL0     C17685   9.278  11.205   0.136  0.4666  0.2434 -0.4510
  129MOL0     C17686   9.336  11.240   0.281  0.2654 -0.1783  1.2169
  129MOL0     C17687   9.352  11.394   0.314 -0.1959  0.6499 -0.1436
  129MOL0     O17688   9.421  11.405   0.438  0.6678  0.6401 -0.1359
  129MOL0     C17689   9.556  11.379   0.442 -0.2120  0.6022  0.1275
  129MOL0     C17690   9.613  11.364   0.564  0.1978  0.0890 -0.0569
  129MOL0     C17691   9.750  11.356   0.582  1.0823  0.4305  0.0703
  129MOL0     C17692   9.796  11.332   0.733 -0.1395 -1.4202  0.5324
  129MOL0     C17693   9.841  11.333   0.478  0.2944  0.0510  0.0524
  129MOL0     C17694   9.995  11.303   0.498 -0.0389 -0.1088  0.3223
  129MOL0     O17695  10.061  11.241   0.396  0.4239 -0.5177  0.0837
  129MOL0     C17696  10.196  11.204   0.404  0.1480  0.2170 -0.1504
  129MOL0     C17697  10.273  11.218   0.287 -0.1485  0.8148 -0.1334
  129MOL0     C17698  10.409  11.184   0.290 -0.8172  0.5987  0.1745
  129MOL0     C17699  10.481  11.143   0.403  0.6774  0.7584 -0.6707
  129MOL0     O17700  10.617  11.145   0.414 -0.4656  0.8717  0.1446
  129MOL0     C17701  10.688  11.024   0.460  1.0104  0.1288 -0.7495
  129MOL0     C17702  10.838  11.059   0.447 -0.1393 -0.3398 -0.1187
  129MOL0     C17703  10.919  10.928   0.432 -0.9545 -0.3937 -0.1855
  129MOL0     C17704  11.057  10.965   0.398  0.3894 -0.2942 -0.4236
  129MOL0     C17705  11.088  10.989   0.258  0.4064  0.4193  0.3448
  129MOL0     C17706  11.229  11.046   0.233  1.0042  0.5985  0.1257
  129MOL0     C17707  11.267  11.050   0.091 -0.0747  0.4664 -0.0886
  129MOL0     C17708  11.224  11.182   0.018  0.9524 -0.1585 -0.1229
  129MOL0    Cl17709  11.326  11.322   0.070 -0.0633 -0.0262  0.0317
  129MOL0     C17710  10.401  11.126   0.523  0.0274  0.2532 -0.0657
  129MOL0     C17711  10.258  11.153   0.518 -0.4270 -0.1999 -0.6081
  129MOL0     O17712  10.052  11.349   0.594  0.6130  0.5978  0.1284
  129MOL0     C17713   9.778  11.335   0.355 -0.0087 -0.1011 -0.0763
  129MOL0     C17714   9.648  11.360   0.338  0.4762  0.6450  0.0587
  129MOL0     N17715   8.994  11.303   0.243  0.8031 -0.1985  0.6723
  129MOL0     N17716   8.869  11.305   0.246  0.3927  0.1552  0.4060
  129MOL0     C17717   7.615  11.309   0.169  0.0409  0.0973 -0.1832
  129MOL0     C17718   7.489  11.353   0.216  1.2612 -0.6940 -0.0564
  129MOL0     C17719   7.066  11.519   0.200 -0.1723  0.1107 -0.5248
  129MOL0     C17720   7.078  11.660   0.214  0.1297  0.5030  0.7148
  129MOL0     C17721   6.962  11.737   0.242 -0.1890  0.0508 -0.4891
  129MOL0     C17722   6.840  11.680   0.278 -0.8518  0.6875 -0.4753
  129MOL0     O17723   6.728  11.757   0.290  0.6104  0.6754 -0.4935
  129MOL0     C17724   6.666  11.729   0.420  0.3191 -0.2094 -0.6866
  129MOL0     C17725   6.573  11.847   0.468  0.1951 -0.4953  0.5132
  129MOL0     C17726   6.666  11.956   0.519  0.2884  0.3518 -0.3344
  129MOL0     C17727   6.582  12.077   0.578  0.2650 -0.3833 -0.2414
  129MOL0     C17728   6.554  12.180   0.477  0.1011 -0.2474  1.2491
  129MOL0     C17729   6.514  12.254   0.385 -0.9499 -0.9583  0.0306
  129MOL0     C17730   6.835  11.541   0.278  0.2534 -0.1732 -0.0199
  129MOL0     C17731   6.941  11.457   0.243  0.6065  0.2142 -0.3730
  129MOL0     C17732   6.911  11.311   0.237 -0.5302 -0.2760 -0.1137
  129MOL0     H17733   7.424  11.614   0.008 -4.1721 -1.3718  1.7290
  129MOL0     H17734   7.645  11.543  -0.087 -1.2556  3.3800  1.4043
  129MOL0     H17735   7.868  11.232   0.142  5.1987  0.7367  2.1665
  129MOL0     H17736   7.946  11.366   0.072 -2.9254  1.1302  2.5981
  129MOL0     H17737   7.907  11.094  -0.083  1.3849 -0.1842 -1.0847
  129MOL0     H17738   8.013  11.230  -0.129 -0.2850  1.2275  0.9796
  129MOL0     H17739   8.046  11.064   0.119 -1.4507  0.7948  0.3573
  129MOL0     H17740   8.139  11.036  -0.039  2.5046  2.1139  0.2265
  129MOL0     H17741   8.214  11.292  -0.016  1.3522 -1.3194 -0.6786
  129MOL0     H17742   8.167  11.260   0.151 -2.7466 -0.7521  0.2245
  129MOL0     H17743   8.345  11.076   0.003  1.6482 -0.7694  1.8604
  129MOL0     H17744   8.346  11.106   0.182 -0.9440  1.5405  1.2283
  129MOL0     H17745   8.458  11.302  -0.023  0.1536  2.6406  1.9395
  129MOL0     H17746   8.411  11.342   0.132 -2.7928  0.9702 -1.9056
  129MOL0     H17747   8.612  11.113   0.063  4.2130  0.1945  1.3771
  129MOL0     H17748   8.587  11.185   0.222 -1.1835  2.8684  1.3335
  129MOL0     H17749   8.686  11.328  -0.025  1.9926  0.0618 -0.2173
  129MOL0     H17750   8.643  11.410   0.129  0.9157  0.8063 -2.2040
  129MOL0     H17751   8.931  11.314  -0.071 -1.5816 -0.3731  0.0716
  129MOL0     H17752   9.229  11.405   0.059  0.9738  0.1153  1.7750
  129MOL0     H17753   9.184  11.267  -0.031  0.0468  0.4077 -0.3205
  129MOL0     H17754   9.228  11.108   0.144 -0.9139  1.0554  1.5191
  129MOL0     H17755   9.361  11.204   0.065  1.5473 -0.4755  0.8120
  129MOL0     H17756   9.279  11.190   0.360  2.5059  1.1687  3.8465
  129MOL0     H17757   9.434  11.191   0.276  0.4027  0.2038 -0.5177
  129MOL0     H17758   9.408  11.446   0.235 -2.5715  1.9946 -1.0468
  129MOL0     H17759   9.253  11.439   0.316 -0.6747 -0.3848  1.8754
  129MOL0     H17760   9.543  11.373   0.647  1.1459 -0.2828  0.8038
  129MOL0     H17761   9.717  11.333   0.809  0.8815  0.1908  1.6526
  129MOL0     H17762   9.857  11.421   0.753  0.5208 -0.3879 -4.5806
  129MOL0     H17763   9.853  11.240   0.746  1.6862 -0.5724 -0.9533
  129MOL0     H17764  10.224  11.263   0.201 -0.1629  0.1479 -0.4827
  129MOL0     H17765  10.466  11.209   0.201  1.4424 -0.5930  1.1771
  129MOL0     H17766  10.662  11.010   0.566 -2.9031  4.1246 -0.8644
  129MOL0     H17767  10.646  10.939   0.407 -0.5667  1.0942 -1.1105
  129MOL0     H17768  10.842  11.123   0.358  0.0844  0.2995  0.3375
  129MOL0     H17769  10.860  11.124   0.532 -1.4338  1.2884 -0.9677
  129MOL0     H17770  10.878  10.858   0.358  3.1745 -2.5981 -0.6821
  129MOL0     H17771  10.917  10.882   0.531  0.1247  0.9485  0.4900
  129MOL0     H17772  11.123  10.885   0.433  1.6101  1.9501  2.9423
  129MOL0     H17773  11.083  11.054   0.456 -0.5705  1.0457 -1.9889
  129MOL0     H17774  11.074  10.891   0.212  3.1583  0.0770  0.0716
  129MOL0     H17775  11.009  11.051   0.214 -0.7034 -1.2549 -0.1411
  129MOL0     H17776  11.300  10.977   0.280  1.2448 -0.1426 -1.2540
  129MOL0     H17777  11.237  11.142   0.285 -0.6271 -0.4031  2.4008
  129MOL0     H17778  11.228  10.966   0.033  1.4439  0.9154 -1.8591
  129MOL0     H17779  11.375  11.038   0.077 -0.4943 -0.5958 -3.0057
  129MOL0     H17780  11.120  11.213   0.029 -0.4019 -3.7904 -1.1745
  129MOL0     H17781  11.251  11.164  -0.087  3.7398 -0.1625  0.5062
  129MOL0     H17782  10.457  11.101   0.612  0.6885  1.2451 -0.1842
  129MOL0     H17783  10.191  11.133   0.601 -1.9719 -1.1080 -1.9965
  129MOL0     H17784   9.848  11.327   0.273  1.3237 -0.5564  1.0503
  129MOL0     H17785   9.602  11.360   0.240 -1.4076 -0.7910  0.8703
  129MOL0     H17786   7.661  11.223   0.216 -0.6440 -0.0512  0.2162
  129MOL0     H17787   7.429  11.297   0.286 -0.0628  0.0546 -0.5614
  129MOL0     H17788   7.174  11.710   0.208  1.1556 -1.1848  2.0935
  129MOL0     H17789   6.958  11.846   0.245 -1.2475 -0.0034  1.1453
  129MOL0     H17790   6.590  11.651   0.411 -0.8065  0.9847 -2.0782
  129MOL0     H17791   6.733  11.705   0.503 -1.2047 -1.6557  0.1864
  129MOL0     H17792   6.504  11.813   0.545 -1.0258 -3.5078 -1.6801
  129MOL0     H17793   6.522  11.885   0.379 -3.0660 -1.2737  1.9234
  129MOL0     H17794   6.729  11.911   0.597 -0.8335 -0.7155 -0.0227
  129MOL0     H17795   6.727  11.986   0.433  0.4187  0.9938 -0.0252
  129MOL0     H17796   6.636  12.123   0.661  2.5998 -0.4659 -1.6201
  129MOL0     H17797   6.489  12.036   0.620  1.0831 -4.9067 -2.2641
  129MOL0     H17798   6.481  12.336   0.324  0.0924 -1.0954 -0.7532
  129MOL0     H17799   6.740  11.498   0.307  0.3010  0.9856  2.0225
  129MOL0     H17800   6.809  11.294   0.273 -0.7190  1.4262  0.2444
  129MOL0     H17801   6.926  11.269   0.137 -1.3796 -0.6540 -0.0987
  129MOL0     H17802   6.966  11.261   0.317 -0.0431  1.0070  0.3796
  130MOL0     O17803   2.938  10.492   9.120 -0.3935 -0.5538 -0.4489
  130MOL0     C17804   2.942  10.403   9.041  0.7046  1.2274  0.2908
  130MOL0     O17805   2.893  10.276   9.057 -0.2651 -0.1809  0.1526
  130MOL0     C17806   2.818  10.243   9.162 -0.3883 -0.4933  0.6058
  130MOL0     C17807   2.733  10.330   9.234  0.5263 -0.5010 -0.1099
  130MOL0     C17808   2.662  10.287   9.349 -0.0190 -0.3462 -0.4716
  130MOL0     C17809   2.669  10.156   9.385  0.0236 -0.1142 -0.7909
  130MOL0     O17810   2.591  10.126   9.501  0.1758  0.8104  0.1441
  130MOL0     C17811   2.566   9.983   9.533 -0.2145  0.3308  0.8211
  130MOL0     C17812   2.468   9.954   9.635  0.8833 -0.1442 -0.8307
  130MOL0     C17813   2.489   9.816   9.708  0.5972 -0.2248 -0.5211
  130MOL0     C17814   2.432   9.702   9.625  0.0999  0.8943  0.1383
  130MOL0     C17815   2.426   9.565   9.708  0.5105  0.0958 -0.2403
  130MOL0     C17816   2.568   9.516   9.736 -0.2744  0.2167 -0.0782
  130MOL0     C17817   2.670   9.503   9.618  0.2847 -0.0129 -0.2683
  130MOL0     C17818   2.809   9.467   9.663  0.1048  1.2372 -0.3294
  130MOL0     N17819   2.825   9.340   9.733 -0.8469 -0.4114  0.1115
  130MOL0     C17820   2.881   9.227   9.681  0.8939 -0.1518 -0.2185
  130MOL0     C17821   2.883   9.132   9.775 -0.4614  0.5370  0.5152
  130MOL0     C17822   2.972   9.010   9.781  0.4617  0.7184 -0.3214
  130MOL0     C17823   3.112   9.047   9.838 -0.3598  0.0637  0.3454
  130MOL0     C17824   3.218   8.936   9.847 -1.0473  0.5477  0.4189
  130MOL0     C17825   3.331   8.997   9.929 -0.4787  0.3790  0.0888
  130MOL0     O17826   3.433   8.896   9.940 -0.5625 -0.3805  0.6110
  130MOL0     C17827   3.562   8.942   9.961 -0.8364 -0.5737  0.2069
  130MOL0     C17828   3.606   9.073   9.991 -0.3257  0.1290 -0.6525
  130MOL0     C17829   3.735   9.098  10.022  0.5648  0.6458  0.1336
  130MOL0     C17830   3.757   9.244  10.059  0.2767 -0.3918  0.3963
  130MOL0     C17831   3.833   8.994  10.008 -0.1372 -0.3433  0.3940
  130MOL0     C17832   3.979   9.015  10.042 -0.3679  0.1494 -0.4529
  130MOL0     O17833   4.057   8.903  10.038 -0.2213  0.7815  0.2522
  130MOL0     C17834   4.190   8.894  10.062  0.5079  0.6656  0.5940
  130MOL0     C17835   4.267   8.979  10.146 -0.4516  0.4498  0.0086
  130MOL0     C17836   4.405   8.966  10.146 -0.0133 -0.6767 -0.6695
  130MOL0     C17837   4.474   8.873  10.068  0.1925 -0.4541  1.3746
  130MOL0     O17838   4.612   8.868  10.070  0.8932  0.1416  0.4005
  130MOL0     C17839   4.673   8.842   9.946 -0.0010  0.4984 -0.3270
  130MOL0     C17840   4.825   8.881   9.963  0.0785 -1.1792  0.2801
  130MOL0     C17841   4.886   8.888   9.827  0.6582 -0.4284 -0.2472
  130MOL0     C17842   5.011   8.970   9.829 -0.7314  0.4588  0.6638
  130MOL0     C17843   5.100   8.962   9.696  0.4277 -0.6623 -0.7583
  130MOL0     C17844   5.176   8.832   9.687 -0.3837 -0.0531  0.1071
  130MOL0     C17845   5.266   8.837   9.564  1.1750  0.8137  0.4319
  130MOL0     C17846   5.365   8.717   9.551 -0.1273 -0.4082  0.4056
  130MOL0    Cl17847   5.486   8.711   9.683 -0.0278 -0.0566  0.0486
  130MOL0     C17848   4.397   8.787   9.988 -0.3105 -0.1090 -0.1367
  130MOL0     C17849   4.263   8.793   9.986  0.1576 -0.4040 -0.2128
  130MOL0     O17850   4.019   9.129  10.069  0.0334 -0.9861  0.6060
  130MOL0     C17851   3.791   8.865   9.975 -1.1513  0.0662 -0.2417
  130MOL0     C17852   3.657   8.840   9.954 -0.0805 -0.0871  0.2974
  130MOL0     N17853   2.811   9.187   9.877  0.0740 -0.6972  0.6033
  130MOL0     N17854   2.781   9.308   9.857 -0.0505  0.1304  0.6977
  130MOL0     C17855   2.745  10.063   9.316 -0.5340  0.0886  0.0290
  130MOL0     C17856   2.818  10.106   9.195 -0.4492  0.2872 -0.6084
  130MOL0     C17857   3.040  10.419   8.927 -1.1966 -0.3272 -1.1246
  130MOL0     C17858   3.083  10.307   8.859  0.4540 -1.2318  0.2506
  130MOL0     C17859   3.160  10.304   8.742 -0.6858  0.7545  0.5024
  130MOL0     C17860   3.228  10.424   8.706  0.1043  0.2144  0.2613
  130MOL0     O17861   3.302  10.428   8.589 -0.3535 -0.3065  0.5782
  130MOL0     C17862   3.427  10.502   8.594 -0.1635 -0.9010 -0.8797
  130MOL0     C17863   3.529  10.452   8.491 -0.7636  0.3102 -0.3124
  130MOL0     C17864   3.644  10.553   8.468  0.5480  0.4896 -0.1311
  130MOL0     C17865   3.745  10.504   8.368 -0.2062 -0.1591 -0.5449
  130MOL0     C17866   3.722  10.552   8.232  0.0852 -0.3688 -0.8189
  130MOL0     C17867   3.721  10.603   8.124  0.9055  0.1886  0.2216
  130MOL0     C17868   3.192  10.547   8.775 -0.1796 -0.6925 -0.6660
  130MOL0     C17869   3.096  10.541   8.889  1.1043 -1.2206 -1.1172
  130MOL0     C17870   3.061  10.672   8.952  0.1990 -0.2684  0.2714
  130MOL0     H17871   2.723  10.435   9.209  1.3178 -0.0192  1.3970
  130MOL0     H17872   2.603  10.360   9.403 -2.2556 -1.9998 -0.5668
  130MOL0     H17873   2.659   9.942   9.574 -1.0140 -1.4517  0.9494
  130MOL0     H17874   2.546   9.921   9.445 -4.1218  0.5130  1.3931
  130MOL0     H17875   2.470  10.030   9.714 -1.4690  1.4284 -2.1861
  130MOL0     H17876   2.366   9.957   9.595  0.3281 -1.1815  0.3789
  130MOL0     H17877   2.595   9.796   9.724  0.4761  1.5280  4.1310
  130MOL0     H17878   2.440   9.820   9.806 -0.3317  1.6713 -1.0031
  130MOL0     H17879   2.331   9.725   9.590 -1.3790 -1.9644  2.0838
  130MOL0     H17880   2.489   9.680   9.534  1.1390  1.1305  0.7210
  130MOL0     H17881   2.380   9.480   9.655  1.2301 -0.4767  0.0350
  130MOL0     H17882   2.383   9.569   9.808  0.7520  2.8334 -0.1792
  130MOL0     H17883   2.607   9.591   9.805 -0.1099 -0.2303  0.3211
  130MOL0     H17884   2.558   9.419   9.785 -1.6877  0.5840  0.4258
  130MOL0     H17885   2.672   9.599   9.566 -0.7498 -0.0129 -0.3339
  130MOL0     H17886   2.635   9.420   9.556 -1.3051 -0.7475  1.5010
  130MOL0     H17887   2.863   9.465   9.567 -1.4195 -1.2317 -1.2255
  130MOL0     H17888   2.850   9.545   9.727  1.9665  0.2085 -0.1940
  130MOL0     H17889   2.920   9.211   9.581  2.2847 -0.1149  0.2964
  130MOL0     H17890   2.968   8.962   9.683  0.1223  0.0119  0.0258
  130MOL0     H17891   2.923   8.939   9.848 -0.2534 -0.0459 -1.6072
  130MOL0     H17892   3.144   9.123   9.765 -0.2146 -0.7904 -0.5013
  130MOL0     H17893   3.101   9.100   9.933  0.4472  2.1295 -0.6396
  130MOL0     H17894   3.176   8.847   9.895 -1.6730  0.6932  0.1563
  130MOL0     H17895   3.247   8.910   9.745  0.1367  0.7566  0.6896
  130MOL0     H17896   3.373   9.077   9.866  0.1671  0.5629  0.7357
  130MOL0     H17897   3.298   9.047  10.021 -1.5478  0.9449 -0.5912
  130MOL0     H17898   3.535   9.154  10.001  0.4207  0.7865 -0.6256
  130MOL0     H17899   3.676   9.306  10.020  1.2877  0.9529  0.3469
  130MOL0     H17900   3.846   9.283  10.009  0.8623 -0.3032  1.4703
  130MOL0     H17901   3.755   9.264  10.167 -1.1707 -0.2557  0.3640
  130MOL0     H17902   4.212   9.062  10.190 -0.1885 -0.0308  1.2706
  130MOL0     H17903   4.464   9.029  10.211 -0.1247  0.6614 -1.8013
  130MOL0     H17904   4.662   8.734   9.931  0.7315 -0.0337  2.4743
  130MOL0     H17905   4.633   8.897   9.861  2.0442 -1.8658 -3.0181
  130MOL0     H17906   4.823   8.980  10.009 -1.9570 -2.3299  2.9509
  130MOL0     H17907   4.876   8.811  10.030 -2.4890 -0.0658  3.7327
  130MOL0     H17908   4.825   8.938   9.751  1.3888 -0.9912 -1.2306
  130MOL0     H17909   4.910   8.784   9.802  0.5197 -0.8191  1.1399
  130MOL0     H17910   5.080   8.935   9.907 -2.2616 -0.3640  1.6950
  130MOL0     H17911   4.979   9.071   9.856 -2.0613  0.0234  0.7834
  130MOL0     H17912   5.037   8.982   9.609  3.4202 -0.0941 -2.9621
  130MOL0     H17913   5.179   9.038   9.698  0.8090 -1.0428  1.3070
  130MOL0     H17914   5.109   8.745   9.684  1.0857 -1.2231 -2.2099
  130MOL0     H17915   5.243   8.818   9.773  1.3800 -1.5551 -1.3982
  130MOL0     H17916   5.333   8.923   9.578 -0.6991  2.3061  0.5873
  130MOL0     H17917   5.196   8.844   9.480  0.9379  0.7061  0.6186
  130MOL0     H17918   5.419   8.706   9.456 -0.0928 -2.6415  0.6378
  130MOL0     H17919   5.292   8.637   9.561  0.6537 -1.0010  1.5061
  130MOL0     H17920   4.426   8.713   9.915  1.0301  1.8071 -1.6194
  130MOL0     H17921   4.207   8.719   9.929  2.3508 -0.2374 -2.7850
  130MOL0     H17922   3.864   8.785   9.970 -2.2706 -1.0361  0.4806
  130MOL0     H17923   3.633   8.739   9.925  2.3815 -0.3093 -1.1712
  130MOL0     H17924   2.749   9.958   9.341 -4.4893 -0.3276 -0.3910
  130MOL0     H17925   2.878  10.036   9.138 -1.0568 -0.7213 -0.0332
  130MOL0     H17926   3.052  10.206   8.887 -1.1820 -1.0763 -0.8747
  130MOL0     H17927   3.198  10.216   8.693 -1.0343  0.6747  0.3792
  130MOL0     H17928   3.408  10.609   8.590 -0.2345 -0.7767  1.3260
  130MOL0     H17929   3.476  10.485   8.691  2.3255  2.2932 -1.4147
  130MOL0     H17930   3.481  10.411   8.401 -2.0126 -0.3112  0.6125
  130MOL0     H17931   3.576  10.362   8.532 -2.2998 -0.5041 -0.2914
  130MOL0     H17932   3.602  10.646   8.430  1.3535  1.1152  0.4843
  130MOL0     H17933   3.692  10.570   8.565 -0.3209  2.4767 -0.0072
  130MOL0     H17934   3.760  10.395   8.369  3.6160  0.2425  0.4127
  130MOL0     H17935   3.843  10.543   8.397  1.9380 -2.6264 -3.7199
  130MOL0     H17936   3.703  10.634   8.024 -2.9706  1.3578  1.1337
  130MOL0     H17937   3.237  10.640   8.742 -0.3212 -0.0383  0.9034
  130MOL0     H17938   3.106  10.688   9.050 -1.6038 -0.1868  1.1249
  130MOL0     H17939   3.093  10.761   8.898  1.5590  0.7184  2.5657
  130MOL0     H17940   2.952  10.687   8.958  0.4965  3.3525 -0.9988
  131MOL0     O17941   7.801   5.106   5.970  0.2762  0.1377 -0.2197
  131MOL0     C17942   7.746   5.011   6.025 -0.3085  0.2153 -0.5094
  131MOL0     O17943   7.791   4.961   6.145  0.0497 -0.1739 -0.0863
  131MOL0     C17944   7.906   5.011   6.199 -0.1142  0.0667 -0.3210
  131MOL0     C17945   7.988   4.919   6.259  0.8191  0.8758 -0.0490
  131MOL0     C17946   8.105   4.962   6.330  0.3210 -0.0318  1.0763
  131MOL0     C17947   8.141   5.091   6.346  0.4186 -0.0653  0.6789
  131MOL0     O17948   8.238   5.113   6.437  0.6388 -0.1323 -0.0051
  131MOL0     C17949   8.276   5.251   6.473 -0.0119  0.2200  0.6736
  131MOL0     C17950   8.398   5.244   6.568  0.2899 -0.3084  0.1570
  131MOL0     C17951   8.514   5.164   6.497  0.4232 -0.1576 -0.3774
  131MOL0     C17952   8.639   5.159   6.583  0.3464  0.3495  0.5055
  131MOL0     C17953   8.747   5.074   6.514  0.7745  1.2615  0.0677
  131MOL0     C17954   8.887   5.064   6.587  0.7238 -0.6241  0.3449
  131MOL0     C17955   8.970   4.957   6.510  0.6556  0.2798 -0.0653
  131MOL0     C17956   9.121   4.961   6.533 -0.3446 -0.7923 -0.0278
  131MOL0     N17957   9.178   4.871   6.439 -0.1292  0.3872  0.2987
  131MOL0     C17958   9.234   4.896   6.320  0.0872 -0.3761  0.0701
  131MOL0     C17959   9.276   4.785   6.272 -0.7139 -0.6862 -0.1365
  131MOL0     C17960   9.347   4.762   6.144  0.5772  0.6074 -0.2302
  131MOL0     C17961   9.501   4.749   6.178  0.7843  0.1196  0.6877
  131MOL0     C17962   9.573   4.698   6.054 -0.0616 -0.1830  0.4345
  131MOL0     C17963   9.701   4.626   6.084  0.5572 -0.2772  0.2286
  131MOL0     O17964   9.676   4.491   6.132  0.6650  1.1526  0.4620
  131MOL0     C17965   9.749   4.455   6.245  0.6542 -0.5459  0.1680
  131MOL0     C17966   9.890   4.465   6.237 -1.1546 -0.1225 -0.0262
  131MOL0     C17967   9.975   4.420   6.341 -0.3830 -0.1607 -0.1902
  131MOL0     C17968  10.121   4.434   6.337 -0.4853 -0.1714  0.1807
  131MOL0     C17969   9.914   4.352   6.449  0.5177  0.0753  0.4655
  131MOL0     C17970   9.987   4.300   6.563  0.8098  0.0394  0.2149
  131MOL0     O17971   9.955   4.164   6.594 -0.2353 -0.1111  0.3456
  131MOL0     C17972  10.033   4.096   6.683 -0.0097  0.7992  0.2809
  131MOL0     C17973   9.981   3.962   6.706 -0.9695 -0.6190  0.6916
  131MOL0     C17974  10.044   3.883   6.804  0.1348 -0.6403 -0.1547
  131MOL0     C17975  10.169   3.921   6.856  0.4048 -1.0090  0.4205
  131MOL0     O17976  10.239   3.837   6.940 -0.5596  0.7063  0.1804
  131MOL0     C17977  10.277   3.720   6.873  0.0860 -0.1862 -0.3459
  131MOL0     C17978  10.425   3.705   6.903  0.6290 -0.0357  0.0835
  131MOL0     C17979  10.503   3.803   6.813 -0.5877 -0.1339  0.5392
  131MOL0     C17980  10.649   3.780   6.820 -0.0988  0.0232  0.2968
  131MOL0     C17981  10.735   3.857   6.719 -0.0985 -0.2127 -0.3754
  131MOL0     C17982  10.687   3.859   6.568  0.3969  0.2265 -0.9591
  131MOL0     C17983  10.693   3.716   6.513  0.6818  0.3760  0.2483
  131MOL0     C17984  10.828   3.690   6.440 -0.0042  0.4107  0.3778
  131MOL0    Cl17985  10.828   3.517   6.397 -0.1563 -0.2897  0.3949
  131MOL0     C17986  10.230   4.044   6.824  0.2917  0.1731 -0.2090
  131MOL0     C17987  10.157   4.133   6.739 -0.5275  0.8044  0.0989
  131MOL0     O17988  10.047   4.380   6.633  0.0593  0.0501 -0.2137
  131MOL0     C17989   9.778   4.342   6.451  0.5346 -0.3409 -0.1644
  131MOL0     C17990   9.692   4.389   6.352  0.0869  0.2945 -0.7282
  131MOL0     N17991   9.240   4.677   6.358  0.2972 -0.4548  0.9822
  131MOL0     N17992   9.175   4.732   6.451 -0.2488 -0.1002 -0.3990
  131MOL0     C17993   8.051   5.191   6.284 -1.1096  1.0443  0.2392
  131MOL0     C17994   7.941   5.149   6.208  0.5339 -0.0343  0.1713
  131MOL0     C17995   7.620   4.947   5.964 -0.3741 -0.3720 -0.0445
  131MOL0     C17996   7.541   4.863   6.047  0.0011 -0.0043  0.6620
  131MOL0     C17997   7.422   4.814   6.006 -0.2861 -0.4302  0.0769
  131MOL0     C17998   7.373   4.832   5.875  0.1588 -0.0821  0.2683
  131MOL0     O17999   7.245   4.784   5.825 -0.2871 -0.0431  0.1201
  131MOL0     C18000   7.152   4.728   5.910 -0.6484  0.1376 -0.8320
  131MOL0     C18001   7.014   4.739   5.856 -0.8988 -0.5218 -0.4455
  131MOL0     C18002   6.999   4.700   5.708 -0.1523  0.6270  0.3826
  131MOL0     C18003   7.016   4.554   5.668  0.4824 -0.6478  0.0597
  131MOL0     C18004   6.891   4.478   5.677  0.2505 -0.1098  0.8365
  131MOL0     C18005   6.788   4.418   5.656 -0.4152  0.6405 -0.2327
  131MOL0     C18006   7.459   4.897   5.787  0.3941 -0.7114  0.3390
  131MOL0     C18007   7.573   4.959   5.828  0.6187  0.7175  0.1516
  131MOL0     C18008   7.647   5.042   5.724  0.5306  0.8680 -0.8189
  131MOL0     H18009   7.962   4.815   6.243 -0.9830  1.7266 -3.6349
  131MOL0     H18010   8.166   4.888   6.381  1.6383  0.1975 -0.1116
  131MOL0     H18011   8.190   5.295   6.522 -1.9692 -1.8165 -0.7430
  131MOL0     H18012   8.301   5.298   6.377 -2.4906  0.2804  0.0028
  131MOL0     H18013   8.435   5.344   6.594 -0.8518  0.1059  0.2505
  131MOL0     H18014   8.366   5.204   6.664 -0.6623  1.6610  0.7217
  131MOL0     H18015   8.469   5.065   6.487 -0.7273  0.4854 -1.8071
  131MOL0     H18016   8.533   5.192   6.393  2.7468 -0.7009 -0.1599
  131MOL0     H18017   8.671   5.259   6.613 -0.1379  0.4110  0.8357
  131MOL0     H18018   8.622   5.122   6.685 -2.0346  3.0166  1.2289
  131MOL0     H18019   8.768   5.104   6.411 -2.7004  0.5119 -0.9721
  131MOL0     H18020   8.700   4.976   6.508 -0.3965  1.8814 -3.1242
  131MOL0     H18021   8.942   5.159   6.585 -2.4512  1.3375  0.1440
  131MOL0     H18022   8.872   5.037   6.691 -0.8874 -1.7712 -0.1485
  131MOL0     H18023   8.949   4.965   6.403 -2.2636 -0.7546  0.3422
  131MOL0     H18024   8.932   4.859   6.538  2.5814 -0.1028  1.4541
  131MOL0     H18025   9.152   5.065   6.519 -0.4128 -0.7047  0.4557
  131MOL0     H18026   9.150   4.923   6.631  0.6560  1.4787  0.6189
  131MOL0     H18027   9.243   4.993   6.271  0.1614 -0.8039 -0.7945
  131MOL0     H18028   9.331   4.849   6.081 -0.3178  2.8654  2.8492
  131MOL0     H18029   9.301   4.675   6.097 -1.4078  1.0197  0.8233
  131MOL0     H18030   9.545   4.846   6.204  1.4882  0.0127 -0.0668
  131MOL0     H18031   9.522   4.684   6.263  0.3205  0.2348  0.8985
  131MOL0     H18032   9.508   4.630   5.998  1.8845 -0.7754 -1.2195
  131MOL0     H18033   9.585   4.784   5.988  3.0585 -0.2656  0.7828
  131MOL0     H18034   9.756   4.629   5.990  2.7748  0.1012  1.4511
  131MOL0     H18035   9.754   4.688   6.157 -2.1556  2.3238  0.1678
  131MOL0     H18036   9.939   4.514   6.153  1.3798 -1.4406  0.5747
  131MOL0     H18037  10.149   4.498   6.422 -1.0083 -0.3500  0.4896
  131MOL0     H18038  10.160   4.488   6.250  0.2662 -3.0137 -1.3558
  131MOL0     H18039  10.169   4.337   6.351 -1.2742 -1.6088 -5.0289
  131MOL0     H18040   9.889   3.936   6.655 -0.9099 -1.2394  0.8976
  131MOL0     H18041   9.998   3.789   6.834  0.2956 -0.9929 -0.9598
  131MOL0     H18042  10.228   3.636   6.923  1.4435 -2.5037 -2.6283
  131MOL0     H18043  10.249   3.718   6.767  0.1822  1.0124 -0.4053
  131MOL0     H18044  10.456   3.742   7.002  1.2369  3.2694 -1.2062
  131MOL0     H18045  10.457   3.601   6.899  0.9470  0.0877 -1.1686
  131MOL0     H18046  10.492   3.909   6.838  0.1316  0.2789 -0.8046
  131MOL0     H18047  10.462   3.792   6.712  0.6267 -1.2698  0.1511
  131MOL0     H18048  10.668   3.675   6.796  1.3738  0.9779 -3.3520
  131MOL0     H18049  10.678   3.803   6.923 -0.3253 -1.4956  0.7242
  131MOL0     H18050  10.741   3.964   6.740 -2.8307 -0.1007  0.1108
  131MOL0     H18051  10.835   3.812   6.725  0.1950  0.1550 -1.9382
  131MOL0     H18052  10.754   3.924   6.512  2.4811 -0.3172  0.7561
  131MOL0     H18053  10.583   3.889   6.553 -0.2985 -2.4746 -2.3034
  131MOL0     H18054  10.609   3.707   6.442  2.6690 -2.4956 -1.9690
  131MOL0     H18055  10.680   3.643   6.593 -0.7556 -1.2135 -1.3479
  131MOL0     H18056  10.917   3.713   6.499 -1.2159  1.7854  1.7568
  131MOL0     H18057  10.848   3.749   6.350  1.7721 -0.9747 -0.1866
  131MOL0     H18058  10.324   4.078   6.867 -0.7829  2.0692  0.8111
  131MOL0     H18059  10.212   4.225   6.725 -1.5198  1.2234 -1.2339
  131MOL0     H18060   9.742   4.282   6.534 -1.1375 -0.7734 -1.1654
  131MOL0     H18061   9.586   4.370   6.362  0.3457 -0.3496  1.3530
  131MOL0     H18062   8.072   5.296   6.302 -3.7375  2.1550 -2.3257
  131MOL0     H18063   7.877   5.226   6.167 -0.2642 -0.2852  0.9285
  131MOL0     H18064   7.576   4.833   6.145  0.3896 -0.1576  0.4764
  131MOL0     H18065   7.367   4.760   6.083 -0.6299 -4.1857 -2.5427
  131MOL0     H18066   7.179   4.622   5.916 -0.5546  0.1934 -0.1654
  131MOL0     H18067   7.161   4.767   6.012  0.9455  0.5704 -1.1016
  131MOL0     H18068   6.988   4.845   5.857 -3.4562 -1.0762  0.5448
  131MOL0     H18069   6.944   4.684   5.919 -1.5916  2.7768  1.8889
  131MOL0     H18070   6.902   4.738   5.676  0.6054  1.3349 -1.1617
  131MOL0     H18071   7.072   4.758   5.651 -2.4761  4.2440  0.8236
  131MOL0     H18072   7.100   4.514   5.724  2.1102 -2.5121 -3.3877
  131MOL0     H18073   7.048   4.547   5.564 -1.6968 -2.0926 -0.5808
  131MOL0     H18074   6.695   4.366   5.645 -0.0478 -0.0666 -0.0778
  131MOL0     H18075   7.422   4.909   5.686  3.2996 -0.8970 -0.8489
  131MOL0     H18076   7.739   4.985   5.706  0.4899  0.6741 -0.4267
  131MOL0     H18077   7.592   5.060   5.632  1.1688 -3.9137 -2.4029
  131MOL0     H18078   7.665   5.139   5.773  1.0493 -0.5733  2.0772
  132MOL0     O18079   4.647   3.306   0.859  0.2329  0.4161 -0.0273
  132MOL0     C18080   4.529   3.335   0.835 -0.3994  0.6891  0.2444
  132MOL0     O18081   4.492   3.393   0.719 -0.2341 -0.5133  0.3879
  132MOL0     C18082   4.592   3.443   0.641  0.4264  0.0434  0.4955
  132MOL0     C18083   4.610   3.582   0.616 -0.2241  0.3441 -0.1674
  132MOL0     C18084   4.699   3.619   0.516 -0.1771  0.6344  0.8995
  132MOL0     C18085   4.799   3.531   0.463 -0.0208 -0.1700 -0.9338
  132MOL0     O18086   4.910   3.573   0.398  0.1651 -0.3385  0.2602
  132MOL0     C18087   5.034   3.591   0.472  0.3327 -0.6295 -0.0054
  132MOL0     C18088   5.145   3.659   0.387 -0.3070 -0.6220  0.6312
  132MOL0     C18089   5.266   3.698   0.464 -0.1024 -0.2509 -0.5250
  132MOL0     C18090   5.395   3.693   0.384 -0.2545  0.0994  0.3732
  132MOL0     C18091   5.534   3.719   0.450  0.2161 -0.6328 -0.1567
  132MOL0     C18092   5.542   3.646   0.581 -0.1100 -0.0268  0.5028
  132MOL0     C18093   5.552   3.498   0.568  0.0986 -0.4739  1.1754
  132MOL0     C18094   5.684   3.457   0.503 -0.9437 -0.3581 -0.3918
  132MOL0     N18095   5.720   3.314   0.511 -0.1497  0.1679 -0.9042
  132MOL0     C18096   5.660   3.222   0.424 -0.0953 -0.1918  0.9326
  132MOL0     C18097   5.695   3.101   0.479  0.3898 -0.8698  0.3150
  132MOL0     C18098   5.686   2.961   0.431 -0.5361  0.0235  0.1636
  132MOL0     C18099   5.815   2.889   0.373  0.3613  0.0591  0.4591
  132MOL0     C18100   5.876   2.959   0.245 -0.0275  0.8499 -0.1066
  132MOL0     C18101   5.965   2.848   0.184  0.0224 -0.7797  0.3124
  132MOL0     O18102   6.012   2.894   0.051 -0.0213 -1.2980 -0.0609
  132MOL0     C18103   6.073   2.794  -0.017  0.9799 -0.4530  1.3277
  132MOL0     C18104   6.024   2.669  -0.036 -0.8845 -0.5070  0.4268
  132MOL0     C18105   6.093   2.574  -0.114  0.5039 -0.4563 -0.1135
  132MOL0     C18106   6.038   2.434  -0.122 -0.1237 -0.3678 -0.0722
  132MOL0     C18107   6.214   2.621  -0.193  0.7349  0.6227  0.1609
  132MOL0     C18108   6.295   2.537  -0.286  0.9185 -0.1928 -0.7961
  132MOL0     O18109   6.392   2.598  -0.359  0.0597 -0.0543 -0.0437
  132MOL0     C18110   6.435   2.523  -0.468 -0.4205 -0.2233 -0.3657
  132MOL0     C18111   6.571   2.504  -0.494  0.1410  0.2761 -0.9208
  132MOL0     C18112   6.605   2.443  -0.612 -0.6040 -0.3847  0.9247
  132MOL0     C18113   6.506   2.426  -0.716 -1.1916 -0.8699 -0.1025
  132MOL0     O18114   6.541   2.404  -0.844 -0.9220  0.3028 -0.4566
  132MOL0     C18115   6.589   2.272  -0.872 -0.2361  0.0393  0.3295
  132MOL0     C18116   6.526   2.194  -0.986  0.0475 -0.0595  0.4482
  132MOL0     C18117   6.381   2.159  -0.966 -0.8930 -0.1263  0.3069
  132MOL0     C18118   6.364   2.018  -1.020  0.1088 -0.4914 -0.5075
  132MOL0     C18119   6.211   1.994  -1.018 -0.6466  0.3644  0.7852
  132MOL0     C18120   6.156   1.863  -1.077 -0.4155 -0.5945 -0.9531
  132MOL0     C18121   6.217   1.738  -0.995 -0.2955 -0.1908 -0.5486
  132MOL0     C18122   6.152   1.615  -1.046  0.0220  0.0328 -0.4562
  132MOL0    Cl18123   6.232   1.481  -0.965  0.1341  0.4440 -0.4659
  132MOL0     C18124   6.375   2.454  -0.694 -0.0601  0.3865 -0.3304
  132MOL0     C18125   6.340   2.495  -0.563 -0.0169  0.5022  0.4884
  132MOL0     O18126   6.254   2.420  -0.303  0.0891 -0.1137 -0.8357
  132MOL0     C18127   6.257   2.752  -0.168  0.3856  0.3773 -0.3713
  132MOL0     C18128   6.190   2.838  -0.083  0.2243 -0.5432  0.3959
  132MOL0     N18129   5.763   3.127   0.599  0.5245  0.9286  0.1738
  132MOL0     N18130   5.790   3.248   0.610 -0.3722  0.1891  0.5544
  132MOL0     C18131   4.788   3.399   0.498 -1.7722 -0.1246 -0.6044
  132MOL0     C18132   4.681   3.352   0.577  0.7494 -0.1277  0.9131
  132MOL0     C18133   4.416   3.293   0.924 -0.0500  0.3834  0.7456
  132MOL0     C18134   4.449   3.189   1.010  0.3818 -0.1874 -0.2963
  132MOL0     C18135   4.363   3.126   1.092  0.0656 -0.1797 -0.0398
  132MOL0     C18136   4.234   3.169   1.095 -1.0416  0.1430 -0.5702
  132MOL0     O18137   4.154   3.122   1.192  0.0413 -0.2131 -0.8034
  132MOL0     C18138   4.045   3.041   1.149  0.3437  0.1905  0.1171
  132MOL0     C18139   4.085   2.901   1.100  0.7428 -0.8624 -0.2001
  132MOL0     C18140   4.150   2.813   1.207  0.6433  0.3120 -0.5047
  132MOL0     C18141   4.184   2.678   1.155 -0.2390  0.0614 -0.7865
  132MOL0     C18142   4.271   2.672   1.039  0.2393  0.2295 -0.4695
  132MOL0     C18143   4.325   2.652   0.930  0.3725  0.4153  1.2605
  132MOL0     C18144   4.197   3.276   1.014  0.7486  0.7724 -0.5794
  132MOL0     C18145   4.280   3.334   0.917  0.2101 -0.7280  0.2858
  132MOL0     C18146   4.228   3.455   0.847 -0.0529  0.1770 -0.0368
  132MOL0     H18147   4.538   3.656   0.651  2.4525  1.4767  3.5344
  132MOL0     H18148   4.694   3.721   0.479  1.2985  1.1691  2.0404
  132MOL0     H18149   5.076   3.497   0.508  0.5192 -0.7343 -0.4925
  132MOL0     H18150   5.004   3.644   0.564  0.0017  0.1085 -0.5291
  132MOL0     H18151   5.170   3.592   0.305  1.6711  0.3191  0.4234
  132MOL0     H18152   5.099   3.749   0.346  2.4032  0.9310  0.8139
  132MOL0     H18153   5.241   3.802   0.489 -4.0675 -1.0044 -0.7401
  132MOL0     H18154   5.268   3.623   0.543  2.0530 -0.1964 -0.4513
  132MOL0     H18155   5.399   3.593   0.342  1.5000 -0.3399  1.4591
  132MOL0     H18156   5.393   3.768   0.304  0.7560  1.8591  1.8819
  132MOL0     H18157   5.550   3.827   0.463  3.0384 -0.9339 -0.4044
  132MOL0     H18158   5.615   3.683   0.385  0.2698 -0.4671 -0.1819
  132MOL0     H18159   5.630   3.675   0.638  1.7057 -2.2763 -0.9839
  132MOL0     H18160   5.453   3.673   0.639 -0.0830  0.5395  0.2814
  132MOL0     H18161   5.461   3.452   0.530 -0.3631  0.4871  1.1075
  132MOL0     H18162   5.561   3.469   0.673  1.1493 -3.4556  0.3854
  132MOL0     H18163   5.682   3.482   0.396 -0.2420  0.1155 -0.3038
  132MOL0     H18164   5.760   3.517   0.555 -2.0978 -0.3577  1.3611
  132MOL0     H18165   5.608   3.239   0.330  2.5419 -0.0578 -0.6098
  132MOL0     H18166   5.619   2.960   0.344  0.6092  0.9552 -0.7733
  132MOL0     H18167   5.646   2.895   0.508 -2.0898 -0.3940 -0.9480
  132MOL0     H18168   5.898   2.883   0.443  1.6901  0.6887 -1.0046
  132MOL0     H18169   5.775   2.789   0.355 -1.8598  0.2601  3.4659
  132MOL0     H18170   5.813   2.996   0.164  0.6165  3.3345  0.4306
  132MOL0     H18171   5.942   3.038   0.282  4.2113 -2.0006 -0.8665
  132MOL0     H18172   6.055   2.819   0.241 -0.4042 -2.3781  0.1984
  132MOL0     H18173   5.893   2.767   0.173 -1.8436  1.0100 -1.4823
  132MOL0     H18174   5.934   2.643   0.019 -2.1287  0.2691 -1.1560
  132MOL0     H18175   6.011   2.407  -0.224 -1.1075  1.2763 -0.2901
  132MOL0     H18176   5.944   2.417  -0.069 -1.0426 -0.4648 -1.6785
  132MOL0     H18177   6.106   2.365  -0.071  1.0597  1.4331  0.9129
  132MOL0     H18178   6.645   2.534  -0.420 -3.3590  0.0533  3.0509
  132MOL0     H18179   6.709   2.430  -0.640  1.1624  2.6497  5.1205
  132MOL0     H18180   6.695   2.275  -0.898 -0.3569  0.4609 -0.1215
  132MOL0     H18181   6.580   2.206  -0.785 -0.7628 -2.4269 -1.4733
  132MOL0     H18182   6.539   2.252  -1.078 -0.7029  0.1768  0.4796
  132MOL0     H18183   6.590   2.107  -1.005 -0.8756 -0.5193 -0.6618
  132MOL0     H18184   6.316   2.227  -1.023 -0.0653 -0.8300 -1.5741
  132MOL0     H18185   6.359   2.154  -0.859  0.0104 -1.0319  0.4658
  132MOL0     H18186   6.411   1.950  -0.948  0.3410 -1.9099 -1.9385
  132MOL0     H18187   6.415   1.997  -1.114  1.2337 -0.6487  0.1303
  132MOL0     H18188   6.175   1.999  -0.915 -0.9673 -2.8829  0.9430
  132MOL0     H18189   6.156   2.076  -1.066 -1.6280  0.3840  1.8807
  132MOL0     H18190   6.180   1.862  -1.184 -0.6499  0.9497 -1.0368
  132MOL0     H18191   6.048   1.855  -1.062 -0.1431  0.3397  2.0820
  132MOL0     H18192   6.208   1.750  -0.887  1.5659 -2.2123 -0.0944
  132MOL0     H18193   6.323   1.731  -1.020 -0.6500 -1.7606 -1.8387
  132MOL0     H18194   6.157   1.595  -1.154 -0.7170 -1.6358 -0.2227
  132MOL0     H18195   6.046   1.623  -1.018 -0.0932  1.4888 -1.1708
  132MOL0     H18196   6.305   2.455  -0.776  1.2691 -1.1146 -1.5491
  132MOL0     H18197   6.235   2.517  -0.548 -1.0386 -3.8991  1.1719
  132MOL0     H18198   6.335   2.797  -0.228  1.1959 -0.8171 -0.2722
  132MOL0     H18199   6.202   2.946  -0.085 -0.8329 -0.3880  1.2861
  132MOL0     H18200   4.867   3.340   0.452 -2.3952 -0.5599 -1.1367
  132MOL0     H18201   4.659   3.246   0.576 -3.3242  0.4788 -3.1020
  132MOL0     H18202   4.550   3.151   1.021 -0.7888 -2.9382  2.6929
  132MOL0     H18203   4.409   3.052   1.157  0.5307  0.5184  0.4471
  132MOL0     H18204   3.985   3.020   1.239  0.4453 -1.8663 -0.2640
  132MOL0     H18205   3.983   3.087   1.072  0.7985 -1.4540 -1.2883
  132MOL0     H18206   4.151   2.916   1.013 -1.0018  2.6322 -1.0795
  132MOL0     H18207   3.998   2.850   1.059  0.0124  1.4872 -1.7719
  132MOL0     H18208   4.241   2.861   1.246  0.3548  0.8548 -0.4867
  132MOL0     H18209   4.081   2.797   1.291  1.0793 -0.8666 -0.3541
  132MOL0     H18210   4.086   2.629   1.150 -0.8002  1.1761 -1.2309
  132MOL0     H18211   4.239   2.624   1.232 -0.3733 -1.5367 -1.7634
  132MOL0     H18212   4.348   2.627   0.829 -3.7797  1.0086  0.0046
  132MOL0     H18213   4.097   3.318   1.022  0.7231  0.5152  0.6273
  132MOL0     H18214   4.298   3.513   0.786 -1.7146  2.1836 -0.1790
  132MOL0     H18215   4.149   3.416   0.782 -1.8952  1.1203  1.5179
  132MOL0     H18216   4.191   3.534   0.913  4.0433  1.7553  0.7181
  133MOL0     O18217   3.974   3.930   1.974 -0.0387 -0.0821 -0.0017
  133MOL0     C18218   3.993   3.855   1.877 -0.3175 -0.0230 -0.3019
  133MOL0     O18219   3.903   3.757   1.827 -0.2543 -0.5191 -0.2273
  133MOL0     C18220   3.787   3.760   1.896  0.4033 -0.9584  0.5601
  133MOL0     C18221   3.781   3.671   2.000  0.0706 -0.8460  0.5985
  133MOL0     C18222   3.664   3.656   2.079 -0.1014 -0.4775 -0.7259
  133MOL0     C18223   3.556   3.740   2.061  0.0811  0.3128  0.5199
  133MOL0     O18224   3.438   3.735   2.133 -0.3863  0.1069  1.1618
  133MOL0     C18225   3.407   3.615   2.202  0.2790 -0.1154 -0.4798
  133MOL0     C18226   3.255   3.617   2.225  0.1688 -0.5278  0.3348
  133MOL0     C18227   3.169   3.610   2.099  1.4332  0.0663 -0.8676
  133MOL0     C18228   3.023   3.637   2.133 -1.0625  0.3282 -0.0599
  133MOL0     C18229   2.921   3.656   2.029  0.0002 -0.1675  0.3728
  133MOL0     C18230   2.778   3.660   2.077  0.6391 -0.3898 -0.2030
  133MOL0     C18231   2.670   3.706   1.967 -0.0960 -0.4595 -0.4048
  133MOL0     C18232   2.693   3.843   1.913 -0.4132  0.0083  1.1422
  133MOL0     N18233   2.588   3.899   1.827  0.6514 -0.2906  0.7238
  133MOL0     C18234   2.573   4.039   1.793 -1.2641  0.2902  0.7649
  133MOL0     C18235   2.440   4.057   1.767 -0.0274 -0.8274 -0.3627
  133MOL0     C18236   2.380   4.182   1.716  0.0723  0.4114 -0.0693
  133MOL0     C18237   2.446   4.225   1.583  0.5117 -0.2319  1.0466
  133MOL0     C18238   2.376   4.357   1.529 -0.7014  0.5083 -1.0637
  133MOL0     C18239   2.407   4.483   1.607 -0.2735  0.2433  0.6146
  133MOL0     O18240   2.513   4.482   1.706 -0.1437 -0.0989  0.4688
  133MOL0     C18241   2.647   4.508   1.669  0.0907 -0.8110  0.4458
  133MOL0     C18242   2.750   4.529   1.759  0.5076  0.7555 -0.1132
  133MOL0     C18243   2.885   4.536   1.727 -0.7587 -0.7246  0.1557
  133MOL0     C18244   2.981   4.554   1.848 -1.1864  0.7333 -0.2694
  133MOL0     C18245   2.917   4.555   1.598  0.2625  0.1582  0.5197
  133MOL0     C18246   3.057   4.575   1.548 -0.4904  0.4763  0.0834
  133MOL0     O18247   3.130   4.459   1.525 -0.7113  0.2470  0.1173
  133MOL0     C18248   3.251   4.468   1.457  0.8111 -0.2702  0.2300
  133MOL0     C18249   3.358   4.387   1.500 -0.5221 -0.0961 -0.5640
  133MOL0     C18250   3.471   4.389   1.426 -0.1746 -0.0948  0.3339
  133MOL0     C18251   3.482   4.463   1.306 -0.3181  1.2575 -0.1430
  133MOL0     O18252   3.599   4.439   1.224  0.2738 -0.2335 -0.5801
  133MOL0     C18253   3.708   4.365   1.277  1.0295  0.6711  0.7279
  133MOL0     C18254   3.819   4.353   1.179  0.1275 -0.8332  0.1851
  133MOL0     C18255   3.943   4.315   1.259 -0.2605  0.3822  0.2801
  133MOL0     C18256   4.073   4.299   1.178 -0.8084 -0.4374  0.3872
  133MOL0     C18257   4.180   4.223   1.243 -0.1519  0.8175  0.0462
  133MOL0     C18258   4.242   4.303   1.357  0.0264 -0.2693  0.4813
  133MOL0     C18259   4.303   4.207   1.463  0.1657 -0.4934  0.5506
  133MOL0     C18260   4.390   4.283   1.563 -0.0289 -0.5967 -0.2554
  133MOL0    Cl18261   4.560   4.329   1.506 -0.3754 -0.1821 -0.0857
  133MOL0     C18262   3.379   4.546   1.263 -0.7491  0.3139 -0.5111
  133MOL0     C18263   3.263   4.550   1.345  0.8415  0.2848  0.9677
  133MOL0     O18264   3.102   4.686   1.534  0.0323 -0.0430 -0.1368
  133MOL0     C18265   2.819   4.532   1.500  0.4151 -0.7908  0.1405
  133MOL0     C18266   2.684   4.510   1.532  0.3671  0.3135  0.2303
  133MOL0     N18267   2.377   3.939   1.769 -0.2460 -0.5009 -0.2811
  133MOL0     N18268   2.464   3.849   1.803  0.0903  0.6095  0.2455
  133MOL0     C18269   3.576   3.835   1.958  0.8220 -0.5322 -0.6181
  133MOL0     C18270   3.684   3.851   1.875 -0.0168  0.7074 -0.5948
  133MOL0     C18271   4.132   3.854   1.819  0.1692  0.1434  0.2496
  133MOL0     C18272   4.146   3.773   1.703 -1.3557 -1.1100 -0.1931
  133MOL0     C18273   4.270   3.768   1.634  0.2228 -0.6659  0.4882
  133MOL0     C18274   4.377   3.855   1.672  0.9724  0.5396 -0.0382
  133MOL0     O18275   4.484   3.840   1.591  0.2874 -0.0925 -0.5198
  133MOL0     C18276   4.584   3.929   1.583 -0.6854  0.2871 -0.2557
  133MOL0     C18277   4.704   3.892   1.675  0.2989 -1.0878  0.6378
  133MOL0     C18278   4.841   3.940   1.630  0.0015 -0.0932 -0.4304
  133MOL0     C18279   4.856   4.095   1.607  0.2385 -0.2290  0.6632
  133MOL0     C18280   4.804   4.167   1.720  0.0810 -0.5278 -1.2250
  133MOL0     C18281   4.755   4.215   1.824  0.4159  0.7512  0.1636
  133MOL0     C18282   4.358   3.934   1.780  0.0956  0.2806 -0.8340
  133MOL0     C18283   4.242   3.940   1.859  0.7299  0.4155  0.1959
  133MOL0     C18284   4.243   4.027   1.988 -0.5670 -0.2677 -0.6639
  133MOL0     H18285   3.870   3.612   2.019  2.0053  1.7369  0.0790
  133MOL0     H18286   3.664   3.599   2.171  0.1418  0.6843  0.0190
  133MOL0     H18287   3.452   3.605   2.301 -1.4885  2.0432  0.6141
  133MOL0     H18288   3.433   3.523   2.148  0.4265  0.1945 -0.9484
  133MOL0     H18289   3.220   3.542   2.296  0.3290  0.4318  1.4628
  133MOL0     H18290   3.228   3.709   2.278 -0.3116 -0.0879 -0.6332
  133MOL0     H18291   3.210   3.683   2.028 -0.5053  2.0925 -0.0415
  133MOL0     H18292   3.172   3.512   2.052 -1.7587 -1.6320  2.0521
  133MOL0     H18293   2.989   3.574   2.216 -0.1367  0.9857  0.8634
  133MOL0     H18294   3.035   3.738   2.175 -0.7643 -0.3828  1.6876
  133MOL0     H18295   2.927   3.581   1.950 -1.8628  0.2913 -0.2528
  133MOL0     H18296   2.938   3.751   1.977 -2.8603 -0.3526 -1.0895
  133MOL0     H18297   2.758   3.556   2.107  2.3086 -0.3381  1.2707
  133MOL0     H18298   2.755   3.721   2.165 -2.2969  2.3289 -2.6428
  133MOL0     H18299   2.575   3.695   2.021  1.0432  0.8476  2.0374
  133MOL0     H18300   2.669   3.629   1.890  2.6530 -1.7981  0.7936
  133MOL0     H18301   2.717   3.909   1.998  1.2554  1.0088 -0.0384
  133MOL0     H18302   2.785   3.845   1.853 -1.8138  1.7279 -1.0859
  133MOL0     H18303   2.656   4.108   1.786 -0.9696 -0.1160  0.0477
  133MOL0     H18304   2.397   4.269   1.779 -1.6208  0.9155 -0.2606
  133MOL0     H18305   2.273   4.162   1.704 -0.1748  1.7133 -0.1359
  133MOL0     H18306   2.554   4.244   1.584  0.5282  0.4848 -2.3939
  133MOL0     H18307   2.436   4.149   1.505  2.6407 -0.6072  1.0853
  133MOL0     H18308   2.416   4.365   1.428  0.7115 -1.4033 -0.7273
  133MOL0     H18309   2.268   4.353   1.512 -0.7107  1.8935 -1.3862
  133MOL0     H18310   2.425   4.568   1.541  0.1799  0.3343  0.8447
  133MOL0     H18311   2.317   4.499   1.667 -0.8259 -0.5346  0.0010
  133MOL0     H18312   2.710   4.528   1.860  2.7028  0.7602  0.7980
  133MOL0     H18313   3.078   4.514   1.819 -2.6944 -2.7529 -1.1602
  133MOL0     H18314   2.946   4.492   1.931  1.5162 -0.2746  0.2066
  133MOL0     H18315   2.997   4.656   1.885  5.1253 -0.2400  0.8339
  133MOL0     H18316   3.333   4.338   1.593  1.7059 -0.4306 -0.0882
  133MOL0     H18317   3.552   4.327   1.462  0.5543 -0.4105 -1.7384
  133MOL0     H18318   3.741   4.424   1.363 -0.4571  1.4282  0.8105
  133MOL0     H18319   3.677   4.264   1.304 -2.5002  1.0689 -1.1679
  133MOL0     H18320   3.791   4.294   1.092 -0.8494  0.7247 -0.5981
  133MOL0     H18321   3.834   4.459   1.154  1.0974 -0.6853  1.2695
  133MOL0     H18322   3.922   4.212   1.290 -1.2869  0.1469 -1.0833
  133MOL0     H18323   3.952   4.383   1.344  1.0955  1.2912 -0.5507
  133MOL0     H18324   4.111   4.391   1.133 -0.6709 -0.7773 -0.2096
  133MOL0     H18325   4.045   4.245   1.087 -2.2244  0.8051  0.0454
  133MOL0     H18326   4.131   4.142   1.298  1.0829  1.6106  2.4744
  133MOL0     H18327   4.251   4.186   1.170 -0.8767  1.2366 -0.8886
  133MOL0     H18328   4.166   4.371   1.396  0.4250  1.0591 -0.9300
  133MOL0     H18329   4.314   4.373   1.312 -1.1024 -0.4412 -1.6988
  133MOL0     H18330   4.369   4.137   1.411  0.8767  1.5337 -1.4190
  133MOL0     H18331   4.229   4.147   1.518  2.3708 -4.2958 -0.2245
  133MOL0     H18332   4.402   4.239   1.662  0.2270 -1.6673 -0.7511
  133MOL0     H18333   4.353   4.384   1.581  2.5393  0.3113  0.3729
  133MOL0     H18334   3.390   4.608   1.175 -0.9288 -0.1000 -0.8272
  133MOL0     H18335   3.187   4.619   1.309  1.4920 -0.3042 -1.7886
  133MOL0     H18336   2.851   4.550   1.397 -2.3155 -0.9965 -0.8297
  133MOL0     H18337   2.620   4.481   1.450 -0.5427  1.4115  0.5265
  133MOL0     H18338   3.499   3.908   1.936  0.7455 -1.3586 -3.4825
  133MOL0     H18339   3.674   3.929   1.799 -1.4892  0.1109 -1.0524
  133MOL0     H18340   4.069   3.705   1.670 -0.3857 -0.8586 -3.2859
  133MOL0     H18341   4.271   3.706   1.545  1.0556  3.7605 -2.9499
  133MOL0     H18342   4.631   3.922   1.485 -0.5619  1.4512 -0.2881
  133MOL0     H18343   4.547   4.030   1.603 -3.0813 -0.7683  1.1574
  133MOL0     H18344   4.705   3.782   1.672  0.9148 -1.0626 -1.1456
  133MOL0     H18345   4.702   3.928   1.778  0.9244 -0.0925  0.3152
  133MOL0     H18346   4.914   3.922   1.710  0.0207  3.1070  0.3907
  133MOL0     H18347   4.865   3.892   1.535 -1.3925  0.3578 -1.0275
  133MOL0     H18348   4.799   4.125   1.519 -0.0442 -1.0017  0.5742
  133MOL0     H18349   4.961   4.124   1.595 -0.3127  1.2518 -1.1122
  133MOL0     H18350   4.732   4.267   1.915  0.2363  0.9621  0.0008
  133MOL0     H18351   4.444   3.998   1.799 -0.5865  1.1320 -0.5796
  133MOL0     H18352   4.202   3.976   2.076  2.8030  0.7751  1.7194
  133MOL0     H18353   4.346   4.053   2.017 -1.5279  3.6651 -0.2255
  133MOL0     H18354   4.189   4.120   1.971 -0.3111  0.6848  2.8984
  134MOL0     O18355   8.663  10.968   4.580  0.0854 -1.0124 -0.6689
  134MOL0     C18356   8.667  10.912   4.691 -0.1179 -0.7694  0.1491
  134MOL0     O18357   8.728  10.967   4.807 -0.2751  0.1690 -0.7272
  134MOL0     C18358   8.718  11.100   4.850  0.3880 -0.2050 -0.0082
  134MOL0     C18359   8.643  11.194   4.784 -0.8445 -0.4268  0.2955
  134MOL0     C18360   8.619  11.323   4.846 -0.5662  0.0298 -0.4864
  134MOL0     C18361   8.675  11.356   4.970 -0.1105 -0.4600 -0.4457
  134MOL0     O18362   8.633  11.479   5.021 -0.3019  1.2017  0.0147
  134MOL0     C18363   8.689  11.514   5.149 -0.5409 -0.0265 -0.3350
  134MOL0     C18364   8.615  11.448   5.260 -0.0855 -0.0334  1.3426
  134MOL0     C18365   8.694  11.445   5.394  0.4467  0.5675 -1.2225
  134MOL0     C18366   8.636  11.343   5.494  0.7283 -0.2339 -0.3567
  134MOL0     C18367   8.696  11.368   5.634 -0.3359 -0.2465  0.3839
  134MOL0     C18368   8.593  11.450   5.711  0.2892 -0.0895 -0.4456
  134MOL0     C18369   8.661  11.490   5.840  0.1200  0.0212  0.5245
  134MOL0     C18370   8.566  11.575   5.928 -0.0940 -0.1667  0.9921
  134MOL0     N18371   8.619  11.623   6.051 -0.0069  0.1111 -0.2519
  134MOL0     C18372   8.660  11.747   6.088 -0.7948  0.1183  0.3445
  134MOL0     C18373   8.688  11.744   6.222  0.1805  0.7443  0.4609
  134MOL0     C18374   8.728  11.858   6.311  0.0969  0.5940 -1.0636
  134MOL0     C18375   8.813  11.975   6.259  0.1259 -0.5064 -0.0612
  134MOL0     C18376   8.949  11.935   6.202 -0.1911  0.4220 -0.7635
  134MOL0     C18377   9.036  12.029   6.135 -0.7369 -0.6623 -1.0682
  134MOL0     O18378   9.149  11.948   6.098 -0.1416  0.2029  0.7566
  134MOL0     C18379   9.268  12.008   6.127  0.0366 -0.0985 -0.9408
  134MOL0     C18380   9.376  11.914   6.130  0.2959 -0.4930 -1.0874
  134MOL0     C18381   9.501  11.954   6.185  0.5397  0.2248 -0.0624
  134MOL0     C18382   9.603  11.850   6.213  0.8353 -0.1750 -1.1901
  134MOL0     C18383   9.524  12.093   6.214 -0.6848 -0.0695 -0.0541
  134MOL0     C18384   9.662  12.144   6.251  0.5763 -0.5033  0.8478
  134MOL0     O18385   9.782  12.084   6.215 -0.3710  0.1949  0.1019
  134MOL0     C18386   9.893  12.155   6.250 -0.4521  0.7838 -0.2520
  134MOL0     C18387   9.960  12.119   6.372 -0.4212  0.2935  0.2555
  134MOL0     C18388  10.057  12.207   6.418  0.3244 -0.1165  1.2378
  134MOL0     C18389  10.087  12.324   6.342  0.0808  0.9581 -0.1895
  134MOL0     O18390  10.182  12.404   6.397 -0.7876  0.3737  0.4295
  134MOL0     C18391  10.145  12.546   6.419  0.5806 -0.1890 -0.1260
  134MOL0     C18392  10.187  12.582   6.561  0.5914 -0.2384  0.0909
  134MOL0     C18393  10.349  12.589   6.575  1.3675 -0.6970  0.5154
  134MOL0     C18394  10.391  12.659   6.703  0.5056 -0.1926 -0.0941
  134MOL0     C18395  10.536  12.631   6.752  0.2496  1.2284  0.1411
  134MOL0     C18396  10.580  12.681   6.894  0.0632 -0.1811  0.2634
  134MOL0     C18397  10.523  12.600   7.010 -0.5725 -0.4978 -0.0664
  134MOL0     C18398  10.554  12.649   7.152 -0.3454 -0.3784 -0.0741
  134MOL0    Cl18399  10.739  12.640   7.175  0.1288  0.4812 -0.1561
  134MOL0     C18400  10.022  12.353   6.218  0.0181  0.0242  0.1832
  134MOL0     C18401   9.927  12.259   6.170 -0.1247  0.7399  0.5857
  134MOL0     O18402   9.656  12.256   6.311  0.1991 -0.1120 -0.3254
  134MOL0     C18403   9.412  12.185   6.211 -0.5251 -0.4772 -0.7616
  134MOL0     C18404   9.291  12.143   6.164 -0.4276  0.2555  0.4401
  134MOL0     N18405   8.688  11.616   6.263 -0.0711 -0.1740 -0.6826
  134MOL0     N18406   8.637  11.550   6.162 -0.7277  0.7668  0.1100
  134MOL0     C18407   8.759  11.252   5.027  0.2163  0.7382 -1.0363
  134MOL0     C18408   8.775  11.128   4.967 -0.3085  0.7874  0.0172
  134MOL0     C18409   8.623  10.775   4.718 -0.0244 -0.7967 -0.6034
  134MOL0     C18410   8.682  10.704   4.827  0.2136  0.0974  0.7010
  134MOL0     C18411   8.635  10.575   4.867 -0.9660 -0.5321 -0.5045
  134MOL0     C18412   8.543  10.509   4.787  0.1775 -0.3760 -0.3539
  134MOL0     O18413   8.481  10.394   4.833 -0.3773 -0.2374 -0.4039
  134MOL0     C18414   8.441  10.380   4.969  0.2765 -0.0222  0.8928
  134MOL0     C18415   8.391  10.236   4.992  1.1995  0.7148  0.0017
  134MOL0     C18416   8.270  10.194   4.913 -0.2145  0.6336  0.1075
  134MOL0     C18417   8.229  10.048   4.929  0.3485  0.9083  0.4927
  134MOL0     C18418   8.218   9.992   5.057 -0.3484  0.7003 -0.9419
  134MOL0     C18419   8.213   9.947   5.170  0.0595 -0.3017 -0.5672
  134MOL0     C18420   8.492  10.569   4.675 -0.0813  0.3253 -0.6845
  134MOL0     C18421   8.523  10.704   4.646 -0.6190 -0.1618 -0.1647
  134MOL0     C18422   8.455  10.772   4.532 -0.0757 -0.1408 -0.3586
  134MOL0     H18423   8.597  11.169   4.689 -2.3571 -1.9400  1.3710
  134MOL0     H18424   8.574  11.408   4.796 -0.9005  3.0347  4.3071
  134MOL0     H18425   8.688  11.621   5.168 -1.4005  0.7574 -4.0462
  134MOL0     H18426   8.794  11.487   5.162 -0.8131 -0.9586  0.0116
  134MOL0     H18427   8.519  11.499   5.272 -0.3984 -0.4967  0.8787
  134MOL0     H18428   8.597  11.344   5.231 -2.0963  0.9647 -1.5438
  134MOL0     H18429   8.799  11.422   5.379  0.5832  0.6098 -0.4057
  134MOL0     H18430   8.687  11.546   5.436 -2.1240 -0.2614  0.6016
  134MOL0     H18431   8.527  11.347   5.498  0.6252 -2.3603  0.8207
  134MOL0     H18432   8.666  11.244   5.458 -1.4632 -1.1187  0.0661
  134MOL0     H18433   8.796  11.412   5.627 -0.0780 -0.9577 -0.5982
  134MOL0     H18434   8.718  11.277   5.690  0.5208  0.3123  0.9692
  134MOL0     H18435   8.560  11.533   5.647 -1.6457  0.6854  1.4620
  134MOL0     H18436   8.507  11.391   5.743 -0.5707  0.3331 -1.8802
  134MOL0     H18437   8.738  11.559   5.804 -2.5282  1.1195 -3.6476
  134MOL0     H18438   8.704  11.410   5.902 -0.0186 -0.2371  0.2859
  134MOL0     H18439   8.533  11.656   5.863 -2.7428  0.1749  2.6069
  134MOL0     H18440   8.475  11.521   5.952 -0.9145  0.0244 -1.4510
  134MOL0     H18441   8.678  11.835   6.028  2.8662 -0.6118  0.1540
  134MOL0     H18442   8.767  11.817   6.404 -0.0982  2.0584 -0.2967
  134MOL0     H18443   8.625  11.893   6.324  0.3158  0.2519  2.2725
  134MOL0     H18444   8.747  12.036   6.197  0.8222 -1.2987 -1.6119
  134MOL0     H18445   8.831  12.039   6.346  0.5434 -2.1320  1.0934
  134MOL0     H18446   9.005  11.887   6.283 -0.7862  2.6227  1.0702
  134MOL0     H18447   8.932  11.848   6.137  0.2851  0.7879 -1.3942
  134MOL0     H18448   8.986  12.084   6.054  0.2266  0.3005 -1.0277
  134MOL0     H18449   9.056  12.104   6.212 -0.2938 -0.6109 -1.2297
  134MOL0     H18450   9.357  11.808   6.122 -0.6942 -0.4047 -0.0922
  134MOL0     H18451   9.559  11.750   6.220 -1.1275  0.6290 -1.3621
  134MOL0     H18452   9.646  11.862   6.313 -3.6808  0.3334  0.9264
  134MOL0     H18453   9.688  11.852   6.145  2.9202  1.7837  1.2433
  134MOL0     H18454   9.937  12.030   6.430  3.3233  0.7865  2.8946
  134MOL0     H18455  10.117  12.189   6.507  1.0510  0.1028  0.7937
  134MOL0     H18456  10.199  12.609   6.348 -0.0321  2.1695  1.4120
  134MOL0     H18457  10.040  12.565   6.393  0.1973  0.9081  2.0177
  134MOL0     H18458  10.138  12.674   6.593  1.7409  0.6083 -0.5239
  134MOL0     H18459  10.151  12.501   6.626 -2.4326 -0.5130 -1.7457
  134MOL0     H18460  10.405  12.637   6.494  1.7715  1.4694  2.0170
  134MOL0     H18461  10.382  12.484   6.576 -0.4538 -1.3343 -1.0948
  134MOL0     H18462  10.327  12.631   6.788  1.2545  0.6137  0.7476
  134MOL0     H18463  10.386  12.767   6.687  0.9765 -0.1023  0.3546
  134MOL0     H18464  10.552  12.522   6.747  2.0788  1.4361  0.5343
  134MOL0     H18465  10.609  12.668   6.679  0.8979 -0.9655 -0.4113
  134MOL0     H18466  10.549  12.786   6.898 -2.8435 -0.8563 -1.5191
  134MOL0     H18467  10.689  12.681   6.896  0.0783  0.4504 -0.2919
  134MOL0     H18468  10.568  12.501   6.993 -1.6352 -1.0445  0.1919
  134MOL0     H18469  10.415  12.593   6.993 -0.6103 -1.5249  0.4915
  134MOL0     H18470  10.503  12.588   7.228  0.9585  1.3329  2.3066
  134MOL0     H18471  10.521  12.753   7.161  2.3580  0.4356  1.4530
  134MOL0     H18472  10.034  12.444   6.160  1.2407 -1.2407 -1.6464
  134MOL0     H18473   9.887  12.277   6.071  2.1403 -0.3480 -0.6093
  134MOL0     H18474   9.436  12.288   6.232  3.4981 -1.2132 -0.8313
  134MOL0     H18475   9.220  12.223   6.146  1.7258  2.2095  0.0778
  134MOL0     H18476   8.807  11.258   5.125  0.4205  1.3063 -1.1666
  134MOL0     H18477   8.827  11.051   5.022 -0.3112  0.0200 -1.0153
  134MOL0     H18478   8.764  10.751   4.882  1.2334  0.0922 -0.7636
  134MOL0     H18479   8.693  10.539   4.951  0.6639  2.9098  0.0149
  134MOL0     H18480   8.529  10.403   5.030  1.7721 -2.1434 -0.3549
  134MOL0     H18481   8.363  10.456   4.981 -0.0464 -0.0846 -0.6891
  134MOL0     H18482   8.371  10.216   5.097  0.1163  0.1290 -0.3031
  134MOL0     H18483   8.468  10.164   4.964  0.7201  0.9124 -1.9780
  134MOL0     H18484   8.186  10.257   4.946 -0.7804 -1.5895  3.3760
  134MOL0     H18485   8.294  10.213   4.808 -0.9042 -1.3112 -0.4516
  134MOL0     H18486   8.305   9.982   4.887 -1.9644 -2.4408  1.1931
  134MOL0     H18487   8.134  10.028   4.879  0.2352  1.6031  0.4200
  134MOL0     H18488   8.208   9.897   5.265  0.2702  1.4630  0.4309
  134MOL0     H18489   8.410  10.528   4.617  0.2439  1.3609 -1.9193
  134MOL0     H18490   8.513  10.783   4.440 -0.2252  2.3868 -0.2090
  134MOL0     H18491   8.359  10.720   4.527  1.0372 -2.8341  2.3849
  134MOL0     H18492   8.424  10.873   4.559 -0.0089 -0.5956  1.6426
  135MOL0     O18493   7.852  11.056   9.641  0.5869 -0.4155 -0.0067
  135MOL0     C18494   7.796  10.948   9.640  0.0353 -0.4993 -0.3518
  135MOL0     O18495   7.865  10.833   9.673  0.5980  0.5298 -0.3140
  135MOL0     C18496   8.004  10.839   9.702  0.9189 -0.7664 -0.4849
  135MOL0     C18497   8.099  10.833   9.600  0.7601 -0.6219 -0.1740
  135MOL0     C18498   8.237  10.830   9.620  0.0198 -0.4733 -0.1864
  135MOL0     C18499   8.283  10.805   9.754 -0.0227 -0.0243 -0.8031
  135MOL0     O18500   8.418  10.782   9.785  0.0743 -0.4015  0.4381
  135MOL0     C18501   8.511  10.753   9.679 -0.0994 -0.1612 -0.5022
  135MOL0     C18502   8.612  10.655   9.743  0.4628 -0.5234  0.3877
  135MOL0     C18503   8.719  10.628   9.640 -0.1092 -0.3341 -0.1380
  135MOL0     C18504   8.826  10.526   9.681  0.6376 -0.0543 -0.3085
  135MOL0     C18505   8.918  10.516   9.566  0.3171  0.5646 -0.6475
  135MOL0     C18506   9.042  10.430   9.600 -0.4773 -0.0587 -0.0851
  135MOL0     C18507   9.017  10.293   9.664 -0.0465  0.2141 -0.9780
  135MOL0     C18508   8.926  10.206   9.585  0.0572  1.1938 -0.6623
  135MOL0     N18509   8.963  10.195   9.444  0.2174  0.2836 -0.7768
  135MOL0     C18510   9.088  10.148   9.400  0.0006 -0.2597  0.2424
  135MOL0     C18511   9.088  10.152   9.263  0.5969 -0.8377 -0.5841
  135MOL0     C18512   9.207  10.110   9.183  0.1404 -0.5663  0.3188
  135MOL0     C18513   9.166   9.960   9.154 -0.8340 -0.2368  0.3776
  135MOL0     C18514   9.284   9.867   9.093  0.1469 -1.1350 -1.0617
  135MOL0     C18515   9.337   9.921   8.961  0.7039 -0.2151  0.2089
  135MOL0     O18516   9.438   9.830   8.906  0.4270  0.0588 -0.7758
  135MOL0     C18517   9.555   9.881   8.852  0.2352  0.6648  0.7691
  135MOL0     C18518   9.574  10.014   8.820 -0.0905 -0.9270  1.2868
  135MOL0     C18519   9.702  10.063   8.772  0.1164 -0.5578 -0.6778
  135MOL0     C18520   9.704  10.215   8.755  0.3466 -0.0424  0.4469
  135MOL0     C18521   9.806   9.972   8.760 -0.5777  0.0411 -0.7606
  135MOL0     C18522   9.949  10.011   8.731  0.6166  0.0929  0.2089
  135MOL0     O18523  10.041   9.912   8.735 -0.0775  0.3891  0.2368
  135MOL0     C18524  10.176   9.935   8.730 -0.5316 -0.1045  1.0854
  135MOL0     C18525  10.251  10.046   8.780 -0.5483  0.2722 -0.0175
  135MOL0     C18526  10.384  10.053   8.773 -0.3582 -0.6158 -0.3213
  135MOL0     C18527  10.457   9.952   8.716 -0.0232  0.0127 -0.4471
  135MOL0     O18528  10.596   9.949   8.704 -0.3337  0.4122  0.0429
  135MOL0     C18529  10.675  10.006   8.815 -0.0528  0.9592  1.0574
  135MOL0     C18530  10.820   9.987   8.769  0.5576 -0.9841  0.0668
  135MOL0     C18531  10.908  10.087   8.858  0.6320  0.0602  0.6980
  135MOL0     C18532  11.038  10.025   8.901 -0.6441 -0.1273 -0.4722
  135MOL0     C18533  11.133  10.133   8.940 -0.4640 -0.0690  0.1781
  135MOL0     C18534  11.272  10.079   8.976  0.0270 -0.9372  0.1735
  135MOL0     C18535  11.379  10.196   9.000 -0.0163 -0.1488  0.0626
  135MOL0     C18536  11.527  10.167   8.978  0.3121 -0.3655 -0.1461
  135MOL0    Cl18537  11.572  10.177   8.811 -0.0892 -0.1672  0.4912
  135MOL0     C18538  10.388   9.841   8.658 -0.3395 -0.0152 -1.1219
  135MOL0     C18539  10.248   9.831   8.665 -0.6020 -0.1764  0.2421
  135MOL0     O18540   9.971  10.130   8.691 -0.2021  0.1733  0.0714
  135MOL0     C18541   9.784   9.836   8.787 -0.4223 -0.4296 -0.0674
  135MOL0     C18542   9.661   9.790   8.842  0.3354 -0.4235  0.7284
  135MOL0     N18543   8.966  10.205   9.229  0.0757 -0.3751  0.5728
  135MOL0     N18544   8.896  10.238   9.335  0.2198 -0.5846  0.3045
  135MOL0     C18545   8.189  10.811   9.861  0.0729  0.1226  0.7743
  135MOL0     C18546   8.056  10.840   9.837  0.0649 -0.5555 -0.0983
  135MOL0     C18547   7.639  10.944   9.628 -0.2387  0.8304  0.8425
  135MOL0     C18548   7.578  10.837   9.688 -0.9502  0.6749  0.4357
  135MOL0     C18549   7.438  10.831   9.702 -1.0767  0.2446 -0.2362
  135MOL0     C18550   7.365  10.940   9.656  0.1564  0.2877  0.0129
  135MOL0     O18551   7.223  10.925   9.648  0.2794 -1.0346 -0.3359
  135MOL0     C18552   7.141  11.041   9.679 -0.8645  0.1171 -0.5431
  135MOL0     C18553   6.992  11.012   9.654 -0.1827  0.0532 -0.0076
  135MOL0     C18554   6.967  11.018   9.506  0.0892 -0.0400 -0.1729
  135MOL0     C18555   6.827  10.966   9.462  0.1213  0.2449 -0.0618
  135MOL0     C18556   6.721  11.049   9.524 -0.2021 -0.7032  0.1556
  135MOL0     C18557   6.614  11.110   9.550 -0.8980 -0.1571 -0.6567
  135MOL0     C18558   7.429  11.053   9.587 -0.9202  0.5262 -0.8604
  135MOL0     C18559   7.565  11.048   9.572  0.4943 -0.2279 -0.6767
  135MOL0     C18560   7.633  11.170   9.507  1.2718 -0.2970  0.3270
  135MOL0     H18561   8.047  10.838   9.505 -2.1327 -3.4783  1.0948
  135MOL0     H18562   8.301  10.841   9.533  0.7821  2.8191  0.6754
  135MOL0     H18563   8.564  10.842   9.645  2.2405 -2.7848 -4.4854
  135MOL0     H18564   8.470  10.700   9.592  1.8188  1.7908 -2.7206
  135MOL0     H18565   8.651  10.723   9.819 -1.3259 -1.5655  2.3304
  135MOL0     H18566   8.568  10.565   9.788  0.2153 -0.3751  0.4434
  135MOL0     H18567   8.658  10.599   9.554 -1.4936  1.6376  0.1045
  135MOL0     H18568   8.770  10.724   9.624 -1.3787 -0.0138 -2.7028
  135MOL0     H18569   8.875  10.562   9.772  1.8694  1.0495 -1.3527
  135MOL0     H18570   8.775  10.432   9.703 -2.9061  2.0641  1.4078
  135MOL0     H18571   8.956  10.613   9.533 -1.7661  1.2835 -1.1264
  135MOL0     H18572   8.867  10.473   9.478 -1.8357  1.3344  0.1528
  135MOL0     H18573   9.096  10.415   9.506 -1.2433 -1.7533 -0.3031
  135MOL0     H18574   9.102  10.492   9.667 -0.3643  0.7335 -0.9048
  135MOL0     H18575   8.974  10.309   9.763  1.8856 -0.8536  0.0774
  135MOL0     H18576   9.115  10.246   9.678 -0.3240 -0.2573 -0.5835
  135MOL0     H18577   8.916  10.104   9.624 -0.7931  2.3017  2.2044
  135MOL0     H18578   8.822  10.238   9.595 -0.5267 -1.0940  1.8935
  135MOL0     H18579   9.162  10.108   9.468 -0.1805 -0.0254  0.5786
  135MOL0     H18580   9.305  10.125   9.229 -0.1164  0.7336  0.5058
  135MOL0     H18581   9.210  10.167   9.090  1.5539 -0.9797  0.0883
  135MOL0     H18582   9.135   9.899   9.239 -0.0307 -0.2793  0.6486
  135MOL0     H18583   9.085   9.975   9.082 -3.5238 -1.4113  2.9254
  135MOL0     H18584   9.364   9.870   9.167 -0.8992  0.1738  0.0572
  135MOL0     H18585   9.250   9.765   9.072 -0.3958 -0.9797 -0.9399
  135MOL0     H18586   9.258   9.905   8.887 -0.6852  1.7995  1.1423
  135MOL0     H18587   9.372  10.024   8.966  1.0292 -0.2080 -1.6357
  135MOL0     H18588   9.507  10.096   8.842 -0.6073  0.0012 -2.9038
  135MOL0     H18589   9.614  10.255   8.802  0.2039 -0.0553  0.1908
  135MOL0     H18590   9.709  10.251   8.652 -1.8408 -0.6997  0.0543
  135MOL0     H18591   9.789  10.263   8.805  0.5443 -0.4109  0.4703
  135MOL0     H18592  10.190  10.124   8.825  1.8538  2.2380  0.0513
  135MOL0     H18593  10.435  10.140   8.813  1.2324 -1.6537  0.0121
  135MOL0     H18594  10.654  10.112   8.830 -1.6337  0.5478  2.0502
  135MOL0     H18595  10.664   9.970   8.918  3.1787 -1.2961  0.7565
  135MOL0     H18596  10.850   9.884   8.786  0.9606 -1.0464 -0.9403
  135MOL0     H18597  10.824  10.019   8.664  0.5900  2.1187  0.9252
  135MOL0     H18598  10.854  10.116   8.948  0.0337  0.7252  0.1388
  135MOL0     H18599  10.927  10.184   8.811 -0.9206  1.6505  3.1236
  135MOL0     H18600  11.078   9.960   8.823 -2.9333 -2.9183  0.4670
  135MOL0     H18601  11.025   9.956   8.986 -1.4182  0.5559 -0.0204
  135MOL0     H18602  11.142  10.202   8.855 -1.8018  0.3415  0.3355
  135MOL0     H18603  11.083  10.186   9.022 -3.1197 -1.0251 -0.6889
  135MOL0     H18604  11.304  10.007   8.900 -2.2253 -5.0117  2.7190
  135MOL0     H18605  11.258  10.021   9.067  2.0017 -0.3415  0.8911
  135MOL0     H18606  11.358  10.236   9.099  1.5825 -1.3208  0.9147
  135MOL0     H18607  11.355  10.282   8.935 -3.9507 -0.3760  0.9692
  135MOL0     H18608  11.542  10.066   9.019 -0.6514 -1.3096 -2.0048
  135MOL0     H18609  11.584  10.240   9.037 -1.4297 -0.3029  1.5512
  135MOL0     H18610  10.449   9.766   8.610 -0.3050  0.4548 -1.8174
  135MOL0     H18611  10.194   9.746   8.623 -0.9500  0.7805 -1.3144
  135MOL0     H18612   9.862   9.760   8.783  0.5808  0.1857  3.7170
  135MOL0     H18613   9.639   9.685   8.853  1.0589 -0.8183 -1.1975
  135MOL0     H18614   8.215  10.771   9.958  0.6980 -0.2286  0.4743
  135MOL0     H18615   7.987  10.829   9.920  1.5108  0.1475  1.2390
  135MOL0     H18616   7.626  10.750   9.731 -1.5257  1.5385  3.0165
  135MOL0     H18617   7.401  10.743   9.753 -2.6818 -0.0352 -1.8031
  135MOL0     H18618   7.157  11.067   9.784 -2.5202 -3.9986  0.9419
  135MOL0     H18619   7.165  11.119   9.606  1.8468 -0.9502 -0.8960
  135MOL0     H18620   6.933  11.093   9.696  1.6714  1.9637 -0.8922
  135MOL0     H18621   6.966  10.915   9.697  0.7550 -0.2960 -0.1893
  135MOL0     H18622   6.989  11.120   9.475 -1.7722  1.6036  3.3840
  135MOL0     H18623   7.036  10.945   9.462  1.8780  0.6739  1.3198
  135MOL0     H18624   6.816  10.863   9.498 -2.0783  0.5854  0.4000
  135MOL0     H18625   6.822  10.975   9.353 -2.1574  0.1952 -0.0181
  135MOL0     H18626   6.533  11.180   9.559 -1.0899 -0.5952  1.7654
  135MOL0     H18627   7.370  11.138   9.554 -1.8087  0.0496 -0.5345
  135MOL0     H18628   7.561  11.229   9.451  3.0399  2.6326  0.9081
  135MOL0     H18629   7.674  11.243   9.578  0.5419  2.1472 -1.6379
  135MOL0     H18630   7.711  11.137   9.438  1.6528  2.8157 -0.9279
  136MOL0     O18631  10.831   9.146   0.801 -0.0982  0.2142  0.2941
  136MOL0     C18632  10.720   9.101   0.832 -0.4398 -0.5105  0.1487
  136MOL0     O18633  10.698   8.969   0.868 -0.0244  0.1561  0.2861
  136MOL0     C18634  10.797   8.881   0.882 -0.3220  0.3865  0.0031
  136MOL0     C18635  10.878   8.818   0.779 -0.0910  0.6811 -1.3532
  136MOL0     C18636  10.998   8.745   0.816 -0.0053  0.7231 -0.1904
  136MOL0     C18637  11.038   8.740   0.952 -0.1374 -0.1638  0.0894
  136MOL0     O18638  11.162   8.690   0.986  0.2311 -0.2416  0.5383
  136MOL0     C18639  11.213   8.690   1.121  0.0539  0.4677 -0.1489
  136MOL0     C18640  11.343   8.612   1.130 -0.7664 -0.5064  0.1378
  136MOL0     C18641  11.442   8.626   1.008 -0.2607 -0.2542 -0.4870
  136MOL0     C18642  11.476   8.768   0.970  0.4915  0.0636  0.7705
  136MOL0     C18643  11.581   8.769   0.858  0.2008  0.6358 -0.3960
  136MOL0     C18644  11.575   8.895   0.771  0.2640  0.1139 -0.4409
  136MOL0     C18645  11.457   8.875   0.672  0.2441 -0.6527  1.1987
  136MOL0     C18646  11.449   8.991   0.573 -0.0374  1.0592 -0.5492
  136MOL0     N18647  11.396   9.107   0.642  0.2444 -0.9756  0.8711
  136MOL0     C18648  11.260   9.148   0.646 -0.1964 -0.9966  0.2281
  136MOL0     C18649  11.253   9.270   0.694 -0.6074  0.2189 -0.5980
  136MOL0     C18650  11.136   9.360   0.694  0.9298  0.1514 -0.1544
  136MOL0     C18651  11.106   9.422   0.546  0.1563 -0.4646 -0.8302
  136MOL0     C18652  11.027   9.330   0.451 -0.3860 -0.2501 -0.3664
  136MOL0     C18653  10.883   9.300   0.497 -1.3852  0.4088  0.0578
  136MOL0     O18654  10.799   9.244   0.401 -0.4403  0.7499  0.8062
  136MOL0     C18655  10.675   9.231   0.440  0.7066 -0.1395  0.1024
  136MOL0     C18656  10.641   9.120   0.514 -0.0156 -1.1151 -0.7816
  136MOL0     C18657  10.502   9.096   0.544 -0.0678 -0.3149  0.9092
  136MOL0     C18658  10.475   8.962   0.609 -0.3221  0.0107 -0.9376
  136MOL0     C18659  10.403   9.185   0.496 -0.9054 -0.2133  0.2735
  136MOL0     C18660  10.261   9.187   0.541 -0.0870  0.3507 -0.6626
  136MOL0     O18661  10.189   9.292   0.490  0.6484 -0.2905  0.7842
  136MOL0     C18662  10.051   9.288   0.526 -0.9376 -0.0293  0.2511
  136MOL0     C18663  10.006   9.337   0.649  0.1575 -0.0319 -1.1586
  136MOL0     C18664   9.872   9.335   0.681 -0.0133 -0.8089  0.7274
  136MOL0     C18665   9.784   9.294   0.580  0.7127 -0.1380  0.6716
  136MOL0     O18666   9.655   9.269   0.612  0.7667  0.2461 -0.7689
  136MOL0     C18667   9.613   9.287   0.755  0.4315  0.5821  0.5400
  136MOL0     C18668   9.463   9.238   0.781 -0.5350 -0.0174 -0.0883
  136MOL0     C18669   9.362   9.264   0.663 -0.2069 -0.1584 -0.2256
  136MOL0     C18670   9.223   9.214   0.695 -0.0732  0.0506 -0.4995
  136MOL0     C18671   9.124   9.258   0.587  0.2475 -0.1612  0.4864
  136MOL0     C18672   8.979   9.206   0.617 -0.7115  0.1717 -0.3883
  136MOL0     C18673   8.899   9.209   0.487  0.8697  0.3435 -0.2132
  136MOL0     C18674   8.760   9.147   0.519 -0.8398  0.5201 -0.5653
  136MOL0    Cl18675   8.669   9.235   0.655 -0.4612  0.5089  0.5162
  136MOL0     C18676   9.829   9.245   0.454  0.1646  0.7239  0.0032
  136MOL0     C18677   9.962   9.247   0.427  0.6756 -0.4701  0.6910
  136MOL0     O18678  10.215   9.106   0.621 -0.7038 -0.2414  0.4166
  136MOL0     C18679  10.447   9.301   0.416  0.1520 -0.6450  0.5186
  136MOL0     C18680  10.577   9.321   0.392 -0.1570 -0.3530 -0.5246
  136MOL0     N18681  11.387   9.296   0.729 -0.4235  0.4984  0.7985
  136MOL0     N18682  11.467   9.204   0.703 -0.1703  0.8433 -0.1270
  136MOL0     C18683  10.948   8.776   1.048  0.2872  0.1816 -0.3710
  136MOL0     C18684  10.831   8.844   1.013  0.5850 -0.0683 -0.3985
  136MOL0     C18685  10.601   9.186   0.828 -0.2679 -0.7484  0.4215
  136MOL0     C18686  10.621   9.311   0.761  0.1071 -0.3486 -0.6391
  136MOL0     C18687  10.516   9.403   0.763  0.4023  0.2943 -0.1802
  136MOL0     C18688  10.392   9.383   0.841 -0.2905  0.2887  0.0262
  136MOL0     O18689  10.291   9.464   0.872 -0.5635 -0.3189 -0.7276
  136MOL0     C18690  10.284   9.595   0.808  0.8611  0.5258  0.3056
  136MOL0     C18691  10.138   9.646   0.834 -0.3536 -0.2014  0.4318
  136MOL0     C18692  10.115   9.791   0.782  0.0804 -0.0110  0.3503
  136MOL0     C18693  10.077   9.796   0.632 -0.2055  0.9093 -0.0149
  136MOL0     C18694   9.943   9.735   0.615  0.6453  0.9000 -0.9326
  136MOL0     C18695   9.828   9.697   0.605  0.5835 -0.3370  0.0920
  136MOL0     C18696  10.386   9.258   0.912  0.0927  0.2666  0.3923
  136MOL0     C18697  10.490   9.163   0.912 -0.2041 -1.4725 -0.0994
  136MOL0     C18698  10.470   9.052   1.019 -0.6615  0.3628  0.5906
  136MOL0     H18699  10.864   8.843   0.674  1.6451  0.5789 -1.6448
  136MOL0     H18700  11.049   8.715   0.725 -1.7537  0.9192 -1.2698
  136MOL0     H18701  11.138   8.645   1.186  0.4933 -0.2657 -0.1367
  136MOL0     H18702  11.237   8.789   1.159  2.2094 -0.7333  1.8850
  136MOL0     H18703  11.397   8.656   1.215  1.3536 -0.2606 -1.2711
  136MOL0     H18704  11.339   8.506   1.156 -0.2188 -1.5147 -3.4683
  136MOL0     H18705  11.527   8.563   1.034 -1.0497 -1.3859 -0.5777
  136MOL0     H18706  11.397   8.576   0.922 -0.5885 -2.9812  1.1387
  136MOL0     H18707  11.390   8.827   0.937  0.2227 -1.8335 -2.3623
  136MOL0     H18708  11.501   8.828   1.058 -0.6554  1.3520  0.2599
  136MOL0     H18709  11.571   8.684   0.791  0.3440  1.3036 -1.2893
  136MOL0     H18710  11.674   8.770   0.916  0.3441  1.0623 -0.6231
  136MOL0     H18711  11.558   8.980   0.838 -0.5328 -1.3558  1.3488
  136MOL0     H18712  11.664   8.925   0.716 -0.2200  1.8751 -0.3014
  136MOL0     H18713  11.361   8.859   0.722 -0.1648 -0.9654  0.3400
  136MOL0     H18714  11.481   8.783   0.618  0.1249 -1.3200  2.2577
  136MOL0     H18715  11.550   9.013   0.539  0.6384 -1.5639 -0.4763
  136MOL0     H18716  11.393   8.964   0.483  0.5985 -2.2680 -0.0825
  136MOL0     H18717  11.179   9.086   0.608 -0.4341 -0.2706 -0.4664
  136MOL0     H18718  11.165   9.447   0.755 -1.7424 -0.2784  1.9323
  136MOL0     H18719  11.039   9.322   0.728  0.7671 -0.0392 -0.8338
  136MOL0     H18720  11.054   9.518   0.542 -0.1514 -0.6443 -1.2148
  136MOL0     H18721  11.205   9.445   0.506  0.0386  3.3609  0.6540
  136MOL0     H18722  11.010   9.372   0.352 -2.1579  0.6620  0.2775
  136MOL0     H18723  11.093   9.242   0.444  0.9898  0.7032  0.2357
  136MOL0     H18724  10.893   9.232   0.582  2.6345  1.0341  0.3047
  136MOL0     H18725  10.838   9.396   0.526 -1.0027  1.6326 -3.0389
  136MOL0     H18726  10.718   9.057   0.559  0.4011  1.1069  1.8816
  136MOL0     H18727  10.465   8.973   0.718  2.6475 -2.2556 -0.3088
  136MOL0     H18728  10.549   8.885   0.587  1.0065  0.9713 -0.0229
  136MOL0     H18729  10.376   8.928   0.579 -1.3497 -0.2568  2.3579
  136MOL0     H18730  10.079   9.361   0.725 -0.1195  1.5229 -1.3502
  136MOL0     H18731   9.855   9.383   0.777  2.7093  0.7039  0.5569
  136MOL0     H18732   9.680   9.222   0.812  1.5591 -3.0121 -4.1911
  136MOL0     H18733   9.632   9.387   0.794  0.1002  0.8005  0.1447
  136MOL0     H18734   9.456   9.132   0.806 -0.0839  0.0230  0.2233
  136MOL0     H18735   9.422   9.281   0.873  0.0132  1.6892 -0.6069
  136MOL0     H18736   9.389   9.210   0.572  2.8296  0.1906  0.3308
  136MOL0     H18737   9.367   9.372   0.642  3.4072 -0.4781 -1.8085
  136MOL0     H18738   9.203   9.259   0.792  0.7863  2.4548 -1.3698
  136MOL0     H18739   9.224   9.104   0.702  1.7972 -0.0477 -1.5890
  136MOL0     H18740   9.116   9.367   0.582  0.1535  0.0520  3.5290
  136MOL0     H18741   9.146   9.216   0.488 -1.9193  2.5821 -1.2931
  136MOL0     H18742   8.924   9.270   0.686  0.0563 -0.6774  1.0530
  136MOL0     H18743   9.001   9.111   0.666 -1.3083  1.5791  2.8281
  136MOL0     H18744   8.940   9.140   0.412 -2.4493 -2.8017  0.5363
  136MOL0     H18745   8.891   9.303   0.433 -0.1464  0.3774 -0.0310
  136MOL0     H18746   8.774   9.044   0.554 -1.8026  0.8722  0.9738
  136MOL0     H18747   8.698   9.152   0.429  1.1882  2.2203 -1.9471
  136MOL0     H18748   9.746   9.219   0.389 -0.7142 -0.3378  1.4926
  136MOL0     H18749   9.986   9.208   0.328  0.0259 -0.3987  0.5030
  136MOL0     H18750  10.383   9.382   0.383 -0.9354 -1.5052  0.4536
  136MOL0     H18751  10.605   9.399   0.321  0.0447 -0.2829 -0.3666
  136MOL0     H18752  10.966   8.757   1.154  0.1567  0.0916 -0.3652
  136MOL0     H18753  10.760   8.873   1.090  0.6066 -2.1162  0.4736
  136MOL0     H18754  10.714   9.333   0.709 -0.0912 -1.1859 -1.3803
  136MOL0     H18755  10.516   9.495   0.706  2.1818  0.2794 -0.2522
  136MOL0     H18756  10.350   9.671   0.849 -3.7417  5.3237 -0.1145
  136MOL0     H18757  10.301   9.589   0.700 -1.3000  2.6980 -0.2527
  136MOL0     H18758  10.124   9.640   0.942  1.3388  0.8993  0.7486
  136MOL0     H18759  10.076   9.573   0.780 -0.1985  0.7586 -1.1050
  136MOL0     H18760  10.031   9.835   0.837  0.2910  0.2990  0.4305
  136MOL0     H18761  10.201   9.856   0.801  0.8154 -0.9335  0.2401
  136MOL0     H18762  10.143   9.738   0.567 -4.6472 -2.3384 -2.1401
  136MOL0     H18763  10.069   9.900   0.597  0.1194  0.9190 -0.0677
  136MOL0     H18764   9.727   9.663   0.591  1.0363 -1.8656  0.3421
  136MOL0     H18765  10.302   9.229   0.974  0.2106  0.8177  0.8155
  136MOL0     H18766  10.565   9.007   1.051 -0.0830  0.6675 -0.6236
  136MOL0     H18767  10.408   9.080   1.105 -2.0924  0.8636 -0.5713
  136MOL0     H18768  10.414   8.970   0.974  1.1049 -1.1572  1.0508
  137MOL0     O18769   8.266   3.330  10.125  0.6197  0.2519 -0.6484
  137MOL0     C18770   8.284   3.385  10.013 -0.6351  0.2140 -0.6975
  137MOL0     O18771   8.402   3.439   9.973  0.5123 -0.5197  0.5587
  137MOL0     C18772   8.498   3.476  10.060  0.8055  0.5467 -0.9408
  137MOL0     C18773   8.492   3.603  10.108 -0.6885 -0.3673  0.0359
  137MOL0     C18774   8.600   3.648  10.191 -0.4348 -0.2048  0.3570
  137MOL0     C18775   8.700   3.566  10.235  1.3390 -0.2347 -0.2100
  137MOL0     O18776   8.786   3.618  10.330 -0.0576 -0.2795 -0.1293
  137MOL0     C18777   8.822   3.518  10.431 -0.7754 -0.9669  0.8448
  137MOL0     C18778   8.882   3.593  10.547  0.2616 -0.2058 -0.0254
  137MOL0     C18779   8.779   3.683  10.617  0.5384 -0.1077 -0.1323
  137MOL0     C18780   8.844   3.797  10.694 -0.8084 -0.0255 -0.4289
  137MOL0     C18781   8.750   3.860  10.790 -0.1050 -0.6264 -0.3648
  137MOL0     C18782   8.796   3.995  10.852 -0.0994  0.1601  0.9425
  137MOL0     C18783   8.806   4.118  10.756  0.3240 -0.0302  0.5081
  137MOL0     C18784   8.839   4.254  10.823  0.3503 -0.4943 -0.2879
  137MOL0     N18785   8.948   4.264  10.921 -0.4104 -0.0794 -0.0913
  137MOL0     C18786   8.936   4.260  11.059  0.3175  0.3130  0.2582
  137MOL0     C18787   9.060   4.257  11.101  1.2337  0.0341  0.7169
  137MOL0     C18788   9.090   4.259  11.252  0.4207 -0.4013 -0.3495
  137MOL0     C18789   9.125   4.415  11.301 -0.2095  0.1705 -0.5555
  137MOL0     C18790   9.216   4.393  11.420 -0.9537 -0.3202 -0.3414
  137MOL0     C18791   9.249   4.523  11.488 -0.4451  0.2718 -0.1313
  137MOL0     O18792   9.354   4.496  11.586 -0.2330  0.0073  0.1977
  137MOL0     C18793   9.488   4.495  11.545 -0.6625  0.4045  1.0062
  137MOL0     C18794   9.539   4.527  11.418 -0.3149  0.4573 -0.1757
  137MOL0     C18795   9.681   4.535  11.404  1.1327  0.2037 -0.1708
  137MOL0     C18796   9.721   4.595  11.276 -0.6002 -0.6746  0.0481
  137MOL0     C18797   9.767   4.500  11.510 -0.2621  0.4097  0.2045
  137MOL0     C18798   9.921   4.506  11.502  0.7013 -0.0023  1.1915
  137MOL0     O18799   9.984   4.468  11.615 -0.1355 -0.7616  0.8096
  137MOL0     C18800  10.109   4.410  11.585  0.0512  0.8731  0.5512
  137MOL0     C18801  10.113   4.268  11.572 -0.8250  0.1426 -0.7005
  137MOL0     C18802  10.237   4.203  11.563 -0.7073  1.0636  0.2235
  137MOL0     C18803  10.361   4.270  11.566  0.4609  0.7756 -0.9277
  137MOL0     O18804  10.477   4.210  11.545  0.3720 -0.2046 -0.2985
  137MOL0     C18805  10.494   4.074  11.594 -0.0649  0.2734 -0.2688
  137MOL0     C18806  10.635   4.074  11.642 -0.3572 -0.3783  0.3441
  137MOL0     C18807  10.691   3.938  11.684 -0.6856 -0.6580  0.4253
  137MOL0     C18808  10.740   3.945  11.829 -0.2747  0.5890  0.0797
  137MOL0     C18809  10.840   3.834  11.862 -0.2993  0.1212  0.0543
  137MOL0     C18810  10.987   3.875  11.859 -0.1520 -0.0689 -0.2926
  137MOL0     C18811  11.093   3.773  11.868 -0.4266 -0.3264  0.1882
  137MOL0     C18812  11.220   3.853  11.883  0.0508  0.5577  0.3045
  137MOL0    Cl18813  11.237   3.955  12.035  0.7121 -0.1779 -0.0916
  137MOL0     C18814  10.350   4.408  11.585  0.3697 -0.1328  0.5009
  137MOL0     C18815  10.231   4.478  11.598  1.1029 -0.0369  0.0818
  137MOL0     O18816   9.983   4.543  11.399  0.2830  0.1385  0.6488
  137MOL0     C18817   9.715   4.464  11.631  0.1023  0.8071 -0.3389
  137MOL0     C18818   9.570   4.468  11.653  0.2904 -0.5524  0.4227
  137MOL0     N18819   9.145   4.247  10.995 -0.0028  0.5248  0.3734
  137MOL0     N18820   9.070   4.249  10.889  0.0637  0.0291  0.0525
  137MOL0     C18821   8.709   3.435  10.178  1.2064 -0.0564  0.6376
  137MOL0     C18822   8.603   3.391  10.091 -0.5618 -0.2303 -0.0929
  137MOL0     C18823   8.189   3.362   9.901 -0.1613 -0.3660  0.3954
  137MOL0     C18824   8.225   3.323   9.758 -0.1804  0.3325 -0.2617
  137MOL0     C18825   8.120   3.309   9.668 -0.0707 -0.1293  0.4171
  137MOL0     C18826   7.985   3.321   9.709 -1.1513  0.2034  0.3601
  137MOL0     O18827   7.891   3.280   9.619  0.0692  0.6857  0.4438
  137MOL0     C18828   7.762   3.244   9.662 -0.1771 -0.0871  0.7736
  137MOL0     C18829   7.671   3.246   9.536  0.0028 -1.0521  0.0838
  137MOL0     C18830   7.527   3.199   9.544  0.5772  0.1545  0.2000
  137MOL0     C18831   7.429   3.276   9.636 -0.4053  0.8408 -0.2886
  137MOL0     C18832   7.457   3.258   9.782  0.0797  0.7371 -0.3813
  137MOL0     C18833   7.485   3.248   9.899  0.1216 -0.3113 -0.2679
  137MOL0     C18834   7.957   3.353   9.842  0.7383  0.1547  0.3643
  137MOL0     C18835   8.055   3.382   9.933  0.3571 -0.5556 -1.2771
  137MOL0     C18836   8.007   3.442  10.061  0.2334  0.2864 -0.4898
  137MOL0     H18837   8.419   3.678  10.081 -1.1610 -0.4182  1.0938
  137MOL0     H18838   8.608   3.748  10.234  3.3102 -0.7296  1.1794
  137MOL0     H18839   8.904   3.453  10.398 -0.2499  0.1637 -0.1663
  137MOL0     H18840   8.739   3.453  10.461 -1.2626 -0.6882  0.1288
  137MOL0     H18841   8.917   3.517  10.617 -1.0066  1.0358  2.0428
  137MOL0     H18842   8.967   3.653  10.513  0.2987  0.2154  0.7868
  137MOL0     H18843   8.714   3.719  10.537  1.3855  1.3154 -0.2228
  137MOL0     H18844   8.718   3.619  10.680 -1.6261  0.5214 -1.5006
  137MOL0     H18845   8.936   3.764  10.743  0.2144  2.8574 -0.1993
  137MOL0     H18846   8.866   3.876  10.622 -1.5084 -0.9296 -1.6862
  137MOL0     H18847   8.738   3.796  10.878 -1.3935 -0.0750 -0.1194
  137MOL0     H18848   8.655   3.884  10.740  0.7337  3.3249 -0.4137
  137MOL0     H18849   8.731   4.013  10.938 -2.7364 -2.3848 -0.3613
  137MOL0     H18850   8.889   3.963  10.900 -1.7483 -1.0058  3.5923
  137MOL0     H18851   8.713   4.138  10.701  1.8786 -1.3034 -2.8694
  137MOL0     H18852   8.871   4.099  10.670 -1.9486 -0.7371 -1.1894
  137MOL0     H18853   8.861   4.328  10.746  1.5892  0.9139  1.3314
  137MOL0     H18854   8.749   4.297  10.867  1.6955  0.1329  2.0805
  137MOL0     H18855   8.851   4.277  11.125 -1.3061 -0.1085 -1.6162
  137MOL0     H18856   9.172   4.191  11.280 -1.9159 -1.5222  4.9867
  137MOL0     H18857   9.005   4.224  11.311  1.2432 -0.6685  0.7297
  137MOL0     H18858   9.183   4.464  11.223 -0.0754 -1.5030 -1.5536
  137MOL0     H18859   9.029   4.458  11.329 -0.5635 -0.5406 -0.6400
  137MOL0     H18860   9.176   4.326  11.496  1.0870  1.4041  2.4500
  137MOL0     H18861   9.314   4.366  11.378  0.7533  0.2621  2.9430
  137MOL0     H18862   9.278   4.606  11.422  0.5535  1.6955  2.0053
  137MOL0     H18863   9.155   4.551  11.537  0.7978 -0.8721  3.1691
  137MOL0     H18864   9.483   4.558  11.330 -0.3312 -0.7100 -0.5859
  137MOL0     H18865   9.639   4.650  11.229 -1.3948 -0.1785  1.9313
  137MOL0     H18866   9.757   4.522  11.203 -1.3042 -0.2876 -0.7056
  137MOL0     H18867   9.797   4.672  11.294 -0.8876 -0.5162  0.5861
  137MOL0     H18868  10.018   4.215  11.563 -0.5914 -0.8271  1.7515
  137MOL0     H18869  10.236   4.095  11.553  2.7651  0.8363  0.8467
  137MOL0     H18870  10.423   4.048  11.673 -0.0425 -1.5920 -0.8107
  137MOL0     H18871  10.468   4.013  11.507 -0.2492  0.4512 -0.3384
  137MOL0     H18872  10.696   4.122  11.565  0.8704 -0.5093  1.1919
  137MOL0     H18873  10.639   4.146  11.725 -0.5040 -2.0058  1.8134
  137MOL0     H18874  10.775   3.902  11.623  0.1721  0.6156  0.8260
  137MOL0     H18875  10.618   3.856  11.683 -1.3269 -0.3192  4.2211
  137MOL0     H18876  10.652   3.945  11.893  0.8365 -1.7287  1.7647
  137MOL0     H18877  10.787   4.041  11.857  2.3865 -1.3070  2.8187
  137MOL0     H18878  10.824   3.800  11.965 -0.1751  1.2838  0.4756
  137MOL0     H18879  10.819   3.747  11.799  0.5948  0.6046 -0.9521
  137MOL0     H18880  10.998   3.947  11.941 -0.0261 -0.2492 -0.1521
  137MOL0     H18881  11.002   3.932  11.767 -5.0266  3.8272  0.8894
  137MOL0     H18882  11.096   3.705  11.782 -1.1934 -2.0457  1.4704
  137MOL0     H18883  11.074   3.715  11.959 -0.7905 -1.8707 -0.8396
  137MOL0     H18884  11.237   3.913  11.793  0.0650  0.5021  0.2703
  137MOL0     H18885  11.305   3.786  11.899 -0.6810 -0.0832  1.6282
  137MOL0     H18886  10.440   4.468  11.592  0.3376 -0.2340  1.9734
  137MOL0     H18887  10.229   4.580  11.636  2.4297 -0.4487  1.3356
  137MOL0     H18888   9.775   4.440  11.718 -0.7048  0.1012  0.0477
  137MOL0     H18889   9.520   4.450  11.748 -0.0563 -0.4239  0.2657
  137MOL0     H18890   8.797   3.372  10.182  3.5728  2.9122 -0.8454
  137MOL0     H18891   8.607   3.288  10.058  1.6969 -1.2706  2.9915
  137MOL0     H18892   8.331   3.324   9.736  0.2199 -0.2295  1.5114
  137MOL0     H18893   8.142   3.284   9.565  3.2508  1.3977  0.6533
  137MOL0     H18894   7.764   3.148   9.713  1.4256  0.1328  1.1881
  137MOL0     H18895   7.712   3.306   9.738 -2.3977 -0.8073 -0.0422
  137MOL0     H18896   7.711   3.171   9.467 -1.8904 -0.3568 -1.8707
  137MOL0     H18897   7.670   3.348   9.498  1.0983  0.1684  3.0149
  137MOL0     H18898   7.491   3.204   9.441 -0.7235 -0.1404  0.6228
  137MOL0     H18899   7.525   3.094   9.574  4.1858 -0.2406 -0.4233
  137MOL0     H18900   7.333   3.226   9.624  1.0033 -1.4448 -3.6981
  137MOL0     H18901   7.410   3.378   9.600  0.7550  1.4412  0.7379
  137MOL0     H18902   7.513   3.233  10.002 -2.0356  0.4785  0.4811
  137MOL0     H18903   7.856   3.351   9.882  0.2553 -0.7011 -0.8312
  137MOL0     H18904   7.978   3.376  10.143 -2.9091  3.9142  1.6994
  137MOL0     H18905   8.082   3.514  10.096  1.4092 -1.0541 -0.1532
  137MOL0     H18906   7.920   3.506  10.042  0.5818  0.8343 -0.2669
  138MOL0     O18907   8.547  10.230   3.829  1.2255  0.6879 -0.0188
  138MOL0     C18908   8.504  10.193   3.715 -0.0589  0.3387 -0.8393
  138MOL0     O18909   8.500  10.071   3.662 -0.2680  0.5087 -0.1543
  138MOL0     C18910   8.549   9.967   3.726 -0.7497  0.3656 -0.2927
  138MOL0     C18911   8.514   9.925   3.852  0.0677 -0.7907  0.4389
  138MOL0     C18912   8.579   9.820   3.912 -0.2550  0.2372  0.1717
  138MOL0     C18913   8.680   9.747   3.844  0.0702 -1.0528  0.8183
  138MOL0     O18914   8.734   9.625   3.882  0.6635 -0.9583 -0.5530
  138MOL0     C18915   8.663   9.558   3.982  0.0097  0.5917  0.8363
  138MOL0     C18916   8.690   9.413   3.985 -0.1466  0.6485 -1.0727
  138MOL0     C18917   8.840   9.385   3.964 -0.7062 -0.2725 -0.3011
  138MOL0     C18918   8.866   9.228   3.992 -0.1950 -0.1775 -0.2819
  138MOL0     C18919   9.012   9.187   3.991 -0.2591 -0.1721  0.3373
  138MOL0     C18920   9.013   9.036   3.976 -0.1542  0.7065  0.0835
  138MOL0     C18921   9.163   8.985   3.986  0.0499  0.0308  0.1070
  138MOL0     C18922   9.214   8.996   4.128 -0.8079 -0.3535 -0.0244
  138MOL0     N18923   9.359   8.975   4.125  0.4156  0.2476 -0.3119
  138MOL0     C18924   9.459   9.066   4.115 -0.0906  0.5574  0.4718
  138MOL0     C18925   9.570   8.989   4.114 -0.4145  0.6347  0.9487
  138MOL0     C18926   9.707   9.039   4.093  0.0863 -0.2518 -0.7115
  138MOL0     C18927   9.814   8.930   4.113  0.0222 -0.4229 -0.1003
  138MOL0     C18928   9.947   8.985   4.075 -0.5309  0.1992  0.1167
  138MOL0     C18929  10.011   9.096   4.168  1.8389  0.2904 -0.4206
  138MOL0     O18930  10.076   9.045   4.286  0.0132  0.3829  0.7752
  138MOL0     C18931  10.215   9.054   4.272 -0.4810  1.1523  0.7266
  138MOL0     C18932  10.289   9.098   4.380 -0.2239  0.3442  1.0103
  138MOL0     C18933  10.428   9.113   4.381 -0.8489 -0.3239 -0.6209
  138MOL0     C18934  10.481   9.187   4.501  0.9527 -1.0767 -0.3018
  138MOL0     C18935  10.511   9.055   4.277  0.0708 -0.4571 -1.2237
  138MOL0     C18936  10.663   9.038   4.286  0.5182  0.6893  0.6311
  138MOL0     O18937  10.725   8.976   4.171 -0.2601 -0.0887  0.6580
  138MOL0     C18938  10.847   9.027   4.145 -0.3171  0.0005 -0.3720
  138MOL0     C18939  10.875   9.167   4.138 -0.0769  0.1412 -0.4895
  138MOL0     C18940  11.004   9.207   4.115 -0.8454 -0.7204 -0.3034
  138MOL0     C18941  11.111   9.110   4.096  0.2944  0.2880 -0.5358
  138MOL0     O18942  11.241   9.132   4.079 -1.0146  0.1653 -0.4712
  138MOL0     C18943  11.283   9.268   4.079  0.2531  0.2019  0.2869
  138MOL0     C18944  11.436   9.254   4.115  0.0107 -0.0844  0.0264
  138MOL0     C18945  11.504   9.393   4.105  0.6438  0.3711 -0.0779
  138MOL0     C18946  11.657   9.397   4.133 -0.4864 -0.2810  0.4304
  138MOL0     C18947  11.706   9.550   4.101 -0.6595  0.0034 -1.1667
  138MOL0     C18948  11.821   9.592   4.192  0.2675  0.0293  0.6969
  138MOL0     C18949  11.867   9.735   4.171  0.2249  0.0714 -0.5533
  138MOL0     C18950  12.004   9.759   4.234  0.4530  0.2532  0.0717
  138MOL0    Cl18951  12.136   9.671   4.146  0.0857 -0.0828 -0.7137
  138MOL0     C18952  11.076   8.978   4.089  0.0696 -0.5106  0.5216
  138MOL0     C18953  10.950   8.941   4.122  1.0007  0.0005  0.2574
  138MOL0     O18954  10.718   9.073   4.389  0.4605 -0.1036  0.0149
  138MOL0     C18955  10.435   9.009   4.168 -0.1222  1.0702  0.5912
  138MOL0     C18956  10.298   9.014   4.160  0.1323 -0.7926 -0.1940
  138MOL0     N18957   9.539   8.855   4.128  0.4607  0.1434  0.4607
  138MOL0     N18958   9.406   8.843   4.134  0.0754  0.2752  0.3330
  138MOL0     C18959   8.714   9.790   3.714  0.5168  0.0631  0.3496
  138MOL0     C18960   8.648   9.898   3.653 -0.0841  0.4861 -0.4249
  138MOL0     C18961   8.449  10.295   3.620  0.9985  0.4347  0.3999
  138MOL0     C18962   8.435  10.254   3.482 -0.5741  0.2943 -0.0483
  138MOL0     C18963   8.372  10.336   3.390  0.6028 -0.2825  0.0933
  138MOL0     C18964   8.334  10.463   3.427 -0.6293  0.6626  0.7016
  138MOL0     O18965   8.278  10.548   3.342 -0.3779 -0.6207  0.5350
  138MOL0     C18966   8.138  10.515   3.313  0.1783  0.6147  0.0663
  138MOL0     C18967   8.083  10.606   3.209  0.1399 -0.6753 -0.0705
  138MOL0     C18968   8.070  10.750   3.262 -0.0405 -0.1276  0.7504
  138MOL0     C18969   8.047  10.837   3.138 -0.3028  0.0086 -0.2431
  138MOL0     C18970   7.916  10.804   3.069 -0.0734  0.2684 -0.3364
  138MOL0     C18971   7.827  10.747   3.012 -0.3952  0.2687  0.3431
  138MOL0     C18972   8.347  10.503   3.562 -0.6481 -0.1765  0.7822
  138MOL0     C18973   8.396  10.421   3.662 -0.4921 -0.1404 -0.3800
  138MOL0     C18974   8.388  10.467   3.808 -0.1199 -0.1483 -0.0428
  138MOL0     H18975   8.440   9.982   3.907 -0.2167  0.8582 -1.4983
  138MOL0     H18976   8.551   9.799   4.015 -2.4127 -0.4114 -0.4880
  138MOL0     H18977   8.556   9.573   3.967  0.1381  0.1260 -0.7185
  138MOL0     H18978   8.696   9.604   4.076 -0.1654  0.8643  0.7648
  138MOL0     H18979   8.657   9.372   4.081  2.7500 -1.5984 -0.8689
  138MOL0     H18980   8.636   9.356   3.909 -0.7871 -3.8189  2.2928
  138MOL0     H18981   8.876   9.413   3.864  0.1258 -1.8953 -0.4828
  138MOL0     H18982   8.897   9.444   4.037 -0.4070 -1.0549  0.1058
  138MOL0     H18983   8.835   9.204   4.094 -2.3708 -1.2685 -1.1452
  138MOL0     H18984   8.818   9.171   3.912  2.5957  1.2443 -3.1802
  138MOL0     H18985   9.061   9.226   4.081 -2.6786  1.1553  1.1731
  138MOL0     H18986   9.056   9.237   3.905 -0.1211 -0.6756  0.1142
  138MOL0     H18987   8.956   8.994   4.060 -1.5441  1.5534 -0.4037
  138MOL0     H18988   8.970   9.001   3.882 -2.7218  0.1722  1.3689
  138MOL0     H18989   9.227   9.047   3.924 -0.4329 -0.5417 -0.9934
  138MOL0     H18990   9.172   8.880   3.956  0.2801  0.2414 -0.5816
  138MOL0     H18991   9.195   9.100   4.156  0.1576  0.0793 -0.8833
  138MOL0     H18992   9.167   8.922   4.193  2.3876 -1.1671  1.5798
  138MOL0     H18993   9.444   9.173   4.119 -2.0988  0.2779  1.4638
  138MOL0     H18994   9.726   9.111   4.173  1.6615 -1.6514  0.2404
  138MOL0     H18995   9.728   9.093   4.001 -0.1162 -0.9990 -1.2136
  138MOL0     H18996   9.823   8.905   4.219 -0.1437  1.5580  0.4274
  138MOL0     H18997   9.797   8.835   4.062 -1.2746 -0.6234  0.6558
  138MOL0     H18998  10.020   8.904   4.070 -1.3971 -0.5312 -3.1696
  138MOL0     H18999   9.936   9.020   3.972 -1.5777 -0.3713  0.0196
  138MOL0     H19000  10.070   9.164   4.106  1.3511 -1.6173 -3.1583
  138MOL0     H19001   9.928   9.161   4.198  1.7711  1.6673 -3.2244
  138MOL0     H19002  10.231   9.126   4.467 -3.3218 -1.3390 -0.3402
  138MOL0     H19003  10.575   9.237   4.474  2.0831 -3.3170 -0.8094
  138MOL0     H19004  10.512   9.107   4.569  5.5813 -1.5694 -2.6073
  138MOL0     H19005  10.405   9.255   4.540  1.3712 -0.8055  0.0548
  138MOL0     H19006  10.794   9.239   4.151 -0.5057 -0.2302 -1.0517
  138MOL0     H19007  11.037   9.309   4.128 -0.6673 -0.4881 -2.3311
  138MOL0     H19008  11.251   9.308   3.982 -0.6439  1.1441  0.9507
  138MOL0     H19009  11.245   9.337   4.155  1.1189  1.3856 -0.3208
  138MOL0     H19010  11.451   9.204   4.211  1.9780 -2.0919 -1.2271
  138MOL0     H19011  11.489   9.197   4.038 -0.4374 -0.5280  0.0450
  138MOL0     H19012  11.466   9.456   4.186  1.4757  1.1679 -0.2808
  138MOL0     H19013  11.470   9.436   4.010 -1.2651  0.7216  0.7183
  138MOL0     H19014  11.715   9.318   4.085 -1.2356 -1.8922  2.0751
  138MOL0     H19015  11.686   9.375   4.236  0.6744 -1.2598 -0.0892
  138MOL0     H19016  11.722   9.572   3.995 -1.6050  2.4745 -0.8558
  138MOL0     H19017  11.619   9.606   4.138 -1.5959 -2.6889  1.0494
  138MOL0     H19018  11.901   9.517   4.187  2.1824  2.0121  0.5381
  138MOL0     H19019  11.782   9.592   4.295  1.8282  2.2600  1.3544
  138MOL0     H19020  11.794   9.806   4.211  0.8587 -0.1344  1.0462
  138MOL0     H19021  11.881   9.747   4.064 -1.8136 -1.6591 -1.0906
  138MOL0     H19022  11.995   9.735   4.341 -0.6575  1.8037  0.3586
  138MOL0     H19023  12.025   9.867   4.236  2.1414  0.0682 -2.4824
  138MOL0     H19024  11.140   8.891   4.080 -1.5827 -1.9168  1.6687
  138MOL0     H19025  10.938   8.833   4.120  2.5871 -0.2076 -2.7695
  138MOL0     H19026  10.492   8.969   4.084  1.1450 -0.0122  1.9252
  138MOL0     H19027  10.250   8.977   4.070 -1.8298 -2.5350  1.4737
  138MOL0     H19028   8.782   9.726   3.658  0.3497 -0.6595  0.9498
  138MOL0     H19029   8.665   9.935   3.553  3.5252  1.5553  0.4260
  138MOL0     H19030   8.461  10.158   3.438 -2.8332 -0.3593 -0.0509
  138MOL0     H19031   8.343  10.302   3.291 -0.7487 -1.0999  0.7391
  138MOL0     H19032   8.119  10.409   3.293 -0.6613  0.6129  0.7731
  138MOL0     H19033   8.080  10.526   3.405 -1.8323 -0.3789 -1.0245
  138MOL0     H19034   7.977  10.582   3.196 -0.4708  2.0664 -0.8346
  138MOL0     H19035   8.136  10.601   3.113 -2.2300  2.0624 -1.7052
  138MOL0     H19036   7.976  10.767   3.315  0.5119  1.8112  1.1915
  138MOL0     H19037   8.156  10.776   3.324 -0.0185  1.3826  0.1391
  138MOL0     H19038   8.137  10.824   3.077 -0.2778 -2.1743  0.1656
  138MOL0     H19039   8.046  10.940   3.174 -3.6429  0.6349 -1.7633
  138MOL0     H19040   7.743  10.692   2.974 -0.6664  1.3158 -0.6430
  138MOL0     H19041   8.305  10.601   3.583  1.9924  2.2034 -3.5484
  138MOL0     H19042   8.484  10.470   3.860 -0.4690  2.2653  0.5732
  138MOL0     H19043   8.367  10.574   3.813 -0.3588 -0.1193 -1.1930
  138MOL0     H19044   8.313  10.409   3.862 -0.2473  1.6604  1.8347
  139MOL0     O19045   8.126   8.153   8.454 -0.5017  0.4014  0.1289
  139MOL0     C19046   8.171   8.039   8.475  1.2596  0.4996  0.0918
  139MOL0     O19047   8.301   8.010   8.512  0.0115 -0.2865 -0.1369
  139MOL0     C19048   8.388   8.109   8.558  0.2364 -0.2508 -0.3609
  139MOL0     C19049   8.521   8.075   8.581 -0.1571 -0.0921  0.5808
  139MOL0     C19050   8.617   8.164   8.635  0.2859 -0.9061  0.5150
  139MOL0     C19051   8.575   8.290   8.678  0.1251 -0.1553 -0.5688
  139MOL0     O19052   8.678   8.382   8.704  0.1806 -0.3352 -0.4120
  139MOL0     C19053   8.649   8.506   8.766 -0.4266  0.2608  0.5255
  139MOL0     C19054   8.785   8.573   8.795 -0.1469 -0.0309  0.5812
  139MOL0     C19055   8.853   8.486   8.907  0.3934 -0.3204  0.0973
  139MOL0     C19056   8.978   8.561   8.949  0.9749 -0.6029 -0.0794
  139MOL0     C19057   9.053   8.477   9.054  0.0879 -0.8465 -0.4071
  139MOL0     C19058   9.007   8.508   9.196  0.2333 -0.4322  0.2242
  139MOL0     C19059   8.909   8.405   9.253  0.9471  0.0543 -0.0726
  139MOL0     C19060   8.793   8.460   9.345 -0.0638  0.0898 -0.2781
  139MOL0     N19061   8.700   8.546   9.272  0.3697  0.8218  0.2278
  139MOL0     C19062   8.710   8.678   9.255  0.4914 -0.6971  0.6187
  139MOL0     C19063   8.597   8.716   9.191 -0.3583  0.1719  0.1876
  139MOL0     C19064   8.561   8.850   9.138  0.3718  1.3175 -0.0568
  139MOL0     C19065   8.412   8.888   9.164  0.1775  0.2085 -0.1353
  139MOL0     C19066   8.375   9.025   9.138 -0.1659  0.1190  0.3291
  139MOL0     C19067   8.338   9.046   8.996 -0.3678 -1.0373  0.2381
  139MOL0     O19068   8.291   9.181   8.982  0.0370 -0.5813  0.1339
  139MOL0     C19069   8.153   9.204   8.993  0.4061  0.1177 -0.2668
  139MOL0     C19070   8.056   9.124   9.074  0.4010 -0.5362  0.3260
  139MOL0     C19071   7.918   9.153   9.070 -1.8440 -0.0866 -0.0904
  139MOL0     C19072   7.832   9.078   9.175  0.4744 -0.1331  0.1204
  139MOL0     C19073   7.868   9.252   8.981  0.5866  0.2134 -0.5791
  139MOL0     C19074   7.720   9.291   8.988  0.1996 -0.7835 -0.7977
  139MOL0     O19075   7.668   9.348   8.872 -0.7316  0.3019 -0.2414
  139MOL0     C19076   7.534   9.359   8.871  0.3547 -0.0763  0.3490
  139MOL0     C19077   7.461   9.245   8.835  0.3610  0.5949  0.3845
  139MOL0     C19078   7.323   9.260   8.837  0.0907 -0.3428  0.3707
  139MOL0     C19079   7.254   9.375   8.864  0.3274 -0.8374  0.7297
  139MOL0     O19080   7.127   9.396   8.841  0.0722  0.1443  0.5307
  139MOL0     C19081   7.023   9.314   8.890 -0.4955  0.2334  0.0356
  139MOL0     C19082   6.986   9.212   8.786 -0.0523 -0.9004  0.1229
  139MOL0     C19083   6.843   9.179   8.772  0.6846 -0.2976  0.5881
  139MOL0     C19084   6.820   9.087   8.637 -0.4021 -0.2033  0.0056
  139MOL0     C19085   6.676   9.070   8.602  1.4682 -0.3310  0.3690
  139MOL0     C19086   6.607   8.974   8.688 -0.0630 -0.6835 -0.1518
  139MOL0     C19087   6.462   8.954   8.640  1.0569 -0.2042  0.1698
  139MOL0     C19088   6.390   8.870   8.750  0.1549 -0.0933 -0.0100
  139MOL0    Cl19089   6.216   8.889   8.736  0.2016 -0.2027 -0.1701
  139MOL0     C19090   7.327   9.483   8.904  0.6333  0.9251  0.3658
  139MOL0     C19091   7.469   9.469   8.919  0.4246  0.3491 -0.2321
  139MOL0     O19092   7.647   9.272   9.086  0.5271  0.2565  0.3602
  139MOL0     C19093   7.961   9.320   8.894 -0.8149  0.3941 -0.4586
  139MOL0     C19094   8.092   9.290   8.906 -0.0233  0.5695  0.1443
  139MOL0     N19095   8.521   8.605   9.158  0.1315 -0.6034 -0.0181
  139MOL0     N19096   8.594   8.500   9.195  0.3035  0.7332 -0.2445
  139MOL0     C19097   8.445   8.331   8.668 -0.4935  0.8052  0.4263
  139MOL0     C19098   8.354   8.246   8.606 -0.3107 -0.8843  0.4116
  139MOL0     C19099   8.063   7.926   8.454 -0.1483  0.0676  0.3929
  139MOL0     C19100   8.112   7.801   8.469 -0.8782 -0.6448 -0.5907
  139MOL0     C19101   8.036   7.688   8.443 -0.6569  0.4829  0.1042
  139MOL0     C19102   7.897   7.707   8.421 -0.4239  0.1840  0.1849
  139MOL0     O19103   7.817   7.593   8.406 -0.3930 -0.4890 -0.6592
  139MOL0     C19104   7.820   7.541   8.280  0.1188 -1.4107 -0.3136
  139MOL0     C19105   7.686   7.477   8.246  0.0200 -0.1587 -0.5746
  139MOL0     C19106   7.560   7.570   8.265  0.3603 -0.6100 -0.4174
  139MOL0     C19107   7.429   7.493   8.294  0.8617  0.1443 -0.2936
  139MOL0     C19108   7.308   7.577   8.269 -0.1452  0.2466  0.1414
  139MOL0     C19109   7.211   7.641   8.237  0.5845  1.3452 -0.0215
  139MOL0     C19110   7.844   7.833   8.400  0.6939  0.2138  0.4765
  139MOL0     C19111   7.930   7.947   8.409  0.0287  0.1480  0.3136
  139MOL0     C19112   7.870   8.085   8.366 -0.3254  0.6805  0.7129
  139MOL0     H19113   8.560   7.979   8.548  0.5644 -0.5434  2.6323
  139MOL0     H19114   8.722   8.142   8.651  0.2912 -0.0908  1.7330
  139MOL0     H19115   8.587   8.480   8.852 -2.3789  1.2828 -0.4973
  139MOL0     H19116   8.597   8.576   8.699  2.1410 -0.1774 -2.1730
  139MOL0     H19117   8.845   8.586   8.704  1.3725 -0.2230  1.5124
  139MOL0     H19118   8.763   8.671   8.841 -0.0006 -0.2874  1.2143
  139MOL0     H19119   8.782   8.487   8.990 -3.1412  0.0083 -2.6977
  139MOL0     H19120   8.865   8.381   8.881 -3.7622 -0.8511 -0.3491
  139MOL0     H19121   9.045   8.555   8.862  1.2292 -4.1804  0.1919
  139MOL0     H19122   8.962   8.663   8.985  0.9020  0.1527 -2.0875
  139MOL0     H19123   9.160   8.495   9.048 -0.2777  1.2248 -1.8574
  139MOL0     H19124   9.039   8.369   9.039 -0.7677 -1.0162  1.3343
  139MOL0     H19125   9.091   8.522   9.265  0.4354 -4.0837  0.9098
  139MOL0     H19126   8.938   8.593   9.195 -2.3558 -2.3901 -0.7483
  139MOL0     H19127   8.970   8.341   9.317  2.4298  0.8797 -0.6057
  139MOL0     H19128   8.867   8.354   9.166  1.9900  0.2240 -0.6841
  139MOL0     H19129   8.744   8.372   9.386  3.5284 -0.2538  4.0951
  139MOL0     H19130   8.820   8.515   9.436 -0.3722  0.4434 -0.3988
  139MOL0     H19131   8.792   8.745   9.279 -0.0890 -0.0047  0.6891
  139MOL0     H19132   8.580   8.861   9.031 -1.1689  2.3615 -0.2531
  139MOL0     H19133   8.634   8.918   9.184 -1.0231  2.1144  1.0575
  139MOL0     H19134   8.358   8.825   9.092 -1.4534  1.3329  0.0433
  139MOL0     H19135   8.402   8.865   9.270  4.9885 -2.4819  0.0250
  139MOL0     H19136   8.296   9.050   9.210  0.3953 -0.9818  1.3599
  139MOL0     H19137   8.463   9.083   9.166 -0.6993  1.6698 -1.0286
  139MOL0     H19138   8.432   9.038   8.940  0.5663 -0.0763  1.6250
  139MOL0     H19139   8.271   8.973   8.949  0.6826 -0.9775 -1.4416
  139MOL0     H19140   8.097   9.047   9.138  1.0226 -1.4062 -1.0756
  139MOL0     H19141   7.748   9.033   9.120 -0.1002  2.9878 -1.8181
  139MOL0     H19142   7.813   9.151   9.255  1.1934  1.0959 -0.7984
  139MOL0     H19143   7.880   8.990   9.218 -1.9985 -0.0063  3.5677
  139MOL0     H19144   7.500   9.145   8.818 -1.5855 -0.1172 -0.1265
  139MOL0     H19145   7.260   9.177   8.807 -2.3027  1.1716  0.8903
  139MOL0     H19146   7.048   9.261   8.982 -4.2096  0.0272  1.0761
  139MOL0     H19147   6.935   9.376   8.909 -1.7874 -0.0542 -4.0016
  139MOL0     H19148   7.013   9.255   8.689 -0.6269  1.4492  0.9468
  139MOL0     H19149   7.028   9.113   8.803 -0.8684 -1.4691 -0.9879
  139MOL0     H19150   6.785   9.272   8.761  0.2426 -0.7659 -1.4870
  139MOL0     H19151   6.797   9.124   8.855  0.6476 -1.4883 -0.1935
  139MOL0     H19152   6.863   8.987   8.641 -0.6506 -0.3054  0.1899
  139MOL0     H19153   6.869   9.141   8.555  0.8950  0.7333  1.3430
  139MOL0     H19154   6.626   9.167   8.611  1.7051  0.0015 -1.5752
  139MOL0     H19155   6.683   9.037   8.498  0.9703 -0.2421  0.3030
  139MOL0     H19156   6.604   9.015   8.790 -1.4497 -0.5858 -0.2209
  139MOL0     H19157   6.653   8.875   8.689 -1.0206 -1.1428 -0.6392
  139MOL0     H19158   6.468   8.889   8.552  1.0084 -1.1678  0.8618
  139MOL0     H19159   6.414   9.046   8.605  1.2051  0.4177  1.5527
  139MOL0     H19160   6.415   8.927   8.840 -1.3153  0.5132  0.0401
  139MOL0     H19161   6.415   8.764   8.744  1.2478  0.2281 -2.0562
  139MOL0     H19162   7.284   9.580   8.925 -0.9680  0.4483 -0.5731
  139MOL0     H19163   7.510   9.561   8.960  2.5030 -0.4336 -0.4474
  139MOL0     H19164   7.940   9.396   8.818  3.4688 -0.2370 -2.5905
  139MOL0     H19165   8.157   9.342   8.836 -0.8658  2.7651  0.9251
  139MOL0     H19166   8.414   8.419   8.724 -3.3798 -0.3036  0.7480
  139MOL0     H19167   8.251   8.280   8.610  0.0547  0.2990  0.0954
  139MOL0     H19168   8.219   7.788   8.484 -0.6519 -0.6477 -2.0515
  139MOL0     H19169   8.079   7.588   8.446 -0.7725  0.4151 -0.3626
  139MOL0     H19170   7.835   7.628   8.215  2.3793  1.3305  3.4408
  139MOL0     H19171   7.909   7.477   8.276  0.4757 -0.8840 -1.0484
  139MOL0     H19172   7.679   7.389   8.311  3.3974  0.6788  1.1788
  139MOL0     H19173   7.685   7.443   8.143  2.6552 -1.5854 -0.2310
  139MOL0     H19174   7.578   7.634   8.352 -1.9285 -1.9355  1.1491
  139MOL0     H19175   7.550   7.621   8.169  2.0744  0.0425 -0.2831
  139MOL0     H19176   7.418   7.459   8.397 -1.0553 -2.8465 -1.3619
  139MOL0     H19177   7.424   7.411   8.222  0.9407 -2.2376  2.2521
  139MOL0     H19178   7.132   7.706   8.204 -1.0739 -0.6325 -0.1105
  139MOL0     H19179   7.738   7.838   8.376  0.7776 -2.7333 -0.9383
  139MOL0     H19180   7.766   8.071   8.336 -0.8999  1.0713  2.4124
  139MOL0     H19181   7.865   8.141   8.460  0.9804 -0.4075  1.4628
  139MOL0     H19182   7.929   8.133   8.287 -0.1155  0.9786  1.0503
  140MOL0     O19183   6.268   1.332   9.097  0.3954 -0.1930 -0.3823
  140MOL0     C19184   6.254   1.455   9.071  0.3467 -0.9575  0.2688
  140MOL0     O19185   6.349   1.552   9.105 -0.2315 -0.2188  0.1552
  140MOL0     C19186   6.477   1.505   9.127 -0.3753  0.3867 -0.3416
  140MOL0     C19187   6.575   1.497   9.023 -0.2231 -0.1802  0.6425
  140MOL0     C19188   6.708   1.445   9.042  0.0749 -1.0023  0.1713
  140MOL0     C19189   6.743   1.409   9.168 -0.8879 -0.3835 -0.7163
  140MOL0     O19190   6.871   1.357   9.186  0.1375 -0.2629  0.3930
  140MOL0     C19191   6.882   1.266   9.294 -0.3823 -0.2014 -1.1194
  140MOL0     C19192   7.017   1.210   9.308  0.3333 -0.2208 -0.0244
  140MOL0     C19193   7.123   1.325   9.334  0.0309  0.7729 -1.5461
  140MOL0     C19194   7.256   1.267   9.384  0.0850  0.7773  0.5678
  140MOL0     C19195   7.360   1.368   9.437 -0.0468 -0.2146  0.3956
  140MOL0     C19196   7.397   1.481   9.333  0.3607  0.6416 -0.7371
  140MOL0     C19197   7.464   1.437   9.198 -0.4182  0.2975  0.0379
  140MOL0     C19198   7.597   1.370   9.216 -0.1045  0.9374  0.6307
  140MOL0     N19199   7.649   1.323   9.084  0.5617  0.4467  0.9194
  140MOL0     C19200   7.674   1.403   8.974  0.2351  0.2044 -0.5247
  140MOL0     C19201   7.717   1.310   8.878  0.0658  0.0883 -0.3183
  140MOL0     C19202   7.781   1.355   8.744  0.1681 -0.7728  1.0262
  140MOL0     C19203   7.926   1.298   8.706 -0.0329 -0.7117 -0.1443
  140MOL0     C19204   8.027   1.364   8.806  0.3232  0.8170  0.0596
  140MOL0     C19205   8.164   1.297   8.781 -0.8328 -0.4763 -0.7681
  140MOL0     O19206   8.235   1.337   8.911  0.1176  0.1851 -0.4111
  140MOL0     C19207   8.367   1.348   8.906  1.0290  0.1305  0.3315
  140MOL0     C19208   8.415   1.410   9.027  0.7724 -0.0422  0.0661
  140MOL0     C19209   8.550   1.438   9.044 -0.0027 -0.5589  1.1637
  140MOL0     C19210   8.591   1.525   9.158 -0.5900  0.7949 -0.4423
  140MOL0     C19211   8.644   1.378   8.954 -0.3852 -0.7194  0.7071
  140MOL0     C19212   8.789   1.386   8.973 -0.7603 -0.1972 -0.8844
  140MOL0     O19213   8.860   1.489   9.041  0.5444 -0.0480  0.1375
  140MOL0     C19214   8.977   1.451   9.103  0.6706 -0.9547 -0.5486
  140MOL0     C19215   8.979   1.376   9.222  0.0350  1.0386  0.6546
  140MOL0     C19216   9.100   1.342   9.279 -0.3115 -0.7760  0.5972
  140MOL0     C19217   9.224   1.386   9.221  0.4061 -0.1716 -1.1864
  140MOL0     O19218   9.335   1.330   9.279 -0.4095 -0.7952  0.0698
  140MOL0     C19219   9.443   1.316   9.186 -0.0426 -0.2109 -0.4740
  140MOL0     C19220   9.563   1.244   9.251 -0.2515 -0.0653  0.8904
  140MOL0     C19221   9.683   1.271   9.161 -0.5511  0.1342  0.0863
  140MOL0     C19222   9.801   1.175   9.199 -0.5123 -0.0906 -0.5771
  140MOL0     C19223   9.906   1.198   9.091  0.6158 -0.6684 -0.2023
  140MOL0     C19224  10.019   1.091   9.104  0.3815 -0.5760 -0.9547
  140MOL0     C19225  10.111   1.098   8.980 -1.0721  0.6148  0.7205
  140MOL0     C19226  10.153   0.965   8.923 -0.0074 -0.0141  0.9386
  140MOL0    Cl19227  10.219   0.974   8.750  0.4863  0.3632 -0.1147
  140MOL0     C19228   9.218   1.466   9.106 -0.0393 -0.3481 -0.1348
  140MOL0     C19229   9.093   1.494   9.048  0.2854 -0.3977 -0.6902
  140MOL0     O19230   8.839   1.280   8.935 -0.0479 -0.9153  0.9072
  140MOL0     C19231   8.593   1.313   8.837  0.2834  0.8150  0.5813
  140MOL0     C19232   8.461   1.296   8.813  0.0459 -0.5370 -0.5861
  140MOL0     N19233   7.718   1.185   8.925  0.1787 -0.0958 -0.0466
  140MOL0     N19234   7.668   1.189   9.049 -0.0406 -0.2240  0.3854
  140MOL0     C19235   6.648   1.415   9.271 -0.2301 -0.4079  0.1430
  140MOL0     C19236   6.512   1.452   9.244 -1.1413 -0.5434 -0.5648
  140MOL0     C19237   6.121   1.508   9.033 -0.7819  0.1477  0.2926
  140MOL0     C19238   6.012   1.456   9.107  0.4973 -0.2662  0.2710
  140MOL0     C19239   5.879   1.506   9.081 -0.6510  0.3699 -0.2237
  140MOL0     C19240   5.862   1.590   8.979 -0.5617 -0.0464 -0.2179
  140MOL0     O19241   5.739   1.627   8.927  0.2943 -0.4518  0.3467
  140MOL0     C19242   5.634   1.535   8.943  0.2736  0.5943 -0.1051
  140MOL0     C19243   5.511   1.579   8.864 -0.7994 -0.0281 -0.4014
  140MOL0     C19244   5.384   1.513   8.914 -0.2750  0.6681 -0.1402
  140MOL0     C19245   5.263   1.604   8.875 -0.3443 -0.3074 -0.1221
  140MOL0     C19246   5.144   1.529   8.907  0.4307 -1.2357  0.3574
  140MOL0     C19247   5.038   1.471   8.916 -0.0028 -0.1884 -0.2578
  140MOL0     C19248   5.976   1.644   8.910  0.2600 -0.2403 -0.1236
  140MOL0     C19249   6.107   1.607   8.933 -0.0540  0.5436  1.1038
  140MOL0     C19250   6.221   1.670   8.858  0.8530  0.0809  0.1898
  140MOL0     H19251   6.536   1.534   8.928  0.5770  1.5857  0.9627
  140MOL0     H19252   6.785   1.440   8.965 -0.5944  3.6198 -1.1327
  140MOL0     H19253   6.814   1.182   9.283 -1.3028  0.1175  1.4572
  140MOL0     H19254   6.860   1.311   9.391 -0.9329  1.7440 -2.0778
  140MOL0     H19255   7.010   1.135   9.387 -2.0189 -1.3767 -1.2073
  140MOL0     H19256   7.040   1.155   9.217 -1.4842  2.3728 -2.2271
  140MOL0     H19257   7.131   1.384   9.242  1.1128  2.1970 -0.5864
  140MOL0     H19258   7.089   1.387   9.417  0.4520 -2.1870  1.0080
  140MOL0     H19259   7.232   1.197   9.465 -0.7213  0.5244  0.1189
  140MOL0     H19260   7.293   1.201   9.305 -0.3180  2.5869 -1.1869
  140MOL0     H19261   7.453   1.317   9.466  0.9356  1.2840 -0.0326
  140MOL0     H19262   7.317   1.403   9.531 -1.9470  0.1378 -0.5461
  140MOL0     H19263   7.306   1.539   9.314  1.4532  2.7918  0.1801
  140MOL0     H19264   7.476   1.540   9.381  2.5069 -3.8243  1.8287
  140MOL0     H19265   7.478   1.528   9.139 -1.5667 -2.4006 -4.9325
  140MOL0     H19266   7.402   1.372   9.137  1.2804  1.1176 -2.7209
  140MOL0     H19267   7.667   1.432   9.272  1.6585  0.2790 -0.7390
  140MOL0     H19268   7.599   1.274   9.268  4.8397 -1.2750 -2.7445
  140MOL0     H19269   7.679   1.512   8.976  1.9317  0.1711 -1.2869
  140MOL0     H19270   7.787   1.464   8.744 -6.2243  0.0081  3.9194
  140MOL0     H19271   7.704   1.344   8.667  3.3768  0.8036 -2.7638
  140MOL0     H19272   7.926   1.188   8.709  0.7999 -0.8034 -2.0549
  140MOL0     H19273   7.964   1.319   8.606  1.2042 -0.5021  0.3426
  140MOL0     H19274   8.039   1.466   8.770 -0.9636  1.0630  0.2829
  140MOL0     H19275   8.003   1.356   8.912  1.0815 -1.2816  0.1221
  140MOL0     H19276   8.157   1.189   8.767 -0.0035 -1.0423  2.3924
  140MOL0     H19277   8.217   1.341   8.697  0.5032  1.9823  1.2131
  140MOL0     H19278   8.346   1.438   9.106  1.7266  1.0972  0.5371
  140MOL0     H19279   8.614   1.632   9.148 -0.1654  0.7880  0.3329
  140MOL0     H19280   8.671   1.470   9.209  1.8821  1.3375 -3.3870
  140MOL0     H19281   8.504   1.533   9.224  0.8655 -0.9243  1.8429
  140MOL0     H19282   8.888   1.350   9.274 -1.5106 -0.1501 -2.4450
  140MOL0     H19283   9.114   1.277   9.365  1.1048  0.3410  1.2503
  140MOL0     H19284   9.407   1.254   9.104 -2.0531  1.8228 -1.2524
  140MOL0     H19285   9.478   1.410   9.142  0.5094 -0.3288 -0.2976
  140MOL0     H19286   9.592   1.290   9.346 -1.2880  0.1311  1.1298
  140MOL0     H19287   9.529   1.140   9.259 -1.4527  0.2165 -0.0817
  140MOL0     H19288   9.710   1.375   9.179 -0.1314 -0.6017  5.3040
  140MOL0     H19289   9.657   1.262   9.055  0.2187 -2.7194  0.0462
  140MOL0     H19290   9.768   1.073   9.180 -1.4228  0.6172 -3.1424
  140MOL0     H19291   9.834   1.181   9.303 -1.6604 -4.1162  0.1940
  140MOL0     H19292   9.856   1.189   8.994 -0.5296  0.3733  0.2642
  140MOL0     H19293   9.953   1.296   9.096 -3.2957  1.5343 -1.8691
  140MOL0     H19294   9.962   0.998   9.110 -0.5750  0.0390  0.0364
  140MOL0     H19295  10.077   1.105   9.195  1.0582  2.0435 -1.7118
  140MOL0     H19296  10.206   1.144   9.009  1.7197 -2.0919 -3.1751
  140MOL0     H19297  10.061   1.155   8.902 -0.6638  0.8763  0.6468
  140MOL0     H19298  10.069   0.895   8.920 -0.9113  1.0153 -2.8470
  140MOL0     H19299  10.229   0.918   8.987 -1.2787 -0.7551  1.9610
  140MOL0     H19300   9.305   1.513   9.061 -1.7927  1.5488 -1.7466
  140MOL0     H19301   9.093   1.538   8.949 -1.9638 -1.2179 -1.1120
  140MOL0     H19302   8.648   1.268   8.755 -1.1456  1.9610 -1.0736
  140MOL0     H19303   8.423   1.232   8.733  3.2760  0.6450 -3.2743
  140MOL0     H19304   6.668   1.396   9.375  0.1570 -0.8491 -0.0100
  140MOL0     H19305   6.439   1.439   9.323 -0.7588 -0.8243 -0.2494
  140MOL0     H19306   6.036   1.384   9.185  1.4416 -1.0873 -0.7481
  140MOL0     H19307   5.803   1.465   9.146 -2.3688  2.6635 -0.6897
  140MOL0     H19308   5.668   1.433   8.926 -0.0862  0.3831  0.4143
  140MOL0     H19309   5.607   1.533   9.049  0.6269  0.0934 -0.0189
  140MOL0     H19310   5.532   1.539   8.764 -2.6641 -3.8348  0.5480
  140MOL0     H19311   5.509   1.688   8.864 -0.7328 -0.0264 -0.3236
  140MOL0     H19312   5.377   1.416   8.864 -1.1545  1.0950 -0.8594
  140MOL0     H19313   5.382   1.504   9.023 -2.4967  1.3328 -0.0874
  140MOL0     H19314   5.275   1.601   8.766  2.5944 -0.4380  0.1146
  140MOL0     H19315   5.270   1.702   8.923 -0.8000 -0.3008 -0.0631
  140MOL0     H19316   4.946   1.427   8.947 -0.8201  1.0046 -0.9397
  140MOL0     H19317   5.951   1.716   8.832 -2.9657 -2.4727 -1.3890
  140MOL0     H19318   6.270   1.748   8.917 -0.7125 -0.3684  2.1777
  140MOL0     H19319   6.295   1.596   8.826  0.5004 -0.0357 -0.3673
  140MOL0     H19320   6.180   1.722   8.771  0.6346 -0.7571 -0.2217
  141MOL0     O19321   0.285  10.978   2.881  0.2216 -0.3140  0.2358
  141MOL0     C19322   0.345  10.868   2.868 -0.2953  0.0176  0.8773
  141MOL0     O19323   0.475  10.836   2.899  0.3482 -0.1453  0.0867
  141MOL0     C19324   0.545  10.933   2.965 -0.0868  0.5291 -0.6475
  141MOL0     C19325   0.596  11.047   2.892 -0.2427  0.3743 -0.7891
  141MOL0     C19326   0.670  11.141   2.958  1.0240 -0.6959 -1.0131
  141MOL0     C19327   0.697  11.132   3.099  0.6606 -0.5685  0.5467
  141MOL0     O19328   0.772  11.230   3.153 -0.5028  0.9271  0.1651
  141MOL0     C19329   0.799  11.225   3.295  0.3678  0.4070  0.8678
  141MOL0     C19330   0.902  11.322   3.334 -0.6258 -0.0629 -0.3630
  141MOL0     C19331   1.031  11.320   3.241  0.9600 -1.0278  0.0046
  141MOL0     C19332   1.164  11.365   3.293  0.0573 -0.1425 -0.5225
  141MOL0     C19333   1.286  11.355   3.198 -0.8089 -0.1937 -0.1084
  141MOL0     C19334   1.430  11.404   3.251  0.3680 -0.0469  0.8413
  141MOL0     C19335   1.542  11.369   3.156  0.4953 -0.7891 -0.2191
  141MOL0     C19336   1.566  11.214   3.152  0.9080  1.1380 -0.1501
  141MOL0     N19337   1.699  11.169   3.113 -0.0956 -0.1899 -0.0239
  141MOL0     C19338   1.812  11.211   3.177  0.3537 -0.1472  0.2467
  141MOL0     C19339   1.911  11.195   3.090 -1.5184  0.1993  0.3763
  141MOL0     C19340   2.054  11.214   3.124 -0.0307 -0.2271  0.3228
  141MOL0     C19341   2.159  11.215   3.008 -0.1085 -0.8220 -0.0951
  141MOL0     C19342   2.294  11.236   3.062  0.0432  0.4893 -0.2808
  141MOL0     C19343   2.398  11.245   2.945 -0.1998  0.3570 -0.8183
  141MOL0     O19344   2.530  11.215   2.993  0.2283  0.4194 -0.1790
  141MOL0     C19345   2.634  11.183   2.912  0.3721  1.2031 -0.1041
  141MOL0     C19346   2.635  11.178   2.776 -0.0543  0.4751 -0.4010
  141MOL0     C19347   2.745  11.147   2.698 -0.1549  0.0117  0.2802
  141MOL0     C19348   2.730  11.140   2.544  0.0762 -0.0732 -0.2288
  141MOL0     C19349   2.870  11.115   2.760 -0.3213 -1.0158  0.4997
  141MOL0     C19350   2.990  11.062   2.691  0.0763  0.0769  0.7771
  141MOL0     O19351   3.099  11.036   2.771  0.1955 -0.6029 -0.5185
  141MOL0     C19352   3.210  11.009   2.704  1.0174  0.7509  0.7849
  141MOL0     C19353   3.262  10.880   2.714 -0.1728 -0.1899  0.6243
  141MOL0     C19354   3.385  10.846   2.652 -0.8479 -0.4165  0.8247
  141MOL0     C19355   3.473  10.942   2.590  0.3563 -0.1435  0.4063
  141MOL0     O19356   3.589  10.921   2.523 -0.0002 -0.7278  0.0430
  141MOL0     C19357   3.643  10.794   2.495 -0.3913 -0.1935 -1.2099
  141MOL0     C19358   3.736  10.799   2.380 -0.8943  1.1004  0.5637
  141MOL0     C19359   3.889  10.799   2.442  0.7396 -0.7408  0.5462
  141MOL0     C19360   3.984  10.847   2.333 -0.3745 -1.0156 -0.5732
  141MOL0     C19361   4.133  10.850   2.398  0.1607 -0.1813 -0.1455
  141MOL0     C19362   4.188  10.711   2.441 -0.0792 -0.2100 -0.4470
  141MOL0     C19363   4.348  10.719   2.464  0.3243  0.9764  0.4216
  141MOL0     C19364   4.383  10.670   2.609 -0.6493 -0.4412 -0.0095
  141MOL0    Cl19365   4.371  10.803   2.717 -0.6376 -0.3984  0.0409
  141MOL0     C19366   3.427  11.071   2.589 -0.3736  0.0401  0.0680
  141MOL0     C19367   3.299  11.114   2.654 -0.0847  0.7153 -0.2210
  141MOL0     O19368   2.986  11.044   2.572  0.5502 -0.1428  0.0551
  141MOL0     C19369   2.866  11.117   2.901 -0.1043 -0.8099 -0.1363
  141MOL0     C19370   2.750  11.150   2.976  0.0290  0.4757  0.8551
  141MOL0     N19371   1.860  11.125   2.980  0.4445  0.8783 -0.1859
  141MOL0     N19372   1.732  11.115   2.996 -0.1924 -0.2972 -0.0371
  141MOL0     C19373   0.645  11.021   3.169 -0.4685 -0.1128  0.3456
  141MOL0     C19374   0.570  10.925   3.102 -0.1915  0.1092  0.3864
  141MOL0     C19375   0.274  10.761   2.792 -0.1074 -0.2962  0.0545
  141MOL0     C19376   0.333  10.633   2.798  0.3264  0.3559  0.7942
  141MOL0     C19377   0.273  10.520   2.736 -0.3328 -0.1183 -1.1756
  141MOL0     C19378   0.148  10.532   2.674  0.2769 -0.0464  0.1409
  141MOL0     O19379   0.063  10.431   2.639 -0.2756 -0.1420 -0.3730
  141MOL0     C19380   0.121  10.297   2.649  0.5099  0.2221 -0.1821
  141MOL0     C19381   0.040  10.198   2.568 -0.1463 -0.0611 -0.9517
  141MOL0     C19382  -0.110  10.218   2.604  0.4472  0.5177  0.6484
  141MOL0     C19383  -0.188  10.085   2.614 -0.2770  0.8232  0.1334
  141MOL0     C19384  -0.321  10.108   2.673  0.3652  0.3640 -0.8074
  141MOL0     C19385  -0.428  10.108   2.728  0.1203 -0.0902  0.2312
  141MOL0     C19386   0.097  10.655   2.663  0.5763 -0.3478  0.5012
  141MOL0     C19387   0.156  10.770   2.713  0.8787 -0.5677  0.0041
  141MOL0     C19388   0.072  10.893   2.701 -0.5450  0.1719  0.3174
  141MOL0     H19389   0.588  11.064   2.785  1.9167 -1.1134 -1.2487
  141MOL0     H19390   0.691  11.234   2.905 -0.0802 -1.3906 -2.7527
  141MOL0     H19391   0.832  11.123   3.319  2.0200  0.4777 -0.8891
  141MOL0     H19392   0.708  11.245   3.352 -0.8379  1.8154 -1.3864
  141MOL0     H19393   0.860  11.423   3.338 -1.7652 -0.5089 -0.5431
  141MOL0     H19394   0.924  11.292   3.437  0.6361  1.4717 -0.1577
  141MOL0     H19395   1.036  11.218   3.202 -2.3865 -0.8146 -1.2592
  141MOL0     H19396   0.999  11.381   3.156 -1.2768  0.6347  1.9027
  141MOL0     H19397   1.151  11.469   3.325  0.6644 -0.8898  2.4624
  141MOL0     H19398   1.181  11.318   3.390 -1.3461 -1.4290 -0.8525
  141MOL0     H19399   1.259  11.436   3.129  2.0208  3.9162  3.0751
  141MOL0     H19400   1.291  11.259   3.147  1.0314  0.5380 -1.4127
  141MOL0     H19401   1.425  11.514   3.255 -0.6605  0.3329 -4.0673
  141MOL0     H19402   1.440  11.363   3.351  2.0847  0.4485  0.8984
  141MOL0     H19403   1.630  11.423   3.192  1.5120 -2.2301 -0.4650
  141MOL0     H19404   1.524  11.409   3.055  2.6219  0.9530  0.0262
  141MOL0     H19405   1.555  11.180   3.255  0.0073  1.6710 -0.0590
  141MOL0     H19406   1.488  11.169   3.089  0.5793 -0.5307  1.3705
  141MOL0     H19407   1.824  11.259   3.273  1.2068 -0.1269  0.1424
  141MOL0     H19408   2.079  11.132   3.192  1.0684 -0.9617 -0.9172
  141MOL0     H19409   2.056  11.314   3.167 -1.7489  1.3819 -2.9389
  141MOL0     H19410   2.148  11.121   2.954 -3.0302 -0.5396 -0.1312
  141MOL0     H19411   2.135  11.294   2.937 -1.3614 -0.0729  1.1139
  141MOL0     H19412   2.302  11.321   3.130 -3.1058  1.1454 -0.5687
  141MOL0     H19413   2.323  11.145   3.116  1.2693  0.5268 -0.8353
  141MOL0     H19414   2.380  11.166   2.872  2.3615 -0.2724 -0.8877
  141MOL0     H19415   2.393  11.341   2.893 -1.1948 -0.6055 -2.5937
  141MOL0     H19416   2.548  11.191   2.713 -0.7844 -2.7544 -0.2246
  141MOL0     H19417   2.751  11.039   2.508 -0.1768  1.0701 -3.9022
  141MOL0     H19418   2.800  11.210   2.497  2.6025 -0.8529  2.0676
  141MOL0     H19419   2.627  11.173   2.533 -0.1969 -0.4007  1.0950
  141MOL0     H19420   3.201  10.798   2.751 -0.5532 -0.5555 -0.7644
  141MOL0     H19421   3.422  10.744   2.644 -2.1107 -0.7280 -5.0223
  141MOL0     H19422   3.699  10.753   2.579  1.3526 -1.0888 -2.7276
  141MOL0     H19423   3.567  10.720   2.469  1.1579 -1.6893 -1.6716
  141MOL0     H19424   3.718  10.710   2.319 -1.3120  1.6376 -0.1164
  141MOL0     H19425   3.722  10.889   2.319  1.5310  1.0359 -0.2097
  141MOL0     H19426   3.928  10.706   2.485  3.3434  0.0569  0.1094
  141MOL0     H19427   3.893  10.874   2.520  1.4563 -1.4764  1.2357
  141MOL0     H19428   3.945  10.947   2.314 -0.1789 -0.8762 -0.2526
  141MOL0     H19429   3.982  10.787   2.242 -1.9869  1.0781 -2.0148
  141MOL0     H19430   4.210  10.882   2.327  0.1949 -0.7241 -0.3606
  141MOL0     H19431   4.126  10.909   2.490 -0.2560 -1.6729  0.8109
  141MOL0     H19432   4.167  10.639   2.362  1.7607 -1.6441  0.3006
  141MOL0     H19433   4.159  10.673   2.539  0.6386  0.4297  0.0282
  141MOL0     H19434   4.392  10.817   2.442  0.6917  0.9386  0.9677
  141MOL0     H19435   4.386  10.640   2.398 -1.9316  0.4094 -0.2929
  141MOL0     H19436   4.481  10.622   2.603 -0.4560  0.1678 -4.3548
  141MOL0     H19437   4.311  10.594   2.642 -0.2312 -0.9706 -0.2975
  141MOL0     H19438   3.484  11.157   2.556 -4.1537  2.3376 -1.1068
  141MOL0     H19439   3.272  11.219   2.656 -2.0274  0.3441 -2.5032
  141MOL0     H19440   2.953  11.085   2.959  1.4629  1.1622 -1.2774
  141MOL0     H19441   2.749  11.153   3.084 -0.6090 -2.0992  0.9897
  141MOL0     H19442   0.668  11.001   3.273  2.7003  1.1272  0.0084
  141MOL0     H19443   0.530  10.845   3.164  1.8163 -1.7544 -0.5663
  141MOL0     H19444   0.421  10.614   2.859 -1.0504 -0.4807  2.6203
  141MOL0     H19445   0.328  10.426   2.742 -1.7153 -0.9060 -0.4358
  141MOL0     H19446   0.223  10.299   2.610  0.4856 -1.2139 -0.3735
  141MOL0     H19447   0.125  10.267   2.754  2.3928 -1.2343 -0.6237
  141MOL0     H19448   0.069  10.094   2.587  2.8321  1.1453  2.3653
  141MOL0     H19449   0.059  10.212   2.462  0.8124  2.6166 -0.4961
  141MOL0     H19450  -0.118  10.252   2.707  0.4287 -1.2154  1.2489
  141MOL0     H19451  -0.161  10.285   2.533 -1.9611 -0.7648  1.0497
  141MOL0     H19452  -0.128  10.019   2.677  2.1132  1.6219 -1.1408
  141MOL0     H19453  -0.199  10.040   2.515 -0.4925  0.4052  0.3460
  141MOL0     H19454  -0.523  10.104   2.778  1.7513 -1.6494  3.5455
  141MOL0     H19455   0.004  10.663   2.608  1.5573  1.8172 -1.0002
  141MOL0     H19456  -0.028  10.862   2.668 -0.2102  0.4580 -1.0143
  141MOL0     H19457   0.049  10.931   2.801  2.1453  1.2137  0.6150
  141MOL0     H19458   0.114  10.967   2.633 -0.4542 -1.1743 -1.1540
  142MOL0     O19459  10.168   6.750   2.277  0.5859 -0.6563  0.1653
  142MOL0     C19460  10.072   6.683   2.308 -0.5912  0.4561 -0.2865
  142MOL0     O19461  10.031   6.667   2.432 -0.3324 -0.4015  1.0416
  142MOL0     C19462  10.071   6.745   2.541 -0.0044  0.7769  0.2360
  142MOL0     C19463  10.040   6.889   2.529  0.1802 -0.3221 -0.0955
  142MOL0     C19464  10.057   6.965   2.643  0.0296 -0.6081  0.6372
  142MOL0     C19465  10.104   6.914   2.760 -0.6163 -0.2179 -0.7419
  142MOL0     O19466  10.162   6.989   2.870  0.2637  0.0603  0.1880
  142MOL0     C19467  10.192   7.123   2.845  0.1612 -0.4375  0.4571
  142MOL0     C19468  10.287   7.175   2.954  0.6058 -0.3272  0.5982
  142MOL0     C19469  10.426   7.112   2.936  0.1671 -0.2071  1.0129
  142MOL0     C19470  10.519   7.139   3.059  0.1335 -0.1982  0.4301
  142MOL0     C19471  10.659   7.077   3.036  0.1622  0.2908 -0.6309
  142MOL0     C19472  10.769   7.133   3.132  0.4845  0.0279 -0.4289
  142MOL0     C19473  10.919   7.107   3.102 -0.8885 -0.4897  0.9506
  142MOL0     C19474  11.013   7.084   3.229 -0.1314 -0.8263 -0.3184
  142MOL0     N19475  11.010   6.945   3.270  0.1145 -0.1672  0.1359
  142MOL0     C19476  11.067   6.841   3.201 -0.3944 -0.3928  0.1435
  142MOL0     C19477  11.008   6.729   3.246  0.2648 -0.5798  0.8681
  142MOL0     C19478  11.038   6.589   3.212 -0.1045  0.4698 -0.5310
  142MOL0     C19479  11.178   6.541   3.258 -0.3395  0.0735 -0.5729
  142MOL0     C19480  11.199   6.480   3.400  0.0090 -0.2775  0.2785
  142MOL0     C19481  11.155   6.570   3.518  0.4338  0.1604  0.1505
  142MOL0     O19482  11.177   6.494   3.644  0.4461 -0.9783 -0.6462
  142MOL0     C19483  11.193   6.564   3.759 -0.0424 -0.3519  0.3831
  142MOL0     C19484  11.286   6.523   3.856 -0.0442 -0.0938 -0.6781
  142MOL0     C19485  11.302   6.598   3.978 -0.0980 -0.9166 -0.0587
  142MOL0     C19486  11.388   6.539   4.082 -0.0467 -1.1941 -0.4711
  142MOL0     C19487  11.220   6.717   3.994 -0.4377 -0.1568  0.1609
  142MOL0     C19488  11.222   6.805   4.115 -0.2648  0.5601 -1.0884
  142MOL0     O19489  11.253   6.938   4.087  0.1568  0.4486 -0.5355
  142MOL0     C19490  11.253   7.036   4.182 -0.4196 -0.2438  0.2340
  142MOL0     C19491  11.135   7.110   4.192 -0.1382 -0.3694  0.0110
  142MOL0     C19492  11.124   7.224   4.268 -0.1547  0.1140  0.4084
  142MOL0     C19493  11.242   7.267   4.343  0.7130  0.9429 -0.5942
  142MOL0     O19494  11.226   7.383   4.414  1.1235  0.3558  0.1448
  142MOL0     C19495  11.333   7.417   4.502 -0.2380  0.1347 -0.5998
  142MOL0     C19496  11.300   7.552   4.549 -0.1778 -0.1294 -0.3783
  142MOL0     C19497  11.405   7.611   4.647 -1.1591 -0.8578 -0.2400
  142MOL0     C19498  11.368   7.755   4.698  2.0906  0.2666 -0.5101
  142MOL0     C19499  11.495   7.804   4.775  0.6019 -0.0004 -0.6355
  142MOL0     C19500  11.486   7.793   4.929  0.0879 -0.6845 -0.0340
  142MOL0     C19501  11.613   7.841   5.005 -0.5058 -0.6398 -0.4144
  142MOL0     C19502  11.576   7.892   5.147 -0.3787  0.8129  0.6663
  142MOL0    Cl19503  11.482   7.778   5.250 -0.0769  0.0948 -0.1776
  142MOL0     C19504  11.366   7.196   4.325  0.2014  0.7404  0.4946
  142MOL0     C19505  11.370   7.087   4.241  0.1723 -0.1016 -0.3689
  142MOL0     O19506  11.216   6.750   4.231  0.4985 -0.3712  0.0901
  142MOL0     C19507  11.138   6.763   3.890  0.2172 -0.3819 -0.2133
  142MOL0     C19508  11.120   6.678   3.780  0.0077  0.2862 -0.0025
  142MOL0     N19509  10.901   6.767   3.330 -0.2550 -0.7178  0.5630
  142MOL0     N19510  10.908   6.890   3.353  0.3119 -0.5168  0.2260
  142MOL0     C19511  10.121   6.775   2.765 -0.6186 -0.2404 -0.1240
  142MOL0     C19512  10.106   6.694   2.662 -0.2574  1.0748  0.8262
  142MOL0     C19513   9.994   6.608   2.197 -0.7529 -0.2725 -0.0731
  142MOL0     C19514   9.899   6.516   2.241 -0.5327  0.9162  0.3829
  142MOL0     C19515   9.827   6.435   2.148  0.9004  0.4244 -1.4902
  142MOL0     C19516   9.838   6.456   2.017  0.0632  0.5776  0.3379
  142MOL0     O19517   9.758   6.393   1.921  0.0915 -0.2020 -0.4917
  142MOL0     C19518   9.624   6.347   1.947  0.2112 -0.5676  0.3838
  142MOL0     C19519   9.525   6.464   1.901 -0.1340  0.7079  0.3571
  142MOL0     C19520   9.509   6.566   2.005  0.8677 -0.9538 -0.8902
  142MOL0     C19521   9.417   6.692   1.969 -0.7147 -0.4024  0.6412
  142MOL0     C19522   9.281   6.638   1.956 -0.2968  0.6201 -0.5412
  142MOL0     C19523   9.163   6.602   1.955 -0.2387 -0.1916 -0.1778
  142MOL0     C19524   9.937   6.544   1.976 -0.7868 -0.2465  0.9186
  142MOL0     C19525  10.015   6.623   2.060  0.0865  0.5709 -0.5270
  142MOL0     C19526  10.097   6.736   1.995 -0.3457  0.1002  0.3226
  142MOL0     H19527   9.989   6.928   2.441 -0.7712 -0.6031  0.3188
  142MOL0     H19528  10.031   7.071   2.646  1.3954 -0.2886  2.1490
  142MOL0     H19529  10.102   7.184   2.845  1.1395  1.0751  0.2480
  142MOL0     H19530  10.234   7.132   2.744 -2.6393  0.7033 -0.7172
  142MOL0     H19531  10.297   7.283   2.944 -0.8562 -0.0276  1.9613
  142MOL0     H19532  10.248   7.164   3.056  1.9440  0.0493  1.1821
  142MOL0     H19533  10.418   7.005   2.918 -0.5516  0.1231 -0.8057
  142MOL0     H19534  10.462   7.154   2.841 -2.3459 -0.5787 -0.1645
  142MOL0     H19535  10.537   7.246   3.076  1.8753 -0.5164  0.6972
  142MOL0     H19536  10.472   7.106   3.153  1.5741 -0.4445  1.0847
  142MOL0     H19537  10.694   7.115   2.939  0.4641  3.7055  0.6675
  142MOL0     H19538  10.649   6.968   3.039  0.5259  0.2838  2.0966
  142MOL0     H19539  10.743   7.236   3.158  1.1734  0.4675 -1.4198
  142MOL0     H19540  10.754   7.078   3.226  0.9101 -0.0749 -0.4205
  142MOL0     H19541  10.952   7.196   3.049  2.4433 -2.1576 -0.0518
  142MOL0     H19542  10.933   7.028   3.027  1.2293  1.5386 -0.9270
  142MOL0     H19543  11.112   7.126   3.206 -1.4859  0.9579 -3.5313
  142MOL0     H19544  10.978   7.140   3.316  0.5968 -3.0222  1.5003
  142MOL0     H19545  11.138   6.854   3.120  0.4531 -0.0095  0.9402
  142MOL0     H19546  11.051   6.592   3.103  0.9710  0.1273 -0.4291
  142MOL0     H19547  10.969   6.512   3.248  0.5006 -0.0334 -0.4217
  142MOL0     H19548  11.211   6.462   3.190  2.4328  0.3981  0.2951
  142MOL0     H19549  11.255   6.618   3.261  0.3551 -0.6258  2.7177
  142MOL0     H19550  11.148   6.383   3.403  2.6716 -1.9019 -1.9286
  142MOL0     H19551  11.306   6.462   3.414 -0.1287 -0.8507  0.6173
  142MOL0     H19552  11.221   6.656   3.500  1.0990 -0.1995  0.8369
  142MOL0     H19553  11.049   6.597   3.516 -0.0331 -1.5115  0.9651
  142MOL0     H19554  11.350   6.438   3.835 -2.7374 -1.9367 -1.9009
  142MOL0     H19555  11.324   6.474   4.143 -0.9570  1.1884  1.2816
  142MOL0     H19556  11.426   6.618   4.146  0.2455 -0.2630 -1.7629
  142MOL0     H19557  11.482   6.500   4.042  0.7204  0.3757 -0.2440
  142MOL0     H19558  11.045   7.069   4.146 -2.2620  1.9567  1.8117
  142MOL0     H19559  11.028   7.274   4.278  0.0839  1.4419 -2.8302
  142MOL0     H19560  11.342   7.348   4.586  1.5678  2.7187  1.4805
  142MOL0     H19561  11.428   7.420   4.447 -0.6278  1.3399 -1.2410
  142MOL0     H19562  11.280   7.619   4.465  1.5327  1.0444  0.1027
  142MOL0     H19563  11.209   7.546   4.610 -1.4498 -1.0887 -2.2315
  142MOL0     H19564  11.496   7.620   4.586 -2.5752 -0.6957 -2.4695
  142MOL0     H19565  11.420   7.531   4.719 -0.6746 -3.6726 -3.2404
  142MOL0     H19566  11.282   7.759   4.766  0.6465  0.9406 -2.2937
  142MOL0     H19567  11.331   7.808   4.610  2.5718 -0.7951 -1.3667
  142MOL0     H19568  11.582   7.755   4.732  0.3178 -0.5487 -0.5880
  142MOL0     H19569  11.506   7.913   4.770  4.2597  0.0069  2.5641
  142MOL0     H19570  11.463   7.693   4.964  0.9228 -0.9632 -0.2661
  142MOL0     H19571  11.400   7.855   4.958  1.5385  1.9320 -0.9671
  142MOL0     H19572  11.662   7.923   4.951  0.4287 -1.9219 -1.5956
  142MOL0     H19573  11.689   7.762   5.012  1.2936  1.1748  3.0346
  142MOL0     H19574  11.520   7.983   5.126 -1.2702  0.0911 -0.2241
  142MOL0     H19575  11.661   7.912   5.213 -1.1029  0.9852  1.5539
  142MOL0     H19576  11.462   7.229   4.366  0.1188 -0.7921  2.0189
  142MOL0     H19577  11.467   7.044   4.218  0.6393  0.2722  0.8512
  142MOL0     H19578  11.088   6.856   3.915 -0.2977 -0.4842 -0.8268
  142MOL0     H19579  11.043   6.712   3.710  2.5486  3.2542 -1.6116
  142MOL0     H19580  10.172   6.740   2.854 -1.4240  1.7651  1.2084
  142MOL0     H19581  10.114   6.588   2.681  1.2538  0.7918 -1.0100
  142MOL0     H19582   9.887   6.485   2.345  2.0402  0.4379  0.5938
  142MOL0     H19583   9.767   6.355   2.191  2.0476  0.2586 -0.1313
  142MOL0     H19584   9.602   6.256   1.891 -2.6057  1.2170 -1.6686
  142MOL0     H19585   9.601   6.338   2.054  1.0749 -0.0111  0.6261
  142MOL0     H19586   9.427   6.416   1.895 -0.5177  0.6142  4.4065
  142MOL0     H19587   9.546   6.513   1.806 -0.0424  1.8051  0.9321
  142MOL0     H19588   9.477   6.524   2.101 -0.6606  2.6490  0.3589
  142MOL0     H19589   9.602   6.618   2.031 -0.0951  0.6750 -0.5670
  142MOL0     H19590   9.454   6.734   1.875  2.0412 -0.4200  1.6262
  142MOL0     H19591   9.421   6.766   2.049  0.6123 -0.1280  0.3468
  142MOL0     H19592   9.072   6.546   1.952 -0.0441 -0.4918 -0.7287
  142MOL0     H19593   9.965   6.567   1.873  0.3329  0.0605  1.2775
  142MOL0     H19594  10.098   6.742   1.886  0.8114  0.6855  0.3511
  142MOL0     H19595  10.060   6.828   2.042 -1.1685 -0.4094  0.6962
  142MOL0     H19596  10.202   6.737   2.025 -0.9980  0.7653  2.8850
  143MOL0     O19597   4.420  10.943   9.532 -0.7666  0.0083 -0.2129
  143MOL0     C19598   4.334  10.985   9.611  0.5996 -0.3256 -0.0340
  143MOL0     O19599   4.311  11.119   9.636 -0.1841  0.3168  0.0788
  143MOL0     C19600   4.395  11.226   9.612  0.3660  0.9357  0.0624
  143MOL0     C19601   4.344  11.350   9.649  0.1469 -0.7765  0.2870
  143MOL0     C19602   4.408  11.472   9.616  0.1397  0.0576 -1.4484
  143MOL0     C19603   4.542  11.474   9.567  0.6942 -0.1959 -0.3752
  143MOL0     O19604   4.608  11.587   9.544  0.2721 -0.2011 -0.1084
  143MOL0     C19605   4.559  11.712   9.600 -0.0975  0.5980  0.0321
  143MOL0     C19606   4.482  11.782   9.494  1.3776 -0.0587 -0.4206
  143MOL0     C19607   4.572  11.872   9.405  0.1635 -0.2325 -0.2527
  143MOL0     C19608   4.595  12.024   9.451  0.1874  0.6336 -0.0251
  143MOL0     C19609   4.650  12.108   9.334  0.8322  0.3237 -0.1995
  143MOL0     C19610   4.772  12.054   9.269  0.0485 -0.3798 -0.8501
  143MOL0     C19611   4.806  12.117   9.132  0.0469  0.5147  0.1457
  143MOL0     C19612   4.868  12.257   9.141 -0.1133 -0.1832 -0.1072
  143MOL0     N19613   4.979  12.275   9.230 -0.3982 -0.1750 -0.2434
  143MOL0     C19614   5.109  12.261   9.192  0.2978  0.5016 -0.4072
  143MOL0     C19615   5.181  12.281   9.309  0.1897 -0.2884 -0.2961
  143MOL0     C19616   5.323  12.312   9.318 -0.1112  0.6870 -0.4082
  143MOL0     C19617   5.387  12.197   9.401  0.2344  0.1378 -0.7903
  143MOL0     C19618   5.540  12.201   9.393 -0.1048 -0.3069 -0.4054
  143MOL0     C19619   5.628  12.086   9.450  0.5681 -0.2845  0.1964
  143MOL0     O19620   5.643  11.965   9.365  0.2799 -0.6916  0.0413
  143MOL0     C19621   5.728  11.969   9.260  0.0287 -0.6679 -0.4676
  143MOL0     C19622   5.715  11.879   9.159 -1.2579 -0.0114  0.3727
  143MOL0     C19623   5.783  11.885   9.039 -0.7239  0.4382  1.0219
  143MOL0     C19624   5.756  11.759   8.951 -1.1002  0.1279  0.1425
  143MOL0     C19625   5.866  11.996   9.014  0.3157  0.7183  0.4899
  143MOL0     C19626   5.974  11.995   8.911  0.0276 -0.4327  0.1960
  143MOL0     O19627   6.076  12.085   8.942 -0.5311  0.1370  0.6336
  143MOL0     C19628   6.188  12.064   8.863 -0.4016 -0.0724  0.7101
  143MOL0     C19629   6.297  11.979   8.897  0.0607  0.1802 -0.2961
  143MOL0     C19630   6.407  11.967   8.816 -0.6843 -0.5374 -0.6545
  143MOL0     C19631   6.412  12.038   8.690  0.4322 -0.0868 -1.2509
  143MOL0     O19632   6.506  12.044   8.595  0.9115  0.5766 -0.3261
  143MOL0     C19633   6.635  11.980   8.625  1.4725  0.6299 -0.6901
  143MOL0     C19634   6.730  12.008   8.515  0.4918  0.9089 -0.3936
  143MOL0     C19635   6.872  11.948   8.541  0.7884  0.0230 -0.4213
  143MOL0     C19636   6.960  11.985   8.416 -0.1658 -0.5849  0.0931
  143MOL0     C19637   7.107  11.953   8.423 -0.3131 -0.2091  0.1477
  143MOL0     C19638   7.163  11.976   8.281 -0.5488  0.2120 -0.0533
  143MOL0     C19639   7.300  11.912   8.258 -0.3042  0.4663  0.5554
  143MOL0     C19640   7.378  11.966   8.141 -0.2595  0.1040  0.9082
  143MOL0    Cl19641   7.434  12.119   8.179 -0.3181  0.0915 -0.0348
  143MOL0     C19642   6.297  12.115   8.654 -0.7031  1.1786  0.4095
  143MOL0     C19643   6.195  12.135   8.745  0.3494  0.1706  0.5987
  143MOL0     O19644   5.978  11.916   8.816 -0.5416 -0.2838  0.1640
  143MOL0     C19645   5.858  12.100   9.105 -0.0064 -0.4233 -0.1619
  143MOL0     C19646   5.811  12.077   9.229 -0.1661 -0.1056 -0.5738
  143MOL0     N19647   5.091  12.288   9.413  0.1503  0.8028 -0.3319
  143MOL0     N19648   4.968  12.282   9.363 -0.0581  1.4623 -1.9804
  143MOL0     C19649   4.601  11.349   9.545 -0.3907  0.2132 -0.4366
  143MOL0     C19650   4.526  11.226   9.552 -0.2611  0.1795 -0.1708
  143MOL0     C19651   4.221  10.908   9.664 -0.7785  0.2747 -0.5860
  143MOL0     C19652   4.105  10.975   9.709  0.7921  0.4614 -0.3110
  143MOL0     C19653   3.996  10.906   9.757 -1.0206 -0.4320 -0.2363
  143MOL0     C19654   3.999  10.773   9.756 -0.1854  0.0276 -0.7576
  143MOL0     O19655   3.892  10.697   9.781 -0.4224 -0.3400  0.5923
  143MOL0     C19656   3.850  10.590   9.699  0.6421  0.8065 -0.3735
  143MOL0     C19657   3.695  10.596   9.672 -0.1192  0.2074  0.3182
  143MOL0     C19658   3.649  10.486   9.565 -0.2308 -0.4514 -0.5861
  143MOL0     C19659   3.501  10.507   9.507 -0.4622  1.2992 -0.3755
  143MOL0     C19660   3.402  10.553   9.613  0.0180 -0.4819  0.7691
  143MOL0     C19661   3.325  10.583   9.700 -0.3730 -0.3843  0.7520
  143MOL0     C19662   4.114  10.701   9.710  0.1610  0.5031 -0.6701
  143MOL0     C19663   4.228  10.766   9.668  0.6460  0.6557 -0.7515
  143MOL0     C19664   4.359  10.689   9.650 -0.3261  0.2178  1.1306
  143MOL0     H19665   4.242  11.353   9.685 -0.9325  1.0016 -2.6271
  143MOL0     H19666   4.353  11.562   9.645  2.3562  1.3134 -0.9134
  143MOL0     H19667   4.645  11.768   9.639 -0.1495 -0.3970  1.6738
  143MOL0     H19668   4.499  11.702   9.691  0.1744 -0.2628  0.1286
  143MOL0     H19669   4.422  11.712   9.435  0.3072  1.2576 -0.9388
  143MOL0     H19670   4.411  11.847   9.546  1.0475  0.0941 -1.0486
  143MOL0     H19671   4.670  11.826   9.390 -0.4147 -1.1783 -1.3840
  143MOL0     H19672   4.518  11.870   9.309 -3.2980  1.5668  1.4536
  143MOL0     H19673   4.497  12.057   9.487 -2.5251 -4.6852 -1.4442
  143MOL0     H19674   4.665  12.032   9.534  0.8672 -0.5058 -0.4547
  143MOL0     H19675   4.674  12.211   9.363  0.4157  0.6868 -1.1219
  143MOL0     H19676   4.568  12.108   9.262  2.3256 -2.6251 -2.0903
  143MOL0     H19677   4.859  12.047   9.334 -0.6849  1.0370  0.3539
  143MOL0     H19678   4.757  11.948   9.246  0.5564 -1.3056  2.5622
  143MOL0     H19679   4.723  12.114   9.061  1.4757  0.7614 -1.6080
  143MOL0     H19680   4.885  12.049   9.099  2.4242  3.3925 -0.6223
  143MOL0     H19681   4.897  12.292   9.041  0.9728 -0.0240  0.2438
  143MOL0     H19682   4.792  12.330   9.170  0.9972  2.0960 -2.4621
  143MOL0     H19683   5.149  12.264   9.091  0.3777 -2.1674 -0.5306
  143MOL0     H19684   5.343  12.409   9.363 -0.9666 -0.9432  3.9423
  143MOL0     H19685   5.365  12.308   9.217  0.3058 -1.7043 -0.2098
  143MOL0     H19686   5.349  12.194   9.504 -0.0785  0.8610 -0.8804
  143MOL0     H19687   5.363  12.099   9.359  4.5344 -1.3942 -0.2910
  143MOL0     H19688   5.565  12.206   9.286  0.9915 -4.3729 -0.5154
  143MOL0     H19689   5.577  12.291   9.443  1.2373 -1.4623  0.7768
  143MOL0     H19690   5.722  12.131   9.484  1.4127 -0.3542 -1.8709
  143MOL0     H19691   5.579  12.058   9.543  0.4643 -0.8201 -0.0172
  143MOL0     H19692   5.658  11.789   9.180  1.6445 -1.3711  3.3860
  143MOL0     H19693   5.756  11.784   8.844  2.9995 -3.4134 -0.9838
  143MOL0     H19694   5.670  11.694   8.965  1.4010 -3.7011 -0.6891
  143MOL0     H19695   5.842  11.695   8.970  1.7691  2.2797 -3.9283
  143MOL0     H19696   6.284  11.930   8.993  1.3940 -1.6162 -0.9935
  143MOL0     H19697   6.485  11.903   8.857 -0.4393  0.2984  0.2372
  143MOL0     H19698   6.675  12.023   8.718  2.5405 -2.6729  0.5204
  143MOL0     H19699   6.621  11.873   8.638 -2.1810  1.0290 -0.2111
  143MOL0     H19700   6.687  11.958   8.428 -0.6022  2.3536 -0.7266
  143MOL0     H19701   6.736  12.116   8.501  0.6102  0.7700 -1.4913
  143MOL0     H19702   6.868  11.839   8.555  1.2394 -0.0400 -0.7415
  143MOL0     H19703   6.910  11.991   8.634  0.6861  3.4562 -1.8147
  143MOL0     H19704   6.950  12.092   8.399  1.1217 -0.4764 -0.0641
  143MOL0     H19705   6.913  11.950   8.324 -1.2993  2.2030 -0.4593
  143MOL0     H19706   7.145  12.023   8.499 -0.5540 -0.0964  0.1650
  143MOL0     H19707   7.124  11.851   8.457 -1.2419  0.4092  2.7807
  143MOL0     H19708   7.165  12.086   8.272  4.5979  0.2319 -2.1159
  143MOL0     H19709   7.094  11.941   8.203 -1.3514 -0.9147  1.1322
  143MOL0     H19710   7.288  11.804   8.244 -1.1691  0.9118 -3.1960
  143MOL0     H19711   7.371  11.914   8.342 -0.7230  1.3848  0.9001
  143MOL0     H19712   7.308  11.965   8.056 -2.1216 -3.1289  2.2828
  143MOL0     H19713   7.456  11.896   8.110 -0.9908  0.0431 -0.9511
  143MOL0     H19714   6.292  12.167   8.559 -0.3798  1.2907  0.4541
  143MOL0     H19715   6.123  12.210   8.715  0.4311 -0.6832 -2.0256
  143MOL0     H19716   5.923  12.187   9.105 -0.1756 -0.2909  0.8226
  143MOL0     H19717   5.830  12.162   9.294 -1.4506 -0.8993  0.8962
  143MOL0     H19718   4.704  11.345   9.513 -0.3269 -0.9320 -0.1479
  143MOL0     H19719   4.570  11.131   9.527  1.5239  0.4956  1.5480
  143MOL0     H19720   4.096  11.083   9.715 -2.1104  0.2272  1.8431
  143MOL0     H19721   3.912  10.962   9.797  0.5776  1.2279  0.9842
  143MOL0     H19722   3.907  10.593   9.606  2.0593 -2.4480  0.2471
  143MOL0     H19723   3.875  10.495   9.748  2.2078  0.4687 -1.7397
  143MOL0     H19724   3.668  10.691   9.626 -0.9037 -0.8501 -1.5359
  143MOL0     H19725   3.639  10.588   9.766  0.2376  0.6533  0.5717
  143MOL0     H19726   3.722  10.484   9.483  1.4679  3.0163  0.6254
  143MOL0     H19727   3.648  10.390   9.616 -1.4352  1.3656  3.1841
  143MOL0     H19728   3.470  10.414   9.458  0.4139  0.3086  0.8965
  143MOL0     H19729   3.499  10.591   9.436 -0.9148  2.1631  0.6266
  143MOL0     H19730   3.260  10.632   9.770  0.2783  0.0486  1.0603
  143MOL0     H19731   4.112  10.593   9.721  2.8236  0.6049  2.3811
  143MOL0     H19732   4.384  10.677   9.545  2.3642  0.6235  1.6498
  143MOL0     H19733   4.450  10.724   9.700  0.0121  0.1581  0.5605
  143MOL0     H19734   4.353  10.587   9.688  0.8478  0.1753  1.2358
  144MOL0     O19735   2.229   4.507   1.193 -0.4363  0.9859  0.6697
  144MOL0     C19736   2.287   4.426   1.120  0.2360  0.3774  0.7125
  144MOL0     O19737   2.232   4.335   1.038 -0.2758 -0.0842 -0.3010
  144MOL0     C19738   2.104   4.291   1.067 -0.2615 -0.4910 -0.1482
  144MOL0     C19739   2.055   4.247   1.187 -0.6907  0.2133 -0.1347
  144MOL0     C19740   1.933   4.199   1.206 -0.2330  0.0556  0.1413
  144MOL0     C19741   1.845   4.194   1.099  0.7050  0.0306 -0.1124
  144MOL0     O19742   1.733   4.130   1.113  0.1562 -0.3655 -0.3076
  144MOL0     C19743   1.623   4.162   1.024 -0.1585  0.0372 -0.7347
  144MOL0     C19744   1.500   4.082   1.053  0.2642 -0.7598  0.4188
  144MOL0     C19745   1.447   4.094   1.196  0.4117  0.3821  0.1408
  144MOL0     C19746   1.299   4.039   1.195  0.2952  0.0268  0.1789
  144MOL0     C19747   1.234   4.056   1.323  0.4420  0.1565 -0.1127
  144MOL0     C19748   1.267   3.943   1.424  0.0596  0.0200  0.3829
  144MOL0     C19749   1.301   3.801   1.372 -0.6210 -0.4166  0.1092
  144MOL0     C19750   1.379   3.713   1.457 -0.7723  0.1474  0.3378
  144MOL0     N19751   1.519   3.762   1.466  0.4365 -0.1159  0.0386
  144MOL0     C19752   1.602   3.753   1.358  1.2170  0.3189 -0.2245
  144MOL0     C19753   1.707   3.835   1.389  0.1266 -0.3684 -0.3915
  144MOL0     C19754   1.822   3.846   1.287 -1.3806  0.2182 -0.4157
  144MOL0     C19755   1.967   3.841   1.339 -0.6042  1.1847  0.4804
  144MOL0     C19756   2.088   3.858   1.243 -0.3398 -0.4300  0.1848
  144MOL0     C19757   2.225   3.863   1.314 -0.0592  0.0202  0.0035
  144MOL0     O19758   2.322   3.890   1.208  0.3487  0.2627 -0.1416
  144MOL0     C19759   2.458   3.874   1.239  0.4592 -0.0105 -0.0811
  144MOL0     C19760   2.554   3.880   1.133 -0.2615  0.5451 -0.1832
  144MOL0     C19761   2.693   3.866   1.143  0.7797  1.2528 -0.6162
  144MOL0     C19762   2.789   3.869   1.030  0.1987 -0.6014  0.0078
  144MOL0     C19763   2.743   3.866   1.277  0.4720  0.0143 -0.4345
  144MOL0     C19764   2.883   3.857   1.320  0.0208  0.2139 -0.3774
  144MOL0     O19765   2.938   3.755   1.248 -0.6193 -0.0016  0.1556
  144MOL0     C19766   3.072   3.750   1.242  0.6903  0.5939 -0.6665
  144MOL0     C19767   3.137   3.755   1.117  0.2107  0.1029 -0.4859
  144MOL0     C19768   3.272   3.734   1.107  0.0085 -0.2709 -1.0375
  144MOL0     C19769   3.351   3.712   1.231  0.5843 -0.3452  0.7607
  144MOL0     O19770   3.489   3.693   1.217 -0.6042  0.6046 -0.7405
  144MOL0     C19771   3.568   3.633   1.312  0.7001 -0.2117 -0.7708
  144MOL0     C19772   3.680   3.560   1.234  0.6263  0.4662 -0.4824
  144MOL0     C19773   3.770   3.460   1.308  0.9430 -0.0492  0.6590
  144MOL0     C19774   3.869   3.536   1.404  0.2709 -0.2797  0.3128
  144MOL0     C19775   3.958   3.446   1.493  0.4417 -0.2212  0.1169
  144MOL0     C19776   4.051   3.365   1.402  0.1475 -0.1023  0.0458
  144MOL0     C19777   4.180   3.309   1.469 -0.5115  0.3222 -0.2924
  144MOL0     C19778   4.153   3.199   1.576 -0.5683  0.2034 -0.0454
  144MOL0    Cl19779   4.080   3.049   1.501 -0.2293 -0.2740  0.3027
  144MOL0     C19780   3.278   3.709   1.353 -0.3293 -1.1396  0.0944
  144MOL0     C19781   3.145   3.737   1.357 -0.2236 -0.0524 -0.0626
  144MOL0     O19782   2.922   3.927   1.423 -0.6347  0.8679  0.0006
  144MOL0     C19783   2.654   3.872   1.384  0.5644 -1.0895  0.0962
  144MOL0     C19784   2.511   3.874   1.366  0.8729  1.0680  0.3316
  144MOL0     N19785   1.699   3.868   1.524  0.2097  0.5077  0.1023
  144MOL0     N19786   1.581   3.833   1.565 -0.5305 -0.0262  0.0605
  144MOL0     C19787   1.888   4.249   0.976  0.3709  0.0537  0.5532
  144MOL0     C19788   2.017   4.297   0.959 -0.4534  0.5156 -0.7397
  144MOL0     C19789   2.427   4.421   1.134 -0.4163 -0.1819 -0.2303
  144MOL0     C19790   2.480   4.283   1.152  0.0788 -0.2426 -0.4368
  144MOL0     C19791   2.613   4.262   1.186  0.7815 -0.3614  0.3052
  144MOL0     C19792   2.703   4.368   1.193  0.8697  0.2193 -0.1263
  144MOL0     O19793   2.835   4.354   1.225  0.1187  0.4568  0.6299
  144MOL0     C19794   2.892   4.223   1.218 -0.1917  0.3788 -0.7885
  144MOL0     C19795   3.050   4.239   1.241 -0.6865  0.2585 -0.0030
  144MOL0     C19796   3.118   4.106   1.205  0.1412  0.0211  0.0960
  144MOL0     C19797   3.269   4.122   1.237 -0.0666 -0.5813 -0.0527
  144MOL0     C19798   3.342   4.167   1.115 -0.1906 -0.1090 -0.5740
  144MOL0     C19799   3.405   4.208   1.018 -0.6418 -0.1177  0.3028
  144MOL0     C19800   2.653   4.503   1.188 -0.3418 -1.0999 -0.1088
  144MOL0     C19801   2.514   4.533   1.166 -0.1264  0.1508  0.3564
  144MOL0     C19802   2.470   4.673   1.185 -0.1643 -0.9163 -0.1418
  144MOL0     H19803   2.121   4.261   1.273 -1.2963 -1.2245  0.5945
  144MOL0     H19804   1.898   4.170   1.304  1.4071  1.2490  1.1232
  144MOL0     H19805   1.652   4.131   0.923  0.5748  3.0702 -1.5588
  144MOL0     H19806   1.602   4.269   1.033  0.6474  0.2070 -0.8620
  144MOL0     H19807   1.418   4.116   0.988  1.6948  2.9647  0.3500
  144MOL0     H19808   1.522   3.976   1.034  1.1838 -0.3593 -0.8862
  144MOL0     H19809   1.509   4.018   1.245  1.4081  1.0867 -0.0069
  144MOL0     H19810   1.459   4.196   1.233 -2.5694  1.9060 -2.6731
  144MOL0     H19811   1.245   4.114   1.136 -1.1673 -0.3461  0.9969
  144MOL0     H19812   1.293   3.939   1.152 -1.2920  0.4918 -0.7905
  144MOL0     H19813   1.126   4.045   1.304  0.5563 -0.7285 -0.3262
  144MOL0     H19814   1.255   4.151   1.371  0.0284  0.9799 -1.5001
  144MOL0     H19815   1.359   3.969   1.478  0.0660  2.9672 -0.8411
  144MOL0     H19816   1.185   3.931   1.496 -0.2613 -0.0489  0.0061
  144MOL0     H19817   1.353   3.793   1.276  0.0503 -1.0888  0.5262
  144MOL0     H19818   1.207   3.746   1.360 -0.9832 -0.3646  2.3473
  144MOL0     H19819   1.330   3.713   1.554 -2.9885 -0.5479 -0.7170
  144MOL0     H19820   1.364   3.609   1.428 -4.4134  0.5760  0.2513
  144MOL0     H19821   1.580   3.709   1.261 -0.2483  0.8484 -0.1497
  144MOL0     H19822   1.808   3.942   1.238 -1.2823  0.2293 -0.4229
  144MOL0     H19823   1.817   3.759   1.220 -2.7323  1.5242 -2.1004
  144MOL0     H19824   1.976   3.927   1.406  1.4343  2.3939 -1.2154
  144MOL0     H19825   1.985   3.748   1.394  2.2916  2.3455  1.7090
  144MOL0     H19826   2.108   3.781   1.168  2.1433 -1.5849  1.8826
  144MOL0     H19827   2.065   3.948   1.186  1.4459 -0.5086 -0.7148
  144MOL0     H19828   2.219   3.945   1.385 -2.8410  1.3093 -1.5646
  144MOL0     H19829   2.238   3.763   1.356  1.5826  0.8623  1.6090
  144MOL0     H19830   2.519   3.898   1.032 -1.2860  0.0404  0.0687
  144MOL0     H19831   2.743   3.904   0.937 -0.4315 -0.1089  0.4932
  144MOL0     H19832   2.840   3.773   1.020  0.1302 -0.6868  0.4348
  144MOL0     H19833   2.862   3.946   1.054  1.4467 -0.9763 -2.3249
  144MOL0     H19834   3.082   3.796   1.033  0.0139 -0.2815 -0.5493
  144MOL0     H19835   3.319   3.719   1.011 -0.2819 -1.3435 -1.0273
  144MOL0     H19836   3.617   3.703   1.381 -1.8817  2.1375 -1.1192
  144MOL0     H19837   3.513   3.559   1.370 -1.0398  2.4886  1.3114
  144MOL0     H19838   3.631   3.503   1.155  0.3449  2.3223 -1.7115
  144MOL0     H19839   3.747   3.628   1.180 -0.9649 -0.3659 -3.7591
  144MOL0     H19840   3.827   3.395   1.241  0.4804  0.6767 -0.4744
  144MOL0     H19841   3.721   3.385   1.371  4.3008 -2.0628  1.0938
  144MOL0     H19842   3.805   3.592   1.474  0.7785 -0.5404  0.9882
  144MOL0     H19843   3.920   3.618   1.353 -0.4227 -0.5018 -0.7740
  144MOL0     H19844   4.020   3.511   1.556 -0.0714 -0.0451  0.4513
  144MOL0     H19845   3.900   3.386   1.563  3.6460 -0.5669  2.7364
  144MOL0     H19846   4.074   3.423   1.312  1.0424 -0.9276 -0.2864
  144MOL0     H19847   3.991   3.284   1.359  1.3222 -0.0656 -1.7798
  144MOL0     H19848   4.241   3.390   1.510  0.2698  0.4482 -1.6533
  144MOL0     H19849   4.249   3.260   1.399 -0.1915 -0.9100  0.8368
  144MOL0     H19850   4.094   3.234   1.661  1.0944 -0.1976  1.3549
  144MOL0     H19851   4.246   3.168   1.626 -1.5165  0.7060  2.1496
  144MOL0     H19852   3.331   3.703   1.448  2.6081  3.6178 -0.9049
  144MOL0     H19853   3.099   3.729   1.455  0.7957 -0.7136  0.3794
  144MOL0     H19854   2.691   3.881   1.486  1.0846  0.8258 -0.2050
  144MOL0     H19855   2.455   3.878   1.458 -1.6548 -0.4151 -1.0339
  144MOL0     H19856   1.819   4.255   0.893  0.1486 -2.0526  0.5242
  144MOL0     H19857   2.043   4.337   0.862  2.1328  1.4548  0.2670
  144MOL0     H19858   2.419   4.194   1.145 -1.0340  0.3708  0.9069
  144MOL0     H19859   2.648   4.160   1.199  4.4654  0.3206 -2.5059
  144MOL0     H19860   2.854   4.156   1.296  0.9041  2.2887  1.5102
  144MOL0     H19861   2.868   4.176   1.122 -4.1227  0.5157 -0.0240
  144MOL0     H19862   3.069   4.265   1.346 -0.4152  1.9797 -0.4501
  144MOL0     H19863   3.097   4.319   1.184  0.6746  0.9460  1.9757
  144MOL0     H19864   3.088   4.019   1.266 -1.1218  1.9652  2.4285
  144MOL0     H19865   3.111   4.078   1.100 -0.2563 -1.2880  0.4512
  144MOL0     H19866   3.324   4.036   1.278  0.7136 -1.0061 -1.9179
  144MOL0     H19867   3.271   4.197   1.317 -2.5934  0.8638 -1.2170
  144MOL0     H19868   3.446   4.240   0.924 -1.8396 -3.6512 -1.6142
  144MOL0     H19869   2.730   4.575   1.217 -0.0033 -1.7405  0.6083
  144MOL0     H19870   2.390   4.693   1.113  1.1817  1.1345 -1.1768
  144MOL0     H19871   2.432   4.691   1.286 -1.1629  0.7292 -0.7643
  144MOL0     H19872   2.554   4.743   1.170  1.4104 -2.6492  0.2553
  145MOL0     O19873   4.738   8.494   3.747  0.7164 -0.0818  0.4904
  145MOL0     C19874   4.663   8.573   3.804 -0.1549 -0.5999  0.2193
  145MOL0     O19875   4.674   8.620   3.931 -0.9829  0.2202  0.1383
  145MOL0     C19876   4.792   8.612   3.995 -0.2841  0.0377 -0.1823
  145MOL0     C19877   4.828   8.492   4.062  0.0642  0.2660 -0.7543
  145MOL0     C19878   4.943   8.499   4.147  0.3923  0.6172 -0.1212
  145MOL0     C19879   5.019   8.610   4.171 -0.2531  0.9429  0.5172
  145MOL0     O19880   5.133   8.593   4.250 -0.4082 -0.0185 -0.1891
  145MOL0     C19881   5.194   8.717   4.296 -0.4660  1.2596  0.2429
  145MOL0     C19882   5.292   8.698   4.420  0.3648  0.1373 -0.5886
  145MOL0     C19883   5.220   8.643   4.538  0.3198  0.1032  0.3272
  145MOL0     C19884   5.291   8.661   4.672 -0.6594  0.1482  0.4869
  145MOL0     C19885   5.230   8.591   4.789 -0.2570 -0.1824  0.0267
  145MOL0     C19886   5.331   8.516   4.884 -0.4530 -0.2424 -0.0422
  145MOL0     C19887   5.276   8.465   5.010  0.0093  0.1734  0.2312
  145MOL0     C19888   5.375   8.371   5.085 -0.4606  0.1778  0.3618
  145MOL0     N19889   5.491   8.451   5.137  0.9440  0.3394  1.2999
  145MOL0     C19890   5.537   8.450   5.265 -0.7136  0.1906  0.0048
  145MOL0     C19891   5.667   8.493   5.266 -0.6711 -0.0472  0.9706
  145MOL0     C19892   5.763   8.521   5.383 -0.5334 -0.7532 -1.2151
  145MOL0     C19893   5.912   8.526   5.335 -0.0956 -0.5987 -0.1085
  145MOL0     C19894   6.010   8.557   5.460 -0.0855  0.1270  0.0926
  145MOL0     C19895   6.151   8.581   5.413 -0.0786  0.0587 -0.0330
  145MOL0     O19896   6.237   8.546   5.517  0.5621 -0.3214  0.0707
  145MOL0     C19897   6.357   8.609   5.530 -0.4723 -0.0315 -0.1849
  145MOL0     C19898   6.426   8.674   5.428  0.5489  0.2380 -0.3349
  145MOL0     C19899   6.535   8.757   5.454 -0.4054  0.0866 -0.5941
  145MOL0     C19900   6.613   8.817   5.329 -0.4394  0.0219 -0.2049
  145MOL0     C19901   6.587   8.761   5.594  1.3754  0.0660 -0.1378
  145MOL0     C19902   6.716   8.828   5.638  0.4713 -0.0617  0.2750
  145MOL0     O19903   6.727   8.907   5.758  0.3653  0.2680  1.0188
  145MOL0     C19904   6.852   8.960   5.778  0.3122  0.2935  0.0316
  145MOL0     C19905   6.954   8.871   5.816 -0.1251 -0.0787  0.9973
  145MOL0     C19906   7.081   8.926   5.816  0.0361 -0.3908  0.3853
  145MOL0     C19907   7.113   9.055   5.805 -0.0620 -0.9338  0.6088
  145MOL0     O19908   7.234   9.110   5.811  0.0195  0.4946 -0.3365
  145MOL0     C19909   7.344   9.060   5.888  0.3377  0.2154  0.0287
  145MOL0     C19910   7.469   9.045   5.800 -0.3238 -0.4277 -0.1108
  145MOL0     C19911   7.464   8.914   5.724 -0.5851  0.2760  0.5112
  145MOL0     C19912   7.428   8.932   5.575  0.0991  0.8522 -0.8259
  145MOL0     C19913   7.548   8.970   5.480  0.9418 -0.4069  0.2660
  145MOL0     C19914   7.591   8.853   5.385  0.5323  0.1217 -0.6275
  145MOL0     C19915   7.713   8.897   5.303 -0.4731 -0.1958  0.5742
  145MOL0     C19916   7.717   8.821   5.174  0.6013 -0.4488  0.3458
  145MOL0    Cl19917   7.761   8.654   5.207  0.3866 -0.0233 -0.0092
  145MOL0     C19918   7.010   9.144   5.761  0.0296 -0.1800  0.6110
  145MOL0     C19919   6.870   9.103   5.755 -0.2823  0.3304  0.0794
  145MOL0     O19920   6.805   8.798   5.563  0.0393 -0.6473 -0.7298
  145MOL0     C19921   6.515   8.696   5.692  1.1815  0.8058 -0.4558
  145MOL0     C19922   6.402   8.616   5.666  0.5183  0.3209  0.3641
  145MOL0     N19923   5.697   8.516   5.132  0.4037  0.3061 -0.0403
  145MOL0     N19924   5.590   8.505   5.058 -0.2010  0.4979 -0.1924
  145MOL0     C19925   4.987   8.724   4.102  0.0722  0.0678 -1.0243
  145MOL0     C19926   4.875   8.724   4.022 -0.3336  0.3391  0.9419
  145MOL0     C19927   4.551   8.630   3.724 -0.0577  0.6907 -0.1862
  145MOL0     C19928   4.442   8.681   3.794  0.3004 -1.0384  0.0808
  145MOL0     C19929   4.324   8.719   3.733  0.5977 -0.0357 -0.2393
  145MOL0     C19930   4.303   8.696   3.598 -0.6255 -0.0509  0.0980
  145MOL0     O19931   4.185   8.714   3.521 -0.2829 -0.5367 -0.3954
  145MOL0     C19932   4.053   8.700   3.580 -0.2032 -0.3059  0.0381
  145MOL0     C19933   3.989   8.834   3.599 -0.5714  1.1735 -1.1397
  145MOL0     C19934   3.923   8.902   3.481  0.3435  0.1001 -0.1371
  145MOL0     C19935   3.877   9.040   3.528  0.1526 -0.5742  0.2851
  145MOL0     C19936   3.843   9.116   3.401  0.4292 -0.9913 -0.2974
  145MOL0     C19937   3.833   9.181   3.298  0.0985 -0.7571 -0.3775
  145MOL0     C19938   4.409   8.645   3.524  0.6461  0.5586  0.3095
  145MOL0     C19939   4.528   8.609   3.590  0.3624  0.1461  0.2284
  145MOL0     C19940   4.633   8.549   3.492  0.5161 -0.6553 -0.3127
  145MOL0     H19941   4.773   8.399   4.050 -2.2712  1.5722 -0.7338
  145MOL0     H19942   4.970   8.405   4.194  1.0446 -0.0462 -1.7191
  145MOL0     H19943   5.114   8.782   4.333  0.0024  0.3706  3.1213
  145MOL0     H19944   5.237   8.774   4.213 -0.7223 -1.4809 -1.8795
  145MOL0     H19945   5.374   8.633   4.388 -0.0355 -0.0282 -1.2972
  145MOL0     H19946   5.333   8.798   4.439  0.4968  0.3630 -1.9204
  145MOL0     H19947   5.120   8.688   4.546  1.9391  4.0792  0.7535
  145MOL0     H19948   5.216   8.536   4.517 -0.3848  0.2993 -0.6034
  145MOL0     H19949   5.392   8.622   4.657 -0.7475 -0.7891  2.0963
  145MOL0     H19950   5.311   8.766   4.697  4.0383 -1.3220  4.4759
  145MOL0     H19951   5.164   8.515   4.746  0.6518 -1.3362  0.6381
  145MOL0     H19952   5.183   8.668   4.852  1.7044  2.9390 -2.0084
  145MOL0     H19953   5.382   8.442   4.821  1.7529 -0.2774  1.6793
  145MOL0     H19954   5.411   8.585   4.911 -0.4531 -0.9081  1.8304
  145MOL0     H19955   5.187   8.406   4.986  1.3044 -1.1536 -1.5796
  145MOL0     H19956   5.253   8.551   5.074  1.9257  0.6250  0.3577
  145MOL0     H19957   5.331   8.323   5.173  0.0958  1.1996  1.2216
  145MOL0     H19958   5.403   8.295   5.012 -1.1850 -0.0847  0.3476
  145MOL0     H19959   5.483   8.409   5.351 -1.6191 -0.9789 -1.0842
  145MOL0     H19960   5.755   8.457   5.472  0.3730  2.2508  1.1952
  145MOL0     H19961   5.747   8.622   5.423  1.3426 -0.5819 -0.8003
  145MOL0     H19962   5.937   8.429   5.292 -2.3480 -1.1017 -0.4037
  145MOL0     H19963   5.914   8.600   5.254  1.6501  0.9293  1.2327
  145MOL0     H19964   5.982   8.644   5.519 -1.1282 -0.5077  0.5634
  145MOL0     H19965   6.010   8.474   5.531 -0.9639 -0.9020 -1.0432
  145MOL0     H19966   6.170   8.516   5.327 -0.2642  1.5509 -1.2508
  145MOL0     H19967   6.164   8.684   5.380  1.1056 -0.3886 -1.0452
  145MOL0     H19968   6.394   8.649   5.327  2.4807  1.4743 -1.3130
  145MOL0     H19969   6.562   8.806   5.233  2.2776 -3.8190 -1.4363
  145MOL0     H19970   6.716   8.784   5.311 -0.8315  0.1682 -3.0626
  145MOL0     H19971   6.623   8.926   5.342  3.4381 -0.1556 -0.3523
  145MOL0     H19972   6.956   8.766   5.844  2.3910 -0.5964 -0.7618
  145MOL0     H19973   7.171   8.869   5.838  0.6481  1.0457  1.8250
  145MOL0     H19974   7.368   9.120   5.976 -0.7915 -1.2839  1.4012
  145MOL0     H19975   7.325   8.963   5.933  0.0209  1.6629  3.3106
  145MOL0     H19976   7.455   9.126   5.727 -2.3040 -0.6640 -0.0454
  145MOL0     H19977   7.566   9.059   5.849  1.1981  2.2649 -3.4442
  145MOL0     H19978   7.383   8.844   5.748  2.5559 -2.7313  3.5139
  145MOL0     H19979   7.557   8.855   5.725 -0.9367 -0.3225  2.7205
  145MOL0     H19980   7.340   8.996   5.583 -0.3285  0.0128  2.3055
  145MOL0     H19981   7.399   8.832   5.541  0.9820  0.3453 -0.1300
  145MOL0     H19982   7.522   9.042   5.402  2.6950 -1.3934 -1.3231
  145MOL0     H19983   7.630   9.004   5.544  2.2335 -1.5140 -0.7402
  145MOL0     H19984   7.511   8.829   5.314 -0.4529  1.2483  0.0721
  145MOL0     H19985   7.613   8.767   5.450 -0.5631  1.2743  1.3673
  145MOL0     H19986   7.805   8.893   5.363 -0.3979  0.4794  0.5164
  145MOL0     H19987   7.703   9.003   5.278 -4.4892  0.3845  3.6040
  145MOL0     H19988   7.797   8.866   5.114  4.1676 -1.7524  3.7143
  145MOL0     H19989   7.626   8.836   5.115 -0.5519  1.5037  2.4762
  145MOL0     H19990   7.033   9.245   5.727  1.5698 -0.6930  0.0480
  145MOL0     H19991   6.791   9.172   5.726  0.5489  1.7739  1.1335
  145MOL0     H19992   6.546   8.704   5.796  1.5553 -3.6378 -0.0107
  145MOL0     H19993   6.335   8.578   5.742 -2.0748  3.6565  0.0025
  145MOL0     H19994   5.047   8.814   4.109 -0.0932  0.0514  1.5754
  145MOL0     H19995   4.853   8.816   3.969 -1.1206 -1.0296 -1.2139
  145MOL0     H19996   4.452   8.700   3.901 -1.0234  0.8272 -0.0708
  145MOL0     H19997   4.234   8.740   3.791 -0.4795 -2.9944 -0.6770
  145MOL0     H19998   3.990   8.632   3.521 -0.3824 -1.0196  1.0238
  145MOL0     H19999   4.060   8.639   3.671 -0.5010 -0.6047 -0.1345
  145MOL0     H20000   4.053   8.900   3.658 -0.6565  0.2388  0.0394
  145MOL0     H20001   3.907   8.823   3.671  0.9126  1.5995  0.7115
  145MOL0     H20002   3.994   8.913   3.399 -0.8273 -0.0558 -1.2006
  145MOL0     H20003   3.831   8.853   3.448 -0.5683  1.3618  0.4155
  145MOL0     H20004   3.957   9.086   3.586  0.0792 -0.5851  0.3930
  145MOL0     H20005   3.788   9.018   3.589  1.6162 -2.5049  1.8342
  145MOL0     H20006   3.804   9.220   3.202  1.0232  0.6599 -0.1159
  145MOL0     H20007   4.393   8.634   3.417  1.0536  3.1920 -0.1115
  145MOL0     H20008   4.635   8.442   3.515  0.3338 -0.1413  2.3668
  145MOL0     H20009   4.605   8.561   3.387  3.6102  0.3066 -1.1507
  145MOL0     H20010   4.728   8.603   3.503  0.2816 -0.4353  0.7417
  146MOL0     O20011  11.147   8.066   8.739 -0.4135  0.4091  0.0178
  146MOL0     C20012  11.135   7.948   8.704 -0.3429  1.3028  0.3038
  146MOL0     O20013  11.218   7.875   8.616  0.0985 -0.2431 -0.2721
  146MOL0     C20014  11.324   7.944   8.559  0.7483 -0.2414 -0.1164
  146MOL0     C20015  11.326   7.938   8.423  0.4503  0.0720 -0.9545
  146MOL0     C20016  11.438   7.984   8.358 -0.0109  0.5146  0.2434
  146MOL0     C20017  11.558   8.038   8.425  0.3401 -0.2372  0.2501
  146MOL0     O20018  11.662   8.107   8.370 -1.2317 -0.0725 -0.1269
  146MOL0     C20019  11.662   8.122   8.223  0.2754  1.0837 -1.0894
  146MOL0     C20020  11.793   8.181   8.190 -0.4471 -0.0231 -0.5732
  146MOL0     C20021  11.776   8.216   8.047  0.3391 -0.0245 -0.1666
  146MOL0     C20022  11.905   8.271   7.992  0.7762  0.0761 -0.3422
  146MOL0     C20023  11.909   8.267   7.841 -0.1178 -0.2130  0.4682
  146MOL0     C20024  11.929   8.119   7.791  0.9341 -0.7768  0.6292
  146MOL0     C20025  11.948   8.119   7.636 -0.1535 -0.3412 -0.7521
  146MOL0     C20026  11.951   7.978   7.570  0.4100 -0.3273  0.3901
  146MOL0     N20027  11.824   7.893   7.569 -0.3995 -0.7628 -0.2454
  146MOL0     C20028  11.784   7.818   7.467  0.0982  0.8712  0.3540
  146MOL0     C20029  11.647   7.811   7.479  0.0039 -0.0908  0.4261
  146MOL0     C20030  11.544   7.752   7.382 -0.7550  0.3118  0.0868
  146MOL0     C20031  11.545   7.595   7.381  0.6082 -0.1995  1.1584
  146MOL0     C20032  11.435   7.543   7.287 -0.2148 -0.3452  0.2122
  146MOL0     C20033  11.442   7.397   7.274 -0.5150  0.1116  0.9189
  146MOL0     O20034  11.367   7.341   7.160  0.0044 -0.5570 -0.3320
  146MOL0     C20035  11.233   7.324   7.165  0.0906  0.4951 -0.4202
  146MOL0     C20036  11.145   7.345   7.269  1.0140 -0.4238 -0.0645
  146MOL0     C20037  11.005   7.322   7.252 -0.6867 -0.5544  0.2029
  146MOL0     C20038  10.919   7.373   7.360 -0.9086  0.1883  0.4584
  146MOL0     C20039  10.959   7.258   7.134  0.0816  0.6441 -0.8978
  146MOL0     C20040  10.825   7.207   7.121 -0.3364  0.5245 -0.2225
  146MOL0     O20041  10.757   7.241   7.009 -0.1111 -0.9686  0.6104
  146MOL0     C20042  10.629   7.178   6.988 -1.1497 -0.5959 -0.4057
  146MOL0     C20043  10.613   7.112   6.871  0.5097  0.9449  0.1533
  146MOL0     C20044  10.495   7.037   6.848  0.2521  0.0303 -0.0414
  146MOL0     C20045  10.389   7.050   6.931  0.3431  0.2954  0.5001
  146MOL0     O20046  10.268   6.997   6.889 -0.0362 -0.0075 -0.4311
  146MOL0     C20047  10.166   6.983   6.980 -0.2747  0.0343 -0.1662
  146MOL0     C20048  10.067   6.884   6.920  0.1610 -0.7283  0.6940
  146MOL0     C20049   9.967   6.828   7.027 -0.4775 -0.2587 -0.6990
  146MOL0     C20050   9.889   6.929   7.106 -0.2169  0.6233 -0.8296
  146MOL0     C20051   9.807   6.865   7.223 -0.1044 -0.2252 -0.7591
  146MOL0     C20052   9.747   6.976   7.302  0.4997  0.0710 -0.2941
  146MOL0     C20053   9.596   6.998   7.270  0.0716  0.1837 -0.1959
  146MOL0     C20054   9.524   7.086   7.372  0.3901  0.2408  0.2790
  146MOL0    Cl20055   9.353   7.104   7.329 -0.3472  0.3956 -0.1664
  146MOL0     C20056  10.398   7.129   7.045 -0.8691  0.0075  1.0911
  146MOL0     C20057  10.521   7.193   7.074  0.2426 -0.0982 -1.0122
  146MOL0     O20058  10.782   7.139   7.217  0.8739 -0.4315 -0.2977
  146MOL0     C20059  11.049   7.213   7.041  0.4281 -0.2099  0.3945
  146MOL0     C20060  11.178   7.261   7.045 -0.1534  1.4492  0.0721
  146MOL0     N20061  11.601   7.880   7.587  0.2578 -0.4650 -0.3946
  146MOL0     N20062  11.710   7.930   7.638 -0.4817  0.2285  0.3799
  146MOL0     C20063  11.554   8.043   8.566  0.0443  0.4917 -0.4241
  146MOL0     C20064  11.435   7.991   8.634  0.3902  0.1849 -0.2392
  146MOL0     C20065  11.010   7.873   8.754  0.3525  0.3440 -0.1748
  146MOL0     C20066  10.963   7.766   8.675  0.0088 -0.4830 -0.4548
  146MOL0     C20067  10.846   7.700   8.710 -0.4078  0.1551 -0.1528
  146MOL0     C20068  10.773   7.735   8.821  0.7956  0.0518  0.7377
  146MOL0     O20069  10.668   7.661   8.855  0.2897 -0.4920 -0.1131
  146MOL0     C20070  10.589   7.686   8.974 -0.2197 -0.2587  0.1097
  146MOL0     C20071  10.487   7.579   8.995  0.0884 -0.5541  0.0106
  146MOL0     C20072  10.400   7.637   9.112 -0.4801  1.1105  0.1930
  146MOL0     C20073  10.293   7.541   9.159  0.2510  0.4049  0.0509
  146MOL0     C20074  10.189   7.601   9.231  0.1330 -1.2148 -1.0936
  146MOL0     C20075  10.099   7.642   9.303  0.7151 -0.5468 -0.5288
  146MOL0     C20076  10.816   7.845   8.896  0.0568  0.1190  0.2567
  146MOL0     C20077  10.926   7.924   8.859  0.9012 -0.9016  0.6446
  146MOL0     C20078  10.966   8.032   8.950  0.3485 -0.0354 -0.2570
  146MOL0     H20079  11.247   7.889   8.367 -1.4760  0.4870  1.2181
  146MOL0     H20080  11.431   7.982   8.249 -1.1111 -0.1310  0.3045
  146MOL0     H20081  11.584   8.196   8.203 -0.5569  0.5830  0.2154
  146MOL0     H20082  11.654   8.023   8.177  1.9239 -1.5767  3.6428
  146MOL0     H20083  11.813   8.271   8.248  1.0325 -0.6115 -0.1246
  146MOL0     H20084  11.875   8.110   8.202  0.4501  1.2768  1.6645
  146MOL0     H20085  11.753   8.126   7.989 -2.8187  0.7687 -0.3628
  146MOL0     H20086  11.693   8.284   8.025 -0.7673 -1.6027 -1.1235
  146MOL0     H20087  11.907   8.377   8.016 -0.5467 -0.0513  0.4316
  146MOL0     H20088  11.991   8.223   8.039  4.0674  0.3632 -5.3014
  146MOL0     H20089  11.982   8.339   7.801 -2.1455  0.8193 -1.5738
  146MOL0     H20090  11.811   8.297   7.803  0.0970  2.9530  2.0577
  146MOL0     H20091  12.018   8.074   7.836 -0.4585 -1.3675  2.9637
  146MOL0     H20092  11.842   8.055   7.811 -0.3684 -0.7474 -3.7967
  146MOL0     H20093  12.034   8.182   7.614  0.2296 -0.3489  0.6359
  146MOL0     H20094  11.861   8.173   7.598  0.0442 -0.1731 -0.9659
  146MOL0     H20095  11.981   8.002   7.468 -0.0811 -1.9903 -0.1797
  146MOL0     H20096  12.034   7.912   7.598  0.0976 -1.2999 -0.8874
  146MOL0     H20097  11.840   7.757   7.396 -0.8049 -3.2095  2.8046
  146MOL0     H20098  11.567   7.783   7.280  0.5278  0.7388  0.4804
  146MOL0     H20099  11.443   7.780   7.412 -0.8095  1.3522 -0.9825
  146MOL0     H20100  11.643   7.561   7.344  0.1709 -0.5411  0.2869
  146MOL0     H20101  11.527   7.549   7.478  2.0526 -1.2120  0.9813
  146MOL0     H20102  11.340   7.581   7.327 -0.1400 -0.1482  0.2039
  146MOL0     H20103  11.445   7.587   7.188  1.0493  1.1612  0.9724
  146MOL0     H20104  11.546   7.367   7.259 -0.9773 -1.8357  1.3839
  146MOL0     H20105  11.403   7.364   7.371  0.6280  0.6733  1.5947
  146MOL0     H20106  11.194   7.387   7.357  0.3033  1.1363 -0.3811
  146MOL0     H20107  10.982   7.431   7.428 -0.0157  0.0697 -0.2399
  146MOL0     H20108  10.869   7.294   7.416  0.7865  0.3325  2.3272
  146MOL0     H20109  10.850   7.437   7.304 -2.7733 -1.7960  0.3632
  146MOL0     H20110  10.692   7.114   6.797  1.7848  3.9912  1.4392
  146MOL0     H20111  10.485   6.969   6.763  3.2002 -0.4945 -0.0793
  146MOL0     H20112  10.202   6.937   7.072  1.4328 -0.9238 -1.2640
  146MOL0     H20113  10.115   7.079   6.991 -0.2028  0.1515 -0.7855
  146MOL0     H20114  10.021   6.950   6.846  0.1226 -0.5520  0.8778
  146MOL0     H20115  10.117   6.807   6.859 -0.7860  1.1857 -2.7996
  146MOL0     H20116  10.024   6.770   7.100 -2.4412  0.9438  1.9196
  146MOL0     H20117   9.887   6.772   6.978 -1.5660 -0.3510  1.1245
  146MOL0     H20118   9.827   6.986   7.036 -0.3694  4.7902  2.3275
  146MOL0     H20119   9.964   6.995   7.149 -0.9803  0.4098  0.9377
  146MOL0     H20120   9.734   6.791   7.192 -1.8502  0.6390  1.0403
  146MOL0     H20121   9.867   6.809   7.296  0.2882  2.1243  0.8369
  146MOL0     H20122   9.786   7.071   7.265 -0.8238  0.0838 -1.7885
  146MOL0     H20123   9.761   6.957   7.409 -1.8015 -5.7089 -0.6431
  146MOL0     H20124   9.558   6.896   7.257  2.8364 -0.7279 -2.2787
  146MOL0     H20125   9.585   7.050   7.174 -2.7139  1.5066  0.7310
  146MOL0     H20126   9.562   7.185   7.398 -0.5260  0.2431  1.7170
  146MOL0     H20127   9.535   7.036   7.469  1.3298  2.5782  1.4601
  146MOL0     H20128  10.315   7.149   7.111 -0.9429 -1.6987  1.5775
  146MOL0     H20129  10.524   7.255   7.163  0.5115 -2.0439  0.3982
  146MOL0     H20130  11.020   7.152   6.955 -0.0943 -1.3642  1.3562
  146MOL0     H20131  11.245   7.237   6.963 -0.8163  0.3585 -0.1784
  146MOL0     H20132  11.635   8.091   8.620 -0.1022 -0.3555  0.5874
  146MOL0     H20133  11.439   8.003   8.742  4.4214  0.1616 -0.2233
  146MOL0     H20134  11.039   7.726   8.608  0.4792  1.7226 -1.3187
  146MOL0     H20135  10.822   7.612   8.650  3.1134 -0.0381 -1.4899
  146MOL0     H20136  10.666   7.686   9.052  1.3721 -0.0640 -1.3840
  146MOL0     H20137  10.541   7.784   8.963 -0.5150 -0.3989  0.1418
  146MOL0     H20138  10.529   7.479   9.015 -1.1813 -1.3277 -1.0198
  146MOL0     H20139  10.415   7.562   8.915 -1.4107  0.1289  1.1595
  146MOL0     H20140  10.463   7.654   9.200 -1.0134 -2.0729  1.3298
  146MOL0     H20141  10.347   7.727   9.080  0.8565  0.9658 -2.7673
  146MOL0     H20142  10.333   7.460   9.220 -0.3048 -3.1275 -3.7993
  146MOL0     H20143  10.251   7.482   9.077 -0.8783  1.6611 -0.3162
  146MOL0     H20144  10.014   7.677   9.359  1.2263 -0.5287  0.2547
  146MOL0     H20145  10.762   7.874   8.985 -0.8229  1.0512 -0.5553
  146MOL0     H20146  11.075   8.024   8.962  0.2684 -0.7469  0.0785
  146MOL0     H20147  10.940   8.129   8.907  1.1961 -0.3847 -1.6330
  146MOL0     H20148  10.931   8.014   9.052  2.3817 -2.2638  0.1496
  147MOL0     O20149   2.378   7.477   9.887 -0.2735  0.1215 -0.1034
  147MOL0     C20150   2.311   7.575   9.880  0.0254  0.5313 -0.3274
  147MOL0     O20151   2.334   7.683   9.954  0.3225  0.5126  0.5880
  147MOL0     C20152   2.433   7.674  10.053  0.0016 -0.3841  0.2680
  147MOL0     C20153   2.549   7.738  10.027 -0.5443  0.2695  0.2677
  147MOL0     C20154   2.642   7.749  10.128 -0.0985  0.1715 -0.0897
  147MOL0     C20155   2.631   7.675  10.252 -0.2004 -0.4254  0.0587
  147MOL0     O20156   2.720   7.688  10.356  0.7610 -0.0712 -1.0542
  147MOL0     C20157   2.837   7.767  10.339 -0.3857  0.7492  0.3273
  147MOL0     C20158   2.911   7.753  10.473 -0.4164  0.5711  0.1248
  147MOL0     C20159   3.024   7.858  10.462  0.1002 -0.5517  0.6506
  147MOL0     C20160   3.126   7.833  10.580  0.0971 -0.3678  0.0694
  147MOL0     C20161   3.255   7.901  10.532 -0.3074 -0.6424  0.0433
  147MOL0     C20162   3.355   7.927  10.635 -0.1338 -0.0193  0.2631
  147MOL0     C20163   3.475   7.991  10.583  0.7294 -0.6002  0.5916
  147MOL0     C20164   3.576   7.890  10.516  1.0088 -0.4555  0.6877
  147MOL0     N20165   3.717   7.938  10.523  0.0616  0.2573  0.4006
  147MOL0     C20166   3.787   8.024  10.435  0.4108 -0.5327  0.5314
  147MOL0     C20167   3.911   8.031  10.487  0.3934  0.1165  1.2685
  147MOL0     C20168   4.026   8.117  10.440  0.5097  0.1090  0.5665
  147MOL0     C20169   4.000   8.265  10.475 -0.4462 -0.9046  0.1739
  147MOL0     C20170   4.127   8.347  10.493 -0.1248  0.4140 -0.2500
  147MOL0     C20171   4.234   8.339  10.379 -0.3283  0.2476  0.5744
  147MOL0     O20172   4.168   8.340  10.253  0.1830 -0.6676  0.4927
  147MOL0     C20173   4.261   8.353  10.144 -1.3236  0.5824 -0.4085
  147MOL0     C20174   4.208   8.373  10.019 -0.2374  1.1241  0.2889
  147MOL0     C20175   4.289   8.391   9.904 -0.0984 -0.0425  0.5060
  147MOL0     C20176   4.199   8.410   9.779  0.1104 -0.2905  0.2267
  147MOL0     C20177   4.430   8.385   9.917  0.0815 -0.6032  0.5132
  147MOL0     C20178   4.516   8.400   9.800  0.0102  0.2487  0.0442
  147MOL0     O20179   4.478   8.358   9.681 -0.2690  0.7296 -0.3446
  147MOL0     C20180   4.576   8.330   9.588 -0.2148  0.1939 -0.5111
  147MOL0     C20181   4.570   8.410   9.471 -0.6061  0.3057  0.2048
  147MOL0     C20182   4.660   8.383   9.366 -0.5720 -0.6962  0.9230
  147MOL0     C20183   4.746   8.270   9.377  0.3361 -0.0837  0.8209
  147MOL0     O20184   4.847   8.241   9.282  0.2178  0.0591 -0.1312
  147MOL0     C20185   4.820   8.264   9.145  0.3024 -0.4809  0.0113
  147MOL0     C20186   4.919   8.194   9.055  0.9073 -0.1313 -1.0737
  147MOL0     C20187   5.058   8.270   9.035 -0.7051  0.0358  0.0735
  147MOL0     C20188   5.171   8.178   8.992  0.9119 -0.1368  0.2144
  147MOL0     C20189   5.297   8.257   8.976 -0.1391 -0.0616 -0.7592
  147MOL0     C20190   5.415   8.171   8.955 -1.3932 -1.2737  0.3311
  147MOL0     C20191   5.546   8.256   8.946 -0.7974  0.1481 -0.5456
  147MOL0     C20192   5.671   8.179   8.968  0.0447 -0.3957  0.1848
  147MOL0    Cl20193   5.672   8.116   9.135 -0.0737 -0.3389  0.1924
  147MOL0     C20194   4.743   8.195   9.491 -0.6989 -0.0837 -0.6067
  147MOL0     C20195   4.653   8.222   9.597 -0.2004 -0.4320 -0.7576
  147MOL0     O20196   4.614   8.470   9.822  0.6853 -0.1790 -0.4955
  147MOL0     C20197   4.492   8.371  10.039 -0.0282 -0.3234 -0.1148
  147MOL0     C20198   4.407   8.357  10.154 -0.8228  0.5996 -0.6263
  147MOL0     N20199   3.920   7.951  10.598  0.5002 -0.5007 -0.7200
  147MOL0     N20200   3.800   7.898  10.628 -0.0035  0.1059 -0.4053
  147MOL0     C20201   2.523   7.597  10.267  0.0244 -0.0996  0.4497
  147MOL0     C20202   2.416   7.604  10.169  0.0129 -0.0167 -0.8994
  147MOL0     C20203   2.208   7.586   9.774 -0.6317  0.5308 -0.2099
  147MOL0     C20204   2.124   7.705   9.778  0.3198 -0.1257 -0.2073
  147MOL0     C20205   2.014   7.713   9.691 -0.3793 -0.3069  1.3100
  147MOL0     C20206   1.969   7.604   9.617 -0.3741 -0.2642 -0.5090
  147MOL0     O20207   1.862   7.594   9.531  0.3566 -0.3515  0.2076
  147MOL0     C20208   1.815   7.718   9.465  0.1461  0.1335  0.6001
  147MOL0     C20209   1.669   7.750   9.502 -0.4670  0.2323  0.0820
  147MOL0     C20210   1.625   7.881   9.445 -0.6927 -0.8250  0.7356
  147MOL0     C20211   1.476   7.873   9.451  0.1713 -0.5052  0.0211
  147MOL0     C20212   1.409   7.994   9.393 -0.0821  0.2404 -0.3997
  147MOL0     C20213   1.364   8.105   9.357 -0.6408 -0.2079 -0.3600
  147MOL0     C20214   2.056   7.499   9.619 -0.2616 -0.4341 -0.7115
  147MOL0     C20215   2.163   7.478   9.696 -0.0041  0.8023  0.6162
  147MOL0     C20216   2.222   7.331   9.692  0.3220 -0.7600 -0.0106
  147MOL0     H20217   2.563   7.788   9.931  2.9140 -2.9385 -1.1592
  147MOL0     H20218   2.732   7.808  10.114 -1.7781  2.5607 -1.4204
  147MOL0     H20219   2.813   7.870  10.314  1.8184  0.7945 -2.0461
  147MOL0     H20220   2.903   7.726  10.262 -1.1539  1.5417 -0.7817
  147MOL0     H20221   2.853   7.766  10.565  1.6233 -1.2199  1.7644
  147MOL0     H20222   2.955   7.653  10.475 -0.7410  0.4384  0.9815
  147MOL0     H20223   3.069   7.832  10.365 -3.5754  0.5350 -1.5462
  147MOL0     H20224   2.992   7.962  10.456  0.1151 -0.4257  2.3269
  147MOL0     H20225   3.093   7.869  10.678 -0.5875 -1.5270  0.2863
  147MOL0     H20226   3.133   7.725  10.599 -0.1614 -0.5533 -0.8219
  147MOL0     H20227   3.220   7.996  10.492  1.2991  0.2249  0.6513
  147MOL0     H20228   3.293   7.841  10.449 -0.5078  2.3297 -2.3407
  147MOL0     H20229   3.309   7.985  10.715  0.6846  1.3414 -0.2186
  147MOL0     H20230   3.371   7.835  10.692  0.7876  1.4366  2.4652
  147MOL0     H20231   3.526   8.034  10.669 -2.0530  0.7209  1.6715
  147MOL0     H20232   3.450   8.059  10.501  1.5399 -1.0080 -0.0071
  147MOL0     H20233   3.566   7.793  10.566 -1.7172 -0.3383  0.4959
  147MOL0     H20234   3.544   7.868  10.414 -0.6325 -1.1093  1.3136
  147MOL0     H20235   3.753   8.088  10.354 -2.3209 -1.8995  0.4882
  147MOL0     H20236   4.032   8.113  10.331 -0.4761  1.4997  0.4516
  147MOL0     H20237   4.119   8.078  10.483  0.7165  0.3434  0.3320
  147MOL0     H20238   3.941   8.315  10.398  1.3472 -0.9859 -1.3347
  147MOL0     H20239   3.944   8.284  10.567  1.2084  0.9261  0.8813
  147MOL0     H20240   4.105   8.453  10.510  1.1132  0.3079  2.5430
  147MOL0     H20241   4.175   8.319  10.587  2.1946 -0.3701 -1.5723
  147MOL0     H20242   4.309   8.418  10.387  0.5411 -0.1511 -2.3410
  147MOL0     H20243   4.288   8.244  10.384  1.3201  1.0253 -1.2781
  147MOL0     H20244   4.100   8.385  10.023 -0.1836  1.8891 -0.3617
  147MOL0     H20245   4.215   8.508   9.734  0.0170 -0.2984  0.1764
  147MOL0     H20246   4.093   8.391   9.796  0.7941 -2.5468  2.5383
  147MOL0     H20247   4.231   8.330   9.711  0.3063 -0.9706  1.0947
  147MOL0     H20248   4.504   8.496   9.460 -1.0555 -0.0837 -0.2024
  147MOL0     H20249   4.675   8.450   9.282 -0.1019 -0.6752  1.0227
  147MOL0     H20250   4.721   8.237   9.107  0.4962 -0.0164 -0.8366
  147MOL0     H20251   4.827   8.372   9.130  2.1273 -0.6815 -0.8170
  147MOL0     H20252   4.930   8.092   9.091 -2.0006  0.8497  3.2526
  147MOL0     H20253   4.876   8.188   8.954 -1.5845 -1.0921 -0.0363
  147MOL0     H20254   5.104   8.321   9.120  3.3556  0.3467 -2.0200
  147MOL0     H20255   5.051   8.351   8.962 -1.1666  0.3111  0.4170
  147MOL0     H20256   5.143   8.121   8.903  2.3170 -0.6625  0.0759
  147MOL0     H20257   5.170   8.106   9.075 -0.1008  0.8540  1.0939
  147MOL0     H20258   5.287   8.334   8.898 -0.1989  0.5679 -0.1398
  147MOL0     H20259   5.301   8.318   9.066 -1.0760 -0.6011 -0.3451
  147MOL0     H20260   5.407   8.126   8.855  1.1470  2.4019 -1.7798
  147MOL0     H20261   5.417   8.096   9.034 -0.2099 -0.0003  1.5489
  147MOL0     H20262   5.544   8.332   9.025  2.1960 -0.1184 -0.0946
  147MOL0     H20263   5.555   8.305   8.849 -1.6215  1.8154  0.1577
  147MOL0     H20264   5.758   8.245   8.962 -0.7817  0.6449 -0.9886
  147MOL0     H20265   5.690   8.101   8.894  1.2847  0.7690 -0.7818
  147MOL0     H20266   4.798   8.101   9.493 -1.2972 -0.4885 -1.9657
  147MOL0     H20267   4.666   8.167   9.690  0.7025  0.6341 -0.2232
  147MOL0     H20268   4.600   8.378  10.045  0.0018  1.0140 -1.8072
  147MOL0     H20269   4.449   8.347  10.254 -0.6649 -2.2793 -0.9062
  147MOL0     H20270   2.499   7.533  10.352 -2.4644 -0.3574 -0.3372
  147MOL0     H20271   2.319   7.555  10.177  0.2797 -0.4097  0.0398
  147MOL0     H20272   2.149   7.797   9.829 -2.2956  0.4549  0.1982
  147MOL0     H20273   1.950   7.800   9.684 -0.1756 -0.1060  1.8844
  147MOL0     H20274   1.874   7.810   9.473 -0.6339  0.4891  3.2246
  147MOL0     H20275   1.808   7.697   9.358 -0.7370  2.7142  0.0896
  147MOL0     H20276   1.663   7.748   9.611  2.8853  0.6035  0.3828
  147MOL0     H20277   1.616   7.664   9.459 -1.2750 -0.7036  2.7652
  147MOL0     H20278   1.649   7.963   9.514 -0.4215 -1.3862  1.3161
  147MOL0     H20279   1.664   7.896   9.344  0.1754 -3.7173  0.5720
  147MOL0     H20280   1.449   7.875   9.557  0.9480 -2.1373  0.2788
  147MOL0     H20281   1.437   7.780   9.408 -2.0643  1.0331 -1.4923
  147MOL0     H20282   1.346   8.210   9.348  1.3182  0.0388 -2.1858
  147MOL0     H20283   2.028   7.408   9.567 -0.2993  0.6568 -2.7003
  147MOL0     H20284   2.198   7.277   9.784 -1.0497 -1.6882 -0.8719
  147MOL0     H20285   2.182   7.268   9.612  0.7618  0.9739 -1.6765
  147MOL0     H20286   2.331   7.336   9.680  1.0060 -1.7832  4.0883
  148MOL0     O20287  10.752   7.259   4.348  0.0427  0.4661  0.0927
  148MOL0     C20288  10.664   7.343   4.317 -0.1138  0.0396 -0.0737
  148MOL0     O20289  10.685   7.462   4.257  0.6134 -0.5751 -0.1217
  148MOL0     C20290  10.805   7.496   4.214 -0.2935  0.1543 -0.9801
  148MOL0     C20291  10.825   7.488   4.074  0.4782  0.1106 -0.1624
  148MOL0     C20292  10.946   7.516   4.019  0.6421 -0.3866  0.2712
  148MOL0     C20293  11.049   7.565   4.092 -0.5599  0.5138  0.9466
  148MOL0     O20294  11.165   7.600   4.036 -0.0357 -0.2886  0.3422
  148MOL0     C20295  11.235   7.474   4.010  0.0895 -0.7150 -0.6534
  148MOL0     C20296  11.373   7.517   3.980 -0.0960 -0.1134 -0.0198
  148MOL0     C20297  11.463   7.395   3.961  0.3094 -1.3032  0.2519
  148MOL0     C20298  11.609   7.434   3.923 -0.5561 -0.9558  0.4199
  148MOL0     C20299  11.678   7.526   4.028 -0.0553 -0.2587  0.6277
  148MOL0     C20300  11.708   7.461   4.163 -0.2254  0.3948 -0.1800
  148MOL0     C20301  11.771   7.569   4.261 -0.0642  0.1932  0.0128
  148MOL0     C20302  11.847   7.502   4.372 -0.2475 -0.0768  0.0591
  148MOL0     N20303  11.754   7.430   4.460 -0.2728  0.2796  0.2617
  148MOL0     C20304  11.707   7.460   4.582  0.5967 -0.1966  0.1197
  148MOL0     C20305  11.682   7.340   4.645 -0.6384 -0.7429  0.1329
  148MOL0     C20306  11.633   7.316   4.789  0.0849  0.1682  0.4716
  148MOL0     C20307  11.675   7.428   4.882  0.6241 -0.9156  0.1389
  148MOL0     C20308  11.645   7.397   5.030 -0.2356  0.1666  0.5056
  148MOL0     C20309  11.502   7.407   5.089  0.2052 -0.2793  0.4190
  148MOL0     O20310  11.487   7.384   5.227 -0.1844  0.0434 -0.3994
  148MOL0     C20311  11.356   7.370   5.272  0.1625 -0.8005 -0.0851
  148MOL0     C20312  11.334   7.305   5.398 -0.4640 -0.5534  0.3826
  148MOL0     C20313  11.198   7.298   5.439 -1.0955  0.0546 -0.7944
  148MOL0     C20314  11.151   7.231   5.576  0.0107  0.4926  0.4213
  148MOL0     C20315  11.093   7.346   5.357  0.1878 -0.2169 -0.3696
  148MOL0     C20316  10.957   7.343   5.402  0.2492 -0.3191  0.1401
  148MOL0     O20317  10.906   7.468   5.427 -0.3815 -0.1438 -0.3116
  148MOL0     C20318  10.767   7.464   5.461  0.1426 -0.1657  0.6062
  148MOL0     C20319  10.673   7.475   5.353 -0.6693 -1.0081  0.7349
  148MOL0     C20320  10.544   7.446   5.380 -0.2664  0.3217  0.6391
  148MOL0     C20321  10.495   7.413   5.512 -0.3640  0.5538  0.4414
  148MOL0     O20322  10.367   7.385   5.524  0.3269  0.4092 -0.1197
  148MOL0     C20323  10.294   7.414   5.647  0.0816  0.0844  0.8495
  148MOL0     C20324  10.147   7.401   5.602  0.0033 -0.1908  0.1880
  148MOL0     C20325  10.105   7.485   5.485  0.0507 -0.0758 -0.6691
  148MOL0     C20326   9.947   7.495   5.493 -0.3218 -0.0188  0.2872
  148MOL0     C20327   9.891   7.571   5.376 -0.0478 -0.5513  0.2943
  148MOL0     C20328   9.912   7.531   5.231 -0.5143 -0.3689 -0.8240
  148MOL0     C20329   9.878   7.381   5.203  0.4105  0.3215 -0.0883
  148MOL0     C20330   9.918   7.341   5.064 -0.4301 -1.2560  0.5819
  148MOL0    Cl20331   9.889   7.173   5.032 -0.2896  0.3798  0.0570
  148MOL0     C20332  10.585   7.405   5.613  0.0551 -0.8739 -0.0250
  148MOL0     C20333  10.724   7.430   5.589  0.0137 -0.3299 -0.5483
  148MOL0     O20334  10.897   7.233   5.413  0.6943  0.7044  0.7923
  148MOL0     C20335  11.124   7.421   5.247  0.4443 -0.0096  0.5516
  148MOL0     C20336  11.250   7.427   5.199 -0.5054 -0.0082 -0.1182
  148MOL0     N20337  11.711   7.241   4.552 -0.3463  0.9601 -0.4899
  148MOL0     N20338  11.763   7.297   4.450  0.0767  0.0242  0.4126
  148MOL0     C20339  11.032   7.569   4.230  0.1786 -0.1786  0.2792
  148MOL0     C20340  10.915   7.523   4.294 -0.6089  0.1304  0.1045
  148MOL0     C20341  10.528   7.325   4.368  0.4836 -0.6552  0.0604
  148MOL0     C20342  10.456   7.437   4.397 -0.4918  0.3702 -0.7720
  148MOL0     C20343  10.335   7.439   4.451  0.6724 -0.2421 -0.4648
  148MOL0     C20344  10.271   7.319   4.488  0.3905 -0.8909 -0.4427
  148MOL0     O20345  10.138   7.316   4.525  0.1028  0.3500  0.4235
  148MOL0     C20346  10.124   7.334   4.665 -0.2808 -1.0062 -0.2652
  148MOL0     C20347   9.977   7.305   4.701 -0.8250 -0.0741 -0.2479
  148MOL0     C20348   9.891   7.418   4.707  0.0589 -0.0012 -0.3439
  148MOL0     C20349   9.897   7.494   4.568 -0.5804 -0.4142  0.1544
  148MOL0     C20350   9.777   7.580   4.556  0.6713  0.4444  0.2150
  148MOL0     C20351   9.693   7.660   4.545 -0.0607 -0.0818  0.7053
  148MOL0     C20352  10.332   7.201   4.462  0.4725  0.2140  0.0661
  148MOL0     C20353  10.464   7.199   4.400  0.3376 -0.1417  0.8711
  148MOL0     C20354  10.516   7.068   4.356  0.4022 -0.5430 -0.3422
  148MOL0     H20355  10.741   7.467   4.009  1.1611  2.0212 -1.7701
  148MOL0     H20356  10.960   7.513   3.912 -1.9648 -0.5900 -0.1227
  148MOL0     H20357  11.186   7.419   3.928 -0.5137  0.3995 -1.0639
  148MOL0     H20358  11.237   7.411   4.099 -0.3316  2.6527  1.9368
  148MOL0     H20359  11.373   7.576   3.888 -1.9301 -2.8960 -1.9607
  148MOL0     H20360  11.421   7.563   4.067  4.9173 -1.7432 -1.5655
  148MOL0     H20361  11.468   7.330   4.049  0.8571 -3.1389 -1.0626
  148MOL0     H20362  11.413   7.327   3.891  2.9150 -2.7812 -0.3181
  148MOL0     H20363  11.666   7.341   3.912  2.7445  0.6427  2.3332
  148MOL0     H20364  11.613   7.482   3.825  3.0386  0.0169  0.8889
  148MOL0     H20365  11.620   7.617   4.048  2.1240  0.9821  1.6676
  148MOL0     H20366  11.775   7.566   3.999 -0.9817  1.0127 -0.9120
  148MOL0     H20367  11.614   7.426   4.206  1.5159 -4.6775  0.1858
  148MOL0     H20368  11.781   7.380   4.153  2.3325  2.1553  2.5702
  148MOL0     H20369  11.695   7.639   4.296  1.5240  1.9184  0.1833
  148MOL0     H20370  11.843   7.623   4.199 -0.6868 -0.6896 -1.5475
  148MOL0     H20371  11.926   7.437   4.333 -1.6776  0.2210 -3.7676
  148MOL0     H20372  11.903   7.581   4.424 -0.0029  1.4612 -2.3439
  148MOL0     H20373  11.687   7.560   4.619 -0.9006  0.0771 -1.2785
  148MOL0     H20374  11.673   7.217   4.810 -2.9885 -1.8120 -2.0782
  148MOL0     H20375  11.525   7.318   4.774  0.3614 -0.7614 -2.1052
  148MOL0     H20376  11.781   7.444   4.861  0.8088 -0.8713  1.0254
  148MOL0     H20377  11.608   7.511   4.859  1.5183 -0.1616  0.1884
  148MOL0     H20378  11.698   7.306   5.058 -1.0014 -1.0157 -1.5980
  148MOL0     H20379  11.704   7.475   5.077 -0.6675  0.2610  0.8940
  148MOL0     H20380  11.476   7.512   5.073  0.0643 -0.1078  1.6633
  148MOL0     H20381  11.428   7.347   5.035 -0.6900  2.3373 -1.4276
  148MOL0     H20382  11.414   7.266   5.460  0.5215  2.2997  1.0423
  148MOL0     H20383  11.236   7.220   5.644  1.6157  0.6696 -1.4344
  148MOL0     H20384  11.099   7.135   5.564 -0.5919  0.8118  0.4948
  148MOL0     H20385  11.070   7.294   5.613 -2.4200 -0.0184 -3.4153
  148MOL0     H20386  10.698   7.511   5.254 -2.5348  1.6451  1.1371
  148MOL0     H20387  10.490   7.443   5.286 -0.6358 -1.4020  0.8709
  148MOL0     H20388  10.315   7.341   5.725 -2.3757  0.9163  2.4028
  148MOL0     H20389  10.321   7.512   5.688  2.1710 -0.2404  0.3714
  148MOL0     H20390  10.139   7.295   5.576  1.4361 -0.6489  1.4549
  148MOL0     H20391  10.090   7.431   5.690  0.6472  0.3598  0.4324
  148MOL0     H20392  10.144   7.436   5.395  2.9101 -1.4504  1.1629
  148MOL0     H20393  10.147   7.585   5.499 -0.5938  0.1983 -0.6749
  148MOL0     H20394   9.938   7.549   5.587  3.2184  0.9631  0.2012
  148MOL0     H20395   9.893   7.401   5.505  1.5858 -0.9624  2.0111
  148MOL0     H20396   9.783   7.570   5.396 -0.3651 -0.3098 -1.2523
  148MOL0     H20397   9.917   7.677   5.385  0.7828 -0.6402 -0.9455
  148MOL0     H20398  10.018   7.550   5.211 -0.3213 -0.2831  0.2263
  148MOL0     H20399   9.855   7.605   5.174  2.0483  1.5133 -1.1375
  148MOL0     H20400   9.771   7.357   5.206  0.7464 -1.2567 -0.1557
  148MOL0     H20401   9.934   7.323   5.277  1.5722  0.2536 -0.9947
  148MOL0     H20402  10.022   7.372   5.050 -0.3931 -0.1008  2.9258
  148MOL0     H20403   9.866   7.398   4.986  2.1064 -1.8920 -1.7068
  148MOL0     H20404  10.557   7.380   5.715  2.1094  0.2776  0.8861
  148MOL0     H20405  10.786   7.422   5.678 -0.7084 -3.3598 -0.2187
  148MOL0     H20406  11.042   7.464   5.191  2.3142  4.5316  0.8693
  148MOL0     H20407  11.260   7.479   5.104 -1.1279 -0.9915 -0.7400
  148MOL0     H20408  11.110   7.618   4.288  0.1359  1.5982 -1.0774
  148MOL0     H20409  10.901   7.526   4.402  0.7864 -0.5423  0.3211
  148MOL0     H20410  10.497   7.536   4.380 -0.7711  1.0261  1.9594
  148MOL0     H20411  10.279   7.531   4.466 -0.3346 -0.5114 -2.3644
  148MOL0     H20412  10.196   7.270   4.717  1.4479  0.7819 -0.3446
  148MOL0     H20413  10.148   7.438   4.689 -0.3579 -1.0256 -0.0950
  148MOL0     H20414   9.981   7.245   4.792  0.9263 -0.6683 -0.6735
  148MOL0     H20415   9.949   7.242   4.616  2.6692 -0.8480 -1.0136
  148MOL0     H20416   9.796   7.368   4.726  1.4251 -2.4794  0.4954
  148MOL0     H20417   9.916   7.489   4.785  0.2309  0.3786 -0.7391
  148MOL0     H20418   9.907   7.423   4.486  6.4229 -2.4207  2.0854
  148MOL0     H20419   9.983   7.561   4.571 -0.1156 -0.9742 -0.6637
  148MOL0     H20420   9.618   7.735   4.531 -1.1258 -1.2027  0.2765
  148MOL0     H20421  10.280   7.106   4.470  0.7790 -0.0837 -1.2499
  148MOL0     H20422  10.552   7.082   4.254 -2.2533 -1.7596 -1.5274
  148MOL0     H20423  10.587   7.022   4.426  0.1900 -1.8253 -0.9507
  148MOL0     H20424  10.444   6.989   4.333  3.4706 -2.6782 -3.6710
  149MOL0     O20425   5.818   2.920   1.327 -0.2196  0.1454 -0.4054
  149MOL0     C20426   5.906   2.826   1.327  0.6970  0.5314  0.4373
  149MOL0     O20427   5.957   2.771   1.436  0.1140 -0.7363 -0.4233
  149MOL0     C20428   5.900   2.804   1.559  0.5146  1.5011 -0.5981
  149MOL0     C20429   5.921   2.932   1.617  0.5778  0.7267 -0.8320
  149MOL0     C20430   5.874   2.964   1.744 -0.6996 -0.6049 -0.1904
  149MOL0     C20431   5.809   2.872   1.818 -0.7477  0.9371 -0.2386
  149MOL0     O20432   5.753   2.891   1.940  0.6573 -0.6231  0.0198
  149MOL0     C20433   5.809   2.999   2.023 -0.0458  0.0348 -0.4789
  149MOL0     C20434   5.723   3.008   2.153  0.2705  0.4521  0.4885
  149MOL0     C20435   5.559   3.013   2.159 -0.3500  0.5458 -0.2120
  149MOL0     C20436   5.519   3.085   2.281  0.6387  0.5703 -0.1250
  149MOL0     C20437   5.363   3.065   2.294 -0.4026 -0.3690  0.4615
  149MOL0     C20438   5.311   3.162   2.403 -0.5351  0.0213 -1.1935
  149MOL0     C20439   5.165   3.151   2.439  0.7071  0.6291 -0.5781
  149MOL0     C20440   5.117   3.280   2.501 -0.4229 -0.4028 -0.1218
  149MOL0     N20441   5.197   3.324   2.616  0.3022  0.3108 -0.0121
  149MOL0     C20442   5.213   3.254   2.733  0.1678  0.0877 -0.3321
  149MOL0     C20443   5.303   3.328   2.801 -0.0672  0.6440 -0.0228
  149MOL0     C20444   5.358   3.296   2.935 -0.0688 -0.0137 -0.1437
  149MOL0     C20445   5.246   3.261   3.035 -0.4916 -0.0111 -0.6336
  149MOL0     C20446   5.302   3.246   3.175 -0.0144  0.8832 -0.3648
  149MOL0     C20447   5.423   3.149   3.194  0.5697  0.6307 -0.7984
  149MOL0     O20448   5.512   3.207   3.297  0.5258  0.2192 -0.1381
  149MOL0     C20449   5.640   3.171   3.283  0.4627  0.3766  0.3657
  149MOL0     C20450   5.735   3.249   3.216  0.0383 -0.2491  0.4666
  149MOL0     C20451   5.870   3.217   3.213  1.8026 -0.2614 -0.1836
  149MOL0     C20452   5.964   3.307   3.136  1.1974  0.5873 -0.4545
  149MOL0     C20453   5.915   3.109   3.285  0.2787  0.5782  0.1310
  149MOL0     C20454   6.060   3.064   3.289  0.9795  0.2330 -0.5951
  149MOL0     O20455   6.085   2.934   3.292 -1.0838 -0.0364  0.0283
  149MOL0     C20456   6.217   2.890   3.307 -0.0515 -0.3285 -0.1738
  149MOL0     C20457   6.245   2.797   3.404 -0.7198  0.2722 -0.3625
  149MOL0     C20458   6.367   2.733   3.407 -0.5581  0.1954  0.4713
  149MOL0     C20459   6.476   2.774   3.324 -0.1376 -0.7391  0.3142
  149MOL0     O20460   6.603   2.721   3.316  0.3130 -0.0731 -0.2569
  149MOL0     C20461   6.601   2.580   3.335 -0.9215  0.3966  0.3069
  149MOL0     C20462   6.739   2.520   3.298  0.4164 -0.6925  0.5305
  149MOL0     C20463   6.840   2.578   3.395 -0.2204  0.3353  1.8743
  149MOL0     C20464   6.975   2.507   3.383  0.3937 -0.4094 -0.0847
  149MOL0     C20465   7.078   2.571   3.485  0.4887 -0.0782  0.8945
  149MOL0     C20466   7.205   2.497   3.499 -0.4388 -0.4551  0.4930
  149MOL0     C20467   7.188   2.366   3.571  0.3721 -0.4123 -0.7629
  149MOL0     C20468   7.318   2.305   3.627  0.1866 -0.1454 -0.1313
  149MOL0    Cl20469   7.403   2.226   3.493 -0.0696  0.1614 -0.2584
  149MOL0     C20470   6.447   2.882   3.238 -0.3965 -0.0261 -0.6843
  149MOL0     C20471   6.316   2.932   3.220  0.0722 -0.0221  0.1696
  149MOL0     O20472   6.145   3.149   3.299  0.0318 -0.4046 -0.5661
  149MOL0     C20473   5.819   3.019   3.354  0.3012  0.6944  0.7383
  149MOL0     C20474   5.679   3.048   3.344  0.1589 -0.3950 -0.2693
  149MOL0     N20475   5.339   3.438   2.729 -0.6965  0.7811 -0.6029
  149MOL0     N20476   5.283   3.431   2.618 -0.2289  0.1955  0.0595
  149MOL0     C20477   5.784   2.743   1.761  0.3068 -0.2958  0.5547
  149MOL0     C20478   5.832   2.706   1.637 -0.4146 -0.0816  0.4530
  149MOL0     C20479   5.968   2.796   1.196  1.8563 -0.4132  0.2333
  149MOL0     C20480   6.074   2.702   1.202 -0.2173 -0.3882 -0.0227
  149MOL0     C20481   6.142   2.666   1.087  0.3285 -0.1388  0.6139
  149MOL0     C20482   6.119   2.734   0.962  0.7170  0.7631  0.6003
  149MOL0     O20483   6.204   2.737   0.852 -0.1265 -0.5677 -0.1809
  149MOL0     C20484   6.326   2.651   0.864 -0.2998  0.4444  0.4246
  149MOL0     C20485   6.409   2.663   0.739 -0.3139 -0.3087  0.2531
  149MOL0     C20486   6.478   2.798   0.708  0.4229 -0.2592  1.1290
  149MOL0     C20487   6.584   2.771   0.596  0.1604 -0.2992  0.3163
  149MOL0     C20488   6.625   2.901   0.537 -0.5494  0.7050 -0.3934
  149MOL0     C20489   6.676   3.007   0.498 -0.6451  0.3196  0.2080
  149MOL0     C20490   6.019   2.830   0.957  0.0246  0.3009 -0.0911
  149MOL0     C20491   5.941   2.860   1.069  0.5321  0.1367 -0.4704
  149MOL0     C20492   5.825   2.957   1.042 -0.2052 -0.1385 -0.2249
  149MOL0     H20493   5.967   3.015   1.564  1.4233 -0.0736 -1.3812
  149MOL0     H20494   5.896   3.063   1.781  0.6164 -0.3217 -1.6358
  149MOL0     H20495   5.803   3.102   1.985 -2.8379  1.4359  3.2045
  149MOL0     H20496   5.913   2.975   2.045 -0.0646 -0.3223 -0.7745
  149MOL0     H20497   5.748   2.917   2.207  1.1108 -2.2114 -3.8993
  149MOL0     H20498   5.756   3.098   2.206 -0.2590  1.3492 -0.6473
  149MOL0     H20499   5.515   3.069   2.076 -1.4823 -0.2665 -0.1870
  149MOL0     H20500   5.513   2.915   2.144 -0.5766  0.8408 -1.6022
  149MOL0     H20501   5.568   3.046   2.370  1.9271  2.2433 -0.0517
  149MOL0     H20502   5.546   3.191   2.268  0.4399  0.8885  1.8253
  149MOL0     H20503   5.344   2.960   2.316  0.6858 -0.7789 -0.4225
  149MOL0     H20504   5.300   3.073   2.205  0.4120  0.6776 -0.0458
  149MOL0     H20505   5.371   3.145   2.493 -2.4997  1.0473  0.3976
  149MOL0     H20506   5.335   3.262   2.366  0.3774  1.4744  2.7513
  149MOL0     H20507   5.148   3.061   2.499 -0.9939 -0.0010 -1.9194
  149MOL0     H20508   5.106   3.142   2.347  2.2611 -0.1863 -1.5334
  149MOL0     H20509   5.126   3.361   2.428  0.6432 -1.2962 -1.0152
  149MOL0     H20510   5.013   3.277   2.536 -0.7129 -0.1200 -0.9252
  149MOL0     H20511   5.164   3.160   2.758  1.2360  0.2201  2.7286
  149MOL0     H20512   5.412   3.383   2.973  1.4285 -0.8974 -0.1727
  149MOL0     H20513   5.417   3.204   2.923 -0.8167 -0.4733 -0.3692
  149MOL0     H20514   5.168   3.338   3.032 -1.4586 -0.9398  0.1879
  149MOL0     H20515   5.193   3.176   2.991 -0.1273 -0.0146 -1.0835
  149MOL0     H20516   5.344   3.342   3.207 -2.7737  1.3543  2.2059
  149MOL0     H20517   5.218   3.218   3.239 -0.1795 -1.2724 -1.4358
  149MOL0     H20518   5.369   3.058   3.222 -1.9587  2.0066 -0.8723
  149MOL0     H20519   5.478   3.131   3.102 -3.8332  2.9879 -4.3085
  149MOL0     H20520   5.702   3.344   3.174 -1.4077  0.1566  2.3489
  149MOL0     H20521   6.042   3.260   3.077  1.7448  1.4329 -0.4271
  149MOL0     H20522   6.027   3.362   3.207  5.1436 -0.6506 -2.7226
  149MOL0     H20523   5.914   3.383   3.074  1.8638  1.9384  0.5917
  149MOL0     H20524   6.161   2.767   3.467  0.7829  0.4636  1.8068
  149MOL0     H20525   6.385   2.650   3.475  2.5880  0.8047  0.5498
  149MOL0     H20526   6.585   2.568   3.442  0.1393 -0.9450  0.3390
  149MOL0     H20527   6.517   2.535   3.280 -1.2343 -1.0129  1.8350
  149MOL0     H20528   6.746   2.411   3.304 -4.0077 -1.2693 -0.9460
  149MOL0     H20529   6.753   2.549   3.194 -2.2116  0.8113  0.5200
  149MOL0     H20530   6.809   2.565   3.499 -0.9475  2.2913  1.9434
  149MOL0     H20531   6.851   2.686   3.381  1.4016 -0.0393 -0.3518
  149MOL0     H20532   7.008   2.497   3.279 -4.1548  1.2159 -1.9083
  149MOL0     H20533   6.956   2.405   3.418  2.7577 -0.7693  0.3856
  149MOL0     H20534   7.108   2.670   3.447  1.0077 -0.4109  0.4280
  149MOL0     H20535   7.037   2.583   3.586  2.0926  2.1594  1.3466
  149MOL0     H20536   7.277   2.562   3.549 -1.8671 -0.6759  2.9609
  149MOL0     H20537   7.248   2.488   3.398  1.4325  2.8920  0.8539
  149MOL0     H20538   7.143   2.292   3.504 -0.0141  0.9101 -2.0161
  149MOL0     H20539   7.119   2.382   3.654  1.6277 -0.7166  0.3735
  149MOL0     H20540   7.284   2.228   3.697  0.3393  1.3727  1.6817
  149MOL0     H20541   7.383   2.378   3.677 -0.1126 -0.7744  1.2040
  149MOL0     H20542   6.529   2.911   3.173  0.3399 -0.7533 -0.1038
  149MOL0     H20543   6.289   3.002   3.142 -1.0905  2.0997  2.3542
  149MOL0     H20544   5.847   2.925   3.401 -0.4559  0.2856  0.3960
  149MOL0     H20545   5.596   2.995   3.388  0.1543  0.0536  0.2752
  149MOL0     H20546   5.717   2.678   1.817  1.6641 -0.9583  1.4799
  149MOL0     H20547   5.808   2.609   1.595  1.5793 -1.0280  1.3833
  149MOL0     H20548   6.103   2.649   1.293  0.7389 -4.6404 -2.5127
  149MOL0     H20549   6.223   2.593   1.095 -0.6077 -1.4894 -1.4770
  149MOL0     H20550   6.383   2.669   0.956  2.2241 -1.8028 -0.6107
  149MOL0     H20551   6.282   2.551   0.872 -0.3417  0.2313 -1.7890
  149MOL0     H20552   6.348   2.634   0.652  0.3233 -2.0096  0.3276
  149MOL0     H20553   6.492   2.591   0.741 -2.4075 -2.9929 -1.6832
  149MOL0     H20554   6.401   2.864   0.668 -0.6738 -0.7538  2.3503
  149MOL0     H20555   6.512   2.840   0.803 -2.9484  0.9725  1.9573
  149MOL0     H20556   6.538   2.707   0.519 -1.6575  2.3265 -0.9219
  149MOL0     H20557   6.672   2.719   0.635 -0.3030 -1.0855  0.3406
  149MOL0     H20558   6.728   3.092   0.458  0.3029  0.0098  0.7378
  149MOL0     H20559   5.991   2.874   0.862 -0.4377  1.3290  0.5009
  149MOL0     H20560   5.839   3.041   1.110 -2.8469  0.0450  0.1999
  149MOL0     H20561   5.813   2.996   0.941 -0.5988  0.2255 -0.0419
  149MOL0     H20562   5.730   2.909   1.069 -1.0324  1.2314 -0.5758
  150MOL0     O20563   7.002   8.340   7.813  0.3674 -0.3301  0.0420
  150MOL0     C20564   6.945   8.307   7.921  0.1399  0.0207  0.2400
  150MOL0     O20565   7.004   8.301   8.042 -0.0174 -0.2249 -0.1981
  150MOL0     C20566   7.127   8.366   8.058  0.4034 -0.7083 -0.2120
  150MOL0     C20567   7.238   8.325   7.989  0.6997 -0.0729 -1.0230
  150MOL0     C20568   7.357   8.392   8.009 -0.5330 -1.1467  0.1155
  150MOL0     C20569   7.366   8.491   8.098  0.1194 -0.0890  0.0852
  150MOL0     O20570   7.487   8.549   8.103  0.0225 -0.0202  0.1144
  150MOL0     C20571   7.517   8.645   8.207 -0.5017 -0.5363  0.6814
  150MOL0     C20572   7.670   8.689   8.196 -0.4068  0.1291  0.4118
  150MOL0     C20573   7.760   8.582   8.256 -0.6817 -0.0642 -0.0093
  150MOL0     C20574   7.908   8.616   8.226 -0.1219 -0.2716 -0.6770
  150MOL0     C20575   8.001   8.555   8.331  0.3326  0.2336 -0.0077
  150MOL0     C20576   8.022   8.633   8.460 -0.2214  0.7068  0.0205
  150MOL0     C20577   8.116   8.548   8.551 -0.3027  0.0465 -0.8866
  150MOL0     C20578   8.138   8.615   8.688 -0.0742 -0.1678  0.6305
  150MOL0     N20579   8.257   8.700   8.697  0.1494  0.0815  0.0657
  150MOL0     C20580   8.292   8.808   8.626  0.2381  0.0579  0.8798
  150MOL0     C20581   8.406   8.857   8.674 -0.6276  0.0391 -0.4423
  150MOL0     C20582   8.498   8.966   8.619  0.5055 -0.7472  0.1209
  150MOL0     C20583   8.646   8.960   8.663  0.7386 -0.6858 -0.2767
  150MOL0     C20584   8.740   9.064   8.611 -1.0826 -1.1075  0.3567
  150MOL0     C20585   8.886   9.055   8.662 -0.4922 -0.0395 -0.1340
  150MOL0     O20586   8.879   9.072   8.807  0.1296  0.3596 -0.1746
  150MOL0     C20587   8.991   9.015   8.873  0.3108 -0.3863 -0.4214
  150MOL0     C20588   9.120   9.020   8.820 -0.5039  0.7226  0.7298
  150MOL0     C20589   9.234   8.970   8.879  0.5320 -0.2398 -0.5439
  150MOL0     C20590   9.374   8.986   8.810 -0.5688 -0.0931 -0.0775
  150MOL0     C20591   9.216   8.896   8.999  0.2264  0.6653  0.0983
  150MOL0     C20592   9.326   8.829   9.082 -0.0727 -0.2272  0.3316
  150MOL0     O20593   9.437   8.784   9.010  0.2734  0.1100  0.0613
  150MOL0     C20594   9.549   8.740   9.077 -0.3349  0.3837  0.4094
  150MOL0     C20595   9.632   8.814   9.155 -0.6459  0.4350  0.4031
  150MOL0     C20596   9.749   8.761   9.220  0.0361 -0.1959 -0.9526
  150MOL0     C20597   9.785   8.624   9.195  0.4986 -0.0045 -0.0264
  150MOL0     O20598   9.898   8.565   9.248  0.3673  0.6226 -0.7065
  150MOL0     C20599   9.987   8.654   9.317  0.3210 -0.1311 -0.0362
  150MOL0     C20600  10.133   8.592   9.301  0.0680 -0.4460  0.5542
  150MOL0     C20601  10.240   8.693   9.362  0.0510  0.9626  0.0744
  150MOL0     C20602  10.267   8.808   9.266  0.2766 -0.2903  0.4881
  150MOL0     C20603  10.387   8.893   9.314 -0.4801  0.3761  1.2079
  150MOL0     C20604  10.516   8.854   9.243  1.1379 -0.2058 -0.4212
  150MOL0     C20605  10.641   8.925   9.296 -0.6593 -0.5810  0.2085
  150MOL0     C20606  10.678   8.879   9.431 -0.7878  1.0477 -0.2080
  150MOL0    Cl20607  10.760   8.722   9.421 -0.0074 -0.0025  0.1776
  150MOL0     C20608   9.694   8.543   9.120  0.8237 -0.6339  0.0619
  150MOL0     C20609   9.577   8.605   9.065  0.2068  1.1485 -0.2226
  150MOL0     O20610   9.293   8.792   9.193  0.2804  0.6004  0.0558
  150MOL0     C20611   9.083   8.885   9.046  0.5692 -0.0194 -1.3146
  150MOL0     C20612   8.967   8.940   8.992  0.4949  0.2817  0.5708
  150MOL0     N20613   8.441   8.775   8.779  0.5402  0.0281 -0.3634
  150MOL0     N20614   8.354   8.679   8.791 -0.0567  0.7181 -0.0713
  150MOL0     C20615   7.252   8.530   8.174 -0.5035  0.2131  0.0190
  150MOL0     C20616   7.135   8.461   8.159 -0.0429 -0.4819  0.4789
  150MOL0     C20617   6.793   8.288   7.914  1.3163  0.0588  0.0686
  150MOL0     C20618   6.736   8.257   8.038 -0.2859 -0.4344  0.1981
  150MOL0     C20619   6.600   8.220   8.049  0.3277 -0.1466  0.4944
  150MOL0     C20620   6.519   8.218   7.935 -0.1451 -0.5509 -0.7497
  150MOL0     O20621   6.386   8.174   7.950 -0.0012 -0.5221 -0.4881
  150MOL0     C20622   6.305   8.136   7.841 -0.0466  0.1140 -0.2401
  150MOL0     C20623   6.202   8.240   7.803 -0.0063 -0.0210  0.0865
  150MOL0     C20624   6.113   8.185   7.688 -0.2245 -0.9210  0.5049
  150MOL0     C20625   6.012   8.290   7.645  0.1873  0.7595 -0.4508
  150MOL0     C20626   5.907   8.222   7.567  0.5706 -0.1141 -0.5825
  150MOL0     C20627   5.829   8.148   7.501 -0.1907  0.8362 -0.0313
  150MOL0     C20628   6.577   8.252   7.809 -0.0978 -0.2468  0.7203
  150MOL0     C20629   6.713   8.289   7.800 -0.2179  0.1764 -0.4935
  150MOL0     C20630   6.768   8.326   7.661 -0.0167  0.1006 -0.8826
  150MOL0     H20631   7.237   8.251   7.910 -1.0530  0.3621 -1.4621
  150MOL0     H20632   7.449   8.349   7.971  1.4235  1.9850  0.9879
  150MOL0     H20633   7.500   8.594   8.302  1.2124 -0.1846  1.2112
  150MOL0     H20634   7.457   8.734   8.189  1.7781  0.8414 -0.5979
  150MOL0     H20635   7.697   8.692   8.090  0.6343 -0.5436  0.6419
  150MOL0     H20636   7.684   8.789   8.239 -2.0691  0.1600  0.9414
  150MOL0     H20637   7.741   8.589   8.364 -1.3761  3.0585 -0.2432
  150MOL0     H20638   7.751   8.478   8.226  1.2190 -0.4871  0.7451
  150MOL0     H20639   7.932   8.556   8.138  0.8087 -0.8898 -0.0215
  150MOL0     H20640   7.928   8.717   8.187 -1.6678 -0.3022 -1.6154
  150MOL0     H20641   8.098   8.540   8.282 -1.0290 -0.9536 -2.5498
  150MOL0     H20642   7.973   8.452   8.353  1.5213 -0.0767  0.1220
  150MOL0     H20643   8.065   8.730   8.432  2.0811 -0.4784 -0.8329
  150MOL0     H20644   7.930   8.656   8.513  0.6511  2.1181  0.9988
  150MOL0     H20645   8.211   8.517   8.506  0.2794  0.3195  0.1070
  150MOL0     H20646   8.069   8.451   8.571  0.1299 -0.4800 -2.3282
  150MOL0     H20647   8.050   8.676   8.712 -1.7292 -0.6007 -3.4979
  150MOL0     H20648   8.149   8.536   8.763  2.3361 -0.5307 -0.0370
  150MOL0     H20649   8.240   8.856   8.544  1.2378  2.6400  1.6339
  150MOL0     H20650   8.460   9.055   8.670 -1.0928 -1.7337  0.7292
  150MOL0     H20651   8.494   8.968   8.509  2.0440  0.0885  0.0489
  150MOL0     H20652   8.635   8.973   8.771  0.4364  0.8845 -0.4715
  150MOL0     H20653   8.686   8.860   8.644  1.8584 -0.4799  0.9095
  150MOL0     H20654   8.751   9.062   8.502 -0.3426  0.1061  0.3842
  150MOL0     H20655   8.717   9.167   8.639  0.5136 -1.4383  3.3699
  150MOL0     H20656   8.913   8.953   8.634 -3.1309 -0.2114 -2.4194
  150MOL0     H20657   8.952   9.130   8.617 -2.2846  1.8155  0.2000
  150MOL0     H20658   9.140   9.080   8.732  1.8025 -0.5493  0.3051
  150MOL0     H20659   9.453   9.013   8.880  1.0215 -2.8004 -0.6633
  150MOL0     H20660   9.373   9.067   8.736 -0.7748  0.5983  0.6677
  150MOL0     H20661   9.408   8.894   8.762  2.7533  0.8803  0.1893
  150MOL0     H20662   9.618   8.922   9.156  0.1296  0.5568  2.1083
  150MOL0     H20663   9.803   8.822   9.291  0.7690 -2.3413  0.4399
  150MOL0     H20664   9.998   8.753   9.273  1.1851 -0.5913 -0.9058
  150MOL0     H20665   9.971   8.676   9.423 -0.4533  1.6251 -0.4822
  150MOL0     H20666  10.138   8.495   9.351 -4.1393 -1.5434 -0.7590
  150MOL0     H20667  10.160   8.567   9.198 -0.4015  2.4166 -0.3424
  150MOL0     H20668  10.338   8.646   9.376  0.5102  1.4402 -1.3433
  150MOL0     H20669  10.217   8.722   9.465 -1.0103 -2.1814  0.8282
  150MOL0     H20670  10.187   8.880   9.280  2.8809  2.5601  1.8916
  150MOL0     H20671  10.280   8.777   9.162 -0.1987 -0.4099  0.4628
  150MOL0     H20672  10.368   8.999   9.299 -4.3889 -0.5961 -2.4537
  150MOL0     H20673  10.406   8.878   9.421  1.9877 -0.3194  0.7357
  150MOL0     H20674  10.495   8.889   9.142 -3.1135  0.3092  0.4574
  150MOL0     H20675  10.521   8.745   9.235  0.3471 -0.1654 -1.7182
  150MOL0     H20676  10.626   9.033   9.295  1.1567 -0.2943  0.6427
  150MOL0     H20677  10.727   8.915   9.229 -2.0033 -3.3420 -1.2758
  150MOL0     H20678  10.602   8.874   9.509 -1.3727  0.9960 -0.7688
  150MOL0     H20679  10.752   8.950   9.470  0.6588 -1.1346  1.2412
  150MOL0     H20680   9.708   8.439   9.093  1.6425  0.5457 -4.9729
  150MOL0     H20681   9.521   8.549   8.992  1.4713  3.6816 -3.4201
  150MOL0     H20682   9.070   8.822   9.133 -0.5845  0.6723 -0.9638
  150MOL0     H20683   8.871   8.927   9.041 -0.2376  2.1563 -0.3031
  150MOL0     H20684   7.256   8.613   8.245  1.0409  1.4287 -1.4351
  150MOL0     H20685   7.056   8.490   8.227  1.2070  0.1211  1.7167
  150MOL0     H20686   6.775   8.258   8.139 -0.3704 -1.3001  0.2441
  150MOL0     H20687   6.550   8.189   8.140 -1.4068 -3.6644 -1.4763
  150MOL0     H20688   6.359   8.104   7.752  0.6589 -1.4059  0.6941
  150MOL0     H20689   6.251   8.052   7.884  1.5316 -0.1209  1.3779
  150MOL0     H20690   6.250   8.333   7.768 -1.1573 -0.4668 -2.9844
  150MOL0     H20691   6.144   8.260   7.893  0.6817 -0.4597  0.6334
  150MOL0     H20692   6.182   8.162   7.606  0.0716  0.8830  0.2086
  150MOL0     H20693   6.069   8.093   7.729  0.4992 -0.2643  2.9182
  150MOL0     H20694   6.047   8.362   7.571 -0.6892  0.1571 -1.4687
  150MOL0     H20695   5.970   8.324   7.740  1.9203 -1.0566  1.0637
  150MOL0     H20696   5.758   8.095   7.442  0.4445  0.5459 -0.5411
  150MOL0     H20697   6.516   8.250   7.719 -1.4238  1.4449  1.5356
  150MOL0     H20698   6.804   8.429   7.660  0.0506  0.0914  0.1080
  150MOL0     H20699   6.851   8.261   7.632 -0.3864 -0.0647 -1.5956
  150MOL0     H20700   6.693   8.321   7.581  0.1743  0.6605 -1.1065
  151MOL0     O20701   9.159   9.874   9.606 -0.5405  0.0983  0.2461
  151MOL0     C20702   9.124   9.757   9.632 -0.1081 -0.0516 -0.6891
  151MOL0     O20703   9.201   9.641   9.619 -0.0774  0.1100 -0.0483
  151MOL0     C20704   9.327   9.656   9.568 -0.1098  0.1258  0.2888
  151MOL0     C20705   9.356   9.713   9.443  0.1291 -0.9163 -0.5511
  151MOL0     C20706   9.491   9.727   9.405 -0.3413  0.5850 -0.4297
  151MOL0     C20707   9.594   9.700   9.486  0.4524 -0.1411  0.4078
  151MOL0     O20708   9.721   9.722   9.437 -0.3113 -0.5883 -0.6700
  151MOL0     C20709   9.839   9.688   9.519  0.1572 -0.8675 -1.5484
  151MOL0     C20710   9.968   9.730   9.445  0.6038  0.2365 -0.1214
  151MOL0     C20711  10.096   9.701   9.527  0.4802 -0.9028  0.3718
  151MOL0     C20712  10.220   9.774   9.480  0.7287  0.9978  0.1778
  151MOL0     C20713  10.331   9.769   9.574  0.4377 -0.4293  0.5310
  151MOL0     C20714  10.392   9.631   9.561 -0.2626 -0.0450  0.3624
  151MOL0     C20715  10.509   9.615   9.658 -1.0345 -0.1955  0.0695
  151MOL0     C20716  10.642   9.629   9.584 -0.6939  0.2930  0.5849
  151MOL0     N20717  10.757   9.609   9.670  0.8075  0.2883  0.1019
  151MOL0     C20718  10.881   9.579   9.625 -0.1675 -0.5881 -0.2987
  151MOL0     C20719  10.964   9.580   9.731 -0.2771 -0.2175 -0.2029
  151MOL0     C20720  11.110   9.542   9.758  0.4183 -0.5777  0.6779
  151MOL0     C20721  11.193   9.656   9.703  0.5217  0.1785  0.2682
  151MOL0     C20722  11.341   9.654   9.728  0.4125  0.4739  0.1782
  151MOL0     C20723  11.384   9.639   9.877  0.0303 -0.1158 -0.9327
  151MOL0     O20724  11.351   9.762   9.941  0.0020 -0.2561 -0.2830
  151MOL0     C20725  11.416   9.784  10.064  0.1519  0.6232 -0.3281
  151MOL0     C20726  11.393   9.903  10.133 -0.1834 -0.0029  0.1543
  151MOL0     C20727  11.431   9.922  10.265 -0.0551  0.3351 -0.7574
  151MOL0     C20728  11.384  10.044  10.343  0.3687  0.4071  0.4033
  151MOL0     C20729  11.510   9.818  10.331  0.2807 -0.4709  0.1568
  151MOL0     C20730  11.578   9.829  10.466  0.7030  0.0111 -0.2398
  151MOL0     O20731  11.621   9.713  10.528 -0.9432  0.5239 -0.1664
  151MOL0     C20732  11.686   9.725  10.647 -0.0162 -0.3672 -0.0608
  151MOL0     C20733  11.796   9.811  10.656  0.2029 -0.6955 -0.3225
  151MOL0     C20734  11.872   9.811  10.775 -0.1343 -0.0351 -0.2972
  151MOL0     C20735  11.843   9.734  10.891  0.6937  0.5067  0.3474
  151MOL0     O20736  11.898   9.749  11.014  0.3479  0.0448  0.0150
  151MOL0     C20737  12.035   9.737  11.020 -0.1873 -0.2646  0.1646
  151MOL0     C20738  12.088   9.726  11.168  0.3624 -0.9941  1.0512
  151MOL0     C20739  12.045   9.595  11.230  0.2305 -0.2110 -0.1628
  151MOL0     C20740  12.115   9.576  11.366  0.5121 -0.3690  0.9348
  151MOL0     C20741  12.063   9.457  11.446 -0.4882 -0.3006 -0.3809
  151MOL0     C20742  12.160   9.420  11.565 -0.8579  0.2017 -0.0470
  151MOL0     C20743  12.106   9.329  11.672 -0.2275 -1.0296  0.0173
  151MOL0     C20744  12.045   9.406  11.790  0.5313  0.6480 -0.4324
  151MOL0    Cl20745  12.034   9.292  11.936 -0.0913  0.0126 -0.0438
  151MOL0     C20746  11.729   9.648  10.871  0.1228 -0.4949  0.5458
  151MOL0     C20747  11.656   9.647  10.755 -0.3226  0.0378 -0.0392
  151MOL0     O20748  11.591   9.943  10.509  0.4777 -0.4550 -0.1064
  151MOL0     C20749  11.537   9.703  10.252 -0.7830 -0.2782  0.6038
  151MOL0     C20750  11.491   9.683  10.128  0.6583 -0.0953 -0.0807
  151MOL0     N20751  10.885   9.619   9.835 -0.3253 -0.4243 -0.0298
  151MOL0     N20752  10.764   9.635   9.802 -0.7165  0.5119  0.9064
  151MOL0     C20753   9.565   9.646   9.617  0.1760  0.2546 -0.1325
  151MOL0     C20754   9.429   9.628   9.651 -1.4745  0.4171  0.8898
  151MOL0     C20755   8.986   9.741   9.693 -0.1655 -0.8909 -0.2483
  151MOL0     C20756   8.942   9.853   9.769  0.0433 -0.5805  0.2741
  151MOL0     C20757   8.818   9.849   9.828  0.6295 -0.2179 -0.1373
  151MOL0     C20758   8.731   9.739   9.816 -0.0458 -0.1351  1.0754
  151MOL0     O20759   8.602   9.728   9.857 -0.3611  0.3179  0.3543
  151MOL0     C20760   8.559   9.830   9.946  0.1968  0.5939 -0.8459
  151MOL0     C20761   8.517   9.966   9.876  0.5181  0.7469  0.6766
  151MOL0     C20762   8.402  10.031   9.956  0.1749 -0.3756 -0.9031
  151MOL0     C20763   8.442  10.114  10.078 -0.5274 -0.2272  0.2384
  151MOL0     C20764   8.546  10.217  10.053 -0.2719 -0.4130 -0.5190
  151MOL0     C20765   8.628  10.285   9.999 -0.2362 -0.2282 -0.8689
  151MOL0     C20766   8.779   9.634   9.735 -0.6726  0.5093 -0.6021
  151MOL0     C20767   8.910   9.630   9.679  0.3485  0.0140 -0.0346
  151MOL0     C20768   8.949   9.521   9.585 -0.6522  0.6833  0.6684
  151MOL0     H20769   9.282   9.761   9.379 -0.0861 -2.8496 -1.8279
  151MOL0     H20770   9.505   9.778   9.310  1.2638  0.1613 -0.4424
  151MOL0     H20771   9.820   9.580   9.524 -1.3615 -0.5586  0.8600
  151MOL0     H20772   9.836   9.731   9.620  0.9461 -2.9545 -0.5754
  151MOL0     H20773   9.964   9.667   9.355 -0.0819 -0.1601  0.1762
  151MOL0     H20774   9.972   9.835   9.413 -1.1068  0.2496 -0.4138
  151MOL0     H20775  10.078   9.740   9.627  0.6735 -1.6627  0.7105
  151MOL0     H20776  10.109   9.593   9.526 -0.4203 -1.0136  0.0947
  151MOL0     H20777  10.241   9.726   9.383 -1.7404  2.0499 -0.9735
  151MOL0     H20778  10.198   9.879   9.458 -2.2336  0.2932 -0.7164
  151MOL0     H20779  10.283   9.792   9.670  1.3420 -1.4476  1.2484
  151MOL0     H20780  10.407   9.839   9.539  2.2986 -2.0678  1.1621
  151MOL0     H20781  10.323   9.547   9.573 -2.0370  1.0636 -1.4994
  151MOL0     H20782  10.433   9.625   9.460  2.5444  0.5043  1.3753
  151MOL0     H20783  10.516   9.518   9.708  0.3394  1.0770  2.5602
  151MOL0     H20784  10.505   9.700   9.727 -0.6731  2.2959 -2.7765
  151MOL0     H20785  10.636   9.562   9.497 -2.1570  1.6158 -0.3983
  151MOL0     H20786  10.645   9.731   9.545 -0.0443  0.4194  0.9558
  151MOL0     H20787  10.916   9.553   9.526  1.4635  2.8009 -0.7575
  151MOL0     H20788  11.121   9.444   9.711 -0.3106 -0.7816  0.9128
  151MOL0     H20789  11.122   9.530   9.866 -3.6007  1.8567  1.5963
  151MOL0     H20790  11.173   9.670   9.596  1.8084 -1.5142 -0.2216
  151MOL0     H20791  11.150   9.748   9.746  0.8200  0.4582 -0.0245
  151MOL0     H20792  11.386   9.569   9.674  1.1779  1.3410 -0.5838
  151MOL0     H20793  11.381   9.744   9.680  2.2640  0.4828  1.6378
  151MOL0     H20794  11.338   9.554   9.929  0.3858  0.2828  0.0554
  151MOL0     H20795  11.492   9.621   9.866 -0.2813 -1.3950 -2.1960
  151MOL0     H20796  11.339   9.983  10.083  2.1263  0.6042 -1.5459
  151MOL0     H20797  11.332  10.105  10.268 -2.1619 -1.8467  0.1603
  151MOL0     H20798  11.467  10.098  10.390  0.2213  2.7231 -1.7938
  151MOL0     H20799  11.303  10.011  10.410 -0.5856  0.8540 -0.4927
  151MOL0     H20800  11.825   9.862  10.564 -2.0422 -0.7792 -1.1304
  151MOL0     H20801  11.967   9.863  10.776  1.2343 -2.3773  1.6996
  151MOL0     H20802  12.066   9.652  10.957 -0.6128 -1.8858  2.0476
  151MOL0     H20803  12.091   9.825  10.988 -0.0354 -0.9702 -1.6696
  151MOL0     H20804  12.197   9.725  11.169  0.3677 -1.2272  0.3570
  151MOL0     H20805  12.057   9.816  11.222 -1.7752 -1.7638  1.2114
  151MOL0     H20806  12.069   9.510  11.166  2.4835 -0.6229  1.1074
  151MOL0     H20807  11.936   9.602  11.231  0.1496 -1.3890  0.7490
  151MOL0     H20808  12.111   9.661  11.436  0.1708 -1.3243  2.1041
  151MOL0     H20809  12.222   9.556  11.351  0.5810 -0.6633  1.7638
  151MOL0     H20810  11.963   9.478  11.484 -0.9683 -3.0711  0.0567
  151MOL0     H20811  12.068   9.365  11.388  0.3960 -1.8772  2.0222
  151MOL0     H20812  12.200   9.508  11.617  2.2778 -0.7426 -0.6669
  151MOL0     H20813  12.248   9.375  11.520 -1.8296 -2.2824  0.4082
  151MOL0     H20814  12.178   9.253  11.703 -0.7303 -2.2276 -1.6599
  151MOL0     H20815  12.025   9.269  11.629  1.0884 -2.1219 -1.0061
  151MOL0     H20816  11.946   9.441  11.761  0.0801 -0.0117  0.2658
  151MOL0     H20817  12.111   9.488  11.820  0.7014  0.0847  0.7933
  151MOL0     H20818  11.705   9.592  10.961  1.4033 -0.4374  0.9300
  151MOL0     H20819  11.576   9.575  10.744  0.3276 -0.8484  0.7946
  151MOL0     H20820  11.607   9.626  10.284 -0.0481  0.7371  1.5225
  151MOL0     H20821  11.527   9.596  10.075  1.4406  0.7170 -0.9238
  151MOL0     H20822   9.638   9.628   9.695 -0.5887  2.3182  1.1442
  151MOL0     H20823   9.405   9.601   9.754  1.7959  1.0936  1.9625
  151MOL0     H20824   8.995   9.945   9.791  0.9082 -1.0678  0.2722
  151MOL0     H20825   8.794   9.943   9.877 -1.4641 -0.3358 -0.8296
  151MOL0     H20826   8.483   9.787  10.011  0.5928  0.3999 -0.5060
  151MOL0     H20827   8.638   9.865  10.012 -1.4764 -1.5728  2.6166
  151MOL0     H20828   8.484   9.942   9.775  0.2702  1.7083  0.5182
  151MOL0     H20829   8.601  10.032   9.858  1.2640 -0.3405  0.0489
  151MOL0     H20830   8.354  10.090   9.877 -0.8163  0.2008  0.0926
  151MOL0     H20831   8.324   9.960   9.985  0.5343 -2.0624 -3.6680
  151MOL0     H20832   8.481  10.039  10.148  0.1465 -0.7121 -0.6333
  151MOL0     H20833   8.353  10.166  10.114 -0.8509 -0.9253  0.4692
  151MOL0     H20834   8.708  10.340   9.953 -0.1820 -0.8189 -1.5068
  151MOL0     H20835   8.716   9.549   9.715 -1.5385  1.5614 -2.6837
  151MOL0     H20836   8.998   9.548   9.491  3.5304 -0.0322  2.4010
  151MOL0     H20837   9.014   9.466   9.654 -0.7899  0.7876  0.8791
  151MOL0     H20838   8.866   9.451   9.569  0.2782 -0.6032  1.2441
  152MOL0     O20839   3.435   9.346  10.782 -0.0668 -0.5298 -0.1033
  152MOL0     C20840   3.434   9.461  10.746  0.5835 -0.1655 -0.7565
  152MOL0     O20841   3.524   9.552  10.783 -0.0882  0.7381 -0.0332
  152MOL0     C20842   3.656   9.523  10.807  1.1746 -0.6098 -0.2111
  152MOL0     C20843   3.728   9.431  10.738 -0.3868  0.7174  0.0057
  152MOL0     C20844   3.861   9.421  10.756 -0.3055 -0.4731  0.0056
  152MOL0     C20845   3.936   9.511  10.840  0.6391  0.5294  0.9765
  152MOL0     O20846   4.072   9.509  10.849  0.2671  0.2112  0.3301
  152MOL0     C20847   4.143   9.464  10.733  0.2157 -0.1811 -0.5469
  152MOL0     C20848   4.291   9.488  10.753 -0.3243  0.2365 -0.1875
  152MOL0     C20849   4.316   9.644  10.750  0.0077 -0.3931 -0.5351
  152MOL0     C20850   4.459   9.678  10.812  0.6149  0.0062  0.1435
  152MOL0     C20851   4.486   9.831  10.816 -0.1815  0.6971 -0.1170
  152MOL0     C20852   4.616   9.849  10.878  0.4169 -0.6326  0.2898
  152MOL0     C20853   4.648   9.998  10.902  0.3179 -0.1350  0.2979
  152MOL0     C20854   4.602  10.035  11.040 -0.3094 -0.7922 -0.0668
  152MOL0     N20855   4.696  10.146  11.089 -0.6485 -0.2097  0.0374
  152MOL0     C20856   4.715  10.277  11.048 -0.2619 -0.0249  0.1336
  152MOL0     C20857   4.812  10.325  11.132  0.3084 -0.6764 -0.1389
  152MOL0     C20858   4.855  10.470  11.140 -0.5596  0.3050 -0.3700
  152MOL0     C20859   5.003  10.484  11.100 -0.0738 -0.2932 -0.9793
  152MOL0     C20860   5.059  10.635  11.106 -0.6712  0.3207  0.1443
  152MOL0     C20861   5.211  10.647  11.090  0.2574 -0.0933  0.1054
  152MOL0     O20862   5.240  10.646  10.951 -0.0728 -0.0930  0.2228
  152MOL0     C20863   5.360  10.696  10.904 -0.8029  1.0111  0.0271
  152MOL0     C20864   5.475  10.725  10.978 -0.2243  0.2115  0.5348
  152MOL0     C20865   5.589  10.784  10.918  0.3090 -0.6568 -0.1500
  152MOL0     C20866   5.704  10.818  11.005  0.2556  0.0324 -0.4056
  152MOL0     C20867   5.595  10.800  10.780 -0.1374  0.2024  0.0833
  152MOL0     C20868   5.717  10.854  10.717 -0.3112  0.3463 -0.2214
  152MOL0     O20869   5.758  10.979  10.752 -0.0428  0.1716 -0.4524
  152MOL0     C20870   5.865  11.039  10.694  0.2252 -0.4825  0.0103
  152MOL0     C20871   5.879  11.072  10.553 -1.1292 -0.1179  0.1522
  152MOL0     C20872   5.980  11.158  10.513 -0.3196  0.3662 -0.5935
  152MOL0     C20873   6.074  11.209  10.603  0.2490  1.1726 -1.0253
  152MOL0     O20874   6.172  11.288  10.557  0.1210  0.6608  0.1754
  152MOL0     C20875   6.306  11.221  10.545 -0.2766 -1.1773 -0.1001
  152MOL0     C20876   6.340  11.199  10.399  0.0684  0.0562  0.5710
  152MOL0     C20877   6.353  11.341  10.334 -0.6488  0.3615 -0.0404
  152MOL0     C20878   6.504  11.379  10.330 -0.3059 -0.0891  0.9313
  152MOL0     C20879   6.534  11.515  10.262  0.4275  0.2285  0.0399
  152MOL0     C20880   6.468  11.637  10.323 -0.1367 -0.7414 -0.3118
  152MOL0     C20881   6.498  11.661  10.477  0.2987 -0.7803  0.5825
  152MOL0     C20882   6.452  11.802  10.521 -0.9633 -0.2762  0.0631
  152MOL0    Cl20883   6.521  11.934  10.420 -0.5216  0.4749  0.6009
  152MOL0     C20884   6.072  11.173  10.740  0.2573 -0.1830  1.0468
  152MOL0     C20885   5.966  11.084  10.785  0.5140 -0.6533  0.0785
  152MOL0     O20886   5.760  10.790  10.622  0.2264  0.4512  0.1266
  152MOL0     C20887   5.484  10.775  10.700 -0.1833  0.2342 -0.7384
  152MOL0     C20888   5.366  10.728  10.764 -0.6903 -0.4076 -0.4821
  152MOL0     N20889   4.855  10.228  11.217  0.0378 -0.2162 -0.2743
  152MOL0     N20890   4.790  10.118  11.192 -0.0995 -0.4234  0.4165
  152MOL0     C20891   3.856   9.606  10.911 -0.3509  0.2757 -0.3363
  152MOL0     C20892   3.723   9.617  10.898  0.0373  0.8828 -0.9547
  152MOL0     C20893   3.333   9.489  10.647  0.0984 -0.5221 -0.5217
  152MOL0     C20894   3.372   9.555  10.527  0.5450  0.5119 -1.1329
  152MOL0     C20895   3.282   9.557  10.425 -1.1428 -1.0560  1.0070
  152MOL0     C20896   3.152   9.514  10.441  0.5688 -0.7304  0.7518
  152MOL0     O20897   3.063   9.513  10.330  0.1335  0.2833  0.2212
  152MOL0     C20898   2.939   9.440  10.336  0.3888 -0.0600 -0.1035
  152MOL0     C20899   2.865   9.448  10.210  0.0737 -0.7112 -0.0090
  152MOL0     C20900   2.798   9.593  10.202 -0.0191  0.4895 -0.0873
  152MOL0     C20901   2.719   9.618  10.078  0.1780  0.0475 -0.4419
  152MOL0     C20902   2.636   9.746  10.084 -0.2615 -0.1499 -0.5083
  152MOL0     C20903   2.560   9.839  10.086  0.6613 -1.1108  0.1950
  152MOL0     C20904   3.106   9.477  10.570  0.2336 -0.4131 -0.0909
  152MOL0     C20905   3.194   9.466  10.673  0.1925 -0.8292  0.6349
  152MOL0     C20906   3.145   9.425  10.812  0.4995 -0.3407 -0.9085
  152MOL0     H20907   3.669   9.366  10.674 -1.8278  0.8848  1.1141
  152MOL0     H20908   3.916   9.358  10.687 -0.5039  1.4649 -2.0460
  152MOL0     H20909   4.110   9.517  10.643  0.5301 -3.0930 -2.4827
  152MOL0     H20910   4.124   9.359  10.712 -1.7852  0.2864 -1.2694
  152MOL0     H20911   4.322   9.445  10.848  2.2344  0.3182 -0.9170
  152MOL0     H20912   4.342   9.448  10.665 -0.8654  1.3335 -1.0393
  152MOL0     H20913   4.335   9.664  10.644  3.7797 -4.5860 -0.9804
  152MOL0     H20914   4.246   9.703  10.810  0.6147  0.9955 -1.1472
  152MOL0     H20915   4.469   9.635  10.912  0.8928  0.1341  0.1709
  152MOL0     H20916   4.528   9.624  10.746 -1.0125 -2.3516  0.2171
  152MOL0     H20917   4.417   9.875  10.888 -0.3753  0.5933 -0.2377
  152MOL0     H20918   4.470   9.871  10.715  1.2204  3.4742  0.6600
  152MOL0     H20919   4.625   9.791  10.970  3.5587  0.2229  0.6331
  152MOL0     H20920   4.692   9.802  10.815 -0.5173 -0.4348 -1.0371
  152MOL0     H20921   4.611  10.061  10.821  1.3686 -3.6013 -3.1932
  152MOL0     H20922   4.756  10.016  10.897  0.2125  2.5035  3.9887
  152MOL0     H20923   4.500  10.072  11.044  0.2220  0.6186  1.3857
  152MOL0     H20924   4.608   9.948  11.106 -1.9977  1.2330  2.9863
  152MOL0     H20925   4.656  10.327  10.972  0.4199 -0.8891 -0.9976
  152MOL0     H20926   4.846  10.508  11.242  1.7512  1.9559 -0.6906
  152MOL0     H20927   4.792  10.530  11.074  2.2611  3.8484 -0.1741
  152MOL0     H20928   5.064  10.424  11.169  2.0174  1.7710 -0.9237
  152MOL0     H20929   4.999  10.441  10.999 -3.5364 -2.2768 -0.1559
  152MOL0     H20930   5.012  10.697  11.029  1.6593 -0.4636 -2.0159
  152MOL0     H20931   5.031  10.675  11.204  1.1100  2.1351 -0.0292
  152MOL0     H20932   5.231  10.744  11.136 -2.9500  0.3314  0.8772
  152MOL0     H20933   5.264  10.565  11.141 -0.3728 -0.8036 -0.3610
  152MOL0     H20934   5.473  10.721  11.087 -1.0412 -0.3511  0.5096
  152MOL0     H20935   5.789  10.759  10.968  0.0721 -0.3124 -0.2866
  152MOL0     H20936   5.675  10.796  11.108  0.1896  3.1757  0.3312
  152MOL0     H20937   5.731  10.924  11.003  0.4131  0.0198  0.4975
  152MOL0     H20938   5.810  11.026  10.482 -3.1927 -0.1952  2.1106
  152MOL0     H20939   5.999  11.171  10.407 -0.7819 -1.5060 -0.9439
  152MOL0     H20940   6.381  11.286  10.592 -1.6796 -0.0431  0.6584
  152MOL0     H20941   6.311  11.123  10.594 -1.7682 -0.3385  1.8244
  152MOL0     H20942   6.430  11.138  10.387  1.5368  1.8142  1.9928
  152MOL0     H20943   6.255  11.150  10.349  1.6634 -2.4424  0.1309
  152MOL0     H20944   6.319  11.416  10.406 -0.0200  1.7350 -1.1244
  152MOL0     H20945   6.297  11.356  10.241  0.1110  0.6797 -0.4559
  152MOL0     H20946   6.570  11.313  10.272  1.6468  2.8073 -0.3553
  152MOL0     H20947   6.537  11.363  10.433 -2.4834 -1.1000  1.5518
  152MOL0     H20948   6.642  11.537  10.261  0.6372 -0.7350 -1.0178
  152MOL0     H20949   6.495  11.499  10.161 -0.3967  0.4026  0.3312
  152MOL0     H20950   6.361  11.625  10.307 -0.4570 -2.0191  2.2811
  152MOL0     H20951   6.496  11.730  10.272 -4.9838  0.8625 -0.5062
  152MOL0     H20952   6.605  11.659  10.501  0.9273  0.5346 -1.7804
  152MOL0     H20953   6.440  11.584  10.529 -1.4775 -0.1958 -0.4286
  152MOL0     H20954   6.475  11.818  10.627 -1.2759  1.3160 -0.0841
  152MOL0     H20955   6.345  11.822  10.526 -0.9291  0.1608 -0.7602
  152MOL0     H20956   6.146  11.210  10.811  0.8005 -1.3081  1.0927
  152MOL0     H20957   5.951  11.060  10.890 -1.3374  0.1351  0.0470
  152MOL0     H20958   5.493  10.789  10.593  1.7125 -1.9778 -0.9459
  152MOL0     H20959   5.280  10.698  10.705 -0.0953 -0.6634 -1.2423
  152MOL0     H20960   3.913   9.669  10.978  0.3287 -0.3351 -0.3235
  152MOL0     H20961   3.657   9.690  10.943  0.0406  0.9003 -0.9785
  152MOL0     H20962   3.476   9.586  10.519  0.4661  1.2067  0.3711
  152MOL0     H20963   3.303   9.599  10.327  0.1792 -0.1609  1.6490
  152MOL0     H20964   2.972   9.337  10.352  0.9471  0.3445  1.5482
  152MOL0     H20965   2.882   9.472  10.423  0.5231  2.6069 -0.9071
  152MOL0     H20966   2.780   9.379  10.211 -0.2260 -0.3753 -0.8048
  152MOL0     H20967   2.931   9.420  10.127  1.7538  0.5265  0.8442
  152MOL0     H20968   2.732   9.610  10.288 -1.7497  3.4520 -1.8242
  152MOL0     H20969   2.869   9.675  10.190 -1.6941  1.9288 -0.6437
  152MOL0     H20970   2.644   9.538  10.081  0.4775 -0.2215  0.0700
  152MOL0     H20971   2.777   9.611   9.985  0.3548 -0.7025 -0.2861
  152MOL0     H20972   2.493   9.922  10.097 -0.9312 -1.8971 -2.6156
  152MOL0     H20973   3.002   9.454  10.588 -0.4181  1.6752 -0.9107
  152MOL0     H20974   3.196   9.333  10.840  1.1391  0.1159 -0.5614
  152MOL0     H20975   3.162   9.502  10.888  0.3320 -1.4875  0.3239
  152MOL0     H20976   3.036   9.418  10.817  0.3399  1.1457 -1.5927
  153MOL0     O20977  10.355   1.632   2.330  0.6690  0.2754 -0.6421
  153MOL0     C20978  10.297   1.700   2.417  0.5290  0.4389 -0.5534
  153MOL0     O20979  10.328   1.703   2.550 -0.3238  0.1712 -0.4645
  153MOL0     C20980  10.451   1.651   2.578 -0.3728  0.4217 -0.5779
  153MOL0     C20981  10.463   1.513   2.609  0.5616  0.3096 -0.6765
  153MOL0     C20982  10.588   1.460   2.644  0.0287 -0.0967  0.5890
  153MOL0     C20983  10.705   1.541   2.647 -0.0190  0.3667  0.6233
  153MOL0     O20984  10.840   1.502   2.664  0.5480  0.4112 -0.0859
  153MOL0     C20985  10.843   1.423   2.796 -0.8034 -0.0465  0.3902
  153MOL0     C20986  10.975   1.343   2.818 -0.3038 -0.3187  0.6661
  153MOL0     C20987  11.100   1.426   2.790 -0.4350  0.1025 -0.1661
  153MOL0     C20988  11.240   1.362   2.841  0.5904 -0.7066 -0.8742
  153MOL0     C20989  11.351   1.449   2.776  0.3221  0.0476  0.2263
  153MOL0     C20990  11.485   1.389   2.818  0.2043 -0.5941 -0.3949
  153MOL0     C20991  11.594   1.422   2.725 -0.9271  0.4367  0.0635
  153MOL0     C20992  11.730   1.355   2.749 -1.2763 -0.0932  0.6227
  153MOL0     N20993  11.799   1.386   2.873  0.0952  1.0456 -0.6151
  153MOL0     C20994  11.863   1.509   2.905 -0.1602  0.1027  0.1690
  153MOL0     C20995  11.889   1.491   3.040  0.8973 -0.2698  0.7948
  153MOL0     C20996  11.969   1.582   3.124  0.5729 -0.4388  0.2207
  153MOL0     C20997  12.110   1.606   3.062  0.4030 -0.3617  0.9792
  153MOL0     C20998  12.165   1.753   3.077 -0.2933  0.5054 -0.3681
  153MOL0     C20999  12.326   1.753   3.076 -0.2090  0.7453  0.3304
  153MOL0     O21000  12.371   1.879   3.127  0.1415 -0.1634 -1.1646
  153MOL0     C21001  12.510   1.894   3.147  0.5929 -0.1165  0.6945
  153MOL0     C21002  12.607   1.800   3.140  0.3177 -0.6916 -0.8292
  153MOL0     C21003  12.738   1.823   3.183 -0.1722 -0.2822 -0.0505
  153MOL0     C21004  12.826   1.704   3.155 -0.5639  0.3806 -0.3900
  153MOL0     C21005  12.779   1.951   3.222  0.7023 -0.0891 -0.1664
  153MOL0     C21006  12.917   1.985   3.277 -0.1701  0.0698  0.2863
  153MOL0     O21007  12.969   2.117   3.240 -0.2069  0.5341  0.3449
  153MOL0     C21008  13.098   2.152   3.280  0.1160  0.4047 -0.1384
  153MOL0     C21009  13.155   2.111   3.401  0.4292  0.4096  0.2500
  153MOL0     C21010  13.282   2.167   3.443 -0.1982  0.6189  0.9292
  153MOL0     C21011  13.354   2.251   3.363  0.2544 -0.9223  0.6717
  153MOL0     O21012  13.480   2.294   3.405  0.4047  0.2918  0.0720
  153MOL0     C21013  13.582   2.193   3.404 -1.1371  0.8137  0.3141
  153MOL0     C21014  13.718   2.257   3.343  0.1309  0.5838  0.0084
  153MOL0     C21015  13.793   2.341   3.444  0.6767 -0.6788  0.5481
  153MOL0     C21016  13.925   2.387   3.392  1.4624  0.8185 -1.2047
  153MOL0     C21017  14.004   2.478   3.488 -0.5781 -0.0067 -0.2695
  153MOL0     C21018  14.112   2.559   3.416 -1.0142 -0.8015 -0.9462
  153MOL0     C21019  14.060   2.671   3.327  0.1393  0.2975  0.1025
  153MOL0     C21020  14.164   2.714   3.224 -1.0937 -0.0803  1.3122
  153MOL0    Cl21021  14.310   2.778   3.303 -0.1201 -0.6760 -0.0932
  153MOL0     C21022  13.301   2.290   3.237  0.3922 -0.9232  1.0052
  153MOL0     C21023  13.173   2.236   3.201 -0.3525 -0.1352  0.2219
  153MOL0     O21024  12.980   1.896   3.330  0.8395 -0.2396  0.0329
  153MOL0     C21025  12.682   2.044   3.228  0.4441 -1.0173 -0.2471
  153MOL0     C21026  12.547   2.025   3.186  0.0748  0.0993  0.1916
  153MOL0     N21027  11.824   1.379   3.087  0.1721 -0.7541 -0.0636
  153MOL0     N21028  11.776   1.314   2.992 -0.6773  0.6719  0.1557
  153MOL0     C21029  10.691   1.676   2.604  0.6013  0.2147  0.7004
  153MOL0     C21030  10.566   1.725   2.572 -0.5162 -0.6882 -0.4972
  153MOL0     C21031  10.193   1.796   2.369  0.3734  0.4947  0.1385
  153MOL0     C21032  10.117   1.744   2.266 -0.5826  0.6954  0.2013
  153MOL0     C21033  10.021   1.829   2.200 -0.2638 -0.1782  0.2569
  153MOL0     C21034  10.003   1.957   2.245  0.7492  0.7256 -0.5909
  153MOL0     O21035   9.904   2.036   2.190 -0.4480  0.3241  0.5115
  153MOL0     C21036   9.794   2.078   2.264 -0.7639 -0.3377 -0.5679
  153MOL0     C21037   9.665   2.080   2.175 -1.2059 -0.4532  0.5922
  153MOL0     C21038   9.611   1.938   2.136 -0.3402  0.1870  0.2789
  153MOL0     C21039   9.475   1.965   2.064 -0.0330  0.6580 -1.3035
  153MOL0     C21040   9.374   1.985   2.164 -0.3044 -0.6000  0.4322
  153MOL0     C21041   9.291   2.005   2.256 -0.2533 -0.2350  0.3056
  153MOL0     C21042  10.065   1.996   2.365 -0.8323  0.0881 -0.4521
  153MOL0     C21043  10.170   1.919   2.422 -0.4392 -0.4405 -0.0650
  153MOL0     C21044  10.246   1.980   2.531  0.0886 -0.3972  0.2573
  153MOL0     H21045  10.370   1.459   2.607  0.5601  0.2792  0.0243
  153MOL0     H21046  10.595   1.355   2.672 -2.2238 -0.6546 -0.6726
  153MOL0     H21047  10.766   1.346   2.799  0.9496 -2.0002 -1.2709
  153MOL0     H21048  10.833   1.499   2.874  2.5253 -1.1072  2.0533
  153MOL0     H21049  10.976   1.316   2.924 -0.5098  2.5178  1.4593
  153MOL0     H21050  10.980   1.247   2.766 -1.7257 -3.2593  5.3141
  153MOL0     H21051  11.109   1.429   2.681  1.4437 -4.4537 -0.3930
  153MOL0     H21052  11.092   1.528   2.827  0.2683  0.8754 -2.0322
  153MOL0     H21053  11.251   1.379   2.948  1.0630  2.5843 -1.3564
  153MOL0     H21054  11.246   1.259   2.805 -2.0465 -1.3775  0.3929
  153MOL0     H21055  11.337   1.554   2.803  1.9686  0.3368  0.0428
  153MOL0     H21056  11.345   1.436   2.668  0.1435  4.6170 -0.5270
  153MOL0     H21057  11.514   1.421   2.918  2.2915  0.8596 -1.3703
  153MOL0     H21058  11.490   1.280   2.808  1.7913 -0.3604 -4.0196
  153MOL0     H21059  11.603   1.531   2.725 -0.9023  0.4396  0.7913
  153MOL0     H21060  11.564   1.399   2.622  0.0799  0.4951 -0.2482
  153MOL0     H21061  11.711   1.248   2.758 -0.5572 -0.0671  3.6322
  153MOL0     H21062  11.804   1.377   2.672 -1.7561  3.6858  1.0284
  153MOL0     H21063  11.886   1.597   2.846 -2.5081  1.2693  0.8982
  153MOL0     H21064  11.977   1.530   3.220 -1.9352  2.5742  2.2643
  153MOL0     H21065  11.908   1.673   3.130 -1.3438 -1.3567 -3.0675
  153MOL0     H21066  12.170   1.531   3.115  0.0562 -1.5692 -0.2662
  153MOL0     H21067  12.108   1.578   2.956 -1.7510 -0.3603  0.9790
  153MOL0     H21068  12.126   1.808   2.991  1.1139 -1.4739 -2.3805
  153MOL0     H21069  12.121   1.799   3.167  0.0584  2.3989 -1.1279
  153MOL0     H21070  12.378   1.675   3.133  1.2484  0.8188 -0.8641
  153MOL0     H21071  12.361   1.743   2.973  0.6695 -0.4832  0.7267
  153MOL0     H21072  12.586   1.699   3.105  0.3454 -0.4524 -1.5503
  153MOL0     H21073  12.924   1.734   3.117 -1.3869  1.8288 -1.4864
  153MOL0     H21074  12.785   1.640   3.076 -1.5521 -0.8391  1.0561
  153MOL0     H21075  12.842   1.637   3.240  2.2854 -1.3255 -2.1196
  153MOL0     H21076  13.097   2.046   3.466 -0.1199 -0.0947 -0.7211
  153MOL0     H21077  13.326   2.157   3.541 -0.8993 -0.9011  1.1063
  153MOL0     H21078  13.607   2.162   3.506  2.8796 -1.1685 -1.0591
  153MOL0     H21079  13.559   2.098   3.354  3.3983 -1.0120  1.1463
  153MOL0     H21080  13.791   2.179   3.321 -0.3774  0.4359 -1.2227
  153MOL0     H21081  13.696   2.316   3.254 -2.0091 -2.9780 -2.0358
  153MOL0     H21082  13.801   2.292   3.541  3.5906 -0.1887  0.6434
  153MOL0     H21083  13.740   2.436   3.455 -0.2477 -1.3536  2.1747
  153MOL0     H21084  13.911   2.441   3.298 -2.2611  0.7204 -0.8678
  153MOL0     H21085  13.987   2.300   3.370  1.3945  0.1756  0.9634
  153MOL0     H21086  13.937   2.547   3.541 -0.0986 -0.0689  0.4417
  153MOL0     H21087  14.042   2.400   3.555 -2.1835 -1.3767 -0.8990
  153MOL0     H21088  14.172   2.496   3.349  1.2711 -1.1184  1.2397
  153MOL0     H21089  14.175   2.591   3.499  0.8249  1.5419 -3.0979
  153MOL0     H21090  14.032   2.754   3.391  0.0959  1.0220 -0.8352
  153MOL0     H21091  13.972   2.639   3.270 -2.4182  0.9833  3.3658
  153MOL0     H21092  14.127   2.790   3.156 -1.8854 -0.7492  0.9773
  153MOL0     H21093  14.184   2.627   3.161  0.7410  2.0396 -1.2738
  153MOL0     H21094  13.347   2.364   3.172 -2.6431 -0.6537 -1.0278
  153MOL0     H21095  13.122   2.283   3.117 -2.2974  1.2966  2.0750
  153MOL0     H21096  12.694   2.146   3.264 -4.1157  0.0698 -1.1432
  153MOL0     H21097  12.488   2.116   3.184 -1.2027 -0.7073 -0.2086
  153MOL0     H21098  10.776   1.741   2.591  0.7769 -0.0822  0.3555
  153MOL0     H21099  10.572   1.824   2.527 -0.0398 -0.6875 -0.4302
  153MOL0     H21100  10.122   1.638   2.241  1.3967  0.4161  1.4981
  153MOL0     H21101   9.961   1.793   2.117  0.6998  0.0704 -0.5868
  153MOL0     H21102   9.778   2.016   2.353  3.4839  1.3100  1.6556
  153MOL0     H21103   9.825   2.175   2.303 -1.6645 -0.1520 -0.2976
  153MOL0     H21104   9.692   2.129   2.081 -0.2617 -3.0453 -0.5969
  153MOL0     H21105   9.582   2.126   2.229 -1.4351 -1.2246  0.9127
  153MOL0     H21106   9.673   1.874   2.072 -1.1889 -2.6389  2.0719
  153MOL0     H21107   9.603   1.886   2.232  0.4614  0.8968  0.7466
  153MOL0     H21108   9.437   1.879   2.007 -0.3350 -1.0396  1.3043
  153MOL0     H21109   9.495   2.054   2.003  2.2937  0.0032 -1.6023
  153MOL0     H21110   9.217   2.010   2.332 -0.8676 -3.9132  0.1227
  153MOL0     H21111  10.041   2.096   2.399 -1.4551 -0.1643 -0.1349
  153MOL0     H21112  10.343   2.002   2.485 -1.1461  1.9303 -1.3952
  153MOL0     H21113  10.200   2.066   2.581  0.5037 -1.0759  1.8777
  153MOL0     H21114  10.271   1.910   2.612 -0.5531 -2.9190 -1.6000
  154MOL0     O21115   5.067   8.613   6.386  0.9803 -0.3895  0.1102
  154MOL0     C21116   5.000   8.690   6.320 -0.8885 -0.0700 -0.4491
  154MOL0     O21117   5.052   8.800   6.261 -0.4597  0.5007  0.8509
  154MOL0     C21118   5.186   8.791   6.239 -0.2624  0.4693 -0.3285
  154MOL0     C21119   5.274   8.808   6.345 -0.7885 -0.2715 -0.1791
  154MOL0     C21120   5.408   8.782   6.330  0.1951 -0.7761  0.9576
  154MOL0     C21121   5.457   8.738   6.203 -0.0090  0.4808  0.4429
  154MOL0     O21122   5.587   8.699   6.189 -0.0497 -0.1884  0.0069
  154MOL0     C21123   5.690   8.800   6.205  0.2086 -0.8988 -0.0769
  154MOL0     C21124   5.820   8.756   6.166 -0.9505  0.3527 -0.5987
  154MOL0     C21125   5.886   8.687   6.274 -1.0332  0.2589 -0.0702
  154MOL0     C21126   6.026   8.636   6.234  0.1278 -0.0087  0.2958
  154MOL0     C21127   6.074   8.539   6.337 -0.2453 -0.3033 -0.3785
  154MOL0     C21128   6.208   8.474   6.291 -0.0109 -0.5612 -0.3843
  154MOL0     C21129   6.337   8.569   6.302 -0.4405  0.4863 -0.3867
  154MOL0     C21130   6.331   8.652   6.428  0.0951  1.2818  1.2695
  154MOL0     N21131   6.457   8.729   6.437 -0.0757  0.6858  0.5251
  154MOL0     C21132   6.585   8.680   6.405  0.1953  0.8174  0.3557
  154MOL0     C21133   6.674   8.741   6.483 -1.4915 -0.1776  0.3461
  154MOL0     C21134   6.819   8.731   6.455 -0.4556 -1.0443 -0.6907
  154MOL0     C21135   6.904   8.742   6.588  0.7496 -0.0315 -0.2200
  154MOL0     C21136   7.037   8.680   6.552 -0.1893 -0.0255 -1.0977
  154MOL0     C21137   7.142   8.701   6.669  0.3695  0.8237  0.5007
  154MOL0     O21138   7.263   8.639   6.623  0.3232 -0.3831  0.4294
  154MOL0     C21139   7.380   8.660   6.704  0.2588  0.2031  0.2476
  154MOL0     C21140   7.505   8.665   6.641  0.2150 -0.3562  0.3035
  154MOL0     C21141   7.625   8.677   6.717  0.5818  0.1916 -0.7467
  154MOL0     C21142   7.753   8.689   6.637  0.4909 -0.4718 -0.5042
  154MOL0     C21143   7.610   8.699   6.866 -0.8470  0.4390  0.4961
  154MOL0     C21144   7.730   8.710   6.959 -0.5127 -0.0984 -0.3266
  154MOL0     O21145   7.697   8.729   7.085 -0.5042 -0.1133  0.1621
  154MOL0     C21146   7.791   8.725   7.184 -1.3370 -0.6249  0.1328
  154MOL0     C21147   7.892   8.820   7.184 -0.1714 -0.2138  0.2522
  154MOL0     C21148   7.997   8.817   7.274 -0.0198 -0.2866 -0.5273
  154MOL0     C21149   8.003   8.720   7.374 -0.3479 -0.5454  0.6051
  154MOL0     O21150   8.110   8.726   7.466  0.2270  0.4549 -1.2709
  154MOL0     C21151   8.095   8.670   7.604  0.2076 -0.0691 -0.5978
  154MOL0     C21152   8.137   8.522   7.589  0.4075  0.6510  0.1504
  154MOL0     C21153   8.289   8.510   7.550  0.4016  0.5009  0.3953
  154MOL0     C21154   8.380   8.590   7.646 -0.0029 -0.3570  0.3108
  154MOL0     C21155   8.527   8.546   7.612 -0.0288 -0.4792  0.0207
  154MOL0     C21156   8.623   8.580   7.725 -1.1609 -0.2679 -0.0715
  154MOL0     C21157   8.757   8.509   7.715  0.6011 -1.0351  0.3316
  154MOL0     C21158   8.846   8.538   7.846  0.2282 -0.0708  0.9493
  154MOL0    Cl21159   8.867   8.711   7.852 -0.0025  0.0446  0.2549
  154MOL0     C21160   7.890   8.631   7.379  0.3542 -0.3851  0.6503
  154MOL0     C21161   7.787   8.640   7.289  1.3360  0.0030  0.3375
  154MOL0     O21162   7.845   8.674   6.920  0.3382  0.3221  0.9532
  154MOL0     C21163   7.485   8.688   6.920  0.3954 -0.6429  0.5576
  154MOL0     C21164   7.371   8.663   6.841 -0.8347  0.8932  0.1035
  154MOL0     N21165   6.604   8.827   6.564  0.5259 -0.5494  0.4014
  154MOL0     N21166   6.477   8.826   6.530  0.0921 -0.0137  0.5235
  154MOL0     C21167   5.367   8.740   6.094 -0.8210 -0.4637  0.4136
  154MOL0     C21168   5.236   8.757   6.113 -0.2692 -0.7195  1.2700
  154MOL0     C21169   4.857   8.672   6.311  0.6416 -0.0413 -0.6295
  154MOL0     C21170   4.817   8.536   6.280  0.2644 -0.0820  1.1640
  154MOL0     C21171   4.680   8.505   6.279  0.9807  0.8303 -0.0482
  154MOL0     C21172   4.582   8.607   6.300 -0.3621  0.3482  0.4139
  154MOL0     O21173   4.459   8.570   6.323  0.9756 -0.0343  0.0595
  154MOL0     C21174   4.403   8.467   6.250  0.9877 -0.3447 -0.2010
  154MOL0     C21175   4.254   8.486   6.251  0.5257 -0.0517 -0.2682
  154MOL0     C21176   4.203   8.534   6.383  0.4193 -0.3031  0.2757
  154MOL0     C21177   4.054   8.550   6.389  0.4297 -0.9139 -0.7224
  154MOL0     C21178   4.003   8.581   6.527  0.0329  0.2103  0.5534
  154MOL0     C21179   3.965   8.594   6.643  0.1250  0.5595  0.3425
  154MOL0     C21180   4.632   8.739   6.322 -0.3406  0.3023  0.0807
  154MOL0     C21181   4.761   8.767   6.338 -0.7073 -0.0962  0.1893
  154MOL0     C21182   4.796   8.901   6.375 -0.1719 -0.3838 -0.2869
  154MOL0     H21183   5.240   8.841   6.443 -0.7448  2.9457 -1.1276
  154MOL0     H21184   5.475   8.786   6.416 -0.3464 -0.4595  1.3746
  154MOL0     H21185   5.686   8.811   6.314 -0.8532  0.1365 -0.2046
  154MOL0     H21186   5.660   8.894   6.159 -0.3720 -0.2185  1.6175
  154MOL0     H21187   5.816   8.698   6.073  1.5456  1.2752 -1.3766
  154MOL0     H21188   5.891   8.838   6.148 -0.2634  0.5790  2.5935
  154MOL0     H21189   5.912   8.753   6.358 -1.7559  0.0701  0.3051
  154MOL0     H21190   5.830   8.602   6.313 -1.0105 -0.8409 -2.2803
  154MOL0     H21191   6.017   8.575   6.143  3.3794 -0.7569  0.3561
  154MOL0     H21192   6.096   8.718   6.218  0.6636 -0.7543 -1.3557
  154MOL0     H21193   6.001   8.459   6.350  1.9049 -2.6171 -1.6679
  154MOL0     H21194   6.088   8.587   6.434  0.5066  0.5765 -0.9097
  154MOL0     H21195   6.224   8.399   6.368 -2.6980 -0.2940  0.5506
  154MOL0     H21196   6.183   8.433   6.192 -0.3972 -1.7463  0.1920
  154MOL0     H21197   6.352   8.639   6.219  1.4029  0.6485  0.0244
  154MOL0     H21198   6.416   8.493   6.290 -0.2031  0.7738 -0.6728
  154MOL0     H21199   6.251   8.724   6.407 -1.2417 -0.8118 -1.5511
  154MOL0     H21200   6.301   8.595   6.516  1.4402 -0.1293  0.8602
  154MOL0     H21201   6.600   8.619   6.318 -2.3241 -1.8256  1.5935
  154MOL0     H21202   6.849   8.813   6.389 -0.4904  0.4284  1.0211
  154MOL0     H21203   6.828   8.640   6.396 -2.1210 -1.0511 -0.9951
  154MOL0     H21204   6.914   8.850   6.598 -2.1924  0.3179 -0.0031
  154MOL0     H21205   6.855   8.697   6.675 -2.2032 -0.3748 -1.9317
  154MOL0     H21206   7.030   8.573   6.529 -0.8500 -0.2096 -0.0806
  154MOL0     H21207   7.078   8.729   6.463 -0.1289 -0.0692 -1.0944
  154MOL0     H21208   7.165   8.806   6.690 -1.8834  1.1315  1.7972
  154MOL0     H21209   7.103   8.652   6.759 -1.5730  1.7510  0.2173
  154MOL0     H21210   7.512   8.664   6.533 -2.9306  0.3017 -0.0002
  154MOL0     H21211   7.821   8.615   6.681 -0.4802 -0.2225  1.5479
  154MOL0     H21212   7.804   8.786   6.635  0.4839 -0.4738 -0.7030
  154MOL0     H21213   7.734   8.655   6.535 -0.5057 -0.3812 -0.3578
  154MOL0     H21214   7.898   8.897   7.108 -0.9598 -0.1980  0.1975
  154MOL0     H21215   8.068   8.899   7.270 -0.9793  0.5371 -1.1197
  154MOL0     H21216   8.166   8.719   7.672  0.4329  2.0799 -2.2765
  154MOL0     H21217   7.997   8.691   7.648  0.6458  0.8264 -0.0210
  154MOL0     H21218   8.101   8.472   7.679  1.7842  1.2993  1.1030
  154MOL0     H21219   8.092   8.481   7.499 -1.0887 -2.9288  2.2948
  154MOL0     H21220   8.314   8.541   7.448  1.9485 -3.4166 -0.6232
  154MOL0     H21221   8.313   8.403   7.561  1.3986  0.7893  1.1324
  154MOL0     H21222   8.351   8.570   7.749  0.1080  1.0087  0.6273
  154MOL0     H21223   8.359   8.696   7.631 -0.3543 -0.3596  0.7551
  154MOL0     H21224   8.526   8.438   7.593  0.5433 -0.7260  1.2696
  154MOL0     H21225   8.554   8.579   7.511 -0.4564 -0.0618  0.0410
  154MOL0     H21226   8.578   8.543   7.817 -0.6381 -0.7963 -0.0254
  154MOL0     H21227   8.633   8.688   7.739  1.7150 -0.7057  2.0529
  154MOL0     H21228   8.811   8.567   7.641 -0.8004 -0.0623  0.0336
  154MOL0     H21229   8.752   8.402   7.691 -1.5022 -0.8813 -0.1463
  154MOL0     H21230   8.943   8.488   7.844  0.7340  0.7124  3.1067
  154MOL0     H21231   8.797   8.504   7.938 -2.8238 -1.3462 -0.9729
  154MOL0     H21232   7.880   8.561   7.462 -0.4669 -1.3327 -0.2185
  154MOL0     H21233   7.707   8.567   7.293  3.2269 -2.2940 -1.1156
  154MOL0     H21234   7.459   8.675   7.025  0.5193 -3.7381  0.2863
  154MOL0     H21235   7.279   8.651   6.899 -1.0259 -0.7706 -0.4777
  154MOL0     H21236   5.404   8.729   5.993  1.6201 -2.0722  1.3894
  154MOL0     H21237   5.162   8.746   6.034 -2.5135 -2.2997  3.4322
  154MOL0     H21238   4.887   8.455   6.265 -2.3486 -1.8672 -3.4101
  154MOL0     H21239   4.649   8.401   6.280 -0.5843  1.2279 -1.8336
  154MOL0     H21240   4.438   8.470   6.146 -0.4718 -1.8271 -0.7738
  154MOL0     H21241   4.432   8.369   6.289 -1.1740 -1.5949 -1.4948
  154MOL0     H21242   4.212   8.390   6.220 -0.0254  0.0352  0.1860
  154MOL0     H21243   4.230   8.566   6.181 -1.1954  1.5183  1.9815
  154MOL0     H21244   4.237   8.461   6.457  0.5196  0.1671  0.6983
  154MOL0     H21245   4.244   8.632   6.411  0.7275 -0.2948 -0.2049
  154MOL0     H21246   3.990   8.472   6.346 -2.9852 -0.8671  3.5611
  154MOL0     H21247   4.028   8.632   6.321 -1.7584 -0.7191  0.2550
  154MOL0     H21248   3.935   8.599   6.746 -0.8345 -2.2324  0.2704
  154MOL0     H21249   4.554   8.814   6.333 -0.6812  0.0773 -0.7618
  154MOL0     H21250   4.707   8.963   6.388 -0.0671 -0.2815 -0.0432
  154MOL0     H21251   4.860   8.903   6.464 -0.8986  0.8333  0.2302
  154MOL0     H21252   4.851   8.943   6.290  0.3423  0.1823  0.3115
  155MOL0     O21253   8.147   5.045   5.315 -0.0719 -0.3637 -0.6827
  155MOL0     C21254   8.038   4.998   5.362 -0.1551  0.7576 -0.0259
  155MOL0     O21255   7.977   5.049   5.473  0.2893  0.1759  0.1480
  155MOL0     C21256   8.011   5.170   5.527 -0.2410  0.1747  0.2224
  155MOL0     C21257   8.000   5.172   5.668 -0.0564 -0.4191 -0.3163
  155MOL0     C21258   8.047   5.290   5.729 -0.0545  0.9868  0.3613
  155MOL0     C21259   8.073   5.408   5.661  0.1188 -0.7309 -0.4579
  155MOL0     O21260   8.104   5.526   5.724 -0.9759  0.0731 -0.6489
  155MOL0     C21261   8.061   5.658   5.671  0.4676 -0.5977  0.4686
  155MOL0     C21262   8.075   5.762   5.783 -0.7091 -0.6263 -0.1543
  155MOL0     C21263   8.004   5.898   5.748  0.3540  0.0766  0.2998
  155MOL0     C21264   7.853   5.897   5.783 -0.0073 -0.3097 -0.1397
  155MOL0     C21265   7.805   6.043   5.799  0.0936 -0.7903 -0.6691
  155MOL0     C21266   7.663   6.049   5.835  0.8557 -0.0274  0.4791
  155MOL0     C21267   7.609   6.194   5.850  0.8091  0.5729  0.2216
  155MOL0     C21268   7.678   6.292   5.946 -0.3843 -0.1269 -0.6386
  155MOL0     N21269   7.718   6.241   6.076  0.3379 -0.5881  0.0408
  155MOL0     C21270   7.630   6.222   6.181 -1.2808  0.3812 -0.8112
  155MOL0     C21271   7.694   6.147   6.270 -0.4184  0.5311  0.4646
  155MOL0     C21272   7.645   6.107   6.406  0.3050 -0.3688  0.3484
  155MOL0     C21273   7.736   6.175   6.512 -0.7123 -0.4529  0.1254
  155MOL0     C21274   7.860   6.095   6.566 -0.4180 -0.3238 -0.7551
  155MOL0     C21275   7.988   6.181   6.554  0.7241 -0.5217  0.1796
  155MOL0     O21276   8.111   6.110   6.575  0.5412 -0.0732 -0.1786
  155MOL0     C21277   8.191   6.066   6.466  0.4532  0.8735 -0.5471
  155MOL0     C21278   8.162   6.062   6.330 -0.4966  0.3725  0.3870
  155MOL0     C21279   8.252   6.004   6.226  0.5911  0.1508 -0.8667
  155MOL0     C21280   8.199   5.980   6.090 -0.1623  0.5705 -0.3609
  155MOL0     C21281   8.374   5.946   6.280 -0.2209 -0.4658  0.1053
  155MOL0     C21282   8.477   5.896   6.181  0.8487 -0.0069  0.0376
  155MOL0     O21283   8.608   5.902   6.231  0.1939  0.8175  0.4101
  155MOL0     C21284   8.724   5.887   6.148 -0.1225 -0.1294  0.0676
  155MOL0     C21285   8.842   5.831   6.201  0.0379  0.5482 -0.0361
  155MOL0     C21286   8.958   5.806   6.131 -0.2112  0.5463  0.8665
  155MOL0     C21287   8.958   5.846   5.990 -0.3663  0.3596  0.1283
  155MOL0     O21288   9.069   5.820   5.904 -0.4619 -0.3644 -0.2756
  155MOL0     C21289   9.067   5.813   5.761 -0.1688 -0.8506 -0.1421
  155MOL0     C21290   9.209   5.785   5.699  0.6181 -0.2043 -0.1949
  155MOL0     C21291   9.308   5.906   5.715 -0.1677 -0.4980 -0.4102
  155MOL0     C21292   9.448   5.856   5.675 -0.1670 -0.7082 -0.1411
  155MOL0     C21293   9.564   5.951   5.693 -1.3830  0.0724 -0.2599
  155MOL0     C21294   9.697   5.889   5.632  0.7807 -0.5366  0.2080
  155MOL0     C21295   9.796   6.008   5.617  0.1723  0.6568  0.1477
  155MOL0     C21296   9.923   5.973   5.542 -0.2039  0.2883 -0.6874
  155MOL0    Cl21297   9.999   5.836   5.636  0.2584  0.3584  0.0199
  155MOL0     C21298   8.837   5.895   5.933 -0.1776 -0.2888 -0.8023
  155MOL0     C21299   8.724   5.914   6.009 -0.1295 -1.2483 -0.1356
  155MOL0     O21300   8.448   5.858   6.064 -0.1892  0.0071  0.0218
  155MOL0     C21301   8.409   5.959   6.414  0.0139  0.4984  0.0455
  155MOL0     C21302   8.314   6.007   6.506  0.2674  0.4037 -0.7498
  155MOL0     N21303   7.823   6.123   6.222  0.5901 -0.3322  0.0323
  155MOL0     N21304   7.840   6.190   6.117  0.4630  0.1758  1.2141
  155MOL0     C21305   8.062   5.408   5.524 -0.2034 -0.2559  1.1693
  155MOL0     C21306   8.036   5.289   5.459  0.5513  0.6405  0.6544
  155MOL0     C21307   7.976   4.899   5.274 -0.0978 -0.0972  0.6551
  155MOL0     C21308   8.050   4.794   5.212  0.2448  0.0861 -1.4744
  155MOL0     C21309   7.988   4.709   5.124 -0.1752 -0.6324 -0.3252
  155MOL0     C21310   7.847   4.713   5.118  0.2312  0.2928 -0.2536
  155MOL0     O21311   7.794   4.623   5.028 -0.1432 -0.2143  0.3566
  155MOL0     C21312   7.670   4.560   5.059 -0.8125 -0.7069  0.0204
  155MOL0     C21313   7.650   4.443   4.957 -0.4236  0.8254  0.6159
  155MOL0     C21314   7.737   4.321   4.998  0.5809 -0.2112  0.0301
  155MOL0     C21315   7.773   4.234   4.876  1.1862 -0.0290  0.6809
  155MOL0     C21316   7.864   4.125   4.911  0.0345  1.4064  0.0753
  155MOL0     C21317   7.923   4.020   4.937 -0.5316 -0.4997  0.4650
  155MOL0     C21318   7.768   4.810   5.183 -0.4111 -0.3937  0.2351
  155MOL0     C21319   7.835   4.906   5.258  0.8426  0.3567 -0.1819
  155MOL0     C21320   7.739   5.006   5.319 -0.5009  1.2501  0.4829
  155MOL0     H21321   7.970   5.084   5.724 -0.1657 -0.0628  0.1926
  155MOL0     H21322   8.046   5.286   5.838 -3.0906 -2.0415  0.3999
  155MOL0     H21323   7.957   5.642   5.640  0.2571  1.2011  0.1301
  155MOL0     H21324   8.128   5.694   5.592  0.4657  1.1837  1.2253
  155MOL0     H21325   8.031   5.722   5.875 -2.3354 -0.5777 -0.8873
  155MOL0     H21326   8.181   5.780   5.805 -0.3682 -0.2682 -1.9662
  155MOL0     H21327   8.056   5.973   5.809 -1.1505  0.7362  0.8331
  155MOL0     H21328   8.021   5.937   5.648 -0.3955 -0.0218  0.1289
  155MOL0     H21329   7.795   5.837   5.711 -0.3342 -1.0457  0.7172
  155MOL0     H21330   7.834   5.853   5.881  2.0416 -1.1409 -0.0753
  155MOL0     H21331   7.814   6.090   5.701 -0.1191 -2.8079 -1.7154
  155MOL0     H21332   7.859   6.099   5.876 -2.8165  2.3805 -0.6849
  155MOL0     H21333   7.609   5.994   5.757  0.3879 -1.4327  1.7342
  155MOL0     H21334   7.649   6.007   5.935 -2.2531  0.3323  0.2951
  155MOL0     H21335   7.507   6.186   5.890  1.2346  0.1017  1.2559
  155MOL0     H21336   7.605   6.246   5.755 -1.7564  0.7622  0.3677
  155MOL0     H21337   7.765   6.332   5.894 -0.2212  0.4296  0.0474
  155MOL0     H21338   7.615   6.381   5.956  1.7282  1.4336 -0.5278
  155MOL0     H21339   7.530   6.263   6.176  0.0243  3.8115 -1.7252
  155MOL0     H21340   7.644   5.998   6.418 -1.7287 -0.6694 -1.7566
  155MOL0     H21341   7.542   6.144   6.414  0.6133  1.2728 -2.0871
  155MOL0     H21342   7.785   6.262   6.469  1.1900 -0.8750  1.2944
  155MOL0     H21343   7.678   6.205   6.600 -0.9312 -1.1239  0.2204
  155MOL0     H21344   7.855   6.060   6.669  3.1920 -1.1629 -0.7348
  155MOL0     H21345   7.887   6.009   6.504  1.5054 -0.2049 -0.1457
  155MOL0     H21346   8.000   6.220   6.453  0.1019 -0.5985  0.0678
  155MOL0     H21347   7.979   6.260   6.630 -1.0016 -1.2733  0.8203
  155MOL0     H21348   8.070   6.104   6.289 -0.4077  0.2115  0.0142
  155MOL0     H21349   8.272   6.001   6.012  2.9281  2.2288  2.7318
  155MOL0     H21350   8.108   6.038   6.073 -0.9562 -1.0403 -2.0791
  155MOL0     H21351   8.160   5.878   6.082  0.9932  0.2195 -2.0873
  155MOL0     H21352   8.828   5.797   6.303  1.0621  0.0024 -0.0749
  155MOL0     H21353   9.055   5.767   6.161 -0.1119  1.1644  1.3707
  155MOL0     H21354   9.005   5.725   5.745 -2.6084  0.4847  1.3033
  155MOL0     H21355   9.027   5.907   5.721  0.7860 -1.9877 -4.2174
  155MOL0     H21356   9.248   5.696   5.750 -3.1129 -0.4407  2.6987
  155MOL0     H21357   9.184   5.758   5.597 -1.8533  2.5597 -0.4428
  155MOL0     H21358   9.316   5.936   5.819 -2.7417 -1.3634  0.1128
  155MOL0     H21359   9.275   5.992   5.656  0.9643 -0.1934 -0.6045
  155MOL0     H21360   9.450   5.825   5.570  0.3773 -0.1148 -0.3132
  155MOL0     H21361   9.469   5.770   5.740 -0.1521  0.3661  1.3253
  155MOL0     H21362   9.539   6.047   5.646 -2.6068 -0.1791 -0.1623
  155MOL0     H21363   9.579   5.978   5.798 -2.0517 -0.4752 -0.0145
  155MOL0     H21364   9.671   5.858   5.531  0.0989 -0.7290  0.4362
  155MOL0     H21365   9.734   5.802   5.686 -0.2754 -0.9412  0.3074
  155MOL0     H21366   9.816   6.039   5.720 -1.1785  1.2847  0.2429
  155MOL0     H21367   9.758   6.093   5.559  0.8921  1.4058  0.7332
  155MOL0     H21368  10.001   6.049   5.528 -0.9936  1.0110 -1.2410
  155MOL0     H21369   9.899   5.947   5.439  1.2647 -0.7060 -0.8173
  155MOL0     H21370   8.813   5.944   5.839  0.5545  4.1429  1.0653
  155MOL0     H21371   8.639   5.957   5.956  0.9872  0.2177 -0.8135
  155MOL0     H21372   8.504   5.910   6.435 -2.2415 -4.4585  0.3033
  155MOL0     H21373   8.333   6.011   6.613 -1.3444  1.4914 -0.4563
  155MOL0     H21374   8.083   5.491   5.457 -2.1372 -1.9822 -1.7986
  155MOL0     H21375   8.044   5.283   5.351  1.4127 -1.6516  0.7830
  155MOL0     H21376   8.155   4.806   5.238 -0.1653 -1.8184  1.4944
  155MOL0     H21377   8.049   4.634   5.075  0.8993  1.7248 -2.8497
  155MOL0     H21378   7.674   4.516   5.159 -2.7184  0.4407  0.6542
  155MOL0     H21379   7.590   4.630   5.033  0.7218  0.0658 -3.1388
  155MOL0     H21380   7.677   4.478   4.857 -2.1561 -0.5265 -0.3816
  155MOL0     H21381   7.548   4.403   4.953 -0.5283  0.8984  2.1609
  155MOL0     H21382   7.826   4.359   5.049 -0.8774  0.3993  2.2562
  155MOL0     H21383   7.671   4.275   5.072 -1.1766 -1.4164 -2.1520
  155MOL0     H21384   7.820   4.293   4.797  0.9674  0.2223  0.7378
  155MOL0     H21385   7.677   4.205   4.834 -0.7961  2.3340  3.2126
  155MOL0     H21386   7.996   3.943   4.929  0.4062  0.5170 -1.7333
  155MOL0     H21387   7.662   4.792   5.168  0.2042 -1.9963 -2.9630
  155MOL0     H21388   7.720   4.960   5.417  0.2216  0.8566  0.4513
  155MOL0     H21389   7.782   5.107   5.321  2.1179  0.2904 -1.5092
  155MOL0     H21390   7.647   5.008   5.262 -1.1146 -2.8736  1.0259
  156MOL0     O21391   1.344   8.962   8.302  0.7368  0.3437 -0.3967
  156MOL0     C21392   1.363   8.890   8.204 -0.1054 -0.2103  1.2315
  156MOL0     O21393   1.490   8.884   8.138  0.5997  1.1034  0.9370
  156MOL0     C21394   1.596   8.953   8.191 -0.2206  0.3883 -0.2871
  156MOL0     C21395   1.712   8.892   8.239 -0.4657  0.3009  0.8528
  156MOL0     C21396   1.832   8.962   8.285  0.3110 -0.3591 -0.6318
  156MOL0     C21397   1.835   9.101   8.271  0.3225  0.4608 -0.1203
  156MOL0     O21398   1.946   9.172   8.309  0.2862 -0.3722 -0.1694
  156MOL0     C21399   1.967   9.320   8.300  0.3031  0.6511  0.8274
  156MOL0     C21400   2.075   9.359   8.400 -0.6517 -0.3278  0.0563
  156MOL0     C21401   2.098   9.510   8.385  0.1518 -0.2668  0.4216
  156MOL0     C21402   2.233   9.543   8.439  0.0266  0.2967 -0.3118
  156MOL0     C21403   2.343   9.538   8.327 -0.0637  0.1733 -0.3004
  156MOL0     C21404   2.479   9.528   8.386  0.0955 -0.3190 -0.0173
  156MOL0     C21405   2.596   9.499   8.283 -0.4626  0.2479 -0.7316
  156MOL0     C21406   2.599   9.361   8.209 -1.1696  0.3201  0.1746
  156MOL0     N21407   2.621   9.241   8.286 -0.1109 -0.0183  0.0287
  156MOL0     C21408   2.524   9.146   8.323 -0.3370 -0.2813 -0.0933
  156MOL0     C21409   2.576   9.068   8.413 -0.0470 -0.0386  0.6730
  156MOL0     C21410   2.520   8.942   8.470 -0.5489 -0.5677 -0.4920
  156MOL0     C21411   2.540   8.825   8.375 -0.0760 -0.2889 -0.5636
  156MOL0     C21412   2.687   8.793   8.340  0.6796 -0.0869  0.2487
  156MOL0     C21413   2.711   8.658   8.273  0.1809  0.1024  0.2206
  156MOL0     O21414   2.678   8.547   8.349  0.3735 -0.9826 -0.5599
  156MOL0     C21415   2.737   8.542   8.474  0.1417 -0.1105 -0.6331
  156MOL0     C21416   2.867   8.563   8.501 -0.7037  0.2097  0.4047
  156MOL0     C21417   2.930   8.539   8.623 -0.2870  0.0601  0.1625
  156MOL0     C21418   3.074   8.585   8.627 -0.2427 -0.5261 -0.3272
  156MOL0     C21419   2.851   8.498   8.735  0.1992  0.0166 -0.0139
  156MOL0     C21420   2.906   8.491   8.871  0.1417  0.2831 -0.6105
  156MOL0     O21421   2.834   8.410   8.949  0.5941  0.5275  0.4983
  156MOL0     C21422   2.863   8.425   9.079 -0.4084 -0.1630 -0.7414
  156MOL0     C21423   2.842   8.548   9.149 -0.2446  0.3052 -0.3925
  156MOL0     C21424   2.876   8.559   9.284 -0.1866 -0.5990 -0.1032
  156MOL0     C21425   2.938   8.455   9.349 -0.1805  0.1296 -0.1559
  156MOL0     O21426   2.962   8.483   9.479  0.1399 -0.2070 -0.9100
  156MOL0     C21427   3.061   8.405   9.562 -0.2220  0.6260 -0.6700
  156MOL0     C21428   3.176   8.495   9.608 -0.4969  0.1912 -0.7028
  156MOL0     C21429   3.268   8.444   9.727 -0.2144 -0.1118  0.2505
  156MOL0     C21430   3.329   8.306   9.699 -0.1737 -0.0033  0.3338
  156MOL0     C21431   3.428   8.308   9.584 -0.5314 -0.1762 -0.3778
  156MOL0     C21432   3.515   8.176   9.580 -0.2974 -0.2638  0.2065
  156MOL0     C21433   3.422   8.046   9.560  0.2434 -0.0263  0.1479
  156MOL0     C21434   3.496   7.915   9.554 -0.1777  1.3968 -0.0616
  156MOL0    Cl21435   3.615   7.887   9.684  0.0510  0.0081  0.1206
  156MOL0     C21436   2.970   8.337   9.280 -0.3690  0.4389  0.1235
  156MOL0     C21437   2.917   8.317   9.156 -0.2003 -0.0677  1.0558
  156MOL0     O21438   3.007   8.549   8.905 -0.2512  0.4765  0.7127
  156MOL0     C21439   2.716   8.470   8.703 -0.8145 -0.1235 -0.9597
  156MOL0     C21440   2.664   8.491   8.578  0.3031  0.3160 -0.3729
  156MOL0     N21441   2.711   9.106   8.420  0.9526  0.6332  0.5997
  156MOL0     N21442   2.734   9.206   8.354  0.3361 -0.0831 -0.9754
  156MOL0     C21443   1.717   9.164   8.218 -0.7415 -0.0040  1.4547
  156MOL0     C21444   1.604   9.094   8.176 -0.6100 -0.4280  0.3779
  156MOL0     C21445   1.257   8.797   8.163 -0.2443 -1.1679 -0.1572
  156MOL0     C21446   1.302   8.670   8.119  0.2676  1.1906  0.6814
  156MOL0     C21447   1.209   8.574   8.080 -0.0241  0.3178 -0.2231
  156MOL0     C21448   1.074   8.590   8.092 -0.5023 -0.1509 -0.3536
  156MOL0     O21449   0.974   8.500   8.065  0.2105 -0.8285 -0.0626
  156MOL0     C21450   1.007   8.391   7.988 -0.2587  0.1271  0.7936
  156MOL0     C21451   1.063   8.281   8.083  0.6065  0.1534  0.4262
  156MOL0     C21452   1.070   8.139   8.023 -0.7598  0.8307  0.6716
  156MOL0     C21453   1.031   8.022   8.119  0.7599 -0.1310  0.1853
  156MOL0     C21454   0.888   8.010   8.120 -0.3328  0.4354  0.3235
  156MOL0     C21455   0.766   8.018   8.119 -0.1523 -0.1595 -0.0544
  156MOL0     C21456   1.034   8.713   8.147  0.4005 -0.6186  0.0009
  156MOL0     C21457   1.122   8.820   8.180  0.6557 -0.4575  0.5359
  156MOL0     C21458   1.056   8.958   8.197 -0.8119  0.2875  0.6447
  156MOL0     H21459   1.727   8.784   8.241  0.9793  0.2599 -3.3879
  156MOL0     H21460   1.917   8.907   8.322  1.3503  1.6009  0.0289
  156MOL0     H21461   1.875   9.366   8.335 -1.7206 -0.5794 -2.3990
  156MOL0     H21462   1.982   9.346   8.195 -0.7601 -3.4586 -0.5467
  156MOL0     H21463   2.042   9.323   8.498 -1.4742  0.5017  0.1023
  156MOL0     H21464   2.164   9.301   8.373 -0.7268 -1.0599  1.2786
  156MOL0     H21465   2.098   9.548   8.282 -0.7746  3.3038  1.5746
  156MOL0     H21466   2.031   9.568   8.449  3.8942  0.3513  4.2939
  156MOL0     H21467   2.221   9.636   8.495  1.1426 -0.3146  0.9806
  156MOL0     H21468   2.252   9.469   8.517  0.9636 -0.9784 -1.7098
  156MOL0     H21469   2.340   9.629   8.266  0.1802  0.3304 -0.0799
  156MOL0     H21470   2.338   9.454   8.256  0.5891  0.1412 -0.3203
  156MOL0     H21471   2.500   9.619   8.442 -0.6872 -0.8025  1.1008
  156MOL0     H21472   2.479   9.450   8.463  0.3233 -0.3467 -0.0462
  156MOL0     H21473   2.685   9.514   8.345 -2.5407  0.7296  2.3393
  156MOL0     H21474   2.590   9.583   8.213 -0.3526  0.5485 -0.3860
  156MOL0     H21475   2.521   9.348   8.134 -0.1372 -1.6914 -0.6132
  156MOL0     H21476   2.687   9.373   8.145 -2.1373 -3.0457 -2.0483
  156MOL0     H21477   2.426   9.129   8.280  0.6936 -0.5655 -2.5128
  156MOL0     H21478   2.414   8.960   8.491 -0.3640 -2.5479  2.9696
  156MOL0     H21479   2.572   8.927   8.565 -0.7169  1.1121 -0.0983
  156MOL0     H21480   2.501   8.729   8.411  5.1466 -2.1262  1.0799
  156MOL0     H21481   2.486   8.836   8.280 -0.0555  1.2687 -0.4075
  156MOL0     H21482   2.729   8.863   8.268 -0.0353  1.5018  1.3197
  156MOL0     H21483   2.746   8.791   8.433  1.6123 -1.9271 -0.3304
  156MOL0     H21484   2.641   8.648   8.190 -1.1274  0.6795  1.2240
  156MOL0     H21485   2.816   8.650   8.242  0.8222 -1.4841  2.5445
  156MOL0     H21486   2.918   8.612   8.419  0.7431  0.3421  1.3318
  156MOL0     H21487   3.108   8.617   8.528  1.5037  0.6532  0.5998
  156MOL0     H21488   3.141   8.501   8.645 -1.7353 -1.5676  0.5539
  156MOL0     H21489   3.098   8.670   8.691  1.0332 -0.9808 -0.1781
  156MOL0     H21490   2.798   8.624   9.085 -3.6139 -0.9658  0.1774
  156MOL0     H21491   2.849   8.651   9.335  0.6065  0.0524 -0.8183
  156MOL0     H21492   3.004   8.363   9.646  0.8406  1.7298  0.6372
  156MOL0     H21493   3.098   8.316   9.510 -6.2445 -3.3904  0.8946
  156MOL0     H21494   3.239   8.517   9.520 -2.4022 -0.6933 -2.3721
  156MOL0     H21495   3.147   8.594   9.643 -1.3929 -0.7343  1.3328
  156MOL0     H21496   3.198   8.447   9.811 -2.5573  0.2209 -1.6240
  156MOL0     H21497   3.348   8.519   9.735  0.2532 -0.6373  0.5788
  156MOL0     H21498   3.257   8.226   9.679 -1.2662  0.0434  3.5386
  156MOL0     H21499   3.378   8.286   9.795 -2.9192  2.2660  2.3688
  156MOL0     H21500   3.377   8.326   9.489  0.7950 -0.8753 -1.2548
  156MOL0     H21501   3.503   8.386   9.599 -0.3307 -0.6967  1.5894
  156MOL0     H21502   3.570   8.172   9.675 -0.2979  0.9456  0.2736
  156MOL0     H21503   3.595   8.180   9.505  0.8313  0.4989  1.4053
  156MOL0     H21504   3.373   8.062   9.464  1.2578  1.4197 -0.1683
  156MOL0     H21505   3.340   8.037   9.632  0.2306 -2.5426 -0.1040
  156MOL0     H21506   3.553   7.903   9.462 -0.9128 -3.1533 -0.1398
  156MOL0     H21507   3.429   7.829   9.548 -1.2015  2.2916 -2.4612
  156MOL0     H21508   3.040   8.260   9.312 -1.2835 -1.0294 -1.2609
  156MOL0     H21509   2.946   8.221   9.113  2.3538  0.9273  0.3365
  156MOL0     H21510   2.651   8.449   8.787 -0.8900  1.3450 -0.6350
  156MOL0     H21511   2.558   8.475   8.559 -0.2077  2.7479  0.1143
  156MOL0     H21512   1.716   9.265   8.178 -0.1120 -1.2427 -2.0454
  156MOL0     H21513   1.519   9.145   8.131 -0.2271 -2.6838 -3.3200
  156MOL0     H21514   1.405   8.638   8.105  0.2745  0.9395  1.2866
  156MOL0     H21515   1.247   8.480   8.040 -1.0063  1.5672 -4.6983
  156MOL0     H21516   0.918   8.355   7.935  0.2119 -1.7954  1.2536
  156MOL0     H21517   1.074   8.413   7.905 -2.0894  2.7002 -0.1378
  156MOL0     H21518   0.993   8.283   8.166  1.4284  0.2293  1.1266
  156MOL0     H21519   1.164   8.312   8.112  2.1786 -2.5937 -1.5587
  156MOL0     H21520   0.997   8.132   7.941 -0.8122 -0.8295  0.8100
  156MOL0     H21521   1.167   8.114   7.978 -0.4643  1.0268  1.1912
  156MOL0     H21522   1.074   8.046   8.217  0.3739 -0.4500  0.4388
  156MOL0     H21523   1.068   7.923   8.091  0.8690  0.1751 -0.7680
  156MOL0     H21524   0.659   8.007   8.119 -0.2177  0.2966 -1.8701
  156MOL0     H21525   0.928   8.729   8.164  0.4655 -1.7804  1.7912
  156MOL0     H21526   1.049   8.975   8.305 -1.6483 -1.9037  0.9848
  156MOL0     H21527   1.120   9.040   8.164  0.1468 -0.2487  1.1449
  156MOL0     H21528   0.957   8.955   8.152  0.6710 -3.4781 -2.8911
  157MOL0     O21529   7.470   5.004   5.065  0.0054 -0.2634  0.2137
  157MOL0     C21530   7.362   5.053   5.055  0.4132 -0.9040  0.6119
  157MOL0     O21531   7.311   5.162   5.130 -0.3050  0.4635  0.2757
  157MOL0     C21532   7.372   5.212   5.240 -0.5069 -0.3553  0.3500
  157MOL0     C21533   7.498   5.277   5.234 -0.5133  0.2728 -0.0852
  157MOL0     C21534   7.553   5.326   5.356  0.5883  0.1875 -0.0912
  157MOL0     C21535   7.472   5.328   5.479  0.6165  0.6137  0.1125
  157MOL0     O21536   7.519   5.379   5.600 -0.0478 -0.1484 -0.4496
  157MOL0     C21537   7.638   5.458   5.594  0.0572 -0.0319 -0.0115
  157MOL0     C21538   7.669   5.532   5.725  0.2600  0.1918 -0.5906
  157MOL0     C21539   7.689   5.422   5.838  0.0528  0.6338  0.7507
  157MOL0     C21540   7.747   5.484   5.973  1.8434  0.4412 -0.1504
  157MOL0     C21541   7.635   5.587   6.027  0.0529 -0.2819 -1.3575
  157MOL0     C21542   7.664   5.643   6.172  0.8311  0.3824  0.3593
  157MOL0     C21543   7.778   5.747   6.168  0.9048 -0.4282 -0.2530
  157MOL0     C21544   7.919   5.686   6.183 -0.6778 -0.4393 -0.3773
  157MOL0     N21545   7.941   5.639   6.320  0.4411  0.2615 -0.4121
  157MOL0     C21546   7.971   5.708   6.434 -0.4015  0.2777  0.3006
  157MOL0     C21547   7.971   5.622   6.540  0.2918  0.2037  0.0251
  157MOL0     C21548   7.990   5.655   6.680 -0.7336  0.1444  0.3540
  157MOL0     C21549   8.140   5.680   6.717  0.2597  0.6573 -0.1462
  157MOL0     C21550   8.242   5.569   6.685  0.3119 -0.6301  0.3729
  157MOL0     C21551   8.379   5.612   6.725 -0.2210 -0.3004 -0.8821
  157MOL0     O21552   8.434   5.726   6.651 -0.2176  0.1838 -0.4550
  157MOL0     C21553   8.567   5.722   6.622  0.7541  0.1942  0.5974
  157MOL0     C21554   8.618   5.624   6.530 -0.5578 -0.8051 -0.1983
  157MOL0     C21555   8.758   5.612   6.506 -0.9367  0.2545  0.1703
  157MOL0     C21556   8.807   5.506   6.411 -0.0679  0.0163 -0.7498
  157MOL0     C21557   8.839   5.715   6.564  0.8019 -0.0197  0.0876
  157MOL0     C21558   8.983   5.720   6.562 -0.3367 -0.1839  0.2535
  157MOL0     O21559   9.041   5.798   6.659  0.1108 -0.2237  0.0071
  157MOL0     C21560   9.176   5.809   6.652  0.2948  0.0721  0.5447
  157MOL0     C21561   9.235   5.903   6.570  0.0901  0.6774 -0.0231
  157MOL0     C21562   9.370   5.914   6.565 -0.2173  0.0497  0.1969
  157MOL0     C21563   9.448   5.819   6.639  0.8418 -0.2929  0.7542
  157MOL0     O21564   9.586   5.835   6.647  0.4028  0.6293  0.3840
  157MOL0     C21565   9.676   5.735   6.593  0.3658  0.1557 -0.0340
  157MOL0     C21566   9.812   5.803   6.572  0.0233 -0.3436 -0.3300
  157MOL0     C21567   9.809   5.919   6.470  0.0458  0.4564 -0.2519
  157MOL0     C21568   9.938   5.999   6.457 -0.6115  0.0264  0.6644
  157MOL0     C21569   9.918   6.104   6.344  0.8998 -0.2377 -0.2094
  157MOL0     C21570   9.878   6.042   6.207  0.1575 -0.1871  0.0612
  157MOL0     C21571   9.989   5.941   6.171 -0.1066 -0.0187 -0.3022
  157MOL0     C21572   9.990   5.933   6.016 -0.1450 -0.1285 -0.2175
  157MOL0    Cl21573  10.063   6.078   5.946  0.0933 -0.5960  0.3989
  157MOL0     C21574   9.389   5.715   6.709 -0.6002  0.3469 -0.5693
  157MOL0     C21575   9.254   5.712   6.723  0.4443  0.2834  0.0285
  157MOL0     O21576   9.042   5.672   6.467  0.2934  0.3801  0.7971
  157MOL0     C21577   8.784   5.822   6.635 -0.2451  0.0265  0.2661
  157MOL0     C21578   8.655   5.816   6.671  0.8990 -0.3394  0.1460
  157MOL0     N21579   7.954   5.495   6.486 -0.0535 -0.2047 -0.4469
  157MOL0     N21580   7.936   5.505   6.361  0.1503 -0.8841  0.2714
  157MOL0     C21581   7.342   5.277   5.468 -0.1011  0.5816  0.0284
  157MOL0     C21582   7.291   5.217   5.351 -0.9107  0.0917 -0.0870
  157MOL0     C21583   7.270   5.005   4.944  0.5655 -0.5266 -0.3898
  157MOL0     C21584   7.147   5.077   4.933  0.6523 -0.1695  1.1238
  157MOL0     C21585   7.060   5.058   4.825  0.0419 -0.5432 -0.0207
  157MOL0     C21586   7.087   4.955   4.731  0.0320  0.3204  0.1156
  157MOL0     O21587   6.990   4.935   4.637 -0.7084 -0.5053  0.0259
  157MOL0     C21588   6.868   4.880   4.695 -0.7041 -1.0691  0.4166
  157MOL0     C21589   6.749   4.972   4.658 -0.0815 -0.4752 -0.7401
  157MOL0     C21590   6.607   4.913   4.694 -0.6502  0.1033  0.8117
  157MOL0     C21591   6.550   4.962   4.827 -0.7884  0.3645  0.5233
  157MOL0     C21592   6.641   4.966   4.943  0.1177  0.2172 -0.1073
  157MOL0     C21593   6.714   4.967   5.037 -0.2002 -0.3262  0.1724
  157MOL0     C21594   7.200   4.875   4.746  0.9339 -0.1075 -0.3392
  157MOL0     C21595   7.296   4.908   4.839  0.7293 -0.6847 -0.7678
  157MOL0     C21596   7.429   4.838   4.826  0.4296 -0.4507  0.0761
  157MOL0     H21597   7.566   5.265   5.151 -1.1450 -2.4089 -0.3018
  157MOL0     H21598   7.649   5.375   5.345 -0.8945  2.8854 -1.9471
  157MOL0     H21599   7.624   5.538   5.522 -0.2908 -0.6678 -0.6667
  157MOL0     H21600   7.715   5.388   5.560 -0.2222 -0.2298 -0.2480
  157MOL0     H21601   7.765   5.584   5.717  0.0925  0.7272  0.7274
  157MOL0     H21602   7.588   5.603   5.746 -0.3039 -0.5596 -0.2057
  157MOL0     H21603   7.593   5.375   5.861  0.3926  0.2664  1.4511
  157MOL0     H21604   7.753   5.336   5.813 -0.4941 -0.0099  1.5197
  157MOL0     H21605   7.769   5.405   6.046  2.4130  0.8243  0.0986
  157MOL0     H21606   7.839   5.538   5.952  1.9764 -0.4803 -2.1440
  157MOL0     H21607   7.541   5.532   6.024  1.5223 -3.1266  0.5119
  157MOL0     H21608   7.649   5.674   5.962 -2.0548 -0.5744 -2.2785
  157MOL0     H21609   7.572   5.688   6.209  1.6874  0.6314  2.3349
  157MOL0     H21610   7.686   5.556   6.235  2.0013 -0.6989 -1.4596
  157MOL0     H21611   7.759   5.809   6.256  1.1711 -0.7239  0.0187
  157MOL0     H21612   7.778   5.811   6.079  1.9478 -0.9912 -0.6776
  157MOL0     H21613   7.936   5.607   6.110 -1.3269  0.6501 -1.7472
  157MOL0     H21614   7.994   5.763   6.162 -0.9364 -0.5686 -1.8928
  157MOL0     H21615   7.983   5.815   6.440  0.5304  0.3065 -1.6854
  157MOL0     H21616   7.946   5.567   6.728 -0.3004 -1.0058 -1.2696
  157MOL0     H21617   7.926   5.744   6.689 -3.8942 -1.7317 -1.5343
  157MOL0     H21618   8.168   5.773   6.666  0.1344 -0.0482 -1.5681
  157MOL0     H21619   8.150   5.702   6.823  3.0803  0.5474 -0.3145
  157MOL0     H21620   8.208   5.483   6.743  1.8651 -1.1942  0.4776
  157MOL0     H21621   8.240   5.538   6.580  0.7909  6.2508 -2.2061
  157MOL0     H21622   8.377   5.651   6.827  1.3216  4.0499 -2.3154
  157MOL0     H21623   8.441   5.522   6.728  0.4472  0.0865 -2.3987
  157MOL0     H21624   8.550   5.558   6.478 -2.9421 -0.8600  2.6800
  157MOL0     H21625   8.733   5.429   6.386  1.4656 -0.6461 -3.7395
  157MOL0     H21626   8.889   5.451   6.458 -0.5663 -0.0763  0.0254
  157MOL0     H21627   8.838   5.553   6.317  0.1244  2.7403  0.5942
  157MOL0     H21628   9.171   5.968   6.510 -1.2868 -0.4283  0.1894
  157MOL0     H21629   9.420   5.974   6.490  0.7745 -1.3131 -0.2793
  157MOL0     H21630   9.682   5.646   6.657 -0.6880  1.9436  2.7325
  157MOL0     H21631   9.633   5.700   6.499  0.1749 -1.8395  0.7548
  157MOL0     H21632   9.845   5.841   6.669 -0.6527  1.7188 -0.8592
  157MOL0     H21633   9.884   5.735   6.526 -1.4261 -1.1770 -1.4693
  157MOL0     H21634   9.728   5.991   6.485  1.3245  1.6597  1.1305
  157MOL0     H21635   9.779   5.863   6.380  0.2043  0.3720 -0.2526
  157MOL0     H21636  10.019   5.927   6.440 -3.2166 -2.7137 -1.2667
  157MOL0     H21637   9.954   6.053   6.551 -2.2696 -0.1393  1.0758
  157MOL0     H21638   9.843   6.173   6.383  0.8174 -0.4592  0.0258
  157MOL0     H21639  10.010   6.159   6.323  1.6396 -0.7054  1.5473
  157MOL0     H21640   9.860   6.122   6.134 -1.5137 -3.0319 -2.9346
  157MOL0     H21641   9.782   5.991   6.194  1.4648 -2.2576 -2.4103
  157MOL0     H21642   9.976   5.837   6.199  0.9006 -1.1534 -3.5882
  157MOL0     H21643  10.089   5.971   6.206  0.6617 -0.2618 -2.1429
  157MOL0     H21644   9.892   5.916   5.971  0.1940 -0.2401 -0.9197
  157MOL0     H21645  10.041   5.845   5.977 -1.9168 -0.5706 -1.6579
  157MOL0     H21646   9.452   5.641   6.756  2.5854  0.2794 -4.4863
  157MOL0     H21647   9.199   5.635   6.775  0.0186  1.6805  1.7320
  157MOL0     H21648   8.840   5.909   6.665 -0.4152 -0.1321  1.0593
  157MOL0     H21649   8.601   5.886   6.734  0.1589  0.9721 -1.8715
  157MOL0     H21650   7.295   5.268   5.565  0.4892  0.5081  0.3124
  157MOL0     H21651   7.193   5.171   5.356 -1.3947  1.1458  0.4482
  157MOL0     H21652   7.102   5.148   5.002  0.2523  0.4605  0.2312
  157MOL0     H21653   6.970   5.119   4.816  0.9298  0.7014 -0.8268
  157MOL0     H21654   6.856   4.777   4.661 -0.9339 -0.4408 -1.5540
  157MOL0     H21655   6.878   4.873   4.804 -0.1231 -1.2782  0.3524
  157MOL0     H21656   6.759   4.992   4.551 -0.5109  1.8509 -0.4113
  157MOL0     H21657   6.769   5.059   4.721  2.8979 -1.8853  0.4272
  157MOL0     H21658   6.532   4.934   4.617 -0.4387  0.5170  0.7220
  157MOL0     H21659   6.620   4.804   4.700 -0.5251  0.1648  1.7880
  157MOL0     H21660   6.464   4.902   4.858 -1.2662  1.7496  1.9716
  157MOL0     H21661   6.513   5.063   4.811 -0.5883  0.1440 -1.8106
  157MOL0     H21662   6.781   4.968   5.120  1.3766  0.7597 -1.0653
  157MOL0     H21663   7.219   4.796   4.673 -0.2325 -0.6586 -0.0710
  157MOL0     H21664   7.476   4.829   4.924  0.5116  0.8291  0.1782
  157MOL0     H21665   7.412   4.738   4.786 -2.5111  1.3616 -3.9448
  157MOL0     H21666   7.493   4.888   4.752  0.3974 -1.4300 -0.6372
  158MOL0     O21667  11.331  10.017   5.937  0.5357  0.0148 -0.8177
  158MOL0     C21668  11.223  10.073   5.971  0.1964  0.3193  0.0860
  158MOL0     O21669  11.198  10.209   5.960 -0.0694 -0.1253 -0.3382
  158MOL0     C21670  11.304  10.289   5.911 -0.0664  0.1448  0.5987
  158MOL0     C21671  11.352  10.273   5.785  0.6099  0.0751 -0.2224
  158MOL0     C21672  11.431  10.373   5.727 -0.5603 -0.5405 -1.4359
  158MOL0     C21673  11.465  10.486   5.805  0.6743  0.2168  0.3581
  158MOL0     O21674  11.547  10.582   5.750 -0.0268 -0.0564  0.1135
  158MOL0     C21675  11.587  10.699   5.822  0.0874  0.1489  0.1446
  158MOL0     C21676  11.689  10.760   5.727 -1.0512  0.2727 -0.3354
  158MOL0     C21677  11.821  10.692   5.728  0.0897 -0.3449  1.1386
  158MOL0     C21678  11.922  10.779   5.659 -0.7939 -0.7026 -0.0393
  158MOL0     C21679  12.060  10.713   5.662 -0.4937 -0.5897  0.0532
  158MOL0     C21680  12.158  10.796   5.573  0.8295  0.5170  0.6555
  158MOL0     C21681  12.296  10.734   5.560  0.3292  0.7902  0.2770
  158MOL0     C21682  12.381  10.806   5.455 -0.6159  0.1690  0.0108
  158MOL0     N21683  12.518  10.743   5.447 -0.2636  0.9777  0.1379
  158MOL0     C21684  12.554  10.657   5.342  0.4691 -0.0642 -0.6837
  158MOL0     C21685  12.677  10.610   5.378 -0.5170  0.7482  0.0842
  158MOL0     C21686  12.748  10.514   5.289  0.4579  1.6152 -0.4090
  158MOL0     C21687  12.902  10.528   5.294 -0.6121 -0.4774 -0.3589
  158MOL0     C21688  12.976  10.409   5.226 -0.2031 -0.2720 -1.0799
  158MOL0     C21689  13.119  10.445   5.169 -0.3611  0.3429 -0.0123
  158MOL0     O21690  13.205  10.467   5.284  0.6273  0.3259 -0.0912
  158MOL0     C21691  13.339  10.459   5.275  0.5604 -0.2269 -0.2677
  158MOL0     C21692  13.398  10.470   5.397  0.1142 -0.4926  0.3017
  158MOL0     C21693  13.544  10.458   5.413 -0.2197  0.6757  0.4443
  158MOL0     C21694  13.606  10.480   5.544  0.2993  0.1371  0.5404
  158MOL0     C21695  13.627  10.441   5.299 -0.4828 -0.2504  0.0372
  158MOL0     C21696  13.769  10.430   5.290 -0.6947  0.2255 -0.8758
  158MOL0     O21697  13.837  10.499   5.375  0.5660 -0.2582  0.2470
  158MOL0     C21698  13.966  10.542   5.353 -0.4323 -0.3287 -0.3776
  158MOL0     C21699  14.039  10.572   5.467  0.2388 -0.0573 -0.9453
  158MOL0     C21700  14.173  10.606   5.466  0.2980 -0.2360  0.3073
  158MOL0     C21701  14.244  10.602   5.342  0.6278 -0.1404 -0.7483
  158MOL0     O21702  14.376  10.624   5.334 -0.0711 -0.0191  0.4668
  158MOL0     C21703  14.460  10.514   5.359  0.5939 -0.0820  1.1509
  158MOL0     C21704  14.503  10.443   5.233 -0.0294  0.1256 -0.1031
  158MOL0     C21705  14.589  10.317   5.273 -0.5078 -0.2572  0.0115
  158MOL0     C21706  14.659  10.266   5.150 -0.2354 -0.8029 -0.2922
  158MOL0     C21707  14.772  10.362   5.119 -0.9953 -0.1658  0.8850
  158MOL0     C21708  14.889  10.311   5.021  0.2203 -0.8086 -0.2017
  158MOL0     C21709  14.992  10.420   4.994 -0.5123 -0.0342  0.6594
  158MOL0     C21710  15.088  10.370   4.888 -0.0654  0.9687  0.0803
  158MOL0    Cl21711  15.241  10.445   4.871 -0.2724  0.0582  0.2625
  158MOL0     C21712  14.166  10.587   5.227  0.0834  0.5203 -0.4420
  158MOL0     C21713  14.027  10.560   5.227 -0.0679 -0.0210 -0.0053
  158MOL0     O21714  13.819  10.356   5.209  0.1143 -0.4574 -0.3348
  158MOL0     C21715  13.563  10.424   5.176  0.6813  0.6109  0.4839
  158MOL0     C21716  13.422  10.423   5.165 -0.0747  0.8451 -0.1455
  158MOL0     N21717  12.712  10.667   5.499 -0.0638 -0.0296  0.0929
  158MOL0     N21718  12.620  10.750   5.541 -0.0935 -0.0113 -0.2104
  158MOL0     C21719  11.412  10.495   5.931 -1.3960 -0.4867 -0.0016
  158MOL0     C21720  11.346  10.398   5.991 -0.4824 -0.3890  0.1902
  158MOL0     C21721  11.105   9.990   6.019  0.3392  0.6666  0.5921
  158MOL0     C21722  10.987  10.060   6.053  0.4914  0.6979 -0.3611
  158MOL0     C21723  10.864   9.999   6.066  0.3210 -0.1136 -0.4492
  158MOL0     C21724  10.850   9.859   6.057 -0.3123 -0.1420  0.2554
  158MOL0     O21725  10.739   9.805   6.106  0.3430  0.7302  0.2725
  158MOL0     C21726  10.758   9.721   6.219  0.7059 -0.5310  0.0941
  158MOL0     C21727  10.631   9.636   6.233 -0.2823  0.5442  0.3671
  158MOL0     C21728  10.608   9.534   6.116  0.2330  0.3401  0.0165
  158MOL0     C21729  10.479   9.454   6.133 -0.2417  0.4213  0.0173
  158MOL0     C21730  10.464   9.422   6.275 -1.2273 -0.3368  0.5647
  158MOL0     C21731  10.457   9.398   6.389 -0.3681 -0.0111 -0.7641
  158MOL0     C21732  10.963   9.781   6.017 -0.1693  0.4704  0.3598
  158MOL0     C21733  11.087   9.844   5.995  0.2828 -0.1659 -0.4304
  158MOL0     C21734  11.197   9.759   5.930  0.0431 -0.9284  0.1450
  158MOL0     H21735  11.323  10.190   5.721  0.1551  2.3453 -3.1754
  158MOL0     H21736  11.462  10.397   5.626 -1.5722  0.3103 -1.5607
  158MOL0     H21737  11.628  10.679   5.922 -0.0913 -0.4334  0.1008
  158MOL0     H21738  11.500  10.765   5.837 -0.0260  0.0118  0.0947
  158MOL0     H21739  11.652  10.776   5.625 -0.5262  1.6284 -0.3318
  158MOL0     H21740  11.704  10.863   5.762 -0.8327  0.0415  0.2437
  158MOL0     H21741  11.847  10.656   5.828  1.1035 -1.0123  0.6543
  158MOL0     H21742  11.804  10.603   5.666  2.3988 -0.4220  0.5067
  158MOL0     H21743  11.892  10.786   5.554  0.0960 -4.2547 -0.6880
  158MOL0     H21744  11.939  10.876   5.705 -2.0328 -1.8201  3.0257
  158MOL0     H21745  12.048  10.613   5.619 -0.0145 -1.2226  1.3497
  158MOL0     H21746  12.100  10.709   5.764 -5.0225  2.2773  2.2779
  158MOL0     H21747  12.120  10.803   5.471  0.4567 -0.1402  0.7437
  158MOL0     H21748  12.172  10.898   5.609 -1.8200  2.9077 -4.1400
  158MOL0     H21749  12.279  10.631   5.528  0.5673  1.4168 -2.0206
  158MOL0     H21750  12.343  10.727   5.659  0.5722 -1.6353  0.0303
  158MOL0     H21751  12.320  10.795   5.365  0.6744  0.6860 -0.9671
  158MOL0     H21752  12.398  10.913   5.474  3.9386 -0.2357 -0.7763
  158MOL0     H21753  12.491  10.639   5.255  0.1181 -1.1491 -0.2277
  158MOL0     H21754  12.714  10.531   5.187 -0.6728 -4.1778 -1.3039
  158MOL0     H21755  12.719  10.414   5.323  2.6048  0.7577 -0.9123
  158MOL0     H21756  12.940  10.623   5.254  0.9916  0.4180  2.9543
  158MOL0     H21757  12.938  10.530   5.397  2.6372 -0.9855 -1.3692
  158MOL0     H21758  12.973  10.328   5.299  1.2749 -1.0470 -1.8168
  158MOL0     H21759  12.917  10.371   5.142  0.8706 -2.1664 -1.0491
  158MOL0     H21760  13.167  10.374   5.101 -0.6404  1.6637 -1.6537
  158MOL0     H21761  13.099  10.540   5.119  0.5713  0.5014 -0.1117
  158MOL0     H21762  13.329  10.492   5.478 -1.2203  0.7750 -1.0769
  158MOL0     H21763  13.701  10.427   5.551  1.4053  2.0278  0.5410
  158MOL0     H21764  13.541  10.443   5.624 -1.5681  1.4555 -0.2929
  158MOL0     H21765  13.620  10.583   5.576  2.0088  0.1928 -0.2989
  158MOL0     H21766  13.996  10.559   5.566 -3.0020  0.9766 -2.0834
  158MOL0     H21767  14.228  10.631   5.556 -2.8455 -3.0031  3.2936
  158MOL0     H21768  14.551  10.559   5.400  0.4125  1.8773 -0.4637
  158MOL0     H21769  14.429  10.461   5.450  1.2009  2.6231  3.0316
  158MOL0     H21770  14.412  10.411   5.181 -0.9627 -0.2609  1.6848
  158MOL0     H21771  14.559  10.517   5.175 -0.6113 -0.0158 -0.8635
  158MOL0     H21772  14.526  10.233   5.304 -0.5684 -0.9211 -1.8048
  158MOL0     H21773  14.659  10.338   5.354  0.5916 -1.3052 -0.6275
  158MOL0     H21774  14.597  10.239   5.064  0.1937  0.4921 -1.0343
  158MOL0     H21775  14.717  10.178   5.179  2.3742  0.5621 -1.0744
  158MOL0     H21776  14.725  10.454   5.085 -2.8253  0.6130  4.9467
  158MOL0     H21777  14.820  10.376   5.216 -0.3377 -0.7825  0.6560
  158MOL0     H21778  14.842  10.279   4.927  2.1404 -1.4769 -0.9909
  158MOL0     H21779  14.943  10.227   5.065  1.5881  0.6477  1.0274
  158MOL0     H21780  15.046  10.437   5.088 -0.8546  1.1927  0.6495
  158MOL0     H21781  14.941  10.513   4.967 -1.6510  0.1371  3.1304
  158MOL0     H21782  15.041  10.377   4.789 -0.2085 -1.1928 -0.0644
  158MOL0     H21783  15.113  10.267   4.916  0.3903  1.0712  0.0637
  158MOL0     H21784  14.223  10.602   5.136 -0.1491  0.4687 -0.5973
  158MOL0     H21785  13.981  10.549   5.129  1.6064  0.2789 -0.8704
  158MOL0     H21786  13.617  10.413   5.083 -0.0195  1.7948 -0.0877
  158MOL0     H21787  13.373  10.404   5.071 -0.9939  0.2040  0.4481
  158MOL0     H21788  11.435  10.591   5.976  0.4055  0.8777 -3.4855
  158MOL0     H21789  11.301  10.418   6.088 -3.4068  1.3311 -1.3650
  158MOL0     H21790  10.992  10.167   6.068  2.0649  0.3592  2.0559
  158MOL0     H21791  10.774  10.053   6.091  0.6463  0.1588  0.1472
  158MOL0     H21792  10.850   9.660   6.216  0.2920 -1.2179 -3.7773
  158MOL0     H21793  10.762   9.786   6.307 -3.3650 -2.5442  2.0564
  158MOL0     H21794  10.541   9.695   6.249  2.1669  4.1932  2.0110
  158MOL0     H21795  10.648   9.586   6.329 -0.9829 -0.8101 -0.1831
  158MOL0     H21796  10.607   9.576   6.015 -3.8524 -0.0688 -0.2513
  158MOL0     H21797  10.693   9.464   6.115 -1.1456 -1.4250  0.8946
  158MOL0     H21798  10.482   9.363   6.073  4.4836  1.8083 -2.3424
  158MOL0     H21799  10.394   9.510   6.092 -0.4580  0.0913  0.0145
  158MOL0     H21800  10.443   9.371   6.491  0.2330  0.6540 -0.4993
  158MOL0     H21801  10.950   9.676   5.996  3.9730 -0.4640  1.6454
  158MOL0     H21802  11.272   9.734   6.006  0.6165 -3.4778 -1.1536
  158MOL0     H21803  11.156   9.662   5.898 -0.9854 -0.1927 -0.8371
  158MOL0     H21804  11.239   9.808   5.842  0.0176  1.2551  1.3053
  159MOL0     O21805   8.624   3.849   9.737  0.3639 -0.5150 -0.4555
  159MOL0     C21806   8.581   3.909   9.837 -0.0278 -0.7131 -0.8456
  159MOL0     O21807   8.650   4.013   9.899  0.1605 -0.0332  0.0344
  159MOL0     C21808   8.785   4.040   9.875  0.3078 -0.7316  0.6871
  159MOL0     C21809   8.888   3.946   9.860  0.3676  0.1818 -0.0581
  159MOL0     C21810   9.023   3.983   9.870  0.2760 -0.1654 -0.1018
  159MOL0     C21811   9.067   4.119   9.881  0.7891  0.1906 -0.0359
  159MOL0     O21812   9.196   4.147   9.909  0.2787 -0.2014  0.4129
  159MOL0     C21813   9.281   4.055   9.970 -0.0430 -0.7546  0.1753
  159MOL0     C21814   9.394   4.129  10.041  0.3671 -0.0941 -0.6501
  159MOL0     C21815   9.498   4.033  10.109 -0.1655  0.4470  0.5301
  159MOL0     C21816   9.440   3.970  10.240  0.7970 -0.5871  0.3677
  159MOL0     C21817   9.534   3.941  10.355 -0.1618 -0.4721  0.2787
  159MOL0     C21818   9.610   3.815  10.317  0.7168  0.0349  0.3502
  159MOL0     C21819   9.708   3.777  10.420  0.5596  0.2175  0.0018
  159MOL0     C21820   9.645   3.741  10.552  0.0451  0.1530 -0.0012
  159MOL0     N21821   9.741   3.677  10.640  0.1306  0.2392 -0.5907
  159MOL0     C21822   9.727   3.547  10.682 -0.1288  0.6974  0.3579
  159MOL0     C21823   9.828   3.529  10.766 -0.3253 -0.2558  0.2818
  159MOL0     C21824   9.864   3.411  10.840 -0.2600  0.1262 -0.0661
  159MOL0     C21825  10.003   3.354  10.805 -0.4419  0.4189 -0.0792
  159MOL0     C21826  10.037   3.230  10.895  0.0464  0.4626  0.2094
  159MOL0     C21827  10.183   3.161  10.871 -0.4268  0.5669 -0.1122
  159MOL0     O21828  10.178   3.068  10.763  0.3285 -0.1800  0.6265
  159MOL0     C21829  10.291   2.999  10.738  1.1218  0.3948  0.2862
  159MOL0     C21830  10.285   2.936  10.615 -0.5158  1.0154 -0.0446
  159MOL0     C21831  10.394   2.851  10.558 -0.5808 -0.5813 -0.1235
  159MOL0     C21832  10.388   2.791  10.417 -0.4493  1.0554 -0.4195
  159MOL0     C21833  10.511   2.860  10.633 -0.1086  0.2089 -1.4513
  159MOL0     C21834  10.629   2.771  10.604  0.1832 -0.3160  1.0032
  159MOL0     O21835  10.599   2.646  10.551  0.1189 -0.0256  0.2440
  159MOL0     C21836  10.694   2.547  10.530  0.7126 -0.2844 -0.3694
  159MOL0     C21837  10.642   2.432  10.558  0.1868 -0.0111  0.4358
  159MOL0     C21838  10.724   2.315  10.544  0.6268 -1.7002  0.0237
  159MOL0     C21839  10.859   2.324  10.507  0.5118 -0.0214 -0.2725
  159MOL0     O21840  10.926   2.214  10.537  0.0159  0.0912  0.3762
  159MOL0     C21841  11.053   2.180  10.472 -0.2039 -0.6027  0.1950
  159MOL0     C21842  11.178   2.223  10.559  0.2943  0.7569 -0.1118
  159MOL0     C21843  11.313   2.240  10.493 -0.0854  0.1472  0.7139
  159MOL0     C21844  11.312   2.350  10.384  0.1458  0.4009 -0.3133
  159MOL0     C21845  11.444   2.397  10.328 -0.2670 -0.3083 -0.1079
  159MOL0     C21846  11.529   2.458  10.440  0.0388  1.1796 -0.5257
  159MOL0     C21847  11.656   2.532  10.382 -0.5870 -0.0001 -0.0178
  159MOL0     C21848  11.630   2.678  10.332  1.0017  0.1973  0.1753
  159MOL0    Cl21849  11.784   2.771  10.315  0.2058 -0.4075 -0.0984
  159MOL0     C21850  10.907   2.452  10.476  0.4750 -0.0810  0.0104
  159MOL0     C21851  10.827   2.569  10.487 -0.1058  0.3211  0.1922
  159MOL0     O21852  10.745   2.802  10.643  0.4519 -0.1213 -0.3769
  159MOL0     C21853  10.518   2.927  10.753  0.1863 -0.9222 -0.5455
  159MOL0     C21854  10.404   2.994  10.812 -0.3895 -0.6861 -0.4454
  159MOL0     N21855   9.907   3.643  10.769  0.1344  0.0175 -0.9374
  159MOL0     N21856   9.840   3.732  10.710  0.0956 -1.1847  0.0627
  159MOL0     C21857   8.958   4.216   9.875 -0.4108  0.5623  0.1945
  159MOL0     C21858   8.824   4.175   9.870 -0.0763  0.4392  0.3264
  159MOL0     C21859   8.440   3.876   9.885 -0.2405 -0.0804  0.5550
  159MOL0     C21860   8.379   3.936   9.994  0.5271 -0.0498  0.5121
  159MOL0     C21861   8.247   3.918  10.032  0.0222 -0.2220 -0.0415
  159MOL0     C21862   8.160   3.837   9.959 -0.0339 -0.0788 -0.0235
  159MOL0     O21863   8.023   3.833   9.982 -0.1542  0.6577  1.0552
  159MOL0     C21864   7.972   3.885  10.105  0.6947 -1.1819  0.2017
  159MOL0     C21865   7.817   3.864  10.105 -0.5354  0.1472  0.1033
  159MOL0     C21866   7.743   3.978  10.039 -0.3594  0.6628  0.0054
  159MOL0     C21867   7.586   3.979  10.060  0.0971  0.0514 -0.3119
  159MOL0     C21868   7.510   3.865  10.017 -0.3575  0.8194 -0.4929
  159MOL0     C21869   7.439   3.770   9.999 -0.1634 -0.2871 -0.0552
  159MOL0     C21870   8.226   3.768   9.865 -0.2990  0.5836  0.3647
  159MOL0     C21871   8.356   3.779   9.828 -0.6714 -0.2335  0.1421
  159MOL0     C21872   8.403   3.673   9.735  0.4928  0.0457 -0.1583
  159MOL0     H21873   8.878   3.838   9.851  1.3678  0.1422 -0.9897
  159MOL0     H21874   9.095   3.902   9.863 -0.6554 -1.0638  0.3598
  159MOL0     H21875   9.325   3.997   9.889 -1.3920 -0.2718 -0.9431
  159MOL0     H21876   9.236   3.987  10.043 -1.6217 -3.3475 -2.9576
  159MOL0     H21877   9.446   4.194   9.970  1.2012  0.2970  0.2976
  159MOL0     H21878   9.356   4.191  10.122 -0.6777 -1.9391  0.3351
  159MOL0     H21879   9.538   3.948  10.053  0.0258  1.8290 -1.5496
  159MOL0     H21880   9.581   4.098  10.141 -0.6072 -0.2752  3.3834
  159MOL0     H21881   9.363   4.037  10.280  0.2547  0.9138 -2.7999
  159MOL0     H21882   9.382   3.886  10.201  2.4999 -0.6304 -2.3067
  159MOL0     H21883   9.475   3.924  10.445  0.0211  5.3287  1.9248
  159MOL0     H21884   9.608   4.019  10.379 -0.7030  0.7113 -1.6431
  159MOL0     H21885   9.535   3.742  10.285  2.0460  0.2081 -3.8723
  159MOL0     H21886   9.658   3.828  10.219 -0.6969  0.7332 -0.2713
  159MOL0     H21887   9.792   3.845  10.436  2.3257 -2.2214  2.0542
  159MOL0     H21888   9.750   3.686  10.376 -2.1831  0.2315 -3.0429
  159MOL0     H21889   9.598   3.830  10.595 -2.8283 -1.8113  1.2188
  159MOL0     H21890   9.564   3.671  10.531  0.1482 -0.0154  0.1595
  159MOL0     H21891   9.647   3.482  10.648 -0.7932  1.7356 -0.1370
  159MOL0     H21892   9.798   3.328  10.814  0.0185  0.0445 -0.5183
  159MOL0     H21893   9.858   3.429  10.948  1.8843  1.1931 -0.0612
  159MOL0     H21894  10.023   3.328  10.701  3.2144  2.1951  0.0094
  159MOL0     H21895  10.079   3.432  10.818 -0.2052  0.1313  0.2800
  159MOL0     H21896  10.019   3.254  11.000  0.0261 -0.8139  0.5189
  159MOL0     H21897   9.964   3.151  10.874 -0.0398  0.9442 -1.4484
  159MOL0     H21898  10.249   3.246  10.851 -0.9159  0.7818 -0.8390
  159MOL0     H21899  10.220   3.114  10.963  0.0313  1.5069  0.1994
  159MOL0     H21900  10.194   2.945  10.557 -0.9615  2.5663  0.8322
  159MOL0     H21901  10.345   2.863  10.347 -1.3697 -0.6764 -1.6881
  159MOL0     H21902  10.338   2.694  10.408  0.0639  0.7919 -0.4749
  159MOL0     H21903  10.486   2.779  10.370 -0.4742  1.4456 -0.5767
  159MOL0     H21904  10.547   2.426  10.611  0.1526  1.8319  0.6585
  159MOL0     H21905  10.690   2.218  10.576 -3.3887 -0.4421  0.0513
  159MOL0     H21906  11.054   2.071  10.467  0.6180 -0.7225  2.1098
  159MOL0     H21907  11.053   2.227  10.373 -0.7766  2.5750  1.5869
  159MOL0     H21908  11.164   2.321  10.606  1.2335  1.5360 -1.3504
  159MOL0     H21909  11.188   2.157  10.645  1.9522  2.3567  1.0130
  159MOL0     H21910  11.350   2.144  10.456  2.5507  0.7891  1.4259
  159MOL0     H21911  11.389   2.286  10.558  4.0476 -0.4604 -3.1810
  159MOL0     H21912  11.272   2.439  10.432 -0.0182 -0.3103  0.9046
  159MOL0     H21913  11.246   2.315  10.304 -1.8081  0.9238  1.0040
  159MOL0     H21914  11.508   2.323  10.278 -1.5376 -2.3820  1.1776
  159MOL0     H21915  11.434   2.482  10.260  0.9538  0.1481  0.2568
  159MOL0     H21916  11.571   2.377  10.500  2.0027  2.1538 -0.5339
  159MOL0     H21917  11.472   2.507  10.519  2.1286  0.2063  1.7121
  159MOL0     H21918  11.698   2.473  10.300 -1.6927  2.5119 -2.5763
  159MOL0     H21919  11.720   2.541  10.470 -1.1239 -1.8552  0.5961
  159MOL0     H21920  11.571   2.731  10.408  2.1482  0.7312  0.7304
  159MOL0     H21921  11.569   2.676  10.241  0.3052 -1.4460  0.6474
  159MOL0     H21922  11.011   2.463  10.449  0.0855  1.3810 -1.0329
  159MOL0     H21923  10.866   2.669  10.474 -2.6224  1.6096  1.7029
  159MOL0     H21924  10.605   2.925  10.817 -0.9015 -0.0909  1.0429
  159MOL0     H21925  10.414   3.046  10.907 -1.5598  3.0310 -2.1659
  159MOL0     H21926   8.977   4.323   9.871 -0.0959  0.6156  2.1152
  159MOL0     H21927   8.754   4.257   9.861  1.1758  1.3483 -2.1662
  159MOL0     H21928   8.434   4.003  10.060 -0.0279 -0.0164  0.9414
  159MOL0     H21929   8.212   3.969  10.122 -0.4178 -2.9069  1.3983
  159MOL0     H21930   8.022   3.826  10.184  2.3576  0.1060  0.1657
  159MOL0     H21931   8.000   3.989  10.123 -0.0880 -0.6563 -1.4509
  159MOL0     H21932   7.779   3.850  10.207 -2.1441 -0.9982 -0.6116
  159MOL0     H21933   7.788   3.772  10.053 -0.3652  1.2761 -2.0995
  159MOL0     H21934   7.791   4.069  10.077  2.2871  1.0364 -3.6652
  159MOL0     H21935   7.762   3.979   9.931 -2.2467  0.9404 -0.3576
  159MOL0     H21936   7.539   4.067  10.016  0.5793  1.4292  1.7983
  159MOL0     H21937   7.569   3.981  10.168  0.3065  0.4193 -0.2841
  159MOL0     H21938   7.363   3.698   9.978 -1.7580  1.2210  0.2894
  159MOL0     H21939   8.160   3.698   9.813 -2.5286  3.4470 -0.9543
  159MOL0     H21940   8.329   3.595   9.715  0.6259 -0.0178 -0.4011
  159MOL0     H21941   8.428   3.718   9.638 -0.3786 -1.8517 -1.3268
  159MOL0     H21942   8.502   3.636   9.766  1.9593  3.0770 -0.8617
  160MOL0     O21943   2.205   6.242   4.684  0.0625 -0.6697  0.5606
  160MOL0     C21944   2.164   6.278   4.571 -0.6218 -0.1458 -1.0248
  160MOL0     O21945   2.243   6.316   4.463  0.7504  0.2641 -0.3877
  160MOL0     C21946   2.373   6.348   4.487  0.0759  0.2254  0.3206
  160MOL0     C21947   2.468   6.256   4.495 -0.3431  0.5984  0.5482
  160MOL0     C21948   2.603   6.294   4.498  0.5236  1.1988 -0.2980
  160MOL0     C21949   2.650   6.419   4.508  0.1198  0.0160 -0.4623
  160MOL0     O21950   2.790   6.440   4.507  0.2806 -0.1751 -0.3232
  160MOL0     C21951   2.855   6.544   4.576 -0.9573  0.2594 -0.4381
  160MOL0     C21952   2.982   6.483   4.646 -0.0575 -0.4019 -0.0395
  160MOL0     C21953   3.089   6.586   4.649 -0.2822 -0.1436 -0.9490
  160MOL0     C21954   3.218   6.518   4.689  0.6291  0.1764 -0.2539
  160MOL0     C21955   3.334   6.613   4.728 -0.1481 -0.3466  0.1355
  160MOL0     C21956   3.461   6.536   4.775 -0.5557 -0.1870 -0.5660
  160MOL0     C21957   3.587   6.622   4.800 -0.0089  0.1780 -0.0055
  160MOL0     C21958   3.718   6.545   4.799 -0.3989 -0.6891 -0.6476
  160MOL0     N21959   3.735   6.481   4.928  0.7288 -0.3184  0.0843
  160MOL0     C21960   3.669   6.369   4.980  0.0318 -1.4072 -0.0237
  160MOL0     C21961   3.736   6.342   5.097 -0.4556 -0.9203 -0.4596
  160MOL0     C21962   3.712   6.242   5.206  0.0920 -0.1070 -0.7582
  160MOL0     C21963   3.839   6.160   5.238 -0.3265 -0.0614  0.1611
  160MOL0     C21964   3.923   6.242   5.343 -0.2443 -0.2608  0.2684
  160MOL0     C21965   4.062   6.288   5.304  0.8579 -0.4723 -0.6123
  160MOL0     O21966   4.120   6.344   5.429 -0.4998  0.7859 -0.3796
  160MOL0     C21967   4.227   6.424   5.417 -0.2384 -0.0357 -1.2207
  160MOL0     C21968   4.306   6.427   5.303 -0.0744  0.5875 -0.8392
  160MOL0     C21969   4.421   6.499   5.295 -1.3270  0.0841  0.6378
  160MOL0     C21970   4.520   6.486   5.177  0.4150 -0.3844 -0.2984
  160MOL0     C21971   4.458   6.582   5.407 -0.7990 -0.0326 -0.1579
  160MOL0     C21972   4.585   6.662   5.410  0.2962  0.3721 -0.9910
  160MOL0     O21973   4.653   6.706   5.295  0.1428  0.7648 -0.7032
  160MOL0     C21974   4.775   6.772   5.317  0.0478  0.3868  0.1100
  160MOL0     C21975   4.783   6.889   5.383 -0.4339  0.3432  0.1794
  160MOL0     C21976   4.902   6.960   5.386 -0.0019 -0.3695  0.2291
  160MOL0     C21977   5.021   6.910   5.341 -0.8250  0.5078  0.9057
  160MOL0     O21978   5.143   6.979   5.344 -0.1021 -0.1199  0.2695
  160MOL0     C21979   5.268   6.905   5.338 -0.2690  0.5462 -0.5361
  160MOL0     C21980   5.383   6.999   5.339  0.3360 -0.2089 -0.7282
  160MOL0     C21981   5.418   7.074   5.471  1.2699 -0.3254 -0.3403
  160MOL0     C21982   5.523   7.185   5.447  0.0483 -0.2530 -0.7498
  160MOL0     C21983   5.659   7.132   5.417  0.9059  0.0925  0.2485
  160MOL0     C21984   5.767   7.240   5.426 -0.2170  0.4372 -0.3305
  160MOL0     C21985   5.905   7.190   5.396  0.7220  0.3130  0.1157
  160MOL0     C21986   6.011   7.292   5.398 -0.7733 -0.4088  0.2702
  160MOL0    Cl21987   6.027   7.413   5.261  0.0854  0.0580 -0.2918
  160MOL0     C21988   5.010   6.772   5.284 -1.0033  0.0670 -1.0304
  160MOL0     C21989   4.890   6.705   5.265 -0.1568 -0.3389 -0.2542
  160MOL0     O21990   4.621   6.689   5.526  0.4732 -0.4113 -0.4318
  160MOL0     C21991   4.373   6.588   5.514 -0.2122 -0.1552  0.2630
  160MOL0     C21992   4.259   6.517   5.510 -0.2504  0.0717  0.1922
  160MOL0     N21993   3.831   6.438   5.121 -0.1508 -0.7094  0.2820
  160MOL0     N21994   3.828   6.521   5.020 -0.0782 -0.0811  0.8557
  160MOL0     C21995   2.553   6.522   4.502 -0.1275  0.0494 -0.5971
  160MOL0     C21996   2.414   6.482   4.498 -0.1297 -0.2664 -1.1642
  160MOL0     C21997   2.024   6.259   4.534 -0.1729 -0.3147  0.1584
  160MOL0     C21998   1.961   6.136   4.559 -0.2315  0.5905 -0.4426
  160MOL0     C21999   1.824   6.113   4.529 -1.0111  0.1113 -0.5742
  160MOL0     C22000   1.750   6.210   4.468  0.7781  0.0419  0.1865
  160MOL0     O22001   1.608   6.199   4.432  0.0015 -0.2922  0.4263
  160MOL0     C22002   1.547   6.078   4.439  0.0717  0.2770 -0.3800
  160MOL0     C22003   1.399   6.075   4.393  0.2324 -0.0427 -0.2904
  160MOL0     C22004   1.317   5.964   4.457  0.3045 -0.0121 -0.0549
  160MOL0     C22005   1.379   5.828   4.417 -0.7469 -0.1999  0.3278
  160MOL0     C22006   1.290   5.723   4.464  0.3705 -0.7690 -0.0885
  160MOL0     C22007   1.226   5.621   4.486 -0.2349 -0.3402  0.8703
  160MOL0     C22008   1.809   6.326   4.430 -0.0670  0.5878  0.2405
  160MOL0     C22009   1.943   6.352   4.452  0.7061 -0.5586 -0.9944
  160MOL0     C22010   1.990   6.496   4.436  0.9979 -1.0604  0.6649
  160MOL0     H22011   2.431   6.153   4.490  2.0686 -0.3673  1.3561
  160MOL0     H22012   2.677   6.215   4.496 -2.0246 -1.3515 -2.0861
  160MOL0     H22013   2.796   6.587   4.657  1.4854  2.1988  0.4425
  160MOL0     H22014   2.889   6.619   4.504  0.3403 -2.0171 -2.3802
  160MOL0     H22015   2.951   6.446   4.744  2.1983  0.2336  0.9809
  160MOL0     H22016   3.014   6.391   4.597  2.3161  0.1880  0.2777
  160MOL0     H22017   3.099   6.613   4.544 -0.5053  1.1457 -0.6685
  160MOL0     H22018   3.081   6.676   4.711  0.3944  0.6353 -1.9602
  160MOL0     H22019   3.207   6.445   4.769 -2.2084  2.6793  1.8308
  160MOL0     H22020   3.250   6.464   4.599  1.5359  0.8997 -0.3887
  160MOL0     H22021   3.313   6.689   4.804  0.0285  0.7839 -0.9008
  160MOL0     H22022   3.372   6.662   4.638  0.0629  0.6031  0.7212
  160MOL0     H22023   3.439   6.477   4.864 -0.0494  0.7010  0.1606
  160MOL0     H22024   3.493   6.460   4.703  3.9503 -0.0447  0.9964
  160MOL0     H22025   3.577   6.683   4.890 -0.2615  1.2383 -0.7306
  160MOL0     H22026   3.593   6.690   4.714  1.7955 -1.5006 -1.3001
  160MOL0     H22027   3.731   6.466   4.725 -0.1625 -0.6641 -0.6337
  160MOL0     H22028   3.800   6.616   4.793 -1.1947  1.0940  4.5770
  160MOL0     H22029   3.583   6.319   4.936  1.0337 -2.3078 -1.0131
  160MOL0     H22030   3.635   6.171   5.174  0.5695 -1.2536  0.5177
  160MOL0     H22031   3.669   6.303   5.285 -0.0305 -0.5991 -0.4383
  160MOL0     H22032   3.824   6.061   5.282  0.9624 -0.4479 -0.2142
  160MOL0     H22033   3.909   6.159   5.154 -1.5615  1.7025 -0.9692
  160MOL0     H22034   3.874   6.332   5.381  0.1500  0.1169 -0.1090
  160MOL0     H22035   3.942   6.188   5.436  1.3798  2.6040  1.7287
  160MOL0     H22036   4.123   6.201   5.279  0.3786 -1.2636  0.8859
  160MOL0     H22037   4.046   6.360   5.223 -0.8888 -1.6871 -1.3920
  160MOL0     H22038   4.296   6.357   5.220  1.3909  1.9386 -2.2241
  160MOL0     H22039   4.512   6.572   5.110 -0.3931  0.7178  1.1453
  160MOL0     H22040   4.506   6.396   5.118  0.1327 -0.0219 -0.7880
  160MOL0     H22041   4.623   6.477   5.212  0.3915  1.4860  0.3910
  160MOL0     H22042   4.700   6.926   5.442 -0.0197 -2.0152  2.4228
  160MOL0     H22043   4.909   7.057   5.434 -1.1177 -0.8453  1.4218
  160MOL0     H22044   5.291   6.839   5.422  1.6789  2.2554  0.3523
  160MOL0     H22045   5.271   6.848   5.244 -0.7646 -2.7000  1.2499
  160MOL0     H22046   5.478   6.953   5.311  1.7939  1.9110  0.4605
  160MOL0     H22047   5.366   7.075   5.262 -0.6997  1.2838  0.8919
  160MOL0     H22048   5.451   6.998   5.542 -0.9623  0.1240  1.3230
  160MOL0     H22049   5.323   7.115   5.509  0.6327  0.5707 -2.7032
  160MOL0     H22050   5.525   7.254   5.531  1.3991 -4.9203  3.5533
  160MOL0     H22051   5.484   7.237   5.359 -1.5869 -0.0239  0.0626
  160MOL0     H22052   5.674   7.046   5.483 -1.8107 -2.0071 -1.5951
  160MOL0     H22053   5.655   7.088   5.316 -0.4105 -2.7222  1.4050
  160MOL0     H22054   5.766   7.275   5.530  0.8580 -2.0159  0.5727
  160MOL0     H22055   5.733   7.319   5.358 -1.2925  0.2212 -0.0637
  160MOL0     H22056   5.904   7.124   5.310 -2.3782 -1.7512  1.5301
  160MOL0     H22057   5.907   7.116   5.477  0.7916 -0.1206 -0.2803
  160MOL0     H22058   6.109   7.244   5.408 -0.5838 -0.2394 -0.6371
  160MOL0     H22059   5.999   7.348   5.490  2.3202  1.8084 -0.5060
  160MOL0     H22060   5.100   6.721   5.251  0.2151  1.8673 -0.6376
  160MOL0     H22061   4.870   6.609   5.219 -3.0140 -0.9812  2.0762
  160MOL0     H22062   4.390   6.662   5.592  0.2353  0.5446 -0.4888
  160MOL0     H22063   4.191   6.533   5.593 -1.1641  0.7681 -0.6578
  160MOL0     H22064   2.581   6.627   4.498 -1.6895  0.5526  0.7282
  160MOL0     H22065   2.341   6.562   4.500  1.1113  0.9139  1.5624
  160MOL0     H22066   2.013   6.055   4.610 -2.0863 -0.7290 -0.5563
  160MOL0     H22067   1.784   6.014   4.549  2.6733 -1.4745 -0.1262
  160MOL0     H22068   1.610   6.015   4.377  0.9512  0.3009  0.4532
  160MOL0     H22069   1.561   6.040   4.541 -2.0934 -1.5797 -0.7044
  160MOL0     H22070   1.401   6.065   4.284 -1.3068  1.6402 -0.5180
  160MOL0     H22071   1.339   6.164   4.415  2.2609  1.0906  1.0570
  160MOL0     H22072   1.306   5.975   4.566 -0.5530  2.9464 -0.3588
  160MOL0     H22073   1.216   5.963   4.414  0.1434  1.5453  0.2130
  160MOL0     H22074   1.481   5.810   4.452  0.0226 -1.0262 -2.0956
  160MOL0     H22075   1.391   5.826   4.308 -1.3777 -3.2125  0.2257
  160MOL0     H22076   1.166   5.533   4.500 -2.0082  0.6324 -0.2365
  160MOL0     H22077   1.743   6.396   4.381 -0.6317 -0.3755 -0.4041
  160MOL0     H22078   1.923   6.560   4.493 -0.9995 -1.8835 -0.6473
  160MOL0     H22079   2.086   6.532   4.474  0.8760  2.3806 -1.8273
  160MOL0     H22080   1.976   6.523   4.331 -2.1257 -2.4513  0.6143
  161MOL0     O22081   5.420   2.135   2.381 -0.4340 -0.0265 -0.3129
  161MOL0     C22082   5.319   2.212   2.367 -0.6480 -0.2247  0.2300
  161MOL0     O22083   5.320   2.348   2.361  0.1897 -0.6854 -0.6698
  161MOL0     C22084   5.435   2.428   2.353  0.8509  0.1981  0.2722
  161MOL0     C22085   5.417   2.559   2.390 -0.0361  0.6321  1.0333
  161MOL0     C22086   5.521   2.655   2.389  0.2905 -0.4802  0.2652
  161MOL0     C22087   5.653   2.612   2.362  0.3788  0.3347 -0.2310
  161MOL0     O22088   5.757   2.697   2.376 -0.8774  1.0020 -0.0821
  161MOL0     C22089   5.894   2.654   2.343 -0.5088  0.2885  0.8223
  161MOL0     C22090   5.978   2.779   2.367  0.2624 -0.1288  0.3907
  161MOL0     C22091   5.969   2.847   2.509  0.3224  0.5105  0.5640
  161MOL0     C22092   6.094   2.937   2.538 -0.2225 -0.4574 -0.0838
  161MOL0     C22093   6.107   2.977   2.688 -0.0932  0.3632  0.3345
  161MOL0     C22094   6.205   3.101   2.705 -0.2410 -0.3655 -0.3975
  161MOL0     C22095   6.344   3.056   2.691 -1.1688  0.1417  0.4174
  161MOL0     C22096   6.442   3.172   2.708 -0.3920  0.2978  0.4176
  161MOL0     N22097   6.440   3.239   2.843 -0.4828  0.6193  0.4531
  161MOL0     C22098   6.535   3.341   2.862  0.1020  0.1837  0.9830
  161MOL0     C22099   6.540   3.345   3.001 -0.7443  0.0093  0.4797
  161MOL0     C22100   6.632   3.428   3.086  0.7557 -0.5740 -0.0491
  161MOL0     C22101   6.604   3.579   3.106  0.0577 -0.3805  0.6242
  161MOL0     C22102   6.640   3.672   2.983 -0.6918 -0.0943  0.7016
  161MOL0     C22103   6.799   3.663   2.948  0.3243 -0.5836  0.7656
  161MOL0     O22104   6.882   3.677   3.063  0.2855  0.1282  0.2397
  161MOL0     C22105   7.004   3.729   3.030 -0.7991 -0.4344 -1.1147
  161MOL0     C22106   7.096   3.744   3.133  0.2470 -0.6543  0.2768
  161MOL0     C22107   7.224   3.803   3.110 -0.1089 -1.1369  0.5224
  161MOL0     C22108   7.308   3.834   3.241  0.5339 -0.1298  0.0760
  161MOL0     C22109   7.272   3.840   2.985  0.2244 -0.7836 -0.5756
  161MOL0     C22110   7.401   3.903   2.952 -0.3070  0.5801 -0.0823
  161MOL0     O22111   7.445   3.882   2.824 -0.6714 -0.1490  0.7995
  161MOL0     C22112   7.562   3.940   2.781  1.4821 -0.2920  0.5616
  161MOL0     C22113   7.540   4.040   2.689 -0.4482  0.4443  0.0651
  161MOL0     C22114   7.659   4.113   2.645  0.1792 -0.2384 -0.2957
  161MOL0     C22115   7.791   4.078   2.690 -1.4439  0.2883  0.1600
  161MOL0     O22116   7.907   4.144   2.648  0.4491  0.2644  0.6048
  161MOL0     C22117   7.900   4.235   2.539 -0.8803 -0.2446 -1.0740
  161MOL0     C22118   8.043   4.286   2.512 -0.4381 -0.2475 -0.2158
  161MOL0     C22119   8.043   4.400   2.413  0.0871  0.0144 -1.1272
  161MOL0     C22120   8.176   4.480   2.422 -0.1025 -0.4601  0.0930
  161MOL0     C22121   8.198   4.564   2.286 -0.4562  0.4075 -0.4598
  161MOL0     C22122   8.095   4.650   2.228 -0.7585 -0.6686  0.2903
  161MOL0     C22123   8.097   4.789   2.296  0.6451 -0.4055 -0.9900
  161MOL0     C22124   7.998   4.807   2.408  0.5116  0.9097 -0.7590
  161MOL0    Cl22125   7.851   4.877   2.320 -0.3355  0.3372 -0.0031
  161MOL0     C22126   7.806   3.978   2.786  0.4039  0.0983 -1.4702
  161MOL0     C22127   7.689   3.913   2.840  0.0505  0.0752  0.9767
  161MOL0     O22128   7.463   3.966   3.040 -0.7846 -0.3522  0.2030
  161MOL0     C22129   7.183   3.819   2.879  0.3722 -0.0849 -0.1362
  161MOL0     C22130   7.055   3.765   2.898  0.9278 -0.5119 -0.0560
  161MOL0     N22131   6.455   3.252   3.055  0.1909  0.7572 -0.1091
  161MOL0     N22132   6.395   3.185   2.960 -0.5781 -0.7034  0.2056
  161MOL0     C22133   5.668   2.483   2.315  0.3525 -0.2306  0.3336
  161MOL0     C22134   5.565   2.389   2.308  0.1027  0.0653 -0.0260
  161MOL0     C22135   5.188   2.141   2.354  0.3706 -0.3219  0.4008
  161MOL0     C22136   5.169   2.012   2.404  0.5492 -0.3885 -0.4589
  161MOL0     C22137   5.052   1.937   2.396 -0.3632  0.0884 -0.1145
  161MOL0     C22138   4.937   1.994   2.343  0.6831  0.1491  0.4143
  161MOL0     O22139   4.827   1.914   2.352  0.0743  0.3350  0.4929
  161MOL0     C22140   4.700   1.981   2.349  0.2160  0.6464  0.2491
  161MOL0     C22141   4.579   1.881   2.326 -0.3187 -0.5889 -0.4461
  161MOL0     C22142   4.578   1.818   2.186 -0.2421  0.2225  0.5343
  161MOL0     C22143   4.451   1.753   2.136  0.0059  0.5033  0.3220
  161MOL0     C22144   4.354   1.863   2.120 -0.4277 -0.1338  0.3971
  161MOL0     C22145   4.268   1.949   2.112  0.5872 -0.1124 -0.5242
  161MOL0     C22146   4.945   2.122   2.282  0.1971 -0.2467 -0.0362
  161MOL0     C22147   5.068   2.197   2.284 -0.8279 -0.2441  0.0545
  161MOL0     C22148   5.073   2.320   2.199 -0.3562 -0.3173 -0.5471
  161MOL0     H22149   5.319   2.586   2.430 -1.3655 -0.8135 -1.0999
  161MOL0     H22150   5.484   2.752   2.422 -2.5878 -0.6662 -2.0156
  161MOL0     H22151   5.911   2.624   2.240 -0.6422 -0.8797  1.1251
  161MOL0     H22152   5.942   2.567   2.389 -0.6820 -1.8339 -2.6974
  161MOL0     H22153   6.081   2.745   2.354  0.1576 -0.3260  0.0804
  161MOL0     H22154   5.951   2.847   2.286 -2.8975 -1.5668  0.1042
  161MOL0     H22155   5.877   2.903   2.528 -0.5006  0.7598 -3.2516
  161MOL0     H22156   5.953   2.763   2.577  1.6402 -0.2579 -0.0384
  161MOL0     H22157   6.181   2.879   2.505  0.5423  0.1537  0.7949
  161MOL0     H22158   6.078   3.030   2.483  1.1044 -0.3380 -0.3022
  161MOL0     H22159   6.145   2.887   2.737  0.3167  1.0182  1.2216
  161MOL0     H22160   6.012   3.010   2.731 -0.5205  1.7790 -1.5481
  161MOL0     H22161   6.192   3.184   2.635 -1.2109 -0.0709  0.1035
  161MOL0     H22162   6.189   3.140   2.806  5.0354  0.1623  0.5389
  161MOL0     H22163   6.360   3.005   2.596 -0.5823 -1.8281  1.5255
  161MOL0     H22164   6.372   2.982   2.766 -1.5141 -1.9516 -1.4226
  161MOL0     H22165   6.541   3.131   2.689  0.2424  0.9022  2.2585
  161MOL0     H22166   6.419   3.239   2.624 -1.7419 -2.1155 -1.2542
  161MOL0     H22167   6.589   3.399   2.788 -1.5447 -0.0982 -0.5006
  161MOL0     H22168   6.736   3.413   3.053  0.3118 -3.1299 -0.5347
  161MOL0     H22169   6.620   3.390   3.188  0.5867  3.5675  1.6588
  161MOL0     H22170   6.495   3.580   3.118 -0.0623 -0.6584 -0.3307
  161MOL0     H22171   6.660   3.608   3.195  1.8856  0.0411 -0.6070
  161MOL0     H22172   6.577   3.651   2.896 -0.2246  0.5941  0.1779
  161MOL0     H22173   6.620   3.774   3.019 -1.2235  0.6425 -1.4923
  161MOL0     H22174   6.819   3.559   2.922 -2.1521 -0.7764 -0.6959
  161MOL0     H22175   6.808   3.717   2.853 -1.3519 -1.5663 -0.0101
  161MOL0     H22176   7.057   3.714   3.229  3.6068  2.0122  2.7138
  161MOL0     H22177   7.305   3.942   3.258 -0.4974 -0.5751  3.3869
  161MOL0     H22178   7.410   3.803   3.216  0.2052 -1.2327  0.0329
  161MOL0     H22179   7.274   3.789   3.334 -0.3110  0.8461  0.2538
  161MOL0     H22180   7.439   4.059   2.655 -0.7263  1.1971  1.2797
  161MOL0     H22181   7.651   4.192   2.572  2.4037 -2.4993 -3.2163
  161MOL0     H22182   7.871   4.179   2.449  2.8538 -1.3423 -1.7639
  161MOL0     H22183   7.823   4.313   2.547 -0.8234 -0.3542  0.8673
  161MOL0     H22184   8.077   4.320   2.610 -3.3165 -5.1775  2.9357
  161MOL0     H22185   8.094   4.206   2.458 -2.2730 -1.3317 -0.4491
  161MOL0     H22186   7.958   4.467   2.430  0.5230  0.3418 -0.1827
  161MOL0     H22187   8.027   4.361   2.312 -0.4761  1.2004 -1.5169
  161MOL0     H22188   8.265   4.417   2.434  0.5455  0.8936  3.3317
  161MOL0     H22189   8.173   4.553   2.503 -1.3933  2.7075 -2.5627
  161MOL0     H22190   8.292   4.617   2.302  0.3169 -1.1762  0.5939
  161MOL0     H22191   8.214   4.483   2.214 -0.8255 -1.9236  1.8945
  161MOL0     H22192   7.997   4.601   2.229  0.2484 -2.8044  0.7342
  161MOL0     H22193   8.111   4.677   2.123 -1.2259  0.8011  0.5743
  161MOL0     H22194   8.089   4.866   2.218 -1.4127 -1.9868 -2.4549
  161MOL0     H22195   8.198   4.795   2.336  0.1623 -2.7429  0.7649
  161MOL0     H22196   8.040   4.867   2.489 -0.1203  1.8696 -1.1315
  161MOL0     H22197   7.974   4.716   2.465  3.2336  0.2649 -0.5005
  161MOL0     H22198   7.903   3.948   2.824 -0.5111 -0.2145  0.7951
  161MOL0     H22199   7.704   3.833   2.911  0.3156 -0.1255  0.6956
  161MOL0     H22200   7.221   3.848   2.782  1.6026 -1.5525 -0.1286
  161MOL0     H22201   7.007   3.736   2.805 -0.1358  2.2896 -0.5010
  161MOL0     H22202   5.763   2.442   2.284  0.7414  0.6855  0.2798
  161MOL0     H22203   5.591   2.287   2.283  0.4312 -0.0983  0.9302
  161MOL0     H22204   5.253   1.971   2.459  0.7998  1.2237  0.4439
  161MOL0     H22205   5.041   1.837   2.437 -1.9036  0.0376 -0.5856
  161MOL0     H22206   4.678   2.032   2.443 -0.7532  2.0055 -0.6869
  161MOL0     H22207   4.688   2.047   2.262 -2.3989 -0.8159 -0.6134
  161MOL0     H22208   4.492   1.944   2.346  0.8868  0.8537  0.4627
  161MOL0     H22209   4.597   1.804   2.402  2.2400  0.1164 -0.2408
  161MOL0     H22210   4.613   1.896   2.119  0.7031 -1.1594 -0.6359
  161MOL0     H22211   4.660   1.745   2.183  0.0470  0.4632  1.8790
  161MOL0     H22212   4.410   1.670   2.194 -0.4988  1.4838  1.4129
  161MOL0     H22213   4.472   1.715   2.035  0.0885  0.5024  0.3400
  161MOL0     H22214   4.189   2.021   2.119  0.3099 -0.5120  0.7054
  161MOL0     H22215   4.860   2.169   2.232 -0.1668 -1.2740 -0.4165
  161MOL0     H22216   5.087   2.401   2.271  0.6950 -1.8202  1.0023
  161MOL0     H22217   5.156   2.318   2.129  0.7380  2.2013  0.5315
  161MOL0     H22218   4.981   2.328   2.140  1.4254  0.0264 -3.4231
  162MOL0     O22219   2.418  10.214   9.883 -0.2265 -0.0476 -0.4020
  162MOL0     C22220   2.307  10.236   9.839 -0.7881  0.5489  0.0079
  162MOL0     O22221   2.264  10.358   9.797  0.6017 -0.1692 -0.0223
  162MOL0     C22222   2.332  10.472   9.830 -0.6037  0.1465 -0.3482
  162MOL0     C22223   2.339  10.572   9.735  0.4816 -0.9278 -0.1616
  162MOL0     C22224   2.412  10.695   9.759  0.7519 -0.7669  0.0042
  162MOL0     C22225   2.483  10.721   9.875  0.1149  0.5787 -0.0033
  162MOL0     O22226   2.566  10.834   9.895 -0.1754 -0.2765 -0.3274
  162MOL0     C22227   2.610  10.899   9.778  0.1413 -1.0028  0.0021
  162MOL0     C22228   2.753  10.954   9.800 -0.1765 -0.3280  0.2060
  162MOL0     C22229   2.786  11.054   9.686 -0.2871 -0.2256 -0.3137
  162MOL0     C22230   2.931  11.087   9.714 -0.3494 -0.3634  0.0853
  162MOL0     C22231   2.984  11.178   9.598 -0.1818 -0.3039 -1.0330
  162MOL0     C22232   2.962  11.326   9.615 -0.0084 -0.0865 -0.4870
  162MOL0     C22233   3.026  11.417   9.510 -0.3713 -0.1070 -0.3910
  162MOL0     C22234   3.174  11.427   9.539 -0.4604 -0.6114  0.0110
  162MOL0     N22235   3.253  11.479   9.425 -0.0576  0.9688  0.3921
  162MOL0     C22236   3.390  11.489   9.424  0.2167 -0.0639  0.1581
  162MOL0     C22237   3.429  11.506   9.297 -0.2493  0.4100  0.1873
  162MOL0     C22238   3.573  11.533   9.251 -0.6766 -0.4696 -0.1988
  162MOL0     C22239   3.633  11.654   9.317 -0.5602  0.7560  0.2268
  162MOL0     C22240   3.540  11.769   9.344  0.0047 -0.0696 -0.2891
  162MOL0     C22241   3.626  11.901   9.359  0.4865 -0.7811 -0.3733
  162MOL0     O22242   3.688  11.894   9.479 -0.7994  0.1980  0.6234
  162MOL0     C22243   3.778  11.995   9.503 -0.3923 -0.1099  0.2521
  162MOL0     C22244   3.739  12.125   9.505 -0.0578 -0.5047  0.2273
  162MOL0     C22245   3.830  12.230   9.537 -0.2967 -1.2516 -0.6992
  162MOL0     C22246   3.798  12.383   9.532 -0.8693  0.5619  0.1469
  162MOL0     C22247   3.964  12.193   9.570 -0.0295  0.9919 -0.5266
  162MOL0     C22248   4.070  12.286   9.599 -0.9239 -0.2260 -0.1906
  162MOL0     O22249   4.179  12.276   9.528 -0.9837  0.4912 -0.0004
  162MOL0     C22250   4.300  12.337   9.556 -0.7402 -0.0500 -0.0059
  162MOL0     C22251   4.383  12.366   9.448 -0.4416 -0.5461  0.0100
  162MOL0     C22252   4.507  12.415   9.476 -1.1557 -0.8217  0.3071
  162MOL0     C22253   4.554  12.438   9.602 -0.3450  0.1858  0.0687
  162MOL0     O22254   4.674  12.493   9.637  0.1242  0.0799  0.0853
  162MOL0     C22255   4.793  12.503   9.560  0.3681  0.3004 -0.3802
  162MOL0     C22256   4.860  12.623   9.622  0.1357 -0.2226 -0.3443
  162MOL0     C22257   5.005  12.629   9.581 -0.1218 -0.3647 -0.3553
  162MOL0     C22258   5.083  12.751   9.631  0.2976 -0.7020 -0.9096
  162MOL0     C22259   5.229  12.754   9.582  0.8910 -0.7307  0.0538
  162MOL0     C22260   5.306  12.644   9.655  0.1324  0.0436 -0.5939
  162MOL0     C22261   5.455  12.662   9.631 -0.2153 -0.4369 -0.2788
  162MOL0     C22262   5.534  12.729   9.741 -0.5800  0.9725  1.1629
  162MOL0    Cl22263   5.486  12.896   9.762  0.2883  0.2812 -0.2850
  162MOL0     C22264   4.460  12.405   9.706  0.0753 -0.3029  1.0080
  162MOL0     C22265   4.344  12.349   9.685 -0.5575  0.6386 -0.7659
  162MOL0     O22266   4.046  12.354   9.701 -0.1659  0.4326 -0.6798
  162MOL0     C22267   3.997  12.051   9.568  0.0153 -0.1460  0.6193
  162MOL0     C22268   3.907  11.957   9.539  0.5995  0.4879  0.0196
  162MOL0     N22269   3.316  11.527   9.218  1.0263 -0.5065  0.7705
  162MOL0     N22270   3.211  11.497   9.291  0.2988  0.3636 -1.0493
  162MOL0     C22271   2.478  10.617   9.966  0.4189  0.0824 -0.3201
  162MOL0     C22272   2.402  10.497   9.948 -0.2358 -0.5670 -0.6999
  162MOL0     C22273   2.213  10.124   9.833  0.1967  0.5430  0.3902
  162MOL0     C22274   2.259  10.000   9.875  0.1972  0.2057 -0.5549
  162MOL0     C22275   2.172   9.888   9.877  0.0004  0.5658  1.2234
  162MOL0     C22276   2.037   9.905   9.842 -0.5959 -0.1380 -0.3648
  162MOL0     O22277   1.944   9.802   9.839 -0.0766  0.6949 -0.5338
  162MOL0     C22278   1.901   9.744   9.965 -0.3500  0.5357  0.0989
  162MOL0     C22279   1.824   9.618   9.936  0.1123 -0.3398 -0.2981
  162MOL0     C22280   1.699   9.643   9.842  0.6571 -0.1811 -0.1025
  162MOL0     C22281   1.583   9.700   9.926  0.3481  0.0129 -1.9048
  162MOL0     C22282   1.457   9.703   9.854 -0.3007  0.1673 -0.6947
  162MOL0     C22283   1.355   9.688   9.790  0.3767  0.0145  0.3372
  162MOL0     C22284   1.998  10.032   9.810 -0.4038  0.5353  0.6164
  162MOL0     C22285   2.078  10.142   9.799  1.0896 -0.2034 -0.1972
  162MOL0     C22286   2.016  10.265   9.732  0.1837 -0.5385  0.5987
  162MOL0     H22287   2.284  10.564   9.642 -2.3010 -0.3652  1.3123
  162MOL0     H22288   2.405  10.753   9.667 -0.7334 -3.5920 -1.8092
  162MOL0     H22289   2.543  10.982   9.756  0.2342 -0.8103  0.4347
  162MOL0     H22290   2.606  10.839   9.687  0.8708 -1.0919  0.0172
  162MOL0     H22291   2.757  11.008   9.895 -1.2211 -0.5680  0.4017
  162MOL0     H22292   2.822  10.869   9.794 -1.2556 -1.1699 -0.8782
  162MOL0     H22293   2.769  11.014   9.585 -0.2637  1.2185 -0.9202
  162MOL0     H22294   2.729  11.146   9.700 -0.5833 -0.6335  1.3319
  162MOL0     H22295   2.950  11.141   9.807 -0.2662 -2.0983  1.1235
  162MOL0     H22296   2.998  11.001   9.718  0.2438 -0.0137 -1.4746
  162MOL0     H22297   2.935  11.144   9.506  1.8892  0.7993 -2.6345
  162MOL0     H22298   3.090  11.154   9.583  0.3141  2.1297 -2.0034
  162MOL0     H22299   2.853  11.337   9.608  0.0430  0.5357 -0.4443
  162MOL0     H22300   2.984  11.369   9.713 -0.6120  0.7137 -0.6874
  162MOL0     H22301   2.980  11.516   9.518 -0.5707 -0.3514  2.4702
  162MOL0     H22302   3.019  11.372   9.411  2.8552  2.9194 -2.2308
  162MOL0     H22303   3.187  11.477   9.636 -1.6984  0.8784 -0.5265
  162MOL0     H22304   3.204  11.325   9.563  0.7840  0.0065  1.2351
  162MOL0     H22305   3.457  11.485   9.510 -0.0128  0.3450  0.3571
  162MOL0     H22306   3.567  11.553   9.144 -3.9239  0.7673  0.1015
  162MOL0     H22307   3.627  11.438   9.264  0.6407  0.4422  1.3655
  162MOL0     H22308   3.683  11.631   9.412  0.8788 -2.3768 -1.1679
  162MOL0     H22309   3.709  11.684   9.245 -1.1189 -1.2238 -1.2672
  162MOL0     H22310   3.470  11.784   9.261  2.0634  1.4563 -1.8433
  162MOL0     H22311   3.482  11.759   9.436 -1.9775  2.6239 -1.1224
  162MOL0     H22312   3.699  11.919   9.280 -1.0355 -0.6921 -1.8438
  162MOL0     H22313   3.554  11.983   9.363 -0.7229 -1.8635  0.9700
  162MOL0     H22314   3.638  12.155   9.479  1.2881  1.9125 -3.0419
  162MOL0     H22315   3.694  12.407   9.508 -1.0281 -0.4181 -0.1893
  162MOL0     H22316   3.873  12.411   9.458 -0.5489 -1.9637 -0.5938
  162MOL0     H22317   3.828  12.420   9.631  0.0626 -2.7734  1.2549
  162MOL0     H22318   4.355  12.354   9.344  1.5930 -0.2820 -0.5966
  162MOL0     H22319   4.562  12.443   9.387 -2.5509 -0.0478 -0.3546
  162MOL0     H22320   4.855  12.414   9.574 -1.0476 -0.7508 -0.5243
  162MOL0     H22321   4.773  12.496   9.452 -1.1421  0.0836 -0.1153
  162MOL0     H22322   4.807  12.714   9.590  1.5572  1.3585  1.5739
  162MOL0     H22323   4.859  12.621   9.731 -2.1402  0.3790 -0.2907
  162MOL0     H22324   5.013  12.638   9.473 -0.4343  1.5039 -0.2671
  162MOL0     H22325   5.060  12.538   9.605  1.3063  0.5206 -0.1000
  162MOL0     H22326   5.067  12.766   9.738 -5.3821  0.4502 -1.6121
  162MOL0     H22327   5.037  12.843   9.597  0.0139 -0.7433 -0.6511
  162MOL0     H22328   5.235  12.730   9.476  0.5573 -1.9213  0.2931
  162MOL0     H22329   5.273  12.853   9.596  0.7415 -0.7888  1.0226
  162MOL0     H22330   5.277  12.542   9.629  0.0861 -0.0240 -0.2809
  162MOL0     H22331   5.297  12.650   9.764 -1.7437 -0.4259 -0.6950
  162MOL0     H22332   5.478  12.711   9.536 -0.1003 -1.2944 -0.7033
  162MOL0     H22333   5.493  12.559   9.632  0.1785 -0.3141  1.5789
  162MOL0     H22334   5.638  12.720   9.710 -1.0666  1.8008 -0.9221
  162MOL0     H22335   5.521  12.665   9.828  0.9207  0.7213  1.2163
  162MOL0     H22336   4.503  12.420   9.804 -1.6309  0.5986  1.6644
  162MOL0     H22337   4.287  12.317   9.771 -0.9084  1.1610 -0.7985
  162MOL0     H22338   4.100  12.020   9.583  0.2728 -0.0259 -0.8299
  162MOL0     H22339   3.941  11.854   9.535  2.3589  0.9984  0.9980
  162MOL0     H22340   2.536  10.622  10.057  0.4363  2.3666 -0.3905
  162MOL0     H22341   2.407  10.427  10.030  1.2737 -1.9782 -1.9060
  162MOL0     H22342   2.364   9.999   9.904  0.7643  0.6311 -2.4636
  162MOL0     H22343   2.206   9.792   9.912 -3.0860 -1.0673  0.1274
  162MOL0     H22344   1.979   9.713  10.036 -1.2466  2.9385  2.2925
  162MOL0     H22345   1.849   9.818  10.025  1.3145 -0.5494  3.0794
  162MOL0     H22346   1.795   9.564  10.027 -2.1785 -0.1789 -0.8790
  162MOL0     H22347   1.903   9.562   9.883  2.0032  0.9135  1.0758
  162MOL0     H22348   1.719   9.704   9.754  1.1675 -0.5741 -0.2664
  162MOL0     H22349   1.665   9.546   9.805 -0.0003 -0.0071  0.0434
  162MOL0     H22350   1.604   9.803   9.957 -1.2632  0.4824 -2.2843
  162MOL0     H22351   1.568   9.634  10.013 -0.2591  1.1053 -1.1592
  162MOL0     H22352   1.289   9.687   9.706  1.2426 -1.0004 -0.3581
  162MOL0     H22353   1.892  10.031   9.784 -0.6641  0.4031  1.6232
  162MOL0     H22354   2.086  10.290   9.653  0.6388 -0.5845  0.9798
  162MOL0     H22355   1.916  10.242   9.693  0.0891 -1.5433  1.3687
  162MOL0     H22356   2.017  10.347   9.804 -1.2697  0.6679 -0.7005
  163MOL0     O22357   1.162   6.249   9.283 -0.2881  0.3791 -0.0257
  163MOL0     C22358   1.113   6.193   9.386  0.2591  0.5734 -0.6567
  163MOL0     O22359   1.185   6.130   9.492  0.0863  0.2976  0.5203
  163MOL0     C22360   1.321   6.128   9.490 -0.2496 -0.1040  0.2552
  163MOL0     C22361   1.399   6.199   9.587 -0.5274 -0.7922 -0.2625
  163MOL0     C22362   1.536   6.170   9.592  0.8691  0.1710  0.2162
  163MOL0     C22363   1.596   6.095   9.491  0.4388 -0.5208 -0.1292
  163MOL0     O22364   1.730   6.061   9.498 -0.1407  1.0390 -0.3676
  163MOL0     C22365   1.783   5.977   9.400  0.2231  0.5730  0.0596
  163MOL0     C22366   1.921   5.914   9.441 -0.4102  0.4046 -0.4011
  163MOL0     C22367   2.029   6.024   9.445 -0.4699  0.8117 -0.1264
  163MOL0     C22368   2.148   5.975   9.532  0.0154 -0.0685  0.7951
  163MOL0     C22369   2.244   6.089   9.562 -0.4553  0.4788 -0.0156
  163MOL0     C22370   2.345   6.094   9.449 -0.6797 -0.4740 -0.9433
  163MOL0     C22371   2.490   6.143   9.494  0.6394 -0.3957 -0.2069
  163MOL0     C22372   2.505   6.289   9.547 -0.0480  0.5111 -0.4855
  163MOL0     N22373   2.643   6.292   9.595  0.0020 -0.0233  0.1910
  163MOL0     C22374   2.752   6.307   9.522 -0.3392 -0.1081  0.6918
  163MOL0     C22375   2.860   6.313   9.604 -0.5495 -0.8472  0.2388
  163MOL0     C22376   2.999   6.339   9.553  0.3781  0.2895  0.3274
  163MOL0     C22377   3.037   6.486   9.538  0.3246  0.1939 -1.1684
  163MOL0     C22378   3.188   6.494   9.514 -0.4246 -0.0399  0.0997
  163MOL0     C22379   3.227   6.646   9.510 -0.5414  0.7021 -0.0348
  163MOL0     O22380   3.164   6.711   9.402  0.4201 -0.2633 -0.2230
  163MOL0     C22381   3.230   6.810   9.332  0.6125  1.0838 -0.1354
  163MOL0     C22382   3.339   6.882   9.392  0.2697  0.2775  0.3043
  163MOL0     C22383   3.418   6.969   9.311 -0.2639  0.1943 -0.6287
  163MOL0     C22384   3.527   7.041   9.385  0.2179 -0.1689  0.3053
  163MOL0     C22385   3.387   6.988   9.176  0.2432 -0.8831  0.2962
  163MOL0     C22386   3.467   7.081   9.083  0.6383 -0.2191 -0.1654
  163MOL0     O22387   3.607   7.065   9.082 -0.3072  0.1514 -0.2905
  163MOL0     C22388   3.695   7.165   9.054  0.3504  0.1818 -0.3859
  163MOL0     C22389   3.672   7.295   9.109 -0.0959  0.5788 -0.3257
  163MOL0     C22390   3.774   7.397   9.089  0.1168  0.4631 -0.7513
  163MOL0     C22391   3.888   7.367   9.016  0.6554 -0.0072  0.3731
  163MOL0     O22392   3.973   7.459   8.961 -0.2918 -0.5007  0.0813
  163MOL0     C22393   3.953   7.606   8.975 -0.0055  0.2163 -0.3719
  163MOL0     C22394   4.091   7.666   8.935  0.2810 -0.6543  0.4909
  163MOL0     C22395   4.105   7.819   8.953 -0.5438  0.1786 -1.0224
  163MOL0     C22396   4.252   7.855   8.971 -1.2190  0.1586  0.1306
  163MOL0     C22397   4.291   7.998   8.983 -0.2597  0.1554 -0.3505
  163MOL0     C22398   4.253   8.056   9.120  0.3815 -0.0991  0.1422
  163MOL0     C22399   4.325   8.190   9.128 -0.1023 -0.0873 -0.2100
  163MOL0     C22400   4.301   8.251   9.264 -0.5735  1.0202 -0.2813
  163MOL0    Cl22401   4.133   8.299   9.269 -0.1325  0.1278 -0.0985
  163MOL0     C22402   3.904   7.235   8.966  0.4265 -0.4719 -0.0251
  163MOL0     C22403   3.810   7.134   8.987 -0.1508 -0.1100  0.0930
  163MOL0     O22404   3.404   7.153   9.002  0.4986 -1.0010  0.0746
  163MOL0     C22405   3.265   6.929   9.127  0.5606  0.1264 -0.5055
  163MOL0     C22406   3.193   6.838   9.205  0.3240  0.0997  0.4915
  163MOL0     N22407   2.817   6.290   9.732 -0.0504 -0.0578 -0.3319
  163MOL0     N22408   2.687   6.281   9.729 -0.1009 -0.0591  0.0551
  163MOL0     C22409   1.512   6.046   9.384 -0.6987  0.2736  0.2701
  163MOL0     C22410   1.381   6.046   9.388  0.6806  0.2974  0.2582
  163MOL0     C22411   0.964   6.178   9.381 -0.1895 -0.3574  0.5816
  163MOL0     C22412   0.894   6.288   9.326 -0.5679  0.4999 -0.3097
  163MOL0     C22413   0.757   6.294   9.321  0.5544  0.2441 -0.4464
  163MOL0     C22414   0.675   6.197   9.383  0.2131  0.0994 -0.6040
  163MOL0     O22415   0.537   6.216   9.395 -0.1465  0.7355  0.4036
  163MOL0     C22416   0.452   6.109   9.427  0.5323  0.4158 -0.1324
  163MOL0     C22417   0.298   6.141   9.404  0.6420 -0.7909 -0.0100
  163MOL0     C22418   0.265   6.252   9.499  0.6247  0.1025  0.6755
  163MOL0     C22419   0.112   6.286   9.526 -0.5109 -0.2419 -0.5889
  163MOL0     C22420   0.050   6.310   9.397 -0.1705  0.9552 -0.1874
  163MOL0     C22421   0.009   6.335   9.289 -0.0183 -0.8432  0.1168
  163MOL0     C22422   0.746   6.100   9.446 -0.7896  0.2031  0.0600
  163MOL0     C22423   0.889   6.084   9.450 -0.2201  0.0688 -0.6063
  163MOL0     C22424   0.951   5.970   9.530 -0.8059 -0.3784  0.2416
  163MOL0     H22425   1.357   6.258   9.667  3.3082  0.6429  0.9074
  163MOL0     H22426   1.598   6.208   9.672  1.1451 -0.3157  0.2391
  163MOL0     H22427   1.791   6.026   9.302  5.0009 -0.6026 -0.3576
  163MOL0     H22428   1.719   5.889   9.404  0.4161  0.4793  2.5202
  163MOL0     H22429   1.904   5.878   9.543  0.9783  2.0173  0.4514
  163MOL0     H22430   1.949   5.836   9.370  0.7363  1.2572 -0.9282
  163MOL0     H22431   2.075   6.049   9.349  0.2761 -1.5438 -0.4413
  163MOL0     H22432   1.993   6.117   9.489 -0.9979 -0.3197  1.9977
  163MOL0     H22433   2.093   5.940   9.620 -3.0580  0.4986 -0.7384
  163MOL0     H22434   2.195   5.882   9.502 -0.0654  1.0832 -3.6046
  163MOL0     H22435   2.290   6.054   9.655  1.1385 -2.6356 -1.8200
  163MOL0     H22436   2.187   6.182   9.572 -1.2707 -0.0981  0.8394
  163MOL0     H22437   2.364   5.997   9.402  1.4109 -0.8087  0.4409
  163MOL0     H22438   2.309   6.166   9.376 -0.5048  0.5077 -0.0752
  163MOL0     H22439   2.550   6.135   9.402 -0.6846  3.7482 -1.6766
  163MOL0     H22440   2.525   6.071   9.568  0.3292 -0.3928 -0.0595
  163MOL0     H22441   2.482   6.373   9.481 -1.4475 -0.7352 -1.6636
  163MOL0     H22442   2.440   6.299   9.635 -0.7876  2.4642 -1.2067
  163MOL0     H22443   2.764   6.325   9.416  1.8956  1.1487  1.0895
  163MOL0     H22444   3.006   6.300   9.451 -0.5493 -0.6043  0.5935
  163MOL0     H22445   3.075   6.292   9.616  2.8482  1.3720 -1.6801
  163MOL0     H22446   2.977   6.533   9.460 -0.7263  1.5636  0.3914
  163MOL0     H22447   3.024   6.534   9.636  2.1168 -0.3654 -0.6202
  163MOL0     H22448   3.243   6.463   9.604 -1.1484 -1.7617 -0.0070
  163MOL0     H22449   3.216   6.433   9.428  1.8048 -1.8908  1.9634
  163MOL0     H22450   3.203   6.687   9.609 -4.3467 -2.6963  0.7521
  163MOL0     H22451   3.335   6.642   9.490 -0.6286  1.2114 -0.6258
  163MOL0     H22452   3.353   6.868   9.498 -0.2572  0.7307  0.4392
  163MOL0     H22453   3.609   6.970   9.373 -1.5643 -2.7207  2.0052
  163MOL0     H22454   3.507   7.053   9.492  0.4771  1.8731  0.1527
  163MOL0     H22455   3.542   7.138   9.338 -0.2266  0.1372  0.7887
  163MOL0     H22456   3.585   7.327   9.166  1.8978  0.6323  2.9294
  163MOL0     H22457   3.760   7.493   9.138 -2.7086  0.9106 -2.2043
  163MOL0     H22458   3.878   7.639   8.902  0.7663  1.2865 -0.7174
  163MOL0     H22459   3.918   7.635   9.075 -0.6752 -1.8935  0.0453
  163MOL0     H22460   4.175   7.623   8.991  0.8741 -1.8820 -1.2756
  163MOL0     H22461   4.114   7.629   8.835  1.8125 -0.0981  0.6161
  163MOL0     H22462   4.057   7.852   9.046  1.4968 -1.2189  0.6167
  163MOL0     H22463   4.055   7.883   8.879 -0.0631  1.7351 -0.0569
  163MOL0     H22464   4.304   7.809   8.887  1.2162  1.5004  0.8134
  163MOL0     H22465   4.280   7.804   9.064 -3.7144 -0.7539  0.4518
  163MOL0     H22466   4.399   7.997   8.962 -0.4196 -0.2181 -1.2054
  163MOL0     H22467   4.261   8.065   8.901 -2.0289  1.1767  1.0628
  163MOL0     H22468   4.276   7.982   9.197 -0.6791 -1.2229 -0.5697
  163MOL0     H22469   4.144   8.062   9.120  0.3502 -0.4212  1.1401
  163MOL0     H22470   4.293   8.265   9.055 -1.4958  0.2717  0.7215
  163MOL0     H22471   4.432   8.175   9.114  0.3409 -0.9902  3.2780
  163MOL0     H22472   4.356   8.344   9.279  3.8727 -1.1456 -1.6012
  163MOL0     H22473   4.325   8.171   9.335 -3.1854  0.0288 -0.4000
  163MOL0     H22474   3.987   7.208   8.901  0.4166  0.9926 -0.6794
  163MOL0     H22475   3.832   7.029   8.968 -2.0683 -0.9097  1.9538
  163MOL0     H22476   3.220   6.938   9.029  0.8249  0.5016 -0.5911
  163MOL0     H22477   3.112   6.780   9.164  0.0589 -1.2321  2.7155
  163MOL0     H22478   1.559   5.980   9.312  3.7101  0.4857  2.5938
  163MOL0     H22479   1.316   6.003   9.312  1.2911  0.0630 -0.1419
  163MOL0     H22480   0.947   6.370   9.277 -1.9218  2.1153  0.8088
  163MOL0     H22481   0.714   6.388   9.286 -0.3032 -0.2976 -0.8892
  163MOL0     H22482   0.468   6.022   9.362  2.5040 -0.7454  1.7830
  163MOL0     H22483   0.463   6.076   9.530 -2.9033 -0.1251  0.1927
  163MOL0     H22484   0.240   6.051   9.427  0.4670  0.0055  3.1354
  163MOL0     H22485   0.290   6.164   9.298  3.5568  2.3149  0.2684
  163MOL0     H22486   0.304   6.223   9.597 -1.4926  0.1893  1.5883
  163MOL0     H22487   0.323   6.336   9.460  0.3813 -0.4660 -0.9995
  163MOL0     H22488   0.098   6.382   9.577 -2.8268 -0.1037 -1.3644
  163MOL0     H22489   0.069   6.202   9.582  1.7743 -0.5721  0.7785
  163MOL0     H22490  -0.029   6.367   9.194 -2.1091 -1.0671  0.8357
  163MOL0     H22491   0.695   6.023   9.501  0.4962 -0.6395  0.1218
  163MOL0     H22492   1.018   5.905   9.473  0.5857  1.7471 -0.6527
  163MOL0     H22493   1.006   6.005   9.617 -1.3729 -0.8540  0.8043
  163MOL0     H22494   0.869   5.913   9.575 -1.9255  0.7284 -0.3324
  164MOL0     O22495   4.356   0.557   6.848 -1.1333  0.4651  1.0744
  164MOL0     C22496   4.385   0.453   6.791 -0.1066 -0.2841 -0.5449
  164MOL0     O22497   4.509   0.419   6.747  0.0670 -0.9700 -0.0521
  164MOL0     C22498   4.609   0.508   6.762  0.2069  0.3413  0.9040
  164MOL0     C22499   4.609   0.627   6.691  0.1926 -1.4713  0.2170
  164MOL0     C22500   4.715   0.719   6.704 -0.2144  0.0252 -0.0389
  164MOL0     C22501   4.822   0.686   6.788 -0.2448 -0.7837 -0.3773
  164MOL0     O22502   4.934   0.762   6.821  0.4500  0.3923 -0.4423
  164MOL0     C22503   4.979   0.867   6.728 -0.1179 -0.9449  0.0600
  164MOL0     C22504   5.122   0.884   6.776 -0.2909 -0.4948 -0.1574
  164MOL0     C22505   5.168   1.030   6.742 -0.6183 -0.1827 -0.4951
  164MOL0     C22506   5.301   1.061   6.821 -0.6550 -0.5414  0.2501
  164MOL0     C22507   5.420   1.002   6.742 -0.5704 -0.1350 -0.3484
  164MOL0     C22508   5.462   1.089   6.627 -0.2263 -0.0868  0.5866
  164MOL0     C22509   5.545   1.214   6.662  0.7092  0.0042 -0.6287
  164MOL0     C22510   5.602   1.278   6.540  0.0225 -0.9267 -0.2982
  164MOL0     N22511   5.735   1.322   6.566  0.4724 -0.4224 -0.3760
  164MOL0     C22512   5.829   1.325   6.468 -0.9734 -0.2443 -0.1984
  164MOL0     C22513   5.939   1.383   6.528 -0.2786 -0.0850 -0.3039
  164MOL0     C22514   6.058   1.416   6.450  0.0211 -0.3202 -0.0134
  164MOL0     C22515   6.182   1.326   6.465  0.1087  0.1905 -1.1151
  164MOL0     C22516   6.155   1.176   6.416  0.3685  0.0410  0.0551
  164MOL0     C22517   6.282   1.094   6.395  0.8756 -0.0615  0.1543
  164MOL0     O22518   6.358   1.150   6.288 -0.1138  0.3448  0.3319
  164MOL0     C22519   6.469   1.085   6.249 -0.3566  0.5659 -0.2017
  164MOL0     C22520   6.490   1.065   6.116  0.3430  0.0783 -1.0017
  164MOL0     C22521   6.608   1.004   6.071 -0.1129 -0.3449  0.1976
  164MOL0     C22522   6.626   0.999   5.921 -0.3926 -0.1076  1.1636
  164MOL0     C22523   6.711   0.961   6.160 -0.2818 -0.7626  0.3559
  164MOL0     C22524   6.836   0.900   6.128 -0.6260  0.0722 -0.6406
  164MOL0     O22525   6.867   0.877   5.991 -0.4179 -0.4409 -0.2298
  164MOL0     C22526   6.999   0.841   5.957 -0.3999 -0.7348 -0.2957
  164MOL0     C22527   7.117   0.905   6.007  0.3469 -0.4192 -0.6078
  164MOL0     C22528   7.244   0.855   5.965 -0.0102  0.3391  0.3053
  164MOL0     C22529   7.252   0.765   5.867 -0.5974  0.1091  0.2580
  164MOL0     O22530   7.369   0.747   5.800  0.4382  0.3380 -0.5623
  164MOL0     C22531   7.421   0.613   5.792  0.7751  0.5295  0.2834
  164MOL0     C22532   7.526   0.613   5.682 -0.9053  0.2472  0.5060
  164MOL0     C22533   7.656   0.685   5.718  0.0812  0.2093  0.8659
  164MOL0     C22534   7.754   0.590   5.792  1.1157  0.3000 -0.3014
  164MOL0     C22535   7.881   0.665   5.822  0.6338 -0.1538 -0.6349
  164MOL0     C22536   7.975   0.572   5.905  0.0077  0.2227 -0.1839
  164MOL0     C22537   8.111   0.634   5.949 -0.0402  0.1054  0.1782
  164MOL0     C22538   8.238   0.580   5.874  0.9592 -0.6948 -1.0170
  164MOL0    Cl22539   8.390   0.646   5.937 -0.0675  0.1373 -0.5726
  164MOL0     C22540   7.135   0.711   5.815 -0.4610 -0.7350 -0.6030
  164MOL0     C22541   7.014   0.748   5.869 -0.2695  0.6002 -0.3397
  164MOL0     O22542   6.914   0.876   6.222  0.3888  0.4894  0.3667
  164MOL0     C22543   6.679   0.986   6.293  0.4719  0.3302 -0.1391
  164MOL0     C22544   6.561   1.044   6.342 -0.1305 -0.7498 -0.0671
  164MOL0     N22545   5.914   1.411   6.665 -0.0252  0.8033  0.8925
  164MOL0     N22546   5.789   1.381   6.676  0.5969  0.2741 -0.0517
  164MOL0     C22547   4.824   0.566   6.857 -0.4568  0.0806 -0.2148
  164MOL0     C22548   4.716   0.475   6.848  0.2624 -0.1230  0.1612
  164MOL0     C22549   4.278   0.344   6.799 -0.4660 -0.1281 -0.3715
  164MOL0     C22550   4.328   0.221   6.834  0.4448 -0.7176  0.1317
  164MOL0     C22551   4.239   0.111   6.845  0.1841 -0.4986 -0.7316
  164MOL0     C22552   4.103   0.127   6.831  0.2458  0.1761 -0.3109
  164MOL0     O22553   4.023   0.018   6.835  0.6449 -0.2224 -0.1239
  164MOL0     C22554   3.887   0.035   6.848  0.7043  0.4582 -0.1042
  164MOL0     C22555   3.816  -0.105   6.837  0.4106  0.3012  0.4024
  164MOL0     C22556   3.886  -0.201   6.937 -0.4440  0.1208 -1.2021
  164MOL0     C22557   3.858  -0.163   7.090  0.0061  0.4056  0.5797
  164MOL0     C22558   3.710  -0.149   7.111  1.2315 -0.0049 -0.4023
  164MOL0     C22559   3.586  -0.142   7.120 -0.3376 -0.1372 -0.0898
  164MOL0     C22560   4.055   0.255   6.805  0.3506 -0.1135 -0.0483
  164MOL0     C22561   4.139   0.364   6.783  0.1351  0.5519 -0.0551
  164MOL0     C22562   4.080   0.500   6.752  0.4856  0.0300 -0.9227
  164MOL0     H22563   4.527   0.640   6.622  1.8255  1.0195 -1.4331
  164MOL0     H22564   4.722   0.811   6.647 -1.3213 -0.3621 -0.8503
  164MOL0     H22565   4.912   0.949   6.755 -1.8862 -2.9572  2.2504
  164MOL0     H22566   4.970   0.831   6.625  0.8923 -2.4925  0.4741
  164MOL0     H22567   5.135   0.872   6.884 -1.8317 -2.2426 -0.1239
  164MOL0     H22568   5.181   0.801   6.737  0.3579  0.0753 -0.4216
  164MOL0     H22569   5.189   1.051   6.637  0.6568  0.0064 -0.2186
  164MOL0     H22570   5.085   1.095   6.771  0.4307  0.9358  0.1127
  164MOL0     H22571   5.310   1.169   6.838  0.2924 -0.3932 -1.0190
  164MOL0     H22572   5.305   1.019   6.922  1.4023 -0.8794  0.0675
  164MOL0     H22573   5.392   0.899   6.717 -0.7886 -1.1894  3.6216
  164MOL0     H22574   5.503   0.989   6.812 -0.2720 -0.7203 -0.8113
  164MOL0     H22575   5.504   1.030   6.545  0.7855  0.0900  0.9710
  164MOL0     H22576   5.371   1.117   6.574 -0.0185 -2.1879 -1.0258
  164MOL0     H22577   5.619   1.168   6.729  0.9215 -0.1202 -0.9425
  164MOL0     H22578   5.490   1.287   6.721  0.7047 -1.5149  1.3467
  164MOL0     H22579   5.601   1.196   6.466 -1.3353 -1.6179  0.4329
  164MOL0     H22580   5.547   1.360   6.494  1.0244  0.7665  1.4118
  164MOL0     H22581   5.831   1.294   6.365  0.5578  1.4636 -0.7435
  164MOL0     H22582   6.092   1.515   6.480  0.4762 -0.5049  0.1011
  164MOL0     H22583   6.027   1.421   6.345 -1.1470 -1.2289  0.2677
  164MOL0     H22584   6.265   1.370   6.409  0.0044  0.8911 -0.7299
  164MOL0     H22585   6.213   1.320   6.570 -1.0714  1.9871 -0.6173
  164MOL0     H22586   6.099   1.131   6.498 -0.6115 -1.0808 -1.1962
  164MOL0     H22587   6.085   1.170   6.332  0.9826  1.6027 -0.6069
  164MOL0     H22588   6.341   1.096   6.487  1.4770  1.2368 -0.2338
  164MOL0     H22589   6.246   0.995   6.367 -0.9146  0.4689  0.4476
  164MOL0     H22590   6.421   1.103   6.041  0.6859  0.7701 -0.9776
  164MOL0     H22591   6.717   1.052   5.892 -0.3332 -1.0256 -0.4460
  164MOL0     H22592   6.546   1.051   5.867 -0.5539 -1.6476 -0.1558
  164MOL0     H22593   6.639   0.894   5.893  2.2807 -1.2043  5.5516
  164MOL0     H22594   7.108   0.982   6.084 -1.1296 -0.3743 -0.7849
  164MOL0     H22595   7.333   0.909   5.997  0.2261 -1.0973  2.2730
  164MOL0     H22596   7.471   0.589   5.886  1.0741  1.6615  0.4341
  164MOL0     H22597   7.343   0.542   5.763 -0.2842  1.6375  0.3397
  164MOL0     H22598   7.552   0.509   5.658 -1.6666  0.4043 -1.1384
  164MOL0     H22599   7.490   0.663   5.591  4.5352  0.9520 -1.6498
  164MOL0     H22600   7.626   0.767   5.785 -0.7114  0.1091  0.6389
  164MOL0     H22601   7.685   0.729   5.622 -2.4229 -0.3940 -0.2257
  164MOL0     H22602   7.770   0.501   5.731 -1.9162 -0.7597  0.2450
  164MOL0     H22603   7.704   0.558   5.884 -0.8385  0.1778 -1.3514
  164MOL0     H22604   7.935   0.695   5.732 -1.2351  0.0476 -1.7476
  164MOL0     H22605   7.860   0.758   5.876 -0.7988 -1.6031  1.4851
  164MOL0     H22606   8.006   0.491   5.840  3.1231  0.3410  0.9725
  164MOL0     H22607   7.920   0.530   5.989  2.7384 -0.8814  1.1826
  164MOL0     H22608   8.119   0.615   6.056 -2.6030  0.9557  0.5886
  164MOL0     H22609   8.102   0.742   5.935  0.6248  0.3775  1.6247
  164MOL0     H22610   8.223   0.616   5.772  1.5435  0.2227 -0.7907
  164MOL0     H22611   8.236   0.470   5.873  2.5182 -0.7703 -0.3042
  164MOL0     H22612   7.145   0.659   5.720 -2.0684  0.1806 -1.3250
  164MOL0     H22613   6.926   0.696   5.834  1.4338 -2.5408 -0.3015
  164MOL0     H22614   6.741   0.963   6.378 -0.1645  2.4439  0.9621
  164MOL0     H22615   6.543   1.056   6.448 -0.4603 -2.8891  0.1641
  164MOL0     H22616   4.903   0.536   6.925 -1.7795 -0.8050  0.9813
  164MOL0     H22617   4.715   0.383   6.905 -0.4727 -0.5826 -0.5745
  164MOL0     H22618   4.431   0.214   6.866  0.3754 -1.6589  0.1751
  164MOL0     H22619   4.276   0.012   6.870 -2.3526 -1.5031 -0.6929
  164MOL0     H22620   3.867   0.076   6.948  0.0061  2.0126 -0.8453
  164MOL0     H22621   3.842   0.097   6.770  2.0583  2.2360  0.4652
  164MOL0     H22622   3.831  -0.143   6.735 -0.4708 -0.5774  0.5826
  164MOL0     H22623   3.709  -0.085   6.849 -0.0823  0.5081 -3.2016
  164MOL0     H22624   3.848  -0.302   6.919  1.3417 -0.4353 -2.0753
  164MOL0     H22625   3.995  -0.202   6.930 -0.3195 -2.3513 -0.0702
  164MOL0     H22626   3.905  -0.066   7.111  0.4806  0.6843 -1.5268
  164MOL0     H22627   3.894  -0.239   7.160 -3.5094 -1.8519  0.1836
  164MOL0     H22628   3.479  -0.135   7.127 -0.2297  2.2147 -0.2945
  164MOL0     H22629   3.949   0.278   6.793  0.8884  1.8568 -1.5077
  164MOL0     H22630   4.009   0.489   6.669 -0.4851 -0.9997  0.0013
  164MOL0     H22631   4.029   0.532   6.843  0.5996 -0.1997 -0.7767
  164MOL0     H22632   4.152   0.579   6.731  1.4605 -1.1443 -2.2057
  165MOL0     O22633   2.365   2.059   3.034 -0.4142 -0.5181 -0.5384
  165MOL0     C22634   2.343   2.181   3.014  0.1719  0.0508  0.1082
  165MOL0     O22635   2.437   2.285   3.010  0.0969  0.0801  1.0217
  165MOL0     C22636   2.567   2.280   3.054  0.8203  0.8940  0.2847
  165MOL0     C22637   2.612   2.186   3.149 -0.1286 -0.0592 -0.6288
  165MOL0     C22638   2.748   2.186   3.186 -0.1410 -0.0488  0.3714
  165MOL0     C22639   2.846   2.276   3.130  0.3548  0.2782 -0.0708
  165MOL0     O22640   2.977   2.265   3.178  0.3054  0.9072  0.4086
  165MOL0     C22641   3.071   2.285   3.072 -0.3753 -0.8638 -0.4453
  165MOL0     C22642   3.217   2.241   3.108 -0.2652  0.0655  0.3911
  165MOL0     C22643   3.286   2.346   3.192  0.3349  0.2320  0.3002
  165MOL0     C22644   3.431   2.331   3.192 -1.0332  0.4856 -0.0600
  165MOL0     C22645   3.474   2.435   3.308 -0.1198  0.4634 -0.1155
  165MOL0     C22646   3.626   2.437   3.315 -0.5006  0.7309  0.2649
  165MOL0     C22647   3.681   2.458   3.453  0.0309  0.1683 -0.2074
  165MOL0     C22648   3.832   2.421   3.458  0.2004 -0.2174 -0.6319
  165MOL0     N22649   3.917   2.529   3.413  0.0709  0.3550  0.6419
  165MOL0     C22650   4.036   2.553   3.473 -0.4755 -0.5269  0.4982
  165MOL0     C22651   4.103   2.636   3.392  0.6651  0.4877  0.3138
  165MOL0     C22652   4.233   2.706   3.414  0.2113  0.5334  0.5987
  165MOL0     C22653   4.220   2.840   3.472  0.0112  0.0137  0.5752
  165MOL0     C22654   4.159   2.938   3.377  0.2305  0.1689  0.0792
  165MOL0     C22655   4.148   3.076   3.432 -0.1768 -0.2313 -0.4083
  165MOL0     O22656   4.270   3.150   3.451 -0.1351 -0.5598 -0.7189
  165MOL0     C22657   4.357   3.154   3.343 -0.5835  0.6184 -0.3207
  165MOL0     C22658   4.477   3.083   3.352  0.1383  0.1225  0.2577
  165MOL0     C22659   4.572   3.086   3.247  0.4480 -0.0077 -0.8232
  165MOL0     C22660   4.700   3.013   3.272  0.7256 -0.4784 -0.0155
  165MOL0     C22661   4.546   3.169   3.140  0.5438 -0.2108  1.1596
  165MOL0     C22662   4.632   3.209   3.031  0.5467 -0.3165  0.0852
  165MOL0     O22663   4.629   3.339   2.987  0.5882  0.0563 -0.2074
  165MOL0     C22664   4.682   3.371   2.862 -0.3641 -0.3463 -0.3093
  165MOL0     C22665   4.603   3.381   2.743 -0.4732 -0.5079 -0.2338
  165MOL0     C22666   4.669   3.419   2.623  1.6023 -0.2689 -0.2405
  165MOL0     C22667   4.804   3.445   2.618  0.6628  0.5539  0.2694
  165MOL0     O22668   4.859   3.477   2.497 -0.4905 -0.2331  0.6354
  165MOL0     C22669   4.934   3.603   2.479  0.8254  0.2517 -0.4804
  165MOL0     C22670   4.826   3.696   2.413 -0.7952  0.5951 -0.3239
  165MOL0     C22671   4.752   3.630   2.291 -0.7426 -0.2741  0.1925
  165MOL0     C22672   4.728   3.740   2.180  0.5717 -0.0264  0.6017
  165MOL0     C22673   4.671   3.692   2.050  1.1226  0.4442  0.2554
  165MOL0     C22674   4.522   3.636   2.075  0.5116  0.9841  0.5079
  165MOL0     C22675   4.459   3.582   1.943 -0.7722 -0.4044 -0.6551
  165MOL0     C22676   4.303   3.551   1.952 -0.0886 -0.3976 -0.5648
  165MOL0    Cl22677   4.253   3.433   1.834 -0.3914 -0.0483  0.3743
  165MOL0     C22678   4.876   3.427   2.733  0.0658  0.0883 -0.3528
  165MOL0     C22679   4.818   3.394   2.855 -0.4738 -0.1216  0.5519
  165MOL0     O22680   4.711   3.129   2.992  0.1939 -0.0707 -0.4018
  165MOL0     C22681   4.419   3.231   3.128  0.6055 -0.4903 -0.2489
  165MOL0     C22682   4.325   3.226   3.228 -0.2271  0.1847 -0.5815
  165MOL0     N22683   4.022   2.656   3.283 -0.0748 -0.6543  0.3988
  165MOL0     N22684   3.910   2.593   3.291  0.2896 -0.4857  0.2127
  165MOL0     C22685   2.795   2.350   3.022 -0.3334  0.0874 -0.1323
  165MOL0     C22686   2.659   2.357   2.986  0.2660  0.3683  0.3978
  165MOL0     C22687   2.213   2.222   2.966  0.3687 -0.3467  0.1988
  165MOL0     C22688   2.207   2.338   2.883 -0.4415 -0.4092 -0.1424
  165MOL0     C22689   2.089   2.378   2.820 -0.6040 -0.6258 -0.8747
  165MOL0     C22690   1.969   2.326   2.850 -0.0571 -0.4916 -0.3145
  165MOL0     O22691   1.855   2.381   2.801 -0.5110 -0.2967  0.4057
  165MOL0     C22692   1.794   2.306   2.698  0.0318 -0.3928 -0.2397
  165MOL0     C22693   1.646   2.346   2.668 -0.3798  0.5404 -0.1321
  165MOL0     C22694   1.579   2.255   2.554  0.1726  0.4023  0.8150
  165MOL0     C22695   1.482   2.318   2.458 -0.7402 -0.3873  0.0598
  165MOL0     C22696   1.558   2.417   2.379  0.0783  0.3400 -0.3370
  165MOL0     C22697   1.609   2.491   2.307  0.1413 -0.3267  0.1852
  165MOL0     C22698   1.968   2.213   2.929 -0.1918  0.1492 -0.2270
  165MOL0     C22699   2.088   2.152   2.981 -1.9462  0.8528  0.3591
  165MOL0     C22700   2.082   2.026   3.053 -0.5733 -0.4791  0.5882
  165MOL0     H22701   2.540   2.114   3.185 -0.7839  1.0650  0.3779
  165MOL0     H22702   2.771   2.118   3.268 -1.4241 -0.7775  0.1531
  165MOL0     H22703   3.069   2.390   3.043 -0.1065 -1.3179 -2.2574
  165MOL0     H22704   3.035   2.221   2.990 -3.1474 -1.5084  1.1450
  165MOL0     H22705   3.227   2.141   3.152  1.0111 -0.0065 -0.0172
  165MOL0     H22706   3.270   2.229   3.013  0.2584 -1.9625  0.8985
  165MOL0     H22707   3.263   2.446   3.154 -1.7262 -1.3112 -2.9564
  165MOL0     H22708   3.237   2.347   3.291 -0.8835  1.7916 -0.2597
  165MOL0     H22709   3.453   2.228   3.224  1.5332 -0.2883 -3.6868
  165MOL0     H22710   3.469   2.346   3.091 -3.2693 -2.7658 -1.5559
  165MOL0     H22711   3.437   2.400   3.406 -0.9984 -1.3185 -1.0355
  165MOL0     H22712   3.442   2.536   3.282  0.8487  0.2133 -2.5075
  165MOL0     H22713   3.653   2.333   3.292  2.4453  1.2467  0.9738
  165MOL0     H22714   3.685   2.503   3.250 -0.6424  0.2938 -0.3228
  165MOL0     H22715   3.621   2.412   3.531  1.4811 -0.3305  0.6597
  165MOL0     H22716   3.670   2.565   3.471 -4.3235  0.1003 -1.5226
  165MOL0     H22717   3.876   2.397   3.555 -0.9777  0.4840  0.1105
  165MOL0     H22718   3.851   2.333   3.396  0.0435  0.6514 -1.9787
  165MOL0     H22719   4.078   2.496   3.555 -0.3177 -0.9541  0.1254
  165MOL0     H22720   4.290   2.714   3.320  1.0205  1.7528  1.1632
  165MOL0     H22721   4.289   2.640   3.481 -1.5059 -1.3902  0.2378
  165MOL0     H22722   4.164   2.826   3.565 -0.2188  1.9870  0.7831
  165MOL0     H22723   4.322   2.866   3.501  0.8787  1.4168 -3.1990
  165MOL0     H22724   4.209   2.928   3.281  3.2643 -2.9033  1.7564
  165MOL0     H22725   4.057   2.903   3.356 -1.0668  3.8491 -0.5867
  165MOL0     H22726   4.090   3.142   3.367 -1.8222 -2.1469 -0.9911
  165MOL0     H22727   4.091   3.078   3.526 -1.2877 -1.7671 -1.0255
  165MOL0     H22728   4.488   3.029   3.446 -1.4440 -0.5335  0.1107
  165MOL0     H22729   4.704   2.967   3.371 -0.9449 -1.4470 -0.3623
  165MOL0     H22730   4.769   3.098   3.275  1.5403 -1.1238  2.7851
  165MOL0     H22731   4.714   2.943   3.189 -0.2215 -0.6653 -0.0280
  165MOL0     H22732   4.496   3.374   2.757 -0.7333  1.5649 -0.7640
  165MOL0     H22733   4.604   3.420   2.536 -0.8091 -0.4662  1.4486
  165MOL0     H22734   4.961   3.649   2.575 -0.8321  0.7312 -0.2067
  165MOL0     H22735   5.021   3.581   2.416  0.7896 -2.3811  0.2787
  165MOL0     H22736   4.759   3.726   2.493 -0.5535  1.2879 -0.3728
  165MOL0     H22737   4.877   3.782   2.368  2.4153 -1.1337 -0.3462
  165MOL0     H22738   4.664   3.571   2.321  0.9146 -1.8118  2.3099
  165MOL0     H22739   4.812   3.552   2.244 -0.3121 -0.0306  0.3376
  165MOL0     H22740   4.820   3.795   2.161 -0.5626  1.7988  0.1517
  165MOL0     H22741   4.661   3.817   2.220 -1.6454 -0.9317 -1.1646
  165MOL0     H22742   4.654   3.776   1.982 -3.0580  0.8528  1.5317
  165MOL0     H22743   4.726   3.612   2.000 -2.8429 -0.3921 -3.3664
  165MOL0     H22744   4.458   3.718   2.105  0.6062  1.0645  0.4905
  165MOL0     H22745   4.527   3.551   2.144 -0.0027  0.1290 -0.4824
  165MOL0     H22746   4.513   3.492   1.912 -3.9900 -2.6462 -0.2360
  165MOL0     H22747   4.474   3.661   1.869  1.5602  0.9698  1.1355
  165MOL0     H22748   4.247   3.645   1.947  0.8363  0.2916  1.0985
  165MOL0     H22749   4.279   3.515   2.052  0.9924  1.0570  0.2643
  165MOL0     H22750   4.984   3.441   2.731  0.4703 -2.0055  2.0573
  165MOL0     H22751   4.884   3.383   2.941  1.6725 -0.8787 -1.1037
  165MOL0     H22752   4.391   3.306   3.054  1.1608 -0.8918 -0.8768
  165MOL0     H22753   4.232   3.281   3.222  1.6317  3.7407  0.3640
  165MOL0     H22754   2.874   2.408   2.974 -0.6588  0.7707  0.1407
  165MOL0     H22755   2.619   2.416   2.905 -1.8714  0.5437  1.5203
  165MOL0     H22756   2.295   2.392   2.849 -1.4480  0.5050 -1.4028
  165MOL0     H22757   2.090   2.471   2.764 -3.1733  3.1094  4.3826
  165MOL0     H22758   1.859   2.312   2.610 -3.8837  1.3260 -3.2958
  165MOL0     H22759   1.785   2.199   2.719  0.6462  0.0418  2.7450
  165MOL0     H22760   1.649   2.454   2.649  1.9038  0.5960  0.3231
  165MOL0     H22761   1.594   2.324   2.762  2.7571 -0.5472  1.4875
  165MOL0     H22762   1.664   2.207   2.504 -1.4032 -3.5260  1.5488
  165MOL0     H22763   1.519   2.181   2.608  1.6755 -0.0206  1.9932
  165MOL0     H22764   1.397   2.367   2.506  0.3960  1.9227 -0.1455
  165MOL0     H22765   1.443   2.237   2.396 -1.7092 -1.6957  2.2586
  165MOL0     H22766   1.658   2.551   2.233 -1.0188  1.0145  0.4572
  165MOL0     H22767   1.875   2.165   2.955 -0.9408  1.6951  0.0964
  165MOL0     H22768   2.143   2.021   3.144 -0.2413  2.0799  0.5591
  165MOL0     H22769   1.979   2.000   3.082  0.1250  0.0510  3.9156
  165MOL0     H22770   2.119   1.948   2.986  2.6666  0.3891  1.1955
  166MOL0     O22771   6.291   9.106   1.434  1.0322 -0.5044  0.1239
  166MOL0     C22772   6.396   9.100   1.367 -0.3032  0.5573 -0.0684
  166MOL0     O22773   6.511   9.166   1.403  0.7922  0.6007 -0.5275
  166MOL0     C22774   6.500   9.277   1.489  0.8812  0.7839  0.9393
  166MOL0     C22775   6.471   9.256   1.627 -0.0712 -0.8400 -0.2172
  166MOL0     C22776   6.464   9.367   1.712 -1.3442 -0.2245  0.1960
  166MOL0     C22777   6.478   9.503   1.669  0.6961 -0.1091 -0.0035
  166MOL0     O22778   6.471   9.609   1.758  0.5270  0.1129  0.0552
  166MOL0     C22779   6.577   9.701   1.751  0.2870 -0.2723  0.5424
  166MOL0     C22780   6.600   9.780   1.889  0.1480 -0.1796  0.5285
  166MOL0     C22781   6.731   9.860   1.870  0.5456 -0.5335 -0.6204
  166MOL0     C22782   6.758   9.954   1.985  1.1163  0.1358  0.2024
  166MOL0     C22783   6.893   9.925   2.061  0.2188 -0.0908  0.0245
  166MOL0     C22784   7.020   9.961   1.976 -0.6612  0.6531  0.2485
  166MOL0     C22785   7.036  10.104   1.927 -0.7811  0.2681  0.0703
  166MOL0     C22786   7.052  10.202   2.039  0.8386  0.0565 -1.0152
  166MOL0     N22787   7.174  10.193   2.103 -0.5417 -0.1933  0.2008
  166MOL0     C22788   7.189  10.126   2.222 -0.5489  0.0222  0.2472
  166MOL0     C22789   7.322  10.113   2.233 -0.6648  0.3098  0.5768
  166MOL0     C22790   7.378  10.055   2.359 -0.1400  0.5125  0.3561
  166MOL0     C22791   7.513   9.988   2.358  0.0186 -0.1637 -0.9220
  166MOL0     C22792   7.644  10.078   2.341  0.4508 -0.6904  0.3063
  166MOL0     C22793   7.675  10.162   2.464 -0.1841  0.4010  0.7170
  166MOL0     O22794   7.755  10.279   2.449 -0.3629  0.2621  0.1896
  166MOL0     C22795   7.894  10.257   2.421 -1.4035 -0.4044  0.0870
  166MOL0     C22796   7.967  10.137   2.395 -0.0480  0.0602 -0.6112
  166MOL0     C22797   8.110  10.129   2.393  1.3135 -0.5288 -0.4774
  166MOL0     C22798   8.158   9.990   2.388  0.5652 -1.8687 -0.5130
  166MOL0     C22799   8.189  10.244   2.408  0.7571 -0.0649 -0.8040
  166MOL0     C22800   8.344  10.255   2.411 -0.4893  0.4514  0.6347
  166MOL0     O22801   8.401  10.382   2.399 -0.7761  0.5607  0.3463
  166MOL0     C22802   8.534  10.396   2.434  0.2605  0.3247 -0.1225
  166MOL0     C22803   8.631  10.384   2.341  0.1418 -0.4294 -0.9222
  166MOL0     C22804   8.760  10.416   2.373 -0.4232  0.2235 -0.3135
  166MOL0     C22805   8.800  10.459   2.499  0.5359 -0.1133  1.0336
  166MOL0     O22806   8.934  10.487   2.525 -0.1568  0.3824 -0.1249
  166MOL0     C22807   9.042  10.427   2.444 -0.6267 -0.2507 -0.0612
  166MOL0     C22808   9.166  10.430   2.529  0.0043 -0.0161  0.1583
  166MOL0     C22809   9.284  10.365   2.459 -0.2403 -0.6131 -1.1132
  166MOL0     C22810   9.278  10.210   2.442  0.0990 -0.3360 -0.1011
  166MOL0     C22811   9.419  10.147   2.439 -0.1993 -1.2960  0.0673
  166MOL0     C22812   9.501  10.158   2.304 -0.1914  0.2317 -0.3715
  166MOL0     C22813   9.641  10.109   2.316 -0.6621  0.4170  0.7790
  166MOL0     C22814   9.698  10.084   2.175 -1.0668  0.6443  0.3114
  166MOL0    Cl22815   9.605   9.941   2.094  0.0627 -0.0948 -0.2521
  166MOL0     C22816   8.699  10.464   2.594  0.9230  0.2884 -0.3320
  166MOL0     C22817   8.571  10.442   2.566  1.1547 -0.0036 -0.2108
  166MOL0     O22818   8.414  10.151   2.437  0.6104  0.1733  0.1023
  166MOL0     C22819   8.106  10.365   2.433  0.1009  0.0931  0.0806
  166MOL0     C22820   7.967  10.371   2.431  0.0924  0.7324  0.7900
  166MOL0     N22821   7.382  10.173   2.129  0.5851  0.7618  0.2172
  166MOL0     N22822   7.292  10.212   2.038  0.2887  0.2485 -0.1487
  166MOL0     C22823   6.497   9.519   1.531  0.7259  0.0464 -1.0423
  166MOL0     C22824   6.509   9.409   1.446  0.5162  0.0496  0.2602
  166MOL0     C22825   6.403   9.021   1.241 -0.7451  0.0407  0.4371
  166MOL0     C22826   6.513   9.036   1.161  0.0969 -0.3956 -0.1537
  166MOL0     C22827   6.523   8.988   1.033  0.1394  0.4347 -0.0907
  166MOL0     C22828   6.417   8.911   0.988  0.7005 -0.2755  0.3801
  166MOL0     O22829   6.418   8.866   0.857  0.2920  1.1311  0.6232
  166MOL0     C22830   6.529   8.871   0.768  0.4428  0.4889 -0.3792
  166MOL0     C22831   6.495   8.815   0.627  0.0483  0.1989 -0.0452
  166MOL0     C22832   6.565   8.875   0.508  0.1596  0.1338  0.6006
  166MOL0     C22833   6.713   8.916   0.516 -0.4438  0.5803  0.5692
  166MOL0     C22834   6.772   8.936   0.381  0.8321 -0.0673 -0.1425
  166MOL0     C22835   6.825   8.923   0.275 -0.1867  0.2838  0.0006
  166MOL0     C22836   6.297   8.902   1.058 -0.5140  0.6231 -0.2534
  166MOL0     C22837   6.295   8.948   1.194  0.0269 -2.3901  0.1145
  166MOL0     C22838   6.164   8.920   1.264 -0.3510  0.1729  0.1949
  166MOL0     H22839   6.475   9.152   1.657 -2.0483 -1.6100 -2.3229
  166MOL0     H22840   6.461   9.347   1.819  0.8794  2.7153  0.9682
  166MOL0     H22841   6.558   9.777   1.675 -0.0104 -0.2989  0.5910
  166MOL0     H22842   6.672   9.655   1.720  2.0383  2.5588  1.2806
  166MOL0     H22843   6.519   9.852   1.901 -1.5518 -1.9330  0.0898
  166MOL0     H22844   6.611   9.721   1.981 -0.6013  0.2728  0.9196
  166MOL0     H22845   6.813   9.788   1.862  2.4915  1.4668  0.2440
  166MOL0     H22846   6.735   9.927   1.783 -0.1247  1.6129  0.9053
  166MOL0     H22847   6.758  10.057   1.947  1.0068  0.4180  0.9454
  166MOL0     H22848   6.672   9.950   2.052  0.3767  0.5666 -0.6814
  166MOL0     H22849   6.894   9.819   2.089 -5.0667 -0.4773 -0.2863
  166MOL0     H22850   6.900   9.975   2.158  1.6824 -1.1016  0.4835
  166MOL0     H22851   7.106   9.944   2.043 -1.7789 -2.7901  1.0004
  166MOL0     H22852   7.033   9.885   1.899  1.5363  1.3029 -0.1075
  166MOL0     H22853   6.954  10.128   1.858  0.4351 -0.6277 -1.7828
  166MOL0     H22854   7.118  10.115   1.855 -1.9862 -1.0542 -1.5961
  166MOL0     H22855   7.054  10.304   2.000  4.5786 -0.3741 -2.4460
  166MOL0     H22856   6.973  10.184   2.112  0.0812  0.6530 -1.6788
  166MOL0     H22857   7.118  10.083   2.292  0.7901 -0.0318  1.6314
  166MOL0     H22858   7.307   9.974   2.373 -1.6178  1.2141 -2.2995
  166MOL0     H22859   7.361  10.130   2.437  3.0587  1.3869  0.3739
  166MOL0     H22860   7.518   9.936   2.454  0.7829  1.5960  0.0194
  166MOL0     H22861   7.517   9.911   2.280  1.1655 -0.4104 -0.6293
  166MOL0     H22862   7.730  10.012   2.331  1.1588  0.0038  1.5209
  166MOL0     H22863   7.640  10.136   2.247  0.5341  1.5794  1.6210
  166MOL0     H22864   7.582  10.196   2.511  0.4221  1.7856  0.9763
  166MOL0     H22865   7.723  10.080   2.518 -0.8968  0.3300  1.2501
  166MOL0     H22866   7.913  10.043   2.384  3.3287 -2.0860 -0.4588
  166MOL0     H22867   8.192   9.957   2.486  2.5528  1.9002  0.2729
  166MOL0     H22868   8.242   9.974   2.320  3.9940  3.9412  1.6259
  166MOL0     H22869   8.075   9.929   2.351 -0.3516  0.2064 -2.0968
  166MOL0     H22870   8.614  10.361   2.236 -0.8323  3.2804 -1.7050
  166MOL0     H22871   8.834  10.408   2.294  1.4566 -1.0495  1.4866
  166MOL0     H22872   9.027  10.320   2.428  0.6936 -1.2488  4.0398
  166MOL0     H22873   9.071  10.489   2.359  1.2404 -0.6368  0.2515
  166MOL0     H22874   9.204  10.532   2.536 -1.3524  0.8803 -3.3086
  166MOL0     H22875   9.137  10.392   2.627  2.1671  0.6594  1.1214
  166MOL0     H22876   9.370  10.390   2.521 -2.5363  0.5218  1.8504
  166MOL0     H22877   9.292  10.407   2.358  0.0105 -1.0470 -1.2746
  166MOL0     H22878   9.216  10.178   2.358  1.3833 -1.9425 -0.4775
  166MOL0     H22879   9.239  10.175   2.538  0.3484  0.1308  0.1750
  166MOL0     H22880   9.472  10.189   2.525  0.8345 -2.2180 -0.1034
  166MOL0     H22881   9.400  10.044   2.469 -2.8829 -1.0565 -0.5579
  166MOL0     H22882   9.495  10.259   2.263 -1.1354  0.0887 -0.6177
  166MOL0     H22883   9.454  10.100   2.223  1.5051 -1.7673 -0.0055
  166MOL0     H22884   9.648  10.022   2.382  0.3208 -1.9765 -2.2184
  166MOL0     H22885   9.700  10.191   2.359  1.5098 -0.1522 -0.9044
  166MOL0     H22886   9.806  10.070   2.179 -1.0754 -0.2602 -1.6624
  166MOL0     H22887   9.691  10.173   2.112  4.3001  0.8538 -0.4326
  166MOL0     H22888   8.747  10.469   2.692  1.4581 -2.9415 -0.3020
  166MOL0     H22889   8.491  10.455   2.638  1.0452 -1.9742  0.0794
  166MOL0     H22890   8.154  10.459   2.460  0.3006 -0.4000  1.5070
  166MOL0     H22891   7.911  10.463   2.445  1.3850  1.3711  2.1149
  166MOL0     H22892   6.519   9.621   1.501  2.4942  0.0141  0.0082
  166MOL0     H22893   6.521   9.430   1.340 -0.4148 -2.0700 -0.3298
  166MOL0     H22894   6.609   9.073   1.195  0.4235 -0.1710 -1.2759
  166MOL0     H22895   6.616   9.000   0.977 -0.2129 -0.2860 -0.8610
  166MOL0     H22896   6.541   8.980   0.761 -2.5000  0.9893  0.7847
  166MOL0     H22897   6.615   8.823   0.814  0.0067  0.8208  0.8384
  166MOL0     H22898   6.387   8.818   0.609  0.4324 -0.4017 -2.8760
  166MOL0     H22899   6.508   8.707   0.636 -0.9537  0.0697  0.0239
  166MOL0     H22900   6.563   8.804   0.424 -2.1980  0.8258 -0.0056
  166MOL0     H22901   6.497   8.955   0.477 -3.5708 -2.7121  0.7256
  166MOL0     H22902   6.756   8.819   0.542 -2.2267 -0.8354 -1.4329
  166MOL0     H22903   6.737   8.998   0.584  1.7540  0.5591 -0.1124
  166MOL0     H22904   6.872   8.905   0.181 -0.9622  2.3425 -0.8312
  166MOL0     H22905   6.209   8.860   1.010 -0.6366  1.6195 -0.9270
  166MOL0     H22906   6.187   8.896   1.368 -0.6189  1.4911  0.5787
  166MOL0     H22907   6.092   9.001   1.252  3.1604  3.1524 -4.7986
  166MOL0     H22908   6.109   8.834   1.224 -1.8431  1.7667 -1.3535
  167MOL0     O22909   7.545   9.895  10.808 -0.4526 -0.0354  0.8723
  167MOL0     C22910   7.518  10.014  10.789 -0.7347  0.4314  0.4408
  167MOL0     O22911   7.602  10.118  10.812  0.3023 -0.4305  0.5241
  167MOL0     C22912   7.721  10.101  10.881  0.1011 -0.4197  0.6435
  167MOL0     C22913   7.834  10.173  10.844 -0.2729 -0.3597 -0.6553
  167MOL0     C22914   7.955  10.153  10.915  0.3920 -0.1965  0.7993
  167MOL0     C22915   7.964  10.074  11.027 -0.9045  0.8116  0.2093
  167MOL0     O22916   8.086  10.064  11.091 -1.0249 -0.2879  0.2341
  167MOL0     C22917   8.143  10.196  11.126 -0.6243 -0.0607  0.5301
  167MOL0     C22918   8.273  10.175  11.188 -1.2785 -0.0156 -0.1501
  167MOL0     C22919   8.377  10.137  11.097 -0.5587 -0.1308  0.1107
  167MOL0     C22920   8.493  10.060  11.163 -0.2028  0.1696 -0.8772
  167MOL0     C22921   8.630  10.082  11.101 -0.3632  0.2249 -0.2824
  167MOL0     C22922   8.747  10.010  11.181  0.1565  0.0140  0.9045
  167MOL0     C22923   8.872  10.020  11.100  0.0202  0.2429 -0.7791
  167MOL0     C22924   8.986   9.937  11.165 -0.8070  0.5610  0.4590
  167MOL0     N22925   9.115   9.981  11.116  0.3300  0.4740  0.9040
  167MOL0     C22926   9.155   9.987  10.983  0.2071 -0.8286 -0.1914
  167MOL0     C22927   9.285  10.034  10.985 -0.2682 -0.3838  0.4441
  167MOL0     C22928   9.376  10.020  10.861 -0.4872  0.6392  0.3087
  167MOL0     C22929   9.326  10.087  10.736 -0.4704  0.5038 -1.3364
  167MOL0     C22930   9.412  10.040  10.617  0.2988  0.5350 -1.1962
  167MOL0     C22931   9.360   9.905  10.564  0.1922 -0.2034  0.1766
  167MOL0     O22932   9.435   9.863  10.449  0.2416 -0.6059  0.1105
  167MOL0     C22933   9.402   9.919  10.325 -0.0463  0.4933 -0.0966
  167MOL0     C22934   9.268   9.909  10.275 -0.3753  0.1872 -0.2159
  167MOL0     C22935   9.229   9.971  10.154 -0.0875  0.1579  0.0155
  167MOL0     C22936   9.078   9.970  10.132  0.1071  0.2806 -0.0875
  167MOL0     C22937   9.326  10.048  10.078  0.0023  0.4021 -0.3512
  167MOL0     C22938   9.303  10.122   9.957  0.6469 -0.8088 -0.2958
  167MOL0     O22939   9.403  10.200   9.914  0.5208  0.1985  0.0383
  167MOL0     C22940   9.398  10.260   9.784  0.7688  0.5485 -0.5360
  167MOL0     C22941   9.410  10.399   9.778  0.9029  0.5673 -0.7527
  167MOL0     C22942   9.398  10.459   9.653  0.6667  0.0456  0.7674
  167MOL0     C22943   9.400  10.390   9.529  0.3768  0.0431 -0.1755
  167MOL0     O22944   9.378  10.465   9.412  0.4398 -0.5734 -0.2180
  167MOL0     C22945   9.388  10.429   9.275 -0.5018 -0.6881 -0.5044
  167MOL0     C22946   9.375  10.552   9.182  0.3601 -0.3591  0.0953
  167MOL0     C22947   9.247  10.632   9.207 -0.5927 -0.3595  0.4823
  167MOL0     C22948   9.121  10.543   9.182  0.1280  0.2063 -1.0887
  167MOL0     C22949   9.005  10.630   9.215  0.2715  0.3758 -0.6013
  167MOL0     C22950   8.865  10.562   9.185 -0.1146  0.0504 -0.1591
  167MOL0     C22951   8.742  10.649   9.224  0.6788  0.3910 -0.1934
  167MOL0     C22952   8.616  10.557   9.272  0.1793  0.7176 -0.4949
  167MOL0    Cl22953   8.475  10.651   9.326 -0.0009  0.2701 -0.1555
  167MOL0     C22954   9.403  10.256   9.543  1.0072 -0.0472 -0.2959
  167MOL0     C22955   9.402  10.190   9.666  0.2426 -0.1616  0.0221
  167MOL0     O22956   9.190  10.112   9.904  0.1972 -0.1244  0.6068
  167MOL0     C22957   9.460  10.046  10.124 -0.2728 -0.5579 -0.2251
  167MOL0     C22958   9.496   9.985  10.246 -0.5429  0.7364  0.4842
  167MOL0     N22959   9.319  10.063  11.113 -0.4118  0.3582 -0.4780
  167MOL0     N22960   9.219  10.021  11.192 -0.1366  0.0561  0.0253
  167MOL0     C22961   7.851  10.009  11.075 -0.1828  0.3177 -0.3360
  167MOL0     C22962   7.736  10.020  10.995  0.8969 -0.2895 -0.5173
  167MOL0     C22963   7.397  10.043  10.718 -0.3424 -0.0400  0.3720
  167MOL0     C22964   7.416  10.105  10.595 -0.7254  1.1444  0.3581
  167MOL0     C22965   7.304  10.128  10.506  0.2051  0.3999  0.3582
  167MOL0     C22966   7.170  10.089  10.543 -0.2962 -0.0401 -0.4275
  167MOL0     O22967   7.069  10.113  10.453  0.3519  0.7074  0.8000
  167MOL0     C22968   6.933  10.095  10.489 -0.3597 -0.5060 -0.2924
  167MOL0     C22969   6.876  10.221  10.555 -0.0043  0.3730 -0.6997
  167MOL0     C22970   6.725  10.211  10.572  0.7759 -0.6982  0.8431
  167MOL0     C22971   6.675  10.338  10.629  0.2429 -0.1477 -0.3450
  167MOL0     C22972   6.529  10.369  10.639  0.2321  0.4154  0.0366
  167MOL0     C22973   6.416  10.420  10.646 -0.7715  0.0974  0.3012
  167MOL0     C22974   7.161  10.037  10.674  0.3991 -0.2408 -0.1381
  167MOL0     C22975   7.269  10.016  10.758 -0.1161  0.2903 -0.3807
  167MOL0     C22976   7.251   9.941  10.888  1.1492 -0.0656  0.3416
  167MOL0     H22977   7.846  10.231  10.753  2.5326 -1.6542 -1.2012
  167MOL0     H22978   8.040  10.218  10.895  1.3015 -0.8670  2.3051
  167MOL0     H22979   8.070  10.247  11.190  0.2646  0.3798  1.2141
  167MOL0     H22980   8.161  10.266  11.044 -1.9033  1.9321  1.8601
  167MOL0     H22981   8.304  10.258  11.252 -3.3611  0.3170  0.5035
  167MOL0     H22982   8.266  10.089  11.256 -0.9746 -1.5602 -1.9977
  167MOL0     H22983   8.340  10.069  11.020  3.0030 -3.7113  1.2063
  167MOL0     H22984   8.406  10.238  11.065  0.0060 -0.6465 -1.0696
  167MOL0     H22985   8.494  10.088  11.269  0.5840  1.4150 -1.1919
  167MOL0     H22986   8.472   9.952  11.169 -0.0481  0.1641 -0.3393
  167MOL0     H22987   8.656  10.188  11.098  2.1531 -0.3314  0.0412
  167MOL0     H22988   8.620  10.040  11.000 -3.6297 -2.0393  0.8290
  167MOL0     H22989   8.765  10.068  11.272  0.9705  2.5290 -0.7593
  167MOL0     H22990   8.722   9.904  11.197 -2.2706  0.3899 -0.0807
  167MOL0     H22991   8.911  10.122  11.089  1.8618 -0.4797 -1.3955
  167MOL0     H22992   8.856   9.974  11.002 -1.3504 -2.6186  0.6598
  167MOL0     H22993   8.985   9.960  11.272 -1.8236  1.5096  0.2584
  167MOL0     H22994   8.972   9.829  11.155 -1.1633  0.5954  0.5652
  167MOL0     H22995   9.097   9.948  10.899 -0.6024  0.8900 -0.4724
  167MOL0     H22996   9.373   9.912  10.845 -0.6656  0.6326  0.3758
  167MOL0     H22997   9.479  10.049  10.882  0.3288 -0.3377 -2.0650
  167MOL0     H22998   9.217  10.083  10.722 -0.6528  0.0300  0.0555
  167MOL0     H22999   9.349  10.193  10.746  1.4103  0.1098 -1.0922
  167MOL0     H23000   9.412  10.121  10.544 -3.3193  0.9697 -0.8892
  167MOL0     H23001   9.512  10.024  10.659 -1.1156 -0.6550  2.0246
  167MOL0     H23002   9.352   9.827  10.640 -0.1007 -0.6225 -0.2782
  167MOL0     H23003   9.255   9.924  10.539  0.2124 -0.9299 -0.5050
  167MOL0     H23004   9.190   9.859  10.332 -1.4861  0.9453 -1.0301
  167MOL0     H23005   9.012   9.906  10.191  0.4396  1.2876  1.4293
  167MOL0     H23006   9.055   9.951  10.026 -0.6337  0.6337  0.0030
  167MOL0     H23007   9.049  10.074  10.149 -1.8573  0.4634 -3.5437
  167MOL0     H23008   9.400  10.456   9.870  1.3154  2.7595 -1.9981
  167MOL0     H23009   9.404  10.567   9.658  1.1797 -0.0296  3.3439
  167MOL0     H23010   9.489  10.387   9.267 -0.2849 -0.7009  1.6796
  167MOL0     H23011   9.317  10.347   9.261 -0.6598 -0.0539 -4.6952
  167MOL0     H23012   9.457  10.621   9.206 -2.3350  3.3519 -0.4038
  167MOL0     H23013   9.377  10.523   9.076 -0.6836 -1.5900  0.3944
  167MOL0     H23014   9.245  10.722   9.145 -4.7880  0.2843  1.2721
  167MOL0     H23015   9.246  10.664   9.311 -1.0517  0.8249  0.1318
  167MOL0     H23016   9.114  10.459   9.250  0.3025 -0.3085 -1.6973
  167MOL0     H23017   9.113  10.501   9.081  2.7715 -2.2433 -0.4086
  167MOL0     H23018   9.009  10.651   9.322  2.1233  1.2149 -0.7981
  167MOL0     H23019   9.008  10.727   9.163 -1.8814  0.8816  0.1124
  167MOL0     H23020   8.860  10.468   9.241  0.2362  0.9251  1.3770
  167MOL0     H23021   8.860  10.532   9.080 -0.8191 -0.9463  0.1366
  167MOL0     H23022   8.725  10.725   9.147  1.1761 -0.2415 -0.9398
  167MOL0     H23023   8.771  10.713   9.308  1.4404 -1.3624  0.9276
  167MOL0     H23024   8.650  10.499   9.358 -0.4337  1.1881  0.0687
  167MOL0     H23025   8.583  10.484   9.197 -2.6136 -1.2987  2.4661
  167MOL0     H23026   9.400  10.192   9.455  0.2811  0.4051 -0.6074
  167MOL0     H23027   9.391  10.082   9.673  2.6502 -0.5491 -1.2778
  167MOL0     H23028   9.546  10.085  10.070  0.5925  1.3538  2.3194
  167MOL0     H23029   9.602   9.986  10.270 -0.1566  2.0141 -1.1560
  167MOL0     H23030   7.869   9.938  11.155  0.6068  1.3175  0.4090
  167MOL0     H23031   7.654   9.954  11.023 -0.4642  1.0142 -1.2906
  167MOL0     H23032   7.513  10.146  10.566 -1.0993  0.9717 -1.2221
  167MOL0     H23033   7.323  10.181  10.413  0.7105 -1.3712 -0.5960
  167MOL0     H23034   6.871  10.081  10.400 -0.3607 -2.3969 -0.0335
  167MOL0     H23035   6.929  10.004  10.549  1.2935 -0.5507 -0.2080
  167MOL0     H23036   6.888  10.303  10.483 -2.9676  0.3294 -1.3924
  167MOL0     H23037   6.928  10.232  10.651  1.1951 -0.8690 -1.1797
  167MOL0     H23038   6.689  10.207  10.469  0.1741  4.6197  0.5511
  167MOL0     H23039   6.704  10.119  10.627  3.7980 -2.2948 -0.3926
  167MOL0     H23040   6.724  10.426  10.586  1.8575  0.1197  1.8316
  167MOL0     H23041   6.717  10.325  10.729  0.3449 -1.8412 -0.5732
  167MOL0     H23042   6.314  10.453  10.646 -1.1898 -1.1366  1.0732
  167MOL0     H23043   7.068  10.019  10.725  0.6631 -1.2358  0.0191
  167MOL0     H23044   7.149   9.931  10.925  0.6617 -1.4957 -1.2783
  167MOL0     H23045   7.297   9.843  10.869  2.5268  0.8189 -1.1434
  167MOL0     H23046   7.310   9.992  10.965  2.9517 -0.3579 -0.7849
  168MOL0     O23047   4.531   6.895   0.061 -0.5566  0.5278 -0.2687
  168MOL0     C23048   4.455   6.967   0.117  0.3182  0.1971  0.2025
  168MOL0     O23049   4.483   7.089   0.152 -0.4740 -0.0563  0.7380
  168MOL0     C23050   4.614   7.133   0.110  0.7172  0.7300 -0.2997
  168MOL0     C23051   4.622   7.190  -0.015  0.2916  0.4216  0.5061
  168MOL0     C23052   4.735   7.257  -0.055 -0.5066 -0.6532 -0.2357
  168MOL0     C23053   4.850   7.270   0.023 -0.6227 -0.0449 -0.1399
  168MOL0     O23054   4.959   7.343  -0.017 -0.3402 -0.4097 -0.2219
  168MOL0     C23055   4.962   7.405  -0.144 -0.0011 -0.4364  0.1307
  168MOL0     C23056   5.088   7.477  -0.178 -0.8668 -0.5666 -0.0682
  168MOL0     C23057   5.220   7.384  -0.183  0.4439  0.6824 -0.6364
  168MOL0     C23058   5.259   7.318  -0.057 -0.4360  0.4551 -0.1578
  168MOL0     C23059   5.403   7.276  -0.061 -0.6066 -0.1454 -0.2569
  168MOL0     C23060   5.438   7.162  -0.159 -0.1281  0.2765  0.1912
  168MOL0     C23061   5.591   7.133  -0.139  0.0306  0.2283 -0.1416
  168MOL0     C23062   5.672   7.226  -0.233  0.6496 -0.4490  0.0159
  168MOL0     N23063   5.814   7.210  -0.202  0.3335 -1.0235 -0.1888
  168MOL0     C23064   5.886   7.290  -0.120  0.6964 -0.2421 -0.3063
  168MOL0     C23065   6.010   7.243  -0.126  0.2984 -0.2690 -0.5658
  168MOL0     C23066   6.126   7.310  -0.055 -0.4143  0.3473  0.5608
  168MOL0     C23067   6.121   7.294   0.105  0.3398  0.2289  0.8912
  168MOL0     C23068   6.216   7.184   0.146 -0.5380  0.1059 -0.3446
  168MOL0     C23069   6.183   7.030   0.119  0.5365 -0.0146 -0.3539
  168MOL0     O23070   6.290   6.953   0.172  0.2813 -0.1060 -0.2616
  168MOL0     C23071   6.278   6.821   0.168 -0.2894  0.2184  0.9450
  168MOL0     C23072   6.380   6.748   0.216  0.4179 -0.0130 -0.3185
  168MOL0     C23073   6.385   6.608   0.195  0.1351 -0.5118 -0.0406
  168MOL0     C23074   6.513   6.536   0.207 -0.1781  0.0326 -0.4268
  168MOL0     C23075   6.270   6.542   0.147 -0.9065  0.6228  0.1299
  168MOL0     C23076   6.260   6.392   0.132 -0.7815 -0.1463 -0.4348
  168MOL0     O23077   6.172   6.340   0.033  0.4305 -1.0481 -0.2700
  168MOL0     C23078   6.160   6.207   0.028  0.4932  0.5259 -0.4211
  168MOL0     C23079   6.060   6.137   0.100 -0.0429  0.5060  0.2395
  168MOL0     C23080   6.042   5.995   0.104  0.0393 -0.0357  0.1997
  168MOL0     C23081   6.117   5.920   0.024 -1.1332  0.4363 -0.3704
  168MOL0     O23082   6.105   5.787   0.019 -0.5662  0.5123 -0.3636
  168MOL0     C23083   5.975   5.724   0.031  0.3901  0.1462  0.5184
  168MOL0     C23084   5.989   5.576  -0.009 -0.3465  1.0459  1.5581
  168MOL0     C23085   6.058   5.547  -0.142 -0.0113 -0.6767 -0.2903
  168MOL0     C23086   6.022   5.640  -0.253  0.3483 -0.2735 -0.0959
  168MOL0     C23087   6.067   5.587  -0.392 -0.1359  0.1773  0.3314
  168MOL0     C23088   6.216   5.554  -0.398  0.1971 -0.0027 -0.7790
  168MOL0     C23089   6.304   5.679  -0.356  0.1449  0.3519  0.7118
  168MOL0     C23090   6.299   5.800  -0.453  0.2018 -0.1961 -0.3946
  168MOL0    Cl23091   6.352   5.953  -0.384 -0.2692  0.1042  0.2363
  168MOL0     C23092   6.218   5.986  -0.055 -1.6626  0.0004  0.0956
  168MOL0     C23093   6.239   6.129  -0.061 -0.6181  0.5574  0.0535
  168MOL0     O23094   6.321   6.319   0.208  0.1227 -0.1043 -0.4699
  168MOL0     C23095   6.160   6.628   0.113 -0.0200  0.2712  0.2892
  168MOL0     C23096   6.161   6.767   0.131  0.5358  0.7849 -0.2506
  168MOL0     N23097   6.015   7.140  -0.216 -0.6121  0.1518  0.7305
  168MOL0     N23098   5.893   7.130  -0.267  0.0264  0.5913  0.8558
  168MOL0     C23099   4.850   7.208   0.149  0.2667 -0.0695 -0.1374
  168MOL0     C23100   4.730   7.142   0.186 -0.1791  0.3174 -0.1462
  168MOL0     C23101   4.336   6.903   0.180 -0.7562  0.7914  0.2444
  168MOL0     C23102   4.265   6.972   0.282  0.2769  0.1779 -0.7205
  168MOL0     C23103   4.147   6.924   0.343  0.7178  0.2964  0.0747
  168MOL0     C23104   4.091   6.805   0.296  0.0078 -0.1547  0.0115
  168MOL0     O23105   3.978   6.763   0.365 -0.2192  0.5547  0.2427
  168MOL0     C23106   3.907   6.649   0.317 -0.0599  0.3110  0.1009
  168MOL0     C23107   3.776   6.634   0.393  0.1080 -0.5973 -0.4920
  168MOL0     C23108   3.680   6.752   0.376  1.0585 -0.5131  0.4988
  168MOL0     C23109   3.678   6.865   0.481  0.0902  0.2157  0.1682
  168MOL0     C23110   3.674   6.810   0.616 -0.6743 -1.0290  0.6665
  168MOL0     C23111   3.677   6.738   0.712  0.1461  0.0890  0.0612
  168MOL0     C23112   4.151   6.735   0.193 -0.0362  0.2709 -0.1073
  168MOL0     C23113   4.280   6.779   0.135  0.2464 -0.3290 -0.0528
  168MOL0     C23114   4.338   6.685   0.038 -0.8602 -0.0745  0.2283
  168MOL0     H23115   4.535   7.176  -0.079  0.8667  1.6904 -0.6088
  168MOL0     H23116   4.732   7.310  -0.149 -1.1022 -1.9924 -1.0039
  168MOL0     H23117   4.877   7.473  -0.157  1.5158  1.4309 -0.5284
  168MOL0     H23118   4.950   7.322  -0.214  0.6583 -1.2758  0.9896
  168MOL0     H23119   5.078   7.536  -0.270 -1.0368  1.4760  1.1790
  168MOL0     H23120   5.097   7.554  -0.100 -2.8989 -0.6629  0.3198
  168MOL0     H23121   5.208   7.306  -0.258  1.4698  0.6921 -0.8303
  168MOL0     H23122   5.297   7.453  -0.219 -0.4708  1.1447 -1.7444
  168MOL0     H23123   5.248   7.393   0.022  1.5157  1.8796 -1.1720
  168MOL0     H23124   5.200   7.227  -0.038 -0.6450  0.6896  0.3581
  168MOL0     H23125   5.431   7.248   0.041  1.1957  0.4821 -0.5356
  168MOL0     H23126   5.462   7.365  -0.084 -1.4336  0.3921 -0.3648
  168MOL0     H23127   5.381   7.073  -0.131 -1.9512  0.9110 -1.2951
  168MOL0     H23128   5.429   7.187  -0.265 -0.1016 -0.0483  0.1117
  168MOL0     H23129   5.607   7.031  -0.175  0.6084  0.9259 -1.9648
  168MOL0     H23130   5.618   7.127  -0.034  0.3584  0.6519 -0.1995
  168MOL0     H23131   5.672   7.199  -0.339  1.4281 -0.4799  0.0120
  168MOL0     H23132   5.644   7.332  -0.234  1.0804 -0.3130 -1.8258
  168MOL0     H23133   5.864   7.389  -0.082  2.3181  0.2776 -0.6443
  168MOL0     H23134   6.105   7.415  -0.077  1.6002  0.8531  0.8397
  168MOL0     H23135   6.223   7.283  -0.097 -0.1475 -0.1402  1.4492
  168MOL0     H23136   6.148   7.386   0.157  0.0841  2.2389 -2.2104
  168MOL0     H23137   6.019   7.263   0.130 -0.1055 -0.2453 -1.2561
  168MOL0     H23138   6.316   7.199   0.104 -0.2246 -1.6910 -0.3097
  168MOL0     H23139   6.222   7.200   0.254  5.6458  1.1707 -0.4629
  168MOL0     H23140   6.086   7.011   0.165  0.1399 -0.0617 -1.1739
  168MOL0     H23141   6.172   7.021   0.010  0.2616  2.3362 -0.5809
  168MOL0     H23142   6.474   6.800   0.237 -0.6247  1.2951  1.4131
  168MOL0     H23143   6.504   6.479   0.300  1.3199 -0.5233 -0.5972
  168MOL0     H23144   6.593   6.609   0.195 -0.6484  0.4693 -0.9521
  168MOL0     H23145   6.518   6.461   0.128  2.7949 -0.6502  0.2794
  168MOL0     H23146   5.988   6.193   0.158  1.1024  1.6884  0.5735
  168MOL0     H23147   5.961   5.959   0.167 -0.4792  1.9323  0.7314
  168MOL0     H23148   5.944   5.740   0.135 -0.8132 -2.6620  0.6673
  168MOL0     H23149   5.910   5.769  -0.045  0.7912 -0.7278 -0.3578
  168MOL0     H23150   6.058   5.523   0.056  0.9808 -1.0914 -1.3791
  168MOL0     H23151   5.890   5.529  -0.007 -0.3587  0.9761  0.1639
  168MOL0     H23152   6.037   5.442  -0.161  0.3952 -1.1845  1.8220
  168MOL0     H23153   6.165   5.554  -0.120  0.3921  0.6005 -2.3715
  168MOL0     H23154   6.065   5.741  -0.247 -0.8360  0.3961 -1.8574
  168MOL0     H23155   5.913   5.645  -0.263  0.3600  0.2817  0.0203
  168MOL0     H23156   6.016   5.492  -0.410  1.4320 -0.4473 -1.0735
  168MOL0     H23157   6.050   5.664  -0.467 -1.2155 -0.0700  0.3172
  168MOL0     H23158   6.237   5.523  -0.501  1.0130 -0.8732 -0.3741
  168MOL0     H23159   6.231   5.461  -0.342 -1.3540 -0.4088 -0.9827
  168MOL0     H23160   6.409   5.649  -0.358  0.0828  0.1348  0.6865
  168MOL0     H23161   6.288   5.697  -0.249 -0.7895 -1.8905  1.0019
  168MOL0     H23162   6.202   5.822  -0.498 -1.3164 -2.3372  1.5827
  168MOL0     H23163   6.374   5.782  -0.530 -0.8042 -0.8629 -1.2489
  168MOL0     H23164   6.282   5.926  -0.119  2.5417  2.8621  1.1820
  168MOL0     H23165   6.310   6.183  -0.122 -1.2852  3.6424  1.7708
  168MOL0     H23166   6.068   6.582   0.080 -0.1582  1.1525 -0.5846
  168MOL0     H23167   6.068   6.820   0.109  0.0710  0.4858  0.9238
  168MOL0     H23168   4.942   7.208   0.207  0.0612 -2.9304  0.3378
  168MOL0     H23169   4.749   7.086   0.277  2.2439  0.7242 -0.3406
  168MOL0     H23170   4.313   7.064   0.312 -0.2595  0.1420  0.3049
  168MOL0     H23171   4.105   6.988   0.420 -2.6981 -2.8671  1.2050
  168MOL0     H23172   3.878   6.658   0.212 -4.1102 -0.8055  0.9336
  168MOL0     H23173   3.964   6.559   0.343 -0.7216 -0.7794 -1.9740
  168MOL0     H23174   3.800   6.610   0.496  3.2587 -0.4337 -1.0855
  168MOL0     H23175   3.734   6.545   0.345  0.4019 -0.1566 -1.6203
  168MOL0     H23176   3.716   6.789   0.279  2.1819 -3.3419 -0.2693
  168MOL0     H23177   3.583   6.703   0.379  0.6961  0.1218 -0.4518
  168MOL0     H23178   3.587   6.921   0.461  0.2460 -0.3571 -2.4683
  168MOL0     H23179   3.767   6.927   0.465  0.7346 -1.3003 -2.8823
  168MOL0     H23180   3.669   6.685   0.805 -0.9696  0.4188  0.1652
  168MOL0     H23181   4.111   6.636   0.170 -1.3830  0.2981  1.7895
  168MOL0     H23182   4.436   6.641   0.062 -0.1633  1.4650  0.2785
  168MOL0     H23183   4.273   6.599   0.018 -0.3087 -1.0849  2.5143
  168MOL0     H23184   4.340   6.737  -0.058  0.3191  0.8448  0.7168
  169MOL0     O23185   3.405  10.258   0.791  0.2601  0.0976  0.0328
  169MOL0     C23186   3.350  10.372   0.799 -0.3767  0.1062 -0.1375
  169MOL0     O23187   3.395  10.491   0.738 -0.4667 -0.5810  0.1480
  169MOL0     C23188   3.487  10.495   0.638  0.0014  0.1469  0.0820
  169MOL0     C23189   3.530  10.390   0.559  0.6811  0.1278 -1.2199
  169MOL0     C23190   3.636  10.411   0.469 -0.0858 -0.4967  0.7007
  169MOL0     C23191   3.699  10.534   0.455  0.2766 -0.1493 -0.0545
  169MOL0     O23192   3.810  10.558   0.381  0.4820  0.1648 -0.2634
  169MOL0     C23193   3.856  10.471   0.274 -0.5748 -0.1974  0.2984
  169MOL0     C23194   3.983  10.524   0.213  0.6544  0.4478  0.3444
  169MOL0     C23195   4.099  10.550   0.300 -0.6858 -0.3583  0.3008
  169MOL0     C23196   4.202  10.628   0.225  0.4147  0.3285 -0.8526
  169MOL0     C23197   4.340  10.634   0.302  0.8704 -0.0333  0.0955
  169MOL0     C23198   4.441  10.714   0.219  0.2881  0.8811  1.4435
  169MOL0     C23199   4.561  10.752   0.296 -0.3543 -0.2410 -0.5460
  169MOL0     C23200   4.634  10.871   0.239  0.0061  0.1392 -0.7606
  169MOL0     N23201   4.766  10.874   0.301 -0.0390  0.2265 -0.6138
  169MOL0     C23202   4.788  10.900   0.429 -0.2562  1.1774  0.5780
  169MOL0     C23203   4.922  10.865   0.451 -0.1708  0.2399 -0.7684
  169MOL0     C23204   5.000  10.868   0.580 -0.1662 -0.0633  0.7578
  169MOL0     C23205   5.012  10.718   0.629  0.4811  0.0409  0.6126
  169MOL0     C23206   5.080  10.697   0.762 -0.1750 -0.2761 -0.2214
  169MOL0     C23207   5.228  10.753   0.766  0.4899 -0.3082 -0.2174
  169MOL0     O23208   5.310  10.674   0.675  0.0753 -0.1268 -0.5148
  169MOL0     C23209   5.442  10.718   0.656 -0.1451  0.1547 -0.3662
  169MOL0     C23210   5.535  10.624   0.600  0.2033  0.0775  0.1630
  169MOL0     C23211   5.670  10.661   0.571  0.7583  0.4505 -0.5566
  169MOL0     C23212   5.764  10.557   0.508  0.9248 -0.0517  0.3160
  169MOL0     C23213   5.714  10.790   0.608 -0.2415 -0.2548 -0.2995
  169MOL0     C23214   5.852  10.835   0.583  0.2332  0.4521 -0.2750
  169MOL0     O23215   5.952  10.749   0.613 -0.3752  0.6071 -0.5262
  169MOL0     C23216   6.081  10.791   0.590 -0.0211  0.1693  0.7522
  169MOL0     C23217   6.117  10.796   0.457 -0.2707 -0.2342  1.1041
  169MOL0     C23218   6.255  10.810   0.423  0.2198  0.3190 -0.2665
  169MOL0     C23219   6.348  10.863   0.515  0.1254  0.5055 -0.0117
  169MOL0     O23220   6.469  10.909   0.464  0.2012 -0.4400 -0.5145
  169MOL0     C23221   6.522  11.034   0.520  0.0243  0.9451  0.4464
  169MOL0     C23222   6.638  11.081   0.440 -0.3404  0.0307 -0.3797
  169MOL0     C23223   6.767  11.012   0.466 -0.9046  0.1057 -0.0789
  169MOL0     C23224   6.785  10.872   0.404 -0.1244 -0.4684 -0.7010
  169MOL0     C23225   6.919  10.807   0.453  0.4395  0.8520 -0.1592
  169MOL0     C23226   7.051  10.886   0.430 -0.8547  0.2989 -0.4685
  169MOL0     C23227   7.075  10.913   0.285  0.0884  0.6361  0.5979
  169MOL0     C23228   7.194  10.997   0.239  0.1700 -0.5398 -0.1424
  169MOL0    Cl23229   7.351  10.920   0.292 -0.2730  0.0768  0.0260
  169MOL0     C23230   6.301  10.868   0.649  0.0479  0.1882  0.3993
  169MOL0     C23231   6.169  10.823   0.693  0.6864  0.5256  0.4039
  169MOL0     O23232   5.864  10.941   0.525 -0.1207 -0.0201 -0.0694
  169MOL0     C23233   5.615  10.883   0.650 -0.4874 -0.0695 -0.2627
  169MOL0     C23234   5.489  10.847   0.685  0.8995  0.3391 -0.3080
  169MOL0     N23235   4.976  10.831   0.331  0.7879  0.3591 -0.0673
  169MOL0     N23236   4.884  10.832   0.244  0.3555  1.0021  0.3031
  169MOL0     C23237   3.654  10.642   0.528 -0.4214 -0.7462 -0.2296
  169MOL0     C23238   3.550  10.618   0.615 -0.0568 -0.0657  0.5178
  169MOL0     C23239   3.219  10.393   0.874  0.7016  0.7791  0.7111
  169MOL0     C23240   3.195  10.519   0.932  0.8099  0.5111  0.3604
  169MOL0     C23241   3.071  10.543   0.999  0.4597  0.1565  0.3038
  169MOL0     C23242   2.969  10.453   1.012  0.5626 -0.3210  0.8421
  169MOL0     O23243   2.856  10.480   1.080  0.8550 -0.8618 -0.1899
  169MOL0     C23244   2.740  10.442   1.013  0.4262  0.1140 -0.6655
  169MOL0     C23245   2.643  10.554   1.015 -0.8823  0.0765 -0.9145
  169MOL0     C23246   2.608  10.588   1.160 -0.0117 -0.0527  0.4451
  169MOL0     C23247   2.544  10.725   1.162 -0.2728  0.1267  0.4851
  169MOL0     C23248   2.420  10.736   1.073 -0.3629 -0.1304 -0.2437
  169MOL0     C23249   2.325  10.751   0.992 -0.8508  0.7156 -0.3949
  169MOL0     C23250   2.991  10.323   0.960  0.2124  0.2718  0.7439
  169MOL0     C23251   3.113  10.297   0.889  0.8535  0.2539 -0.2056
  169MOL0     C23252   3.113  10.166   0.820 -0.9934  0.1361  0.3088
  169MOL0     H23253   3.476  10.297   0.570  0.8112  0.2074  0.3934
  169MOL0     H23254   3.661  10.334   0.397 -0.9869 -2.1842  2.1200
  169MOL0     H23255   3.775  10.460   0.201  1.4987 -0.6705 -2.0650
  169MOL0     H23256   3.879  10.370   0.312 -1.0693 -1.5472 -2.7204
  169MOL0     H23257   4.010  10.451   0.136  2.3117 -2.1212  3.1098
  169MOL0     H23258   3.956  10.619   0.166  0.2864  0.0085 -0.3436
  169MOL0     H23259   4.063  10.615   0.379 -0.5611  0.7548 -0.5296
  169MOL0     H23260   4.142  10.457   0.338 -0.1746 -0.5559 -0.7163
  169MOL0     H23261   4.218  10.571   0.132 -0.8302 -1.4984  0.0046
  169MOL0     H23262   4.157  10.722   0.193  0.6631 -0.4712 -3.8684
  169MOL0     H23263   4.370  10.530   0.315 -3.1914 -1.3021  0.5542
  169MOL0     H23264   4.329  10.681   0.400  0.7883 -2.6131  1.4130
  169MOL0     H23265   4.468  10.647   0.137 -0.2911 -0.6918  2.4943
  169MOL0     H23266   4.392  10.803   0.181  1.1578  1.7460  2.2791
  169MOL0     H23267   4.627  10.667   0.317 -1.3568 -0.3448  2.8002
  169MOL0     H23268   4.518  10.791   0.389 -3.2088 -0.2795 -1.7598
  169MOL0     H23269   4.645  10.871   0.130 -1.0029  1.2382 -0.8780
  169MOL0     H23270   4.576  10.960   0.267 -1.2114 -1.5250  2.6060
  169MOL0     H23271   4.718  10.929   0.507 -0.0859  1.4388  0.6382
  169MOL0     H23272   4.954  10.936   0.652  1.5270 -1.2801  3.1428
  169MOL0     H23273   5.098  10.911   0.560 -0.5276 -0.8196 -3.5618
  169MOL0     H23274   4.908  10.685   0.628  0.1248  1.0758  1.6099
  169MOL0     H23275   5.064  10.662   0.551 -0.7552 -1.0497  0.5325
  169MOL0     H23276   5.009  10.745   0.829 -0.4647 -2.8320  1.4408
  169MOL0     H23277   5.081  10.588   0.773  0.6308 -0.2165  0.4381
  169MOL0     H23278   5.232  10.858   0.737  0.2713  0.5995  2.7110
  169MOL0     H23279   5.274  10.736   0.864  1.0722 -4.0796 -0.9589
  169MOL0     H23280   5.509  10.524   0.568 -2.1827  1.3571 -2.2690
  169MOL0     H23281   5.815  10.597   0.420 -1.1419  0.3397 -0.7598
  169MOL0     H23282   5.703  10.476   0.467 -0.0029  0.3773  0.8153
  169MOL0     H23283   5.840  10.516   0.575  1.2552  1.6365  1.0295
  169MOL0     H23284   6.044  10.779   0.379  3.3392 -1.0746 -2.4641
  169MOL0     H23285   6.276  10.784   0.319 -0.9124 -0.2003 -0.3729
  169MOL0     H23286   6.444  11.109   0.531 -0.8591  0.6392 -2.7511
  169MOL0     H23287   6.558  11.030   0.623  1.6135  2.2535 -0.0235
  169MOL0     H23288   6.598  11.069   0.339 -1.1001 -1.2120  0.0495
  169MOL0     H23289   6.651  11.187   0.462 -1.3026 -0.3129  2.1795
  169MOL0     H23290   6.778  10.997   0.574 -0.3697 -2.4281 -0.4271
  169MOL0     H23291   6.838  11.083   0.422 -0.5771 -1.2240 -1.8105
  169MOL0     H23292   6.782  10.882   0.296 -1.9394 -1.2238 -0.7672
  169MOL0     H23293   6.704  10.806   0.439  1.1122 -1.1829  0.9857
  169MOL0     H23294   6.924  10.784   0.560  0.6985  1.8801  0.0546
  169MOL0     H23295   6.917  10.705   0.413  0.2805  0.0520  1.7406
  169MOL0     H23296   7.131  10.822   0.469 -0.8157  1.2663  1.1264
  169MOL0     H23297   7.044  10.979   0.485 -2.5192  1.7430 -2.8978
  169MOL0     H23298   6.991  10.967   0.240 -1.4707 -3.0465 -1.3528
  169MOL0     H23299   7.081  10.811   0.246 -4.0505 -0.3695  2.0877
  169MOL0     H23300   7.182  11.097   0.281 -0.3006 -0.6501 -0.0071
  169MOL0     H23301   7.198  11.000   0.129 -1.3438 -2.9063 -0.3410
  169MOL0     H23302   6.373  10.904   0.722  1.9243 -1.7956 -0.3522
  169MOL0     H23303   6.145  10.812   0.798  0.1988 -1.9912  0.0984
  169MOL0     H23304   5.644  10.985   0.675 -1.7171 -0.0365  1.1664
  169MOL0     H23305   5.423  10.915   0.736 -0.0711 -0.5399 -0.3551
  169MOL0     H23306   3.685  10.745   0.517 -0.1222 -0.7592  0.3897
  169MOL0     H23307   3.521  10.703   0.676 -2.1723 -0.5079  0.2143
  169MOL0     H23308   3.265  10.600   0.911  2.0874 -0.5251  0.4929
  169MOL0     H23309   3.050  10.641   1.043 -1.2430  0.1989 -0.5223
  169MOL0     H23310   2.760  10.413   0.909  4.4458 -1.5384  0.3955
  169MOL0     H23311   2.707  10.359   1.076  3.6953  0.2562  1.4490
  169MOL0     H23312   2.553  10.522   0.962  0.5482  0.8531 -3.9974
  169MOL0     H23313   2.694  10.639   0.970  0.5769  0.7328  1.7449
  169MOL0     H23314   2.544  10.509   1.200  1.7188 -1.5271  0.4308
  169MOL0     H23315   2.703  10.594   1.214  2.3501 -2.8583 -2.9029
  169MOL0     H23316   2.617  10.797   1.124  0.4266  0.2830  2.0573
  169MOL0     H23317   2.532  10.749   1.268 -1.8385  0.1045  0.3351
  169MOL0     H23318   2.234  10.755   0.935 -0.9034  1.3669 -0.2770
  169MOL0     H23319   2.919  10.242   0.958  1.3706 -0.7669  0.1574
  169MOL0     H23320   3.150  10.099   0.898 -2.7954  1.6062  2.5643
  169MOL0     H23321   3.013  10.132   0.793  0.4169 -3.2690 -1.1610
  169MOL0     H23322   3.175  10.151   0.731  0.3930  1.5846  0.9650
  170MOL0     O23323   9.843   2.122   3.502 -0.1821  0.0123 -0.2500
  170MOL0     C23324   9.761   2.036   3.545  0.6528 -0.0376  0.5670
  170MOL0     O23325   9.792   1.913   3.581  0.5214  0.1427 -0.3652
  170MOL0     C23326   9.910   1.855   3.554  0.2186 -0.4892  0.0171
  170MOL0     C23327   9.973   1.857   3.427  0.1198  0.2115 -0.3149
  170MOL0     C23328  10.103   1.803   3.414  0.1341  0.3682  0.6924
  170MOL0     C23329  10.169   1.756   3.532  0.0679  0.3514 -0.9450
  170MOL0     O23330  10.293   1.702   3.504 -0.1021 -0.1386  0.1547
  170MOL0     C23331  10.385   1.689   3.606  0.0316 -0.4600 -0.8499
  170MOL0     C23332  10.511   1.631   3.550  0.3310 -0.5247 -0.1491
  170MOL0     C23333  10.616   1.600   3.659  0.0986  0.5282  0.2792
  170MOL0     C23334  10.610   1.450   3.701 -0.6530 -0.0883 -0.2784
  170MOL0     C23335  10.737   1.408   3.777  0.7379 -0.8528  0.6825
  170MOL0     C23336  10.734   1.261   3.824  0.4546  1.2337  0.6451
  170MOL0     C23337  10.878   1.209   3.855  0.3269 -0.1456 -0.0245
  170MOL0     C23338  10.871   1.061   3.879  0.0245  0.4571 -0.0866
  170MOL0     N23339  11.001   0.999   3.882 -0.0861  0.2111  1.0049
  170MOL0     C23340  11.024   0.874   3.828 -0.3834  0.1303 -0.4165
  170MOL0     C23341  11.151   0.845   3.859 -0.0418  0.7573  0.5644
  170MOL0     C23342  11.220   0.714   3.848 -0.7869  0.2628  0.1225
  170MOL0     C23343  11.207   0.661   3.704 -0.6532  0.3310 -0.1117
  170MOL0     C23344  11.259   0.522   3.713 -0.0135 -0.6227  0.2556
  170MOL0     C23345  11.277   0.457   3.573 -1.2186  0.5407  0.2119
  170MOL0     O23346  11.295   0.316   3.591 -0.4156  0.6633 -0.3881
  170MOL0     C23347  11.194   0.228   3.592  0.0495 -0.5752 -0.1713
  170MOL0     C23348  11.064   0.268   3.575 -0.1290  0.2464  0.9223
  170MOL0     C23349  10.966   0.169   3.568  0.2640  0.6186 -0.5185
  170MOL0     C23350  10.828   0.219   3.552 -0.2824 -0.1863  0.0957
  170MOL0     C23351  10.995   0.029   3.567  0.1356 -1.0660  0.0918
  170MOL0     C23352  10.890  -0.080   3.533 -0.2515  0.4704  0.1221
  170MOL0     O23353  10.777  -0.046   3.474 -0.2478  0.3702  0.1703
  170MOL0     C23354  10.687  -0.139   3.432 -0.4642  0.7030 -0.1220
  170MOL0     C23355  10.707  -0.255   3.363  0.0507  0.3707 -0.1716
  170MOL0     C23356  10.588  -0.331   3.318 -0.2611 -0.2767 -0.1275
  170MOL0     C23357  10.454  -0.283   3.330  0.0490  0.3178  0.6110
  170MOL0     O23358  10.345  -0.357   3.296  0.4242  0.6421  0.1072
  170MOL0     C23359  10.369  -0.475   3.216  0.9477  0.6940 -0.6118
  170MOL0     C23360  10.232  -0.556   3.203 -0.2095 -0.1292 -0.4604
  170MOL0     C23361  10.181  -0.618   3.331 -0.0253 -0.3126 -0.7974
  170MOL0     C23362  10.045  -0.556   3.375 -0.3912  0.3281 -0.9297
  170MOL0     C23363  10.068  -0.403   3.394  0.1177 -0.2015  1.1837
  170MOL0     C23364   9.949  -0.340   3.489  0.5368  0.0189  0.8127
  170MOL0     C23365   9.940  -0.182   3.484  0.3908  0.8614  0.8977
  170MOL0     C23366   9.806  -0.126   3.538  0.2772 -0.1475 -0.0849
  170MOL0    Cl23367   9.668  -0.182   3.440  0.1148  0.4873  0.2595
  170MOL0     C23368  10.440  -0.164   3.396  0.3448  0.2915 -0.0296
  170MOL0     C23369  10.553  -0.095   3.449  0.9746 -0.4154  0.0853
  170MOL0     O23370  10.911  -0.185   3.592  0.5121  0.0924 -0.0096
  170MOL0     C23371  11.130  -0.000   3.600  0.4282 -0.1715 -0.4033
  170MOL0     C23372  11.224   0.094   3.602  0.5422  0.8265 -0.3363
  170MOL0     N23373  11.216   0.949   3.916 -0.0742 -0.4547 -0.4321
  170MOL0     N23374  11.121   1.046   3.926  0.2146  0.2816 -0.7341
  170MOL0     C23375  10.100   1.762   3.658  0.0350 -0.8084 -0.0934
  170MOL0     C23376   9.973   1.804   3.661 -0.1756 -0.2200 -0.7679
  170MOL0     C23377   9.617   2.088   3.567  0.1275  1.2247  0.5576
  170MOL0     C23378   9.586   2.211   3.510  0.6421 -0.6518 -0.8008
  170MOL0     C23379   9.456   2.263   3.517  0.7785  0.2484  0.2114
  170MOL0     C23380   9.353   2.183   3.574  0.5228  0.0024  0.2815
  170MOL0     O23381   9.220   2.230   3.575  0.7061  0.1565 -0.6852
  170MOL0     C23382   9.154   2.266   3.702  0.6365 -0.1787 -0.2799
  170MOL0     C23383   9.013   2.299   3.688  0.7702 -0.0725 -0.0351
  170MOL0     C23384   8.938   2.329   3.827 -0.0163 -0.7071  1.2793
  170MOL0     C23385   8.804   2.403   3.814 -1.0498  0.8689  0.8491
  170MOL0     C23386   8.733   2.426   3.940 -0.1687 -0.2895 -0.4559
  170MOL0     C23387   8.670   2.447   4.040  0.0713  0.8039 -0.1369
  170MOL0     C23388   9.379   2.056   3.629  0.1443  0.3003 -0.6766
  170MOL0     C23389   9.510   2.014   3.623 -0.9230  0.3211  0.1525
  170MOL0     C23390   9.535   1.882   3.701  0.0595  0.0214 -1.1924
  170MOL0     H23391   9.916   1.901   3.346  0.9698  2.2578  0.1607
  170MOL0     H23392  10.146   1.806   3.314  4.0804 -0.9285  2.1455
  170MOL0     H23393  10.341   1.614   3.673  0.3810 -0.3108 -0.4551
  170MOL0     H23394  10.409   1.783   3.656 -3.2992 -0.7530  1.7061
  170MOL0     H23395  10.489   1.541   3.493 -1.2411  1.0816 -2.2174
  170MOL0     H23396  10.553   1.712   3.488 -1.7193  2.4504  2.0363
  170MOL0     H23397  10.711   1.623   3.611 -0.9554  0.2260 -2.0954
  170MOL0     H23398  10.597   1.667   3.743 -3.2068  1.2315 -0.8527
  170MOL0     H23399  10.517   1.427   3.752 -0.4705 -0.6870 -0.2161
  170MOL0     H23400  10.613   1.403   3.603 -2.3421 -0.0210 -0.3883
  170MOL0     H23401  10.754   1.475   3.862 -1.1712 -0.2349  0.6166
  170MOL0     H23402  10.817   1.409   3.702  0.0001 -1.8701 -0.1402
  170MOL0     H23403  10.673   1.241   3.912 -0.4388 -4.4756 -0.9119
  170MOL0     H23404  10.681   1.196   3.753  2.3800  1.4517 -1.0839
  170MOL0     H23405  10.917   1.269   3.938 -0.4028 -0.4622  0.5532
  170MOL0     H23406  10.936   1.222   3.763  0.1129  0.6666 -0.0524
  170MOL0     H23407  10.815   1.032   3.969 -3.6307 -1.0176 -2.5734
  170MOL0     H23408  10.817   1.017   3.795 -0.7650 -1.5987  1.4037
  170MOL0     H23409  10.950   0.807   3.786 -2.8094  2.4760 -0.1420
  170MOL0     H23410  11.176   0.642   3.919 -3.0862  0.8186 -0.6479
  170MOL0     H23411  11.324   0.732   3.877 -0.7564 -1.2644  1.0935
  170MOL0     H23412  11.104   0.663   3.667 -0.6385 -0.0307 -0.1740
  170MOL0     H23413  11.264   0.714   3.626 -0.9383 -2.6346 -2.4930
  170MOL0     H23414  11.361   0.523   3.752  0.1625  3.9240  0.1630
  170MOL0     H23415  11.191   0.465   3.777 -0.7255 -0.7352 -0.5823
  170MOL0     H23416  11.198   0.480   3.501 -1.4590 -1.3352 -0.1523
  170MOL0     H23417  11.376   0.491   3.539  0.7344 -3.7276  1.0388
  170MOL0     H23418  11.028   0.370   3.575 -1.2145 -0.0939 -1.2695
  170MOL0     H23419  10.753   0.153   3.596  0.6410 -2.0958 -1.0806
  170MOL0     H23420  10.795   0.230   3.448 -1.8636 -1.2979  0.4355
  170MOL0     H23421  10.816   0.321   3.591  0.5819 -0.4825  1.1586
  170MOL0     H23422  10.808  -0.294   3.355 -0.2985 -1.2685  2.2045
  170MOL0     H23423  10.612  -0.429   3.278 -1.8086 -0.2029 -1.3284
  170MOL0     H23424  10.409  -0.441   3.120  2.5912  2.1078  0.5062
  170MOL0     H23425  10.445  -0.540   3.262  0.9126  0.9096 -0.2478
  170MOL0     H23426  10.155  -0.490   3.162 -0.3906  0.2244  0.4422
  170MOL0     H23427  10.247  -0.639   3.133 -0.4443 -0.6001  0.0439
  170MOL0     H23428  10.241  -0.619   3.422 -0.5734 -3.0866 -0.3736
  170MOL0     H23429  10.169  -0.725   3.310 -2.8418 -0.0405 -0.8722
  170MOL0     H23430  10.024  -0.598   3.474  3.1912 -4.2788 -1.7509
  170MOL0     H23431   9.960  -0.579   3.310 -2.7862  0.3167  1.9964
  170MOL0     H23432  10.162  -0.378   3.445  1.2207 -0.3460 -0.6719
  170MOL0     H23433  10.071  -0.365   3.291  2.2080 -3.8038 -0.3014
  170MOL0     H23434   9.963  -0.370   3.593  1.6047 -0.8512  0.4481
  170MOL0     H23435   9.855  -0.392   3.471  1.7878 -2.8115  1.8136
  170MOL0     H23436   9.959  -0.151   3.381  2.0958  0.2989  1.0032
  170MOL0     H23437  10.020  -0.145   3.549  1.9564  1.1522 -1.1160
  170MOL0     H23438   9.806  -0.018   3.521  2.8702 -0.1698 -0.6330
  170MOL0     H23439   9.787  -0.159   3.641 -0.7464 -3.1792 -1.1429
  170MOL0     H23440  10.347  -0.111   3.416  0.8248  0.7370  1.1836
  170MOL0     H23441  10.535  -0.007   3.510  0.7986  0.7282 -1.5348
  170MOL0     H23442  11.165  -0.103   3.603 -0.3022 -0.4144  0.4513
  170MOL0     H23443  11.328   0.061   3.609  0.7532  1.3004 -1.1348
  170MOL0     H23444  10.137   1.718   3.751 -2.9228 -1.0249  1.0819
  170MOL0     H23445   9.912   1.801   3.751 -2.3546 -0.2911 -2.1833
  170MOL0     H23446   9.663   2.275   3.467  0.4845 -0.7178 -1.1876
  170MOL0     H23447   9.435   2.361   3.475  3.4307  1.1160  0.7057
  170MOL0     H23448   9.154   2.187   3.778 -2.3662  0.1913  0.2024
  170MOL0     H23449   9.203   2.350   3.752 -2.2910  1.3867  0.1474
  170MOL0     H23450   8.955   2.222   3.636 -1.3036  2.4853 -1.8301
  170MOL0     H23451   9.018   2.389   3.626  0.6024 -0.5930 -0.8188
  170MOL0     H23452   8.917   2.233   3.875 -2.6458 -0.9722 -0.2216
  170MOL0     H23453   8.997   2.394   3.892 -1.9565 -0.3506  2.7814
  170MOL0     H23454   8.740   2.339   3.753  0.9080 -0.9593  0.5899
  170MOL0     H23455   8.822   2.495   3.758  0.9370  0.5374  0.8587
  170MOL0     H23456   8.628   2.462   4.138  0.0782  0.1329 -0.0212
  170MOL0     H23457   9.296   1.990   3.653 -0.0312 -0.4229 -2.9929
  170MOL0     H23458   9.447   1.845   3.754  1.7913 -2.7772  0.0185
  170MOL0     H23459   9.564   1.803   3.630  0.1311  0.4856 -1.6943
  170MOL0     H23460   9.615   1.902   3.773 -1.3961 -1.1766  0.8417
  171MOL0     O23461  10.222   1.529   2.886  0.2324 -0.2599  0.3563
  171MOL0     C23462  10.159   1.616   2.947 -0.5607 -0.1906 -0.3733
  171MOL0     O23463  10.214   1.716   3.032  0.0780 -0.0461  0.6272
  171MOL0     C23464  10.351   1.694   3.057 -1.2194  0.4631  0.3562
  171MOL0     C23465  10.390   1.636   3.175  0.1205 -0.7566  0.0015
  171MOL0     C23466  10.522   1.606   3.200 -0.2543  0.3838 -0.7642
  171MOL0     C23467  10.625   1.633   3.107 -0.3883 -0.2710 -1.3929
  171MOL0     O23468  10.758   1.616   3.139 -0.4495 -0.4932 -1.1940
  171MOL0     C23469  10.783   1.485   3.199  0.0820 -0.5844  0.0669
  171MOL0     C23470  10.932   1.478   3.227  0.7688  0.1187  0.7153
  171MOL0     C23471  10.989   1.339   3.271 -0.0924 -1.2832 -1.0658
  171MOL0     C23472  10.940   1.315   3.422 -0.6792 -0.2789 -0.7308
  171MOL0     C23473  11.014   1.181   3.456 -0.2206  1.1328  0.4804
  171MOL0     C23474  11.169   1.207   3.488  0.2451 -0.2121  0.2168
  171MOL0     C23475  11.239   1.082   3.563 -0.6914 -0.4848  0.7021
  171MOL0     C23476  11.392   1.101   3.582 -0.1645  0.6443 -0.0986
  171MOL0     N23477  11.450   0.993   3.673  1.3618  0.3272 -0.9439
  171MOL0     C23478  11.511   1.022   3.798 -0.5122  0.0975 -0.2538
  171MOL0     C23479  11.574   0.900   3.824  0.5412 -0.3733  0.0521
  171MOL0     C23480  11.656   0.882   3.944  0.8348 -0.4036  0.0001
  171MOL0     C23481  11.776   0.976   3.968 -0.9540 -0.1606 -0.4462
  171MOL0     C23482  11.906   0.911   3.911 -0.0208 -0.5301 -0.5109
  171MOL0     C23483  12.036   0.983   3.954 -0.0461  0.7591  0.3333
  171MOL0     O23484  12.057   1.095   3.868 -0.5912  0.3095  0.0117
  171MOL0     C23485  12.181   1.087   3.808  0.1991  0.5988  0.2077
  171MOL0     C23486  12.280   1.181   3.843  0.0245  0.5081 -0.0662
  171MOL0     C23487  12.407   1.178   3.782  0.2439  0.0991 -0.4743
  171MOL0     C23488  12.511   1.262   3.846 -0.1713 -0.5243  0.1963
  171MOL0     C23489  12.437   1.080   3.675  0.6993 -1.5240  0.5280
  171MOL0     C23490  12.566   1.073   3.603 -0.0966 -0.6794  0.0011
  171MOL0     O23491  12.570   0.999   3.493  0.1643  0.0376 -0.0453
  171MOL0     C23492  12.685   1.025   3.410 -0.0321 -0.5360  0.3432
  171MOL0     C23493  12.679   1.096   3.296  0.4655  0.3055  0.6695
  171MOL0     C23494  12.791   1.115   3.219  0.2009 -0.1837  0.1019
  171MOL0     C23495  12.915   1.056   3.250  0.0498 -0.4161 -0.9647
  171MOL0     O23496  13.024   1.073   3.164  0.6783  0.6781  0.2946
  171MOL0     C23497  13.139   0.991   3.183  0.5687  0.1745 -0.0928
  171MOL0     C23498  13.237   1.009   3.070 -1.0583  0.1476  0.3088
  171MOL0     C23499  13.174   0.967   2.939 -0.1245 -0.0215 -0.4802
  171MOL0     C23500  13.260   0.982   2.815  0.8316  0.5345 -0.2772
  171MOL0     C23501  13.192   1.056   2.710  0.0393 -0.1705  0.0914
  171MOL0     C23502  13.267   1.068   2.578  0.2344 -0.2770  0.6156
  171MOL0     C23503  13.285   0.928   2.520  0.2635 -0.1550  0.5546
  171MOL0     C23504  13.339   0.939   2.383  0.3936  0.1468  0.3487
  171MOL0    Cl23505  13.524   0.982   2.411 -0.4183  0.3766 -0.3300
  171MOL0     C23506  12.911   0.973   3.362 -0.3144  0.0538 -0.6330
  171MOL0     C23507  12.807   0.966   3.450 -1.4083  0.7490  0.1502
  171MOL0     O23508  12.663   1.132   3.652  0.6882  0.0676 -0.0189
  171MOL0     C23509  12.335   0.992   3.645  0.1714  0.0997  0.8936
  171MOL0     C23510  12.207   0.998   3.701 -0.8453  0.0528  0.6640
  171MOL0     N23511  11.543   0.813   3.718  0.1877 -0.3706 -0.1096
  171MOL0     N23512  11.471   0.865   3.637  0.5067 -0.3257  0.5207
  171MOL0     C23513  10.590   1.693   2.987 -0.6751 -0.9999  0.1334
  171MOL0     C23514  10.458   1.719   2.963  0.7543  0.0205  0.2218
  171MOL0     C23515  10.013   1.615   2.927 -0.6040  0.6730  0.2330
  171MOL0     C23516   9.933   1.624   3.039  0.7359  0.5267  0.2559
  171MOL0     C23517   9.790   1.605   3.036  0.3477  0.4830  0.7581
  171MOL0     C23518   9.732   1.600   2.908 -0.3151 -0.5582  0.8032
  171MOL0     O23519   9.600   1.610   2.877 -0.5195  0.4713 -0.4867
  171MOL0     C23520   9.514   1.676   2.968  0.9502 -0.8242 -0.3751
  171MOL0     C23521   9.367   1.685   2.905 -1.0811  0.4000  0.2352
  171MOL0     C23522   9.323   1.542   2.869  0.2052 -0.2979 -0.3019
  171MOL0     C23523   9.186   1.530   2.791  0.7047  0.1620 -0.6191
  171MOL0     C23524   9.075   1.596   2.870  0.3167 -0.6112  0.0907
  171MOL0     C23525   8.975   1.647   2.921 -0.4042  0.4010  0.4600
  171MOL0     C23526   9.818   1.595   2.792  0.3467  0.2248 -0.5803
  171MOL0     C23527   9.954   1.606   2.800 -0.3210 -0.1050  0.6640
  171MOL0     C23528  10.026   1.620   2.666 -0.7932  0.7442 -0.0451
  171MOL0     H23529  10.325   1.600   3.254 -1.1310 -0.6938 -0.9610
  171MOL0     H23530  10.544   1.571   3.301 -1.5868  4.2343  1.0842
  171MOL0     H23531  10.768   1.416   3.115 -0.2923  0.2440 -0.5619
  171MOL0     H23532  10.725   1.468   3.290  0.0610  1.0665  0.3796
  171MOL0     H23533  10.987   1.495   3.134 -0.8838  0.7015 -0.2015
  171MOL0     H23534  10.959   1.554   3.300 -0.4944  1.1854  0.1008
  171MOL0     H23535  10.950   1.263   3.202 -0.5061  1.8924 -4.6565
  171MOL0     H23536  11.098   1.348   3.260  0.1689  2.6275  2.3802
  171MOL0     H23537  10.966   1.401   3.484 -0.7646 -0.8385  0.0983
  171MOL0     H23538  10.834   1.286   3.422 -0.7511 -0.0415 -0.1268
  171MOL0     H23539  10.996   1.106   3.379 -0.8044  0.6788  1.0391
  171MOL0     H23540  10.957   1.161   3.547  0.3979  2.4326  1.1852
  171MOL0     H23541  11.230   1.213   3.397 -0.1860  2.5208  0.0358
  171MOL0     H23542  11.181   1.296   3.550  3.5169  0.8366 -1.6570
  171MOL0     H23543  11.243   0.994   3.498 -0.3807 -0.6888  0.9952
  171MOL0     H23544  11.193   1.054   3.658 -0.2695 -3.0038  0.2399
  171MOL0     H23545  11.439   1.082   3.485 -0.7630 -1.1781 -0.0558
  171MOL0     H23546  11.415   1.205   3.608 -0.7213  0.7416  0.0150
  171MOL0     H23547  11.516   1.118   3.848  0.5085  1.7958 -3.3501
  171MOL0     H23548  11.674   0.778   3.972 -1.8998 -0.6416  1.2712
  171MOL0     H23549  11.592   0.927   4.021  0.1709  5.6274 -3.4835
  171MOL0     H23550  11.763   1.071   3.915  1.8829  0.4841 -0.1241
  171MOL0     H23551  11.806   0.996   4.071  0.7260 -0.4478 -0.8588
  171MOL0     H23552  11.904   0.810   3.952  2.3097 -0.7233 -0.7735
  171MOL0     H23553  11.902   0.906   3.801 -0.8448  2.1640 -0.6654
  171MOL0     H23554  12.045   1.018   4.058  3.1613  0.2598  0.3461
  171MOL0     H23555  12.121   0.915   3.941  0.8283  1.7245  0.7942
  171MOL0     H23556  12.248   1.253   3.917  1.0844  1.3570 -0.4173
  171MOL0     H23557  12.540   1.346   3.784 -0.9592 -0.3931 -0.0089
  171MOL0     H23558  12.598   1.204   3.880 -2.0411 -3.4030  0.4795
  171MOL0     H23559  12.460   1.303   3.934 -2.6222 -2.2844 -0.2876
  171MOL0     H23560  12.586   1.140   3.260  0.0569 -0.5651  0.6379
  171MOL0     H23561  12.780   1.178   3.131  1.8485  0.9415  0.6462
  171MOL0     H23562  13.192   1.018   3.275 -2.7008  0.5920  1.8652
  171MOL0     H23563  13.109   0.886   3.178  0.4191  0.2068  0.1087
  171MOL0     H23564  13.273   1.112   3.061  0.8044 -0.4131  0.9021
  171MOL0     H23565  13.323   0.946   3.093 -1.6895 -0.6934  0.3954
  171MOL0     H23566  13.082   1.024   2.923 -1.5924 -2.1795 -0.1944
  171MOL0     H23567  13.141   0.863   2.941  1.8671 -0.6977 -0.0258
  171MOL0     H23568  13.292   0.883   2.782 -0.2449  0.3371 -0.7704
  171MOL0     H23569  13.352   1.037   2.837  0.5016  1.0069 -0.0594
  171MOL0     H23570  13.091   1.018   2.696 -0.0174 -0.0472  0.1685
  171MOL0     H23571  13.171   1.160   2.739 -0.9231 -0.4949  0.5709
  171MOL0     H23572  13.360   1.118   2.608  1.9189 -2.2078 -1.1041
  171MOL0     H23573  13.207   1.136   2.516  0.0891 -0.0252  1.0260
  171MOL0     H23574  13.186   0.882   2.526 -0.3999  1.2662  0.9963
  171MOL0     H23575  13.357   0.867   2.576  1.3855 -0.2204 -0.9057
  171MOL0     H23576  13.294   1.021   2.327  0.0978 -0.8181 -0.8966
  171MOL0     H23577  13.317   0.842   2.336 -0.2407 -0.7804  2.4741
  171MOL0     H23578  12.992   0.905   3.384 -1.2241 -0.7275  0.4262
  171MOL0     H23579  12.824   0.909   3.541  0.3816  0.9030 -0.0597
  171MOL0     H23580  12.351   0.916   3.568  0.1199  0.2621  0.7233
  171MOL0     H23581  12.130   0.931   3.664 -0.8119 -0.5772  1.6733
  171MOL0     H23582  10.652   1.726   2.905 -2.4411  2.8384  0.0963
  171MOL0     H23583  10.421   1.752   2.867 -1.9218  1.2352  1.5831
  171MOL0     H23584   9.989   1.632   3.131 -0.7554  1.3926  1.1401
  171MOL0     H23585   9.732   1.584   3.125  0.1416  0.9708  0.7432
  171MOL0     H23586   9.513   1.636   3.069 -1.1415  2.8370  1.2597
  171MOL0     H23587   9.543   1.780   2.987  0.9461 -0.7174 -0.9246
  171MOL0     H23588   9.376   1.746   2.815  0.3207  0.4097  0.3547
  171MOL0     H23589   9.300   1.726   2.981  2.1889  0.3094  3.4521
  171MOL0     H23590   9.395   1.506   2.794  0.1711  0.6754 -0.8116
  171MOL0     H23591   9.315   1.484   2.961 -1.6773 -1.5799 -1.2057
  171MOL0     H23592   9.158   1.426   2.772  0.4700  0.0547  0.2603
  171MOL0     H23593   9.204   1.578   2.695 -1.4409 -0.3473 -1.3192
  171MOL0     H23594   8.892   1.692   2.971 -0.9152  0.9015 -0.7900
  171MOL0     H23595   9.767   1.594   2.696 -0.7638  3.2980 -0.1388
  171MOL0     H23596  10.050   1.518   2.638  0.3339 -0.0148  3.2533
  171MOL0     H23597   9.956   1.668   2.596 -0.3735 -1.4899 -2.1397
  171MOL0     H23598  10.117   1.681   2.671 -1.8581  2.3073  1.7006
  172MOL0     O23599   8.947   1.782   0.563 -0.5864  0.0234  0.4390
  172MOL0     C23600   8.941   1.732   0.450 -0.7643 -0.0662  0.2794
  172MOL0     O23601   9.040   1.737   0.359 -0.0661 -0.2707 -0.6978
  172MOL0     C23602   9.156   1.779   0.417 -0.6849 -0.5175  0.6871
  172MOL0     C23603   9.266   1.687   0.426 -0.1174 -0.6119 -0.3680
  172MOL0     C23604   9.393   1.736   0.460  0.8755  0.6760 -0.3923
  172MOL0     C23605   9.408   1.878   0.485  0.3212  1.0240  0.5605
  172MOL0     O23606   9.527   1.944   0.523 -0.0809 -0.2464  0.2726
  172MOL0     C23607   9.642   1.868   0.559 -0.0533  1.0180 -0.0855
  172MOL0     C23608   9.743   1.950   0.631 -0.4694 -0.0774  0.2432
  172MOL0     C23609   9.869   1.868   0.666  0.0108  0.0321  0.6944
  172MOL0     C23610   9.990   1.948   0.702 -0.3515 -0.0252 -0.4506
  172MOL0     C23611   9.984   2.025   0.837  0.1251 -0.6424  1.3336
  172MOL0     C23612  10.125   2.090   0.854  0.3850  0.3147  0.0775
  172MOL0     C23613  10.104   2.235   0.800 -0.1466  0.0177 -0.3105
  172MOL0     C23614  10.230   2.324   0.801 -0.3221 -0.0857  0.7831
  172MOL0     N23615  10.220   2.433   0.700  0.1105 -0.1058 -0.4627
  172MOL0     C23616  10.233   2.414   0.568  0.3145  0.1611  0.2936
  172MOL0     C23617  10.207   2.529   0.509 -0.4279  0.0974  0.1883
  172MOL0     C23618  10.199   2.569   0.366  0.3446  0.1143  0.7782
  172MOL0     C23619  10.052   2.562   0.313 -0.1258  0.7253  0.2695
  172MOL0     C23620  10.020   2.608   0.164 -0.6499  0.1364 -0.8520
  172MOL0     C23621  10.118   2.583   0.060 -0.6248  0.4506  0.2135
  172MOL0     O23622  10.120   2.438   0.016 -0.3727 -0.5282 -0.2863
  172MOL0     C23623  10.201   2.353   0.083 -0.1170  0.0921  1.1577
  172MOL0     C23624  10.339   2.351   0.056  0.1845  0.3010 -0.1896
  172MOL0     C23625  10.415   2.252   0.132  0.3088 -0.5793 -0.7019
  172MOL0     C23626  10.565   2.250   0.115  0.1391 -0.3111 -0.1601
  172MOL0     C23627  10.355   2.171   0.229  0.3836  0.2691 -0.3691
  172MOL0     C23628  10.440   2.074   0.312  0.4507  0.1187 -0.1778
  172MOL0     O23629  10.552   2.024   0.261  0.0316 -0.0399 -0.7103
  172MOL0     C23630  10.621   1.942   0.347 -1.0147  0.2323 -0.7250
  172MOL0     C23631  10.642   1.808   0.294  0.0659 -0.1322 -0.6483
  172MOL0     C23632  10.716   1.711   0.366 -0.9979  0.5258 -0.3464
  172MOL0     C23633  10.776   1.749   0.486 -0.6703  1.6920 -0.5633
  172MOL0     O23634  10.870   1.665   0.544 -0.1337  0.3545 -0.5333
  172MOL0     C23635  10.948   1.579   0.457  0.4725 -0.3241 -0.1172
  172MOL0     C23636  11.082   1.548   0.530  0.9024 -0.4609  0.1146
  172MOL0     C23637  11.178   1.673   0.535 -0.4691  0.2829  0.5308
  172MOL0     C23638  11.315   1.631   0.605  0.2234 -0.4125 -0.1100
  172MOL0     C23639  11.401   1.758   0.590 -0.1935  0.6558  0.6411
  172MOL0     C23640  11.456   1.765   0.447  0.3254 -0.0019 -0.0142
  172MOL0     C23641  11.542   1.897   0.441  0.7095  0.4080 -0.2233
  172MOL0     C23642  11.674   1.907   0.530  0.5621  0.2218 -0.5931
  172MOL0    Cl23643  11.771   2.039   0.459  0.1805 -0.3668 -0.8248
  172MOL0     C23644  10.743   1.872   0.543 -0.0380 -0.4162 -0.1617
  172MOL0     C23645  10.675   1.972   0.478  1.0267 -0.1842  0.3444
  172MOL0     O23646  10.397   2.044   0.423 -0.1147 -0.0303 -0.3991
  172MOL0     C23647  10.213   2.175   0.253  0.5479 -0.3652  0.1518
  172MOL0     C23648  10.142   2.271   0.179  0.2910 -0.0905  0.4577
  172MOL0     N23649  10.197   2.629   0.608  0.0150  0.1994 -0.0331
  172MOL0     N23650  10.195   2.569   0.726 -0.3702  0.5533 -0.3804
  172MOL0     C23651   9.302   1.965   0.475  0.0363  0.6424 -0.3830
  172MOL0     C23652   9.185   1.912   0.434 -0.2988 -0.1615 -1.3282
  172MOL0     C23653   8.819   1.676   0.394  0.6974 -1.0275 -0.4075
  172MOL0     C23654   8.795   1.689   0.255 -0.0766 -0.5292  0.1424
  172MOL0     C23655   8.687   1.632   0.188 -0.0182 -0.2130 -0.7964
  172MOL0     C23656   8.587   1.570   0.267 -0.5400 -0.2882 -0.9217
  172MOL0     O23657   8.476   1.514   0.210  0.4512 -0.5496 -0.6286
  172MOL0     C23658   8.398   1.621   0.146 -0.1218 -0.3294 -0.2411
  172MOL0     C23659   8.256   1.601   0.196  0.2703  0.0462  0.7337
  172MOL0     C23660   8.157   1.654   0.088 -0.4747  0.6128 -0.1729
  172MOL0     C23661   8.011   1.685   0.136  0.3909  0.1794 -0.7470
  172MOL0     C23662   7.917   1.571   0.109  0.0649 -0.6932  0.1929
  172MOL0     C23663   7.841   1.482   0.083 -0.1822  0.8192  0.8625
  172MOL0     C23664   8.601   1.570   0.411  1.1304 -0.2038 -0.5212
  172MOL0     C23665   8.714   1.617   0.477 -0.4330 -1.2062  0.6045
  172MOL0     C23666   8.740   1.580   0.616 -0.3380 -0.0175  0.3264
  172MOL0     H23667   9.243   1.583   0.406 -0.4442 -0.7328  0.6052
  172MOL0     H23668   9.470   1.660   0.473 -1.5123 -1.6320  1.2301
  172MOL0     H23669   9.680   1.833   0.462  1.4284 -0.6709  1.0480
  172MOL0     H23670   9.606   1.801   0.637 -0.7013  2.4657  0.9054
  172MOL0     H23671   9.776   2.036   0.572  0.1408 -0.2519  0.3259
  172MOL0     H23672   9.698   1.990   0.723 -2.5396 -0.3962 -0.5852
  172MOL0     H23673   9.846   1.797   0.746 -1.4121  1.6126  1.7550
  172MOL0     H23674   9.898   1.819   0.573  0.1167 -0.5691  1.0393
  172MOL0     H23675  10.076   1.881   0.714 -0.4945 -0.3698 -1.2792
  172MOL0     H23676  10.023   2.009   0.618 -2.1794 -0.8975 -1.8836
  172MOL0     H23677   9.964   1.961   0.923  1.1207 -2.0989  0.5340
  172MOL0     H23678   9.905   2.098   0.819  1.2209  0.8446  2.3473
  172MOL0     H23679  10.152   2.079   0.959  1.1322 -1.9935 -0.2910
  172MOL0     H23680  10.208   2.043   0.801  0.7064  1.7166 -0.7110
  172MOL0     H23681  10.023   2.279   0.859 -2.1194 -1.9642 -1.4139
  172MOL0     H23682  10.061   2.235   0.700 -1.7405 -0.1804  0.3600
  172MOL0     H23683  10.252   2.364   0.901 -1.9817  0.9194  0.7791
  172MOL0     H23684  10.311   2.257   0.773 -1.7497 -1.4611 -0.1848
  172MOL0     H23685  10.253   2.322   0.513 -0.6701  1.3667 -2.2175
  172MOL0     H23686  10.261   2.501   0.307 -1.9777 -1.9766  0.5868
  172MOL0     H23687  10.239   2.670   0.355  0.0338  0.0212 -1.7074
  172MOL0     H23688  10.015   2.459   0.312  0.6050  0.4533  0.6045
  172MOL0     H23689   9.985   2.616   0.380  0.2660  0.5762  0.7789
  172MOL0     H23690   9.926   2.569   0.126 -0.6102 -0.0453 -0.7633
  172MOL0     H23691  10.008   2.717   0.164 -2.1736 -0.0160 -1.6382
  172MOL0     H23692  10.076   2.629  -0.030  0.4496 -0.6615 -0.8928
  172MOL0     H23693  10.217   2.622   0.085 -1.2320  0.7093  2.4750
  172MOL0     H23694  10.386   2.420  -0.014  1.5731  0.3238  0.7049
  172MOL0     H23695  10.598   2.314   0.033  2.7925 -0.8679  0.3595
  172MOL0     H23696  10.598   2.152   0.080  1.5114  0.2805 -0.6307
  172MOL0     H23697  10.619   2.280   0.206  0.2427  0.2485 -0.3991
  172MOL0     H23698  10.599   1.791   0.196  2.9379 -0.6139 -1.9264
  172MOL0     H23699  10.724   1.615   0.316 -0.4352  1.0287 -1.2470
  172MOL0     H23700  10.887   1.487   0.457 -1.1825  0.7209 -1.2692
  172MOL0     H23701  10.961   1.626   0.359 -1.5948 -0.2089 -0.3843
  172MOL0     H23702  11.057   1.520   0.632  2.9714 -2.9380  0.0398
  172MOL0     H23703  11.135   1.464   0.485  0.6033 -1.3131  1.3234
  172MOL0     H23704  11.129   1.760   0.580  0.2493 -0.1632  2.2495
  172MOL0     H23705  11.195   1.705   0.432 -1.6229 -1.0011 -0.1048
  172MOL0     H23706  11.372   1.549   0.561  1.7808  1.8584 -2.5923
  172MOL0     H23707  11.292   1.627   0.712  3.1180  1.8459  0.7286
  172MOL0     H23708  11.342   1.849   0.605 -0.3140  1.2123 -2.5678
  172MOL0     H23709  11.487   1.750   0.657  0.7053 -0.3229 -0.5785
  172MOL0     H23710  11.378   1.754   0.370  0.5403 -1.4448 -0.0431
  172MOL0     H23711  11.522   1.681   0.424 -0.6980 -0.6526 -0.6845
  172MOL0     H23712  11.484   1.989   0.447 -0.6692 -0.4938  2.7971
  172MOL0     H23713  11.581   1.891   0.339  2.4654 -1.1030  0.4679
  172MOL0     H23714  11.733   1.816   0.518  0.0699 -0.0440 -0.9804
  172MOL0     H23715  11.639   1.935   0.630 -0.1081  0.3735 -0.8612
  172MOL0     H23716  10.790   1.884   0.640  2.3933 -3.4323 -0.8037
  172MOL0     H23717  10.658   2.069   0.523 -2.0810  0.1090 -1.1717
  172MOL0     H23718  10.163   2.109   0.324  1.3238  0.0833  1.1440
  172MOL0     H23719  10.036   2.290   0.189  0.5345  0.7954  1.6956
  172MOL0     H23720   9.312   2.073   0.482  2.1998  0.6369 -2.2107
  172MOL0     H23721   9.096   1.971   0.414 -1.6502 -2.2128 -1.6901
  172MOL0     H23722   8.868   1.748   0.201  0.1011 -0.2382  0.6949
  172MOL0     H23723   8.677   1.657   0.083 -0.7292  0.0851 -0.6611
  172MOL0     H23724   8.426   1.723   0.176 -0.1304 -0.5317  0.4588
  172MOL0     H23725   8.409   1.617   0.037  0.4118 -0.6289 -0.1799
  172MOL0     H23726   8.250   1.651   0.293  2.9182 -2.8343  2.5628
  172MOL0     H23727   8.232   1.494   0.203  1.9814 -0.8669 -3.7377
  172MOL0     H23728   8.193   1.739   0.030 -0.6619  1.3854  0.8259
  172MOL0     H23729   8.156   1.577   0.010  4.9135  0.1582 -0.1709
  172MOL0     H23730   7.980   1.773   0.079 -0.5227  0.6853  0.4948
  172MOL0     H23731   8.005   1.720   0.239 -0.2133 -0.1518 -0.6613
  172MOL0     H23732   7.762   1.414   0.059  3.1648 -2.7812 -1.0466
  172MOL0     H23733   8.519   1.521   0.462 -1.8655  3.7388 -1.1115
  172MOL0     H23734   8.697   1.481   0.636  1.2464 -1.0406 -1.0459
  172MOL0     H23735   8.847   1.559   0.614 -0.2046  0.6589 -1.2341
  172MOL0     H23736   8.715   1.644   0.701  0.4554 -0.0240  0.5658
  173MOL0     O23737   7.771   4.139   9.171  0.0578 -0.1660 -0.4220
  173MOL0     C23738   7.773   4.219   9.269 -0.0881 -0.5095  0.0898
  173MOL0     O23739   7.890   4.277   9.325  0.1587 -0.2973  0.0619
  173MOL0     C23740   8.012   4.233   9.291  0.0063  0.4466  0.2594
  173MOL0     C23741   8.100   4.332   9.284 -0.3615 -0.0994 -0.2626
  173MOL0     C23742   8.234   4.299   9.263 -0.2819 -0.2311  0.0935
  173MOL0     C23743   8.270   4.164   9.248 -0.5367 -0.2321  1.1867
  173MOL0     O23744   8.402   4.147   9.218  0.0722 -0.1592  0.6793
  173MOL0     C23745   8.436   4.014   9.240  0.5108 -0.6246  0.3312
  173MOL0     C23746   8.594   4.004   9.250 -0.2165  0.5867  0.3234
  173MOL0     C23747   8.654   4.044   9.384  0.0807  0.1885  0.3878
  173MOL0     C23748   8.796   4.068   9.374  0.2812 -0.4387  0.0617
  173MOL0     C23749   8.854   4.096   9.506 -0.2843  0.3651 -0.0137
  173MOL0     C23750   9.000   4.151   9.502  0.7824 -0.0887 -0.2643
  173MOL0     C23751   9.102   4.042   9.505 -0.6677 -0.6087 -0.3722
  173MOL0     C23752   9.248   4.103   9.482 -0.4313  0.1743 -0.0755
  173MOL0     N23753   9.346   4.011   9.531  0.0647  1.1438  0.1704
  173MOL0     C23754   9.427   3.923   9.451 -0.2815  0.9562 -0.1367
  173MOL0     C23755   9.514   3.864   9.535  0.0462 -0.3349  0.3411
  173MOL0     C23756   9.624   3.769   9.513  1.0005  0.5013  0.0511
  173MOL0     C23757   9.574   3.643   9.428 -0.0216 -0.8041 -0.3758
  173MOL0     C23758   9.679   3.547   9.397 -0.1272  0.6467  0.0429
  173MOL0     C23759   9.772   3.494   9.505  0.1759 -0.3541  0.3378
  173MOL0     O23760   9.876   3.590   9.529  0.3439 -0.2470  1.0036
  173MOL0     C23761   9.982   3.563   9.614 -0.3450 -0.8515 -0.5930
  173MOL0     C23762  10.000   3.437   9.678  0.2817  0.9222 -0.3811
  173MOL0     C23763  10.075   3.413   9.790  0.5359  0.6112 -0.1939
  173MOL0     C23764  10.079   3.273   9.850  0.0375 -0.5723  0.2900
  173MOL0     C23765  10.155   3.523   9.836 -0.3543  0.5837 -0.3272
  173MOL0     C23766  10.256   3.517   9.935  0.7130 -0.0804 -0.3521
  173MOL0     O23767  10.370   3.591   9.910  0.2060  0.6197  0.2056
  173MOL0     C23768  10.476   3.587   9.999  1.0135  0.1793 -0.5554
  173MOL0     C23769  10.511   3.484  10.085 -0.0996  0.3616  0.0589
  173MOL0     C23770  10.629   3.489  10.155 -0.2695  0.4125 -0.6262
  173MOL0     C23771  10.714   3.601  10.147 -0.4139  0.8208  0.4443
  173MOL0     O23772  10.823   3.636  10.217 -0.1081 -0.6110 -0.6926
  173MOL0     C23773  10.894   3.531  10.286 -0.0377  0.5593 -0.2448
  173MOL0     C23774  11.023   3.578  10.354 -0.8244 -0.8711 -0.7506
  173MOL0     C23775  11.124   3.613  10.232  0.4193  0.1807  0.9408
  173MOL0     C23776  11.250   3.664  10.296 -0.5860 -0.0868  0.2066
  173MOL0     C23777  11.356   3.704  10.189  0.1750 -0.3510 -0.2055
  173MOL0     C23778  11.380   3.603  10.075 -0.1877  0.9085 -0.5028
  173MOL0     C23779  11.485   3.654   9.981 -0.0668  0.0496  0.4745
  173MOL0     C23780  11.636   3.611  10.020  1.1504  0.3706 -0.1578
  173MOL0    Cl23781  11.720   3.574   9.876  0.0801  0.5570  0.0171
  173MOL0     C23782  10.679   3.709  10.065  0.3333  0.1684  0.3929
  173MOL0     C23783  10.553   3.699   9.989  0.0941  0.3285  0.4972
  173MOL0     O23784  10.219   3.476  10.047 -0.7223 -0.0147 -0.5385
  173MOL0     C23785  10.139   3.648   9.772 -0.1437  0.2491 -0.1971
  173MOL0     C23786  10.049   3.673   9.666 -0.1885 -0.5456  0.6379
  173MOL0     N23787   9.493   3.922   9.656  0.2837  0.3432 -0.2171
  173MOL0     N23788   9.405   4.010   9.651 -0.8544 -0.0899 -0.4910
  173MOL0     C23789   8.170   4.063   9.252 -0.1657 -0.1237  0.5927
  173MOL0     C23790   8.041   4.102   9.282 -0.6224  0.2663 -0.1178
  173MOL0     C23791   7.647   4.269   9.306 -0.0093  0.1067 -0.0999
  173MOL0     C23792   7.644   4.408   9.318  0.2206 -0.2868 -0.5676
  173MOL0     C23793   7.525   4.470   9.373  0.0865 -0.2640 -0.0130
  173MOL0     C23794   7.412   4.396   9.401 -0.7200  0.8316  0.0801
  173MOL0     O23795   7.294   4.457   9.435  0.2268  0.2681 -0.4074
  173MOL0     C23796   7.176   4.382   9.397  0.0445 -0.3255 -0.1703
  173MOL0     C23797   7.051   4.462   9.375 -0.1828 -0.8710 -1.5101
  173MOL0     C23798   6.998   4.541   9.503  0.9375  0.4000 -0.2607
  173MOL0     C23799   6.874   4.616   9.440 -0.1852 -0.5516  0.0140
  173MOL0     C23800   6.757   4.534   9.441 -1.1797  0.3124  0.8046
  173MOL0     C23801   6.654   4.472   9.454 -0.0906 -0.1439 -0.1406
  173MOL0     C23802   7.419   4.250   9.385 -0.2629 -0.2727  0.5704
  173MOL0     C23803   7.536   4.183   9.335 -0.7895 -0.6220 -0.0120
  173MOL0     C23804   7.545   4.032   9.320 -0.7712 -0.2026 -0.0275
  173MOL0     H23805   8.072   4.436   9.292  1.0210  0.1609  1.8825
  173MOL0     H23806   8.306   4.380   9.256 -1.0570  0.3914 -1.4238
  173MOL0     H23807   8.393   3.944   9.167  1.0363  0.7915 -1.4173
  173MOL0     H23808   8.402   3.981   9.338  1.0475 -0.7745  0.4688
  173MOL0     H23809   8.626   3.901   9.232 -0.1416  0.4312  1.2748
  173MOL0     H23810   8.637   4.068   9.172 -0.7872 -0.1685 -0.6282
  173MOL0     H23811   8.597   4.130   9.419 -1.3386 -0.2616 -0.7200
  173MOL0     H23812   8.659   3.965   9.460 -2.2209 -1.2747 -0.8576
  173MOL0     H23813   8.848   3.979   9.338  0.1702 -0.8330  0.8378
  173MOL0     H23814   8.821   4.150   9.306 -0.7466 -1.2442 -1.3239
  173MOL0     H23815   8.855   4.007   9.569  0.3237 -0.6512 -1.4285
  173MOL0     H23816   8.789   4.168   9.557 -0.3453 -0.7745  1.5914
  173MOL0     H23817   9.007   4.218   9.415  1.4525  0.4877  0.2282
  173MOL0     H23818   9.022   4.221   9.582 -1.4253 -0.6537  0.9456
  173MOL0     H23819   9.088   3.965   9.428  1.2838 -1.6586  0.2504
  173MOL0     H23820   9.108   4.000   9.606  0.7468  0.6080  0.0867
  173MOL0     H23821   9.277   4.128   9.379 -0.5640 -0.1358 -0.1905
  173MOL0     H23822   9.256   4.196   9.538  2.6116  0.4120 -0.7119
  173MOL0     H23823   9.430   3.906   9.344 -2.2255  1.0227 -0.2318
  173MOL0     H23824   9.665   3.734   9.608  0.9139 -1.5559 -0.6340
  173MOL0     H23825   9.703   3.805   9.447 -1.1792  0.8469 -2.5674
  173MOL0     H23826   9.490   3.601   9.484 -1.0605  2.0256  0.3540
  173MOL0     H23827   9.529   3.672   9.333  0.1247  0.6270 -0.0284
  173MOL0     H23828   9.621   3.466   9.352  2.4809 -1.1956 -0.2259
  173MOL0     H23829   9.740   3.578   9.311  2.6622 -2.1843  0.8285
  173MOL0     H23830   9.724   3.486   9.603 -0.2905 -0.9156  0.0670
  173MOL0     H23831   9.806   3.395   9.475 -1.2561 -0.3890 -1.3338
  173MOL0     H23832   9.953   3.362   9.615  0.9534  1.9077 -2.1419
  173MOL0     H23833  10.008   3.215   9.791 -0.2328 -2.5619  2.4520
  173MOL0     H23834  10.038   3.266   9.950 -0.2502 -1.3687  0.1237
  173MOL0     H23835  10.179   3.229   9.848  1.5097  2.4920 -0.2507
  173MOL0     H23836  10.455   3.393  10.106 -1.2850  0.9153 -0.5895
  173MOL0     H23837  10.657   3.402  10.213  0.3619  1.3666  0.5578
  173MOL0     H23838  10.831   3.486  10.364  1.5771  0.4231  1.0353
  173MOL0     H23839  10.909   3.450  10.215  0.3285  0.3497  0.0692
  173MOL0     H23840  11.007   3.671  10.411  1.3311 -0.3570 -0.9017
  173MOL0     H23841  11.053   3.503  10.429 -0.6979  1.9516  2.2634
  173MOL0     H23842  11.090   3.694  10.166  1.9303 -0.4741 -0.7153
  173MOL0     H23843  11.142   3.533  10.160  1.6604  0.8782  0.4378
  173MOL0     H23844  11.297   3.582  10.351  1.9572  0.8740 -0.3985
  173MOL0     H23845  11.216   3.744  10.362 -1.2152  0.8042 -1.1431
  173MOL0     H23846  11.338   3.804  10.149  0.4362  0.4714  1.6450
  173MOL0     H23847  11.451   3.715  10.242  1.0786 -2.4683 -1.2547
  173MOL0     H23848  11.290   3.590  10.014 -3.1006  3.0279  2.9608
  173MOL0     H23849  11.410   3.510  10.123  2.7455  2.4464  0.9130
  173MOL0     H23850  11.484   3.763   9.993  0.1216 -0.1673  3.0690
  173MOL0     H23851  11.477   3.614   9.880  2.3305 -0.9446  0.5991
  173MOL0     H23852  11.640   3.522  10.083 -2.6832  1.0118  1.2431
  173MOL0     H23853  11.686   3.694  10.072  1.2857  1.1458 -1.4706
  173MOL0     H23854  10.749   3.791  10.057 -1.1404  1.4723  0.2772
  173MOL0     H23855  10.517   3.785   9.934 -0.4063 -1.5600 -2.3859
  173MOL0     H23856  10.190   3.738   9.806  0.9798  0.5331 -2.4260
  173MOL0     H23857  10.050   3.772   9.622 -0.2507  0.1383  2.1090
  173MOL0     H23858   8.196   3.958   9.237  0.8676  0.4789 -2.7170
  173MOL0     H23859   7.961   4.030   9.295  2.4795 -3.5076 -0.1687
  173MOL0     H23860   7.731   4.465   9.285 -1.0000  0.6635 -2.3382
  173MOL0     H23861   7.516   4.577   9.388 -0.8878 -0.3331 -0.0687
  173MOL0     H23862   7.187   4.330   9.302  0.5273  0.9249 -0.8152
  173MOL0     H23863   7.170   4.305   9.475 -1.3121 -0.2459 -0.1623
  173MOL0     H23864   6.972   4.404   9.326 -1.0576 -1.4533  0.4964
  173MOL0     H23865   7.082   4.539   9.304 -2.0863  1.9096  0.4586
  173MOL0     H23866   6.960   4.469   9.576  2.2504 -0.9097 -0.8208
  173MOL0     H23867   7.068   4.614   9.544  0.2864  1.5641 -1.1402
  173MOL0     H23868   6.890   4.639   9.334 -2.8338 -2.0205 -0.8063
  173MOL0     H23869   6.848   4.698   9.507 -1.7198 -1.4369  0.5436
  173MOL0     H23870   6.569   4.407   9.467  0.4869 -0.5301  2.2388
  173MOL0     H23871   7.336   4.182   9.400 -3.1234  2.5585 -1.0895
  173MOL0     H23872   7.511   4.003   9.220 -2.3628  0.6293  0.2306
  173MOL0     H23873   7.642   3.997   9.356  0.0804  3.7179  2.1613
  173MOL0     H23874   7.471   3.987   9.387 -0.9164  0.0984  0.0177
  174MOL0     O23875   6.141  11.333   3.376  0.0604  0.4731  0.5799
  174MOL0     C23876   6.130  11.249   3.285  0.4994 -0.2086  0.4367
  174MOL0     O23877   6.239  11.203   3.206  0.2004  0.6873 -0.2191
  174MOL0     C23878   6.359  11.225   3.261  0.7575  0.9470 -0.2242
  174MOL0     C23879   6.442  11.320   3.207 -0.2531 -0.4230  1.1553
  174MOL0     C23880   6.576  11.339   3.256 -0.0560  0.7470  0.0625
  174MOL0     C23881   6.615  11.266   3.362 -0.2225 -0.6498 -0.4398
  174MOL0     O23882   6.735  11.312   3.420  0.3934  0.3499 -0.5065
  174MOL0     C23883   6.826  11.200   3.454 -0.2070 -0.3531  0.5989
  174MOL0     C23884   6.971  11.241   3.478 -0.6928 -0.7893  0.4034
  174MOL0     C23885   7.053  11.137   3.552  0.4987  0.1944  0.5834
  174MOL0     C23886   7.204  11.168   3.558 -0.1936  0.0432  0.1596
  174MOL0     C23887   7.238  11.295   3.636 -0.1287  0.4389  0.7402
  174MOL0     C23888   7.399  11.290   3.657  0.1296 -0.1194  0.3572
  174MOL0     C23889   7.464  11.420   3.721  0.2260 -0.3710  0.2132
  174MOL0     C23890   7.599  11.381   3.785  0.4778  0.8127  0.2917
  174MOL0     N23891   7.692  11.496   3.786  0.6305 -0.6103 -0.0062
  174MOL0     C23892   7.706  11.577   3.891 -0.9847  0.4854  0.8656
  174MOL0     C23893   7.807  11.666   3.854 -0.5764  0.3498 -0.5460
  174MOL0     C23894   7.858  11.768   3.949  0.0846  0.4672 -0.4823
  174MOL0     C23895   7.922  11.707   4.080  0.0772  0.1288  0.4187
  174MOL0     C23896   7.924  11.797   4.204 -0.4574  0.1250  0.1923
  174MOL0     C23897   8.015  11.737   4.312 -0.3395 -0.4622 -0.9422
  174MOL0     O23898   8.149  11.784   4.305  0.0580 -0.4896  0.5380
  174MOL0     C23899   8.180  11.914   4.347 -0.3040  0.1304  0.3456
  174MOL0     C23900   8.105  12.015   4.405  0.2901  0.4139  0.3613
  174MOL0     C23901   8.159  12.138   4.458  0.1842 -0.5578  0.0730
  174MOL0     C23902   8.051  12.234   4.526 -0.0071  0.0966 -0.1720
  174MOL0     C23903   8.293  12.170   4.446  0.6295 -0.3807 -0.4641
  174MOL0     C23904   8.351  12.307   4.495 -0.2387  0.6566 -0.2089
  174MOL0     O23905   8.479  12.300   4.534 -0.2758 -0.0613 -0.1132
  174MOL0     C23906   8.548  12.424   4.533 -1.3618 -0.1462 -0.3420
  174MOL0     C23907   8.646  12.464   4.433  1.0032 -0.0419 -0.8751
  174MOL0     C23908   8.712  12.583   4.437 -0.0789 -0.8267 -0.0769
  174MOL0     C23909   8.706  12.677   4.544 -0.2426  0.0273 -0.1785
  174MOL0     O23910   8.782  12.789   4.542 -0.2262 -0.2211  0.5457
  174MOL0     C23911   8.770  12.887   4.653  0.3474  1.2189  0.3665
  174MOL0     C23912   8.878  12.991   4.628  0.1517 -0.6053  0.2702
  174MOL0     C23913   9.015  12.931   4.634 -1.1990  0.2828 -0.9206
  174MOL0     C23914   9.123  13.036   4.673 -0.3430  0.1375 -0.5226
  174MOL0     C23915   9.129  13.082   4.814  0.0824 -0.4126 -0.4364
  174MOL0     C23916   9.222  13.201   4.850 -0.1477 -1.2435  0.1645
  174MOL0     C23917   9.231  13.226   5.004 -0.3531 -0.0989 -0.3550
  174MOL0     C23918   9.349  13.306   5.040  0.2052  0.3266 -0.3459
  174MOL0    Cl23919   9.373  13.295   5.216  0.2957  0.6249 -0.4775
  174MOL0     C23920   8.610  12.639   4.646 -0.0764 -1.3344  0.0999
  174MOL0     C23921   8.551  12.509   4.650  0.0331  0.0587 -0.5567
  174MOL0     O23922   8.280  12.406   4.511 -0.2553 -0.8151  0.7930
  174MOL0     C23923   8.368  12.071   4.381  0.1215 -0.5462 -0.0450
  174MOL0     C23924   8.316  11.947   4.328  0.1109 -0.7510 -0.5342
  174MOL0     N23925   7.855  11.630   3.732 -0.6315  0.7456  0.4022
  174MOL0     N23926   7.782  11.531   3.691  0.1547 -0.9267  0.8010
  174MOL0     C23927   6.534  11.165   3.417  0.1914  0.3545  0.5438
  174MOL0     C23928   6.406  11.144   3.370  0.1884  0.0693 -0.2562
  174MOL0     C23929   5.999  11.205   3.219  0.2497  0.5055 -0.6616
  174MOL0     C23930   5.989  11.211   3.080 -0.1107  0.2723  0.0695
  174MOL0     C23931   5.876  11.181   3.014  0.2869 -0.1556 -0.1216
  174MOL0     C23932   5.763  11.133   3.082  0.3668  0.4030  0.3923
  174MOL0     O23933   5.662  11.067   3.016 -0.1064 -0.1981 -0.2999
  174MOL0     C23934   5.520  11.117   3.028 -0.1248  0.1587 -0.6958
  174MOL0     C23935   5.432  11.035   2.942  0.8295  0.3290  0.5268
  174MOL0     C23936   5.446  11.068   2.794 -0.2572  0.2647  0.3177
  174MOL0     C23937   5.323  10.997   2.732 -0.2292 -0.5410 -0.4554
  174MOL0     C23938   5.206  11.073   2.767  0.0720 -0.1752  0.0286
  174MOL0     C23939   5.100  11.130   2.786 -0.4391  0.7157  0.2285
  174MOL0     C23940   5.765  11.129   3.222 -0.4031 -0.0812 -0.0888
  174MOL0     C23941   5.878  11.178   3.293 -0.4300  0.0681  0.5769
  174MOL0     C23942   5.871  11.179   3.441  0.3829 -0.2405 -0.4660
  174MOL0     H23943   6.417  11.376   3.117  1.3350 -0.9204  0.3584
  174MOL0     H23944   6.646  11.403   3.204  0.6233 -3.2449 -4.7715
  174MOL0     H23945   6.829  11.126   3.373  2.3538  1.6451 -1.2912
  174MOL0     H23946   6.798  11.142   3.543 -2.0329 -0.6434 -0.1104
  174MOL0     H23947   7.012  11.260   3.378 -1.2403 -0.4020  0.2480
  174MOL0     H23948   6.967  11.329   3.543  0.8756 -1.2555  1.1792
  174MOL0     H23949   7.007  11.122   3.649 -1.7171 -3.1913 -0.7956
  174MOL0     H23950   7.048  11.044   3.495  3.8684 -0.7722  1.6412
  174MOL0     H23951   7.242  11.085   3.618 -1.0809  0.1517  0.9059
  174MOL0     H23952   7.254  11.170   3.460  0.3518 -1.7870  0.3598
  174MOL0     H23953   7.180  11.314   3.727 -1.4808  3.4323 -0.6258
  174MOL0     H23954   7.219  11.384   3.575 -1.0880 -0.1212  0.2049
  174MOL0     H23955   7.424  11.203   3.718 -1.5610  1.1621  3.1240
  174MOL0     H23956   7.450  11.286   3.560  1.2714  1.1633  0.8685
  174MOL0     H23957   7.393  11.449   3.800 -0.3585 -3.5466  0.9710
  174MOL0     H23958   7.487  11.500   3.651  2.0269 -0.0521  1.1025
  174MOL0     H23959   7.592  11.342   3.887 -1.4992  0.1039 -0.0583
  174MOL0     H23960   7.637  11.295   3.730 -1.9334  1.0636 -1.9561
  174MOL0     H23961   7.648  11.570   3.983 -5.4119  1.6362 -1.5428
  174MOL0     H23962   7.772  11.818   3.996  0.0444  1.3949 -1.5159
  174MOL0     H23963   7.926  11.842   3.908  2.1552 -2.3293 -2.4851
  174MOL0     H23964   7.875  11.611   4.103  1.3226 -1.2845 -2.3479
  174MOL0     H23965   8.024  11.681   4.048 -0.5611 -2.3067  0.1776
  174MOL0     H23966   7.940  11.903   4.184  0.2922  0.0376  0.2922
  174MOL0     H23967   7.823  11.790   4.244 -1.7625 -2.2958 -3.0835
  174MOL0     H23968   7.976  11.776   4.406 -0.6875 -1.2951 -0.7244
  174MOL0     H23969   8.011  11.628   4.323 -0.2196 -0.2912  1.0130
  174MOL0     H23970   8.000  11.992   4.413  0.3165  0.2280  0.1948
  174MOL0     H23971   8.045  12.331   4.477 -1.5219 -0.2571 -0.7499
  174MOL0     H23972   8.072  12.252   4.632 -3.0335  0.9835  0.3678
  174MOL0     H23973   7.954  12.184   4.513  1.8272 -3.0953 -3.8524
  174MOL0     H23974   8.651  12.389   4.354 -2.2705 -0.5544 -0.7463
  174MOL0     H23975   8.769  12.613   4.350 -4.6589 -1.2983 -3.6111
  174MOL0     H23976   8.670  12.931   4.646 -0.4788 -0.6008  0.0476
  174MOL0     H23977   8.791  12.841   4.750 -1.1067 -0.1471  0.0771
  174MOL0     H23978   8.851  13.025   4.528  0.6850  0.8297  0.5988
  174MOL0     H23979   8.863  13.069   4.703 -2.1643  1.0320 -1.7513
  174MOL0     H23980   9.029  12.894   4.532 -1.1951 -0.3226 -0.7055
  174MOL0     H23981   9.005  12.845   4.701 -1.2592  1.4064  0.5688
  174MOL0     H23982   9.104  13.127   4.615  0.5936  0.5774 -0.1587
  174MOL0     H23983   9.223  12.997   4.653 -0.9445 -2.5794  1.2119
  174MOL0     H23984   9.027  13.086   4.854  0.0516 -2.5697 -0.1686
  174MOL0     H23985   9.184  13.004   4.867  0.9963  0.3929 -0.1758
  174MOL0     H23986   9.175  13.286   4.801  1.5645 -0.8108 -0.7917
  174MOL0     H23987   9.315  13.181   4.797 -1.3681 -0.5983 -2.3648
  174MOL0     H23988   9.249  13.130   5.052  1.2937 -0.3383 -1.3786
  174MOL0     H23989   9.139  13.272   5.042 -0.2239 -1.6149  1.9631
  174MOL0     H23990   9.330  13.408   5.007 -2.0193  0.3318  0.7511
  174MOL0     H23991   9.431  13.248   4.995 -0.4231 -1.6829  0.9337
  174MOL0     H23992   8.606  12.692   4.740  3.8754 -3.1376  1.5038
  174MOL0     H23993   8.481  12.497   4.732 -0.0065 -3.8009 -0.9698
  174MOL0     H23994   8.476  12.081   4.388  0.1333 -1.8367  5.0496
  174MOL0     H23995   8.387  11.877   4.284  1.7168  1.1904 -1.1951
  174MOL0     H23996   6.559  11.115   3.509  0.2940  2.2849  1.6164
  174MOL0     H23997   6.339  11.071   3.414 -2.4923  2.6935  0.3347
  174MOL0     H23998   6.076  11.227   3.018 -1.2567  0.2589 -1.6270
  174MOL0     H23999   5.876  11.193   2.906  1.6274  0.4968 -0.0747
  174MOL0     H24000   5.481  11.111   3.130 -0.7238 -3.9123 -1.0193
  174MOL0     H24001   5.517  11.224   3.003  0.6825 -0.3099 -2.9869
  174MOL0     H24002   5.337  11.075   2.978  1.1277  0.5323  1.0958
  174MOL0     H24003   5.445  10.926   2.949 -3.2669 -0.6519 -2.7267
  174MOL0     H24004   5.445  11.173   2.763  1.9471 -0.4803 -2.7229
  174MOL0     H24005   5.538  11.025   2.755 -0.0131  1.4656 -0.4909
  174MOL0     H24006   5.312  10.895   2.771  2.8053 -0.5552  0.5868
  174MOL0     H24007   5.346  10.993   2.625  0.1609 -2.8145 -0.3276
  174MOL0     H24008   4.998  11.160   2.800 -0.6193 -0.5585  2.2312
  174MOL0     H24009   5.684  11.067   3.259 -0.8190 -0.6620 -1.8719
  174MOL0     H24010   5.886  11.281   3.478 -2.1436  0.5694 -1.4649
  174MOL0     H24011   5.767  11.149   3.459  0.2652 -0.7728 -1.8709
  174MOL0     H24012   5.947  11.113   3.485 -0.7269 -0.7811  0.6973
  175MOL0     O24013   4.589  10.632   5.936  0.1870 -0.7278  0.2017
  175MOL0     C24014   4.602  10.616   6.059  0.0471 -0.8810  0.8830
  175MOL0     O24015   4.507  10.566   6.143 -0.0529  0.2741 -0.0299
  175MOL0     C24016   4.380  10.554   6.102  1.2075 -0.0810 -0.6985
  175MOL0     C24017   4.330  10.435   6.041 -0.5038  0.2760  0.8079
  175MOL0     C24018   4.196  10.422   6.007 -0.1088  0.2077  1.2261
  175MOL0     C24019   4.098  10.521   6.033  0.5962  0.4357  0.5457
  175MOL0     O24020   3.973  10.491   5.991  0.0872  0.1141  0.0232
  175MOL0     C24021   3.855  10.576   6.021 -0.0366  0.2971  0.5484
  175MOL0     C24022   3.726  10.494   6.023 -0.8680 -0.1829  0.6624
  175MOL0     C24023   3.716  10.424   5.888  0.9421  0.5545  0.4404
  175MOL0     C24024   3.579  10.356   5.876  0.6829 -0.1201  1.0243
  175MOL0     C24025   3.565  10.252   5.764 -0.6138 -0.0500  0.4253
  175MOL0     C24026   3.586  10.314   5.625  0.1314  0.3914 -0.2605
  175MOL0     C24027   3.486  10.431   5.586 -0.2579  0.0858 -0.6268
  175MOL0     C24028   3.507  10.488   5.447 -0.5696  0.5486  1.3561
  175MOL0     N24029   3.638  10.560   5.427  0.1955 -0.3222  0.0947
  175MOL0     C24030   3.691  10.632   5.529 -0.9807  0.0215 -0.2402
  175MOL0     C24031   3.827  10.621   5.509 -1.0941 -1.6330  0.3929
  175MOL0     C24032   3.946  10.650   5.592 -0.5299  0.1860  0.2278
  175MOL0     C24033   4.084  10.665   5.519  0.8569  0.1026  0.6398
  175MOL0     C24034   4.202  10.624   5.603 -0.2030  0.5393  0.5991
  175MOL0     C24035   4.215  10.682   5.742  0.0436  0.1127 -0.1483
  175MOL0     O24036   4.192  10.824   5.752 -0.1563 -0.0175 -0.3657
  175MOL0     C24037   4.304  10.912   5.725 -0.5261  0.6138 -0.0444
  175MOL0     C24038   4.272  11.040   5.676 -0.6080 -0.0450 -0.4510
  175MOL0     C24039   4.376  11.126   5.645  0.0700 -0.7642  1.1080
  175MOL0     C24040   4.325  11.273   5.607 -0.3221  1.3707 -0.3735
  175MOL0     C24041   4.511  11.097   5.654 -0.2037  0.9135  0.3303
  175MOL0     C24042   4.631  11.188   5.637  0.6842 -0.0297  0.9144
  175MOL0     O24043   4.755  11.136   5.649 -0.4571  0.5178 -0.6655
  175MOL0     C24044   4.865  11.213   5.622  0.3355  0.1309 -0.1512
  175MOL0     C24045   4.969  11.212   5.718  0.5685 -1.2717 -0.0594
  175MOL0     C24046   5.087  11.277   5.690  0.1793  0.3653 -0.4146
  175MOL0     C24047   5.098  11.352   5.570 -0.3515  0.1207  0.3297
  175MOL0     O24048   5.206  11.427   5.539 -1.3894 -0.1418  0.1950
  175MOL0     C24049   5.335  11.414   5.609 -0.0073 -0.7191 -0.4618
  175MOL0     C24050   5.445  11.478   5.525 -0.3830 -0.0470  0.5820
  175MOL0     C24051   5.508  11.390   5.422  0.2443  0.0549  0.2460
  175MOL0     C24052   5.580  11.488   5.325  0.3770 -0.0359 -1.0141
  175MOL0     C24053   5.700  11.398   5.281 -1.3735  0.5835 -0.9836
  175MOL0     C24054   5.797  11.466   5.183 -0.0683 -0.4750  0.0322
  175MOL0     C24055   5.741  11.590   5.122  0.8424 -1.3050  1.4782
  175MOL0     C24056   5.849  11.658   5.026 -0.3589  0.4331 -0.2754
  175MOL0    Cl24057   5.938  11.552   4.913  0.5637 -0.2740  0.4904
  175MOL0     C24058   4.992  11.356   5.482  0.0443 -0.2723 -0.1298
  175MOL0     C24059   4.885  11.281   5.500  0.2868 -0.0970 -0.5533
  175MOL0     O24060   4.611  11.308   5.613 -0.1785 -0.1542 -0.7024
  175MOL0     C24061   4.537  10.958   5.689  0.0291  0.2458  0.4988
  175MOL0     C24062   4.438  10.876   5.735  0.9607  0.0907  0.2014
  175MOL0     N24063   3.852  10.554   5.392  0.1373  0.2995  0.1265
  175MOL0     N24064   3.739  10.519   5.339 -0.2665 -0.4981  0.2066
  175MOL0     C24065   4.151  10.649   6.084  0.1698  0.1120  0.0545
  175MOL0     C24066   4.290  10.665   6.115  0.7628  0.2848  0.0967
  175MOL0     C24067   4.731  10.666   6.114 -0.2481 -0.0781  0.0565
  175MOL0     C24068   4.744  10.675   6.251 -0.1654 -0.4852 -0.3789
  175MOL0     C24069   4.860  10.716   6.316  0.0031  0.5197  0.2852
  175MOL0     C24070   4.975  10.739   6.244 -0.5755 -0.0855 -0.5098
  175MOL0     O24071   5.089  10.782   6.301 -0.1251 -0.9968 -0.1790
  175MOL0     C24072   5.109  10.803   6.440  0.5580  0.4257 -0.0293
  175MOL0     C24073   5.257  10.782   6.486  0.3607 -1.0453 -0.0243
  175MOL0     C24074   5.348  10.914   6.484  0.0098 -0.2304  0.7577
  175MOL0     C24075   5.496  10.904   6.536  0.5415  0.2454 -0.3355
  175MOL0     C24076   5.580  11.007   6.489 -0.9319  0.2820  0.1137
  175MOL0     C24077   5.634  11.115   6.467  0.4682  0.0745  0.1618
  175MOL0     C24078   4.969  10.734   6.108  0.4221  0.3867  0.0508
  175MOL0     C24079   4.850  10.700   6.033  0.8944 -0.3650  0.9965
  175MOL0     C24080   4.859  10.703   5.876 -0.1260 -0.0112  0.9059
  175MOL0     H24081   4.394  10.350   6.021  0.5058  1.0288  0.7191
  175MOL0     H24082   4.170  10.324   5.966 -0.0866  0.7563 -0.1664
  175MOL0     H24083   3.860  10.666   5.959  2.1460  0.8191  1.3649
  175MOL0     H24084   3.868  10.597   6.128  0.3888 -1.7077  0.9176
  175MOL0     H24085   3.731  10.434   6.114  4.0198  1.8120  2.0248
  175MOL0     H24086   3.645  10.566   6.035 -0.5123  0.3861 -0.2214
  175MOL0     H24087   3.749  10.491   5.807  0.4906  0.8209  0.4724
  175MOL0     H24088   3.782  10.337   5.889  0.1752 -0.0371  0.7763
  175MOL0     H24089   3.546  10.319   5.974 -0.4400 -1.2698  0.2406
  175MOL0     H24090   3.495  10.424   5.859 -0.7009 -1.9293  0.3519
  175MOL0     H24091   3.464  10.211   5.752 -1.9534  3.3909 -1.2863
  175MOL0     H24092   3.641  10.175   5.779  0.3628  0.6284 -0.8932
  175MOL0     H24093   3.690  10.346   5.616  0.1024  0.2742 -1.0880
  175MOL0     H24094   3.579  10.236   5.549  1.1202 -1.7950  1.7546
  175MOL0     H24095   3.489  10.509   5.663  1.4665 -0.1309 -0.4421
  175MOL0     H24096   3.384  10.392   5.591  0.4968 -2.2636 -2.0386
  175MOL0     H24097   3.506  10.415   5.365  0.4917  1.6823  0.2850
  175MOL0     H24098   3.430  10.564   5.439 -1.4142 -0.2493  1.7205
  175MOL0     H24099   3.647  10.679   5.617  0.5598  2.1648 -0.5164
  175MOL0     H24100   3.934  10.581   5.676 -2.2286  3.1451  2.6130
  175MOL0     H24101   3.938  10.750   5.635 -0.0920  0.5977 -0.6258
  175MOL0     H24102   4.078  10.618   5.421  1.5357  1.3454 -0.0219
  175MOL0     H24103   4.084  10.768   5.482  0.7333  0.7948  2.4561
  175MOL0     H24104   4.194  10.515   5.615 -0.3183  0.7522  2.9451
  175MOL0     H24105   4.289  10.653   5.544 -0.7562  2.3511  0.6194
  175MOL0     H24106   4.143  10.641   5.813 -1.2197 -0.4077 -1.6798
  175MOL0     H24107   4.317  10.668   5.779  0.7305  2.3000 -1.0387
  175MOL0     H24108   4.165  11.060   5.667 -0.6924 -0.2587  0.0404
  175MOL0     H24109   4.357  11.329   5.695 -0.6360  1.5014 -0.3414
  175MOL0     H24110   4.216  11.270   5.595 -0.6878 -0.2165  2.5278
  175MOL0     H24111   4.372  11.307   5.515 -0.1308  1.2735 -0.3116
  175MOL0     H24112   4.963  11.154   5.809  1.7680 -0.0257  0.8426
  175MOL0     H24113   5.163  11.274   5.767 -3.0166 -0.0846  3.0426
  175MOL0     H24114   5.315  11.472   5.700 -0.3665  0.4360 -1.2462
  175MOL0     H24115   5.369  11.314   5.636  4.6288  0.8402  0.3536
  175MOL0     H24116   5.404  11.577   5.502  1.0530  0.6704  0.9939
  175MOL0     H24117   5.526  11.498   5.596  0.6817 -2.8945  0.2892
  175MOL0     H24118   5.434  11.334   5.364  1.3552 -1.2850  0.0527
  175MOL0     H24119   5.568  11.319   5.480  0.4867 -0.1616 -0.2546
  175MOL0     H24120   5.610  11.574   5.384  1.0804 -1.3692  0.6398
  175MOL0     H24121   5.523  11.531   5.242  0.2234  0.9107 -0.4303
  175MOL0     H24122   5.741  11.347   5.368 -0.8590 -1.7424 -2.5059
  175MOL0     H24123   5.655  11.315   5.226  0.5204 -0.2385 -1.3488
  175MOL0     H24124   5.844  11.391   5.119  0.9514 -1.8892  2.3153
  175MOL0     H24125   5.876  11.500   5.250  1.8006 -2.7034 -0.9065
  175MOL0     H24126   5.722  11.659   5.205  1.8738  1.5449 -0.4667
  175MOL0     H24127   5.651  11.563   5.066  2.2417 -0.2787 -1.5076
  175MOL0     H24128   5.917  11.723   5.083 -2.4281  1.0414  1.6456
  175MOL0     H24129   5.788  11.720   4.960  0.9314  1.0489 -0.9288
  175MOL0     H24130   5.001  11.422   5.397 -0.6774 -0.5342 -0.4170
  175MOL0     H24131   4.800  11.281   5.433  0.7500 -0.8819 -1.1636
  175MOL0     H24132   4.639  10.924   5.700 -0.0498 -0.2127 -0.1392
  175MOL0     H24133   4.474  10.777   5.763 -1.3497 -0.1677  2.6325
  175MOL0     H24134   4.087  10.733   6.109 -2.3690 -0.7288 -2.9993
  175MOL0     H24135   4.308  10.757   6.169  0.4013  0.8303 -0.6790
  175MOL0     H24136   4.657  10.658   6.312  0.0517 -2.2363 -0.5049
  175MOL0     H24137   4.868  10.738   6.422  0.8880 -0.1937  0.3886
  175MOL0     H24138   5.058  10.894   6.473  0.0234 -0.1275  0.6817
  175MOL0     H24139   5.057  10.722   6.491 -0.1106  1.9755  1.8979
  175MOL0     H24140   5.316  10.700   6.445  1.6627 -1.4197  2.4311
  175MOL0     H24141   5.253  10.752   6.591  4.6805  1.8617  1.2443
  175MOL0     H24142   5.372  10.951   6.384  2.4824  0.7582  1.6528
  175MOL0     H24143   5.296  11.000   6.527 -0.2521 -0.0926  0.1693
  175MOL0     H24144   5.533  10.803   6.521  0.7312  0.1180  0.8494
  175MOL0     H24145   5.507  10.915   6.645  2.4188  1.7950 -0.6262
  175MOL0     H24146   5.677  11.210   6.442  1.7338 -0.0433  1.7253
  175MOL0     H24147   5.053  10.764   6.045 -0.7681  1.9299 -0.8789
  175MOL0     H24148   4.818  10.610   5.835 -0.1282  0.7972 -1.0328
  175MOL0     H24149   4.792  10.775   5.827  0.3529 -0.3464 -0.2887
  175MOL0     H24150   4.963  10.709   5.842  0.6090 -1.9266  2.6269
  176MOL0     O24151   8.822   4.556   1.091 -0.2379  0.0453  0.5560
  176MOL0     C24152   8.856   4.556   1.203 -0.4820  0.5887 -0.0455
  176MOL0     O24153   8.911   4.439   1.260  0.4539 -0.1226  0.7307
  176MOL0     C24154   8.942   4.333   1.178 -0.5638 -0.1125  0.0147
  176MOL0     C24155   9.078   4.311   1.139  0.1641  0.8762 -0.5955
  176MOL0     C24156   9.118   4.207   1.051 -0.0560 -0.4447 -0.3047
  176MOL0     C24157   9.028   4.117   0.996  0.0259  0.0951  0.4840
  176MOL0     O24158   9.076   4.021   0.908 -0.0276  0.1308 -0.6593
  176MOL0     C24159   8.998   3.908   0.887 -0.5230 -0.2776  0.7058
  176MOL0     C24160   9.082   3.792   0.815 -0.8209  0.2912 -0.4013
  176MOL0     C24161   9.125   3.840   0.680  0.2261  0.3852 -0.1559
  176MOL0     C24162   9.224   3.747   0.605  0.1975 -0.2754  0.7517
  176MOL0     C24163   9.370   3.774   0.627  0.2918 -0.2136  0.2310
  176MOL0     C24164   9.460   3.680   0.547  0.0602  0.3437 -0.4507
  176MOL0     C24165   9.600   3.739   0.544  0.7139  1.0272  0.2397
  176MOL0     C24166   9.663   3.716   0.683  0.2311 -0.7924  1.4212
  176MOL0     N24167   9.797   3.771   0.678 -0.4663 -0.2582  0.0081
  176MOL0     C24168   9.854   3.833   0.784 -0.3614 -0.4676  0.3278
  176MOL0     C24169   9.975   3.880   0.740 -0.1750 -0.3787  0.6573
  176MOL0     C24170  10.066   3.984   0.799 -0.6807 -0.1610  0.2228
  176MOL0     C24171  10.222   3.949   0.780  0.2685  0.4517 -0.7632
  176MOL0     C24172  10.312   4.053   0.849 -0.5194 -0.6559  0.1950
  176MOL0     C24173  10.465   4.029   0.823  0.5591 -0.3724  0.7567
  176MOL0     O24174  10.496   3.895   0.866 -0.0358  0.4014  0.3673
  176MOL0     C24175  10.630   3.873   0.885 -0.3793  1.1069 -0.5022
  176MOL0     C24176  10.675   3.780   0.973 -0.0982  0.4541 -0.1813
  176MOL0     C24177  10.808   3.748   0.989  0.8062 -1.0632 -0.2675
  176MOL0     C24178  10.852   3.654   1.096 -0.0204 -0.5787 -0.0635
  176MOL0     C24179  10.897   3.792   0.893 -0.2269 -0.5570  0.3130
  176MOL0     C24180  11.029   3.739   0.888  0.7670  1.2626  0.3843
  176MOL0     O24181  11.046   3.609   0.846 -0.4507  0.0760 -0.2271
  176MOL0     C24182  11.173   3.568   0.827  0.9203  0.3907 -0.4447
  176MOL0     C24183  11.208   3.452   0.892  0.9544 -0.3826  0.2157
  176MOL0     C24184  11.333   3.397   0.879 -0.0150 -0.0595 -0.3538
  176MOL0     C24185  11.425   3.457   0.796  0.2854  0.6434 -0.0859
  176MOL0     O24186  11.547   3.402   0.770  0.4986 -0.2582  0.2314
  176MOL0     C24187  11.607   3.302   0.856  0.1043 -0.2063  1.1563
  176MOL0     C24188  11.750   3.310   0.833  0.4584 -0.2864  0.2948
  176MOL0     C24189  11.826   3.231   0.936 -0.4267 -0.4532  0.6091
  176MOL0     C24190  11.843   3.307   1.070  0.1494 -0.7226 -0.3540
  176MOL0     C24191  11.897   3.214   1.187  0.0023 -0.3669 -0.6806
  176MOL0     C24192  12.053   3.190   1.174  1.4215 -0.3193 -0.4430
  176MOL0     C24193  12.132   3.305   1.236 -0.4518  0.1175  0.6289
  176MOL0     C24194  12.281   3.311   1.194  0.7280 -0.0372 -0.0495
  176MOL0    Cl24195  12.384   3.172   1.245  0.0809 -0.3137 -0.3968
  176MOL0     C24196  11.388   3.565   0.727 -0.8956 -0.5554  0.1764
  176MOL0     C24197  11.261   3.621   0.736  0.2610  0.5447 -0.1532
  176MOL0     O24198  11.109   3.806   0.953 -0.4577  0.1947 -0.0054
  176MOL0     C24199  10.853   3.883   0.795  0.3748 -0.4567  0.4680
  176MOL0     C24200  10.726   3.925   0.793  0.5967 -0.4619  0.0213
  176MOL0     N24201   9.992   3.844   0.605  0.1613 -1.1938 -1.0023
  176MOL0     N24202   9.890   3.773   0.576  0.1653 -0.4278 -0.1810
  176MOL0     C24203   8.889   4.136   1.041 -0.4340  0.7473  0.5949
  176MOL0     C24204   8.851   4.245   1.128  0.4340  0.1874  0.0658
  176MOL0     C24205   8.830   4.674   1.296 -1.1196 -0.8458 -0.0864
  176MOL0     C24206   8.908   4.678   1.420  0.6886  0.4343  0.2457
  176MOL0     C24207   8.908   4.784   1.509  0.0995  0.7575 -0.0567
  176MOL0     C24208   8.833   4.894   1.483 -0.3810 -0.2040 -1.1996
  176MOL0     O24209   8.831   5.001   1.572 -0.3075  0.0483 -0.0845
  176MOL0     C24210   8.919   5.009   1.685  0.7085 -0.3489  0.0800
  176MOL0     C24211   8.878   4.944   1.809  0.7969  0.2736 -0.0616
  176MOL0     C24212   8.763   5.013   1.883  0.1461 -0.0241  0.2326
  176MOL0     C24213   8.729   4.932   2.002  0.3035  0.4715 -0.7835
  176MOL0     C24214   8.591   4.972   2.028  0.9053  0.7071  1.0518
  176MOL0     C24215   8.479   5.016   2.033 -0.1236  0.7886 -0.8850
  176MOL0     C24216   8.765   4.901   1.364 -0.4267 -0.5609 -0.1707
  176MOL0     C24217   8.758   4.794   1.274  0.9390  0.3614  0.3071
  176MOL0     C24218   8.671   4.817   1.146 -0.7905 -0.3685  0.4304
  176MOL0     H24219   9.154   4.370   1.188  1.7580 -0.0734 -1.8125
  176MOL0     H24220   9.224   4.190   1.032  0.5323  3.2141 -1.0907
  176MOL0     H24221   8.920   3.932   0.814 -0.5250 -2.6268 -0.1602
  176MOL0     H24222   8.958   3.869   0.980  0.3018 -2.0904  0.3486
  176MOL0     H24223   9.173   3.769   0.871 -2.4838  1.3425  3.0115
  176MOL0     H24224   9.030   3.696   0.808  2.2614 -1.5454  0.4321
  176MOL0     H24225   9.036   3.860   0.620 -0.4684  0.4369  0.8748
  176MOL0     H24226   9.170   3.938   0.696 -0.8007  0.7569  0.4971
  176MOL0     H24227   9.207   3.642   0.629  1.6469 -0.4488  1.1100
  176MOL0     H24228   9.199   3.763   0.500 -1.7333 -1.1024  1.0383
  176MOL0     H24229   9.393   3.768   0.733 -1.6273  0.0373  0.7024
  176MOL0     H24230   9.391   3.876   0.595  1.7864 -1.2509 -2.4626
  176MOL0     H24231   9.459   3.580   0.592 -1.8641 -0.3106 -1.8121
  176MOL0     H24232   9.413   3.673   0.449  1.3651  2.1594 -1.2559
  176MOL0     H24233   9.612   3.843   0.511  2.2078  0.8795  0.2159
  176MOL0     H24234   9.642   3.682   0.460 -1.7880  0.3281 -0.6161
  176MOL0     H24235   9.614   3.777   0.759 -0.2040 -1.5054  1.7176
  176MOL0     H24236   9.659   3.614   0.723 -0.9764 -0.5668  1.8960
  176MOL0     H24237   9.806   3.844   0.881 -1.7522 -2.6994 -0.0311
  176MOL0     H24238  10.042   3.976   0.906 -1.6209 -0.9460 -0.0336
  176MOL0     H24239  10.032   4.080   0.759 -1.3542 -1.2645 -2.0203
  176MOL0     H24240  10.241   3.854   0.828 -2.6685  1.3391  2.5776
  176MOL0     H24241  10.243   3.947   0.672 -0.0955 -2.0178 -0.8368
  176MOL0     H24242  10.290   4.156   0.821 -1.1574 -0.5789  0.9336
  176MOL0     H24243  10.288   4.046   0.956 -0.8619 -4.3712  0.0065
  176MOL0     H24244  10.485   4.034   0.716 -1.3764 -0.4853  0.3583
  176MOL0     H24245  10.522   4.101   0.883 -0.6562  0.0721  1.4112
  176MOL0     H24246  10.610   3.722   1.039  2.7177 -3.3411 -0.3912
  176MOL0     H24247  10.776   3.643   1.174 -1.2060  0.1084 -1.0765
  176MOL0     H24248  10.944   3.689   1.143 -0.7217 -0.7629  1.5195
  176MOL0     H24249  10.869   3.557   1.047 -1.9547 -1.4794  0.9293
  176MOL0     H24250  11.133   3.400   0.952  1.1690 -0.0001  0.8271
  176MOL0     H24251  11.353   3.296   0.913 -0.3716  1.0000  3.4733
  176MOL0     H24252  11.594   3.318   0.964  2.2205  0.6706  1.3334
  176MOL0     H24253  11.574   3.202   0.828 -2.3290  0.7795  0.1383
  176MOL0     H24254  11.764   3.266   0.733 -2.1377 -2.6026  0.8053
  176MOL0     H24255  11.780   3.413   0.852  0.6650 -0.9811  4.6245
  176MOL0     H24256  11.931   3.215   0.907 -1.4208 -3.2505 -1.9466
  176MOL0     H24257  11.792   3.127   0.936 -0.3693 -0.5352 -1.9230
  176MOL0     H24258  11.750   3.340   1.118  0.3120 -0.6768 -0.0733
  176MOL0     H24259  11.899   3.400   1.057 -3.2493  1.4860 -0.4883
  176MOL0     H24260  11.877   3.258   1.285 -0.3084 -0.7146 -0.5890
  176MOL0     H24261  11.833   3.126   1.190 -0.1950 -0.3338 -2.5306
  176MOL0     H24262  12.070   3.182   1.067 -2.9605 -5.2021 -1.2112
  176MOL0     H24263  12.072   3.088   1.211 -3.8044 -1.8497 -1.0888
  176MOL0     H24264  12.121   3.305   1.345  1.4311  2.7097  0.9416
  176MOL0     H24265  12.096   3.396   1.186  3.5380 -0.1089 -3.2979
  176MOL0     H24266  12.327   3.400   1.238  0.2387  0.3030 -0.2136
  176MOL0     H24267  12.291   3.312   1.085  0.1412 -1.0241 -0.1168
  176MOL0     H24268  11.450   3.612   0.651 -1.3289 -0.9889 -0.4586
  176MOL0     H24269  11.227   3.706   0.678 -0.8572 -0.1943 -0.6162
  176MOL0     H24270  10.920   3.902   0.711  1.8740 -2.0955  1.2188
  176MOL0     H24271  10.683   3.991   0.718 -0.2590 -2.2201 -1.1020
  176MOL0     H24272   8.817   4.060   1.010  1.2919 -1.0283  0.7025
  176MOL0     H24273   8.747   4.256   1.158  0.7726 -1.0607  1.9236
  176MOL0     H24274   8.972   4.595   1.449 -1.8691 -0.7385  3.1412
  176MOL0     H24275   8.966   4.770   1.599  1.3740 -1.3374 -1.1140
  176MOL0     H24276   9.021   4.985   1.654  1.7456  2.5100  0.8940
  176MOL0     H24277   8.923   5.114   1.715 -0.2993 -0.4737  0.7125
  176MOL0     H24278   8.963   4.947   1.878 -0.4582  0.2165  1.5416
  176MOL0     H24279   8.863   4.838   1.783 -0.0688 -0.1034  1.7977
  176MOL0     H24280   8.795   5.107   1.930  1.2914 -0.9274  1.3643
  176MOL0     H24281   8.684   5.031   1.810  2.7119  0.3981 -2.6723
  176MOL0     H24282   8.785   4.960   2.092 -1.1564 -0.9645  0.6510
  176MOL0     H24283   8.730   4.825   1.978  1.8854 -0.1249  1.5871
  176MOL0     H24284   8.376   5.047   2.031 -1.1910 -2.1695  0.7616
  176MOL0     H24285   8.722   4.997   1.337  2.5256  0.4462 -1.6360
  176MOL0     H24286   8.734   4.802   1.057  0.9017  3.2106  0.8129
  176MOL0     H24287   8.581   4.755   1.150 -0.5654 -0.6844  3.9026
  176MOL0     H24288   8.639   4.922   1.147  0.9747  0.2004  0.8551
  177MOL0     O24289  11.320   5.254   2.743 -0.1058  0.4531  0.9647
  177MOL0     C24290  11.251   5.187   2.814  0.0429 -0.4559 -0.0326
  177MOL0     O24291  11.151   5.104   2.769  0.1211  0.3539  0.6458
  177MOL0     C24292  11.096   5.127   2.645  0.7147 -0.4454  0.2334
  177MOL0     C24293  11.188   5.105   2.532 -0.0497 -0.1925 -0.0623
  177MOL0     C24294  11.141   5.102   2.403  0.4107  0.5683 -0.8669
  177MOL0     C24295  11.009   5.137   2.371  0.4718 -1.1312 -0.1143
  177MOL0     O24296  10.975   5.129   2.239 -0.5027 -0.5117  0.6000
  177MOL0     C24297  10.832   5.133   2.213  0.5033  0.3263 -0.0076
  177MOL0     C24298  10.820   5.171   2.061 -0.1737  0.8090 -0.0340
  177MOL0     C24299  10.870   5.317   2.044 -0.1812  0.0333  0.2374
  177MOL0     C24300  10.853   5.396   1.909  0.1043  0.1921  0.5582
  177MOL0     C24301  10.904   5.534   1.918 -0.2078 -0.7829 -0.1820
  177MOL0     C24302  11.056   5.535   1.912 -0.3383 -0.0186  0.1287
  177MOL0     C24303  11.101   5.678   1.919  0.4852 -0.8015 -0.4756
  177MOL0     C24304  11.251   5.692   1.941  0.4392 -0.4899 -1.2835
  177MOL0     N24305  11.278   5.680   2.086  0.3117  0.4053 -0.1816
  177MOL0     C24306  11.314   5.562   2.144 -0.2843 -0.3529 -0.4773
  177MOL0     C24307  11.340   5.604   2.273 -0.5163 -0.3425 -0.0646
  177MOL0     C24308  11.373   5.509   2.381 -0.6763 -0.0686 -0.2146
  177MOL0     C24309  11.493   5.576   2.454  0.5849  0.2785  0.2077
  177MOL0     C24310  11.550   5.497   2.574 -0.9496 -0.4467 -0.8490
  177MOL0     C24311  11.654   5.573   2.667 -0.1254  0.5509 -0.0573
  177MOL0     O24312  11.691   5.477   2.761 -0.3115  0.0600  0.2888
  177MOL0     C24313  11.771   5.521   2.862  0.3835 -0.6300 -0.4631
  177MOL0     C24314  11.771   5.432   2.973 -0.0888 -0.5747  0.4715
  177MOL0     C24315  11.853   5.464   3.083  0.6094 -0.0644  0.1028
  177MOL0     C24316  11.858   5.359   3.181  0.9355 -0.2564  0.3191
  177MOL0     C24317  11.934   5.581   3.085 -0.1662 -0.0669  0.5842
  177MOL0     C24318  12.036   5.619   3.191  0.2680 -0.2041 -0.3345
  177MOL0     O24319  12.076   5.754   3.188  0.7236  0.5379  0.7623
  177MOL0     C24320  12.193   5.785   3.254 -0.6328 -0.7786  0.4654
  177MOL0     C24321  12.314   5.809   3.185  0.4930 -0.1357 -0.1299
  177MOL0     C24322  12.435   5.822   3.249 -0.2247  0.2745 -0.2897
  177MOL0     C24323  12.447   5.820   3.394 -0.2136 -0.0347  0.3846
  177MOL0     O24324  12.569   5.820   3.458  0.4482 -0.3148 -0.2249
  177MOL0     C24325  12.674   5.881   3.396 -0.0087 -0.1840  0.2906
  177MOL0     C24326  12.784   5.920   3.504  0.6303  1.0123  0.4825
  177MOL0     C24327  12.833   5.792   3.572  0.1882 -0.1703  1.1195
  177MOL0     C24328  12.950   5.810   3.665  0.4299  0.3929 -0.1923
  177MOL0     C24329  12.979   5.670   3.738  0.6261 -1.1506  0.6121
  177MOL0     C24330  13.025   5.556   3.641  0.3921 -0.1956 -0.3173
  177MOL0     C24331  13.085   5.430   3.708  0.0963 -0.2557 -0.2849
  177MOL0     C24332  13.088   5.301   3.615 -0.3910 -0.4092  1.5414
  177MOL0    Cl24333  13.209   5.314   3.478  0.0981  0.0355  0.0540
  177MOL0     C24334  12.325   5.822   3.463  0.2561  0.5330 -1.2801
  177MOL0     C24335  12.212   5.809   3.396  0.4807  0.1994 -0.0990
  177MOL0     O24336  12.083   5.538   3.266  0.3168 -0.3984 -0.5579
  177MOL0     C24337  11.931   5.664   2.970 -0.0001  0.6991  0.2288
  177MOL0     C24338  11.853   5.637   2.866 -0.2686  0.5287  0.4112
  177MOL0     N24339  11.303   5.737   2.283 -0.2334 -0.7658  0.1651
  177MOL0     N24340  11.275   5.784   2.165  0.1930  0.9845  0.4930
  177MOL0     C24341  10.929   5.168   2.476  0.7029 -1.0514 -0.5921
  177MOL0     C24342  10.964   5.153   2.611 -0.9333 -0.3744 -0.2242
  177MOL0     C24343  11.267   5.188   2.959 -0.6607 -0.8952  0.1059
  177MOL0     C24344  11.381   5.244   3.018  0.4113  0.5110  0.0354
  177MOL0     C24345  11.404   5.248   3.155 -0.0493  0.1474  0.5107
  177MOL0     C24346  11.316   5.174   3.236 -0.3636  0.2306  0.5213
  177MOL0     O24347  11.350   5.188   3.371 -0.6249 -0.5155  0.6075
  177MOL0     C24348  11.371   5.069   3.444  0.3426  0.0267  0.0901
  177MOL0     C24349  11.411   5.115   3.587 -0.0131  0.2535  0.1866
  177MOL0     C24350  11.530   5.207   3.580 -0.5194 -0.4089 -0.1552
  177MOL0     C24351  11.584   5.236   3.722  0.0694 -0.2354  1.2929
  177MOL0     C24352  11.682   5.344   3.725  0.5148  0.5527 -0.8323
  177MOL0     C24353  11.766   5.428   3.753 -0.0585 -0.4038 -0.1631
  177MOL0     C24354  11.214   5.095   3.185  0.2907  0.1073  0.3465
  177MOL0     C24355  11.179   5.116   3.044 -0.5197 -0.3239  0.2159
  177MOL0     C24356  11.039   5.078   3.016  0.0443  0.4542 -0.0628
  177MOL0     H24357  11.293   5.080   2.541  0.5217  2.2662  0.6424
  177MOL0     H24358  11.201   5.102   2.313 -0.4736  0.7145 -1.4726
  177MOL0     H24359  10.772   5.206   2.268 -1.5356 -1.8145  0.7668
  177MOL0     H24360  10.790   5.037   2.241  1.9816 -0.0571  1.0134
  177MOL0     H24361  10.879   5.104   1.997 -1.3029  0.5193 -0.7977
  177MOL0     H24362  10.716   5.157   2.030 -0.2017 -2.3538  1.1274
  177MOL0     H24363  10.807   5.373   2.114  1.2932  0.6318  1.1404
  177MOL0     H24364  10.974   5.325   2.076  0.1032  1.3357 -0.9012
  177MOL0     H24365  10.895   5.341   1.824  0.1317 -0.2739  0.8712
  177MOL0     H24366  10.747   5.402   1.885  0.0570  1.1545  0.9828
  177MOL0     H24367  10.866   5.592   2.003  0.5216 -0.9623  0.2790
  177MOL0     H24368  10.874   5.577   1.822 -0.3926 -0.7842 -0.1246
  177MOL0     H24369  11.112   5.477   1.986  3.4510  2.1915 -0.7190
  177MOL0     H24370  11.080   5.485   1.818  0.9579 -0.7781  0.8308
  177MOL0     H24371  11.051   5.732   2.000 -0.6919 -1.7653 -0.5327
  177MOL0     H24372  11.071   5.726   1.826 -2.0265 -1.7128 -0.2137
  177MOL0     H24373  11.316   5.621   1.889  1.1078 -0.5576 -0.3703
  177MOL0     H24374  11.277   5.795   1.918 -1.4152  0.9965  2.4019
  177MOL0     H24375  11.335   5.466   2.097  0.3993 -1.6680  2.2944
  177MOL0     H24376  11.389   5.406   2.349 -0.4920  0.0282 -0.4439
  177MOL0     H24377  11.290   5.519   2.452 -1.5484 -0.8517 -1.0893
  177MOL0     H24378  11.584   5.596   2.396  0.0395  1.7387 -0.1801
  177MOL0     H24379  11.458   5.673   2.490  2.3721  0.8227  0.6065
  177MOL0     H24380  11.468   5.469   2.640 -1.8832 -0.4315 -1.9634
  177MOL0     H24381  11.602   5.410   2.533 -0.0205  0.8321 -2.5157
  177MOL0     H24382  11.734   5.621   2.609  0.0242  1.5080  0.9047
  177MOL0     H24383  11.603   5.654   2.721  0.8464  1.2085 -0.0940
  177MOL0     H24384  11.712   5.343   2.953 -0.6998  0.4933 -3.2554
  177MOL0     H24385  11.917   5.273   3.148  0.9212  0.1878 -0.9007
  177MOL0     H24386  11.757   5.318   3.191  1.3071 -1.1309  0.6580
  177MOL0     H24387  11.882   5.384   3.285  1.8278 -1.5277  0.4428
  177MOL0     H24388  12.306   5.808   3.077 -0.3435  0.4419 -0.0872
  177MOL0     H24389  12.526   5.834   3.191 -0.4605  0.6529 -0.5881
  177MOL0     H24390  12.714   5.819   3.315  2.6147  2.5667 -0.7113
  177MOL0     H24391  12.646   5.977   3.350  2.1719  0.3584 -0.0346
  177MOL0     H24392  12.866   5.972   3.455 -1.1342 -0.4741 -4.7150
  177MOL0     H24393  12.743   5.977   3.588 -2.3624 -0.5834  0.2658
  177MOL0     H24394  12.841   5.709   3.502 -1.4495 -1.5800  2.5039
  177MOL0     H24395  12.754   5.762   3.642  1.1907  1.7186  3.1893
  177MOL0     H24396  12.927   5.891   3.734  0.1645 -1.0136  1.4337
  177MOL0     H24397  13.035   5.841   3.604  1.6009 -2.3337 -0.0913
  177MOL0     H24398  13.059   5.692   3.809 -0.6473  2.6932  1.0633
  177MOL0     H24399  12.891   5.642   3.796 -2.1143  3.5883 -0.6635
  177MOL0     H24400  13.116   5.591   3.592  1.6509  0.3471  2.2510
  177MOL0     H24401  12.940   5.536   3.575 -1.8531  2.0786  1.6999
  177MOL0     H24402  13.024   5.415   3.797  0.8587  2.2006  0.7663
  177MOL0     H24403  13.188   5.452   3.738  0.0373 -0.1866 -0.1361
  177MOL0     H24404  12.986   5.281   3.582 -0.2888  0.0696  0.9089
  177MOL0     H24405  13.124   5.214   3.671  0.0923  0.3735  2.4867
  177MOL0     H24406  12.316   5.822   3.571 -1.1512 -1.1281 -1.3511
  177MOL0     H24407  12.113   5.806   3.441  0.9469  0.1752  0.9544
  177MOL0     H24408  11.997   5.751   2.969 -0.5148  1.2756  3.6561
  177MOL0     H24409  11.866   5.702   2.780  0.3967 -0.3942 -0.1902
  177MOL0     H24410  10.823   5.185   2.462  0.2995 -3.2091 -0.6048
  177MOL0     H24411  10.888   5.172   2.686 -0.7927  0.2127 -0.2209
  177MOL0     H24412  11.444   5.307   2.956  1.8820 -0.0660  0.8717
  177MOL0     H24413  11.494   5.297   3.191  1.6267 -1.2428 -1.5545
  177MOL0     H24414  11.281   5.008   3.456 -0.5898  1.2458 -0.5725
  177MOL0     H24415  11.443   5.001   3.399  0.0469 -0.0376 -0.2883
  177MOL0     H24416  11.417   5.027   3.652  0.7830 -0.5779 -0.9730
  177MOL0     H24417  11.331   5.180   3.624 -1.0471 -0.5185 -0.5809
  177MOL0     H24418  11.611   5.152   3.532  0.0480 -1.7502  2.1872
  177MOL0     H24419  11.497   5.293   3.522  0.6366 -0.0130 -0.2422
  177MOL0     H24420  11.631   5.143   3.753 -1.1764 -2.0676 -1.9049
  177MOL0     H24421  11.509   5.259   3.798 -1.1307 -2.3376  0.8065
  177MOL0     H24422  11.838   5.508   3.761 -1.3793  1.1703 -2.8007
  177MOL0     H24423  11.136   5.047   3.242  0.1807 -0.3006 -0.1408
  177MOL0     H24424  10.982   5.083   3.109  0.9625  0.8178  0.4956
  177MOL0     H24425  10.998   5.140   2.936  2.6906  1.9321 -0.3603
  177MOL0     H24426  11.031   4.974   2.983 -1.2558 -0.1142  1.8705
  178MOL0     O24427   9.443   0.092   0.978  0.2139  0.2621  1.0747
  178MOL0     C24428   9.381   0.159   0.897 -0.3378  0.3335 -0.2848
  178MOL0     O24429   9.409   0.286   0.859 -0.8526  0.6067 -0.5170
  178MOL0     C24430   9.510   0.366   0.906  0.2077 -0.3290 -0.8026
  178MOL0     C24431   9.490   0.506   0.896  0.8716 -0.3954  0.5210
  178MOL0     C24432   9.592   0.602   0.937 -0.2648 -0.5793 -0.4191
  178MOL0     C24433   9.721   0.556   0.982 -0.1895 -0.3679  0.0394
  178MOL0     O24434   9.825   0.639   1.005  0.1896  0.1421 -0.0211
  178MOL0     C24435   9.789   0.765   1.064 -0.1823 -0.4404 -0.6208
  178MOL0     C24436   9.916   0.818   1.141  0.1875 -0.4327  0.1004
  178MOL0     C24437  10.034   0.880   1.060 -0.1862  0.4693  0.3776
  178MOL0     C24438  10.156   0.901   1.155 -0.0133 -0.6894 -0.1675
  178MOL0     C24439  10.280   0.942   1.083 -0.1402  0.0909 -0.2339
  178MOL0     C24440  10.379   0.994   1.186  0.7630  0.2425 -0.4730
  178MOL0     C24441  10.503   1.049   1.100  0.2045  0.4288 -0.5025
  178MOL0     C24442  10.583   0.939   1.028 -0.1401 -0.0913 -0.5287
  178MOL0     N24443  10.719   0.979   0.993 -0.6332 -0.7352  0.6417
  178MOL0     C24444  10.741   1.025   0.861 -0.1509  0.4544  0.3109
  178MOL0     C24445  10.857   1.101   0.871 -0.3753 -0.3625  0.9456
  178MOL0     C24446  10.943   1.154   0.758 -1.2282 -1.2573  1.1508
  178MOL0     C24447  11.042   1.265   0.816  0.1756 -0.6109 -0.5455
  178MOL0     C24448  11.163   1.189   0.878  0.1159  0.0566  1.4492
  178MOL0     C24449  11.231   1.262   0.993  0.1847 -0.2797 -0.7693
  178MOL0     O24450  11.298   1.382   0.951 -0.6012  0.1682  0.4892
  178MOL0     C24451  11.407   1.436   1.017  0.0264  0.2751  0.7753
  178MOL0     C24452  11.444   1.396   1.140 -0.1952 -1.2847 -0.1095
  178MOL0     C24453  11.569   1.427   1.201  1.2566 -0.2855 -0.0750
  178MOL0     C24454  11.584   1.387   1.350 -0.1254  0.3542  0.5494
  178MOL0     C24455  11.648   1.519   1.133  0.1632 -0.0356 -0.7072
  178MOL0     C24456  11.767   1.573   1.197 -0.3645 -0.1139 -0.0370
  178MOL0     O24457  11.866   1.606   1.108 -0.6249 -0.3453  0.1228
  178MOL0     C24458  11.972   1.685   1.150 -0.2131  0.6039  0.1915
  178MOL0     C24459  11.960   1.807   1.211 -0.5562 -0.0414  1.3179
  178MOL0     C24460  12.074   1.867   1.262 -0.4530 -0.2733  0.3922
  178MOL0     C24461  12.203   1.813   1.251  0.1907 -0.3362 -0.3432
  178MOL0     O24462  12.321   1.873   1.300  0.0023  0.6817 -0.0761
  178MOL0     C24463  12.349   2.009   1.271 -0.2479 -0.0219 -0.2272
  178MOL0     C24464  12.496   2.022   1.284 -0.5447 -0.0338 -0.0955
  178MOL0     C24465  12.531   2.171   1.273 -0.0501  0.1786  0.4284
  178MOL0     C24466  12.682   2.194   1.256 -0.2932  0.5281 -0.3311
  178MOL0     C24467  12.713   2.343   1.263 -0.7386 -0.2668 -0.9150
  178MOL0     C24468  12.864   2.359   1.276 -0.6082 -0.5035  0.5582
  178MOL0     C24469  12.886   2.505   1.306 -0.1023 -0.0497  0.1695
  178MOL0     C24470  13.018   2.551   1.240  0.0005  0.2157 -0.3781
  178MOL0    Cl24471  13.077   2.702   1.319 -0.4121 -0.1333  0.0117
  178MOL0     C24472  12.216   1.696   1.178  0.2033  0.2019  0.8045
  178MOL0     C24473  12.098   1.626   1.146 -0.8168  0.5151 -0.3959
  178MOL0     O24474  11.760   1.599   1.318 -0.0566 -0.2270  0.0816
  178MOL0     C24475  11.624   1.545   1.003 -0.1206  0.0382 -0.1409
  178MOL0     C24476  11.501   1.502   0.941  0.2837 -0.2899 -1.0601
  178MOL0     N24477  10.881   1.119   1.007  0.4950 -0.4656  0.0484
  178MOL0     N24478  10.796   1.054   1.074 -0.1838  1.0781 -0.3028
  178MOL0     C24479   9.742   0.417   0.989  0.7357 -0.6745 -0.1255
  178MOL0     C24480   9.635   0.330   0.966  0.1773  0.1268 -0.1166
  178MOL0     C24481   9.249   0.104   0.853 -0.2488 -0.3238 -0.5456
  178MOL0     C24482   9.200   0.146   0.724  0.8034 -0.2129  0.2383
  178MOL0     C24483   9.085   0.091   0.664 -0.0946 -0.1566 -0.8731
  178MOL0     C24484   9.005   0.000   0.743  0.0210 -0.0320 -0.5171
  178MOL0     O24485   8.882  -0.048   0.709  0.2703 -0.3721 -0.1745
  178MOL0     C24486   8.856  -0.058   0.568 -0.0411 -0.6240 -0.6501
  178MOL0     C24487   8.770   0.056   0.519  0.3314  1.1405  0.0641
  178MOL0     C24488   8.627   0.024   0.553  0.1460 -0.0415  1.0009
  178MOL0     C24489   8.538   0.130   0.491  0.6487 -0.1594 -0.0927
  178MOL0     C24490   8.420   0.061   0.437  0.1586  0.6430  0.2505
  178MOL0     C24491   8.319  -0.002   0.397 -0.5003  0.7855  0.0981
  178MOL0     C24492   9.055  -0.044   0.863 -0.9512 -0.1267  0.0456
  178MOL0     C24493   9.177   0.000   0.915 -0.4965  1.2905  0.4109
  178MOL0     C24494   9.222  -0.066   1.046 -0.9209  0.7737 -0.4657
  178MOL0     H24495   9.393   0.541   0.862  0.3544 -1.7510  0.5525
  178MOL0     H24496   9.566   0.706   0.920 -1.8021 -1.1659 -2.0200
  178MOL0     H24497   9.703   0.758   1.130  0.2591 -3.3352 -0.2234
  178MOL0     H24498   9.762   0.834   0.984  1.3585  0.6311 -0.2655
  178MOL0     H24499   9.882   0.897   1.208 -0.1202 -0.5146  0.0415
  178MOL0     H24500   9.941   0.736   1.208 -0.5351 -2.2913 -1.7916
  178MOL0     H24501  10.057   0.811   0.979 -0.0541  2.4106 -1.3205
  178MOL0     H24502  10.005   0.971   1.006  0.5647 -0.8616 -2.3950
  178MOL0     H24503  10.124   0.982   1.221 -0.3928 -1.1896  0.2723
  178MOL0     H24504  10.177   0.808   1.209  1.9136  1.1169  2.4763
  178MOL0     H24505  10.253   1.020   1.010 -0.4890 -0.9986 -1.3116
  178MOL0     H24506  10.323   0.860   1.026  2.7566 -0.4070  2.4416
  178MOL0     H24507  10.336   1.073   1.249  0.7434 -0.0341 -0.1358
  178MOL0     H24508  10.412   0.910   1.247 -0.8597  1.2547  1.9749
  178MOL0     H24509  10.563   1.093   1.180  0.3424 -1.7039  0.6484
  178MOL0     H24510  10.467   1.120   1.026  2.2343 -1.3009 -3.3470
  178MOL0     H24511  10.601   0.849   1.088  0.4787  0.1987 -0.2717
  178MOL0     H24512  10.537   0.909   0.934  1.9422  2.5933 -2.5457
  178MOL0     H24513  10.690   0.982   0.775 -0.9360  1.9950 -0.0294
  178MOL0     H24514  10.876   1.205   0.688 -0.7851 -1.1194  0.8235
  178MOL0     H24515  10.992   1.080   0.695 -0.3561 -1.1699  1.7017
  178MOL0     H24516  11.066   1.339   0.738  4.2262 -1.3370 -0.1784
  178MOL0     H24517  11.005   1.321   0.902  3.1031  1.4803 -0.4997
  178MOL0     H24518  11.136   1.089   0.913  1.0225 -1.6026 -2.1306
  178MOL0     H24519  11.233   1.164   0.798  1.1581  3.5734  1.1320
  178MOL0     H24520  11.168   1.264   1.083  1.2907 -0.3058  0.0295
  178MOL0     H24521  11.318   1.202   1.022  0.0784 -0.7809 -1.4902
  178MOL0     H24522  11.379   1.325   1.189  1.3192 -4.1229 -1.9878
  178MOL0     H24523  11.536   1.289   1.363 -1.7785  1.1083  0.4454
  178MOL0     H24524  11.528   1.460   1.409 -0.4213 -0.2021  0.9719
  178MOL0     H24525  11.686   1.383   1.387 -0.4665  2.6143  1.9115
  178MOL0     H24526  11.864   1.858   1.219  0.9685  3.3291  0.1138
  178MOL0     H24527  12.064   1.958   1.320  1.3379 -0.5864  1.2536
  178MOL0     H24528  12.308   2.044   1.176  0.9570 -0.2704 -0.8674
  178MOL0     H24529  12.292   2.064   1.346 -0.8504 -2.7357  1.4394
  178MOL0     H24530  12.529   1.967   1.372  2.1301 -1.0708 -1.6510
  178MOL0     H24531  12.528   1.955   1.203 -0.5264 -4.2249  3.0620
  178MOL0     H24532  12.509   2.219   1.369  1.3515 -1.0430  1.4068
  178MOL0     H24533  12.475   2.224   1.195 -0.6455 -0.3117  0.5219
  178MOL0     H24534  12.718   2.160   1.158 -0.3977  0.0416 -0.2050
  178MOL0     H24535  12.735   2.127   1.324 -1.5504 -2.4733 -2.0959
  178MOL0     H24536  12.663   2.388   1.177 -2.7375 -0.2431  0.2033
  178MOL0     H24537  12.677   2.393   1.353 -1.1445  1.0616 -1.7686
  178MOL0     H24538  12.917   2.327   1.186 -0.0351 -0.1451  0.7627
  178MOL0     H24539  12.880   2.302   1.368 -2.3023 -0.3745  0.9703
  178MOL0     H24540  12.903   2.514   1.413 -1.3262  1.0389  0.3008
  178MOL0     H24541  12.809   2.578   1.278 -1.2863 -1.0722  0.6980
  178MOL0     H24542  13.005   2.569   1.133 -0.0875 -2.1393 -0.8369
  178MOL0     H24543  13.093   2.472   1.255  0.0498  0.4434  0.6631
  178MOL0     H24544  12.310   1.643   1.168  0.3307  0.7106 -0.8804
  178MOL0     H24545  12.111   1.526   1.107  1.7009  0.1986  1.0124
  178MOL0     H24546  11.696   1.609   0.952 -0.2601 -0.6235 -1.1944
  178MOL0     H24547  11.477   1.495   0.836  0.1055 -4.3251 -0.8793
  178MOL0     H24548   9.842   0.383   1.014 -0.0027 -1.4922  1.9347
  178MOL0     H24549   9.652   0.224   0.975 -3.9199 -0.5623  2.0178
  178MOL0     H24550   9.240   0.226   0.663  1.5471 -0.8660 -0.1532
  178MOL0     H24551   9.042   0.134   0.574 -0.1880  0.2897 -0.6174
  178MOL0     H24552   8.949  -0.049   0.511 -0.4645 -0.6402 -1.3573
  178MOL0     H24553   8.802  -0.148   0.538 -2.7953  1.1274 -1.2383
  178MOL0     H24554   8.791   0.086   0.416 -0.1466  0.2881 -0.2922
  178MOL0     H24555   8.794   0.141   0.584  0.6614  1.3327 -0.3050
  178MOL0     H24556   8.611  -0.076   0.512 -0.4326  0.2615  0.4645
  178MOL0     H24557   8.619   0.018   0.662  0.7644 -2.1684  0.9830
  178MOL0     H24558   8.587   0.180   0.407 -1.0167  0.1544 -0.9144
  178MOL0     H24559   8.500   0.201   0.565  1.4725  0.9206 -0.6893
  178MOL0     H24560   8.232  -0.055   0.363 -0.2381  1.2320 -1.3610
  178MOL0     H24561   9.008  -0.123   0.921  3.8085 -1.7490  2.2459
  178MOL0     H24562   9.261   0.011   1.113 -0.2182 -0.5420  0.6904
  178MOL0     H24563   9.143  -0.128   1.092  0.3860  1.1915  2.5786
  178MOL0     H24564   9.301  -0.140   1.030  0.2977  2.2072 -1.3082
  179MOL0     O24565   5.919   9.485   6.528 -0.8270  0.3495 -0.5646
  179MOL0     C24566   5.917   9.607   6.525  0.4866  0.3399  0.1626
  179MOL0     O24567   6.038   9.682   6.529  0.5449 -0.0670 -0.3470
  179MOL0     C24568   6.156   9.613   6.529  0.2194 -0.3117  0.5798
  179MOL0     C24569   6.259   9.645   6.619  0.2542  0.1833  0.0684
  179MOL0     C24570   6.394   9.591   6.601  0.7142 -0.2839 -0.1715
  179MOL0     C24571   6.419   9.490   6.502 -0.0892  0.3852 -0.7186
  179MOL0     O24572   6.546   9.446   6.480  0.1952  0.2745  0.0157
  179MOL0     C24573   6.561   9.310   6.436  0.7832  0.4033  0.1841
  179MOL0     C24574   6.546   9.217   6.565 -0.3344 -0.2851  0.7598
  179MOL0     C24575   6.663   9.256   6.670  0.0354 -0.1589  0.1571
  179MOL0     C24576   6.801   9.206   6.641 -0.0185  1.0296 -0.4303
  179MOL0     C24577   6.895   9.221   6.757  0.4986  0.9538 -0.5331
  179MOL0     C24578   7.037   9.184   6.703  1.4376  0.6792  0.0200
  179MOL0     C24579   7.096   9.264   6.580  0.4564  1.2041 -0.0492
  179MOL0     C24580   7.249   9.235   6.582 -0.3579 -0.1864  0.4086
  179MOL0     N24581   7.316   9.295   6.458 -1.0986  0.1436  0.1776
  179MOL0     C24582   7.334   9.433   6.422  0.2737  0.2856 -0.5510
  179MOL0     C24583   7.385   9.423   6.298  0.3261  0.7869  0.6093
  179MOL0     C24584   7.440   9.533   6.215 -0.4994 -0.0189 -0.0487
  179MOL0     C24585   7.596   9.537   6.250  0.3755 -0.5661 -0.6064
  179MOL0     C24586   7.623   9.623   6.370 -0.3936 -0.9143 -0.0698
  179MOL0     C24587   7.774   9.624   6.395  0.4775  0.5307 -0.4860
  179MOL0     O24588   7.811   9.497   6.438 -0.8854  0.0223 -0.8750
  179MOL0     C24589   7.935   9.483   6.497 -0.2925  0.1740 -0.3150
  179MOL0     C24590   7.997   9.581   6.582  0.1774 -0.1691 -0.1622
  179MOL0     C24591   8.130   9.564   6.633  0.6324  0.0981  0.8278
  179MOL0     C24592   8.182   9.677   6.721  0.1807 -0.2182  0.6193
  179MOL0     C24593   8.204   9.452   6.600 -0.2155  0.3692  0.2299
  179MOL0     C24594   8.343   9.431   6.649 -0.0601  1.1917 -0.2234
  179MOL0     O24595   8.430   9.366   6.562  0.5393  0.8768  0.6805
  179MOL0     C24596   8.554   9.326   6.587  0.0117 -0.3078 -0.4249
  179MOL0     C24597   8.646   9.396   6.658 -0.1214 -0.5909  0.7029
  179MOL0     C24598   8.772   9.340   6.682 -0.4137  0.4403  0.4949
  179MOL0     C24599   8.807   9.214   6.641  0.0729 -0.3138 -0.1105
  179MOL0     O24600   8.933   9.163   6.663 -1.1902  0.2001  0.6767
  179MOL0     C24601   9.047   9.240   6.711 -1.0528 -0.6370 -0.5351
  179MOL0     C24602   9.154   9.154   6.778  0.3455  0.4688 -1.0474
  179MOL0     C24603   9.189   9.028   6.691 -0.0457  0.1153  0.1294
  179MOL0     C24604   9.327   8.967   6.734 -0.4614  0.1245 -0.6209
  179MOL0     C24605   9.353   8.847   6.636 -0.0275 -0.1843 -0.5188
  179MOL0     C24606   9.473   8.771   6.691  1.6258  0.1127  1.5770
  179MOL0     C24607   9.551   8.705   6.581  0.2068  0.3820  0.3083
  179MOL0     C24608   9.698   8.674   6.631  0.6950 -0.3362 -0.8782
  179MOL0    Cl24609   9.791   8.823   6.586  0.0759  0.0009 -0.1394
  179MOL0     C24610   8.707   9.138   6.585  0.6068  0.5271 -0.0382
  179MOL0     C24611   8.586   9.191   6.550  0.1784  0.8175 -0.5850
  179MOL0     O24612   8.377   9.465   6.758  0.0897 -0.1406 -0.2024
  179MOL0     C24613   8.139   9.351   6.523 -0.3415 -0.0822  0.2717
  179MOL0     C24614   8.011   9.367   6.468  0.3349 -0.1378 -0.5489
  179MOL0     N24615   7.391   9.286   6.263  0.8327  0.5317  0.6748
  179MOL0     N24616   7.361   9.212   6.362  0.3828 -0.1922 -0.3214
  179MOL0     C24617   6.306   9.455   6.418 -0.2707  0.1642  0.6383
  179MOL0     C24618   6.186   9.517   6.429 -0.3583 -0.6904  0.6749
  179MOL0     C24619   5.796   9.683   6.477 -0.0402  0.5934 -0.2003
  179MOL0     C24620   5.793   9.822   6.491 -0.1592 -0.3196  0.0434
  179MOL0     C24621   5.686   9.897   6.452 -0.0277  0.4755  0.4499
  179MOL0     C24622   5.581   9.836   6.382  0.3944  0.2793  0.1112
  179MOL0     O24623   5.478   9.896   6.311 -0.5269 -0.0102 -0.5022
  179MOL0     C24624   5.462  10.038   6.325  0.0673 -0.3371  0.0195
  179MOL0     C24625   5.337  10.088   6.248 -0.8712  0.9680 -0.2770
  179MOL0     C24626   5.210  10.083   6.326 -0.9934  1.0237  0.0481
  179MOL0     C24627   5.076  10.120   6.246 -0.4862  0.4016 -0.7390
  179MOL0     C24628   5.054  10.263   6.222  1.1609 -0.2969 -1.2596
  179MOL0     C24629   5.032  10.381   6.195 -0.6886 -0.1105 -0.1760
  179MOL0     C24630   5.581   9.700   6.369 -0.0499  0.6935  0.2714
  179MOL0     C24631   5.681   9.614   6.423 -0.5578  0.1885 -0.0635
  179MOL0     C24632   5.664   9.469   6.399  0.1975 -0.9660  0.1594
  179MOL0     H24633   6.236   9.714   6.700  0.0232  0.7954 -0.5014
  179MOL0     H24634   6.472   9.631   6.665  1.8376  1.3113 -2.4045
  179MOL0     H24635   6.661   9.301   6.393 -0.0793 -3.3770 -1.5174
  179MOL0     H24636   6.497   9.273   6.355 -0.3184  1.1975  0.6690
  179MOL0     H24637   6.446   9.227   6.610 -0.4897 -0.3840  0.4389
  179MOL0     H24638   6.554   9.110   6.545  1.0095  0.0623 -0.7465
  179MOL0     H24639   6.664   9.362   6.695  0.8016 -0.7608  3.0225
  179MOL0     H24640   6.641   9.210   6.767 -1.2752  1.1482  0.5116
  179MOL0     H24641   6.788   9.099   6.623 -1.6221  0.9751  0.7859
  179MOL0     H24642   6.847   9.258   6.557  1.5607  2.5500  1.2835
  179MOL0     H24643   6.870   9.148   6.835 -0.6693  1.1528 -0.6996
  179MOL0     H24644   6.882   9.325   6.790  0.4321  0.9319 -0.4905
  179MOL0     H24645   7.101   9.206   6.789  0.9289 -0.2507  0.6518
  179MOL0     H24646   7.039   9.077   6.681 -0.1978  0.2322  1.7967
  179MOL0     H24647   7.098   9.374   6.583 -0.6802  1.2125  1.3297
  179MOL0     H24648   7.051   9.227   6.488  1.6451  2.2480 -1.1083
  179MOL0     H24649   7.294   9.280   6.671 -0.3907 -0.6346  0.6552
  179MOL0     H24650   7.257   9.126   6.586 -0.7951 -0.1953  1.4506
  179MOL0     H24651   7.307   9.523   6.478  0.6119 -0.8786  1.5848
  179MOL0     H24652   7.394   9.629   6.237  0.6132  0.7846 -1.0731
  179MOL0     H24653   7.428   9.498   6.112 -4.6624 -2.8818  1.1652
  179MOL0     H24654   7.623   9.434   6.274 -1.1139 -0.9663 -0.5441
  179MOL0     H24655   7.647   9.580   6.164  0.6392  0.6818  0.1536
  179MOL0     H24656   7.590   9.727   6.359  1.5379  0.2002  3.2060
  179MOL0     H24657   7.583   9.582   6.463 -0.1901 -1.2366 -0.1225
  179MOL0     H24658   7.829   9.640   6.301 -0.2892 -1.4455 -1.3185
  179MOL0     H24659   7.810   9.708   6.454 -0.7665  0.5970  0.2070
  179MOL0     H24660   7.936   9.665   6.610  0.3763  0.4893 -1.6144
  179MOL0     H24661   8.118   9.765   6.723  2.3686  1.4320  0.6462
  179MOL0     H24662   8.279   9.706   6.682 -0.2903 -0.7797 -1.0510
  179MOL0     H24663   8.181   9.643   6.825 -0.1892 -0.9877  0.3732
  179MOL0     H24664   8.623   9.496   6.694 -2.2677 -1.4433  1.8755
  179MOL0     H24665   8.833   9.415   6.729 -1.0401  0.4995  1.2309
  179MOL0     H24666   9.101   9.291   6.631  0.2206  0.0986  0.7589
  179MOL0     H24667   9.015   9.323   6.775 -2.6902  0.9242 -3.1843
  179MOL0     H24668   9.245   9.212   6.795  1.2736 -1.4132  0.9223
  179MOL0     H24669   9.109   9.121   6.873  2.4481 -0.1833 -0.2183
  179MOL0     H24670   9.181   9.067   6.589 -1.0625  1.0755  0.5567
  179MOL0     H24671   9.114   8.950   6.706  1.1617 -1.3620 -1.1027
  179MOL0     H24672   9.320   8.949   6.842 -3.6846  2.2876 -0.3197
  179MOL0     H24673   9.396   9.050   6.714  1.4693 -0.7009  2.0023
  179MOL0     H24674   9.270   8.776   6.635  0.1443 -0.3810 -1.4588
  179MOL0     H24675   9.358   8.895   6.538 -1.6369  3.1046  0.8378
  179MOL0     H24676   9.433   8.691   6.754 -1.4188 -0.6624 -1.0360
  179MOL0     H24677   9.540   8.836   6.748  1.6864  1.2896  0.2443
  179MOL0     H24678   9.559   8.772   6.494 -0.4890  0.4553  0.2896
  179MOL0     H24679   9.521   8.605   6.549  0.4141  0.8187 -1.3212
  179MOL0     H24680   9.731   8.591   6.567  1.2588  0.1198 -1.1854
  179MOL0     H24681   9.705   8.646   6.736  2.9579 -2.1570 -1.4336
  179MOL0     H24682   8.730   9.041   6.541 -1.4047  2.0665 -5.2647
  179MOL0     H24683   8.510   9.122   6.515 -1.1656  1.5725  0.7445
  179MOL0     H24684   8.192   9.258   6.511 -1.1576 -0.4754 -0.3584
  179MOL0     H24685   7.953   9.292   6.415 -1.3871  0.8508 -0.1479
  179MOL0     H24686   6.326   9.398   6.328 -1.9773 -3.5592  2.4200
  179MOL0     H24687   6.121   9.490   6.346  0.5911  1.1041 -0.7422
  179MOL0     H24688   5.879   9.873   6.534  0.1733 -1.5338  0.8625
  179MOL0     H24689   5.712  10.002   6.462 -1.5516  0.6991  3.1555
  179MOL0     H24690   5.449  10.056   6.432  0.7499  1.4262 -0.1557
  179MOL0     H24691   5.551  10.091   6.290  0.1913  0.1681  1.0736
  179MOL0     H24692   5.319  10.043   6.150 -0.9853 -1.5702  0.8566
  179MOL0     H24693   5.341  10.197   6.236 -2.1023  1.7250  4.4532
  179MOL0     H24694   5.210   9.980   6.363 -1.7613  1.5235  1.5274
  179MOL0     H24695   5.230  10.138   6.418  2.5038  0.2769 -0.1279
  179MOL0     H24696   4.986  10.085   6.298  1.3062  0.0819  2.3952
  179MOL0     H24697   5.078  10.069   6.149 -1.9036 -2.8202  0.7647
  179MOL0     H24698   5.015  10.485   6.175  0.3803  0.5526  2.0558
  179MOL0     H24699   5.499   9.651   6.319 -0.0548 -0.1598  1.0860
  179MOL0     H24700   5.561   9.447   6.368 -0.1677 -0.0287  0.6697
  179MOL0     H24701   5.735   9.448   6.319 -0.4170 -0.5170 -0.5165
  179MOL0     H24702   5.685   9.413   6.491 -1.8561  1.5443  2.2983
  180MOL0     O24703  11.373  11.397  10.729  0.2568 -0.2848 -0.2993
  180MOL0     C24704  11.352  11.518  10.701 -0.5174  0.0577 -0.4545
  180MOL0     O24705  11.366  11.624  10.784  0.3464  0.0222  0.7784
  180MOL0     C24706  11.402  11.606  10.913 -0.2495 -0.1119 -0.0849
  180MOL0     C24707  11.518  11.668  10.960 -0.4151 -0.4663  0.2664
  180MOL0     C24708  11.549  11.673  11.095  0.2186  0.5769  0.1955
  180MOL0     C24709  11.481  11.587  11.190 -0.9920 -0.9592 -0.1738
  180MOL0     O24710  11.526  11.567  11.324 -0.4515  0.1698  0.3606
  180MOL0     C24711  11.610  11.672  11.388  0.0841  0.3359  0.4712
  180MOL0     C24712  11.740  11.618  11.443  0.0018  0.1083 -0.8114
  180MOL0     C24713  11.838  11.574  11.330  0.0614  0.0510 -0.2475
  180MOL0     C24714  11.978  11.551  11.386 -0.1894 -0.2019 -0.1470
  180MOL0     C24715  12.069  11.656  11.319 -0.1809  0.1820  0.0973
  180MOL0     C24716  12.099  11.624  11.177 -0.0976 -0.1868  0.6805
  180MOL0     C24717  12.171  11.740  11.104 -0.7658 -0.3478 -0.7502
  180MOL0     C24718  12.194  11.702  10.960 -0.2761 -0.8756  1.0693
  180MOL0     N24719  12.077  11.688  10.882  0.1388  0.4751  0.9616
  180MOL0     C24720  12.013  11.573  10.848 -0.5250 -0.5606 -0.6190
  180MOL0     C24721  11.903  11.611  10.778  0.0160  0.6513 -0.2492
  180MOL0     C24722  11.784  11.529  10.729 -0.4054 -0.1973  0.6248
  180MOL0     C24723  11.774  11.528  10.576 -0.3620  0.4565  0.4766
  180MOL0     C24724  11.800  11.653  10.492  0.5264 -0.0913  0.1297
  180MOL0     C24725  11.801  11.630  10.337 -0.5155 -0.1279 -0.7471
  180MOL0     O24726  11.902  11.535  10.309  0.1463  0.6245  0.0577
  180MOL0     C24727  11.983  11.557  10.200  0.6619 -0.0929  0.1145
  180MOL0     C24728  11.929  11.566  10.071  0.6377  0.2684 -0.6002
  180MOL0     C24729  12.011  11.578   9.955  0.0089 -0.2702 -0.2335
  180MOL0     C24730  11.937  11.608   9.822  0.3155 -0.7855 -0.3969
  180MOL0     C24731  12.147  11.563   9.974 -0.8296 -0.2171  0.2354
  180MOL0     C24732  12.240  11.563   9.865  0.1553  0.0337  0.5446
  180MOL0     O24733  12.350  11.479   9.872 -0.3623 -0.5521  0.0879
  180MOL0     C24734  12.408  11.430   9.753 -0.0553  0.3396 -0.7912
  180MOL0     C24735  12.528  11.495   9.708 -0.4488 -0.0366  0.1913
  180MOL0     C24736  12.588  11.451   9.591  0.2334 -0.3531  0.2775
  180MOL0     C24737  12.541  11.337   9.529  1.3553 -0.0869  0.2820
  180MOL0     O24738  12.614  11.307   9.416  0.6040  0.3597 -0.6834
  180MOL0     C24739  12.589  11.181   9.354  0.4264  0.8073  0.1823
  180MOL0     C24740  12.686  11.159   9.244 -0.0150  0.1965  0.2323
  180MOL0     C24741  12.632  11.228   9.123  0.6701 -0.2330  0.4482
  180MOL0     C24742  12.715  11.184   8.996  0.0649 -0.2336 -0.7749
  180MOL0     C24743  12.677  11.254   8.867  0.0825 -0.0349 -0.0797
  180MOL0     C24744  12.743  11.205   8.737  0.3241  0.4958 -0.4297
  180MOL0     C24745  12.891  11.230   8.708 -0.7395 -0.0371  0.2174
  180MOL0     C24746  12.926  11.218   8.557 -0.2320  0.2793 -0.0000
  180MOL0    Cl24747  12.909  11.044   8.499  0.0604  0.1501  0.2570
  180MOL0     C24748  12.429  11.260   9.581 -0.2111 -0.7459 -0.0833
  180MOL0     C24749  12.370  11.306   9.700 -0.4984 -0.2453  0.5063
  180MOL0     O24750  12.204  11.618   9.763  0.5731  0.6046 -0.1852
  180MOL0     C24751  12.203  11.534  10.097  0.1672 -0.0212  0.2389
  180MOL0     C24752  12.124  11.537  10.214 -0.2381  0.7869  0.4172
  180MOL0     N24753  11.899  11.745  10.788  0.2910 -0.1770 -0.7284
  180MOL0     N24754  12.008  11.789  10.842  0.2679  0.8513  0.1262
  180MOL0     C24755  11.360  11.523  11.144  1.3771 -0.1616  0.0467
  180MOL0     C24756  11.327  11.526  11.005 -0.2275 -0.1650  0.3224
  180MOL0     C24757  11.279  11.549  10.568  0.2237 -2.2462  1.1353
  180MOL0     C24758  11.235  11.681  10.542  0.0790 -0.4527 -0.1676
  180MOL0     C24759  11.164  11.721  10.424 -0.5889  0.8071  0.1228
  180MOL0     C24760  11.155  11.628  10.323 -0.8517 -0.9177  0.3454
  180MOL0     O24761  11.097  11.661  10.202 -0.1288 -0.4590  0.5684
  180MOL0     C24762  10.953  11.662  10.206  0.1671 -0.0328 -0.5414
  180MOL0     C24763  10.903  11.529  10.260  0.2390  0.7544 -0.0979
  180MOL0     C24764  10.924  11.420  10.155 -0.3821 -0.3171  0.1370
  180MOL0     C24765  10.862  11.287  10.211 -0.1185 -0.2925 -0.0046
  180MOL0     C24766  10.716  11.280  10.189  0.4146 -0.7809  0.1913
  180MOL0     C24767  10.592  11.279  10.179 -0.0972  0.7158  0.6122
  180MOL0     C24768  11.203  11.503  10.340  0.3754  0.6440 -0.1248
  180MOL0     C24769  11.255  11.452  10.457 -0.0396 -1.1971 -0.4118
  180MOL0     C24770  11.285  11.307  10.466 -0.4535  0.4798  0.2060
  180MOL0     H24771  11.585  11.722  10.894 -1.6739 -0.6654 -1.2322
  180MOL0     H24772  11.637  11.730  11.123 -0.2127  1.2850  0.1152
  180MOL0     H24773  11.558  11.708  11.477 -0.9504  0.0053  0.0091
  180MOL0     H24774  11.644  11.755  11.326  2.4720 -0.9325 -0.0558
  180MOL0     H24775  11.782  11.701  11.501 -1.7151  1.5447 -1.5100
  180MOL0     H24776  11.702  11.535  11.503  0.7009  0.8586  0.7325
  180MOL0     H24777  11.787  11.485  11.294  1.1445 -1.3222  1.4829
  180MOL0     H24778  11.840  11.656  11.257  0.8688 -0.5104 -0.8752
  180MOL0     H24779  11.970  11.548  11.495  0.8115 -0.6301 -0.0779
  180MOL0     H24780  12.014  11.456  11.346  0.7025  1.0167 -2.4433
  180MOL0     H24781  12.157  11.668  11.384 -0.0799 -2.7362  0.6437
  180MOL0     H24782  12.026  11.756  11.332  0.3166  0.6665 -1.6944
  180MOL0     H24783  12.157  11.531  11.176  1.3172  0.6299  1.9650
  180MOL0     H24784  12.008  11.594  11.124  0.0777 -1.5908  1.1260
  180MOL0     H24785  12.269  11.754  11.151 -1.4879 -0.8337  1.0127
  180MOL0     H24786  12.110  11.831  11.112 -0.4477 -0.2268  0.7135
  180MOL0     H24787  12.253  11.781  10.911  1.3950 -2.3602  0.5908
  180MOL0     H24788  12.263  11.617  10.955  1.0921  0.2616 -1.7753
  180MOL0     H24789  12.051  11.474  10.868  1.3992  0.2515 -0.0195
  180MOL0     H24790  11.686  11.562  10.766 -0.7384  2.7886 -2.4211
  180MOL0     H24791  11.805  11.429  10.768  1.4339 -0.6137 -1.2428
  180MOL0     H24792  11.853  11.460  10.542  0.7199  1.4658  0.8965
  180MOL0     H24793  11.681  11.482  10.541  0.0336 -0.5597  0.7061
  180MOL0     H24794  11.718  11.724  10.507  1.7994  2.2290 -2.8147
  180MOL0     H24795  11.887  11.713  10.521  0.9614  0.1276 -1.5427
  180MOL0     H24796  11.710  11.577  10.308  0.5406 -2.2381 -0.4339
  180MOL0     H24797  11.821  11.723  10.284  0.6873 -0.0064 -0.1267
  180MOL0     H24798  11.820  11.565  10.064  0.3317 -2.6868  2.3104
  180MOL0     H24799  11.963  11.528   9.753  0.1214 -0.2610 -1.0838
  180MOL0     H24800  11.963  11.701   9.771  1.2649 -1.1637 -0.6134
  180MOL0     H24801  11.829  11.613   9.841  0.4970 -0.5015  0.6142
  180MOL0     H24802  12.565  11.580   9.764  0.0887 -0.0241 -0.1740
  180MOL0     H24803  12.671  11.502   9.543  1.5576 -3.2976 -0.8303
  180MOL0     H24804  12.589  11.095   9.422  3.3838 -0.1005 -0.8095
  180MOL0     H24805  12.488  11.188   9.312  1.5294  0.7892 -2.6908
  180MOL0     H24806  12.780  11.205   9.274 -0.0963  1.2206 -1.0410
  180MOL0     H24807  12.702  11.051   9.232 -0.8918 -0.1230  1.6446
  180MOL0     H24808  12.632  11.337   9.134  0.3441 -0.3253  1.4599
  180MOL0     H24809  12.530  11.192   9.104  0.4560  1.0430 -1.0680
  180MOL0     H24810  12.714  11.075   8.991 -0.6671 -0.6292  3.6421
  180MOL0     H24811  12.817  11.218   9.018  0.1045 -0.7859 -0.0712
  180MOL0     H24812  12.569  11.247   8.851  0.0669 -3.3005  0.5806
  180MOL0     H24813  12.703  11.360   8.872  2.6475 -0.6320  0.4360
  180MOL0     H24814  12.692  11.255   8.654 -0.3226 -1.7058 -1.4392
  180MOL0     H24815  12.727  11.098   8.725  2.5021 -0.2983  2.6949
  180MOL0     H24816  12.944  11.151   8.763 -1.7060 -1.4679 -0.8325
  180MOL0     H24817  12.912  11.329   8.749 -0.3154 -0.0709  0.0875
  180MOL0     H24818  13.030  11.248   8.543 -0.5609  2.6939  1.9164
  180MOL0     H24819  12.869  11.292   8.499  1.1239  0.4496 -1.1518
  180MOL0     H24820  12.395  11.164   9.542 -0.8897 -0.4589 -0.2126
  180MOL0     H24821  12.301  11.242   9.755 -1.2383 -1.9014 -2.1744
  180MOL0     H24822  12.308  11.513  10.113  0.1176  0.8924  2.0063
  180MOL0     H24823  12.163  11.524  10.315 -2.9980 -1.9743  1.3203
  180MOL0     H24824  11.318  11.451  11.214  0.9295 -0.5683 -0.6257
  180MOL0     H24825  11.243  11.465  10.974 -1.9480  1.2786  1.8584
  180MOL0     H24826  11.243  11.768  10.607 -0.4925 -1.0111  0.6641
  180MOL0     H24827  11.124  11.822  10.417 -0.3907  0.7578 -3.4813
  180MOL0     H24828  10.918  11.744  10.269 -0.3854 -0.7790  0.1402
  180MOL0     H24829  10.919  11.681  10.104 -1.8286  0.8220  0.2299
  180MOL0     H24830  10.794  11.537  10.269 -0.0277  2.1439 -3.1183
  180MOL0     H24831  10.945  11.506  10.358  2.0086 -0.1356 -1.0340
  180MOL0     H24832  10.875  11.456  10.064  1.2796 -0.1303 -0.7050
  180MOL0     H24833  11.030  11.406  10.134 -0.6670 -0.5504 -1.2483
  180MOL0     H24834  10.895  11.268  10.314  0.7305 -1.1871 -0.4242
  180MOL0     H24835  10.898  11.203  10.151  2.6357  1.1769 -0.5910
  180MOL0     H24836  10.485  11.289  10.171 -0.6514 -1.1189  3.8633
  180MOL0     H24837  11.214  11.451  10.246  0.7254  1.0841 -0.3289
  180MOL0     H24838  11.216  11.268  10.542 -1.1044 -0.5042 -0.8554
  180MOL0     H24839  11.253  11.252  10.377  1.3331 -0.8072  0.3012
  180MOL0     H24840  11.390  11.278  10.479 -0.2202  0.4598 -1.4574
  181MOL0     O24841   5.003   2.971  10.126  0.2566 -0.4017  0.6332
  181MOL0     C24842   5.017   2.949  10.004  0.4775 -0.5737 -0.1865
  181MOL0     O24843   4.920   2.943   9.907  0.4287 -0.7500  0.6427
  181MOL0     C24844   4.798   3.016   9.899 -0.9332  0.2492 -0.0576
  181MOL0     C24845   4.748   3.091  10.005  0.0106  0.3230 -0.6712
  181MOL0     C24846   4.616   3.151  10.006 -0.2250 -0.4490  0.2037
  181MOL0     C24847   4.538   3.137   9.894  0.1251 -0.1930 -0.4892
  181MOL0     O24848   4.415   3.194   9.891 -0.9847  0.3476  0.5378
  181MOL0     C24849   4.332   3.179   9.772 -0.1711  0.0985 -0.4840
  181MOL0     C24850   4.203   3.258   9.783  0.1162 -0.2217  0.0377
  181MOL0     C24851   4.105   3.184   9.874 -0.4792 -0.4797 -0.7066
  181MOL0     C24852   3.980   3.147   9.813 -0.9203 -0.2811  0.8787
  181MOL0     C24853   3.872   3.095   9.912 -0.5373  0.3384  0.1127
  181MOL0     C24854   3.757   3.059   9.815 -0.4314 -0.5260 -0.7426
  181MOL0     C24855   3.642   2.994   9.896  0.1522  0.5037  0.2607
  181MOL0     C24856   3.546   3.099   9.962  0.3506  1.0644  0.3817
  181MOL0     N24857   3.462   3.143   9.843 -0.1039  0.3731 -0.0497
  181MOL0     C24858   3.499   3.250   9.764 -0.3870 -0.1543 -0.2919
  181MOL0     C24859   3.391   3.269   9.687 -1.5077  0.3482  1.3729
  181MOL0     C24860   3.385   3.395   9.592 -0.7635  0.5549  0.0078
  181MOL0     C24861   3.399   3.353   9.448  0.6732 -0.2179  0.3738
  181MOL0     C24862   3.320   3.444   9.355 -1.1258  0.3613 -0.3453
  181MOL0     C24863   3.349   3.413   9.210 -1.0804 -0.1448 -0.4980
  181MOL0     O24864   3.492   3.411   9.188 -0.6015 -0.1717 -0.3489
  181MOL0     C24865   3.551   3.428   9.064  0.1040  0.4669  0.5146
  181MOL0     C24866   3.484   3.469   8.944 -0.5891  0.2578  0.4537
  181MOL0     C24867   3.546   3.486   8.819 -0.0845  0.5069 -0.3065
  181MOL0     C24868   3.465   3.498   8.696 -0.1267  0.5028  0.2925
  181MOL0     C24869   3.693   3.479   8.817  0.1712 -0.3605  0.6658
  181MOL0     C24870   3.786   3.486   8.695 -0.0279  1.0492  0.6676
  181MOL0     O24871   3.920   3.499   8.721  0.2197  0.4062 -0.5054
  181MOL0     C24872   4.009   3.490   8.617  0.0382 -0.4723  0.1329
  181MOL0     C24873   4.110   3.582   8.617 -0.2660 -0.1301  0.5472
  181MOL0     C24874   4.210   3.587   8.510  0.1826 -0.7930  0.0621
  181MOL0     C24875   4.220   3.486   8.419  0.4483 -0.1411 -0.2476
  181MOL0     O24876   4.332   3.483   8.338 -0.7885 -0.3538 -0.3792
  181MOL0     C24877   4.332   3.392   8.227  1.6157 -0.3483  0.2453
  181MOL0     C24878   4.455   3.420   8.141  0.3811  0.2452  0.1435
  181MOL0     C24879   4.433   3.392   7.994  0.3132  0.0315  0.0455
  181MOL0     C24880   4.549   3.454   7.914 -0.0448 -0.2818 -0.5711
  181MOL0     C24881   4.670   3.356   7.919  0.0229  0.3008  0.0396
  181MOL0     C24882   4.787   3.413   7.838 -0.7138 -0.2989 -0.6805
  181MOL0     C24883   4.908   3.327   7.850 -0.1651  0.5489  0.5269
  181MOL0     C24884   5.042   3.397   7.809 -0.1765 -0.0746 -0.4315
  181MOL0    Cl24885   5.182   3.287   7.832 -0.2708 -0.0530 -0.1303
  181MOL0     C24886   4.125   3.382   8.430  0.5495  0.7010 -0.0365
  181MOL0     C24887   4.018   3.381   8.523 -0.4603  1.1577  0.1675
  181MOL0     O24888   3.730   3.471   8.587 -0.1388  0.4326 -0.2178
  181MOL0     C24889   3.759   3.457   8.941  0.1840 -0.2944  0.2730
  181MOL0     C24890   3.690   3.431   9.060 -0.1169 -0.1299 -0.5022
  181MOL0     N24891   3.298   3.168   9.704 -0.1504  0.3016  0.6078
  181MOL0     N24892   3.348   3.083   9.792 -0.4343  0.1675 -0.2790
  181MOL0     C24893   4.597   3.061   9.785 -0.5345  0.1500 -0.5282
  181MOL0     C24894   4.728   3.003   9.783  0.5377 -0.3405  0.3446
  181MOL0     C24895   5.156   2.913   9.955  0.3004 -0.1859 -0.3118
  181MOL0     C24896   5.179   2.920   9.820 -0.4226 -0.6860  0.3561
  181MOL0     C24897   5.295   2.878   9.756 -0.0704  1.0031  0.5976
  181MOL0     C24898   5.400   2.835   9.828  0.2057  0.2442  0.6030
  181MOL0     O24899   5.517   2.784   9.773 -0.1571  0.3650 -0.7386
  181MOL0     C24900   5.525   2.755   9.634  0.0560  0.3977 -0.1082
  181MOL0     C24901   5.670   2.709   9.607 -0.9591  0.6339 -1.9826
  181MOL0     C24902   5.701   2.677   9.461 -0.0784 -0.4479 -0.3575
  181MOL0     C24903   5.847   2.651   9.451 -0.3826 -0.5149  0.0231
  181MOL0     C24904   5.891   2.603   9.318  0.3316 -0.1800  0.8687
  181MOL0     C24905   5.925   2.574   9.203 -0.5454  0.4365 -0.1616
  181MOL0     C24906   5.393   2.827   9.968 -0.1282 -0.1486  0.1354
  181MOL0     C24907   5.272   2.869  10.034 -0.5765 -0.0221 -0.3284
  181MOL0     C24908   5.273   2.850  10.185 -0.6782 -0.1589 -0.7175
  181MOL0     H24909   4.822   3.101  10.083 -2.5808  0.6825  1.9115
  181MOL0     H24910   4.586   3.206  10.095  0.1630  2.6250 -1.4334
  181MOL0     H24911   4.320   3.071   9.769 -1.9772  0.2103  0.8462
  181MOL0     H24912   4.389   3.230   9.693  0.3499 -0.1065 -0.2462
  181MOL0     H24913   4.219   3.359   9.822 -3.4207  1.0352 -1.3085
  181MOL0     H24914   4.167   3.274   9.681 -0.1143  0.4717  0.2252
  181MOL0     H24915   4.154   3.097   9.917  0.3599 -1.8540 -4.0869
  181MOL0     H24916   4.094   3.250   9.960  3.1925  0.1382 -0.5456
  181MOL0     H24917   3.939   3.234   9.761 -2.2804 -1.2468  0.2620
  181MOL0     H24918   3.997   3.071   9.736  2.2330  0.3058  0.8453
  181MOL0     H24919   3.833   3.172   9.980 -1.2032  0.9190 -0.8950
  181MOL0     H24920   3.919   3.016   9.970  2.5595  2.1949  0.3785
  181MOL0     H24921   3.729   3.142   9.748  0.9486 -0.7839 -1.6881
  181MOL0     H24922   3.798   2.993   9.739 -0.1969 -1.1156 -0.1108
  181MOL0     H24923   3.683   2.918   9.962  0.5263  0.1377 -0.3819
  181MOL0     H24924   3.587   2.930   9.826 -0.1165 -1.0663  1.8490
  181MOL0     H24925   3.483   3.045  10.034  3.4175 -3.0043  0.4367
  181MOL0     H24926   3.600   3.180  10.012  0.3775  0.8892  0.6415
  181MOL0     H24927   3.595   3.302   9.763 -1.1901  1.3731 -0.5195
  181MOL0     H24928   3.460   3.470   9.616  0.4186  0.6832 -3.5249
  181MOL0     H24929   3.284   3.436   9.604 -1.4251 -0.8547 -0.4600
  181MOL0     H24930   3.506   3.364   9.428  1.2148  1.4503  3.4813
  181MOL0     H24931   3.366   3.252   9.422  4.0232 -0.9746 -1.7391
  181MOL0     H24932   3.213   3.432   9.375 -1.3510  0.1951 -1.5659
  181MOL0     H24933   3.348   3.547   9.379  4.4233 -1.2553  1.7690
  181MOL0     H24934   3.305   3.317   9.182  2.4186 -2.1374  0.3025
  181MOL0     H24935   3.308   3.490   9.143 -1.0194 -1.1214 -1.7010
  181MOL0     H24936   3.376   3.468   8.953 -0.6104  2.9565  1.2087
  181MOL0     H24937   3.516   3.557   8.619  1.0226 -0.3586  0.3699
  181MOL0     H24938   3.372   3.543   8.733  0.1890 -0.3919  2.3282
  181MOL0     H24939   3.443   3.396   8.665  2.2868  0.1230 -0.3437
  181MOL0     H24940   4.108   3.671   8.679  0.0147  0.6448 -0.5298
  181MOL0     H24941   4.281   3.669   8.517 -2.5691  1.6071  2.3808
  181MOL0     H24942   4.330   3.287   8.259 -0.7780 -0.6147 -0.5686
  181MOL0     H24943   4.246   3.412   8.163  1.8316 -2.3668 -0.7770
  181MOL0     H24944   4.473   3.528   8.140 -1.3764  0.5744  0.0942
  181MOL0     H24945   4.538   3.363   8.182  0.7295  1.2471  0.8829
  181MOL0     H24946   4.343   3.430   7.943  0.7979  1.3968  0.1586
  181MOL0     H24947   4.429   3.284   7.981  1.6022 -0.0921  0.6012
  181MOL0     H24948   4.572   3.552   7.956 -2.6498 -0.3919  1.4021
  181MOL0     H24949   4.526   3.486   7.812  1.7550  1.5123 -0.4640
  181MOL0     H24950   4.693   3.339   8.024  0.7538  1.6152  0.1164
  181MOL0     H24951   4.645   3.259   7.875 -2.6363  0.7934  0.3043
  181MOL0     H24952   4.810   3.508   7.886 -0.9312 -0.7955  0.4443
  181MOL0     H24953   4.772   3.428   7.731  1.0883  0.1632 -0.8997
  181MOL0     H24954   4.905   3.237   7.787  1.6132  0.6060  0.3121
  181MOL0     H24955   4.930   3.292   7.951  2.6535  0.6984  0.0394
  181MOL0     H24956   5.065   3.472   7.885  3.8019 -1.3381 -0.1501
  181MOL0     H24957   5.049   3.447   7.711 -2.0204  3.0304  0.8967
  181MOL0     H24958   4.131   3.285   8.381  0.1953  0.0091  1.2230
  181MOL0     H24959   3.953   3.295   8.531  1.2996 -0.3423 -0.7973
  181MOL0     H24960   3.867   3.470   8.950 -0.0480  1.0668  1.6362
  181MOL0     H24961   3.748   3.413   9.150 -0.5665  1.9273  0.2628
  181MOL0     H24962   4.523   3.039   9.709 -3.9753 -0.1546  2.5564
  181MOL0     H24963   4.772   2.936   9.710 -1.5878  0.0867 -1.4418
  181MOL0     H24964   5.109   2.968   9.752  0.3107  0.5293  0.4498
  181MOL0     H24965   5.299   2.877   9.647 -2.8313  1.6331  0.4064
  181MOL0     H24966   5.456   2.677   9.600  1.7539  0.2442 -3.7138
  181MOL0     H24967   5.499   2.850   9.587  0.6484  0.7362  0.2332
  181MOL0     H24968   5.690   2.623   9.670  0.2176  2.4515  0.2857
  181MOL0     H24969   5.739   2.778   9.656 -1.1313 -1.8463  2.1585
  181MOL0     H24970   5.652   2.588   9.420  0.2412 -0.9499  0.3224
  181MOL0     H24971   5.675   2.765   9.401  1.6526  0.3750  0.0586
  181MOL0     H24972   5.870   2.568   9.518  0.2677 -1.1078 -0.9110
  181MOL0     H24973   5.899   2.742   9.483  0.1471  0.1566 -2.5093
  181MOL0     H24974   5.965   2.554   9.106 -0.5658 -1.6060  0.2144
  181MOL0     H24975   5.477   2.794  10.028  1.9498 -0.5375 -2.7794
  181MOL0     H24976   5.208   2.767  10.216  1.0264 -0.4183  2.5906
  181MOL0     H24977   5.366   2.832  10.240 -0.5895 -1.4759 -1.2451
  181MOL0     H24978   5.232   2.940  10.231 -0.0152 -0.3321  0.2252
  182MOL0     O24979  10.409  11.163   7.916 -0.3426 -0.3581  0.1040
  182MOL0     C24980  10.428  11.255   7.831  0.3812  0.3545  0.0352
  182MOL0     O24981  10.538  11.336   7.824 -0.4135 -0.6649  0.0098
  182MOL0     C24982  10.653  11.317   7.900  0.2352 -0.3306 -0.0088
  182MOL0     C24983  10.696  11.195   7.949 -0.2761  0.4898 -0.4874
  182MOL0     C24984  10.813  11.192   8.020 -0.8390  0.0597  0.5849
  182MOL0     C24985  10.889  11.305   8.048  0.4879  0.6537 -0.1939
  182MOL0     O24986  11.006  11.317   8.127  0.2914 -0.2621  0.2503
  182MOL0     C24987  11.055  11.206   8.204  0.3160 -0.0840  0.3717
  182MOL0     C24988  11.169  11.260   8.302  0.4715 -0.1553  0.5017
  182MOL0     C24989  11.248  11.151   8.366 -0.3813  0.6282  0.2009
  182MOL0     C24990  11.340  11.228   8.474  0.0946 -0.3706 -0.1630
  182MOL0     C24991  11.417  11.150   8.582  0.3236  0.4796 -0.0657
  182MOL0     C24992  11.462  11.010   8.545 -0.0656 -0.7780  0.0827
  182MOL0     C24993  11.576  11.007   8.438  0.1367 -0.1578  0.0475
  182MOL0     C24994  11.607  10.861   8.403  1.1596 -0.0604  0.6627
  182MOL0     N24995  11.745  10.834   8.341 -0.1769 -0.1215 -0.8018
  182MOL0     C24996  11.864  10.845   8.410  0.5474 -0.0651 -0.3765
  182MOL0     C24997  11.954  10.797   8.319  0.2723 -0.0221 -0.7621
  182MOL0     C24998  12.103  10.777   8.339 -0.1527 -0.3141  0.0718
  182MOL0     C24999  12.125  10.667   8.441  0.2680  0.3698 -0.2604
  182MOL0     C25000  12.275  10.628   8.435  1.0660  0.3161  0.5040
  182MOL0     C25001  12.288  10.485   8.492  1.0517 -0.3517  0.0584
  182MOL0     O25002  12.425  10.468   8.505 -0.0520  0.7028 -0.0648
  182MOL0     C25003  12.475  10.358   8.564  0.2830 -0.1220 -0.0724
  182MOL0     C25004  12.400  10.251   8.623  1.1589  0.3065 -0.4171
  182MOL0     C25005  12.460  10.134   8.675  0.6493 -0.1845 -0.2241
  182MOL0     C25006  12.360  10.033   8.741  0.3670 -0.1958 -0.1164
  182MOL0     C25007  12.600  10.119   8.679 -0.8288  0.0674 -0.1475
  182MOL0     C25008  12.671  10.012   8.748 -0.4302  0.2270 -0.7105
  182MOL0     O25009  12.803  10.017   8.746  0.3994  0.0565 -0.0776
  182MOL0     C25010  12.886   9.940   8.813  0.2043  0.3793 -0.1237
  182MOL0     C25011  13.021   9.945   8.777  0.4955 -0.0971  0.7642
  182MOL0     C25012  13.120   9.857   8.835  0.1611  0.8827 -0.0649
  182MOL0     C25013  13.076   9.763   8.933  0.3500  0.4609 -0.1720
  182MOL0     O25014  13.172   9.674   8.979  0.2374 -0.0262  0.2573
  182MOL0     C25015  13.130   9.546   9.025  0.0980 -0.1763  0.0206
  182MOL0     C25016  13.078   9.473   8.899 -0.0867  0.8397 -0.2788
  182MOL0     C25017  13.016   9.332   8.921  0.5166 -0.2386 -0.0614
  182MOL0     C25018  12.869   9.335   8.961  0.1445 -0.0664  0.1677
  182MOL0     C25019  12.809   9.191   8.973  0.0085 -0.5381  0.3628
  182MOL0     C25020  12.863   9.126   9.103 -0.7346  0.3449  0.0221
  182MOL0     C25021  12.791   8.993   9.136  0.0184 -0.0521 -0.7203
  182MOL0     C25022  12.850   8.923   9.263 -0.4146 -0.3693 -0.2041
  182MOL0    Cl25023  12.824   9.033   9.397 -0.3406  0.0712 -0.0921
  182MOL0     C25024  12.940   9.754   8.968  0.4557  0.1663  0.3699
  182MOL0     C25025  12.846   9.846   8.916 -0.0180  0.2968  0.1512
  182MOL0     O25026  12.607   9.926   8.807  0.3803 -0.5712 -0.7074
  182MOL0     C25027  12.676  10.232   8.632 -0.5071 -0.5969  0.3631
  182MOL0     C25028  12.610  10.346   8.585 -0.0256 -0.2645  0.1239
  182MOL0     N25029  11.888  10.771   8.203  0.7441 -0.4811  0.9686
  182MOL0     N25030  11.760  10.792   8.216  0.1954 -0.3761  1.1492
  182MOL0     C25031  10.842  11.420   8.001  0.0266 -0.6789  0.2233
  182MOL0     C25032  10.730  11.425   7.920  0.0961  0.0533  0.1731
  182MOL0     C25033  10.315  11.279   7.740 -0.4595 -0.7725  0.4170
  182MOL0     C25034  10.301  11.408   7.691  0.0256  0.2341  0.0656
  182MOL0     C25035  10.195  11.453   7.610  0.3359  0.2826 -0.5318
  182MOL0     C25036  10.095  11.368   7.567  0.6330  0.3888  1.0530
  182MOL0     O25037   9.988  11.416   7.492  0.6764 -0.3199 -0.4601
  182MOL0     C25038   9.946  11.330   7.396  0.7823 -1.0035  0.4028
  182MOL0     C25039   9.871  11.408   7.286  0.7339 -0.5863 -0.3396
  182MOL0     C25040   9.788  11.309   7.213 -0.6830  0.3993 -0.0810
  182MOL0     C25041   9.734  11.369   7.078 -0.4282 -0.0331 -0.6845
  182MOL0     C25042   9.668  11.272   7.004  0.6394  0.4520  0.1046
  182MOL0     C25043   9.607  11.181   6.949  0.1858 -0.4639 -0.6352
  182MOL0     C25044  10.114  11.231   7.601 -0.2695  0.4587  0.1629
  182MOL0     C25045  10.219  11.190   7.691  1.0349  0.3809  0.0538
  182MOL0     C25046  10.240  11.036   7.722  0.4465 -0.0275 -0.0939
  182MOL0     H25047  10.642  11.102   7.936 -2.7311  1.3939  2.2537
  182MOL0     H25048  10.849  11.093   8.046 -1.2240  0.0708  1.1801
  182MOL0     H25049  11.100  11.134   8.134 -2.4957 -0.4024 -1.2635
  182MOL0     H25050  10.980  11.147   8.258  2.9000 -0.8331  3.3939
  182MOL0     H25051  11.229  11.328   8.242 -0.5393  0.4802  0.1919
  182MOL0     H25052  11.127  11.327   8.378 -0.5288  1.1287 -1.0889
  182MOL0     H25053  11.178  11.076   8.404  0.5376 -0.6328 -0.5075
  182MOL0     H25054  11.307  11.096   8.291  1.2615  1.4864  0.8285
  182MOL0     H25055  11.415  11.278   8.412 -0.8718  0.2188 -0.8932
  182MOL0     H25056  11.292  11.311   8.525  1.1579 -0.0105  0.2767
  182MOL0     H25057  11.341  11.141   8.660  1.0707 -1.2919  0.5151
  182MOL0     H25058  11.496  11.199   8.638  2.2041 -1.3558 -0.9828
  182MOL0     H25059  11.498  10.969   8.640 -3.4258  2.0809  2.8681
  182MOL0     H25060  11.378  10.949   8.509  0.3496 -0.3431 -1.7037
  182MOL0     H25061  11.669  11.043   8.483 -0.6476  1.5101  0.3942
  182MOL0     H25062  11.547  11.067   8.352 -1.0842 -0.8883 -0.0760
  182MOL0     H25063  11.586  10.793   8.486  0.9382  1.7758  2.1731
  182MOL0     H25064  11.536  10.843   8.321  2.9439  2.9308 -1.7579
  182MOL0     H25065  11.881  10.885   8.510 -1.3444 -1.3435  0.5185
  182MOL0     H25066  12.148  10.864   8.388  0.5358 -1.1418  0.9508
  182MOL0     H25067  12.153  10.757   8.243 -2.1823  2.5023 -1.7454
  182MOL0     H25068  12.108  10.683   8.548  0.1519 -2.7510  0.2592
  182MOL0     H25069  12.069  10.578   8.415  1.1181 -0.1162 -0.4736
  182MOL0     H25070  12.318  10.633   8.335 -2.0734  0.6859 -0.9657
  182MOL0     H25071  12.327  10.683   8.514  0.9385 -0.6515  1.2839
  182MOL0     H25072  12.225  10.478   8.581  1.3223 -1.1086  0.1972
  182MOL0     H25073  12.250  10.409   8.422 -3.2523  0.4407  1.2320
  182MOL0     H25074  12.293  10.268   8.612  1.4893  3.0966  0.0562
  182MOL0     H25075  12.354  10.047   8.850  0.8852 -2.3254  0.2247
  182MOL0     H25076  12.382   9.929   8.715  1.8606  0.3164 -1.0148
  182MOL0     H25077  12.255  10.051   8.715  1.0854  1.3016 -2.2686
  182MOL0     H25078  13.060  10.013   8.701 -0.7269 -0.7626 -0.4951
  182MOL0     H25079  13.223   9.855   8.801 -0.1418  2.6083 -1.1645
  182MOL0     H25080  13.207   9.481   9.066  0.7375 -0.6576 -1.8432
  182MOL0     H25081  13.051   9.555   9.101  0.7307 -2.3811  1.0318
  182MOL0     H25082  12.997   9.537   8.861 -1.7099  0.1414  1.8215
  182MOL0     H25083  13.157   9.469   8.823  3.0411  0.0687  2.7564
  182MOL0     H25084  13.078   9.282   8.996 -0.4250 -3.3132 -1.1696
  182MOL0     H25085  13.024   9.271   8.830  1.8767  1.8039 -1.3983
  182MOL0     H25086  12.810   9.390   8.888 -2.6167 -1.2567  1.3699
  182MOL0     H25087  12.864   9.380   9.061  1.0971  0.0177  0.1857
  182MOL0     H25088  12.700   9.191   8.976 -0.1741  0.5048 -2.8601
  182MOL0     H25089  12.851   9.134   8.890 -0.1512 -0.9263  0.5461
  182MOL0     H25090  12.858   9.194   9.188  0.1408  2.1287 -1.3091
  182MOL0     H25091  12.969   9.098   9.097  0.1924  2.4961  3.5145
  182MOL0     H25092  12.792   8.936   9.043 -0.8073 -0.9560 -0.1941
  182MOL0     H25093  12.688   9.020   9.161  0.3255  0.1593  0.3392
  182MOL0     H25094  12.958   8.905   9.257 -0.3215 -2.6256  4.1608
  182MOL0     H25095  12.790   8.835   9.287 -0.1279 -0.6288 -0.4458
  182MOL0     H25096  12.906   9.683   9.043  0.2767 -0.9250 -0.7051
  182MOL0     H25097  12.746   9.845   8.958 -1.5597  0.2827 -3.2371
  182MOL0     H25098  12.782  10.241   8.652  0.0894 -4.5784 -0.2870
  182MOL0     H25099  12.668  10.436   8.568 -2.5692  1.5329  0.3445
  182MOL0     H25100  10.896  11.512   8.023 -0.2826 -0.2141 -0.9002
  182MOL0     H25101  10.684  11.515   7.879 -1.8467 -0.0632  1.9499
  182MOL0     H25102  10.371  11.490   7.701 -0.1562  0.2974  0.8135
  182MOL0     H25103  10.183  11.558   7.586 -0.5429  0.1749 -0.6045
  182MOL0     H25104  10.031  11.288   7.341 -0.1528 -0.3192 -1.6675
  182MOL0     H25105   9.889  11.241   7.424  1.5732 -1.0668  1.8874
  182MOL0     H25106   9.950  11.459   7.230  1.0244 -1.3783 -0.6628
  182MOL0     H25107   9.808  11.481   7.338  3.7134  0.1073  2.6070
  182MOL0     H25108   9.850  11.220   7.199  0.5121  0.8974  1.6848
  182MOL0     H25109   9.705  11.269   7.271 -0.7591  1.4528  0.5698
  182MOL0     H25110   9.818  11.401   7.015 -0.1066  4.0468  1.5052
  182MOL0     H25111   9.664  11.451   7.096 -1.6230 -0.9620 -0.9983
  182MOL0     H25112   9.564  11.094   6.905 -0.4078  0.4810 -2.0100
  182MOL0     H25113  10.041  11.160   7.563 -0.4221  0.5447  0.2926
  182MOL0     H25114  10.171  10.975   7.664  0.3782 -0.5015  0.4772
  182MOL0     H25115  10.342  11.000   7.710 -0.3209 -2.4608  0.0572
  182MOL0     H25116  10.208  11.019   7.825 -1.1772  0.3470 -0.4891
  183MOL0     O25117   5.880  10.503  11.098  0.2173 -0.0919 -0.1584
  183MOL0     C25118   5.836  10.481  10.986  0.0211 -0.5134  0.3665
  183MOL0     O25119   5.891  10.536  10.868  0.3897 -0.0083  0.1003
  183MOL0     C25120   6.011  10.597  10.885  0.6161 -0.2801 -0.2348
  183MOL0     C25121   6.121  10.529  10.936 -0.1576  0.2233 -0.3459
  183MOL0     C25122   6.253  10.598  10.927  0.5399 -0.2726  0.6336
  183MOL0     C25123   6.266  10.728  10.892  0.0719 -0.2979 -0.2754
  183MOL0     O25124   6.381  10.801  10.908  0.6660 -0.0774 -0.1339
  183MOL0     C25125   6.445  10.806  11.041 -0.4196 -0.1873 -0.0863
  183MOL0     C25126   6.603  10.805  11.031  0.1287 -0.2226  0.6152
  183MOL0     C25127   6.655  10.688  10.955 -0.1853 -0.6115  0.8617
  183MOL0     C25128   6.803  10.695  10.973  0.1136  0.8170  0.0502
  183MOL0     C25129   6.868  10.567  10.919  0.5242  0.8090  0.4375
  183MOL0     C25130   7.016  10.592  10.901  0.7766  0.1432  0.2239
  183MOL0     C25131   7.083  10.487  10.803 -0.9298  0.3483 -0.3551
  183MOL0     C25132   7.088  10.341  10.853 -0.4436  0.1029  0.1072
  183MOL0     N25133   7.209  10.337  10.943  0.3948  0.9153 -0.5710
  183MOL0     C25134   7.343  10.342  10.903  0.9754  0.2434 -0.2135
  183MOL0     C25135   7.418  10.362  11.017  0.7740  0.9238  0.1309
  183MOL0     C25136   7.563  10.388  11.028  0.1392  0.3261  0.2646
  183MOL0     C25137   7.582  10.525  11.088  0.3152  1.2903  0.2639
  183MOL0     C25138   7.722  10.536  11.151 -0.1070 -1.2703  0.5037
  183MOL0     C25139   7.744  10.442  11.278  0.5973 -0.0046 -0.6970
  183MOL0     O25140   7.885  10.453  11.314 -0.8138 -0.4385 -0.2020
  183MOL0     C25141   7.923  10.421  11.446 -0.4836  0.5883  0.2156
  183MOL0     C25142   8.061  10.391  11.448  0.6565 -0.4081  0.2534
  183MOL0     C25143   8.131  10.346  11.565  0.2991 -0.1777  0.6297
  183MOL0     C25144   8.282  10.325  11.553  0.0023 -0.7700  0.3223
  183MOL0     C25145   8.050  10.330  11.680  0.3635 -0.0264 -0.9826
  183MOL0     C25146   8.111  10.285  11.812 -0.7050  0.3113  0.4011
  183MOL0     O25147   8.065  10.352  11.920 -0.2377 -0.4232 -0.3149
  183MOL0     C25148   8.114  10.327  12.047  1.3905  0.0528  0.4405
  183MOL0     C25149   8.168  10.437  12.108 -0.1082 -0.0132 -0.6066
  183MOL0     C25150   8.214  10.434  12.238 -0.1440 -0.1667 -0.4297
  183MOL0     C25151   8.199  10.320  12.315  0.0506  0.2919  0.0295
  183MOL0     O25152   8.234  10.305  12.446 -0.6830  0.4877  0.0617
  183MOL0     C25153   8.297  10.420  12.510 -0.3340 -0.4488  0.5324
  183MOL0     C25154   8.351  10.410  12.653  0.4547 -0.3604  1.1827
  183MOL0     C25155   8.493  10.347  12.665 -0.0627  0.3182  0.8873
  183MOL0     C25156   8.598  10.456  12.703  0.5776 -0.6858  0.3502
  183MOL0     C25157   8.736  10.400  12.667  0.3557  0.0023  0.0040
  183MOL0     C25158   8.840  10.513  12.650 -0.1408  0.2637  0.2090
  183MOL0     C25159   8.979  10.459  12.625  0.3864  0.3043  0.8766
  183MOL0     C25160   9.093  10.568  12.623  0.7019  0.5362  0.0263
  183MOL0    Cl25161   9.109  10.656  12.770  0.0931 -0.1027 -0.2044
  183MOL0     C25162   8.147  10.209  12.252  0.2304  0.0111  0.4400
  183MOL0     C25163   8.092  10.212  12.122  1.6651 -0.6763 -0.4001
  183MOL0     O25164   8.190  10.192  11.819  0.3125  0.6217 -0.3000
  183MOL0     C25165   7.916  10.371  11.677  0.1045 -0.1930  0.1719
  183MOL0     C25166   7.857  10.409  11.562  0.6298 -0.3180  0.5148
  183MOL0     N25167   7.324  10.377  11.121 -0.4510  0.6370 -0.3984
  183MOL0     N25168   7.205  10.349  11.080  0.7061 -0.8421 -0.7574
  183MOL0     C25169   6.158  10.792  10.848  0.5273  0.0211 -0.0103
  183MOL0     C25170   6.030  10.728  10.839  0.8900 -0.4424  0.2942
  183MOL0     C25171   5.707  10.411  10.968  0.4810 -0.8158 -0.0909
  183MOL0     C25172   5.627  10.467  10.869 -0.2836 -1.4364 -0.1782
  183MOL0     C25173   5.493  10.427  10.855 -0.2313  0.1870 -0.4441
  183MOL0     C25174   5.437  10.324  10.931  0.0225  0.0723  1.2867
  183MOL0     O25175   5.311  10.288  10.904 -0.9107 -0.5658  0.0488
  183MOL0     C25176   5.269  10.152  10.901 -0.3665  0.3342 -0.3131
  183MOL0     C25177   5.342  10.065  10.795 -0.1007 -0.1968  0.4788
  183MOL0     C25178   5.259   9.936  10.772 -0.0355  0.2083 -0.8845
  183MOL0     C25179   5.319   9.872  10.648  0.2035 -0.0316  0.5135
  183MOL0     C25180   5.264   9.733  10.630 -0.1725 -0.8520 -0.7401
  183MOL0     C25181   5.241   9.615  10.630 -0.0601 -0.6625 -0.8714
  183MOL0     C25182   5.515  10.268  11.029  0.2735 -0.2309  0.9754
  183MOL0     C25183   5.652  10.305  11.047  0.1632 -0.1674 -0.9173
  183MOL0     C25184   5.737  10.231  11.153  0.0078  0.7523  0.0882
  183MOL0     H25185   6.119  10.427  10.972  0.4877 -0.1351 -1.3099
  183MOL0     H25186   6.337  10.539  10.962 -0.3777 -0.1741  3.2020
  183MOL0     H25187   6.410  10.729  11.111  0.4434 -1.8811 -1.4245
  183MOL0     H25188   6.417  10.903  11.083 -2.3779 -1.1132  0.8913
  183MOL0     H25189   6.621  10.897  10.976 -0.3126 -0.9315 -0.7574
  183MOL0     H25190   6.651  10.819  11.128  2.8127 -2.5850 -0.2089
  183MOL0     H25191   6.623  10.594  11.001  0.1855 -2.3795 -2.2037
  183MOL0     H25192   6.626  10.688  10.850 -0.7977 -1.3050  1.0207
  183MOL0     H25193   6.843  10.784  10.924 -0.6204  1.7710  1.1166
  183MOL0     H25194   6.832  10.723  11.075  2.0730  2.6070 -0.9240
  183MOL0     H25195   6.827  10.526  10.826  4.1677 -0.6897 -0.6868
  183MOL0     H25196   6.860  10.480  10.984 -1.3861  1.9165  1.7968
  183MOL0     H25197   7.026  10.686  10.846 -2.9303 -0.0531 -1.0298
  183MOL0     H25198   7.064  10.609  10.998 -0.6600  0.0530  0.9723
  183MOL0     H25199   7.186  10.520  10.786 -0.6173  0.4559  1.5305
  183MOL0     H25200   7.024  10.496  10.712 -2.9795  0.8308  0.9674
  183MOL0     H25201   6.993  10.317  10.900 -0.8664 -1.7442 -1.5251
  183MOL0     H25202   7.089  10.260  10.779  0.9517 -1.2473  1.5459
  183MOL0     H25203   7.378  10.315  10.803 -2.3044  0.8530 -1.6616
  183MOL0     H25204   7.599  10.386  10.924 -0.8075  0.1019 -0.0663
  183MOL0     H25205   7.614  10.306  11.079 -0.7601  0.6217  1.6965
  183MOL0     H25206   7.567  10.601  11.012  0.1445  0.1212 -0.9165
  183MOL0     H25207   7.506  10.539  11.165 -1.3335 -0.2316 -0.9876
  183MOL0     H25208   7.787  10.503  11.070  1.2169 -0.1744  1.0670
  183MOL0     H25209   7.757  10.638  11.172  1.3988 -2.1079  2.2706
  183MOL0     H25210   7.682  10.467  11.364  0.1146 -2.3770 -0.2981
  183MOL0     H25211   7.727  10.336  11.258  1.3264 -0.6633  1.8202
  183MOL0     H25212   8.126  10.395  11.361  1.5615 -5.0254  0.4548
  183MOL0     H25213   8.324  10.226  11.573  2.2367  0.1249  0.4097
  183MOL0     H25214   8.334  10.397  11.618  0.1214 -1.0041  0.4864
  183MOL0     H25215   8.316  10.346  11.451 -1.0671  0.2613  0.1576
  183MOL0     H25216   8.188  10.528  12.052  0.9021  0.5589  0.6320
  183MOL0     H25217   8.262  10.525  12.274  0.1901 -1.0549  1.4804
  183MOL0     H25218   8.377  10.470  12.454 -0.7146  2.4355  2.3839
  183MOL0     H25219   8.221  10.499  12.505  1.1368  0.9718 -2.3645
  183MOL0     H25220   8.359  10.511  12.693  1.4551  0.2050 -0.3391
  183MOL0     H25221   8.276  10.354  12.710 -0.2450 -1.1295 -0.4160
  183MOL0     H25222   8.523  10.294  12.574  0.4233 -1.6149  2.1343
  183MOL0     H25223   8.494  10.280  12.751  1.1396  2.1724  2.3888
  183MOL0     H25224   8.603  10.496  12.804  2.7652 -1.0196  0.4292
  183MOL0     H25225   8.581  10.537  12.632  1.4562 -2.4652 -2.0529
  183MOL0     H25226   8.766  10.338  12.752 -2.5443  1.9468  2.6557
  183MOL0     H25227   8.735  10.349  12.570 -1.1337  1.5835 -0.8763
  183MOL0     H25228   8.840  10.574  12.740 -1.4611 -0.6953  0.8974
  183MOL0     H25229   8.827  10.572  12.559  3.8684  0.4651 -0.4187
  183MOL0     H25230   8.966  10.400  12.534 -0.3365  1.1323  0.4299
  183MOL0     H25231   9.007  10.390  12.704  5.5802  0.6165 -0.3432
  183MOL0     H25232   9.067  10.636  12.542 -0.9874 -1.6609 -1.3753
  183MOL0     H25233   9.188  10.516  12.612 -1.6970 -4.3615 -0.2916
  183MOL0     H25234   8.139  10.121  12.315 -0.3880  0.2233  0.6651
  183MOL0     H25235   8.050  10.125  12.072 -1.2986  0.6217 -0.4266
  183MOL0     H25236   7.852  10.375  11.765 -0.4897  1.1681 -0.3007
  183MOL0     H25237   7.749  10.426  11.563  0.8399  1.2035 -0.4623
  183MOL0     H25238   6.173  10.897  10.825  0.2018  0.0040 -0.3161
  183MOL0     H25239   5.942  10.772  10.794  0.9300 -0.1356  0.5231
  183MOL0     H25240   5.667  10.547  10.808 -1.5412 -0.0808  0.7066
  183MOL0     H25241   5.432  10.469  10.775  0.5813 -0.9428 -1.7035
  183MOL0     H25242   5.289  10.107  10.999 -1.3714  1.3543  0.3876
  183MOL0     H25243   5.164  10.155  10.872  0.1582 -0.7487 -2.5006
  183MOL0     H25244   5.447  10.053  10.824 -0.5296 -1.2078  1.7113
  183MOL0     H25245   5.329  10.126  10.705 -2.1215  2.7734  2.5646
  183MOL0     H25246   5.275   9.866  10.854 -1.0501 -2.1071 -2.5742
  183MOL0     H25247   5.150   9.949  10.769 -0.4979 -2.5262  0.8951
  183MOL0     H25248   5.426   9.850  10.640  0.3084  0.5465  0.2918
  183MOL0     H25249   5.285   9.927  10.560 -1.9177  1.2594  2.0472
  183MOL0     H25250   5.220   9.511  10.616  0.1060 -0.6936 -0.8839
  183MOL0     H25251   5.471  10.199  11.099 -0.9827  0.7682  1.1914
  183MOL0     H25252   5.738  10.286  11.248  3.5192 -1.0174  1.2308
  183MOL0     H25253   5.703  10.127  11.161  0.9486  0.1411 -2.9214
  183MOL0     H25254   5.839  10.229  11.115 -0.5471 -0.0216 -1.4232
  184MOL0     O25255   6.452   1.962   6.523 -0.0938 -0.2071 -0.7507
  184MOL0     C25256   6.428   2.018   6.633  0.1519  0.3819 -0.0747
  184MOL0     O25257   6.517   2.083   6.711  0.0462  0.0261  0.7405
  184MOL0     C25258   6.644   2.078   6.667  0.2552  0.0999 -0.0104
  184MOL0     C25259   6.750   2.035   6.749  0.7602 -0.3774 -0.7344
  184MOL0     C25260   6.881   2.056   6.716  0.3694  0.5706  0.1328
  184MOL0     C25261   6.915   2.131   6.609  0.2064 -0.4873  0.6432
  184MOL0     O25262   7.052   2.161   6.594 -0.5590  0.0192 -1.0596
  184MOL0     C25263   7.100   2.181   6.452 -0.2295  0.8282 -0.8145
  184MOL0     C25264   7.242   2.229   6.455  0.7772  0.4713  0.0410
  184MOL0     C25265   7.286   2.221   6.302 -0.4318  0.8154 -0.2650
  184MOL0     C25266   7.419   2.293   6.286  0.8677 -0.6628  0.2954
  184MOL0     C25267   7.533   2.204   6.318 -0.2139  0.9892 -0.0380
  184MOL0     C25268   7.656   2.288   6.368  0.7198  0.5972  0.2052
  184MOL0     C25269   7.790   2.203   6.397 -0.2799 -0.4404  0.4013
  184MOL0     C25270   7.839   2.138   6.267 -0.2428  0.5269  0.1898
  184MOL0     N25271   7.982   2.113   6.292  0.8149 -0.4142 -0.3793
  184MOL0     C25272   8.034   2.021   6.368  0.2026 -0.1360  0.2709
  184MOL0     C25273   8.166   2.047   6.368  0.9254  0.3748  0.6814
  184MOL0     C25274   8.281   1.984   6.451 -0.0595  0.3402 -0.1107
  184MOL0     C25275   8.383   1.917   6.363 -0.0628 -0.6664  0.4896
  184MOL0     C25276   8.487   1.837   6.442  0.0320  0.4459  0.3465
  184MOL0     C25277   8.578   1.772   6.343 -0.3097 -0.1077 -0.1090
  184MOL0     O25278   8.689   1.865   6.300  0.3393 -0.4850 -0.1824
  184MOL0     C25279   8.806   1.841   6.366  0.2554 -0.1165  0.3021
  184MOL0     C25280   8.913   1.876   6.293 -0.9758  0.3161  0.0061
  184MOL0     C25281   9.044   1.846   6.326 -0.7413 -0.3500 -0.1104
  184MOL0     C25282   9.146   1.894   6.218 -1.3108  0.0714 -0.7799
  184MOL0     C25283   9.065   1.795   6.461  0.0211  0.0488 -0.2198
  184MOL0     C25284   9.204   1.770   6.508 -0.0756 -0.3462 -0.4853
  184MOL0     O25285   9.216   1.732   6.640 -0.6010  0.3465  0.0123
  184MOL0     C25286   9.338   1.682   6.681 -0.7299 -0.2323 -0.4365
  184MOL0     C25287   9.402   1.714   6.805 -0.0165 -1.2693  0.1993
  184MOL0     C25288   9.529   1.661   6.837 -0.2532 -1.0128 -0.2078
  184MOL0     C25289   9.591   1.566   6.757  0.3677  1.0334  0.1020
  184MOL0     O25290   9.711   1.523   6.804  0.3412 -0.3105  0.3253
  184MOL0     C25291   9.765   1.399   6.755 -0.0122 -0.0255  0.4760
  184MOL0     C25292   9.892   1.364   6.829 -0.2724 -0.0777 -0.9270
  184MOL0     C25293   9.994   1.476   6.798 -0.4668  0.6384 -0.8361
  184MOL0     C25294  10.083   1.490   6.918  0.0962 -0.3540  0.0397
  184MOL0     C25295  10.206   1.575   6.872  0.2883  0.7818 -0.6891
  184MOL0     C25296  10.286   1.628   6.992  0.8408 -0.0214  0.0202
  184MOL0     C25297  10.344   1.509   7.079  0.8456 -0.5181 -0.5425
  184MOL0     C25298  10.400   1.567   7.205  0.2694  0.5739 -0.5016
  184MOL0    Cl25299  10.548   1.658   7.157 -0.2260 -0.0859  0.6055
  184MOL0     C25300   9.528   1.528   6.638  0.8702 -0.8276 -0.4213
  184MOL0     C25301   9.397   1.577   6.609 -0.8969 -0.7989  1.0434
  184MOL0     O25302   9.297   1.791   6.434  0.3034 -0.3819 -0.0934
  184MOL0     C25303   8.960   1.753   6.535 -0.2353 -0.1498 -0.2279
  184MOL0     C25304   8.825   1.769   6.487 -0.1043  0.3632 -0.8095
  184MOL0     N25305   8.193   2.146   6.278  0.6484  0.4539  0.4030
  184MOL0     N25306   8.078   2.180   6.226 -0.2551  0.4766 -0.9226
  184MOL0     C25307   6.812   2.173   6.517 -0.6913  0.7078 -0.9587
  184MOL0     C25308   6.681   2.149   6.552  0.5954 -0.0537 -0.3818
  184MOL0     C25309   6.291   1.995   6.688 -0.2754  0.0132 -0.2817
  184MOL0     C25310   6.216   1.893   6.629 -0.4548 -0.1443  0.8261
  184MOL0     C25311   6.082   1.875   6.660  0.0349 -0.4427  1.0062
  184MOL0     C25312   6.022   1.954   6.755 -0.3162  0.0622 -0.6451
  184MOL0     O25313   5.892   1.934   6.767  0.0375  0.1956 -0.0147
  184MOL0     C25314   5.816   2.010   6.868 -0.8985 -0.5155  0.5120
  184MOL0     C25315   5.669   1.955   6.877 -0.1407 -1.3761 -0.6677
  184MOL0     C25316   5.677   1.801   6.897  1.3980 -0.2669 -0.6590
  184MOL0     C25317   5.532   1.759   6.921  0.4003 -0.3066 -0.6415
  184MOL0     C25318   5.524   1.621   6.967 -0.3743  0.5213 -0.9816
  184MOL0     C25319   5.520   1.498   6.991  0.0435 -0.9756  0.1364
  184MOL0     C25320   6.097   2.054   6.822  0.7800  0.8571 -0.1240
  184MOL0     C25321   6.231   2.072   6.789 -0.0006 -0.9150  0.5944
  184MOL0     C25322   6.291   2.203   6.847 -0.0544 -0.0900  0.4431
  184MOL0     H25323   6.714   2.002   6.846  1.1886  1.1581 -0.0111
  184MOL0     H25324   6.953   2.003   6.777 -0.1132  0.4073  0.5724
  184MOL0     H25325   7.052   2.262   6.396  2.6248  2.9332 -0.4495
  184MOL0     H25326   7.101   2.083   6.405  2.6943  0.6996 -0.6556
  184MOL0     H25327   7.244   2.332   6.492 -0.0903  0.8833 -1.0212
  184MOL0     H25328   7.290   2.164   6.529 -1.8748 -0.5519  0.9694
  184MOL0     H25329   7.303   2.117   6.274 -3.4681 -0.0385  0.6485
  184MOL0     H25330   7.221   2.271   6.229  1.7095  1.2256 -1.9946
  184MOL0     H25331   7.439   2.346   6.193 -0.9108 -0.1789  0.1523
  184MOL0     H25332   7.406   2.371   6.362  0.1751 -1.1717  0.7159
  184MOL0     H25333   7.568   2.148   6.231  2.3777 -0.3647  1.7186
  184MOL0     H25334   7.506   2.126   6.391 -0.8336 -2.5484 -3.6972
  184MOL0     H25335   7.680   2.355   6.285  2.8816 -1.7319 -1.2190
  184MOL0     H25336   7.623   2.351   6.451 -3.5414  2.3515 -2.5048
  184MOL0     H25337   7.766   2.123   6.467  2.6833 -1.0427  0.8436
  184MOL0     H25338   7.865   2.272   6.434 -1.3835  0.1869  1.5456
  184MOL0     H25339   7.782   2.046   6.251  0.6235  0.0108  0.0069
  184MOL0     H25340   7.830   2.208   6.183  2.2330  1.3315  0.4934
  184MOL0     H25341   7.983   1.952   6.435 -0.6626 -0.0030 -0.2348
  184MOL0     H25342   8.241   1.908   6.518 -0.2017  0.2787 -0.2663
  184MOL0     H25343   8.328   2.058   6.516  3.7018  1.3689 -3.5499
  184MOL0     H25344   8.329   1.853   6.293 -0.3530 -2.0275  1.9017
  184MOL0     H25345   8.446   1.986   6.307 -0.2902  0.4977  1.6090
  184MOL0     H25346   8.545   1.899   6.511 -2.0440  0.7316  1.9101
  184MOL0     H25347   8.438   1.751   6.487 -1.6412  0.5729 -1.1318
  184MOL0     H25348   8.621   1.682   6.387 -1.1714 -0.3635  0.2250
  184MOL0     H25349   8.509   1.734   6.268 -0.9443 -0.3237  0.5683
  184MOL0     H25350   8.879   1.918   6.199 -1.9853 -2.0351 -0.7450
  184MOL0     H25351   9.196   1.805   6.179  0.7212 -1.1074  3.7994
  184MOL0     H25352   9.214   1.967   6.262 -3.3555  0.5571  1.8302
  184MOL0     H25353   9.095   1.952   6.141 -1.6241  0.0796 -0.5690
  184MOL0     H25354   9.360   1.776   6.884  0.1653 -3.9722  2.5910
  184MOL0     H25355   9.581   1.688   6.928 -2.2705 -1.1766  1.0571
  184MOL0     H25356   9.689   1.321   6.769 -1.6774  1.5782  0.7056
  184MOL0     H25357   9.791   1.399   6.649  2.7305 -0.7331  1.0601
  184MOL0     H25358   9.856   1.349   6.931 -1.3490 -2.4900 -1.5739
  184MOL0     H25359   9.927   1.265   6.798 -0.3378 -0.3519 -0.1290
  184MOL0     H25360   9.946   1.574   6.796 -0.8290  0.5328  0.9241
  184MOL0     H25361  10.052   1.449   6.709  1.3776  2.1494 -0.1707
  184MOL0     H25362  10.131   1.396   6.945 -0.4214 -0.6432 -0.0464
  184MOL0     H25363  10.031   1.533   7.004  1.4538  0.9368  0.2549
  184MOL0     H25364  10.268   1.511   6.809 -1.8218  1.0328 -3.1930
  184MOL0     H25365  10.167   1.657   6.811 -2.6734 -1.5870 -2.2611
  184MOL0     H25366  10.220   1.693   7.051 -1.3782 -1.9882 -0.1586
  184MOL0     H25367  10.370   1.685   6.949  0.6256  0.0159 -0.3537
  184MOL0     H25368  10.420   1.463   7.015 -0.8599 -1.3370 -2.0501
  184MOL0     H25369  10.266   1.436   7.098 -1.1038  1.5772 -0.0438
  184MOL0     H25370  10.426   1.479   7.264  2.9025  2.0067  0.6569
  184MOL0     H25371  10.344   1.643   7.259  1.7728  0.9902  0.5487
  184MOL0     H25372   9.575   1.464   6.564 -0.0764 -0.5102 -1.3206
  184MOL0     H25373   9.351   1.549   6.515 -0.8818  1.1135  0.4290
  184MOL0     H25374   8.974   1.717   6.636 -2.1810  3.0633  1.3564
  184MOL0     H25375   8.745   1.745   6.557  2.4415 -1.9038  1.5835
  184MOL0     H25376   6.825   2.223   6.421 -0.1805  3.0382  0.2589
  184MOL0     H25377   6.597   2.183   6.492 -1.8558  3.1839  4.2702
  184MOL0     H25378   6.269   1.830   6.559 -0.6663  0.2600  0.2912
  184MOL0     H25379   6.020   1.805   6.605  1.5578 -1.1670  0.1371
  184MOL0     H25380   5.856   2.004   6.970  1.9610  1.7989 -0.3111
  184MOL0     H25381   5.830   2.117   6.847  0.2857 -0.6492  0.5528
  184MOL0     H25382   5.616   1.968   6.782 -0.0451  1.0509 -0.4501
  184MOL0     H25383   5.609   2.002   6.955  0.7462 -0.2610 -0.6376
  184MOL0     H25384   5.728   1.748   6.816  0.2679 -0.8852 -0.9907
  184MOL0     H25385   5.726   1.791   6.994 -1.6537 -0.2619  0.9987
  184MOL0     H25386   5.493   1.766   6.819  1.7640  1.5916 -1.0901
  184MOL0     H25387   5.478   1.823   6.990 -0.4432 -0.0412 -1.5304
  184MOL0     H25388   5.516   1.392   7.005 -2.2854 -1.5486 -3.6099
  184MOL0     H25389   6.050   2.123   6.890  0.0101 -1.0899  1.4188
  184MOL0     H25390   6.273   2.283   6.774 -1.0496 -0.6052  0.1038
  184MOL0     H25391   6.230   2.241   6.930 -2.1632  0.4157 -1.2629
  184MOL0     H25392   6.394   2.202   6.883 -0.3891  0.3014  1.4642
  185MOL0     O25393   4.079  10.894   7.999 -0.1652  0.0197 -0.7603
  185MOL0     C25394   3.973  10.868   7.942  0.2531  0.0835 -0.2674
  185MOL0     O25395   3.937  10.742   7.900  0.0572  0.8919  0.2978
  185MOL0     C25396   4.040  10.649   7.902 -0.0387 -0.4193  0.0773
  185MOL0     C25397   4.130  10.640   7.795  0.8961 -0.2328 -0.2182
  185MOL0     C25398   4.230  10.546   7.793 -0.1227  0.1967  0.4305
  185MOL0     C25399   4.244  10.448   7.894  0.1713 -0.7038 -0.3077
  185MOL0     O25400   4.344  10.354   7.914  0.1526  0.0083 -0.9503
  185MOL0     C25401   4.459  10.358   7.842 -0.3075  0.3451 -0.0778
  185MOL0     C25402   4.540  10.225   7.876 -0.4639 -0.2863  0.4010
  185MOL0     C25403   4.691  10.258   7.912  1.0061  0.8667 -0.6005
  185MOL0     C25404   4.735  10.118   7.973 -0.1747 -0.6583 -0.2781
  185MOL0     C25405   4.872  10.108   8.042 -0.8269 -0.1778  0.1371
  185MOL0     C25406   4.985  10.171   7.949 -0.1780 -0.7725 -0.2720
  185MOL0     C25407   5.123  10.128   8.000 -0.4445 -0.4544  1.0568
  185MOL0     C25408   5.158   9.985   7.942  0.5253  0.3289 -0.0537
  185MOL0     N25409   5.287   9.940   8.007 -0.3719 -0.1082  0.8405
  185MOL0     C25410   5.401  10.023   8.024  0.8448  0.5483  0.1661
  185MOL0     C25411   5.487   9.936   8.085  0.4399  0.7993 -0.1859
  185MOL0     C25412   5.623   9.962   8.135 -0.5285 -0.1461  0.1020
  185MOL0     C25413   5.622  10.067   8.240  0.1918  0.1726 -0.4941
  185MOL0     C25414   5.747  10.099   8.314  0.2078 -0.2917  0.4663
  185MOL0     C25415   5.828   9.987   8.377 -0.8023  0.3371  0.3546
  185MOL0     O25416   5.936  10.052   8.453 -0.4009  0.0107  0.3219
  185MOL0     C25417   6.052  10.087   8.384 -0.4754 -0.1246  0.9101
  185MOL0     C25418   6.074  10.072   8.239 -0.3900  0.4163  0.9129
  185MOL0     C25419   6.204  10.088   8.182  0.1794  0.4392 -0.2326
  185MOL0     C25420   6.226  10.055   8.032 -0.0489  0.2407  0.1967
  185MOL0     C25421   6.307  10.132   8.275 -0.7606 -0.1656 -0.4875
  185MOL0     C25422   6.449  10.174   8.226 -0.7910 -1.0474 -0.0908
  185MOL0     O25423   6.540  10.203   8.327 -0.3626 -1.1816  0.2520
  185MOL0     C25424   6.676  10.214   8.311 -0.3171 -0.5704 -0.6859
  185MOL0     C25425   6.747  10.145   8.214  0.3068  0.9064  0.7167
  185MOL0     C25426   6.886  10.166   8.206 -0.2759 -0.1267 -0.6579
  185MOL0     C25427   6.956  10.242   8.295 -0.6002 -0.3382  0.2493
  185MOL0     O25428   7.087  10.283   8.284 -0.2985 -0.1729  0.4065
  185MOL0     C25429   7.178  10.206   8.204  0.0282 -0.0342  0.2774
  185MOL0     C25430   7.319  10.265   8.188 -0.6670  0.6417 -0.1165
  185MOL0     C25431   7.326  10.410   8.141  0.0277  0.4570 -1.2421
  185MOL0     C25432   7.468  10.436   8.071  0.0744  0.4878  0.0291
  185MOL0     C25433   7.542  10.565   8.124 -0.2939 -0.5239  0.2398
  185MOL0     C25434   7.690  10.548   8.096  0.5533  0.2377  0.2833
  185MOL0     C25435   7.767  10.676   8.120  0.4653 -0.6563 -0.4918
  185MOL0     C25436   7.911  10.655   8.080  1.5478 -0.0458 -0.0656
  185MOL0    Cl25437   7.982  10.527   8.191  0.3234 -0.0113 -0.1167
  185MOL0     C25438   6.879  10.311   8.390  0.3958  0.0788  0.0525
  185MOL0     C25439   6.743  10.303   8.399 -0.0892 -0.3699  0.3786
  185MOL0     O25440   6.476  10.191   8.110 -0.4240 -0.3299 -0.4590
  185MOL0     C25441   6.277  10.163   8.414  0.1542  0.4593 -0.6536
  185MOL0     C25442   6.152  10.144   8.461  0.8442  0.0241 -0.1995
  185MOL0     N25443   5.421   9.821   8.121 -0.2621  0.1098 -0.4293
  185MOL0     N25444   5.303   9.821   8.068 -0.8014 -0.4529  0.5280
  185MOL0     C25445   4.149  10.444   7.992 -0.3053 -1.3856 -0.5401
  185MOL0     C25446   4.054  10.550   8.004 -0.0859 -0.1639  0.3304
  185MOL0     C25447   3.874  10.978   7.908  0.8122  0.2007 -0.0077
  185MOL0     C25448   3.772  10.946   7.819 -0.2886 -1.2635  0.7957
  185MOL0     C25449   3.682  11.041   7.772 -1.0967 -0.9782  0.3080
  185MOL0     C25450   3.696  11.175   7.808 -0.0423  0.7178 -0.7828
  185MOL0     O25451   3.616  11.280   7.756  0.1628  0.6951 -0.3309
  185MOL0     C25452   3.506  11.327   7.835 -0.1030  0.2954  0.4685
  185MOL0     C25453   3.438  11.443   7.761 -0.6484 -1.2642 -0.1547
  185MOL0     C25454   3.335  11.377   7.664 -0.4125 -0.2321 -1.3986
  185MOL0     C25455   3.310  11.466   7.547  0.0628 -0.6365  0.4213
  185MOL0     C25456   3.432  11.474   7.459 -0.2831 -1.3706  0.1848
  185MOL0     C25457   3.543  11.476   7.406  0.2135  0.1512 -0.8642
  185MOL0     C25458   3.796  11.210   7.896  0.3212 -0.0806  0.1434
  185MOL0     C25459   3.889  11.112   7.950  0.4231 -0.2184 -0.2706
  185MOL0     C25460   3.983  11.160   8.054  0.5640 -0.4037  0.3145
  185MOL0     H25461   4.126  10.706   7.709 -0.0233 -2.2011 -1.7967
  185MOL0     H25462   4.295  10.552   7.706  1.0079 -3.5066  0.8470
  185MOL0     H25463   4.516  10.450   7.851 -1.8768  1.4410 -0.8609
  185MOL0     H25464   4.434  10.348   7.736  1.1153 -0.8642 -0.3447
  185MOL0     H25465   4.489  10.172   7.958 -1.7921 -0.1636 -0.3234
  185MOL0     H25466   4.537  10.152   7.794 -1.0469  0.4465 -0.2414
  185MOL0     H25467   4.746  10.280   7.820 -0.2431 -2.6310 -2.3835
  185MOL0     H25468   4.692  10.343   7.980 -0.8322  2.2052 -2.1485
  185MOL0     H25469   4.653  10.084   8.036  0.0849 -2.8728 -1.0578
  185MOL0     H25470   4.745  10.045   7.892  2.6443 -0.4409 -0.2380
  185MOL0     H25471   4.903  10.007   8.071 -1.1644 -0.7254 -1.3126
  185MOL0     H25472   4.860  10.163   8.136  1.2628 -1.4960  1.2734
  185MOL0     H25473   4.979  10.143   7.843  1.7069  0.0061 -0.6328
  185MOL0     H25474   4.981  10.280   7.959  0.6785 -0.7427 -0.1385
  185MOL0     H25475   5.115  10.137   8.109 -0.6036  3.8109  0.8587
  185MOL0     H25476   5.197  10.205   7.978 -0.6076 -1.0622 -2.1408
  185MOL0     H25477   5.077   9.912   7.941 -2.1958  3.1336  0.1365
  185MOL0     H25478   5.175  10.008   7.837 -2.6634  0.6717 -0.5899
  185MOL0     H25479   5.407  10.121   7.977 -0.0132 -0.5348 -2.3497
  185MOL0     H25480   5.679   9.997   8.048 -0.4166  2.6498  1.2028
  185MOL0     H25481   5.672   9.876   8.182 -2.1977 -0.7238  0.8665
  185MOL0     H25482   5.584  10.156   8.188 -0.9774 -0.6395 -1.0646
  185MOL0     H25483   5.551  10.034   8.316  0.3617  3.0737  1.0778
  185MOL0     H25484   5.816  10.144   8.243  1.3533 -0.7021  1.2853
  185MOL0     H25485   5.719  10.163   8.398 -0.6160 -0.1190  0.0712
  185MOL0     H25486   5.762   9.934   8.445 -1.2740 -0.3154 -0.5899
  185MOL0     H25487   5.865   9.919   8.299 -0.2932  0.8072  0.1774
  185MOL0     H25488   6.002  10.039   8.165  0.8327  0.2326 -0.2148
  185MOL0     H25489   6.237  10.152   7.983  0.7193  0.9496  1.7274
  185MOL0     H25490   6.146   9.993   7.990  0.4438 -1.7331  1.9952
  185MOL0     H25491   6.322  10.003   8.017 -0.1631  0.3300 -0.9693
  185MOL0     H25492   6.705  10.068   8.150  2.0165  0.1879  0.3964
  185MOL0     H25493   6.934  10.120   8.120  0.6310 -0.5480  0.0621
  185MOL0     H25494   7.191  10.105   8.246  1.4332  0.4092  0.9602
  185MOL0     H25495   7.140  10.194   8.102  0.7627  0.9117 -0.1275
  185MOL0     H25496   7.366  10.254   8.286  0.7328  0.7789 -0.7508
  185MOL0     H25497   7.371  10.201   8.116 -1.8139  2.1682 -2.4142
  185MOL0     H25498   7.321  10.482   8.223 -0.6173  0.6001 -1.4031
  185MOL0     H25499   7.242  10.445   8.080 -0.3489  1.3105 -0.2660
  185MOL0     H25500   7.463  10.429   7.962  2.4890 -1.8632 -0.0241
  185MOL0     H25501   7.537  10.357   8.101  2.6545  2.2648 -0.8306
  185MOL0     H25502   7.500  10.655   8.078 -0.4314 -0.6516  0.1121
  185MOL0     H25503   7.548  10.574   8.233  0.9110  0.1885  0.1353
  185MOL0     H25504   7.699  10.521   7.990 -0.9334  1.3686 -0.1792
  185MOL0     H25505   7.722  10.462   8.154 -1.4924 -0.5312  0.3703
  185MOL0     H25506   7.765  10.695   8.227 -0.4758 -0.6389 -0.5048
  185MOL0     H25507   7.718  10.760   8.069 -2.5875 -1.2849  1.1526
  185MOL0     H25508   7.965  10.750   8.089  0.5300  0.4105  1.6378
  185MOL0     H25509   7.916  10.622   7.976  0.6950 -1.8709  0.4295
  185MOL0     H25510   6.945  10.370   8.453 -0.9572  0.6843  0.9456
  185MOL0     H25511   6.673  10.355   8.464 -2.4193 -1.6751 -0.9645
  185MOL0     H25512   6.351  10.202   8.482 -1.9610 -0.5106  2.4483
  185MOL0     H25513   6.121  10.175   8.560 -0.7578  1.0556 -0.9847
  185MOL0     H25514   4.151  10.367   8.068  3.2037 -0.5490  0.4320
  185MOL0     H25515   3.985  10.540   8.086 -3.3971  0.8926 -2.0949
  185MOL0     H25516   3.765  10.847   7.776  1.9322 -0.6932 -1.0630
  185MOL0     H25517   3.625  11.006   7.687  2.8829 -1.3950 -2.4611
  185MOL0     H25518   3.445  11.238   7.853 -1.5519  0.4237 -2.9659
  185MOL0     H25519   3.548  11.360   7.930 -2.7454  1.2263  1.4126
  185MOL0     H25520   3.518  11.508   7.725 -0.5944 -2.0638 -1.5488
  185MOL0     H25521   3.389  11.497   7.843 -1.4345 -2.0690 -0.0805
  185MOL0     H25522   3.389  11.288   7.630  0.5800  0.2601 -1.1493
  185MOL0     H25523   3.248  11.354   7.725 -0.8925  2.1623 -1.0776
  185MOL0     H25524   3.287  11.561   7.594  5.1687  2.0385 -1.6780
  185MOL0     H25525   3.231  11.432   7.480  0.6045  1.1143 -1.1698
  185MOL0     H25526   3.644  11.462   7.371 -0.2233 -3.3300 -1.0741
  185MOL0     H25527   3.809  11.308   7.942 -0.1375 -0.5740  1.3553
  185MOL0     H25528   3.952  11.248   8.111  2.1208  0.8148 -0.6238
  185MOL0     H25529   4.013  11.079   8.121 -0.2613 -1.4577 -0.5545
  185MOL0     H25530   4.070  11.197   7.999  0.2395 -0.7684 -0.4648
  186MOL0     O25531   0.246   7.065  10.228  0.1551  0.3791 -0.3386
  186MOL0     C25532   0.213   6.987  10.139  0.4202 -0.6762 -0.6069
  186MOL0     O25533   0.292   6.903  10.076  0.3046  0.5731 -0.0302
  186MOL0     C25534   0.431   6.912  10.089  1.1423 -0.4548 -0.8676
  186MOL0     C25535   0.501   6.878  10.202  0.0471 -0.8701 -0.4631
  186MOL0     C25536   0.638   6.887  10.215 -1.0521  0.8073  0.3220
  186MOL0     C25537   0.714   6.946  10.114 -0.2377 -0.4557  0.2909
  186MOL0     O25538   0.853   6.935  10.122  0.0485 -0.1597  0.1839
  186MOL0     C25539   0.924   6.957   9.998 -0.2010 -0.4862  0.1936
  186MOL0     C25540   1.071   6.931  10.008 -0.4495  0.6698  0.4966
  186MOL0     C25541   1.143   6.927   9.871 -0.4978 -0.6089 -0.5778
  186MOL0     C25542   1.140   7.069   9.821  0.0567 -0.8430  0.0066
  186MOL0     C25543   1.217   7.079   9.690  0.1292 -0.5126  0.0882
  186MOL0     C25544   1.161   6.987   9.578 -0.0399  1.0831  1.1320
  186MOL0     C25545   1.173   7.052   9.435 -0.1351 -0.2163  0.3588
  186MOL0     C25546   1.312   7.081   9.392  0.5872  0.5310 -0.1587
  186MOL0     N25547   1.399   6.965   9.404  0.3072 -0.6074  0.7996
  186MOL0     C25548   1.374   6.836   9.363 -0.4775  0.1381  1.0159
  186MOL0     C25549   1.484   6.766   9.391 -0.1638  0.0621 -0.4949
  186MOL0     C25550   1.482   6.617   9.365  0.3405 -0.0702  0.1475
  186MOL0     C25551   1.601   6.574   9.276 -0.5704  0.0363 -0.0073
  186MOL0     C25552   1.596   6.423   9.280  0.3346 -0.5344  0.5944
  186MOL0     C25553   1.713   6.353   9.215 -0.1656  0.8038 -0.3250
  186MOL0     O25554   1.836   6.375   9.281 -0.0173  0.0451  0.1192
  186MOL0     C25555   1.954   6.329   9.223 -0.0494  0.1767  0.7418
  186MOL0     C25556   1.978   6.218   9.145 -0.0452 -0.5859  0.4872
  186MOL0     C25557   2.107   6.174   9.119 -0.2272 -0.4612  0.6348
  186MOL0     C25558   2.127   6.036   9.070 -0.4071 -0.4187 -0.4368
  186MOL0     C25559   2.217   6.252   9.162 -0.7598 -0.2249 -0.3090
  186MOL0     C25560   2.359   6.227   9.126  0.0362 -0.0763 -0.5074
  186MOL0     O25561   2.443   6.333   9.144 -0.7710  0.3060 -0.3146
  186MOL0     C25562   2.581   6.316   9.138  0.1593 -0.4046 -1.4499
  186MOL0     C25563   2.659   6.424   9.114 -0.1469  0.1487 -0.1376
  186MOL0     C25564   2.797   6.419   9.117  0.0264 -0.5676 -0.7210
  186MOL0     C25565   2.857   6.304   9.162 -1.2899 -0.3447  1.2081
  186MOL0     O25566   2.993   6.308   9.168 -0.2037 -0.4404  0.2152
  186MOL0     C25567   3.060   6.268   9.045  0.3824 -0.5090 -0.0798
  186MOL0     C25568   3.192   6.351   9.020  0.1189  0.8755 -0.6887
  186MOL0     C25569   3.162   6.496   8.989 -0.4720 -0.1616  0.0952
  186MOL0     C25570   3.290   6.573   8.956 -0.0002 -0.0688  0.7659
  186MOL0     C25571   3.400   6.564   9.063 -0.1541 -0.5296 -0.0971
  186MOL0     C25572   3.523   6.644   9.013 -0.1908 -0.2657 -0.2191
  186MOL0     C25573   3.628   6.671   9.121 -0.0335  0.2274  0.9705
  186MOL0     C25574   3.776   6.716   9.074 -0.1537  0.8703 -0.0141
  186MOL0    Cl25575   3.870   6.584   8.997  0.4461 -0.0763  0.3631
  186MOL0     C25576   2.784   6.188   9.178  0.7199 -0.0431  1.4284
  186MOL0     C25577   2.646   6.192   9.164  0.0248 -0.9758  0.1015
  186MOL0     O25578   2.383   6.131   9.053 -0.4728 -0.0718 -0.7518
  186MOL0     C25579   2.185   6.379   9.220  0.5059  0.0270  0.6466
  186MOL0     C25580   2.061   6.413   9.264 -0.4052  0.5976 -0.3050
  186MOL0     N25581   1.576   6.854   9.438  0.5285  0.5944 -0.2507
  186MOL0     N25582   1.521   6.972   9.454 -0.0974  0.3708  0.2565
  186MOL0     C25583   0.645   7.000  10.004  0.0501 -0.0253  0.7359
  186MOL0     C25584   0.505   6.983   9.994 -0.1813  0.5185  0.0882
  186MOL0     C25585   0.074   7.004  10.079 -0.6890  0.0511 -0.2943
  186MOL0     C25586  -0.017   7.086  10.144 -0.1849  0.5609 -0.0562
  186MOL0     C25587  -0.146   7.120  10.099  0.4111  0.6674 -0.1167
  186MOL0     C25588  -0.189   7.045   9.986 -1.3994 -0.5307 -0.6570
  186MOL0     O25589  -0.317   7.052   9.940  0.0505  0.0296  0.1575
  186MOL0     C25590  -0.394   7.163   9.989 -0.1236 -1.1708 -0.8484
  186MOL0     C25591  -0.516   7.204   9.904 -0.7997 -0.3453 -0.7847
  186MOL0     C25592  -0.624   7.093   9.894  0.5257  0.5657 -0.7536
  186MOL0     C25593  -0.750   7.136   9.821 -0.7351 -0.1516 -1.3674
  186MOL0     C25594  -0.815   7.229   9.899  1.4011 -0.1630 -1.2446
  186MOL0     C25595  -0.867   7.319   9.965 -0.3514 -0.3120  0.1378
  186MOL0     C25596  -0.099   6.975   9.905  0.1380 -0.2080  0.3490
  186MOL0     C25597   0.033   6.953   9.953 -0.3943  0.1014 -0.5604
  186MOL0     C25598   0.115   6.867   9.857  0.3915  0.1816  0.0945
  186MOL0     H25599   0.447   6.828  10.282  0.9789  2.0559  2.2097
  186MOL0     H25600   0.690   6.849  10.302  0.4099  0.5640 -0.6153
  186MOL0     H25601   0.897   7.054   9.955 -3.2707 -1.6812 -0.8347
  186MOL0     H25602   0.893   6.882   9.925  0.8947 -1.1743  0.4116
  186MOL0     H25603   1.122   7.010  10.065  0.6583  0.1400  0.2678
  186MOL0     H25604   1.087   6.838  10.063 -0.3730  1.2220  1.4244
  186MOL0     H25605   1.246   6.897   9.891  0.8128  3.9652  0.7856
  186MOL0     H25606   1.098   6.849   9.809 -0.7001 -2.4837  1.7943
  186MOL0     H25607   1.039   7.102   9.794  1.2325  2.3174 -0.9399
  186MOL0     H25608   1.187   7.144   9.884  0.3912  1.2915 -2.5760
  186MOL0     H25609   1.322   7.053   9.703  0.8079  2.4278  1.4521
  186MOL0     H25610   1.215   7.183   9.655 -0.1191 -1.0281 -1.5050
  186MOL0     H25611   1.211   6.890   9.583 -0.1530  1.0687  2.4975
  186MOL0     H25612   1.058   6.962   9.607  0.0420 -2.2459 -1.0230
  186MOL0     H25613   1.111   7.139   9.411  0.6871 -0.1311 -1.6810
  186MOL0     H25614   1.133   6.974   9.371 -3.1520  1.8481 -0.4911
  186MOL0     H25615   1.325   7.117   9.290 -3.5969  0.6687 -0.8320
  186MOL0     H25616   1.354   7.161   9.455  1.3467 -1.5079  2.0605
  186MOL0     H25617   1.282   6.786   9.333  0.3746 -2.0237  1.7512
  186MOL0     H25618   1.394   6.586   9.309  1.1524 -1.1487 -0.5716
  186MOL0     H25619   1.485   6.562   9.459  2.3866 -1.4033 -0.6207
  186MOL0     H25620   1.592   6.605   9.171 -0.3601  2.0454  0.5312
  186MOL0     H25621   1.700   6.611   9.305 -0.2745  0.3172 -1.2964
  186MOL0     H25622   1.597   6.391   9.385 -0.7682 -1.3901  0.3559
  186MOL0     H25623   1.500   6.381   9.250 -0.7623  0.4973  2.4321
  186MOL0     H25624   1.689   6.246   9.209  1.0106  0.4549  0.6344
  186MOL0     H25625   1.717   6.378   9.109 -2.9154 -1.7936 -1.1841
  186MOL0     H25626   1.896   6.150   9.124 -1.2376  0.6650  0.9514
  186MOL0     H25627   2.036   5.975   9.079 -0.6896  0.2596  1.8942
  186MOL0     H25628   2.202   5.988   9.133  0.0650 -0.0862 -0.7446
  186MOL0     H25629   2.165   6.037   8.967  4.4175 -0.1183  1.1078
  186MOL0     H25630   2.611   6.512   9.072 -1.8504  0.4576  2.2444
  186MOL0     H25631   2.831   6.520   9.094 -2.1856  0.2732 -0.5691
  186MOL0     H25632   3.076   6.161   9.065  2.0889 -0.1368  0.7882
  186MOL0     H25633   2.998   6.278   8.956 -0.0040  1.6612  0.3880
  186MOL0     H25634   3.250   6.343   9.112 -0.0695 -2.8232 -0.7322
  186MOL0     H25635   3.256   6.306   8.943 -0.6311 -2.3641  0.3906
  186MOL0     H25636   3.112   6.549   9.070  1.9220  0.7626  1.0616
  186MOL0     H25637   3.103   6.490   8.897 -0.0640  0.1957 -0.1959
  186MOL0     H25638   3.260   6.675   8.930 -0.8961 -0.3344  0.6940
  186MOL0     H25639   3.341   6.533   8.867  0.3829 -0.3239  1.0995
  186MOL0     H25640   3.358   6.593   9.159  0.6506 -1.6925  0.6241
  186MOL0     H25641   3.431   6.460   9.073 -0.3589 -0.4297  1.9996
  186MOL0     H25642   3.510   6.741   8.965 -0.9511 -0.8387 -1.2164
  186MOL0     H25643   3.581   6.587   8.940  2.9091  2.8296 -0.4223
  186MOL0     H25644   3.632   6.582   9.184  0.7046  0.8322  1.8033
  186MOL0     H25645   3.582   6.747   9.184 -2.7259 -0.5303  0.0638
  186MOL0     H25646   3.826   6.743   9.167 -0.4918 -0.0276  0.4409
  186MOL0     H25647   3.785   6.804   9.010 -0.4158  0.0961 -1.1469
  186MOL0     H25648   2.836   6.093   9.190 -1.9981 -2.3193 -2.6481
  186MOL0     H25649   2.593   6.097   9.162  0.0542 -1.0104  0.9356
  186MOL0     H25650   2.261   6.450   9.250  0.1836  0.0810  1.3457
  186MOL0     H25651   2.033   6.500   9.323  0.0272 -0.0519  0.8934
  186MOL0     H25652   0.691   7.043   9.915 -1.8730 -1.1582 -0.8860
  186MOL0     H25653   0.448   7.017   9.908 -0.2183  2.1660  0.7223
  186MOL0     H25654   0.013   7.152  10.225  0.0545  2.0277 -1.3069
  186MOL0     H25655  -0.201   7.187  10.164  0.2477  0.9685 -0.5591
  186MOL0     H25656  -0.431   7.137  10.089 -1.9452 -0.2673 -1.2561
  186MOL0     H25657  -0.333   7.253   9.997  0.5277 -1.7026  0.3926
  186MOL0     H25658  -0.465   7.228   9.811  2.0250 -0.3925  0.6507
  186MOL0     H25659  -0.559   7.298   9.939 -2.0554 -0.0790 -2.9071
  186MOL0     H25660  -0.573   7.017   9.834  1.2350  1.3744 -1.1993
  186MOL0     H25661  -0.634   7.047   9.993  2.3406  1.4684 -0.1010
  186MOL0     H25662  -0.818   7.052   9.804 -0.7514 -0.9543  1.9689
  186MOL0     H25663  -0.737   7.189   9.726 -3.7730  1.1026 -1.1620
  186MOL0     H25664  -0.900   7.387  10.041  0.0452 -0.9728  0.9325
  186MOL0     H25665  -0.139   6.929   9.815  1.3212  0.2650 -0.4378
  186MOL0     H25666   0.138   6.774   9.910  0.0641 -0.1128 -0.2795
  186MOL0     H25667   0.064   6.841   9.764 -1.9165  0.4663  1.2011
  186MOL0     H25668   0.214   6.910   9.840  1.1540 -2.0638 -1.5305
  187MOL0     O25669   7.352   7.164   0.327  0.4418 -0.0055 -0.2129
  187MOL0     C25670   7.339   7.287   0.354  0.3501 -0.0705  0.6465
  187MOL0     O25671   7.428   7.358   0.428 -0.2332  0.3507 -0.2336
  187MOL0     C25672   7.541   7.285   0.463 -0.1442 -0.5844  0.0589
  187MOL0     C25673   7.528   7.195   0.562 -0.3858  0.2287 -0.6204
  187MOL0     C25674   7.628   7.099   0.575 -0.0527  0.9337 -0.6227
  187MOL0     C25675   7.745   7.113   0.508 -0.4178  0.3619  0.0177
  187MOL0     O25676   7.850   7.031   0.535 -0.4594 -0.0024 -0.0102
  187MOL0     C25677   7.922   6.966   0.424  0.0562  0.4507 -0.7441
  187MOL0     C25678   8.068   6.976   0.436 -0.2502 -0.3745 -0.0720
  187MOL0     C25679   8.113   7.128   0.442 -0.3541  0.4468  0.8267
  187MOL0     C25680   8.264   7.155   0.417  1.5457 -0.8432  0.0370
  187MOL0     C25681   8.364   7.086   0.509  0.5543  0.3085 -0.1101
  187MOL0     C25682   8.379   7.139   0.655 -0.6114  0.4131  1.0178
  187MOL0     C25683   8.426   7.284   0.646 -0.2379 -0.3017 -0.7682
  187MOL0     C25684   8.447   7.356   0.780 -0.0580  0.3432 -0.0755
  187MOL0     N25685   8.490   7.496   0.753  0.4082 -0.2693 -0.4786
  187MOL0     C25686   8.423   7.610   0.780 -0.9890 -0.2230  0.4479
  187MOL0     C25687   8.491   7.712   0.724  0.7964 -0.3043 -0.2679
  187MOL0     C25688   8.442   7.861   0.728  0.2142 -0.1515 -0.6499
  187MOL0     C25689   8.361   7.906   0.603 -0.4907  0.3301 -0.3247
  187MOL0     C25690   8.217   7.849   0.602 -0.2899  0.8900 -0.6356
  187MOL0     C25691   8.134   7.874   0.472 -0.9374 -0.3550  0.5528
  187MOL0     O25692   8.106   8.012   0.468  0.0157  0.4158 -0.8367
  187MOL0     C25693   7.984   8.049   0.415  0.1280 -0.2513  0.1236
  187MOL0     C25694   7.958   8.188   0.421 -0.1312  0.6469 -0.0264
  187MOL0     C25695   7.838   8.240   0.372  0.8769 -0.0886  0.5110
  187MOL0     C25696   7.841   8.387   0.368  0.1917 -0.3535  0.4603
  187MOL0     C25697   7.742   8.159   0.307 -0.2701  0.5350  0.4762
  187MOL0     C25698   7.612   8.196   0.258  0.1069 -0.7396  0.7059
  187MOL0     O25699   7.524   8.097   0.224  1.0747 -0.4382  0.1056
  187MOL0     C25700   7.395   8.117   0.198 -0.7151 -0.0104  1.5273
  187MOL0     C25701   7.341   8.046   0.090  0.3060  0.0776  0.4976
  187MOL0     C25702   7.209   8.070   0.038 -0.1792  0.5376 -0.1820
  187MOL0     C25703   7.127   8.160   0.112  0.9136 -0.3139  0.8054
  187MOL0     O25704   7.001   8.170   0.067 -0.1252 -0.3613 -0.7423
  187MOL0     C25705   6.970   8.298   0.012  0.2770  0.7231  0.3316
  187MOL0     C25706   6.947   8.408   0.114 -0.1116  0.1785 -0.0885
  187MOL0     C25707   6.860   8.520   0.068  0.7631  0.6187 -0.1041
  187MOL0     C25708   6.910   8.600  -0.053  0.3055  0.0210 -0.4178
  187MOL0     C25709   6.805   8.706  -0.093 -0.0498 -0.0237 -0.2297
  187MOL0     C25710   6.840   8.742  -0.244 -0.2002  0.1733  0.3957
  187MOL0     C25711   6.948   8.846  -0.248 -0.1005 -0.5142  0.5014
  187MOL0     C25712   6.887   8.984  -0.207 -0.0190  0.1407  0.0626
  187MOL0    Cl25713   6.773   9.057  -0.331 -0.0344 -0.0002 -0.3631
  187MOL0     C25714   7.173   8.215   0.233  0.3677  0.4201 -0.2718
  187MOL0     C25715   7.311   8.201   0.271 -0.0505  0.5177 -0.4903
  187MOL0     O25716   7.585   8.313   0.250 -0.8190 -0.8366 -0.1830
  187MOL0     C25717   7.773   8.024   0.306 -0.2052  0.5967 -1.1142
  187MOL0     C25718   7.892   7.970   0.354 -0.4463  0.2070  0.3134
  187MOL0     N25719   8.603   7.666   0.680 -0.7558 -0.6362 -0.0223
  187MOL0     N25720   8.603   7.534   0.694 -0.8082 -0.4537  0.0417
  187MOL0     C25721   7.761   7.216   0.414 -0.3215 -0.3376  0.0333
  187MOL0     C25722   7.656   7.303   0.376 -0.3185  0.3117 -1.2559
  187MOL0     C25723   7.223   7.360   0.295  0.6116  0.7334 -0.7431
  187MOL0     C25724   7.216   7.499   0.315  0.3056  0.7645 -1.2306
  187MOL0     C25725   7.127   7.574   0.242  0.4427  0.4593  1.1156
  187MOL0     C25726   7.037   7.509   0.150  0.7755  0.2355  0.3592
  187MOL0     O25727   6.960   7.568   0.048 -0.5455 -0.2410  0.2642
  187MOL0     C25728   6.923   7.708   0.071  0.0835  0.5429  0.1787
  187MOL0     C25729   6.803   7.745  -0.010  0.2041 -0.0085 -0.9280
  187MOL0     C25730   6.668   7.685   0.040  0.1006 -0.2638  0.3496
  187MOL0     C25731   6.560   7.728  -0.050  1.4106  0.2695  0.6973
  187MOL0     C25732   6.435   7.674   0.010 -0.1146  0.6978 -0.1975
  187MOL0     C25733   6.335   7.637   0.062  0.3969 -0.2139  0.0507
  187MOL0     C25734   7.048   7.371   0.132  0.5367  0.0041 -0.8109
  187MOL0     C25735   7.123   7.300   0.222  0.0161 -0.2284  0.4051
  187MOL0     C25736   7.105   7.149   0.225 -0.0013  0.3499  0.1348
  187MOL0     H25737   7.434   7.182   0.614 -0.1002 -1.4203 -0.4752
  187MOL0     H25738   7.615   7.010   0.637 -0.7430  0.2314 -1.7219
  187MOL0     H25739   7.883   6.997   0.326  2.2173  0.0192 -1.8185
  187MOL0     H25740   7.897   6.860   0.426 -0.9263  0.6549 -1.4051
  187MOL0     H25741   8.085   6.914   0.524  0.9964 -0.9304 -0.6792
  187MOL0     H25742   8.121   6.937   0.349 -0.2206  1.3148 -0.8688
  187MOL0     H25743   8.065   7.183   0.360 -0.8325 -0.4842  0.4667
  187MOL0     H25744   8.089   7.166   0.542  2.9765 -0.4846  2.1348
  187MOL0     H25745   8.288   7.117   0.317  0.3423 -0.2083 -0.5104
  187MOL0     H25746   8.283   7.263   0.413 -0.7740 -0.4093 -0.8723
  187MOL0     H25747   8.462   7.089   0.461  0.4563 -2.7035 -0.6591
  187MOL0     H25748   8.336   6.980   0.516 -1.3054  0.8290  1.3871
  187MOL0     H25749   8.281   7.135   0.702 -1.3286  2.1437 -0.2070
  187MOL0     H25750   8.456   7.075   0.700  1.8111  2.4649  0.0775
  187MOL0     H25751   8.354   7.344   0.591  0.2966  0.6989 -0.3971
  187MOL0     H25752   8.515   7.284   0.583 -0.5484  0.6129 -1.2125
  187MOL0     H25753   8.352   7.355   0.833 -0.7645  2.0765 -1.2168
  187MOL0     H25754   8.515   7.296   0.841 -1.1348 -0.7948  0.0408
  187MOL0     H25755   8.325   7.603   0.825 -1.0984 -0.2688  0.2059
  187MOL0     H25756   8.530   7.926   0.736  0.5036 -0.6670  0.6497
  187MOL0     H25757   8.380   7.879   0.817 -0.7452 -0.1101 -1.3092
  187MOL0     H25758   8.339   8.013   0.595 -4.0100 -0.1960  0.4440
  187MOL0     H25759   8.413   7.865   0.516 -1.8804 -1.5786 -0.3315
  187MOL0     H25760   8.211   7.742   0.627 -0.7637  1.0050 -0.2506
  187MOL0     H25761   8.161   7.896   0.683  0.3754 -2.1674  1.8020
  187MOL0     H25762   8.195   7.852   0.383 -3.1583  4.0618 -2.4257
  187MOL0     H25763   8.041   7.817   0.480 -1.1363  0.2488  3.1923
  187MOL0     H25764   8.030   8.240   0.483 -0.3719  0.1506  0.6915
  187MOL0     H25765   7.893   8.419   0.277  1.9422 -2.4593  0.6360
  187MOL0     H25766   7.895   8.433   0.450  2.3914 -0.6700 -0.7162
  187MOL0     H25767   7.741   8.432   0.370  0.7659  1.2981 -2.4308
  187MOL0     H25768   7.404   7.971   0.043  0.1588 -0.0886  0.5620
  187MOL0     H25769   7.173   8.022  -0.052 -0.2180  1.6249 -0.7519
  187MOL0     H25770   7.047   8.326  -0.061 -0.7559 -3.2250 -2.6006
  187MOL0     H25771   6.879   8.280  -0.045 -0.1157 -1.4396  1.5375
  187MOL0     H25772   6.898   8.359   0.199  0.6036 -1.3664 -0.5471
  187MOL0     H25773   7.046   8.439   0.150 -0.7281  3.4197 -0.8437
  187MOL0     H25774   6.847   8.593   0.149 -1.0647 -0.8165  0.9758
  187MOL0     H25775   6.759   8.482   0.052  0.8453  1.2578 -2.4949
  187MOL0     H25776   6.926   8.524  -0.130  1.7854  0.5103 -0.6317
  187MOL0     H25777   7.003   8.651  -0.027 -0.1951  0.6581  0.1519
  187MOL0     H25778   6.703   8.667  -0.094 -1.5460  3.5325 -0.5652
  187MOL0     H25779   6.796   8.797  -0.032  1.5275  1.0748 -1.5576
  187MOL0     H25780   6.758   8.799  -0.289 -1.3587  0.0955  2.2869
  187MOL0     H25781   6.865   8.653  -0.301 -1.4398 -0.9785  1.5762
  187MOL0     H25782   6.983   8.854  -0.351  0.5277 -1.9790  0.5732
  187MOL0     H25783   7.035   8.814  -0.190 -0.5618 -0.7658  1.0626
  187MOL0     H25784   6.963   9.060  -0.189 -1.9129  1.8629  1.1313
  187MOL0     H25785   6.832   8.971  -0.113  2.0257  0.3105  1.3418
  187MOL0     H25786   7.096   8.261   0.294  0.7452 -0.5389  0.9502
  187MOL0     H25787   7.355   8.268   0.344 -2.5632 -0.3650  2.0429
  187MOL0     H25788   7.702   7.957   0.259 -0.1195  1.2290 -2.1890
  187MOL0     H25789   7.892   7.862   0.339 -0.6007  0.0320  1.5024
  187MOL0     H25790   7.852   7.219   0.355  0.5243 -2.0328  1.1797
  187MOL0     H25791   7.650   7.373   0.294 -0.7677 -0.0419 -1.5344
  187MOL0     H25792   7.286   7.545   0.383  1.3031 -0.9194 -1.0408
  187MOL0     H25793   7.117   7.680   0.263  0.2427  0.4223  1.2095
  187MOL0     H25794   6.897   7.716   0.177 -0.6586 -2.9167  0.3994
  187MOL0     H25795   7.016   7.763   0.056  1.6377 -0.8606  3.7055
  187MOL0     H25796   6.825   7.721  -0.115  2.1249  1.4430 -0.9192
  187MOL0     H25797   6.780   7.852  -0.013 -1.9241 -0.4122  0.0037
  187MOL0     H25798   6.676   7.577   0.027  0.5844 -0.0774 -1.0627
  187MOL0     H25799   6.646   7.718   0.142 -0.4786  3.5022 -0.8292
  187MOL0     H25800   6.575   7.690  -0.151 -0.5160  3.3015 -0.8728
  187MOL0     H25801   6.568   7.837  -0.058 -0.9398  0.3868 -1.2494
  187MOL0     H25802   6.246   7.599   0.108  0.0824 -0.1806 -0.5213
  187MOL0     H25803   6.986   7.318   0.061  0.9086  1.3717 -2.2135
  187MOL0     H25804   7.088   7.106   0.323 -0.6558 -3.6916 -1.5608
  187MOL0     H25805   7.010   7.127   0.174 -0.0404  1.7185 -0.4565
  187MOL0     H25806   7.186   7.098   0.173  0.8834  1.4882  0.3583
  188MOL0     O25807   9.474   5.398   2.282  0.6635  0.2301 -0.5684
  188MOL0     C25808   9.514   5.390   2.395  0.1051 -1.1585  0.4197
  188MOL0     O25809   9.620   5.313   2.428 -0.2215  0.1426 -0.6490
  188MOL0     C25810   9.720   5.271   2.353 -0.5488 -0.2106  0.4354
  188MOL0     C25811   9.766   5.341   2.245  0.2544 -0.2506  0.0628
  188MOL0     C25812   9.862   5.290   2.159  0.3574  1.1548  0.6125
  188MOL0     C25813   9.922   5.159   2.178  0.0536 -0.6598 -0.3756
  188MOL0     O25814  10.007   5.122   2.083  0.3583 -0.2073  0.3517
  188MOL0     C25815  10.135   5.077   2.123  0.4821  0.1659 -0.4997
  188MOL0     C25816  10.228   5.079   2.012  0.0817 -0.0857 -0.6796
  188MOL0     C25817  10.193   4.989   1.894 -0.1496  0.4683  0.6046
  188MOL0     C25818  10.301   4.885   1.864 -0.3843  0.8855  0.1141
  188MOL0     C25819  10.272   4.771   1.963 -0.0164  0.0227 -0.7645
  188MOL0     C25820  10.393   4.684   1.984 -0.0211  0.3389 -0.3337
  188MOL0     C25821  10.419   4.671   2.139 -0.3410 -0.5407 -0.3489
  188MOL0     C25822  10.548   4.590   2.159 -0.1881  0.0758 -0.0029
  188MOL0     N25823  10.559   4.470   2.077  0.6751  0.4810 -0.0721
  188MOL0     C25824  10.508   4.344   2.110 -0.2407  0.5860  0.6186
  188MOL0     C25825  10.590   4.248   2.050  1.3240 -0.4772 -0.7430
  188MOL0     C25826  10.569   4.095   2.038  0.3319 -0.4832 -0.3642
  188MOL0     C25827  10.425   4.061   1.992 -0.3315 -0.3175  0.4703
  188MOL0     C25828  10.403   4.088   1.841  0.6888 -0.3640  0.3787
  188MOL0     C25829  10.301   4.006   1.778 -0.1965  0.2647  0.2728
  188MOL0     O25830  10.177   4.035   1.841 -0.3741 -0.3583 -0.0608
  188MOL0     C25831  10.104   4.135   1.788 -0.2765  0.0191  0.3187
  188MOL0     C25832  10.044   4.215   1.884 -0.1273 -0.2475 -0.0640
  188MOL0     C25833   9.960   4.322   1.840  0.1178  0.1629  0.6230
  188MOL0     C25834   9.876   4.387   1.948 -0.1884 -0.8538  0.2238
  188MOL0     C25835   9.960   4.359   1.705 -0.0371 -0.1372  0.3155
  188MOL0     C25836   9.907   4.491   1.656 -0.6364  0.4677  0.0126
  188MOL0     O25837   9.863   4.489   1.523  0.0782 -0.3005 -0.3226
  188MOL0     C25838   9.830   4.591   1.449 -0.3244 -0.1377  1.1278
  188MOL0     C25839   9.788   4.720   1.499 -0.6746  0.0053  0.9177
  188MOL0     C25840   9.761   4.829   1.414 -0.4834 -0.3587 -0.9101
  188MOL0     C25841   9.772   4.810   1.281  0.3824  0.3724  0.0920
  188MOL0     O25842   9.742   4.921   1.198 -0.4320 -0.0872 -0.2590
  188MOL0     C25843   9.728   4.908   1.057  0.5194  0.1271 -0.0789
  188MOL0     C25844   9.583   4.847   1.037 -0.6102 -0.1407  0.1912
  188MOL0     C25845   9.559   4.841   0.890 -0.7571 -0.1981  0.1223
  188MOL0     C25846   9.414   4.824   0.846  0.1190  0.5778 -0.0024
  188MOL0     C25847   9.357   4.685   0.870  0.7505  0.0208 -0.6204
  188MOL0     C25848   9.218   4.668   0.811  0.3272 -0.1399  0.8381
  188MOL0     C25849   9.167   4.521   0.823  1.3696 -0.0826  1.0175
  188MOL0     C25850   9.256   4.413   0.769 -0.3481  0.0643  0.3897
  188MOL0    Cl25851   9.308   4.453   0.599  0.3689  0.4959 -0.0576
  188MOL0     C25852   9.803   4.682   1.232 -0.0615 -0.2367  0.0594
  188MOL0     C25853   9.833   4.574   1.309 -0.6814 -0.2063  0.2045
  188MOL0     O25854   9.915   4.589   1.731 -0.7082 -0.4156 -0.5586
  188MOL0     C25855  10.022   4.270   1.611 -0.7581  0.1319  1.1150
  188MOL0     C25856  10.086   4.154   1.652  0.0051 -1.0378  0.1794
  188MOL0     N25857  10.691   4.322   1.980 -0.1020 -0.1318 -0.0573
  188MOL0     N25858  10.676   4.450   2.002  0.4350  1.0166  0.0217
  188MOL0     C25859   9.873   5.088   2.295 -0.4602  1.0564  0.4027
  188MOL0     C25860   9.777   5.141   2.373  0.5451 -0.0492  0.1314
  188MOL0     C25861   9.447   5.460   2.500 -0.5963 -0.3287 -0.0549
  188MOL0     C25862   9.445   5.408   2.631 -0.1873  0.3101 -0.2702
  188MOL0     C25863   9.386   5.481   2.737 -0.9524 -0.5136  0.5006
  188MOL0     C25864   9.319   5.596   2.712  0.7365  0.5176 -0.5611
  188MOL0     O25865   9.256   5.681   2.811 -0.6044 -0.6958 -0.2327
  188MOL0     C25866   9.276   5.654   2.952 -0.3890 -0.1618  1.1549
  188MOL0     C25867   9.413   5.706   3.011 -0.8800 -0.7526 -0.6211
  188MOL0     C25868   9.426   5.667   3.154 -0.7503  0.2008  0.0309
  188MOL0     C25869   9.557   5.729   3.225  0.4293  0.0475  0.7624
  188MOL0     C25870   9.606   5.631   3.331 -0.4380  0.0808  0.1231
  188MOL0     C25871   9.637   5.547   3.420 -0.4669  0.0387 -0.0290
  188MOL0     C25872   9.304   5.640   2.586 -0.1486  0.4578  0.4058
  188MOL0     C25873   9.379   5.582   2.479 -0.4933 -0.6742 -0.8872
  188MOL0     C25874   9.351   5.642   2.345 -0.2477 -0.2747 -0.0185
  188MOL0     H25875   9.727   5.437   2.211 -0.3644  0.5325  2.7729
  188MOL0     H25876   9.895   5.341   2.069  2.0273  0.2652  0.6870
  188MOL0     H25877  10.122   4.975   2.160 -0.8634  1.1101  1.7919
  188MOL0     H25878  10.167   5.131   2.212  0.6220 -1.4568  0.4762
  188MOL0     H25879  10.248   5.180   1.976  2.1303 -0.2254 -0.0914
  188MOL0     H25880  10.326   5.046   2.050  0.3973 -1.2329 -2.3482
  188MOL0     H25881  10.099   4.933   1.906  0.6187 -0.2582  4.5943
  188MOL0     H25882  10.181   5.055   1.807  2.0374 -0.2825 -0.3147
  188MOL0     H25883  10.301   4.844   1.763  0.4001 -3.1283  1.5549
  188MOL0     H25884  10.406   4.915   1.867 -0.2136  0.4309 -0.7886
  188MOL0     H25885  10.184   4.716   1.926 -0.6339  1.6640 -1.8263
  188MOL0     H25886  10.235   4.809   2.059 -1.0717 -0.2911 -1.0294
  188MOL0     H25887  10.383   4.589   1.930  0.6230  1.4245 -2.4488
  188MOL0     H25888  10.483   4.731   1.944  1.5177 -2.1807 -0.0258
  188MOL0     H25889  10.328   4.624   2.177 -0.7229  0.8888  0.5872
  188MOL0     H25890  10.427   4.768   2.189 -1.0793 -0.5673 -0.1738
  188MOL0     H25891  10.635   4.656   2.150  0.0245  0.2692  2.6643
  188MOL0     H25892  10.551   4.561   2.264 -1.0265 -0.4088 -0.1032
  188MOL0     H25893  10.421   4.324   2.172  0.1714  0.0809  1.0437
  188MOL0     H25894  10.573   4.052   2.138 -0.2365  1.5030  0.5578
  188MOL0     H25895  10.637   4.045   1.969  0.3043  1.6254 -2.0411
  188MOL0     H25896  10.420   3.953   2.012  1.6977 -0.4365  0.5637
  188MOL0     H25897  10.354   4.115   2.055  0.8573  0.2406  1.3770
  188MOL0     H25898  10.385   4.194   1.822 -2.3190 -0.9413 -0.4412
  188MOL0     H25899  10.494   4.059   1.787 -1.0841 -2.3101 -1.7372
  188MOL0     H25900  10.305   4.015   1.669  1.8615  4.2746  0.5131
  188MOL0     H25901  10.324   3.901   1.802 -0.0087  1.1078  4.6227
  188MOL0     H25902  10.053   4.187   1.989 -0.8262  0.9071  0.3255
  188MOL0     H25903   9.776   4.415   1.915  0.2650 -0.2125 -0.6487
  188MOL0     H25904   9.930   4.474   1.988 -0.7614  2.5458 -5.3277
  188MOL0     H25905   9.857   4.326   2.037 -1.2984 -0.4340  0.2906
  188MOL0     H25906   9.795   4.748   1.604  1.1231  2.0211  0.3383
  188MOL0     H25907   9.735   4.929   1.449 -1.0635  0.9325 -4.5183
  188MOL0     H25908   9.722   5.007   1.010 -2.3971  0.0079 -0.0920
  188MOL0     H25909   9.810   4.850   1.014 -1.3126 -2.5541 -0.1592
  188MOL0     H25910   9.583   4.747   1.081  0.5100 -0.2632 -0.0599
  188MOL0     H25911   9.514   4.915   1.087  0.0006 -0.2814  1.2535
  188MOL0     H25912   9.624   4.766   0.843  0.5265  0.2496  1.1421
  188MOL0     H25913   9.589   4.936   0.846  0.7048 -0.3215  0.8155
  188MOL0     H25914   9.409   4.837   0.738 -1.8650 -1.6623 -0.2497
  188MOL0     H25915   9.359   4.911   0.883 -0.8816 -0.0695  0.0663
  188MOL0     H25916   9.424   4.618   0.816 -0.0144 -0.0752 -1.4852
  188MOL0     H25917   9.358   4.655   0.975  0.0704 -1.9602 -1.1350
  188MOL0     H25918   9.226   4.701   0.708 -2.4738  0.0267  0.6166
  188MOL0     H25919   9.158   4.743   0.863  0.7699  1.0375 -0.2949
  188MOL0     H25920   9.072   4.506   0.772  1.8316 -2.4090  0.7147
  188MOL0     H25921   9.148   4.507   0.930 -0.7942  0.4434  0.7336
  188MOL0     H25922   9.210   4.314   0.776 -0.9203  0.3039  0.0685
  188MOL0     H25923   9.340   4.402   0.838  1.3174  0.4312 -1.4759
  188MOL0     H25924   9.810   4.660   1.125  1.0611 -2.6406  0.5566
  188MOL0     H25925   9.854   4.477   1.264 -1.9788 -0.3475 -0.1316
  188MOL0     H25926  10.024   4.295   1.506 -1.1162  1.0750  1.3187
  188MOL0     H25927  10.125   4.088   1.576 -3.6775 -1.9746 -1.0507
  188MOL0     H25928   9.907   4.988   2.320 -2.7078  0.8397  3.0937
  188MOL0     H25929   9.741   5.065   2.441 -1.6762  0.3012 -0.5596
  188MOL0     H25930   9.498   5.314   2.639  0.0634  0.3354 -1.4314
  188MOL0     H25931   9.391   5.439   2.837  2.9779 -1.1481  0.1841
  188MOL0     H25932   9.197   5.709   3.005 -1.4850 -0.0822 -0.4776
  188MOL0     H25933   9.253   5.551   2.979  0.3496 -0.2710  1.3760
  188MOL0     H25934   9.419   5.815   2.997  1.1661 -0.9892 -2.0409
  188MOL0     H25935   9.496   5.660   2.956  1.3800  2.3303 -0.0994
  188MOL0     H25936   9.334   5.690   3.208  0.0951 -0.6059  1.9152
  188MOL0     H25937   9.435   5.558   3.151  1.0053  0.3330 -1.5761
  188MOL0     H25938   9.512   5.821   3.264 -0.7493 -0.4813  0.7001
  188MOL0     H25939   9.640   5.748   3.157  0.3029 -0.1409  0.5533
  188MOL0     H25940   9.662   5.488   3.506 -0.7139  0.1826  0.1431
  188MOL0     H25941   9.238   5.722   2.559 -1.7497 -0.2196  2.1048
  188MOL0     H25942   9.438   5.631   2.279 -1.3648 -0.4122 -1.4930
  188MOL0     H25943   9.261   5.592   2.309  1.0407 -1.3010 -2.0356
  188MOL0     H25944   9.331   5.749   2.341  0.7142 -0.1203 -1.4530
  189MOL0     O25945   7.457   1.612   0.490  0.0444 -0.9213 -0.4385
  189MOL0     C25946   7.560   1.550   0.470 -0.3380  0.4010  0.4987
  189MOL0     O25947   7.568   1.432   0.398 -0.0492 -0.1808 -0.3393
  189MOL0     C25948   7.451   1.381   0.344  0.6649 -0.8902  0.9348
  189MOL0     C25949   7.359   1.312   0.428  1.0712 -0.6632  1.0779
  189MOL0     C25950   7.237   1.253   0.379  1.0974 -0.4746  1.2470
  189MOL0     C25951   7.196   1.278   0.248  0.4372  0.7703 -0.3122
  189MOL0     O25952   7.096   1.214   0.180  0.1943  0.2391 -0.8050
  189MOL0     C25953   7.005   1.128   0.253 -0.2129  0.7572  0.5439
  189MOL0     C25954   7.038   0.974   0.230  0.4010 -1.4400  0.2064
  189MOL0     C25955   6.938   0.902   0.132  0.1672  0.5267  0.4896
  189MOL0     C25956   6.800   0.880   0.194  0.4925 -1.0788  0.7239
  189MOL0     C25957   6.713   0.811   0.086 -0.9134 -0.3040  0.3707
  189MOL0     C25958   6.755   0.658   0.092 -0.0853 -0.6547 -0.4283
  189MOL0     C25959   6.655   0.564   0.034  0.1459  0.3217  0.3299
  189MOL0     C25960   6.719   0.441  -0.026  0.0159 -0.4953 -0.1348
  189MOL0     N25961   6.828   0.458  -0.125  0.9973  0.2463 -0.1197
  189MOL0     C25962   6.815   0.512  -0.254  0.3007  0.0588 -0.0597
  189MOL0     C25963   6.943   0.497  -0.314  0.6696  0.2456 -0.4919
  189MOL0     C25964   6.985   0.509  -0.457  0.1010  0.2992  0.0597
  189MOL0     C25965   7.139   0.539  -0.465 -0.4346 -0.1440 -0.1423
  189MOL0     C25966   7.176   0.575  -0.608 -0.0321  0.2108  0.2268
  189MOL0     C25967   7.170   0.453  -0.702 -0.3061  0.1590  0.3980
  189MOL0     O25968   7.226   0.342  -0.628  0.0906  0.5165  0.5343
  189MOL0     C25969   7.360   0.315  -0.654  0.4700 -0.6448 -0.4821
  189MOL0     C25970   7.395   0.293  -0.785 -0.4121 -0.0750  0.6787
  189MOL0     C25971   7.526   0.255  -0.832  0.6601  0.0775 -0.1133
  189MOL0     C25972   7.554   0.219  -0.981 -0.2616  0.2594 -0.5280
  189MOL0     C25973   7.626   0.260  -0.731 -0.3265 -0.0003  0.3455
  189MOL0     C25974   7.769   0.214  -0.764 -0.1749  0.1787 -0.2291
  189MOL0     O25975   7.865   0.283  -0.692 -0.2765  0.0620  0.1893
  189MOL0     C25976   7.994   0.243  -0.709 -0.6179 -0.1590 -0.0936
  189MOL0     C25977   8.031   0.110  -0.692 -1.1088 -0.2071 -0.1267
  189MOL0     C25978   8.161   0.071  -0.716  0.2386 -0.2086 -0.5243
  189MOL0     C25979   8.249   0.161  -0.759 -0.0063  0.4769 -0.5807
  189MOL0     O25980   8.383   0.140  -0.763 -0.1726 -0.0602 -0.8581
  189MOL0     C25981   8.453   0.020  -0.714  0.4669  0.0643 -0.4914
  189MOL0     C25982   8.591   0.024  -0.772  0.3573 -0.3061  0.4991
  189MOL0     C25983   8.687  -0.085  -0.719  0.0067 -0.5912  0.1047
  189MOL0     C25984   8.837  -0.054  -0.749 -0.3570  0.2711  0.8243
  189MOL0     C25985   8.943  -0.162  -0.724 -0.6211  0.7847 -0.1033
  189MOL0     C25986   9.076  -0.097  -0.735  0.2066  0.6657  0.7583
  189MOL0     C25987   9.179  -0.201  -0.718  0.0196  0.0961 -0.1344
  189MOL0     C25988   9.321  -0.144  -0.731 -0.1042 -0.6631  0.8458
  189MOL0    Cl25989   9.344  -0.086  -0.901 -0.1841  0.1082 -0.3392
  189MOL0     C25990   8.213   0.291  -0.788 -0.5830 -0.8353 -0.3732
  189MOL0     C25991   8.088   0.334  -0.746 -1.0299  0.0846  0.7332
  189MOL0     O25992   7.790   0.133  -0.854 -0.2895  0.2675  0.8193
  189MOL0     C25993   7.587   0.288  -0.603 -0.2206 -1.0534 -0.3899
  189MOL0     C25994   7.455   0.303  -0.558 -0.0685 -0.9785  0.2106
  189MOL0     N25995   7.020   0.443  -0.211  0.4805  0.1045 -0.0895
  189MOL0     N25996   6.958   0.427  -0.101 -0.5459 -0.6439 -0.0093
  189MOL0     C25997   7.286   1.340   0.161 -0.8056  0.2929  0.2180
  189MOL0     C25998   7.406   1.395   0.210 -0.0616  0.1114  0.2832
  189MOL0     C25999   7.687   1.612   0.524  0.3074 -0.4519 -0.9093
  189MOL0     C26000   7.814   1.570   0.469  0.6234 -0.2122  0.4218
  189MOL0     C26001   7.936   1.626   0.512  0.8280 -0.1656  0.0189
  189MOL0     C26002   7.941   1.718   0.613 -0.0430  0.0125 -0.2174
  189MOL0     O26003   8.043   1.781   0.669  0.1282  0.5018 -0.5783
  189MOL0     C26004   8.175   1.730   0.640  0.0709 -0.9174  0.2155
  189MOL0     C26005   8.290   1.811   0.696 -0.3586 -0.4869 -0.2143
  189MOL0     C26006   8.299   1.824   0.849  0.0491  0.9070  1.2613
  189MOL0     C26007   8.446   1.845   0.900 -0.4407  0.4107 -0.0338
  189MOL0     C26008   8.461   1.812   1.041 -0.2328  0.9162 -0.7664
  189MOL0     C26009   8.465   1.799   1.162  0.3513 -0.5265  0.4271
  189MOL0     C26010   7.820   1.768   0.661  0.3444 -0.8573 -0.2753
  189MOL0     C26011   7.695   1.712   0.628  0.1812 -0.1854 -0.7236
  189MOL0     C26012   7.575   1.764   0.700 -0.1769 -0.2050  0.1029
  189MOL0     H26013   7.366   1.290   0.534  0.8408 -1.2884  0.9688
  189MOL0     H26014   7.187   1.191   0.454 -2.4183 -0.9568 -1.2689
  189MOL0     H26015   6.911   1.140   0.199  0.7772  1.2849 -1.1159
  189MOL0     H26016   6.985   1.144   0.360  1.6789 -2.8268  1.6087
  189MOL0     H26017   7.135   0.990   0.183  2.3801  0.4172  4.3679
  189MOL0     H26018   7.049   0.925   0.327  1.5907  1.7006  1.8387
  189MOL0     H26019   6.933   0.963   0.042  2.7615 -0.6767 -0.5747
  189MOL0     H26020   6.985   0.805   0.113  0.6373  0.9772 -0.7325
  189MOL0     H26021   6.802   0.818   0.284  2.2013 -2.6710 -0.3389
  189MOL0     H26022   6.759   0.980   0.215  2.1453 -0.4495  1.1072
  189MOL0     H26023   6.722   0.853  -0.015  2.7386 -0.5203  0.4803
  189MOL0     H26024   6.611   0.819   0.123 -1.4632 -0.6089 -1.0187
  189MOL0     H26025   6.851   0.656   0.040 -0.5137  1.1874 -1.3677
  189MOL0     H26026   6.777   0.636   0.197  2.0046  0.5131 -0.5806
  189MOL0     H26027   6.611   0.616  -0.052  1.0359  0.0664 -0.2927
  189MOL0     H26028   6.573   0.551   0.105  1.1321 -0.2678  1.3915
  189MOL0     H26029   6.768   0.384   0.053 -0.8772 -0.3882  0.5065
  189MOL0     H26030   6.636   0.379  -0.063 -0.5792  0.0601  0.2490
  189MOL0     H26031   6.725   0.532  -0.311 -1.4415 -3.1721  1.2763
  189MOL0     H26032   6.927   0.592  -0.498  0.2315  0.5430  0.3573
  189MOL0     H26033   6.945   0.419  -0.504 -2.1606  0.6705  1.1416
  189MOL0     H26034   7.156   0.620  -0.393 -0.8872 -1.3567  1.4074
  189MOL0     H26035   7.188   0.448  -0.428 -2.0355 -0.7351  0.6146
  189MOL0     H26036   7.115   0.656  -0.649  1.1098  0.7372 -0.4823
  189MOL0     H26037   7.281   0.607  -0.615 -0.5636  1.8569 -0.6797
  189MOL0     H26038   7.065   0.427  -0.717 -0.6567  1.1446  1.0181
  189MOL0     H26039   7.220   0.477  -0.797  0.0701 -0.3160  0.4756
  189MOL0     H26040   7.329   0.304  -0.871  0.4320 -0.0816  0.0069
  189MOL0     H26041   7.654   0.226  -1.024 -0.6207 -0.5990 -1.5628
  189MOL0     H26042   7.489   0.279  -1.046  1.4706  2.5203 -0.2827
  189MOL0     H26043   7.528   0.113  -0.995 -0.5304  0.4213 -1.3406
  189MOL0     H26044   7.959   0.039  -0.652  0.0532 -1.8790 -0.8773
  189MOL0     H26045   8.187  -0.033  -0.700  0.7864 -0.1436 -0.9885
  189MOL0     H26046   8.444   0.016  -0.605 -3.2420 -2.8383 -0.7318
  189MOL0     H26047   8.394  -0.067  -0.745 -3.5117  2.6968 -1.0791
  189MOL0     H26048   8.573   0.011  -0.879  2.3729 -0.1045  0.0875
  189MOL0     H26049   8.648   0.117  -0.763  2.8325 -1.7349  0.7483
  189MOL0     H26050   8.651  -0.175  -0.770  1.0397 -0.1707 -1.4187
  189MOL0     H26051   8.679  -0.093  -0.610 -1.0733  1.8640  0.2665
  189MOL0     H26052   8.861   0.037  -0.693  1.2353  0.5450 -0.2485
  189MOL0     H26053   8.843  -0.023  -0.854 -0.4651 -0.2974  0.6462
  189MOL0     H26054   8.933  -0.219  -0.632  1.8131 -0.0977 -0.3183
  189MOL0     H26055   8.930  -0.237  -0.803 -0.5654 -1.3676  1.8389
  189MOL0     H26056   9.080  -0.009  -0.669 -0.3431  1.5258 -0.3265
  189MOL0     H26057   9.091  -0.056  -0.835 -1.7226 -3.2811 -1.3746
  189MOL0     H26058   9.167  -0.283  -0.790 -0.6644  0.6129 -0.6226
  189MOL0     H26059   9.172  -0.242  -0.617  1.3723  1.9841  0.7752
  189MOL0     H26060   9.398  -0.221  -0.725  1.9111  0.8653 -2.7463
  189MOL0     H26061   9.346  -0.064  -0.660  0.2932 -0.0288  0.0087
  189MOL0     H26062   8.287   0.364  -0.819  0.0588 -1.0387  0.6514
  189MOL0     H26063   8.072   0.441  -0.736  1.6120  0.5036  1.2913
  189MOL0     H26064   7.674   0.284  -0.537 -0.7362 -2.6454  0.2499
  189MOL0     H26065   7.433   0.309  -0.451  2.7100 -1.8261  0.9195
  189MOL0     H26066   7.262   1.352   0.056 -2.2299 -0.7529  0.3855
  189MOL0     H26067   7.468   1.452   0.141  0.4232  1.9362  2.1008
  189MOL0     H26068   7.819   1.506   0.382  0.8208  1.1838 -0.6321
  189MOL0     H26069   8.023   1.577   0.469  0.3938 -0.4839 -0.5045
  189MOL0     H26070   8.185   1.632   0.689 -0.8668 -1.1776 -0.0883
  189MOL0     H26071   8.193   1.713   0.534 -0.3071 -0.1275  0.0178
  189MOL0     H26072   8.294   1.914   0.660 -0.2619 -0.0220  1.0730
  189MOL0     H26073   8.382   1.766   0.658  1.4967  2.9604 -0.1754
  189MOL0     H26074   8.243   1.917   0.863 -2.0711  0.2088 -1.6955
  189MOL0     H26075   8.264   1.731   0.895 -0.0703  1.1243  1.6137
  189MOL0     H26076   8.482   1.947   0.884 -3.6072  1.5091 -0.8865
  189MOL0     H26077   8.512   1.774   0.848 -0.7767  1.1615 -1.5434
  189MOL0     H26078   8.470   1.781   1.268 -0.2837  1.5386  0.8587
  189MOL0     H26079   7.832   1.841   0.740  0.5518 -0.8084 -0.3513
  189MOL0     H26080   7.524   1.677   0.744  0.0182  0.3506  1.4740
  189MOL0     H26081   7.602   1.836   0.778  1.6308  1.4435 -1.9340
  189MOL0     H26082   7.509   1.816   0.630 -2.6085  1.6939  3.5142
  190MOL0     O26083   4.823   7.760   5.200 -0.4514 -0.5550 -0.6056
  190MOL0     C26084   4.793   7.756   5.083 -0.3087  0.4053  0.1925
  190MOL0     O26085   4.873   7.796   4.985 -0.2758 -0.1830  0.7661
  190MOL0     C26086   4.996   7.838   5.024 -0.5551 -0.9736  0.0582
  190MOL0     C26087   5.009   7.972   5.066 -0.6087 -0.7993 -0.8740
  190MOL0     C26088   5.129   8.014   5.134  0.6019  0.4744  0.1787
  190MOL0     C26089   5.230   7.923   5.149 -0.4672  0.0908  0.6068
  190MOL0     O26090   5.338   7.984   5.208  0.3634  0.2344 -1.0420
  190MOL0     C26091   5.460   7.922   5.229  0.6104  0.2506  0.5049
  190MOL0     C26092   5.536   7.901   5.091  0.1438  0.5327 -0.1726
  190MOL0     C26093   5.571   8.028   5.031  0.7124  0.0465  0.6812
  190MOL0     C26094   5.637   8.012   4.891 -0.3230 -0.1224  0.1647
  190MOL0     C26095   5.633   8.145   4.825  0.3799  1.0390  1.3236
  190MOL0     C26096   5.727   8.253   4.885  0.2934  0.4331  0.0185
  190MOL0     C26097   5.882   8.219   4.904  0.4650  0.2288 -0.2220
  190MOL0     C26098   5.952   8.165   4.777  0.5901  0.2316  0.8989
  190MOL0     N26099   6.097   8.168   4.781  0.2658  0.0444  0.6038
  190MOL0     C26100   6.177   8.285   4.756  0.5173  0.2685  0.0391
  190MOL0     C26101   6.300   8.235   4.744  0.3426 -0.1236 -1.0405
  190MOL0     C26102   6.423   8.309   4.716  0.3817 -0.2023  0.0211
  190MOL0     C26103   6.415   8.347   4.569  0.2458 -0.2762  0.2106
  190MOL0     C26104   6.382   8.225   4.478 -0.9385  0.1880  0.2920
  190MOL0     C26105   6.483   8.109   4.486 -0.2399 -0.5771 -0.6716
  190MOL0     O26106   6.622   8.156   4.478 -0.5948 -0.1889 -0.4281
  190MOL0     C26107   6.726   8.070   4.480 -0.6880  0.5970 -0.3554
  190MOL0     C26108   6.857   8.124   4.460 -0.8363 -0.3589  0.1208
  190MOL0     C26109   6.978   8.050   4.459  0.0749 -0.4488 -0.0671
  190MOL0     C26110   7.112   8.117   4.442 -1.0951  0.4658  0.2519
  190MOL0     C26111   6.960   7.909   4.472 -0.3397  0.3355 -0.1656
  190MOL0     C26112   7.073   7.817   4.476 -0.3630 -0.0642  0.2169
  190MOL0     O26113   7.186   7.861   4.536 -0.8792 -0.3287 -0.3994
  190MOL0     C26114   7.295   7.772   4.536 -0.0588 -0.0561 -0.6302
  190MOL0     C26115   7.353   7.729   4.417 -0.0931 -0.5959 -0.8634
  190MOL0     C26116   7.460   7.637   4.416  0.4477  0.0186 -0.1273
  190MOL0     C26117   7.508   7.593   4.543 -0.7400  0.2440 -0.2111
  190MOL0     O26118   7.611   7.503   4.545 -0.3253 -0.3030 -0.1605
  190MOL0     C26119   7.680   7.465   4.429 -0.7514 -0.7049  0.5369
  190MOL0     C26120   7.815   7.403   4.480 -0.3862  0.0638 -0.6269
  190MOL0     C26121   7.902   7.506   4.545 -0.5388 -1.0327 -0.9790
  190MOL0     C26122   8.022   7.444   4.614  0.3710  0.6419  0.4594
  190MOL0     C26123   8.124   7.397   4.509 -0.6339 -0.2089 -0.7855
  190MOL0     C26124   8.253   7.354   4.576 -0.5892  0.9776  0.5078
  190MOL0     C26125   8.335   7.473   4.627 -0.4489  0.1911  0.4892
  190MOL0     C26126   8.452   7.418   4.704 -0.0717  0.3776  0.3081
  190MOL0    Cl26127   8.546   7.540   4.796 -0.2024 -0.3268  0.1239
  190MOL0     C26128   7.445   7.638   4.658  0.1175 -0.2033 -0.3144
  190MOL0     C26129   7.333   7.718   4.663 -0.4322 -0.3233  0.3754
  190MOL0     O26130   7.064   7.710   4.415 -0.2685  0.0256 -0.0016
  190MOL0     C26131   6.829   7.847   4.481 -0.0238  0.5577 -1.0020
  190MOL0     C26132   6.718   7.929   4.478 -0.1153 -0.2435 -0.0712
  190MOL0     N26133   6.307   8.101   4.776  0.8066  0.3965 -0.1262
  190MOL0     N26134   6.190   8.064   4.807 -0.5517  0.1715 -0.1900
  190MOL0     C26135   5.221   7.785   5.104 -0.3055 -0.5164 -0.5412
  190MOL0     C26136   5.106   7.750   5.037 -0.3679  0.2923  0.1120
  190MOL0     C26137   4.677   7.671   5.042  0.2151 -0.5850 -0.0961
  190MOL0     C26138   4.681   7.576   4.941 -0.6716 -1.0063  0.1087
  190MOL0     C26139   4.559   7.515   4.895 -0.1533 -1.1497  0.0754
  190MOL0     C26140   4.442   7.535   4.966  1.0565 -0.6900  0.8842
  190MOL0     O26141   4.338   7.450   4.928 -0.6564  0.2518  0.1800
  190MOL0     C26142   4.218   7.445   5.003 -0.9087 -0.9024  0.0545
  190MOL0     C26143   4.226   7.367   5.133  0.1938 -0.2859 -1.1371
  190MOL0     C26144   4.095   7.392   5.216 -0.5441 -0.4494 -0.7868
  190MOL0     C26145   4.088   7.292   5.328 -0.5137  1.1226 -0.7164
  190MOL0     C26146   4.002   7.185   5.292 -0.7471 -0.4319 -0.3192
  190MOL0     C26147   3.922   7.097   5.275  0.9250 -1.1040  0.4077
  190MOL0     C26148   4.430   7.639   5.057  0.1267 -1.0364  0.9748
  190MOL0     C26149   4.547   7.704   5.097 -0.8267 -0.8185 -0.6729
  190MOL0     C26150   4.530   7.815   5.201  0.7595  0.7197  0.7270
  190MOL0     H26151   4.927   8.037   5.038  0.7106  1.3901  0.0422
  190MOL0     H26152   5.145   8.114   5.173  1.4412  0.6089 -0.4987
  190MOL0     H26153   5.440   7.824   5.273 -3.9750 -0.4984 -2.4956
  190MOL0     H26154   5.524   7.983   5.294  1.4688  0.1062 -0.1922
  190MOL0     H26155   5.625   7.838   5.105  0.7594  1.0762 -1.4920
  190MOL0     H26156   5.460   7.856   5.028  0.0921  1.7798 -1.0313
  190MOL0     H26157   5.473   8.076   5.030 -0.6084 -2.4707  1.0359
  190MOL0     H26158   5.647   8.074   5.095  1.5718 -2.4465  1.6104
  190MOL0     H26159   5.739   7.972   4.897 -0.0436  0.1345 -2.0373
  190MOL0     H26160   5.581   7.948   4.822  1.4710  1.7603 -3.2791
  190MOL0     H26161   5.532   8.186   4.826 -0.4761 -0.9633  1.4209
  190MOL0     H26162   5.661   8.117   4.723 -0.5623  1.2983  0.9830
  190MOL0     H26163   5.725   8.343   4.822  0.5974  0.9796  0.7815
  190MOL0     H26164   5.691   8.286   4.982 -1.3339  0.8010 -0.6853
  190MOL0     H26165   5.904   8.150   4.985 -1.4148  0.7309  0.7655
  190MOL0     H26166   5.922   8.313   4.943 -1.9086  1.0776  0.2676
  190MOL0     H26167   5.918   8.063   4.754  0.2827  0.4840  0.2128
  190MOL0     H26168   5.918   8.229   4.695  0.7510 -0.2560  0.4452
  190MOL0     H26169   6.153   8.390   4.743  1.2314  0.1617 -2.7993
  190MOL0     H26170   6.516   8.260   4.746  0.0629 -0.3251  0.8327
  190MOL0     H26171   6.425   8.398   4.781 -1.0074  0.2819 -0.5615
  190MOL0     H26172   6.339   8.422   4.546 -0.5342 -1.1447 -0.1335
  190MOL0     H26173   6.509   8.391   4.535  0.0058  1.0258  1.1800
  190MOL0     H26174   6.279   8.189   4.488 -0.8026 -0.3769 -0.2792
  190MOL0     H26175   6.372   8.274   4.381 -2.6079 -1.0020 -0.1783
  190MOL0     H26176   6.460   8.060   4.581 -2.0816  3.8922  1.4794
  190MOL0     H26177   6.469   8.043   4.400 -0.0849  3.4893 -4.1976
  190MOL0     H26178   6.862   8.233   4.462  1.4376 -0.3869 -0.6965
  190MOL0     H26179   7.087   8.215   4.401 -1.0984  1.7312  3.0259
  190MOL0     H26180   7.181   8.061   4.379  0.4138 -0.7104  2.8116
  190MOL0     H26181   7.165   8.133   4.537 -0.0338 -0.5058 -0.1483
  190MOL0     H26182   7.314   7.764   4.322  1.1721  1.7917 -0.5796
  190MOL0     H26183   7.509   7.607   4.324 -1.7758 -0.0254 -1.3665
  190MOL0     H26184   7.611   7.405   4.369 -1.7744  0.7730  0.1845
  190MOL0     H26185   7.719   7.550   4.371  2.0851  1.4765  5.1118
  190MOL0     H26186   7.792   7.322   4.550  2.1217  0.9097  1.3262
  190MOL0     H26187   7.871   7.354   4.399  0.4538  0.9390 -0.5833
  190MOL0     H26188   7.843   7.555   4.623  0.2153  0.2609 -1.1948
  190MOL0     H26189   7.928   7.592   4.481 -3.3274 -0.5626 -1.5990
  190MOL0     H26190   7.983   7.359   4.671 -4.5951  1.7045 -0.9078
  190MOL0     H26191   8.071   7.510   4.686  2.1370  3.1729 -2.7893
  190MOL0     H26192   8.094   7.306   4.456  0.0709 -1.6382  1.1430
  190MOL0     H26193   8.162   7.469   4.437  0.0209 -0.2391 -0.4767
  190MOL0     H26194   8.319   7.296   4.511 -2.0252  0.8181 -0.8645
  190MOL0     H26195   8.231   7.285   4.658 -2.9105  2.4922  1.2648
  190MOL0     H26196   8.280   7.534   4.700 -1.1849 -1.0881  1.0263
  190MOL0     H26197   8.368   7.536   4.544 -1.8802  2.1206  1.3034
  190MOL0     H26198   8.518   7.362   4.638 -0.2532  1.6510 -1.0072
  190MOL0     H26199   8.411   7.345   4.775  0.4815  1.3867  1.7258
  190MOL0     H26200   7.474   7.582   4.746  1.0038  1.8770  0.7832
  190MOL0     H26201   7.289   7.752   4.757 -2.5711 -2.7544  0.3545
  190MOL0     H26202   6.814   7.741   4.500 -0.9841  0.3167 -2.8446
  190MOL0     H26203   6.622   7.879   4.487  0.1286 -0.8279 -0.6296
  190MOL0     H26204   5.299   7.711   5.099  0.1673  0.0469 -2.3644
  190MOL0     H26205   5.085   7.647   5.011  1.9148 -0.2172  0.0987
  190MOL0     H26206   4.773   7.546   4.892 -0.0783 -0.5030  0.8894
  190MOL0     H26207   4.559   7.449   4.808 -0.5164  2.2838 -2.7400
  190MOL0     H26208   4.181   7.546   5.026  1.0597 -0.6318  2.4828
  190MOL0     H26209   4.149   7.387   4.941 -1.3221  0.4093 -0.7644
  190MOL0     H26210   4.315   7.407   5.183 -0.1286 -0.5440 -0.3471
  190MOL0     H26211   4.244   7.261   5.114 -1.0768 -1.6164  3.6140
  190MOL0     H26212   4.098   7.493   5.260 -1.8774 -0.3970 -0.7828
  190MOL0     H26213   4.011   7.388   5.146 -0.2829 -0.9464 -1.0759
  190MOL0     H26214   4.053   7.348   5.415 -0.1239  2.4611 -1.3973
  190MOL0     H26215   4.189   7.254   5.347  0.7409  2.2849 -4.2020
  190MOL0     H26216   3.846   7.021   5.270 -0.5789  0.3312  0.4022
  190MOL0     H26217   4.330   7.668   5.087  0.2132  2.8914 -1.8174
  190MOL0     H26218   4.571   7.773   5.293  3.1126  0.4535 -0.3770
  190MOL0     H26219   4.587   7.899   5.159 -0.8116  0.7684 -1.5255
  190MOL0     H26220   4.425   7.843   5.212  0.7258  0.2562  1.6766
  191MOL0     O26221   6.679   2.134   4.258 -0.2702  0.0609  0.3050
  191MOL0     C26222   6.655   2.228   4.333 -0.2543 -0.2009  0.7588
  191MOL0     O26223   6.741   2.279   4.420 -0.2557 -0.2683  1.0184
  191MOL0     C26224   6.874   2.234   4.414  0.3979  0.1931  0.0674
  191MOL0     C26225   6.975   2.316   4.347  0.6365 -0.1579  0.8443
  191MOL0     C26226   7.103   2.270   4.351  0.3342 -0.6659  0.0241
  191MOL0     C26227   7.143   2.165   4.430  0.3192 -0.6917  0.0821
  191MOL0     O26228   7.273   2.131   4.438  0.7234  0.3993 -0.2491
  191MOL0     C26229   7.340   2.133   4.568  0.3532 -0.1185 -0.1907
  191MOL0     C26230   7.481   2.083   4.557  1.3541 -0.0752 -0.2881
  191MOL0     C26231   7.481   1.929   4.564 -0.0888 -0.2701  0.2272
  191MOL0     C26232   7.611   1.868   4.524  0.0443  0.3558  0.4786
  191MOL0     C26233   7.648   1.746   4.610  0.2087  0.9545  0.0507
  191MOL0     C26234   7.798   1.724   4.603 -0.2567 -0.1476  0.4020
  191MOL0     C26235   7.820   1.579   4.652  0.4963 -0.1846  0.6124
  191MOL0     C26236   7.962   1.544   4.700 -0.1336  0.0596 -0.0305
  191MOL0     N26237   8.070   1.537   4.604  0.9946 -0.2037  0.1182
  191MOL0     C26238   8.109   1.437   4.514  0.1291 -0.2405 -0.4257
  191MOL0     C26239   8.207   1.495   4.439  0.2626  0.1629  0.3230
  191MOL0     C26240   8.293   1.446   4.326  0.5197 -0.1915 -0.5902
  191MOL0     C26241   8.439   1.495   4.339 -0.6918  0.0322 -0.2153
  191MOL0     C26242   8.514   1.425   4.226  1.2984  0.3519 -0.6068
  191MOL0     C26243   8.658   1.473   4.207  0.7050  0.9934  0.5826
  191MOL0     O26244   8.717   1.383   4.110 -0.3540 -0.6223 -0.1213
  191MOL0     C26245   8.852   1.382   4.089  0.1114 -0.5518  0.4755
  191MOL0     C26246   8.896   1.274   4.014 -0.4178  0.4306 -0.1918
  191MOL0     C26247   9.036   1.259   3.985 -0.1056  0.4060  0.1971
  191MOL0     C26248   9.078   1.134   3.918  0.5958 -0.6825 -0.0215
  191MOL0     C26249   9.132   1.353   4.031 -0.1387 -0.4497 -0.2410
  191MOL0     C26250   9.278   1.354   3.997  0.9867  0.4484 -0.1868
  191MOL0     O26251   9.340   1.469   3.976  0.0661  0.2097 -0.4659
  191MOL0     C26252   9.470   1.470   3.945 -0.5863 -0.2269 -0.1696
  191MOL0     C26253   9.563   1.441   4.041 -0.7591 -0.0717 -0.9783
  191MOL0     C26254   9.695   1.473   4.035  0.0933 -0.6209 -1.0047
  191MOL0     C26255   9.740   1.540   3.915  0.6356  0.4532 -0.5133
  191MOL0     O26256   9.866   1.587   3.885  0.2303  0.8345 -0.2464
  191MOL0     C26257   9.980   1.523   3.951  0.8849  0.4751  0.6666
  191MOL0     C26258  10.008   1.375   3.891 -0.1686 -0.1734  0.4329
  191MOL0     C26259  10.151   1.320   3.927  0.2562  0.8334  0.2089
  191MOL0     C26260  10.182   1.194   3.860 -0.1007  0.2095 -0.4221
  191MOL0     C26261  10.319   1.142   3.902 -0.2086  0.7269 -0.2244
  191MOL0     C26262  10.332   0.992   3.868 -0.2950  0.4652 -0.0210
  191MOL0     C26263  10.471   0.936   3.870  0.5221  0.2715 -0.2015
  191MOL0     C26264  10.491   0.817   3.786  0.0993 -0.1561 -0.4395
  191MOL0    Cl26265  10.644   0.745   3.838 -0.0765  0.3158 -0.6136
  191MOL0     C26266   9.647   1.567   3.810  0.4136 -0.1643 -0.2721
  191MOL0     C26267   9.508   1.538   3.830  0.1773 -0.4836  0.0404
  191MOL0     O26268   9.341   1.247   4.004  0.0090 -0.1376  0.5569
  191MOL0     C26269   9.079   1.461   4.109  0.3202 -0.6213  0.6173
  191MOL0     C26270   8.946   1.472   4.137  0.1204 -0.1256 -0.6773
  191MOL0     N26271   8.235   1.626   4.483  0.3206  0.2392 -0.6135
  191MOL0     N26272   8.149   1.648   4.579  0.2030 -0.1009 -0.0213
  191MOL0     C26273   7.050   2.089   4.487  0.2443 -0.3260 -0.4068
  191MOL0     C26274   6.910   2.115   4.471  0.1459  0.3924 -0.2622
  191MOL0     C26275   6.523   2.266   4.362 -0.2119 -0.4642  0.0656
  191MOL0     C26276   6.488   2.322   4.487  1.0119 -0.0405 -0.0437
  191MOL0     C26277   6.351   2.361   4.510 -0.2625  0.0144 -0.0422
  191MOL0     C26278   6.259   2.367   4.401 -0.0330  0.5464 -0.0240
  191MOL0     O26279   6.145   2.433   4.412 -0.4337 -0.3529 -0.0613
  191MOL0     C26280   6.050   2.385   4.507 -0.5457 -0.4028  0.7162
  191MOL0     C26281   5.928   2.479   4.511 -0.8526  0.3263 -0.0658
  191MOL0     C26282   5.826   2.423   4.418 -0.3188 -0.4654 -0.5597
  191MOL0     C26283   5.741   2.543   4.371  0.5620  0.5469 -0.0964
  191MOL0     C26284   5.639   2.562   4.476  0.3408  0.1176  0.0129
  191MOL0     C26285   5.566   2.560   4.577  0.2431  0.0418  0.1714
  191MOL0     C26286   6.290   2.297   4.285 -0.0522 -0.0153 -0.0069
  191MOL0     C26287   6.417   2.246   4.265 -0.0317  0.1769  0.0582
  191MOL0     C26288   6.432   2.185   4.124  0.7273 -0.2004 -1.2200
  191MOL0     H26289   6.943   2.405   4.295  1.4174 -1.5675 -2.3168
  191MOL0     H26290   7.182   2.330   4.308  0.8515 -0.1240  1.6308
  191MOL0     H26291   7.286   2.078   4.646  0.9193  1.3438  1.2835
  191MOL0     H26292   7.342   2.237   4.602  2.7183 -0.5344  1.1689
  191MOL0     H26293   7.517   2.124   4.463 -1.9619  0.6850 -1.3707
  191MOL0     H26294   7.541   2.117   4.642 -1.8028  0.6351  1.8275
  191MOL0     H26295   7.442   1.900   4.662 -0.6731 -1.7562 -0.4188
  191MOL0     H26296   7.410   1.893   4.489  1.0855  2.8347 -2.6449
  191MOL0     H26297   7.622   1.842   4.418  2.2801 -0.5559  0.8845
  191MOL0     H26298   7.695   1.935   4.542  0.0952  0.7740 -1.1893
  191MOL0     H26299   7.599   1.656   4.573  0.0179 -1.5693  5.4401
  191MOL0     H26300   7.614   1.748   4.714 -0.2847  0.6480 -0.1028
  191MOL0     H26301   7.844   1.759   4.510  1.1873  3.3547  2.2351
  191MOL0     H26302   7.833   1.784   4.687 -2.7466 -1.6277  2.6435
  191MOL0     H26303   7.791   1.519   4.565  3.5805 -0.6338 -0.2290
  191MOL0     H26304   7.747   1.547   4.727  2.1338 -3.4848  0.9489
  191MOL0     H26305   7.989   1.622   4.773  0.8793  0.3212 -0.6671
  191MOL0     H26306   7.945   1.445   4.743 -3.4224  0.1389 -0.9456
  191MOL0     H26307   8.054   1.343   4.508 -2.0826  1.0611 -2.0456
  191MOL0     H26308   8.245   1.474   4.232 -0.4230  1.0188  0.2046
  191MOL0     H26309   8.289   1.338   4.341  0.4961 -0.2766 -1.1830
  191MOL0     H26310   8.436   1.603   4.321  0.5115 -0.1663 -1.8452
  191MOL0     H26311   8.472   1.465   4.438  0.7977  0.1329 -0.6564
  191MOL0     H26312   8.526   1.323   4.263 -2.1568 -0.0041 -0.1233
  191MOL0     H26313   8.458   1.418   4.132  0.2901 -1.7283  0.0838
  191MOL0     H26314   8.653   1.572   4.162  1.4102  1.1196  0.7808
  191MOL0     H26315   8.714   1.474   4.300  1.4242  1.9815  0.1538
  191MOL0     H26316   8.827   1.199   3.977  1.6404 -1.5695 -0.1891
  191MOL0     H26317   9.103   1.063   3.998  3.4775 -1.3343 -1.3971
  191MOL0     H26318   9.168   1.160   3.863  1.5847  2.3301  2.6775
  191MOL0     H26319   9.002   1.093   3.851  0.8060 -0.0616 -0.6552
  191MOL0     H26320   9.536   1.395   4.136  1.1569  2.0358  0.6814
  191MOL0     H26321   9.756   1.436   4.117 -2.1554  1.7942  1.9676
  191MOL0     H26322  10.062   1.593   3.932 -2.6041  5.2403  1.1011
  191MOL0     H26323   9.963   1.516   4.059 -1.3838  0.0965  0.3359
  191MOL0     H26324   9.932   1.307   3.930 -0.4931 -1.2499 -1.9187
  191MOL0     H26325   9.985   1.374   3.784  1.5391  0.8011  0.0136
  191MOL0     H26326  10.154   1.301   4.035 -2.6080  4.6730  1.1754
  191MOL0     H26327  10.227   1.396   3.905  0.1142  0.5940 -1.1590
  191MOL0     H26328  10.177   1.223   3.754 -0.1329 -1.0696 -0.7919
  191MOL0     H26329  10.102   1.120   3.872  0.1946 -0.2332 -1.0527
  191MOL0     H26330  10.391   1.204   3.847 -0.1379 -0.0772 -1.0754
  191MOL0     H26331  10.332   1.161   4.009 -2.4216  1.4756 -0.0374
  191MOL0     H26332  10.288   0.974   3.769 -3.7471  1.1434  1.2366
  191MOL0     H26333  10.269   0.943   3.944 -0.1691  1.4316  0.7247
  191MOL0     H26334  10.515   0.908   3.966  1.4383  0.1665 -0.6397
  191MOL0     H26335  10.534   1.017   3.832 -1.3187  1.7418 -0.2890
  191MOL0     H26336  10.500   0.844   3.680  0.5606  1.0200 -0.1168
  191MOL0     H26337  10.415   0.740   3.804  0.9085 -0.3794  2.4947
  191MOL0     H26338   9.685   1.604   3.715 -1.5473  2.6442 -0.0581
  191MOL0     H26339   9.428   1.550   3.758 -1.8335  0.5366  2.2893
  191MOL0     H26340   9.142   1.536   4.155 -2.0321  1.3762  0.7587
  191MOL0     H26341   8.907   1.558   4.189  1.3911  0.5607 -0.8188
  191MOL0     H26342   7.075   2.001   4.547 -3.1265  0.2542  2.1627
  191MOL0     H26343   6.839   2.049   4.519  1.7291 -1.7712 -0.7633
  191MOL0     H26344   6.556   2.333   4.570  0.9260 -1.9634  0.3228
  191MOL0     H26345   6.326   2.407   4.605  2.7694 -0.8587  1.3054
  191MOL0     H26346   6.028   2.279   4.496  0.4385 -0.5393 -0.1090
  191MOL0     H26347   6.094   2.386   4.607 -0.8899  0.4888  0.8698
  191MOL0     H26348   5.953   2.582   4.485 -0.5542 -0.1689 -1.8148
  191MOL0     H26349   5.879   2.483   4.609  0.0976  2.8943  0.4024
  191MOL0     H26350   5.869   2.393   4.322 -2.6795  2.0021 -2.5580
  191MOL0     H26351   5.777   2.339   4.468 -0.7348  0.6592  1.0192
  191MOL0     H26352   5.701   2.519   4.272  2.3535  1.5978 -1.1304
  191MOL0     H26353   5.806   2.630   4.362  1.2179 -0.1414 -3.5186
  191MOL0     H26354   5.491   2.562   4.654 -1.1371  1.6417 -1.1292
  191MOL0     H26355   6.211   2.301   4.211 -0.8550 -2.1427  0.6436
  191MOL0     H26356   6.473   2.083   4.121  0.8797 -0.1802 -0.2127
  191MOL0     H26357   6.333   2.172   4.080  0.8886  0.6065 -1.8359
  191MOL0     H26358   6.490   2.248   4.056  1.8138 -2.2235 -2.2654
  192MOL0     O26359   9.268   2.708   1.636  0.0569 -0.2152  0.8178
  192MOL0     C26360   9.191   2.775   1.563  0.2050 -0.0053  0.7390
  192MOL0     O26361   9.181   2.910   1.555 -0.3612  0.8926  0.1591
  192MOL0     C26362   9.253   2.957   1.666  0.0197  0.4472 -0.2749
  192MOL0     C26363   9.206   2.953   1.798 -0.2738  1.5376  0.4738
  192MOL0     C26364   9.283   3.005   1.905  0.2280 -0.3596  0.4072
  192MOL0     C26365   9.409   3.063   1.878 -0.3800  0.2661  0.6967
  192MOL0     O26366   9.493   3.109   1.977  0.7341 -0.0532  0.6618
  192MOL0     C26367   9.613   3.026   1.977 -0.1144 -0.6679 -0.2964
  192MOL0     C26368   9.737   3.101   2.020  0.7376 -0.8713  0.5596
  192MOL0     C26369   9.865   3.018   2.034  0.7800 -0.9333  0.5734
  192MOL0     C26370   9.974   3.108   2.069 -0.4534  0.1581  0.1324
  192MOL0     C26371  10.102   3.020   2.081  0.1534 -0.0119 -0.3971
  192MOL0     C26372  10.219   3.105   2.125  0.3615  0.8239 -0.1437
  192MOL0     C26373  10.336   3.000   2.150 -1.0561  0.1503 -0.3108
  192MOL0     C26374  10.456   3.060   2.219  0.7906 -0.0403  0.2624
  192MOL0     N26375  10.517   3.166   2.148 -0.2922 -0.6086  0.2039
  192MOL0     C26376  10.546   3.177   2.016 -0.4351  0.5423 -0.1339
  192MOL0     C26377  10.630   3.281   1.998  0.6874 -0.4958  0.5100
  192MOL0     C26378  10.692   3.339   1.865  0.3121  0.5637  0.0202
  192MOL0     C26379  10.614   3.461   1.812  1.0432  0.3828 -0.8923
  192MOL0     C26380  10.642   3.581   1.905  0.4562 -0.2308  0.2634
  192MOL0     C26381  10.541   3.689   1.881  0.1303 -0.4439  0.4781
  192MOL0     O26382  10.561   3.776   1.770  1.0799  0.6483  1.2687
  192MOL0     C26383  10.677   3.831   1.738 -0.0383  0.1263 -0.2101
  192MOL0     C26384  10.714   3.858   1.606  0.5330  0.0550 -0.3974
  192MOL0     C26385  10.841   3.906   1.573  0.1855 -0.5401 -0.7153
  192MOL0     C26386  10.857   3.938   1.425 -0.4354 -0.4249 -1.0139
  192MOL0     C26387  10.935   3.936   1.669  0.3098  0.2008 -0.6123
  192MOL0     C26388  11.064   3.983   1.634 -0.2671 -0.3759 -0.1216
  192MOL0     O26389  11.118   4.080   1.719  0.8034  0.2826 -0.3666
  192MOL0     C26390  11.250   4.096   1.731 -0.1769 -0.1939  0.9099
  192MOL0     C26391  11.314   4.163   1.630  0.7654  0.5254  0.0999
  192MOL0     C26392  11.447   4.179   1.624  0.6336  0.4214  0.2684
  192MOL0     C26393  11.527   4.135   1.721 -0.1443  0.4605 -0.5127
  192MOL0     O26394  11.665   4.134   1.706 -0.0681 -0.4919  0.3393
  192MOL0     C26395  11.742   4.058   1.798  0.5845 -0.5663  0.4070
  192MOL0     C26396  11.885   4.047   1.746 -0.2427 -0.5046  0.2283
  192MOL0     C26397  11.959   4.190   1.758  1.1915 -0.3081 -0.5245
  192MOL0     C26398  12.088   4.210   1.667  0.0382  0.3308 -0.6126
  192MOL0     C26399  12.169   4.329   1.715 -0.3494  0.5543 -0.6752
  192MOL0     C26400  12.312   4.323   1.663 -0.0244  0.7369  0.2796
  192MOL0     C26401  12.387   4.459   1.674 -0.1822  0.3270 -0.9282
  192MOL0     C26402  12.532   4.457   1.634  0.0392 -0.4232 -0.0616
  192MOL0    Cl26403  12.621   4.582   1.728 -0.2658 -0.0034 -0.0893
  192MOL0     C26404  11.463   4.077   1.833  0.6731  0.5442 -0.6099
  192MOL0     C26405  11.324   4.051   1.838 -0.5215 -0.2290  0.2291
  192MOL0     O26406  11.128   3.926   1.539  1.1320 -0.4359 -0.2632
  192MOL0     C26407  10.898   3.918   1.804  0.5582  0.2669 -0.5420
  192MOL0     C26408  10.777   3.854   1.842 -0.4297  0.2268 -0.0353
  192MOL0     N26409  10.646   3.336   2.123  0.8073 -0.0258 -0.4266
  192MOL0     N26410  10.578   3.273   2.211 -1.0075  0.1765 -0.0814
  192MOL0     C26411   9.445   3.089   1.745  1.0618 -0.0240  0.2928
  192MOL0     C26412   9.373   3.029   1.639 -0.0316  0.3877  0.7755
  192MOL0     C26413   9.097   2.703   1.482 -0.2275 -0.5209  0.6724
  192MOL0     C26414   9.144   2.602   1.393 -0.3036 -0.4988  0.1652
  192MOL0     C26415   9.053   2.539   1.301 -0.6158 -0.0848 -0.2462
  192MOL0     C26416   8.917   2.568   1.287  0.1901  0.7782  0.2760
  192MOL0     O26417   8.847   2.502   1.193 -0.2741 -0.0451 -1.1732
  192MOL0     C26418   8.708   2.545   1.177 -1.2484  0.1908  0.0551
  192MOL0     C26419   8.654   2.469   1.057  0.4499  0.3401  0.2402
  192MOL0     C26420   8.633   2.319   1.092 -0.3806  0.0196  1.3250
  192MOL0     C26421   8.520   2.245   1.016 -0.3208  0.1066 -0.0473
  192MOL0     C26422   8.391   2.305   1.049 -0.6467 -0.4230 -0.1863
  192MOL0     C26423   8.287   2.363   1.064 -0.0889  0.1281  0.1420
  192MOL0     C26424   8.872   2.678   1.375 -0.2886  1.3831  1.2147
  192MOL0     C26425   8.962   2.735   1.464  0.7394 -0.4368 -1.3166
  192MOL0     C26426   8.896   2.847   1.554 -0.1347  0.4821  0.0927
  192MOL0     H26427   9.107   2.911   1.810  0.6854 -1.0100  0.2327
  192MOL0     H26428   9.239   2.994   2.003 -2.9449  6.0187  0.2305
  192MOL0     H26429   9.631   2.993   1.874 -2.4178 -0.4241 -0.8276
  192MOL0     H26430   9.597   2.944   2.048  1.6012  1.0782  2.2835
  192MOL0     H26431   9.751   3.197   1.969  2.7061  0.3810  3.1802
  192MOL0     H26432   9.723   3.136   2.123  1.4352 -0.3732  0.4995
  192MOL0     H26433   9.853   2.956   2.123  0.9078  3.0913  3.6545
  192MOL0     H26434   9.896   2.960   1.946  0.9364  0.4301 -0.3108
  192MOL0     H26435   9.998   3.185   1.995  1.9605  1.1587  1.8064
  192MOL0     H26436   9.956   3.165   2.160 -1.1572  2.7870 -1.5402
  192MOL0     H26437  10.117   2.978   1.981 -0.0151 -0.0460 -0.4091
  192MOL0     H26438  10.074   2.937   2.147 -0.6295 -0.2074 -0.9480
  192MOL0     H26439  10.249   3.184   2.055  1.3378 -1.1437 -2.0685
  192MOL0     H26440  10.211   3.147   2.225  0.2758 -0.2104  0.2984
  192MOL0     H26441  10.374   2.962   2.055  1.0510  0.9408  0.1513
  192MOL0     H26442  10.298   2.919   2.213 -0.0462 -0.0743  0.0275
  192MOL0     H26443  10.418   3.094   2.315 -1.4009  0.8256 -0.8319
  192MOL0     H26444  10.530   2.980   2.226  0.2552 -0.6564 -0.8083
  192MOL0     H26445  10.506   3.113   1.939  0.2153 -0.1330  0.0819
  192MOL0     H26446  10.689   3.263   1.787  0.8952 -1.0179  1.4712
  192MOL0     H26447  10.790   3.387   1.872 -0.0268  1.1366  1.0980
  192MOL0     H26448  10.659   3.484   1.715  0.7180 -0.7788 -1.3346
  192MOL0     H26449  10.507   3.444   1.799  0.8402  0.3567  0.5919
  192MOL0     H26450  10.630   3.551   2.009 -2.1270  0.0356  0.1258
  192MOL0     H26451  10.742   3.626   1.908  1.7360 -2.7255 -1.6031
  192MOL0     H26452  10.436   3.660   1.880 -0.9021  2.8083 -1.0492
  192MOL0     H26453  10.544   3.758   1.966 -0.3747  0.4387 -0.2025
  192MOL0     H26454  10.637   3.845   1.529  2.0056  1.4051 -2.2011
  192MOL0     H26455  10.939   4.009   1.411 -0.5893  0.0430  0.3164
  192MOL0     H26456  10.764   3.981   1.388 -1.3006 -1.6465 -0.3378
  192MOL0     H26457  10.888   3.847   1.372 -3.4985 -0.1749 -3.5378
  192MOL0     H26458  11.253   4.182   1.542  0.8571  1.1305  0.1654
  192MOL0     H26459  11.508   4.222   1.546  2.3236 -0.0753  1.2627
  192MOL0     H26460  11.744   4.107   1.895  1.8647 -1.5027  0.8768
  192MOL0     H26461  11.699   3.958   1.812  1.4593 -0.8468  1.1421
  192MOL0     H26462  11.938   3.966   1.798 -0.3457 -0.3821  0.5214
  192MOL0     H26463  11.871   4.023   1.640 -1.7782  4.2755 -0.8917
  192MOL0     H26464  11.974   4.206   1.865 -2.3668  1.1797 -0.1229
  192MOL0     H26465  11.895   4.276   1.738 -0.0826 -0.6526  1.6986
  192MOL0     H26466  12.060   4.223   1.562 -4.6115  1.3511  0.5160
  192MOL0     H26467  12.147   4.118   1.670  1.5938  1.2928  2.4265
  192MOL0     H26468  12.114   4.422   1.702 -2.3950 -0.3209  1.0114
  192MOL0     H26469  12.176   4.318   1.824 -1.0875 -1.6864 -0.7920
  192MOL0     H26470  12.302   4.292   1.558  0.8862  0.9979  0.1117
  192MOL0     H26471  12.363   4.235   1.702 -0.3681  0.8481  0.9821
  192MOL0     H26472  12.371   4.480   1.780  2.0111  1.0383 -0.6900
  192MOL0     H26473  12.330   4.534   1.618 -0.9502  1.4840  1.2705
  192MOL0     H26474  12.535   4.470   1.526 -3.3013 -1.0536 -0.3478
  192MOL0     H26475  12.565   4.355   1.655 -2.2252 -1.0321  0.8143
  192MOL0     H26476  11.527   4.029   1.906  1.0491  2.1723  0.1626
  192MOL0     H26477  11.276   3.988   1.912 -2.2451  0.3333 -0.3743
  192MOL0     H26478  10.971   3.949   1.878 -2.6235  0.1583  2.8826
  192MOL0     H26479  10.757   3.838   1.947  0.1738 -2.6442 -0.2644
  192MOL0     H26480   9.529   3.154   1.725  1.2965  0.3347  2.2537
  192MOL0     H26481   9.412   3.027   1.538  2.8547 -1.2257  1.7904
  192MOL0     H26482   9.248   2.575   1.406 -0.4195 -0.0192  2.6085
  192MOL0     H26483   9.090   2.461   1.235  0.3677  0.9941 -1.0113
  192MOL0     H26484   8.646   2.525   1.264 -1.2573 -2.8391 -0.5289
  192MOL0     H26485   8.688   2.651   1.157  0.0997  0.7922  1.6850
  192MOL0     H26486   8.726   2.482   0.976  1.3483 -0.8715  0.7986
  192MOL0     H26487   8.557   2.514   1.035 -0.3079 -0.7213  1.2607
  192MOL0     H26488   8.726   2.261   1.081  0.8985  2.2827 -0.8657
  192MOL0     H26489   8.610   2.314   1.199 -0.7250  0.7798  1.2964
  192MOL0     H26490   8.518   2.136   1.017 -0.0809  0.0874 -0.7439
  192MOL0     H26491   8.531   2.271   0.910  1.5969  3.4882  0.8390
  192MOL0     H26492   8.190   2.401   1.093  0.0507  2.4480 -2.0865
  192MOL0     H26493   8.768   2.707   1.368  0.3191  3.4927  0.0117
  192MOL0     H26494   8.954   2.885   1.638  1.0291 -1.1084  0.0558
  192MOL0     H26495   8.866   2.934   1.495 -1.6559  0.4666  0.8138
  192MOL0     H26496   8.801   2.810   1.593 -0.0865  0.8041  0.5229
  193MOL0     O26497   5.156   3.283  11.193  0.2150  0.0842  0.0856
  193MOL0     C26498   5.097   3.353  11.111 -0.5119 -0.1699  0.7764
  193MOL0     O26499   5.161   3.436  11.021 -0.4240  0.1471  0.5833
  193MOL0     C26500   5.301   3.414  11.016  0.6656  0.8297 -0.1704
  193MOL0     C26501   5.390   3.476  11.107 -0.2877  0.4453  0.8198
  193MOL0     C26502   5.527   3.466  11.089 -0.2927  0.0583 -0.6056
  193MOL0     C26503   5.575   3.389  10.978 -0.7267 -0.7518 -0.7688
  193MOL0     O26504   5.709   3.368  10.953  0.2286 -0.2188  0.4051
  193MOL0     C26505   5.809   3.437  11.029  0.4604 -0.0824 -0.1717
  193MOL0     C26506   5.946   3.439  10.975 -0.3659  0.0146  0.4640
  193MOL0     C26507   6.034   3.521  11.069 -0.2544 -0.0429 -1.1699
  193MOL0     C26508   6.164   3.552  10.992  0.9100  1.0936 -0.4010
  193MOL0     C26509   6.241   3.638  11.084 -0.3258 -0.7341 -0.5002
  193MOL0     C26510   6.369   3.691  11.010 -0.5805  0.9048  0.3075
  193MOL0     C26511   6.455   3.768  11.098 -0.2477 -0.1142  0.0515
  193MOL0     C26512   6.586   3.790  11.026 -0.3238 -1.2846 -0.3566
  193MOL0     N26513   6.673   3.891  11.105 -0.0628  0.0705  0.2554
  193MOL0     C26514   6.778   3.871  11.189 -0.0150  0.2830  0.0563
  193MOL0     C26515   6.818   3.989  11.231 -0.5175  0.4208 -0.2726
  193MOL0     C26516   6.941   4.017  11.321 -0.1307 -0.3183  0.4275
  193MOL0     C26517   7.045   4.113  11.277  0.1253 -0.3355  0.7879
  193MOL0     C26518   7.098   4.072  11.142  0.1511 -0.2178 -0.2621
  193MOL0     C26519   7.220   4.165  11.097 -0.0940  0.4068  0.2228
  193MOL0     O26520   7.324   4.105  11.164  0.3684  0.9176  0.2215
  193MOL0     C26521   7.448   4.168  11.173 -0.1822 -0.3445 -0.9239
  193MOL0     C26522   7.486   4.287  11.114  0.3849 -1.4085  0.5919
  193MOL0     C26523   7.609   4.352  11.123  0.1609 -0.2200 -0.4654
  193MOL0     C26524   7.647   4.451  11.016 -0.2455 -0.6549 -0.2251
  193MOL0     C26525   7.696   4.294  11.220 -0.8538  0.0178 -0.0581
  193MOL0     C26526   7.831   4.344  11.237 -0.0138  0.1663 -0.3544
  193MOL0     O26527   7.847   4.482  11.229  0.4206  0.1134 -0.3059
  193MOL0     C26528   7.971   4.537  11.251 -0.0737 -0.6766 -0.4001
  193MOL0     C26529   8.043   4.601  11.148  0.1306  0.1162  0.3461
  193MOL0     C26530   8.163   4.660  11.180 -0.2386  0.7180  0.3928
  193MOL0     C26531   8.207   4.672  11.309  0.7271 -0.3117 -0.5745
  193MOL0     O26532   8.324   4.746  11.335  0.4823 -0.3465 -0.2339
  193MOL0     C26533   8.393   4.721  11.460  0.5065 -0.3719  0.6239
  193MOL0     C26534   8.533   4.764  11.445 -0.6975  0.1438 -0.2374
  193MOL0     C26535   8.552   4.903  11.423 -0.4752 -1.5318 -0.4330
  193MOL0     C26536   8.692   4.945  11.363  0.8601  0.3292  0.2090
  193MOL0     C26537   8.697   5.087  11.310  0.3669 -0.0290  0.3039
  193MOL0     C26538   8.835   5.154  11.311 -0.1799 -0.0294 -0.6400
  193MOL0     C26539   8.840   5.306  11.298 -0.2348 -0.2886 -0.3428
  193MOL0     C26540   8.991   5.346  11.292 -0.4293 -0.5315  0.7268
  193MOL0    Cl26541   9.009   5.517  11.227  0.1631  0.1539 -0.5918
  193MOL0     C26542   8.131   4.615  11.417  0.2839  0.0667  0.6791
  193MOL0     C26543   8.015   4.548  11.381  0.0671 -0.6523 -0.1241
  193MOL0     O26544   7.918   4.268  11.274  0.0456  0.3011  0.0639
  193MOL0     C26545   7.663   4.176  11.289  0.6992  0.0232  0.5936
  193MOL0     C26546   7.536   4.116  11.276  0.0817  0.1481 -0.8122
  193MOL0     N26547   6.730   4.082  11.189  0.0202  0.0489  1.1323
  193MOL0     N26548   6.638   4.022  11.122  0.2449 -0.2404  0.4240
  193MOL0     C26549   5.491   3.320  10.893  0.4338 -0.9205 -0.8233
  193MOL0     C26550   5.355   3.347  10.902  1.1799 -0.0943  0.1354
  193MOL0     C26551   4.956   3.347  11.092 -0.4709 -0.2744  0.8262
  193MOL0     C26552   4.897   3.392  10.966  0.1804  0.6798  0.7960
  193MOL0     C26553   4.759   3.388  10.955  1.0385 -0.5333 -0.3514
  193MOL0     C26554   4.673   3.349  11.060  0.8483 -0.9070 -0.0989
  193MOL0     O26555   4.538   3.350  11.056 -0.1504  0.3344  0.1461
  193MOL0     C26556   4.464   3.323  10.939  0.5796 -0.6564  0.5580
  193MOL0     C26557   4.324   3.379  10.947  0.6968  0.3152  0.5863
  193MOL0     C26558   4.231   3.330  10.833  0.5084 -0.3592 -0.5184
  193MOL0     C26559   4.215   3.427  10.718  0.5530  0.4155 -0.6376
  193MOL0     C26560   4.338   3.455  10.650 -0.7836  0.0910 -0.1308
  193MOL0     C26561   4.452   3.464  10.601  1.1332  0.6359  0.0826
  193MOL0     C26562   4.721   3.312  11.186 -0.8706  0.0695 -0.2774
  193MOL0     C26563   4.860   3.300  11.193 -0.4602  0.4227 -0.8609
  193MOL0     C26564   4.900   3.235  11.323 -0.6867  0.3304  0.2329
  193MOL0     H26565   5.351   3.540  11.186 -0.2481 -0.1448  1.3203
  193MOL0     H26566   5.589   3.517  11.163 -1.2755  1.0452 -0.4350
  193MOL0     H26567   5.800   3.392  11.129  0.8039  0.1809 -0.0217
  193MOL0     H26568   5.787   3.543  11.043  4.9760  0.9235  0.9741
  193MOL0     H26569   5.997   3.343  10.963 -1.7235 -1.2228  3.5689
  193MOL0     H26570   5.947   3.489  10.878 -2.3946  0.0012  0.3788
  193MOL0     H26571   5.972   3.604  11.104 -1.3272 -1.5015  0.5717
  193MOL0     H26572   6.062   3.451  11.149 -1.6071 -0.6021 -1.1631
  193MOL0     H26573   6.209   3.460  10.955 -1.4232  0.0551 -0.8429
  193MOL0     H26574   6.139   3.608  10.901 -5.3812  0.4170  0.4336
  193MOL0     H26575   6.263   3.581  11.175  0.0541  0.0638 -0.0883
  193MOL0     H26576   6.171   3.719  11.102  0.2283 -0.4974  0.6239
  193MOL0     H26577   6.431   3.613  10.965 -0.4985  0.2941  1.4483
  193MOL0     H26578   6.343   3.752  10.922 -0.9406 -1.6055 -1.4360
  193MOL0     H26579   6.474   3.720  11.195 -0.9585 -0.0329  0.2368
  193MOL0     H26580   6.405   3.864  11.114  0.7461  0.5056 -0.4657
  193MOL0     H26581   6.647   3.699  11.024  2.7744  0.5233  2.0102
  193MOL0     H26582   6.568   3.823  10.923  0.7937 -1.8206 -0.7521
  193MOL0     H26583   6.823   3.774  11.209  2.5850  1.3081 -0.5310
  193MOL0     H26584   6.990   3.922  11.343  1.5370  0.5247  0.4926
  193MOL0     H26585   6.896   4.062  11.410  2.1721  0.4468  1.2639
  193MOL0     H26586   7.002   4.213  11.286 -0.1452 -0.6016  3.2597
  193MOL0     H26587   7.123   4.109  11.354  1.2082  3.0091  0.0041
  193MOL0     H26588   7.126   3.967  11.135  0.1403 -0.1391 -2.1731
  193MOL0     H26589   7.011   4.088  11.076 -1.8284 -0.2776  2.1883
  193MOL0     H26590   7.243   4.151  10.991  1.8507  1.3244  0.4767
  193MOL0     H26591   7.203   4.268  11.128 -0.8194  0.3616  0.0140
  193MOL0     H26592   7.432   4.349  11.044  3.2096  2.6899  1.6977
  193MOL0     H26593   7.732   4.423  10.954 -0.2604  0.5366 -0.7906
  193MOL0     H26594   7.677   4.542  11.068 -0.2591 -1.3551  1.0562
  193MOL0     H26595   7.567   4.482  10.949 -0.8081 -1.2217  0.1682
  193MOL0     H26596   8.009   4.592  11.046  0.2431 -0.7040  0.3767
  193MOL0     H26597   8.225   4.708  11.105 -0.7861 -0.8903 -1.1801
  193MOL0     H26598   8.344   4.781  11.537  2.9436  2.7559 -0.0309
  193MOL0     H26599   8.391   4.615  11.487  2.1569 -0.0506  2.1590
  193MOL0     H26600   8.588   4.743  11.538  1.7202 -0.4262 -1.7206
  193MOL0     H26601   8.596   4.711  11.374  0.4456  1.1220  0.0255
  193MOL0     H26602   8.539   4.952  11.520  1.5844 -2.6616  0.4776
  193MOL0     H26603   8.472   4.934  11.354 -0.4946 -1.2764 -0.2982
  193MOL0     H26604   8.730   4.886  11.279  1.3183  3.5041 -2.0091
  193MOL0     H26605   8.767   4.938  11.442  0.8915  1.5708  0.3108
  193MOL0     H26606   8.640   5.093  11.217 -0.7145  2.2813  1.0204
  193MOL0     H26607   8.636   5.136  11.387 -2.2052 -0.3989 -1.3859
  193MOL0     H26608   8.886   5.111  11.225  1.2716  0.1060  0.1228
  193MOL0     H26609   8.891   5.126  11.400 -1.0056  1.4610  0.4091
  193MOL0     H26610   8.790   5.353  11.383 -3.1925 -0.1788 -2.0036
  193MOL0     H26611   8.789   5.336  11.206  2.2841 -0.1146 -1.7443
  193MOL0     H26612   9.042   5.274  11.228  0.6923  0.5858  0.3277
  193MOL0     H26613   9.041   5.333  11.388  0.8571 -1.2211 -0.0192
  193MOL0     H26614   8.145   4.638  11.522 -0.4767  4.6554  0.0184
  193MOL0     H26615   7.950   4.518  11.463  0.3133 -0.8671 -0.0048
  193MOL0     H26616   7.732   4.135  11.361  1.2090  2.2541  1.4336
  193MOL0     H26617   7.509   4.028  11.333 -2.5110  1.7202  0.5968
  193MOL0     H26618   5.532   3.258  10.814 -1.2704 -3.0367 -0.1524
  193MOL0     H26619   5.280   3.305  10.836  2.5064 -1.0424 -0.8139
  193MOL0     H26620   4.961   3.431  10.887  0.9894 -0.6454  0.7663
  193MOL0     H26621   4.712   3.416  10.861 -1.6184 -2.8103  0.1394
  193MOL0     H26622   4.519   3.355  10.849  0.7690 -3.8969 -0.6273
  193MOL0     H26623   4.451   3.215  10.923 -3.4027 -0.2864  0.4759
  193MOL0     H26624   4.325   3.488  10.956  0.1240  0.1853  2.7746
  193MOL0     H26625   4.277   3.359  11.044 -2.8092  2.2819 -0.5459
  193MOL0     H26626   4.272   3.244  10.779  0.7120  0.1241 -1.1493
  193MOL0     H26627   4.139   3.292  10.878  0.7839 -1.2059 -0.6706
  193MOL0     H26628   4.171   3.524  10.745  0.3159 -0.5204  2.7625
  193MOL0     H26629   4.145   3.381  10.648  1.8912  1.0886 -2.4992
  193MOL0     H26630   4.549   3.472  10.556  0.9662  1.2677 -0.1752
  193MOL0     H26631   4.659   3.294  11.273  0.2095  0.7684  0.6622
  193MOL0     H26632   4.964   3.304  11.379  0.2729 -0.3144 -0.0399
  193MOL0     H26633   4.812   3.217  11.385 -1.8327  1.1372 -1.1000
  193MOL0     H26634   4.961   3.146  11.303 -3.2129 -1.3111 -0.7275
  194MOL0     O26635   3.762  10.305   3.170 -0.5237 -0.4741 -0.4876
  194MOL0     C26636   3.791  10.422   3.198  0.1361 -0.2130  0.0341
  194MOL0     O26637   3.907  10.455   3.269 -0.5685  0.0577 -0.4295
  194MOL0     C26638   3.959  10.373   3.365  0.5905 -0.6410  0.2972
  194MOL0     C26639   3.879  10.302   3.458 -0.4534  0.9618 -0.0282
  194MOL0     C26640   3.943  10.230   3.559 -0.3243  0.1347  0.3132
  194MOL0     C26641   4.084  10.239   3.575 -0.4322 -0.0396 -0.2417
  194MOL0     O26642   4.132  10.156   3.679  0.0303 -0.3835 -0.0158
  194MOL0     C26643   4.263  10.110   3.648  0.3061  0.1799  0.0494
  194MOL0     C26644   4.278   9.964   3.696 -0.2895 -0.5550  0.3986
  194MOL0     C26645   4.257   9.937   3.844  0.1722 -0.2545 -0.1080
  194MOL0     C26646   4.373   9.980   3.930 -0.9972  0.2448 -0.3568
  194MOL0     C26647   4.342   9.979   4.078  0.0447  0.7146  0.1418
  194MOL0     C26648   4.448  10.052   4.153 -0.7709  0.1342 -0.5717
  194MOL0     C26649   4.583   9.992   4.119  0.2516  0.4782 -0.9713
  194MOL0     C26650   4.698  10.034   4.220 -0.2938  1.3415 -0.5661
  194MOL0     N26651   4.828   9.982   4.175  0.1386 -1.1650  0.0540
  194MOL0     C26652   4.912  10.048   4.085 -0.1167 -0.0607  0.2195
  194MOL0     C26653   5.033   9.992   4.111 -0.4690 -0.5781 -0.3174
  194MOL0     C26654   5.156  10.013   4.038  0.1592 -0.1358 -0.2591
  194MOL0     C26655   5.276  10.068   4.124  0.9464  0.6261 -0.1842
  194MOL0     C26656   5.393  10.114   4.051 -0.0473  0.0769  0.7283
  194MOL0     C26657   5.451  10.012   3.960 -0.4634  0.4762  1.4360
  194MOL0     O26658   5.560  10.077   3.884  0.3475  0.1533 -0.7984
  194MOL0     C26659   5.683  10.029   3.902 -0.2478  0.4885  0.4764
  194MOL0     C26660   5.717   9.902   3.853  0.0680  0.1742 -0.0466
  194MOL0     C26661   5.847   9.849   3.863  0.0043 -0.5001  0.0565
  194MOL0     C26662   5.871   9.711   3.804  0.0789 -0.6795 -1.2622
  194MOL0     C26663   5.946   9.924   3.936 -0.0665  0.4514  0.1779
  194MOL0     C26664   6.086   9.875   3.958  0.0842  0.3282  0.2541
  194MOL0     O26665   6.183   9.961   3.925 -0.0292  0.9532 -0.1162
  194MOL0     C26666   6.310   9.943   3.977  0.3695  0.3929  0.5843
  194MOL0     C26667   6.347   9.888   4.108 -0.2497  0.4460 -0.4878
  194MOL0     C26668   6.477   9.865   4.144 -0.7139 -0.5403  0.5520
  194MOL0     C26669   6.579   9.894   4.053 -0.0629 -0.4349 -0.6146
  194MOL0     O26670   6.714   9.880   4.087  0.1221 -0.1043 -0.1561
  194MOL0     C26671   6.754   9.788   4.195  0.1487  0.4054 -0.0237
  194MOL0     C26672   6.905   9.794   4.218  0.3588  1.2349  1.1810
  194MOL0     C26673   6.958   9.933   4.244  0.4774  0.1050 -0.5156
  194MOL0     C26674   7.105   9.924   4.294  0.3186 -0.1419  0.0513
  194MOL0     C26675   7.173  10.058   4.323 -0.0154 -0.2040 -0.1398
  194MOL0     C26676   7.318  10.035   4.379  0.0072  0.2312 -0.1060
  194MOL0     C26677   7.407  10.159   4.406 -0.2298  0.1319 -0.2699
  194MOL0     C26678   7.552  10.150   4.455  0.2921  0.1347  0.2377
  194MOL0    Cl26679   7.674  10.109   4.322  0.0586 -0.0476 -0.5079
  194MOL0     C26680   6.555   9.953   3.932  0.7671  1.1810  0.2286
  194MOL0     C26681   6.425   9.979   3.896 -0.5166  0.2652 -0.1378
  194MOL0     O26682   6.100   9.770   4.013 -0.2295  0.9980  0.4358
  194MOL0     C26683   5.907  10.046   3.999  0.1848 -0.2735 -0.4762
  194MOL0     C26684   5.776  10.097   3.979  0.2102 -0.0602 -0.0420
  194MOL0     N26685   5.021   9.903   4.217 -0.3867  0.1678 -0.1069
  194MOL0     N26686   4.899   9.890   4.249  0.7993  0.2318  0.0952
  194MOL0     C26687   4.156  10.315   3.481 -0.0334  0.2034 -0.6747
  194MOL0     C26688   4.097  10.389   3.383 -0.4354  0.2315  0.3015
  194MOL0     C26689   3.721  10.532   3.130 -0.2162  0.0463  0.6615
  194MOL0     C26690   3.764  10.660   3.155 -0.3617 -0.7475 -0.7066
  194MOL0     C26691   3.697  10.774   3.119  0.1107 -0.0161  0.3075
  194MOL0     C26692   3.576  10.770   3.042 -0.5411 -0.5631 -0.3568
  194MOL0     O26693   3.500  10.883   3.014  0.2552  0.2649  0.3475
  194MOL0     C26694   3.550  11.010   3.045 -0.0300  1.0240  0.8723
  194MOL0     C26695   3.426  11.099   3.005 -0.2752 -0.2057  0.2407
  194MOL0     C26696   3.464  11.247   3.018  0.6763 -0.0276  0.1777
  194MOL0     C26697   3.341  11.322   3.060 -0.1739 -0.3237 -0.1240
  194MOL0     C26698   3.231  11.324   2.961  0.4054 -0.3371 -0.2959
  194MOL0     C26699   3.133  11.329   2.890 -0.7070  0.2718 -0.2268
  194MOL0     C26700   3.530  10.640   3.014  0.1720  0.5230  0.0944
  194MOL0     C26701   3.607  10.520   3.052 -0.9098  0.0218 -1.5509
  194MOL0     C26702   3.541  10.395   3.006  0.2838  0.3442 -0.2105
  194MOL0     H26703   3.773  10.293   3.433  0.0991 -2.4271 -1.7081
  194MOL0     H26704   3.881  10.172   3.627  0.1100 -2.0116 -1.0199
  194MOL0     H26705   4.328  10.185   3.693 -2.2058  4.2854 -2.4584
  194MOL0     H26706   4.289  10.108   3.542 -1.2318  0.8638 -0.3792
  194MOL0     H26707   4.198   9.911   3.644 -0.9013  2.2025 -1.6874
  194MOL0     H26708   4.373   9.918   3.666 -0.5206 -2.3167  2.1315
  194MOL0     H26709   4.164   9.984   3.878 -1.2173 -1.8070 -1.5734
  194MOL0     H26710   4.235   9.830   3.848  2.3172 -0.7538 -0.3342
  194MOL0     H26711   4.462   9.923   3.904 -0.6477  1.0038 -0.8851
  194MOL0     H26712   4.402  10.081   3.899  0.8899 -0.1709 -0.0631
  194MOL0     H26713   4.344   9.872   4.103  2.3078  0.9531  1.2376
  194MOL0     H26714   4.245  10.020   4.107  0.0783  1.7178 -1.0940
  194MOL0     H26715   4.441  10.159   4.134  0.6662  0.4623  0.5846
  194MOL0     H26716   4.415  10.043   4.256  0.9808  0.6597  0.0756
  194MOL0     H26717   4.617  10.011   4.017  0.8191 -1.8296 -1.2741
  194MOL0     H26718   4.585   9.886   4.146  1.6831  1.1974  2.2714
  194MOL0     H26719   4.707  10.143   4.223 -1.0463  1.4147  2.9161
  194MOL0     H26720   4.680   9.996   4.321  1.5231  0.9709 -0.3506
  194MOL0     H26721   4.888  10.128   4.016 -0.5932 -0.2770  0.1315
  194MOL0     H26722   5.131  10.088   3.962 -0.1074  2.5948  2.3118
  194MOL0     H26723   5.192   9.923   3.987  1.0200 -0.1923  0.4297
  194MOL0     H26724   5.239  10.157   4.175  1.1619  1.7107 -1.8240
  194MOL0     H26725   5.303   9.987   4.192  0.2136  0.2895 -0.2934
  194MOL0     H26726   5.363  10.207   4.001 -1.3228 -0.0655  1.1785
  194MOL0     H26727   5.465  10.151   4.125 -0.4755  1.0960  0.6535
  194MOL0     H26728   5.490   9.928   4.018  1.1597 -1.7473 -2.4931
  194MOL0     H26729   5.373   9.969   3.897  0.9927  1.5049 -1.1924
  194MOL0     H26730   5.644   9.844   3.798  0.7306 -0.3243 -0.4120
  194MOL0     H26731   5.790   9.643   3.833  0.7671 -0.7396  0.7045
  194MOL0     H26732   5.965   9.662   3.832  1.1334  3.0407  2.8608
  194MOL0     H26733   5.875   9.734   3.697 -1.8185 -0.4856 -1.3213
  194MOL0     H26734   6.272   9.845   4.174  1.4380  1.0043  1.9135
  194MOL0     H26735   6.493   9.813   4.238  0.3599  0.5650  1.0106
  194MOL0     H26736   6.708   9.830   4.286 -1.7066  0.4026 -0.9053
  194MOL0     H26737   6.723   9.684   4.181  2.2208 -0.1226 -0.9582
  194MOL0     H26738   6.919   9.733   4.309 -3.5423 -0.5747  0.7555
  194MOL0     H26739   6.947   9.737   4.135 -3.2199  0.1995 -0.0850
  194MOL0     H26740   6.905   9.971   4.332  1.1491 -0.7051  0.2593
  194MOL0     H26741   6.961  10.001   4.159  1.1822  0.9881  0.1964
  194MOL0     H26742   7.158   9.878   4.211 -0.4541  3.5810 -2.7370
  194MOL0     H26743   7.101   9.859   4.383 -2.5726  0.4564  0.4662
  194MOL0     H26744   7.182  10.116   4.230  2.5858 -3.0476 -1.8550
  194MOL0     H26745   7.107  10.122   4.383 -0.0938  2.4877 -2.8380
  194MOL0     H26746   7.370   9.972   4.307  4.1179  3.5904 -0.4380
  194MOL0     H26747   7.296   9.976   4.469 -1.2903  0.9053  0.0466
  194MOL0     H26748   7.356  10.218   4.483 -0.6675  0.1932 -0.5989
  194MOL0     H26749   7.410  10.215   4.312  0.9265  0.4543 -0.0463
  194MOL0     H26750   7.547  10.064   4.522 -2.1292 -1.6085 -1.9366
  194MOL0     H26751   7.574  10.238   4.515 -1.6638  0.7025  0.2221
  194MOL0     H26752   6.639   9.993   3.877  0.6143  3.3263  1.4594
  194MOL0     H26753   6.403  10.039   3.808  2.0197  1.2808 -0.1490
  194MOL0     H26754   5.985  10.105   4.045  2.0677 -1.5335 -1.8914
  194MOL0     H26755   5.740  10.181   4.037 -2.6475 -1.5752  0.5188
  194MOL0     H26756   4.262  10.326   3.500  0.1913  1.1294 -2.2378
  194MOL0     H26757   4.160  10.451   3.320  0.4683  0.8956  1.8036
  194MOL0     H26758   3.850  10.672   3.221 -0.5868 -0.5671 -0.4413
  194MOL0     H26759   3.739  10.865   3.162  1.0946 -1.1843  1.9463
  194MOL0     H26760   3.583  11.020   3.149  2.5339  1.0449  0.1211
  194MOL0     H26761   3.634  11.043   2.984  1.4615  0.2740  2.4292
  194MOL0     H26762   3.344  11.075   3.074 -0.5832  1.1837  0.3913
  194MOL0     H26763   3.382  11.067   2.910  0.7530 -1.3082  0.1057
  194MOL0     H26764   3.546  11.253   3.089 -0.7079 -1.2941  1.9663
  194MOL0     H26765   3.508  11.279   2.923 -0.5096  0.6051 -0.1746
  194MOL0     H26766   3.372  11.427   3.071 -1.0335  0.2614 -2.4708
  194MOL0     H26767   3.301  11.291   3.156 -1.8278 -0.8570 -0.9465
  194MOL0     H26768   3.047  11.344   2.828  0.8131  0.2776 -2.4227
  194MOL0     H26769   3.437  10.628   2.959  1.4827  1.4759 -2.5378
  194MOL0     H26770   3.519  10.354   3.105  1.8267 -1.2713 -0.4890
  194MOL0     H26771   3.446  10.401   2.952 -0.2304  2.5757  0.7894
  194MOL0     H26772   3.607  10.330   2.949 -1.8430 -1.0175 -1.2378
  195MOL0     O26773   4.656   6.992   7.034  0.4417 -0.5043  0.1031
  195MOL0     C26774   4.687   6.946   7.150 -0.1099 -0.5800 -0.3766
  195MOL0     O26775   4.806   6.895   7.192  0.6286 -0.0016  0.1987
  195MOL0     C26776   4.905   6.909   7.097  0.7062 -0.6049 -0.8192
  195MOL0     C26777   4.963   7.032   7.092 -0.7019 -0.8605  0.1261
  195MOL0     C26778   5.077   7.047   7.012  0.3501  0.6247  0.8990
  195MOL0     C26779   5.131   6.944   6.932  0.2799 -0.1818 -0.1540
  195MOL0     O26780   5.250   6.941   6.864  0.5837 -0.5041  0.1634
  195MOL0     C26781   5.347   7.049   6.857 -0.2690  0.3362 -0.7192
  195MOL0     C26782   5.466   7.039   6.963 -0.3306 -0.3204  0.9262
  195MOL0     C26783   5.417   7.071   7.100  0.1227  0.6075  0.1214
  195MOL0     C26784   5.527   7.037   7.199 -0.2241  0.0406  1.0079
  195MOL0     C26785   5.475   7.080   7.346  0.6470 -0.2498  0.0083
  195MOL0     C26786   5.577   7.099   7.461  0.3455  0.1499 -0.3713
  195MOL0     C26787   5.669   6.972   7.470  0.0744 -0.2367  0.3329
  195MOL0     C26788   5.596   6.837   7.475 -0.3863  0.0653 -0.3244
  195MOL0     N26789   5.698   6.729   7.468  0.1439 -0.0240 -0.4878
  195MOL0     C26790   5.767   6.679   7.568  0.1730  0.4038 -0.1858
  195MOL0     C26791   5.808   6.553   7.530 -0.1683 -1.0535 -0.1758
  195MOL0     C26792   5.901   6.460   7.606  0.1530 -0.2149  0.2685
  195MOL0     C26793   6.008   6.390   7.519 -0.5541 -0.1691  0.6952
  195MOL0     C26794   6.058   6.266   7.595 -1.0299  0.3508 -0.3163
  195MOL0     C26795   6.201   6.277   7.628 -0.4398 -0.2288 -0.6462
  195MOL0     O26796   6.277   6.223   7.517 -1.2708  0.9697 -0.4392
  195MOL0     C26797   6.419   6.223   7.511  0.5286  0.0127 -0.6609
  195MOL0     C26798   6.495   6.280   7.607 -0.4631  0.1823 -0.7282
  195MOL0     C26799   6.636   6.283   7.605 -0.4010  0.7548  0.0616
  195MOL0     C26800   6.719   6.365   7.714  0.2510  0.5605  0.4531
  195MOL0     C26801   6.700   6.203   7.510  0.1803  0.0223 -0.4909
  195MOL0     C26802   6.847   6.194   7.493  0.9844 -0.4209 -0.5226
  195MOL0     O26803   6.920   6.195   7.604  0.1105  0.0394 -0.4902
  195MOL0     C26804   7.061   6.223   7.592  0.3677  0.1328  0.1089
  195MOL0     C26805   7.117   6.351   7.629  0.7463  0.1083  0.2106
  195MOL0     C26806   7.249   6.377   7.616 -0.3040  0.4367  0.5652
  195MOL0     C26807   7.339   6.284   7.557  0.4154  0.7867  0.4398
  195MOL0     O26808   7.477   6.293   7.539  0.1459 -0.2330 -0.2568
  195MOL0     C26809   7.552   6.396   7.608 -1.0241 -0.4304 -0.0705
  195MOL0     C26810   7.689   6.322   7.620 -0.2441  0.5354  0.3582
  195MOL0     C26811   7.795   6.418   7.681  0.3482  0.9063 -0.4749
  195MOL0     C26812   7.926   6.337   7.696  0.7361  0.0496 -0.5819
  195MOL0     C26813   8.037   6.411   7.762 -0.3759  0.3359 -0.0878
  195MOL0     C26814   8.155   6.320   7.792  0.5034 -0.6594 -0.4470
  195MOL0     C26815   8.127   6.243   7.925  0.2401 -0.8476  0.2160
  195MOL0     C26816   8.260   6.177   7.980  1.5132  0.4601  0.3274
  195MOL0    Cl26817   8.345   6.308   8.056 -0.3293 -0.2746 -0.0224
  195MOL0     C26818   7.285   6.159   7.511  0.1074 -0.4199 -0.2971
  195MOL0     C26819   7.150   6.131   7.533  0.2995 -0.3997 -0.6086
  195MOL0     O26820   6.890   6.205   7.379  0.0236 -0.2748  0.1885
  195MOL0     C26821   6.618   6.142   7.408  0.7593 -0.0217  0.9487
  195MOL0     C26822   6.476   6.159   7.406  0.1386  0.1982  0.1804
  195MOL0     N26823   5.772   6.536   7.398  0.0320 -0.1272  0.3594
  195MOL0     N26824   5.700   6.642   7.365  0.7177 -0.2477 -0.0976
  195MOL0     C26825   5.054   6.836   6.928 -0.6044  0.0283  0.8410
  195MOL0     C26826   4.942   6.812   7.014 -0.8533  0.0433 -0.2886
  195MOL0     C26827   4.574   6.973   7.254  0.6021  0.7905  0.0695
  195MOL0     C26828   4.499   6.858   7.288 -1.2737  0.4128 -0.9153
  195MOL0     C26829   4.387   6.870   7.370 -1.1289  0.0966 -0.6559
  195MOL0     C26830   4.350   6.988   7.427  0.7311  0.8267  0.0554
  195MOL0     O26831   4.234   6.976   7.493 -0.6367  0.1956  0.6553
  195MOL0     C26832   4.194   7.084   7.574 -0.8472 -0.0548 -0.3461
  195MOL0     C26833   4.075   7.039   7.662  0.1696  0.6334  0.3836
  195MOL0     C26834   3.982   7.156   7.708 -0.4344 -0.8407  0.2123
  195MOL0     C26835   3.840   7.114   7.746 -0.1739  0.2612 -0.0041
  195MOL0     C26836   3.761   7.064   7.634 -0.8309 -0.7815  0.0974
  195MOL0     C26837   3.708   7.031   7.535 -0.9208  0.9195 -0.7998
  195MOL0     C26838   4.410   7.106   7.382  1.0024  0.5696 -0.6075
  195MOL0     C26839   4.524   7.104   7.291  0.3429  0.4882 -1.4996
  195MOL0     C26840   4.589   7.232   7.243  0.5472  0.5407 -0.4240
  195MOL0     H26841   4.930   7.113   7.155 -1.3903 -1.2909  0.3271
  195MOL0     H26842   5.134   7.138   7.026  0.4606  0.6590  0.2402
  195MOL0     H26843   5.299   7.148   6.859 -1.0042 -0.0143  1.0914
  195MOL0     H26844   5.393   7.048   6.758  1.8038  0.7615  0.1881
  195MOL0     H26845   5.492   6.933   6.950  0.6161 -0.0880  0.8768
  195MOL0     H26846   5.552   7.099   6.930 -0.4646 -1.5926 -2.0783
  195MOL0     H26847   5.385   7.176   7.106 -0.6910  0.3088  1.3468
  195MOL0     H26848   5.332   7.006   7.125  0.6262 -0.2169 -0.2858
  195MOL0     H26849   5.543   6.929   7.193 -0.4743  0.0825 -1.5757
  195MOL0     H26850   5.621   7.086   7.174  0.7102 -2.1350 -0.0619
  195MOL0     H26851   5.399   7.009   7.380 -0.1844 -0.3704 -1.9654
  195MOL0     H26852   5.414   7.171   7.341  0.4828 -0.4095 -1.4957
  195MOL0     H26853   5.642   7.179   7.427 -0.7758  0.3293 -2.2229
  195MOL0     H26854   5.532   7.121   7.558  1.1830  2.7963 -0.5056
  195MOL0     H26855   5.726   6.991   7.561 -3.0437 -0.5785  2.5226
  195MOL0     H26856   5.734   6.957   7.383  0.7727  0.8087  0.6593
  195MOL0     H26857   5.540   6.829   7.569 -0.4972 -0.9971 -0.4687
  195MOL0     H26858   5.526   6.819   7.394  0.2495  0.1583 -0.9061
  195MOL0     H26859   5.786   6.725   7.665  0.0271  0.8730 -0.3738
  195MOL0     H26860   5.823   6.395   7.646 -1.1593 -0.7020 -2.7609
  195MOL0     H26861   5.947   6.509   7.691  1.3443 -1.3154  0.2787
  195MOL0     H26862   5.965   6.356   7.425  2.6283 -0.2373 -0.8659
  195MOL0     H26863   6.093   6.457   7.499 -0.6665  0.2207  1.4802
  195MOL0     H26864   5.998   6.250   7.685 -3.5062 -1.4107 -2.1552
  195MOL0     H26865   6.055   6.176   7.533  0.5711  0.4284 -0.5492
  195MOL0     H26866   6.236   6.379   7.649 -0.3402 -0.4935  0.5201
  195MOL0     H26867   6.223   6.228   7.724 -0.0251 -2.1883 -1.6940
  195MOL0     H26868   6.443   6.325   7.692 -1.2267 -0.8411 -0.6331
  195MOL0     H26869   6.790   6.302   7.769  0.6308  0.7602  0.1890
  195MOL0     H26870   6.649   6.404   7.789  0.9351  2.7857  0.0097
  195MOL0     H26871   6.767   6.448   7.662  1.0417 -0.7158 -0.9119
  195MOL0     H26872   7.055   6.412   7.694  1.5486  0.3165  0.7828
  195MOL0     H26873   7.289   6.471   7.653 -0.6320  0.2973  1.3003
  195MOL0     H26874   7.560   6.493   7.559 -0.4875  0.7357  2.1773
  195MOL0     H26875   7.517   6.403   7.712 -1.9762  0.1886 -0.4260
  195MOL0     H26876   7.675   6.232   7.681  0.6978  0.9943  1.2792
  195MOL0     H26877   7.724   6.299   7.519  2.7816  0.8491  1.2591
  195MOL0     H26878   7.752   6.459   7.773  2.4220  1.9677  0.0865
  195MOL0     H26879   7.818   6.491   7.602  3.3852  1.9546  1.1810
  195MOL0     H26880   7.955   6.301   7.597  1.4406  1.7714 -1.0424
  195MOL0     H26881   7.898   6.245   7.749 -1.2628  1.3228  0.7183
  195MOL0     H26882   8.064   6.483   7.684  1.0402  0.6256  0.6461
  195MOL0     H26883   8.007   6.468   7.850 -4.8776 -0.5506 -0.7680
  195MOL0     H26884   8.246   6.381   7.799  1.0244 -1.3470 -1.0992
  195MOL0     H26885   8.182   6.256   7.708 -2.5213 -1.1223 -1.1800
  195MOL0     H26886   8.070   6.154   7.895  0.3135 -0.7989 -0.0651
  195MOL0     H26887   8.071   6.287   8.008 -2.5257 -2.9111 -0.4142
  195MOL0     H26888   8.302   6.134   7.888  1.5387  0.8189  0.1717
  195MOL0     H26889   8.238   6.095   8.049 -0.3459  1.1254  0.5812
  195MOL0     H26890   7.357   6.094   7.463 -0.1576  0.2997 -1.7355
  195MOL0     H26891   7.105   6.035   7.509 -1.1096 -0.9871  3.6485
  195MOL0     H26892   6.654   6.087   7.323 -0.4890  1.3824 -0.5556
  195MOL0     H26893   6.420   6.112   7.325 -1.4172 -0.1492  1.4034
  195MOL0     H26894   5.097   6.760   6.864 -0.4820 -0.0162  0.9768
  195MOL0     H26895   4.879   6.723   7.018  0.3140 -0.8394 -1.0862
  195MOL0     H26896   4.524   6.754   7.269 -2.1293 -0.0274  0.2328
  195MOL0     H26897   4.346   6.776   7.407 -2.7365  0.3355 -1.7771
  195MOL0     H26898   4.278   7.113   7.638 -0.6022  0.6430 -0.9802
  195MOL0     H26899   4.168   7.176   7.521  1.5858  0.2049 -1.1889
  195MOL0     H26900   4.124   6.984   7.743  2.9254  0.9451 -0.9418
  195MOL0     H26901   4.017   6.971   7.599 -1.8234  2.1275  0.4928
  195MOL0     H26902   4.032   7.209   7.790  0.1619  2.6366 -2.1779
  195MOL0     H26903   3.978   7.234   7.631 -0.4383 -0.4481  0.6048
  195MOL0     H26904   3.792   7.204   7.785  0.0898 -0.4332  2.0130
  195MOL0     H26905   3.833   7.047   7.832 -0.3879  1.6709  1.1169
  195MOL0     H26906   3.668   6.982   7.449  1.1050  0.2199 -1.3997
  195MOL0     H26907   4.367   7.198   7.420 -0.2507 -0.2450  0.0438
  195MOL0     H26908   4.697   7.211   7.239  0.5165 -0.3937  2.0101
  195MOL0     H26909   4.552   7.243   7.141 -0.5784  0.4314 -0.0393
  195MOL0     H26910   4.563   7.324   7.296  0.9286  1.3926 -1.6581
  196MOL0     O26911   2.706   5.220   8.189 -0.8800  0.2137  0.0171
  196MOL0     C26912   2.652   5.159   8.100 -0.2810  0.0720 -0.4694
  196MOL0     O26913   2.700   5.140   7.971  0.5622  0.0648  0.7018
  196MOL0     C26914   2.823   5.183   7.938 -0.0654  0.2229 -0.0867
  196MOL0     C26915   2.930   5.118   8.006 -0.0057  0.3484 -0.2229
  196MOL0     C26916   3.065   5.150   7.975  0.3218 -0.4441  0.0494
  196MOL0     C26917   3.089   5.245   7.869  0.2920 -1.0585  0.2906
  196MOL0     O26918   3.218   5.292   7.823  0.5832  0.8030 -0.2124
  196MOL0     C26919   3.330   5.227   7.880  0.2161  0.0438 -0.2942
  196MOL0     C26920   3.454   5.292   7.829 -0.5398 -0.5816  0.5708
  196MOL0     C26921   3.491   5.225   7.693 -0.1329 -0.4343  0.0585
  196MOL0     C26922   3.598   5.312   7.616  0.0087 -0.5650  0.2722
  196MOL0     C26923   3.615   5.250   7.474  0.5322 -0.3682 -0.5935
  196MOL0     C26924   3.654   5.106   7.461  0.5705 -0.6813 -0.1920
  196MOL0     C26925   3.783   5.094   7.370 -0.1737 -0.0704  0.0249
  196MOL0     C26926   3.925   5.119   7.428  0.3038  1.0720 -0.4004
  196MOL0     N26927   3.952   5.260   7.447 -0.3408  0.3097  0.1189
  196MOL0     C26928   3.943   5.333   7.563  0.1967 -0.3012  0.3303
  196MOL0     C26929   3.987   5.458   7.519  0.6491 -0.0848 -0.2764
  196MOL0     C26930   3.994   5.573   7.614 -0.5272  0.2022 -0.2024
  196MOL0     C26931   4.140   5.591   7.656  0.4448 -0.2708  0.4367
  196MOL0     C26932   4.163   5.492   7.770 -0.0445 -1.2146  0.4097
  196MOL0     C26933   4.311   5.514   7.823  0.6813 -0.5653 -0.1603
  196MOL0     O26934   4.324   5.431   7.936 -1.0499 -0.3887 -0.3980
  196MOL0     C26935   4.452   5.431   7.993 -0.9058 -0.1349 -0.8661
  196MOL0     C26936   4.474   5.349   8.102 -0.4437 -0.4071 -0.0786
  196MOL0     C26937   4.598   5.321   8.160 -0.0401  1.0089  0.0353
  196MOL0     C26938   4.604   5.220   8.275  0.9313 -0.0487  0.7531
  196MOL0     C26939   4.716   5.389   8.113 -0.4377  0.2689  0.3920
  196MOL0     C26940   4.846   5.378   8.170  1.0220  0.1993  0.6238
  196MOL0     O26941   4.958   5.361   8.095  0.2251  0.0285 -0.0952
  196MOL0     C26942   5.065   5.328   8.168 -0.3637  0.3834 -0.2142
  196MOL0     C26943   5.115   5.200   8.158 -0.5625 -0.2063  0.3502
  196MOL0     C26944   5.229   5.170   8.240 -0.2565 -0.7155 -0.6940
  196MOL0     C26945   5.290   5.266   8.316 -0.3231 -0.2390 -0.4965
  196MOL0     O26946   5.400   5.218   8.388  0.1647  0.0819 -0.2153
  196MOL0     C26947   5.516   5.241   8.315 -0.6244  0.3530  0.0289
  196MOL0     C26948   5.638   5.185   8.399  0.2940 -0.2066 -0.7298
  196MOL0     C26949   5.700   5.066   8.325 -0.1165 -0.0365 -0.2226
  196MOL0     C26950   5.822   5.109   8.247 -0.8781 -0.3960 -0.2920
  196MOL0     C26951   5.952   5.105   8.341  0.3280 -0.2553  0.8944
  196MOL0     C26952   6.020   4.976   8.380  0.1124 -0.2857 -0.6733
  196MOL0     C26953   6.150   4.971   8.299  0.6385 -0.4939 -0.9592
  196MOL0     C26954   6.236   4.843   8.337  0.4942 -0.1472  0.2406
  196MOL0    Cl26955   6.141   4.702   8.392 -0.1637 -0.0396  0.2212
  196MOL0     C26956   5.244   5.400   8.308 -0.1675  0.1559  0.0907
  196MOL0     C26957   5.138   5.430   8.235 -0.2578  0.1100  0.6896
  196MOL0     O26958   4.839   5.395   8.292 -0.2001 -0.2758 -0.7713
  196MOL0     C26959   4.696   5.477   8.006 -0.0769 -0.7880 -0.3644
  196MOL0     C26960   4.567   5.492   7.939 -0.8546 -1.1617 -0.6205
  196MOL0     N26961   4.005   5.459   7.381 -0.1304  0.2602 -0.4476
  196MOL0     N26962   3.987   5.340   7.342  0.1730 -0.6192  0.2963
  196MOL0     C26963   2.981   5.303   7.798 -0.6494  1.0971 -0.0548
  196MOL0     C26964   2.850   5.265   7.830  0.0225 -0.0196  0.0829
  196MOL0     C26965   2.521   5.094   8.133 -0.6533 -0.6027  0.1384
  196MOL0     C26966   2.464   5.024   8.029 -0.9412  0.2566 -0.2368
  196MOL0     C26967   2.342   4.964   8.044 -0.0510  0.0719 -0.4275
  196MOL0     C26968   2.274   4.973   8.158 -0.9194  0.2026  0.8161
  196MOL0     O26969   2.160   4.903   8.162 -0.0683  0.5544 -0.1153
  196MOL0     C26970   2.048   4.932   8.254  0.0470 -1.3666 -0.5278
  196MOL0     C26971   1.963   4.799   8.251 -0.5160 -0.1153 -0.1222
  196MOL0     C26972   2.052   4.703   8.325  0.6408  0.1989 -0.4700
  196MOL0     C26973   1.993   4.570   8.309  0.1605  0.4330 -0.1939
  196MOL0     C26974   2.096   4.470   8.305  0.6312  0.0404  0.2474
  196MOL0     C26975   2.190   4.400   8.306 -0.3859 -0.4308 -0.4278
  196MOL0     C26976   2.336   5.045   8.263  0.7839  0.9058 -0.7966
  196MOL0     C26977   2.458   5.104   8.260 -0.8432  0.3160 -0.3284
  196MOL0     C26978   2.509   5.187   8.380 -0.2589 -0.9509 -0.4185
  196MOL0     H26979   2.910   5.053   8.090 -0.5547  0.4695 -0.2565
  196MOL0     H26980   3.142   5.096   8.029  0.1691 -2.0674 -1.2758
  196MOL0     H26981   3.321   5.122   7.851 -0.0566 -0.5195  1.7410
  196MOL0     H26982   3.334   5.228   7.989  0.9402 -2.0876 -0.2661
  196MOL0     H26983   3.450   5.400   7.815  1.2325 -0.7463 -1.7076
  196MOL0     H26984   3.536   5.268   7.897  1.7191  2.4382 -0.8968
  196MOL0     H26985   3.515   5.120   7.712 -0.4478 -0.0783  2.7455
  196MOL0     H26986   3.407   5.214   7.624  1.1137 -4.1868 -1.0984
  196MOL0     H26987   3.562   5.414   7.607 -1.0186 -1.0852 -2.4998
  196MOL0     H26988   3.695   5.316   7.668  1.5559 -2.6542 -2.2090
  196MOL0     H26989   3.696   5.307   7.427  0.5036 -0.7013 -1.0586
  196MOL0     H26990   3.518   5.266   7.425  1.1794 -0.4715 -1.9647
  196MOL0     H26991   3.664   5.058   7.558 -0.5636  1.1710  0.8944
  196MOL0     H26992   3.572   5.058   7.406 -2.4101  0.9053  2.5217
  196MOL0     H26993   3.767   5.150   7.278 -1.7879 -3.0120 -1.6262
  196MOL0     H26994   3.780   4.990   7.336  1.4707 -0.1302 -0.0251
  196MOL0     H26995   3.933   5.058   7.518 -1.8556  0.8806 -0.2822
  196MOL0     H26996   3.988   5.072   7.352 -1.9314  1.3472 -2.5599
  196MOL0     H26997   3.916   5.308   7.665 -3.2826 -0.5907 -0.5559
  196MOL0     H26998   3.921   5.558   7.694  0.6329  2.6944  1.4532
  196MOL0     H26999   3.956   5.665   7.569 -1.3790 -0.3820 -0.7297
  196MOL0     H27000   4.202   5.576   7.567 -0.4935 -1.1659 -0.0845
  196MOL0     H27001   4.152   5.695   7.688  1.4436 -0.9689  2.4845
  196MOL0     H27002   4.089   5.518   7.846 -0.1043  0.4856 -0.1955
  196MOL0     H27003   4.175   5.384   7.755  4.4859 -0.7769 -0.7276
  196MOL0     H27004   4.381   5.483   7.745  2.4023 -2.7266  2.0751
  196MOL0     H27005   4.326   5.620   7.845  0.7693  0.4993 -4.4521
  196MOL0     H27006   4.393   5.299   8.155 -0.6377  0.4821  0.4840
  196MOL0     H27007   4.707   5.184   8.282  0.7186 -0.6863  0.6391
  196MOL0     H27008   4.538   5.135   8.254 -0.1012  1.0742 -0.8098
  196MOL0     H27009   4.587   5.273   8.369 -0.0968 -0.0301  0.5630
  196MOL0     H27010   5.056   5.138   8.092  0.2600 -0.7065  0.0690
  196MOL0     H27011   5.269   5.072   8.218  1.6405  0.4732 -2.9740
  196MOL0     H27012   5.511   5.190   8.219 -2.1848  0.5438 -0.0210
  196MOL0     H27013   5.532   5.347   8.296 -0.8814  0.0872 -1.8203
  196MOL0     H27014   5.703   5.272   8.412  0.9199 -0.6173 -1.0612
  196MOL0     H27015   5.598   5.154   8.496 -0.1656  0.7336 -0.6019
  196MOL0     H27016   5.635   5.020   8.250 -1.2361 -1.1378  1.3626
  196MOL0     H27017   5.731   4.990   8.397 -0.3790 -2.1111 -2.1999
  196MOL0     H27018   5.806   5.213   8.216  1.9073  0.7385  1.6390
  196MOL0     H27019   5.832   5.044   8.160 -2.9154  0.0811 -0.9265
  196MOL0     H27020   6.028   5.159   8.284 -0.1130 -2.8617 -2.4756
  196MOL0     H27021   5.928   5.160   8.432 -4.2510 -1.1412  0.4737
  196MOL0     H27022   5.961   4.889   8.349  1.5023 -1.8243  0.7574
  196MOL0     H27023   6.029   4.983   8.488  1.2917  0.7674 -0.8145
  196MOL0     H27024   6.214   5.060   8.302 -1.6702  1.4689 -3.5814
  196MOL0     H27025   6.126   4.960   8.192 -0.9300  1.6490 -0.9159
  196MOL0     H27026   6.301   4.877   8.418 -0.5522  1.1585  0.5650
  196MOL0     H27027   6.303   4.813   8.256  0.5160 -3.1677  1.2735
  196MOL0     H27028   5.301   5.475   8.361 -0.2648  0.0561  0.3417
  196MOL0     H27029   5.104   5.532   8.218 -0.3751  0.3450  2.1874
  196MOL0     H27030   4.783   5.531   7.968 -0.8409  1.3019  0.7043
  196MOL0     H27031   4.567   5.559   7.853  4.3097 -0.0128 -0.0275
  196MOL0     H27032   3.004   5.369   7.715 -0.4577 -0.0449 -0.9331
  196MOL0     H27033   2.766   5.309   7.777  0.1276  2.2306  1.6562
  196MOL0     H27034   2.508   5.000   7.933 -1.3332  2.4693 -1.0456
  196MOL0     H27035   2.299   4.906   7.964  0.1609  0.3613 -0.7527
  196MOL0     H27036   2.080   4.973   8.350  0.0895 -0.8835 -0.7493
  196MOL0     H27037   1.998   5.013   8.200 -1.1832 -0.7223  1.4819
  196MOL0     H27038   1.942   4.782   8.145 -1.3631  0.5669 -0.0671
  196MOL0     H27039   1.865   4.811   8.298 -1.1881 -1.3210 -1.1557
  196MOL0     H27040   2.153   4.707   8.283  1.1307 -1.7461  0.4212
  196MOL0     H27041   2.050   4.721   8.433  3.7934 -2.2723  0.1795
  196MOL0     H27042   1.932   4.565   8.219  0.8748 -1.7625 -0.6111
  196MOL0     H27043   1.916   4.550   8.385 -0.3984  2.6143 -0.1296
  196MOL0     H27044   2.278   4.338   8.306 -0.6484 -0.8039 -0.2037
  196MOL0     H27045   2.279   5.041   8.356 -0.3768  0.6088 -1.4963
  196MOL0     H27046   2.542   5.285   8.345  0.0086 -0.8629  0.0668
  196MOL0     H27047   2.421   5.216   8.439  1.4031  2.2690  0.7171
  196MOL0     H27048   2.587   5.142   8.443 -0.5430 -0.1475  0.5315
  197MOL0     O27049   9.088   1.324   2.460 -0.1622 -0.8343 -0.0325
  197MOL0     C27050   9.002   1.305   2.368 -0.5031 -0.1220  0.1202
  197MOL0     O27051   9.022   1.337   2.239  0.4933 -0.9149  0.4435
  197MOL0     C27052   9.144   1.364   2.181 -0.4060  0.0304  0.6637
  197MOL0     C27053   9.152   1.475   2.092  0.1749  0.6943 -0.5601
  197MOL0     C27054   9.253   1.491   2.004 -0.5974  0.0357  0.5353
  197MOL0     C27055   9.355   1.398   2.006  0.5305  0.4139  0.9894
  197MOL0     O27056   9.457   1.422   1.917 -0.4182 -0.3382 -0.8288
  197MOL0     C27057   9.588   1.451   1.981 -0.2611 -0.8264 -0.1887
  197MOL0     C27058   9.697   1.468   1.875  0.0590  0.1564 -0.0881
  197MOL0     C27059   9.837   1.491   1.934 -0.1124  0.4799  0.0532
  197MOL0     C27060   9.935   1.526   1.822 -0.4433 -0.5583 -0.6455
  197MOL0     C27061  10.071   1.580   1.876  0.2776  0.6893  0.0755
  197MOL0     C27062  10.172   1.467   1.908 -0.1297  0.0255  0.2765
  197MOL0     C27063  10.307   1.517   1.969 -0.2747  0.6653 -0.1275
  197MOL0     C27064  10.408   1.400   1.976 -0.2329 -0.1033  0.6802
  197MOL0     N27065  10.532   1.447   2.034 -0.8191 -0.8591  0.3035
  197MOL0     C27066  10.566   1.474   2.163 -0.2774  0.6360 -0.6994
  197MOL0     C27067  10.688   1.529   2.158 -0.7866 -0.1649 -0.5264
  197MOL0     C27068  10.776   1.550   2.286  0.4115  0.0393 -0.1603
  197MOL0     C27069  10.922   1.560   2.246 -0.3999 -0.1716  1.0548
  197MOL0     C27070  11.000   1.606   2.379  0.2323 -0.3759 -0.7024
  197MOL0     C27071  11.147   1.599   2.357  0.0444  0.1751  0.3735
  197MOL0     O27072  11.207   1.661   2.469  0.1638  0.2585 -0.0634
  197MOL0     C27073  11.342   1.663   2.462 -0.6457  0.0535 -0.0768
  197MOL0     C27074  11.427   1.648   2.358 -0.4953  0.4649  0.2014
  197MOL0     C27075  11.568   1.664   2.355 -0.2787  0.7042 -0.1342
  197MOL0     C27076  11.658   1.631   2.233  0.2573  0.3813  0.4151
  197MOL0     C27077  11.622   1.719   2.478  0.2285  0.5366 -0.3449
  197MOL0     C27078  11.765   1.759   2.495  0.6561  0.3003  0.1009
  197MOL0     O27079  11.788   1.829   2.603  0.6934 -0.3126 -0.0018
  197MOL0     C27080  11.900   1.908   2.617 -0.6043  0.1412  0.7425
  197MOL0     C27081  11.940   1.927   2.748  0.4612 -0.5675  0.1078
  197MOL0     C27082  12.060   2.000   2.773  0.3091  0.2142 -0.2917
  197MOL0     C27083  12.136   2.047   2.670  0.2858 -0.5943  0.3866
  197MOL0     O27084  12.252   2.122   2.677  0.2660 -0.2199  0.3574
  197MOL0     C27085  12.352   2.066   2.765  0.2512  0.1593 -0.0836
  197MOL0     C27086  12.495   2.110   2.717  0.2300 -0.1762  0.6178
  197MOL0     C27087  12.589   2.107   2.843 -0.2951 -0.0768 -0.3106
  197MOL0     C27088  12.747   2.115   2.807  0.6103  0.1525  0.5068
  197MOL0     C27089  12.830   2.051   2.916  0.0376  0.6759 -1.1479
  197MOL0     C27090  12.979   2.040   2.889 -0.0736 -0.4785  0.1817
  197MOL0     C27091  13.003   1.935   2.790  0.8471 -0.3059 -0.0525
  197MOL0     C27092  13.154   1.906   2.763 -0.4686  0.6406  0.6289
  197MOL0    Cl27093  13.199   1.790   2.633 -0.1607  0.2351 -0.0382
  197MOL0     C27094  12.081   2.043   2.544 -0.0343 -0.6559  0.3279
  197MOL0     C27095  11.969   1.978   2.517 -0.0950  0.2830  0.8620
  197MOL0     O27096  11.850   1.712   2.419 -0.4755  0.1103  0.3934
  197MOL0     C27097  11.532   1.748   2.582 -0.1128  1.1044 -0.2749
  197MOL0     C27098  11.395   1.713   2.581 -0.7090  0.1812  0.1556
  197MOL0     N27099  10.728   1.536   2.027 -0.3756  0.0801 -0.1953
  197MOL0     N27100  10.644   1.478   1.949 -0.4672  0.2662 -0.6950
  197MOL0     C27101   9.359   1.288   2.093  0.1705 -0.1411 -0.1144
  197MOL0     C27102   9.256   1.273   2.185 -0.1706  0.0628  0.6935
  197MOL0     C27103   8.866   1.257   2.393 -0.8902  0.6020 -0.8445
  197MOL0     C27104   8.816   1.158   2.309 -0.8635  0.4244  0.6607
  197MOL0     C27105   8.695   1.091   2.340  0.0745  0.2204  0.1349
  197MOL0     C27106   8.605   1.139   2.439 -0.0030 -0.4278 -0.3328
  197MOL0     O27107   8.486   1.075   2.456  0.0535 -0.2695  0.6935
  197MOL0     C27108   8.382   1.120   2.544  0.0826  0.4327 -0.6777
  197MOL0     C27109   8.257   1.058   2.503  0.7072 -0.1933 -0.0286
  197MOL0     C27110   8.261   0.902   2.532 -0.3989 -0.5489  0.1586
  197MOL0     C27111   8.149   0.829   2.455 -0.5823 -0.5701  0.3305
  197MOL0     C27112   8.024   0.875   2.522  0.5582  0.0075 -0.5120
  197MOL0     C27113   7.921   0.907   2.581 -0.5117 -0.1193 -0.1520
  197MOL0     C27114   8.661   1.242   2.525  0.2400 -0.5144 -0.1311
  197MOL0     C27115   8.791   1.295   2.506  0.6014  0.0458  0.0421
  197MOL0     C27116   8.837   1.411   2.588  0.0159  0.2295  0.0544
  197MOL0     H27117   9.058   1.529   2.081 -2.5215 -2.9858  1.7266
  197MOL0     H27118   9.256   1.575   1.936  2.0287 -1.3592 -1.2440
  197MOL0     H27119   9.617   1.377   2.056  2.3795  1.9187  1.7074
  197MOL0     H27120   9.582   1.544   2.038  0.2903 -2.9623  3.7147
  197MOL0     H27121   9.711   1.381   1.811  2.0216 -0.3380  0.9289
  197MOL0     H27122   9.674   1.561   1.821  2.6902  0.1523 -1.3636
  197MOL0     H27123   9.817   1.580   1.994  0.3854  1.5421 -1.2944
  197MOL0     H27124   9.872   1.406   1.994 -1.5242  0.2085  0.5243
  197MOL0     H27125   9.954   1.434   1.766  0.5253  0.1728 -1.5435
  197MOL0     H27126   9.892   1.610   1.767  1.7045  2.2773  1.7027
  197MOL0     H27127  10.053   1.629   1.972 -0.4051  0.9420 -0.1787
  197MOL0     H27128  10.123   1.645   1.805  1.2229 -0.1678 -0.0501
  197MOL0     H27129  10.133   1.390   1.976 -0.4386 -0.3263 -0.2939
  197MOL0     H27130  10.187   1.402   1.821 -0.9637 -0.6517  0.6137
  197MOL0     H27131  10.291   1.551   2.072 -0.8148 -1.9502  0.7469
  197MOL0     H27132  10.346   1.601   1.911  2.3210 -0.9009 -0.8624
  197MOL0     H27133  10.369   1.317   2.036  1.0991 -0.3990  1.1717
  197MOL0     H27134  10.433   1.363   1.876  0.4674  1.1160  0.3903
  197MOL0     H27135  10.510   1.442   2.251  2.6135  1.8525  1.7707
  197MOL0     H27136  10.757   1.462   2.349  4.0236  0.5590  1.9091
  197MOL0     H27137  10.754   1.639   2.345  0.5885 -0.4773  0.7060
  197MOL0     H27138  10.958   1.463   2.210  1.0278  0.8458 -0.4008
  197MOL0     H27139  10.938   1.643   2.177  2.1181  0.5443  2.3742
  197MOL0     H27140  10.969   1.704   2.418 -0.2064 -0.9615  0.4692
  197MOL0     H27141  10.969   1.540   2.461  1.7995 -2.0755 -1.4272
  197MOL0     H27142  11.181   1.499   2.326 -0.7623  0.3802 -1.2568
  197MOL0     H27143  11.171   1.668   2.276 -0.5379  0.1505  0.1817
  197MOL0     H27144  11.381   1.613   2.266  2.2973  0.3769 -1.2686
  197MOL0     H27145  11.745   1.568   2.253  2.7191  2.4323 -2.6840
  197MOL0     H27146  11.679   1.729   2.189  2.3956  1.2561  3.1622
  197MOL0     H27147  11.599   1.581   2.155  0.0683 -0.8979  1.3407
  197MOL0     H27148  11.880   1.904   2.836 -2.3880 -1.0799 -1.8473
  197MOL0     H27149  12.088   2.007   2.878 -1.5843 -0.0749  0.2781
  197MOL0     H27150  12.319   2.086   2.867 -0.8145  0.5566 -0.4910
  197MOL0     H27151  12.363   1.957   2.768  1.8044  0.3014  2.2410
  197MOL0     H27152  12.524   2.036   2.642  1.0921 -0.9767  1.7277
  197MOL0     H27153  12.483   2.208   2.670 -0.7490 -1.5247 -2.2450
  197MOL0     H27154  12.577   2.021   2.909  0.9328  0.2611  0.3947
  197MOL0     H27155  12.551   2.192   2.901  0.4301 -0.9674  1.5618
  197MOL0     H27156  12.782   2.216   2.788 -0.0716  0.1924 -0.6586
  197MOL0     H27157  12.769   2.052   2.720  0.2443 -0.6547  0.9868
  197MOL0     H27158  12.828   2.113   3.005  1.4886  0.3900 -0.8959
  197MOL0     H27159  12.798   1.948   2.937  2.6494  0.3771  2.1079
  197MOL0     H27160  13.030   2.023   2.984 -0.7313  0.6876  0.7688
  197MOL0     H27161  13.011   2.140   2.859 -1.1005  1.3334  4.4392
  197MOL0     H27162  12.952   1.956   2.696 -1.2109 -0.9771  0.8342
  197MOL0     H27163  12.954   1.848   2.836 -0.3863  1.0699  1.3880
  197MOL0     H27164  13.210   1.875   2.851  3.4706  3.4796 -0.5591
  197MOL0     H27165  13.198   2.002   2.734  0.7595 -0.4461 -1.3554
  197MOL0     H27166  12.125   2.088   2.456 -0.5074  0.6805  0.7613
  197MOL0     H27167  11.936   1.976   2.413  2.2138  2.4877 -0.0154
  197MOL0     H27168  11.561   1.800   2.673 -1.2808 -0.0483  0.8060
  197MOL0     H27169  11.336   1.730   2.671  1.6883 -0.6637  1.9845
  197MOL0     H27170   9.432   1.209   2.074 -1.4959 -1.1064 -3.2834
  197MOL0     H27171   9.256   1.183   2.247  0.2292 -1.0462 -0.8677
  197MOL0     H27172   8.871   1.113   2.227 -1.3122 -2.2051  1.6723
  197MOL0     H27173   8.650   1.008   2.287 -1.7054  0.0985  1.7132
  197MOL0     H27174   8.412   1.088   2.645  0.5546  1.3603 -0.5105
  197MOL0     H27175   8.362   1.226   2.528 -1.3240  0.0349 -1.7193
  197MOL0     H27176   8.234   1.089   2.400 -0.1757  1.2235  0.5546
  197MOL0     H27177   8.176   1.111   2.554  1.1936 -0.8367  1.4560
  197MOL0     H27178   8.358   0.852   2.521  0.8596  1.8368 -0.4455
  197MOL0     H27179   8.241   0.878   2.637  1.2015 -4.2413 -0.2271
  197MOL0     H27180   8.154   0.720   2.466  0.7866 -0.3504  2.6997
  197MOL0     H27181   8.147   0.848   2.347 -0.3336 -3.1982 -0.1986
  197MOL0     H27182   7.828   0.894   2.632  0.0697 -0.7330  0.7834
  197MOL0     H27183   8.599   1.274   2.607  0.1468 -1.4644  0.1841
  197MOL0     H27184   8.767   1.444   2.665  0.8267 -2.4811  2.1279
  197MOL0     H27185   8.927   1.382   2.643 -1.7675 -3.7867  1.2924
  197MOL0     H27186   8.852   1.500   2.527 -0.4148 -0.2585 -0.7852
  198MOL0     O27187   7.285  10.247   5.901 -0.9537 -0.4337  0.6632
  198MOL0     C27188   7.371  10.220   5.991  0.2192  0.6178 -0.0854
  198MOL0     O27189   7.458  10.109   5.993 -0.2378  0.2839 -0.3255
  198MOL0     C27190   7.416  10.003   5.916 -0.2801  0.1824 -0.5447
  198MOL0     C27191   7.450  10.005   5.782  0.2623  0.8283 -0.2358
  198MOL0     C27192   7.431   9.890   5.703  0.4024  0.4042 -0.2759
  198MOL0     C27193   7.392   9.768   5.754 -0.5549  0.2620 -0.5462
  198MOL0     O27194   7.400   9.648   5.681 -0.0872  0.0344 -0.1340
  198MOL0     C27195   7.415   9.669   5.536 -0.7383  0.1008 -0.7291
  198MOL0     C27196   7.407   9.535   5.462 -0.4664 -0.4568 -0.1013
  198MOL0     C27197   7.265   9.485   5.462 -0.1749 -0.8502  0.6305
  198MOL0     C27198   7.277   9.338   5.422 -0.9534  0.9214 -0.1564
  198MOL0     C27199   7.141   9.282   5.422  0.5315  0.0768  0.6605
  198MOL0     C27200   7.142   9.128   5.370 -0.1457  0.1615  0.2843
  198MOL0     C27201   7.008   9.068   5.394  0.1143  0.3920  0.6574
  198MOL0     C27202   6.984   8.937   5.313  0.0874 -0.3819 -0.6877
  198MOL0     N27203   7.094   8.842   5.320  0.3101  0.8941 -0.3213
  198MOL0     C27204   7.108   8.774   5.438 -0.6829  0.4524  0.3422
  198MOL0     C27205   7.197   8.672   5.408 -0.5152 -0.3485 -0.5996
  198MOL0     C27206   7.271   8.587   5.507 -0.0378 -0.2715 -0.0875
  198MOL0     C27207   7.220   8.442   5.508 -0.7786  0.7463 -0.1966
  198MOL0     C27208   7.305   8.353   5.597  0.0085  0.6972  0.0563
  198MOL0     C27209   7.455   8.355   5.575  0.4844 -1.0236  0.4004
  198MOL0     O27210   7.524   8.461   5.655 -0.2455 -0.1317  0.0418
  198MOL0     C27211   7.649   8.506   5.634  0.3814 -0.3662 -0.7077
  198MOL0     C27212   7.693   8.613   5.712 -0.1980  0.7523  0.6187
  198MOL0     C27213   7.815   8.675   5.694 -1.0651  0.6952  0.0532
  198MOL0     C27214   7.847   8.797   5.779 -0.0809  0.3462 -0.9521
  198MOL0     C27215   7.897   8.631   5.578  0.4405 -0.5783  0.1931
  198MOL0     C27216   8.023   8.691   5.528  0.1974 -0.1139 -0.6710
  198MOL0     O27217   8.066   8.633   5.407  0.4372 -0.5324  0.2104
  198MOL0     C27218   8.190   8.672   5.354  0.1016  0.1868 -0.1434
  198MOL0     C27219   8.275   8.572   5.309  0.1890  0.4080 -0.0475
  198MOL0     C27220   8.395   8.596   5.242 -0.1721 -0.4549  0.8119
  198MOL0     C27221   8.445   8.731   5.230 -0.3888  0.2499  0.7666
  198MOL0     O27222   8.571   8.765   5.176  0.4411 -0.2558 -0.3367
  198MOL0     C27223   8.615   8.692   5.062  0.3917 -0.1458 -0.1462
  198MOL0     C27224   8.663   8.803   4.966  0.4161  0.3470 -0.3297
  198MOL0     C27225   8.540   8.872   4.902 -0.0560 -0.5944 -0.0935
  198MOL0     C27226   8.561   8.901   4.747  0.1238  0.2282 -0.0384
  198MOL0     C27227   8.456   9.014   4.706 -0.0531 -0.2389 -0.3584
  198MOL0     C27228   8.426   9.004   4.550  0.1727  0.2247  0.3492
  198MOL0     C27229   8.542   9.044   4.459 -0.3986 -0.2625 -0.3712
  198MOL0     C27230   8.517   8.992   4.318  0.5942 -0.2417  1.1924
  198MOL0    Cl27231   8.355   9.038   4.239  0.1104 -0.0876 -0.3408
  198MOL0     C27232   8.369   8.827   5.291 -0.0004 -0.0943 -0.0644
  198MOL0     C27233   8.234   8.800   5.335  0.1571  0.1518 -0.8096
  198MOL0     O27234   8.077   8.791   5.581  0.0028 -0.1076  0.3439
  198MOL0     C27235   7.849   8.516   5.506 -0.5338 -0.3640  0.1732
  198MOL0     C27236   7.729   8.453   5.542 -0.0736 -0.3032 -0.2926
  198MOL0     N27237   7.221   8.676   5.274 -0.1054 -0.1338  0.5826
  198MOL0     N27238   7.166   8.782   5.230  0.5032 -0.3894  0.3872
  198MOL0     C27239   7.348   9.771   5.889 -0.0546 -0.2730  0.5573
  198MOL0     C27240   7.358   9.886   5.967 -0.9601  0.1980  0.0563
  198MOL0     C27241   7.377  10.323   6.104  0.3757  0.6923  0.7294
  198MOL0     C27242   7.251  10.374   6.147  0.4020 -0.3768  0.1277
  198MOL0     C27243   7.247  10.468   6.246 -0.7641 -0.7526  0.4226
  198MOL0     C27244   7.372  10.509   6.314  0.5414 -0.2828  0.1434
  198MOL0     O27245   7.354  10.585   6.423 -0.0857 -0.1992 -0.3835
  198MOL0     C27246   7.459  10.658   6.491 -0.3376 -0.6000 -0.3583
  198MOL0     C27247   7.521  10.590   6.612  0.1804  0.4005  1.1173
  198MOL0     C27248   7.599  10.689   6.699  1.2220  0.1085  0.1547
  198MOL0     C27249   7.734  10.722   6.642 -0.6061  0.3718 -0.7033
  198MOL0     C27250   7.821  10.809   6.733 -0.0265  0.2551  0.9733
  198MOL0     C27251   7.899  10.874   6.799 -0.2108  0.3610  0.1611
  198MOL0     C27252   7.501  10.459   6.267 -0.2637 -0.5719 -0.5838
  198MOL0     C27253   7.501  10.371   6.159 -0.2859 -0.0007  0.1205
  198MOL0     C27254   7.630  10.327   6.096 -0.5970 -0.3425 -0.2355
  198MOL0     H27255   7.492  10.093   5.734  0.5417  1.6731  1.5082
  198MOL0     H27256   7.462   9.895   5.599 -0.7331  0.4599 -0.6147
  198MOL0     H27257   7.502   9.730   5.510 -1.9605  1.9775 -0.6180
  198MOL0     H27258   7.325   9.720   5.501 -0.8418  1.8632  1.8190
  198MOL0     H27259   7.432   9.542   5.356 -0.6748  0.9163 -0.0708
  198MOL0     H27260   7.486   9.475   5.507 -0.0989  1.5370  2.0922
  198MOL0     H27261   7.236   9.498   5.567  1.6149 -1.7326  1.2792
  198MOL0     H27262   7.198   9.540   5.395 -2.3972 -1.5538  2.1559
  198MOL0     H27263   7.330   9.315   5.329  0.1952  3.8017 -0.3231
  198MOL0     H27264   7.337   9.284   5.496 -0.8948  0.2035 -0.7128
  198MOL0     H27265   7.080   9.341   5.353 -0.9210 -2.8010 -0.6978
  198MOL0     H27266   7.093   9.286   5.520 -0.7508 -0.5955  0.0766
  198MOL0     H27267   7.176   9.114   5.267 -2.6485  0.3823 -0.6287
  198MOL0     H27268   7.209   9.065   5.430 -3.5297 -4.5446 -0.3480
  198MOL0     H27269   6.927   9.134   5.363 -0.8941 -0.6563  1.0054
  198MOL0     H27270   6.993   9.050   5.501 -0.5142 -0.3048  0.4631
  198MOL0     H27271   6.892   8.899   5.357 -1.3451  1.6587 -1.7126
  198MOL0     H27272   6.965   8.976   5.212 -3.7298  0.4062  0.1992
  198MOL0     H27273   7.072   8.804   5.536  1.6589  1.7305  0.8693
  198MOL0     H27274   7.249   8.635   5.603 -1.6685  1.0572 -1.0712
  198MOL0     H27275   7.378   8.596   5.488 -0.1087 -1.7067 -1.4231
  198MOL0     H27276   7.117   8.445   5.543 -0.0395  0.1115  2.2721
  198MOL0     H27277   7.217   8.394   5.410 -1.2129 -1.9140  1.0325
  198MOL0     H27278   7.289   8.379   5.702  2.5129  0.4652  0.5652
  198MOL0     H27279   7.274   8.249   5.582 -0.4660  0.8092  0.2466
  198MOL0     H27280   7.490   8.255   5.603  0.0548 -1.4494 -0.5593
  198MOL0     H27281   7.465   8.377   5.468 -2.1263  0.7951  0.4364
  198MOL0     H27282   7.622   8.643   5.789 -0.8706  0.2598  0.2065
  198MOL0     H27283   7.757   8.814   5.839  0.6847  0.8725  0.0698
  198MOL0     H27284   7.866   8.889   5.724 -0.3803  1.0782  0.1330
  198MOL0     H27285   7.933   8.774   5.842 -0.8889 -3.3383 -0.9635
  198MOL0     H27286   8.240   8.470   5.322 -1.5261  1.0240  0.4488
  198MOL0     H27287   8.457   8.522   5.193 -0.8962  1.3951 -3.3120
  198MOL0     H27288   8.701   8.626   5.078 -0.3366 -0.7383  1.5657
  198MOL0     H27289   8.535   8.624   5.032 -0.0256 -0.0645  0.7547
  198MOL0     H27290   8.726   8.873   5.022 -1.6719  1.9427  0.1549
  198MOL0     H27291   8.722   8.753   4.888  1.0942 -0.9148  0.9465
  198MOL0     H27292   8.519   8.963   4.957  1.6571 -0.7734  0.9604
  198MOL0     H27293   8.455   8.804   4.904  0.5820 -1.4886 -1.4046
  198MOL0     H27294   8.543   8.818   4.678  0.3863  2.8572 -3.5832
  198MOL0     H27295   8.662   8.939   4.731  0.0553  1.3917  1.9091
  198MOL0     H27296   8.367   8.993   4.766  0.4149 -0.5225  0.2403
  198MOL0     H27297   8.480   9.118   4.730 -0.8022 -0.2598  0.5029
  198MOL0     H27298   8.341   9.069   4.531  0.6363  0.5781 -0.6041
  198MOL0     H27299   8.395   8.906   4.513 -2.0370 -0.1699  2.9433
  198MOL0     H27300   8.633   9.000   4.501 -0.4809 -1.7726 -1.6658
  198MOL0     H27301   8.559   9.152   4.451  1.1503 -0.5314 -1.0578
  198MOL0     H27302   8.546   8.887   4.314  1.0317 -0.1468 -3.3172
  198MOL0     H27303   8.589   9.034   4.247 -1.7888  0.5489 -0.9212
  198MOL0     H27304   8.412   8.926   5.299  0.0973  0.2220 -3.2452
  198MOL0     H27305   8.182   8.892   5.360  0.6557  0.2881 -0.2496
  198MOL0     H27306   7.907   8.474   5.424  2.8576  0.6563  1.8345
  198MOL0     H27307   7.691   8.364   5.493  0.2026 -1.3262  1.2715
  198MOL0     H27308   7.302   9.680   5.927  0.8081 -1.1672 -0.4770
  198MOL0     H27309   7.325   9.882   6.070 -0.4197 -0.9994  0.2044
  198MOL0     H27310   7.159  10.349   6.093  0.5674  0.1957 -0.4366
  198MOL0     H27311   7.148  10.502   6.276 -0.2782  0.9663  0.1648
  198MOL0     H27312   7.527  10.695   6.414  0.4526  0.5674  0.8480
  198MOL0     H27313   7.404  10.750   6.514 -0.9274 -0.2505 -2.8470
  198MOL0     H27314   7.579  10.506   6.574  1.3481  1.4852  0.4352
  198MOL0     H27315   7.430  10.553   6.662 -0.1139 -1.5595 -0.7489
  198MOL0     H27316   7.555  10.788   6.711  1.1644 -0.0641  1.6397
  198MOL0     H27317   7.590  10.638   6.796 -2.3936  0.8717  0.3643
  198MOL0     H27318   7.725  10.759   6.540 -1.4819  1.7566 -0.1416
  198MOL0     H27319   7.788  10.627   6.632  1.1643  1.4291 -1.7064
  198MOL0     H27320   7.960  10.942   6.854 -0.4652  1.0327 -0.3782
  198MOL0     H27321   7.598  10.487   6.307 -0.5825 -0.0121 -0.1935
  198MOL0     H27322   7.674  10.238   6.142 -1.1367  0.2183  1.4456
  198MOL0     H27323   7.625  10.302   5.990  0.3669 -0.4662 -0.2579
  198MOL0     H27324   7.697  10.412   6.089  0.0564 -0.7792  0.5246
  199MOL0     O27325   5.088   7.322  10.477  0.3165 -0.0089  0.1492
  199MOL0     C27326   5.081   7.258  10.375  0.3588  0.4442  0.2667
  199MOL0     O27327   5.160   7.276  10.265 -0.4789  0.5666  0.0657
  199MOL0     C27328   5.235   7.390  10.252  0.5180 -0.3988  0.0923
  199MOL0     C27329   5.165   7.516  10.246 -0.5883  0.0700 -0.4235
  199MOL0     C27330   5.231   7.638  10.231 -0.2236  0.1316 -0.1566
  199MOL0     C27331   5.369   7.635  10.215 -1.3023  0.2833  0.7717
  199MOL0     O27332   5.451   7.746  10.188  0.5088 -0.0880  0.1532
  199MOL0     C27333   5.416   7.880  10.204 -0.7424 -0.5808 -0.0547
  199MOL0     C27334   5.340   7.945  10.075 -0.4943  0.4667 -0.7843
  199MOL0     C27335   5.406   7.920   9.940  0.2578  0.0147 -0.3458
  199MOL0     C27336   5.557   7.960   9.929  0.4449  0.2041 -0.1563
  199MOL0     C27337   5.642   7.901   9.820  1.4823  0.6417 -0.0463
  199MOL0     C27338   5.601   7.944   9.676 -0.1373 -0.5741  0.2329
  199MOL0     C27339   5.698   7.881   9.579  0.6794 -0.6248  0.4465
  199MOL0     C27340   5.689   7.945   9.441 -0.2770  0.7904 -0.5306
  199MOL0     N27341   5.810   7.907   9.363  0.3981 -0.1807  0.3902
  199MOL0     C27342   5.928   7.974   9.360 -0.4890  0.0412  0.4829
  199MOL0     C27343   6.003   7.899   9.277  0.0539  0.4979 -0.0047
  199MOL0     C27344   6.133   7.965   9.224  0.6217 -0.4966  0.5784
  199MOL0     C27345   6.097   8.095   9.133  0.4176  0.1730  0.1571
  199MOL0     C27346   6.212   8.145   9.051 -0.5989  0.6055 -1.1314
  199MOL0     C27347   6.332   8.207   9.124  0.4140  0.4377 -1.6829
  199MOL0     O27348   6.412   8.113   9.198  0.2061  0.1145  0.3153
  199MOL0     C27349   6.537   8.151   9.236  0.2342 -0.4068  0.0040
  199MOL0     C27350   6.573   8.119   9.363 -0.0995  1.2693  0.7664
  199MOL0     C27351   6.693   8.151   9.420  0.5980 -0.3264  0.2223
  199MOL0     C27352   6.709   8.087   9.556  0.4054 -0.5858 -0.4824
  199MOL0     C27353   6.786   8.228   9.350  0.5856  0.3276  0.6672
  199MOL0     C27354   6.917   8.275   9.402 -1.3197 -0.1519 -0.5513
  199MOL0     O27355   7.013   8.353   9.323  0.2161  0.1103 -0.3500
  199MOL0     C27356   7.127   8.391   9.380 -0.6304  0.5712 -0.6467
  199MOL0     C27357   7.223   8.295   9.410 -0.1192  0.5857 -0.3019
  199MOL0     C27358   7.353   8.343   9.443  0.6817  0.4343 -0.7342
  199MOL0     C27359   7.373   8.483   9.455  0.1838  0.3927 -0.1693
  199MOL0     O27360   7.495   8.531   9.477  0.2156  0.0694  0.0709
  199MOL0     C27361   7.612   8.447   9.475  0.0684  0.0885  0.0246
  199MOL0     C27362   7.712   8.525   9.542  0.0591 -0.0257  1.1314
  199MOL0     C27363   7.693   8.512   9.691  0.5307  0.0572 -1.3903
  199MOL0     C27364   7.759   8.624   9.777  0.4760  0.2841 -0.1558
  199MOL0     C27365   7.920   8.639   9.760  0.2771 -0.5260  0.5272
  199MOL0     C27366   8.001   8.519   9.809  0.2126 -0.5953  0.2800
  199MOL0     C27367   8.146   8.525   9.763  1.1178 -0.0609 -0.6954
  199MOL0     C27368   8.237   8.594   9.860 -0.1762 -0.4678  0.1855
  199MOL0    Cl27369   8.310   8.463   9.970 -0.2445 -0.0574  0.3198
  199MOL0     C27370   7.272   8.577   9.443  0.4865  1.2864  0.1090
  199MOL0     C27371   7.151   8.524   9.397  0.0933 -0.0833 -0.2689
  199MOL0     O27372   6.945   8.259   9.524 -0.1656 -0.6886  0.3742
  199MOL0     C27373   6.747   8.269   9.217  0.4469  0.0752  0.0435
  199MOL0     C27374   6.622   8.232   9.159  0.6251 -0.0037  0.0961
  199MOL0     N27375   5.934   7.790   9.227 -0.3816 -0.3702 -0.1074
  199MOL0     N27376   5.820   7.798   9.281 -0.5746  0.3187  0.4529
  199MOL0     C27377   5.440   7.513  10.223  0.6074 -0.2523  0.2577
  199MOL0     C27378   5.370   7.392  10.240 -0.6704 -0.7571  0.4113
  199MOL0     C27379   4.989   7.144  10.363  1.1279 -0.0994  0.1073
  199MOL0     C27380   4.929   7.096  10.486 -0.4778 -0.2973  0.1756
  199MOL0     C27381   4.837   6.992  10.479 -1.2222 -0.7609 -0.4441
  199MOL0     C27382   4.795   6.942  10.356 -0.5214  0.7514 -0.1490
  199MOL0     O27383   4.703   6.835  10.344  0.2679  0.0457 -0.1520
  199MOL0     C27384   4.596   6.818  10.450  0.4754  0.6250  0.2708
  199MOL0     C27385   4.485   6.922  10.436  0.1859 -0.4995  0.4628
  199MOL0     C27386   4.414   6.914  10.303  0.2813 -0.4617 -0.3121
  199MOL0     C27387   4.290   6.998  10.287 -0.1651  0.3930  0.6946
  199MOL0     C27388   4.193   6.964  10.380 -0.3235  0.7912  0.3761
  199MOL0     C27389   4.112   6.924  10.458 -0.0560 -0.5105 -0.3637
  199MOL0     C27390   4.846   6.998  10.234 -0.0200 -0.8981 -0.1046
  199MOL0     C27391   4.943   7.093  10.233  0.1615  0.5938  0.2146
  199MOL0     C27392   4.983   7.137  10.090  0.8424  0.9231 -0.7394
  199MOL0     H27393   5.057   7.515  10.257 -0.7300 -2.3785 -1.3363
  199MOL0     H27394   5.186   7.736  10.238  0.7565  0.5731  0.1103
  199MOL0     H27395   5.509   7.933  10.225 -1.6499  0.2029  2.2816
  199MOL0     H27396   5.360   7.895  10.297  1.3394 -1.8360  1.5067
  199MOL0     H27397   5.235   7.914  10.073 -0.8685  1.7436 -1.7543
  199MOL0     H27398   5.331   8.053  10.091 -1.0075  0.3707 -0.3880
  199MOL0     H27399   5.388   7.818   9.906  1.4879 -0.2533 -0.2259
  199MOL0     H27400   5.372   7.984   9.858 -0.3102 -0.8548 -0.8068
  199MOL0     H27401   5.551   8.069   9.918 -2.5091  0.2405  0.9122
  199MOL0     H27402   5.611   7.926  10.017  2.1905 -0.5178 -1.4382
  199MOL0     H27403   5.633   7.792   9.828 -0.8829  0.8031  0.0108
  199MOL0     H27404   5.746   7.932   9.832  1.8910  1.4286 -4.2145
  199MOL0     H27405   5.498   7.916   9.649 -0.4414  0.4854  0.2099
  199MOL0     H27406   5.621   8.051   9.667 -0.7812 -0.6021 -2.2235
  199MOL0     H27407   5.689   7.773   9.567  0.7551 -0.5966  0.1244
  199MOL0     H27408   5.801   7.897   9.612  0.9209  0.5898 -0.8013
  199MOL0     H27409   5.600   7.912   9.388  1.2215 -0.6815 -2.2729
  199MOL0     H27410   5.678   8.054   9.449  1.2473  0.9121  0.4722
  199MOL0     H27411   5.956   8.066   9.412 -0.4659 -0.7737  1.9740
  199MOL0     H27412   6.180   7.884   9.167  0.6842 -0.4303  0.5377
  199MOL0     H27413   6.199   7.985   9.309  0.4581 -1.2420  0.8896
  199MOL0     H27414   6.011   8.078   9.069  0.4498  2.1029 -0.4635
  199MOL0     H27415   6.070   8.173   9.204  1.1828  0.6762 -0.0881
  199MOL0     H27416   6.255   8.071   8.982  0.4502 -3.5407  3.4083
  199MOL0     H27417   6.168   8.226   8.993 -0.0474  0.4446 -1.7899
  199MOL0     H27418   6.383   8.276   9.057  3.1810 -0.4302 -0.6301
  199MOL0     H27419   6.298   8.276   9.202  0.2552  1.1385 -2.3585
  199MOL0     H27420   6.488   8.070   9.410 -0.1393 -1.0471 -1.5433
  199MOL0     H27421   6.796   8.021   9.551  0.7348 -0.2291  0.4094
  199MOL0     H27422   6.627   8.025   9.593 -0.9424  1.3495 -0.0801
  199MOL0     H27423   6.728   8.167   9.628  0.5572 -1.9903  1.1134
  199MOL0     H27424   7.209   8.188   9.401 -0.1039  0.7624 -5.1983
  199MOL0     H27425   7.427   8.268   9.467  0.4474  0.5341  0.3317
  199MOL0     H27426   7.606   8.352   9.527 -0.4752 -0.5610 -1.1851
  199MOL0     H27427   7.641   8.418   9.373 -0.9346  0.7856 -0.4861
  199MOL0     H27428   7.814   8.491   9.520 -0.0325  0.8321 -0.7622
  199MOL0     H27429   7.706   8.632   9.521  0.6435  0.1538  1.8215
  199MOL0     H27430   7.730   8.413   9.719 -1.3560 -0.8483 -1.9601
  199MOL0     H27431   7.589   8.526   9.723  0.6288 -0.3962 -0.8502
  199MOL0     H27432   7.741   8.583   9.877  1.9717 -2.3643 -0.8608
  199MOL0     H27433   7.713   8.720   9.754  0.0856  0.3499  0.8706
  199MOL0     H27434   7.936   8.665   9.655 -1.3342  1.1923  0.6477
  199MOL0     H27435   7.947   8.729   9.815 -2.1807 -1.5852  3.7593
  199MOL0     H27436   7.954   8.423   9.786  0.3819 -0.9663  1.4193
  199MOL0     H27437   8.006   8.522   9.918 -1.0573 -0.5066  0.3523
  199MOL0     H27438   8.158   8.577   9.667  1.2488 -1.3007 -1.3768
  199MOL0     H27439   8.180   8.423   9.743 -1.8541 -1.5521  1.0912
  199MOL0     H27440   8.195   8.680   9.913  2.3775  1.3798 -0.5774
  199MOL0     H27441   8.323   8.628   9.802  0.0210  1.2820  1.4465
  199MOL0     H27442   7.285   8.682   9.466 -0.7081  2.2172 -2.9417
  199MOL0     H27443   7.067   8.591   9.382  0.1448  1.2334  3.9593
  199MOL0     H27444   6.817   8.341   9.176 -0.5328  0.3509 -1.2367
  199MOL0     H27445   6.598   8.251   9.054  1.0558  1.4426  0.2305
  199MOL0     H27446   5.548   7.509  10.215  0.7608 -1.4641  2.3440
  199MOL0     H27447   5.428   7.301  10.241 -0.0078 -0.3321  1.0186
  199MOL0     H27448   4.944   7.137  10.585  1.0394 -3.4383  1.3676
  199MOL0     H27449   4.800   6.951  10.573 -0.2358 -3.5360 -1.1866
  199MOL0     H27450   4.549   6.720  10.441  0.1490  0.8272 -0.2533
  199MOL0     H27451   4.642   6.816  10.549 -0.7042  0.1853  0.8198
  199MOL0     H27452   4.515   7.025  10.454  1.9225 -0.8356 -0.3014
  199MOL0     H27453   4.408   6.911  10.513 -0.8286 -0.5344 -0.5270
  199MOL0     H27454   4.478   6.945  10.219 -2.0012  2.9296 -1.0182
  199MOL0     H27455   4.384   6.810  10.292 -1.3485 -0.2830  1.6975
  199MOL0     H27456   4.260   6.993  10.182  0.4850 -0.7051  0.5456
  199MOL0     H27457   4.302   7.103  10.316  0.3845  0.2631  0.9591
  199MOL0     H27458   4.042   6.905  10.537 -0.5660  0.9021 -0.4493
  199MOL0     H27459   4.805   6.959  10.141 -0.0744 -2.1227  0.4155
  199MOL0     H27460   5.086   7.107  10.070  0.5408 -2.2865  1.7852
  199MOL0     H27461   4.925   7.095  10.007 -3.8431  1.1998  2.0476
  199MOL0     H27462   4.969   7.246  10.086  0.2770  0.8711 -0.3316
  200MOL0     O27463   2.801   6.992   8.083  0.1834  0.2330  0.3293
  200MOL0     C27464   2.799   6.908   8.175 -0.4552 -0.3945  1.0119
  200MOL0     O27465   2.908   6.877   8.251 -0.0665  0.1010  0.6532
  200MOL0     C27466   3.030   6.928   8.210  0.7041  0.3403  0.5414
  200MOL0     C27467   3.066   7.061   8.198 -0.2780 -0.1285 -0.6869
  200MOL0     C27468   3.201   7.089   8.177 -0.5132 -0.0711  0.4144
  200MOL0     C27469   3.301   6.988   8.168  0.4513  0.0894  0.2758
  200MOL0     O27470   3.435   7.013   8.167 -0.1010 -0.6206  0.0912
  200MOL0     C27471   3.487   7.132   8.100 -0.4937  0.5761  0.1594
  200MOL0     C27472   3.639   7.138   8.103  0.0010  0.0145  0.0201
  200MOL0     C27473   3.691   7.284   8.078  0.2815 -0.1369  1.0943
  200MOL0     C27474   3.838   7.304   8.076 -0.2211  0.1291  0.2916
  200MOL0     C27475   3.879   7.446   8.046  0.5028 -0.3818 -0.8972
  200MOL0     C27476   4.024   7.468   8.071 -0.0363 -0.0204  0.2400
  200MOL0     C27477   4.077   7.580   7.983 -0.4657  0.3173 -0.2242
  200MOL0     C27478   4.138   7.528   7.851  0.6723 -0.1798 -0.3326
  200MOL0     N27479   4.208   7.633   7.785  0.2795  0.1893  0.3846
  200MOL0     C27480   4.163   7.734   7.695 -0.2787  0.5106 -0.8192
  200MOL0     C27481   4.275   7.805   7.665 -0.7225 -0.6035 -0.2357
  200MOL0     C27482   4.292   7.941   7.601  0.4878 -0.0009 -0.5470
  200MOL0     C27483   4.417   7.940   7.503 -1.2690 -0.5700 -0.0258
  200MOL0     C27484   4.386   7.853   7.384  0.2279 -0.2542  0.2466
  200MOL0     C27485   4.466   7.895   7.253 -0.2368  1.3369  0.1751
  200MOL0     O27486   4.428   8.023   7.208 -0.0201 -0.9489  0.6669
  200MOL0     C27487   4.478   8.041   7.082 -0.4467 -0.9825  0.2032
  200MOL0     C27488   4.616   8.058   7.061 -0.5418  0.2611  0.5495
  200MOL0     C27489   4.672   8.061   6.929 -0.2811 -0.0846  0.4137
  200MOL0     C27490   4.822   8.071   6.906 -0.7428  0.2285  0.5854
  200MOL0     C27491   4.578   8.051   6.816 -0.1283 -0.2782 -0.1652
  200MOL0     C27492   4.619   8.056   6.666  0.4167  0.0837 -0.0775
  200MOL0     O27493   4.739   8.107   6.630  0.1102  0.4895 -0.4127
  200MOL0     C27494   4.778   8.098   6.500 -0.5207 -0.2367 -0.8024
  200MOL0     C27495   4.702   8.136   6.391 -0.0207 -0.0766  0.0406
  200MOL0     C27496   4.754   8.140   6.263  0.4813 -0.2461  0.1541
  200MOL0     C27497   4.883   8.101   6.245 -0.6349 -0.3168 -0.4666
  200MOL0     O27498   4.939   8.091   6.122  0.1241 -0.0286  0.3180
  200MOL0     C27499   4.951   8.213   6.045  0.0913 -0.2783 -0.3486
  200MOL0     C27500   5.067   8.297   6.101  0.4174  0.5766  0.4525
  200MOL0     C27501   5.205   8.232   6.094 -0.7158  0.3279  0.5881
  200MOL0     C27502   5.332   8.311   6.131  0.6228 -0.0682  0.4432
  200MOL0     C27503   5.459   8.220   6.107 -0.5780 -0.6942 -0.3053
  200MOL0     C27504   5.586   8.315   6.100  0.3977  0.0932  1.2227
  200MOL0     C27505   5.718   8.233   6.124  0.4556 -0.6049  0.2312
  200MOL0     C27506   5.824   8.290   6.036  0.0548  0.5644 -0.6229
  200MOL0    Cl27507   5.969   8.191   6.048 -0.3879 -0.2590 -0.1178
  200MOL0     C27508   4.966   8.063   6.358 -0.4305  0.4396  0.4385
  200MOL0     C27509   4.916   8.061   6.486 -0.6413  0.4465  0.6346
  200MOL0     O27510   4.546   7.990   6.592 -0.7080  0.8289 -0.3506
  200MOL0     C27511   4.441   8.039   6.847 -0.1221 -0.2118 -0.4583
  200MOL0     C27512   4.392   8.042   6.971  0.2175  0.2830 -0.5934
  200MOL0     N27513   4.384   7.748   7.733 -0.2578 -0.2058  0.3797
  200MOL0     N27514   4.340   7.651   7.809  0.9205  0.0352 -0.6964
  200MOL0     C27515   3.253   6.855   8.169  0.6675  0.6395  0.1220
  200MOL0     C27516   3.112   6.823   8.189 -0.2711 -0.4061 -0.7199
  200MOL0     C27517   2.675   6.844   8.210  0.3380  0.0463 -0.3170
  200MOL0     C27518   2.638   6.846   8.346  0.9857  0.3804 -0.5654
  200MOL0     C27519   2.513   6.804   8.391 -0.0632 -0.5102  0.6848
  200MOL0     C27520   2.417   6.754   8.306  0.5751 -0.0888 -0.8058
  200MOL0     O27521   2.292   6.722   8.355 -0.4726 -0.2834  0.3851
  200MOL0     C27522   2.214   6.635   8.269  0.1899  0.2173  0.3650
  200MOL0     C27523   2.081   6.629   8.347 -0.3634 -0.2544  0.2818
  200MOL0     C27524   1.989   6.507   8.310 -1.1090  0.8556  0.3229
  200MOL0     C27525   1.878   6.542   8.215  0.2202  0.1255 -0.2094
  200MOL0     C27526   1.918   6.565   8.078 -0.2245  0.4945 -0.4815
  200MOL0     C27527   1.953   6.600   7.974 -0.4068 -0.2110  0.8898
  200MOL0     C27528   2.454   6.762   8.172  0.4509  0.6705 -0.7187
  200MOL0     C27529   2.577   6.814   8.118  0.4329  0.3967 -0.2225
  200MOL0     C27530   2.593   6.816   7.963 -0.7259 -0.3261  0.9523
  200MOL0     H27531   2.998   7.143   8.221  0.2907  0.0945  0.2499
  200MOL0     H27532   3.224   7.195   8.167  1.2542 -0.3897  0.6766
  200MOL0     H27533   3.452   7.225   8.146  1.7828  1.0917  0.9630
  200MOL0     H27534   3.451   7.122   7.997 -1.8678  2.3107  0.4092
  200MOL0     H27535   3.663   7.110   8.206 -0.7070 -0.8796 -0.0461
  200MOL0     H27536   3.689   7.062   8.044  2.3918 -0.5171  2.5213
  200MOL0     H27537   3.639   7.320   7.988 -0.9480 -0.6825  1.5542
  200MOL0     H27538   3.643   7.350   8.151 -2.8031  0.0750 -0.9004
  200MOL0     H27539   3.871   7.290   8.179 -1.3592  1.0612  0.7988
  200MOL0     H27540   3.887   7.230   8.012  0.3514  0.2589  0.5737
  200MOL0     H27541   3.817   7.520   8.099  0.1702 -0.5148 -1.0950
  200MOL0     H27542   3.854   7.460   7.941 -0.8988 -3.6071 -1.1017
  200MOL0     H27543   4.044   7.485   8.177  2.1877  1.1663 -0.3063
  200MOL0     H27544   4.078   7.376   8.044  0.4794  0.3843 -0.1423
  200MOL0     H27545   4.155   7.626   8.045  0.1408 -2.7232  1.5245
  200MOL0     H27546   4.010   7.658   7.948 -0.8855  0.6170  1.1858
  200MOL0     H27547   4.208   7.450   7.884 -0.6859 -0.5657  1.8488
  200MOL0     H27548   4.062   7.489   7.783  0.0326  0.9088 -0.2578
  200MOL0     H27549   4.063   7.767   7.670  0.4359  4.2473  0.6339
  200MOL0     H27550   4.311   8.015   7.680  0.0098  0.9328 -1.2848
  200MOL0     H27551   4.199   7.980   7.559 -0.6466 -0.8168  1.1287
  200MOL0     H27552   4.446   8.041   7.471  2.5972 -1.8270 -1.0438
  200MOL0     H27553   4.506   7.901   7.553  0.3607  2.3984 -0.3376
  200MOL0     H27554   4.421   7.752   7.409  0.4939 -0.0430  0.7317
  200MOL0     H27555   4.281   7.838   7.359 -0.1034  2.4264 -0.2543
  200MOL0     H27556   4.574   7.878   7.260 -0.2525  0.5696 -1.1893
  200MOL0     H27557   4.424   7.825   7.181 -2.7933  0.9006  1.9577
  200MOL0     H27558   4.678   8.075   7.149  0.9015 -0.3645 -0.3075
  200MOL0     H27559   4.846   8.165   6.856 -1.3992 -1.2025 -2.7146
  200MOL0     H27560   4.849   7.989   6.837 -2.5176  0.2205 -0.1545
  200MOL0     H27561   4.885   8.059   6.994  0.2148 -2.4559 -0.3508
  200MOL0     H27562   4.600   8.162   6.414 -0.4588 -2.0192  0.4872
  200MOL0     H27563   4.689   8.160   6.178 -0.3372  0.4550  0.9286
  200MOL0     H27564   4.982   8.180   5.945 -2.9085 -0.5098 -1.3108
  200MOL0     H27565   4.858   8.271   6.047  0.7797  0.8218  0.5536
  200MOL0     H27566   5.068   8.399   6.061  0.8720 -0.2321 -1.7256
  200MOL0     H27567   5.042   8.313   6.206  0.5844  1.6731  0.3418
  200MOL0     H27568   5.220   8.207   5.989  0.8785  1.0863  0.6011
  200MOL0     H27569   5.200   8.139   6.153 -1.9262  0.6209  0.9604
  200MOL0     H27570   5.328   8.344   6.235 -2.7944 -0.9860  0.7293
  200MOL0     H27571   5.340   8.400   6.068  1.0480  0.2873  0.9941
  200MOL0     H27572   5.481   8.149   6.188  4.5542 -0.8169 -1.4286
  200MOL0     H27573   5.445   8.168   6.012 -0.1699  1.2242 -1.4746
  200MOL0     H27574   5.571   8.389   6.179 -1.1297  1.5316 -0.3273
  200MOL0     H27575   5.582   8.362   6.001  0.5142 -2.3982 -0.0490
  200MOL0     H27576   5.694   8.130   6.095 -2.1285  0.4563 -1.7784
  200MOL0     H27577   5.747   8.241   6.229 -1.0966  1.8165  0.5446
  200MOL0     H27578   5.835   8.395   6.065 -2.9560  1.1416 -1.1973
  200MOL0     H27579   5.795   8.287   5.930  2.7438 -1.5544 -1.4226
  200MOL0     H27580   5.070   8.043   6.338 -0.1665  2.4667 -0.4472
  200MOL0     H27581   4.977   8.021   6.567  0.8626  1.1695 -0.0936
  200MOL0     H27582   4.376   8.043   6.761  0.3093 -0.9270 -0.8282
  200MOL0     H27583   4.287   8.022   6.988  0.1792  1.4193  0.6436
  200MOL0     H27584   3.319   6.771   8.151 -0.8492 -0.0230 -3.2185
  200MOL0     H27585   3.078   6.720   8.183  0.3810 -0.8675  2.2488
  200MOL0     H27586   2.700   6.893   8.421 -2.2401  0.6858  2.1493
  200MOL0     H27587   2.507   6.816   8.498 -2.1878 -1.8213  0.7844
  200MOL0     H27588   2.205   6.672   8.166  1.5797  2.1108  0.8535
  200MOL0     H27589   2.264   6.538   8.274  0.4236  0.4013  1.7784
  200MOL0     H27590   2.028   6.722   8.324  1.0714  1.0447  1.9504
  200MOL0     H27591   2.104   6.608   8.452 -1.5544 -0.3708  0.5396
  200MOL0     H27592   2.050   6.430   8.262 -1.1466  0.3867  1.0192
  200MOL0     H27593   1.943   6.456   8.395  2.4753 -2.5515  0.4767
  200MOL0     H27594   1.804   6.614   8.252  0.2188 -0.9105  1.9487
  200MOL0     H27595   1.819   6.451   8.208 -1.5511  1.2174 -0.2084
  200MOL0     H27596   1.968   6.639   7.876  0.1030 -1.2151  0.5621
  200MOL0     H27597   2.369   6.744   8.108  0.0200  1.0657 -0.2675
  200MOL0     H27598   2.650   6.730   7.925  0.8207 -0.1341  2.6725
  200MOL0     H27599   2.491   6.811   7.924 -0.7591  1.6074  0.7102
  200MOL0     H27600   2.639   6.909   7.930  0.3428 -1.5776 -1.3284
  201MOL0     O27601   1.852   8.407   8.905 -0.0410  0.4429  0.6019
  201MOL0     C27602   1.779   8.445   8.997 -0.4285 -1.0199  0.4174
  201MOL0     O27603   1.823   8.523   9.106  0.1178 -0.3455  1.0396
  201MOL0     C27604   1.953   8.560   9.119 -1.3405  0.1304 -0.4786
  201MOL0     C27605   2.006   8.569   9.250 -0.9744 -0.0420 -0.6484
  201MOL0     C27606   2.138   8.606   9.260  0.1193  0.4447  0.5185
  201MOL0     C27607   2.223   8.639   9.152  0.3757 -0.3747  0.3058
  201MOL0     O27608   2.357   8.674   9.159  0.7656  0.0763  0.0663
  201MOL0     C27609   2.393   8.761   9.271  0.0906  0.5060 -0.3806
  201MOL0     C27610   2.502   8.695   9.358 -0.0338  0.5096 -0.7714
  201MOL0     C27611   2.460   8.557   9.397 -0.5204 -0.1943  0.2618
  201MOL0     C27612   2.569   8.481   9.483  0.1474 -0.6715  0.3287
  201MOL0     C27613   2.506   8.363   9.570 -0.6976 -0.2549  0.1697
  201MOL0     C27614   2.609   8.265   9.638 -0.2200  0.3763  0.0549
  201MOL0     C27615   2.720   8.209   9.537  0.9757 -0.0060  0.2272
  201MOL0     C27616   2.802   8.096   9.603 -0.3327  0.6753  1.0201
  201MOL0     N27617   2.896   8.021   9.518 -0.2494 -0.1011 -0.0248
  201MOL0     C27618   2.873   7.929   9.417 -0.2029 -0.3471  0.2122
  201MOL0     C27619   2.998   7.877   9.394 -0.0110  0.4483  0.3228
  201MOL0     C27620   3.038   7.771   9.290 -0.5262 -0.3974  0.0825
  201MOL0     C27621   3.141   7.816   9.188  0.9139 -0.5090 -0.2732
  201MOL0     C27622   3.107   7.948   9.115 -0.6492  0.3639  0.6729
  201MOL0     C27623   3.203   7.973   8.997 -0.1201 -0.1314  0.0419
  201MOL0     O27624   3.341   7.990   9.028 -1.1791  0.5019  0.5460
  201MOL0     C27625   3.382   8.107   9.086 -0.1650  0.0372 -0.2025
  201MOL0     C27626   3.331   8.232   9.058  0.0185 -0.2142 -0.6647
  201MOL0     C27627   3.380   8.346   9.122 -0.7019 -0.1407 -0.4667
  201MOL0     C27628   3.313   8.478   9.086  0.0194  0.0394 -0.5419
  201MOL0     C27629   3.495   8.341   9.206 -0.0080 -0.2871  0.6686
  201MOL0     C27630   3.565   8.455   9.268 -0.3195 -0.4519 -0.6950
  201MOL0     O27631   3.646   8.424   9.377  0.2237  0.1751  0.3035
  201MOL0     C27632   3.738   8.516   9.411  0.1261  1.3024  0.3778
  201MOL0     C27633   3.693   8.620   9.489  0.0529 -0.2108 -0.0285
  201MOL0     C27634   3.782   8.713   9.532 -1.4452 -0.4275  0.2526
  201MOL0     C27635   3.922   8.681   9.530 -0.1133  0.1143  0.9184
  201MOL0     O27636   4.013   8.755   9.604  0.3343  0.3494 -0.3161
  201MOL0     C27637   4.151   8.756   9.572 -0.9393  0.3689  0.2856
  201MOL0     C27638   4.199   8.898   9.555 -1.1451  0.4030  0.0858
  201MOL0     C27639   4.204   8.962   9.692 -0.3821  0.2304 -0.1228
  201MOL0     C27640   4.235   9.114   9.672  0.2134  0.1963  0.1818
  201MOL0     C27641   4.201   9.179   9.800 -0.3022 -0.1880 -0.7188
  201MOL0     C27642   4.214   9.334   9.791  0.0843 -0.5401 -0.1918
  201MOL0     C27643   4.203   9.380   9.940 -0.0003 -0.7070  0.3062
  201MOL0     C27644   4.232   9.535   9.955 -0.0480  0.3288  0.1373
  201MOL0    Cl27645   4.076   9.626   9.922  0.5154  0.3868  0.3727
  201MOL0     C27646   3.967   8.566   9.455  0.4222 -0.4945 -0.4122
  201MOL0     C27647   3.871   8.487   9.393 -0.2802  0.7165  0.3410
  201MOL0     O27648   3.555   8.570   9.214  0.2048  0.3568 -0.0992
  201MOL0     C27649   3.548   8.217   9.237  0.0877  0.0010 -0.0230
  201MOL0     C27650   3.494   8.099   9.174  0.1314 -0.6494  0.7184
  201MOL0     N27651   3.087   7.927   9.475 -0.5591  0.6353 -0.4774
  201MOL0     N27652   3.028   8.022   9.548  0.1272  0.8272  0.2850
  201MOL0     C27653   2.164   8.632   9.027 -0.3168 -0.3015 -0.1438
  201MOL0     C27654   2.036   8.602   9.006  0.0716 -0.1766 -0.9175
  201MOL0     C27655   1.631   8.418   9.000  0.1134  0.7757  0.0734
  201MOL0     C27656   1.556   8.480   9.099  0.1557  0.3953 -0.2771
  201MOL0     C27657   1.415   8.457   9.110 -0.9293  0.3509 -1.3553
  201MOL0     C27658   1.351   8.373   9.015 -0.3344  0.4816 -0.4267
  201MOL0     O27659   1.222   8.338   9.009 -0.0117  1.1249 -0.0253
  201MOL0     C27660   1.140   8.391   9.118  0.9843 -0.1094  1.2092
  201MOL0     C27661   1.006   8.310   9.134  0.3330  0.5436  0.3604
  201MOL0     C27662   0.920   8.357   9.248  0.3489  0.1718 -0.6977
  201MOL0     C27663   0.863   8.239   9.329 -0.5487  0.1058  0.3019
  201MOL0     C27664   0.963   8.174   9.420 -0.4341 -0.9980  0.1627
  201MOL0     C27665   1.051   8.133   9.496  0.1406  0.4861 -1.0021
  201MOL0     C27666   1.425   8.326   8.916  0.0959 -0.5874 -0.3081
  201MOL0     C27667   1.562   8.343   8.906  0.9477 -0.3302 -0.0511
  201MOL0     C27668   1.621   8.271   8.791  0.4035  0.2325 -0.0287
  201MOL0     H27669   1.951   8.536   9.338  2.2901  3.1553  2.9999
  201MOL0     H27670   2.169   8.591   9.363  0.9533 -0.5132  0.1514
  201MOL0     H27671   2.305   8.785   9.331 -0.5675  0.4576 -1.2962
  201MOL0     H27672   2.428   8.861   9.245 -0.8868  1.4917  1.8582
  201MOL0     H27673   2.589   8.700   9.293 -1.0175  2.0612 -2.0469
  201MOL0     H27674   2.509   8.749   9.453  0.5880 -0.4009 -0.2817
  201MOL0     H27675   2.375   8.538   9.463  2.0223 -2.9655  3.0764
  201MOL0     H27676   2.438   8.499   9.307 -3.3311  0.9401  0.1166
  201MOL0     H27677   2.661   8.461   9.427  1.2166 -1.1666  2.1458
  201MOL0     H27678   2.597   8.557   9.557 -0.9071  3.2430 -2.9251
  201MOL0     H27679   2.460   8.296   9.497  1.1914 -0.4289 -0.9217
  201MOL0     H27680   2.432   8.401   9.642 -1.4264 -1.2055 -0.0551
  201MOL0     H27681   2.660   8.307   9.725 -0.9369  1.7712 -0.1803
  201MOL0     H27682   2.547   8.181   9.672  0.8641 -0.6980 -0.5377
  201MOL0     H27683   2.782   8.295   9.512 -0.7615  1.1697 -0.2687
  201MOL0     H27684   2.669   8.182   9.444 -0.3698 -0.2585  1.0120
  201MOL0     H27685   2.866   8.141   9.680 -0.0948  1.5357  0.3419
  201MOL0     H27686   2.737   8.019   9.646 -1.9261 -0.0021 -2.3007
  201MOL0     H27687   2.784   7.911   9.358  0.1880  0.1078 -0.5266
  201MOL0     H27688   2.952   7.726   9.239 -0.7279 -0.1625  0.2124
  201MOL0     H27689   3.093   7.695   9.347 -0.4537 -0.3071  0.1329
  201MOL0     H27690   3.235   7.826   9.242 -0.4495 -0.6943  2.2625
  201MOL0     H27691   3.141   7.731   9.118 -1.0620 -2.5586  2.0218
  201MOL0     H27692   3.005   7.946   9.075  0.3124 -1.5259 -1.9331
  201MOL0     H27693   3.115   8.026   9.191 -1.0348 -0.3255  1.4352
  201MOL0     H27694   3.188   7.884   8.936  2.3570 -0.3547 -0.3392
  201MOL0     H27695   3.172   8.062   8.942  1.4973  1.2510  1.2571
  201MOL0     H27696   3.257   8.251   8.981  1.8382 -2.9647 -3.3436
  201MOL0     H27697   3.209   8.469   9.056 -0.4207  1.6986  0.3352
  201MOL0     H27698   3.373   8.525   9.007  4.0050 -1.1648  1.4688
  201MOL0     H27699   3.316   8.542   9.175  1.6699 -1.8537  0.8641
  201MOL0     H27700   3.586   8.634   9.496 -0.2555 -2.0300 -0.5841
  201MOL0     H27701   3.744   8.807   9.571  0.0720  0.8003 -1.1118
  201MOL0     H27702   4.196   8.708   9.660 -1.6143  1.0509  1.0266
  201MOL0     H27703   4.176   8.706   9.478 -2.3067  2.5454 -1.3296
  201MOL0     H27704   4.298   8.911   9.510 -0.5845  0.3667  1.2631
  201MOL0     H27705   4.137   8.949   9.481  0.5190  1.5874 -0.5612
  201MOL0     H27706   4.291   8.933   9.752 -0.0488  2.6971  0.6995
  201MOL0     H27707   4.107   8.951   9.739  0.1149 -1.2522  0.6191
  201MOL0     H27708   4.172   9.156   9.594  0.3794 -0.5661 -0.3690
  201MOL0     H27709   4.340   9.129   9.645  0.6293  0.2684  1.7143
  201MOL0     H27710   4.099   9.159   9.831 -0.6425 -1.0133 -2.2230
  201MOL0     H27711   4.262   9.128   9.875  0.0111  0.1071 -0.7664
  201MOL0     H27712   4.140   9.376   9.722  2.9843  1.9430 -2.0227
  201MOL0     H27713   4.308   9.373   9.752 -1.3335  1.9513 -1.3515
  201MOL0     H27714   4.298   9.349   9.985  0.5230 -1.5231 -1.2490
  201MOL0     H27715   4.113   9.365   9.999 -0.5367  0.7581 -0.0939
  201MOL0     H27716   4.309   9.575   9.887 -2.0650  2.0830 -1.2490
  201MOL0     H27717   4.252   9.565  10.058 -2.2757  1.3341  0.3265
  201MOL0     H27718   4.068   8.527   9.451  0.5099 -0.3853  0.6111
  201MOL0     H27719   3.890   8.394   9.340 -1.5963  1.1825 -1.0296
  201MOL0     H27720   3.632   8.206   9.305  1.0197  2.6015 -0.6059
  201MOL0     H27721   3.533   8.002   9.201 -0.4208 -0.7778  1.0724
  201MOL0     H27722   2.226   8.653   8.940  2.7613 -3.9253  0.8963
  201MOL0     H27723   1.983   8.604   8.912 -3.4734 -0.4939  0.8719
  201MOL0     H27724   1.593   8.533   9.186 -0.3373 -3.3806  2.4874
  201MOL0     H27725   1.370   8.503   9.198 -2.4133  0.4009 -2.1063
  201MOL0     H27726   1.193   8.407   9.213  2.1548  2.8756  0.1750
  201MOL0     H27727   1.117   8.485   9.068  3.1972 -1.2265 -2.3689
  201MOL0     H27728   1.016   8.202   9.145  0.6687  0.4166 -1.1222
  201MOL0     H27729   0.942   8.313   9.045  1.7398  0.2157 -0.6900
  201MOL0     H27730   0.966   8.434   9.311 -0.9894  0.5072 -0.1036
  201MOL0     H27731   0.842   8.415   9.197  2.2934  0.2535 -3.8920
  201MOL0     H27732   0.814   8.167   9.263 -1.1436  0.7810 -0.0083
  201MOL0     H27733   0.785   8.288   9.388  0.4024  0.5729  1.2141
  201MOL0     H27734   1.127   8.096   9.562 -0.8405 -0.8663 -0.5945
  201MOL0     H27735   1.375   8.278   8.832  2.7955 -1.8750 -1.3229
  201MOL0     H27736   1.660   8.342   8.718  1.3511 -0.7154 -0.4745
  201MOL0     H27737   1.710   8.211   8.813 -1.4703 -1.9055  2.4085
  201MOL0     H27738   1.543   8.217   8.737 -1.7795  0.3508  2.7661
  202MOL0     O27739   4.644   1.763  10.680  0.1989 -0.1712 -0.1396
  202MOL0     C27740   4.605   1.749  10.797  0.4517  0.3066 -1.1635
  202MOL0     O27741   4.689   1.752  10.910 -0.1360  0.1876  0.7920
  202MOL0     C27742   4.826   1.763  10.897 -0.4417  0.4376  0.3575
  202MOL0     C27743   4.900   1.730  10.783  0.1657  0.3569  0.7088
  202MOL0     C27744   5.041   1.741  10.781 -0.1736 -0.8912  0.5319
  202MOL0     C27745   5.103   1.780  10.900 -0.3856 -0.2146 -0.0488
  202MOL0     O27746   5.237   1.810  10.898  1.0176 -0.0409  0.3434
  202MOL0     C27747   5.315   1.781  11.005 -0.3234 -0.1228  0.6670
  202MOL0     C27748   5.377   1.924  11.041  0.1035 -0.0843 -0.5051
  202MOL0     C27749   5.441   1.985  10.912 -0.0608 -0.5205  0.7322
  202MOL0     C27750   5.546   2.094  10.949 -0.5163 -0.6208  0.1616
  202MOL0     C27751   5.615   2.147  10.816  0.3452 -0.0116 -0.1975
  202MOL0     C27752   5.728   2.249  10.840 -0.0893 -0.0278  0.2440
  202MOL0     C27753   5.824   2.269  10.716 -0.7050  0.1323 -1.2304
  202MOL0     C27754   5.753   2.299  10.585 -0.0420 -0.4919 -0.7929
  202MOL0     N27755   5.849   2.314  10.476 -1.2811  1.0554 -0.1629
  202MOL0     C27756   5.913   2.432  10.469 -0.8536  0.0830  0.4884
  202MOL0     C27757   5.973   2.434  10.345 -0.0286 -0.0514 -0.5173
  202MOL0     C27758   6.067   2.534  10.276 -0.0941  0.3719  0.0668
  202MOL0     C27759   6.209   2.508  10.330 -0.9484 -0.9121 -0.1297
  202MOL0     C27760   6.314   2.613  10.272  0.3720 -0.2405  0.5784
  202MOL0     C27761   6.447   2.593  10.329  0.4457  0.0206 -0.1432
  202MOL0     O27762   6.526   2.714  10.293  0.4404  0.4843  0.4182
  202MOL0     C27763   6.659   2.684  10.263  0.0166 -0.0747  0.0363
  202MOL0     C27764   6.706   2.739  10.145  0.3763 -0.5897  0.0265
  202MOL0     C27765   6.839   2.742  10.105  0.3101 -0.3819  0.1134
  202MOL0     C27766   6.880   2.809   9.978 -0.4634 -0.5283  0.1522
  202MOL0     C27767   6.932   2.688  10.197  0.4904  0.0234  0.1510
  202MOL0     C27768   7.072   2.685  10.174  0.1446 -0.0101 -0.1657
  202MOL0     O27769   7.141   2.581  10.230  0.2673 -0.2751  0.5560
  202MOL0     C27770   7.273   2.572  10.190  0.1314  0.2104  0.3774
  202MOL0     C27771   7.307   2.537  10.057  0.3550 -0.2062 -0.9179
  202MOL0     C27772   7.445   2.525  10.027  0.3968 -0.8154  0.4348
  202MOL0     C27773   7.551   2.535  10.123  1.2536  0.3212 -0.2843
  202MOL0     O27774   7.687   2.525  10.099  0.1748  0.0422 -0.7653
  202MOL0     C27775   7.759   2.419  10.172 -0.1925  0.0283 -0.4340
  202MOL0     C27776   7.912   2.443  10.160 -0.0779 -0.0588 -0.1692
  202MOL0     C27777   7.959   2.413  10.018  0.8443  0.0585  0.6669
  202MOL0     C27778   8.103   2.451   9.991 -0.2862  0.3452  0.4759
  202MOL0     C27779   8.146   2.437   9.844 -0.5557  0.1505  0.3698
  202MOL0     C27780   8.298   2.430   9.820 -0.8076  0.3357  0.2616
  202MOL0     C27781   8.325   2.433   9.672  0.1949  0.1649  0.5310
  202MOL0     C27782   8.469   2.452   9.641 -0.4269  0.0837  0.2888
  202MOL0    Cl27783   8.585   2.323   9.707  0.1012 -0.5390 -0.0395
  202MOL0     C27784   7.505   2.561  10.253 -0.3646  0.6842 -0.0723
  202MOL0     C27785   7.374   2.586  10.288 -0.7799 -0.3572  0.0370
  202MOL0     O27786   7.119   2.768  10.103 -0.3409 -0.2253 -0.4133
  202MOL0     C27787   6.888   2.623  10.314 -0.9720  0.6719  0.1891
  202MOL0     C27788   6.753   2.624  10.350 -0.2111 -0.0977  0.6802
  202MOL0     N27789   5.944   2.309  10.283 -0.3464  0.2214  0.2630
  202MOL0     N27790   5.877   2.241  10.372  0.2079 -0.6458  0.0892
  202MOL0     C27791   5.035   1.807  11.015 -0.1900 -0.2850  0.1805
  202MOL0     C27792   4.894   1.802  11.018 -0.2597 -0.5581  0.7516
  202MOL0     C27793   4.454   1.731  10.809 -0.1391  0.9513 -0.5451
  202MOL0     C27794   4.370   1.744  10.694 -0.1263  0.1954  0.3269
  202MOL0     C27795   4.229   1.733  10.697 -0.9038 -0.6287  1.0694
  202MOL0     C27796   4.171   1.728  10.823 -0.0946  0.8416 -0.1410
  202MOL0     O27797   4.037   1.727  10.833  0.0944 -0.5206  0.1040
  202MOL0     C27798   3.984   1.832  10.915  0.9845  0.3204  0.4878
  202MOL0     C27799   3.845   1.877  10.859 -0.2800 -0.3552 -0.5084
  202MOL0     C27800   3.742   1.759  10.881 -0.1760 -0.3708 -0.3610
  202MOL0     C27801   3.595   1.801  10.880  0.2010 -0.4547  0.0086
  202MOL0     C27802   3.568   1.873  10.759 -0.4490  0.3871 -0.1903
  202MOL0     C27803   3.539   1.928  10.652  0.8475  0.0413  0.4084
  202MOL0     C27804   4.245   1.711  10.934 -0.2356  1.0222 -1.2173
  202MOL0     C27805   4.391   1.705  10.932 -0.0693 -0.2781  0.4851
  202MOL0     C27806   4.460   1.684  11.067  1.0413  0.0223  0.5197
  202MOL0     H27807   4.853   1.697  10.691 -0.2942  1.4459  0.5400
  202MOL0     H27808   5.102   1.723  10.693 -0.9022  1.6724 -0.5930
  202MOL0     H27809   5.397   1.719  10.966 -0.2985 -1.3926  2.6027
  202MOL0     H27810   5.261   1.736  11.088  0.4716 -0.5884  0.9404
  202MOL0     H27811   5.306   2.001  11.075  0.6200 -0.0789  0.6055
  202MOL0     H27812   5.463   1.913  11.107  1.2407 -1.3935 -2.1271
  202MOL0     H27813   5.476   1.909  10.841 -0.7806 -1.1527  1.0462
  202MOL0     H27814   5.365   2.025  10.843  2.2160  0.4736 -1.3725
  202MOL0     H27815   5.497   2.170  11.011  0.2883 -2.8086  3.7379
  202MOL0     H27816   5.617   2.047  11.017  1.3555 -2.8603 -3.0957
  202MOL0     H27817   5.538   2.192  10.754  0.4210 -0.9352 -0.9808
  202MOL0     H27818   5.656   2.066  10.756 -0.4687 -0.5970  0.0227
  202MOL0     H27819   5.675   2.338  10.874  1.8817  2.0279 -1.6925
  202MOL0     H27820   5.796   2.222  10.922 -0.8658 -2.0742  0.2680
  202MOL0     H27821   5.893   2.184  10.711  2.7409  2.5157  0.9965
  202MOL0     H27822   5.890   2.352  10.744 -0.8804  0.6494 -2.2849
  202MOL0     H27823   5.683   2.223  10.550  1.8316 -1.9228 -1.5773
  202MOL0     H27824   5.680   2.378  10.606  1.4131  1.2207 -1.8646
  202MOL0     H27825   5.909   2.520  10.532 -0.9382 -0.3774  1.1334
  202MOL0     H27826   6.026   2.629  10.312  1.4074  1.2128 -0.3335
  202MOL0     H27827   6.057   2.524  10.168 -0.0798 -0.3419  0.1317
  202MOL0     H27828   6.201   2.537  10.436 -3.8564 -0.8330 -0.3032
  202MOL0     H27829   6.256   2.411  10.312  0.7235  0.0484 -1.2628
  202MOL0     H27830   6.344   2.616  10.166  1.5534  2.9329  0.8992
  202MOL0     H27831   6.285   2.717  10.286  1.3907  0.2936 -1.0541
  202MOL0     H27832   6.426   2.585  10.436 -1.7232 -1.9568 -0.6252
  202MOL0     H27833   6.479   2.498  10.285 -1.8948 -1.8647  1.9420
  202MOL0     H27834   6.638   2.779  10.070  2.3770  1.2907 -0.8899
  202MOL0     H27835   6.950   2.750   9.918  1.3874  0.9812  0.7248
  202MOL0     H27836   6.929   2.899  10.018  2.5064 -2.0110  0.1183
  202MOL0     H27837   6.800   2.832   9.907 -0.5303  0.8641  0.6483
  202MOL0     H27838   7.223   2.512   9.993 -1.2483  2.4744 -0.0179
  202MOL0     H27839   7.480   2.506   9.926 -1.7436 -1.0482 -0.3051
  202MOL0     H27840   7.723   2.426  10.275  0.3846  0.9328 -0.2809
  202MOL0     H27841   7.729   2.322  10.130 -0.1167 -1.0299  1.7755
  202MOL0     H27842   7.942   2.543  10.193  0.0917 -0.3874  0.7200
  202MOL0     H27843   7.952   2.376  10.237  0.4718 -0.8834 -1.1504
  202MOL0     H27844   7.896   2.463   9.944  0.6736 -1.1044 -0.0076
  202MOL0     H27845   7.945   2.308   9.989  2.9736  0.5083 -2.5544
  202MOL0     H27846   8.158   2.378  10.052 -0.4019 -0.5465 -0.4487
  202MOL0     H27847   8.114   2.556  10.019  0.8185  1.9511 -4.8957
  202MOL0     H27848   8.097   2.348   9.803 -0.7443 -0.0902  1.1103
  202MOL0     H27849   8.100   2.518   9.786 -0.0957 -0.5391 -1.0155
  202MOL0     H27850   8.347   2.341   9.861  1.5007  0.3377 -2.1990
  202MOL0     H27851   8.343   2.521   9.862 -1.2334  0.9452 -0.5813
  202MOL0     H27852   8.261   2.513   9.634 -1.3699 -0.0892  2.4674
  202MOL0     H27853   8.282   2.341   9.633 -4.3090  1.2729  2.2757
  202MOL0     H27854   8.503   2.551   9.674  0.5306 -0.2347  0.2805
  202MOL0     H27855   8.467   2.462   9.532  1.9896  1.5920  0.3125
  202MOL0     H27856   7.566   2.576  10.342 -2.5336  0.2156  1.5678
  202MOL0     H27857   7.361   2.608  10.394 -0.7119  0.3797 -0.1058
  202MOL0     H27858   6.959   2.574  10.380 -0.4363 -0.4132 -1.1649
  202MOL0     H27859   6.717   2.587  10.445 -2.7282 -0.1345 -0.1930
  202MOL0     H27860   5.095   1.821  11.104  2.2616  0.6343 -1.5201
  202MOL0     H27861   4.832   1.846  11.095  2.2475  2.3462  1.3111
  202MOL0     H27862   4.423   1.752  10.600  1.7963  0.9866  1.4322
  202MOL0     H27863   4.175   1.731  10.603  2.0316 -3.7083 -0.7901
  202MOL0     H27864   3.963   1.794  11.016 -2.3258 -0.1017 -0.2493
  202MOL0     H27865   4.050   1.919  10.920 -0.6640  1.5750  1.6258
  202MOL0     H27866   3.857   1.899  10.753  0.5855 -2.0319 -0.7871
  202MOL0     H27867   3.813   1.972  10.903 -1.8310 -0.9304 -0.3169
  202MOL0     H27868   3.755   1.680  10.807 -0.7727 -1.0179  0.2080
  202MOL0     H27869   3.763   1.718  10.980 -0.2174 -0.3649 -0.3498
  202MOL0     H27870   3.574   1.870  10.962  1.0997 -1.1206  0.8092
  202MOL0     H27871   3.524   1.718  10.874 -0.3127  0.0522 -2.9193
  202MOL0     H27872   3.526   1.964  10.552 -0.4963  0.5143  0.7366
  202MOL0     H27873   4.199   1.675  11.026  2.2275 -2.1453 -1.0499
  202MOL0     H27874   4.386   1.660  11.144  2.4395 -1.8389  1.3344
  202MOL0     H27875   4.533   1.604  11.063 -0.5239 -1.4479  0.3012
  202MOL0     H27876   4.505   1.779  11.097 -0.8442  1.6697 -1.4910
  203MOL0     O27877   8.937   8.719  11.309  0.3179 -0.6361 -0.5408
  203MOL0     C27878   8.930   8.599  11.322 -0.0249  0.6769 -0.5305
  203MOL0     O27879   9.032   8.510  11.338  0.8110  0.1387  0.1352
  203MOL0     C27880   9.157   8.559  11.323 -0.5612  0.0887  0.2628
  203MOL0     C27881   9.223   8.585  11.203  0.4347 -0.5065  0.1066
  203MOL0     C27882   9.360   8.607  11.205 -0.0170 -0.4182 -0.5986
  203MOL0     C27883   9.426   8.612  11.331  0.1026  0.9576  0.2495
  203MOL0     O27884   9.560   8.626  11.360  0.4578 -0.4369 -0.2125
  203MOL0     C27885   9.625   8.716  11.267 -0.9045  0.0797 -0.5280
  203MOL0     C27886   9.774   8.737  11.315 -0.1329 -0.0389 -0.8667
  203MOL0     C27887   9.851   8.606  11.294  0.7506  0.2874  0.5227
  203MOL0     C27888  10.006   8.621  11.318 -0.6473  0.1600  0.0295
  203MOL0     C27889  10.061   8.478  11.307  0.3241 -0.1574  0.1632
  203MOL0     C27890  10.214   8.466  11.282 -0.2806 -0.3357  0.4543
  203MOL0     C27891  10.264   8.530  11.147  0.0153  1.0060 -0.3232
  203MOL0     C27892  10.411   8.584  11.175  0.1519 -0.4437 -0.6925
  203MOL0     N27893  10.500   8.471  11.200 -0.9682 -0.2053 -0.7908
  203MOL0     C27894  10.563   8.441  11.324 -0.9015  0.5349 -0.1368
  203MOL0     C27895  10.623   8.321  11.297 -0.2540  0.4964 -0.6278
  203MOL0     C27896  10.692   8.252  11.418 -0.9318 -0.2229 -0.0184
  203MOL0     C27897  10.836   8.243  11.386 -0.4269 -0.0915  0.4439
  203MOL0     C27898  10.898   8.172  11.497 -0.7599 -0.5081  0.2974
  203MOL0     C27899  11.051   8.192  11.481 -0.2320  0.4743  0.5678
  203MOL0     O27900  11.122   8.127  11.586 -0.2162 -0.9450 -0.4970
  203MOL0     C27901  11.258   8.129  11.582 -0.0778  0.3657  0.4272
  203MOL0     C27902  11.331   8.239  11.528  0.2695 -0.0864  0.2720
  203MOL0     C27903  11.472   8.249  11.546  0.2103 -0.2805 -0.1853
  203MOL0     C27904  11.543   8.378  11.490 -0.3307 -0.4630  0.4875
  203MOL0     C27905  11.543   8.153  11.622  0.0817 -0.0469  0.0909
  203MOL0     C27906  11.689   8.163  11.642  0.2402 -0.1617  0.3410
  203MOL0     O27907  11.764   8.048  11.623 -0.2168  0.5058 -0.2863
  203MOL0     C27908  11.899   8.062  11.623  0.2929 -0.5259  0.4192
  203MOL0     C27909  11.963   8.017  11.507  0.1230 -0.4730 -0.2259
  203MOL0     C27910  12.104   8.006  11.510  0.3117  0.0727  0.5242
  203MOL0     C27911  12.181   8.055  11.615 -0.4404 -0.4414  0.8383
  203MOL0     O27912  12.314   8.057  11.604 -0.3584 -0.2384  0.1828
  203MOL0     C27913  12.376   8.128  11.493 -0.3086  1.0266 -1.0589
  203MOL0     C27914  12.513   8.184  11.534 -0.0664  0.3226 -1.0289
  203MOL0     C27915  12.565   8.261  11.408 -0.2445 -0.2321  0.1726
  203MOL0     C27916  12.726   8.273  11.421  0.6273 -0.6876 -0.7269
  203MOL0     C27917  12.780   8.361  11.540  0.4312 -0.0303  0.6908
  203MOL0     C27918  12.925   8.403  11.543  0.1955  0.0763  0.1435
  203MOL0     C27919  12.955   8.507  11.422  0.0792  0.9581 -0.2616
  203MOL0     C27920  13.083   8.578  11.437 -0.1355 -0.0477  0.1183
  203MOL0    Cl27921  13.068   8.722  11.340  0.3068  0.0946  0.1012
  203MOL0     C27922  12.113   8.088  11.735  0.5403  0.2939 -0.3373
  203MOL0     C27923  11.973   8.095  11.735  0.5963  0.2323 -0.0312
  203MOL0     O27924  11.732   8.273  11.669 -0.0822 -0.9299  0.3583
  203MOL0     C27925  11.466   8.044  11.673 -0.5371  0.3299 -0.4515
  203MOL0     C27926  11.326   8.031  11.661 -1.5634  0.3615 -0.0953
  203MOL0     N27927  10.597   8.281  11.168 -0.2281 -0.1028 -0.3776
  203MOL0     N27928  10.516   8.363  11.118  0.0180 -1.1915 -0.7647
  203MOL0     C27929   9.356   8.597  11.452  0.1548 -0.0994 -0.6640
  203MOL0     C27930   9.224   8.569  11.448 -0.0794 -0.4945  0.0343
  203MOL0     C27931   8.789   8.551  11.332  0.5263 -0.4634 -0.1665
  203MOL0     C27932   8.692   8.607  11.250 -0.2119 -0.2116 -0.0142
  203MOL0     C27933   8.561   8.548  11.223 -0.4285 -0.6699  0.4922
  203MOL0     C27934   8.525   8.428  11.288  0.3244 -0.1383  0.0466
  203MOL0     O27935   8.402   8.363  11.274 -0.2020  0.0766  0.2489
  203MOL0     C27936   8.321   8.393  11.156 -0.1196  0.8671  0.2393
  203MOL0     C27937   8.382   8.367  11.013 -1.0722 -0.0173  0.1271
  203MOL0     C27938   8.471   8.242  10.988  0.8993 -0.4905 -0.9508
  203MOL0     C27939   8.387   8.116  10.987  0.1433  0.8113  0.3966
  203MOL0     C27940   8.322   8.099  10.858 -0.5804 -0.0448  0.3131
  203MOL0     C27941   8.288   8.061  10.749 -0.7102 -0.2932 -0.4639
  203MOL0     C27942   8.615   8.382  11.383  0.5246  1.1344  0.5661
  203MOL0     C27943   8.742   8.441  11.408 -0.2022  0.3059  0.1817
  203MOL0     C27944   8.830   8.386  11.520  1.0137 -0.0661 -0.5052
  203MOL0     H27945   9.170   8.554  11.113  1.1106 -0.1483 -0.4227
  203MOL0     H27946   9.412   8.612  11.110 -0.6858 -0.7982 -0.9909
  203MOL0     H27947   9.577   8.814  11.269  1.3720  1.2996 -1.6354
  203MOL0     H27948   9.628   8.683  11.163 -3.3439 -0.1368 -0.5756
  203MOL0     H27949   9.830   8.814  11.261 -0.1600  0.9343  0.4286
  203MOL0     H27950   9.787   8.744  11.424  0.5999 -0.4526 -0.9227
  203MOL0     H27951   9.812   8.531  11.364 -0.3302 -0.0464 -0.3988
  203MOL0     H27952   9.826   8.568  11.195 -4.3684  0.7072  1.3300
  203MOL0     H27953  10.045   8.687  11.240 -0.7893  0.8050  0.5026
  203MOL0     H27954  10.033   8.665  11.414  0.4130 -0.2605 -0.0547
  203MOL0     H27955  10.012   8.420  11.229  0.9731 -1.3119  0.5790
  203MOL0     H27956  10.042   8.431  11.404 -2.2033  2.5802  1.1702
  203MOL0     H27957  10.276   8.504  11.363 -0.4615 -0.1570  0.5113
  203MOL0     H27958  10.243   8.363  11.260  3.0526  0.1399  2.0650
  203MOL0     H27959  10.197   8.613  11.121 -2.6472 -0.6119  0.9073
  203MOL0     H27960  10.261   8.452  11.071  0.0373 -0.7282  1.3861
  203MOL0     H27961  10.454   8.630  11.085  4.3135 -2.9090 -0.2134
  203MOL0     H27962  10.409   8.656  11.257  0.3288  0.1347 -1.1950
  203MOL0     H27963  10.563   8.483  11.424  0.7907 -1.8552  0.9701
  203MOL0     H27964  10.655   8.151  11.440  1.0536 -0.8400  0.6710
  203MOL0     H27965  10.667   8.312  11.505 -0.6039 -1.4883  0.9728
  203MOL0     H27966  10.846   8.191  11.290 -0.7413  2.3136 -0.9741
  203MOL0     H27967  10.869   8.346  11.375 -1.5412  0.2410  0.0449
  203MOL0     H27968  10.864   8.212  11.593 -0.3817 -0.5738  0.4598
  203MOL0     H27969  10.877   8.065  11.511 -0.5440 -0.3843  1.7728
  203MOL0     H27970  11.083   8.146  11.386 -1.1710  0.1344  0.4011
  203MOL0     H27971  11.071   8.299  11.489  2.5315  0.3688 -2.5919
  203MOL0     H27972  11.280   8.318  11.473 -0.3062 -1.1691 -0.7993
  203MOL0     H27973  11.492   8.433  11.411  3.6484  0.7018 -1.5630
  203MOL0     H27974  11.632   8.346  11.435 -0.7243 -0.5267 -0.1168
  203MOL0     H27975  11.560   8.445  11.575 -1.8588 -0.5053  0.8445
  203MOL0     H27976  11.898   8.003  11.422 -2.8786 -0.8232  1.9491
  203MOL0     H27977  12.152   7.976  11.417  1.9864 -0.5253  1.5353
  203MOL0     H27978  12.389   8.052  11.415  1.4962  1.4697 -1.2182
  203MOL0     H27979  12.319   8.217  11.465 -0.5135  1.6223  1.1033
  203MOL0     H27980  12.510   8.235  11.631  0.4429 -0.7745 -0.4162
  203MOL0     H27981  12.572   8.097  11.565  0.5628  1.4796  1.2173
  203MOL0     H27982  12.520   8.360  11.408  1.2299  0.4766  0.7033
  203MOL0     H27983  12.540   8.200  11.321  2.4766 -3.7088  1.5689
  203MOL0     H27984  12.771   8.315  11.331 -1.0411 -0.0379 -1.2912
  203MOL0     H27985  12.772   8.177  11.446  0.9382 -0.0963  1.1679
  203MOL0     H27986  12.721   8.453  11.552  0.6246 -0.1969  3.5440
  203MOL0     H27987  12.760   8.310  11.635 -0.6026  2.5129  1.9610
  203MOL0     H27988  12.985   8.311  11.544 -0.3241 -0.3596 -2.5984
  203MOL0     H27989  12.940   8.441  11.644  0.1516  1.2920 -0.3001
  203MOL0     H27990  12.880   8.586  11.437 -1.3684 -0.4785  0.4250
  203MOL0     H27991  12.937   8.477  11.319  0.4147 -0.7796  0.1561
  203MOL0     H27992  13.170   8.518  11.411  1.0601  1.4927  0.4027
  203MOL0     H27993  13.098   8.600  11.544 -0.9122 -2.5861  0.8179
  203MOL0     H27994  12.166   8.117  11.825 -1.5560 -0.9069  1.3706
  203MOL0     H27995  11.917   8.124  11.823 -1.3530  2.6209 -1.8836
  203MOL0     H27996  11.520   7.958  11.710 -0.7313  0.1643 -0.5514
  203MOL0     H27997  11.277   7.949  11.713  0.6585  0.8375  3.0860
  203MOL0     H27998   9.407   8.596  11.548  0.8003  0.2468 -1.0004
  203MOL0     H27999   9.164   8.548  11.536 -2.2270 -0.5766 -1.3897
  203MOL0     H28000   8.713   8.688  11.181 -1.4808  2.5741  2.6215
  203MOL0     H28001   8.496   8.583  11.143 -1.7601 -0.4442  1.6527
  203MOL0     H28002   8.229   8.334  11.156 -0.9415  2.1029  1.4103
  203MOL0     H28003   8.297   8.499  11.167  1.3140  1.1048  1.4132
  203MOL0     H28004   8.439   8.456  10.988  2.9990 -2.7405 -1.3952
  203MOL0     H28005   8.307   8.363  10.933 -0.2741  1.7911 -0.7678
  203MOL0     H28006   8.528   8.243  10.895  1.1374  0.4065 -0.8009
  203MOL0     H28007   8.538   8.229  11.073 -1.5486 -0.1412  1.1635
  203MOL0     H28008   8.310   8.124  11.064  0.2673 -0.7638  0.7134
  203MOL0     H28009   8.440   8.022  11.008 -0.7519  0.5597  1.6406
  203MOL0     H28010   8.268   8.023  10.650 -0.0689  1.8437 -1.4853
  203MOL0     H28011   8.592   8.297  11.446  2.6019  0.7340  0.8691
  203MOL0     H28012   8.869   8.287  11.493 -0.4739 -0.8990  0.2982
  203MOL0     H28013   8.906   8.457  11.554  0.5059 -0.5923  1.9328
  203MOL0     H28014   8.770   8.395  11.611  2.4519 -1.0984  0.5941
  204MOL0     O28015   7.871   6.755   2.984 -0.0727 -0.2236  0.1990
  204MOL0     C28016   7.850   6.642   3.028  0.9699  0.6097  0.2840
  204MOL0     O28017   7.944   6.574   3.105  0.9062  1.0104 -0.4794
  204MOL0     C28018   8.047   6.653   3.155 -0.6357 -0.1123 -0.2899
  204MOL0     C28019   8.164   6.687   3.088  0.7320 -1.1197  0.4284
  204MOL0     C28020   8.266   6.769   3.149  0.9504 -0.1380  0.5199
  204MOL0     C28021   8.257   6.798   3.284  0.1479  0.5298  0.9455
  204MOL0     O28022   8.352   6.881   3.336 -0.7022  0.7300 -0.5611
  204MOL0     C28023   8.441   6.820   3.424 -1.4027  0.0735  0.2838
  204MOL0     C28024   8.529   6.921   3.500  0.2374 -0.1154 -0.3834
  204MOL0     C28025   8.656   6.866   3.565 -0.1948 -0.1688  0.0170
  204MOL0     C28026   8.728   6.976   3.651  0.5311 -0.9721 -0.2127
  204MOL0     C28027   8.835   6.927   3.753 -0.1814 -0.1996 -0.3519
  204MOL0     C28028   8.936   6.831   3.679  0.2907 -0.5076 -0.2742
  204MOL0     C28029   9.051   6.800   3.770 -0.0283 -0.6459  0.1358
  204MOL0     C28030   9.162   6.912   3.789  0.8600 -0.0774 -0.0989
  204MOL0     N28031   9.281   6.866   3.871 -0.0864 -0.3831  0.4861
  204MOL0     C28032   9.296   6.894   3.999  1.1474 -0.7308 -0.3259
  204MOL0     C28033   9.417   6.847   4.032  0.2286 -0.3653  0.4281
  204MOL0     C28034   9.482   6.852   4.169  0.4156  0.7245  0.1799
  204MOL0     C28035   9.553   6.728   4.228 -0.3765  0.6791 -0.5876
  204MOL0     C28036   9.464   6.599   4.239 -0.4714 -0.2145 -0.6655
  204MOL0     C28037   9.332   6.635   4.320  1.8776 -0.0818  0.3400
  204MOL0     O28038   9.350   6.695   4.447  0.1923  0.2648 -0.1245
  204MOL0     C28039   9.388   6.628   4.558 -0.4895  0.0440  0.5943
  204MOL0     C28040   9.425   6.700   4.675  0.0689  0.1834  1.4022
  204MOL0     C28041   9.457   6.633   4.795 -0.5679  0.1578 -1.0745
  204MOL0     C28042   9.460   6.720   4.917  0.5496 -0.3953  0.8191
  204MOL0     C28043   9.485   6.489   4.791  0.4490  0.0518 -0.2901
  204MOL0     C28044   9.537   6.412   4.905 -0.7097  0.0903 -0.4080
  204MOL0     O28045   9.549   6.275   4.892 -0.0562  0.4849 -0.4536
  204MOL0     C28046   9.615   6.200   4.985  0.0383  0.1121  0.8280
  204MOL0     C28047   9.583   6.207   5.122 -0.0771  0.1615 -0.3064
  204MOL0     C28048   9.633   6.110   5.216 -0.2899  0.0538 -0.8432
  204MOL0     C28049   9.708   5.998   5.165  0.1090  0.1976 -1.6896
  204MOL0     O28050   9.729   5.890   5.245 -0.8334  0.1389  0.1695
  204MOL0     C28051   9.757   5.766   5.170 -0.4424 -0.4064 -0.0457
  204MOL0     C28052   9.753   5.650   5.262  0.6341 -0.7712 -0.1505
  204MOL0     C28053   9.869   5.557   5.257 -0.6008  0.6722  0.3255
  204MOL0     C28054   9.828   5.409   5.262  0.3744 -0.3995  0.5363
  204MOL0     C28055   9.953   5.316   5.267  0.0976  0.3639  0.0943
  204MOL0     C28056   9.907   5.168   5.290 -0.1529 -0.2669 -0.4490
  204MOL0     C28057  10.009   5.066   5.334  0.5809  0.6776  0.0481
  204MOL0     C28058  10.125   5.061   5.227  0.0924  0.2215 -0.2204
  204MOL0    Cl28059  10.043   4.996   5.077 -0.1878  0.0954  0.3643
  204MOL0     C28060   9.753   6.001   5.032  0.2668 -0.3353  0.2528
  204MOL0     C28061   9.701   6.097   4.938 -0.6306 -1.0846 -0.3151
  204MOL0     O28062   9.581   6.471   5.001  0.7058  0.0783  0.3084
  204MOL0     C28063   9.456   6.417   4.673  0.1871 -0.4067 -0.2136
  204MOL0     C28064   9.402   6.489   4.563  0.0372 -0.8949 -0.4482
  204MOL0     N28065   9.465   6.784   3.927 -0.7402  0.4198  0.5835
  204MOL0     N28066   9.394   6.799   3.827  1.0899 -0.0686  0.3140
  204MOL0     C28067   8.150   6.748   3.359  0.0417 -0.0786 -0.4861
  204MOL0     C28068   8.047   6.681   3.289 -0.4405  0.4559  0.8279
  204MOL0     C28069   7.725   6.570   2.986 -0.7951 -0.3389  0.2884
  204MOL0     C28070   7.602   6.606   3.039 -0.4633  0.6534 -0.1056
  204MOL0     C28071   7.479   6.544   3.001 -0.7216  0.0945  0.3007
  204MOL0     C28072   7.477   6.431   2.917  0.0931 -1.2213  0.1048
  204MOL0     O28073   7.356   6.375   2.883 -0.8405  0.1884 -1.0909
  204MOL0     C28074   7.340   6.292   2.769 -0.5975 -0.0049  0.5983
  204MOL0     C28075   7.221   6.199   2.761  0.4721 -0.3979  0.1966
  204MOL0     C28076   7.084   6.281   2.759 -0.3445 -0.1807  0.5028
  204MOL0     C28077   6.971   6.195   2.768  0.0137 -0.1594  0.4964
  204MOL0     C28078   6.962   6.137   2.898 -0.5354 -0.2943 -0.9964
  204MOL0     C28079   6.964   6.087   3.008  1.0800  0.3954  0.4202
  204MOL0     C28080   7.604   6.384   2.884 -0.3766  0.5120  0.2652
  204MOL0     C28081   7.721   6.454   2.907  0.0338 -0.3819 -0.6891
  204MOL0     C28082   7.835   6.401   2.835  0.4974 -0.7267  0.6693
  204MOL0     H28083   8.171   6.654   2.985  3.8997  0.1182  0.1306
  204MOL0     H28084   8.347   6.801   3.085  0.8671 -0.3081  0.3266
  204MOL0     H28085   8.516   6.764   3.367  0.2294  1.7443  0.6910
  204MOL0     H28086   8.392   6.750   3.492 -0.8214 -1.1923 -0.5556
  204MOL0     H28087   8.541   7.013   3.441  0.2837  0.1356  0.0132
  204MOL0     H28088   8.471   6.958   3.585  0.4885 -1.0964  0.2245
  204MOL0     H28089   8.625   6.775   3.618 -0.3050  1.0222  2.0826
  204MOL0     H28090   8.727   6.835   3.488  0.4889  2.0320 -0.3009
  204MOL0     H28091   8.772   7.051   3.584  1.1259  0.6049  1.8382
  204MOL0     H28092   8.651   7.026   3.709  2.8451  1.5700  0.9030
  204MOL0     H28093   8.797   6.872   3.839 -0.2865 -1.8303 -1.3871
  204MOL0     H28094   8.884   7.014   3.796 -2.0450 -0.5898  2.8587
  204MOL0     H28095   8.894   6.738   3.643 -2.5302  0.6300 -0.1384
  204MOL0     H28096   8.972   6.886   3.592 -0.2288 -0.6400 -0.5734
  204MOL0     H28097   9.098   6.705   3.743 -0.7063 -0.5882 -1.2941
  204MOL0     H28098   8.999   6.784   3.865 -1.8270 -1.0607 -0.8974
  204MOL0     H28099   9.197   6.932   3.687  3.7720  1.2068  1.0352
  204MOL0     H28100   9.113   6.996   3.838  0.0140 -0.9266  0.5651
  204MOL0     H28101   9.228   6.948   4.065  1.5234 -0.1340 -0.4209
  204MOL0     H28102   9.419   6.895   4.248  2.6094  0.9097  1.9047
  204MOL0     H28103   9.563   6.919   4.140 -0.6383  1.9223 -0.1196
  204MOL0     H28104   9.650   6.713   4.180  1.1731  5.0653  0.7009
  204MOL0     H28105   9.585   6.749   4.330 -1.9007  0.9814 -0.1350
  204MOL0     H28106   9.443   6.562   4.139  0.7202 -0.2783 -0.9035
  204MOL0     H28107   9.518   6.520   4.292 -2.6496 -0.2347  1.7571
  204MOL0     H28108   9.274   6.709   4.263 -1.9701 -0.3622  3.4090
  204MOL0     H28109   9.275   6.542   4.323  4.7585 -2.0268 -1.0047
  204MOL0     H28110   9.403   6.806   4.667 -1.4782 -0.1719  0.5251
  204MOL0     H28111   9.399   6.671   4.994  0.5703 -0.0008  1.0890
  204MOL0     H28112   9.409   6.815   4.898  2.2533 -0.0479 -2.8472
  204MOL0     H28113   9.558   6.739   4.963  1.2778 -1.7551 -0.0902
  204MOL0     H28114   9.508   6.283   5.143 -0.5079  0.2857 -2.0935
  204MOL0     H28115   9.618   6.114   5.324  0.0978 -3.4613 -0.5448
  204MOL0     H28116   9.678   5.740   5.099  1.6977  0.2575 -2.8005
  204MOL0     H28117   9.849   5.763   5.112  0.6972  0.5672  1.6398
  204MOL0     H28118   9.738   5.687   5.364 -1.9200  3.7764 -1.8895
  204MOL0     H28119   9.676   5.581   5.226  0.4259 -1.7009  1.9116
  204MOL0     H28120   9.934   5.585   5.341  0.1209  1.0343 -0.3317
  204MOL0     H28121   9.918   5.569   5.159  0.6814 -0.9661  0.7338
  204MOL0     H28122   9.780   5.385   5.167  2.3388 -2.3337 -0.0563
  204MOL0     H28123   9.757   5.383   5.341  0.7291 -0.0879  0.9673
  204MOL0     H28124  10.019   5.317   5.179 -0.6722 -1.8433 -0.5821
  204MOL0     H28125  10.006   5.348   5.357  0.1457 -2.8790  1.3476
  204MOL0     H28126   9.864   5.133   5.195  1.2200  2.5289 -2.2390
  204MOL0     H28127   9.822   5.162   5.358  0.8368  0.9093  0.9562
  204MOL0     H28128   9.972   4.963   5.328  2.5696 -0.1775  1.3678
  204MOL0     H28129  10.038   5.078   5.439  1.7741 -0.2176 -0.1684
  204MOL0     H28130  10.199   4.999   5.277  0.0757 -0.5496 -1.1352
  204MOL0     H28131  10.165   5.161   5.206  2.7640 -1.3664 -3.6246
  204MOL0     H28132   9.814   5.922   4.988  1.1173  0.5810 -0.2744
  204MOL0     H28133   9.726   6.095   4.832 -0.8583 -0.0486 -0.4027
  204MOL0     H28134   9.467   6.314   4.643 -1.4637 -0.3619 -1.0870
  204MOL0     H28135   9.371   6.431   4.477 -1.2503 -0.0039 -0.6142
  204MOL0     H28136   8.137   6.773   3.464 -3.0696 -1.5474 -0.3817
  204MOL0     H28137   7.957   6.645   3.336 -0.0125 -1.2909  0.3755
  204MOL0     H28138   7.592   6.691   3.105 -3.0260  0.3918 -0.0725
  204MOL0     H28139   7.395   6.591   3.050 -0.9195 -0.1932  0.2398
  204MOL0     H28140   7.341   6.343   2.672 -0.5104 -2.6575 -0.8976
  204MOL0     H28141   7.427   6.226   2.758 -0.5695  0.1137  0.0871
  204MOL0     H28142   7.228   6.130   2.845  1.7837 -0.0038  0.4445
  204MOL0     H28143   7.226   6.140   2.669 -0.7876 -0.3048  0.0527
  204MOL0     H28144   7.091   6.358   2.836  1.0553  2.7378 -2.3525
  204MOL0     H28145   7.074   6.337   2.666 -0.1428  0.8823  1.1035
  204MOL0     H28146   6.980   6.115   2.694 -2.0649 -0.0226  0.0452
  204MOL0     H28147   6.887   6.258   2.739  1.4275  2.9850  2.6262
  204MOL0     H28148   6.964   6.046   3.106 -2.5241  1.7952  1.1684
  204MOL0     H28149   7.613   6.290   2.831 -2.5299  1.3064 -1.6368
  204MOL0     H28150   7.873   6.313   2.888 -1.0862 -1.4849  0.5866
  204MOL0     H28151   7.796   6.366   2.739  0.7229 -1.3760  0.8080
  204MOL0     H28152   7.913   6.478   2.830  0.7280 -1.0086 -0.1499
  205MOL0     O28153   3.902   8.281   4.943  0.4039 -0.2430  0.1548
  205MOL0     C28154   3.935   8.367   5.021 -0.0552  0.5698 -0.5973
  205MOL0     O28155   3.877   8.485   5.041  0.4023 -0.1228 -0.3941
  205MOL0     C28156   3.751   8.502   4.993 -0.1350  1.4146  0.0608
  205MOL0     C28157   3.635   8.439   5.036 -0.7100  0.3291  0.0894
  205MOL0     C28158   3.506   8.468   4.984  0.6006 -0.3003  0.7401
  205MOL0     C28159   3.486   8.574   4.884 -0.7994  0.6284  0.0942
  205MOL0     O28160   3.371   8.617   4.825 -0.0037 -0.0940 -0.3749
  205MOL0     C28161   3.250   8.594   4.904 -0.6350  0.9327 -0.1130
  205MOL0     C28162   3.150   8.701   4.854  0.8907  0.1656  0.6261
  205MOL0     C28163   3.013   8.675   4.911  0.0664 -0.3349  0.1740
  205MOL0     C28164   2.927   8.799   4.873 -0.1209 -0.6042  0.0845
  205MOL0     C28165   2.792   8.814   4.946  0.7570 -0.0059  0.2460
  205MOL0     C28166   2.712   8.694   4.884  0.5974  0.4157 -0.0632
  205MOL0     C28167   2.564   8.728   4.878 -0.5411  0.2673  0.0614
  205MOL0     C28168   2.489   8.703   5.010 -0.3255 -0.1811  0.9091
  205MOL0     N28169   2.470   8.822   5.088  0.2436 -0.4251  0.1907
  205MOL0     C28170   2.379   8.904   5.032 -0.1654  0.2105  0.4851
  205MOL0     C28171   2.420   9.019   5.096  0.7516 -0.1767  0.2513
  205MOL0     C28172   2.353   9.157   5.081 -0.4749 -0.5409  0.3746
  205MOL0     C28173   2.385   9.218   4.942  0.1012  0.5260  0.9522
  205MOL0     C28174   2.540   9.251   4.933  0.2285  0.0404 -0.3182
  205MOL0     C28175   2.557   9.342   4.804 -0.5154  0.5945 -0.0732
  205MOL0     O28176   2.696   9.337   4.764  0.1634 -0.2627 -0.7593
  205MOL0     C28177   2.735   9.226   4.690 -0.2692  0.0588 -0.2790
  205MOL0     C28178   2.658   9.149   4.608 -0.8464  0.0228 -0.3478
  205MOL0     C28179   2.707   9.044   4.532  1.2120  1.2213 -0.4962
  205MOL0     C28180   2.611   8.952   4.457  0.0902 -0.1867  0.1808
  205MOL0     C28181   2.843   9.026   4.540 -0.1119  0.7335 -0.0052
  205MOL0     C28182   2.913   8.912   4.473 -0.0262  0.4953 -1.7317
  205MOL0     O28183   3.006   8.846   4.551 -0.4930 -0.1718  0.5638
  205MOL0     C28184   3.088   8.755   4.483  0.1319 -0.2176  0.3571
  205MOL0     C28185   3.179   8.784   4.381  0.4445 -0.6522  0.2990
  205MOL0     C28186   3.266   8.689   4.326  0.2823 -0.6071  0.2272
  205MOL0     C28187   3.268   8.561   4.378 -0.2366 -0.4333  0.0028
  205MOL0     O28188   3.349   8.465   4.319 -0.6887 -0.3218  0.4622
  205MOL0     C28189   3.476   8.438   4.385  0.4475  0.4106 -0.2058
  205MOL0     C28190   3.576   8.364   4.282  0.1569 -0.0049 -0.8297
  205MOL0     C28191   3.695   8.297   4.359 -0.6037 -0.6036 -0.6390
  205MOL0     C28192   3.795   8.407   4.403  0.5265  0.6158  0.6790
  205MOL0     C28193   3.847   8.389   4.541 -0.2816 -0.0161 -0.6960
  205MOL0     C28194   3.924   8.252   4.545 -0.1625 -0.0333 -0.4780
  205MOL0     C28195   4.061   8.255   4.480  0.2578 -0.5626 -0.5864
  205MOL0     C28196   4.156   8.140   4.504  0.5909 -0.2068  0.2991
  205MOL0    Cl28197   4.312   8.184   4.409  0.9409  0.2283  0.1550
  205MOL0     C28198   3.165   8.520   4.460  0.1530 -0.1881  0.5260
  205MOL0     C28199   3.078   8.619   4.515 -0.0920  1.5055  0.9071
  205MOL0     O28200   2.882   8.881   4.361  0.1263 -0.2926  0.3586
  205MOL0     C28201   2.922   9.097   4.632  0.0234 -0.2926 -0.4817
  205MOL0     C28202   2.873   9.208   4.704  0.2036 -0.0309 -0.7299
  205MOL0     N28203   2.531   9.000   5.173 -0.3512 -0.4391  0.4046
  205MOL0     N28204   2.557   8.880   5.170 -0.2178 -0.4034 -0.1193
  205MOL0     C28205   3.604   8.642   4.852  0.2142  0.2340  0.3578
  205MOL0     C28206   3.735   8.610   4.899  0.1757  0.8253 -0.5673
  205MOL0     C28207   4.057   8.327   5.107  0.0771  0.0593 -0.0552
  205MOL0     C28208   4.181   8.369   5.063  0.1875  0.0893 -0.0452
  205MOL0     C28209   4.286   8.349   5.154 -0.2063  0.5225 -0.3277
  205MOL0     C28210   4.280   8.283   5.273  0.1521 -1.2917  0.3226
  205MOL0     O28211   4.388   8.281   5.359 -0.8442  0.3595  0.2414
  205MOL0     C28212   4.440   8.149   5.366  0.4747  0.7781  0.7306
  205MOL0     C28213   4.571   8.131   5.442 -0.1401  0.1294  0.9637
  205MOL0     C28214   4.597   8.229   5.557  0.1546 -0.2552  0.2574
  205MOL0     C28215   4.710   8.188   5.647  0.4056 -1.0905 -0.7414
  205MOL0     C28216   4.838   8.190   5.574  0.1641  0.5062  0.3032
  205MOL0     C28217   4.942   8.183   5.514  0.2174 -0.9656 -0.7023
  205MOL0     C28218   4.151   8.247   5.314  0.5209  0.2643 -0.2428
  205MOL0     C28219   4.033   8.271   5.231 -0.7950  0.3059 -0.3221
  205MOL0     C28220   3.899   8.219   5.272  0.1449 -0.3402  0.6367
  205MOL0     H28221   3.649   8.352   5.101  1.9346 -0.5028 -1.4289
  205MOL0     H28222   3.428   8.407   5.028 -0.3463 -1.2644 -2.0413
  205MOL0     H28223   3.262   8.607   5.012 -0.1563 -1.6423  0.1939
  205MOL0     H28224   3.214   8.494   4.878  0.6485  0.5425 -0.4606
  205MOL0     H28225   3.197   8.794   4.888 -0.3444  1.1152 -0.1874
  205MOL0     H28226   3.137   8.699   4.746 -0.7575  4.1238  0.5625
  205MOL0     H28227   2.967   8.587   4.865 -0.7047 -1.3656  2.6982
  205MOL0     H28228   3.016   8.666   5.020  1.4382 -2.9633  0.0201
  205MOL0     H28229   2.988   8.883   4.906 -0.5170  0.1061 -0.9595
  205MOL0     H28230   2.904   8.801   4.767 -0.8319 -0.9751  0.2232
  205MOL0     H28231   2.755   8.915   4.928  1.9782  0.5724  0.8998
  205MOL0     H28232   2.796   8.794   5.054  1.8258 -4.7451 -0.4389
  205MOL0     H28233   2.740   8.685   4.779 -0.2306  0.3448 -0.2880
  205MOL0     H28234   2.729   8.597   4.933  1.1342  0.4688 -0.1415
  205MOL0     H28235   2.512   8.670   4.800 -4.3652 -0.5493  2.9252
  205MOL0     H28236   2.559   8.831   4.844  3.0582 -0.0769 -2.0863
  205MOL0     H28237   2.389   8.665   4.988 -0.3798  1.8674 -3.3379
  205MOL0     H28238   2.542   8.621   5.060 -1.4604 -1.8792 -0.5169
  205MOL0     H28239   2.311   8.882   4.951  1.1476  0.2066 -0.6376
  205MOL0     H28240   2.392   9.228   5.154 -2.1130  0.2489  0.5340
  205MOL0     H28241   2.246   9.141   5.101 -0.0222 -1.5034  2.1694
  205MOL0     H28242   2.376   9.142   4.863  1.9790  0.7586  0.4785
  205MOL0     H28243   2.327   9.308   4.923 -2.3349 -1.2706 -0.8637
  205MOL0     H28244   2.567   9.315   5.017 -2.1778  0.3932  0.2815
  205MOL0     H28245   2.597   9.158   4.940 -1.7899 -1.2150  0.5449
  205MOL0     H28246   2.482   9.317   4.728 -2.6349  2.1476  1.3686
  205MOL0     H28247   2.530   9.444   4.830 -1.9194  0.5976 -1.4151
  205MOL0     H28248   2.551   9.164   4.600 -1.1079 -1.4930 -0.0113
  205MOL0     H28249   2.589   8.984   4.355  1.5569 -1.5542 -0.6006
  205MOL0     H28250   2.519   8.947   4.516  0.0811  1.3548  0.3443
  205MOL0     H28251   2.655   8.852   4.452  0.6701  0.0850 -0.2187
  205MOL0     H28252   3.172   8.882   4.335 -3.9815 -0.8226  0.1285
  205MOL0     H28253   3.339   8.708   4.248 -1.0732 -0.8446 -1.1402
  205MOL0     H28254   3.518   8.529   4.429 -1.6936  0.8915  1.0306
  205MOL0     H28255   3.466   8.379   4.477  2.4315 -0.4665 -0.5160
  205MOL0     H28256   3.531   8.279   4.231  1.9701 -0.9063 -1.0137
  205MOL0     H28257   3.617   8.436   4.211  1.5391  0.2710  0.1872
  205MOL0     H28258   3.753   8.230   4.295  1.6993 -0.7713  1.4612
  205MOL0     H28259   3.658   8.243   4.446  1.8147  1.8727  2.1569
  205MOL0     H28260   3.744   8.503   4.414 -1.7144 -0.5835  1.5250
  205MOL0     H28261   3.881   8.423   4.338  0.4210  1.1592  0.6678
  205MOL0     H28262   3.904   8.478   4.571 -0.9108 -0.0908  0.8115
  205MOL0     H28263   3.760   8.378   4.606 -0.8449  1.9009 -1.0572
  205MOL0     H28264   3.869   8.165   4.509  1.5165 -2.5723  2.5897
  205MOL0     H28265   3.945   8.229   4.649  0.4151  0.1102 -0.5567
  205MOL0     H28266   4.106   8.350   4.513  1.1122 -0.4265 -2.0275
  205MOL0     H28267   4.042   8.270   4.373  0.7875  1.6915 -0.4151
  205MOL0     H28268   4.107   8.050   4.467 -3.2889  2.2271 -1.0912
  205MOL0     H28269   4.174   8.125   4.610 -0.0768 -0.3777  0.3892
  205MOL0     H28270   3.150   8.416   4.487 -0.7670 -0.4533 -0.8994
  205MOL0     H28271   3.010   8.585   4.592 -0.9533  0.2942 -0.3358
  205MOL0     H28272   3.029   9.078   4.642 -0.3613 -2.5148 -0.0215
  205MOL0     H28273   2.919   9.281   4.770 -0.4289 -1.5799  1.5468
  205MOL0     H28274   3.595   8.726   4.783  1.5895  0.3375  0.2686
  205MOL0     H28275   3.827   8.663   4.875 -0.4393  1.3731 -1.8548
  205MOL0     H28276   4.182   8.421   4.968  1.0991 -0.1053 -0.1469
  205MOL0     H28277   4.384   8.387   5.125 -0.9580  0.4096 -3.3988
  205MOL0     H28278   4.359   8.101   5.423 -1.0940  0.6991 -1.4572
  205MOL0     H28279   4.439   8.106   5.266 -1.9110  0.6376  0.7510
  205MOL0     H28280   4.655   8.143   5.372 -0.3400  0.5469  0.7938
  205MOL0     H28281   4.580   8.027   5.475 -0.3670  0.1732  1.1617
  205MOL0     H28282   4.608   8.332   5.520 -4.6110 -0.5853 -2.9178
  205MOL0     H28283   4.506   8.234   5.617  0.3041 -1.7067  0.6487
  205MOL0     H28284   4.687   8.091   5.694 -1.2286 -1.4054 -2.0665
  205MOL0     H28285   4.713   8.256   5.732 -1.0226  0.0685 -1.5618
  205MOL0     H28286   5.031   8.188   5.455  0.2464  1.9817 -0.5541
  205MOL0     H28287   4.149   8.202   5.412 -1.9912  1.0018  0.1344
  205MOL0     H28288   3.862   8.295   5.341  1.9761 -1.4146  2.9215
  205MOL0     H28289   3.829   8.201   5.190  1.1993 -1.1254 -0.1354
  205MOL0     H28290   3.909   8.130   5.335  0.9047 -1.5199 -1.0612
  206MOL0     O28291   9.637   6.949   5.670  0.1630  0.1155  0.9742
  206MOL0     C28292   9.633   7.004   5.554 -0.4539 -0.2431  0.8261
  206MOL0     O28293   9.735   7.081   5.509 -0.5336 -0.3683 -0.6798
  206MOL0     C28294   9.841   7.109   5.594  0.0933  0.1411 -0.9385
  206MOL0     C28295   9.840   7.210   5.685  0.0122 -0.1416 -0.6491
  206MOL0     C28296   9.943   7.225   5.778  0.0988 -0.9462 -0.0859
  206MOL0     C28297  10.052   7.135   5.772 -0.3900 -0.2910 -0.5434
  206MOL0     O28298  10.158   7.166   5.862  0.2599  0.1127 -0.4945
  206MOL0     C28299  10.261   7.076   5.886 -0.4343  1.0190  0.1572
  206MOL0     C28300  10.332   7.119   6.009 -0.6603 -0.2780 -1.2413
  206MOL0     C28301  10.449   7.219   5.974 -0.5681  1.2912  0.2045
  206MOL0     C28302  10.557   7.222   6.088  0.4113 -0.0412  0.5043
  206MOL0     C28303  10.685   7.305   6.065  1.0051  0.2430 -0.0169
  206MOL0     C28304  10.800   7.256   6.141  0.3151  0.0989  0.7336
  206MOL0     C28305  10.927   7.345   6.120 -0.0156 -0.6536 -0.3445
  206MOL0     C28306  11.049   7.277   6.192  1.1408  0.0212 -0.2745
  206MOL0     N28307  11.155   7.372   6.213 -0.5202  0.2569  0.8003
  206MOL0     C28308  11.145   7.479   6.305 -0.4415 -0.5032  0.7097
  206MOL0     C28309  11.261   7.549   6.284 -0.8606 -0.2529 -1.3519
  206MOL0     C28310  11.312   7.662   6.360  0.0854  0.1540  1.2640
  206MOL0     C28311  11.409   7.750   6.281 -0.4119  0.2510  0.1470
  206MOL0     C28312  11.456   7.860   6.378  0.1116 -0.4558 -0.6416
  206MOL0     C28313  11.512   7.972   6.289  0.2589  0.6301 -1.0176
  206MOL0     O28314  11.628   7.915   6.215 -0.0859  0.0430 -0.3736
  206MOL0     C28315  11.726   8.002   6.171 -0.0118  0.1585  1.0389
  206MOL0     C28316  11.717   8.133   6.153  0.5996  0.2568  0.5062
  206MOL0     C28317  11.830   8.204   6.110 -0.7352 -0.3927  0.1487
  206MOL0     C28318  11.789   8.348   6.077  0.2249  0.2430 -0.1390
  206MOL0     C28319  11.948   8.138   6.073  0.3206  0.3096  0.0665
  206MOL0     C28320  12.081   8.203   6.042 -0.1704 -0.3030  0.1685
  206MOL0     O28321  12.161   8.130   5.970  0.9942  0.0412  0.6847
  206MOL0     C28322  12.284   8.178   5.941  0.2242  0.8016  0.3317
  206MOL0     C28323  12.316   8.253   5.832 -0.3103  0.1208  0.0701
  206MOL0     C28324  12.445   8.303   5.817  0.4617 -0.8692 -0.3509
  206MOL0     C28325  12.545   8.281   5.912 -0.6679  0.8263 -0.2838
  206MOL0     O28326  12.679   8.333   5.904  0.5352 -0.9439  0.1850
  206MOL0     C28327  12.685   8.466   5.850 -0.4965  0.1385 -0.1702
  206MOL0     C28328  12.823   8.527   5.888 -0.1803 -0.1830 -0.6278
  206MOL0     C28329  12.930   8.441   5.824 -0.6351 -0.6960  0.4505
  206MOL0     C28330  13.073   8.455   5.872 -0.2521 -0.0404 -0.1990
  206MOL0     C28331  13.141   8.326   5.837 -0.5294  0.9262  0.4038
  206MOL0     C28332  13.295   8.328   5.851 -0.2399  0.5061 -0.5143
  206MOL0     C28333  13.354   8.313   5.990  1.1693 -0.0811  0.6332
  206MOL0     C28334  13.508   8.298   5.985 -1.2062  0.2172  0.5107
  206MOL0    Cl28335  13.571   8.332   6.145  0.1029  0.2795 -0.2036
  206MOL0     C28336  12.511   8.201   6.022 -0.2012  0.5546 -0.5217
  206MOL0     C28337  12.383   8.147   6.036 -0.2886 -0.1333  0.7701
  206MOL0     O28338  12.109   8.308   6.099  0.6299  0.8703  0.0189
  206MOL0     C28339  11.952   8.003   6.093  0.3709  0.5652 -0.1268
  206MOL0     C28340  11.838   7.936   6.137 -0.2845  0.6979 -0.0214
  206MOL0     N28341  11.347   7.476   6.198 -0.0909  0.4447  0.7095
  206MOL0     N28342  11.271   7.381   6.147 -0.8718 -0.9138 -0.5302
  206MOL0     C28343  10.055   7.029   5.681  0.0253  1.2532 -0.5250
  206MOL0     C28344   9.946   7.022   5.591  0.0652 -0.0382  0.2658
  206MOL0     C28345   9.529   6.975   5.452 -0.4439  0.1495 -0.3080
  206MOL0     C28346   9.554   7.010   5.317 -0.3281 -0.0361  0.1209
  206MOL0     C28347   9.456   6.985   5.215 -0.2931  0.1077  0.8028
  206MOL0     C28348   9.335   6.917   5.246 -0.2355 -0.0436  0.3838
  206MOL0     O28349   9.249   6.871   5.143  0.5769  0.2085  0.2239
  206MOL0     C28350   9.155   6.956   5.093 -0.3467 -0.0170  0.1616
  206MOL0     C28351   9.061   7.027   5.189  0.3990  0.7901 -0.0864
  206MOL0     C28352   8.979   7.132   5.127  0.4006 -0.3916  0.2409
  206MOL0     C28353   8.864   7.073   5.047 -0.1700 -0.2299 -0.0601
  206MOL0     C28354   8.762   7.166   5.009  0.1174  0.0558 -0.1402
  206MOL0     C28355   8.669   7.232   4.971  0.5812 -0.2498 -0.0228
  206MOL0     C28356   9.307   6.884   5.377 -1.3875  0.7255  0.0408
  206MOL0     C28357   9.399   6.921   5.479 -0.8642  0.3828 -0.1931
  206MOL0     C28358   9.354   6.884   5.619  0.2051  0.1176 -0.6650
  206MOL0     H28359   9.748   7.267   5.687 -0.7279 -1.2193 -1.9506
  206MOL0     H28360   9.942   7.305   5.851  1.7436 -0.4514 -0.5513
  206MOL0     H28361  10.337   7.078   5.808 -0.0273  0.5080  0.5278
  206MOL0     H28362  10.222   6.975   5.903 -0.8170  1.5871  3.2497
  206MOL0     H28363  10.254   7.159   6.075  0.1022 -1.7497  0.6528
  206MOL0     H28364  10.372   7.033   6.063  0.9830 -0.4104 -2.5809
  206MOL0     H28365  10.495   7.188   5.879  0.4820  1.5765  0.6110
  206MOL0     H28366  10.400   7.316   5.965  2.8346  3.0312 -1.6504
  206MOL0     H28367  10.511   7.253   6.182 -0.9076 -0.5466  0.0556
  206MOL0     H28368  10.586   7.119   6.105  3.9628  0.9696  1.3386
  206MOL0     H28369  10.660   7.408   6.090 -0.4009 -0.0847 -0.0097
  206MOL0     H28370  10.704   7.299   5.957  1.4497 -0.0292  0.0748
  206MOL0     H28371  10.784   7.254   6.250 -1.6998 -0.8262  0.4713
  206MOL0     H28372  10.821   7.154   6.110  1.2002  0.9511 -1.7233
  206MOL0     H28373  10.920   7.438   6.177 -1.5514 -0.1059 -1.3602
  206MOL0     H28374  10.956   7.367   6.016 -1.5314 -1.1079 -0.8910
  206MOL0     H28375  11.016   7.226   6.284 -0.7020 -1.4401 -1.6678
  206MOL0     H28376  11.082   7.202   6.120  3.0370  2.6410 -2.3014
  206MOL0     H28377  11.067   7.501   6.377  0.2689 -0.9843  1.6490
  206MOL0     H28378  11.358   7.641   6.457  1.1277  0.8615  0.9305
  206MOL0     H28379  11.220   7.721   6.364 -0.8140 -1.0528 -0.4107
  206MOL0     H28380  11.502   7.699   6.256  0.0963  0.6700  1.1407
  206MOL0     H28381  11.356   7.786   6.192 -4.0691 -1.1173  1.5685
  206MOL0     H28382  11.372   7.906   6.432  0.1238 -0.4657 -0.6150
  206MOL0     H28383  11.528   7.818   6.449  0.8063  1.5885 -0.0413
  206MOL0     H28384  11.435   8.007   6.220 -0.3962 -2.4505 -1.9765
  206MOL0     H28385  11.535   8.062   6.347 -1.1305  0.8584 -0.7803
  206MOL0     H28386  11.625   8.189   6.169  1.3673  0.8713  3.1687
  206MOL0     H28387  11.735   8.390   6.163 -0.9246 -1.3408 -0.0445
  206MOL0     H28388  11.719   8.348   5.993  0.6468  1.5153 -0.5112
  206MOL0     H28389  11.875   8.412   6.056  1.4233 -1.4103 -0.3911
  206MOL0     H28390  12.245   8.250   5.750 -1.4133  0.8017  0.9765
  206MOL0     H28391  12.473   8.351   5.724 -1.1142  0.0259 -0.4065
  206MOL0     H28392  12.665   8.463   5.742 -4.7299  0.7225  0.3970
  206MOL0     H28393  12.606   8.527   5.895 -1.1092 -0.1678 -0.7982
  206MOL0     H28394  12.839   8.629   5.853  1.7417 -0.6839 -1.3481
  206MOL0     H28395  12.836   8.512   5.996  1.3043 -1.1838 -0.9150
  206MOL0     H28396  12.927   8.447   5.715 -0.2737 -2.2118  0.3273
  206MOL0     H28397  12.896   8.343   5.858 -2.5833 -0.1551  0.1507
  206MOL0     H28398  13.094   8.463   5.979 -1.1880 -0.9564  0.0593
  206MOL0     H28399  13.124   8.541   5.827  2.4285 -1.0548  0.7347
  206MOL0     H28400  13.086   8.246   5.887 -0.3512 -0.6711 -1.8411
  206MOL0     H28401  13.126   8.307   5.731  2.2248 -3.6594  0.5954
  206MOL0     H28402  13.334   8.417   5.801 -2.4675  0.2398 -2.9487
  206MOL0     H28403  13.325   8.240   5.792  1.1157 -0.2109  1.1627
  206MOL0     H28404  13.324   8.221   6.040  1.8885 -0.1401  0.9558
  206MOL0     H28405  13.327   8.404   6.045  2.0765 -0.0718  1.0831
  206MOL0     H28406  13.562   8.364   5.916 -0.8594 -0.3073  0.2774
  206MOL0     H28407  13.535   8.201   5.944 -1.1174  0.2409  0.5102
  206MOL0     H28408  12.585   8.190   6.101 -0.6896 -0.0055 -0.1399
  206MOL0     H28409  12.356   8.089   6.124  1.0491  0.8219  1.8489
  206MOL0     H28410  12.034   7.935   6.069 -1.7145 -2.3378  0.4711
  206MOL0     H28411  11.836   7.828   6.152 -1.2189  0.7239  0.1005
  206MOL0     H28412  10.141   6.963   5.677  0.8380  2.3161 -1.2898
  206MOL0     H28413   9.942   6.946   5.514 -1.8113  3.5255 -3.5257
  206MOL0     H28414   9.653   7.043   5.287 -0.5630 -0.0907 -0.7431
  206MOL0     H28415   9.472   7.017   5.113  1.6985  0.3044  1.1225
  206MOL0     H28416   9.216   7.040   5.058  0.4569 -0.1204  1.2687
  206MOL0     H28417   9.101   6.914   5.008 -2.0069  3.0141 -0.4267
  206MOL0     H28418   9.122   7.075   5.266 -0.0412  0.9197  0.1815
  206MOL0     H28419   8.994   6.949   5.227  2.3018 -1.3370 -0.8175
  206MOL0     H28420   8.935   7.189   5.210 -3.5536  1.4426 -2.7361
  206MOL0     H28421   9.029   7.198   5.056  0.8725  0.0507  0.9667
  206MOL0     H28422   8.807   7.002   5.107 -1.2635 -0.1268 -0.9429
  206MOL0     H28423   8.892   7.013   4.960  0.2995  0.9325 -0.7193
  206MOL0     H28424   8.583   7.285   4.936 -0.0531 -1.1256  0.1637
  206MOL0     H28425   9.216   6.833   5.406 -0.4277  0.1062  2.1338
  206MOL0     H28426   9.404   6.796   5.663  1.7803  0.6244 -1.3762
  206MOL0     H28427   9.363   6.968   5.688 -0.3701 -0.8054  0.5628
  206MOL0     H28428   9.247   6.863   5.613  0.2534  0.1241 -1.8720
  207MOL0     O28429  10.921   7.632   5.025 -0.9063 -0.1787 -0.5065
  207MOL0     C28430  10.937   7.709   4.932  0.4085  0.4146 -0.3433
  207MOL0     O28431  10.989   7.677   4.813  0.0334  0.0931  0.0092
  207MOL0     C28432  11.000   7.547   4.785 -0.6421  0.0649  0.2971
  207MOL0     C28433  10.929   7.490   4.677  0.2063 -0.1099 -0.9330
  207MOL0     C28434  10.947   7.357   4.634 -0.5521 -1.0865  0.2469
  207MOL0     C28435  11.028   7.269   4.707  0.5550 -0.4139  0.0605
  207MOL0     O28436  11.053   7.138   4.669 -0.4075  0.2874 -0.2053
  207MOL0     C28437  10.995   7.080   4.552 -0.3136 -0.2328  0.3542
  207MOL0     C28438  11.059   6.940   4.533 -0.4497  0.0890 -0.0483
  207MOL0     C28439  10.993   6.837   4.619  0.4689  0.7330  1.2381
  207MOL0     C28440  11.020   6.684   4.594  0.2659 -0.2843  0.0234
  207MOL0     C28441  11.171   6.648   4.589 -0.1704 -1.0603 -0.3492
  207MOL0     C28442  11.201   6.511   4.530  0.6660 -0.1895  0.1039
  207MOL0     C28443  11.349   6.499   4.476  0.4298 -0.4153  0.3204
  207MOL0     C28444  11.381   6.358   4.423 -0.1185 -1.5321 -0.2085
  207MOL0     N28445  11.387   6.257   4.535  0.5709  0.9527 -0.4773
  207MOL0     C28446  11.294   6.157   4.561 -0.7393  0.3800  0.6934
  207MOL0     C28447  11.346   6.092   4.672 -0.3403 -0.4006 -0.1059
  207MOL0     C28448  11.272   5.978   4.728  0.5911 -0.4122 -0.2615
  207MOL0     C28449  11.164   6.028   4.819 -0.2777  0.4232  0.3108
  207MOL0     C28450  11.205   6.095   4.948 -0.6326  0.6845  0.0695
  207MOL0     C28451  11.277   6.002   5.050  0.0587  0.0788 -0.3999
  207MOL0     O28452  11.301   6.076   5.168  0.0719 -0.0932  0.1513
  207MOL0     C28453  11.429   6.121   5.182 -0.4171 -0.0578 -0.1456
  207MOL0     C28454  11.521   6.140   5.069 -0.4823 -0.2030 -1.1926
  207MOL0     C28455  11.649   6.195   5.087 -0.1897 -0.0539  0.4798
  207MOL0     C28456  11.729   6.202   4.959 -0.1128 -0.0395 -0.2579
  207MOL0     C28457  11.691   6.226   5.219  0.0005  0.0392 -0.3086
  207MOL0     C28458  11.826   6.265   5.253  0.5419 -0.0626  1.2906
  207MOL0     O28459  11.908   6.292   5.157  0.1106  0.8024  0.7073
  207MOL0     C28460  12.045   6.294   5.171 -0.6490  0.5557  0.0531
  207MOL0     C28461  12.115   6.229   5.075 -1.1620  0.1207  0.5850
  207MOL0     C28462  12.256   6.225   5.081 -0.8379 -0.4381  0.0514
  207MOL0     C28463  12.326   6.286   5.193  0.0323  0.0127 -0.3646
  207MOL0     O28464  12.459   6.292   5.182  0.2996 -0.3853 -0.4290
  207MOL0     C28465  12.536   6.328   5.301 -0.0137  0.0734  0.5247
  207MOL0     C28466  12.684   6.288   5.298  0.0493 -0.1146  0.0663
  207MOL0     C28467  12.765   6.402   5.234 -0.0147 -0.1637  0.6167
  207MOL0     C28468  12.922   6.391   5.257  0.0608 -0.0860 -0.8129
  207MOL0     C28469  12.986   6.529   5.259  0.2780 -0.3394  0.0910
  207MOL0     C28470  13.120   6.544   5.322  0.0782 -0.2864  0.4407
  207MOL0     C28471  13.236   6.500   5.241 -0.0395 -0.2003  0.7970
  207MOL0     C28472  13.372   6.478   5.314 -0.0939 -0.0799  0.1523
  207MOL0    Cl28473  13.452   6.618   5.374  0.1287 -0.1715 -0.2636
  207MOL0     C28474  12.247   6.359   5.283  0.0130  0.8226 -0.3098
  207MOL0     C28475  12.110   6.368   5.272  0.2736 -0.9095 -0.6307
  207MOL0     O28476  11.856   6.263   5.375 -0.3815  0.3504  0.4222
  207MOL0     C28477  11.603   6.216   5.327  0.1242 -0.6836  0.3290
  207MOL0     C28478  11.479   6.161   5.313  0.5027 -0.8085  0.1587
  207MOL0     N28479  11.473   6.143   4.700  0.0825 -0.2700  0.0701
  207MOL0     N28480  11.495   6.241   4.618  0.3510  0.0967  0.6476
  207MOL0     C28481  11.088   7.321   4.825 -0.2234  0.2608  0.7095
  207MOL0     C28482  11.083   7.458   4.856 -0.0388 -0.0495  0.6013
  207MOL0     C28483  10.890   7.850   4.947  0.4949 -0.3998 -0.4625
  207MOL0     C28484  10.922   7.943   4.843  1.0053  0.4036 -0.6495
  207MOL0     C28485  10.891   8.079   4.858  1.1534  0.0857 -0.2326
  207MOL0     C28486  10.816   8.125   4.964 -1.1647  0.0946  0.5708
  207MOL0     O28487  10.787   8.262   4.979  0.3199 -0.0901 -0.8061
  207MOL0     C28488  10.803   8.362   4.874  0.7970  0.7873 -0.4312
  207MOL0     C28489  10.684   8.451   4.889  0.1269 -0.6869  0.7612
  207MOL0     C28490  10.670   8.561   4.788 -0.4623 -0.1027  0.0194
  207MOL0     C28491  10.694   8.697   4.845  0.8546  0.3805 -0.1536
  207MOL0     C28492  10.728   8.792   4.740  0.0237  1.4236  0.0259
  207MOL0     C28493  10.738   8.877   4.656 -0.2959 -0.6314  0.0959
  207MOL0     C28494  10.759   8.034   5.051  0.0722 -0.0577  0.0142
  207MOL0     C28495  10.812   7.903   5.058  0.2396 -0.0088 -0.3878
  207MOL0     C28496  10.768   7.815   5.170  0.0515 -0.1588  0.2841
  207MOL0     H28497  10.871   7.570   4.634 -1.0096 -1.0278 -1.0529
  207MOL0     H28498  10.881   7.328   4.553 -4.3518  0.1034  2.6431
  207MOL0     H28499  11.006   7.150   4.469 -2.4916  3.1440  2.6588
  207MOL0     H28500  10.887   7.066   4.562 -0.5501  0.6233 -0.7723
  207MOL0     H28501  11.030   6.921   4.429 -0.9929 -0.1433  0.1397
  207MOL0     H28502  11.167   6.931   4.543 -0.1388  0.3681 -2.5086
  207MOL0     H28503  11.037   6.855   4.718  1.1624  1.2088  0.8460
  207MOL0     H28504  10.884   6.846   4.618 -0.3036 -4.4227 -2.5682
  207MOL0     H28505  10.965   6.618   4.661  2.0299 -3.0165 -1.0578
  207MOL0     H28506  10.981   6.656   4.496  1.6565 -1.8634 -0.1234
  207MOL0     H28507  11.220   6.655   4.687 -1.2699  1.3861  0.1076
  207MOL0     H28508  11.227   6.714   4.522  2.4224 -2.3189  0.4372
  207MOL0     H28509  11.170   6.432   4.600 -1.4108  2.4036  2.3618
  207MOL0     H28510  11.132   6.494   4.447 -1.3755  1.4275  1.3517
  207MOL0     H28511  11.423   6.517   4.555 -0.9674  2.3468  1.0966
  207MOL0     H28512  11.374   6.573   4.399  2.3007  0.1661  1.4227
  207MOL0     H28513  11.308   6.349   4.342  0.0193  0.5533 -0.6258
  207MOL0     H28514  11.481   6.363   4.379  0.7005 -1.2403  1.5852
  207MOL0     H28515  11.210   6.134   4.498 -0.3078  0.4395  0.0840
  207MOL0     H28516  11.341   5.915   4.784 -0.8669 -1.0707  0.8582
  207MOL0     H28517  11.232   5.913   4.650 -0.7565  1.2333 -1.0228
  207MOL0     H28518  11.102   6.098   4.762 -2.3202  0.3543  2.3260
  207MOL0     H28519  11.101   5.942   4.842  0.7681 -0.7803 -1.1342
  207MOL0     H28520  11.273   6.177   4.921 -0.8273  1.3355  1.5103
  207MOL0     H28521  11.119   6.139   4.999 -2.0474  1.5232 -2.8224
  207MOL0     H28522  11.216   5.913   5.066  1.8616 -1.0720  0.2829
  207MOL0     H28523  11.368   5.963   5.003  0.8090  1.1660  0.1028
  207MOL0     H28524  11.486   6.134   4.966 -0.8165  0.8908 -1.1589
  207MOL0     H28525  11.669   6.174   4.872 -2.2225  2.6467  0.1968
  207MOL0     H28526  11.817   6.137   4.963  0.2466  0.4855  0.4417
  207MOL0     H28527  11.766   6.303   4.940  4.4342 -1.1820  1.3903
  207MOL0     H28528  12.058   6.175   5.000 -1.1042  0.4331  0.3186
  207MOL0     H28529  12.312   6.187   4.996  1.0898 -3.5263  2.4729
  207MOL0     H28530  12.528   6.435   5.321 -1.1714 -0.0922  1.0114
  207MOL0     H28531  12.490   6.275   5.385  0.3927 -1.8140 -0.3799
  207MOL0     H28532  12.722   6.272   5.399  0.9908 -0.6359 -0.3633
  207MOL0     H28533  12.692   6.199   5.235 -3.6335 -0.6587  0.1072
  207MOL0     H28534  12.722   6.487   5.288  1.1526 -1.0957  3.1867
  207MOL0     H28535  12.747   6.414   5.127  1.3588 -0.6181  0.3227
  207MOL0     H28536  12.972   6.320   5.192 -0.4675 -2.3226  1.1045
  207MOL0     H28537  12.941   6.371   5.363 -0.6070  0.7395 -0.5149
  207MOL0     H28538  12.995   6.576   5.161  1.3384 -0.3870  0.1473
  207MOL0     H28539  12.926   6.596   5.321  1.8593  0.9397  0.3348
  207MOL0     H28540  13.123   6.486   5.415  0.9337 -1.7113 -0.4256
  207MOL0     H28541  13.134   6.647   5.356  0.4054 -0.5867  1.2431
  207MOL0     H28542  13.267   6.571   5.164  2.4971  0.0134  1.9271
  207MOL0     H28543  13.208   6.403   5.199  0.4581  0.4830 -1.2032
  207MOL0     H28544  13.442   6.428   5.246  0.8033  0.5726  0.5789
  207MOL0     H28545  13.353   6.420   5.405 -0.6089  1.6741  1.2086
  207MOL0     H28546  12.279   6.404   5.376 -2.0213  3.9831 -1.0122
  207MOL0     H28547  12.052   6.425   5.344  1.6037  0.9384 -0.9262
  207MOL0     H28548  11.634   6.231   5.430  0.6268 -1.7272  0.3405
  207MOL0     H28549  11.413   6.155   5.399 -2.5358 -0.2524 -1.9386
  207MOL0     H28550  11.165   7.270   4.881 -1.2752 -0.3808  1.6077
  207MOL0     H28551  11.137   7.484   4.947  1.9825 -0.4310 -0.4431
  207MOL0     H28552  10.983   7.921   4.756  1.7229 -0.8593  0.1272
  207MOL0     H28553  10.934   8.146   4.784  2.9852 -0.7296  0.0475
  207MOL0     H28554  10.894   8.422   4.884 -1.0579  3.8692 -0.3545
  207MOL0     H28555  10.800   8.314   4.776  2.6560 -0.5691  0.1274
  207MOL0     H28556  10.692   8.488   4.992  0.3120 -1.5868  1.0850
  207MOL0     H28557  10.587   8.401   4.892 -1.5623  2.2741 -0.6163
  207MOL0     H28558  10.742   8.539   4.709 -0.2648 -0.5169  0.3136
  207MOL0     H28559  10.579   8.573   4.729 -1.0196  1.4387  1.1329
  207MOL0     H28560  10.776   8.700   4.918 -1.3686  0.6964  2.4983
  207MOL0     H28561  10.604   8.718   4.904  2.2324  1.9160  1.5171
  207MOL0     H28562  10.745   8.958   4.586 -0.6015 -2.4500 -2.1289
  207MOL0     H28563  10.686   8.061   5.127 -1.3009 -2.2974 -0.4071
  207MOL0     H28564  10.703   7.735   5.135  0.2024 -0.2012  0.0975
  207MOL0     H28565  10.847   7.773   5.232 -2.7029 -1.3688  3.2741
  207MOL0     H28566  10.705   7.869   5.242  2.1835  0.8816  1.4578
  208MOL0     O28567   0.480   9.045   9.170 -0.1599  0.4319  0.4249
  208MOL0     C28568   0.361   9.039   9.200 -0.8627  0.0056  1.0780
  208MOL0     O28569   0.311   9.053   9.329  0.1773  0.3193 -0.1219
  208MOL0     C28570   0.393   9.030   9.434  0.4552 -0.1271  0.3761
  208MOL0     C28571   0.390   8.917   9.519  0.1100  0.4566  1.3990
  208MOL0     C28572   0.490   8.894   9.612 -0.6981  0.7290  0.0298
  208MOL0     C28573   0.606   8.975   9.622 -0.1246 -0.1445 -0.5446
  208MOL0     O28574   0.714   8.955   9.702 -0.1809 -0.4704 -0.7287
  208MOL0     C28575   0.684   8.955   9.845  0.1352 -0.4652  0.5093
  208MOL0     C28576   0.641   9.085   9.909 -0.7376 -0.0645  0.0901
  208MOL0     C28577   0.586   9.087  10.049  0.2340  0.7850 -0.4117
  208MOL0     C28578   0.662   9.001  10.155  0.0529  0.4746  0.0027
  208MOL0     C28579   0.615   9.028  10.296 -0.9505 -0.5513 -0.3492
  208MOL0     C28580   0.469   8.998  10.323  0.4234 -0.7557  0.4309
  208MOL0     C28581   0.445   9.027  10.471  0.4595 -0.2085 -0.2115
  208MOL0     C28582   0.333   8.938  10.525 -0.1164  0.5243  0.5115
  208MOL0     N28583   0.308   8.963  10.667 -0.5182  0.6611  0.0770
  208MOL0     C28584   0.329   9.076  10.734  1.0406 -0.5820 -0.0642
  208MOL0     C28585   0.305   9.047  10.863 -0.3736  0.3493 -0.3186
  208MOL0     C28586   0.321   9.151  10.969  0.0880  0.3832  0.2495
  208MOL0     C28587   0.462   9.194  10.983 -0.1736 -0.2213  0.0237
  208MOL0     C28588   0.546   9.112  11.088 -0.1953 -0.0920  0.3440
  208MOL0     C28589   0.610   8.987  11.014 -0.1536 -0.4448 -0.0751
  208MOL0     O28590   0.704   9.021  10.911 -0.3372  0.5093  0.9908
  208MOL0     C28591   0.839   9.014  10.936 -0.3776 -1.1231  0.9995
  208MOL0     C28592   0.899   9.021  11.060 -0.4465 -0.0725  0.8981
  208MOL0     C28593   1.042   8.994  11.077 -0.0904 -0.4088  0.6299
  208MOL0     C28594   1.094   8.966  11.213  0.5213 -0.5882  0.7429
  208MOL0     C28595   1.121   8.992  10.956 -0.7370  0.0288 -0.4772
  208MOL0     C28596   1.271   8.985  10.959 -0.1943 -0.4601 -0.6848
  208MOL0     O28597   1.338   8.965  10.844 -0.2536 -0.1022 -0.2480
  208MOL0     C28598   1.479   8.959  10.840 -0.4077  0.0874 -0.7389
  208MOL0     C28599   1.552   8.890  10.932 -0.1328  0.6667  0.3755
  208MOL0     C28600   1.691   8.886  10.934  0.1750  0.6558  0.8543
  208MOL0     C28601   1.759   8.946  10.836  0.4420 -0.3212 -0.6921
  208MOL0     O28602   1.893   8.941  10.817  0.0629 -0.1545  0.3466
  208MOL0     C28603   1.963   9.036  10.882 -0.5133 -0.4232 -0.3934
  208MOL0     C28604   2.110   9.022  10.855 -0.3302 -0.7404 -0.1497
  208MOL0     C28605   2.180   8.900  10.917  0.4529  0.0788 -0.3079
  208MOL0     C28606   2.327   8.869  10.870 -0.0429 -0.0395 -0.2020
  208MOL0     C28607   2.432   8.980  10.890 -0.4081  0.3452 -0.1811
  208MOL0     C28608   2.555   8.964  10.799  0.6876 -0.2945 -0.3532
  208MOL0     C28609   2.639   9.097  10.794  1.1517  0.4498  0.1287
  208MOL0     C28610   2.756   9.081  10.694  0.8313  0.5610 -0.4474
  208MOL0    Cl28611   2.798   9.250  10.624 -0.2878 -0.4270  0.3081
  208MOL0     C28612   1.699   9.013  10.733  0.4544 -0.0202 -0.3980
  208MOL0     C28613   1.552   9.022  10.738  0.2680  0.0514 -0.2198
  208MOL0     O28614   1.328   9.009  11.071 -0.0290  0.3904  0.3071
  208MOL0     C28615   1.052   9.004  10.832  0.1686 -0.0780  0.7036
  208MOL0     C28616   0.911   9.018  10.822 -0.4847  0.0788 -0.0919
  208MOL0     N28617   0.270   8.917  10.874 -1.2510 -0.1106  0.2268
  208MOL0     N28618   0.275   8.861  10.752 -0.1232 -0.8367  1.1616
  208MOL0     C28619   0.604   9.092   9.544 -0.3707  0.9919  0.1755
  208MOL0     C28620   0.501   9.116   9.456 -0.4382 -0.0500 -0.4378
  208MOL0     C28621   0.261   9.024   9.076  0.4775 -0.2247 -0.0748
  208MOL0     C28622   0.317   8.994   8.952  0.2022  0.5445  0.7205
  208MOL0     C28623   0.238   8.967   8.836 -0.0446  0.2243 -0.3822
  208MOL0     C28624   0.099   8.991   8.842 -0.4047  0.5783  0.8648
  208MOL0     O28625   0.019   8.985   8.730 -0.0973  0.0162  0.2880
  208MOL0     C28626  -0.093   9.077   8.724  0.0179 -0.8004  1.0614
  208MOL0     C28627  -0.145   9.085   8.580 -0.5221  0.2324 -0.4431
  208MOL0     C28628  -0.245   9.207   8.560 -0.6482  0.6615  0.9578
  208MOL0     C28629  -0.258   9.206   8.398 -0.1283  0.1545  0.2016
  208MOL0     C28630  -0.356   9.312   8.360 -0.2110 -0.7348  0.2067
  208MOL0     C28631  -0.423   9.405   8.314 -0.0893  0.0431  0.5644
  208MOL0     C28632   0.050   9.024   8.965  0.6804 -0.5639  0.1578
  208MOL0     C28633   0.123   9.036   9.083  0.4255 -0.9789 -0.3412
  208MOL0     C28634   0.054   9.064   9.211  0.3266  0.7490  0.2922
  208MOL0     H28635   0.309   8.846   9.503  2.0831 -1.3551 -1.7390
  208MOL0     H28636   0.485   8.803   9.671  1.5510  0.3392 -0.3031
  208MOL0     H28637   0.773   8.919   9.897  0.2007  1.0162  1.4840
  208MOL0     H28638   0.606   8.882   9.867  1.9273 -2.3443  0.8740
  208MOL0     H28639   0.727   9.152   9.901 -2.6808  2.3477 -2.3195
  208MOL0     H28640   0.556   9.125   9.852 -0.9526 -0.3148  0.2331
  208MOL0     H28641   0.575   9.190  10.083 -3.0533  0.5709 -0.5815
  208MOL0     H28642   0.483   9.053  10.040 -0.1633  1.1970  2.0185
  208MOL0     H28643   0.620   8.902  10.135 -0.9268  0.5697  1.4527
  208MOL0     H28644   0.771   9.003  10.143  0.1093  1.2783  0.5907
  208MOL0     H28645   0.638   9.130  10.330 -1.0049 -1.7527  3.9393
  208MOL0     H28646   0.665   8.961  10.366  0.1279  0.7871  0.1957
  208MOL0     H28647   0.396   9.059  10.268  0.4325 -1.6265 -0.5719
  208MOL0     H28648   0.442   8.899  10.287  1.2708 -1.0386  0.5572
  208MOL0     H28649   0.408   9.129  10.476 -1.1605 -0.8178  1.8878
  208MOL0     H28650   0.531   9.009  10.536  0.2007 -1.6529 -0.2273
  208MOL0     H28651   0.245   8.960  10.463 -1.5844  0.8041  2.5866
  208MOL0     H28652   0.355   8.833  10.504 -1.3838  0.5918 -1.4328
  208MOL0     H28653   0.340   9.175  10.692 -1.7813 -0.4621 -0.7348
  208MOL0     H28654   0.277   9.119  11.064  2.1925  1.2010  1.5624
  208MOL0     H28655   0.272   9.245  10.942  0.6872  0.8004  0.6007
  208MOL0     H28656   0.519   9.207  10.890 -1.5681  0.4320 -0.7736
  208MOL0     H28657   0.468   9.290  11.034  0.9166 -2.4513  4.5701
  208MOL0     H28658   0.625   9.175  11.130  1.6142 -2.0606  0.1099
  208MOL0     H28659   0.489   9.079  11.174 -2.2730  0.3574 -0.7970
  208MOL0     H28660   0.653   8.922  11.091 -0.7107 -2.0167 -1.0401
  208MOL0     H28661   0.526   8.929  10.975 -1.0739  0.2529  0.8159
  208MOL0     H28662   0.838   9.040  11.148 -2.9577 -1.1400 -0.5321
  208MOL0     H28663   1.155   8.875  11.206 -0.6939 -1.3289 -0.6028
  208MOL0     H28664   1.009   8.959  11.282  1.6005 -0.8096  2.0961
  208MOL0     H28665   1.159   9.044  11.255  0.2072 -0.5381  1.1402
  208MOL0     H28666   1.512   8.830  11.014  1.3433 -1.8753 -0.6336
  208MOL0     H28667   1.753   8.846  11.014 -0.4991  2.1335  2.1697
  208MOL0     H28668   1.939   9.138  10.853  0.4281  0.5286  1.9288
  208MOL0     H28669   1.942   9.040  10.990  0.7402  2.0518 -0.1779
  208MOL0     H28670   2.132   9.016  10.749  3.2301  3.1156  0.0984
  208MOL0     H28671   2.147   9.116  10.898  1.0841 -2.7482  3.4712
  208MOL0     H28672   2.114   8.816  10.892  0.9980 -0.1609 -0.9857
  208MOL0     H28673   2.179   8.918  11.025 -1.8597 -0.3633 -0.1916
  208MOL0     H28674   2.309   8.844  10.765 -2.1894 -0.5072  0.2146
  208MOL0     H28675   2.375   8.783  10.917 -0.7772 -1.1979 -1.4658
  208MOL0     H28676   2.374   9.072  10.880 -1.4320  0.0252  2.1122
  208MOL0     H28677   2.464   8.982  10.995 -0.0825 -0.1913 -0.2656
  208MOL0     H28678   2.531   8.922  10.701 -0.0834  1.2093 -0.8537
  208MOL0     H28679   2.628   8.897  10.845  1.6239  0.4047 -0.7821
  208MOL0     H28680   2.673   9.129  10.893  2.9661  2.1300 -0.9631
  208MOL0     H28681   2.564   9.171  10.765 -1.0423 -1.7270 -0.0897
  208MOL0     H28682   2.722   9.015  10.614  0.4285  0.5414 -0.2614
  208MOL0     H28683   2.838   9.041  10.753 -1.8214  0.4827  3.5671
  208MOL0     H28684   1.757   9.063  10.657 -1.4779  1.0429 -1.2277
  208MOL0     H28685   1.503   9.079  10.659 -2.4543  0.3452  1.5519
  208MOL0     H28686   1.114   8.991  10.744  0.0291 -4.6470  1.0290
  208MOL0     H28687   0.865   9.023  10.724  0.8821 -1.8147 -0.8915
  208MOL0     H28688   0.690   9.158   9.549  2.0342 -1.5974 -2.7511
  208MOL0     H28689   0.493   9.204   9.392 -1.7148 -0.4867 -0.9149
  208MOL0     H28690   0.421   8.968   8.934 -0.9599 -3.5025 -1.3037
  208MOL0     H28691   0.279   8.935   8.741 -1.6815  1.1541 -1.4356
  208MOL0     H28692  -0.169   9.047   8.796  0.9637  0.9126  2.8866
  208MOL0     H28693  -0.046   9.173   8.749  2.4431 -0.5233 -3.4330
  208MOL0     H28694  -0.203   8.998   8.549 -0.3145  0.4777 -1.5360
  208MOL0     H28695  -0.056   9.085   8.518 -1.0169  2.6864 -1.2785
  208MOL0     H28696  -0.340   9.195   8.613 -0.4225 -2.4646  0.8789
  208MOL0     H28697  -0.203   9.302   8.595 -0.4976  0.8534  0.2613
  208MOL0     H28698  -0.311   9.115   8.368 -0.5491  1.0707 -2.0290
  208MOL0     H28699  -0.160   9.212   8.351 -1.2751  2.7009 -2.1131
  208MOL0     H28700  -0.472   9.494   8.281 -1.0863 -1.2658 -1.6673
  208MOL0     H28701  -0.057   9.026   8.982  0.7808 -2.6086  1.3173
  208MOL0     H28702  -0.045   9.106   9.188  1.0654  0.9691 -2.9242
  208MOL0     H28703   0.060   8.971   9.268  2.2309 -2.0452 -3.9660
  208MOL0     H28704   0.097   9.144   9.272 -2.2205  2.7917 -0.3560
  209MOL0     O28705   5.638   6.084   1.944  0.0528  0.1055 -0.2710
  209MOL0     C28706   5.613   6.203   1.928 -0.8423  0.6013 -0.5020
  209MOL0     O28707   5.707   6.302   1.918  0.5836 -0.5158 -0.4853
  209MOL0     C28708   5.832   6.263   1.874 -0.0629  0.3220  0.4351
  209MOL0     C28709   5.932   6.212   1.966  0.2058 -0.3131  0.5575
  209MOL0     C28710   6.062   6.190   1.922  0.1299 -0.3919 -0.4939
  209MOL0     C28711   6.101   6.214   1.790  0.6340 -0.0288  0.2374
  209MOL0     O28712   6.232   6.199   1.748 -0.7604 -0.9449 -0.0108
  209MOL0     C28713   6.335   6.167   1.833 -0.4076  0.2362  0.4389
  209MOL0     C28714   6.379   6.291   1.908  0.1689  0.1153 -1.0726
  209MOL0     C28715   6.499   6.289   1.999  0.8692 -0.4290  0.0937
  209MOL0     C28716   6.629   6.232   1.948  0.5979 -0.6423 -0.0204
  209MOL0     C28717   6.685   6.331   1.847 -0.2007  0.2058 -0.1046
  209MOL0     C28718   6.820   6.278   1.783  0.5300  0.0463  0.2893
  209MOL0     C28719   6.802   6.161   1.686 -0.1265 -0.0229  0.8923
  209MOL0     C28720   6.931   6.126   1.609  0.2723  0.5526 -0.6006
  209MOL0     N28721   7.057   6.107   1.676 -0.6773  0.2784  0.3099
  209MOL0     C28722   7.076   6.009   1.769  0.2317 -0.4933 -0.1675
  209MOL0     C28723   7.208   6.023   1.794 -0.0911 -0.7750  0.0169
  209MOL0     C28724   7.281   5.952   1.903  0.0122 -0.1664 -0.6212
  209MOL0     C28725   7.287   5.796   1.891 -0.6178 -0.3171 -0.5341
  209MOL0     C28726   7.425   5.732   1.873 -0.2059 -0.3150  0.4296
  209MOL0     C28727   7.509   5.731   2.006  0.2708 -0.0826  0.0233
  209MOL0     O28728   7.612   5.836   2.008  0.3499 -1.0484  0.0372
  209MOL0     C28729   7.723   5.820   2.081  0.8629 -0.3886  0.0854
  209MOL0     C28730   7.750   5.715   2.165  0.7427  0.0048  0.1338
  209MOL0     C28731   7.869   5.700   2.241 -0.3895  0.1363 -0.2715
  209MOL0     C28732   7.883   5.581   2.350 -1.7559  0.7071  0.5735
  209MOL0     C28733   7.955   5.814   2.239  0.1027 -0.0311  0.1339
  209MOL0     C28734   8.081   5.814   2.310 -0.4254 -0.3190 -0.1454
  209MOL0     O28735   8.134   5.693   2.340 -1.2042 -0.9194 -0.6328
  209MOL0     C28736   8.259   5.691   2.396 -0.7818 -0.1438 -0.2030
  209MOL0     C28737   8.269   5.640   2.526  0.0777  0.5079 -0.7684
  209MOL0     C28738   8.393   5.636   2.592 -0.3842 -0.7660 -0.2360
  209MOL0     C28739   8.512   5.682   2.532  0.1911 -0.7663  0.7894
  209MOL0     O28740   8.633   5.672   2.599 -1.1723  0.8469  0.7106
  209MOL0     C28741   8.680   5.532   2.608 -0.3206 -0.2596 -0.3810
  209MOL0     C28742   8.828   5.525   2.650  0.3645  0.0746 -0.5202
  209MOL0     C28743   8.856   5.376   2.652 -0.1511 -0.4759 -0.1533
  209MOL0     C28744   9.001   5.326   2.618  0.2210  0.1165  0.4381
  209MOL0     C28745   9.032   5.177   2.665 -0.3336 -0.0243 -0.1951
  209MOL0     C28746   9.171   5.135   2.603 -0.6465 -0.6403 -0.7723
  209MOL0     C28747   9.210   4.997   2.662  0.3231  0.6815  0.0849
  209MOL0     C28748   9.353   4.967   2.635 -0.7044  0.0405 -0.5553
  209MOL0    Cl28749   9.470   5.057   2.751 -0.2796  0.1861  0.3575
  209MOL0     C28750   8.501   5.718   2.398  1.0085  1.0086 -0.0184
  209MOL0     C28751   8.372   5.734   2.335  0.4461  0.3748  0.6415
  209MOL0     O28752   8.133   5.926   2.331  0.2931  0.3328 -0.9152
  209MOL0     C28753   7.915   5.934   2.176  0.1185 -1.1894 -0.1535
  209MOL0     C28754   7.802   5.929   2.095 -1.1605 -0.4934  0.5301
  209MOL0     N28755   7.262   6.120   1.719 -0.7614 -0.0096  0.1820
  209MOL0     N28756   7.170   6.175   1.651  0.4852 -0.0190 -0.5313
  209MOL0     C28757   6.001   6.254   1.700 -0.9224  0.1125 -0.5852
  209MOL0     C28758   5.874   6.281   1.743 -0.0052 -0.0505  0.8324
  209MOL0     C28759   5.468   6.230   1.949 -0.7812  0.8414 -0.5919
  209MOL0     C28760   5.425   6.356   2.001 -0.1834 -1.0248 -0.1384
  209MOL0     C28761   5.289   6.389   2.018  0.0760  0.5160  0.1979
  209MOL0     C28762   5.192   6.303   1.983 -0.5977 -0.0539 -0.0888
  209MOL0     O28763   5.069   6.345   2.015 -0.7262 -0.0402  0.5136
  209MOL0     C28764   4.977   6.255   2.079 -0.3000  0.3542 -0.7938
  209MOL0     C28765   5.013   6.228   2.226 -0.2129  0.1344  0.1366
  209MOL0     C28766   4.914   6.139   2.298  0.4871  0.0930 -1.0463
  209MOL0     C28767   4.965   6.117   2.441 -0.7908  0.7533  0.1989
  209MOL0     C28768   4.868   6.046   2.521  0.2316 -0.0056 -0.3025
  209MOL0     C28769   4.781   5.975   2.568  0.0826  0.7587  0.6239
  209MOL0     C28770   5.227   6.180   1.935  0.2631  0.3468 -0.1718
  209MOL0     C28771   5.356   6.134   1.919  0.1901 -0.0384  0.2580
  209MOL0     C28772   5.374   6.000   1.853 -0.1622  0.8679  0.5811
  209MOL0     H28773   5.907   6.212   2.072  0.7302 -0.4743  0.6873
  209MOL0     H28774   6.134   6.155   1.995  0.5616 -1.3508 -1.3505
  209MOL0     H28775   6.409   6.117   1.771 -0.8269 -1.3713  1.1804
  209MOL0     H28776   6.307   6.093   1.909  0.3038  0.3323  0.8003
  209MOL0     H28777   6.405   6.375   1.841  1.6600 -0.1028 -0.7964
  209MOL0     H28778   6.295   6.332   1.965  1.0581  2.2525 -1.1669
  209MOL0     H28779   6.515   6.392   2.035  2.2157  0.2563 -2.2261
  209MOL0     H28780   6.472   6.228   2.086 -1.0054 -0.1797 -0.2731
  209MOL0     H28781   6.699   6.213   2.030  0.3886  1.5114  0.7082
  209MOL0     H28782   6.600   6.141   1.895 -2.5230 -1.8057  3.2866
  209MOL0     H28783   6.700   6.429   1.893  0.6033 -0.5114  1.2297
  209MOL0     H28784   6.611   6.342   1.768  0.8855  1.5409 -0.9860
  209MOL0     H28785   6.858   6.363   1.725 -0.4340  0.7120  0.5969
  209MOL0     H28786   6.892   6.253   1.861  1.7869  4.1891  0.6916
  209MOL0     H28787   6.726   6.179   1.609 -1.0820 -0.0689  1.8032
  209MOL0     H28788   6.765   6.071   1.735 -1.1851 -0.1494 -0.1014
  209MOL0     H28789   6.908   6.024   1.576  0.8142 -0.1278  1.0220
  209MOL0     H28790   6.951   6.201   1.533 -0.7963  2.7990  1.2023
  209MOL0     H28791   7.010   5.938   1.817  0.8922 -1.9148 -1.2948
  209MOL0     H28792   7.235   5.987   1.996 -0.9147 -1.6896 -0.4755
  209MOL0     H28793   7.386   5.983   1.899  0.3750 -1.3715 -1.1069
  209MOL0     H28794   7.245   5.734   1.971  0.1450 -0.3228 -0.1281
  209MOL0     H28795   7.225   5.770   1.804 -2.8818 -1.6379  1.3465
  209MOL0     H28796   7.426   5.629   1.835 -1.1387 -0.4981  0.8697
  209MOL0     H28797   7.475   5.788   1.794  1.1817 -2.2381 -0.1354
  209MOL0     H28798   7.443   5.750   2.091  1.9018  1.3973  1.0333
  209MOL0     H28799   7.551   5.630   2.006 -0.5751 -0.4503  0.9104
  209MOL0     H28800   7.695   5.623   2.179 -0.8904  1.0716  1.0407
  209MOL0     H28801   7.906   5.617   2.451 -1.2639  1.8766  0.0619
  209MOL0     H28802   7.965   5.518   2.314 -0.5328  2.6638 -0.1964
  209MOL0     H28803   7.791   5.522   2.342 -1.3720  0.1782 -0.1168
  209MOL0     H28804   8.172   5.631   2.573 -0.0701  0.0086 -1.1580
  209MOL0     H28805   8.397   5.602   2.695  1.4445  0.0587  0.0079
  209MOL0     H28806   8.610   5.471   2.667  1.8542 -0.6588  1.9329
  209MOL0     H28807   8.678   5.500   2.503  0.8564  0.8273 -0.7509
  209MOL0     H28808   8.902   5.565   2.580  0.8230  1.3756  0.6452
  209MOL0     H28809   8.846   5.569   2.749  0.6846  1.6992 -1.2667
  209MOL0     H28810   8.793   5.323   2.580 -2.9856  1.2005  0.9359
  209MOL0     H28811   8.835   5.336   2.751  0.0161  3.1708  1.5224
  209MOL0     H28812   9.081   5.395   2.647  0.3473  1.7951 -3.3643
  209MOL0     H28813   9.001   5.318   2.509 -0.3398 -1.7051  0.5429
  209MOL0     H28814   9.040   5.167   2.774 -0.8612  0.4231 -0.1095
  209MOL0     H28815   8.949   5.114   2.634 -0.3265 -0.2270  0.1852
  209MOL0     H28816   9.254   5.201   2.630 -0.0488 -1.6082 -0.1613
  209MOL0     H28817   9.179   5.132   2.494  1.4144 -0.9249 -0.6574
  209MOL0     H28818   9.140   4.924   2.621  0.3354 -0.3557  1.8081
  209MOL0     H28819   9.185   4.993   2.768 -0.9746  1.9901 -0.1470
  209MOL0     H28820   9.393   4.990   2.536  0.0711  1.4002  0.0379
  209MOL0     H28821   9.365   4.860   2.655 -0.2564  0.4128  1.4592
  209MOL0     H28822   8.591   5.758   2.353  0.6411  2.7139  0.6875
  209MOL0     H28823   8.371   5.772   2.234 -0.1967 -0.8252  0.1758
  209MOL0     H28824   7.971   6.026   2.186 -1.4118 -0.1833 -0.4298
  209MOL0     H28825   7.771   6.018   2.041 -0.6326  0.2296  1.3754
  209MOL0     H28826   6.033   6.269   1.597  0.8452  0.8316  0.0162
  209MOL0     H28827   5.802   6.320   1.672 -1.9818 -0.4744  2.5160
  209MOL0     H28828   5.491   6.439   2.021 -0.6319 -0.9403  1.0359
  209MOL0     H28829   5.270   6.485   2.065 -1.3334  0.6741 -0.6395
  209MOL0     H28830   4.875   6.295   2.074 -0.4496 -0.0298 -0.8598
  209MOL0     H28831   4.965   6.160   2.027 -0.1254 -0.2769  0.2940
  209MOL0     H28832   4.997   6.319   2.284 -1.9675 -0.0526  0.0055
  209MOL0     H28833   5.118   6.201   2.241  0.6018  1.6271 -2.3036
  209MOL0     H28834   4.828   6.205   2.305  1.8723  1.8100  1.5739
  209MOL0     H28835   4.878   6.048   2.249  0.1853  0.8337 -2.2510
  209MOL0     H28836   4.997   6.204   2.497  3.8570 -1.5606  1.6533
  209MOL0     H28837   5.058   6.059   2.437 -0.8359  0.6497  0.5985
  209MOL0     H28838   4.693   5.925   2.601  0.2723 -0.7356 -0.9548
  209MOL0     H28839   5.141   6.120   1.906 -0.5040  1.6811 -0.7670
  209MOL0     H28840   5.399   5.926   1.929  2.4903 -0.9442 -1.8433
  209MOL0     H28841   5.282   5.971   1.801 -0.2023 -1.5308  1.8693
  209MOL0     H28842   5.462   5.990   1.789 -1.9236 -2.5407 -1.6171
  210MOL0     O28843  10.899   8.036   6.949  0.3673  0.3054 -0.2963
  210MOL0     C28844  10.937   8.014   6.837 -0.1247  0.7475 -0.2260
  210MOL0     O28845  11.065   8.018   6.799 -0.5636 -0.0193  0.5981
  210MOL0     C28846  11.174   8.031   6.883  0.5331 -0.2259  0.9029
  210MOL0     C28847  11.167   8.107   7.006  0.3837  0.3906  0.1609
  210MOL0     C28848  11.288   8.115   7.079  0.4354  0.2854  0.2763
  210MOL0     C28849  11.416   8.072   7.037  1.6184  0.8651  0.9824
  210MOL0     O28850  11.532   8.085   7.102 -0.1952 -0.3634 -0.6046
  210MOL0     C28851  11.531   8.160   7.223 -0.2386 -0.4928 -0.3165
  210MOL0     C28852  11.673   8.180   7.280  0.5119 -0.3439  0.6750
  210MOL0     C28853  11.739   8.287   7.196  0.2330 -0.1804  0.1159
  210MOL0     C28854  11.893   8.254   7.192 -0.1292 -0.3852  0.1898
  210MOL0     C28855  11.984   8.366   7.122  0.2607  0.0732  0.3951
  210MOL0     C28856  12.124   8.321   7.123  0.0977  0.1165  0.7396
  210MOL0     C28857  12.202   8.415   7.038 -0.2793 -0.7722  0.1933
  210MOL0     C28858  12.191   8.402   6.884  0.1073  0.2487  0.4725
  210MOL0     N28859  12.305   8.317   6.832  0.2742 -0.4202  0.1016
  210MOL0     C28860  12.439   8.350   6.839  0.5022 -0.7521 -1.2465
  210MOL0     C28861  12.506   8.233   6.851 -0.3572 -0.1866 -0.5664
  210MOL0     C28862  12.649   8.241   6.885 -0.6569  0.1587 -0.5988
  210MOL0     C28863  12.734   8.144   6.808  0.2228  0.1959  1.0109
  210MOL0     C28864  12.875   8.140   6.849  0.4700  0.9280 -0.3274
  210MOL0     C28865  12.955   8.260   6.799 -0.3518  0.3285 -0.2932
  210MOL0     O28866  13.100   8.248   6.823  0.2055  0.1909  0.1501
  210MOL0     C28867  13.151   8.272   6.948 -0.2789  0.3260 -0.0989
  210MOL0     C28868  13.289   8.238   6.963  0.7226  0.3150 -0.2976
  210MOL0     C28869  13.358   8.243   7.095  0.1324  0.2412  0.5102
  210MOL0     C28870  13.508   8.211   7.093 -0.4885  0.1809 -0.0242
  210MOL0     C28871  13.280   8.286   7.205  1.0209  0.3381  0.0296
  210MOL0     C28872  13.326   8.286   7.343 -0.2079 -0.0367  0.0318
  210MOL0     O28873  13.450   8.345   7.362  0.1604 -0.0832  0.4056
  210MOL0     C28874  13.513   8.333   7.483 -0.2644  0.5491 -0.2254
  210MOL0     C28875  13.599   8.221   7.503 -0.5696  0.0963  0.0612
  210MOL0     C28876  13.668   8.214   7.626  0.8031 -0.0167  0.6889
  210MOL0     C28877  13.680   8.328   7.712  0.5823  1.3321  0.8728
  210MOL0     O28878  13.730   8.321   7.842 -0.6099  0.4934  0.7939
  210MOL0     C28879  13.852   8.241   7.854 -0.2820 -0.6006 -0.5408
  210MOL0     C28880  13.921   8.246   7.992 -0.0127  0.2911  0.6838
  210MOL0     C28881  14.064   8.185   8.004 -0.7473 -0.2155 -0.3173
  210MOL0     C28882  14.132   8.222   8.139  0.2307  0.2199 -0.4243
  210MOL0     C28883  14.284   8.181   8.140  0.9702  0.1634  0.3273
  210MOL0     C28884  14.350   8.191   8.278 -0.2833 -0.8106  0.2674
  210MOL0     C28885  14.500   8.178   8.254 -0.7708  0.2786 -0.1314
  210MOL0     C28886  14.587   8.286   8.323  0.0511  0.6693  0.9149
  210MOL0    Cl28887  14.753   8.266   8.260 -0.2447 -0.3202  0.1486
  210MOL0     C28888  13.606   8.432   7.676 -0.5554 -0.3719  0.4554
  210MOL0     C28889  13.520   8.434   7.569 -0.2025  0.8325  0.3563
  210MOL0     O28890  13.256   8.236   7.424  0.0578  0.8122 -0.8329
  210MOL0     C28891  13.141   8.306   7.189 -0.1082 -0.0406 -0.7365
  210MOL0     C28892  13.074   8.299   7.065  0.3764 -0.1384 -0.5654
  210MOL0     N28893  12.418   8.134   6.859 -0.1505  0.5556  0.0966
  210MOL0     N28894  12.296   8.181   6.845 -0.4709  0.2200 -0.5514
  210MOL0     C28895  11.420   7.994   6.923 -0.4005  0.6480  0.0676
  210MOL0     C28896  11.305   7.975   6.844  0.3098 -0.8054  0.1489
  210MOL0     C28897  10.827   7.969   6.739 -0.0234 -0.5591  0.0183
  210MOL0     C28898  10.843   8.008   6.604  0.3646  0.7624  0.9739
  210MOL0     C28899  10.744   7.987   6.511  0.4792  0.1878  0.8208
  210MOL0     C28900  10.625   7.917   6.540 -0.7945  0.3889 -0.7016
  210MOL0     O28901  10.553   7.893   6.428  0.8089 -0.2129  0.0920
  210MOL0     C28902  10.423   7.822   6.455 -0.3083  0.7672 -0.4335
  210MOL0     C28903  10.305   7.912   6.513 -0.2140  0.4850  0.5020
  210MOL0     C28904  10.171   7.842   6.537  0.5161  0.0146 -0.3214
  210MOL0     C28905  10.086   7.919   6.637 -0.1368  0.2328 -0.3358
  210MOL0     C28906   9.945   7.866   6.652  0.3225  0.3830  0.1717
  210MOL0     C28907   9.833   7.824   6.681  0.0202  0.2874  0.3524
  210MOL0     C28908  10.612   7.869   6.672  0.1863  0.7063 -0.7967
  210MOL0     C28909  10.710   7.893   6.774 -0.3838 -0.9023  0.2324
  210MOL0     C28910  10.693   7.821   6.904 -1.0502  0.0582  0.9253
  210MOL0     H28911  11.085   8.168   7.041 -1.2868 -2.1587  0.9712
  210MOL0     H28912  11.290   8.171   7.172 -1.1984  0.1016  0.4583
  210MOL0     H28913  11.476   8.111   7.304  0.9464  0.8255  1.3473
  210MOL0     H28914  11.476   8.253   7.208 -0.8030 -0.7985 -0.1699
  210MOL0     H28915  11.660   8.221   7.381  0.8614  0.6460  0.3264
  210MOL0     H28916  11.735   8.090   7.289  1.6398  0.4016  0.4864
  210MOL0     H28917  11.699   8.289   7.095 -2.5349  2.3336  1.1294
  210MOL0     H28918  11.724   8.384   7.244  2.2209 -0.0042  0.4782
  210MOL0     H28919  11.937   8.268   7.292 -1.1074  1.1970  0.4378
  210MOL0     H28920  11.907   8.156   7.146 -2.4905 -2.0031  2.6192
  210MOL0     H28921  11.977   8.464   7.169 -0.4797 -0.0661  0.5945
  210MOL0     H28922  11.952   8.382   7.018 -2.4533  1.0249  1.2755
  210MOL0     H28923  12.169   8.336   7.221  2.8809  2.9671 -0.7599
  210MOL0     H28924  12.136   8.214   7.101  0.3482 -0.1108  1.9234
  210MOL0     H28925  12.308   8.408   7.066 -0.3228  1.0427  0.9489
  210MOL0     H28926  12.180   8.517   7.070  0.3354  0.3881 -2.8169
  210MOL0     H28927  12.101   8.360   6.838  1.3117  0.6288 -2.3738
  210MOL0     H28928  12.192   8.502   6.838  0.4386  0.1191  0.2020
  210MOL0     H28929  12.493   8.444   6.850  0.9549 -0.9958 -1.3493
  210MOL0     H28930  12.653   8.223   6.993 -0.0104  0.9453 -0.4822
  210MOL0     H28931  12.688   8.340   6.857  0.9941 -0.9974 -2.6396
  210MOL0     H28932  12.684   8.047   6.816 -1.4212  0.6596 -1.8969
  210MOL0     H28933  12.731   8.172   6.702  1.4601  1.2698  1.2257
  210MOL0     H28934  12.872   8.120   6.957 -1.0532  1.7784 -0.1909
  210MOL0     H28935  12.912   8.047   6.804  0.2640  1.1222 -0.9040
  210MOL0     H28936  12.934   8.277   6.693 -0.5243 -2.4063 -0.7710
  210MOL0     H28937  12.930   8.357   6.843  1.8873  0.9458 -0.2657
  210MOL0     H28938  13.340   8.209   6.871  3.7507  0.9176  1.0689
  210MOL0     H28939  13.554   8.213   6.993  1.3780 -0.1808  0.7771
  210MOL0     H28940  13.517   8.115   7.145  4.6799  0.2114 -0.2702
  210MOL0     H28941  13.559   8.292   7.146  1.4299 -0.9205 -0.0779
  210MOL0     H28942  13.605   8.140   7.431 -0.8341 -0.9187  1.1688
  210MOL0     H28943  13.712   8.118   7.650 -1.6931 -1.5631 -0.5544
  210MOL0     H28944  13.825   8.138   7.833  0.0450 -0.7607 -0.1842
  210MOL0     H28945  13.921   8.279   7.777  0.5876  0.4747  0.7223
  210MOL0     H28946  13.931   8.352   8.018 -2.0278  0.3226  1.4830
  210MOL0     H28947  13.866   8.193   8.070 -0.5070 -0.8287 -0.3892
  210MOL0     H28948  14.138   8.223   7.933  1.4616 -2.5389  0.6108
  210MOL0     H28949  14.066   8.076   7.997  0.1969 -0.2250 -0.0109
  210MOL0     H28950  14.077   8.153   8.204  2.9458 -1.4068  0.3198
  210MOL0     H28951  14.116   8.328   8.160  0.7045  0.6649 -2.1300
  210MOL0     H28952  14.288   8.078   8.103 -0.5442  0.8289 -1.8952
  210MOL0     H28953  14.329   8.247   8.065  1.5859  2.5943  2.6683
  210MOL0     H28954  14.315   8.114   8.347 -0.1931 -0.5119  0.6475
  210MOL0     H28955  14.326   8.286   8.325 -0.6364 -0.7342 -0.0659
  210MOL0     H28956  14.528   8.199   8.150  0.2217  1.0426  0.2632
  210MOL0     H28957  14.536   8.076   8.267  2.2733  1.0098 -1.6670
  210MOL0     H28958  14.579   8.277   8.432  0.3963 -0.5882  0.8556
  210MOL0     H28959  14.545   8.384   8.298 -1.6069  0.5773  3.0586
  210MOL0     H28960  13.612   8.517   7.744 -2.6978 -0.1328  0.3991
  210MOL0     H28961  13.455   8.517   7.542 -1.2322 -0.0202  0.1121
  210MOL0     H28962  13.083   8.331   7.277 -0.4004 -2.4229 -0.1891
  210MOL0     H28963  12.970   8.328   7.056  0.8493  1.5554 -1.0740
  210MOL0     H28964  11.521   7.972   6.889 -0.4044  0.0831  0.4159
  210MOL0     H28965  11.312   7.911   6.757 -2.8229 -2.3301  0.8847
  210MOL0     H28966  10.933   8.057   6.569  1.9780 -0.8309  2.6527
  210MOL0     H28967  10.762   8.014   6.407 -0.4695 -0.2352  0.5290
  210MOL0     H28968  10.391   7.779   6.360  0.1156 -0.6116  0.0333
  210MOL0     H28969  10.429   7.730   6.513 -4.7225  0.5366  0.0155
  210MOL0     H28970  10.291   7.999   6.448  0.1141  0.7635  0.8033
  210MOL0     H28971  10.342   7.942   6.611  2.3711 -2.1186  0.4368
  210MOL0     H28972  10.105   7.826   6.452 -0.3101 -0.2887  0.3558
  210MOL0     H28973  10.186   7.741   6.577 -0.1881 -0.3138 -0.8624
  210MOL0     H28974  10.090   8.024   6.606  1.6958  0.1302 -0.6135
  210MOL0     H28975  10.135   7.904   6.733 -2.2107  0.2355  0.7729
  210MOL0     H28976   9.732   7.792   6.692  0.4676 -1.4933 -0.3532
  210MOL0     H28977  10.532   7.805   6.706 -1.2210  2.6766 -0.2353
  210MOL0     H28978  10.652   7.892   6.977  2.8118  3.0991  0.5113
  210MOL0     H28979  10.636   7.729   6.893  1.4723 -1.2934 -4.8824
  210MOL0     H28980  10.790   7.793   6.947 -0.0617 -1.6190 -2.1004
  211MOL0     O28981  10.072  10.891   9.609 -0.3555 -0.1967 -0.2423
  211MOL0     C28982  10.070  10.891   9.490 -0.1151 -0.0188  0.2671
  211MOL0     O28983  10.128  10.795   9.411  0.5390  0.6737  0.0174
  211MOL0     C28984  10.199  10.686   9.453 -0.2551 -0.3917 -0.1647
  211MOL0     C28985  10.174  10.562   9.385 -0.1520  0.3712 -0.3410
  211MOL0     C28986  10.256  10.455   9.414  0.3372 -0.2790  0.4544
  211MOL0     C28987  10.353  10.459   9.522  1.1406  0.5584 -0.1280
  211MOL0     O28988  10.427  10.354   9.565  0.3178  0.6480 -0.1160
  211MOL0     C28989  10.415  10.222   9.499 -0.8210 -0.1403 -0.0296
  211MOL0     C28990  10.478  10.112   9.585  0.3088  0.2277  0.4037
  211MOL0     C28991  10.625  10.072   9.558  0.0064 -0.7770  0.4710
  211MOL0     C28992  10.701  10.047   9.690 -0.9847  0.2101 -0.1977
  211MOL0     C28993  10.850  10.015   9.658  0.3353  0.4951 -0.5923
  211MOL0     C28994  10.925  10.142   9.662  0.5825  0.7000 -0.0269
  211MOL0     C28995  11.077  10.145   9.614 -0.0335  0.5648 -0.2998
  211MOL0     C28996  11.150  10.008   9.650 -0.5149 -0.1299 -0.1332
  211MOL0     N28997  11.294  10.025   9.650  0.5194 -0.8133 -0.7706
  211MOL0     C28998  11.377  10.039   9.757 -0.1966  0.2175  0.3897
  211MOL0     C28999  11.503  10.046   9.699  0.0909 -0.5762  0.0193
  211MOL0     C29000  11.632  10.048   9.772  0.5621  0.3811 -0.6415
  211MOL0     C29001  11.745  10.010   9.692 -0.2450 -0.4411  0.8941
  211MOL0     C29002  11.871   9.990   9.786 -0.1938 -0.3553  0.9138
  211MOL0     C29003  12.004   9.949   9.718 -0.0014  0.5334 -0.4670
  211MOL0     O29004  12.047  10.040   9.625 -1.2341  0.5276 -0.1120
  211MOL0     C29005  12.119  10.153   9.661 -0.3140  0.5311 -0.4763
  211MOL0     C29006  12.147  10.190   9.795 -0.4285 -0.3396 -0.1215
  211MOL0     C29007  12.225  10.309   9.822  0.3989  0.4200  0.0649
  211MOL0     C29008  12.237  10.346   9.964  0.0817 -0.2495 -0.0339
  211MOL0     C29009  12.290  10.376   9.711 -0.4607 -0.2929  0.2376
  211MOL0     C29010  12.395  10.487   9.718  0.0919  0.5483 -0.1132
  211MOL0     O29011  12.476  10.482   9.828  0.0742 -0.3834 -0.0400
  211MOL0     C29012  12.612  10.505   9.822  0.2179  0.0981  0.9637
  211MOL0     C29013  12.684  10.561   9.933  0.5621 -0.2639 -0.7292
  211MOL0     C29014  12.822  10.573   9.926 -0.4247  0.9127  0.4396
  211MOL0     C29015  12.888  10.535   9.809  0.1084  0.8716 -0.3936
  211MOL0     O29016  13.023  10.533   9.804 -0.0092 -0.1742  0.0688
  211MOL0     C29017  13.087  10.562   9.682 -0.5258 -0.5396  0.1891
  211MOL0     C29018  13.237  10.602   9.686  0.2658 -0.2995  0.3066
  211MOL0     C29019  13.261  10.723   9.778  1.2949 -0.0645 -0.0261
  211MOL0     C29020  13.395  10.790   9.739  0.1160 -0.3585  0.1590
  211MOL0     C29021  13.475  10.827   9.862 -0.1450  0.8304  0.4171
  211MOL0     C29022  13.571  10.940   9.858 -1.0056  0.0324  0.7312
  211MOL0     C29023  13.650  10.960   9.994  0.7732 -0.5912  0.5410
  211MOL0     C29024  13.737  11.084   9.993 -0.6589  0.0772  0.4078
  211MOL0    Cl29025  13.639  11.223   9.957  0.0672 -0.5408 -0.0811
  211MOL0     C29026  12.819  10.463   9.703  0.5124  0.4962 -0.2721
  211MOL0     C29027  12.681  10.454   9.710  0.4475 -0.2043  0.6325
  211MOL0     O29028  12.413  10.563   9.620  0.2762 -0.6943 -0.7029
  211MOL0     C29029  12.267  10.327   9.581 -0.4889  0.1885 -0.3998
  211MOL0     C29030  12.174  10.231   9.556  1.4573  0.3186 -0.7805
  211MOL0     N29031  11.493  10.040   9.554  0.0969 -1.0135  0.1766
  211MOL0     N29032  11.366  10.038   9.532  0.0039 -0.0525  0.0169
  211MOL0     C29033  10.377  10.587   9.578  0.6640  0.7555 -0.2682
  211MOL0     C29034  10.298  10.695   9.551  0.7667 -0.6146  0.3905
  211MOL0     C29035  10.018  11.018   9.430 -0.6233  0.6959  1.4472
  211MOL0     C29036  10.080  11.063   9.319  0.2396 -0.6949  0.8601
  211MOL0     C29037  10.032  11.175   9.251  0.8540  0.2718 -0.1233
  211MOL0     C29038   9.927  11.254   9.304  0.1414  0.7101  0.7629
  211MOL0     O29039   9.881  11.378   9.264  0.6608  0.3399 -0.2360
  211MOL0     C29040   9.925  11.439   9.144  0.0432 -0.1505 -0.8171
  211MOL0     C29041   9.864  11.357   9.024 -0.2642 -0.3053  0.3056
  211MOL0     C29042   9.906  11.429   8.890  0.4506  0.2412  0.1304
  211MOL0     C29043   9.911  11.344   8.769 -0.2095  0.0542  0.0016
  211MOL0     C29044   9.923  11.427   8.654 -0.5766 -0.9175 -0.6866
  211MOL0     C29045   9.945  11.497   8.558 -0.7706 -0.8635 -0.3048
  211MOL0     C29046   9.872  11.206   9.421 -0.2752 -0.6513 -0.3862
  211MOL0     C29047   9.911  11.095   9.480  0.3526 -0.0067 -0.4109
  211MOL0     C29048   9.842  11.051   9.609  0.6283  1.2143  0.3440
  211MOL0     H29049  10.087  10.554   9.319 -3.8925 -2.1677  4.2988
  211MOL0     H29050  10.241  10.367   9.353  1.6013  0.5232 -1.0789
  211MOL0     H29051  10.470  10.223   9.404  0.7609 -2.2745  0.7641
  211MOL0     H29052  10.312  10.192   9.480 -1.9479  2.1180  2.1111
  211MOL0     H29053  10.458  10.142   9.688  1.5447  0.8188  0.4942
  211MOL0     H29054  10.413  10.030   9.554  0.5988  1.3456 -3.7513
  211MOL0     H29055  10.633   9.979   9.500 -0.8868  0.1082 -1.1516
  211MOL0     H29056  10.673  10.148   9.496 -1.9015  0.3537  0.2985
  211MOL0     H29057  10.703  10.130   9.761  3.7691 -1.0824  1.5884
  211MOL0     H29058  10.641   9.967   9.736 -2.6332 -0.7539 -3.7194
  211MOL0     H29059  10.859   9.959   9.564  1.4858  1.3235 -0.9992
  211MOL0     H29060  10.901   9.953   9.731  0.6078  1.6691  0.2343
  211MOL0     H29061  10.875  10.228   9.617  1.1413  0.3466 -1.3619
  211MOL0     H29062  10.937  10.163   9.769 -0.2635  1.6564 -0.1081
  211MOL0     H29063  11.123  10.227   9.671 -2.2510  0.4866  1.7931
  211MOL0     H29064  11.088  10.161   9.506 -1.3760 -3.5633 -1.2000
  211MOL0     H29065  11.121   9.965   9.747 -1.4183  1.7219  0.4548
  211MOL0     H29066  11.123   9.939   9.570 -0.3755  0.5450 -0.7708
  211MOL0     H29067  11.347  10.023   9.860 -1.1767 -2.1282 -0.1765
  211MOL0     H29068  11.630   9.979   9.857 -3.5861  1.3673  0.2672
  211MOL0     H29069  11.658  10.148   9.806  2.5516 -1.3653  3.8701
  211MOL0     H29070  11.716   9.927   9.627 -1.5051  0.6377  0.0224
  211MOL0     H29071  11.770  10.093   9.624 -0.8562 -0.8347  0.1754
  211MOL0     H29072  11.881  10.085   9.840  1.5004  0.6577 -1.0589
  211MOL0     H29073  11.857   9.906   9.855 -2.2264 -1.7488 -1.0699
  211MOL0     H29074  12.088   9.929   9.785  1.2402 -1.1515 -2.4153
  211MOL0     H29075  11.985   9.857   9.662  0.6938  0.2229 -0.1968
  211MOL0     H29076  12.101  10.129   9.872  0.7748 -1.7709 -0.4851
  211MOL0     H29077  12.138  10.343  10.011 -1.0907 -0.5389 -2.3959
  211MOL0     H29078  12.281  10.446   9.977  2.0571 -1.1042  0.1713
  211MOL0     H29079  12.303  10.271  10.006  0.3326  0.1932  0.3740
  211MOL0     H29080  12.625  10.594  10.018  0.9661 -2.0157  0.2826
  211MOL0     H29081  12.874  10.616  10.011  1.2352  1.2547 -0.7122
  211MOL0     H29082  13.082  10.482   9.608 -0.8697  0.4224 -0.8517
  211MOL0     H29083  13.030  10.648   9.647  0.2477  0.2687  0.8594
  211MOL0     H29084  13.288  10.519   9.736 -0.9016  0.2548  2.5520
  211MOL0     H29085  13.272  10.622   9.585  1.6149  0.5498  0.9070
  211MOL0     H29086  13.271  10.684   9.880  3.0398  2.1601  0.7442
  211MOL0     H29087  13.172  10.787   9.772  2.3015  1.3073 -0.6764
  211MOL0     H29088  13.365  10.879   9.684 -1.0410 -0.4052  0.6808
  211MOL0     H29089  13.455  10.729   9.671  0.5859  0.8421 -0.5440
  211MOL0     H29090  13.404  10.850   9.942 -0.4167  1.0920  0.1055
  211MOL0     H29091  13.539  10.745   9.896 -0.6214  1.1367  2.1587
  211MOL0     H29092  13.515  11.028   9.828 -0.5244 -0.1899 -0.8866
  211MOL0     H29093  13.644  10.921   9.779 -3.4031  0.4469 -1.7349
  211MOL0     H29094  13.703  10.871  10.029  2.9335 -0.0191 -1.1051
  211MOL0     H29095  13.567  10.970  10.066  0.2360 -1.3299  0.0372
  211MOL0     H29096  13.809  11.070   9.912  1.3653  4.0344  1.3058
  211MOL0     H29097  13.787  11.092  10.089  2.5266 -0.0617 -1.1193
  211MOL0     H29098  12.878  10.415   9.624  0.0118 -0.3314 -0.1536
  211MOL0     H29099  12.633  10.412   9.622  1.6561  1.6079 -0.9868
  211MOL0     H29100  12.306  10.369   9.489 -2.2638  2.1227 -0.3348
  211MOL0     H29101  12.145  10.191   9.459 -0.0212 -0.5881 -0.0142
  211MOL0     H29102  10.460  10.600   9.647  1.3913 -1.9849 -0.4744
  211MOL0     H29103  10.314  10.795   9.591  2.7459 -1.3603  1.6376
  211MOL0     H29104  10.168  11.018   9.275 -2.2631 -2.2047 -3.0801
  211MOL0     H29105  10.090  11.199   9.163  0.3188  1.3476 -0.2032
  211MOL0     H29106   9.891  11.543   9.135 -0.2723 -0.3961 -3.2963
  211MOL0     H29107  10.034  11.427   9.139 -0.1196 -1.6261 -1.3944
  211MOL0     H29108   9.757  11.364   9.046 -0.6371  0.0068 -1.4478
  211MOL0     H29109   9.893  11.251   9.018  0.8197  0.0325 -0.7084
  211MOL0     H29110   9.829  11.507   8.878  0.5769  0.6252  1.6251
  211MOL0     H29111  10.007  11.471   8.891 -0.1613  1.7891  1.4194
  211MOL0     H29112   9.823  11.279   8.761  0.8090 -1.3195 -0.5340
  211MOL0     H29113  10.004  11.288   8.775  0.0317  0.0582 -2.4356
  211MOL0     H29114   9.948  11.549   8.465  1.1641 -1.9245 -0.8853
  211MOL0     H29115   9.794  11.260   9.473 -4.3125 -3.6630 -2.7428
  211MOL0     H29116   9.752  11.107   9.636 -1.1851 -1.3300 -0.0694
  211MOL0     H29117   9.807  10.948   9.609  0.5027  1.1041  3.9040
  211MOL0     H29118   9.911  11.051   9.694 -0.2715  1.5141  1.0916
  212MOL0     O29119   2.763   4.042   9.255 -0.1232  0.4742 -0.0252
  212MOL0     C29120   2.647   4.057   9.209 -0.1332  0.4021  0.0464
  212MOL0     O29121   2.619   4.084   9.082  0.0598 -0.1242 -0.4526
  212MOL0     C29122   2.721   4.118   8.991  0.4256 -0.0396 -0.3791
  212MOL0     C29123   2.735   4.248   8.932  1.4036 -0.0169 -0.2000
  212MOL0     C29124   2.829   4.276   8.833 -0.5482 -0.1878  0.6209
  212MOL0     C29125   2.925   4.173   8.797 -0.1854  0.3202  0.3767
  212MOL0     O29126   3.036   4.183   8.714 -0.6617 -0.3808 -0.0841
  212MOL0     C29127   3.063   4.318   8.667  0.5091 -0.1616 -0.1895
  212MOL0     C29128   3.191   4.322   8.590  0.8072  0.3066 -0.4133
  212MOL0     C29129   3.308   4.320   8.693  0.1566 -0.2507  0.4306
  212MOL0     C29130   3.439   4.284   8.626  0.1906  0.2579  0.2603
  212MOL0     C29131   3.564   4.262   8.717  0.3905 -0.0489  1.3208
  212MOL0     C29132   3.688   4.204   8.635  0.2143  0.5911  0.3357
  212MOL0     C29133   3.799   4.159   8.735  0.7305  0.0730  0.3690
  212MOL0     C29134   3.883   4.288   8.771  0.6916  1.2235  0.3399
  212MOL0     N29135   3.947   4.267   8.904 -0.6223 -0.0771 -0.4312
  212MOL0     C29136   4.028   4.165   8.939 -0.1041 -0.2617  0.1081
  212MOL0     C29137   4.074   4.201   9.056 -0.5743 -0.3698 -0.8806
  212MOL0     C29138   4.169   4.107   9.134  0.5136 -0.1299 -0.7703
  212MOL0     C29139   4.315   4.088   9.086  0.2100 -0.4139 -0.0207
  212MOL0     C29140   4.385   3.983   9.166  0.5350  0.0592  0.5238
  212MOL0     C29141   4.519   3.947   9.112  0.3920  0.5335  0.0341
  212MOL0     O29142   4.557   3.827   9.177 -0.3690 -0.4758 -0.3687
  212MOL0     C29143   4.686   3.778   9.153 -0.1373 -1.1850 -0.2029
  212MOL0     C29144   4.719   3.661   9.213 -0.4577 -0.2497 -0.2116
  212MOL0     C29145   4.848   3.610   9.211 -0.5603  0.1765  0.7455
  212MOL0     C29146   4.873   3.485   9.296 -0.2117  0.0994 -0.3514
  212MOL0     C29147   4.955   3.668   9.137  0.2490 -0.9911 -0.1008
  212MOL0     C29148   5.104   3.638   9.149 -0.1442  0.6491 -0.2634
  212MOL0     O29149   5.145   3.516   9.192  0.1690  0.3249 -0.2802
  212MOL0     C29150   5.280   3.509   9.213 -0.3322  0.6125 -0.6104
  212MOL0     C29151   5.358   3.431   9.126 -0.3423 -0.2433  0.2764
  212MOL0     C29152   5.490   3.427   9.133  0.3708  0.5283 -0.0754
  212MOL0     C29153   5.558   3.478   9.243 -0.5274 -0.4537 -0.7178
  212MOL0     O29154   5.696   3.462   9.266  0.1084 -0.1643 -0.0929
  212MOL0     C29155   5.754   3.327   9.252 -0.0213 -0.1943  1.2454
  212MOL0     C29156   5.885   3.308   9.326  0.2706  1.3946  0.2266
  212MOL0     C29157   5.954   3.173   9.298 -0.2892 -0.6228  0.3642
  212MOL0     C29158   6.064   3.144   9.412  0.0809  0.4984 -0.0976
  212MOL0     C29159   6.119   2.993   9.402  0.1984 -0.3053  0.4795
  212MOL0     C29160   6.173   2.940   9.269  0.3020 -0.1353  0.1192
  212MOL0     C29161   6.247   2.803   9.283  0.2502 -1.0854 -0.6400
  212MOL0     C29162   6.331   2.766   9.158  0.4769 -0.2985 -0.4043
  212MOL0    Cl29163   6.207   2.768   9.023 -0.1654 -0.1558 -0.1065
  212MOL0     C29164   5.488   3.546   9.337 -0.0528 -0.3391 -0.1373
  212MOL0     C29165   5.347   3.566   9.323 -0.1388 -0.6522  0.2727
  212MOL0     O29166   5.180   3.729   9.113  0.4392  0.4857  0.2902
  212MOL0     C29167   4.909   3.784   9.071  0.3547 -0.5903  0.5005
  212MOL0     C29168   4.787   3.841   9.080 -0.1709 -0.0041 -0.1986
  212MOL0     N29169   4.013   4.316   9.104 -0.6915 -0.7150 -0.2064
  212MOL0     N29170   3.951   4.361   9.000 -0.7930 -0.1717  0.4655
  212MOL0     C29171   2.902   4.046   8.853 -0.3278  0.0969  0.7746
  212MOL0     C29172   2.798   4.014   8.942  0.6568 -0.2206  0.2384
  212MOL0     C29173   2.536   4.036   9.306  0.2000 -0.2145  1.1895
  212MOL0     C29174   2.406   4.080   9.277  0.5416  0.7578 -0.0654
  212MOL0     C29175   2.297   4.071   9.374 -0.2040 -0.2779 -0.0786
  212MOL0     C29176   2.323   4.007   9.496 -0.1304 -0.4566 -0.8238
  212MOL0     O29177   2.229   3.969   9.588 -0.7239  0.5906 -0.7050
  212MOL0     C29178   2.093   4.009   9.567 -0.2471  0.5158  0.6461
  212MOL0     C29179   1.996   3.930   9.655 -0.3850  0.6000  0.6558
  212MOL0     C29180   1.967   3.790   9.593 -0.0629  0.4429  0.3298
  212MOL0     C29181   2.088   3.690   9.600  0.6183 -0.2860 -0.6114
  212MOL0     C29182   2.116   3.666   9.742 -0.7433 -0.1454  0.2042
  212MOL0     C29183   2.141   3.669   9.861 -0.7696  0.5650  1.0983
  212MOL0     C29184   2.448   3.961   9.520 -0.3717  0.0307 -0.3443
  212MOL0     C29185   2.559   3.972   9.430  0.0074 -1.2804  0.7298
  212MOL0     C29186   2.683   3.897   9.467 -0.0699 -0.0360 -0.3454
  212MOL0     H29187   2.657   4.319   8.959  0.6048 -1.1426  0.5093
  212MOL0     H29188   2.838   4.375   8.790 -1.2938 -0.1036  0.6334
  212MOL0     H29189   3.061   4.384   8.754 -1.1476 -0.3497 -0.0435
  212MOL0     H29190   2.985   4.352   8.597  1.3575 -0.4951 -1.3204
  212MOL0     H29191   3.197   4.233   8.527 -1.1875  0.1455 -0.4363
  212MOL0     H29192   3.192   4.413   8.529 -1.4021  1.6700  1.3928
  212MOL0     H29193   3.303   4.410   8.754 -3.3547 -1.3153  2.0092
  212MOL0     H29194   3.304   4.238   8.765 -1.2539 -2.2485 -1.7463
  212MOL0     H29195   3.431   4.187   8.576  1.5424 -0.9694  2.2909
  212MOL0     H29196   3.468   4.347   8.541  1.0722 -0.7721 -0.2242
  212MOL0     H29197   3.529   4.193   8.795 -1.0830 -2.7060 -1.4712
  212MOL0     H29198   3.581   4.361   8.760  1.1321  0.7279 -0.6285
  212MOL0     H29199   3.669   4.119   8.570 -0.4842 -1.6893  3.2832
  212MOL0     H29200   3.729   4.278   8.566  0.1743 -0.4257 -0.8119
  212MOL0     H29201   3.863   4.084   8.688  2.2315  1.0915  0.7139
  212MOL0     H29202   3.757   4.118   8.827  1.0088  0.1935  0.5492
  212MOL0     H29203   3.946   4.299   8.682  0.4092  0.6329  0.0603
  212MOL0     H29204   3.815   4.372   8.789 -0.8557 -0.4814  3.0932
  212MOL0     H29205   4.043   4.071   8.888  0.9753 -1.9659  3.3294
  212MOL0     H29206   4.127   4.006   9.137 -1.3415  0.5953  2.2007
  212MOL0     H29207   4.179   4.142   9.238 -1.2823 -0.3826 -0.4676
  212MOL0     H29208   4.313   4.041   8.987 -0.9018 -2.5733  0.9548
  212MOL0     H29209   4.370   4.182   9.096  0.0711 -0.3917  0.5826
  212MOL0     H29210   4.411   4.018   9.266  1.5252 -0.8687  0.6012
  212MOL0     H29211   4.320   3.896   9.186 -1.5216  0.7901 -2.2927
  212MOL0     H29212   4.513   3.926   9.004  3.5105  0.3359 -0.1774
  212MOL0     H29213   4.588   4.030   9.124  0.5596  0.2686  0.9499
  212MOL0     H29214   4.649   3.599   9.267 -1.2569 -1.9014 -2.9435
  212MOL0     H29215   4.935   3.412   9.245 -2.4696 -2.2115  0.0010
  212MOL0     H29216   4.781   3.432   9.323 -0.4115  0.5453 -0.1372
  212MOL0     H29217   4.923   3.510   9.390 -1.1323 -1.7574  0.6838
  212MOL0     H29218   5.302   3.380   9.048 -1.9513  0.1014  1.1502
  212MOL0     H29219   5.529   3.370   9.049  1.1599  0.8946  0.0348
  212MOL0     H29220   5.682   3.252   9.287 -1.6379  0.4166 -0.6161
  212MOL0     H29221   5.789   3.317   9.149  2.2587  0.0511  1.9373
  212MOL0     H29222   5.940   3.400   9.302 -0.3326  0.9720 -3.3835
  212MOL0     H29223   5.876   3.299   9.435  1.1586 -2.8668  0.1057
  212MOL0     H29224   5.995   3.183   9.197 -0.3576 -1.3991  0.2525
  212MOL0     H29225   5.872   3.101   9.290 -2.3090  1.2668  2.3893
  212MOL0     H29226   6.017   3.154   9.510 -0.3970 -2.7825  0.1443
  212MOL0     H29227   6.142   3.220   9.410  0.4675  0.1098  0.2629
  212MOL0     H29228   6.198   2.985   9.476 -3.0151 -1.1532  4.1170
  212MOL0     H29229   6.048   2.919   9.439  0.3284 -1.1470 -0.8914
  212MOL0     H29230   6.260   2.997   9.233  3.8620 -1.5097  5.4050
  212MOL0     H29231   6.088   2.927   9.201  0.6597 -1.3272 -0.1394
  212MOL0     H29232   6.175   2.725   9.311 -0.0104 -0.6680 -0.1210
  212MOL0     H29233   6.309   2.812   9.373 -0.5723 -2.4672  0.1027
  212MOL0     H29234   6.377   2.666   9.162  0.6302 -0.3302 -2.2943
  212MOL0     H29235   6.411   2.839   9.142  0.0894  0.6338  1.6287
  212MOL0     H29236   5.527   3.583   9.432 -2.2061 -2.7757  1.8543
  212MOL0     H29237   5.295   3.612   9.406  0.8658 -1.5201  1.4331
  212MOL0     H29238   4.988   3.840   9.022  1.3113 -1.2469  1.2447
  212MOL0     H29239   4.774   3.937   9.031  1.2055 -1.3703 -3.6045
  212MOL0     H29240   2.976   3.969   8.834 -1.2332 -0.4028 -0.9099
  212MOL0     H29241   2.796   3.917   8.991 -1.8521 -1.2647 -1.7051
  212MOL0     H29242   2.381   4.124   9.180 -2.2399 -1.8471 -0.6894
  212MOL0     H29243   2.196   4.101   9.347  0.3688  0.6978 -1.2274
  212MOL0     H29244   2.077   4.117   9.574  0.5759  0.8054 -1.3112
  212MOL0     H29245   2.069   3.979   9.465  0.6204 -0.7473  0.7903
  212MOL0     H29246   1.898   3.979   9.651  0.7652  2.9890  0.2784
  212MOL0     H29247   2.039   3.925   9.756  3.3237  0.3602 -0.8104
  212MOL0     H29248   1.880   3.741   9.639 -0.9607  0.6620 -1.0601
  212MOL0     H29249   1.946   3.803   9.487  2.3814  0.0706 -0.2551
  212MOL0     H29250   2.173   3.730   9.544  0.3642  0.5909 -0.3993
  212MOL0     H29251   2.062   3.591   9.563  0.3627 -0.6215  0.4339
  212MOL0     H29252   2.160   3.677   9.966  0.3997 -1.0525  1.0535
  212MOL0     H29253   2.473   3.917   9.616  1.9323  0.4834 -0.6744
  212MOL0     H29254   2.676   3.846   9.564  2.9414 -1.8084 -0.9005
  212MOL0     H29255   2.702   3.813   9.399  3.7362  1.3300 -1.2341
  212MOL0     H29256   2.771   3.962   9.470 -1.3435  1.7454 -0.4707
  213MOL0     O29257   1.519   6.867   7.388  0.0648  0.0354  0.5500
  213MOL0     C29258   1.413   6.894   7.432 -0.2980 -0.7253 -0.6127
  213MOL0     O29259   1.387   7.019   7.487  0.5005  0.2597 -0.1849
  213MOL0     C29260   1.489   7.117   7.485 -0.4739  0.8115  0.2575
  213MOL0     C29261   1.540   7.157   7.608 -1.2605 -0.6259  0.5414
  213MOL0     C29262   1.655   7.244   7.613  0.4564  0.1251  0.0643
  213MOL0     C29263   1.706   7.293   7.498  0.1223  0.0627  0.8042
  213MOL0     O29264   1.824   7.367   7.515 -0.5685  0.5250  0.1788
  213MOL0     C29265   1.910   7.415   7.412  0.6438  0.3399  0.2492
  213MOL0     C29266   2.025   7.489   7.470  0.5622  0.6700 -0.5948
  213MOL0     C29267   2.106   7.394   7.552  0.0128  0.4197  0.3587
  213MOL0     C29268   2.230   7.456   7.620 -0.9043  0.4535  0.1302
  213MOL0     C29269   2.204   7.522   7.754 -0.1680  0.0277 -0.1519
  213MOL0     C29270   2.318   7.605   7.814 -0.0389 -0.7005 -0.6192
  213MOL0     C29271   2.276   7.690   7.930  0.0275 -1.2462  0.2128
  213MOL0     C29272   2.365   7.808   7.973 -0.0900  0.1473  0.1629
  213MOL0     N29273   2.488   7.762   8.040  0.6776 -0.8405  0.0984
  213MOL0     C29274   2.503   7.680   8.150  0.4188  0.0047  0.2936
  213MOL0     C29275   2.627   7.698   8.196  0.0836  0.1055  0.1368
  213MOL0     C29276   2.692   7.612   8.303 -0.4748  0.3433  0.1750
  213MOL0     C29277   2.623   7.474   8.310 -0.2696  0.0692  0.5940
  213MOL0     C29278   2.657   7.386   8.189 -0.3187  1.4419  0.5881
  213MOL0     C29279   2.582   7.258   8.183 -0.6067 -0.7996 -0.2692
  213MOL0     O29280   2.440   7.290   8.194  0.5109 -0.3977 -0.0843
  213MOL0     C29281   2.353   7.212   8.118  0.2303 -0.1333 -0.0163
  213MOL0     C29282   2.223   7.262   8.096 -0.2012 -0.7059 -0.3307
  213MOL0     C29283   2.114   7.194   8.044 -0.3764  0.1399 -0.5856
  213MOL0     C29284   1.983   7.261   8.041  0.2900  0.3117  0.1045
  213MOL0     C29285   2.135   7.060   8.000  0.2959  0.0913  0.3626
  213MOL0     C29286   2.023   6.978   7.939 -0.1700 -0.6431 -0.1822
  213MOL0     O29287   1.891   7.009   7.975  0.3117  0.5070 -0.1571
  213MOL0     C29288   1.793   6.935   7.921  0.3373 -0.5027 -0.2722
  213MOL0     C29289   1.722   6.847   8.008  0.2803 -0.0624 -0.2884
  213MOL0     C29290   1.628   6.755   7.958 -0.3040  0.7126  0.4686
  213MOL0     C29291   1.600   6.743   7.819  0.6322 -0.8913 -0.0283
  213MOL0     O29292   1.511   6.649   7.781 -1.0022  0.2698  0.4653
  213MOL0     C29293   1.571   6.561   7.688  0.3865  0.3083  0.2939
  213MOL0     C29294   1.479   6.449   7.650  0.3023  0.3215  0.4806
  213MOL0     C29295   1.555   6.360   7.557  0.3344 -0.2707  0.4155
  213MOL0     C29296   1.566   6.416   7.411 -0.2462  0.0358 -0.2951
  213MOL0     C29297   1.683   6.360   7.337 -0.3635  0.0249 -0.1888
  213MOL0     C29298   1.813   6.453   7.350  0.1352 -0.0887  0.4001
  213MOL0     C29299   1.877   6.477   7.485 -0.1819 -0.7441 -0.4119
  213MOL0     C29300   2.007   6.539   7.468  0.4975 -1.1050  0.1346
  213MOL0    Cl29301   2.088   6.542   7.623 -0.1134 -0.2861 -0.2325
  213MOL0     C29302   1.673   6.832   7.734  0.4894  0.2370 -0.3279
  213MOL0     C29303   1.766   6.920   7.785  0.4201 -0.1277 -0.6457
  213MOL0     O29304   2.059   6.899   7.856  0.8402  0.5197 -0.5241
  213MOL0     C29305   2.271   7.006   8.012  0.5848 -0.1304  0.4772
  213MOL0     C29306   2.377   7.083   8.072 -0.6283 -0.9014  0.4990
  213MOL0     N29307   2.693   7.778   8.106 -0.2375 -0.6174  0.4112
  213MOL0     N29308   2.610   7.822   8.022 -0.1094 -0.4934  0.3437
  213MOL0     C29309   1.667   7.253   7.372  0.0904 -0.1540  0.9602
  213MOL0     C29310   1.556   7.162   7.365  0.7299 -1.2114  0.0657
  213MOL0     C29311   1.313   6.786   7.443  0.1308 -0.0279 -0.6934
  213MOL0     C29312   1.307   6.690   7.336 -0.4778 -0.6973  0.3300
  213MOL0     C29313   1.215   6.589   7.341 -0.1259 -0.5721  0.0532
  213MOL0     C29314   1.122   6.589   7.446  0.2839  0.6195  0.6689
  213MOL0     O29315   1.035   6.484   7.464 -0.3222 -0.1027 -1.0461
  213MOL0     C29316   1.035   6.365   7.382  0.5652  0.4926  0.3957
  213MOL0     C29317   1.141   6.253   7.424  0.3777 -0.0434  0.1281
  213MOL0     C29318   1.110   6.171   7.551  0.1923 -1.1012 -0.1295
  213MOL0     C29319   0.987   6.082   7.550 -0.9317 -0.7791 -1.1857
  213MOL0     C29320   0.858   6.155   7.574 -0.7582 -0.2160 -0.6812
  213MOL0     C29321   0.749   6.203   7.607 -0.1514 -0.6053  0.1259
  213MOL0     C29322   1.119   6.680   7.543  0.1927 -0.8109 -0.4005
  213MOL0     C29323   1.219   6.781   7.549  0.1820  0.6298 -0.2246
  213MOL0     C29324   1.216   6.877   7.664  0.2577 -0.9356  1.3922
  213MOL0     H29325   1.497   7.134   7.705  2.0157 -1.7889  1.8591
  213MOL0     H29326   1.699   7.261   7.711  1.3775  0.3217 -0.3718
  213MOL0     H29327   1.841   7.488   7.369  1.6676  1.2502  0.0973
  213MOL0     H29328   1.944   7.328   7.357  2.1620  0.3548  1.1053
  213MOL0     H29329   2.096   7.523   7.395  0.7687  0.9309 -0.2832
  213MOL0     H29330   1.986   7.577   7.522 -0.8959 -0.8234  0.9876
  213MOL0     H29331   2.043   7.348   7.629 -1.3480 -0.4094 -1.1884
  213MOL0     H29332   2.138   7.320   7.477  1.4431  0.9498  0.4142
  213MOL0     H29333   2.300   7.374   7.639  0.5391  1.6110 -0.0117
  213MOL0     H29334   2.284   7.524   7.553  3.6954  0.8868  3.7290
  213MOL0     H29335   2.174   7.449   7.831  1.6442  0.3249  0.8966
  213MOL0     H29336   2.128   7.596   7.728  1.5406  1.0645 -2.4723
  213MOL0     H29337   2.394   7.538   7.854  0.3421 -0.9282 -1.6985
  213MOL0     H29338   2.360   7.674   7.740 -0.9124 -1.6453 -2.0450
  213MOL0     H29339   2.253   7.636   8.022  1.8463 -0.7282  1.0035
  213MOL0     H29340   2.184   7.737   7.894  1.7392  3.1572  1.0527
  213MOL0     H29341   2.383   7.867   7.883 -0.4994  1.3424  0.8422
  213MOL0     H29342   2.311   7.875   8.041 -2.2867  0.0005 -1.3072
  213MOL0     H29343   2.432   7.612   8.195 -1.6400  0.1741 -2.4359
  213MOL0     H29344   2.672   7.661   8.398  1.5093 -0.4627  1.0552
  213MOL0     H29345   2.799   7.613   8.283 -0.8538  0.9511 -2.1062
  213MOL0     H29346   2.673   7.423   8.393  1.0669  0.3717 -0.0043
  213MOL0     H29347   2.516   7.481   8.333  0.1259  1.0406  2.3277
  213MOL0     H29348   2.624   7.445   8.104 -0.8836  0.2449 -0.0523
  213MOL0     H29349   2.764   7.364   8.186  0.1571  3.5453  0.8081
  213MOL0     H29350   2.600   7.213   8.085  0.6685  0.0664 -0.4493
  213MOL0     H29351   2.628   7.202   8.264  0.1993  1.0113  0.5858
  213MOL0     H29352   2.209   7.355   8.150  1.3689 -1.3426  1.2922
  213MOL0     H29353   1.978   7.364   8.075  1.4817  0.9008 -1.3785
  213MOL0     H29354   1.912   7.202   8.099 -0.1063  0.9941  0.3159
  213MOL0     H29355   1.952   7.253   7.936  1.4643 -2.1506 -0.1314
  213MOL0     H29356   1.729   6.859   8.115  0.4341  1.8441 -0.4698
  213MOL0     H29357   1.573   6.687   8.021 -1.2930  1.9371  0.9743
  213MOL0     H29358   1.606   6.611   7.597 -1.9383  0.6869 -0.4673
  213MOL0     H29359   1.651   6.504   7.737 -2.3387 -3.3334  0.9752
  213MOL0     H29360   1.438   6.390   7.732 -0.2780 -2.2876 -1.5520
  213MOL0     H29361   1.390   6.492   7.601  1.9545  2.3156 -0.9814
  213MOL0     H29362   1.502   6.265   7.545  0.9021 -0.5200 -0.2139
  213MOL0     H29363   1.658   6.346   7.590 -0.3038 -2.8861  1.5361
  213MOL0     H29364   1.577   6.525   7.408  2.6499 -0.0362  2.2656
  213MOL0     H29365   1.476   6.387   7.356 -0.2504  0.3654 -0.4643
  213MOL0     H29366   1.716   6.260   7.368 -0.1713 -0.0764 -0.6949
  213MOL0     H29367   1.671   6.350   7.228  2.6096 -1.5013 -0.4852
  213MOL0     H29368   1.792   6.546   7.296  0.8874 -0.7814 -1.1188
  213MOL0     H29369   1.886   6.410   7.281  0.8822  2.8473 -0.7995
  213MOL0     H29370   1.891   6.382   7.538 -0.7015  0.5161  2.1230
  213MOL0     H29371   1.811   6.542   7.542  0.1041 -1.0451  0.2661
  213MOL0     H29372   1.991   6.642   7.434 -3.5035 -1.4894  0.3631
  213MOL0     H29373   2.059   6.473   7.398 -1.8721 -2.0882 -0.7874
  213MOL0     H29374   1.657   6.818   7.628 -0.2472  0.8322 -0.3044
  213MOL0     H29375   1.811   6.998   7.724  0.7521  0.3534  0.2076
  213MOL0     H29376   2.302   6.909   7.975 -0.6800 -0.0926 -0.7660
  213MOL0     H29377   2.470   7.031   8.091 -0.7857 -1.2549  0.3210
  213MOL0     H29378   1.713   7.265   7.275 -1.6937 -2.7628 -0.3384
  213MOL0     H29379   1.513   7.135   7.270  0.1619 -0.4527  0.1000
  213MOL0     H29380   1.399   6.694   7.279  1.5693 -1.0869  3.3445
  213MOL0     H29381   1.218   6.504   7.274 -1.2952 -0.1154 -0.6115
  213MOL0     H29382   0.935   6.321   7.387 -0.1000  1.4913 -2.3074
  213MOL0     H29383   1.036   6.393   7.276  1.2071  1.7678  0.7145
  213MOL0     H29384   1.229   6.314   7.443  1.0648 -0.9067 -0.2554
  213MOL0     H29385   1.158   6.190   7.336  1.0403  0.0328  0.1993
  213MOL0     H29386   1.201   6.113   7.572  0.2648 -1.2516 -0.8246
  213MOL0     H29387   1.097   6.245   7.631 -0.0022 -1.9007  0.5914
  213MOL0     H29388   1.007   6.015   7.634  3.2435  0.4519 -0.9576
  213MOL0     H29389   0.986   6.021   7.459 -3.7469  0.0488 -1.7971
  213MOL0     H29390   0.656   6.246   7.637  1.0115  0.5572  2.2633
  213MOL0     H29391   1.039   6.664   7.614 -1.7365  1.1881 -1.9832
  213MOL0     H29392   1.314   6.883   7.712  2.0171  0.3527 -2.0362
  213MOL0     H29393   1.195   6.982   7.641 -1.3013 -1.9489 -2.3824
  213MOL0     H29394   1.140   6.847   7.737 -1.7492  2.8821  1.1396
  214MOL0     O29395   3.749   5.903   8.241  0.1044 -0.4967  0.4275
  214MOL0     C29396   3.683   5.844   8.151 -0.0566 -0.1643 -1.3166
  214MOL0     O29397   3.734   5.813   8.022  0.1295 -0.2510 -0.1765
  214MOL0     C29398   3.865   5.817   7.992 -0.4234  0.3104 -0.0547
  214MOL0     C29399   3.955   5.773   8.086 -0.4087 -0.5859 -1.1833
  214MOL0     C29400   4.096   5.802   8.060  0.5648  0.1000  0.4641
  214MOL0     C29401   4.139   5.860   7.944 -1.5281  0.0567 -0.2903
  214MOL0     O29402   4.268   5.897   7.935 -0.8282 -1.3874 -0.0075
  214MOL0     C29403   4.335   5.933   7.812 -0.1797  0.1058  0.3692
  214MOL0     C29404   4.474   5.981   7.844  0.5600  0.6062  0.0482
  214MOL0     C29405   4.563   5.869   7.906 -0.3921  0.0644 -0.0794
  214MOL0     C29406   4.679   5.928   7.987  0.6697 -0.0431 -0.4819
  214MOL0     C29407   4.768   5.825   8.060  0.0412  0.3009 -0.3155
  214MOL0     C29408   4.882   5.888   8.146  0.3230  0.4961 -0.8201
  214MOL0     C29409   4.957   5.783   8.232  0.7543 -0.3877  1.2917
  214MOL0     C29410   4.925   5.801   8.378 -0.6383  0.0890  0.4946
  214MOL0     N29411   5.013   5.730   8.465  0.5174 -0.5339 -0.4375
  214MOL0     C29412   5.022   5.603   8.500  0.6099 -0.7299 -0.0814
  214MOL0     C29413   5.123   5.598   8.593 -0.5099  0.0766  0.3455
  214MOL0     C29414   5.152   5.472   8.661  0.3521  0.4397 -0.7930
  214MOL0     C29415   5.274   5.498   8.744  0.6818  0.3646 -0.3841
  214MOL0     C29416   5.326   5.363   8.787  0.1002  0.2786 -0.4653
  214MOL0     C29417   5.447   5.376   8.885 -0.2287  0.7759  0.3045
  214MOL0     O29418   5.566   5.413   8.814 -0.1176  0.1989  0.0675
  214MOL0     C29419   5.696   5.379   8.851 -0.3629  0.0784 -0.1270
  214MOL0     C29420   5.811   5.384   8.774  0.0667 -0.0972  0.4902
  214MOL0     C29421   5.940   5.341   8.810  0.6732  0.7184  0.1015
  214MOL0     C29422   6.060   5.340   8.719  0.1540 -0.0942  0.0476
  214MOL0     C29423   5.950   5.292   8.940  0.3892  0.5312 -0.9423
  214MOL0     C29424   6.084   5.248   8.998  1.2310 -0.0962 -0.4858
  214MOL0     O29425   6.067   5.137   9.073 -0.6001 -0.1761 -0.6653
  214MOL0     C29426   6.179   5.093   9.142 -0.5840  0.9196  0.2688
  214MOL0     C29427   6.249   4.979   9.100 -0.2880  0.3069  1.2789
  214MOL0     C29428   6.355   4.934   9.174 -0.1829  0.0965 -0.3825
  214MOL0     C29429   6.387   4.995   9.303  0.0672  1.2716  0.2246
  214MOL0     O29430   6.491   4.944   9.371  0.0100 -0.4937 -0.6136
  214MOL0     C29431   6.617   4.902   9.309 -0.1243  0.1438 -0.4388
  214MOL0     C29432   6.708   5.019   9.300 -0.3179  0.1063  0.7071
  214MOL0     C29433   6.785   5.036   9.426 -1.0068 -0.7996  0.7228
  214MOL0     C29434   6.816   5.189   9.459 -0.0739  0.3001 -0.1413
  214MOL0     C29435   6.873   5.264   9.333  0.4303  0.1424  0.5238
  214MOL0     C29436   6.994   5.193   9.269 -0.2069 -0.1641  0.7839
  214MOL0     C29437   7.064   5.275   9.164  1.5478  0.5417 -0.4334
  214MOL0     C29438   6.980   5.288   9.039  0.3766 -1.1042 -0.2983
  214MOL0    Cl29439   7.067   5.328   8.897 -0.4885 -0.6198  0.1930
  214MOL0     C29440   6.319   5.102   9.343 -0.1765 -0.1593  0.2816
  214MOL0     C29441   6.206   5.151   9.265  0.3789 -0.6076 -0.2343
  214MOL0     O29442   6.188   5.314   8.975  0.5254  0.8877  0.0130
  214MOL0     C29443   5.844   5.287   9.025 -0.9536 -0.1492 -0.3491
  214MOL0     C29444   5.715   5.330   8.983 -0.3793  0.3175 -0.8430
  214MOL0     N29445   5.169   5.727   8.616 -0.3291 -0.4661 -0.8514
  214MOL0     N29446   5.108   5.800   8.528  0.0098  0.6042  0.8673
  214MOL0     C29447   4.049   5.893   7.848 -0.1050 -0.6853  0.6996
  214MOL0     C29448   3.912   5.871   7.870 -0.7960 -0.0833 -0.4336
  214MOL0     C29449   3.541   5.811   8.161  0.7035 -0.3039 -0.2440
  214MOL0     C29450   3.469   5.780   8.040 -0.3425 -0.3747 -1.6627
  214MOL0     C29451   3.335   5.746   8.041 -0.4731 -1.0113  1.1141
  214MOL0     C29452   3.269   5.744   8.156 -0.1321 -0.1439 -0.2952
  214MOL0     O29453   3.145   5.689   8.177 -0.1514  0.6628 -0.1652
  214MOL0     C29454   3.131   5.547   8.210 -0.5614  0.4880  0.2505
  214MOL0     C29455   3.003   5.486   8.158 -0.4587 -0.8923 -0.4198
  214MOL0     C29456   2.897   5.486   8.274 -0.5477  1.1166  0.5055
  214MOL0     C29457   2.916   5.370   8.388 -0.4244  0.2536 -0.4275
  214MOL0     C29458   2.807   5.352   8.486  0.1628 -0.7319  0.5550
  214MOL0     C29459   2.715   5.348   8.559  0.1532  0.0362 -0.5021
  214MOL0     C29460   3.328   5.790   8.273  0.2589  0.4362  0.4787
  214MOL0     C29461   3.459   5.834   8.275 -0.6816  0.1770  0.4806
  214MOL0     C29462   3.503   5.872   8.412  1.1484 -1.7138 -0.4992
  214MOL0     H29463   3.928   5.718   8.175  0.3195  0.5675 -0.2188
  214MOL0     H29464   4.173   5.771   8.130 -1.7377  0.2775  3.2599
  214MOL0     H29465   4.281   6.016   7.766 -0.0375 -1.1099 -2.1645
  214MOL0     H29466   4.337   5.849   7.741 -0.0125  1.2322 -0.9873
  214MOL0     H29467   4.525   6.006   7.750 -0.9698 -1.5511 -1.4367
  214MOL0     H29468   4.470   6.070   7.908  0.4041 -0.0156  0.9127
  214MOL0     H29469   4.493   5.811   7.966 -0.9527 -0.8997 -1.6187
  214MOL0     H29470   4.609   5.803   7.832  0.9424  0.0669  0.7030
  214MOL0     H29471   4.742   5.985   7.919  1.4824 -1.0514 -0.5840
  214MOL0     H29472   4.640   5.998   8.063 -0.8657  0.6478 -1.8426
  214MOL0     H29473   4.813   5.765   7.981 -0.5552  1.2206 -1.3807
  214MOL0     H29474   4.702   5.763   8.121  1.3702 -1.2632 -0.4008
  214MOL0     H29475   4.955   5.938   8.082 -1.0130  1.5758 -1.5397
  214MOL0     H29476   4.844   5.962   8.217  1.9587 -1.9373  2.8936
  214MOL0     H29477   5.065   5.793   8.214  0.7646 -1.3818  0.7313
  214MOL0     H29478   4.935   5.682   8.196  1.0755 -0.0369  0.0406
  214MOL0     H29479   4.920   5.906   8.408 -1.0228  0.2004  0.0570
  214MOL0     H29480   4.826   5.759   8.397 -0.2888 -0.8328  0.3302
  214MOL0     H29481   4.960   5.525   8.455  0.0997 -0.8215  0.7696
  214MOL0     H29482   5.159   5.396   8.583 -0.6242  0.0867 -0.5546
  214MOL0     H29483   5.074   5.448   8.734  0.9496  0.2548 -0.2113
  214MOL0     H29484   5.349   5.521   8.669  0.0371  1.2096 -0.7881
  214MOL0     H29485   5.249   5.570   8.822  1.1198 -0.8555  0.9268
  214MOL0     H29486   5.251   5.305   8.841 -0.7646  0.8463 -1.0248
  214MOL0     H29487   5.366   5.307   8.702 -0.1839  0.6856 -0.8702
  214MOL0     H29488   5.426   5.450   8.962 -0.1316  0.6926  0.4100
  214MOL0     H29489   5.471   5.282   8.935  0.6806  0.2745 -0.9888
  214MOL0     H29490   5.793   5.422   8.674 -4.7147  2.1173  1.8954
  214MOL0     H29491   6.021   5.318   8.619 -1.9269 -2.7922  1.3480
  214MOL0     H29492   6.122   5.252   8.741 -2.3217 -2.0511 -0.3342
  214MOL0     H29493   6.124   5.429   8.724  1.5952 -1.0142 -1.1225
  214MOL0     H29494   6.212   4.933   9.008 -1.1373 -1.6791  2.5427
  214MOL0     H29495   6.409   4.849   9.132  0.5637  0.6343 -0.5460
  214MOL0     H29496   6.660   4.830   9.379  3.5739  0.7968 -1.7944
  214MOL0     H29497   6.594   4.862   9.210 -0.4320  0.4951 -0.5087
  214MOL0     H29498   6.779   4.991   9.222 -1.4362 -1.5992  0.2500
  214MOL0     H29499   6.653   5.110   9.274  0.8394  0.2338 -1.6049
  214MOL0     H29500   6.878   4.979   9.431 -0.7137 -0.4650 -0.4088
  214MOL0     H29501   6.724   5.002   9.509 -1.7345 -0.4501  0.3464
  214MOL0     H29502   6.885   5.200   9.543 -0.9010  3.1109  0.2869
  214MOL0     H29503   6.722   5.240   9.483 -0.0223  0.2836  0.1003
  214MOL0     H29504   6.797   5.283   9.257 -0.4205  2.6463  1.8928
  214MOL0     H29505   6.906   5.360   9.373  0.5713 -0.5467  2.1793
  214MOL0     H29506   6.958   5.100   9.223 -2.9292 -0.2483  2.8222
  214MOL0     H29507   7.063   5.168   9.350 -0.1871 -3.4417 -0.1068
  214MOL0     H29508   7.162   5.234   9.138  1.6510  0.7512 -0.3835
  214MOL0     H29509   7.100   5.373   9.199  1.7837  1.1798 -2.3467
  214MOL0     H29510   6.915   5.374   9.056  2.1537 -0.2900  3.3212
  214MOL0     H29511   6.915   5.203   9.016 -1.0367  0.8456 -4.5121
  214MOL0     H29512   6.360   5.155   9.428  2.4414  0.2161 -1.0913
  214MOL0     H29513   6.159   5.238   9.310  2.0322  1.4014 -2.1322
  214MOL0     H29514   5.868   5.262   9.128  2.7112  1.8479 -0.5321
  214MOL0     H29515   5.640   5.353   9.058  0.2377  4.0595 -1.1439
  214MOL0     H29516   4.087   5.949   7.763  0.2672 -1.1046  0.5909
  214MOL0     H29517   3.834   5.893   7.798 -1.6468 -0.1409  0.4410
  214MOL0     H29518   3.525   5.784   7.947 -1.4056 -1.4508 -2.3632
  214MOL0     H29519   3.279   5.720   7.951  1.1712  1.5348 -0.8111
  214MOL0     H29520   3.213   5.496   8.158  0.8613  1.3959  1.5160
  214MOL0     H29521   3.145   5.532   8.318  1.3309 -1.4191 -0.1745
  214MOL0     H29522   3.022   5.385   8.119  1.5064 -1.6573  2.2268
  214MOL0     H29523   2.978   5.553   8.076 -0.7558  3.0983  2.6364
  214MOL0     H29524   2.906   5.580   8.330  1.3710  0.8832  0.6463
  214MOL0     H29525   2.798   5.475   8.227 -0.6455  0.4176  0.8522
  214MOL0     H29526   3.009   5.381   8.445  0.1451  2.3093 -1.6300
  214MOL0     H29527   2.933   5.278   8.332  2.3606  0.7928 -0.6113
  214MOL0     H29528   2.636   5.347   8.631 -1.0918 -0.2606 -1.8236
  214MOL0     H29529   3.263   5.782   8.360 -2.0883  0.2860 -1.1862
  214MOL0     H29530   3.444   5.811   8.482 -1.2953 -0.0924 -1.0157
  214MOL0     H29531   3.608   5.852   8.433  0.7696 -1.2900  2.1820
  214MOL0     H29532   3.490   5.980   8.430  1.1907 -1.9107  0.8763
  215MOL0     O29533   8.572   0.797   1.222 -0.3280  0.2403  0.9568
  215MOL0     C29534   8.458   0.822   1.264  1.6399  0.2542  0.1497
  215MOL0     O29535   8.429   0.914   1.351 -0.1375 -0.2607  0.6343
  215MOL0     C29536   8.511   1.021   1.357  0.6721 -0.7464 -0.7495
  215MOL0     C29537   8.644   1.013   1.403  0.5808  0.5091  0.0538
  215MOL0     C29538   8.715   1.129   1.440  0.2113 -0.5313  1.1029
  215MOL0     C29539   8.665   1.253   1.421 -0.0643 -0.9486 -0.1258
  215MOL0     O29540   8.736   1.363   1.458  0.2734 -0.1569  0.7532
  215MOL0     C29541   8.740   1.477   1.368 -0.3560 -0.2247  0.3785
  215MOL0     C29542   8.844   1.456   1.254 -0.3679 -1.0926 -0.2156
  215MOL0     C29543   8.900   1.585   1.197 -0.0264 -0.2410  0.6420
  215MOL0     C29544   8.838   1.639   1.067  0.6865  0.7206 -0.1099
  215MOL0     C29545   8.906   1.767   1.018 -0.2722 -0.2782  0.8814
  215MOL0     C29546   9.044   1.738   0.954 -0.0670  0.0777 -0.7322
  215MOL0     C29547   9.105   1.857   0.883  0.0761 -0.0176 -0.3641
  215MOL0     C29548   9.235   1.818   0.797  0.0227  0.5209  0.1525
  215MOL0     N29549   9.335   1.743   0.877 -0.4626  0.3758 -0.1267
  215MOL0     C29550   9.394   1.753   1.000  0.8334  0.3964 -0.1988
  215MOL0     C29551   9.508   1.684   0.992 -0.9579 -1.0205 -0.0889
  215MOL0     C29552   9.614   1.692   1.095  0.7101  0.0623 -0.4432
  215MOL0     C29553   9.711   1.805   1.050  0.0678  0.2657  0.1085
  215MOL0     C29554   9.833   1.803   1.144 -0.4985  0.0124  0.0554
  215MOL0     C29555   9.916   1.675   1.135 -0.2863 -0.3683 -0.3343
  215MOL0     O29556  10.000   1.681   1.020  0.1332 -0.3307  0.2487
  215MOL0     C29557  10.125   1.746   1.031 -0.5170  0.1551 -0.1032
  215MOL0     C29558  10.197   1.751   0.912 -0.9610 -0.3266 -0.9010
  215MOL0     C29559  10.327   1.801   0.899  0.6178 -0.1641  0.0888
  215MOL0     C29560  10.388   1.800   0.764  1.1697 -0.2653  0.4608
  215MOL0     C29561  10.387   1.853   1.019 -0.6693 -0.2988 -0.9783
  215MOL0     C29562  10.512   1.923   1.022  0.1211 -0.1340  0.5064
  215MOL0     O29563  10.542   1.994   1.137 -0.7678 -0.4406  0.8745
  215MOL0     C29564  10.668   1.980   1.175  0.0687  0.3085  1.0273
  215MOL0     C29565  10.776   2.051   1.118  0.4548 -0.6061 -0.6939
  215MOL0     C29566  10.908   2.027   1.162  0.4503 -0.1457  0.3217
  215MOL0     C29567  10.934   1.926   1.252 -0.5341 -0.0694 -0.3807
  215MOL0     O29568  11.051   1.908   1.315 -0.4833  1.1513 -0.2991
  215MOL0     C29569  11.176   1.968   1.284  0.8312 -0.0583  0.5985
  215MOL0     C29570  11.288   1.930   1.388  0.0665  0.1981  0.1248
  215MOL0     C29571  11.415   2.006   1.364 -0.3149  0.1409  0.1047
  215MOL0     C29572  11.550   1.961   1.437  0.4699  0.1304  0.6599
  215MOL0     C29573  11.653   2.061   1.418  0.4706 -0.6163  0.5782
  215MOL0     C29574  11.796   2.026   1.481  0.5498  0.1192  0.7072
  215MOL0     C29575  11.879   2.161   1.488 -0.8716 -0.1141  0.1569
  215MOL0     C29576  11.997   2.147   1.580  0.6969 -0.8373 -0.3613
  215MOL0    Cl29577  12.068   2.311   1.589  0.0199  0.2625 -0.0060
  215MOL0     C29578  10.834   1.851   1.317 -0.0656  0.1798 -0.0001
  215MOL0     C29579  10.704   1.888   1.273 -0.0418  0.7528 -0.1345
  215MOL0     O29580  10.589   1.905   0.925  0.0959 -0.4224 -0.8777
  215MOL0     C29581  10.312   1.855   1.136  0.3905 -0.1559 -0.6018
  215MOL0     C29582  10.186   1.795   1.146  0.4899  0.7524  1.1082
  215MOL0     N29583   9.514   1.618   0.878  0.0464 -0.1078  0.5141
  215MOL0     N29584   9.417   1.660   0.805 -0.2744 -0.2640 -0.2461
  215MOL0     C29585   8.537   1.262   1.374 -0.4238 -0.9689 -0.9209
  215MOL0     C29586   8.456   1.152   1.343 -1.0239  0.0555  0.4205
  215MOL0     C29587   8.334   0.747   1.210  0.5776  0.6324 -0.0210
  215MOL0     C29588   8.213   0.729   1.282 -0.1851  1.0329 -0.1647
  215MOL0     C29589   8.102   0.664   1.232 -0.2256  0.0116  0.6073
  215MOL0     C29590   8.110   0.595   1.108  0.4965 -0.7538  0.3119
  215MOL0     O29591   7.995   0.542   1.070 -0.1707 -0.2118  0.3275
  215MOL0     C29592   8.027   0.400   1.086 -0.7961 -0.1865  0.1563
  215MOL0     C29593   7.896   0.317   1.103 -0.2211 -0.4630 -0.1796
  215MOL0     C29594   7.838   0.358   1.244 -0.4239  0.0857 -0.5967
  215MOL0     C29595   7.707   0.292   1.289 -0.5269 -0.0664  0.2452
  215MOL0     C29596   7.594   0.347   1.213  0.5146  0.9991 -0.0898
  215MOL0     C29597   7.505   0.405   1.150 -0.1651  0.2666 -0.6344
  215MOL0     C29598   8.227   0.608   1.028  0.2384  0.0954 -0.7399
  215MOL0     C29599   8.334   0.691   1.074  0.4872  0.1614 -0.2776
  215MOL0     C29600   8.451   0.684   0.985 -0.0268 -0.7979 -0.0539
  215MOL0     H29601   8.675   0.910   1.411 -1.8328 -0.3162 -0.3826
  215MOL0     H29602   8.815   1.112   1.477  0.6507 -1.8438 -0.5416
  215MOL0     H29603   8.772   1.556   1.438  2.7644 -2.2936  1.5190
  215MOL0     H29604   8.646   1.514   1.328  1.2916  1.8508 -1.8914
  215MOL0     H29605   8.928   1.402   1.300  0.5151  0.2630 -0.1565
  215MOL0     H29606   8.800   1.390   1.180 -0.6013 -0.8035 -0.3351
  215MOL0     H29607   8.878   1.663   1.270 -2.5240 -0.6501  0.4284
  215MOL0     H29608   9.007   1.577   1.178  0.2420 -0.1832  2.0275
  215MOL0     H29609   8.833   1.561   0.990  1.8539  0.5150  0.0076
  215MOL0     H29610   8.734   1.670   1.078  0.1334 -0.8342 -0.5910
  215MOL0     H29611   8.929   1.849   1.086 -1.0105  0.7042 -0.0214
  215MOL0     H29612   8.828   1.807   0.953 -0.3411  0.2924  1.3127
  215MOL0     H29613   9.105   1.697   1.036  1.8938 -0.5115 -2.3947
  215MOL0     H29614   9.033   1.664   0.874 -0.9998  1.4369 -1.9236
  215MOL0     H29615   9.132   1.933   0.957 -0.7192  0.2030 -0.2851
  215MOL0     H29616   9.028   1.897   0.816  0.0504 -0.8111 -0.8173
  215MOL0     H29617   9.210   1.759   0.708 -1.0604  0.2848  0.5964
  215MOL0     H29618   9.278   1.910   0.757 -0.1888  0.7938  0.5507
  215MOL0     H29619   9.373   1.824   1.079  1.8940  0.4488  0.0518
  215MOL0     H29620   9.654   1.591   1.105 -0.8801 -0.5529 -0.0928
  215MOL0     H29621   9.576   1.717   1.195 -0.8388  2.1646 -1.4801
  215MOL0     H29622   9.745   1.797   0.947 -0.0225 -1.1147  0.1701
  215MOL0     H29623   9.660   1.900   1.067 -1.9998 -0.5488 -1.0889
  215MOL0     H29624   9.888   1.894   1.119 -1.8239  1.6058  2.4862
  215MOL0     H29625   9.799   1.818   1.247  0.1364  0.1479  0.2530
  215MOL0     H29626   9.978   1.667   1.225 -1.0380 -1.3827  0.1062
  215MOL0     H29627   9.856   1.585   1.149 -0.6717 -0.3759 -1.9001
  215MOL0     H29628  10.139   1.709   0.830 -1.6075 -0.2923 -0.4695
  215MOL0     H29629  10.324   1.740   0.699 -1.7250  1.4222  1.5662
  215MOL0     H29630  10.490   1.761   0.764  2.3162  2.4444 -0.6474
  215MOL0     H29631  10.390   1.904   0.728  2.9552  0.4537  2.4064
  215MOL0     H29632  10.750   2.134   1.053 -1.3482  0.3791  1.1514
  215MOL0     H29633  10.989   2.091   1.129  1.9965 -1.5716  1.1979
  215MOL0     H29634  11.209   1.931   1.187  0.8340  0.5962  0.3512
  215MOL0     H29635  11.170   2.075   1.263 -1.5632  0.0722  1.6378
  215MOL0     H29636  11.248   1.958   1.486 -0.8456 -1.4685  0.2607
  215MOL0     H29637  11.314   1.824   1.389  4.0156  0.9917 -0.5089
  215MOL0     H29638  11.402   2.111   1.393  2.8346  1.4780 -2.5436
  215MOL0     H29639  11.435   2.002   1.256 -0.7873 -2.0000  0.0464
  215MOL0     H29640  11.583   1.865   1.396 -1.0841 -0.5986  1.0249
  215MOL0     H29641  11.526   1.946   1.543 -1.3043  0.7292  0.3790
  215MOL0     H29642  11.661   2.072   1.309  2.1306 -3.0322  0.3787
  215MOL0     H29643  11.615   2.152   1.464  0.8316  1.5852 -3.0558
  215MOL0     H29644  11.851   1.967   1.407 -0.2218  0.1519  0.0901
  215MOL0     H29645  11.782   1.969   1.574 -0.2489 -1.2575 -0.2063
  215MOL0     H29646  11.810   2.237   1.526 -0.7356  0.4839 -0.7787
  215MOL0     H29647  11.918   2.186   1.389  3.0377  0.1900  1.5996
  215MOL0     H29648  12.075   2.079   1.545  0.8356 -2.2135  2.3588
  215MOL0     H29649  11.953   2.121   1.677 -0.1479  1.4572 -0.0528
  215MOL0     H29650  10.855   1.771   1.387 -2.2569  0.9576  1.6754
  215MOL0     H29651  10.622   1.828   1.312  1.3789 -2.0678 -1.1828
  215MOL0     H29652  10.347   1.907   1.224  2.7720 -1.8786 -0.4364
  215MOL0     H29653  10.137   1.796   1.243 -0.4426 -0.2756  0.6725
  215MOL0     H29654   8.497   1.361   1.392 -0.1828 -0.8780 -0.8883
  215MOL0     H29655   8.351   1.167   1.322 -1.3947  0.9481  2.6196
  215MOL0     H29656   8.209   0.771   1.382 -4.9222 -3.4430  1.9778
  215MOL0     H29657   8.008   0.667   1.286 -0.4986  1.6653  0.0828
  215MOL0     H29658   8.083   0.368   0.997  0.0368 -0.9056  0.9242
  215MOL0     H29659   8.100   0.378   1.164  0.3185 -1.9633 -1.2852
  215MOL0     H29660   7.921   0.211   1.104  1.2760 -0.1341 -0.0198
  215MOL0     H29661   7.822   0.339   1.027 -1.3228  0.7811  1.1879
  215MOL0     H29662   7.914   0.315   1.310 -1.0546 -0.1214  0.0020
  215MOL0     H29663   7.847   0.465   1.262  0.3459  0.1342 -1.2556
  215MOL0     H29664   7.694   0.299   1.397 -0.8312  0.0614  0.1995
  215MOL0     H29665   7.716   0.185   1.266  0.1813 -0.1638  0.9243
  215MOL0     H29666   7.422   0.444   1.094 -0.3825  0.1812 -0.3705
  215MOL0     H29667   8.239   0.557   0.933  0.1804 -0.7716 -0.2887
  215MOL0     H29668   8.448   0.611   0.903 -0.3094  0.0451 -0.8102
  215MOL0     H29669   8.480   0.787   0.963  2.3692 -1.1717  1.0062
  215MOL0     H29670   8.537   0.653   1.046 -1.4066  1.8976  3.5938
  216MOL0     O29671   7.827   0.151   2.668 -0.0622  0.4148  0.8986
  216MOL0     C29672   7.818   0.272   2.653 -0.5251 -0.2647 -1.1607
  216MOL0     O29673   7.926   0.352   2.608 -0.0059  0.6955  0.5664
  216MOL0     C29674   8.048   0.285   2.601 -0.0493 -0.0247 -0.1838
  216MOL0     C29675   8.115   0.277   2.483  0.4879 -0.3728 -0.0999
  216MOL0     C29676   8.238   0.216   2.482 -0.5574 -0.0200 -0.8869
  216MOL0     C29677   8.308   0.172   2.596 -0.1321  0.5386  0.3403
  216MOL0     O29678   8.421   0.097   2.565  0.4040  0.0002 -0.5127
  216MOL0     C29679   8.504   0.051   2.673  0.2358  0.7407 -0.5316
  216MOL0     C29680   8.602   0.169   2.719 -0.0447  0.2445  0.0751
  216MOL0     C29681   8.695   0.224   2.603  0.2403  0.3169 -0.0797
  216MOL0     C29682   8.793   0.328   2.650 -0.0687 -0.0223  0.2208
  216MOL0     C29683   8.867   0.408   2.543  0.4804 -0.4147  0.8025
  216MOL0     C29684   8.973   0.322   2.476 -0.1665  0.0980  1.2746
  216MOL0     C29685   8.999   0.378   2.333 -0.7752 -0.9181  0.7340
  216MOL0     C29686   9.086   0.497   2.321  0.3005 -0.0437 -0.0164
  216MOL0     N29687   9.222   0.493   2.379  0.0024  0.9971  0.2903
  216MOL0     C29688   9.332   0.426   2.332  0.4190  0.1984 -0.1453
  216MOL0     C29689   9.439   0.476   2.406  0.1322 -0.0822  1.5958
  216MOL0     C29690   9.577   0.428   2.384 -0.1252 -0.2753 -0.5489
  216MOL0     C29691   9.684   0.499   2.471 -0.0771  0.3778 -0.3613
  216MOL0     C29692   9.723   0.645   2.438 -0.5695 -0.2787  0.0892
  216MOL0     C29693   9.874   0.674   2.432  0.5191  0.3633 -1.2338
  216MOL0     O29694   9.920   0.680   2.575 -0.7799  0.9118 -0.0568
  216MOL0     C29695  10.052   0.708   2.582 -0.1221 -0.4013 -0.1609
  216MOL0     C29696  10.100   0.719   2.711 -0.2892 -0.3521  1.3949
  216MOL0     C29697  10.234   0.774   2.736  0.3955  0.0671  0.7942
  216MOL0     C29698  10.262   0.772   2.880  0.2797 -0.2664 -0.7811
  216MOL0     C29699  10.317   0.797   2.624 -0.0308 -0.7700 -0.2035
  216MOL0     C29700  10.462   0.845   2.637 -0.7154 -0.2442 -0.3719
  216MOL0     O29701  10.516   0.914   2.525  0.2908  0.7808  0.0116
  216MOL0     C29702  10.652   0.944   2.531  0.0466 -0.8215  0.0389
  216MOL0     C29703  10.750   0.849   2.507 -0.1477  0.3902  0.5227
  216MOL0     C29704  10.886   0.880   2.515  0.2598 -0.1721  0.2287
  216MOL0     C29705  10.927   1.020   2.520 -0.4005  0.4746 -0.3783
  216MOL0     O29706  11.057   1.034   2.520 -0.2793  0.1380  0.8170
  216MOL0     C29707  11.113   1.149   2.463  0.1630 -0.7323  0.7527
  216MOL0     C29708  11.256   1.122   2.433 -0.6313  0.0682  0.8470
  216MOL0     C29709  11.331   1.243   2.367  0.0001  0.2204  0.0391
  216MOL0     C29710  11.466   1.196   2.308  0.9134 -0.2950 -0.7323
  216MOL0     C29711  11.523   1.309   2.226 -0.2038 -0.2152 -0.2880
  216MOL0     C29712  11.612   1.265   2.115  0.0285 -0.2533  0.2000
  216MOL0     C29713  11.735   1.192   2.165 -0.6003  0.0677  0.0354
  216MOL0     C29714  11.865   1.196   2.080  0.7446 -0.9838 -0.4173
  216MOL0    Cl29715  11.910   1.369   2.062 -0.2564  0.2419 -0.1359
  216MOL0     C29716  10.827   1.113   2.517  0.5827  0.1303 -0.3838
  216MOL0     C29717  10.699   1.077   2.539 -0.1832 -0.0613 -0.6991
  216MOL0     O29718  10.514   0.843   2.749  1.2625  0.3010 -0.0597
  216MOL0     C29719  10.270   0.769   2.499 -0.0388 -0.6570  0.0914
  216MOL0     C29720  10.142   0.725   2.479  0.2879 -0.3265 -0.7937
  216MOL0     N29721   9.390   0.560   2.498 -0.5850  0.2102  0.2061
  216MOL0     N29722   9.263   0.569   2.482  0.7729 -0.0845 -0.4948
  216MOL0     C29723   8.253   0.188   2.716  0.1823 -0.0278  0.1612
  216MOL0     C29724   8.118   0.235   2.712 -0.0929  0.7216  0.2857
  216MOL0     C29725   7.676   0.333   2.686 -0.0040 -0.0282 -0.3109
  216MOL0     C29726   7.572   0.242   2.730  0.1211  0.3385  1.0947
  216MOL0     C29727   7.451   0.290   2.767  0.4227  0.1752 -0.5451
  216MOL0     C29728   7.423   0.428   2.767 -0.5681  0.1669 -0.6479
  216MOL0     O29729   7.302   0.483   2.813  0.3269 -0.0582 -0.4177
  216MOL0     C29730   7.222   0.406   2.897  0.2882 -0.6723 -0.9451
  216MOL0     C29731   7.119   0.502   2.968  0.0264 -0.6190 -0.3922
  216MOL0     C29732   7.002   0.553   2.880 -0.3930 -0.5042 -0.2396
  216MOL0     C29733   6.919   0.649   2.969  0.2928 -0.8181  0.5210
  216MOL0     C29734   6.804   0.692   2.888  0.4868 -0.2451 -1.1978
  216MOL0     C29735   6.702   0.719   2.831 -0.9400  0.3805  0.8370
  216MOL0     C29736   7.517   0.518   2.721  0.0185  0.9838 -0.0779
  216MOL0     C29737   7.647   0.471   2.677  0.4251 -0.3987  0.8252
  216MOL0     C29738   7.747   0.579   2.645 -1.0675 -0.5939  0.2368
  216MOL0     H29739   8.076   0.318   2.390 -0.0745  0.9359  0.6901
  216MOL0     H29740   8.284   0.220   2.384 -1.1433 -0.2799 -1.1784
  216MOL0     H29741   8.568  -0.033   2.645 -0.3521 -0.5220  1.6598
  216MOL0     H29742   8.445   0.024   2.761  0.3181  2.8854  0.2585
  216MOL0     H29743   8.538   0.250   2.755 -0.8617  0.0056 -0.8191
  216MOL0     H29744   8.668   0.140   2.801 -0.4826  0.6576  0.5879
  216MOL0     H29745   8.756   0.148   2.553  1.9655 -0.9092  3.5172
  216MOL0     H29746   8.631   0.270   2.527 -2.1360 -2.2575  0.1981
  216MOL0     H29747   8.737   0.406   2.702  1.9466  2.0022 -0.5109
  216MOL0     H29748   8.860   0.277   2.720  0.6094 -1.0378 -1.1174
  216MOL0     H29749   8.916   0.490   2.595  3.3883 -1.0863 -0.6777
  216MOL0     H29750   8.794   0.438   2.467  0.5272  2.1602  1.6806
  216MOL0     H29751   9.064   0.318   2.538 -0.3908  0.7811  1.6562
  216MOL0     H29752   8.937   0.219   2.461  0.8158  0.0170 -1.0492
  216MOL0     H29753   8.907   0.405   2.281  0.4987  0.4744 -0.8693
  216MOL0     H29754   9.050   0.304   2.270 -3.5833 -1.8836 -0.5701
  216MOL0     H29755   9.090   0.528   2.216  1.8511  3.5751  0.9879
  216MOL0     H29756   9.036   0.576   2.377  0.2778 -0.0218 -0.0668
  216MOL0     H29757   9.348   0.343   2.263 -1.2031 -2.2211  2.2023
  216MOL0     H29758   9.608   0.446   2.281  0.3262  2.5366 -0.0046
  216MOL0     H29759   9.568   0.322   2.409 -1.1684  0.0207  0.4462
  216MOL0     H29760   9.634   0.507   2.568 -1.3443 -0.6603 -0.8924
  216MOL0     H29761   9.766   0.428   2.456 -0.1064  0.3967 -0.6124
  216MOL0     H29762   9.666   0.675   2.350 -2.7564 -1.2264  1.0876
  216MOL0     H29763   9.684   0.708   2.519 -0.1107  0.4724 -0.2639
  216MOL0     H29764   9.926   0.589   2.387  1.6592 -0.2813  1.1158
  216MOL0     H29765   9.883   0.762   2.368 -0.9763  0.6714 -1.0729
  216MOL0     H29766  10.030   0.690   2.790 -0.4678 -2.6560  0.4536
  216MOL0     H29767  10.330   0.689   2.900  1.0811  0.6429  0.4507
  216MOL0     H29768  10.177   0.754   2.946  2.2595 -0.9922  1.7040
  216MOL0     H29769  10.317   0.862   2.910 -0.4749  0.7251 -2.2020
  216MOL0     H29770  10.719   0.746   2.494  2.0914 -0.2321 -0.2740
  216MOL0     H29771  10.963   0.804   2.511 -0.3696 -0.7665 -1.2996
  216MOL0     H29772  11.066   1.185   2.371  1.5686 -1.0539 -0.1304
  216MOL0     H29773  11.103   1.231   2.535  0.0386 -0.8872  0.9098
  216MOL0     H29774  11.306   1.101   2.528  0.0396 -0.8817  0.2959
  216MOL0     H29775  11.275   1.039   2.365  0.0800  2.0381 -1.4989
  216MOL0     H29776  11.358   1.325   2.434 -1.2039  0.4851  0.2157
  216MOL0     H29777  11.271   1.293   2.291  3.3309  0.1624 -2.8997
  216MOL0     H29778  11.443   1.104   2.253  1.9206 -1.9534  1.4919
  216MOL0     H29779  11.536   1.164   2.385 -0.7224 -0.7006  0.6543
  216MOL0     H29780  11.437   1.360   2.182 -0.3563 -1.8802 -1.9994
  216MOL0     H29781  11.570   1.374   2.301 -0.5660 -0.3696  0.0786
  216MOL0     H29782  11.648   1.350   2.056  2.0377 -2.6397 -2.2733
  216MOL0     H29783  11.561   1.195   2.049  0.5181 -0.4299  0.0104
  216MOL0     H29784  11.716   1.084   2.167  2.2387 -0.5874 -2.2925
  216MOL0     H29785  11.756   1.238   2.262 -0.1103 -0.2128  0.0639
  216MOL0     H29786  11.845   1.164   1.978 -2.7649  1.6079 -0.7349
  216MOL0     H29787  11.941   1.141   2.136  1.4836  2.1920  2.0092
  216MOL0     H29788  10.848   1.219   2.522  2.1695 -0.0788 -1.5633
  216MOL0     H29789  10.624   1.153   2.555  1.2933  1.2160  0.4831
  216MOL0     H29790  10.328   0.785   2.408  2.1888 -0.8936  1.3986
  216MOL0     H29791  10.108   0.712   2.376 -0.6655 -1.5308 -0.3501
  216MOL0     H29792   8.290   0.149   2.810  2.1763  0.9544 -0.1606
  216MOL0     H29793   8.061   0.244   2.804 -2.9940  0.4846 -1.3614
  216MOL0     H29794   7.585   0.134   2.734  0.8501  0.3879  0.3390
  216MOL0     H29795   7.373   0.219   2.793  0.8120 -0.0665 -0.0085
  216MOL0     H29796   7.170   0.326   2.844 -1.7036 -0.3386  0.3682
  216MOL0     H29797   7.283   0.368   2.980  1.3218  1.7006 -0.5302
  216MOL0     H29798   7.166   0.596   2.998  0.4850 -0.0118 -2.8537
  216MOL0     H29799   7.081   0.460   3.062  1.3349  2.2881  1.5940
  216MOL0     H29800   7.030   0.594   2.782 -2.2417 -0.6866 -0.8865
  216MOL0     H29801   6.945   0.467   2.845 -1.7708  0.4037 -0.3250
  216MOL0     H29802   6.985   0.734   2.988 -1.9652  1.0616  0.4026
  216MOL0     H29803   6.889   0.590   3.057 -0.1907 -1.1479  0.1393
  216MOL0     H29804   6.610   0.729   2.777 -1.3387  3.4574  1.8629
  216MOL0     H29805   7.499   0.624   2.728  0.6682  1.7050 -5.4014
  216MOL0     H29806   7.763   0.589   2.537 -2.0800  2.3748  0.2705
  216MOL0     H29807   7.709   0.675   2.682  1.1384  0.7148 -0.6830
  216MOL0     H29808   7.840   0.559   2.699 -0.3400 -2.4244 -1.5519
  217MOL0     O29809   1.560   0.678   0.211  0.0555  0.4600 -0.1849
  217MOL0     C29810   1.563   0.725   0.320 -0.6067 -0.0536 -0.4120
  217MOL0     O29811   1.636   0.834   0.363  0.2528 -0.0409 -0.1427
  217MOL0     C29812   1.711   0.908   0.277  0.1022 -0.3798 -0.6568
  217MOL0     C29813   1.841   0.869   0.246 -0.6932  0.4045  0.2561
  217MOL0     C29814   1.899   0.924   0.131 -0.2192 -0.4737  0.6980
  217MOL0     C29815   1.842   1.017   0.052  0.5426 -0.0648  0.2326
  217MOL0     O29816   1.903   1.059  -0.061  0.4033 -0.9810  0.4929
  217MOL0     C29817   1.990   0.984  -0.138  0.5325  0.8138  0.6676
  217MOL0     C29818   2.040   1.074  -0.252 -0.2003 -0.3033 -0.1635
  217MOL0     C29819   2.125   1.195  -0.218  0.7593 -0.3024 -0.4205
  217MOL0     C29820   2.164   1.258  -0.349 -0.1461 -0.3137 -0.0685
  217MOL0     C29821   2.264   1.376  -0.322 -0.0816 -0.2817  0.4511
  217MOL0     C29822   2.315   1.442  -0.452 -0.1710  0.0150 -0.7747
  217MOL0     C29823   2.381   1.584  -0.425 -0.0163 -0.7830 -0.3146
  217MOL0     C29824   2.517   1.580  -0.342  0.1460  0.4666 -0.1263
  217MOL0     N29825   2.578   1.703  -0.371  0.0750 -0.2573  0.1316
  217MOL0     C29826   2.571   1.814  -0.291 -0.4419  0.4150  0.3124
  217MOL0     C29827   2.668   1.898  -0.344 -0.3151 -0.1429 -0.0812
  217MOL0     C29828   2.711   2.030  -0.279 -0.2722 -0.7811  0.1407
  217MOL0     C29829   2.824   2.031  -0.183  0.0785 -0.3353 -0.6321
  217MOL0     C29830   2.782   1.979  -0.047 -0.3153  0.4576 -0.5248
  217MOL0     C29831   2.900   1.971   0.060 -0.2493 -0.4157  0.0099
  217MOL0     O29832   2.985   1.857   0.012  0.4151 -0.7548 -0.2813
  217MOL0     C29833   3.117   1.885  -0.031  0.4340 -0.2520  0.5268
  217MOL0     C29834   3.194   1.766  -0.024 -0.6034 -0.2426  0.4500
  217MOL0     C29835   3.323   1.763  -0.084  0.0655 -0.7671  0.3160
  217MOL0     C29836   3.394   1.628  -0.098  0.2903 -1.1482 -0.2154
  217MOL0     C29837   3.387   1.892  -0.119 -0.1747  0.8723 -0.5744
  217MOL0     C29838   3.521   1.910  -0.166  1.0361  0.4830  0.0651
  217MOL0     O29839   3.564   2.034  -0.192  1.3422  0.0016 -0.9323
  217MOL0     C29840   3.696   2.061  -0.214 -0.2201  0.3740 -0.0026
  217MOL0     C29841   3.803   1.985  -0.165  0.0366  0.2053  0.2144
  217MOL0     C29842   3.934   2.021  -0.204 -0.2178 -0.6139 -0.7411
  217MOL0     C29843   3.961   2.128  -0.292 -0.0312 -0.5539 -0.4026
  217MOL0     O29844   4.088   2.164  -0.320 -0.2437 -0.0648  0.0369
  217MOL0     C29845   4.119   2.282  -0.392 -0.2810  0.3341 -0.2876
  217MOL0     C29846   4.264   2.272  -0.441 -0.7051  0.1492  0.6563
  217MOL0     C29847   4.286   2.132  -0.505  0.1286  0.2723 -0.0794
  217MOL0     C29848   4.405   2.123  -0.606 -0.5884  0.3931 -0.9941
  217MOL0     C29849   4.536   2.074  -0.540 -0.5510 -0.6481  0.3718
  217MOL0     C29850   4.596   2.175  -0.441 -0.9493 -0.9458 -0.1593
  217MOL0     C29851   4.737   2.149  -0.402 -0.4217 -0.8594  0.5828
  217MOL0     C29852   4.832   2.145  -0.522  0.1608 -0.0925 -0.3896
  217MOL0    Cl29853   5.001   2.129  -0.464  0.0190  0.3475 -0.5039
  217MOL0     C29854   3.849   2.198  -0.344 -0.7901 -0.4283 -0.5454
  217MOL0     C29855   3.723   2.161  -0.304  0.2453 -0.4610  0.2344
  217MOL0     O29856   3.590   1.809  -0.197 -0.0889 -0.2137 -0.3438
  217MOL0     C29857   3.302   2.001  -0.113  0.5344  0.1583  0.4208
  217MOL0     C29858   3.167   2.003  -0.074  1.0082  0.8181  0.5561
  217MOL0     N29859   2.717   1.841  -0.459  0.0251  0.1398  0.1495
  217MOL0     N29860   2.659   1.729  -0.475  0.3571  0.2836 -0.2691
  217MOL0     C29861   1.710   1.050   0.079 -0.6123  0.6194 -0.8382
  217MOL0     C29862   1.640   0.992   0.190 -0.1552  0.6807 -0.5643
  217MOL0     C29863   1.491   0.657   0.438 -0.0179  0.4492 -0.3172
  217MOL0     C29864   1.497   0.727   0.559  0.4970 -0.3497  0.3332
  217MOL0     C29865   1.441   0.670   0.678 -0.4479  0.7281  0.1402
  217MOL0     C29866   1.372   0.557   0.671 -0.0900  0.5190 -0.3366
  217MOL0     O29867   1.322   0.517   0.789 -0.3532  0.0530  0.4458
  217MOL0     C29868   1.203   0.435   0.781  0.7726 -0.3662 -0.6623
  217MOL0     C29869   1.081   0.488   0.697  0.1045 -0.2355  0.2043
  217MOL0     C29870   1.068   0.636   0.706 -0.2311  0.0425  0.0653
  217MOL0     C29871   1.036   0.685   0.851  0.3584  0.7432  0.3649
  217MOL0     C29872   1.036   0.831   0.867 -0.1779 -0.5325  0.7583
  217MOL0     C29873   1.057   0.951   0.881  0.9986  0.5448  0.0325
  217MOL0     C29874   1.360   0.490   0.552 -0.5336 -0.4090 -0.1860
  217MOL0     C29875   1.419   0.538   0.434  0.4021  0.3167  0.2293
  217MOL0     C29876   1.413   0.449   0.315  0.2358  1.0751  0.0597
  217MOL0     H29877   1.876   0.793   0.316 -0.7662 -0.9571 -1.1150
  217MOL0     H29878   1.996   0.881   0.111  0.5224  0.9990  0.9695
  217MOL0     H29879   1.940   0.895  -0.176  3.4805  0.0960 -1.9812
  217MOL0     H29880   2.074   0.952  -0.076  0.0008 -5.1385 -1.1124
  217MOL0     H29881   2.096   1.008  -0.318 -2.4498 -0.2939 -2.2054
  217MOL0     H29882   1.958   1.105  -0.317 -0.6903 -2.4756 -0.6253
  217MOL0     H29883   2.065   1.260  -0.153  2.2160  0.3859  0.2914
  217MOL0     H29884   2.219   1.167  -0.169  1.7011 -2.4339 -3.1918
  217MOL0     H29885   2.205   1.184  -0.417  1.8606  0.6455  0.0359
  217MOL0     H29886   2.078   1.301  -0.401  1.1477 -0.1454 -2.1741
  217MOL0     H29887   2.353   1.342  -0.268  1.2783  1.9889 -0.2113
  217MOL0     H29888   2.212   1.452  -0.263  0.3614 -0.9325  1.7174
  217MOL0     H29889   2.385   1.379  -0.507  2.3464 -0.0756  2.2244
  217MOL0     H29890   2.227   1.469  -0.510 -0.9481  1.9357  1.1328
  217MOL0     H29891   2.313   1.663  -0.391  2.3240  1.6080 -0.8548
  217MOL0     H29892   2.404   1.620  -0.526  0.9953 -0.7537 -0.0813
  217MOL0     H29893   2.484   1.565  -0.239  2.3667 -1.2180  0.4241
  217MOL0     H29894   2.573   1.488  -0.362 -1.4812  0.0179 -3.2227
  217MOL0     H29895   2.505   1.828  -0.207 -1.8208 -4.3548  0.3518
  217MOL0     H29896   2.628   2.088  -0.239  0.3242 -1.0198  1.8262
  217MOL0     H29897   2.754   2.082  -0.365  1.2588  4.1101  3.4230
  217MOL0     H29898   2.897   1.960  -0.224  1.7538  0.6794  0.4560
  217MOL0     H29899   2.864   2.133  -0.182 -1.4522  0.2858 -0.6013
  217MOL0     H29900   2.712   2.053  -0.008 -1.6386 -1.3513  0.6653
  217MOL0     H29901   2.738   1.879  -0.060  1.4621 -0.3602 -0.5943
  217MOL0     H29902   2.947   2.069   0.055  0.4879 -0.7966 -3.8513
  217MOL0     H29903   2.861   1.936   0.156 -1.5364 -0.0201 -0.3469
  217MOL0     H29904   3.154   1.672   0.015 -2.4881  0.3960  0.1792
  217MOL0     H29905   3.485   1.619  -0.037  0.0079 -1.8225  0.1183
  217MOL0     H29906   3.428   1.626  -0.202 -1.2138 -0.2011 -0.7549
  217MOL0     H29907   3.334   1.537  -0.100 -3.1861  0.9626 -2.0591
  217MOL0     H29908   3.781   1.901  -0.100 -0.6978 -0.0308 -0.3145
  217MOL0     H29909   4.017   1.968  -0.158  0.1853 -0.5417 -1.3611
  217MOL0     H29910   4.061   2.287  -0.485  1.2652 -1.1098 -1.4031
  217MOL0     H29911   4.111   2.377  -0.340  2.4528 -0.1475  1.2475
  217MOL0     H29912   4.274   2.350  -0.517  1.2178 -1.9432 -1.4428
  217MOL0     H29913   4.336   2.283  -0.360 -0.3705 -0.8635  0.5145
  217MOL0     H29914   4.201   2.115  -0.573  0.2455 -0.8083  0.0286
  217MOL0     H29915   4.280   2.048  -0.436  1.8291  1.5516  1.7269
  217MOL0     H29916   4.422   2.220  -0.653 -1.0322  1.2025  0.4699
  217MOL0     H29917   4.382   2.044  -0.679  0.3838 -0.9343  0.0774
  217MOL0     H29918   4.522   1.975  -0.494 -0.9457 -0.7091  0.1272
  217MOL0     H29919   4.610   2.059  -0.620 -2.9867  0.7568 -2.2976
  217MOL0     H29920   4.537   2.177  -0.349  0.6381  1.2171  0.8864
  217MOL0     H29921   4.578   2.275  -0.481 -1.3157  0.2264  2.6954
  217MOL0     H29922   4.740   2.060  -0.338 -0.9217 -0.1129  1.6653
  217MOL0     H29923   4.784   2.237  -0.356  1.6773 -0.9921 -1.0947
  217MOL0     H29924   4.821   2.236  -0.582  0.8782  0.6107  0.5198
  217MOL0     H29925   4.804   2.053  -0.575 -0.1204 -1.3937  1.8832
  217MOL0     H29926   3.850   2.273  -0.423  1.7727  1.4033  1.0453
  217MOL0     H29927   3.640   2.217  -0.344 -0.9447 -3.1247 -1.3079
  217MOL0     H29928   3.361   2.092  -0.125  0.0663  1.0760  3.7703
  217MOL0     H29929   3.106   2.092  -0.085 -0.0847 -0.0431 -0.5815
  217MOL0     H29930   1.666   1.136   0.029 -0.8485  1.4943  0.8101
  217MOL0     H29931   1.541   1.010   0.231 -0.3282  1.2166 -1.1955
  217MOL0     H29932   1.543   0.824   0.574  1.8007 -0.9952  0.7157
  217MOL0     H29933   1.447   0.719   0.774  0.0076  0.0129  0.4830
  217MOL0     H29934   1.220   0.335   0.739  0.1878 -0.2443 -1.2093
  217MOL0     H29935   1.158   0.426   0.880 -2.8370 -1.1476 -2.2375
  217MOL0     H29936   0.988   0.457   0.745 -0.3603  1.1666  0.2697
  217MOL0     H29937   1.082   0.451   0.594 -0.2130  0.3397 -0.0138
  217MOL0     H29938   1.163   0.674   0.668  0.8656  0.4052  2.8928
  217MOL0     H29939   0.982   0.671   0.648  0.5681  0.8909 -0.6405
  217MOL0     H29940   1.126   0.643   0.896  2.2157  1.4602 -2.4518
  217MOL0     H29941   0.948   0.638   0.895 -0.4363  1.8139 -0.0346
  217MOL0     H29942   1.066   1.058   0.883  2.0242  0.4698  2.2058
  217MOL0     H29943   1.304   0.396   0.554 -0.7916 -0.2567 -0.2270
  217MOL0     H29944   1.378   0.494   0.222  0.5309 -0.9480 -1.0929
  217MOL0     H29945   1.517   0.418   0.298 -0.4974 -3.0113  1.7005
  217MOL0     H29946   1.352   0.360   0.336  0.1431  1.0131 -0.4656
  218MOL0     O29947   8.117  11.144   1.884 -0.2649  0.6070 -0.6871
  218MOL0     C29948   8.024  11.080   1.835  0.0874 -0.0503  0.1008
  218MOL0     O29949   8.041  10.968   1.755 -0.5303  0.6251  0.3402
  218MOL0     C29950   8.163  10.918   1.707  0.3971 -0.6841  0.1930
  218MOL0     C29951   8.274  10.990   1.672  0.4908 -0.3766 -0.6786
  218MOL0     C29952   8.391  10.935   1.619 -0.3835  0.1098 -0.2034
  218MOL0     C29953   8.391  10.799   1.599 -0.2670  0.0605 -0.0760
  218MOL0     O29954   8.512  10.744   1.552  0.6887  0.1823  0.0882
  218MOL0     C29955   8.576  10.682   1.664 -0.7450  0.2433  0.8942
  218MOL0     C29956   8.726  10.659   1.613 -0.4684  0.4708 -0.3290
  218MOL0     C29957   8.840  10.604   1.718  0.4759  0.1680  0.2019
  218MOL0     C29958   8.940  10.513   1.650  0.0760  0.5516 -0.0756
  218MOL0     C29959   9.052  10.509   1.754 -0.2802  0.0243  1.0224
  218MOL0     C29960   9.179  10.449   1.685 -0.2288 -0.1370 -0.5300
  218MOL0     C29961   9.289  10.547   1.674  0.7495  0.4248 -0.5817
  218MOL0     C29962   9.409  10.487   1.596 -0.5034 -0.3892  0.7425
  218MOL0     N29963   9.496  10.589   1.546 -0.1722  0.2544  0.0092
  218MOL0     C29964   9.607  10.645   1.610 -0.5234 -0.3454  0.3835
  218MOL0     C29965   9.670  10.695   1.506 -0.3481  0.3955 -0.5513
  218MOL0     C29966   9.810  10.748   1.513 -0.1839 -0.1550  0.2524
  218MOL0     C29967   9.812  10.894   1.475  0.3016 -0.5838  0.1214
  218MOL0     C29968   9.959  10.952   1.508 -0.1532  1.4623 -0.0885
  218MOL0     C29969   9.962  11.101   1.491  0.3374 -0.1699  0.4233
  218MOL0     O29970   9.951  11.133   1.354 -0.8799 -0.4716  0.3938
  218MOL0     C29971  10.068  11.121   1.282  0.0714 -0.4804  0.3200
  218MOL0     C29972  10.046  11.131   1.148  0.4888  0.3669 -0.1495
  218MOL0     C29973  10.145  11.121   1.047  0.5118 -0.0427  0.4003
  218MOL0     C29974  10.099  11.147   0.900 -0.2100  0.2778 -0.4882
  218MOL0     C29975  10.282  11.086   1.086  0.4961 -0.5212  0.2577
  218MOL0     C29976  10.405  11.079   1.005  0.2936  0.3699 -0.0390
  218MOL0     O29977  10.514  11.016   1.055 -0.1079 -0.3996 -0.2344
  218MOL0     C29978  10.635  10.988   0.992 -0.4004  0.2310 -0.2261
  218MOL0     C29979  10.686  11.038   0.871 -0.1811  0.3229 -0.6157
  218MOL0     C29980  10.812  11.010   0.820  0.6625 -0.9617  0.2992
  218MOL0     C29981  10.891  10.925   0.883  1.0764 -0.9658 -0.7366
  218MOL0     O29982  11.015  10.897   0.821  0.1402 -0.2328  0.3938
  218MOL0     C29983  11.125  10.972   0.865  0.2475 -0.1892 -1.1749
  218MOL0     C29984  11.254  10.928   0.814 -0.8429  1.0261 -0.8102
  218MOL0     C29985  11.367  10.963   0.909 -0.6175 -0.7068  0.1645
  218MOL0     C29986  11.506  10.934   0.858  0.7531  0.5090 -0.6481
  218MOL0     C29987  11.599  11.048   0.877 -0.0883 -0.5185  0.6220
  218MOL0     C29988  11.736  11.001   0.825 -0.7011 -0.4276  0.9046
  218MOL0     C29989  11.806  10.906   0.922 -0.7369 -0.7589  0.1768
  218MOL0     C29990  11.955  10.896   0.878  0.1758  0.1166  0.4643
  218MOL0    Cl29991  11.984  10.863   0.696  0.2155 -0.0547  0.1558
  218MOL0     C29992  10.848  10.873   1.007 -0.8684 -0.4623 -0.4812
  218MOL0     C29993  10.721  10.895   1.055  0.4966  0.1122  0.7346
  218MOL0     O29994  10.393  11.115   0.887 -0.2532  0.1344  0.3118
  218MOL0     C29995  10.301  11.074   1.227  0.4754  0.2250 -0.1757
  218MOL0     C29996  10.198  11.089   1.326  0.4651 -0.0600  0.5922
  218MOL0     N29997   9.596  10.689   1.386  0.2627 -0.3467 -0.2331
  218MOL0     N29998   9.490  10.628   1.416 -0.0186  0.0108  0.6434
  218MOL0     C29999   8.280  10.723   1.639 -0.4291  0.0525  0.5342
  218MOL0     C30000   8.163  10.784   1.689 -0.3042  0.6801 -0.0148
  218MOL0     C30001   7.886  11.122   1.870 -0.2246  0.7213  0.8433
  218MOL0     C30002   7.794  11.022   1.902 -0.4316  0.4132  0.5814
  218MOL0     C30003   7.666  11.042   1.946 -0.4834 -0.1593 -0.7534
  218MOL0     C30004   7.618  11.172   1.956 -0.1986  0.3431 -0.1370
  218MOL0     O30005   7.481  11.204   1.992  0.0449  0.0809 -0.2919
  218MOL0     C30006   7.378  11.106   1.978  0.6946  0.2748  0.4752
  218MOL0     C30007   7.282  11.160   1.876 -0.0106  0.7767 -0.9871
  218MOL0     C30008   7.201  11.271   1.934 -0.8931 -0.2277 -0.1260
  218MOL0     C30009   7.101  11.318   1.834  0.0243 -0.2105  0.0381
  218MOL0     C30010   6.980  11.231   1.833  0.2311 -0.4091 -0.0716
  218MOL0     C30011   6.878  11.169   1.848  0.2534 -0.4177 -0.2532
  218MOL0     C30012   7.714  11.275   1.932 -0.0142  0.4543  0.4594
  218MOL0     C30013   7.843  11.254   1.887 -0.1721 -0.8286 -0.3589
  218MOL0     C30014   7.931  11.373   1.867  0.5873 -0.2642 -0.6814
  218MOL0     H30015   8.275  11.099   1.679  3.2801 -0.4255  1.1050
  218MOL0     H30016   8.483  10.990   1.602 -0.2102  0.0703  0.5913
  218MOL0     H30017   8.534  10.584   1.689 -2.2767  0.9133  1.0483
  218MOL0     H30018   8.579  10.744   1.754 -0.2259 -1.2946  1.9759
  218MOL0     H30019   8.718  10.573   1.546 -3.2009  1.2333 -1.1092
  218MOL0     H30020   8.762  10.742   1.553  2.7865 -0.0623  0.6714
  218MOL0     H30021   8.891  10.692   1.758 -0.2748  1.3322 -1.2950
  218MOL0     H30022   8.796  10.550   1.802  0.2838 -0.4980 -0.3181
  218MOL0     H30023   8.898  10.414   1.632 -1.9212  1.0195  1.5791
  218MOL0     H30024   8.971  10.552   1.553 -1.7686 -1.6780 -1.6613
  218MOL0     H30025   9.030  10.444   1.839 -1.5420 -0.0881  0.6335
  218MOL0     H30026   9.088  10.604   1.794  0.0505  0.0407  0.6955
  218MOL0     H30027   9.205  10.367   1.753  2.1916 -0.1904 -1.4116
  218MOL0     H30028   9.142  10.409   1.590 -1.4186  0.2907 -0.2667
  218MOL0     H30029   9.318  10.578   1.775  0.5563  1.5648 -0.8612
  218MOL0     H30030   9.257  10.641   1.627 -3.5999 -0.3856  0.2866
  218MOL0     H30031   9.469  10.423   1.662  4.5782  1.7250 -1.2905
  218MOL0     H30032   9.371  10.433   1.509 -0.4482 -3.2944  2.3861
  218MOL0     H30033   9.646  10.613   1.706 -2.2638 -0.5805  1.0643
  218MOL0     H30034   9.873  10.691   1.443  1.4061 -0.1908  1.6447
  218MOL0     H30035   9.867  10.729   1.604  0.6784  0.8957 -0.0584
  218MOL0     H30036   9.771  10.899   1.374 -0.3188  0.3266  0.4047
  218MOL0     H30037   9.750  10.961   1.536  0.8903  0.4491 -0.3769
  218MOL0     H30038   9.981  10.930   1.612 -0.2825  2.3586  0.1360
  218MOL0     H30039  10.037  10.914   1.442  0.9439 -0.1399  2.0310
  218MOL0     H30040   9.870  11.132   1.542 -0.1027 -1.6896  0.6181
  218MOL0     H30041  10.044  11.153   1.541 -0.2873  0.2960  0.9833
  218MOL0     H30042   9.946  11.159   1.120 -0.0237  1.2765  2.3343
  218MOL0     H30043  10.167  11.213   0.844  0.1002  1.8630  1.6216
  218MOL0     H30044  10.001  11.194   0.894 -0.1029  0.4492 -0.9281
  218MOL0     H30045  10.096  11.054   0.842  2.3911 -0.3293  0.1889
  218MOL0     H30046  10.617  11.093   0.807 -3.4027 -1.6173  0.9634
  218MOL0     H30047  10.839  11.061   0.728 -2.6782  2.3542  0.9178
  218MOL0     H30048  11.118  11.071   0.820  2.6158  0.1983 -0.8397
  218MOL0     H30049  11.123  10.965   0.975 -0.2100 -0.6944 -1.2087
  218MOL0     H30050  11.261  10.819   0.808  1.1014  1.0098  0.8922
  218MOL0     H30051  11.275  10.967   0.715  0.1382 -1.2134 -1.5360
  218MOL0     H30052  11.347  10.920   1.008  0.5025 -0.1865  0.6390
  218MOL0     H30053  11.373  11.072   0.924  1.9425 -0.4981 -1.6547
  218MOL0     H30054  11.503  10.901   0.753  0.0952 -1.0727 -0.1593
  218MOL0     H30055  11.546  10.845   0.907  2.2059  0.5177 -1.7245
  218MOL0     H30056  11.555  11.123   0.810  0.8711 -0.8169 -0.3648
  218MOL0     H30057  11.600  11.083   0.980 -0.3032  0.9892  0.1281
  218MOL0     H30058  11.794  11.092   0.807 -0.4153 -0.7628  0.0832
  218MOL0     H30059  11.722  10.950   0.729  2.1942  2.0215 -0.9921
  218MOL0     H30060  11.768  10.804   0.914 -0.5145 -0.7352 -1.6203
  218MOL0     H30061  11.828  10.941   1.023  2.5425  1.0008 -0.9824
  218MOL0     H30062  12.018  10.826   0.934  2.7797 -0.8499 -3.3092
  218MOL0     H30063  12.009  10.990   0.891  0.7147 -0.1993  0.5084
  218MOL0     H30064  10.917  10.816   1.068 -2.3832 -1.2891  0.5398
  218MOL0     H30065  10.681  10.852   1.146 -3.3389 -1.0334 -1.2431
  218MOL0     H30066  10.396  11.033   1.258  0.5778 -0.6981 -1.6305
  218MOL0     H30067  10.222  11.085   1.431  1.6111  1.8355  0.4430
  218MOL0     H30068   8.285  10.615   1.632  0.6035  0.0395  1.2126
  218MOL0     H30069   8.080  10.722   1.723  1.2549 -1.8097 -0.4821
  218MOL0     H30070   7.821  10.917   1.905 -1.7318 -0.1301 -2.7803
  218MOL0     H30071   7.618  10.954   1.987  0.4452 -0.6938 -0.7986
  218MOL0     H30072   7.415  11.011   1.939  2.0243  1.0524 -0.2181
  218MOL0     H30073   7.329  11.075   2.071  0.1269 -0.2955  0.0039
  218MOL0     H30074   7.227  11.075   1.836 -0.4314  0.7669 -0.4100
  218MOL0     H30075   7.334  11.184   1.783 -1.6395  0.6334 -1.9664
  218MOL0     H30076   7.150  11.243   2.026 -1.5976 -2.4451 -1.1392
  218MOL0     H30077   7.273  11.348   1.963  0.4779 -1.7022  0.5054
  218MOL0     H30078   7.146  11.321   1.734  0.2451 -3.0839 -0.0328
  218MOL0     H30079   7.069  11.420   1.859  0.4899  0.6020 -2.4192
  218MOL0     H30080   6.781  11.131   1.874 -1.3971  4.3579  1.7049
  218MOL0     H30081   7.687  11.380   1.932 -2.0350  0.0905 -2.8699
  218MOL0     H30082   8.034  11.360   1.902  0.7475 -2.4691 -1.7894
  218MOL0     H30083   7.941  11.385   1.759  2.4728 -0.9626 -0.6246
  218MOL0     H30084   7.881  11.455   1.921 -0.2319 -1.7198  0.8734
  219MOL0     O30085   6.869  10.107  10.929 -0.1405  0.0585 -0.4679
  219MOL0     C30086   6.787  10.060  11.003  0.0312 -0.7633 -0.9277
  219MOL0     O30087   6.803  10.040  11.135 -0.2988 -0.5365 -0.8639
  219MOL0     C30088   6.925  10.047  11.195 -0.5119  0.0814  0.6857
  219MOL0     C30089   6.982  10.166  11.234  0.4650  0.0121 -0.7363
  219MOL0     C30090   7.104  10.161  11.298 -0.0858  0.5559  0.0285
  219MOL0     C30091   7.186  10.047  11.316 -0.3242 -0.1110  0.0653
  219MOL0     O30092   7.314  10.056  11.365 -0.4489  0.3619  0.1491
  219MOL0     C30093   7.395  10.149  11.309 -0.1162  0.3549  0.5938
  219MOL0     C30094   7.538  10.137  11.343 -0.2920  0.6901 -0.6349
  219MOL0     C30095   7.566  10.169  11.487  1.1220 -0.6072 -0.6999
  219MOL0     C30096   7.696  10.111  11.544  0.1165  0.5901  0.9988
  219MOL0     C30097   7.689  10.121  11.696 -1.1874 -0.7302 -0.2704
  219MOL0     C30098   7.811  10.057  11.763 -0.5356  0.6805 -1.1593
  219MOL0     C30099   7.822  10.058  11.920  0.6139  0.3492  0.3179
  219MOL0     C30100   7.703  10.024  12.013 -0.0601 -0.2753 -0.2016
  219MOL0     N30101   7.757  10.030  12.162  0.9073  0.9848  0.5867
  219MOL0     C30102   7.715  10.104  12.265 -0.7094  0.2046  0.6014
  219MOL0     C30103   7.799  10.072  12.368  0.2028  0.2585  0.0346
  219MOL0     C30104   7.779  10.125  12.507  0.5564  0.5307  0.7754
  219MOL0     C30105   7.912  10.140  12.579 -0.3781  0.5520  0.1718
  219MOL0     C30106   7.884  10.178  12.730 -0.3245  0.2319 -0.4908
  219MOL0     C30107   8.006  10.189  12.812  0.4923 -1.5674  0.4885
  219MOL0     O30108   8.074  10.061  12.839  0.5817  0.1618  0.1657
  219MOL0     C30109   8.189  10.072  12.915  0.3656  0.3261 -0.5425
  219MOL0     C30110   8.251  10.188  12.955  0.3466  0.0273  0.9411
  219MOL0     C30111   8.381  10.184  13.015  0.0708  0.6175  0.0585
  219MOL0     C30112   8.443  10.320  13.020  0.2635  0.9951  0.8951
  219MOL0     C30113   8.448  10.058  13.034 -0.1303  0.5977 -0.2342
  219MOL0     C30114   8.572  10.054  13.105 -0.2919  0.3904 -1.0398
  219MOL0     O30115   8.642   9.933  13.088 -0.2669 -0.0456 -0.0229
  219MOL0     C30116   8.768   9.914  13.137 -0.5777  0.3396 -0.0195
  219MOL0     C30117   8.872  10.003  13.095  0.0676  0.0060 -0.3344
  219MOL0     C30118   9.001   9.993  13.146 -0.6312  0.5838 -0.6215
  219MOL0     C30119   9.035   9.881  13.227 -0.9718  0.2809 -0.3667
  219MOL0     O30120   9.170   9.857  13.260  0.5332  0.4830  0.1351
  219MOL0     C30121   9.198   9.780  13.371 -0.3104 -0.2510 -0.2675
  219MOL0     C30122   9.158   9.853  13.507  1.0784 -0.1875 -0.1699
  219MOL0     C30123   9.194   9.775  13.632  0.2258 -0.0833 -0.5474
  219MOL0     C30124   9.072   9.766  13.728 -0.4477  0.2375 -0.3366
  219MOL0     C30125   9.049   9.898  13.793  0.1044 -0.7766  0.0788
  219MOL0     C30126   8.943   9.886  13.909  0.0341  0.0981  0.0341
  219MOL0     C30127   8.873  10.014  13.935  0.7756 -0.2703  0.5503
  219MOL0     C30128   8.766   9.994  14.049 -0.2207  0.5341 -0.0164
  219MOL0    Cl30129   8.849   9.977  14.210  0.0539  0.7750  0.1790
  219MOL0     C30130   8.929   9.794  13.266  0.4655 -0.2478 -0.0794
  219MOL0     C30131   8.793   9.812  13.228  0.5554  0.1432  0.3424
  219MOL0     O30132   8.590  10.128  13.196 -0.5044  0.2090 -0.6206
  219MOL0     C30133   8.376   9.939  13.006 -0.1736 -0.2322  0.0796
  219MOL0     C30134   8.246   9.947  12.939 -0.4229  0.2168 -1.0049
  219MOL0     N30135   7.882   9.974  12.326  0.0112 -0.2099 -0.3089
  219MOL0     N30136   7.855   9.946  12.207  0.1758  0.0429  0.6108
  219MOL0     C30137   7.126   9.925  11.286 -0.4578  0.2049  0.2935
  219MOL0     C30138   7.001   9.922  11.215  0.2384  0.3462 -0.2960
  219MOL0     C30139   6.658  10.039  10.942  0.4358 -0.2809 -0.5833
  219MOL0     C30140   6.620   9.912  10.897 -0.0108 -0.4092  0.0587
  219MOL0     C30141   6.487   9.891  10.853 -1.0990 -0.2355  1.1017
  219MOL0     C30142   6.391   9.994  10.856  0.2462  0.1473  0.8154
  219MOL0     O30143   6.270   9.965  10.803  0.3885  0.4092  0.2435
  219MOL0     C30144   6.162  10.048  10.841  0.0164 -0.5155 -0.9257
  219MOL0     C30145   6.036   9.981  10.799 -0.1858 -0.1685 -0.4482
  219MOL0     C30146   5.909  10.060  10.812  1.1299  0.1406  0.3700
  219MOL0     C30147   5.841  10.110  10.680  0.1146  0.1962  0.4627
  219MOL0     C30148   5.794  10.003  10.593  0.0505 -0.0196 -0.2927
  219MOL0     C30149   5.747   9.924  10.510 -0.5087  0.8756 -0.5692
  219MOL0     C30150   6.425  10.119  10.909 -0.1343 -0.0634  0.2672
  219MOL0     C30151   6.555  10.142  10.956  0.7735  1.4295 -0.1175
  219MOL0     C30152   6.573  10.281  11.021 -0.1794 -0.1614  0.3736
  219MOL0     H30153   6.924  10.257  11.224 -1.0706 -0.1287  4.3068
  219MOL0     H30154   7.144  10.256  11.332 -0.4683  0.2785  1.2959
  219MOL0     H30155   7.361  10.251  11.330 -0.4833  0.2363  0.5819
  219MOL0     H30156   7.383  10.128  11.202 -1.8411 -0.6401  0.9404
  219MOL0     H30157   7.557  10.032  11.320 -2.9793  0.3629 -1.8084
  219MOL0     H30158   7.580  10.210  11.274 -0.4344  2.4285  1.0414
  219MOL0     H30159   7.557  10.277  11.493 -3.0017 -0.5748 -3.4404
  219MOL0     H30160   7.478  10.124  11.535  0.4673  1.0268 -0.3263
  219MOL0     H30161   7.715  10.010  11.506  3.1714  0.7856  1.7270
  219MOL0     H30162   7.789  10.158  11.511  0.5433 -1.0471 -0.3057
  219MOL0     H30163   7.601  10.072  11.736 -2.3679  0.0425 -1.7858
  219MOL0     H30164   7.679  10.224  11.732 -1.8936 -1.0230  0.3718
  219MOL0     H30165   7.804   9.953  11.729  0.2829 -0.4145  1.7354
  219MOL0     H30166   7.905  10.102  11.730 -0.1287  0.7071  0.0110
  219MOL0     H30167   7.848  10.160  11.951 -1.5563  0.5382  1.6836
  219MOL0     H30168   7.909   9.996  11.947  2.3996  1.4035 -2.5882
  219MOL0     H30169   7.627  10.101  12.000 -1.1669 -0.7324  2.7582
  219MOL0     H30170   7.653   9.932  11.982  1.5139 -1.6159  1.0408
  219MOL0     H30171   7.635  10.176  12.271 -2.0715 -1.2134  0.0589
  219MOL0     H30172   7.711  10.055  12.556 -1.7723  1.5160 -0.8673
  219MOL0     H30173   7.727  10.221  12.500  2.1565  1.3428 -1.0282
  219MOL0     H30174   7.975  10.052  12.561 -1.9379 -0.0927 -2.6977
  219MOL0     H30175   7.972  10.214  12.527 -2.1041  1.9129  0.0446
  219MOL0     H30176   7.832  10.274  12.738 -0.2675  0.1964  0.4837
  219MOL0     H30177   7.825  10.101  12.779 -1.4780  2.3290  1.6375
  219MOL0     H30178   8.072  10.254  12.754 -0.6502 -0.9120 -0.0979
  219MOL0     H30179   7.979  10.242  12.904  0.4946 -0.6882 -0.0037
  219MOL0     H30180   8.197  10.279  12.930  0.9716  0.8843  2.5328
  219MOL0     H30181   8.438  10.357  13.123  0.1978  1.5949  0.6800
  219MOL0     H30182   8.384  10.388  12.958 -1.7418 -2.2132 -1.0094
  219MOL0     H30183   8.544  10.325  12.980 -0.1527  1.7419 -0.1181
  219MOL0     H30184   8.849  10.087  13.030 -0.2344 -0.5653 -0.9757
  219MOL0     H30185   9.071  10.070  13.116 -0.8044  0.2504 -1.9362
  219MOL0     H30186   9.159   9.678  13.361 -2.5551  0.7110 -2.1864
  219MOL0     H30187   9.307   9.777  13.368 -0.2420  0.6778  0.8161
  219MOL0     H30188   9.198   9.954  13.512 -0.8164  0.6452 -0.9851
  219MOL0     H30189   9.050   9.859  13.491  1.2239 -0.6991 -1.4501
  219MOL0     H30190   9.281   9.826  13.675 -1.8884  1.8501  1.7138
  219MOL0     H30191   9.220   9.674  13.601 -0.1473 -0.9290  1.6840
  219MOL0     H30192   9.094   9.707  13.817  1.0701  1.1313 -0.0705
  219MOL0     H30193   8.982   9.723  13.685 -2.1925  2.4411  0.9137
  219MOL0     H30194   9.139   9.947  13.831 -1.4675  0.5925  2.2504
  219MOL0     H30195   9.011   9.960  13.712 -1.2495 -0.4361  0.9446
  219MOL0     H30196   8.991   9.858  14.003  0.7489 -1.2490 -0.7009
  219MOL0     H30197   8.861   9.819  13.883 -0.2987  1.5168 -2.9824
  219MOL0     H30198   8.817  10.054  13.850 -1.9815 -0.6462  2.0587
  219MOL0     H30199   8.947  10.091  13.957  1.1027 -0.3219 -0.3198
  219MOL0     H30200   8.693   9.914  14.034 -2.4868  2.3309  0.7014
  219MOL0     H30201   8.705  10.085  14.051 -1.7159 -0.4111 -0.3829
  219MOL0     H30202   8.947   9.721  13.343 -2.6308 -0.0299  0.9729
  219MOL0     H30203   8.713   9.748  13.262 -1.2709  1.6918 -0.8362
  219MOL0     H30204   8.424   9.848  13.040 -0.3775  0.5066  2.5837
  219MOL0     H30205   8.186   9.860  12.914 -3.6295  1.9180  0.2074
  219MOL0     H30206   7.184   9.834  11.296  0.4797  0.6872 -0.5657
  219MOL0     H30207   6.964   9.829  11.173 -0.1001 -0.7723  2.3110
  219MOL0     H30208   6.697   9.836  10.901 -1.1421 -1.5445  1.1270
  219MOL0     H30209   6.465   9.794  10.810 -0.7527 -0.4635  1.4253
  219MOL0     H30210   6.152  10.069  10.948 -0.6274  1.3013 -1.2964
  219MOL0     H30211   6.181  10.144  10.792 -0.6014  0.3976  0.5471
  219MOL0     H30212   6.030   9.892  10.863 -0.9825 -0.5448 -1.0255
  219MOL0     H30213   6.046   9.967  10.691  1.3050 -3.1251 -0.0229
  219MOL0     H30214   5.836  10.010  10.877  1.1562  0.3374  0.5532
  219MOL0     H30215   5.935  10.153  10.862 -2.2235  2.2307 -1.4090
  219MOL0     H30216   5.922  10.161  10.627 -0.6216  0.5038 -0.3869
  219MOL0     H30217   5.762  10.181  10.703  1.8247  2.8019 -1.1172
  219MOL0     H30218   5.713   9.851  10.440 -1.9566  0.8973  0.0676
  219MOL0     H30219   6.366  10.209  10.922  1.0079  1.4879 -3.7140
  219MOL0     H30220   6.563  10.259  11.128  0.8811 -0.9199  0.3290
  219MOL0     H30221   6.669  10.323  10.991  0.5200 -1.7307  0.3029
  219MOL0     H30222   6.503  10.361  10.996 -0.2518 -0.0204  1.0103
  220MOL0     O30223   7.452   4.694  10.494 -0.8245  0.5784  0.1105
  220MOL0     C30224   7.377   4.645  10.574  0.6188 -0.0037  0.4413
  220MOL0     O30225   7.415   4.605  10.697  0.1938 -0.3050  0.4818
  220MOL0     C30226   7.537   4.651  10.734  0.2093 -0.2462 -0.8907
  220MOL0     C30227   7.550   4.751  10.835  0.5969 -0.0493 -0.7461
  220MOL0     C30228   7.674   4.780  10.888  0.4774  0.5962  0.0514
  220MOL0     C30229   7.789   4.731  10.836  0.5433  0.3361 -0.5494
  220MOL0     O30230   7.914   4.776  10.868  0.0214 -0.2027  0.2596
  220MOL0     C30231   7.930   4.917  10.877  0.0788 -0.3474  0.3209
  220MOL0     C30232   8.078   4.952  10.911  0.0220 -0.0621  0.9123
  220MOL0     C30233   8.175   4.882  10.805 -0.9333  0.2721 -0.7051
  220MOL0     C30234   8.322   4.933  10.819  0.0813 -0.2669 -0.8748
  220MOL0     C30235   8.345   5.072  10.762  0.4247  0.0257 -0.2099
  220MOL0     C30236   8.492   5.124  10.772  0.1717 -0.1287  0.9104
  220MOL0     C30237   8.500   5.268  10.732 -0.6431 -0.2945 -0.2628
  220MOL0     C30238   8.638   5.314  10.696 -1.1883  0.0098  0.8107
  220MOL0     N30239   8.742   5.269  10.790 -0.1933 -0.0817  0.0173
  220MOL0     C30240   8.848   5.185  10.753  0.9301  0.3123 -0.1329
  220MOL0     C30241   8.914   5.166  10.874 -0.6261  0.7330  0.6160
  220MOL0     C30242   9.038   5.085  10.896  0.2267 -0.2424 -0.2879
  220MOL0     C30243   9.150   5.130  10.799  0.6043  0.1727 -0.3411
  220MOL0     C30244   9.273   5.039  10.824  0.0991 -0.5172  0.2941
  220MOL0     C30245   9.386   5.057  10.710 -0.6872  0.1828 -0.1916
  220MOL0     O30246   9.429   5.190  10.707  0.4503 -0.0570 -0.1953
  220MOL0     C30247   9.559   5.229  10.674  0.6261  1.7980  0.8461
  220MOL0     C30248   9.666   5.135  10.652  0.6134  0.3975 -0.1397
  220MOL0     C30249   9.797   5.175  10.601  0.0953 -0.1875 -0.0760
  220MOL0     C30250   9.904   5.069  10.583  1.0026 -0.3107  0.0158
  220MOL0     C30251   9.819   5.318  10.583 -0.5315  0.2785  0.2628
  220MOL0     C30252   9.952   5.360  10.529 -0.4392  0.5509 -0.7195
  220MOL0     O30253  10.077   5.299  10.566 -0.0743 -0.1007  0.4598
  220MOL0     C30254  10.199   5.348  10.519 -0.1255 -0.4393  0.6022
  220MOL0     C30255  10.222   5.435  10.410 -0.1421  0.0832 -0.4233
  220MOL0     C30256  10.344   5.485  10.374 -0.2893 -0.2039 -0.6796
  220MOL0     C30257  10.453   5.459  10.455 -0.2401  0.0433 -1.1271
  220MOL0     O30258  10.583   5.497  10.427  0.1378 -0.4422 -0.0387
  220MOL0     C30259  10.613   5.607  10.340  0.1444  0.3865  0.4201
  220MOL0     C30260  10.658   5.552  10.196 -0.6499  0.2712  1.0967
  220MOL0     C30261  10.549   5.553  10.082  0.9284  0.5113 -1.0547
  220MOL0     C30262  10.474   5.682  10.047  0.3546 -0.4159  0.6080
  220MOL0     C30263  10.356   5.644   9.952 -0.4768  0.0873 -0.3060
  220MOL0     C30264  10.243   5.757   9.954  0.4696 -0.1841  0.7411
  220MOL0     C30265  10.114   5.717   9.877  0.2299  0.9661 -0.1197
  220MOL0     C30266  10.098   5.784   9.741  0.6847 -0.2594  0.7798
  220MOL0    Cl30267   9.938   5.719   9.676  0.0591 -0.0608  0.2392
  220MOL0     C30268  10.437   5.365  10.557 -0.2728 -0.7150  0.2269
  220MOL0     C30269  10.313   5.315  10.595 -0.9245  0.0836  0.3818
  220MOL0     O30270   9.931   5.470  10.476 -0.0677  0.5816 -0.0518
  220MOL0     C30271   9.718   5.414  10.620  0.8798 -0.1925 -0.8759
  220MOL0     C30272   9.589   5.362  10.673 -0.0874  0.4957  0.2361
  220MOL0     N30273   8.842   5.231  10.973 -0.3294  0.3865 -0.3327
  220MOL0     N30274   8.741   5.286  10.923  0.7103 -0.0802  1.2498
  220MOL0     C30275   7.777   4.628  10.745  0.5359 -0.9303 -0.3370
  220MOL0     C30276   7.653   4.588  10.698 -0.2817 -0.1608  0.2970
  220MOL0     C30277   7.238   4.614  10.526 -0.2225  0.7229  1.0941
  220MOL0     C30278   7.150   4.537  10.607 -0.0592  0.5833 -0.2210
  220MOL0     C30279   7.034   4.490  10.569  0.0585 -0.9337 -1.0829
  220MOL0     C30280   6.983   4.520  10.445 -0.3422 -0.1778  0.5653
  220MOL0     O30281   6.881   4.443  10.395 -0.5670  0.3634 -1.0549
  220MOL0     C30282   6.828   4.467  10.260  0.0670 -0.0442  0.1655
  220MOL0     C30283   6.699   4.384  10.232 -0.2203 -0.1954 -0.4182
  220MOL0     C30284   6.605   4.368  10.347 -0.1484  0.2892 -0.1887
  220MOL0     C30285   6.464   4.321  10.292  0.0529  0.6459  0.3210
  220MOL0     C30286   6.370   4.313  10.408 -0.0350 -0.0677 -0.2802
  220MOL0     C30287   6.297   4.297  10.502 -0.6433  0.0187 -0.0914
  220MOL0     C30288   7.059   4.608  10.367 -0.9711  0.4359  0.2555
  220MOL0     C30289   7.187   4.649  10.399 -0.9838 -0.7318  0.2491
  220MOL0     C30290   7.257   4.734  10.295  1.1175 -0.3980  0.0919
  220MOL0     H30291   7.467   4.803  10.883  1.6497 -0.6926  1.9458
  220MOL0     H30292   7.667   4.846  10.973  0.2294 -0.2382  0.6849
  220MOL0     H30293   7.865   4.963  10.953 -1.1494  0.1055 -0.9522
  220MOL0     H30294   7.899   4.946  10.776 -0.3628  0.9587  0.8050
  220MOL0     H30295   8.095   5.060  10.911  3.5167 -0.4956  0.0872
  220MOL0     H30296   8.097   4.908  11.009 -4.0224 -1.2229  1.3517
  220MOL0     H30297   8.182   4.775  10.829 -2.4683  0.8913  3.1704
  220MOL0     H30298   8.142   4.892  10.701 -3.5738  0.3073  0.0727
  220MOL0     H30299   8.349   4.927  10.924 -1.8579 -0.5960 -0.3488
  220MOL0     H30300   8.400   4.866  10.781  2.2167  0.4501  1.9379
  220MOL0     H30301   8.280   5.139  10.819 -1.4203 -0.9823 -1.0448
  220MOL0     H30302   8.318   5.085  10.657 -0.1233 -0.8126 -0.1827
  220MOL0     H30303   8.522   5.120  10.877  0.5176  2.1508  0.9369
  220MOL0     H30304   8.550   5.056  10.708  0.8360  2.1701 -1.0915
  220MOL0     H30305   8.465   5.329  10.816  0.8846 -1.2817  1.1579
  220MOL0     H30306   8.430   5.278  10.648 -0.7212  0.3720 -0.1218
  220MOL0     H30307   8.670   5.278  10.598  0.0024 -0.1754  1.2598
  220MOL0     H30308   8.645   5.423  10.701  0.8922 -0.0084 -0.5928
  220MOL0     H30309   8.875   5.149  10.655 -2.4050 -1.2953 -0.6096
  220MOL0     H30310   9.008   4.982  10.874  0.5451 -0.4172  0.0801
  220MOL0     H30311   9.055   5.095  11.004 -2.6656  1.9903  0.0816
  220MOL0     H30312   9.119   5.123  10.694 -2.5958  1.1707  0.4519
  220MOL0     H30313   9.172   5.237  10.810 -0.0033  1.0319 -5.1525
  220MOL0     H30314   9.304   5.057  10.927 -0.6302  0.6449  0.3250
  220MOL0     H30315   9.232   4.938  10.820  0.1395 -0.5720  1.0685
  220MOL0     H30316   9.475   4.999  10.738 -1.1104 -0.7657 -0.7553
  220MOL0     H30317   9.348   5.035  10.610 -2.8090  0.3768  0.5263
  220MOL0     H30318   9.652   5.029  10.671 -4.8164  1.0194  0.8240
  220MOL0     H30319   9.970   5.098  10.501  3.0692  0.0756  1.7364
  220MOL0     H30320   9.854   4.973  10.567  1.8732 -0.7846  0.0996
  220MOL0     H30321   9.960   5.067  10.677 -2.4087 -1.7443  2.1892
  220MOL0     H30322  10.131   5.467  10.359  0.6933  2.7891 -0.3481
  220MOL0     H30323  10.340   5.558  10.293 -2.1411 -0.4334 -0.8395
  220MOL0     H30324  10.535   5.683  10.348 -0.8648 -0.7728  2.2788
  220MOL0     H30325  10.695   5.658  10.393 -2.2048  2.8148  1.9818
  220MOL0     H30326  10.742   5.614  10.165  1.7846 -3.2133  0.0899
  220MOL0     H30327  10.686   5.446  10.197 -0.0574  0.4092  0.2002
  220MOL0     H30328  10.480   5.471  10.098  0.9951  0.8376  1.4000
  220MOL0     H30329  10.611   5.528   9.996  0.0813  0.1909 -1.5770
  220MOL0     H30330  10.539   5.751   9.993  0.3608 -0.4835  0.5281
  220MOL0     H30331  10.443   5.749  10.128 -3.1323  0.0580 -0.9181
  220MOL0     H30332  10.391   5.625   9.850 -0.5558  0.5483 -0.4190
  220MOL0     H30333  10.307   5.564  10.008 -0.5073  1.2642  1.3996
  220MOL0     H30334  10.281   5.851   9.913 -1.1371 -0.7616 -2.4397
  220MOL0     H30335  10.217   5.772  10.059  1.1583 -1.5674  1.1305
  220MOL0     H30336  10.032   5.759   9.936  0.0773  1.2784 -0.5520
  220MOL0     H30337  10.099   5.609   9.870 -2.4102  1.1518  1.2366
  220MOL0     H30338  10.178   5.744   9.677  0.4820 -0.0419  0.3899
  220MOL0     H30339  10.103   5.893   9.741  0.2537 -0.2382  1.4409
  220MOL0     H30340  10.532   5.350  10.609  0.9079 -1.8768 -2.0932
  220MOL0     H30341  10.315   5.236  10.669 -1.2169  0.7737  1.1453
  220MOL0     H30342   9.739   5.520  10.629 -0.0424 -0.1287  0.7859
  220MOL0     H30343   9.515   5.434  10.708  1.7051  2.5124  0.1035
  220MOL0     H30344   7.861   4.569  10.710 -1.3133 -4.2158  0.4233
  220MOL0     H30345   7.649   4.503  10.632 -4.2821 -0.8638  1.1882
  220MOL0     H30346   7.184   4.509  10.706 -0.4052 -0.9883 -0.5180
  220MOL0     H30347   6.987   4.429  10.646 -0.2504  0.7558  0.1290
  220MOL0     H30348   6.804   4.574  10.258  1.4078  0.2531 -1.2912
  220MOL0     H30349   6.906   4.451  10.186 -0.7403  1.4072 -1.0558
  220MOL0     H30350   6.729   4.285  10.198  0.6769 -0.2902  0.5933
  220MOL0     H30351   6.640   4.420  10.147 -2.6583 -0.2308  1.1796
  220MOL0     H30352   6.646   4.301  10.424  0.0994  2.4200  1.6189
  220MOL0     H30353   6.595   4.467  10.391 -0.2701  1.0851 -1.9175
  220MOL0     H30354   6.470   4.229  10.234  3.3453 -1.9392  4.1261
  220MOL0     H30355   6.416   4.397  10.230  2.2766  0.9128 -1.1847
  220MOL0     H30356   6.240   4.298  10.592 -1.1092  1.1139 -0.3806
  220MOL0     H30357   7.022   4.649  10.273  2.8721  1.2484 -1.0773
  220MOL0     H30358   7.285   4.827  10.345 -1.6641 -0.3727  1.7909
  220MOL0     H30359   7.351   4.695  10.254  1.2986  0.3045 -0.1726
  220MOL0     H30360   7.204   4.752  10.201 -0.0055  0.7680  0.9192
  221MOL0     O30361   0.721   3.032   2.462 -0.0947 -0.2472  0.1982
  221MOL0     C30362   0.605   3.051   2.441 -1.2077  0.5137 -0.1133
  221MOL0     O30363   0.545   3.181   2.431  0.2352  0.2094  0.4624
  221MOL0     C30364   0.613   3.305   2.435  0.0939  1.4889  0.0123
  221MOL0     C30365   0.735   3.329   2.491  0.7116 -0.2074  1.0195
  221MOL0     C30366   0.793   3.459   2.500  0.1599  0.1764 -0.2439
  221MOL0     C30367   0.725   3.564   2.447 -0.2451  0.6191  0.3827
  221MOL0     O30368   0.758   3.700   2.461  0.5823  0.4286  0.1140
  221MOL0     C30369   0.897   3.725   2.473  0.2476 -0.5925 -0.3400
  221MOL0     C30370   0.934   3.804   2.342 -1.0020 -0.2758 -0.2138
  221MOL0     C30371   1.084   3.811   2.329 -0.9802  0.1737 -0.8592
  221MOL0     C30372   1.118   3.906   2.220 -0.7196 -0.3414 -0.5750
  221MOL0     C30373   1.270   3.914   2.192  0.5352  0.3549  0.2617
  221MOL0     C30374   1.364   3.972   2.302 -1.1958 -0.3395  1.1897
  221MOL0     C30375   1.377   4.124   2.290  0.3024 -0.0260  0.3295
  221MOL0     C30376   1.454   4.168   2.420  0.1593 -0.1905  0.2994
  221MOL0     N30377   1.596   4.123   2.426  0.1782  0.5712 -0.2264
  221MOL0     C30378   1.703   4.198   2.393 -0.3237  0.8337  0.4581
  221MOL0     C30379   1.815   4.126   2.418 -0.2308  0.3670  0.5080
  221MOL0     C30380   1.969   4.141   2.403  0.2527  0.1735  0.1969
  221MOL0     C30381   2.024   4.044   2.296  0.0835 -0.4792 -1.0036
  221MOL0     C30382   2.172   4.069   2.268 -0.1674 -0.7443  0.5791
  221MOL0     C30383   2.214   4.045   2.119  0.5542 -0.0971  0.9822
  221MOL0     O30384   2.308   4.147   2.088 -0.2665  0.4274  0.1256
  221MOL0     C30385   2.441   4.119   2.125 -0.2356 -1.0934 -0.0623
  221MOL0     C30386   2.534   4.221   2.108 -0.4336 -0.1568 -0.7390
  221MOL0     C30387   2.675   4.207   2.121 -0.9639 -0.3470 -0.2006
  221MOL0     C30388   2.768   4.314   2.076  0.6059  0.2103 -1.3448
  221MOL0     C30389   2.732   4.093   2.190 -0.3025  0.3991  0.1238
  221MOL0     C30390   2.881   4.068   2.214  0.6488 -0.6216  0.4614
  221MOL0     O30391   2.972   4.135   2.134  0.1568 -0.7140  0.2124
  221MOL0     C30392   3.108   4.127   2.160 -0.6875 -0.4870 -0.3803
  221MOL0     C30393   3.166   4.017   2.219  0.0041 -0.2211 -0.2345
  221MOL0     C30394   3.305   4.020   2.246 -0.2376 -0.3627 -0.2909
  221MOL0     C30395   3.398   4.124   2.204 -0.4695  0.7067 -0.4810
  221MOL0     O30396   3.532   4.117   2.241 -0.2442  0.3931 -0.2449
  221MOL0     C30397   3.559   4.095   2.375 -0.1973 -0.6426  0.1177
  221MOL0     C30398   3.629   3.967   2.395 -0.0151  0.2364 -0.2428
  221MOL0     C30399   3.767   3.971   2.338 -0.1145  0.7904  0.8456
  221MOL0     C30400   3.829   3.834   2.355 -0.1679 -0.1021  0.3890
  221MOL0     C30401   3.983   3.825   2.318 -0.5699 -0.0425  0.1253
  221MOL0     C30402   4.034   3.697   2.369 -0.1005 -0.1223  0.5416
  221MOL0     C30403   4.187   3.688   2.325 -0.5167  1.3622 -0.0449
  221MOL0     C30404   4.257   3.573   2.395 -0.0369 -1.1734  0.6075
  221MOL0    Cl30405   4.287   3.587   2.578  0.0145  0.0444 -0.0195
  221MOL0     C30406   3.339   4.232   2.142  0.1407 -0.9560  0.1877
  221MOL0     C30407   3.192   4.233   2.117 -0.1658  1.0074  0.7059
  221MOL0     O30408   2.901   4.011   2.322  0.0115 -0.3150  0.2433
  221MOL0     C30409   2.631   3.995   2.220 -0.9697 -0.4605 -0.4617
  221MOL0     C30410   2.499   4.000   2.188  1.0958  0.0255 -0.7485
  221MOL0     N30411   1.771   4.005   2.482  0.3079 -0.5158  0.1006
  221MOL0     N30412   1.644   4.010   2.489  0.5475  0.1122 -0.2326
  221MOL0     C30413   0.596   3.545   2.389  0.7235 -0.1677  0.3685
  221MOL0     C30414   0.543   3.414   2.386 -0.5468 -0.3484  0.0503
  221MOL0     C30415   0.512   2.931   2.421 -0.9278 -0.3901 -0.3438
  221MOL0     C30416   0.377   2.952   2.438  0.3749 -0.6300  0.0119
  221MOL0     C30417   0.285   2.850   2.423 -0.8139  0.5032 -0.6557
  221MOL0     C30418   0.320   2.723   2.378  0.4971  0.6028 -0.4950
  221MOL0     O30419   0.237   2.619   2.339  0.6249 -0.2121 -0.5873
  221MOL0     C30420   0.090   2.648   2.344 -0.8585 -0.1603  0.8654
  221MOL0     C30421  -0.003   2.525   2.343  0.4095 -0.3182  0.1735
  221MOL0     C30422  -0.135   2.558   2.282 -0.5010  0.5715 -0.6338
  221MOL0     C30423  -0.182   2.453   2.185 -0.4991  0.1138  0.0797
  221MOL0     C30424  -0.308   2.496   2.113  0.4336 -0.0490 -0.2740
  221MOL0     C30425  -0.392   2.544   2.037 -0.2748 -0.7329  0.4132
  221MOL0     C30426   0.456   2.698   2.357 -0.1081 -0.0677 -0.6224
  221MOL0     C30427   0.553   2.799   2.381  0.5571  0.1960 -1.1385
  221MOL0     C30428   0.698   2.767   2.373 -0.3446  0.8622 -0.3350
  221MOL0     H30429   0.790   3.257   2.550 -0.8247 -2.3481  0.0044
  221MOL0     H30430   0.873   3.465   2.573 -2.4293 -2.1995  3.1190
  221MOL0     H30431   0.953   3.632   2.485  1.2635  0.1275  0.6561
  221MOL0     H30432   0.917   3.789   2.559  1.3504  0.9829 -1.7009
  221MOL0     H30433   0.883   3.754   2.258 -0.0683  1.0025 -1.6025
  221MOL0     H30434   0.897   3.907   2.344  0.1825  0.1431  0.7267
  221MOL0     H30435   1.130   3.853   2.418 -0.7189  3.1616 -2.2701
  221MOL0     H30436   1.124   3.711   2.309 -2.0877 -0.4442 -0.1200
  221MOL0     H30437   1.080   3.872   2.123  3.4047  0.6500 -2.7630
  221MOL0     H30438   1.079   4.005   2.245  2.2438  0.6024  0.7808
  221MOL0     H30439   1.289   3.973   2.102  0.9535  0.6913  0.5662
  221MOL0     H30440   1.303   3.812   2.171  0.9528  0.1127  1.9701
  221MOL0     H30441   1.324   3.942   2.399  1.0931 -1.8269  1.7336
  221MOL0     H30442   1.465   3.932   2.290 -0.7760  0.8892  0.3679
  221MOL0     H30443   1.276   4.166   2.293 -0.5696 -2.0344  1.2698
  221MOL0     H30444   1.429   4.160   2.200 -1.6185  2.7180  0.1914
  221MOL0     H30445   1.444   4.277   2.412 -1.0987 -0.3124 -0.0607
  221MOL0     H30446   1.402   4.129   2.508  0.0857 -1.2249 -0.1928
  221MOL0     H30447   1.700   4.291   2.337  0.4977  0.5401 -0.0863
  221MOL0     H30448   2.009   4.116   2.502  1.3396 -1.1644 -0.5469
  221MOL0     H30449   2.011   4.240   2.384  6.0423 -2.0728 -0.6739
  221MOL0     H30450   2.014   3.945   2.341  4.0470  0.7617  3.3487
  221MOL0     H30451   1.964   4.056   2.205 -2.0526  1.3134  0.5269
  221MOL0     H30452   2.192   4.175   2.282 -0.5351  0.1584 -4.1311
  221MOL0     H30453   2.241   4.011   2.330 -0.1381  0.3451  1.5979
  221MOL0     H30454   2.231   3.939   2.097  1.7942  0.2779  0.0385
  221MOL0     H30455   2.138   4.070   2.045  1.5690 -1.3167 -0.5096
  221MOL0     H30456   2.499   4.314   2.065  1.2295  1.1171  0.5473
  221MOL0     H30457   2.821   4.286   1.985  1.8306 -0.7515 -0.3571
  221MOL0     H30458   2.846   4.334   2.150 -0.1492  1.2976 -0.8069
  221MOL0     H30459   2.713   4.408   2.062 -0.6591 -0.2016  0.4539
  221MOL0     H30460   3.108   3.934   2.256 -0.0923  0.9465  2.4724
  221MOL0     H30461   3.345   3.933   2.296 -3.1779 -0.1459  2.8428
  221MOL0     H30462   3.629   4.169   2.413  3.3320 -2.2395 -2.6152
  221MOL0     H30463   3.470   4.096   2.437 -0.8003 -1.2625 -0.7095
  221MOL0     H30464   3.643   3.956   2.503  1.6403 -1.2304 -0.5692
  221MOL0     H30465   3.573   3.889   2.344 -0.7807 -0.6404  1.8413
  221MOL0     H30466   3.831   4.043   2.391 -0.0029 -0.8892  3.1462
  221MOL0     H30467   3.762   4.002   2.233 -0.8535  0.2525  0.7126
  221MOL0     H30468   3.774   3.761   2.294 -1.3834  0.2281  1.0505
  221MOL0     H30469   3.821   3.803   2.460 -0.4355 -4.5801 -0.7603
  221MOL0     H30470   4.000   3.818   2.210 -1.0266  2.1780 -0.1380
  221MOL0     H30471   4.040   3.905   2.366 -3.4154  0.7351  2.4509
  221MOL0     H30472   3.967   3.618   2.333  0.6825 -1.0246  0.9866
  221MOL0     H30473   4.018   3.709   2.477 -2.4049  2.9241 -0.0341
  221MOL0     H30474   4.242   3.777   2.355 -0.0502  2.3486 -3.3716
  221MOL0     H30475   4.188   3.676   2.216  0.3355  0.9207  0.0063
  221MOL0     H30476   4.353   3.559   2.345  0.9857  0.7757  1.8728
  221MOL0     H30477   4.199   3.481   2.384 -1.3932 -0.0624 -2.4747
  221MOL0     H30478   3.402   4.311   2.104 -3.1747  0.4412 -2.9259
  221MOL0     H30479   3.145   4.319   2.070  0.2917 -0.0163 -1.7684
  221MOL0     H30480   2.679   3.910   2.268 -1.0678 -2.3456 -3.4807
  221MOL0     H30481   2.439   3.910   2.201 -0.2673  0.8447 -1.1096
  221MOL0     H30482   0.537   3.626   2.347  1.1003  0.0586  0.2659
  221MOL0     H30483   0.443   3.405   2.346 -1.6510 -1.2881  2.7832
  221MOL0     H30484   0.342   3.053   2.457  0.4104 -0.2284 -1.8566
  221MOL0     H30485   0.183   2.879   2.444  0.2629  4.7534 -0.2943
  221MOL0     H30486   0.067   2.705   2.435  0.1157 -2.2738  2.5310
  221MOL0     H30487   0.091   2.715   2.258 -2.1504  0.2884  1.1794
  221MOL0     H30488  -0.019   2.494   2.446  0.3722  0.1772  0.3158
  221MOL0     H30489   0.048   2.442   2.292 -0.1695 -1.6102  1.6159
  221MOL0     H30490  -0.204   2.570   2.366 -0.9907  1.0452 -1.0935
  221MOL0     H30491  -0.126   2.655   2.232  4.3761  0.0908 -1.0981
  221MOL0     H30492  -0.187   2.354   2.231  1.4556 -0.9013 -1.7193
  221MOL0     H30493  -0.104   2.445   2.110  1.0780  3.9532  1.0588
  221MOL0     H30494  -0.454   2.587   1.961  1.8541 -0.0436 -1.0165
  221MOL0     H30495   0.493   2.601   2.324 -1.5705 -0.6654 -0.5781
  221MOL0     H30496   0.738   2.761   2.474 -0.7765  0.3487 -0.1906
  221MOL0     H30497   0.723   2.673   2.324 -0.3250 -0.0903  1.4443
  221MOL0     H30498   0.754   2.844   2.318  0.8940  0.6896  0.6652
  222MOL0     O30499   0.916   0.592  11.298 -0.1831  0.5837  0.2891
  222MOL0     C30500   0.932   0.682  11.216  0.3180 -0.1175 -0.1482
  222MOL0     O30501   0.969   0.810  11.248  0.1537 -0.0308 -1.0672
  222MOL0     C30502   1.019   0.843  11.366  0.6400  0.2044  0.1803
  222MOL0     C30503   0.980   0.962  11.425  0.2311 -0.3313  0.2429
  222MOL0     C30504   1.026   0.990  11.551  0.5929 -1.0221  0.4608
  222MOL0     C30505   1.090   0.899  11.633 -0.2265  0.0045 -0.5663
  222MOL0     O30506   1.140   0.922  11.762  0.5719 -0.2907  0.2259
  222MOL0     C30507   1.065   1.022  11.834  0.3926  0.5159  0.5970
  222MOL0     C30508   1.096   1.015  11.976  0.1107  0.3011 -0.8691
  222MOL0     C30509   1.246   1.021  12.008 -0.2959 -0.2540  0.3947
  222MOL0     C30510   1.317   1.151  11.970  0.5013  0.7319 -0.7568
  222MOL0     C30511   1.473   1.136  11.963  0.1669 -0.0779 -0.3550
  222MOL0     C30512   1.542   1.276  11.942 -0.5002 -0.1168 -0.2362
  222MOL0     C30513   1.694   1.287  11.961 -0.4453  0.4469 -0.9773
  222MOL0     C30514   1.758   1.425  11.935 -0.0665  0.2478 -0.3385
  222MOL0     N30515   1.713   1.479  11.814 -0.6847  0.4280  0.4962
  222MOL0     C30516   1.743   1.438  11.690  0.0326 -0.0199 -0.4818
  222MOL0     C30517   1.658   1.511  11.615  0.2645 -0.1701  0.2423
  222MOL0     C30518   1.656   1.516  11.467  0.9628  0.0043  0.1725
  222MOL0     C30519   1.785   1.551  11.401 -0.3965  0.1152 -1.2018
  222MOL0     C30520   1.762   1.589  11.258  0.5245 -0.5356 -0.0544
  222MOL0     C30521   1.890   1.607  11.177  0.5703 -0.5046  0.1727
  222MOL0     O30522   1.961   1.741  11.190 -0.2085 -0.5893  0.4107
  222MOL0     C30523   2.066   1.755  11.278  0.9182  0.0411 -0.5258
  222MOL0     C30524   2.123   1.882  11.278  1.1321 -1.0420 -0.2010
  222MOL0     C30525   2.233   1.917  11.359  1.1864  0.0252  0.1160
  222MOL0     C30526   2.282   2.060  11.337 -0.0223 -0.1671 -0.1951
  222MOL0     C30527   2.279   1.814  11.453 -0.3717  0.2972  0.2031
  222MOL0     C30528   2.366   1.851  11.564 -0.0565  0.7481 -0.0896
  222MOL0     O30529   2.356   1.786  11.683  0.0573  0.8454 -0.5020
  222MOL0     C30530   2.437   1.827  11.785  0.9103  0.5756 -0.6553
  222MOL0     C30531   2.577   1.850  11.790  0.7693  0.0508 -0.3912
  222MOL0     C30532   2.642   1.877  11.910  0.9322  0.1016  0.2991
  222MOL0     C30533   2.574   1.908  12.021  0.8534 -0.0201  0.1160
  222MOL0     O30534   2.645   1.952  12.125  0.1700 -0.1059 -0.4672
  222MOL0     C30535   2.687   2.095  12.133  0.9693  0.4203 -0.3000
  222MOL0     C30536   2.580   2.202  12.187  0.9630  0.1070 -0.3122
  222MOL0     C30537   2.629   2.346  12.205  0.3824  0.6375 -0.8932
  222MOL0     C30538   2.649   2.414  12.068  0.3912 -0.0423 -0.1656
  222MOL0     C30539   2.713   2.546  12.101 -0.3388  0.0325  0.1900
  222MOL0     C30540   2.736   2.634  11.974  0.2853 -1.1582 -1.0340
  222MOL0     C30541   2.809   2.754  12.028 -0.1094 -0.3188  0.1937
  222MOL0     C30542   2.850   2.856  11.920  0.8895 -0.0224  0.2916
  222MOL0    Cl30543   2.949   2.977  12.000  0.4171  0.4559 -0.1787
  222MOL0     C30544   2.438   1.894  12.027  0.3312  0.4079  1.7076
  222MOL0     C30545   2.371   1.855  11.908  0.0780  0.1402 -0.9951
  222MOL0     O30546   2.448   1.937  11.548  0.2848 -0.3738  0.0847
  222MOL0     C30547   2.225   1.689  11.451  0.3784  0.5074 -0.2513
  222MOL0     C30548   2.130   1.652  11.359  0.9236  0.4061 -0.3901
  222MOL0     N30549   1.588   1.603  11.694  0.4952  0.2213 -0.2966
  222MOL0     N30550   1.620   1.579  11.809 -0.3965 -0.1882 -0.6244
  222MOL0     C30551   1.135   0.779  11.571  0.0798 -0.7530  0.5289
  222MOL0     C30552   1.103   0.752  11.437 -0.2366  0.7654 -0.0241
  222MOL0     C30553   0.902   0.662  11.073  0.5283  0.1730  0.4805
  222MOL0     C30554   0.778   0.637  11.012 -0.8180  0.7506 -0.9940
  222MOL0     C30555   0.757   0.634  10.878  0.0156 -0.3555  0.0040
  222MOL0     C30556   0.868   0.659  10.796  0.2895 -1.5303  0.2851
  222MOL0     O30557   0.872   0.670  10.662  0.1249 -0.1130 -0.9915
  222MOL0     C30558   0.758   0.631  10.587  1.1847  0.5263  0.5031
  222MOL0     C30559   0.803   0.636  10.440  0.0166 -0.3340 -0.1803
  222MOL0     C30560   0.897   0.517  10.394  0.1769 -0.0866 -1.0194
  222MOL0     C30561   0.818   0.388  10.363  0.4667  0.0437 -0.2536
  222MOL0     C30562   0.796   0.294  10.480 -0.3084 -0.3423 -0.3254
  222MOL0     C30563   0.788   0.219  10.574 -0.3780 -0.7352  0.4589
  222MOL0     C30564   0.992   0.666  10.846  0.2666 -0.8572  0.6834
  222MOL0     C30565   1.015   0.663  10.981 -0.1585 -0.0148 -0.1552
  222MOL0     C30566   1.155   0.657  11.037  0.1588 -0.1094  0.1322
  222MOL0     H30567   0.918   1.030  11.368 -0.5645 -0.9538  0.3503
  222MOL0     H30568   1.017   1.091  11.590  3.1995 -0.2514 -0.6892
  222MOL0     H30569   0.958   1.002  11.823  0.1181  1.6255  1.1128
  222MOL0     H30570   1.095   1.124  11.808 -1.6937  0.8297 -0.8356
  222MOL0     H30571   1.046   1.104  12.017 -0.8857 -1.0980  1.1263
  222MOL0     H30572   1.063   0.917  12.011  2.0283 -0.7514 -1.8224
  222MOL0     H30573   1.269   0.994  12.111  1.0637 -0.6562  0.0152
  222MOL0     H30574   1.278   0.939  11.942  2.6411  2.6641 -2.1730
  222MOL0     H30575   1.291   1.178  11.867  0.3045  2.4089 -0.3037
  222MOL0     H30576   1.283   1.234  12.032 -0.5695  1.2500 -1.9875
  222MOL0     H30577   1.491   1.077  11.872  1.6327  1.6090 -1.2089
  222MOL0     H30578   1.515   1.084  12.049  2.5329  1.9333 -0.2023
  222MOL0     H30579   1.520   1.312  11.841 -1.0852  2.3460  0.6896
  222MOL0     H30580   1.506   1.341  12.023 -4.9437 -1.6383 -0.6993
  222MOL0     H30581   1.743   1.225  11.885  3.6292  0.8435  1.0431
  222MOL0     H30582   1.730   1.235  12.050  3.9683 -0.1273 -2.8372
  222MOL0     H30583   1.737   1.498  12.013 -1.3285 -0.4745  0.0262
  222MOL0     H30584   1.867   1.411  11.931  0.1193  1.3714  0.5026
  222MOL0     H30585   1.811   1.359  11.660 -0.4607 -0.4166 -0.5743
  222MOL0     H30586   1.581   1.581  11.422  0.2658 -1.6974 -1.2742
  222MOL0     H30587   1.621   1.420  11.426  0.7250  0.9503 -1.9230
  222MOL0     H30588   1.833   1.631  11.458  1.3712 -2.4542  1.2056
  222MOL0     H30589   1.850   1.464  11.413  1.1176  1.0029 -2.6251
  222MOL0     H30590   1.690   1.518  11.216 -2.0474  2.7385 -1.6097
  222MOL0     H30591   1.701   1.678  11.273  1.0626  0.0067 -0.9974
  222MOL0     H30592   1.953   1.523  11.207  1.0790 -0.4628 -0.7344
  222MOL0     H30593   1.874   1.596  11.069  0.2212 -1.0399  0.2759
  222MOL0     H30594   2.066   1.960  11.227  0.0609 -1.7460 -0.1161
  222MOL0     H30595   2.231   2.098  11.248  0.0362 -1.7467 -0.9388
  222MOL0     H30596   2.389   2.068  11.318 -0.2116  3.6956 -0.4381
  222MOL0     H30597   2.255   2.112  11.429 -0.1569 -1.4877  0.5350
  222MOL0     H30598   2.627   1.845  11.693  1.9504 -0.9819  0.2496
  222MOL0     H30599   2.748   1.897  11.907  1.2671 -1.6497 -1.4167
  222MOL0     H30600   2.775   2.095  12.199  0.5611 -2.7817  0.4045
  222MOL0     H30601   2.731   2.114  12.035  1.8904 -1.8412 -0.3926
  222MOL0     H30602   2.489   2.214  12.128 -0.3995  0.4182  1.7314
  222MOL0     H30603   2.545   2.155  12.280 -0.1070  0.0132 -0.7416
  222MOL0     H30604   2.721   2.346  12.264  0.8556 -3.1689 -1.3631
  222MOL0     H30605   2.540   2.390  12.250 -0.1963 -0.7602 -0.6125
  222MOL0     H30606   2.558   2.442  12.014  0.9426  1.2582 -0.4391
  222MOL0     H30607   2.707   2.342  12.009 -0.7444  0.7606 -2.3746
  222MOL0     H30608   2.650   2.598  12.173 -2.0954 -1.9147  0.1452
  222MOL0     H30609   2.806   2.515  12.150  1.7541 -1.0682 -4.0397
  222MOL0     H30610   2.641   2.669  11.932  0.3039  3.8601  2.2773
  222MOL0     H30611   2.796   2.577  11.902  3.8758 -1.3445  1.8019
  222MOL0     H30612   2.905   2.730  12.075 -1.0138  1.4590  3.2487
  222MOL0     H30613   2.757   2.802  12.111  1.3790 -0.6775  1.3923
  222MOL0     H30614   2.759   2.898  11.874  0.5043 -0.5682  0.5539
  222MOL0     H30615   2.890   2.802  11.834 -2.8678 -0.7024 -1.2355
  222MOL0     H30616   2.378   1.920  12.113 -1.3353 -1.5636  1.2244
  222MOL0     H30617   2.263   1.867  11.916  0.2540  1.0370  0.1532
  222MOL0     H30618   2.271   1.613  11.513  0.2265  0.8204  0.2503
  222MOL0     H30619   2.095   1.549  11.370  0.6662  0.5810  0.6063
  222MOL0     H30620   1.173   0.704  11.639  0.2103  1.0214  2.5127
  222MOL0     H30621   1.130   0.666  11.376  0.2059  2.0334 -1.6838
  222MOL0     H30622   0.693   0.632  11.079 -0.7533  0.3704 -0.9332
  222MOL0     H30623   0.662   0.610  10.831 -1.9013  2.1338  2.2837
  222MOL0     H30624   0.717   0.537  10.625 -0.3143  1.6489  1.8120
  222MOL0     H30625   0.684   0.711  10.581  1.3444  0.6720  0.4894
  222MOL0     H30626   0.855   0.732  10.431  0.6972 -0.1117  3.9839
  222MOL0     H30627   0.712   0.635  10.379 -0.6773  0.7304  0.8070
  222MOL0     H30628   0.952   0.547  10.304  0.9476  0.4554 -0.3789
  222MOL0     H30629   0.967   0.495  10.475  1.1674 -0.3491 -1.9065
  222MOL0     H30630   0.874   0.323  10.294  1.6251 -0.9159  1.4962
  222MOL0     H30631   0.720   0.413  10.322 -0.4761 -1.9621  0.6049
  222MOL0     H30632   0.785   0.149  10.656  1.3589 -0.9258  0.3981
  222MOL0     H30633   1.073   0.677  10.775 -0.8610 -1.3752 -0.7408
  222MOL0     H30634   1.191   0.759  11.049 -0.8639  0.4049 -1.0119
  222MOL0     H30635   1.152   0.599  11.130  0.8533  0.7254  0.6983
  222MOL0     H30636   1.210   0.599  10.962 -1.2251  0.2745 -1.2207
  223MOL0     O30637   4.791   2.659   1.065 -0.0877  0.3698 -0.2964
  223MOL0     C30638   4.858   2.757   1.087 -0.3458 -0.0298 -0.6242
  223MOL0     O30639   4.996   2.759   1.070  0.3961 -0.0233 -0.2654
  223MOL0     C30640   5.060   2.650   1.022 -0.0524 -0.0822  0.6246
  223MOL0     C30641   5.018   2.582   0.902 -0.0248 -0.5332  0.1217
  223MOL0     C30642   5.087   2.468   0.865 -0.5089  0.8638  0.7548
  223MOL0     C30643   5.196   2.417   0.935 -0.3536 -0.0423  0.0422
  223MOL0     O30644   5.260   2.301   0.916 -0.3787 -0.3119 -0.0133
  223MOL0     C30645   5.255   2.243   0.792 -0.2273  0.6186  0.1781
  223MOL0     C30646   5.373   2.144   0.782 -0.0015 -0.6327 -0.1298
  223MOL0     C30647   5.517   2.208   0.796 -0.5669  0.6832 -0.8684
  223MOL0     C30648   5.621   2.091   0.809 -0.2105 -0.8504  0.3087
  223MOL0     C30649   5.766   2.152   0.779 -0.0917  0.3377  0.0468
  223MOL0     C30650   5.878   2.070   0.843 -0.1479  0.2977 -0.7211
  223MOL0     C30651   6.022   2.132   0.848  0.7141  0.2829  0.0208
  223MOL0     C30652   6.082   2.120   0.710  1.3337 -0.0621 -0.2280
  223MOL0     N30653   6.215   2.183   0.702 -1.0956  0.7096  0.9331
  223MOL0     C30654   6.330   2.114   0.668  0.1902  0.0223 -0.1987
  223MOL0     C30655   6.431   2.198   0.671 -0.0802 -0.0257 -0.5786
  223MOL0     C30656   6.575   2.156   0.634  0.9364  0.2426  0.1734
  223MOL0     C30657   6.668   2.222   0.732  0.4946 -0.2407  0.1821
  223MOL0     C30658   6.809   2.185   0.701 -0.6685 -0.9381 -0.7834
  223MOL0     C30659   6.913   2.268   0.786 -0.2058  0.0753 -0.0040
  223MOL0     O30660   6.880   2.409   0.760 -0.5639  0.3254 -0.1417
  223MOL0     C30661   6.934   2.475   0.653 -0.2170  0.5398  1.0421
  223MOL0     C30662   6.858   2.536   0.551  0.2953  0.6219  0.5485
  223MOL0     C30663   6.916   2.620   0.455  0.1470 -0.6125  0.4210
  223MOL0     C30664   6.831   2.670   0.350 -0.1080  0.0038  0.0527
  223MOL0     C30665   7.062   2.634   0.445  0.4442 -0.2555 -0.1176
  223MOL0     C30666   7.147   2.698   0.338  0.6837 -0.7037 -0.7703
  223MOL0     O30667   7.272   2.636   0.323  0.5503 -0.7411  0.0160
  223MOL0     C30668   7.356   2.704   0.239  0.4363 -0.5627  0.1643
  223MOL0     C30669   7.481   2.738   0.285  0.7972  0.1487  0.9258
  223MOL0     C30670   7.567   2.808   0.205 -0.3270 -0.2453  1.2882
  223MOL0     C30671   7.531   2.828   0.066  0.1895  0.5662  0.8051
  223MOL0     O30672   7.606   2.904  -0.022 -0.7631  0.4235  0.1780
  223MOL0     C30673   7.575   2.906  -0.165 -0.6530  0.7177  0.1450
  223MOL0     C30674   7.707   2.954  -0.236  0.4960 -0.0163 -0.4050
  223MOL0     C30675   7.678   3.009  -0.374  0.2795  0.6944  0.0446
  223MOL0     C30676   7.812   3.009  -0.460  0.3377  0.2343  0.1876
  223MOL0     C30677   7.801   3.077  -0.594  0.7557  0.5633  0.1823
  223MOL0     C30678   7.775   3.228  -0.586 -0.2671 -0.5050 -0.6251
  223MOL0     C30679   7.895   3.307  -0.515  0.1759  0.8779 -0.5326
  223MOL0     C30680   7.874   3.462  -0.508 -0.2056 -0.0214 -0.5535
  223MOL0    Cl30681   7.800   3.533  -0.655  0.3411  0.0522  0.3032
  223MOL0     C30682   7.405   2.776   0.016  0.3200  0.6275  0.2591
  223MOL0     C30683   7.314   2.718   0.105 -0.5430 -0.4641 -0.2264
  223MOL0     O30684   7.101   2.795   0.275 -0.1269 -0.4488  0.1996
  223MOL0     C30685   7.130   2.570   0.548  0.2724 -0.2457 -0.1764
  223MOL0     C30686   7.068   2.488   0.648 -1.4232 -0.0762  0.1541
  223MOL0     N30687   6.380   2.312   0.737 -0.1628 -0.3750  0.2878
  223MOL0     N30688   6.252   2.303   0.748 -1.0801 -0.3510  0.7211
  223MOL0     C30689   5.234   2.494   1.057  0.9114  0.5144  0.3722
  223MOL0     C30690   5.161   2.601   1.101 -0.3332  0.1193  0.6768
  223MOL0     C30691   4.798   2.879   1.146 -0.0060 -0.2135 -0.1747
  223MOL0     C30692   4.867   3.004   1.141 -0.7495 -0.0328 -0.0862
  223MOL0     C30693   4.826   3.124   1.208  0.3174  0.2895  0.5472
  223MOL0     C30694   4.713   3.125   1.277 -0.2873  0.8756 -0.3552
  223MOL0     O30695   4.647   3.231   1.339 -0.4751 -0.0214  0.1013
  223MOL0     C30696   4.720   3.354   1.322  0.5310  0.5558 -0.6642
  223MOL0     C30697   4.634   3.467   1.358 -0.6360 -0.1519 -1.1283
  223MOL0     C30698   4.527   3.444   1.465 -0.3315 -0.6047  0.2990
  223MOL0     C30699   4.559   3.503   1.599 -0.7211  0.4458 -0.2803
  223MOL0     C30700   4.654   3.416   1.668  0.2964 -0.0048 -0.6652
  223MOL0     C30701   4.736   3.354   1.737  0.2963  0.1220  0.4269
  223MOL0     C30702   4.642   3.004   1.292  0.0101  0.4329  0.2076
  223MOL0     C30703   4.676   2.884   1.227  0.1784  0.1704  0.0398
  223MOL0     C30704   4.575   2.767   1.249  0.1162  0.4668  0.0236
  223MOL0     H30705   4.932   2.616   0.846 -0.0541  1.6201  1.3713
  223MOL0     H30706   5.048   2.413   0.780  2.7680  2.0908 -1.7186
  223MOL0     H30707   5.270   2.313   0.709 -1.8566 -1.3565 -1.8935
  223MOL0     H30708   5.162   2.187   0.783 -1.5257  2.6111  0.6098
  223MOL0     H30709   5.352   2.066   0.857  1.8284 -0.3552  0.7142
  223MOL0     H30710   5.372   2.101   0.682 -3.7549 -0.3540 -0.3550
  223MOL0     H30711   5.547   2.247   0.698 -1.0215 -0.0141 -1.2985
  223MOL0     H30712   5.520   2.276   0.881  1.8041  0.4798 -0.7355
  223MOL0     H30713   5.606   2.059   0.913 -0.3658  1.0483  0.9029
  223MOL0     H30714   5.598   2.004   0.747 -1.7095 -0.7315  0.6593
  223MOL0     H30715   5.751   2.247   0.831 -0.9108 -1.3077  3.0849
  223MOL0     H30716   5.787   2.157   0.672  1.6298  0.4475  0.3706
  223MOL0     H30717   5.852   2.072   0.949 -0.4024  1.0821 -0.7929
  223MOL0     H30718   5.874   1.966   0.811 -1.4559 -0.1196  0.6784
  223MOL0     H30719   6.092   2.073   0.908  1.5736  0.3904 -0.8569
  223MOL0     H30720   6.017   2.234   0.889  2.2732 -0.4478  2.2216
  223MOL0     H30721   6.097   2.015   0.684  3.4159 -0.4042  2.0200
  223MOL0     H30722   6.014   2.160   0.634  0.7651 -0.7543 -0.0876
  223MOL0     H30723   6.336   2.009   0.643  1.6297  0.3402 -1.3247
  223MOL0     H30724   6.591   2.179   0.528  2.2314 -2.7810 -0.3930
  223MOL0     H30725   6.580   2.047   0.626  0.2298  0.1783  0.5464
  223MOL0     H30726   6.651   2.327   0.708  0.1807 -0.8779 -2.8502
  223MOL0     H30727   6.642   2.199   0.836 -0.8653  0.2642 -0.0231
  223MOL0     H30728   6.826   2.078   0.708  0.7121 -0.6581  0.6853
  223MOL0     H30729   6.837   2.220   0.601  2.5717  2.4979  1.0419
  223MOL0     H30730   6.897   2.241   0.891  0.4152  0.1065  0.0993
  223MOL0     H30731   7.019   2.248   0.767  0.0412  2.2934 -1.2374
  223MOL0     H30732   6.753   2.511   0.543  0.0396  1.4372  1.1706
  223MOL0     H30733   6.853   2.772   0.317  0.8840 -0.9556 -2.4715
  223MOL0     H30734   6.726   2.653   0.376 -0.3722  0.8752 -0.4009
  223MOL0     H30735   6.867   2.608   0.268  3.7707  2.4878 -0.3733
  223MOL0     H30736   7.493   2.698   0.385 -1.0723  2.1473  2.0596
  223MOL0     H30737   7.669   2.829   0.234  0.0730  0.3512 -0.4485
  223MOL0     H30738   7.554   2.807  -0.206 -0.6077  1.3462 -1.5128
  223MOL0     H30739   7.490   2.968  -0.196  0.3859  1.9770 -0.2905
  223MOL0     H30740   7.733   3.041  -0.175 -0.1896 -1.9343  2.8996
  223MOL0     H30741   7.775   2.869  -0.237 -0.3115 -0.6791 -0.8022
  223MOL0     H30742   7.635   3.109  -0.363  0.8174  0.9245  0.0914
  223MOL0     H30743   7.596   2.961  -0.428  1.2760 -1.4540  0.3049
  223MOL0     H30744   7.832   2.902  -0.474 -0.1852 -0.2716  2.8235
  223MOL0     H30745   7.891   3.052  -0.398  0.8622 -2.1868  1.3057
  223MOL0     H30746   7.887   3.054  -0.657  0.2046  0.3600 -0.5207
  223MOL0     H30747   7.717   3.032  -0.648 -0.5252  3.2701 -0.2427
  223MOL0     H30748   7.680   3.248  -0.537  0.4112  1.5495 -0.0651
  223MOL0     H30749   7.771   3.265  -0.689  1.1531 -0.4318 -0.6837
  223MOL0     H30750   7.988   3.281  -0.566  0.5073  2.7168 -0.9405
  223MOL0     H30751   7.897   3.263  -0.415 -2.6131 -1.2613 -1.2825
  223MOL0     H30752   7.973   3.510  -0.509 -0.6279  0.9247  0.4466
  223MOL0     H30753   7.827   3.499  -0.417 -0.2547 -3.0531  0.7572
  223MOL0     H30754   7.380   2.796  -0.087  0.8325  3.7734  0.6421
  223MOL0     H30755   7.215   2.692   0.068 -1.0896  2.5632 -1.1884
  223MOL0     H30756   7.235   2.585   0.566 -0.2282  0.6837  2.3353
  223MOL0     H30757   7.131   2.458   0.732  1.4500  2.5408 -0.8874
  223MOL0     H30758   5.315   2.453   1.116  2.9291  2.7139 -0.6749
  223MOL0     H30759   5.177   2.646   1.198 -0.9280  0.1044  0.7858
  223MOL0     H30760   4.968   3.010   1.102 -0.0653 -0.3449  1.5252
  223MOL0     H30761   4.888   3.211   1.190  0.3075 -0.0639 -1.5424
  223MOL0     H30762   4.807   3.352   1.389 -1.4943 -0.2153  2.0997
  223MOL0     H30763   4.746   3.382   1.220 -0.2843  2.1045 -0.4666
  223MOL0     H30764   4.571   3.491   1.272 -1.7035  4.8589  0.7123
  223MOL0     H30765   4.695   3.553   1.387 -1.4816  0.9185 -2.3835
  223MOL0     H30766   4.439   3.498   1.429 -0.2754  0.4606  1.6994
  223MOL0     H30767   4.491   3.344   1.491  0.7858 -0.6116  1.9926
  223MOL0     H30768   4.471   3.518   1.662  0.8566  4.7547  1.2549
  223MOL0     H30769   4.599   3.603   1.583 -1.3123  0.9472  1.2459
  223MOL0     H30770   4.810   3.313   1.803  2.5204 -3.6025 -3.8608
  223MOL0     H30771   4.556   3.008   1.358 -0.0464 -1.4287  0.2768
  223MOL0     H30772   4.496   2.790   1.321  1.5233 -0.9058  2.1208
  223MOL0     H30773   4.536   2.731   1.154  1.0837  1.8016 -0.9221
  223MOL0     H30774   4.617   2.677   1.295 -2.6129 -1.7789 -1.5274
  224MOL0     O30775   7.307   5.648   8.045  0.3159 -1.2463  0.2083
  224MOL0     C30776   7.233   5.656   8.146  1.4372 -0.5530  1.0106
  224MOL0     O30777   7.261   5.729   8.257 -0.6022  0.4054 -0.7071
  224MOL0     C30778   7.391   5.790   8.269  0.0565 -0.5382  0.2539
  224MOL0     C30779   7.419   5.903   8.187  0.2558  0.4433 -0.4172
  224MOL0     C30780   7.545   5.957   8.185 -0.0654  0.5985 -0.6028
  224MOL0     C30781   7.654   5.898   8.253  0.0150  0.8596  0.0495
  224MOL0     O30782   7.783   5.942   8.262  0.1464  0.1078 -0.1495
  224MOL0     C30783   7.779   6.084   8.290 -0.4784 -0.0652  0.0797
  224MOL0     C30784   7.915   6.154   8.309  0.6492 -1.2755 -0.1904
  224MOL0     C30785   8.001   6.084   8.416 -0.4871  0.5488  0.3985
  224MOL0     C30786   8.081   5.973   8.346  0.8477 -0.1802 -0.5791
  224MOL0     C30787   8.184   5.921   8.452  0.8576 -0.6969 -0.2230
  224MOL0     C30788   8.330   5.916   8.402 -0.2920 -0.1139 -0.1349
  224MOL0     C30789   8.388   6.066   8.393 -0.9379  0.3083  0.8457
  224MOL0     C30790   8.511   6.071   8.300 -0.6867  0.2688  0.2403
  224MOL0     N30791   8.613   5.970   8.343  0.2118 -0.0136  0.2373
  224MOL0     C30792   8.629   5.851   8.280  0.5508  0.4534 -0.1726
  224MOL0     C30793   8.729   5.780   8.345 -0.0068 -0.2179  0.6642
  224MOL0     C30794   8.804   5.653   8.308 -0.5193 -0.2048 -0.6044
  224MOL0     C30795   8.904   5.660   8.188  0.3084 -0.3411 -0.2557
  224MOL0     C30796   8.856   5.686   8.051 -0.8336  0.8093  0.3453
  224MOL0     C30797   8.726   5.608   8.016  0.7308 -0.5455 -0.2896
  224MOL0     O30798   8.684   5.642   7.878  0.0369  0.2598  0.2099
  224MOL0     C30799   8.764   5.590   7.775 -0.0945 -0.4100  0.1757
  224MOL0     C30800   8.872   5.501   7.788 -0.3677 -0.4974 -0.6607
  224MOL0     C30801   8.969   5.487   7.691 -0.2170 -0.3984 -0.2049
  224MOL0     C30802   9.077   5.394   7.736  0.0141 -0.1990 -0.3896
  224MOL0     C30803   8.965   5.543   7.557  0.4386  0.3166 -0.5622
  224MOL0     C30804   9.061   5.531   7.444 -0.2357 -0.2479 -0.1822
  224MOL0     O30805   9.043   5.602   7.332 -0.0912  0.0074  0.7215
  224MOL0     C30806   9.147   5.597   7.241  0.7356  0.4765  0.4890
  224MOL0     C30807   9.268   5.652   7.281 -0.2521 -0.2311 -0.4322
  224MOL0     C30808   9.385   5.637   7.199  0.4563  0.8202 -0.8852
  224MOL0     C30809   9.373   5.561   7.081 -0.5179 -0.4257  1.1120
  224MOL0     O30810   9.470   5.526   6.993  0.3675 -0.7473 -0.0102
  224MOL0     C30811   9.595   5.483   7.048  0.6132  0.5636 -0.3109
  224MOL0     C30812   9.706   5.477   6.953 -0.7097  0.1006  0.1488
  224MOL0     C30813   9.830   5.420   7.029  0.2747  0.2758  0.0733
  224MOL0     C30814   9.910   5.519   7.094 -1.6002  0.4042 -0.9219
  224MOL0     C30815  10.041   5.455   7.168  0.1439  0.0377  0.3337
  224MOL0     C30816  10.160   5.398   7.080  1.1683  0.6319  0.2343
  224MOL0     C30817  10.285   5.366   7.162  0.6485  0.5455 -0.2784
  224MOL0     C30818  10.365   5.492   7.207 -0.6769 -0.7494  0.6292
  224MOL0    Cl30819  10.510   5.435   7.310  0.3564  0.0585 -0.0272
  224MOL0     C30820   9.247   5.516   7.030 -0.2403 -1.2393 -0.4035
  224MOL0     C30821   9.137   5.530   7.115 -0.4828  0.2187 -0.6533
  224MOL0     O30822   9.153   5.455   7.457  0.0628  0.1110  0.8029
  224MOL0     C30823   8.847   5.627   7.543 -0.1101  0.6486  0.0958
  224MOL0     C30824   8.749   5.645   7.648  0.0605  0.2667  0.0635
  224MOL0     N30825   8.775   5.873   8.436 -0.3228 -0.4354  0.0822
  224MOL0     N30826   8.707   5.985   8.439 -0.5280 -0.0391 -0.1539
  224MOL0     C30827   7.628   5.775   8.323  0.6733 -0.1225 -0.7454
  224MOL0     C30828   7.493   5.731   8.342  0.0412 -0.2476 -0.1154
  224MOL0     C30829   7.099   5.589   8.139  0.3148 -0.4569 -0.6815
  224MOL0     C30830   7.033   5.583   8.016 -0.3596 -0.6738  0.3843
  224MOL0     C30831   6.912   5.518   7.997  0.5119 -0.0090  1.2438
  224MOL0     C30832   6.839   5.461   8.097 -0.0516 -0.2114 -0.1021
  224MOL0     O30833   6.708   5.413   8.101 -0.3172  0.0887  0.2384
  224MOL0     C30834   6.683   5.318   8.003  0.5224 -0.5395  0.6547
  224MOL0     C30835   6.557   5.244   8.033 -0.4238 -0.2175 -0.5056
  224MOL0     C30836   6.575   5.141   8.140  0.1446  0.4023  0.0295
  224MOL0     C30837   6.522   5.174   8.284  0.1998 -0.1767  0.2489
  224MOL0     C30838   6.635   5.211   8.369  0.5757 -0.5941 -0.5050
  224MOL0     C30839   6.728   5.243   8.450 -0.1742  0.4034  0.5011
  224MOL0     C30840   6.907   5.460   8.221  0.2152  0.1990  0.1737
  224MOL0     C30841   7.024   5.529   8.245  0.1373 -0.8791  0.1872
  224MOL0     C30842   7.082   5.524   8.383 -0.3219  0.3807  0.2245
  224MOL0     H30843   7.338   5.953   8.135 -0.8234 -1.3825 -0.5973
  224MOL0     H30844   7.565   6.049   8.131 -1.9405  2.4570  1.6371
  224MOL0     H30845   7.718   6.103   8.378  2.6060  2.4355  1.8872
  224MOL0     H30846   7.729   6.137   8.208 -0.9086 -0.0742  0.3320
  224MOL0     H30847   7.965   6.159   8.212 -0.8730 -0.8053 -0.9785
  224MOL0     H30848   7.897   6.255   8.346 -1.7175 -2.5798  2.5849
  224MOL0     H30849   8.066   6.154   8.468 -0.3276 -0.3968  1.5076
  224MOL0     H30850   7.931   6.046   8.491 -0.7834  1.5127  0.6161
  224MOL0     H30851   8.015   5.889   8.321 -1.4324  0.5432  2.4698
  224MOL0     H30852   8.119   6.012   8.251 -0.4974  0.3281 -0.9291
  224MOL0     H30853   8.154   5.819   8.478 -2.5061  0.6252  1.6560
  224MOL0     H30854   8.175   5.988   8.538 -1.2961  1.4189 -1.9783
  224MOL0     H30855   8.390   5.847   8.462 -1.0049 -0.3423  0.3260
  224MOL0     H30856   8.321   5.872   8.302  2.7122 -1.5749  0.1106
  224MOL0     H30857   8.409   6.109   8.491 -0.2783 -0.9204  1.2660
  224MOL0     H30858   8.303   6.119   8.350 -1.1852 -0.0489  0.8921
  224MOL0     H30859   8.481   6.037   8.200 -0.8864  0.4623  0.2356
  224MOL0     H30860   8.559   6.169   8.305 -0.5812  0.2740 -0.7527
  224MOL0     H30861   8.575   5.820   8.191  4.6761 -1.2837 -2.3249
  224MOL0     H30862   8.742   5.566   8.282  0.4763 -0.6820 -1.4252
  224MOL0     H30863   8.863   5.624   8.395  0.7607  0.7184 -1.1290
  224MOL0     H30864   8.969   5.745   8.211 -1.8937  0.4521  4.1457
  224MOL0     H30865   8.973   5.575   8.181 -0.2073 -1.0123  1.8165
  224MOL0     H30866   8.832   5.792   8.048 -0.2382  1.0197  1.9759
  224MOL0     H30867   8.933   5.672   7.975 -0.6180 -0.8918  0.8222
  224MOL0     H30868   8.759   5.503   8.016 -2.2464 -1.5830  0.9433
  224MOL0     H30869   8.637   5.624   8.078  1.2043  5.8783 -0.6386
  224MOL0     H30870   8.887   5.447   7.881  5.4196 -0.6644 -1.3338
  224MOL0     H30871   9.133   5.447   7.814  2.4109  2.4847 -3.6296
  224MOL0     H30872   9.138   5.345   7.660 -1.1415  0.0461 -1.5149
  224MOL0     H30873   9.022   5.312   7.782 -0.9080 -0.2507 -1.5183
  224MOL0     H30874   9.266   5.715   7.369 -0.1865 -0.5670 -0.1880
  224MOL0     H30875   9.480   5.679   7.230  0.6763  0.2586 -0.7878
  224MOL0     H30876   9.634   5.551   7.125  1.8572 -0.5669  0.1016
  224MOL0     H30877   9.584   5.393   7.110 -2.0633  0.8962 -0.1828
  224MOL0     H30878   9.673   5.413   6.870 -1.0427 -3.9433  3.1012
  224MOL0     H30879   9.725   5.581   6.926 -0.4048  0.0720  0.2566
  224MOL0     H30880   9.891   5.357   6.963 -2.4864 -0.2829 -2.1226
  224MOL0     H30881   9.795   5.357   7.111 -0.3816  0.6423  0.0794
  224MOL0     H30882   9.847   5.578   7.161 -1.5820  0.9184 -1.3490
  224MOL0     H30883   9.959   5.589   7.025  0.2442  0.5160  0.4222
  224MOL0     H30884  10.076   5.546   7.218 -1.7837 -0.0190  1.8962
  224MOL0     H30885  10.007   5.374   7.234  0.5583 -0.5894 -0.2059
  224MOL0     H30886  10.177   5.471   7.001 -0.2274 -0.1413 -0.8253
  224MOL0     H30887  10.122   5.309   7.029  0.3241  2.2114 -2.0983
  224MOL0     H30888  10.351   5.310   7.095 -0.4073 -1.6191  0.4062
  224MOL0     H30889  10.258   5.309   7.251 -1.2546 -0.3131 -1.3385
  224MOL0     H30890  10.306   5.569   7.259  2.0994  0.7171  1.8547
  224MOL0     H30891  10.410   5.549   7.126  0.3589 -1.3961  0.7354
  224MOL0     H30892   9.240   5.473   6.930 -1.8013  1.9228 -1.8076
  224MOL0     H30893   9.038   5.498   7.082 -1.9985  2.5494  1.2034
  224MOL0     H30894   8.824   5.686   7.455 -1.5507 -0.7818 -0.5398
  224MOL0     H30895   8.661   5.696   7.611  1.5318  0.0169 -4.3212
  224MOL0     H30896   7.706   5.724   8.379 -0.4193  0.2673  1.2165
  224MOL0     H30897   7.471   5.646   8.405 -0.2777 -1.0628 -1.2881
  224MOL0     H30898   7.072   5.629   7.926 -3.4291  0.4820 -0.5014
  224MOL0     H30899   6.860   5.523   7.902 -2.0516 -2.0580  2.4251
  224MOL0     H30900   6.669   5.373   7.910 -0.1766 -0.3953  0.8437
  224MOL0     H30901   6.767   5.254   7.976  1.1986  0.2531  0.8381
  224MOL0     H30902   6.540   5.190   7.939 -0.0721 -3.3743  1.0965
  224MOL0     H30903   6.475   5.312   8.054  1.2612  1.3794  1.3298
  224MOL0     H30904   6.510   5.060   8.106  0.2694  1.4016 -2.7737
  224MOL0     H30905   6.679   5.106   8.143 -0.8215 -2.8572 -0.2424
  224MOL0     H30906   6.476   5.085   8.325  0.1796  0.0916  0.8126
  224MOL0     H30907   6.449   5.255   8.283  0.5702  0.1963 -1.4114
  224MOL0     H30908   6.818   5.270   8.501  1.2397  1.4005 -2.3019
  224MOL0     H30909   6.849   5.421   8.304  2.0615 -3.4008  0.0069
  224MOL0     H30910   7.192   5.522   8.380 -0.1409 -2.3326  3.3944
  224MOL0     H30911   7.034   5.606   8.436 -1.1928  0.8167 -1.1724
  224MOL0     H30912   7.068   5.434   8.443 -1.0354  0.4473  0.1641
  225MOL0     O30913   2.352   1.941   9.329  0.2219  0.2160  0.2210
  225MOL0     C30914   2.289   1.894   9.239  0.8372 -0.1858 -0.0622
  225MOL0     O30915   2.172   1.948   9.184 -0.0254 -0.0303  0.2770
  225MOL0     C30916   2.134   2.080   9.206  0.1507 -0.0727 -0.3732
  225MOL0     C30917   2.208   2.179   9.274 -1.3205  0.0269  0.0087
  225MOL0     C30918   2.163   2.305   9.292 -0.1724 -0.3786  0.2230
  225MOL0     C30919   2.041   2.347   9.252  0.1743 -0.6874  0.6238
  225MOL0     O30920   2.001   2.479   9.291 -0.0338  0.7719 -0.9263
  225MOL0     C30921   1.865   2.503   9.329  0.4142  0.1133  0.7684
  225MOL0     C30922   1.847   2.547   9.472  0.6335  0.6776 -0.2216
  225MOL0     C30923   1.939   2.660   9.517  1.1039 -0.2226 -0.8277
  225MOL0     C30924   1.939   2.790   9.440 -0.9959 -0.8549  0.3349
  225MOL0     C30925   2.054   2.894   9.493  0.4443  0.5068  0.8626
  225MOL0     C30926   2.072   3.010   9.391 -0.5998 -0.1234  0.3328
  225MOL0     C30927   2.184   3.119   9.413  0.2416  0.4250  0.5132
  225MOL0     C30928   2.201   3.211   9.293  0.6888  0.0184  0.1047
  225MOL0     N30929   2.316   3.301   9.318 -1.0660 -0.5793  0.4987
  225MOL0     C30930   2.317   3.412   9.397 -0.0127  0.5619  1.0022
  225MOL0     C30931   2.441   3.460   9.384 -0.0838 -0.7049  0.2958
  225MOL0     C30932   2.483   3.592   9.453 -0.6874 -1.0919  0.3771
  225MOL0     C30933   2.482   3.588   9.603  0.1907 -0.0236 -0.0538
  225MOL0     C30934   2.581   3.482   9.638 -0.0686  0.1812 -0.6919
  225MOL0     C30935   2.725   3.514   9.640 -1.2036 -0.5928 -0.5854
  225MOL0     O30936   2.736   3.646   9.702  0.1034 -0.0456  0.2273
  225MOL0     C30937   2.857   3.708   9.704  0.1826  0.2697 -0.0980
  225MOL0     C30938   2.864   3.826   9.770  0.1712 -0.2227  0.5383
  225MOL0     C30939   2.986   3.900   9.772 -0.6765  0.2954  0.6556
  225MOL0     C30940   2.969   4.031   9.844  0.5227 -0.3864 -0.1467
  225MOL0     C30941   3.103   3.842   9.707  0.4220 -1.4755 -0.5172
  225MOL0     C30942   3.230   3.914   9.714 -0.3984 -0.9215  0.3136
  225MOL0     O30943   3.340   3.834   9.692  0.3713  0.0441  0.8475
  225MOL0     C30944   3.454   3.896   9.647 -0.8904  0.8637 -1.5297
  225MOL0     C30945   3.565   3.895   9.734  0.5440  0.0215 -0.2673
  225MOL0     C30946   3.688   3.951   9.708  0.1622 -0.0078  0.3227
  225MOL0     C30947   3.703   3.998   9.576  0.0734 -0.6367 -1.3577
  225MOL0     O30948   3.821   4.055   9.526  0.4428 -0.5091 -0.7919
  225MOL0     C30949   3.935   4.033   9.605  0.5791  0.6722 -0.1640
  225MOL0     C30950   4.050   4.074   9.513  0.4946 -0.0179 -0.3125
  225MOL0     C30951   4.170   3.978   9.545 -0.4950 -0.6356 -0.0743
  225MOL0     C30952   4.154   3.833   9.486  0.8430 -0.6672  0.1011
  225MOL0     C30953   4.263   3.726   9.523  0.5417  0.9160  0.5149
  225MOL0     C30954   4.225   3.583   9.467  0.2211  0.0291 -0.3428
  225MOL0     C30955   4.331   3.474   9.518  0.0797 -0.6446  0.4100
  225MOL0     C30956   4.468   3.484   9.454 -0.5718  0.0613  0.3003
  225MOL0    Cl30957   4.488   3.390   9.307 -0.0410 -0.0064  0.2880
  225MOL0     C30958   3.596   3.993   9.482  0.2236  0.1547  0.7902
  225MOL0     C30959   3.480   3.933   9.513  0.8866 -0.9860 -0.5064
  225MOL0     O30960   3.234   4.039   9.720  0.0750  0.5103  0.3653
  225MOL0     C30961   3.093   3.711   9.648 -0.3799 -0.4255 -0.7171
  225MOL0     C30962   2.975   3.654   9.654 -0.6422  0.0021  0.5685
  225MOL0     N30963   2.512   3.374   9.302  0.0194 -0.0611  1.0118
  225MOL0     N30964   2.432   3.288   9.251 -0.0245  0.5045  0.4656
  225MOL0     C30965   1.961   2.249   9.192  0.5613  0.9509  0.2430
  225MOL0     C30966   2.007   2.122   9.165  0.2235 -0.3886  0.2585
  225MOL0     C30967   2.325   1.758   9.194 -0.4499  0.5244  0.1653
  225MOL0     C30968   2.235   1.695   9.099 -0.9292 -0.4954  0.4455
  225MOL0     C30969   2.266   1.572   9.042  0.0417  0.1656 -0.4488
  225MOL0     C30970   2.375   1.495   9.081 -0.4382  0.4524  0.5507
  225MOL0     O30971   2.404   1.374   9.022  0.4460 -0.1357 -0.0433
  225MOL0     C30972   2.307   1.304   8.938 -0.4784 -0.8291 -0.1953
  225MOL0     C30973   2.330   1.355   8.791  0.8405  0.2393 -0.6380
  225MOL0     C30974   2.467   1.299   8.745  0.3180  0.7485  0.0673
  225MOL0     C30975   2.485   1.299   8.587 -0.0394 -0.3886  0.2620
  225MOL0     C30976   2.453   1.168   8.530  0.1007 -0.0384 -0.1663
  225MOL0     C30977   2.442   1.054   8.494 -0.1827 -0.4462  0.5578
  225MOL0     C30978   2.457   1.545   9.179  0.6640  0.5080 -0.5152
  225MOL0     C30979   2.442   1.680   9.224 -0.9201  0.2422  0.1386
  225MOL0     C30980   2.548   1.732   9.322 -0.4182 -0.8883 -0.0313
  225MOL0     H30981   2.308   2.156   9.308 -0.9760 -2.0810 -2.1163
  225MOL0     H30982   2.226   2.387   9.326 -0.1835 -0.4208  0.3483
  225MOL0     H30983   1.799   2.416   9.314 -1.1476  1.1581  1.3172
  225MOL0     H30984   1.831   2.585   9.265 -0.8134 -0.9565 -0.0166
  225MOL0     H30985   1.745   2.579   9.495  0.8386  0.8325  0.4980
  225MOL0     H30986   1.858   2.458   9.536  0.6014 -1.5264 -3.0995
  225MOL0     H30987   1.925   2.682   9.623 -2.5676 -0.5060 -1.1232
  225MOL0     H30988   2.040   2.618   9.516  1.0420 -0.4161 -2.9485
  225MOL0     H30989   1.960   2.767   9.335 -2.3899  0.8767 -0.3757
  225MOL0     H30990   1.839   2.832   9.456  0.2415  2.3646  0.2776
  225MOL0     H30991   2.135   2.822   9.514 -2.1004 -2.6904  0.5617
  225MOL0     H30992   2.036   2.947   9.586  0.4681  1.9227  0.0795
  225MOL0     H30993   2.115   2.968   9.299 -2.8429  0.0769 -0.8802
  225MOL0     H30994   1.974   3.055   9.370  0.5475  1.3411 -2.6090
  225MOL0     H30995   2.282   3.070   9.424  0.0603  0.1801  1.0844
  225MOL0     H30996   2.163   3.169   9.508  2.7415  0.0002  1.3647
  225MOL0     H30997   2.221   3.159   9.199  0.0279  0.9504 -0.5719
  225MOL0     H30998   2.105   3.263   9.282  0.3617 -0.5207  0.4082
  225MOL0     H30999   2.234   3.443   9.459 -1.9189  2.4725 -2.2136
  225MOL0     H31000   2.416   3.675   9.426  1.0505  0.1927 -0.1752
  225MOL0     H31001   2.583   3.619   9.417 -1.0647 -1.1332 -0.7595
  225MOL0     H31002   2.508   3.683   9.651  0.5489  0.0998 -0.4898
  225MOL0     H31003   2.380   3.558   9.630  0.9059 -2.7812 -0.1661
  225MOL0     H31004   2.561   3.455   9.742 -0.0409 -3.1558 -1.4420
  225MOL0     H31005   2.561   3.383   9.595  2.7903 -0.7369 -0.0839
  225MOL0     H31006   2.791   3.447   9.694 -1.8236  2.4608  4.6478
  225MOL0     H31007   2.758   3.513   9.536 -1.4953 -2.0745 -0.6756
  225MOL0     H31008   2.781   3.866   9.828 -0.3654  2.4340 -1.8409
  225MOL0     H31009   2.871   4.048   9.890  0.7572 -0.5323  0.4217
  225MOL0     H31010   3.012   4.106   9.777  0.7211 -0.7686 -0.4540
  225MOL0     H31011   3.029   4.025   9.935 -0.9575 -0.7671  0.8433
  225MOL0     H31012   3.541   3.827   9.815 -0.6819 -2.0602 -2.2469
  225MOL0     H31013   3.770   3.931   9.776 -0.8466  0.5410  1.7441
  225MOL0     H31014   3.917   4.081   9.702  0.2853 -0.7550  0.5319
  225MOL0     H31015   3.947   3.926   9.626  0.2572  0.8399  0.9878
  225MOL0     H31016   4.022   4.057   9.409  0.6239 -3.1913  0.0950
  225MOL0     H31017   4.075   4.180   9.526  1.4659 -0.0360 -1.8019
  225MOL0     H31018   4.180   3.992   9.653 -2.5299  1.5092 -0.0871
  225MOL0     H31019   4.265   4.013   9.502 -0.9896  1.4386  0.4169
  225MOL0     H31020   4.155   3.844   9.377 -2.1720  0.8022  0.1178
  225MOL0     H31021   4.063   3.787   9.527  1.2882 -1.6215  0.0488
  225MOL0     H31022   4.363   3.759   9.494  0.6925 -1.2065 -1.7156
  225MOL0     H31023   4.263   3.725   9.633 -0.8006  1.2349  0.5309
  225MOL0     H31024   4.206   3.579   9.359 -0.5378 -1.4034 -0.1759
  225MOL0     H31025   4.129   3.554   9.509  0.0367  2.3146  0.9786
  225MOL0     H31026   4.287   3.375   9.501  0.8643 -0.6787 -1.7431
  225MOL0     H31027   4.343   3.476   9.627  3.0420  0.3485  0.1564
  225MOL0     H31028   4.541   3.443   9.524 -1.1360 -0.4748  0.5847
  225MOL0     H31029   4.484   3.587   9.419  1.9165 -0.5932 -0.6827
  225MOL0     H31030   3.600   4.023   9.378 -4.0097  2.2529  1.0173
  225MOL0     H31031   3.397   3.918   9.445  0.4642 -1.1844  0.0406
  225MOL0     H31032   3.180   3.663   9.607  1.2172  2.4955 -1.0583
  225MOL0     H31033   2.980   3.557   9.606  1.0696  0.1922  0.2888
  225MOL0     H31034   1.866   2.279   9.150 -0.2091 -2.4187 -0.7436
  225MOL0     H31035   1.941   2.055   9.112 -0.6308 -0.0435  0.8612
  225MOL0     H31036   2.143   1.737   9.060 -1.7210 -3.2235 -0.9557
  225MOL0     H31037   2.199   1.535   8.964  2.2669 -1.2917 -1.7710
  225MOL0     H31038   2.331   1.198   8.934 -0.2847 -0.7513 -1.4783
  225MOL0     H31039   2.207   1.323   8.978  0.2079  0.6034  0.9634
  225MOL0     H31040   2.329   1.464   8.783 -0.3551  0.1530 -2.0968
  225MOL0     H31041   2.246   1.313   8.735 -0.1828  0.8048  0.4201
  225MOL0     H31042   2.543   1.362   8.792 -1.0879  0.0132  3.5855
  225MOL0     H31043   2.480   1.201   8.791 -0.7268  0.5432 -0.0645
  225MOL0     H31044   2.587   1.318   8.552 -0.6322 -1.5517 -2.3548
  225MOL0     H31045   2.422   1.381   8.553  0.3781  0.6129  1.8218
  225MOL0     H31046   2.446   0.951   8.464 -1.7455  0.7442 -4.6430
  225MOL0     H31047   2.548   1.493   9.207 -1.0542 -2.3772  0.1840
  225MOL0     H31048   2.588   1.832   9.303 -2.0795  0.3377  2.3411
  225MOL0     H31049   2.498   1.745   9.418 -0.4911  1.3846 -0.3327
  225MOL0     H31050   2.636   1.668   9.333  1.4953  1.8555  2.0413
  226MOL0     O31051   4.709   6.593   9.091  0.0975  0.3559  0.3403
  226MOL0     C31052   4.727   6.498   9.027 -0.8452  0.8587  1.0859
  226MOL0     O31053   4.834   6.420   9.029 -0.4474 -0.7446 -0.6303
  226MOL0     C31054   4.951   6.452   9.096 -0.2870  0.1769 -0.0330
  226MOL0     C31055   5.021   6.335   9.142 -0.2944  0.4194  0.2252
  226MOL0     C31056   5.135   6.353   9.214  0.0068  0.1639  0.7325
  226MOL0     C31057   5.186   6.482   9.237 -0.7163 -0.8409  0.2837
  226MOL0     O31058   5.306   6.479   9.307  0.3047  0.1705  0.0169
  226MOL0     C31059   5.359   6.605   9.348  0.0881  0.6128 -0.0955
  226MOL0     C31060   5.494   6.571   9.419 -0.0677 -0.4307 -0.2546
  226MOL0     C31061   5.573   6.693   9.446  0.3393 -0.1428  0.0990
  226MOL0     C31062   5.699   6.663   9.524  0.0315  0.1027  0.3175
  226MOL0     C31063   5.792   6.785   9.523  0.8992 -0.8669 -0.4764
  226MOL0     C31064   5.934   6.745   9.574 -0.3334  0.4914  0.9009
  226MOL0     C31065   6.021   6.689   9.462 -0.3968 -0.3904 -0.2224
  226MOL0     C31066   6.171   6.684   9.512 -0.1416 -1.0049  0.5180
  226MOL0     N31067   6.253   6.622   9.410 -0.7349  0.0497  0.2124
  226MOL0     C31068   6.260   6.487   9.384  0.8656  0.3718 -0.3561
  226MOL0     C31069   6.345   6.480   9.275  0.8756  0.6491  0.4710
  226MOL0     C31070   6.387   6.356   9.199 -0.3476  0.2446  0.3802
  226MOL0     C31071   6.535   6.332   9.207 -0.3707  0.2315  0.4290
  226MOL0     C31072   6.606   6.340   9.341  0.9168 -0.3332  0.4135
  226MOL0     C31073   6.744   6.282   9.354 -0.0201  0.4714  0.9214
  226MOL0     O31074   6.825   6.333   9.244 -0.4124 -0.1626  0.0683
  226MOL0     C31075   6.958   6.298   9.229 -1.1368  0.0248  0.4243
  226MOL0     C31076   7.022   6.341   9.113 -0.8968 -1.2096 -0.4264
  226MOL0     C31077   7.161   6.317   9.083 -0.1136 -0.5552 -0.5260
  226MOL0     C31078   7.223   6.387   8.964 -0.2499 -0.0477  0.3158
  226MOL0     C31079   7.222   6.220   9.164 -0.0965 -0.3734 -0.1892
  226MOL0     C31080   7.355   6.147   9.127  0.1323  0.2486 -0.2866
  226MOL0     O31081   7.389   6.056   9.223 -0.2736 -0.0623 -0.5189
  226MOL0     C31082   7.510   5.986   9.205  0.3282  0.2391  0.1885
  226MOL0     C31083   7.506   5.850   9.198  0.1692  0.5497 -0.3054
  226MOL0     C31084   7.621   5.775   9.162 -0.0112  0.1104 -0.1198
  226MOL0     C31085   7.744   5.829   9.137 -0.4100 -0.1818 -0.2482
  226MOL0     O31086   7.854   5.746   9.108 -0.0527 -0.3384  0.8254
  226MOL0     C31087   7.978   5.790   9.165 -0.3182  0.7642  0.6058
  226MOL0     C31088   8.095   5.697   9.132  0.5133 -0.0537 -0.6504
  226MOL0     C31089   8.224   5.723   9.219  0.6179 -0.2313 -0.6167
  226MOL0     C31090   8.334   5.642   9.180  0.4171  0.4936  0.3178
  226MOL0     C31091   8.464   5.685   9.246  0.0288 -0.2670 -0.2185
  226MOL0     C31092   8.586   5.621   9.189 -0.1961 -0.0366 -0.3275
  226MOL0     C31093   8.705   5.618   9.284  0.4193  0.4672  0.4765
  226MOL0     C31094   8.769   5.755   9.268  0.2041  0.3186 -0.2965
  226MOL0    Cl31095   8.919   5.780   9.367 -0.1956  0.1677  0.0135
  226MOL0     C31096   7.745   5.971   9.145  0.0719 -0.3263 -0.1124
  226MOL0     C31097   7.632   6.048   9.169  0.2948 -0.5345 -0.2285
  226MOL0     O31098   7.409   6.156   9.018  0.3062 -0.3583 -0.2650
  226MOL0     C31099   7.153   6.164   9.278 -1.0191 -0.3656 -0.2102
  226MOL0     C31100   7.027   6.211   9.310  0.6432 -0.0891 -0.3894
  226MOL0     N31101   6.377   6.611   9.236  0.1075  0.0913 -0.3426
  226MOL0     N31102   6.318   6.699   9.317  0.6288  1.0345 -0.3269
  226MOL0     C31103   5.125   6.598   9.183  0.3661 -0.1179 -0.5084
  226MOL0     C31104   5.003   6.576   9.115  0.4205  0.7228 -0.0028
  226MOL0     C31105   4.639   6.443   8.926 -0.1792 -0.7612  0.2104
  226MOL0     C31106   4.607   6.307   8.931  0.1344  0.8247 -0.8209
  226MOL0     C31107   4.507   6.256   8.845 -0.3678  0.0910  0.6222
  226MOL0     C31108   4.449   6.338   8.742 -0.2319 -0.4291 -0.2688
  226MOL0     O31109   4.355   6.298   8.652  0.3350 -0.5766 -0.2351
  226MOL0     C31110   4.377   6.172   8.589 -0.7459 -0.0098  0.3197
  226MOL0     C31111   4.251   6.119   8.514  0.5675  0.3251  0.4746
  226MOL0     C31112   4.276   6.006   8.422 -0.2785  0.7261 -0.0108
  226MOL0     C31113   4.145   5.995   8.333 -0.1736  0.7552 -0.6782
  226MOL0     C31114   4.025   5.960   8.410 -0.1158  0.0290 -0.6094
  226MOL0     C31115   3.925   5.965   8.472  0.5680 -0.1477  0.1915
  226MOL0     C31116   4.482   6.477   8.747  0.2774 -0.8146  0.1558
  226MOL0     C31117   4.579   6.529   8.836  0.3470 -0.5669 -0.0338
  226MOL0     C31118   4.621   6.677   8.806 -0.7857 -0.9424  0.0119
  226MOL0     H31119   4.991   6.233   9.121  0.4790 -0.8323  4.2879
  226MOL0     H31120   5.209   6.277   9.239 -0.4942 -0.9673 -1.0545
  226MOL0     H31121   5.300   6.672   9.412  0.3741 -1.0326  2.0225
  226MOL0     H31122   5.376   6.657   9.254 -0.8565 -0.6051 -0.9676
  226MOL0     H31123   5.481   6.535   9.522  2.4145  2.9542  1.4272
  226MOL0     H31124   5.553   6.504   9.356 -0.3867 -0.2092 -0.7910
  226MOL0     H31125   5.602   6.739   9.351 -0.4553  0.3887  0.1046
  226MOL0     H31126   5.515   6.767   9.501  2.5748 -0.0992  2.5989
  226MOL0     H31127   5.682   6.639   9.629  0.0503  1.9468  0.7799
  226MOL0     H31128   5.761   6.584   9.482  1.7937  1.1744  0.7820
  226MOL0     H31129   5.747   6.850   9.598  1.3059 -2.2179  0.9873
  226MOL0     H31130   5.800   6.833   9.425 -2.5263  0.5954 -0.1830
  226MOL0     H31131   5.976   6.837   9.616 -1.9984  3.0746 -2.5366
  226MOL0     H31132   5.921   6.665   9.646 -1.1098 -1.5059 -1.3265
  226MOL0     H31133   6.010   6.753   9.374  1.1387 -0.8097 -0.7511
  226MOL0     H31134   5.988   6.590   9.430  0.5039 -0.5534 -0.6806
  226MOL0     H31135   6.215   6.781   9.539  1.2846 -1.7516  0.9543
  226MOL0     H31136   6.178   6.621   9.601  1.5088 -0.9832  0.4302
  226MOL0     H31137   6.222   6.397   9.431  0.9768  1.1576  1.3125
  226MOL0     H31138   6.341   6.355   9.100  1.5572 -0.2206 -0.5414
  226MOL0     H31139   6.348   6.261   9.238  0.8137 -0.2467  0.3851
  226MOL0     H31140   6.547   6.235   9.158  0.4972  0.5892 -0.0879
  226MOL0     H31141   6.574   6.405   9.136 -0.9893  1.0190  0.8794
  226MOL0     H31142   6.615   6.447   9.361  0.3428 -0.3638  0.8637
  226MOL0     H31143   6.543   6.307   9.423 -1.3388  1.8076 -0.3412
  226MOL0     H31144   6.786   6.322   9.446  0.3375 -1.5195  1.6716
  226MOL0     H31145   6.739   6.173   9.354  0.4632  0.4428  1.9435
  226MOL0     H31146   6.951   6.382   9.042 -1.5664  0.9670  1.3999
  226MOL0     H31147   7.221   6.315   8.882 -1.1134 -1.8992  1.8799
  226MOL0     H31148   7.325   6.424   8.980 -1.0254  2.6008 -0.3112
  226MOL0     H31149   7.152   6.463   8.931 -2.5042 -2.1900 -0.0622
  226MOL0     H31150   7.422   5.796   9.241  0.9102  1.0573  1.8614
  226MOL0     H31151   7.613   5.667   9.170 -4.7380  0.3849  2.5319
  226MOL0     H31152   8.016   5.887   9.134  1.4170  0.1296  0.6377
  226MOL0     H31153   7.979   5.782   9.274  2.4196 -0.1392  0.5775
  226MOL0     H31154   8.069   5.594   9.155 -0.6070 -0.2115 -2.4491
  226MOL0     H31155   8.133   5.703   9.029  2.4101 -2.0339 -0.1561
  226MOL0     H31156   8.198   5.721   9.326  0.3513  4.4849 -0.3969
  226MOL0     H31157   8.256   5.826   9.203 -0.2183  0.0571 -0.4717
  226MOL0     H31158   8.354   5.647   9.073  1.1832 -2.6038  0.2045
  226MOL0     H31159   8.306   5.541   9.213 -0.2935  0.6432  0.1964
  226MOL0     H31160   8.469   5.794   9.252  0.3422 -0.3311  0.8883
  226MOL0     H31161   8.446   5.648   9.347  0.3343 -0.1729 -0.1305
  226MOL0     H31162   8.610   5.670   9.094  0.3224  0.4808  0.0642
  226MOL0     H31163   8.570   5.519   9.152  0.5797 -0.4776  0.5303
  226MOL0     H31164   8.778   5.541   9.256  0.4136  1.1836 -1.6979
  226MOL0     H31165   8.676   5.595   9.387  0.7905 -1.5732  0.1729
  226MOL0     H31166   8.693   5.821   9.311  0.3783 -1.5491  3.2770
  226MOL0     H31167   8.780   5.783   9.163  1.6709  1.3943  0.1092
  226MOL0     H31168   7.842   6.016   9.128  0.7559 -0.6725  2.5601
  226MOL0     H31169   7.655   6.154   9.155  0.5020 -0.6403 -0.6987
  226MOL0     H31170   7.196   6.095   9.350  1.7592  0.2435 -1.1330
  226MOL0     H31171   6.972   6.168   9.393  0.2227 -0.3572 -0.8007
  226MOL0     H31172   5.172   6.696   9.190  2.1117 -0.9926  0.9015
  226MOL0     H31173   4.952   6.664   9.077  1.3787  1.4037  0.2824
  226MOL0     H31174   4.638   6.237   9.008 -1.2922 -1.2383 -2.0035
  226MOL0     H31175   4.469   6.155   8.859 -3.1855  1.2775  2.1403
  226MOL0     H31176   4.456   6.173   8.513  0.7198  2.6104  1.7080
  226MOL0     H31177   4.406   6.095   8.660  0.2878 -1.9257 -2.0569
  226MOL0     H31178   4.215   6.203   8.454 -3.6570 -0.8422  1.0508
  226MOL0     H31179   4.179   6.088   8.591 -2.2437  1.0545 -1.7187
  226MOL0     H31180   4.358   6.020   8.351  0.1915  0.5796  0.4967
  226MOL0     H31181   4.301   5.911   8.471  2.3867 -0.2054 -2.8667
  226MOL0     H31182   4.168   5.920   8.257 -1.3237 -1.5857  1.1356
  226MOL0     H31183   4.137   6.092   8.284  3.2252  2.2129  1.3003
  226MOL0     H31184   3.835   5.980   8.528  0.2064  3.0036 -1.0231
  226MOL0     H31185   4.427   6.536   8.675  0.8938 -1.7459 -1.1035
  226MOL0     H31186   4.728   6.694   8.790 -1.1302  1.5142 -0.2004
  226MOL0     H31187   4.572   6.725   8.720  0.9905  1.5122  0.2496
  226MOL0     H31188   4.586   6.738   8.890  0.2587  1.8278 -1.4280
  227MOL0     O31189   4.536   7.860  11.182  0.4970  0.2841  0.1720
  227MOL0     C31190   4.455   7.778  11.149  0.1534  0.7469  0.0501
  227MOL0     O31191   4.477   7.669  11.061  0.2398 -0.1013  0.3174
  227MOL0     C31192   4.600   7.633  11.017  0.6539  0.6254 -0.3662
  227MOL0     C31193   4.693   7.710  10.947 -0.3903  0.4052  0.9951
  227MOL0     C31194   4.828   7.669  10.917 -0.4186  0.1400 -0.3783
  227MOL0     C31195   4.853   7.533  10.936  0.2286  0.0300 -0.0007
  227MOL0     O31196   4.972   7.482  10.897  0.4530 -0.0431 -0.4744
  227MOL0     C31197   5.025   7.516  10.772 -0.7136 -1.0875 -0.7114
  227MOL0     C31198   5.166   7.455  10.755  0.0439 -0.1907  0.2979
  227MOL0     C31199   5.270   7.500  10.856  0.3877  0.8823 -0.3806
  227MOL0     C31200   5.414   7.514  10.800 -0.6223  0.0682  0.0961
  227MOL0     C31201   5.513   7.534  10.909 -0.0874  0.4665 -0.1383
  227MOL0     C31202   5.660   7.525  10.844 -0.1371 -0.3300  0.1041
  227MOL0     C31203   5.768   7.597  10.927 -1.1649  0.3633  0.3222
  227MOL0     C31204   5.817   7.514  11.049  1.5655  0.1261  0.7592
  227MOL0     N31205   5.935   7.564  11.112 -0.6214 -0.0140 -0.0889
  227MOL0     C31206   6.052   7.565  11.050  0.0925  0.8773  0.1473
  227MOL0     C31207   6.132   7.618  11.137  0.0894 -0.0270  0.9814
  227MOL0     C31208   6.276   7.656  11.090 -0.3596  0.6995  0.1382
  227MOL0     C31209   6.291   7.783  11.015  0.8313 -0.4989  0.8662
  227MOL0     C31210   6.434   7.809  10.972 -0.5476  0.9191  0.0839
  227MOL0     C31211   6.467   7.941  10.913  0.4630 -0.1016  0.7506
  227MOL0     O31212   6.602   7.947  10.938  0.4396 -0.4939  0.3529
  227MOL0     C31213   6.660   8.070  10.928 -0.3607  0.1499  0.3031
  227MOL0     C31214   6.766   8.105  11.013 -0.7139 -0.2142  0.0413
  227MOL0     C31215   6.841   8.221  11.002  0.5475 -0.0178 -0.1153
  227MOL0     C31216   6.954   8.244  11.100 -0.7966  0.4211  0.8469
  227MOL0     C31217   6.801   8.316  10.902 -0.1052  0.0985 -0.5433
  227MOL0     C31218   6.861   8.449  10.892  0.6130 -0.8535  0.5201
  227MOL0     O31219   6.797   8.535  10.802  0.5990  0.0640 -0.1376
  227MOL0     C31220   6.853   8.660  10.786 -0.3014 -0.2500  0.2046
  227MOL0     C31221   6.982   8.678  10.730  0.1526  0.6767 -1.2617
  227MOL0     C31222   7.025   8.807  10.704 -0.4866 -0.3416 -0.1075
  227MOL0     C31223   6.951   8.924  10.740 -0.0411 -0.7607 -0.6495
  227MOL0     O31224   6.988   9.054  10.716 -0.5587  0.5702  0.1880
  227MOL0     C31225   6.892   9.166  10.731  0.4078  2.1619 -0.0477
  227MOL0     C31226   6.962   9.294  10.739  0.4397  0.2365 -0.4475
  227MOL0     C31227   7.040   9.316  10.867 -0.5308  0.0350 -0.6309
  227MOL0     C31228   7.067   9.463  10.878 -0.4670 -0.6638  0.4311
  227MOL0     C31229   7.156   9.507  10.996  0.7404  0.4721  0.2355
  227MOL0     C31230   7.309   9.475  10.979  0.0891 -1.5034 -0.0979
  227MOL0     C31231   7.392   9.530  11.094  0.7241  0.0756  1.1041
  227MOL0     C31232   7.509   9.606  11.033  0.1865 -0.3822  0.1455
  227MOL0    Cl31233   7.598   9.693  11.158 -0.3476 -0.4124  0.1248
  227MOL0     C31234   6.829   8.894  10.807 -0.3379  0.7602  0.1081
  227MOL0     C31235   6.780   8.768  10.827 -0.1858  0.1821 -0.3323
  227MOL0     O31236   6.970   8.482  10.945  0.0444  0.0131 -0.1694
  227MOL0     C31237   6.700   8.282  10.816  0.9565  0.3522  0.0004
  227MOL0     C31238   6.627   8.159  10.826  0.5188  1.1784 -0.1998
  227MOL0     N31239   6.066   7.647  11.251 -0.5647  0.6222 -0.0548
  227MOL0     N31240   5.944   7.623  11.234 -0.7962 -0.3419 -0.4916
  227MOL0     C31241   4.759   7.445  10.998  1.2870 -0.6771  0.5735
  227MOL0     C31242   4.632   7.498  11.034  0.7162  0.5422 -0.3709
  227MOL0     C31243   4.309   7.781  11.193 -0.2860  0.0507  0.1703
  227MOL0     C31244   4.219   7.682  11.150  0.0543 -0.1056  0.4965
  227MOL0     C31245   4.085   7.677  11.196  0.1876 -0.1475  0.1274
  227MOL0     C31246   4.030   7.774  11.272 -0.2157  0.2454  0.4509
  227MOL0     O31247   3.895   7.784  11.293  0.0033  0.3932  0.9272
  227MOL0     C31248   3.811   7.687  11.238  0.4518 -0.4593  0.1133
  227MOL0     C31249   3.659   7.709  11.285  0.5166 -0.5178 -0.9069
  227MOL0     C31250   3.648   7.686  11.435 -0.0440 -0.4745 -0.2026
  227MOL0     C31251   3.499   7.690  11.465 -0.5725  1.1395 -0.6689
  227MOL0     C31252   3.446   7.551  11.457 -0.2914  0.1918  1.0657
  227MOL0     C31253   3.410   7.439  11.491  0.1460  0.4261 -0.5240
  227MOL0     C31254   4.117   7.871  11.317 -0.1092 -0.6853  0.5492
  227MOL0     C31255   4.255   7.877  11.283 -0.4610  0.1502  0.9987
  227MOL0     C31256   4.331   8.001  11.331  0.8462  0.6462  0.0526
  227MOL0     H31257   4.663   7.810  10.916  0.1085 -0.4296 -2.6519
  227MOL0     H31258   4.898   7.728  10.860  0.8193 -0.5988  0.3433
  227MOL0     H31259   5.047   7.623  10.771  1.1884 -1.4325 -0.4351
  227MOL0     H31260   4.959   7.475  10.695 -2.0739 -0.9023  0.3327
  227MOL0     H31261   5.140   7.349  10.759  0.7587 -0.5461 -2.3522
  227MOL0     H31262   5.209   7.496  10.662 -1.8625  2.8795  0.6190
  227MOL0     H31263   5.236   7.600  10.887 -0.2255 -0.4182  3.6944
  227MOL0     H31264   5.264   7.436  10.945  0.5712  0.4732 -0.6625
  227MOL0     H31265   5.435   7.433  10.729 -2.3905  0.9926 -1.5665
  227MOL0     H31266   5.415   7.602  10.734  0.7687 -0.5777 -0.7963
  227MOL0     H31267   5.508   7.453  10.983 -0.2428 -0.0332 -0.6859
  227MOL0     H31268   5.500   7.626  10.966 -1.4606  1.7973 -2.4602
  227MOL0     H31269   5.682   7.420  10.823 -1.7728 -0.5214 -0.8586
  227MOL0     H31270   5.659   7.580  10.749 -2.1575  2.1646  1.4471
  227MOL0     H31271   5.739   7.696  10.965 -0.1442  0.6872  0.2849
  227MOL0     H31272   5.859   7.629  10.876  0.1199 -0.4938  1.9409
  227MOL0     H31273   5.736   7.512  11.122  0.3086 -1.1868 -0.6224
  227MOL0     H31274   5.839   7.413  11.014 -0.5412 -0.9320  2.2912
  227MOL0     H31275   6.070   7.534  10.947 -0.7568  1.5016 -0.2054
  227MOL0     H31276   6.309   7.572  11.028 -0.2997 -0.9239  2.2541
  227MOL0     H31277   6.332   7.651  11.184 -0.1469 -0.9023 -0.0526
  227MOL0     H31278   6.226   7.772  10.927 -0.1735  1.3546  1.3143
  227MOL0     H31279   6.253   7.872  11.065  1.7262 -0.3123  1.2315
  227MOL0     H31280   6.492   7.789  11.063  0.1288  2.2770 -0.0186
  227MOL0     H31281   6.449   7.731  10.898  1.8493  2.2878 -1.0031
  227MOL0     H31282   6.436   7.945  10.808 -2.5110 -1.0410  1.4944
  227MOL0     H31283   6.402   8.022  10.949 -1.5359 -0.2505 -2.1212
  227MOL0     H31284   6.788   8.028  11.087 -0.4956 -1.4491 -1.2684
  227MOL0     H31285   6.975   8.161  11.168  3.5576  1.0466  0.5846
  227MOL0     H31286   6.927   8.335  11.156 -2.3211  1.8095 -1.9560
  227MOL0     H31287   7.050   8.269  11.054 -2.3489  1.8399 -1.8219
  227MOL0     H31288   7.045   8.591  10.710 -0.9576 -0.9774  1.7229
  227MOL0     H31289   7.123   8.831  10.663 -0.8912  1.1362 -0.2821
  227MOL0     H31290   6.832   9.172  10.640  2.1534  3.1509 -1.1989
  227MOL0     H31291   6.824   9.152  10.815  0.0430  1.5864 -0.4311
  227MOL0     H31292   7.034   9.303  10.656  3.0840  2.1707  1.8771
  227MOL0     H31293   6.888   9.373  10.730  2.1959  2.1699  1.1505
  227MOL0     H31294   7.137   9.266  10.857 -0.3551  0.6474 -2.4166
  227MOL0     H31295   6.992   9.296  10.963 -0.1486 -0.4026 -0.5298
  227MOL0     H31296   6.974   9.518  10.889 -0.4565 -0.2162 -1.4040
  227MOL0     H31297   7.113   9.480  10.780  0.3200 -1.9543  0.5493
  227MOL0     H31298   7.141   9.614  11.013 -0.1314 -0.0412  3.1440
  227MOL0     H31299   7.111   9.459  11.083  0.3324  2.5728  1.2472
  227MOL0     H31300   7.341   9.502  10.878 -1.9850  0.3050 -0.3440
  227MOL0     H31301   7.322   9.366  10.978 -3.1840 -2.1030  2.6412
  227MOL0     H31302   7.433   9.452  11.159 -0.2247 -4.6363 -3.3099
  227MOL0     H31303   7.340   9.604  11.156 -2.2758 -1.1083  0.2197
  227MOL0     H31304   7.466   9.669  10.954 -0.5670 -1.6210 -0.4680
  227MOL0     H31305   7.578   9.535  10.987 -0.3974 -0.5236 -0.5283
  227MOL0     H31306   6.772   8.971  10.857 -2.1184 -1.3492  1.4919
  227MOL0     H31307   6.688   8.762  10.883  0.4531  1.5525  0.9316
  227MOL0     H31308   6.688   8.337  10.724 -1.6442  0.1318  0.1370
  227MOL0     H31309   6.545   8.124  10.763  1.2548  1.0144 -1.0832
  227MOL0     H31310   4.774   7.341  11.026  2.1822 -0.9565 -0.8541
  227MOL0     H31311   4.569   7.432  11.092  0.6081  0.1276 -0.9428
  227MOL0     H31312   4.253   7.601  11.085  0.4539 -0.3805  1.0401
  227MOL0     H31313   4.021   7.593  11.171 -2.5972  2.1516 -1.0594
  227MOL0     H31314   3.806   7.706  11.130 -4.3681 -1.8978 -0.1646
  227MOL0     H31315   3.839   7.583  11.261  0.3333  0.1157  3.3024
  227MOL0     H31316   3.591   7.642  11.233 -0.4626 -0.2943  0.0550
  227MOL0     H31317   3.630   7.809  11.250 -0.9364 -0.3977  0.5107
  227MOL0     H31318   3.698   7.594  11.468  3.7221  2.0976  2.2161
  227MOL0     H31319   3.702   7.769  11.482  0.9662  0.0028 -2.0893
  227MOL0     H31320   3.447   7.766  11.407 -0.7305  0.8290 -0.9351
  227MOL0     H31321   3.495   7.724  11.569 -1.5947 -1.4486  0.2118
  227MOL0     H31322   3.390   7.338  11.519  1.0146  0.0529 -1.1937
  227MOL0     H31323   4.087   7.960  11.371  1.9941  2.1865 -2.5810
  227MOL0     H31324   4.274   8.058  11.404  1.8100 -0.0374  1.3833
  227MOL0     H31325   4.428   7.991  11.380 -0.4082  0.2964  2.6417
  227MOL0     H31326   4.334   8.070  11.246  0.8880  1.5696  0.8011
  228MOL0     O31327   4.194   4.820   5.353  0.0880 -0.3547 -0.6233
  228MOL0     C31328   4.149   4.735   5.428  0.3590  0.2226  0.0574
  228MOL0     O31329   4.177   4.601   5.422 -0.2935 -0.0495 -0.1167
  228MOL0     C31330   4.258   4.551   5.325 -0.2911  0.0282 -0.1502
  228MOL0     C31331   4.206   4.511   5.198  0.6838  0.4073 -0.3616
  228MOL0     C31332   4.296   4.462   5.096  0.5596  0.5831  0.1463
  228MOL0     C31333   4.432   4.446   5.131 -0.1281 -0.5520  0.2707
  228MOL0     O31334   4.501   4.403   5.022 -0.4797 -0.2023  0.5634
  228MOL0     C31335   4.615   4.308   5.025 -0.8160  0.9655 -0.1147
  228MOL0     C31336   4.552   4.168   5.021 -0.4561  1.1811 -0.1262
  228MOL0     C31337   4.655   4.050   5.006 -0.4846 -0.4431 -0.5923
  228MOL0     C31338   4.611   3.951   4.891  0.0499  0.2257 -0.1326
  228MOL0     C31339   4.714   3.836   4.869  0.6834  1.0756  1.0158
  228MOL0     C31340   4.691   3.762   4.740  0.2262 -0.0808  0.2951
  228MOL0     C31341   4.813   3.673   4.712  0.0564  0.7632  0.7217
  228MOL0     C31342   4.776   3.556   4.617  0.3181 -0.6534 -0.2657
  228MOL0     N31343   4.889   3.466   4.610 -0.3067  0.6675 -0.1632
  228MOL0     C31344   4.994   3.461   4.524  1.6040 -0.4076  0.1337
  228MOL0     C31345   5.066   3.351   4.552 -0.1842 -0.2605 -0.4206
  228MOL0     C31346   5.195   3.324   4.481 -0.2152  0.3798 -0.4648
  228MOL0     C31347   5.314   3.324   4.580 -0.9801 -0.4103  0.5387
  228MOL0     C31348   5.446   3.320   4.495 -0.2487  0.7208  0.9412
  228MOL0     C31349   5.568   3.314   4.582 -0.0322 -0.2906  0.6034
  228MOL0     O31350   5.589   3.434   4.664  0.0305 -0.3668  0.2046
  228MOL0     C31351   5.702   3.447   4.738 -0.3797  0.3818 -0.0150
  228MOL0     C31352   5.819   3.369   4.714  0.4679 -0.4938  0.1335
  228MOL0     C31353   5.928   3.391   4.792 -0.7305  0.5040  0.2438
  228MOL0     C31354   6.058   3.311   4.759  0.7508 -0.6705 -1.0027
  228MOL0     C31355   5.928   3.489   4.901  0.1411  0.0318  0.6022
  228MOL0     C31356   6.035   3.506   4.997  0.0117  0.4389 -0.5301
  228MOL0     O31357   6.110   3.395   5.033  0.2196 -0.3185  0.1743
  228MOL0     C31358   6.222   3.394   5.110  0.3238  1.1114 -0.5243
  228MOL0     C31359   6.300   3.508   5.122  0.5088  0.5189 -0.0697
  228MOL0     C31360   6.418   3.499   5.198  0.3770 -0.6994  0.8012
  228MOL0     C31361   6.468   3.383   5.266 -0.0456  0.5049  0.1244
  228MOL0     O31362   6.577   3.386   5.346  0.5768  0.2427  0.1849
  228MOL0     C31363   6.666   3.274   5.346 -0.1530 -0.3018  0.0622
  228MOL0     C31364   6.809   3.320   5.354 -0.8237 -0.5867  0.7394
  228MOL0     C31365   6.875   3.252   5.472  0.5871  0.1042 -0.3816
  228MOL0     C31366   6.990   3.341   5.527 -0.5556  0.2778  0.0303
  228MOL0     C31367   7.094   3.275   5.618  1.0416 -0.1070 -0.7034
  228MOL0     C31368   7.015   3.242   5.750  0.5681  0.4780  0.5074
  228MOL0     C31369   7.095   3.156   5.842 -0.5065  0.1525 -0.4491
  228MOL0     C31370   7.038   3.159   5.985  0.0467 -0.0149  0.4912
  228MOL0    Cl31371   7.148   3.059   6.089  0.6986  0.6031  0.8140
  228MOL0     C31372   6.390   3.262   5.244 -0.4037 -0.5268  0.0072
  228MOL0     C31373   6.272   3.271   5.168 -0.2316 -0.3297 -0.2464
  228MOL0     O31374   6.030   3.613   5.061  0.1678 -0.4654  0.3214
  228MOL0     C31375   5.811   3.570   4.912 -0.1316  0.2041 -0.2283
  228MOL0     C31376   5.699   3.551   4.836 -0.2052 -0.3520  0.5942
  228MOL0     N31377   4.994   3.275   4.643  0.5226  0.0011  0.4805
  228MOL0     N31378   4.891   3.350   4.676  0.7995  0.2524  0.0653
  228MOL0     C31379   4.477   4.469   5.252  0.3579 -0.5289 -0.6420
  228MOL0     C31380   4.392   4.536   5.344 -0.4679  0.8518 -0.3397
  228MOL0     C31381   4.071   4.780   5.547 -0.0299 -0.2876  0.3503
  228MOL0     C31382   3.998   4.901   5.533  0.7529 -0.1276  0.9238
  228MOL0     C31383   3.908   4.951   5.628 -0.3355  0.1185  0.2126
  228MOL0     C31384   3.890   4.891   5.746  0.3520  0.4040  0.0794
  228MOL0     O31385   3.804   4.933   5.843  0.2477  0.0342 -0.4606
  228MOL0     C31386   3.865   4.953   5.973 -0.5902  0.1321 -0.4229
  228MOL0     C31387   3.928   5.091   5.978 -0.0300 -0.1364  0.2670
  228MOL0     C31388   3.829   5.205   5.926  0.7981 -0.2567  0.3743
  228MOL0     C31389   3.882   5.347   5.951  0.6631  0.2811 -0.2590
  228MOL0     C31390   3.781   5.444   5.899  1.2263 -0.5694 -0.5179
  228MOL0     C31391   3.706   5.530   5.846  0.4388  0.0555 -0.0163
  228MOL0     C31392   3.974   4.775   5.760  1.1361  0.9084  0.6193
  228MOL0     C31393   4.070   4.721   5.669 -0.1126  0.3595 -1.0146
  228MOL0     C31394   4.151   4.602   5.710 -0.8457  0.4879 -0.1473
  228MOL0     H31395   4.098   4.514   5.192  0.2449  0.2115  4.3170
  228MOL0     H31396   4.259   4.433   4.998  3.6507 -0.6715 -0.7807
  228MOL0     H31397   4.678   4.324   5.113  1.3385  1.4225 -1.6669
  228MOL0     H31398   4.692   4.323   4.949  1.3859 -0.4778  1.6846
  228MOL0     H31399   4.495   4.156   5.114 -1.5711  2.1220 -0.6662
  228MOL0     H31400   4.477   4.160   4.943 -1.4623  1.2460  0.8058
  228MOL0     H31401   4.753   4.097   5.000  0.5183 -2.1189  1.4704
  228MOL0     H31402   4.651   3.995   5.101 -0.3105 -0.9240 -0.8638
  228MOL0     H31403   4.507   3.923   4.908 -0.3340  1.8397  0.3990
  228MOL0     H31404   4.603   3.996   4.791  3.3968 -0.8457 -0.9886
  228MOL0     H31405   4.724   3.762   4.949 -2.8392  0.7718  1.3221
  228MOL0     H31406   4.802   3.893   4.841  0.7909  0.3522 -0.1915
  228MOL0     H31407   4.611   3.692   4.764  0.3737 -0.2859  0.1852
  228MOL0     H31408   4.670   3.826   4.653 -3.3936  1.1627  1.8487
  228MOL0     H31409   4.854   3.629   4.803  2.7068 -0.2594 -0.8477
  228MOL0     H31410   4.889   3.732   4.660 -1.1263  1.0095 -0.8036
  228MOL0     H31411   4.686   3.504   4.652 -0.1933 -1.3645 -2.5227
  228MOL0     H31412   4.764   3.600   4.518  2.9149 -1.1868 -0.9089
  228MOL0     H31413   5.022   3.545   4.462  0.8266  0.2994  0.7265
  228MOL0     H31414   5.203   3.413   4.418 -4.0671  1.7918  0.7849
  228MOL0     H31415   5.185   3.232   4.423 -0.1880  0.0607  0.0313
  228MOL0     H31416   5.306   3.416   4.638 -0.0316 -1.1163  1.8618
  228MOL0     H31417   5.314   3.239   4.649  0.1175 -2.2329 -1.5633
  228MOL0     H31418   5.454   3.240   4.421 -0.4759 -1.2007  2.9012
  228MOL0     H31419   5.458   3.419   4.449  3.5328 -0.1759 -0.4317
  228MOL0     H31420   5.556   3.233   4.654 -0.8092  0.1470  0.9784
  228MOL0     H31421   5.649   3.299   4.510 -1.2132 -2.6195 -0.3384
  228MOL0     H31422   5.826   3.294   4.636  1.9387 -0.6487  0.3976
  228MOL0     H31423   6.149   3.368   4.777 -0.1977  0.0724  2.1140
  228MOL0     H31424   6.067   3.272   4.657  1.5021  0.1308 -1.2614
  228MOL0     H31425   6.053   3.223   4.824  0.2755 -1.0191 -1.5002
  228MOL0     H31426   6.265   3.602   5.081  1.1309  0.4665 -0.7262
  228MOL0     H31427   6.476   3.591   5.203  0.6111 -0.8240  0.4000
  228MOL0     H31428   6.639   3.213   5.433 -0.9159 -0.1844 -0.0892
  228MOL0     H31429   6.657   3.207   5.260 -1.3272  0.9489 -0.8342
  228MOL0     H31430   6.859   3.265   5.274  0.0216 -2.0375  2.1967
  228MOL0     H31431   6.829   3.427   5.345 -2.0180 -0.4191 -0.2458
  228MOL0     H31432   6.911   3.154   5.441  4.3326  1.3044 -0.4276
  228MOL0     H31433   6.812   3.262   5.560 -0.0673  1.1266 -0.9415
  228MOL0     H31434   6.958   3.430   5.581  2.2582  2.5032 -1.6942
  228MOL0     H31435   7.042   3.382   5.440 -0.2463 -1.2860 -0.5520
  228MOL0     H31436   7.135   3.181   5.580  0.1234 -0.8303  0.0466
  228MOL0     H31437   7.183   3.333   5.645  0.0043  0.3023  2.1750
  228MOL0     H31438   6.920   3.198   5.718  0.3859  1.8885 -1.0567
  228MOL0     H31439   6.996   3.337   5.801  0.5319  0.3413  0.7471
  228MOL0     H31440   7.199   3.189   5.849  0.1328 -1.7747 -0.1710
  228MOL0     H31441   7.102   3.049   5.820 -0.4371 -0.5017  2.4465
  228MOL0     H31442   6.939   3.115   5.974 -1.5691  3.2258  1.0299
  228MOL0     H31443   7.005   3.256   6.023 -5.4296 -1.0395 -0.7522
  228MOL0     H31444   6.418   3.178   5.307  0.2138  0.9301  1.7626
  228MOL0     H31445   6.206   3.184   5.159 -2.0447  1.0112 -0.5383
  228MOL0     H31446   5.801   3.626   5.005 -0.4123 -1.9129  1.0931
  228MOL0     H31447   5.605   3.605   4.833  0.1980  0.4450  1.7917
  228MOL0     H31448   4.579   4.470   5.288  0.7998  4.0352 -1.4335
  228MOL0     H31449   4.433   4.573   5.437 -1.4376  0.8457  0.1066
  228MOL0     H31450   4.010   4.965   5.446  1.0644 -5.0988 -3.0998
  228MOL0     H31451   3.850   5.037   5.596 -2.5600 -1.0792  0.7928
  228MOL0     H31452   3.787   4.959   6.049  0.7426  0.0185  1.0096
  228MOL0     H31453   3.938   4.874   5.994 -1.9208 -1.3577 -1.2103
  228MOL0     H31454   4.021   5.085   5.921 -0.7016 -0.4392 -0.8472
  228MOL0     H31455   3.949   5.119   6.081 -1.0090 -0.5143  0.5895
  228MOL0     H31456   3.830   5.182   5.819  0.9156  0.4096  0.2238
  228MOL0     H31457   3.722   5.196   5.948  0.2086  0.3472 -1.9421
  228MOL0     H31458   3.979   5.362   5.904  0.4800  1.4791 -0.2696
  228MOL0     H31459   3.900   5.356   6.059  1.4803  0.9245 -0.4397
  228MOL0     H31460   3.644   5.600   5.794  0.1145  1.1719  1.7785
  228MOL0     H31461   3.959   4.720   5.853  1.0361  0.3439  0.2694
  228MOL0     H31462   4.089   4.518   5.677  0.5888 -1.4885  1.7927
  228MOL0     H31463   4.250   4.595   5.665 -0.3930 -1.8604  1.0196
  228MOL0     H31464   4.146   4.600   5.820 -0.6702 -0.2996 -0.1484
  229MOL0     O31465   9.469   2.184  11.205  0.7781  0.8988 -0.1061
  229MOL0     C31466   9.441   2.120  11.305 -0.3703 -0.2733 -0.7555
  229MOL0     O31467   9.473   1.990  11.321  0.2657  0.6617 -0.1620
  229MOL0     C31468   9.524   1.914  11.217 -0.4887  0.9931 -0.2195
  229MOL0     C31469   9.633   1.942  11.129 -0.3219 -0.3719 -0.0576
  229MOL0     C31470   9.654   1.868  11.020 -0.3216  0.3618  0.1259
  229MOL0     C31471   9.584   1.746  10.995  0.4516  0.1503  0.0505
  229MOL0     O31472   9.603   1.655  10.891 -0.2732 -0.4395  0.2618
  229MOL0     C31473   9.701   1.680  10.786 -1.2927  0.1351 -0.0495
  229MOL0     C31474   9.705   1.555  10.706  0.1316  0.1193 -0.0736
  229MOL0     C31475   9.815   1.556  10.599  0.0563 -0.0764 -0.0997
  229MOL0     C31476   9.950   1.526  10.673 -0.2450 -0.4050  0.7845
  229MOL0     C31477  10.071   1.487  10.583  0.3366 -0.5978  0.4746
  229MOL0     C31478  10.090   1.334  10.587 -0.0713  0.4929  0.1080
  229MOL0     C31479  10.210   1.275  10.511  0.2488  0.1868  0.6900
  229MOL0     C31480  10.332   1.359  10.521 -0.4012  0.6540 -0.5227
  229MOL0     N31481  10.447   1.293  10.443 -0.3692 -1.0047  0.2228
  229MOL0     C31482  10.482   1.319  10.310 -0.5141 -0.5149  0.1171
  229MOL0     C31483  10.601   1.251  10.281  0.3822  0.0706 -0.4145
  229MOL0     C31484  10.685   1.266  10.164  0.9053 -0.7395 -0.0698
  229MOL0     C31485  10.760   1.128  10.144 -0.1034  0.2082  0.3587
  229MOL0     C31486  10.873   1.136  10.033 -0.3444 -0.8026 -0.8118
  229MOL0     C31487  10.972   1.014  10.026  0.8983 -0.8027 -0.3198
  229MOL0     O31488  10.897   0.894  10.022  0.6141  0.0277  0.5184
  229MOL0     C31489  10.804   0.872   9.931  0.3712 -0.1639 -0.8739
  229MOL0     C31490  10.690   0.821   9.973  1.0034  1.5920 -0.2095
  229MOL0     C31491  10.585   0.783   9.892  0.1277  0.3363  0.1818
  229MOL0     C31492  10.457   0.731   9.963  0.9832 -0.1413 -0.0975
  229MOL0     C31493  10.605   0.793   9.746  0.6736 -0.1832 -0.5954
  229MOL0     C31494  10.500   0.758   9.655 -1.0258  0.1185  0.0395
  229MOL0     O31495  10.515   0.796   9.527 -0.6600 -0.0394 -0.4769
  229MOL0     C31496  10.413   0.774   9.438  0.4480 -0.3360  0.4144
  229MOL0     C31497  10.418   0.658   9.358 -0.2347  0.4066 -0.1499
  229MOL0     C31498  10.325   0.638   9.256  0.0980  0.1283 -0.5291
  229MOL0     C31499  10.224   0.732   9.228 -0.3590 -0.7606 -0.0852
  229MOL0     O31500  10.123   0.726   9.125 -0.0862 -0.0072  0.6058
  229MOL0     C31501  10.100   0.614   9.043  0.2130 -0.8963 -0.0608
  229MOL0     C31502  10.022   0.519   9.132 -0.9066  0.4199  0.5701
  229MOL0     C31503  10.000   0.382   9.069 -0.0379 -0.0170  0.9575
  229MOL0     C31504  10.121   0.297   9.019  0.4723 -0.3450  1.6962
  229MOL0     C31505  10.223   0.249   9.125  0.1494  0.5525 -0.5536
  229MOL0     C31506  10.357   0.201   9.070 -0.8862 -0.4098  0.1603
  229MOL0     C31507  10.349   0.050   9.065 -0.4764  0.0847  0.2419
  229MOL0     C31508  10.417   0.002   8.933 -0.9874 -0.0210  0.2976
  229MOL0    Cl31509  10.315   0.025   8.775 -0.2625 -0.2266  0.3145
  229MOL0     C31510  10.214   0.843   9.311 -0.3362  0.0443  0.0233
  229MOL0     C31511  10.311   0.863   9.415  0.5159 -1.3086  0.4356
  229MOL0     O31512  10.403   0.706   9.701 -0.4374  0.4159  0.5213
  229MOL0     C31513  10.724   0.858   9.703  0.7501  0.3102 -0.0676
  229MOL0     C31514  10.824   0.896   9.794  0.3449  0.4234 -0.3084
  229MOL0     N31515  10.629   1.173  10.397  0.1728  0.5433 -0.2330
  229MOL0     N31516  10.542   1.208  10.496 -0.0068 -0.1209  0.4192
  229MOL0     C31517   9.488   1.707  11.092  0.4150 -0.3210 -0.1085
  229MOL0     C31518   9.455   1.794  11.193 -0.0570 -0.0845 -0.5291
  229MOL0     C31519   9.380   2.193  11.424  0.8146 -0.0843  0.0149
  229MOL0     C31520   9.381   2.336  11.429 -0.2949  0.8907 -0.0825
  229MOL0     C31521   9.331   2.413  11.531  0.0713 -0.9549 -0.8357
  229MOL0     C31522   9.259   2.361  11.633 -0.0591 -0.1724 -0.3958
  229MOL0     O31523   9.212   2.445  11.731 -0.5798 -0.0474  0.3974
  229MOL0     C31524   9.093   2.407  11.801 -0.9320  0.2967  0.2380
  229MOL0     C31525   9.004   2.523  11.842 -0.4995 -0.1766 -0.0929
  229MOL0     C31526   9.078   2.608  11.952 -0.0563 -0.2417  0.7512
  229MOL0     C31527   8.996   2.718  12.007 -0.0947  0.5105  0.4897
  229MOL0     C31528   8.968   2.817  11.904  0.4350  0.4322 -0.7886
  229MOL0     C31529   8.919   2.887  11.818 -0.7253  0.0511  0.0513
  229MOL0     C31530   9.231   2.220  11.623  0.5722 -0.1360  0.0796
  229MOL0     C31531   9.286   2.136  11.524 -0.3701 -0.0981  1.1445
  229MOL0     C31532   9.271   1.984  11.520 -0.0556  0.4681  0.1716
  229MOL0     H31533   9.700   2.027  11.135  0.1359 -0.4747 -2.6069
  229MOL0     H31534   9.723   1.908  10.946 -2.0381  1.1833 -1.1014
  229MOL0     H31535   9.794   1.711  10.834 -1.0605  0.2859 -0.5920
  229MOL0     H31536   9.672   1.771  10.733  0.0333 -0.4289 -1.8305
  229MOL0     H31537   9.718   1.475  10.778  0.5720  0.3991  0.1610
  229MOL0     H31538   9.614   1.531  10.650  2.0578 -1.2384 -2.8761
  229MOL0     H31539   9.799   1.480  10.523  1.0961 -0.2112 -0.2048
  229MOL0     H31540   9.825   1.652  10.548  1.0092 -0.1731 -0.1180
  229MOL0     H31541   9.987   1.624  10.706  0.8852 -0.0376 -1.3482
  229MOL0     H31542   9.930   1.460  10.758 -2.5807  0.1451  0.7129
  229MOL0     H31543  10.157   1.549  10.609 -1.1766  2.4590 -1.2478
  229MOL0     H31544  10.049   1.518  10.480 -0.2748  0.1047  0.8038
  229MOL0     H31545  10.101   1.304  10.692  3.4322  0.9221 -0.0178
  229MOL0     H31546   9.997   1.288  10.550 -0.6716  1.1198  0.7920
  229MOL0     H31547  10.179   1.267  10.406 -2.7857  0.6533  1.4521
  229MOL0     H31548  10.232   1.173  10.544  0.4975  0.4896  1.4881
  229MOL0     H31549  10.322   1.462  10.487 -0.7878  0.6651 -0.3855
  229MOL0     H31550  10.361   1.362  10.626 -1.1020  1.7066 -0.3464
  229MOL0     H31551  10.425   1.382  10.242 -1.7792 -1.0191  0.6801
  229MOL0     H31552  10.760   1.345  10.175 -0.2432  0.0869  2.8081
  229MOL0     H31553  10.614   1.297  10.086  0.8442  0.8225  0.5634
  229MOL0     H31554  10.807   1.096  10.238  1.7386  1.1203 -0.2104
  229MOL0     H31555  10.693   1.046  10.116  0.1908 -0.4770  1.5657
  229MOL0     H31556  10.827   1.137   9.934  2.1564 -0.6323 -2.0333
  229MOL0     H31557  10.932   1.226  10.049 -0.3157 -0.9381 -0.1115
  229MOL0     H31558  11.022   1.027   9.930 -0.2650 -3.3791 -1.3562
  229MOL0     H31559  11.040   1.016  10.111 -1.8440 -0.4582  2.0190
  229MOL0     H31560  10.678   0.820  10.081  1.6849  2.7047 -0.1014
  229MOL0     H31561  10.362   0.762   9.918  0.9898  2.0407  1.2425
  229MOL0     H31562  10.456   0.770  10.065  0.5185 -0.7664  0.1438
  229MOL0     H31563  10.470   0.623   9.975  0.4244  0.1022  4.5004
  229MOL0     H31564  10.501   0.591   9.381  2.2289  2.7511 -1.6348
  229MOL0     H31565  10.333   0.549   9.193 -0.4896 -0.6870  0.5115
  229MOL0     H31566  10.053   0.650   8.951  0.5884  0.7945  0.3726
  229MOL0     H31567  10.197   0.572   9.012 -0.6104 -2.1940 -0.9688
  229MOL0     H31568  10.078   0.498   9.224 -0.5899  2.8821  1.0019
  229MOL0     H31569   9.928   0.567   9.162 -1.7669 -1.2862  0.7819
  229MOL0     H31570   9.937   0.392   8.980  2.2287  1.9470 -0.5383
  229MOL0     H31571   9.950   0.317   9.142  2.1182 -0.1101  2.4248
  229MOL0     H31572  10.177   0.361   8.950  2.8123 -2.0339  1.9136
  229MOL0     H31573  10.095   0.212   8.955  1.7752 -0.5109  1.3570
  229MOL0     H31574  10.254   0.341   9.177  0.2595  0.8271 -1.1064
  229MOL0     H31575  10.185   0.177   9.198  0.1405  1.0382 -0.0737
  229MOL0     H31576  10.446   0.226   9.129 -1.4138 -0.3730  0.9529
  229MOL0     H31577  10.384   0.234   8.969 -1.8499 -0.8532 -0.2535
  229MOL0     H31578  10.248   0.009   9.070 -0.8772  1.1631  1.6322
  229MOL0     H31579  10.399   0.006   9.152 -1.5066  1.1629  1.4166
  229MOL0     H31580  10.443  -0.105   8.935 -0.4365  0.1145  0.5478
  229MOL0     H31581  10.515   0.048   8.918  0.4432 -1.6273  3.6890
  229MOL0     H31582  10.136   0.909   9.275 -1.5489 -3.5049 -4.8009
  229MOL0     H31583  10.310   0.962   9.459  0.6131 -0.5917 -1.1334
  229MOL0     H31584  10.738   0.885   9.599  1.8622 -0.9103 -0.2678
  229MOL0     H31585  10.917   0.937   9.756 -0.2825  1.5085 -0.7180
  229MOL0     H31586   9.439   1.612  11.073  2.2823 -0.9536 -2.0844
  229MOL0     H31587   9.369   1.778  11.258  0.0759  2.1767  0.3106
  229MOL0     H31588   9.421   2.393  11.346 -0.7522  0.5789 -0.5189
  229MOL0     H31589   9.346   2.520  11.535  0.2833 -1.0151  1.5012
  229MOL0     H31590   9.042   2.336  11.735  1.4484  0.1447 -1.6061
  229MOL0     H31591   9.126   2.364  11.896  0.6934 -0.5625 -0.6628
  229MOL0     H31592   8.910   2.486  11.885  1.3161 -0.5543  3.9731
  229MOL0     H31593   8.996   2.583  11.751  0.7135  0.8128  0.4281
  229MOL0     H31594   9.102   2.546  12.039  3.4623 -1.2140 -0.7171
  229MOL0     H31595   9.175   2.645  11.917 -0.4417 -0.2290 -0.3524
  229MOL0     H31596   9.045   2.762  12.095 -0.0929 -2.1092  1.9028
  229MOL0     H31597   8.899   2.675  12.033 -0.0534 -1.8199 -2.6642
  229MOL0     H31598   8.871   2.936  11.736 -1.0117  2.4251  1.5490
  229MOL0     H31599   9.165   2.174  11.695 -1.0245 -0.2275 -1.3909
  229MOL0     H31600   9.202   1.960  11.601  1.6384 -1.7841  1.0235
  229MOL0     H31601   9.236   1.942  11.425 -2.0019  0.3861  0.8866
  229MOL0     H31602   9.361   1.933  11.555 -1.7778 -1.3476  2.1934
  230MOL0     O31603   8.926  10.830   5.325  0.3094  0.2761  0.6065
  230MOL0     C31604   8.855  10.809   5.425 -0.8297 -0.0273 -0.2637
  230MOL0     O31605   8.884  10.717   5.513 -0.1182  0.1270 -0.3561
  230MOL0     C31606   8.973  10.611   5.485  0.0775 -0.0084 -0.2258
  230MOL0     C31607   9.108  10.621   5.527 -0.3291 -0.7543 -0.6203
  230MOL0     C31608   9.202  10.515   5.515 -0.2991  0.2785  0.4559
  230MOL0     C31609   9.161  10.404   5.440  0.2282  1.2800 -0.5714
  230MOL0     O31610   9.250  10.299   5.400 -0.1339 -1.2231  0.6000
  230MOL0     C31611   9.384  10.287   5.449 -0.5404 -0.3038 -0.1191
  230MOL0     C31612   9.496  10.324   5.340  0.5079 -0.5399  0.3169
  230MOL0     C31613   9.617  10.386   5.403 -0.2930  0.2843 -0.4862
  230MOL0     C31614   9.713  10.420   5.290  0.0736 -0.1227 -0.6647
  230MOL0     C31615   9.841  10.475   5.355  0.8265  0.4747  0.2166
  230MOL0     C31616   9.923  10.533   5.252  1.6796 -0.3343  0.7871
  230MOL0     C31617  10.053  10.577   5.319 -0.5261  0.1624 -0.6866
  230MOL0     C31618  10.053  10.714   5.395  0.1338  0.3299 -0.0083
  230MOL0     N31619  10.185  10.778   5.387 -0.4165 -0.1554 -0.1325
  230MOL0     C31620  10.299  10.738   5.453 -0.7840 -0.0268  0.4964
  230MOL0     C31621  10.398  10.818   5.397 -0.3808 -0.9452 -0.9574
  230MOL0     C31622  10.542  10.809   5.431 -0.4278 -0.3326 -0.8150
  230MOL0     C31623  10.558  10.899   5.552  0.3272 -0.7967 -0.2861
  230MOL0     C31624  10.703  10.942   5.555  0.1479 -0.2103 -1.4245
  230MOL0     C31625  10.812  10.835   5.545  0.1666  0.3062  0.3549
  230MOL0     O31626  10.868  10.831   5.408 -0.2996  0.2340  0.1256
  230MOL0     C31627  10.947  10.941   5.368  0.6790 -0.2184 -0.2321
  230MOL0     C31628  10.948  10.984   5.236  0.7865  0.6088  0.1308
  230MOL0     C31629  11.026  11.090   5.179  0.2367 -0.0570 -0.3635
  230MOL0     C31630  11.011  11.129   5.037  1.1767 -0.7807 -0.7766
  230MOL0     C31631  11.108  11.165   5.267  0.1505  0.6885 -0.1788
  230MOL0     C31632  11.190  11.285   5.232  0.2813 -0.1076  0.3312
  230MOL0     O31633  11.195  11.338   5.114  0.2497  0.3945 -0.5823
  230MOL0     C31634  11.276  11.442   5.097 -0.3916 -0.1981 -0.4638
  230MOL0     C31635  11.228  11.565   5.053 -0.0833 -0.4632 -0.3593
  230MOL0     C31636  11.319  11.668   5.027  0.6327  0.4338  0.7564
  230MOL0     C31637  11.456  11.650   5.040 -1.5684 -0.2728 -0.0239
  230MOL0     O31638  11.559  11.752   5.034  0.2332 -0.4810 -0.3218
  230MOL0     C31639  11.519  11.886   5.044  0.3888 -0.5960  0.1743
  230MOL0     C31640  11.638  11.970   5.088  0.5195 -0.1538  0.3839
  230MOL0     C31641  11.733  12.001   4.978 -0.3329 -0.5298  0.2635
  230MOL0     C31642  11.851  12.081   5.036  0.8052  0.5185 -0.0880
  230MOL0     C31643  11.939  12.142   4.932  0.0116 -0.2552 -0.1865
  230MOL0     C31644  12.050  12.046   4.882 -0.0104  0.0168 -0.1188
  230MOL0     C31645  12.184  12.020   4.967 -0.0463  0.4194  0.5657
  230MOL0     C31646  12.307  12.051   4.875 -0.0371 -0.0023 -0.0974
  230MOL0    Cl31647  12.309  11.923   4.740  0.3967  0.0748  0.1623
  230MOL0     C31648  11.498  11.522   5.068 -0.4426 -0.3189 -0.7126
  230MOL0     C31649  11.412  11.418   5.096 -0.9968 -0.2346  1.0256
  230MOL0     O31650  11.262  11.327   5.320 -0.1826  0.3533 -0.4488
  230MOL0     C31651  11.109  11.120   5.399 -0.4119  0.2385  0.5956
  230MOL0     C31652  11.034  11.015   5.443 -0.7630  0.5943  0.8789
  230MOL0     N31653  10.340  10.904   5.307 -0.2132  0.1963  0.1832
  230MOL0     N31654  10.215  10.876   5.299 -0.3155  0.2127  0.6891
  230MOL0     C31655   9.024  10.396   5.395 -0.1249  0.1872  0.3988
  230MOL0     C31656   8.928  10.497   5.424 -0.5047  0.4686  0.2651
  230MOL0     C31657   8.738  10.892   5.440 -0.7176  0.2549 -0.1341
  230MOL0     C31658   8.668  10.941   5.323 -0.6470  0.4310 -0.0927
  230MOL0     C31659   8.540  10.991   5.337  0.6107 -0.8281 -1.1876
  230MOL0     C31660   8.478  11.013   5.467  0.7544 -0.6031 -0.3120
  230MOL0     O31661   8.365  11.086   5.487 -0.0035  0.2072  0.8466
  230MOL0     C31662   8.246  11.029   5.426 -0.8314 -0.5647 -0.3754
  230MOL0     C31663   8.162  10.938   5.515  0.0688  0.2301 -0.1224
  230MOL0     C31664   8.084  10.841   5.436 -0.5298  0.5957 -0.3186
  230MOL0     C31665   7.983  10.902   5.330 -0.7444 -0.3343  0.3618
  230MOL0     C31666   7.870  10.970   5.395  0.9283  1.3326 -0.0893
  230MOL0     C31667   7.778  11.021   5.459  0.3161 -0.1705 -0.4551
  230MOL0     C31668   8.547  10.978   5.574  0.0263 -0.5212  0.6358
  230MOL0     C31669   8.677  10.924   5.568 -0.3110  0.0801 -0.0439
  230MOL0     C31670   8.750  10.902   5.701  0.0592  0.5288  0.5990
  230MOL0     H31671   9.121  10.710   5.587 -1.7856 -1.4730  0.8713
  230MOL0     H31672   9.305  10.524   5.549  0.5497  2.6900 -2.2779
  230MOL0     H31673   9.404  10.181   5.466 -0.7678 -0.6584 -1.8766
  230MOL0     H31674   9.401  10.337   5.545  1.6699 -0.4958 -0.3595
  230MOL0     H31675   9.526  10.230   5.293  1.7611 -0.7678  1.5049
  230MOL0     H31676   9.448  10.394   5.272  1.3167  0.7614  1.0516
  230MOL0     H31677   9.603  10.468   5.474 -0.7978  0.1071 -0.3753
  230MOL0     H31678   9.669  10.304   5.453 -2.0225 -0.1146  0.7570
  230MOL0     H31679   9.730  10.341   5.215  0.1388  1.3549 -2.2689
  230MOL0     H31680   9.666  10.500   5.232 -1.9481  0.4284  1.5773
  230MOL0     H31681   9.893  10.399   5.415 -1.0717  0.9084  2.6063
  230MOL0     H31682   9.807  10.558   5.418  0.0337  1.6048 -1.6140
  230MOL0     H31683   9.950  10.455   5.180 -0.2604  0.7794 -1.2883
  230MOL0     H31684   9.874  10.613   5.197  0.5200 -2.0779 -0.8552
  230MOL0     H31685  10.127  10.590   5.240  1.2076  0.7967  0.9410
  230MOL0     H31686  10.096  10.506   5.391 -0.6246  1.4796  0.7487
  230MOL0     H31687   9.983  10.781   5.344  2.6431  0.5691 -3.5215
  230MOL0     H31688  10.015  10.704   5.497  0.9636  0.9538  0.3653
  230MOL0     H31689  10.307  10.657   5.525  0.0102  0.7438  1.2978
  230MOL0     H31690  10.606  10.843   5.349  1.6671 -1.2170  0.3676
  230MOL0     H31691  10.568  10.708   5.463 -1.5337 -0.0906  0.9618
  230MOL0     H31692  10.503  10.993   5.543 -0.7695 -1.2445  1.3794
  230MOL0     H31693  10.528  10.842   5.640  2.6860 -2.1333 -0.2357
  230MOL0     H31694  10.718  11.010   5.471 -1.4869 -0.5471 -2.0204
  230MOL0     H31695  10.724  10.987   5.652 -0.1502  0.8876 -1.8489
  230MOL0     H31696  10.895  10.842   5.615 -0.1142 -1.0710  0.8392
  230MOL0     H31697  10.763  10.738   5.552  0.1145  0.1145 -1.9290
  230MOL0     H31698  10.881  10.924   5.176 -0.6331  2.7406 -0.5562
  230MOL0     H31699  10.911  11.103   5.001  1.4319 -0.4718 -1.7456
  230MOL0     H31700  11.091  11.088   4.975  1.7197  1.4443 -1.6669
  230MOL0     H31701  11.012  11.237   5.019  0.5584 -0.8769 -1.4339
  230MOL0     H31702  11.120  11.576   5.053 -0.1000 -0.1282  1.6647
  230MOL0     H31703  11.279  11.766   5.006 -3.2775 -0.4267  3.1307
  230MOL0     H31704  11.481  11.915   4.946  1.0220  3.3006  0.9077
  230MOL0     H31705  11.445  11.899   5.123  1.6810  0.7161  1.2467
  230MOL0     H31706  11.594  12.062   5.127 -0.0978 -0.1258 -0.3417
  230MOL0     H31707  11.682  11.914   5.171  1.1840 -3.0292 -1.7204
  230MOL0     H31708  11.685  12.064   4.903  2.9349  0.6059 -1.0673
  230MOL0     H31709  11.773  11.912   4.929  1.3369  0.6851 -0.7158
  230MOL0     H31710  11.906  12.011   5.100 -0.5376 -1.6244 -1.1585
  230MOL0     H31711  11.820  12.163   5.101  1.3165  2.7959 -2.5674
  230MOL0     H31712  11.880  12.169   4.844  3.1751  1.2474 -2.0377
  230MOL0     H31713  11.988  12.233   4.968  2.2037  0.3151 -4.0307
  230MOL0     H31714  12.075  12.081   4.781 -3.4300 -0.5900 -1.3021
  230MOL0     H31715  12.009  11.949   4.856 -1.1857  0.8672 -1.6040
  230MOL0     H31716  12.188  11.916   5.001  0.3553 -1.3560 -4.1448
  230MOL0     H31717  12.185  12.080   5.059  1.0304 -0.3574  1.0815
  230MOL0     H31718  12.413  12.052   4.902  0.4449 -1.0173 -1.8253
  230MOL0     H31719  12.283  12.144   4.823  1.2315  0.8137  0.7052
  230MOL0     H31720  11.603  11.496   5.069 -0.7830 -1.7502 -0.3405
  230MOL0     H31721  11.443  11.321   5.132 -4.3516 -0.7691  2.9312
  230MOL0     H31722  11.174  11.173   5.468 -1.9394  1.4693  1.1440
  230MOL0     H31723  11.040  10.997   5.550  0.9358 -0.3285  0.6760
  230MOL0     H31724   8.993  10.307   5.342 -2.1646 -1.0315  3.3899
  230MOL0     H31725   8.829  10.488   5.381 -0.6934  2.9049  0.0539
  230MOL0     H31726   8.712  10.914   5.228 -3.8971  0.1791 -1.6831
  230MOL0     H31727   8.478  11.019   5.253 -0.3414  1.9224  0.3128
  230MOL0     H31728   8.187  11.111   5.383  1.0738  0.7868 -0.5808
  230MOL0     H31729   8.285  10.980   5.336  1.3722 -1.6124  1.0724
  230MOL0     H31730   8.091  10.986   5.584 -0.2882 -0.8373  0.2764
  230MOL0     H31731   8.226  10.884   5.585 -2.2353 -0.9994  1.1689
  230MOL0     H31732   8.163  10.781   5.391  1.6919  0.3931  3.4908
  230MOL0     H31733   8.019  10.781   5.500  0.4632 -1.1407 -0.8640
  230MOL0     H31734   7.945  10.815   5.275 -0.9097 -0.6507  0.9754
  230MOL0     H31735   8.033  10.970   5.259 -0.5116 -1.8140 -0.9558
  230MOL0     H31736   7.699  11.065   5.516  0.4994  0.5595 -0.7624
  230MOL0     H31737   8.510  10.997   5.674  3.8824  0.2221  2.1060
  230MOL0     H31738   8.740  10.796   5.729  2.9290  0.5823  2.2415
  230MOL0     H31739   8.855  10.929   5.687  0.7223 -1.0039  2.1171
  230MOL0     H31740   8.720  10.971   5.780  0.9197  2.2284 -0.5151
  231MOL0     O31741   5.589   6.512   6.238  0.2352 -0.2114  0.1549
  231MOL0     C31742   5.562   6.417   6.167 -0.8016  0.1051  0.9442
  231MOL0     O31743   5.649   6.365   6.072 -1.3080  0.0883  0.8607
  231MOL0     C31744   5.770   6.430   6.054 -0.6324  0.3321  0.9432
  231MOL0     C31745   5.882   6.384   6.121  0.2927  1.1066 -0.0123
  231MOL0     C31746   6.009   6.444   6.116 -0.1075  0.1009  1.2656
  231MOL0     C31747   6.015   6.563   6.033 -0.1876  0.7091 -0.7680
  231MOL0     O31748   6.134   6.630   6.006  0.0777  0.1324  0.1981
  231MOL0     C31749   6.246   6.622   6.104 -0.1867 -1.4133  0.9699
  231MOL0     C31750   6.366   6.658   6.024 -0.3230 -0.3298  0.2256
  231MOL0     C31751   6.495   6.631   6.106  0.3696  0.5419  0.4166
  231MOL0     C31752   6.612   6.680   6.033 -0.0223 -0.3730 -0.0887
  231MOL0     C31753   6.745   6.630   6.091 -0.0544 -0.6173  0.3649
  231MOL0     C31754   6.853   6.687   6.000  0.8968 -0.6535 -0.9826
  231MOL0     C31755   6.981   6.628   6.060 -0.4988  0.6177  0.8283
  231MOL0     C31756   7.100   6.689   5.983 -1.0353 -0.0594 -0.1308
  231MOL0     N31757   7.227   6.641   6.038 -0.6745  0.8627 -0.3397
  231MOL0     C31758   7.304   6.695   6.131  0.3378 -0.5069 -0.7327
  231MOL0     C31759   7.419   6.621   6.144 -0.1038  1.6308 -0.5287
  231MOL0     C31760   7.543   6.648   6.229 -0.5702  0.3732 -0.0547
  231MOL0     C31761   7.489   6.655   6.378  0.0533 -0.3648  0.0360
  231MOL0     C31762   7.612   6.637   6.468  0.5973  0.0613 -0.7891
  231MOL0     C31763   7.581   6.658   6.625  0.1223 -0.5997  0.5257
  231MOL0     O31764   7.585   6.799   6.657 -0.2038 -0.4960  0.4250
  231MOL0     C31765   7.705   6.840   6.710 -0.9945  0.3959 -0.4797
  231MOL0     C31766   7.796   6.906   6.628  0.4182 -0.4371 -0.1224
  231MOL0     C31767   7.931   6.927   6.656  0.6970 -0.9347 -0.4682
  231MOL0     C31768   8.000   7.009   6.558 -1.0468  0.2995  0.3692
  231MOL0     C31769   7.981   6.903   6.788  0.3345 -0.3661  0.2782
  231MOL0     C31770   8.119   6.915   6.834  0.3256 -0.5890  0.5560
  231MOL0     O31771   8.150   6.885   6.959  0.3092  0.7980  0.1164
  231MOL0     C31772   8.279   6.889   6.999  0.1497  0.0521  0.7177
  231MOL0     C31773   8.317   6.998   7.074 -0.4645 -0.5058 -0.5030
  231MOL0     C31774   8.433   7.002   7.135  0.4088  1.5341  0.5224
  231MOL0     C31775   8.536   6.904   7.102  0.0276 -0.4651  0.8172
  231MOL0     O31776   8.666   6.909   7.142  0.0149 -0.6107  0.2577
  231MOL0     C31777   8.716   6.992   7.248  0.2436  0.1742  0.8219
  231MOL0     C31778   8.762   7.134   7.193  0.0957  0.3206 -0.0180
  231MOL0     C31779   8.802   7.231   7.308 -0.0547 -0.6310  0.6600
  231MOL0     C31780   8.945   7.188   7.365  0.7799 -0.0067  0.1535
  231MOL0     C31781   9.005   7.300   7.461  0.8959 -0.1099  0.4131
  231MOL0     C31782   9.055   7.411   7.375  0.4220 -0.4867 -0.2793
  231MOL0     C31783   9.206   7.442   7.408 -0.0664  0.0600 -0.3419
  231MOL0     C31784   9.252   7.571   7.339  0.6484  0.1985  0.1219
  231MOL0    Cl31785   9.413   7.575   7.296  0.0377  0.0239 -0.7594
  231MOL0     C31786   8.495   6.793   7.022 -0.7181 -0.0738 -0.1783
  231MOL0     C31787   8.364   6.783   6.970 -0.3710  0.6046  0.2990
  231MOL0     O31788   8.199   6.955   6.755 -0.1219 -0.1342  0.8201
  231MOL0     C31789   7.885   6.844   6.881 -0.6294 -0.0180  0.5891
  231MOL0     C31790   7.757   6.810   6.837 -0.3901 -0.1621 -0.5594
  231MOL0     N31791   7.405   6.522   6.050  0.4732 -0.6110 -0.0319
  231MOL0     N31792   7.287   6.530   5.991 -0.2071  0.8593  1.2771
  231MOL0     C31793   5.898   6.605   5.961  0.3829  0.1351  0.7516
  231MOL0     C31794   5.772   6.544   5.969 -0.9966  0.5301  0.1258
  231MOL0     C31795   5.433   6.352   6.158  0.5773  0.9825 -0.9428
  231MOL0     C31796   5.392   6.308   6.028  0.1482 -0.1851 -0.3205
  231MOL0     C31797   5.270   6.250   6.009  0.1433 -0.0907  0.2806
  231MOL0     C31798   5.170   6.234   6.110  0.3376  1.0978  0.4672
  231MOL0     O31799   5.057   6.163   6.072 -0.2181 -0.4118  0.0172
  231MOL0     C31800   4.952   6.141   6.167  0.3671  0.5630  0.2155
  231MOL0     C31801   4.841   6.232   6.123 -0.0394  0.8985 -0.1632
  231MOL0     C31802   4.759   6.178   6.003 -0.3317 -0.3601 -0.0387
  231MOL0     C31803   4.648   6.086   6.036 -0.0421  0.1476  0.3891
  231MOL0     C31804   4.671   5.951   6.089 -0.2170 -0.4735 -1.0378
  231MOL0     C31805   4.697   5.844   6.145  0.2913 -0.1524 -0.3485
  231MOL0     C31806   5.203   6.281   6.237  0.5331 -0.6466 -0.8141
  231MOL0     C31807   5.335   6.332   6.262 -0.4692  0.4832 -0.5648
  231MOL0     C31808   5.372   6.363   6.403 -0.7706 -0.3088  0.2642
  231MOL0     H31809   5.858   6.295   6.177  2.0172  1.5708  1.5842
  231MOL0     H31810   6.093   6.419   6.179  2.6079  1.6068 -1.4757
  231MOL0     H31811   6.258   6.522   6.148 -2.2892 -2.2673 -0.2112
  231MOL0     H31812   6.222   6.701   6.176 -0.8659 -1.4289  0.7744
  231MOL0     H31813   6.362   6.589   5.940 -1.7977 -0.7632  0.6280
  231MOL0     H31814   6.349   6.763   5.997 -2.7776 -0.1377  2.0796
  231MOL0     H31815   6.478   6.672   6.206  0.4445 -0.6619  0.9521
  231MOL0     H31816   6.487   6.522   6.102  0.7189  0.5458 -1.9713
  231MOL0     H31817   6.604   6.633   5.935  0.0040 -2.6179  0.9382
  231MOL0     H31818   6.607   6.789   6.027 -4.0906 -0.4450 -1.4373
  231MOL0     H31819   6.750   6.521   6.082 -3.0269 -0.6678 -2.0956
  231MOL0     H31820   6.755   6.664   6.195 -0.9176  2.1499 -0.3796
  231MOL0     H31821   6.842   6.659   5.895 -0.9871 -0.3257 -0.8998
  231MOL0     H31822   6.838   6.795   5.998 -2.0991 -0.8394  1.8301
  231MOL0     H31823   6.989   6.520   6.048  0.9475  0.6009  1.6464
  231MOL0     H31824   6.991   6.653   6.166 -1.2400 -1.0667  1.3131
  231MOL0     H31825   7.093   6.683   5.874  1.8296  3.0464 -0.6405
  231MOL0     H31826   7.104   6.797   6.004  0.9583  0.1326 -1.3083
  231MOL0     H31827   7.275   6.783   6.188 -0.9840 -1.3361 -0.0751
  231MOL0     H31828   7.575   6.748   6.200  0.6745 -0.1680 -0.6132
  231MOL0     H31829   7.613   6.567   6.205 -3.0235 -2.1862  0.8522
  231MOL0     H31830   7.448   6.753   6.403 -1.0980 -0.3872 -1.6277
  231MOL0     H31831   7.413   6.579   6.402 -3.4646  3.2815  1.5427
  231MOL0     H31832   7.659   6.540   6.454  0.9650  0.0434  0.4589
  231MOL0     H31833   7.689   6.709   6.437  0.9296 -0.4358 -1.1180
  231MOL0     H31834   7.481   6.618   6.643 -0.6420 -0.2645 -2.4750
  231MOL0     H31835   7.651   6.598   6.684  0.2196  0.9607  2.0824
  231MOL0     H31836   7.759   6.928   6.529  2.6944 -1.7937 -1.3506
  231MOL0     H31837   8.043   7.094   6.612  0.7508 -0.5083  0.3033
  231MOL0     H31838   7.951   7.061   6.475 -1.5973  3.0274  2.2810
  231MOL0     H31839   8.085   6.955   6.515 -0.3267 -0.2022  2.3032
  231MOL0     H31840   8.247   7.081   7.087 -0.2774 -0.6529  1.8218
  231MOL0     H31841   8.466   7.085   7.197  2.9931  0.0145  1.3615
  231MOL0     H31842   8.640   7.005   7.326 -1.8097  2.6600 -1.3962
  231MOL0     H31843   8.802   6.946   7.297  1.2405  4.6553  3.8513
  231MOL0     H31844   8.843   7.127   7.120  0.9061  0.5468  0.8402
  231MOL0     H31845   8.677   7.175   7.137 -2.0478 -2.0771  1.2511
  231MOL0     H31846   8.725   7.227   7.386  0.5947  2.1039  1.5342
  231MOL0     H31847   8.805   7.329   7.261  1.2829 -0.2705  1.4399
  231MOL0     H31848   9.014   7.159   7.285 -1.0488 -0.8669 -1.1926
  231MOL0     H31849   8.938   7.095   7.422  1.7189  1.9220  3.6751
  231MOL0     H31850   8.929   7.333   7.531  0.2333 -0.5190 -0.1024
  231MOL0     H31851   9.082   7.251   7.523  2.0156  1.7946  0.5984
  231MOL0     H31852   8.983   7.493   7.387 -0.3312 -1.2121  0.3729
  231MOL0     H31853   9.048   7.373   7.273 -0.4736 -0.7447 -0.1372
  231MOL0     H31854   9.252   7.356   7.358 -3.2008  0.0188 -3.5616
  231MOL0     H31855   9.218   7.446   7.516  0.4591 -4.0086 -0.0664
  231MOL0     H31856   9.211   7.643   7.410 -0.5459  0.0857 -0.4235
  231MOL0     H31857   9.188   7.582   7.251 -1.0962 -1.6218  1.0714
  231MOL0     H31858   8.555   6.709   6.989 -0.4656  0.2149 -0.4662
  231MOL0     H31859   8.327   6.709   6.900  0.2154  0.8188 -0.2395
  231MOL0     H31860   7.921   6.816   6.979  0.9096 -0.1157  0.0319
  231MOL0     H31861   7.692   6.750   6.901  1.6452 -2.7148 -0.7427
  231MOL0     H31862   5.904   6.699   5.908 -0.5418  0.1976  0.7483
  231MOL0     H31863   5.688   6.588   5.917  0.6429 -0.2995 -3.5213
  231MOL0     H31864   5.456   6.316   5.940 -1.9733 -0.0061 -1.9411
  231MOL0     H31865   5.240   6.208   5.915 -1.7741  1.2415  0.2429
  231MOL0     H31866   4.915   6.038   6.175 -1.9805  1.3805  0.7404
  231MOL0     H31867   4.983   6.166   6.269  1.5518  1.2610 -0.3009
  231MOL0     H31868   4.883   6.329   6.098 -2.1838  2.0590  0.4913
  231MOL0     H31869   4.772   6.266   6.201  1.3286  0.2193  1.4047
  231MOL0     H31870   4.724   6.265   5.947 -0.8872 -0.3730  0.2789
  231MOL0     H31871   4.815   6.119   5.930 -0.3926 -1.1947  0.5789
  231MOL0     H31872   4.582   6.082   5.948  0.8887 -1.1636 -0.2850
  231MOL0     H31873   4.600   6.140   6.118 -0.6218 -0.5691  0.5325
  231MOL0     H31874   4.694   5.749   6.194 -0.2944  0.4488  0.8158
  231MOL0     H31875   5.132   6.281   6.320  1.1873  2.4643 -0.1230
  231MOL0     H31876   5.306   6.314   6.474  1.4741 -1.0587  1.9535
  231MOL0     H31877   5.472   6.326   6.428 -1.3960 -2.1071  0.2500
  231MOL0     H31878   5.371   6.472   6.407  1.7348  0.0063 -2.8651
  232MOL0     O31879   6.263   6.825  10.564 -0.3661 -0.3340 -0.2594
  232MOL0     C31880   6.164   6.860  10.501  0.5328 -0.0534  0.4539
  232MOL0     O31881   6.162   6.953  10.401 -0.3352  0.2665  0.6259
  232MOL0     C31882   6.281   7.000  10.363 -0.2052 -0.8197  0.0854
  232MOL0     C31883   6.355   7.083  10.453 -0.9408  0.7084 -0.5056
  232MOL0     C31884   6.469   7.156  10.409  0.6142  0.2990 -0.1611
  232MOL0     C31885   6.524   7.126  10.287  0.4489  0.4204 -0.2307
  232MOL0     O31886   6.634   7.191  10.238  0.1388  0.4191  0.4120
  232MOL0     C31887   6.738   7.234  10.330 -0.3432 -0.7501 -0.7813
  232MOL0     C31888   6.870   7.203  10.260 -0.8608 -0.2060 -1.7039
  232MOL0     C31889   6.902   7.299  10.145  0.1998  0.7705 -0.1795
  232MOL0     C31890   7.042   7.282  10.087  0.5251 -0.2127 -0.3285
  232MOL0     C31891   7.070   7.367   9.972 -0.2249 -0.1009  0.4593
  232MOL0     C31892   7.203   7.335   9.910 -0.5904 -0.4419 -0.3344
  232MOL0     C31893   7.229   7.434   9.793 -0.1625 -0.3835  0.0228
  232MOL0     C31894   7.378   7.440   9.764 -0.3120 -0.6926  0.1079
  232MOL0     N31895   7.442   7.315   9.759  0.0989  0.3037 -0.1309
  232MOL0     C31896   7.412   7.198   9.694 -0.4502 -0.0607  0.2055
  232MOL0     C31897   7.509   7.109   9.723  0.0171  0.4957 -0.8540
  232MOL0     C31898   7.507   6.958   9.678 -0.1515 -0.8583 -0.4028
  232MOL0     C31899   7.451   6.842   9.754  0.4962  0.5066 -0.6361
  232MOL0     C31900   7.309   6.866   9.808 -0.2787 -0.0502  0.5707
  232MOL0     C31901   7.272   6.747   9.889 -0.0078 -0.4236 -0.5144
  232MOL0     O31902   7.145   6.769   9.954 -0.5931  0.3423  0.4274
  232MOL0     C31903   7.090   6.696  10.059 -0.6560  0.2946  0.3883
  232MOL0     C31904   7.127   6.568  10.093  0.4157  0.1904  0.4356
  232MOL0     C31905   7.060   6.498  10.201  0.3473 -0.4286 -0.3714
  232MOL0     C31906   7.120   6.365  10.246  0.0091  0.4978 -0.0249
  232MOL0     C31907   6.958   6.570  10.268 -0.1983 -0.2217 -0.6149
  232MOL0     C31908   6.862   6.502  10.365 -0.5458 -0.1942 -0.1045
  232MOL0     O31909   6.777   6.585  10.428  0.7611 -0.0551  0.4376
  232MOL0     C31910   6.696   6.529  10.520  0.6996 -0.3239 -0.3739
  232MOL0     C31911   6.732   6.447  10.622 -0.3270  0.7462 -0.9389
  232MOL0     C31912   6.635   6.395  10.712 -0.0455  0.7930  0.5605
  232MOL0     C31913   6.493   6.417  10.697 -0.8043 -0.5594 -0.1082
  232MOL0     O31914   6.394   6.351  10.774  0.1376 -0.7254 -0.0478
  232MOL0     C31915   6.251   6.368  10.751 -0.6053 -0.5579  0.5792
  232MOL0     C31916   6.178   6.282  10.841 -0.4772 -0.2578 -0.6302
  232MOL0     C31917   6.030   6.273  10.835  0.1208 -0.2881 -1.2480
  232MOL0     C31918   5.961   6.179  10.934 -0.3368 -0.0033  0.7907
  232MOL0     C31919   5.808   6.174  10.910  0.8807  0.7542 -0.3809
  232MOL0     C31920   5.732   6.081  11.012 -0.7156 -0.2158 -0.0398
  232MOL0     C31921   5.738   6.127  11.160  0.0862 -0.4638 -0.5922
  232MOL0     C31922   5.715   6.276  11.171  0.0352  0.6418  0.4322
  232MOL0    Cl31923   5.543   6.315  11.138 -0.1157  0.4304 -0.1879
  232MOL0     C31924   6.468   6.506  10.586 -0.2365  0.1119  0.1805
  232MOL0     C31925   6.558   6.570  10.509 -0.9588 -0.4435  0.5870
  232MOL0     O31926   6.867   6.381  10.388  0.0821  0.0861  0.2050
  232MOL0     C31927   6.926   6.706  10.232  0.3059  0.7032  0.2751
  232MOL0     C31928   7.000   6.769  10.131  0.2648  0.0722 -0.9822
  232MOL0     N31929   7.573   7.161   9.832  0.6424  0.1793 -0.0555
  232MOL0     N31930   7.536   7.277   9.850 -0.6297  0.0135  0.3199
  232MOL0     C31931   6.454   7.047  10.199 -0.3544  0.1261  0.7429
  232MOL0     C31932   6.326   6.993  10.232 -0.0202  0.5465  0.2991
  232MOL0     C31933   6.034   6.786  10.539 -0.1418 -0.2177  0.4963
  232MOL0     C31934   6.029   6.703  10.657  0.0244  0.2936 -0.5550
  232MOL0     C31935   5.913   6.630  10.683  0.3572  0.2218 -0.9672
  232MOL0     C31936   5.802   6.639  10.594  0.3305 -0.3898  0.4721
  232MOL0     O31937   5.671   6.591  10.615 -0.4174  0.1884  0.2212
  232MOL0     C31938   5.654   6.505  10.730  0.6138 -0.0462  0.7253
  232MOL0     C31939   5.525   6.423  10.729  0.0938 -0.5576 -0.5450
  232MOL0     C31940   5.488   6.339  10.605  0.3469 -0.4675 -0.0612
  232MOL0     C31941   5.573   6.216  10.586 -0.6074  0.0384  0.1516
  232MOL0     C31942   5.708   6.246  10.543  0.5269  0.1524  0.4454
  232MOL0     C31943   5.824   6.282  10.510 -0.5972  0.0024  0.0268
  232MOL0     C31944   5.813   6.717  10.479 -0.0269  0.1321 -0.2113
  232MOL0     C31945   5.920   6.795  10.454  0.3564 -0.6368  0.5575
  232MOL0     C31946   5.901   6.876  10.324 -0.2425  0.3262 -0.1467
  232MOL0     H31947   6.326   7.103  10.555  0.6276  1.1096 -0.1236
  232MOL0     H31948   6.530   7.224  10.467  1.3502  0.9950 -1.6955
  232MOL0     H31949   6.736   7.185  10.428  0.2481  2.7722  1.1931
  232MOL0     H31950   6.731   7.343  10.345  1.7541 -0.6957  0.2062
  232MOL0     H31951   6.952   7.207  10.332 -1.2762 -0.4657 -1.2134
  232MOL0     H31952   6.863   7.100  10.223 -2.3630 -1.3640  1.4635
  232MOL0     H31953   6.818   7.286  10.075  1.1172 -1.0726 -1.0132
  232MOL0     H31954   6.893   7.399  10.187  0.2534  0.0269  1.6616
  232MOL0     H31955   7.122   7.290  10.162  1.2537  3.2553 -1.3341
  232MOL0     H31956   7.066   7.180  10.054  1.8043 -0.2966  0.7363
  232MOL0     H31957   7.059   7.473   9.996 -2.9566  0.0083 -0.9124
  232MOL0     H31958   6.989   7.347   9.901 -1.5814  2.5088  1.1678
  232MOL0     H31959   7.282   7.348   9.984 -0.3316 -1.2333 -0.4582
  232MOL0     H31960   7.211   7.232   9.874 -1.8043 -2.0265  3.3965
  232MOL0     H31961   7.198   7.535   9.822 -0.5183 -0.2536 -0.7995
  232MOL0     H31962   7.171   7.408   9.704 -2.7723  0.1218  1.4439
  232MOL0     H31963   7.393   7.481   9.664 -2.1590 -0.3222 -0.0552
  232MOL0     H31964   7.432   7.499   9.839 -0.3597  1.1213 -1.2304
  232MOL0     H31965   7.328   7.187   9.625 -1.1088 -0.4839  1.0534
  232MOL0     H31966   7.601   6.923   9.635 -1.4659 -1.1550 -3.2833
  232MOL0     H31967   7.425   6.964   9.606 -3.6128 -0.6594  3.1688
  232MOL0     H31968   7.447   6.758   9.684 -0.8015 -0.3041  0.3818
  232MOL0     H31969   7.519   6.824   9.838  0.8789 -0.1272 -1.0696
  232MOL0     H31970   7.301   6.958   9.866  2.1790 -0.2398  1.3200
  232MOL0     H31971   7.247   6.863   9.718 -2.5367 -0.7083  2.0831
  232MOL0     H31972   7.271   6.653   9.834  1.7231 -0.9988  0.3522
  232MOL0     H31973   7.350   6.744   9.966 -0.7594  2.1859  0.4796
  232MOL0     H31974   7.202   6.518  10.032  0.2822  0.7847 -0.2264
  232MOL0     H31975   7.173   6.362  10.342 -0.9408 -1.4257  0.4922
  232MOL0     H31976   7.205   6.345  10.181  0.7294  2.5647  0.2232
  232MOL0     H31977   7.037   6.294  10.234 -0.1996  0.5188  1.1876
  232MOL0     H31978   6.835   6.419  10.639 -0.8161  0.1984  1.3878
  232MOL0     H31979   6.668   6.332  10.794  2.4199  0.5300 -0.5488
  232MOL0     H31980   6.220   6.471  10.770  1.4771  0.1403  0.4118
  232MOL0     H31981   6.230   6.337  10.648  2.0971 -0.6314 -0.0045
  232MOL0     H31982   6.222   6.182  10.835 -0.5081 -0.4241  1.3566
  232MOL0     H31983   6.202   6.317  10.941 -0.2621 -1.8307 -0.1012
  232MOL0     H31984   6.001   6.249  10.732 -1.5869  3.4199 -1.8214
  232MOL0     H31985   5.978   6.370  10.841 -1.0108 -0.8236 -1.9387
  232MOL0     H31986   5.990   6.200  11.037  1.8882 -1.0847  0.4436
  232MOL0     H31987   6.006   6.083  10.909  2.1519  1.0579  0.9546
  232MOL0     H31988   5.753   6.269  10.908  0.7334  0.6641 -1.1181
  232MOL0     H31989   5.785   6.141  10.808 -1.1418  0.4781  0.1227
  232MOL0     H31990   5.772   5.979  11.009 -0.4646 -0.0946 -1.4466
  232MOL0     H31991   5.628   6.080  10.979 -0.6387 -1.0317 -0.2812
  232MOL0     H31992   5.838   6.121  11.203 -0.3013  2.7804  1.0289
  232MOL0     H31993   5.666   6.070  11.219  0.7463 -0.5545  0.1421
  232MOL0     H31994   5.778   6.331  11.100  3.6034  0.0129  2.8725
  232MOL0     H31995   5.742   6.307  11.272 -0.0876  2.0241  0.0636
  232MOL0     H31996   6.367   6.542  10.565 -0.0348 -0.0743 -1.1762
  232MOL0     H31997   6.535   6.642  10.432  0.9896  1.6576  1.8338
  232MOL0     H31998   6.841   6.768  10.259  0.2520  1.9421 -2.3856
  232MOL0     H31999   6.984   6.873  10.106 -2.0204 -0.3159 -1.3701
  232MOL0     H32000   6.492   7.047  10.097  0.4278  2.5332  0.9663
  232MOL0     H32001   6.261   6.944  10.160  0.1633  0.1292  0.4165
  232MOL0     H32002   6.117   6.688  10.719  0.2288  3.8533  0.2357
  232MOL0     H32003   5.922   6.574  10.775 -0.2177  0.7114 -0.6015
  232MOL0     H32004   5.738   6.435  10.736 -0.9658 -1.9279  2.1579
  232MOL0     H32005   5.669   6.563  10.822 -1.1012 -0.1773  1.1238
  232MOL0     H32006   5.434   6.483  10.741 -1.4194 -2.8225 -0.1610
  232MOL0     H32007   5.535   6.361  10.819 -0.5319  0.3782  0.1948
  232MOL0     H32008   5.383   6.311  10.601  0.2905 -0.2650 -0.0136
  232MOL0     H32009   5.501   6.407  10.521 -0.1560 -3.8185 -3.0721
  232MOL0     H32010   5.529   6.147  10.513  2.6297 -1.1762 -0.7967
  232MOL0     H32011   5.576   6.152  10.675  2.3933  1.5276  1.2408
  232MOL0     H32012   5.921   6.317  10.479  0.2595 -2.7767 -0.6539
  232MOL0     H32013   5.722   6.721  10.418  0.2401 -2.4912 -0.9046
  232MOL0     H32014   5.965   6.852  10.238 -0.5608  2.8429 -1.1557
  232MOL0     H32015   5.795   6.879  10.298 -0.6535  2.3308  1.5390
  232MOL0     H32016   5.925   6.978  10.355 -0.3373  0.8099 -1.5814
  233MOL0     O32017   8.729   9.699   5.092 -0.1729  0.2123  0.7855
  233MOL0     C32018   8.750   9.637   5.188  0.3069  0.4698  0.7037
  233MOL0     O32019   8.876   9.633   5.245 -0.2155  0.8989 -0.5087
  233MOL0     C32020   8.964   9.732   5.200  0.1270 -0.5851  0.3102
  233MOL0     C32021   9.090   9.672   5.174 -0.1478  0.1363  0.2145
  233MOL0     C32022   9.187   9.760   5.121  0.0069 -0.2098  0.2695
  233MOL0     C32023   9.169   9.902   5.108  0.0840  0.3895 -0.6696
  233MOL0     O32024   9.280   9.974   5.070  0.0291  0.0844  0.6675
  233MOL0     C32025   9.267  10.119   5.055  0.3856  0.5663 -0.3849
  233MOL0     C32026   9.387  10.176   4.974 -0.5446  0.1799 -0.1886
  233MOL0     C32027   9.355  10.325   4.946 -0.7291 -0.6194 -0.6525
  233MOL0     C32028   9.482  10.408   4.921  0.6636  0.3613  0.0924
  233MOL0     C32029   9.442  10.556   4.911 -0.0540  0.7428  0.1443
  233MOL0     C32030   9.554  10.651   4.863  0.2158 -0.0087 -0.4050
  233MOL0     C32031   9.481  10.783   4.823  1.1025  0.0428 -0.0451
  233MOL0     C32032   9.579  10.896   4.798  0.0701 -0.4501 -0.4485
  233MOL0     N32033   9.516  10.996   4.717  0.0310 -0.3598 -0.1752
  233MOL0     C32034   9.556  11.036   4.601  0.3166 -0.1878 -0.1513
  233MOL0     C32035   9.474  11.132   4.570 -0.2925  0.1385  0.6468
  233MOL0     C32036   9.453  11.204   4.438 -0.5464  1.5917 -0.1440
  233MOL0     C32037   9.308  11.215   4.407 -0.5663  0.9061 -0.5077
  233MOL0     C32038   9.252  11.073   4.377 -0.0457  0.1885 -0.3020
  233MOL0     C32039   9.302  11.015   4.246 -0.3700 -0.1416 -0.1422
  233MOL0     O32040   9.243  10.884   4.242  1.3206 -0.6166  0.3165
  233MOL0     C32041   9.275  10.822   4.124  0.0459 -0.2216 -0.5110
  233MOL0     C32042   9.220  10.867   4.002  0.4531 -0.6850 -0.3254
  233MOL0     C32043   9.248  10.800   3.885  0.7991  0.1342 -0.4018
  233MOL0     C32044   9.203  10.870   3.751 -0.3250  0.6014 -0.4823
  233MOL0     C32045   9.331  10.686   3.878 -0.3032  0.6460 -0.5996
  233MOL0     C32046   9.360  10.608   3.755  0.6419 -0.2989  0.0539
  233MOL0     O32047   9.423  10.478   3.768 -0.1069 -0.4058  0.1546
  233MOL0     C32048   9.460  10.408   3.657 -0.2330 -0.1564  0.0408
  233MOL0     C32049   9.362  10.371   3.567  0.1705  0.6352  0.1709
  233MOL0     C32050   9.394  10.280   3.463  0.5884  0.0770 -0.4331
  233MOL0     C32051   9.522  10.219   3.449  0.2807  0.1521 -0.4762
  233MOL0     O32052   9.545  10.128   3.354 -0.0030  0.5155  0.2743
  233MOL0     C32053   9.469  10.140   3.231 -0.3494  0.7236 -0.7562
  233MOL0     C32054   9.542  10.062   3.110 -0.1933 -1.0304 -0.0206
  233MOL0     C32055   9.694  10.047   3.119 -0.2715  0.4169  0.1267
  233MOL0     C32056   9.745   9.967   3.002  0.1151  0.2732 -0.0389
  233MOL0     C32057   9.867   9.875   3.037  0.1691  0.2482  0.4457
  233MOL0     C32058   9.921   9.823   2.908 -0.0338 -1.2216  0.5413
  233MOL0     C32059  10.068   9.784   2.930  0.5527 -0.8982  0.1269
  233MOL0     C32060  10.118   9.705   2.808  0.0210  0.5709  0.2803
  233MOL0    Cl32061  10.301   9.682   2.832 -0.0733  0.3160  0.1373
  233MOL0     C32062   9.619  10.254   3.535  0.6309  0.0230 -0.0851
  233MOL0     C32063   9.590  10.348   3.633 -0.2425  0.1970 -0.1629
  233MOL0     O32064   9.314  10.642   3.647 -0.5249  0.7860 -0.6432
  233MOL0     C32065   9.376  10.639   4.004 -0.3879 -0.1462 -0.3366
  233MOL0     C32066   9.361  10.713   4.127  0.2906 -0.8717  0.6707
  233MOL0     N32067   9.420  11.175   4.689  0.0478 -0.2711  0.1985
  233MOL0     N32068   9.451  11.093   4.779 -0.4445 -0.4533  0.6975
  233MOL0     C32069   9.046   9.955   5.145  0.1193  0.1475 -0.2502
  233MOL0     C32070   8.939   9.872   5.174  0.1742  0.2925  0.0047
  233MOL0     C32071   8.640   9.574   5.265 -0.9257  0.0417  0.0966
  233MOL0     C32072   8.671   9.490   5.370 -0.5436  0.3522  0.0454
  233MOL0     C32073   8.575   9.439   5.456 -0.3389  0.0049 -0.4652
  233MOL0     C32074   8.442   9.461   5.437 -0.3605  0.4451 -0.4522
  233MOL0     O32075   8.332   9.404   5.497  1.0810  0.2917 -0.0022
  233MOL0     C32076   8.352   9.320   5.614 -0.6073  0.1691 -0.4379
  233MOL0     C32077   8.222   9.251   5.646 -0.1906  0.5625 -0.6289
  233MOL0     C32078   8.242   9.168   5.778 -0.0645 -0.2358 -0.4090
  233MOL0     C32079   8.139   9.059   5.795 -0.3781 -0.2731  0.1708
  233MOL0     C32080   8.164   8.978   5.923 -0.3530 -0.4912  0.5242
  233MOL0     C32081   8.191   8.907   6.019 -0.2288 -0.2203  0.1440
  233MOL0     C32082   8.405   9.530   5.323  0.1386  0.5042  0.9532
  233MOL0     C32083   8.500   9.599   5.245 -0.6244 -0.1439 -0.5996
  233MOL0     C32084   8.448   9.695   5.147 -0.0172  0.0826  0.2954
  233MOL0     H32085   9.112   9.569   5.203  0.6181  0.0888 -0.4823
  233MOL0     H32086   9.293   9.737   5.116 -0.4149 -2.3045  0.3566
  233MOL0     H32087   9.262  10.177   5.148 -2.5977  1.0829 -0.7614
  233MOL0     H32088   9.174  10.131   4.998  0.3895  0.6315 -0.3782
  233MOL0     H32089   9.477  10.158   5.033 -0.6211  1.6658  0.4321
  233MOL0     H32090   9.400  10.131   4.875 -0.0596  3.0789 -1.5430
  233MOL0     H32091   9.289  10.337   4.859 -1.4695 -1.7862 -0.2832
  233MOL0     H32092   9.308  10.371   5.033 -0.4641 -2.8646  0.7739
  233MOL0     H32093   9.548  10.407   5.008 -0.0843  0.4791  0.6736
  233MOL0     H32094   9.526  10.380   4.825 -2.7751 -1.4876 -1.1172
  233MOL0     H32095   9.391  10.590   5.002 -1.6174 -0.3763 -0.2799
  233MOL0     H32096   9.362  10.559   4.837  0.1475 -0.2759 -0.1247
  233MOL0     H32097   9.620  10.671   4.949 -0.8140 -1.1731  0.6863
  233MOL0     H32098   9.620  10.599   4.793 -0.1478 -0.2456 -0.5722
  233MOL0     H32099   9.399  10.809   4.892  1.5468 -0.5030  0.7109
  233MOL0     H32100   9.423  10.758   4.734 -0.4325 -0.8193  1.1440
  233MOL0     H32101   9.592  10.940   4.898 -0.6496 -1.3939  0.0853
  233MOL0     H32102   9.677  10.865   4.763  0.3481 -1.3993  1.0446
  233MOL0     H32103   9.632  10.993   4.537  0.4956 -0.3337  0.1564
  233MOL0     H32104   9.506  11.157   4.354 -2.1617  0.7700 -0.7417
  233MOL0     H32105   9.487  11.308   4.445  1.4058  1.0556 -0.9564
  233MOL0     H32106   9.254  11.256   4.493  0.8378  1.7413  0.0117
  233MOL0     H32107   9.283  11.282   4.324 -3.9057  0.3535 -0.0988
  233MOL0     H32108   9.260  11.008   4.465  2.8396  0.6211 -0.1670
  233MOL0     H32109   9.147  11.097   4.356 -0.5006 -2.6590 -1.8449
  233MOL0     H32110   9.273  11.077   4.161 -0.4476  1.2220  0.8562
  233MOL0     H32111   9.410  11.002   4.245 -0.4217 -0.5920 -0.4131
  233MOL0     H32112   9.152  10.951   3.995 -0.3402 -1.0200  2.1197
  233MOL0     H32113   9.187  10.978   3.755  0.5037  0.6953  0.9174
  233MOL0     H32114   9.116  10.823   3.704  1.4506 -2.6477 -0.7688
  233MOL0     H32115   9.295  10.866   3.691  1.0129 -1.8748  1.5392
  233MOL0     H32116   9.258  10.395   3.584  0.2463  0.4759  0.8958
  233MOL0     H32117   9.310  10.246   3.403 -0.1334  0.6080  0.2531
  233MOL0     H32118   9.375  10.084   3.239 -1.2953  2.2250 -0.9293
  233MOL0     H32119   9.447  10.244   3.203 -1.0489  0.5841 -0.7356
  233MOL0     H32120   9.507   9.958   3.107  1.7156 -1.7814  1.6049
  233MOL0     H32121   9.514  10.110   3.016 -2.3970 -0.7800  0.6912
  233MOL0     H32122   9.732  10.001   3.211  0.0906  0.5637  0.0500
  233MOL0     H32123   9.747  10.143   3.113  1.5348 -0.5095  0.5863
  233MOL0     H32124   9.754  10.037   2.919 -0.0389  0.8292  0.4038
  233MOL0     H32125   9.669   9.899   2.962  0.0145 -1.2769  2.5171
  233MOL0     H32126   9.934   9.941   3.093  0.1039  0.5330  0.1947
  233MOL0     H32127   9.851   9.791   3.104  2.1891  0.3911  1.1930
  233MOL0     H32128   9.929   9.908   2.840  2.1568 -2.7664 -1.2927
  233MOL0     H32129   9.853   9.751   2.862 -1.4262 -0.0962  0.7690
  233MOL0     H32130  10.076   9.719   3.018 -1.5845  0.4055  1.3691
  233MOL0     H32131  10.131   9.871   2.949 -3.6821  2.4585  0.2477
  233MOL0     H32132  10.089   9.750   2.712  0.3854  0.7573  0.2582
  233MOL0     H32133  10.060   9.612   2.799  0.2724  0.4370  0.0423
  233MOL0     H32134   9.715  10.207   3.513  1.2248  1.6511 -1.2378
  233MOL0     H32135   9.673  10.368   3.700  1.9564 -3.0382 -1.6763
  233MOL0     H32136   9.422  10.541   4.002 -2.0450 -0.9592 -0.0820
  233MOL0     H32137   9.402  10.681   4.223 -0.1605 -0.4025  1.0232
  233MOL0     H32138   9.036  10.062   5.132  0.0255  0.5068  2.2244
  233MOL0     H32139   8.839   9.911   5.186  0.4908  0.6141  1.7373
  233MOL0     H32140   8.774   9.474   5.401 -0.3996  1.4751  0.1785
  233MOL0     H32141   8.615   9.382   5.539  1.2941 -1.4232 -2.1575
  233MOL0     H32142   8.426   9.245   5.587 -0.5728 -0.2887  0.8694
  233MOL0     H32143   8.395   9.370   5.701 -2.5847 -2.1041  2.0071
  233MOL0     H32144   8.203   9.176   5.568  1.0403 -1.2848  0.7473
  233MOL0     H32145   8.146   9.329   5.656  2.1789  2.7710  1.9017
  233MOL0     H32146   8.341   9.122   5.777 -0.0635 -0.2790 -2.3018
  233MOL0     H32147   8.234   9.239   5.860 -0.7931 -0.9556  0.1662
  233MOL0     H32148   8.146   8.984   5.715  1.8932 -0.5765  0.5898
  233MOL0     H32149   8.048   9.120   5.800  1.4830  2.5580  4.0019
  233MOL0     H32150   8.213   8.830   6.090  2.3329 -1.5092 -1.8875
  233MOL0     H32151   8.303   9.532   5.287  0.8143 -2.0725 -1.4792
  233MOL0     H32152   8.471   9.796   5.181 -1.8802  0.9768 -0.9484
  233MOL0     H32153   8.480   9.681   5.043 -1.0653  1.2792 -0.2113
  233MOL0     H32154   8.341   9.674   5.143 -0.2271  0.9483  1.2028
  234MOL0     O32155  10.731   2.893   1.305 -0.1650 -0.0862 -0.3689
  234MOL0     C32156  10.632   2.901   1.376  0.0671  1.3367 -0.6508
  234MOL0     O32157  10.618   2.867   1.504  0.1701 -0.2857 -0.6479
  234MOL0     C32158  10.729   2.851   1.579  0.2332 -0.1975 -1.0066
  234MOL0     C32159  10.772   2.725   1.604 -1.3831  1.4922 -0.3811
  234MOL0     C32160  10.889   2.703   1.679 -0.2818  0.2653  0.3650
  234MOL0     C32161  10.967   2.807   1.735 -0.0252  0.1683  0.0101
  234MOL0     O32162  11.090   2.780   1.790 -0.3870  0.4070 -0.5049
  234MOL0     C32163  11.151   2.899   1.847  0.4202  0.2177  0.6171
  234MOL0     C32164  11.261   2.868   1.955 -0.1434  0.8740 -0.4015
  234MOL0     C32165  11.377   2.807   1.883  0.3309  0.0002  1.0427
  234MOL0     C32166  11.498   2.777   1.967 -0.0031 -0.1354 -0.2890
  234MOL0     C32167  11.562   2.902   2.036  0.2117  0.0251  0.3116
  234MOL0     C32168  11.714   2.877   2.048  0.4186  0.1464  0.2495
  234MOL0     C32169  11.799   2.997   2.103 -0.6125  0.2836 -0.2226
  234MOL0     C32170  11.832   3.086   1.991  0.1065  0.0501  0.1854
  234MOL0     N32171  11.911   3.209   2.020 -0.0750 -0.2508 -0.6862
  234MOL0     C32172  12.024   3.218   2.096 -0.3792  0.0675  0.2659
  234MOL0     C32173  12.072   3.345   2.065  0.1701 -0.8993  0.1442
  234MOL0     C32174  12.206   3.398   2.099  0.2546 -1.2021  0.4730
  234MOL0     C32175  12.289   3.386   1.974 -0.6950  0.3016  0.6070
  234MOL0     C32176  12.425   3.456   2.002  0.1042  0.1993 -0.6600
  234MOL0     C32177  12.503   3.506   1.875 -0.7337  0.2009  0.1327
  234MOL0     O32178  12.614   3.575   1.934  0.4270 -0.4359 -0.9547
  234MOL0     C32179  12.740   3.545   1.895  0.3172  0.2862 -0.5830
  234MOL0     C32180  12.800   3.433   1.953 -0.6900  1.1654 -0.3636
  234MOL0     C32181  12.935   3.411   1.935  0.2158  0.3320 -0.8718
  234MOL0     C32182  12.979   3.274   1.985  0.2224  0.1181 -0.4262
  234MOL0     C32183  13.009   3.493   1.850 -0.1559  0.3696  0.7936
  234MOL0     C32184  13.151   3.468   1.824 -0.4532 -0.6381  0.2155
  234MOL0     O32185  13.209   3.530   1.713  0.3696 -0.7364  0.2218
  234MOL0     C32186  13.347   3.535   1.712  1.1854 -0.1386 -0.0321
  234MOL0     C32187  13.408   3.659   1.728 -0.1044 -0.0500  0.3731
  234MOL0     C32188  13.545   3.671   1.705  0.3378  0.1485  0.5418
  234MOL0     C32189  13.622   3.559   1.673 -0.1452  0.0733  0.5065
  234MOL0     O32190  13.751   3.586   1.646 -0.0056  0.7315 -0.3775
  234MOL0     C32191  13.838   3.486   1.588 -0.9882 -0.2249  0.4322
  234MOL0     C32192  13.977   3.542   1.624  0.1453 -0.6769  0.4922
  234MOL0     C32193  14.100   3.451   1.586  0.2762 -0.0133 -0.1239
  234MOL0     C32194  14.230   3.518   1.619 -0.9546 -1.2656  0.4359
  234MOL0     C32195  14.340   3.454   1.532 -0.6246  0.1822  0.8819
  234MOL0     C32196  14.401   3.320   1.589  1.1924  0.1640  0.1586
  234MOL0     C32197  14.508   3.255   1.491 -0.1815  0.2668 -0.9906
  234MOL0     C32198  14.536   3.115   1.535  0.4736  0.5760 -0.3213
  234MOL0    Cl32199  14.622   3.108   1.688 -0.2834 -0.1764 -0.2843
  234MOL0     C32200  13.553   3.433   1.661 -0.1150  0.1906 -0.0671
  234MOL0     C32201  13.422   3.426   1.680 -0.8747  0.5477  0.1238
  234MOL0     O32202  13.215   3.405   1.910  0.6178 -0.7719 -0.0518
  234MOL0     C32203  12.951   3.607   1.791  0.2222 -0.6838 -0.2963
  234MOL0     C32204  12.813   3.629   1.809 -0.1911  0.3369 -0.5266
  234MOL0     N32205  11.987   3.398   1.971 -0.3004  0.1651 -0.2921
  234MOL0     N32206  11.890   3.314   1.937 -1.1024 -0.5882  0.1111
  234MOL0     C32207  10.915   2.936   1.714 -0.4147  0.2168  0.0850
  234MOL0     C32208  10.797   2.964   1.638 -0.6100  0.5552 -0.4546
  234MOL0     C32209  10.503   2.884   1.301 -0.1114  0.1506  0.0799
  234MOL0     C32210  10.401   2.801   1.359 -0.3457  0.7717 -0.0792
  234MOL0     C32211  10.270   2.797   1.303 -0.4831 -0.0002 -1.0300
  234MOL0     C32212  10.239   2.870   1.190 -0.0191  0.1735  0.2513
  234MOL0     O32213  10.112   2.857   1.139 -0.0439  0.0448 -0.1965
  234MOL0     C32214  10.100   2.913   1.012 -0.8731  0.2559 -0.0141
  234MOL0     C32215   9.960   2.887   0.956 -0.3044  0.2527 -0.0957
  234MOL0     C32216   9.972   2.776   0.859  0.2178  0.5220  0.3152
  234MOL0     C32217   9.829   2.738   0.817 -0.7192  0.0830 -0.1432
  234MOL0     C32218   9.813   2.592   0.812  0.1302 -0.8986  0.1764
  234MOL0     C32219   9.806   2.471   0.809  0.1346  0.1635  0.1531
  234MOL0     C32220  10.341   2.959   1.132 -1.2990  0.3060  0.2993
  234MOL0     C32221  10.473   2.956   1.182 -0.1168  0.6557 -0.0481
  234MOL0     C32222  10.577   3.030   1.098  0.2873  0.1079 -0.6768
  234MOL0     H32223  10.725   2.640   1.556  1.2506  0.8684 -2.0416
  234MOL0     H32224  10.915   2.597   1.676 -0.5696  0.0597  2.8653
  234MOL0     H32225  11.079   2.964   1.899 -0.2745  0.3144 -0.4238
  234MOL0     H32226  11.189   2.951   1.759  1.4134 -0.2374  0.7704
  234MOL0     H32227  11.291   2.966   1.993 -0.6448  1.1857 -0.7881
  234MOL0     H32228  11.230   2.800   2.034 -2.3192 -0.2766 -2.1442
  234MOL0     H32229  11.344   2.707   1.855  1.7807 -0.0744 -0.5592
  234MOL0     H32230  11.401   2.858   1.790 -2.9626  0.1257  0.1366
  234MOL0     H32231  11.484   2.697   2.041 -1.0989 -1.4846 -1.8905
  234MOL0     H32232  11.577   2.726   1.911  0.4731 -2.7978  2.5144
  234MOL0     H32233  11.499   2.914   2.124 -1.4432 -0.4068 -0.7677
  234MOL0     H32234  11.537   2.992   1.980 -0.9335 -0.1590  0.5143
  234MOL0     H32235  11.721   2.784   2.105 -2.8697 -0.4804 -0.1698
  234MOL0     H32236  11.754   2.859   1.948 -0.6402  0.0319 -0.1669
  234MOL0     H32237  11.892   2.953   2.141 -0.3878 -0.6583 -1.7835
  234MOL0     H32238  11.753   3.054   2.183 -3.0261  1.3470 -2.2307
  234MOL0     H32239  11.890   3.029   1.917 -0.5890 -0.4084 -0.0215
  234MOL0     H32240  11.734   3.115   1.952 -1.3888 -0.4614  3.2332
  234MOL0     H32241  12.073   3.136   2.147 -3.9197 -2.4114  0.0906
  234MOL0     H32242  12.249   3.338   2.180  1.6015 -0.6212  0.2160
  234MOL0     H32243  12.191   3.498   2.141  0.5805 -0.0409 -1.9993
  234MOL0     H32244  12.305   3.285   1.938  0.9889 -0.0478  2.1678
  234MOL0     H32245  12.257   3.444   1.887  0.4503 -0.9014 -0.6619
  234MOL0     H32246  12.407   3.545   2.063  1.9421  0.0164  0.2178
  234MOL0     H32247  12.490   3.387   2.056  0.8727  0.5112 -1.1708
  234MOL0     H32248  12.534   3.424   1.810  1.1833  0.2829  0.8722
  234MOL0     H32249  12.436   3.563   1.810  0.2035 -0.5528 -1.5567
  234MOL0     H32250  12.749   3.362   2.017  1.6985  0.5202  0.9315
  234MOL0     H32251  12.910   3.205   2.035  1.9024 -1.0629  0.3401
  234MOL0     H32252  13.065   3.284   2.052  1.0358  2.5469 -1.7089
  234MOL0     H32253  13.011   3.215   1.898  0.9585 -1.6417  0.9707
  234MOL0     H32254  13.335   3.738   1.744 -0.5078 -0.4966  0.7827
  234MOL0     H32255  13.581   3.773   1.706 -0.1407  0.3429  2.9891
  234MOL0     H32256  13.834   3.385   1.629  2.5155 -1.7705 -2.4972
  234MOL0     H32257  13.820   3.475   1.481 -5.2096 -4.9356  1.2720
  234MOL0     H32258  13.995   3.639   1.577 -1.9038 -0.6779 -0.3682
  234MOL0     H32259  13.985   3.553   1.733 -1.5176 -0.4979  0.6294
  234MOL0     H32260  14.106   3.438   1.477 -0.3308 -0.5725 -0.0972
  234MOL0     H32261  14.080   3.355   1.635 -1.8276  1.4341  2.0194
  234MOL0     H32262  14.260   3.497   1.722 -0.9376 -4.4139 -0.1195
  234MOL0     H32263  14.221   3.627   1.613 -0.3275 -1.2079  0.5398
  234MOL0     H32264  14.312   3.445   1.427 -0.5128 -1.4690  0.9734
  234MOL0     H32265  14.425   3.523   1.528  1.3982 -2.2186 -0.5873
  234MOL0     H32266  14.316   3.252   1.601 -0.2297  2.0628  1.5150
  234MOL0     H32267  14.435   3.345   1.689 -2.4668 -0.1817  1.6466
  234MOL0     H32268  14.596   3.319   1.480  1.8218 -2.0684  0.3552
  234MOL0     H32269  14.466   3.238   1.391  1.0446 -4.2826 -0.9534
  234MOL0     H32270  14.607   3.069   1.466 -3.5102 -0.9228 -3.8797
  234MOL0     H32271  14.446   3.053   1.545  1.0515  0.0936  3.2876
  234MOL0     H32272  13.604   3.348   1.617 -1.1218  0.7375 -2.4847
  234MOL0     H32273  13.362   3.335   1.678 -0.2665  0.1539 -0.5007
  234MOL0     H32274  13.008   3.678   1.731  1.0572  0.8107  2.1301
  234MOL0     H32275  12.772   3.713   1.752  3.4690  1.3310 -2.0126
  234MOL0     H32276  10.967   3.025   1.748  1.0127 -0.7495  0.5055
  234MOL0     H32277  10.754   3.064   1.632 -2.2752 -0.0740  0.4918
  234MOL0     H32278  10.418   2.746   1.451 -1.3470  0.3393 -0.1371
  234MOL0     H32279  10.197   2.741   1.361  2.5323 -3.2413 -0.0009
  234MOL0     H32280  10.097   3.022   1.011 -2.7165  0.2460 -0.3315
  234MOL0     H32281  10.182   2.877   0.949 -1.5868 -1.9233  0.2058
  234MOL0     H32282   9.908   2.976   0.920 -0.1233 -0.1992 -1.5672
  234MOL0     H32283   9.896   2.846   1.035  1.3027  0.5604  1.3948
  234MOL0     H32284  10.018   2.811   0.766 -1.0069 -0.6231 -0.7585
  234MOL0     H32285  10.034   2.695   0.898  0.0749 -0.2285 -0.9866
  234MOL0     H32286   9.803   2.778   0.719  2.2841 -0.7398 -1.4125
  234MOL0     H32287   9.749   2.777   0.881 -1.4590 -0.4784 -0.7138
  234MOL0     H32288   9.786   2.365   0.813 -1.5363  0.4915  1.3644
  234MOL0     H32289  10.321   3.013   1.040  1.3282  1.7840  0.5005
  234MOL0     H32290  10.619   3.117   1.149  0.3067 -0.3821  0.1726
  234MOL0     H32291  10.664   2.964   1.085 -0.1818 -0.2117 -2.4348
  234MOL0     H32292  10.532   3.052   1.001 -1.7256  1.8091  0.5475
  235MOL0     O32293   4.860   0.367   6.076 -0.1248  0.5323  0.1145
  235MOL0     C32294   4.765   0.426   6.131 -0.0244  0.5141  0.4267
  235MOL0     O32295   4.772   0.520   6.227  0.1916 -0.2313  0.0439
  235MOL0     C32296   4.895   0.582   6.267  0.3041  0.5777 -0.3953
  235MOL0     C32297   4.910   0.598   6.403 -0.0556  0.3921 -0.5180
  235MOL0     C32298   5.035   0.642   6.455  0.2877  0.3968  0.2902
  235MOL0     C32299   5.138   0.686   6.374 -0.7703 -0.5283 -0.0331
  235MOL0     O32300   5.258   0.732   6.432 -0.1588 -0.0805 -0.5587
  235MOL0     C32301   5.372   0.665   6.388  0.4157  0.2572 -0.1185
  235MOL0     C32302   5.492   0.702   6.465 -0.4767 -0.1443 -0.4850
  235MOL0     C32303   5.508   0.622   6.600 -0.4231  0.6718  0.4040
  235MOL0     C32304   5.646   0.653   6.660  0.0807  0.1717 -0.4303
  235MOL0     C32305   5.691   0.575   6.793  0.4646  0.8533  0.6561
  235MOL0     C32306   5.829   0.611   6.836  0.7993  0.3051  0.5192
  235MOL0     C32307   5.945   0.574   6.747  0.1703 -0.5063  0.1547
  235MOL0     C32308   6.077   0.599   6.815 -0.5944 -0.2169  0.4794
  235MOL0     N32309   6.193   0.584   6.726  0.3646 -0.3345 -0.3337
  235MOL0     C32310   6.221   0.660   6.612  0.4243 -0.5400  0.3644
  235MOL0     C32311   6.306   0.581   6.545 -0.6530 -0.9056  0.8288
  235MOL0     C32312   6.395   0.605   6.430 -0.2947  0.1540  1.1192
  235MOL0     C32313   6.527   0.666   6.452 -0.5003  0.5804 -0.2682
  235MOL0     C32314   6.609   0.685   6.326  0.3277 -0.2825  0.1792
  235MOL0     C32315   6.631   0.556   6.241  0.2674 -0.3767  1.0953
  235MOL0     O32316   6.719   0.563   6.129  0.1618  0.4783  0.0450
  235MOL0     C32317   6.761   0.442   6.082 -0.0099  0.1888 -0.2983
  235MOL0     C32318   6.895   0.423   6.054 -1.1283 -0.4825 -0.1547
  235MOL0     C32319   6.950   0.308   6.008  0.1829  0.0294  0.5503
  235MOL0     C32320   7.094   0.308   5.971  0.5125 -0.8916  0.6577
  235MOL0     C32321   6.862   0.198   5.998 -0.4017  0.5594  0.5850
  235MOL0     C32322   6.904   0.066   5.947 -0.2591  0.4390  0.0366
  235MOL0     O32323   7.026   0.020   5.979  0.0364 -0.2294 -0.4231
  235MOL0     C32324   7.077  -0.095   5.927 -0.3863  1.0649 -0.3882
  235MOL0     C32325   7.016  -0.181   5.824 -0.2286  0.7358  0.6971
  235MOL0     C32326   7.081  -0.293   5.768  0.1350 -0.8788  0.6529
  235MOL0     C32327   7.212  -0.328   5.812  1.3736  0.6028 -0.5548
  235MOL0     O32328   7.254  -0.453   5.773 -0.4578  0.1892 -1.2205
  235MOL0     C32329   7.395  -0.486   5.799 -0.1119  0.3488  0.1599
  235MOL0     C32330   7.409  -0.634   5.756  0.3496  0.7878 -0.0753
  235MOL0     C32331   7.564  -0.663   5.750  0.2380  0.2635 -0.1095
  235MOL0     C32332   7.571  -0.815   5.732 -0.1686 -0.9878  0.1755
  235MOL0     C32333   7.700  -0.892   5.705  0.0351  0.4453 -0.0880
  235MOL0     C32334   7.786  -0.830   5.590 -0.1071 -0.2058 -0.3000
  235MOL0     C32335   7.716  -0.808   5.456 -0.1943 -0.5495 -0.5626
  235MOL0     C32336   7.803  -0.881   5.346  0.3244 -0.4567 -0.8071
  235MOL0    Cl32337   7.760  -1.051   5.374  0.0886 -0.3206  0.3410
  235MOL0     C32338   7.268  -0.250   5.914  0.6045  0.1705 -1.2173
  235MOL0     C32339   7.207  -0.135   5.960  0.3995 -0.6038 -0.5056
  235MOL0     O32340   6.822   0.013   5.874 -0.0010 -0.4359 -0.9997
  235MOL0     C32341   6.719   0.214   6.031 -0.4742 -0.1959  1.4336
  235MOL0     C32342   6.668   0.332   6.066  0.6785 -1.1684  0.5847
  235MOL0     N32343   6.325   0.465   6.617  0.1413 -0.3832 -0.1944
  235MOL0     N32344   6.262   0.470   6.728  0.3049 -0.2161 -0.3442
  235MOL0     C32345   5.119   0.682   6.236 -0.6843 -1.0275  1.1674
  235MOL0     C32346   5.004   0.625   6.185 -0.3374  0.1184 -0.6921
  235MOL0     C32347   4.626   0.376   6.096  0.1693 -0.9374  0.1823
  235MOL0     C32348   4.521   0.377   6.191 -0.6322  0.2981 -0.6718
  235MOL0     C32349   4.390   0.355   6.149 -0.4103  0.1812  0.1013
  235MOL0     C32350   4.360   0.311   6.027 -0.4619  0.4116  1.0683
  235MOL0     O32351   4.239   0.263   5.987  0.1947 -0.0159 -0.1704
  235MOL0     C32352   4.146   0.239   6.090  0.5736 -0.3197  0.4540
  235MOL0     C32353   4.032   0.155   6.036  0.3256 -0.6035 -0.5036
  235MOL0     C32354   4.080   0.014   6.009  0.4301 -0.1744 -0.4057
  235MOL0     C32355   3.962  -0.074   5.987 -0.5310  0.0179  0.2218
  235MOL0     C32356   3.995  -0.207   5.933 -0.2395 -0.2054 -0.2981
  235MOL0     C32357   4.006  -0.319   5.887  0.2547  0.6207  0.3858
  235MOL0     C32358   4.463   0.303   5.935 -0.0371  0.9960 -0.0251
  235MOL0     C32359   4.597   0.342   5.962 -0.2357  0.0840  0.1137
  235MOL0     C32360   4.700   0.330   5.849  0.9012  0.7080  0.3900
  235MOL0     H32361   4.837   0.559   6.473  0.0284  0.0857 -0.5985
  235MOL0     H32362   5.060   0.629   6.559  0.9795 -0.3246  0.0365
  235MOL0     H32363   5.379   0.683   6.280 -0.1989 -3.4804 -0.9185
  235MOL0     H32364   5.367   0.556   6.382 -1.1051  0.2895  0.1360
  235MOL0     H32365   5.574   0.684   6.395 -1.0863 -2.4613 -0.6893
  235MOL0     H32366   5.501   0.807   6.496  3.5885 -0.2550 -0.7431
  235MOL0     H32367   5.438   0.668   6.671 -2.8553  0.2446 -1.5759
  235MOL0     H32368   5.484   0.517   6.581  0.0111  0.2309  2.1188
  235MOL0     H32369   5.713   0.629   6.577  2.8211  0.7972  1.4506
  235MOL0     H32370   5.652   0.759   6.683  2.1956  0.1523 -0.6565
  235MOL0     H32371   5.680   0.468   6.776 -0.0583  1.3423 -2.6765
  235MOL0     H32372   5.626   0.611   6.873  2.5779  3.1640  1.5003
  235MOL0     H32373   5.845   0.719   6.844  1.6892  0.4339 -1.9528
  235MOL0     H32374   5.848   0.557   6.929 -1.1572 -1.7028 -0.1458
  235MOL0     H32375   5.935   0.641   6.661 -1.9018  0.9047  1.3715
  235MOL0     H32376   5.935   0.468   6.726 -0.8549 -0.7807  1.8325
  235MOL0     H32377   6.077   0.704   6.847  2.0480 -0.2101  0.7277
  235MOL0     H32378   6.094   0.538   6.905  3.9517 -0.0234 -0.0201
  235MOL0     H32379   6.183   0.757   6.581  0.5590 -0.4499  0.4754
  235MOL0     H32380   6.341   0.675   6.365 -2.2560 -1.2715  1.1265
  235MOL0     H32381   6.413   0.512   6.377  2.3722  2.3056 -2.1811
  235MOL0     H32382   6.495   0.763   6.490  1.5220  1.3279 -0.3650
  235MOL0     H32383   6.591   0.610   6.520  2.9478  4.1435 -0.2683
  235MOL0     H32384   6.556   0.755   6.260 -0.3830 -2.2886 -1.4808
  235MOL0     H32385   6.705   0.721   6.364  0.0885 -2.4842  3.1384
  235MOL0     H32386   6.663   0.476   6.309  0.4892 -1.5581 -0.3619
  235MOL0     H32387   6.536   0.525   6.198 -0.1680  0.8682  1.1429
  235MOL0     H32388   6.957   0.510   6.070 -2.4244  0.9414 -2.2874
  235MOL0     H32389   7.124   0.411   5.949 -0.7833  0.6836  5.0647
  235MOL0     H32390   7.106   0.243   5.884  0.6979  0.8722 -0.6644
  235MOL0     H32391   7.148   0.266   6.056 -1.4379 -2.6224  1.1276
  235MOL0     H32392   6.915  -0.167   5.789 -1.3991 -0.8629  3.1410
  235MOL0     H32393   7.027  -0.352   5.695 -0.6358  0.1030  0.4108
  235MOL0     H32394   7.454  -0.414   5.741 -2.9771 -0.2148 -3.9447
  235MOL0     H32395   7.416  -0.481   5.906 -1.7521  0.7902  0.4914
  235MOL0     H32396   7.348  -0.686   5.830 -3.0645  1.9893 -1.8592
  235MOL0     H32397   7.369  -0.655   5.656  1.5642 -1.6764 -0.1418
  235MOL0     H32398   7.611  -0.641   5.847  3.1729  0.1873 -1.4305
  235MOL0     H32399   7.625  -0.614   5.674 -1.1665  1.0782 -0.7428
  235MOL0     H32400   7.508  -0.829   5.644  1.8796 -0.4527 -1.4509
  235MOL0     H32401   7.527  -0.866   5.818  0.6584 -1.2898  0.4297
  235MOL0     H32402   7.763  -0.901   5.794 -1.8031 -0.9869  1.1401
  235MOL0     H32403   7.671  -0.994   5.679  0.5262  0.8054 -2.3015
  235MOL0     H32404   7.872  -0.897   5.576  1.3946  1.6412 -0.5082
  235MOL0     H32405   7.825  -0.731   5.619  0.2110 -0.6129  0.6823
  235MOL0     H32406   7.695  -0.703   5.435 -0.2691 -0.2568  0.8797
  235MOL0     H32407   7.618  -0.857   5.455  0.0907 -1.1425  0.1432
  235MOL0     H32408   7.910  -0.861   5.356  0.6210 -0.3602 -3.5749
  235MOL0     H32409   7.780  -0.855   5.243  1.7374  0.7375 -0.8485
  235MOL0     H32410   7.362  -0.274   5.963 -2.2199 -1.4797  4.1483
  235MOL0     H32411   7.251  -0.068   6.034 -3.3921 -0.8574  2.3277
  235MOL0     H32412   6.648   0.133   6.019 -0.7885  0.3929 -1.4266
  235MOL0     H32413   6.565   0.338   6.099  0.0861 -0.7443 -1.2400
  235MOL0     H32414   5.205   0.702   6.173 -0.5095 -3.1544  0.6486
  235MOL0     H32415   4.998   0.612   6.077  0.3879 -2.6373 -0.4794
  235MOL0     H32416   4.531   0.400   6.297 -1.8989 -3.4027  0.4120
  235MOL0     H32417   4.321   0.368   6.233  0.2016  2.5117  0.3247
  235MOL0     H32418   4.184   0.182   6.176  2.6247  0.0850 -0.1412
  235MOL0     H32419   4.089   0.327   6.122 -0.4295 -0.5422 -0.6231
  235MOL0     H32420   4.005   0.195   5.938 -1.9047 -0.7402 -0.0169
  235MOL0     H32421   3.933   0.154   6.083  0.3759 -0.4627 -0.3929
  235MOL0     H32422   4.138   0.012   5.917  2.7413 -1.9928  0.9783
  235MOL0     H32423   4.146  -0.029   6.085  1.0485  1.8105  0.2484
  235MOL0     H32424   3.903  -0.029   5.907 -0.0918  1.8969  0.8949
  235MOL0     H32425   3.905  -0.086   6.080 -4.4828  0.3199 -1.9604
  235MOL0     H32426   4.010  -0.415   5.840  1.8258  1.4295 -1.2926
  235MOL0     H32427   4.427   0.274   5.838 -2.0845  0.5207  0.8302
  235MOL0     H32428   4.648   0.307   5.756 -0.6437 -2.0114  1.8014
  235MOL0     H32429   4.761   0.420   5.841  0.1274  1.2343  0.2827
  235MOL0     H32430   4.759   0.239   5.865 -0.1892 -1.0793 -4.3187
  236MOL0     O32431   1.797   2.672  10.500  0.7519  0.3710 -0.2957
  236MOL0     C32432   1.748   2.591  10.421  0.0921 -0.3435  0.1972
  236MOL0     O32433   1.805   2.540  10.305  0.1202  0.2121  0.0311
  236MOL0     C32434   1.937   2.578  10.285  0.0592 -0.4741 -0.5848
  236MOL0     C32435   2.032   2.480  10.271 -0.6308 -0.4901 -0.3793
  236MOL0     C32436   2.160   2.515  10.248 -0.1163  0.3765  0.3221
  236MOL0     C32437   2.209   2.641  10.223 -0.1184 -0.3076  0.4441
  236MOL0     O32438   2.341   2.663  10.197  0.1795  0.2804  1.1417
  236MOL0     C32439   2.392   2.793  10.163 -0.5393  0.3845  0.0203
  236MOL0     C32440   2.537   2.772  10.162 -0.3544 -0.4132  0.5973
  236MOL0     C32441   2.582   2.676  10.052 -0.1914  0.1420 -0.0373
  236MOL0     C32442   2.737   2.671  10.024  0.2405 -0.4608  0.8451
  236MOL0     C32443   2.784   2.645   9.886 -0.1283 -0.3773 -0.5972
  236MOL0     C32444   2.932   2.676   9.865 -0.2458 -0.3247  0.7523
  236MOL0     C32445   2.989   2.654   9.721  0.6692 -0.2517  0.3426
  236MOL0     C32446   3.113   2.744   9.709 -0.4944  0.5160  0.6114
  236MOL0     N32447   3.238   2.688   9.758  0.7426  1.0299 -0.2611
  236MOL0     C32448   3.331   2.624   9.681 -0.5344 -0.3670  0.9008
  236MOL0     C32449   3.427   2.594   9.768 -0.3181 -0.1203  0.3058
  236MOL0     C32450   3.544   2.505   9.732  0.4327 -0.3246  0.4744
  236MOL0     C32451   3.665   2.523   9.826  0.1400 -0.0288 -0.2061
  236MOL0     C32452   3.728   2.662   9.824  1.0459  0.0725  0.6213
  236MOL0     C32453   3.771   2.730   9.691  0.2974 -0.3543  0.1222
  236MOL0     O32454   3.909   2.765   9.696 -0.4058  0.1911  0.3967
  236MOL0     C32455   4.004   2.673   9.740 -0.7232  0.1737 -0.5020
  236MOL0     C32456   4.012   2.533   9.731  0.3205 -0.2379  0.5095
  236MOL0     C32457   4.112   2.455   9.783  0.0332  0.7467 -0.3539
  236MOL0     C32458   4.099   2.305   9.757 -0.6675 -0.6748 -0.1048
  236MOL0     C32459   4.217   2.517   9.851 -0.8388 -0.3702  0.1900
  236MOL0     C32460   4.337   2.449   9.887  0.3200  0.1587 -0.1403
  236MOL0     O32461   4.423   2.403   9.787  0.2450 -0.6305  0.5277
  236MOL0     C32462   4.524   2.324   9.839  0.3651  0.2736 -0.2331
  236MOL0     C32463   4.648   2.386   9.858 -0.2608  0.4989  0.2070
  236MOL0     C32464   4.760   2.305   9.894 -0.7542 -0.6468 -0.0946
  236MOL0     C32465   4.754   2.166   9.924  0.2984  0.1783  1.7517
  236MOL0     O32466   4.857   2.080   9.962  0.5914 -0.0608 -0.3773
  236MOL0     C32467   4.985   2.146   9.986  0.4709  0.5913  0.6613
  236MOL0     C32468   5.073   2.033  10.040  0.1339  0.9041 -0.6591
  236MOL0     C32469   5.217   2.090  10.041 -0.7656  0.4800 -0.0469
  236MOL0     C32470   5.322   1.980  10.070  0.4588 -0.5150 -0.2179
  236MOL0     C32471   5.456   2.059  10.094 -0.2005 -0.5695  0.8891
  236MOL0     C32472   5.554   1.968  10.170 -0.3797 -0.4987  0.4344
  236MOL0     C32473   5.671   2.045  10.223  0.5172 -0.1524  1.1499
  236MOL0     C32474   5.767   1.945  10.295  0.6352 -0.5021 -0.0524
  236MOL0    Cl32475   5.765   1.773  10.242  0.0588  0.0699  0.3391
  236MOL0     C32476   4.630   2.114   9.904 -0.0434  0.0828 -0.5133
  236MOL0     C32477   4.514   2.188   9.867  0.5263 -1.0144 -0.1844
  236MOL0     O32478   4.344   2.425  10.003 -0.2656  0.0436 -0.6240
  236MOL0     C32479   4.216   2.656   9.859  0.5961 -0.7499 -0.3114
  236MOL0     C32480   4.102   2.735   9.819 -0.7362  0.0239  0.2104
  236MOL0     N32481   3.393   2.641   9.900 -0.0919  0.5614 -0.4771
  236MOL0     N32482   3.282   2.711   9.884  0.1847 -0.2939  0.3955
  236MOL0     C32483   2.109   2.743  10.223 -0.4381  0.1257  0.2803
  236MOL0     C32484   1.980   2.709  10.266 -0.1580 -0.4249 -0.1114
  236MOL0     C32485   1.603   2.548  10.444  1.0766  0.2008  1.0552
  236MOL0     C32486   1.550   2.466  10.345 -0.2688 -0.9096 -0.7112
  236MOL0     C32487   1.423   2.422  10.345 -0.4214  0.3220  0.1803
  236MOL0     C32488   1.329   2.477  10.428 -0.0452 -0.4886 -0.6258
  236MOL0     O32489   1.204   2.426  10.423 -0.1629 -0.4085  0.0018
  236MOL0     C32490   1.153   2.360  10.307  0.5030 -0.5352  0.5700
  236MOL0     C32491   1.013   2.315  10.329  0.3785 -0.3629  0.2640
  236MOL0     C32492   0.986   2.263  10.472  0.0824  0.2288 -0.0096
  236MOL0     C32493   0.851   2.207  10.496  0.2142  0.0986 -0.0354
  236MOL0     C32494   0.739   2.304  10.468  0.7056 -0.4327 -0.9783
  236MOL0     C32495   0.649   2.367  10.422 -0.2165  0.0530  0.3360
  236MOL0     C32496   1.370   2.570  10.531 -0.6436 -0.0545  0.8036
  236MOL0     C32497   1.510   2.602  10.535 -0.2713 -0.2888 -0.8714
  236MOL0     C32498   1.539   2.704  10.636  0.2849  0.2563  0.9845
  236MOL0     H32499   2.002   2.377  10.287  1.9932 -1.0360  1.8609
  236MOL0     H32500   2.239   2.440  10.237 -1.7425 -1.1140 -2.5591
  236MOL0     H32501   2.354   2.874  10.226 -1.9870  1.6188 -2.2953
  236MOL0     H32502   2.359   2.813  10.060 -0.4493  2.2786  0.3332
  236MOL0     H32503   2.581   2.868  10.133 -3.7324  0.7580 -1.2159
  236MOL0     H32504   2.583   2.731  10.252 -4.1164 -3.4257  1.4143
  236MOL0     H32505   2.542   2.574  10.064 -4.6249  1.5789 -0.6309
  236MOL0     H32506   2.529   2.703   9.960 -0.3124  2.2091  0.6064
  236MOL0     H32507   2.776   2.768  10.058 -1.7537  0.1344  1.5966
  236MOL0     H32508   2.787   2.592  10.081 -2.8913 -5.1930 -2.2774
  236MOL0     H32509   2.724   2.691   9.807 -0.9159 -3.5857 -2.0151
  236MOL0     H32510   2.769   2.540   9.860  1.8789 -1.0183  0.6673
  236MOL0     H32511   2.942   2.779   9.901 -0.1067  0.0280 -0.2752
  236MOL0     H32512   2.990   2.607   9.927  2.2880 -1.8335 -2.9405
  236MOL0     H32513   2.920   2.697   9.647  0.9287  3.5528  2.0933
  236MOL0     H32514   3.006   2.546   9.713  1.3578 -0.1629  0.5894
  236MOL0     H32515   3.122   2.775   9.605 -0.1577 -2.1069 -0.2104
  236MOL0     H32516   3.104   2.838   9.765 -0.9626  1.3533 -0.8307
  236MOL0     H32517   3.340   2.603   9.575  1.2585 -0.9423  1.1291
  236MOL0     H32518   3.576   2.516   9.628 -2.2884  2.1425 -0.2482
  236MOL0     H32519   3.510   2.401   9.737 -1.2366  0.2295  1.3962
  236MOL0     H32520   3.626   2.503   9.926 -0.2922 -0.2109 -0.4098
  236MOL0     H32521   3.742   2.447   9.809  0.6637  0.2080  0.9888
  236MOL0     H32522   3.650   2.725   9.867 -1.4142 -3.1408  1.2281
  236MOL0     H32523   3.799   2.657   9.907  1.7954  2.9703  0.2747
  236MOL0     H32524   3.756   2.657   9.611  0.5257 -0.4873  0.2005
  236MOL0     H32525   3.697   2.810   9.677  0.5656  0.3415  2.3291
  236MOL0     H32526   3.935   2.474   9.682  0.6633  1.0169 -1.7167
  236MOL0     H32527   4.190   2.250   9.780 -1.2474 -1.4748  0.3299
  236MOL0     H32528   4.081   2.276   9.652 -2.3350  0.0954 -0.0715
  236MOL0     H32529   4.017   2.278   9.824 -0.8922 -0.6187 -0.3551
  236MOL0     H32530   4.663   2.492   9.843  0.8985  0.2577 -0.4624
  236MOL0     H32531   4.852   2.362   9.901 -1.2259  0.0910  0.1829
  236MOL0     H32532   5.020   2.182   9.889 -2.9897  0.3345 -0.8150
  236MOL0     H32533   4.975   2.227  10.059  3.1716 -0.9202  2.9021
  236MOL0     H32534   5.039   2.005  10.140 -0.6749 -2.9954 -1.8473
  236MOL0     H32535   5.064   1.937   9.989  1.3230 -0.6635  1.8740
  236MOL0     H32536   5.218   2.177  10.107  0.9081  1.7053 -1.5954
  236MOL0     H32537   5.225   2.129   9.939  1.1437 -1.6277 -0.7932
  236MOL0     H32538   5.316   1.907   9.988 -3.1952  1.7001 -2.2190
  236MOL0     H32539   5.299   1.921  10.159 -1.6368  0.6150  0.0566
  236MOL0     H32540   5.489   2.092   9.995 -0.4537  1.1504  1.3540
  236MOL0     H32541   5.444   2.149  10.154 -0.4560 -0.4609  0.6752
  236MOL0     H32542   5.589   1.890  10.102 -2.7770 -0.8543 -0.4830
  236MOL0     H32543   5.496   1.905  10.239 -1.2940 -1.2223 -0.9545
  236MOL0     H32544   5.645   2.115  10.304  1.4760 -0.2159  1.5285
  236MOL0     H32545   5.723   2.110  10.152 -2.1628  0.5136 -0.3358
  236MOL0     H32546   5.744   1.952  10.402 -1.9983  0.7397 -0.6206
  236MOL0     H32547   5.866   1.990  10.286 -0.6147  2.2932 -1.0365
  236MOL0     H32548   4.624   2.007   9.919  1.2108 -0.1110 -1.2717
  236MOL0     H32549   4.419   2.138   9.846 -0.3735  0.3105  0.5919
  236MOL0     H32550   4.300   2.704   9.909 -2.4597  0.6829  4.0311
  236MOL0     H32551   4.096   2.842   9.833 -0.9916  0.0725 -0.2734
  236MOL0     H32552   2.133   2.847  10.200 -1.1998  0.1482 -0.4461
  236MOL0     H32553   1.898   2.780  10.275  0.8815  0.8434 -0.3636
  236MOL0     H32554   1.612   2.412  10.273 -0.7679 -0.6605 -1.3409
  236MOL0     H32555   1.400   2.339  10.279  0.4099  0.2469 -0.0189
  236MOL0     H32556   1.152   2.426  10.220 -0.8373  0.5691  1.3729
  236MOL0     H32557   1.209   2.270  10.282  0.9803 -0.6404  1.8896
  236MOL0     H32558   1.002   2.235  10.255 -2.2441  0.6620 -0.5703
  236MOL0     H32559   0.944   2.397  10.308 -1.5967 -2.5692 -2.7827
  236MOL0     H32560   1.063   2.189  10.497 -0.4981 -0.1726  0.6412
  236MOL0     H32561   0.986   2.347  10.542 -0.7850  0.1341  0.1239
  236MOL0     H32562   0.837   2.190  10.603 -1.1073  1.2081 -0.0066
  236MOL0     H32563   0.832   2.126  10.425 -3.2561  2.3881 -2.0329
  236MOL0     H32564   0.561   2.421  10.394 -0.6977  0.2867  2.1822
  236MOL0     H32565   1.303   2.613  10.605 -0.2984  1.7953  0.0971
  236MOL0     H32566   1.460   2.699  10.712 -1.0823 -0.7809 -0.4239
  236MOL0     H32567   1.634   2.673  10.680  1.1706  1.6199  0.0838
  236MOL0     H32568   1.549   2.792  10.573  2.5139 -1.9659 -2.0664
  237MOL0     O32569   2.218   2.667   5.676  0.1725 -0.0341 -0.4858
  237MOL0     C32570   2.162   2.566   5.711  0.0918 -0.2745  0.5639
  237MOL0     O32571   2.222   2.442   5.747  0.1360 -0.2270  0.5584
  237MOL0     C32572   2.355   2.444   5.751  0.8011 -0.6685  0.1751
  237MOL0     C32573   2.436   2.403   5.643 -0.0636 -0.1351 -0.3703
  237MOL0     C32574   2.581   2.404   5.652 -0.1647  0.2711  0.2062
  237MOL0     C32575   2.641   2.456   5.769 -0.0877 -0.2727  0.3669
  237MOL0     O32576   2.774   2.453   5.807  0.2039  0.0306  0.6380
  237MOL0     C32577   2.885   2.441   5.717 -0.0757 -0.6431  0.1557
  237MOL0     C32578   2.907   2.584   5.659 -0.0319  0.0208 -0.4755
  237MOL0     C32579   2.937   2.688   5.768  0.0483  0.7213  0.9095
  237MOL0     C32580   2.984   2.829   5.711  0.3463  0.8417 -0.1111
  237MOL0     C32581   3.133   2.855   5.748 -0.1657 -0.3050 -0.3999
  237MOL0     C32582   3.220   2.761   5.674 -1.0444 -0.0789  0.3109
  237MOL0     C32583   3.360   2.753   5.726  0.5471  0.0907 -0.4057
  237MOL0     C32584   3.451   2.670   5.638  0.2458  0.3695 -0.1118
  237MOL0     N32585   3.578   2.645   5.701 -0.2786  0.2769  1.2158
  237MOL0     C32586   3.691   2.720   5.681  0.5308  0.0288 -0.7436
  237MOL0     C32587   3.795   2.642   5.720  1.2748  0.1483 -0.2915
  237MOL0     C32588   3.939   2.680   5.719 -0.0284 -0.1575 -0.1413
  237MOL0     C32589   3.963   2.789   5.829 -0.6376 -0.9340  0.2118
  237MOL0     C32590   4.082   2.757   5.921 -0.0901  0.0803  0.3849
  237MOL0     C32591   4.212   2.784   5.845  0.1031 -0.7494  0.0277
  237MOL0     O32592   4.226   2.923   5.800  0.0908  0.1321  0.1433
  237MOL0     C32593   4.351   2.959   5.742  1.3320  0.6396  0.2039
  237MOL0     C32594   4.456   2.874   5.704  0.3591 -0.6560 -0.0604
  237MOL0     C32595   4.570   2.912   5.628 -0.7000  0.1619  1.0836
  237MOL0     C32596   4.673   2.816   5.567 -0.6143 -0.1631 -0.2213
  237MOL0     C32597   4.588   3.050   5.609 -0.5039 -0.3384  0.0003
  237MOL0     C32598   4.703   3.127   5.558  0.3938  0.3945  0.5113
  237MOL0     O32599   4.705   3.263   5.579  1.0606  0.2371 -0.1969
  237MOL0     C32600   4.827   3.328   5.554 -0.1326 -0.5588 -0.0551
  237MOL0     C32601   4.827   3.430   5.457 -0.1905 -0.4846  0.6301
  237MOL0     C32602   4.949   3.486   5.420 -0.2060  0.1469 -0.9501
  237MOL0     C32603   5.070   3.450   5.487 -0.0250 -0.2110  0.1226
  237MOL0     O32604   5.198   3.504   5.458  0.6589 -0.5053  0.0614
  237MOL0     C32605   5.201   3.644   5.468 -0.7644  0.1880  0.2203
  237MOL0     C32606   5.214   3.684   5.618 -0.0182  0.0899  0.0778
  237MOL0     C32607   5.319   3.791   5.648 -0.4634  0.9205 -0.4995
  237MOL0     C32608   5.286   3.924   5.583  0.6571  0.2681  0.4295
  237MOL0     C32609   5.399   4.020   5.628 -0.9195  0.2975  0.1960
  237MOL0     C32610   5.373   4.161   5.572 -0.0573  0.8455  0.4979
  237MOL0     C32611   5.486   4.252   5.615 -1.4228  0.2632 -0.8246
  237MOL0     C32612   5.476   4.387   5.546 -1.0085 -0.0035  0.3198
  237MOL0    Cl32613   5.512   4.362   5.377  0.1025 -0.2646 -0.1866
  237MOL0     C32614   5.068   3.353   5.586  0.5792 -0.7415  0.1408
  237MOL0     C32615   4.947   3.291   5.619  1.2884 -0.7946 -0.6800
  237MOL0     O32616   4.798   3.061   5.520 -0.6450 -0.4090  0.9567
  237MOL0     C32617   4.475   3.133   5.636  0.3946  0.2785  0.6830
  237MOL0     C32618   4.362   3.086   5.695  0.2966  0.5041  0.1308
  237MOL0     N32619   3.744   2.520   5.764 -0.0033 -0.2008 -1.2031
  237MOL0     N32620   3.618   2.522   5.752 -0.1463 -0.6508  0.6718
  237MOL0     C32621   2.554   2.503   5.869 -1.2350 -0.5808 -0.4280
  237MOL0     C32622   2.414   2.487   5.869  0.2466  0.7316 -0.2029
  237MOL0     C32623   2.013   2.564   5.727 -0.3490 -0.4032 -0.2917
  237MOL0     C32624   1.962   2.491   5.833 -0.0819  1.0892 -0.5281
  237MOL0     C32625   1.826   2.487   5.866  0.1038 -0.2011  0.6152
  237MOL0     C32626   1.740   2.557   5.780 -0.2081  0.2791 -0.6129
  237MOL0     O32627   1.606   2.565   5.791  0.3500  0.2785 -0.9445
  237MOL0     C32628   1.552   2.460   5.876  0.6236  0.0419  0.1397
  237MOL0     C32629   1.396   2.481   5.862 -0.0081 -0.2582  0.6212
  237MOL0     C32630   1.353   2.447   5.720 -0.1816  0.0403 -0.2546
  237MOL0     C32631   1.202   2.422   5.699  0.0438 -0.1288  0.1093
  237MOL0     C32632   1.169   2.292   5.763 -0.8732  0.3426  0.2622
  237MOL0     C32633   1.129   2.180   5.796 -0.2518  0.2226 -0.2297
  237MOL0     C32634   1.780   2.626   5.670  0.1518  0.4859  0.2072
  237MOL0     C32635   1.919   2.636   5.642  0.9346  0.0274  0.0292
  237MOL0     C32636   1.949   2.703   5.510 -0.9586  0.2825 -0.4165
  237MOL0     H32637   2.385   2.362   5.557 -0.1232 -1.9555  0.4845
  237MOL0     H32638   2.645   2.358   5.576 -1.3021  3.0578 -2.6779
  237MOL0     H32639   2.877   2.376   5.629 -2.4967  0.2718 -0.3640
  237MOL0     H32640   2.973   2.408   5.774  2.8232  1.9931 -2.4164
  237MOL0     H32641   2.993   2.569   5.593 -0.1806 -2.0421 -0.2477
  237MOL0     H32642   2.825   2.622   5.597 -2.0690 -2.6424  0.4208
  237MOL0     H32643   2.839   2.694   5.816 -1.9016 -1.6403 -2.4105
  237MOL0     H32644   2.992   2.640   5.849 -2.2536 -3.3423  0.2950
  237MOL0     H32645   2.972   2.824   5.603  3.1376  1.7169 -0.5484
  237MOL0     H32646   2.914   2.906   5.742 -0.3131  1.1706 -2.2978
  237MOL0     H32647   3.144   2.829   5.854 -0.2575 -0.6969 -0.4834
  237MOL0     H32648   3.166   2.958   5.732 -0.4409  0.0197  1.0001
  237MOL0     H32649   3.174   2.663   5.656 -3.0576  0.8036  0.3624
  237MOL0     H32650   3.227   2.806   5.575  2.4378 -0.4714  0.2475
  237MOL0     H32651   3.362   2.707   5.825  2.0154  2.3919  0.7136
  237MOL0     H32652   3.417   2.845   5.735  1.3873 -0.2022 -2.2644
  237MOL0     H32653   3.410   2.572   5.613  0.1945  0.3725 -0.0402
  237MOL0     H32654   3.468   2.709   5.537  2.2402 -2.1293 -0.8421
  237MOL0     H32655   3.697   2.819   5.636 -0.6484 -0.2965 -1.6562
  237MOL0     H32656   3.973   2.711   5.620 -0.0313  1.1235  0.2372
  237MOL0     H32657   3.993   2.596   5.763 -0.4840 -0.1890  0.3716
  237MOL0     H32658   3.976   2.890   5.790 -0.8924  0.6002  3.6918
  237MOL0     H32659   3.878   2.791   5.898 -0.7936 -2.7406  0.1180
  237MOL0     H32660   4.082   2.826   6.007 -3.6908  0.2960  0.3495
  237MOL0     H32661   4.090   2.653   5.954  0.4775 -0.3866 -1.1593
  237MOL0     H32662   4.287   2.757   5.919 -1.2184 -1.1184  1.2809
  237MOL0     H32663   4.212   2.717   5.758  2.3565 -1.5928  0.6009
  237MOL0     H32664   4.447   2.771   5.738  1.7183 -1.3300 -1.5894
  237MOL0     H32665   4.612   2.732   5.533 -0.9411 -0.0301  0.0369
  237MOL0     H32666   4.745   2.789   5.645 -1.2721  0.9285  0.7985
  237MOL0     H32667   4.726   2.859   5.480  2.4475  2.1829  2.5158
  237MOL0     H32668   4.733   3.468   5.419  1.4877  2.6699 -0.7208
  237MOL0     H32669   4.957   3.564   5.346  1.0931 -0.2424 -1.2555
  237MOL0     H32670   5.296   3.678   5.425  1.3506 -0.4516  3.9116
  237MOL0     H32671   5.122   3.699   5.416 -0.0590 -0.0237 -1.1294
  237MOL0     H32672   5.117   3.706   5.663  0.6249 -0.5304  1.8920
  237MOL0     H32673   5.244   3.596   5.676 -1.6542 -0.1468  0.6207
  237MOL0     H32674   5.419   3.758   5.617  0.3583  0.5808  2.2273
  237MOL0     H32675   5.326   3.795   5.757  1.7285 -3.1034 -0.2929
  237MOL0     H32676   5.186   3.951   5.617  0.8516  1.8773 -0.2034
  237MOL0     H32677   5.274   3.923   5.475  0.4685 -0.2381  0.4510
  237MOL0     H32678   5.394   4.033   5.737  4.8435 -0.1213  0.8520
  237MOL0     H32679   5.501   3.990   5.602 -0.7434  0.7933  0.2960
  237MOL0     H32680   5.275   4.192   5.608 -2.7104 -5.3138 -0.1314
  237MOL0     H32681   5.366   4.147   5.463  0.1631 -3.1845  0.8417
  237MOL0     H32682   5.579   4.202   5.588 -0.5907  0.8285  0.9076
  237MOL0     H32683   5.481   4.256   5.724  3.4460 -2.5663 -0.2325
  237MOL0     H32684   5.543   4.460   5.592  0.3611  1.9064 -4.1612
  237MOL0     H32685   5.374   4.416   5.574 -0.6714  1.0486  0.4999
  237MOL0     H32686   5.161   3.326   5.634  0.3725 -1.9124 -0.0943
  237MOL0     H32687   4.929   3.222   5.700  0.6807  2.9359  2.7035
  237MOL0     H32688   4.468   3.241   5.633  1.2708  0.3195 -0.2790
  237MOL0     H32689   4.271   3.139   5.721 -2.7955 -3.3685 -1.6848
  237MOL0     H32690   2.606   2.543   5.956 -1.2364  0.0175 -0.6964
  237MOL0     H32691   2.354   2.516   5.954 -0.0040 -2.2477  0.7409
  237MOL0     H32692   2.024   2.442   5.907 -3.0629 -2.2190  0.0281
  237MOL0     H32693   1.806   2.441   5.962 -0.4158  1.9496  1.5959
  237MOL0     H32694   1.583   2.361   5.842  2.5223  0.8856 -0.7088
  237MOL0     H32695   1.574   2.480   5.981 -4.7996 -1.0060  1.8108
  237MOL0     H32696   1.374   2.585   5.890 -1.3379 -1.4236  4.6065
  237MOL0     H32697   1.346   2.415   5.932  0.7597 -0.5283  0.9313
  237MOL0     H32698   1.384   2.527   5.652  3.0029 -0.0300  0.9375
  237MOL0     H32699   1.407   2.363   5.676  0.5099  0.1155  0.4330
  237MOL0     H32700   1.170   2.431   5.594  1.2323 -0.5558 -0.3133
  237MOL0     H32701   1.152   2.506   5.748  0.2992 -0.1336  0.3755
  237MOL0     H32702   1.091   2.086   5.830  1.4611 -0.8866 -1.2597
  237MOL0     H32703   1.716   2.680   5.601  1.9189  0.0803 -1.8660
  237MOL0     H32704   1.905   2.803   5.511  0.2578  0.8303  0.5238
  237MOL0     H32705   2.056   2.720   5.492 -1.2106  1.8985 -0.4954
  237MOL0     H32706   1.899   2.647   5.430 -2.1998 -1.5444  1.5401
  238MOL0     O32707   8.052   8.640   3.468 -0.1102 -0.2919  0.0836
  238MOL0     C32708   7.980   8.605   3.562  0.6239 -0.6629 -0.4360
  238MOL0     O32709   8.006   8.499   3.648 -0.7755  0.4248 -0.3109
  238MOL0     C32710   8.124   8.431   3.622  0.7243 -0.3285  0.3851
  238MOL0     C32711   8.110   8.331   3.527  0.2867  0.4472 -0.1331
  238MOL0     C32712   8.214   8.250   3.478  0.9983 -0.0562  0.4988
  238MOL0     C32713   8.347   8.277   3.532 -0.6457 -0.5380  0.0391
  238MOL0     O32714   8.441   8.190   3.477 -0.5449  0.5168 -0.2247
  238MOL0     C32715   8.573   8.198   3.534 -0.0384  0.3257  0.5924
  238MOL0     C32716   8.655   8.090   3.472 -0.3992  0.3252  0.4304
  238MOL0     C32717   8.788   8.078   3.552 -0.2375 -0.0106  0.2571
  238MOL0     C32718   8.884   7.979   3.479 -0.0376 -0.2741 -0.1401
  238MOL0     C32719   8.999   7.936   3.575 -0.2869 -0.3573  0.4238
  238MOL0     C32720   9.105   7.846   3.503 -0.4706  0.1810  0.1315
  238MOL0     C32721   9.193   7.774   3.600 -0.2146  0.0404 -0.9745
  238MOL0     C32722   9.306   7.696   3.533  1.0233 -0.7019 -0.6558
  238MOL0     N32723   9.376   7.621   3.631 -0.6412  0.0401 -0.3722
  238MOL0     C32724   9.412   7.488   3.627  0.5204 -0.1614 -0.3605
  238MOL0     C32725   9.504   7.475   3.725 -0.3957 -0.6230  0.7059
  238MOL0     C32726   9.574   7.345   3.752  0.8923 -0.5722 -0.1261
  238MOL0     C32727   9.532   7.296   3.887 -0.5845  0.1397  0.1847
  238MOL0     C32728   9.608   7.168   3.924  0.9726  0.1144 -0.6942
  238MOL0     C32729   9.748   7.203   3.974 -0.3080  0.6930  0.5586
  238MOL0     O32730   9.832   7.204   3.860  0.0610 -0.4304  0.1502
  238MOL0     C32731   9.968   7.218   3.879 -0.1731  0.1614 -0.3378
  238MOL0     C32732  10.030   7.283   3.989 -0.2935  0.0962 -0.5484
  238MOL0     C32733  10.172   7.285   4.008  0.4228 -0.4232  0.9947
  238MOL0     C32734  10.230   7.338   4.136 -0.7084  0.2385  0.3452
  238MOL0     C32735  10.251   7.241   3.902  0.2014  0.2146 -0.1162
  238MOL0     C32736  10.400   7.246   3.893  0.2925  0.3110 -0.6531
  238MOL0     O32737  10.453   7.134   3.838  0.2592 -0.0402 -0.2504
  238MOL0     C32738  10.590   7.111   3.841  0.9657 -0.1956  0.0764
  238MOL0     C32739  10.647   7.028   3.739 -0.1163 -0.6560  0.1229
  238MOL0     C32740  10.788   7.023   3.723  0.5710  0.1338 -0.4800
  238MOL0     C32741  10.875   7.086   3.811  0.1063  0.9912 -0.0440
  238MOL0     O32742  11.009   7.071   3.775 -0.3633 -0.1857 -0.8681
  238MOL0     C32743  11.092   7.184   3.817 -0.3789 -0.1651 -0.7371
  238MOL0     C32744  11.225   7.188   3.743  0.3503 -0.1231  0.3312
  238MOL0     C32745  11.313   7.063   3.773  0.0947 -0.4624 -0.0110
  238MOL0     C32746  11.445   7.091   3.694  0.7246 -0.9526 -0.3137
  238MOL0     C32747  11.538   6.975   3.712  0.2603 -0.3990  0.2249
  238MOL0     C32748  11.478   6.848   3.654  0.4165  0.7515  0.2085
  238MOL0     C32749  11.575   6.731   3.633 -0.2303 -0.2796  0.1380
  238MOL0     C32750  11.693   6.715   3.732 -0.0421 -0.3044  1.3549
  238MOL0    Cl32751  11.625   6.711   3.893 -0.0260 -0.0520 -0.0008
  238MOL0     C32752  10.817   7.152   3.914 -0.0962  0.3006 -0.3399
  238MOL0     C32753  10.680   7.165   3.932  0.1132  0.3386 -0.8848
  238MOL0     O32754  10.448   7.355   3.931  0.1729 -0.5883  0.7277
  238MOL0     C32755  10.187   7.180   3.793  0.5471 -0.1707 -0.0751
  238MOL0     C32756  10.041   7.173   3.780 -0.9426  0.3175  0.5411
  238MOL0     N32757   9.526   7.597   3.789 -0.2048  0.1626  0.2849
  238MOL0     N32758   9.450   7.682   3.730  1.1604  0.1715  0.2160
  238MOL0     C32759   8.361   8.373   3.636 -0.7438  0.0282  0.0742
  238MOL0     C32760   8.254   8.460   3.669 -0.3018 -0.4239 -0.7194
  238MOL0     C32761   7.854   8.678   3.569  0.7783 -0.2975 -0.1295
  238MOL0     C32762   7.839   8.790   3.490 -1.3490 -1.4091  0.0828
  238MOL0     C32763   7.718   8.851   3.476 -0.4577 -0.5801  0.0896
  238MOL0     C32764   7.602   8.798   3.523 -0.2860 -0.2707 -0.6176
  238MOL0     O32765   7.471   8.842   3.488 -0.2637  0.5280  0.2919
  238MOL0     C32766   7.444   8.966   3.421  1.1730 -0.5242  0.4517
  238MOL0     C32767   7.354   9.059   3.505 -0.2762  1.0646 -0.3464
  238MOL0     C32768   7.400   9.092   3.646 -0.3879  0.1795  0.3394
  238MOL0     C32769   7.532   9.178   3.639 -0.0087 -0.6505  0.5699
  238MOL0     C32770   7.527   9.306   3.568  0.2829  0.3849 -0.0766
  238MOL0     C32771   7.538   9.406   3.508  0.0498  0.4569  0.5338
  238MOL0     C32772   7.610   8.681   3.593  0.9701 -0.2568 -0.4807
  238MOL0     C32773   7.735   8.626   3.628 -0.1826  0.4456 -0.0730
  238MOL0     C32774   7.726   8.494   3.708  0.2234 -0.0254  0.3423
  238MOL0     H32775   8.009   8.314   3.489  1.0712 -0.5032 -1.8958
  238MOL0     H32776   8.199   8.174   3.401 -2.7647  0.5619  0.4503
  238MOL0     H32777   8.569   8.193   3.643  0.6233 -1.2758  0.5668
  238MOL0     H32778   8.626   8.292   3.512 -0.2786  0.2338 -0.4713
  238MOL0     H32779   8.596   7.999   3.462 -2.2033  1.6256 -1.4841
  238MOL0     H32780   8.674   8.125   3.370 -0.4507 -0.2752  0.2131
  238MOL0     H32781   8.838   8.173   3.572  1.6335 -0.8466 -0.2338
  238MOL0     H32782   8.761   8.027   3.645 -0.4535 -0.7642 -0.2083
  238MOL0     H32783   8.835   7.886   3.449 -0.3091  0.5738 -2.4961
  238MOL0     H32784   8.918   8.036   3.392 -1.8821 -0.3889 -0.9945
  238MOL0     H32785   8.958   7.881   3.660 -0.2156 -0.7879  0.1883
  238MOL0     H32786   9.053   8.021   3.617 -1.0053 -0.9759  2.7300
  238MOL0     H32787   9.050   7.767   3.452 -2.6067  0.0606  2.4079
  238MOL0     H32788   9.155   7.914   3.432  0.7635  1.8682  2.4867
  238MOL0     H32789   9.128   7.705   3.655 -1.1180  2.1379  0.6928
  238MOL0     H32790   9.243   7.845   3.665  0.0865  0.4137 -1.6079
  238MOL0     H32791   9.259   7.617   3.472 -2.1999 -0.0810  0.8486
  238MOL0     H32792   9.373   7.748   3.464  0.1054 -0.4006 -1.3348
  238MOL0     H32793   9.387   7.409   3.556 -2.6391 -1.5362  2.0151
  238MOL0     H32794   9.681   7.364   3.749  0.8787 -0.5404 -2.3200
  238MOL0     H32795   9.550   7.263   3.683  1.2779 -0.0330 -0.9154
  238MOL0     H32796   9.544   7.369   3.968 -1.7136  0.1711  0.3532
  238MOL0     H32797   9.425   7.271   3.885 -0.1255 -2.0301 -1.4982
  238MOL0     H32798   9.557   7.132   4.013  2.4060  0.2163  0.1924
  238MOL0     H32799   9.601   7.092   3.845 -3.1668 -0.6614  0.1785
  238MOL0     H32800   9.748   7.298   4.028  1.6640  1.3503 -0.4896
  238MOL0     H32801   9.786   7.128   4.045 -1.3860  1.6720  2.2428
  238MOL0     H32802   9.964   7.321   4.066 -1.9542 -0.7326 -1.5113
  238MOL0     H32803  10.267   7.441   4.129  2.2109 -0.7081  0.7364
  238MOL0     H32804  10.314   7.277   4.171 -1.3463  1.0058  3.5540
  238MOL0     H32805  10.152   7.322   4.211 -0.0159 -1.6058  0.7313
  238MOL0     H32806  10.596   6.967   3.664  1.3033  1.6368 -2.9395
  238MOL0     H32807  10.828   6.958   3.646 -0.5136 -1.1395 -0.0251
  238MOL0     H32808  11.038   7.278   3.806 -1.2679 -0.1576  2.4832
  238MOL0     H32809  11.107   7.170   3.925 -0.0355 -0.7373 -0.8524
  238MOL0     H32810  11.206   7.187   3.635 -2.0155 -1.2834  0.6918
  238MOL0     H32811  11.275   7.284   3.757  1.2483 -0.8883  3.1470
  238MOL0     H32812  11.252   6.978   3.743 -0.9359 -0.3842  1.7606
  238MOL0     H32813  11.334   7.059   3.880  2.3445  0.6778 -0.3344
  238MOL0     H32814  11.491   7.183   3.731 -0.9702  0.1233 -0.7625
  238MOL0     H32815  11.416   7.107   3.589 -1.5363 -0.7438  0.3000
  238MOL0     H32816  11.625   7.002   3.652  1.1928 -0.2716  1.5898
  238MOL0     H32817  11.566   6.958   3.817 -2.6494 -0.4973  1.0750
  238MOL0     H32818  11.433   6.871   3.557 -0.5479  2.3641  0.9885
  238MOL0     H32819  11.398   6.813   3.719 -0.3856 -1.0910 -1.6607
  238MOL0     H32820  11.613   6.747   3.532 -1.6683  0.2956 -0.3359
  238MOL0     H32821  11.519   6.637   3.633  0.2260 -0.5610 -0.9115
  238MOL0     H32822  11.757   6.804   3.729  0.4069 -0.3952  4.6141
  238MOL0     H32823  11.759   6.629   3.723  2.5952  1.6031  1.1496
  238MOL0     H32824  10.877   7.205   3.988  0.9435  0.6400 -1.3853
  238MOL0     H32825  10.649   7.222   4.019  0.1752 -2.2122  0.9472
  238MOL0     H32826  10.245   7.151   3.706 -0.3553  2.8104 -1.7775
  238MOL0     H32827   9.994   7.119   3.698  0.3669  0.8174 -0.5714
  238MOL0     H32828   8.455   8.382   3.689  0.3639 -1.4240 -1.5140
  238MOL0     H32829   8.286   8.547   3.726  1.3602  0.5381 -2.9668
  238MOL0     H32830   7.925   8.837   3.443 -1.9609 -0.3593 -0.0195
  238MOL0     H32831   7.720   8.949   3.431  4.0219 -0.3560  0.2825
  238MOL0     H32832   7.534   9.024   3.398  1.8341 -0.1671  3.5888
  238MOL0     H32833   7.399   8.940   3.324 -0.2406  0.8579  0.7074
  238MOL0     H32834   7.259   9.004   3.509  0.8384 -0.9937 -0.7727
  238MOL0     H32835   7.326   9.152   3.454  1.1715  1.0648 -1.1733
  238MOL0     H32836   7.331   9.158   3.699 -1.4275  0.2833 -1.0700
  238MOL0     H32837   7.406   9.007   3.714 -0.9023  1.2559  1.7647
  238MOL0     H32838   7.607   9.115   3.589  0.0468  0.3070 -0.6145
  238MOL0     H32839   7.557   9.197   3.743  1.0369 -2.4315  0.7025
  238MOL0     H32840   7.552   9.504   3.466 -2.4809  0.8293  0.4037
  238MOL0     H32841   7.517   8.634   3.625  1.3219  0.6348  1.9976
  238MOL0     H32842   7.626   8.450   3.712 -0.2189  0.2842 -3.5251
  238MOL0     H32843   7.775   8.418   3.647 -3.1321 -2.0528 -0.0278
  238MOL0     H32844   7.760   8.524   3.808  1.0368  3.2402 -0.7803
  239MOL0     O32845   3.718   9.039   4.222 -0.1147 -0.2496 -0.6960
  239MOL0     C32846   3.623   8.975   4.178  0.2176 -0.0509 -0.2976
  239MOL0     O32847   3.624   8.840   4.145  0.9854 -0.5075  0.8240
  239MOL0     C32848   3.730   8.765   4.136 -0.8017 -0.0559  0.3631
  239MOL0     C32849   3.829   8.748   4.238  0.4535 -0.1043 -0.4570
  239MOL0     C32850   3.939   8.665   4.231 -0.4381  0.9078 -0.4147
  239MOL0     C32851   3.963   8.601   4.109  0.2555 -0.2929  0.9412
  239MOL0     O32852   4.084   8.533   4.072 -0.5549 -0.3832  0.3578
  239MOL0     C32853   4.194   8.528   4.165 -0.0331  0.1483 -0.2409
  239MOL0     C32854   4.333   8.471   4.129  0.6950 -0.3610  0.3401
  239MOL0     C32855   4.317   8.344   4.036  0.3022 -0.2046  0.6416
  239MOL0     C32856   4.444   8.330   3.951 -0.5491  0.5577  0.9512
  239MOL0     C32857   4.432   8.197   3.868 -0.4868  0.0157 -0.8070
  239MOL0     C32858   4.563   8.189   3.784  0.1649  0.1824  0.3296
  239MOL0     C32859   4.532   8.103   3.659  0.6471 -1.3849 -0.3589
  239MOL0     C32860   4.658   8.052   3.592 -0.3702  0.2534 -0.4219
  239MOL0     N32861   4.741   8.155   3.531  0.4341 -0.2798 -0.4196
  239MOL0     C32862   4.835   8.236   3.590 -0.3859 -0.6375 -0.2164
  239MOL0     C32863   4.910   8.285   3.485  0.7328 -0.2755  0.0050
  239MOL0     C32864   5.042   8.352   3.505  0.4359 -0.7621 -0.6714
  239MOL0     C32865   5.065   8.492   3.446  0.0493 -0.3492 -0.0570
  239MOL0     C32866   5.210   8.548   3.470  0.8295  0.2927 -0.5545
  239MOL0     C32867   5.319   8.481   3.385  1.4033 -1.0901 -0.1583
  239MOL0     O32868   5.452   8.524   3.415  0.3743  0.1009  0.1564
  239MOL0     C32869   5.479   8.654   3.373 -0.8937  0.0638  0.0586
  239MOL0     C32870   5.411   8.732   3.281 -0.0237 -0.0432  0.1118
  239MOL0     C32871   5.462   8.858   3.252 -0.5485  0.2403 -0.2098
  239MOL0     C32872   5.373   8.939   3.155  0.0192  0.2286 -0.0591
  239MOL0     C32873   5.585   8.904   3.295  0.3697 -0.1031  0.0846
  239MOL0     C32874   5.646   9.040   3.275 -0.5587 -0.5492  0.4304
  239MOL0     O32875   5.780   9.045   3.293 -0.1327  1.7630 -0.5210
  239MOL0     C32876   5.854   9.154   3.251  0.7240 -0.0901  0.8146
  239MOL0     C32877   5.834   9.200   3.122 -0.0655  0.1776 -0.4292
  239MOL0     C32878   5.921   9.296   3.071 -0.3146  0.9004  0.5791
  239MOL0     C32879   6.031   9.342   3.140  0.3725  0.5567 -0.4016
  239MOL0     O32880   6.127   9.403   3.070  0.5044 -0.0642  0.2198
  239MOL0     C32881   6.201   9.508   3.136 -0.3854  0.0574  0.4592
  239MOL0     C32882   6.274   9.574   3.020 -0.1719  0.1739 -0.2662
  239MOL0     C32883   6.384   9.499   2.951 -0.3115  0.8497 -0.4316
  239MOL0     C32884   6.522   9.505   3.037  0.8993 -0.2164  0.3154
  239MOL0     C32885   6.629   9.449   2.945  0.4840  1.3587  0.0962
  239MOL0     C32886   6.769   9.463   3.012  0.8027 -0.1860 -0.4764
  239MOL0     C32887   6.877   9.395   2.942  0.5578  0.3299  0.4435
  239MOL0     C32888   6.899   9.437   2.797 -0.4974 -0.5879  0.1577
  239MOL0    Cl32889   7.069   9.443   2.751 -0.4496 -0.1981  0.1025
  239MOL0     C32890   6.043   9.304   3.271  0.7807  0.7403  0.6840
  239MOL0     C32891   5.954   9.215   3.322  0.0084 -0.4866 -0.9060
  239MOL0     O32892   5.565   9.140   3.249  0.0390 -0.3599 -0.7125
  239MOL0     C32893   5.645   8.824   3.386 -0.3062  0.1588 -0.5444
  239MOL0     C32894   5.600   8.699   3.423 -0.6942  0.8887 -0.4108
  239MOL0     N32895   4.857   8.242   3.361  0.4699 -0.0980 -0.4183
  239MOL0     N32896   4.757   8.166   3.397 -0.1831  0.3462  1.5337
  239MOL0     C32897   3.871   8.625   4.003 -0.1071  0.3628 -0.0545
  239MOL0     C32898   3.759   8.709   4.014 -0.2630  0.0868  0.0970
  239MOL0     C32899   3.498   9.049   4.150 -0.7943  0.6586  0.5612
  239MOL0     C32900   3.473   9.168   4.219  1.2707 -0.3843 -0.5633
  239MOL0     C32901   3.353   9.243   4.193 -0.2961  0.4584 -0.1978
  239MOL0     C32902   3.249   9.191   4.105 -0.0878  0.6469 -0.2774
  239MOL0     O32903   3.124   9.246   4.092 -0.2876 -0.8985 -0.0176
  239MOL0     C32904   3.095   9.375   4.149 -0.2370 -0.3408  0.3136
  239MOL0     C32905   3.060   9.347   4.297  0.4766  0.3011 -0.5225
  239MOL0     C32906   2.905   9.346   4.307 -0.1462  0.0499  0.7232
  239MOL0     C32907   2.844   9.234   4.218  0.5398  0.0831 -0.8460
  239MOL0     C32908   2.695   9.246   4.229 -0.1744  0.7735 -1.1363
  239MOL0     C32909   2.574   9.242   4.246 -0.1990 -0.6357 -0.6938
  239MOL0     C32910   3.278   9.071   4.044 -0.6679  0.0208 -0.3369
  239MOL0     C32911   3.397   9.006   4.058 -0.0328 -0.4085 -0.2910
  239MOL0     C32912   3.421   8.880   3.968  0.0947 -0.0485 -0.0242
  239MOL0     H32913   3.813   8.794   4.335 -0.7349 -1.7684  0.1967
  239MOL0     H32914   4.011   8.669   4.312 -1.4139  0.6583  0.4797
  239MOL0     H32915   4.150   8.465   4.243  2.4639 -1.6087 -0.1323
  239MOL0     H32916   4.215   8.624   4.212  1.1325 -0.9124  1.5493
  239MOL0     H32917   4.389   8.542   4.067 -2.2422 -0.3835 -2.6340
  239MOL0     H32918   4.388   8.455   4.222 -0.1781  1.4545  1.1964
  239MOL0     H32919   4.296   8.255   4.096 -1.6417  0.0128  0.3599
  239MOL0     H32920   4.238   8.356   3.961  2.2385 -2.9650 -2.0999
  239MOL0     H32921   4.464   8.418   3.889  2.2827 -0.7469 -0.1625
  239MOL0     H32922   4.528   8.319   4.021  0.6677 -0.6719 -0.6435
  239MOL0     H32923   4.349   8.205   3.797  0.2882  0.4455 -1.6732
  239MOL0     H32924   4.424   8.116   3.940 -2.1499  0.9568  0.1433
  239MOL0     H32925   4.595   8.280   3.733 -0.2189 -0.5518 -1.2572
  239MOL0     H32926   4.648   8.156   3.845  0.5398  3.2787  1.6797
  239MOL0     H32927   4.486   8.172   3.587  1.9306  1.0633  1.0603
  239MOL0     H32928   4.466   8.018   3.678 -0.7287 -1.0180 -2.9462
  239MOL0     H32929   4.724   8.006   3.667  1.8339  0.1450 -2.3046
  239MOL0     H32930   4.634   7.981   3.513 -0.9756 -0.3417  0.2744
  239MOL0     H32931   4.857   8.268   3.692  2.0830  0.0785 -0.9114
  239MOL0     H32932   5.121   8.291   3.458  1.9825 -0.7983  1.7573
  239MOL0     H32933   5.061   8.351   3.613  1.1090 -3.0377 -0.7549
  239MOL0     H32934   5.046   8.480   3.339 -1.0523  2.4996 -0.2552
  239MOL0     H32935   4.990   8.562   3.484 -1.0271 -2.4351  1.9811
  239MOL0     H32936   5.215   8.654   3.445  1.4452  0.7379  1.3326
  239MOL0     H32937   5.236   8.526   3.574 -1.6719  0.1234  0.0885
  239MOL0     H32938   5.311   8.372   3.400  3.7171 -1.5058 -1.4918
  239MOL0     H32939   5.279   8.493   3.284  1.1129 -4.0921 -0.5066
  239MOL0     H32940   5.317   8.702   3.234  0.7116 -0.0395 -1.4176
  239MOL0     H32941   5.425   8.966   3.063  2.1073 -2.8561  0.0496
  239MOL0     H32942   5.330   9.027   3.203  0.4802 -0.8770  2.5254
  239MOL0     H32943   5.289   8.873   3.132  0.9317 -1.6121  1.5499
  239MOL0     H32944   5.764   9.151   3.055  3.1178 -3.8626 -1.2111
  239MOL0     H32945   5.911   9.313   2.964  2.1865 -0.6378  0.0004
  239MOL0     H32946   6.132   9.575   3.189  2.1398  2.1086  1.3610
  239MOL0     H32947   6.270   9.473   3.213 -2.1708 -2.5830  0.9969
  239MOL0     H32948   6.195   9.600   2.948 -1.2983 -0.2144  0.7939
  239MOL0     H32949   6.315   9.666   3.064  0.6745 -0.4720  0.3179
  239MOL0     H32950   6.412   9.546   2.857  0.8019 -1.0309 -1.0907
  239MOL0     H32951   6.358   9.393   2.941  2.8215  0.0464 -1.2801
  239MOL0     H32952   6.519   9.459   3.136  2.2150 -1.5546 -0.2358
  239MOL0     H32953   6.535   9.613   3.044  0.6987 -0.0257 -1.6968
  239MOL0     H32954   6.612   9.344   2.924  0.2308  1.7611 -1.8962
  239MOL0     H32955   6.626   9.506   2.852  0.2235  1.8300  0.3847
  239MOL0     H32956   6.768   9.413   3.109 -2.7031 -2.8560 -1.6749
  239MOL0     H32957   6.779   9.571   3.023  0.5286 -0.1679 -0.3948
  239MOL0     H32958   6.858   9.288   2.953  1.0567  0.3207  1.2772
  239MOL0     H32959   6.970   9.415   2.996 -0.1131 -3.0301  3.2046
  239MOL0     H32960   6.860   9.537   2.777 -0.6573 -0.5045  0.8524
  239MOL0     H32961   6.859   9.372   2.719 -1.2016  1.7445 -1.5568
  239MOL0     H32962   6.134   9.324   3.326 -0.0560  2.4186  1.5176
  239MOL0     H32963   5.975   9.182   3.423  0.7498  0.7591 -0.6381
  239MOL0     H32964   5.741   8.863   3.417 -1.2046  2.9605 -1.0298
  239MOL0     H32965   5.655   8.631   3.487  1.3622  3.2935  0.5445
  239MOL0     H32966   3.885   8.570   3.910  6.1881  0.5205  0.3455
  239MOL0     H32967   3.699   8.727   3.925  1.2983 -1.9360 -1.5018
  239MOL0     H32968   3.538   9.195   4.302  1.2863  0.8460 -0.9577
  239MOL0     H32969   3.337   9.331   4.255 -2.6602 -0.3480  0.4400
  239MOL0     H32970   3.178   9.445   4.152  0.0322 -0.6246 -0.4176
  239MOL0     H32971   3.014   9.428   4.098  0.1623  0.0940  0.1276
  239MOL0     H32972   3.101   9.425   4.363  0.5116 -0.8548  0.8696
  239MOL0     H32973   3.101   9.252   4.333  0.9512  0.6417 -0.1309
  239MOL0     H32974   2.872   9.321   4.408  1.8333  0.8156  1.6059
  239MOL0     H32975   2.867   9.447   4.289 -0.6408 -0.0760  1.0192
  239MOL0     H32976   2.876   9.136   4.255 -0.6079 -1.0786 -2.7200
  239MOL0     H32977   2.874   9.248   4.113  0.5802  1.3357 -0.6822
  239MOL0     H32978   2.469   9.255   4.257 -0.0394 -0.6442  1.1339
  239MOL0     H32979   3.199   9.022   3.988 -3.1112  3.3550 -0.1720
  239MOL0     H32980   3.328   8.856   3.915  0.5170  1.3467 -1.4803
  239MOL0     H32981   3.501   8.896   3.895  1.3510  1.0116  1.5306
  239MOL0     H32982   3.446   8.793   4.029 -0.3643  1.6296  2.7016
  240MOL0     O32983   1.627   5.516   9.631  0.0498 -0.2750  0.3874
  240MOL0     C32984   1.599   5.579   9.524 -0.9965 -0.7040 -1.0696
  240MOL0     O32985   1.686   5.594   9.419 -0.0450  0.4014  0.1836
  240MOL0     C32986   1.809   5.540   9.437  0.5646 -0.1934 -0.4106
  240MOL0     C32987   1.889   5.592   9.534  0.1212 -0.6243 -0.7078
  240MOL0     C32988   2.019   5.538   9.546  0.0610 -0.0429 -0.0341
  240MOL0     C32989   2.057   5.426   9.485 -0.1365  0.1299 -0.1414
  240MOL0     O32990   2.181   5.368   9.510  0.5069 -0.5365  0.5497
  240MOL0     C32991   2.237   5.274   9.422 -0.1458 -0.2357  0.7354
  240MOL0     C32992   2.374   5.253   9.474 -0.8166 -0.2068  0.3337
  240MOL0     C32993   2.444   5.139   9.400  0.7108 -0.6530 -0.0459
  240MOL0     C32994   2.589   5.126   9.451  0.4341  0.1711  0.2111
  240MOL0     C32995   2.669   5.036   9.356  0.5703 -0.1872 -0.3267
  240MOL0     C32996   2.594   4.924   9.285  0.2248  0.4753 -0.4110
  240MOL0     C32997   2.695   4.817   9.240  0.2096  1.0050  0.8675
  240MOL0     C32998   2.645   4.730   9.121  0.6529 -0.5638  0.2011
  240MOL0     N32999   2.762   4.644   9.075  0.5070  0.3528  0.2790
  240MOL0     C33000   2.829   4.554   9.153  0.2639 -0.2401 -0.7876
  240MOL0     C33001   2.918   4.500   9.073 -0.2623 -0.0193 -0.2579
  240MOL0     C33002   2.998   4.378   9.099  1.0861 -0.2225 -0.5354
  240MOL0     C33003   3.113   4.408   9.187 -0.3973 -0.2188 -0.9758
  240MOL0     C33004   3.238   4.314   9.203 -0.6141 -0.3726 -1.1533
  240MOL0     C33005   3.304   4.252   9.086 -1.2656 -0.7608 -1.2199
  240MOL0     O33006   3.444   4.289   9.074  0.0725 -0.5296 -0.2817
  240MOL0     C33007   3.480   4.421   9.059 -0.3062  0.1977  0.5991
  240MOL0     C33008   3.397   4.520   9.005  0.3306 -0.1189 -0.1940
  240MOL0     C33009   3.458   4.644   8.976  0.2583 -0.5346  0.2030
  240MOL0     C33010   3.359   4.742   8.902  0.1072  0.0313  0.8411
  240MOL0     C33011   3.591   4.671   9.012 -0.5097 -0.4242 -0.2808
  240MOL0     C33012   3.653   4.805   8.989 -0.3845  0.5774  0.0709
  240MOL0     O33013   3.734   4.846   9.088 -0.3120  0.8208  0.3004
  240MOL0     C33014   3.848   4.914   9.073  0.4039  0.7319  1.3217
  240MOL0     C33015   3.924   4.942   9.187 -0.5965  0.1495  0.7722
  240MOL0     C33016   4.040   5.024   9.166  0.1641 -0.8258 -1.4798
  240MOL0     C33017   4.094   5.052   9.041  0.2502  0.5636  0.5481
  240MOL0     O33018   4.215   5.106   9.011 -0.2606 -0.0485 -0.2952
  240MOL0     C33019   4.294   5.183   9.102 -0.2952  0.0515 -0.6857
  240MOL0     C33020   4.430   5.130   9.161 -0.1218  0.3795  0.0720
  240MOL0     C33021   4.419   4.987   9.225 -0.2556  0.4899  0.6918
  240MOL0     C33022   4.537   4.965   9.323 -0.8349  0.1358  0.1070
  240MOL0     C33023   4.525   4.834   9.396  0.2907  0.6858 -0.2923
  240MOL0     C33024   4.540   4.711   9.313  0.2417  0.2963  0.2324
  240MOL0     C33025   4.521   4.584   9.397  0.2872 -0.0158 -0.1380
  240MOL0     C33026   4.502   4.446   9.320  0.4652 -0.3692  0.1362
  240MOL0    Cl33027   4.365   4.451   9.205  0.6229  0.3825  0.1393
  240MOL0     C33028   4.020   5.019   8.929  0.2866 -0.5167 -0.2331
  240MOL0     C33029   3.892   4.953   8.942  0.0297  0.2796  1.6603
  240MOL0     O33030   3.620   4.872   8.893  0.1649  0.4745  0.2469
  240MOL0     C33031   3.674   4.561   9.063 -0.7711  0.0318  0.5049
  240MOL0     C33032   3.619   4.433   9.072 -0.6735  0.9763 -0.1141
  240MOL0     N33033   2.926   4.574   8.963 -0.4271 -0.5344 -0.0489
  240MOL0     N33034   2.837   4.667   8.964  0.1267  0.8617  0.1103
  240MOL0     C33035   1.974   5.375   9.384  0.0878  0.2682 -0.1161
  240MOL0     C33036   1.848   5.436   9.353  0.1904  1.2059 -0.3271
  240MOL0     C33037   1.462   5.591   9.492 -0.7341  0.1207  0.6290
  240MOL0     C33038   1.413   5.521   9.382  0.4711  0.7046  0.5969
  240MOL0     C33039   1.282   5.537   9.336  0.3957  0.4078 -0.9052
  240MOL0     C33040   1.196   5.619   9.404  0.0452  0.0860 -0.4537
  240MOL0     O33041   1.063   5.610   9.377 -0.1142  0.7251 -0.3242
  240MOL0     C33042   0.990   5.496   9.396  0.5081 -0.1115  0.6087
  240MOL0     C33043   0.975   5.446   9.546 -0.2726  0.2608  0.4750
  240MOL0     C33044   0.924   5.551   9.640 -0.7703 -0.1626  0.2656
  240MOL0     C33045   0.797   5.608   9.581  0.3316  0.2493  0.3420
  240MOL0     C33046   0.735   5.705   9.665 -0.4324 -0.3096  0.0884
  240MOL0     C33047   0.681   5.779   9.740  0.4360  0.0998  0.0135
  240MOL0     C33048   1.246   5.701   9.508  0.5116  1.6325 -0.1105
  240MOL0     C33049   1.372   5.680   9.558 -0.1273  0.0884  0.2623
  240MOL0     C33050   1.421   5.749   9.675  0.1068  0.0317 -0.3768
  240MOL0     H33051   1.858   5.663   9.610  1.5263 -1.8346  1.0757
  240MOL0     H33052   2.092   5.581   9.614 -1.9603  1.7447  1.1134
  240MOL0     H33053   2.241   5.311   9.319 -1.9238  0.8567  1.0014
  240MOL0     H33054   2.178   5.182   9.417 -0.3167 -0.2105  1.9897
  240MOL0     H33055   2.430   5.344   9.454 -1.8738  0.1223 -1.4554
  240MOL0     H33056   2.380   5.230   9.580 -0.7684 -3.3127 -0.2285
  240MOL0     H33057   2.383   5.048   9.401  1.0034 -0.8615 -0.9578
  240MOL0     H33058   2.448   5.166   9.294 -1.1988  1.1771  0.2741
  240MOL0     H33059   2.628   5.226   9.473 -2.9366  1.3995  1.1708
  240MOL0     H33060   2.581   5.071   9.545 -2.4040 -1.0683 -0.6507
  240MOL0     H33061   2.751   4.996   9.416 -0.8576 -0.5570  1.4775
  240MOL0     H33062   2.715   5.109   9.289 -2.6687  1.3804 -1.0070
  240MOL0     H33063   2.521   4.885   9.357  0.0786  1.0618 -0.2367
  240MOL0     H33064   2.543   4.959   9.195 -0.2306 -1.0351 -0.7624
  240MOL0     H33065   2.707   4.757   9.330 -0.9623  1.1350  1.1281
  240MOL0     H33066   2.789   4.866   9.211  1.1334 -1.7104 -1.1541
  240MOL0     H33067   2.558   4.669   9.150 -0.6525  1.7174  1.3533
  240MOL0     H33068   2.602   4.781   9.034  1.9199 -2.1518 -1.4284
  240MOL0     H33069   2.795   4.516   9.249  1.7734  0.5495  0.0932
  240MOL0     H33070   3.038   4.345   9.003  0.7946 -1.9796 -0.0810
  240MOL0     H33071   2.941   4.299   9.148 -0.2718  1.3915  0.6030
  240MOL0     H33072   3.160   4.503   9.160  2.6984 -1.7645 -1.4618
  240MOL0     H33073   3.069   4.420   9.287  1.0147 -3.1582  0.1188
  240MOL0     H33074   3.301   4.379   9.264 -1.2304 -1.6942  1.0072
  240MOL0     H33075   3.212   4.233   9.273  1.7065 -1.5924 -1.5920
  240MOL0     H33076   3.304   4.143   9.098  2.2543 -0.6415  1.3519
  240MOL0     H33077   3.236   4.275   9.003 -3.9358 -0.4647  0.9049
  240MOL0     H33078   3.290   4.507   8.992  0.2647  1.8706 -2.6341
  240MOL0     H33079   3.372   4.842   8.945  3.9153 -0.1086  0.3702
  240MOL0     H33080   3.257   4.708   8.920  0.3409 -0.0151  2.2074
  240MOL0     H33081   3.380   4.746   8.795  0.5898  4.1188  0.9114
  240MOL0     H33082   3.902   4.905   9.286  2.0468 -0.4509  1.2206
  240MOL0     H33083   4.110   5.046   9.246  0.1278  0.3075 -1.7359
  240MOL0     H33084   4.319   5.285   9.072  2.2210  0.5853  2.6072
  240MOL0     H33085   4.235   5.201   9.192 -0.6642 -0.2264 -0.8714
  240MOL0     H33086   4.512   5.129   9.088 -0.5960  0.4719 -0.4710
  240MOL0     H33087   4.462   5.196   9.241  0.2194  1.1768 -0.7114
  240MOL0     H33088   4.434   4.906   9.153  1.1567 -0.0409  1.5387
  240MOL0     H33089   4.320   4.977   9.268 -0.4414 -1.0031 -0.0078
  240MOL0     H33090   4.547   5.051   9.390  0.2631  1.2565 -1.4106
  240MOL0     H33091   4.632   4.962   9.269 -0.8135 -2.5290  0.1618
  240MOL0     H33092   4.602   4.829   9.473  1.4482  0.3129 -1.4447
  240MOL0     H33093   4.427   4.838   9.444  0.0563  0.5202 -0.7455
  240MOL0     H33094   4.642   4.699   9.276  0.5004 -1.6686  1.4587
  240MOL0     H33095   4.475   4.699   9.226  1.1860  0.3917 -0.4998
  240MOL0     H33096   4.435   4.606   9.460 -1.6368 -2.0479 -1.8672
  240MOL0     H33097   4.604   4.568   9.466  1.5270 -0.2287 -1.6212
  240MOL0     H33098   4.479   4.376   9.400  2.9773  0.4058  1.6355
  240MOL0     H33099   4.592   4.413   9.267  2.0816  0.1689  2.3922
  240MOL0     H33100   4.058   5.045   8.830 -1.0770 -0.0299 -0.6496
  240MOL0     H33101   3.837   4.947   8.849  2.8297 -1.3376 -0.0147
  240MOL0     H33102   3.777   4.576   9.092 -0.1278  0.0024 -1.5649
  240MOL0     H33103   3.678   4.345   9.092  0.8406  1.7505 -0.9581
  240MOL0     H33104   2.015   5.307   9.309 -0.0394 -0.3284  0.3472
  240MOL0     H33105   1.793   5.398   9.268  0.3799  0.8973 -0.3106
  240MOL0     H33106   1.469   5.454   9.319  0.8830  0.4124  1.2646
  240MOL0     H33107   1.250   5.473   9.254  1.3926 -2.1791  0.6012
  240MOL0     H33108   0.894   5.528   9.355  0.5384 -0.3842  0.3261
  240MOL0     H33109   1.040   5.425   9.329 -0.0288 -0.3984  0.5069
  240MOL0     H33110   1.071   5.408   9.583  2.3133  1.2082 -4.4194
  240MOL0     H33111   0.910   5.358   9.550  1.5542 -1.1481  0.2735
  240MOL0     H33112   0.904   5.510   9.740 -1.2990 -0.3173  0.0964
  240MOL0     H33113   0.998   5.630   9.657 -1.2001  0.3827 -0.3949
  240MOL0     H33114   0.723   5.531   9.556 -0.8549  1.0672  1.2485
  240MOL0     H33115   0.827   5.662   9.491  1.1809 -1.0564 -0.1900
  240MOL0     H33116   0.630   5.844   9.808 -0.0928  0.2246 -0.4874
  240MOL0     H33117   1.168   5.755   9.560 -1.5641 -0.5945 -0.7279
  240MOL0     H33118   1.427   5.681   9.761  0.2055  1.5853  0.8931
  240MOL0     H33119   1.515   5.798   9.648  0.5203 -0.6782 -0.2676
  240MOL0     H33120   1.366   5.839   9.704  2.0060  0.6931  1.4305
  241MOL0     O33121   7.361   4.894   9.273 -0.1938  0.2118 -0.2513
  241MOL0     C33122   7.352   5.017   9.288  0.9297  0.7525 -0.1377
  241MOL0     O33123   7.396   5.112   9.195 -0.2328 -0.2448  0.7182
  241MOL0     C33124   7.438   5.076   9.074 -0.2417  0.1638  0.7436
  241MOL0     C33125   7.516   5.177   9.025  0.0436 -0.0829  0.0400
  241MOL0     C33126   7.590   5.154   8.908  0.1156  0.4862  1.2689
  241MOL0     C33127   7.584   5.033   8.841 -0.0834  0.0330  0.4885
  241MOL0     O33128   7.654   5.001   8.726  0.3002 -0.7447  0.8123
  241MOL0     C33129   7.781   5.053   8.718 -0.8604 -0.9821  0.6928
  241MOL0     C33130   7.852   4.978   8.604 -0.7035 -0.4149 -0.0056
  241MOL0     C33131   7.993   5.026   8.580  0.1121 -0.0138  0.8292
  241MOL0     C33132   8.088   4.987   8.684  0.0592  1.3116 -0.0586
  241MOL0     C33133   8.234   5.016   8.645  0.5568 -0.2703  0.5798
  241MOL0     C33134   8.334   4.949   8.746 -0.5561 -0.0320 -0.5975
  241MOL0     C33135   8.322   5.006   8.893 -0.2027  0.3990 -0.1631
  241MOL0     C33136   8.363   5.151   8.907  0.3496  0.1041 -0.3352
  241MOL0     N33137   8.333   5.198   9.046  0.3457  0.9108  0.2285
  241MOL0     C33138   8.392   5.151   9.155  0.2588 -0.0232 -0.1888
  241MOL0     C33139   8.325   5.216   9.252 -0.3239 -0.2519 -0.1290
  241MOL0     C33140   8.345   5.188   9.395 -0.2075  0.4489  0.5498
  241MOL0     C33141   8.488   5.152   9.439  0.0865  0.4941 -0.3689
  241MOL0     C33142   8.588   5.268   9.413  1.1582 -0.8965 -0.3138
  241MOL0     C33143   8.734   5.221   9.439  0.4861 -0.5531 -0.1414
  241MOL0     O33144   8.811   5.330   9.392 -0.0052 -0.3953 -0.6829
  241MOL0     C33145   8.948   5.307   9.390  0.2019  0.5841  0.2234
  241MOL0     C33146   9.030   5.420   9.370  0.3941 -0.4666  0.0494
  241MOL0     C33147   9.169   5.411   9.351  0.5143  0.2729  0.5211
  241MOL0     C33148   9.244   5.542   9.320  0.4600  0.0426 -0.6529
  241MOL0     C33149   9.234   5.285   9.358  0.1532  0.6715 -0.0455
  241MOL0     C33150   9.381   5.258   9.342 -0.2895  0.7946  0.8931
  241MOL0     O33151   9.412   5.133   9.287 -0.1786 -0.1252 -0.2073
  241MOL0     C33152   9.539   5.094   9.280  0.2710 -0.2655 -0.0420
  241MOL0     C33153   9.566   4.981   9.351  0.1295 -0.6044  0.7229
  241MOL0     C33154   9.700   4.932   9.350  0.0475  0.6832  0.2758
  241MOL0     C33155   9.798   4.978   9.259  0.5048 -0.0226  0.5267
  241MOL0     O33156   9.920   4.919   9.244 -0.2381 -0.8605 -0.0841
  241MOL0     C33157  10.006   4.959   9.357 -0.0344 -0.3150  0.3227
  241MOL0     C33158  10.141   4.884   9.325 -0.2628 -0.0058  0.5044
  241MOL0     C33159  10.258   4.946   9.387  0.8416  0.0156  0.4565
  241MOL0     C33160  10.392   4.872   9.371 -0.0931  0.2706 -0.6857
  241MOL0     C33161  10.497   4.956   9.436  0.8232  0.0425 -0.4581
  241MOL0     C33162  10.626   4.879   9.437  0.0882 -0.8175 -0.6170
  241MOL0     C33163  10.708   4.934   9.554  0.7472  0.3889  0.0628
  241MOL0     C33164  10.664   4.893   9.701  0.0175  0.1365 -0.0277
  241MOL0    Cl33165  10.744   4.740   9.754 -0.1294 -0.0220  0.3081
  241MOL0     C33166   9.764   5.091   9.181 -0.2338 -0.1728  0.2452
  241MOL0     C33167   9.643   5.153   9.204  0.7779 -0.8273 -0.2766
  241MOL0     O33168   9.472   5.340   9.373 -0.7574  0.7421 -0.3539
  241MOL0     C33169   9.154   5.176   9.387  0.2147  0.0354  0.8305
  241MOL0     C33170   9.015   5.186   9.398  0.0927 -0.0493  0.3005
  241MOL0     N33171   8.227   5.296   9.199  0.0838  0.2044  0.1026
  241MOL0     N33172   8.230   5.279   9.078  0.1268 -0.4658 -0.0975
  241MOL0     C33173   7.497   4.939   8.886  0.3789  0.7111 -0.0213
  241MOL0     C33174   7.422   4.954   9.006 -0.2548  0.1277 -0.2579
  241MOL0     C33175   7.310   5.067   9.423 -0.1520  0.2385 -0.5188
  241MOL0     C33176   7.349   5.195   9.460  0.7853  0.4280  0.2554
  241MOL0     C33177   7.323   5.251   9.583 -0.2921  1.1179 -0.3117
  241MOL0     C33178   7.261   5.169   9.674 -1.1963 -0.5409 -0.3135
  241MOL0     O33179   7.238   5.208   9.804  0.4082  0.0402  0.2318
  241MOL0     C33180   7.354   5.236   9.887  0.4894  0.4193  0.3137
  241MOL0     C33181   7.367   5.141  10.003  0.0845 -0.1614 -0.3822
  241MOL0     C33182   7.429   5.007   9.965  0.3499 -0.1970  0.1666
  241MOL0     C33183   7.506   4.945  10.087 -0.0222 -0.2747 -0.7443
  241MOL0     C33184   7.634   5.015  10.114  0.7924  0.0125 -0.8897
  241MOL0     C33185   7.737   5.071  10.142  0.3412  0.5667  0.5695
  241MOL0     C33186   7.212   5.046   9.643  0.7904 -0.7818  0.0525
  241MOL0     C33187   7.230   5.001   9.510  0.3031  0.3481  0.4859
  241MOL0     C33188   7.149   4.882   9.481 -0.3520  0.2691  0.2758
  241MOL0     H33189   7.534   5.270   9.078 -0.7475  0.4518 -0.6019
  241MOL0     H33190   7.654   5.234   8.871  0.7413 -0.6942 -0.3519
  241MOL0     H33191   7.840   5.056   8.810  1.5277  0.7649 -0.7650
  241MOL0     H33192   7.759   5.158   8.692  0.0845 -0.8876  0.2167
  241MOL0     H33193   7.845   4.872   8.629 -3.5084 -0.6333 -1.3456
  241MOL0     H33194   7.790   4.984   8.515 -0.8330  0.7263  0.1436
  241MOL0     H33195   8.034   4.999   8.482 -0.6920  0.1406  0.4489
  241MOL0     H33196   7.981   5.135   8.577  1.7755  0.1779 -1.3009
  241MOL0     H33197   8.071   5.026   8.785  1.2555  1.0035  0.2798
  241MOL0     H33198   8.082   4.878   8.700  0.6402  1.1491 -0.8546
  241MOL0     H33199   8.252   5.124   8.642  2.4324 -0.5260  1.2527
  241MOL0     H33200   8.248   4.982   8.542  1.7525  4.3555 -1.0084
  241MOL0     H33201   8.321   4.841   8.749 -0.0382 -0.0715  0.2492
  241MOL0     H33202   8.436   4.967   8.712 -0.4888  0.9546  0.0772
  241MOL0     H33203   8.386   4.937   8.950 -0.2960 -1.9018 -2.6720
  241MOL0     H33204   8.223   4.993   8.937 -0.3029 -1.5196 -0.8768
  241MOL0     H33205   8.470   5.158   8.886  0.3457 -2.9712 -1.8751
  241MOL0     H33206   8.312   5.226   8.848  1.4779  0.4720 -0.8664
  241MOL0     H33207   8.461   5.069   9.172  0.6685  0.5632  1.1232
  241MOL0     H33208   8.274   5.108   9.417  1.3436 -0.9722  0.5152
  241MOL0     H33209   8.315   5.275   9.455  0.5849 -2.0862  5.0147
  241MOL0     H33210   8.479   5.117   9.542  1.2300 -4.4121 -1.6912
  241MOL0     H33211   8.518   5.057   9.394  0.3616  0.0215  0.7741
  241MOL0     H33212   8.566   5.308   9.314  2.2773  3.3244  0.9711
  241MOL0     H33213   8.560   5.352   9.477 -2.4781 -1.7252 -0.5797
  241MOL0     H33214   8.748   5.197   9.545 -1.8249 -3.1617 -0.3415
  241MOL0     H33215   8.745   5.127   9.385  3.3327 -1.3922  1.6575
  241MOL0     H33216   8.983   5.518   9.375 -0.2576 -0.7908  0.3291
  241MOL0     H33217   9.195   5.607   9.247 -0.1626  0.6378  0.2627
  241MOL0     H33218   9.346   5.521   9.289  1.5443  1.9661  1.2693
  241MOL0     H33219   9.263   5.605   9.408  0.7304 -0.4456 -0.3576
  241MOL0     H33220   9.478   4.936   9.396 -1.1920  0.5019 -0.6508
  241MOL0     H33221   9.727   4.842   9.404 -1.4971  1.2547  2.1036
  241MOL0     H33222  10.011   5.068   9.368 -1.4136 -0.4147  2.2963
  241MOL0     H33223   9.967   4.920   9.451  3.1248 -1.8037  1.1362
  241MOL0     H33224  10.132   4.778   9.350  0.1623 -0.2322 -0.2492
  241MOL0     H33225  10.150   4.880   9.216 -1.1521 -2.9776  0.4391
  241MOL0     H33226  10.234   4.961   9.493  1.0788  0.0725  0.5028
  241MOL0     H33227  10.261   5.042   9.335 -0.7388 -0.9648 -1.5976
  241MOL0     H33228  10.427   4.865   9.267 -1.1498  0.1218 -1.0485
  241MOL0     H33229  10.384   4.766   9.394 -1.1668  0.2683 -0.9950
  241MOL0     H33230  10.510   5.050   9.383 -2.6194  2.7088  2.8840
  241MOL0     H33231  10.454   4.965   9.536  0.9755  0.6229 -0.4465
  241MOL0     H33232  10.670   4.917   9.344  1.3027  0.9290  0.6047
  241MOL0     H33233  10.617   4.770   9.430  2.3684 -0.9581 -2.6596
  241MOL0     H33234  10.702   5.043   9.550 -2.4350  0.3033 -0.4370
  241MOL0     H33235  10.815   4.919   9.543  0.7537  0.1622  0.3987
  241MOL0     H33236  10.556   4.881   9.710  0.2552 -0.9563  1.7978
  241MOL0     H33237  10.691   4.972   9.771 -0.7285  1.1119 -0.8147
  241MOL0     H33238   9.831   5.130   9.105 -0.5914 -0.2806 -0.1310
  241MOL0     H33239   9.613   5.244   9.154  1.8982 -0.9737 -1.2580
  241MOL0     H33240   9.189   5.074   9.400 -0.3983 -0.5917 -1.7766
  241MOL0     H33241   8.973   5.090   9.425  1.3091 -0.0503  2.4138
  241MOL0     H33242   7.503   4.840   8.841 -2.0168  0.0556  0.9356
  241MOL0     H33243   7.358   4.881   9.055 -0.9976 -0.1378 -1.5825
  241MOL0     H33244   7.386   5.267   9.388  1.7242  0.8623  1.1378
  241MOL0     H33245   7.355   5.352   9.611 -0.2118  0.8636  0.5504
  241MOL0     H33246   7.444   5.249   9.826  1.0139 -0.4459  0.8824
  241MOL0     H33247   7.341   5.329   9.943  2.0868 -0.0572  1.5231
  241MOL0     H33248   7.262   5.128  10.031 -0.1556  0.2673 -1.0528
  241MOL0     H33249   7.425   5.175  10.089 -0.9620 -0.6452  0.5460
  241MOL0     H33250   7.354   4.948   9.913 -0.3056  0.8636 -0.1344
  241MOL0     H33251   7.507   5.026   9.890 -2.1760  3.5811 -1.8452
  241MOL0     H33252   7.544   4.848  10.054  2.5600  0.7517 -1.0366
  241MOL0     H33253   7.447   4.943  10.179 -0.9672  2.2900 -1.2249
  241MOL0     H33254   7.825   5.122  10.178  0.0028 -0.3675  2.9590
  241MOL0     H33255   7.148   4.993   9.713 -2.5480 -0.5371 -2.5768
  241MOL0     H33256   7.082   4.910   9.398 -2.2159 -2.8078  0.6065
  241MOL0     H33257   7.213   4.799   9.449  2.4726  2.4492 -0.2032
  241MOL0     H33258   7.099   4.839   9.568 -0.9990  0.6108  0.0803
  242MOL0     O33259   7.861   6.454   1.167 -0.1731 -0.1872  0.0870
  242MOL0     C33260   7.866   6.575   1.155 -0.4455 -0.7221  0.2880
  242MOL0     O33261   7.980   6.655   1.134 -0.0254  0.2995  0.5849
  242MOL0     C33262   8.104   6.608   1.169  0.2412 -0.8496  0.7448
  242MOL0     C33263   8.139   6.603   1.306 -0.1573 -0.1938  0.0554
  242MOL0     C33264   8.267   6.569   1.344 -0.0446 -0.1501  0.1018
  242MOL0     C33265   8.360   6.541   1.246  0.5994  0.8896 -0.3557
  242MOL0     O33266   8.493   6.513   1.276  0.0196 -0.1338 -0.0307
  242MOL0     C33267   8.563   6.425   1.189  0.5920 -0.0561 -0.1263
  242MOL0     C33268   8.674   6.375   1.277 -0.0484  0.5419 -0.7955
  242MOL0     C33269   8.795   6.461   1.302  0.0081  0.2555 -0.3702
  242MOL0     C33270   8.775   6.576   1.408  0.0452 -0.2805 -0.0607
  242MOL0     C33271   8.897   6.666   1.418 -0.1762 -0.0162  0.2859
  242MOL0     C33272   9.021   6.591   1.446 -0.5827 -0.9615  0.6515
  242MOL0     C33273   9.144   6.669   1.496  0.6548 -0.5491  0.0394
  242MOL0     C33274   9.194   6.787   1.419  0.1420  0.3940  0.1196
  242MOL0     N33275   9.304   6.847   1.500  0.3505 -0.6485 -0.7071
  242MOL0     C33276   9.422   6.795   1.560  0.3626 -1.0496 -0.1206
  242MOL0     C33277   9.483   6.906   1.616 -0.6022 -0.2126 -0.3968
  242MOL0     C33278   9.621   6.897   1.676  0.5113  0.2284  0.2764
  242MOL0     C33279   9.728   6.960   1.583 -0.5413  0.2662  0.0699
  242MOL0     C33280   9.863   6.927   1.632 -0.0678 -0.3045  0.0162
  242MOL0     C33281   9.903   6.983   1.763  0.3978  1.0020  0.0616
  242MOL0     O33282   9.854   6.895   1.872  0.0978 -0.7562 -0.0514
  242MOL0     C33283   9.828   6.948   1.998  0.3668 -0.3842 -0.6289
  242MOL0     C33284   9.774   6.858   2.079 -0.2302  0.1374 -0.6922
  242MOL0     C33285   9.742   6.890   2.218 -0.8059 -0.6193  0.4697
  242MOL0     C33286   9.678   6.774   2.297  0.0139  0.0314 -0.0724
  242MOL0     C33287   9.776   7.029   2.260  0.6488 -0.1420 -1.0294
  242MOL0     C33288   9.761   7.081   2.395  0.3202 -0.2718 -0.3746
  242MOL0     O33289   9.841   7.183   2.439  0.2906 -0.3802 -0.1078
  242MOL0     C33290   9.797   7.273   2.532  1.0372  0.1086  0.4029
  242MOL0     C33291   9.887   7.321   2.627  0.4755  0.2962  0.3075
  242MOL0     C33292   9.842   7.417   2.725 -0.2091 -0.9476 -0.0878
  242MOL0     C33293   9.718   7.483   2.725  0.2366  0.4953 -0.2754
  242MOL0     O33294   9.676   7.587   2.803  0.7441 -0.3681 -0.7830
  242MOL0     C33295   9.762   7.674   2.872 -0.6899 -0.0980 -0.1262
  242MOL0     C33296   9.702   7.815   2.907 -0.0688  0.2891 -0.4885
  242MOL0     C33297   9.804   7.906   2.969  0.6988 -0.5554 -0.4865
  242MOL0     C33298   9.746   8.039   3.030  0.0722  0.6750  0.6854
  242MOL0     C33299   9.823   8.096   3.147 -0.3144 -1.4936  0.0303
  242MOL0     C33300   9.968   8.120   3.110  0.1905 -1.2647 -0.4154
  242MOL0     C33301   9.979   8.255   3.018  0.0099 -0.5765 -0.0833
  242MOL0     C33302  10.126   8.312   3.040  0.3527  0.2032 -0.5589
  242MOL0    Cl33303  10.170   8.426   2.916 -0.0942  0.4266  0.3450
  242MOL0     C33304   9.630   7.431   2.629 -0.2261 -0.6723 -0.3109
  242MOL0     C33305   9.672   7.337   2.535 -0.2529 -0.0769 -0.0246
  242MOL0     O33306   9.669   7.038   2.467  0.1220  0.3044 -0.0999
  242MOL0     C33307   9.827   7.117   2.174 -0.2758  0.6811 -0.2729
  242MOL0     C33308   9.857   7.081   2.042  0.1236  1.1075  0.2415
  242MOL0     N33309   9.420   7.023   1.585  0.1511 -0.1444 -0.2248
  242MOL0     N33310   9.313   6.986   1.518  0.3906  0.9531 -0.1602
  242MOL0     C33311   8.320   6.557   1.109 -0.9447 -0.0264 -0.9517
  242MOL0     C33312   8.199   6.593   1.064 -0.2906 -0.0565 -0.5513
  242MOL0     C33313   7.730   6.634   1.150 -0.6278 -0.5635  0.1212
  242MOL0     C33314   7.722   6.768   1.185  0.0455  0.9204 -0.8692
  242MOL0     C33315   7.612   6.848   1.165 -0.2079 -0.0586 -0.3030
  242MOL0     C33316   7.488   6.788   1.138 -0.8704 -0.4950  1.2017
  242MOL0     O33317   7.382   6.867   1.145  0.1930  0.2898  0.4585
  242MOL0     C33318   7.257   6.817   1.186  0.3780  0.1467 -0.5723
  242MOL0     C33319   7.170   6.911   1.282 -0.0915 -0.5444  0.4469
  242MOL0     C33320   7.230   6.967   1.412  0.5155  0.1133  0.3119
  242MOL0     C33321   7.344   6.893   1.462 -0.4586 -0.5193  0.6099
  242MOL0     C33322   7.368   6.950   1.596  1.2208 -0.0230  0.7979
  242MOL0     C33323   7.389   7.004   1.698 -0.1827 -1.3708 -0.0611
  242MOL0     C33324   7.492   6.654   1.106  0.4787  0.0404  0.0672
  242MOL0     C33325   7.606   6.576   1.113 -0.7793 -0.0397 -0.5032
  242MOL0     C33326   7.595   6.436   1.061  0.3960 -0.1116 -0.3808
  242MOL0     H33327   8.057   6.624   1.375 -1.6116 -3.0938 -0.6219
  242MOL0     H33328   8.299   6.545   1.445  0.2257 -2.3614 -0.4459
  242MOL0     H33329   8.604   6.475   1.101 -1.6429  0.0076 -1.2175
  242MOL0     H33330   8.487   6.352   1.161 -1.5553  1.2190  1.8884
  242MOL0     H33331   8.634   6.353   1.376  1.8574  2.1528  0.4202
  242MOL0     H33332   8.715   6.282   1.237  1.2572  0.7035  0.0917
  242MOL0     H33333   8.863   6.383   1.339 -1.0613 -1.0910 -1.1230
  242MOL0     H33334   8.830   6.509   1.210  1.1470  1.2064  0.5387
  242MOL0     H33335   8.685   6.630   1.378 -0.2730  0.3636  1.9302
  242MOL0     H33336   8.758   6.532   1.507  3.0262  1.3875  1.3285
  242MOL0     H33337   8.870   6.733   1.500  0.6659 -0.0878  0.6251
  242MOL0     H33338   8.929   6.729   1.334  1.9572 -0.7792  0.4682
  242MOL0     H33339   9.006   6.528   1.534  0.5806  1.3953  2.6405
  242MOL0     H33340   9.054   6.529   1.362  0.2827  1.9973 -1.3269
  242MOL0     H33341   9.221   6.592   1.500  3.8116  2.4279  1.8791
  242MOL0     H33342   9.109   6.715   1.589 -3.0954  0.1215 -1.5040
  242MOL0     H33343   9.240   6.747   1.328  2.6875  1.3816  0.8661
  242MOL0     H33344   9.109   6.850   1.392  0.2147  0.3810 -0.1455
  242MOL0     H33345   9.463   6.698   1.534 -0.4530 -1.5471  0.4226
  242MOL0     H33346   9.652   6.792   1.673 -0.6761 -0.1454  0.8903
  242MOL0     H33347   9.631   6.945   1.774  2.8173  2.5335 -0.9681
  242MOL0     H33348   9.723   6.919   1.482  0.9444  0.2567 -0.0260
  242MOL0     H33349   9.719   7.066   1.561  0.8511  0.2573 -0.6489
  242MOL0     H33350   9.895   6.823   1.620 -2.7727 -1.2899  0.6401
  242MOL0     H33351   9.920   6.986   1.559 -1.3601 -1.8197 -2.3171
  242MOL0     H33352  10.011   6.983   1.777  0.3388  2.0994  0.6461
  242MOL0     H33353   9.871   7.087   1.770  0.5960  1.0132  0.8995
  242MOL0     H33354   9.753   6.755   2.051 -4.0616  0.0455  1.7787
  242MOL0     H33355   9.754   6.707   2.338 -0.1343 -2.5683 -3.5511
  242MOL0     H33356   9.607   6.718   2.236  0.6140 -0.1460 -0.6068
  242MOL0     H33357   9.618   6.812   2.381  0.4552 -1.1832  0.8109
  242MOL0     H33358   9.989   7.288   2.642  0.2625 -1.3785 -1.5976
  242MOL0     H33359   9.909   7.466   2.794 -0.8113  0.7208 -0.6378
  242MOL0     H33360   9.782   7.617   2.963 -0.4911 -1.8727 -1.2320
  242MOL0     H33361   9.854   7.677   2.813 -0.2920  1.3066  0.5357
  242MOL0     H33362   9.666   7.873   2.821  0.7443  1.8263  0.1568
  242MOL0     H33363   9.620   7.799   2.977  1.6537 -0.1832  1.5071
  242MOL0     H33364   9.874   7.929   2.888  3.0245 -0.7541  1.3777
  242MOL0     H33365   9.858   7.847   3.043  1.6110 -0.6253 -1.1863
  242MOL0     H33366   9.643   8.021   3.061  0.5799  0.2542  2.2330
  242MOL0     H33367   9.751   8.109   2.946  0.2542  0.1551  0.2517
  242MOL0     H33368   9.768   8.185   3.179 -0.3238 -2.5004  3.1729
  242MOL0     H33369   9.829   8.024   3.229  4.1065  0.7375  2.0002
  242MOL0     H33370  10.009   8.028   3.068  1.4203 -1.2130  0.6387
  242MOL0     H33371  10.027   8.138   3.199 -0.2901 -0.1377 -0.2975
  242MOL0     H33372   9.905   8.328   3.052  0.4202  0.8214 -2.0245
  242MOL0     H33373   9.974   8.229   2.912  0.3535 -1.8649  0.1988
  242MOL0     H33374  10.204   8.235   3.037  1.8500  1.6435 -0.2179
  242MOL0     H33375  10.127   8.358   3.139  1.2942 -0.1632 -0.3845
  242MOL0     H33376   9.536   7.484   2.626  0.7599  1.2583  1.0456
  242MOL0     H33377   9.606   7.334   2.448 -0.2857  2.2179 -0.1499
  242MOL0     H33378   9.843   7.219   2.207 -2.0228  1.4777 -1.6792
  242MOL0     H33379   9.899   7.155   1.974  1.1841 -0.9221 -1.4162
  242MOL0     H33380   8.397   6.548   1.033  2.0908  0.9319  1.7763
  242MOL0     H33381   8.163   6.618   0.965 -1.2845 -0.1760 -0.2328
  242MOL0     H33382   7.815   6.819   1.210  0.9623  1.4042 -4.6123
  242MOL0     H33383   7.618   6.952   1.194 -0.5875 -0.6695  2.2097
  242MOL0     H33384   7.198   6.777   1.102 -1.1238 -1.5330  1.1886
  242MOL0     H33385   7.278   6.727   1.245 -3.4195  0.9486  2.3563
  242MOL0     H33386   7.094   6.844   1.322 -0.7910 -1.7522 -2.5873
  242MOL0     H33387   7.120   6.987   1.221  0.5958  1.3151  2.0811
  242MOL0     H33388   7.266   7.068   1.391  1.7763 -0.5404 -0.8409
  242MOL0     H33389   7.152   6.969   1.489  0.0055 -1.0769 -0.1417
  242MOL0     H33390   7.434   6.904   1.401 -0.2212 -0.5391  0.9474
  242MOL0     H33391   7.324   6.786   1.476 -4.0215  0.0506  0.6996
  242MOL0     H33392   7.414   7.066   1.782  1.3046  1.7327 -2.5902
  242MOL0     H33393   7.401   6.604   1.077  0.3585  1.4052 -2.0851
  242MOL0     H33394   7.676   6.411   0.992  0.5354  2.9108 -1.4358
  242MOL0     H33395   7.605   6.365   1.144  2.3315 -0.6226 -1.0015
  242MOL0     H33396   7.504   6.405   1.010 -0.1231 -2.4054  1.7497
  243MOL0     O33397   3.375   1.551   5.451 -0.0588 -0.4185 -0.5828
  243MOL0     C33398   3.339   1.438   5.437  0.2491  0.4336 -0.3036
  243MOL0     O33399   3.403   1.325   5.486 -0.0231 -0.6909 -0.0615
  243MOL0     C33400   3.517   1.338   5.569 -0.1144 -0.1977 -0.4863
  243MOL0     C33401   3.554   1.455   5.644  0.2404  0.1409 -0.0164
  243MOL0     C33402   3.679   1.454   5.711 -0.2458  1.0714  0.0102
  243MOL0     C33403   3.755   1.338   5.717  0.3572 -0.0071 -0.1367
  243MOL0     O33404   3.885   1.327   5.760  0.1336 -0.1758 -0.4409
  243MOL0     C33405   3.945   1.432   5.845 -0.3232  0.6834  0.7889
  243MOL0     C33406   4.089   1.377   5.873  1.1617 -0.0308  0.6459
  243MOL0     C33407   4.165   1.468   5.968 -0.2835 -0.0086 -0.3466
  243MOL0     C33408   4.265   1.392   6.061  0.4439  0.2814  0.9140
  243MOL0     C33409   4.345   1.492   6.144  0.7914  0.2278  0.4119
  243MOL0     C33410   4.422   1.421   6.248 -0.2801 -0.1089  0.2827
  243MOL0     C33411   4.490   1.514   6.346  0.7347 -0.7467 -0.4601
  243MOL0     C33412   4.536   1.635   6.278 -0.7523 -0.3579 -0.7832
  243MOL0     N33413   4.633   1.708   6.356 -0.0390 -0.6263 -0.4531
  243MOL0     C33414   4.767   1.676   6.378  0.3025 -0.2408  0.1497
  243MOL0     C33415   4.829   1.790   6.423 -0.1378  0.1117 -0.5790
  243MOL0     C33416   4.970   1.808   6.465 -1.0661  0.1422 -0.5650
  243MOL0     C33417   5.075   1.779   6.363 -0.7312  0.4537 -0.6752
  243MOL0     C33418   5.070   1.867   6.241 -0.2595  0.3598  0.2375
  243MOL0     C33419   5.161   1.838   6.120 -0.4575  0.8362 -0.5987
  243MOL0     O33420   5.299   1.875   6.156  0.6400  0.2206 -0.1126
  243MOL0     C33421   5.393   1.845   6.059 -0.2249  0.6910  0.3173
  243MOL0     C33422   5.375   1.752   5.955 -0.9603  0.2754  0.4457
  243MOL0     C33423   5.484   1.719   5.865  0.3762  0.0039 -0.0636
  243MOL0     C33424   5.446   1.599   5.774 -0.0559 -0.2882  0.1685
  243MOL0     C33425   5.607   1.795   5.878 -0.2106 -0.0308 -0.7088
  243MOL0     C33426   5.736   1.760   5.801 -0.1937  0.7116 -0.4834
  243MOL0     O33427   5.851   1.826   5.837 -0.1440 -0.1971 -0.5371
  243MOL0     C33428   5.974   1.799   5.800 -0.6177  0.4071 -0.6902
  243MOL0     C33429   6.065   1.899   5.814 -0.9656 -0.7675 -0.2511
  243MOL0     C33430   6.196   1.886   5.769  0.6336  0.0963 -0.5717
  243MOL0     C33431   6.238   1.764   5.716 -0.5395  0.8838  0.8872
  243MOL0     O33432   6.365   1.747   5.670  0.0585 -0.0939 -0.0783
  243MOL0     C33433   6.477   1.776   5.758  0.8582  0.2111 -0.3158
  243MOL0     C33434   6.590   1.730   5.672 -0.1272  0.3842 -0.7752
  243MOL0     C33435   6.720   1.709   5.762 -0.7061  0.3887 -0.7688
  243MOL0     C33436   6.811   1.830   5.780  0.2625  0.4424 -0.8452
  243MOL0     C33437   6.935   1.801   5.861 -0.0795 -0.2670  0.1113
  243MOL0     C33438   7.020   1.926   5.856  0.2629  0.7955 -0.3746
  243MOL0     C33439   7.145   1.905   5.945  1.6904 -0.1876  0.1377
  243MOL0     C33440   7.231   2.033   5.935  0.0335  0.8164  0.0897
  243MOL0    Cl33441   7.394   2.013   6.004  0.0916 -0.0345 -0.2308
  243MOL0     C33442   6.149   1.660   5.705  0.3667 -0.0355 -0.2175
  243MOL0     C33443   6.018   1.670   5.759 -0.3224 -0.7444  0.5069
  243MOL0     O33444   5.724   1.680   5.711 -0.1284  0.0643 -0.1792
  243MOL0     C33445   5.622   1.892   5.986  0.2470  0.1882 -0.1846
  243MOL0     C33446   5.515   1.916   6.072  0.3181 -0.4898 -1.0298
  243MOL0     N33447   4.727   1.886   6.441 -0.0555 -0.0602  0.3772
  243MOL0     N33448   4.615   1.836   6.409 -1.1587 -0.0305 -0.3426
  243MOL0     C33449   3.697   1.217   5.675  0.1424 -0.2036 -0.3581
  243MOL0     C33450   3.585   1.221   5.590  0.0947  0.0440 -0.2341
  243MOL0     C33451   3.209   1.412   5.379 -0.7053  0.1721 -0.2054
  243MOL0     C33452   3.114   1.510   5.381  0.2358  0.7075 -0.2303
  243MOL0     C33453   2.986   1.487   5.332 -0.0720 -0.5867  0.0307
  243MOL0     C33454   2.952   1.377   5.263 -0.9891 -0.6910  0.4211
  243MOL0     O33455   2.822   1.379   5.213 -0.4764  0.5131 -0.0789
  243MOL0     C33456   2.764   1.257   5.173 -0.2143  0.7833 -0.3949
  243MOL0     C33457   2.613   1.277   5.124  0.1503 -0.0716 -0.5251
  243MOL0     C33458   2.510   1.309   5.240 -0.2741 -0.5732  0.4162
  243MOL0     C33459   2.390   1.390   5.194  0.0674  0.5077  0.5461
  243MOL0     C33460   2.346   1.336   5.063 -0.5138 -0.1909  0.1593
  243MOL0     C33461   2.297   1.294   4.963 -0.1960  0.8570  0.2779
  243MOL0     C33462   3.051   1.274   5.249  0.4909  0.3615 -0.5946
  243MOL0     C33463   3.178   1.286   5.312  0.2984  0.4861  0.5619
  243MOL0     C33464   3.271   1.172   5.294  0.0075  0.6145  0.3670
  243MOL0     H33465   3.498   1.547   5.647  2.4610  1.5683 -0.1634
  243MOL0     H33466   3.711   1.549   5.752 -0.7631  0.9570  0.6880
  243MOL0     H33467   3.887   1.451   5.935  0.7298  0.4144  1.5466
  243MOL0     H33468   3.951   1.522   5.783  3.1618  0.6227  0.8270
  243MOL0     H33469   4.079   1.275   5.913  1.3975 -0.0330  0.7007
  243MOL0     H33470   4.138   1.368   5.776 -1.8107 -1.2686 -0.8903
  243MOL0     H33471   4.222   1.538   5.907  0.8488 -1.7853 -1.3845
  243MOL0     H33472   4.089   1.508   6.037 -2.8360 -0.6305 -2.6345
  243MOL0     H33473   4.203   1.332   6.128 -1.5402  1.0977 -0.1018
  243MOL0     H33474   4.334   1.336   5.996  2.5564  3.8680 -0.2015
  243MOL0     H33475   4.272   1.558   6.194 -0.9045 -1.7279  0.6403
  243MOL0     H33476   4.406   1.548   6.072 -0.5812 -1.8963 -2.6240
  243MOL0     H33477   4.371   1.343   6.305  1.6411 -1.1582  0.6149
  243MOL0     H33478   4.497   1.360   6.197  0.3206 -1.2334  2.4242
  243MOL0     H33479   4.587   1.475   6.378  0.2862  0.1471  2.2838
  243MOL0     H33480   4.428   1.534   6.434  1.4571  1.1048 -0.3382
  243MOL0     H33481   4.588   1.609   6.185 -0.9560  0.5504 -1.1552
  243MOL0     H33482   4.449   1.700   6.266 -0.6478 -0.0332  0.1797
  243MOL0     H33483   4.810   1.577   6.368 -1.5721 -0.9198 -2.4302
  243MOL0     H33484   4.973   1.739   6.550 -1.1311  1.9747  0.9917
  243MOL0     H33485   4.995   1.906   6.505  1.2260  0.2602 -2.0885
  243MOL0     H33486   5.176   1.789   6.405 -0.1630  0.0311 -1.8808
  243MOL0     H33487   5.055   1.674   6.338 -1.1767  0.8952 -2.2892
  243MOL0     H33488   4.966   1.858   6.208 -0.7838  0.3943  1.8085
  243MOL0     H33489   5.087   1.973   6.265 -1.8762  1.5562 -3.1870
  243MOL0     H33490   5.150   1.732   6.093  2.0415 -0.4640  2.7302
  243MOL0     H33491   5.124   1.905   6.042 -0.3711  1.3115 -0.2307
  243MOL0     H33492   5.293   1.682   5.949 -1.4242  0.9265 -1.2430
  243MOL0     H33493   5.461   1.506   5.829 -0.0011 -0.4199 -0.0678
  243MOL0     H33494   5.507   1.584   5.684 -0.9551  1.8887 -0.8751
  243MOL0     H33495   5.344   1.614   5.736 -0.1092 -1.2602 -0.0999
  243MOL0     H33496   6.030   1.994   5.853  2.2838 -0.2511  1.7720
  243MOL0     H33497   6.256   1.977   5.766  1.4420 -0.4409 -0.9832
  243MOL0     H33498   6.485   1.880   5.791 -0.3064 -0.5112  2.4780
  243MOL0     H33499   6.463   1.709   5.844 -2.1226 -0.7717 -1.4400
  243MOL0     H33500   6.570   1.634   5.625 -2.2977  0.4238 -0.0800
  243MOL0     H33501   6.613   1.799   5.591 -1.3108  0.7336 -0.8310
  243MOL0     H33502   6.788   1.638   5.715  1.3409  2.0075 -0.3965
  243MOL0     H33503   6.684   1.673   5.859  2.5758  0.2712  0.5352
  243MOL0     H33504   6.761   1.921   5.814  0.2878  0.2116 -0.1881
  243MOL0     H33505   6.847   1.862   5.681  0.5227  2.6338 -0.1049
  243MOL0     H33506   6.913   1.768   5.963  1.1859 -1.0430  0.1488
  243MOL0     H33507   6.990   1.715   5.822  1.6612 -0.4542  2.7110
  243MOL0     H33508   6.969   2.020   5.881  0.4647  1.4003 -2.1068
  243MOL0     H33509   7.055   1.935   5.753 -0.3759 -1.4853 -0.8429
  243MOL0     H33510   7.204   1.828   5.894  0.8365 -0.2437 -0.8059
  243MOL0     H33511   7.127   1.883   6.050  0.4118 -1.6084 -0.3577
  243MOL0     H33512   7.182   2.119   5.981  0.0329  0.0299  1.6259
  243MOL0     H33513   7.227   2.058   5.828 -5.0274  2.7198  0.4247
  243MOL0     H33514   6.202   1.571   5.673  3.7851  1.5975  0.4561
  243MOL0     H33515   5.946   1.589   5.763 -0.7027 -0.5440 -1.3952
  243MOL0     H33516   5.712   1.951   5.999  0.8047 -0.6202 -0.2894
  243MOL0     H33517   5.525   1.983   6.157  2.5849 -1.8994 -0.1011
  243MOL0     H33518   3.742   1.119   5.685  0.7970  0.1031 -0.2656
  243MOL0     H33519   3.547   1.137   5.534  1.2809 -0.6929  0.0305
  243MOL0     H33520   3.112   1.604   5.437 -4.5819 -0.4605  2.1074
  243MOL0     H33521   2.909   1.563   5.342 -0.7510 -1.3314  0.5092
  243MOL0     H33522   2.813   1.211   5.087  1.6918 -2.1034  2.0360
  243MOL0     H33523   2.765   1.178   5.249 -1.6228  1.0636 -0.0556
  243MOL0     H33524   2.575   1.191   5.068  0.9739 -0.1741 -0.9412
  243MOL0     H33525   2.607   1.366   5.060  0.2753 -0.1143 -0.5979
  243MOL0     H33526   2.486   1.206   5.266  3.1752 -2.0772 -1.6425
  243MOL0     H33527   2.560   1.363   5.321  0.6806  1.2242 -1.2897
  243MOL0     H33528   2.405   1.498   5.184  3.6754  0.0143 -0.9109
  243MOL0     H33529   2.317   1.361   5.269 -0.8947 -0.2021 -0.6329
  243MOL0     H33530   2.248   1.266   4.872  1.4822 -0.6102 -0.2354
  243MOL0     H33531   3.032   1.197   5.175  0.7770  0.9811 -1.3294
  243MOL0     H33532   3.295   1.121   5.388 -0.4927  2.2560  1.4286
  243MOL0     H33533   3.228   1.094   5.230 -0.9729  2.4242 -1.2633
  243MOL0     H33534   3.359   1.213   5.245  0.4722 -0.3345  0.3897
  244MOL0     O33535   4.301   5.604   2.689 -0.0605 -0.0034 -0.9414
  244MOL0     C33536   4.311   5.503   2.762 -1.3017  0.2913  0.3008
  244MOL0     O33537   4.429   5.454   2.808  0.3679  0.1661 -0.5990
  244MOL0     C33538   4.526   5.547   2.833 -0.1226 -0.5442 -0.6737
  244MOL0     C33539   4.643   5.556   2.746 -1.2290  0.6831  0.2133
  244MOL0     C33540   4.727   5.661   2.772 -0.0265 -0.1095  0.8766
  244MOL0     C33541   4.707   5.762   2.866 -0.2009 -0.1084 -0.4635
  244MOL0     O33542   4.809   5.855   2.884  0.3585  0.2854 -0.6045
  244MOL0     C33543   4.789   5.973   2.961 -0.7600  0.8033 -0.7502
  244MOL0     C33544   4.917   6.044   2.956 -0.9269 -0.0310 -0.1615
  244MOL0     C33545   5.036   5.965   3.024 -0.6188  0.6175 -0.3191
  244MOL0     C33546   5.172   6.026   2.977 -0.0422  0.4726 -0.1704
  244MOL0     C33547   5.292   5.953   3.041  0.4490 -0.0301  0.7160
  244MOL0     C33548   5.414   6.043   3.015 -0.2661  0.6577  0.6649
  244MOL0     C33549   5.542   5.988   3.090  0.6658 -0.4073  0.3117
  244MOL0     C33550   5.661   6.086   3.093  0.0724  0.2730 -0.3068
  244MOL0     N33551   5.688   6.144   2.960  0.7072  0.5603  0.2939
  244MOL0     C33552   5.792   6.104   2.875  0.7301 -0.5190 -0.4589
  244MOL0     C33553   5.772   6.190   2.769 -0.0649 -0.0210 -0.8895
  244MOL0     C33554   5.862   6.211   2.646  0.1065 -0.9547 -0.4559
  244MOL0     C33555   5.970   6.323   2.673  0.1493  1.0965 -0.2173
  244MOL0     C33556   6.087   6.251   2.748 -0.1781  0.1452  0.0441
  244MOL0     C33557   6.187   6.368   2.791 -0.4806 -0.0881 -0.5476
  244MOL0     O33558   6.278   6.315   2.893  0.5917  0.1159  0.4588
  244MOL0     C33559   6.361   6.211   2.865 -0.8709 -0.8759  0.1253
  244MOL0     C33560   6.429   6.148   2.969  0.1773  0.4051  0.1148
  244MOL0     C33561   6.524   6.049   2.943  0.4254 -0.0125  0.5021
  244MOL0     C33562   6.577   5.968   3.054 -0.2859  0.0496 -0.1794
  244MOL0     C33563   6.573   6.027   2.812 -0.1972  0.5491 -0.3084
  244MOL0     C33564   6.663   5.920   2.771  0.3281  0.3933 -0.3661
  244MOL0     O33565   6.750   5.943   2.672 -0.3428 -0.0312 -0.1981
  244MOL0     C33566   6.833   5.846   2.638  0.1993  1.1468 -0.3714
  244MOL0     C33567   6.917   5.783   2.737  0.5331  1.2426  0.7648
  244MOL0     C33568   7.020   5.692   2.709  0.5190 -0.3316 -0.3724
  244MOL0     C33569   7.030   5.653   2.575 -0.4082  0.2886 -0.5597
  244MOL0     O33570   7.124   5.572   2.527  0.1815  0.0257  0.2159
  244MOL0     C33571   7.188   5.481   2.620  0.0842 -0.2824  0.1814
  244MOL0     C33572   7.291   5.406   2.551  0.6050  0.3130  0.7769
  244MOL0     C33573   7.431   5.468   2.563  0.4711 -0.7552 -0.0371
  244MOL0     C33574   7.502   5.451   2.705  0.2899  0.4066 -0.1653
  244MOL0     C33575   7.652   5.497   2.705  0.5349 -0.6926 -0.0717
  244MOL0     C33576   7.710   5.479   2.841 -0.4014  0.3762 -0.1125
  244MOL0     C33577   7.857   5.528   2.834  0.2380  0.6843 -0.5880
  244MOL0     C33578   7.948   5.411   2.788 -0.1269  0.2373 -0.1547
  244MOL0    Cl33579   8.113   5.483   2.791  0.1220  0.6405 -0.3346
  244MOL0     C33580   6.948   5.710   2.476  0.3225  0.5490  0.3159
  244MOL0     C33581   6.845   5.791   2.510  0.5035 -1.4207 -0.2185
  244MOL0     O33582   6.638   5.806   2.821  0.1275 -0.4645  0.4639
  244MOL0     C33583   6.529   6.113   2.712  0.2623 -0.1567  0.6434
  244MOL0     C33584   6.417   6.198   2.742 -0.4608 -0.9448  0.9484
  244MOL0     N33585   5.653   6.255   2.792 -0.1425  0.5711  0.2338
  244MOL0     N33586   5.614   6.243   2.907 -0.1138 -0.1044  0.4643
  244MOL0     C33587   4.597   5.753   2.945 -0.3972  0.7660 -0.6004
  244MOL0     C33588   4.507   5.653   2.924 -0.9208  0.6977 -0.8732
  244MOL0     C33589   4.198   5.415   2.791 -0.9294 -0.0970 -0.8761
  244MOL0     C33590   4.209   5.331   2.908 -0.0239 -0.3106 -0.1980
  244MOL0     C33591   4.108   5.257   2.968 -0.1839  0.6517 -0.7660
  244MOL0     C33592   3.977   5.263   2.908 -0.8233  0.0171  0.6378
  244MOL0     O33593   3.868   5.196   2.956  0.3683 -0.9778 -0.0705
  244MOL0     C33594   3.884   5.141   3.086  0.1519 -0.9207  1.3172
  244MOL0     C33595   3.747   5.081   3.116 -0.5304  0.1323 -0.7605
  244MOL0     C33596   3.695   4.973   3.013 -0.6038 -1.3484 -0.2360
  244MOL0     C33597   3.550   4.996   2.981 -0.7288 -0.0933 -0.5520
  244MOL0     C33598   3.460   4.975   3.096  0.2795 -0.1737 -0.2229
  244MOL0     C33599   3.375   4.962   3.188  0.1225 -0.6926  0.9117
  244MOL0     C33600   3.967   5.337   2.793  0.6714  0.4743 -0.1248
  244MOL0     C33601   4.070   5.425   2.739  0.5551  0.1849  0.4208
  244MOL0     C33602   4.045   5.508   2.616  0.6000  0.3578  0.3114
  244MOL0     H33603   4.660   5.485   2.666 -2.9149  2.8376 -2.2195
  244MOL0     H33604   4.823   5.672   2.723  0.9477 -3.2493  1.8602
  244MOL0     H33605   4.769   5.940   3.063  2.5134 -0.5293 -0.4431
  244MOL0     H33606   4.705   6.032   2.922 -1.3442  0.1355 -0.5278
  244MOL0     H33607   4.948   6.053   2.852  0.6791 -0.8793  0.2229
  244MOL0     H33608   4.906   6.143   3.001 -0.3968 -1.1694  2.6592
  244MOL0     H33609   5.023   5.967   3.132 -0.1951  4.1898 -0.2402
  244MOL0     H33610   5.023   5.860   2.994 -1.7488  0.0857  1.8140
  244MOL0     H33611   5.178   6.034   2.868 -1.0974  2.4675 -0.1294
  244MOL0     H33612   5.178   6.127   3.018  3.1493  0.6427 -0.8545
  244MOL0     H33613   5.300   5.855   2.994 -2.4836  1.3446 -3.2168
  244MOL0     H33614   5.271   5.930   3.146  1.4979  2.0611  1.4473
  244MOL0     H33615   5.437   6.043   2.908 -0.4231  2.6001  0.6082
  244MOL0     H33616   5.390   6.139   3.061  0.2817  0.0883  2.2329
  244MOL0     H33617   5.566   5.892   3.043 -4.7127 -0.8825 -2.3536
  244MOL0     H33618   5.507   5.972   3.192  2.7163 -0.5710  1.0276
  244MOL0     H33619   5.640   6.181   3.142  0.2428  1.0723 -1.7094
  244MOL0     H33620   5.749   6.042   3.140  0.0598 -3.3795 -3.2580
  244MOL0     H33621   5.869   6.030   2.896  0.2568 -0.4467  1.7301
  244MOL0     H33622   5.804   6.239   2.557 -0.0618 -0.3029 -0.1440
  244MOL0     H33623   5.898   6.110   2.623 -1.7422 -2.1321  1.4060
  244MOL0     H33624   6.010   6.362   2.580  0.3001 -1.1130 -1.1392
  244MOL0     H33625   5.922   6.402   2.732 -0.6310 -1.0799  2.2693
  244MOL0     H33626   6.046   6.206   2.839 -1.0914  2.4173  0.8549
  244MOL0     H33627   6.134   6.186   2.675  1.0579  1.6733 -0.5807
  244MOL0     H33628   6.238   6.392   2.697 -1.3756 -2.6429 -1.7813
  244MOL0     H33629   6.147   6.462   2.831 -0.0030  1.2979 -3.1026
  244MOL0     H33630   6.408   6.176   3.071  1.3536 -2.2066  1.1550
  244MOL0     H33631   6.556   5.862   3.039  3.4675 -1.0699  1.2484
  244MOL0     H33632   6.535   5.991   3.152 -0.2642  0.2487 -0.2157
  244MOL0     H33633   6.686   5.973   3.058 -0.2194 -1.4415  0.4766
  244MOL0     H33634   6.896   5.809   2.840 -1.5932  1.8201  0.2302
  244MOL0     H33635   7.075   5.648   2.791 -0.9061 -0.9225  0.2970
  244MOL0     H33636   7.237   5.520   2.710  0.6150 -0.9217  0.1778
  244MOL0     H33637   7.121   5.404   2.660  1.4143 -0.6442  1.8349
  244MOL0     H33638   7.296   5.305   2.593  1.5585 -0.6563 -1.4989
  244MOL0     H33639   7.266   5.377   2.448 -0.6712 -0.9198  1.4063
  244MOL0     H33640   7.419   5.575   2.543  0.2424 -0.0847  3.1426
  244MOL0     H33641   7.487   5.429   2.479  0.4756  0.5310 -0.6521
  244MOL0     H33642   7.489   5.343   2.720  0.9416 -0.2707 -3.7699
  244MOL0     H33643   7.446   5.497   2.787 -0.8667 -1.2930  0.0685
  244MOL0     H33644   7.708   5.440   2.631  0.3030 -0.0493 -0.7617
  244MOL0     H33645   7.659   5.601   2.672  0.2623 -1.6952 -3.7628
  244MOL0     H33646   7.698   5.377   2.879  0.8010  0.5896  0.9076
  244MOL0     H33647   7.662   5.543   2.916  1.3240 -0.1980  1.5717
  244MOL0     H33648   7.885   5.569   2.932  4.1708  2.1740 -2.1477
  244MOL0     H33649   7.866   5.612   2.765  0.0801  1.6761  0.5653
  244MOL0     H33650   7.932   5.377   2.685  1.1940 -1.1028  0.0421
  244MOL0     H33651   7.956   5.322   2.851  0.5177 -0.4827 -1.2023
  244MOL0     H33652   6.971   5.668   2.379  0.4374  1.2548  0.0370
  244MOL0     H33653   6.788   5.836   2.429  0.2476 -1.3698 -0.0111
  244MOL0     H33654   6.560   6.112   2.607  0.1039 -0.5054  0.6002
  244MOL0     H33655   6.397   6.265   2.659  1.3470 -0.4852  0.8359
  244MOL0     H33656   4.577   5.827   3.022 -2.0102  0.2385 -0.4596
  244MOL0     H33657   4.415   5.653   2.981 -1.3647  1.2137 -1.5742
  244MOL0     H33658   4.303   5.326   2.962 -0.2026  1.1497  0.2761
  244MOL0     H33659   4.133   5.189   3.049  0.5682 -0.2151 -1.7023
  244MOL0     H33660   3.963   5.066   3.077  0.8579 -0.1572  1.0640
  244MOL0     H33661   3.908   5.214   3.165  0.0650  1.0411 -0.3816
  244MOL0     H33662   3.686   5.170   3.135  3.5275  3.4730 -1.8648
  244MOL0     H33663   3.754   5.036   3.216  1.8078  0.7807 -0.5712
  244MOL0     H33664   3.751   4.978   2.918 -1.2896 -0.0091 -0.5973
  244MOL0     H33665   3.698   4.872   3.056 -3.3229 -2.6533 -2.7600
  244MOL0     H33666   3.521   4.917   2.911 -0.5115  0.8711 -1.7498
  244MOL0     H33667   3.538   5.089   2.925  1.6551 -1.0083 -2.7636
  244MOL0     H33668   3.293   4.956   3.256 -1.3706  0.3896 -0.7033
  244MOL0     H33669   3.867   5.350   2.752 -0.4664 -1.0459  1.9242
  244MOL0     H33670   4.052   5.615   2.638 -4.3401  1.1614 -0.7978
  244MOL0     H33671   4.105   5.482   2.528 -0.7208 -1.6999 -0.0653
  244MOL0     H33672   3.945   5.487   2.575 -0.0920  1.2573  1.5039
  245MOL0     O33673  10.600   9.835  11.205  0.8350 -0.6497  0.1263
  245MOL0     C33674  10.636   9.780  11.308  0.6647  0.4901 -0.1390
  245MOL0     O33675  10.569   9.766  11.424 -0.2792 -0.0617 -0.1681
  245MOL0     C33676  10.444   9.814  11.426 -0.2572 -0.3784  0.0823
  245MOL0     C33677  10.343   9.724  11.395 -0.3291  0.2206 -0.3230
  245MOL0     C33678  10.218   9.764  11.371  0.3418 -0.3316  0.7575
  245MOL0     C33679  10.181   9.908  11.380  0.1196 -0.7320  0.7131
  245MOL0     O33680  10.057   9.944  11.351 -0.0027  0.1749  0.2035
  245MOL0     C33681  10.032  10.073  11.307 -0.0834 -0.4142 -0.3780
  245MOL0     C33682   9.898  10.084  11.252  0.8997 -0.5959 -0.4856
  245MOL0     C33683   9.852  10.230  11.260 -0.9272 -0.7676  0.2384
  245MOL0     C33684   9.723  10.259  11.185  0.1133  0.4409 -0.2969
  245MOL0     C33685   9.686  10.406  11.203 -0.7676  0.0843 -0.4153
  245MOL0     C33686   9.585  10.456  11.105  0.2555  0.7859  0.0181
  245MOL0     C33687   9.441  10.452  11.167  0.0532 -0.3174 -0.1110
  245MOL0     C33688   9.338  10.442  11.055  0.2335 -0.0045  0.4577
  245MOL0     N33689   9.202  10.466  11.112 -1.3472 -0.7588  0.5439
  245MOL0     C33690   9.141  10.375  11.185  0.2889  0.0336 -0.3502
  245MOL0     C33691   9.041  10.438  11.263 -0.1461  0.1061 -0.1048
  245MOL0     C33692   8.956  10.364  11.362 -1.5306 -0.7872  0.2119
  245MOL0     C33693   8.809  10.394  11.320  0.2309 -1.0575 -0.0885
  245MOL0     C33694   8.698  10.346  11.414 -0.0207  0.7957 -0.4441
  245MOL0     C33695   8.704  10.413  11.546 -0.7772 -0.8445 -0.6933
  245MOL0     O33696   8.600  10.371  11.639 -0.6498  0.9446  0.2567
  245MOL0     C33697   8.606  10.423  11.766 -1.0923 -0.3007 -0.8458
  245MOL0     C33698   8.694  10.523  11.812  0.4799 -0.2436  0.1884
  245MOL0     C33699   8.687  10.560  11.946  0.1417  0.0435  0.5589
  245MOL0     C33700   8.790  10.660  11.998  0.6622  0.3123 -0.1611
  245MOL0     C33701   8.590  10.511  12.031 -0.0313  0.5223 -0.0176
  245MOL0     C33702   8.554  10.559  12.160  0.5035  0.1543  0.5223
  245MOL0     O33703   8.560  10.696  12.173 -1.4433  0.0832  0.4128
  245MOL0     C33704   8.487  10.734  12.285 -0.1968 -0.4844 -0.0181
  245MOL0     C33705   8.559  10.740  12.408  0.5268  0.3513 -0.2064
  245MOL0     C33706   8.485  10.780  12.517  0.4815  0.0708  0.1032
  245MOL0     C33707   8.354  10.822  12.500  1.1835 -0.3359 -0.4744
  245MOL0     O33708   8.273  10.871  12.603  0.2497  0.3026 -0.0571
  245MOL0     C33709   8.268  11.012  12.596 -0.8003  0.2183 -0.3347
  245MOL0     C33710   8.196  11.060  12.728 -0.9325  0.2083  0.2389
  245MOL0     C33711   8.153  11.214  12.708 -0.9759 -0.1013 -0.2501
  245MOL0     C33712   8.126  11.286  12.846  0.6450  0.2107  0.6925
  245MOL0     C33713   8.141  11.432  12.826  0.3751  0.6457 -0.7640
  245MOL0     C33714   8.283  11.491  12.791  0.0977 -0.0771  0.5221
  245MOL0     C33715   8.304  11.630  12.853  0.0746  0.4636 -0.8816
  245MOL0     C33716   8.434  11.691  12.806 -0.3808  0.3869 -0.2062
  245MOL0    Cl33717   8.428  11.708  12.625 -0.2256  0.1140  0.4598
  245MOL0     C33718   8.283  10.801  12.379  0.0352 -0.1587  0.7014
  245MOL0     C33719   8.352  10.758  12.272 -0.9914 -0.0924 -0.8559
  245MOL0     O33720   8.512  10.483  12.245 -0.3834 -0.7589  0.1606
  245MOL0     C33721   8.490  10.421  11.978 -0.1108  0.3281 -0.5676
  245MOL0     C33722   8.501  10.380  11.850 -0.2868  0.2493  0.2231
  245MOL0     N33723   9.054  10.573  11.235  0.4561  0.2508 -0.6509
  245MOL0     N33724   9.149  10.588  11.147  0.0408  0.4785 -0.3018
  245MOL0     C33725  10.292   9.996  11.403  0.5552 -0.4921 -0.1620
  245MOL0     C33726  10.422   9.952  11.427  0.2735 -0.3682  0.0607
  245MOL0     C33727  10.778   9.738  11.319  0.7366  0.5928  0.2247
  245MOL0     C33728  10.838   9.726  11.444 -0.1427  0.1326 -0.1875
  245MOL0     C33729  10.968   9.697  11.451  0.0608 -0.8315  0.0873
  245MOL0     C33730  11.049   9.670  11.343 -0.9595 -1.2042  0.1405
  245MOL0     O33731  11.179   9.631  11.372  0.3157 -0.4323  0.3745
  245MOL0     C33732  11.261   9.585  11.266 -0.0432 -0.0480  0.0021
  245MOL0     C33733  11.400   9.568  11.327  0.5511  0.1604  0.2460
  245MOL0     C33734  11.500   9.506  11.229 -0.8280 -0.3589 -0.1534
  245MOL0     C33735  11.647   9.507  11.291 -0.2814 -0.3637  0.8460
  245MOL0     C33736  11.653   9.450  11.421  0.3209  0.7879 -0.9224
  245MOL0     C33737  11.658   9.406  11.535  1.0102  0.0179  0.2563
  245MOL0     C33738  10.986   9.662  11.217  0.3064 -0.9641  0.7988
  245MOL0     C33739  10.855   9.702  11.202  0.9269 -0.2477 -0.8168
  245MOL0     C33740  10.803   9.684  11.065 -0.3326 -0.0745 -0.5257
  245MOL0     H33741  10.356   9.617  11.412 -4.2873 -0.1480  1.7025
  245MOL0     H33742  10.137   9.694  11.354 -1.1145  1.5005 -0.3309
  245MOL0     H33743  10.109  10.089  11.231  1.0649 -4.5603 -0.3220
  245MOL0     H33744  10.035  10.143  11.390  0.2489 -0.1856 -0.5814
  245MOL0     H33745   9.910  10.046  11.150  0.1972  0.8941 -1.1549
  245MOL0     H33746   9.830  10.017  11.306 -1.0652  1.2196 -0.5547
  245MOL0     H33747   9.854  10.261  11.365  1.0068  1.2723 -0.3129
  245MOL0     H33748   9.930  10.294  11.216 -0.5379 -1.1242  0.3958
  245MOL0     H33749   9.751  10.236  11.082 -0.1238 -0.4133 -0.1754
  245MOL0     H33750   9.647  10.184  11.206  0.3803 -0.4795 -2.3443
  245MOL0     H33751   9.777  10.467  11.193 -1.9753  2.0116 -0.2090
  245MOL0     H33752   9.640  10.423  11.300 -2.1671 -2.5678 -0.5269
  245MOL0     H33753   9.612  10.559  11.080  1.5919  0.6587  0.8331
  245MOL0     H33754   9.582  10.384  11.023  0.7867 -0.7877  1.3240
  245MOL0     H33755   9.427  10.545  11.224 -0.8055 -0.9203  0.6740
  245MOL0     H33756   9.426  10.375  11.242 -2.7384 -1.0197 -1.2780
  245MOL0     H33757   9.355  10.521  10.981  1.7722 -0.2585  0.4933
  245MOL0     H33758   9.334  10.342  11.010 -0.8475  0.5768 -0.8049
  245MOL0     H33759   9.169  10.270  11.189 -0.0680 -0.0457  0.0496
  245MOL0     H33760   8.993  10.394  11.460 -0.0942  1.1426 -0.8756
  245MOL0     H33761   8.970  10.255  11.357 -2.7839 -0.9897  0.6342
  245MOL0     H33762   8.803  10.502  11.303  2.4304 -1.0307 -0.9348
  245MOL0     H33763   8.797  10.337  11.227  0.6634 -0.9642 -0.2012
  245MOL0     H33764   8.606  10.377  11.365 -1.3653 -1.0215  0.7856
  245MOL0     H33765   8.711  10.239  11.431  4.4577  0.8622 -2.1005
  245MOL0     H33766   8.800  10.386  11.590 -1.1230 -0.7202  0.1454
  245MOL0     H33767   8.694  10.522  11.536 -0.3200 -0.7965 -0.6511
  245MOL0     H33768   8.777  10.554  11.750  1.2566 -1.3386  0.6562
  245MOL0     H33769   8.812  10.646  12.105  3.2587 -0.7703 -0.7675
  245MOL0     H33770   8.782  10.760  11.955  0.0980  1.7705  2.9845
  245MOL0     H33771   8.880  10.613  11.957 -0.6141 -1.2480 -1.3099
  245MOL0     H33772   8.652  10.687  12.422  1.2304  1.2200 -1.4578
  245MOL0     H33773   8.523  10.774  12.619 -1.6176 -0.5525  0.8984
  245MOL0     H33774   8.366  11.062  12.599  1.7338 -4.1537  3.3163
  245MOL0     H33775   8.211  11.031  12.505 -0.2877 -2.3793 -1.3084
  245MOL0     H33776   8.105  10.999  12.737 -2.4706  2.0690 -1.5535
  245MOL0     H33777   8.264  11.036  12.810  2.4898 -1.4413 -2.8039
  245MOL0     H33778   8.066  11.214  12.641 -0.9666  1.9053 -0.3100
  245MOL0     H33779   8.233  11.269  12.657 -0.9041  1.5016  1.4884
  245MOL0     H33780   8.186  11.249  12.930  0.8845  3.1744  1.9603
  245MOL0     H33781   8.021  11.269  12.868 -0.1447  3.0180 -0.4631
  245MOL0     H33782   8.077  11.456  12.740 -2.1762 -1.3161  0.4575
  245MOL0     H33783   8.107  11.481  12.918  4.1326 -0.5757  1.4782
  245MOL0     H33784   8.298  11.500  12.683  2.5037  0.0280  0.8135
  245MOL0     H33785   8.360  11.424  12.829  0.1408  0.3649  1.2560
  245MOL0     H33786   8.295  11.621  12.962  2.7905 -1.1409 -0.6901
  245MOL0     H33787   8.217  11.687  12.821 -1.1499 -0.2655  0.9663
  245MOL0     H33788   8.526  11.635  12.822  0.6378  1.7527 -1.0860
  245MOL0     H33789   8.434  11.790  12.852 -1.4518  1.4291 -2.3122
  245MOL0     H33790   8.178  10.826  12.373  0.5236  2.0206  0.1802
  245MOL0     H33791   8.304  10.752  12.175  0.5637 -0.8460 -1.6283
  245MOL0     H33792   8.401  10.382  12.027 -0.3110 -0.0022 -1.1891
  245MOL0     H33793   8.440  10.299  11.813  2.1059 -1.9549  0.8286
  245MOL0     H33794  10.272  10.102  11.395 -3.9722 -1.1517 -0.4691
  245MOL0     H33795  10.503  10.024  11.435 -0.7617  0.6393  2.3188
  245MOL0     H33796  10.777   9.745  11.532 -1.0838 -0.6158 -0.6475
  245MOL0     H33797  11.016   9.692  11.548  2.1875  0.6159 -0.7968
  245MOL0     H33798  11.218   9.494  11.224  0.3076  0.2370 -1.0318
  245MOL0     H33799  11.264   9.664  11.189  1.3109  0.8192  0.8999
  245MOL0     H33800  11.393   9.503  11.415 -0.1295  1.1427  0.9282
  245MOL0     H33801  11.438   9.662  11.366 -1.1653  0.6313  0.8336
  245MOL0     H33802  11.469   9.405  11.202 -3.3837  0.2564  0.2068
  245MOL0     H33803  11.505   9.567  11.139 -3.7596 -0.0630 -0.2019
  245MOL0     H33804  11.671   9.614  11.301 -0.8788 -0.4146  3.2927
  245MOL0     H33805  11.714   9.465  11.216 -0.5396  2.3910 -1.1034
  245MOL0     H33806  11.666   9.352  11.628  0.7364  1.0305  0.8862
  245MOL0     H33807  11.034   9.620  11.129  0.6815 -0.6722  0.8609
  245MOL0     H33808  10.840   9.770  11.008 -1.0113  2.5609  2.7015
  245MOL0     H33809  10.831   9.587  11.025 -3.1226 -2.4714  2.7633
  245MOL0     H33810  10.693   9.681  11.065 -0.3130 -1.3905 -1.0792
  246MOL0     O33811   3.959   0.492   1.082  0.4565 -0.4451  0.3918
  246MOL0     C33812   3.888   0.539   1.170  0.6947  0.3539 -0.1166
  246MOL0     O33813   3.803   0.640   1.147 -0.5246  0.4785 -0.2003
  246MOL0     C33814   3.805   0.703   1.028 -0.8687 -0.0702  0.4613
  246MOL0     C33815   3.726   0.657   0.919  0.6539  0.0140 -0.2773
  246MOL0     C33816   3.725   0.734   0.800  0.5476  0.0936 -0.6297
  246MOL0     C33817   3.791   0.859   0.793  0.4397 -0.4101 -0.4035
  246MOL0     O33818   3.788   0.953   0.688  0.3258 -0.3591 -0.4216
  246MOL0     C33819   3.717   0.916   0.562 -0.4320 -0.2235 -1.1656
  246MOL0     C33820   3.753   1.022   0.459  0.5283 -0.5606 -0.6984
  246MOL0     C33821   3.897   1.023   0.412  0.2031 -0.0871  0.6598
  246MOL0     C33822   3.916   1.146   0.318  0.4615  0.2087 -0.4057
  246MOL0     C33823   4.034   1.123   0.241 -0.2736  0.5855  0.3754
  246MOL0     C33824   4.038   1.214   0.112 -0.6852  0.0771 -0.0576
  246MOL0     C33825   4.170   1.195   0.029  0.0905 -0.0269 -0.2915
  246MOL0     C33826   4.146   1.273  -0.103  0.6807  0.2994 -0.8488
  246MOL0     N33827   4.281   1.315  -0.148 -0.0655  0.1632 -0.5644
  246MOL0     C33828   4.345   1.420  -0.096 -0.9606  0.6939 -0.3692
  246MOL0     C33829   4.479   1.389  -0.122  0.1136  0.0439 -0.2667
  246MOL0     C33830   4.583   1.496  -0.093 -0.5604  0.8188  0.2727
  246MOL0     C33831   4.718   1.467  -0.168 -0.5255  0.4264  0.5595
  246MOL0     C33832   4.810   1.583  -0.119  0.6570 -0.6210  0.0546
  246MOL0     C33833   4.937   1.543  -0.170 -0.2234  0.2700 -0.3090
  246MOL0     O33834   5.037   1.636  -0.119 -0.7184  0.3094  0.0723
  246MOL0     C33835   5.168   1.585  -0.117  0.8052 -0.8287 -0.7160
  246MOL0     C33836   5.259   1.663  -0.037  0.6843  0.1401 -0.1698
  246MOL0     C33837   5.396   1.639  -0.055  0.1428  0.0988  0.9057
  246MOL0     C33838   5.495   1.737  -0.004  0.8105  0.7699  0.1747
  246MOL0     C33839   5.443   1.532  -0.133 -0.0910  0.0205 -0.1223
  246MOL0     C33840   5.589   1.501  -0.151 -0.1269  1.0065  0.0739
  246MOL0     O33841   5.612   1.433  -0.268 -0.3127 -0.0657 -0.4412
  246MOL0     C33842   5.734   1.413  -0.310  0.4954 -0.1266  0.2545
  246MOL0     C33843   5.812   1.525  -0.339  0.3060 -0.2927 -0.0116
  246MOL0     C33844   5.938   1.513  -0.389 -0.5106 -0.6297 -0.1691
  246MOL0     C33845   5.987   1.384  -0.420  0.3338 -0.3600 -0.2616
  246MOL0     O33846   6.117   1.387  -0.461  0.2665  0.7171 -0.4296
  246MOL0     C33847   6.191   1.296  -0.379 -0.7555  0.2956 -0.1465
  246MOL0     C33848   6.336   1.325  -0.395 -0.3722 -0.4207 -0.2827
  246MOL0     C33849   6.429   1.246  -0.301 -0.4455  0.2100 -0.2533
  246MOL0     C33850   6.557   1.218  -0.370  0.3146  0.4690  0.1432
  246MOL0     C33851   6.666   1.136  -0.300 -0.3091  0.4838 -0.9622
  246MOL0     C33852   6.760   1.069  -0.406  0.1095  1.6390 -0.5858
  246MOL0     C33853   6.896   1.023  -0.335 -0.0875  0.0439  0.5750
  246MOL0     C33854   7.001   1.001  -0.438 -0.4112  0.1702  0.6119
  246MOL0    Cl33855   6.955   0.855  -0.527  0.1928  0.1821 -0.4909
  246MOL0     C33856   5.911   1.265  -0.401  0.3839  0.4560 -0.5401
  246MOL0     C33857   5.786   1.284  -0.342  0.1787  0.2510 -0.8184
  246MOL0     O33858   5.670   1.532  -0.072 -0.3252 -0.6193 -0.5193
  246MOL0     C33859   5.344   1.448  -0.192  0.4770 -0.2632  0.4269
  246MOL0     C33860   5.209   1.470  -0.192  0.5841 -0.1075 -0.1498
  246MOL0     N33861   4.497   1.263  -0.174 -0.1287 -0.6059  0.9754
  246MOL0     N33862   4.376   1.220  -0.188 -0.1089 -0.2022 -0.0042
  246MOL0     C33863   3.863   0.909   0.907 -0.5063  0.0013  1.2356
  246MOL0     C33864   3.870   0.827   1.013 -1.1710  1.1214 -0.0209
  246MOL0     C33865   3.889   0.488   1.307 -0.2151 -0.4549 -0.5444
  246MOL0     C33866   3.840   0.573   1.408 -0.5878 -0.0831  0.3805
  246MOL0     C33867   3.833   0.534   1.550 -0.8111 -0.2218 -0.3480
  246MOL0     C33868   3.892   0.413   1.584  0.0786  0.8441  0.2442
  246MOL0     O33869   3.918   0.357   1.707 -0.0016  0.1022 -0.4732
  246MOL0     C33870   4.026   0.406   1.794  0.7140  0.1469 -0.2050
  246MOL0     C33871   4.153   0.413   1.709 -0.2345  0.2292  0.1173
  246MOL0     C33872   4.264   0.480   1.784 -0.7941 -0.1789 -0.3351
  246MOL0     C33873   4.396   0.504   1.708 -0.2186 -0.8103  0.9387
  246MOL0     C33874   4.497   0.556   1.791 -0.8530 -0.7665 -0.1847
  246MOL0     C33875   4.574   0.602   1.876  0.3338 -0.2464 -0.9905
  246MOL0     C33876   3.942   0.330   1.483  0.2426 -0.0197  0.4756
  246MOL0     C33877   3.929   0.359   1.347 -0.2936  0.2401  0.1206
  246MOL0     C33878   3.971   0.248   1.250  0.3226  0.6258 -0.3863
  246MOL0     H33879   3.675   0.562   0.935  1.7125 -0.3677  1.0311
  246MOL0     H33880   3.665   0.694   0.719 -1.1602 -0.0991  0.6743
  246MOL0     H33881   3.608   0.924   0.574 -0.4764  2.2784 -2.6488
  246MOL0     H33882   3.749   0.817   0.527  2.6467  0.4648 -0.5842
  246MOL0     H33883   3.693   1.004   0.369  0.7242  2.7576 -1.6133
  246MOL0     H33884   3.729   1.121   0.499 -0.4154 -0.1738 -2.1347
  246MOL0     H33885   3.973   1.022   0.491  0.1839  1.7367  0.7479
  246MOL0     H33886   3.909   0.926   0.363 -0.7825 -0.7138  1.6074
  246MOL0     H33887   3.829   1.163   0.253  0.8863 -0.3087 -1.1220
  246MOL0     H33888   3.916   1.239   0.375  0.4743  0.8712 -1.4464
  246MOL0     H33889   4.033   1.020   0.205  3.9540 -0.1387  1.7819
  246MOL0     H33890   4.119   1.147   0.306  0.4200 -0.4211 -0.1333
  246MOL0     H33891   3.950   1.186   0.052 -1.0870 -1.1316  1.0521
  246MOL0     H33892   4.032   1.318   0.146 -1.5533 -0.0248  0.1262
  246MOL0     H33893   4.195   1.092   0.003 -0.4174 -0.0451 -0.7237
  246MOL0     H33894   4.257   1.230   0.084  0.7454  0.4124 -1.5519
  246MOL0     H33895   4.094   1.204  -0.169 -0.4987 -0.6046  0.9581
  246MOL0     H33896   4.071   1.352  -0.087  0.1764  0.0222 -1.7448
  246MOL0     H33897   4.300   1.511  -0.056 -0.2972 -0.1076  2.4662
  246MOL0     H33898   4.600   1.509   0.014  1.1326  0.3986  0.0834
  246MOL0     H33899   4.541   1.591  -0.126 -1.2897  1.2329  2.2515
  246MOL0     H33900   4.760   1.370  -0.140  0.5199  0.0804 -1.9222
  246MOL0     H33901   4.709   1.461  -0.277  1.3131 -2.0213  0.4490
  246MOL0     H33902   4.777   1.676  -0.167  3.2687 -1.4509 -3.8640
  246MOL0     H33903   4.805   1.586  -0.010 -0.5588 -1.2124  0.0296
  246MOL0     H33904   4.953   1.437  -0.150 -1.4052  0.1120 -0.1542
  246MOL0     H33905   4.949   1.553  -0.279  3.5108 -4.5987 -0.6880
  246MOL0     H33906   5.230   1.747   0.024  0.0808  0.8210 -1.3521
  246MOL0     H33907   5.554   1.767  -0.092 -1.3134  0.1577 -1.5643
  246MOL0     H33908   5.556   1.694   0.076  0.1443  2.9271  1.9429
  246MOL0     H33909   5.452   1.826   0.042  0.1597  0.1149  0.8428
  246MOL0     H33910   5.769   1.624  -0.325 -3.4369 -1.9192  1.1007
  246MOL0     H33911   6.001   1.595  -0.420  0.0724 -1.1348 -0.3308
  246MOL0     H33912   6.155   1.293  -0.276  2.2194  1.5303  1.0436
  246MOL0     H33913   6.183   1.199  -0.429  0.1449  1.1070 -1.9621
  246MOL0     H33914   6.356   1.315  -0.502 -0.9539  1.2837 -0.5857
  246MOL0     H33915   6.357   1.429  -0.368  1.2095 -0.5667 -0.8432
  246MOL0     H33916   6.383   1.152  -0.269 -0.7066 -0.2563 -1.9004
  246MOL0     H33917   6.445   1.303  -0.209 -0.7964  0.5674 -0.4108
  246MOL0     H33918   6.600   1.314  -0.402  1.8781  1.0059  3.4143
  246MOL0     H33919   6.526   1.172  -0.464  0.8374 -0.5233  0.4495
  246MOL0     H33920   6.720   1.200  -0.229  0.5046  0.2659 -1.3680
  246MOL0     H33921   6.617   1.053  -0.249 -0.5531  1.7567  0.9909
  246MOL0     H33922   6.782   1.142  -0.486 -2.0986  2.0380 -0.8830
  246MOL0     H33923   6.718   0.980  -0.453  0.6096  1.4822 -0.7527
  246MOL0     H33924   6.877   0.932  -0.276  0.0563  1.1206  2.3667
  246MOL0     H33925   6.927   1.102  -0.266 -0.6643  0.4131  0.4178
  246MOL0     H33926   7.100   0.991  -0.393  0.3034 -0.0285 -0.9274
  246MOL0     H33927   6.999   1.087  -0.506  0.5272 -1.1635 -1.1754
  246MOL0     H33928   5.958   1.170  -0.424 -0.9744 -1.0705  2.4700
  246MOL0     H33929   5.726   1.197  -0.317  1.6045 -1.0179 -1.6541
  246MOL0     H33930   5.376   1.354  -0.236  2.1593  2.0221 -3.7731
  246MOL0     H33931   5.141   1.406  -0.247 -0.8432  1.2268 -0.0231
  246MOL0     H33932   3.920   1.000   0.897 -1.1303  0.1760 -1.7624
  246MOL0     H33933   3.938   0.850   1.095 -3.5558 -0.5638  2.6189
  246MOL0     H33934   3.808   0.674   1.385 -0.6254 -0.2089 -0.1380
  246MOL0     H33935   3.804   0.606   1.626  1.2669  1.6016 -1.1730
  246MOL0     H33936   4.002   0.497   1.849 -0.7549 -0.3700  0.0697
  246MOL0     H33937   4.041   0.320   1.859  0.1557 -3.6032 -4.4829
  246MOL0     H33938   4.134   0.482   1.626 -2.3129 -0.9930 -0.4873
  246MOL0     H33939   4.173   0.313   1.669  0.2716 -1.0233  3.2334
  246MOL0     H33940   4.221   0.580   1.798 -1.8459 -0.5045 -1.1632
  246MOL0     H33941   4.286   0.432   1.880 -4.3811 -1.0200  0.2168
  246MOL0     H33942   4.377   0.569   1.622  0.9292 -0.7051  0.7455
  246MOL0     H33943   4.428   0.414   1.654  3.1168  0.3837  0.7036
  246MOL0     H33944   4.611   0.663   1.955 -2.1560  0.7511 -0.4813
  246MOL0     H33945   3.967   0.231   1.519 -1.7214  0.5050  3.6154
  246MOL0     H33946   4.015   0.166   1.307 -0.6019  0.6009  0.2967
  246MOL0     H33947   3.887   0.213   1.190 -0.5222 -0.3231  1.2824
  246MOL0     H33948   4.048   0.289   1.184  0.0713 -2.4564 -2.8277
  247MOL0     O33949   2.999   0.260   2.698  0.3121  0.4744  0.6799
  247MOL0     C33950   2.995   0.324   2.806 -0.4160  0.2354 -0.5692
  247MOL0     O33951   3.092   0.411   2.860  0.7193 -0.2530  0.3065
  247MOL0     C33952   3.223   0.411   2.823 -0.5082  0.2612 -0.5734
  247MOL0     C33953   3.283   0.313   2.737 -0.3731  0.4254  0.3817
  247MOL0     C33954   3.418   0.314   2.709 -0.4243  0.3172  0.8480
  247MOL0     C33955   3.493   0.414   2.772 -0.1025  0.4927 -0.1765
  247MOL0     O33956   3.616   0.448   2.720 -0.3712 -0.2702  0.7689
  247MOL0     C33957   3.713   0.347   2.738  0.4956  0.1771 -0.0828
  247MOL0     C33958   3.833   0.382   2.641 -0.7340 -0.5818  0.1024
  247MOL0     C33959   3.931   0.268   2.624 -0.4947  0.6773 -0.3736
  247MOL0     C33960   4.000   0.245   2.764  0.3030  0.2597  0.8083
  247MOL0     C33961   4.148   0.179   2.768 -0.4618  0.7660 -0.3213
  247MOL0     C33962   4.153   0.030   2.796 -0.6287 -0.5250  0.1209
  247MOL0     C33963   4.290  -0.028   2.749  0.1978 -0.2682 -0.4718
  247MOL0     C33964   4.282  -0.184   2.755 -0.1032  0.6561  0.4004
  247MOL0     N33965   4.413  -0.243   2.716 -0.2423 -0.3161 -0.6742
  247MOL0     C33966   4.451  -0.308   2.590 -1.1896 -0.0134 -0.6917
  247MOL0     C33967   4.564  -0.377   2.623  0.9763  0.3036 -0.4198
  247MOL0     C33968   4.652  -0.482   2.543  1.0077 -0.1295 -0.4534
  247MOL0     C33969   4.757  -0.428   2.453 -0.3234 -0.1495  0.7152
  247MOL0     C33970   4.809  -0.542   2.367  0.5499  0.8872 -0.4493
  247MOL0     C33971   4.950  -0.524   2.311  0.2887 -0.2282  0.1034
  247MOL0     O33972   5.037  -0.478   2.416 -0.6215  0.2334 -0.3657
  247MOL0     C33973   5.155  -0.423   2.380  0.6186 -0.3364  0.9286
  247MOL0     C33974   5.230  -0.472   2.272 -0.4796  0.1443 -0.0068
  247MOL0     C33975   5.351  -0.403   2.235  0.2184  0.1914 -0.4080
  247MOL0     C33976   5.429  -0.466   2.115 -0.7410 -0.3440 -0.6841
  247MOL0     C33977   5.395  -0.288   2.301  0.3154  0.7549 -0.4188
  247MOL0     C33978   5.519  -0.224   2.265 -0.3470 -0.0242  0.4113
  247MOL0     O33979   5.609  -0.227   2.365  0.2074 -0.5062 -0.7865
  247MOL0     C33980   5.738  -0.206   2.329 -0.3560  0.7935 -0.4874
  247MOL0     C33981   5.816  -0.295   2.266  0.4183 -0.3879  0.3723
  247MOL0     C33982   5.943  -0.255   2.228 -0.2801  0.3833  0.8294
  247MOL0     C33983   5.997  -0.129   2.248  0.1417  0.5650  0.1650
  247MOL0     O33984   6.129  -0.119   2.228 -0.5778 -0.7805 -0.0822
  247MOL0     C33985   6.205  -0.008   2.286 -0.2288  0.0779 -0.1580
  247MOL0     C33986   6.349  -0.051   2.287  1.0111 -0.3951 -0.2771
  247MOL0     C33987   6.439   0.057   2.338 -0.5402 -0.0901 -1.2831
  247MOL0     C33988   6.577   0.032   2.279  0.2572 -0.0710 -0.6704
  247MOL0     C33989   6.671   0.132   2.341 -0.5625 -0.2522 -0.4001
  247MOL0     C33990   6.701   0.075   2.489  0.5234  0.1494 -0.2043
  247MOL0     C33991   6.820   0.126   2.568  0.2673 -0.2921  0.4617
  247MOL0     C33992   6.837   0.278   2.559 -0.2933  0.2246  0.1831
  247MOL0    Cl33993   7.002   0.312   2.625 -0.1633  0.3672 -0.0869
  247MOL0     C33994   5.916  -0.035   2.302  0.2457 -0.1638 -1.0228
  247MOL0     C33995   5.787  -0.082   2.347  0.2126  0.1101  0.9386
  247MOL0     O33996   5.534  -0.168   2.156 -0.5664  0.0009 -0.7237
  247MOL0     C33997   5.308  -0.239   2.401 -0.5474  1.0476  1.0195
  247MOL0     C33998   5.193  -0.304   2.444  0.1958  0.6053 -0.3529
  247MOL0     N33999   4.599  -0.343   2.751 -0.2899 -0.6609  0.2927
  247MOL0     N34000   4.507  -0.270   2.806 -0.1589  0.2143 -0.0272
  247MOL0     C34001   3.437   0.515   2.853 -0.2977 -0.3052  0.6687
  247MOL0     C34002   3.301   0.508   2.888  0.0519  0.3007 -0.1108
  247MOL0     C34003   2.858   0.336   2.852  0.8482  0.6850 -0.8708
  247MOL0     C34004   2.817   0.451   2.920  0.5798  0.8298 -0.8416
  247MOL0     C34005   2.687   0.472   2.960  0.8119  0.1928  0.5619
  247MOL0     C34006   2.593   0.379   2.939  0.1339  0.9529  0.6879
  247MOL0     O34007   2.470   0.403   2.991  0.1116  0.3235  0.5524
  247MOL0     C34008   2.377   0.291   2.992  0.0475 -0.6481 -0.1179
  247MOL0     C34009   2.237   0.344   3.061  0.0377 -0.1129  0.2358
  247MOL0     C34010   2.138   0.228   3.061 -0.6913  0.1363 -0.1566
  247MOL0     C34011   2.005   0.260   3.130  0.4632 -0.5288  0.2703
  247MOL0     C34012   2.023   0.306   3.269 -0.0924 -0.2618  0.3095
  247MOL0     C34013   2.036   0.332   3.385  0.1949  0.0808  0.5343
  247MOL0     C34014   2.629   0.260   2.880 -0.5392  1.0953  0.0628
  247MOL0     C34015   2.762   0.234   2.841  0.0330  0.3196 -1.6942
  247MOL0     C34016   2.784   0.094   2.792  0.6019  0.4147 -0.3614
  247MOL0     H34017   3.227   0.239   2.681 -0.4935 -0.4902  1.6668
  247MOL0     H34018   3.467   0.246   2.641  0.3302  2.1079 -0.4712
  247MOL0     H34019   3.667   0.251   2.712  0.9679 -0.3195  0.8723
  247MOL0     H34020   3.748   0.344   2.841  0.9136  0.9136 -0.2019
  247MOL0     H34021   3.795   0.409   2.542  1.7517  1.3245 -0.4249
  247MOL0     H34022   3.884   0.467   2.686 -0.3615 -0.7147 -0.0705
  247MOL0     H34023   3.879   0.181   2.584 -0.8879  1.3498 -1.3565
  247MOL0     H34024   4.007   0.308   2.556 -1.4914  3.7526  0.1784
  247MOL0     H34025   4.008   0.344   2.811  1.0432  0.8634 -0.5350
  247MOL0     H34026   3.931   0.185   2.823  1.4628 -1.2122  0.7188
  247MOL0     H34027   4.211   0.226   2.845 -4.0704 -0.8052  4.0084
  247MOL0     H34028   4.184   0.197   2.666 -1.5083 -1.1248 -1.0687
  247MOL0     H34029   4.139   0.006   2.902  0.3411 -3.5104 -0.3298
  247MOL0     H34030   4.071  -0.023   2.748 -0.2962 -0.6259 -0.3502
  247MOL0     H34031   4.371   0.011   2.812 -1.2972  0.9220  0.8068
  247MOL0     H34032   4.314   0.013   2.650  1.4858  1.5043  0.5104
  247MOL0     H34033   4.268  -0.228   2.854  5.3472 -2.3204  0.2456
  247MOL0     H34034   4.193  -0.210   2.697  2.1483 -1.8820 -2.2182
  247MOL0     H34035   4.395  -0.319   2.498  0.2484  1.3822 -1.7949
  247MOL0     H34036   4.582  -0.550   2.492 -1.5832 -0.2210  2.8470
  247MOL0     H34037   4.705  -0.551   2.609  0.4509 -0.1445 -0.0103
  247MOL0     H34038   4.717  -0.349   2.390 -2.1782 -0.1612  1.7925
  247MOL0     H34039   4.831  -0.376   2.514 -0.5878  0.9304  0.1297
  247MOL0     H34040   4.816  -0.636   2.423  2.8421  1.6500  0.6609
  247MOL0     H34041   4.735  -0.554   2.287 -2.0179  0.5704  1.8211
  247MOL0     H34042   4.985  -0.622   2.276 -2.6022 -1.5169  0.4837
  247MOL0     H34043   4.942  -0.455   2.227  3.0356 -0.6320 -0.5989
  247MOL0     H34044   5.200  -0.565   2.226 -0.6438  0.4561 -0.5425
  247MOL0     H34045   5.462  -0.394   2.040  1.2888 -0.1826  0.2967
  247MOL0     H34046   5.365  -0.541   2.067  0.6275 -3.5520  2.0927
  247MOL0     H34047   5.519  -0.516   2.153 -1.2059 -0.6771  0.0124
  247MOL0     H34048   5.792  -0.399   2.247  0.7542 -0.2527 -0.9228
  247MOL0     H34049   6.022  -0.318   2.189 -1.3775 -0.2904 -0.3673
  247MOL0     H34050   6.207   0.088   2.234 -0.7703  0.9339  1.3121
  247MOL0     H34051   6.179   0.013   2.391  0.1023  1.3881 -0.3252
  247MOL0     H34052   6.353  -0.151   2.331  1.5665 -1.3731 -2.4235
  247MOL0     H34053   6.378  -0.080   2.185 -2.0508 -0.1496 -1.3248
  247MOL0     H34054   6.425   0.047   2.446 -1.0528 -2.3530 -1.4926
  247MOL0     H34055   6.395   0.154   2.316  1.6507  1.0102 -1.0767
  247MOL0     H34056   6.575   0.049   2.171  0.5319 -0.4986 -0.7457
  247MOL0     H34057   6.601  -0.075   2.286 -2.4932 -0.6719  1.3776
  247MOL0     H34058   6.758   0.149   2.277 -0.3787 -0.3905 -0.1877
  247MOL0     H34059   6.636   0.235   2.350 -1.7599 -0.6940  0.2248
  247MOL0     H34060   6.718  -0.033   2.478 -0.0023  0.2497 -2.3326
  247MOL0     H34061   6.611   0.090   2.550  0.2525 -0.6115 -0.4081
  247MOL0     H34062   6.911   0.075   2.534 -0.5181  0.3929 -3.1083
  247MOL0     H34063   6.808   0.100   2.673  1.8524  1.3810  1.0925
  247MOL0     H34064   6.753   0.319   2.616 -1.7865 -1.3881 -0.7547
  247MOL0     H34065   6.833   0.306   2.453  1.8256 -0.6194 -0.1696
  247MOL0     H34066   5.963   0.056   2.339  2.2464 -0.3727 -2.8981
  247MOL0     H34067   5.732   0.002   2.388  3.0854  2.0624  1.0853
  247MOL0     H34068   5.341  -0.144   2.442  0.4137  1.3749 -0.4243
  247MOL0     H34069   5.117  -0.253   2.503  1.7406  2.5799  0.0436
  247MOL0     H34070   3.502   0.591   2.895 -1.7531  2.2388 -1.4059
  247MOL0     H34071   3.255   0.575   2.960 -1.2661 -0.9960  0.2849
  247MOL0     H34072   2.900   0.515   2.949  1.7998 -1.6373  1.5234
  247MOL0     H34073   2.657   0.567   3.003 -1.0768  0.8403 -1.9425
  247MOL0     H34074   2.360   0.269   2.886  0.5973 -1.7191  0.0010
  247MOL0     H34075   2.422   0.213   3.054  1.0184 -2.0157 -2.4438
  247MOL0     H34076   2.212   0.436   3.006 -0.0021 -0.1240  0.2348
  247MOL0     H34077   2.254   0.378   3.163 -1.7356 -0.5009  0.7082
  247MOL0     H34078   2.117   0.206   2.956 -4.6104 -1.2260  0.7239
  247MOL0     H34079   2.177   0.139   3.112  1.0871  1.2456  0.5042
  247MOL0     H34080   1.940   0.174   3.146 -0.7379 -0.4930 -3.4194
  247MOL0     H34081   1.947   0.334   3.074  1.3346 -1.4067 -1.8910
  247MOL0     H34082   2.044   0.353   3.490 -1.6408  1.0953  0.5159
  247MOL0     H34083   2.559   0.179   2.866  1.2484 -0.7573  1.1935
  247MOL0     H34084   2.705   0.030   2.832 -1.9544  2.1960 -2.2349
  247MOL0     H34085   2.780   0.083   2.684 -0.0564 -1.0557 -0.2100
  247MOL0     H34086   2.879   0.070   2.841  0.0561 -0.5718  0.2467
  248MOL0     O34087   0.833   6.962   3.680 -0.2712  0.1895  0.2066
  248MOL0     C34088   0.811   7.017   3.572 -0.0748 -0.5544 -0.1084
  248MOL0     O34089   0.854   7.147   3.538 -0.1629  0.8700 -0.1364
  248MOL0     C34090   0.946   7.202   3.624  0.7644 -0.0812 -0.2259
  248MOL0     C34091   1.084   7.191   3.608  0.4053 -0.3546 -0.4106
  248MOL0     C34092   1.171   7.265   3.679 -0.8328  0.1116 -0.3258
  248MOL0     C34093   1.132   7.347   3.785  0.3662  0.3166 -0.4524
  248MOL0     O34094   1.223   7.430   3.843  0.6574 -0.3379  0.3038
  248MOL0     C34095   1.196   7.506   3.965 -1.5737  0.1797  0.3762
  248MOL0     C34096   1.333   7.538   4.031 -0.1810  0.6213  0.2228
  248MOL0     C34097   1.311   7.578   4.172 -0.3104  0.3777  0.2028
  248MOL0     C34098   1.426   7.576   4.261 -0.2486 -0.2789 -0.5471
  248MOL0     C34099   1.389   7.663   4.383 -0.3812  0.4132  0.4390
  248MOL0     C34100   1.462   7.597   4.502  0.7562  0.9274 -0.0220
  248MOL0     C34101   1.450   7.674   4.635 -0.8845 -0.4736 -0.6129
  248MOL0     C34102   1.429   7.825   4.615  0.3300 -0.6241  0.0048
  248MOL0     N34103   1.468   7.899   4.737  0.6281 -0.9796 -0.0803
  248MOL0     C34104   1.422   7.864   4.863  0.5010  0.5620  0.2521
  248MOL0     C34105   1.460   7.975   4.930 -0.1531 -0.2557 -0.0339
  248MOL0     C34106   1.435   8.001   5.070  0.3984  0.1608 -1.0123
  248MOL0     C34107   1.545   7.947   5.168  0.9052  0.1051  0.1139
  248MOL0     C34108   1.670   8.042   5.195  0.3297 -0.1985  0.4219
  248MOL0     C34109   1.787   7.966   5.252 -0.0314 -0.7941 -0.2431
  248MOL0     O34110   1.775   7.985   5.396  0.1376  0.0262  0.3031
  248MOL0     C34111   1.861   7.915   5.476  0.2869 -0.2280  0.8078
  248MOL0     C34112   1.849   7.947   5.608 -0.4320  0.2928 -0.3289
  248MOL0     C34113   1.937   7.893   5.710  0.2864  0.2078  0.6567
  248MOL0     C34114   1.916   7.932   5.857 -0.3604 -0.3233  0.5981
  248MOL0     C34115   2.032   7.794   5.673 -0.2493 -0.7800  0.1904
  248MOL0     C34116   2.114   7.719   5.771  0.1817  0.0603  0.2829
  248MOL0     O34117   2.213   7.634   5.711 -0.2987  0.4945  0.7266
  248MOL0     C34118   2.291   7.566   5.793 -0.0193  0.1352  0.3925
  248MOL0     C34119   2.231   7.452   5.851  0.6124  0.2275 -0.0248
  248MOL0     C34120   2.309   7.366   5.930  0.0198  0.2512 -0.1709
  248MOL0     C34121   2.444   7.396   5.959 -0.5447  0.6289 -0.6979
  248MOL0     O34122   2.519   7.303   6.042  0.3268 -0.4527  0.4647
  248MOL0     C34123   2.660   7.312   6.048 -0.7212  0.1058 -0.0429
  248MOL0     C34124   2.730   7.250   5.923  0.7072  0.3479  0.1352
  248MOL0     C34125   2.881   7.270   5.943  0.0900  0.5637  0.1258
  248MOL0     C34126   2.956   7.224   5.815  0.0316  0.0090  0.5538
  248MOL0     C34127   3.100   7.272   5.822  0.0427  0.2838 -0.4196
  248MOL0     C34128   3.169   7.277   5.684  0.7407 -0.1814 -0.0466
  248MOL0     C34129   3.286   7.374   5.699 -0.0015  0.2180 -0.2011
  248MOL0     C34130   3.419   7.310   5.750 -0.7878  0.5137  0.2962
  248MOL0    Cl34131   3.535   7.433   5.805  0.2260  0.3162  0.1822
  248MOL0     C34132   2.501   7.512   5.904 -0.7620 -0.5169 -0.5321
  248MOL0     C34133   2.423   7.592   5.816 -0.3240  0.3754  0.1297
  248MOL0     O34134   2.096   7.735   5.887  0.4054 -0.6442  0.1451
  248MOL0     C34135   2.057   7.782   5.532  0.0448 -0.1886  0.2857
  248MOL0     C34136   1.971   7.836   5.434  0.5740  0.4382 -0.0089
  248MOL0     N34137   1.525   8.067   4.853 -0.2929  0.3232 -0.3342
  248MOL0     N34138   1.530   8.015   4.735 -0.4457 -0.3331 -0.3387
  248MOL0     C34139   0.998   7.358   3.804 -0.0257  0.1368  0.0281
  248MOL0     C34140   0.909   7.287   3.726  0.0331  0.0246  0.7976
  248MOL0     C34141   0.704   6.945   3.485 -0.4366  0.0223  0.0253
  248MOL0     C34142   0.612   6.855   3.539 -0.1378 -0.2477 -0.0253
  248MOL0     C34143   0.514   6.790   3.462 -0.6362  0.6521  0.0899
  248MOL0     C34144   0.502   6.817   3.324  0.5710 -0.0824 -0.1747
  248MOL0     O34145   0.405   6.750   3.255  0.9287 -0.7017 -0.2598
  248MOL0     C34146   0.364   6.787   3.120 -0.4016  0.1226  0.1022
  248MOL0     C34147   0.224   6.745   3.091  0.1342 -0.8220  0.5192
  248MOL0     C34148   0.117   6.795   3.188  0.4352 -1.0299  0.4456
  248MOL0     C34149   0.110   6.946   3.171  0.3385 -0.2142  0.0082
  248MOL0     C34150  -0.000   6.990   3.260  0.0459 -0.0027  0.0340
  248MOL0     C34151  -0.088   7.014   3.344 -0.1525 -0.8483  0.8705
  248MOL0     C34152   0.593   6.910   3.271 -0.0672  0.1856 -0.3781
  248MOL0     C34153   0.694   6.972   3.345  0.2334  0.5095 -0.0739
  248MOL0     C34154   0.792   7.049   3.269 -0.2014 -0.5890  0.1753
  248MOL0     H34155   1.119   7.129   3.526  0.4983 -0.9145  0.0510
  248MOL0     H34156   1.275   7.279   3.651 -0.4230  0.9595  1.4531
  248MOL0     H34157   1.134   7.442   4.028 -0.6978 -0.1551  0.9065
  248MOL0     H34158   1.141   7.600   3.950  0.6453  1.2181 -2.0062
  248MOL0     H34159   1.397   7.450   4.025 -2.9808 -1.5298 -0.1023
  248MOL0     H34160   1.387   7.618   3.980 -0.0925 -0.2087 -1.0322
  248MOL0     H34161   1.274   7.681   4.174  1.1585  0.9349  2.6439
  248MOL0     H34162   1.229   7.521   4.218 -1.0674  0.1066 -1.3886
  248MOL0     H34163   1.459   7.472   4.275 -2.0358 -0.8663 -0.3930
  248MOL0     H34164   1.511   7.636   4.228  0.5478 -0.2961  1.3834
  248MOL0     H34165   1.283   7.659   4.409 -0.8484  1.9444 -0.9908
  248MOL0     H34166   1.408   7.769   4.361 -0.3732  1.5016  4.7729
  248MOL0     H34167   1.417   7.498   4.503  0.1639  1.1841 -0.4272
  248MOL0     H34168   1.566   7.577   4.474  0.2808 -3.2986  0.6604
  248MOL0     H34169   1.533   7.642   4.699 -0.4396  2.1217  0.2070
  248MOL0     H34170   1.358   7.639   4.682 -1.0439  0.0517 -0.5377
  248MOL0     H34171   1.480   7.866   4.527 -2.8151 -2.5026 -2.9697
  248MOL0     H34172   1.327   7.845   4.579  0.7772  1.3449 -0.2882
  248MOL0     H34173   1.385   7.768   4.897  3.6315 -0.8540 -0.0332
  248MOL0     H34174   1.348   7.939   5.094  0.4840 -0.9148 -3.2552
  248MOL0     H34175   1.424   8.110   5.078  1.5004  0.1598  0.7773
  248MOL0     H34176   1.505   7.923   5.267  1.0815  1.5282  0.5573
  248MOL0     H34177   1.571   7.851   5.123 -0.9304  0.7955 -2.6463
  248MOL0     H34178   1.686   8.085   5.095 -3.3386  0.7804  0.1191
  248MOL0     H34179   1.633   8.124   5.257 -2.8520 -1.3018  0.1552
  248MOL0     H34180   1.796   7.860   5.226 -1.4813 -0.9435 -0.2488
  248MOL0     H34181   1.883   8.012   5.230 -0.1238 -1.1079 -1.3702
  248MOL0     H34182   1.765   8.008   5.642 -1.1198  0.0813 -1.5969
  248MOL0     H34183   1.841   8.012   5.855 -1.4526 -1.2336  2.4419
  248MOL0     H34184   2.011   7.971   5.895 -0.1825 -0.7514  0.5892
  248MOL0     H34185   1.887   7.855   5.928  1.7072 -1.1473  0.5987
  248MOL0     H34186   2.125   7.431   5.842  0.6957 -0.3743  0.3585
  248MOL0     H34187   2.263   7.281   5.979  1.4806 -0.8096 -0.5760
  248MOL0     H34188   2.695   7.413   6.071  0.5167 -0.1354 -0.7707
  248MOL0     H34189   2.694   7.256   6.135  2.7654  1.5322 -0.3333
  248MOL0     H34190   2.707   7.144   5.911  3.2666 -0.1125 -1.3648
  248MOL0     H34191   2.698   7.302   5.832  0.0404  1.8196  1.1586
  248MOL0     H34192   2.922   7.221   6.032  3.8965  0.9470 -1.2036
  248MOL0     H34193   2.899   7.377   5.958 -0.9296  0.7872 -0.1734
  248MOL0     H34194   2.903   7.267   5.729  3.1852  1.3144 -0.8980
  248MOL0     H34195   2.957   7.116   5.798 -0.5236  0.2718 -1.4931
  248MOL0     H34196   3.094   7.371   5.868  4.4339 -0.5541  2.6827
  248MOL0     H34197   3.151   7.210   5.897  1.9874  1.4123 -0.7304
  248MOL0     H34198   3.099   7.326   5.616  2.6730 -0.9585 -2.7346
  248MOL0     H34199   3.185   7.182   5.634  1.3167  0.3827 -0.9496
  248MOL0     H34200   3.260   7.462   5.758 -1.1568 -0.5701  0.4888
  248MOL0     H34201   3.311   7.416   5.601  0.3588  0.4180 -0.0260
  248MOL0     H34202   3.463   7.248   5.671  1.3177  3.3141 -0.8655
  248MOL0     H34203   3.394   7.265   5.847 -1.2332  1.9179  0.8487
  248MOL0     H34204   2.604   7.542   5.916 -1.4941  1.8765  0.6016
  248MOL0     H34205   2.474   7.668   5.759 -1.8879  2.1608  1.0057
  248MOL0     H34206   2.149   7.730   5.507  0.5900  1.1386 -0.5941
  248MOL0     H34207   1.996   7.827   5.329  1.7531  0.0608  0.2920
  248MOL0     H34208   0.963   7.420   3.885  1.8642  1.0377  0.1845
  248MOL0     H34209   0.803   7.302   3.748 -0.6650 -2.8339 -0.1530
  248MOL0     H34210   0.632   6.831   3.643 -0.6332  1.5314  0.5002
  248MOL0     H34211   0.454   6.713   3.511  1.1785 -0.3616  0.8529
  248MOL0     H34212   0.378   6.895   3.120 -1.4680  0.2766  1.1242
  248MOL0     H34213   0.434   6.736   3.053  0.2033 -0.2593  1.0006
  248MOL0     H34214   0.224   6.636   3.103 -0.2795 -0.6862  1.9081
  248MOL0     H34215   0.200   6.771   2.987  0.8605 -0.2893  0.4760
  248MOL0     H34216   0.018   6.761   3.156 -0.0080  0.9368 -0.4110
  248MOL0     H34217   0.139   6.764   3.290  1.1864  0.4555  0.7517
  248MOL0     H34218   0.089   6.970   3.066  0.8393 -0.0293 -0.0514
  248MOL0     H34219   0.193   7.005   3.208 -0.5232  0.1650  1.3987
  248MOL0     H34220  -0.182   7.035   3.391  0.0309 -0.2698  0.9967
  248MOL0     H34221   0.586   6.926   3.164 -0.9406  4.5181  0.1416
  248MOL0     H34222   0.769   7.155   3.279 -1.7629 -0.7439 -1.2166
  248MOL0     H34223   0.894   7.017   3.292  1.3399  2.3616 -1.9466
  248MOL0     H34224   0.775   7.029   3.163 -2.1486  0.8931  0.1364
  249MOL0     O34225   3.207   3.104   7.542 -0.5709 -0.1049  0.0089
  249MOL0     C34226   3.171   2.981   7.548 -0.4409  1.0778 -1.3479
  249MOL0     O34227   3.238   2.874   7.508 -0.3267 -0.1023 -0.2614
  249MOL0     C34228   3.370   2.882   7.475 -0.3569 -0.1389  1.4670
  249MOL0     C34229   3.461   2.984   7.463 -0.2654  0.1977 -0.2608
  249MOL0     C34230   3.595   2.957   7.431 -0.2546  0.4635 -0.4545
  249MOL0     C34231   3.640   2.830   7.393  1.2441 -0.5532  0.5158
  249MOL0     O34232   3.764   2.807   7.353 -0.3157  0.0709 -0.3686
  249MOL0     C34233   3.871   2.902   7.359 -0.3496  0.4913  0.2362
  249MOL0     C34234   4.004   2.850   7.311 -0.2826 -0.2831  0.7334
  249MOL0     C34235   4.054   2.724   7.374 -0.6319  0.7255  0.7330
  249MOL0     C34236   4.177   2.671   7.301 -0.4282 -0.1378  0.0176
  249MOL0     C34237   4.149   2.619   7.161 -0.2889 -0.1674 -0.2568
  249MOL0     C34238   4.266   2.556   7.097 -0.0013 -0.4761  0.3134
  249MOL0     C34239   4.404   2.616   7.129 -0.0402 -0.2830 -0.2045
  249MOL0     C34240   4.521   2.598   7.025  0.2329  0.5948 -0.1681
  249MOL0     N34241   4.651   2.650   7.085  0.8726  0.1115 -1.2698
  249MOL0     C34242   4.727   2.571   7.172  0.5246 -0.1614  1.0009
  249MOL0     C34243   4.828   2.655   7.203 -0.5797  0.0224 -0.3209
  249MOL0     C34244   4.942   2.616   7.294 -0.4860  0.0274  0.5685
  249MOL0     C34245   5.085   2.591   7.245  0.6170 -0.2230  1.0336
  249MOL0     C34246   5.149   2.721   7.185 -0.0235 -0.3301 -0.0971
  249MOL0     C34247   5.295   2.695   7.159 -0.2407 -0.1362  0.2242
  249MOL0     O34248   5.358   2.819   7.129  0.4243  0.6941 -0.4045
  249MOL0     C34249   5.494   2.815   7.137 -0.0718 -0.0969  0.2555
  249MOL0     C34250   5.555   2.801   7.017 -0.1203 -0.6936  0.7875
  249MOL0     C34251   5.693   2.795   7.007 -0.2946 -0.7532  0.7313
  249MOL0     C34252   5.751   2.780   6.867 -0.2089  0.1889 -0.2331
  249MOL0     C34253   5.775   2.813   7.124 -0.1750 -0.7423 -0.1102
  249MOL0     C34254   5.922   2.822   7.127  0.4823 -0.1948  0.4785
  249MOL0     O34255   5.997   2.750   7.218  0.1546 -0.8328  0.2326
  249MOL0     C34256   6.116   2.797   7.259 -0.1336  0.5476  0.4231
  249MOL0     C34257   6.212   2.701   7.298 -0.0288  0.4067  0.1168
  249MOL0     C34258   6.338   2.741   7.345 -0.1907 -0.8544 -0.8301
  249MOL0     C34259   6.361   2.886   7.363  0.9233  0.5752  1.1751
  249MOL0     O34260   6.481   2.941   7.416  0.2125  0.3979 -0.8337
  249MOL0     C34261   6.575   2.851   7.478  0.2524  0.5974  0.6787
  249MOL0     C34262   6.687   2.947   7.518  0.2736  1.2277 -0.0108
  249MOL0     C34263   6.803   2.864   7.590  0.1572 -0.3032 -1.0561
  249MOL0     C34264   6.925   2.846   7.491 -0.0059 -0.2603 -0.3517
  249MOL0     C34265   7.064   2.808   7.555 -0.0941  1.0428 -0.0123
  249MOL0     C34266   7.145   2.743   7.443 -0.3297 -0.5767 -0.0412
  249MOL0     C34267   7.297   2.728   7.478  0.2223  0.6134 -1.2140
  249MOL0     C34268   7.369   2.669   7.355 -1.0261  0.0247 -0.3299
  249MOL0    Cl34269   7.319   2.499   7.307  0.2702 -0.1031  0.0628
  249MOL0     C34270   6.264   2.981   7.315 -0.6890 -0.2156 -0.0307
  249MOL0     C34271   6.142   2.932   7.266  0.4746 -0.6790  1.2083
  249MOL0     O34272   5.964   2.900   7.038 -0.0632 -0.7521 -0.5480
  249MOL0     C34273   5.704   2.826   7.250  1.0183  0.9436 -0.8317
  249MOL0     C34274   5.562   2.818   7.253 -0.4809  0.1912 -0.3935
  249MOL0     N34275   4.811   2.776   7.142  0.3907  0.2761  0.4028
  249MOL0     N34276   4.704   2.771   7.071 -0.2270  0.8197  0.3765
  249MOL0     C34277   3.551   2.723   7.412 -0.8404 -0.5326 -0.3113
  249MOL0     C34278   3.417   2.747   7.448  0.5566  0.4487  0.4007
  249MOL0     C34279   3.029   2.961   7.600 -0.3400 -0.5846 -0.2570
  249MOL0     C34280   2.970   3.081   7.654  0.4199 -0.1354  0.7395
  249MOL0     C34281   2.843   3.073   7.706 -0.2931 -0.3512  0.1229
  249MOL0     C34282   2.765   2.952   7.699  0.2653 -0.2070 -0.6478
  249MOL0     O34283   2.642   2.955   7.755 -0.1548  0.7192  0.1729
  249MOL0     C34284   2.555   2.845   7.730  0.5104  0.1159  0.2847
  249MOL0     C34285   2.416   2.906   7.756  0.4339  0.0443  0.5542
  249MOL0     C34286   2.390   3.039   7.677  0.0422  0.1136 -0.0152
  249MOL0     C34287   2.382   3.029   7.522  0.0716 -0.6875  0.1769
  249MOL0     C34288   2.242   2.991   7.499  1.6237  0.0659  0.2125
  249MOL0     C34289   2.135   2.937   7.462 -0.5146  0.1637 -1.5738
  249MOL0     C34290   2.827   2.841   7.661  0.2914  0.8597 -0.2046
  249MOL0     C34291   2.956   2.848   7.608 -0.4441 -0.0908 -1.1969
  249MOL0     C34292   3.022   2.714   7.603  0.2854  0.2863  0.5946
  249MOL0     H34293   3.435   3.089   7.474 -0.7005  0.3016 -2.0589
  249MOL0     H34294   3.664   3.040   7.420  1.6070 -1.0265 -0.5382
  249MOL0     H34295   3.877   2.915   7.467 -0.0665 -2.5338  0.6858
  249MOL0     H34296   3.851   2.986   7.292 -1.0066 -1.5793 -2.3089
  249MOL0     H34297   4.010   2.842   7.203  0.2699 -1.5657  0.8366
  249MOL0     H34298   4.075   2.929   7.333 -0.0826 -0.7147  1.7125
  249MOL0     H34299   4.094   2.735   7.476  0.0353  0.2800  0.5261
  249MOL0     H34300   3.977   2.646   7.380  1.0510 -0.9846  1.1557
  249MOL0     H34301   4.244   2.756   7.290 -0.1994 -0.5095 -1.7975
  249MOL0     H34302   4.226   2.596   7.364 -0.1432 -0.3374 -0.4342
  249MOL0     H34303   4.102   2.692   7.094 -0.2538  0.8392  0.7905
  249MOL0     H34304   4.067   2.549   7.177  0.0791 -0.0764  2.4609
  249MOL0     H34305   4.267   2.448   7.110 -0.4649 -0.2999  1.9638
  249MOL0     H34306   4.254   2.571   6.989 -1.6353  1.8684  0.7517
  249MOL0     H34307   4.441   2.573   7.222 -0.4926  2.2426  1.2391
  249MOL0     H34308   4.379   2.722   7.144 -1.0858 -0.5236 -0.1831
  249MOL0     H34309   4.522   2.491   7.000 -1.4008 -0.2045  2.7339
  249MOL0     H34310   4.508   2.653   6.931 -1.6169 -0.6716 -0.6983
  249MOL0     H34311   4.706   2.473   7.213  1.5555 -0.8544 -0.0643
  249MOL0     H34312   4.918   2.521   7.342 -2.7575  0.0700 -0.3467
  249MOL0     H34313   4.937   2.699   7.366 -0.6853 -0.1863  0.8048
  249MOL0     H34314   5.146   2.549   7.326 -1.1770 -2.3849  1.3652
  249MOL0     H34315   5.071   2.518   7.165 -0.5337 -0.2821  1.2750
  249MOL0     H34316   5.083   2.753   7.105 -0.0157  0.2931  0.1443
  249MOL0     H34317   5.152   2.796   7.264 -2.5679  0.2351 -0.4530
  249MOL0     H34318   5.338   2.636   7.241 -0.3054 -0.0219  0.3407
  249MOL0     H34319   5.300   2.644   7.063 -0.2493  1.7523 -0.8312
  249MOL0     H34320   5.506   2.799   6.920  0.8918  1.3241  0.1906
  249MOL0     H34321   5.696   2.710   6.803  0.8478  0.3262 -1.3415
  249MOL0     H34322   5.852   2.741   6.853 -0.1556  1.3047 -4.1700
  249MOL0     H34323   5.744   2.877   6.815 -3.6198 -0.5895 -1.4979
  249MOL0     H34324   6.196   2.594   7.291  2.4269  0.0088 -0.3074
  249MOL0     H34325   6.409   2.661   7.361  1.1225  0.8812  3.5016
  249MOL0     H34326   6.534   2.801   7.567  3.6346 -1.7949  1.1060
  249MOL0     H34327   6.605   2.764   7.418  0.0874  0.8254  0.2638
  249MOL0     H34328   6.737   3.001   7.437 -1.5185 -0.7370 -2.5993
  249MOL0     H34329   6.642   3.027   7.579  1.1736  2.2523 -0.6551
  249MOL0     H34330   6.763   2.768   7.625 -0.0204  0.1496  0.0319
  249MOL0     H34331   6.841   2.915   7.680  1.2110  2.1485 -2.7955
  249MOL0     H34332   6.940   2.940   7.437 -1.3513  0.3161  0.2337
  249MOL0     H34333   6.888   2.779   7.413 -1.6166  0.1931 -0.0170
  249MOL0     H34334   7.112   2.893   7.605  0.0134 -0.2777  2.3128
  249MOL0     H34335   7.051   2.729   7.630 -1.1898  1.7421  0.5671
  249MOL0     H34336   7.144   2.798   7.348 -0.1720 -2.1281 -0.9694
  249MOL0     H34337   7.105   2.644   7.420  0.1182 -1.5552  2.9745
  249MOL0     H34338   7.301   2.659   7.562  2.0820  2.0721 -0.0113
  249MOL0     H34339   7.346   2.818   7.517 -1.1934  1.5799 -1.5698
  249MOL0     H34340   7.473   2.648   7.381 -0.8561  0.1507 -0.8997
  249MOL0     H34341   7.368   2.736   7.269  3.2197  1.1249  0.2744
  249MOL0     H34342   6.289   3.085   7.333  1.3606 -0.3316 -1.8598
  249MOL0     H34343   6.061   3.000   7.242  0.4411 -1.3674 -0.8302
  249MOL0     H34344   5.748   2.821   7.349 -1.6294  0.0109  0.4005
  249MOL0     H34345   5.519   2.821   7.353 -1.2727 -1.2593 -0.6756
  249MOL0     H34346   3.594   2.625   7.394  1.7367  0.5439 -0.4611
  249MOL0     H34347   3.351   2.661   7.459  0.7785  0.4695  2.2254
  249MOL0     H34348   3.015   3.179   7.664  0.9716 -0.5360  2.4617
  249MOL0     H34349   2.805   3.166   7.746  0.0263  0.8183 -2.0920
  249MOL0     H34350   2.569   2.826   7.623  0.3465  3.1578 -0.3549
  249MOL0     H34351   2.571   2.752   7.786  0.0470 -0.1006  0.0599
  249MOL0     H34352   2.407   2.933   7.862  0.3311  0.9076  0.3314
  249MOL0     H34353   2.341   2.833   7.726 -0.1845  0.1691  1.7118
  249MOL0     H34354   2.299   3.082   7.720 -0.9543 -1.2079 -0.7614
  249MOL0     H34355   2.469   3.112   7.699 -0.0655  1.1471 -2.6590
  249MOL0     H34356   2.455   2.962   7.476  0.4725  0.0897 -0.3497
  249MOL0     H34357   2.387   3.126   7.471 -1.1504 -0.1561  1.0286
  249MOL0     H34358   2.045   2.881   7.448 -0.9649  0.2589  0.6117
  249MOL0     H34359   2.773   2.747   7.664 -1.9233  2.0571 -0.3968
  249MOL0     H34360   3.056   2.682   7.505 -3.3020 -3.3937  0.3140
  249MOL0     H34361   3.107   2.733   7.670 -0.8280 -0.7853  2.4047
  249MOL0     H34362   2.971   2.624   7.638  0.6475 -0.2708 -0.2693
  250MOL0     O34363   0.628   3.059   4.877  0.7034 -0.1012  0.0128
  250MOL0     C34364   0.632   3.106   4.992  0.2931 -0.7364 -0.2512
  250MOL0     O34365   0.607   3.241   5.018 -0.2452 -0.2301 -0.5734
  250MOL0     C34366   0.517   3.315   4.940  0.4659  0.1626 -0.6895
  250MOL0     C34367   0.508   3.457   4.931 -0.5050  1.0103  0.0091
  250MOL0     C34368   0.398   3.523   4.863  0.0865  0.4988 -0.0889
  250MOL0     C34369   0.285   3.449   4.817  0.5255  0.4923  0.0064
  250MOL0     O34370   0.174   3.507   4.754  0.1693  0.5425 -0.7419
  250MOL0     C34371   0.119   3.633   4.810 -0.4379  0.1965  0.2190
  250MOL0     C34372  -0.012   3.658   4.732  0.4664  0.3670 -0.5287
  250MOL0     C34373  -0.127   3.562   4.766 -0.1101 -0.3081 -0.4842
  250MOL0     C34374  -0.255   3.622   4.696 -0.0875  0.5910  0.8932
  250MOL0     C34375  -0.362   3.507   4.669 -0.6187  0.2696 -1.3588
  250MOL0     C34376  -0.457   3.473   4.787  0.2728 -0.1282 -0.3631
  250MOL0     C34377  -0.519   3.598   4.861 -0.5710  0.2154  0.0478
  250MOL0     C34378  -0.630   3.563   4.965  0.5854  0.0653  0.3325
  250MOL0     N34379  -0.743   3.500   4.896 -0.1403  0.0951 -0.8483
  250MOL0     C34380  -0.809   3.570   4.806 -0.3027 -0.4463  0.2181
  250MOL0     C34381  -0.897   3.482   4.749  0.1968 -0.0847  0.4864
  250MOL0     C34382  -0.998   3.489   4.637 -1.3421 -0.2872 -0.4695
  250MOL0     C34383  -1.036   3.635   4.603 -0.7919 -0.6706 -0.5961
  250MOL0     C34384  -0.927   3.691   4.511 -0.3953  0.1639  0.0970
  250MOL0     C34385  -0.948   3.840   4.482  0.7925 -0.2888 -0.7510
  250MOL0     O34386  -0.863   3.898   4.389 -0.2767 -0.3916 -0.6267
  250MOL0     C34387  -0.871   4.037   4.363  0.1573  0.3605 -0.2571
  250MOL0     C34388  -0.785   4.086   4.267  0.3078 -0.2177 -0.8575
  250MOL0     C34389  -0.788   4.229   4.232 -0.2114  0.2939  0.7654
  250MOL0     C34390  -0.706   4.270   4.115  0.4872  0.0546  0.1460
  250MOL0     C34391  -0.862   4.324   4.301 -0.4643  0.1514  0.4359
  250MOL0     C34392  -0.875   4.469   4.263 -1.0164 -0.7203  0.0212
  250MOL0     O34393  -0.997   4.511   4.222  0.0862 -0.3029 -0.2794
  250MOL0     C34394  -1.033   4.643   4.225  0.1308 -0.4594  0.3301
  250MOL0     C34395  -1.136   4.684   4.310  0.0590 -0.5411 -0.4819
  250MOL0     C34396  -1.174   4.822   4.308 -0.0508 -0.5321  0.3930
  250MOL0     C34397  -1.114   4.918   4.218  0.1140  0.6404  0.5494
  250MOL0     O34398  -1.150   5.053   4.225 -0.3060 -0.1861  0.0686
  250MOL0     C34399  -1.070   5.155   4.151 -0.3315 -0.3855  0.4259
  250MOL0     C34400  -1.128   5.291   4.207  0.2081  0.0745 -0.8436
  250MOL0     C34401  -1.081   5.407   4.128  0.2082  0.3537  0.4147
  250MOL0     C34402  -1.160   5.540   4.145  0.7140  0.4148 -0.3186
  250MOL0     C34403  -1.184   5.621   4.023  0.3708 -0.2744  1.0215
  250MOL0     C34404  -1.276   5.740   4.050  0.4500 -0.1032 -0.1995
  250MOL0     C34405  -1.282   5.819   3.922 -0.5767 -0.3960  0.7694
  250MOL0     C34406  -1.354   5.953   3.946  0.2708 -0.2554 -0.5952
  250MOL0    Cl34407  -1.534   5.934   3.957 -0.3772 -0.0455 -0.4647
  250MOL0     C34408  -1.042   4.860   4.117 -0.8816  0.2646  0.9923
  250MOL0     C34409  -1.002   4.727   4.119 -0.3814 -0.2450  0.3441
  250MOL0     O34410  -0.773   4.542   4.258 -0.5733 -0.3157 -0.5371
  250MOL0     C34411  -0.943   4.279   4.409 -0.7653  0.6489  0.6615
  250MOL0     C34412  -0.946   4.139   4.438  0.6517  0.0033  0.6839
  250MOL0     N34413  -0.888   3.361   4.818  0.0147 -0.7262  0.2073
  250MOL0     N34414  -0.793   3.373   4.907 -0.4833 -0.0863 -0.0078
  250MOL0     C34415   0.286   3.310   4.833 -0.1454  0.6742 -0.1718
  250MOL0     C34416   0.397   3.246   4.888  0.9209 -0.6732 -0.1502
  250MOL0     C34417   0.701   3.024   5.098 -0.2456  0.3416  0.8623
  250MOL0     C34418   0.790   3.089   5.182  0.1589 -0.0796  1.3223
  250MOL0     C34419   0.845   3.018   5.287  0.0149  0.4294  0.5550
  250MOL0     C34420   0.827   2.876   5.296 -0.6674 -0.6289  0.5114
  250MOL0     O34421   0.868   2.795   5.392  0.3277 -0.5953  0.0977
  250MOL0     C34422   0.978   2.833   5.473  0.1592  0.2626 -0.5728
  250MOL0     C34423   1.118   2.837   5.392  0.4106  0.9928 -0.3618
  250MOL0     C34424   1.232   2.863   5.486 -0.3394  0.1861 -0.2848
  250MOL0     C34425   1.364   2.859   5.408 -0.2933 -0.4790  0.0003
  250MOL0     C34426   1.473   2.926   5.478  0.2897  0.1713 -0.0312
  250MOL0     C34427   1.562   2.970   5.542 -0.3255 -0.4633  0.5456
  250MOL0     C34428   0.751   2.809   5.195  0.3905 -0.1889  0.2051
  250MOL0     C34429   0.685   2.885   5.100  0.1198  0.7443  0.1246
  250MOL0     C34430   0.591   2.800   5.015 -0.5243  0.1089  0.7029
  250MOL0     H34431   0.583   3.516   4.984 -2.1074  1.6504  1.6638
  250MOL0     H34432   0.401   3.630   4.848  1.4178  0.4789 -0.1322
  250MOL0     H34433   0.190   3.716   4.804 -0.3289  0.1732  1.0406
  250MOL0     H34434   0.096   3.627   4.917 -0.4613  2.1739  0.3614
  250MOL0     H34435  -0.045   3.759   4.759  1.3514  1.1058 -2.0310
  250MOL0     H34436  -0.001   3.657   4.623 -0.3865  0.7320 -0.6299
  250MOL0     H34437  -0.103   3.466   4.720  1.4753 -0.0899 -0.1751
  250MOL0     H34438  -0.141   3.556   4.874 -3.0443  0.6662 -0.7162
  250MOL0     H34439  -0.298   3.708   4.748  0.9520  0.5219  1.9331
  250MOL0     H34440  -0.218   3.647   4.597  0.8376 -1.2750  0.7249
  250MOL0     H34441  -0.310   3.416   4.636 -0.8866 -0.2730 -0.3143
  250MOL0     H34442  -0.425   3.540   4.586 -2.8253 -1.5329 -0.4996
  250MOL0     H34443  -0.540   3.416   4.745  0.7429 -0.6450 -0.6047
  250MOL0     H34444  -0.407   3.407   4.859  0.9464  2.9255  2.2123
  250MOL0     H34445  -0.556   3.665   4.783 -1.1674 -2.0692 -1.7327
  250MOL0     H34446  -0.439   3.650   4.913  0.8964 -1.5959 -0.2835
  250MOL0     H34447  -0.595   3.502   5.049  1.2497 -1.7264 -1.1869
  250MOL0     H34448  -0.675   3.653   5.009 -0.0553 -0.0572 -0.0505
  250MOL0     H34449  -0.790   3.676   4.788  1.6556 -0.0513  3.6830
  250MOL0     H34450  -1.090   3.438   4.668 -1.5069  1.5039  2.3803
  250MOL0     H34451  -0.948   3.431   4.559  2.8668 -0.5318  2.0860
  250MOL0     H34452  -1.132   3.637   4.551 -1.2046 -1.5128  0.1165
  250MOL0     H34453  -1.047   3.697   4.692 -1.5018  0.1863 -1.2605
  250MOL0     H34454  -0.835   3.677   4.568 -0.0623  1.3457 -0.1085
  250MOL0     H34455  -0.929   3.627   4.423 -1.5329 -0.7893  0.7812
  250MOL0     H34456  -1.047   3.847   4.436  0.8423 -3.1553 -1.5169
  250MOL0     H34457  -0.933   3.899   4.573 -2.7314 -0.2263 -0.0736
  250MOL0     H34458  -0.735   3.999   4.225 -0.0333 -1.8476  1.8235
  250MOL0     H34459  -0.642   4.357   4.132 -1.4211  1.8684 -1.3793
  250MOL0     H34460  -0.779   4.291   4.037 -0.4957  1.3303  1.3462
  250MOL0     H34461  -0.637   4.191   4.084  0.8231  0.2529  0.3773
  250MOL0     H34462  -1.191   4.611   4.368 -2.8819  0.4618 -1.7959
  250MOL0     H34463  -1.242   4.863   4.382 -1.4996 -0.0108 -1.1639
  250MOL0     H34464  -0.963   5.158   4.172  0.6323  0.4563 -3.7704
  250MOL0     H34465  -1.079   5.149   4.042  1.0792 -1.0266  0.3187
  250MOL0     H34466  -1.236   5.284   4.188 -0.0507  4.1618 -1.9800
  250MOL0     H34467  -1.095   5.302   4.310 -0.4389  0.8391 -0.7060
  250MOL0     H34468  -1.093   5.381   4.023 -1.2326  1.5627  0.2535
  250MOL0     H34469  -0.975   5.428   4.142  0.1532 -0.3589  2.1632
  250MOL0     H34470  -1.112   5.607   4.217 -0.1995  0.5481  0.1915
  250MOL0     H34471  -1.256   5.510   4.190  3.9950 -4.3778  4.7574
  250MOL0     H34472  -1.087   5.652   3.983  0.1604  2.7620  2.5132
  250MOL0     H34473  -1.240   5.562   3.950  0.7273 -0.0297  0.5523
  250MOL0     H34474  -1.234   5.811   4.121  1.6204  0.7405 -1.6811
  250MOL0     H34475  -1.373   5.709   4.091  0.4622  2.0263  1.6006
  250MOL0     H34476  -1.324   5.757   3.842 -0.3355  0.9712 -0.4480
  250MOL0     H34477  -1.180   5.836   3.886 -1.1461  0.4018 -0.5417
  250MOL0     H34478  -1.324   6.032   3.876 -2.1826  1.3645  0.0047
  250MOL0     H34479  -1.320   5.989   4.044 -0.0007 -0.7431 -0.3200
  250MOL0     H34480  -0.999   4.911   4.032  2.0469  0.3264  2.3667
  250MOL0     H34481  -0.949   4.689   4.032  1.3398 -0.4866  1.4513
  250MOL0     H34482  -1.009   4.357   4.447 -0.6110  2.4632 -2.4583
  250MOL0     H34483  -1.007   4.114   4.525  1.4803 -0.8993  1.0311
  250MOL0     H34484   0.201   3.251   4.801 -1.7248  1.7753  1.7513
  250MOL0     H34485   0.377   3.139   4.896 -0.4790 -0.3115  2.5968
  250MOL0     H34486   0.817   3.193   5.173 -0.9199  0.3142  2.4014
  250MOL0     H34487   0.913   3.074   5.352  1.8020  0.2439 -1.0769
  250MOL0     H34488   0.965   2.930   5.522  0.3879  0.8264 -1.5915
  250MOL0     H34489   0.973   2.753   5.547  0.0538 -1.3145 -2.2229
  250MOL0     H34490   1.120   2.909   5.310 -1.1599 -0.1273 -1.4431
  250MOL0     H34491   1.125   2.734   5.355  0.9669  0.9049 -0.0340
  250MOL0     H34492   1.220   2.968   5.518  1.5454  1.1051 -2.3404
  250MOL0     H34493   1.220   2.786   5.563 -3.0551  1.3497  0.6033
  250MOL0     H34494   1.357   2.899   5.307 -1.6160 -3.1863 -1.0641
  250MOL0     H34495   1.390   2.755   5.386 -1.3849 -0.4743 -1.3862
  250MOL0     H34496   1.644   3.002   5.603  1.2307 -3.6841  0.3185
  250MOL0     H34497   0.718   2.707   5.214 -2.4932  0.8614  1.2653
  250MOL0     H34498   0.542   2.724   5.077 -3.9341 -0.1904 -2.0851
  250MOL0     H34499   0.506   2.853   4.973  0.6476  0.8363 -0.8212
  250MOL0     H34500   0.643   2.743   4.937  1.1189  1.2136  0.9338
  251MOL0     O34501   2.106   9.340   2.573 -0.0057 -0.2188  0.6665
  251MOL0     C34502   2.047   9.331   2.675  0.2578  0.2777  0.1393
  251MOL0     O34503   2.103   9.319   2.797  0.3724  0.1008  0.0407
  251MOL0     C34504   2.236   9.316   2.818  0.1731  0.2438  0.1992
  251MOL0     C34505   2.289   9.400   2.916 -0.6829 -0.0056 -0.5435
  251MOL0     C34506   2.434   9.400   2.927  1.0401  0.5454 -1.1260
  251MOL0     C34507   2.511   9.298   2.870 -0.0932 -0.6480  0.2367
  251MOL0     O34508   2.642   9.283   2.906  0.0133 -0.0553 -1.0052
  251MOL0     C34509   2.682   9.318   3.037  0.5685  0.3228  0.2790
  251MOL0     C34510   2.835   9.309   3.055 -0.6713 -0.3272  0.1773
  251MOL0     C34511   2.868   9.304   3.207  0.5445 -0.0432  0.0995
  251MOL0     C34512   2.849   9.160   3.257  0.6250  0.0577  0.2600
  251MOL0     C34513   2.985   9.079   3.247  0.1951 -0.3699 -0.5809
  251MOL0     C34514   2.978   8.933   3.271  0.8941 -0.4354 -0.0571
  251MOL0     C34515   3.108   8.854   3.222 -0.1045  0.3665 -1.4896
  251MOL0     C34516   3.079   8.695   3.237  0.2474 -0.2806  0.7937
  251MOL0     N34517   3.196   8.616   3.198 -0.7241 -0.3585  0.1854
  251MOL0     C34518   3.208   8.560   3.070 -0.0129  0.7585 -0.2541
  251MOL0     C34519   3.313   8.473   3.074 -0.8642  0.8283 -1.3891
  251MOL0     C34520   3.353   8.379   2.965 -1.2817  0.2817 -0.2849
  251MOL0     C34521   3.502   8.377   2.922  0.4980 -0.5117 -0.8090
  251MOL0     C34522   3.554   8.490   2.827  0.1532 -0.9188 -0.9631
  251MOL0     C34523   3.498   8.502   2.688  0.4016 -0.3642 -0.1397
  251MOL0     O34524   3.496   8.373   2.625 -0.0137 -0.1209 -0.1453
  251MOL0     C34525   3.607   8.318   2.557  0.6518 -0.3628  0.8459
  251MOL0     C34526   3.587   8.208   2.460 -0.1645 -0.4477  0.4911
  251MOL0     C34527   3.701   8.151   2.397 -1.1635 -0.1266 -0.7834
  251MOL0     C34528   3.686   8.027   2.304  0.0559  0.6126  0.4658
  251MOL0     C34529   3.831   8.194   2.438  0.0768  0.9423  0.6343
  251MOL0     C34530   3.959   8.148   2.379 -0.1154 -0.3889 -0.0226
  251MOL0     O34531   4.072   8.219   2.419 -0.4249 -0.1671  0.7726
  251MOL0     C34532   4.190   8.205   2.340 -0.1415  0.0755  0.3403
  251MOL0     C34533   4.212   8.287   2.230  0.4568  0.0270  0.6637
  251MOL0     C34534   4.329   8.284   2.149 -0.2110  0.7557 -0.1164
  251MOL0     C34535   4.433   8.199   2.186 -0.0851  0.9892  0.5101
  251MOL0     O34536   4.549   8.194   2.111  0.2886 -0.2114  0.0552
  251MOL0     C34537   4.544   8.236   1.971  0.1897 -0.0159 -1.5752
  251MOL0     C34538   4.594   8.378   1.943  0.3187  0.3271  0.0756
  251MOL0     C34539   4.602   8.398   1.788  0.8520  0.2243 -0.5634
  251MOL0     C34540   4.654   8.540   1.764 -0.4250 -0.8808 -0.1884
  251MOL0     C34541   4.813   8.536   1.763  0.1942 -0.0382 -0.3504
  251MOL0     C34542   4.866   8.656   1.680 -0.5657  0.0541  0.1118
  251MOL0     C34543   5.012   8.704   1.719  0.0519  0.1106  0.4533
  251MOL0     C34544   5.033   8.853   1.695  0.2936 -0.3145 -0.4148
  251MOL0    Cl34545   5.215   8.903   1.681 -0.3588  0.7844 -0.4035
  251MOL0     C34546   4.418   8.116   2.300  0.0266  1.1558  0.1067
  251MOL0     C34547   4.295   8.122   2.374  0.5038  0.8592  0.1860
  251MOL0     O34548   3.960   8.060   2.292  0.5523 -0.0379 -0.1415
  251MOL0     C34549   3.840   8.302   2.523 -1.2612  0.4013 -0.4121
  251MOL0     C34550   3.738   8.367   2.573  1.1738  0.2875 -0.2893
  251MOL0     N34551   3.376   8.488   3.194  0.6254 -0.1826 -0.0770
  251MOL0     N34552   3.306   8.566   3.269 -0.3704  0.6623  0.0076
  251MOL0     C34553   2.454   9.216   2.771  0.3378 -0.0868  0.0493
  251MOL0     C34554   2.313   9.221   2.751  0.6200 -0.9176 -0.4464
  251MOL0     C34555   1.899   9.361   2.684 -1.0001 -0.5584  0.0112
  251MOL0     C34556   1.851   9.425   2.799 -0.0896  0.1538 -0.4906
  251MOL0     C34557   1.713   9.441   2.820 -0.8625  0.6297  0.1358
  251MOL0     C34558   1.630   9.415   2.716 -0.0065  0.1742  1.2021
  251MOL0     O34559   1.487   9.428   2.730 -0.0798  0.3676  0.8123
  251MOL0     C34560   1.402   9.324   2.680  1.1370 -0.7469  0.5474
  251MOL0     C34561   1.256   9.355   2.724  0.4685  0.4697 -0.4579
  251MOL0     C34562   1.154   9.246   2.674 -0.4579  0.2266  0.6153
  251MOL0     C34563   1.017   9.237   2.743 -0.5211 -0.1633  0.3767
  251MOL0     C34564   0.935   9.119   2.707 -0.2381 -0.0203 -0.7923
  251MOL0     C34565   0.875   9.015   2.685 -0.1960 -0.1892 -0.3586
  251MOL0     C34566   1.677   9.353   2.597  0.3575 -0.2966  0.0463
  251MOL0     C34567   1.812   9.320   2.578 -0.5186 -0.1390  1.0302
  251MOL0     C34568   1.853   9.260   2.447  0.0192 -0.4305 -0.1620
  251MOL0     H34569   2.217   9.465   2.966 -2.3867  0.9717 -3.8951
  251MOL0     H34570   2.466   9.474   3.000 -2.2256 -0.2341  1.3299
  251MOL0     H34571   2.637   9.247   3.107  2.8327 -1.5684 -0.0340
  251MOL0     H34572   2.657   9.421   3.065 -2.4668 -0.9785  3.0175
  251MOL0     H34573   2.876   9.215   3.018 -2.4989 -0.8062 -0.7981
  251MOL0     H34574   2.876   9.393   3.000  0.0094 -1.3808 -0.9758
  251MOL0     H34575   2.964   9.351   3.227  0.2221  0.2390  1.0649
  251MOL0     H34576   2.795   9.372   3.253  1.0944  2.2630 -2.2120
  251MOL0     H34577   2.811   9.173   3.359 -0.1781  0.2128 -0.0475
  251MOL0     H34578   2.768   9.110   3.204  4.5628 -3.3133 -3.2645
  251MOL0     H34579   3.062   9.120   3.313  2.0056 -2.4721 -1.2725
  251MOL0     H34580   3.027   9.094   3.148  0.0384  0.5470 -0.5176
  251MOL0     H34581   2.972   8.918   3.379  1.0811 -1.9912 -0.2326
  251MOL0     H34582   2.895   8.895   3.212  2.9072 -0.0584 -3.3861
  251MOL0     H34583   3.192   8.870   3.291  1.1222 -2.4427 -2.1651
  251MOL0     H34584   3.123   8.872   3.115 -1.2676 -1.4283 -1.9949
  251MOL0     H34585   3.060   8.663   3.339  1.4304 -1.6671  0.6137
  251MOL0     H34586   2.987   8.680   3.179 -1.2438  2.7009  2.1516
  251MOL0     H34587   3.151   8.593   2.984 -1.8296  0.2746  0.7269
  251MOL0     H34588   3.297   8.398   2.872 -2.9911  0.2122  0.6905
  251MOL0     H34589   3.322   8.278   2.994  0.4592  0.7892  4.0274
  251MOL0     H34590   3.562   8.362   3.013 -0.1170 -0.6463 -0.4208
  251MOL0     H34591   3.519   8.292   2.856  0.0432  1.2461 -3.3649
  251MOL0     H34592   3.517   8.582   2.875 -0.3737 -0.7258 -1.7198
  251MOL0     H34593   3.663   8.496   2.823  0.0355  1.3896 -3.4018
  251MOL0     H34594   3.398   8.544   2.703  2.0076  3.1390  1.8950
  251MOL0     H34595   3.557   8.574   2.630  2.3801  1.3349  3.6332
  251MOL0     H34596   3.490   8.163   2.443 -0.0932 -0.9978  1.4529
  251MOL0     H34597   3.751   7.946   2.340  2.1091  2.0606  0.1973
  251MOL0     H34598   3.710   8.058   2.201 -1.2964 -1.3063 -0.4882
  251MOL0     H34599   3.592   7.971   2.305  0.6541 -0.6438 -2.5127
  251MOL0     H34600   4.137   8.362   2.211  0.6718 -0.0874 -0.6967
  251MOL0     H34601   4.337   8.355   2.068  0.5773  0.1849 -0.5557
  251MOL0     H34602   4.610   8.171   1.914  1.4930 -0.9977  0.9070
  251MOL0     H34603   4.445   8.211   1.931 -1.2184  0.6406  1.2099
  251MOL0     H34604   4.525   8.452   1.986 -0.3809  0.8757 -1.8575
  251MOL0     H34605   4.682   8.400   2.004 -0.9373 -0.5430  2.3215
  251MOL0     H34606   4.504   8.379   1.744  1.1290 -2.1750 -0.2646
  251MOL0     H34607   4.662   8.325   1.734 -1.1045 -0.7472 -1.4975
  251MOL0     H34608   4.615   8.606   1.842  2.6057 -1.2967  1.8593
  251MOL0     H34609   4.618   8.579   1.669 -3.6844  0.2531  1.3508
  251MOL0     H34610   4.852   8.531   1.865  1.1448  4.4675 -0.2954
  251MOL0     H34611   4.843   8.445   1.711 -3.5714 -1.6732 -0.0199
  251MOL0     H34612   4.789   8.727   1.710 -1.4675 -1.5242  1.7083
  251MOL0     H34613   4.861   8.649   1.571 -0.7503 -0.1344  0.1321
  251MOL0     H34614   5.064   8.657   1.635 -2.2731 -0.2706 -0.8798
  251MOL0     H34615   5.057   8.670   1.812  1.1668 -0.8933 -0.4179
  251MOL0     H34616   4.988   8.910   1.776 -3.1585 -0.6076 -1.9718
  251MOL0     H34617   4.993   8.888   1.600  0.9377 -0.2600 -0.6725
  251MOL0     H34618   4.497   8.046   2.326  0.6270  1.5617 -0.5925
  251MOL0     H34619   4.275   8.064   2.463 -2.2285  1.0119 -0.2594
  251MOL0     H34620   3.937   8.344   2.546 -0.0350 -1.5519 -1.6311
  251MOL0     H34621   3.767   8.450   2.637  0.5284  0.5729 -0.3592
  251MOL0     H34622   2.518   9.141   2.725 -0.5386  0.3866 -2.0747
  251MOL0     H34623   2.263   9.148   2.689  1.2739 -1.6330 -0.1486
  251MOL0     H34624   1.922   9.457   2.874  0.3086 -3.9591  1.1866
  251MOL0     H34625   1.663   9.460   2.914 -0.7252  1.6144  0.0153
  251MOL0     H34626   1.392   9.337   2.572 -1.0912  1.8023  0.9635
  251MOL0     H34627   1.439   9.223   2.701  2.4139 -0.8192 -1.7180
  251MOL0     H34628   1.219   9.451   2.688 -2.9526 -0.7221 -0.4807
  251MOL0     H34629   1.280   9.352   2.831  2.4224  1.5080 -0.8148
  251MOL0     H34630   1.126   9.255   2.569  1.4814 -0.0030  0.0418
  251MOL0     H34631   1.195   9.145   2.686  1.2268  0.4883 -2.0528
  251MOL0     H34632   0.966   9.329   2.711  1.1354 -0.0723 -2.2918
  251MOL0     H34633   1.026   9.234   2.852 -0.9838 -0.1966  0.4177
  251MOL0     H34634   0.832   8.917   2.678  0.2442 -0.4071 -0.0252
  251MOL0     H34635   1.605   9.335   2.518  1.4979  0.2507 -1.1458
  251MOL0     H34636   1.899   9.161   2.456 -2.5078 -1.6950 -0.1875
  251MOL0     H34637   1.772   9.245   2.375 -1.2195  0.1223  1.0722
  251MOL0     H34638   1.916   9.332   2.395 -0.8813  0.5509  0.0872
  252MOL0     O34639   0.545   3.769   5.043  0.0653  1.0037  0.0687
  252MOL0     C34640   0.525   3.830   5.151 -0.3096  0.1816 -0.4648
  252MOL0     O34641   0.619   3.914   5.207 -0.1019 -0.3037 -0.2246
  252MOL0     C34642   0.733   3.940   5.132  0.6435 -0.7402 -0.0431
  252MOL0     C34643   0.854   3.886   5.183  0.2488  0.9419  0.7700
  252MOL0     C34644   0.979   3.906   5.114  0.5582  0.9190  0.6751
  252MOL0     C34645   0.980   3.975   4.994 -0.2905  0.5017  0.6867
  252MOL0     O34646   1.097   3.993   4.926  0.8723  0.5075  0.2008
  252MOL0     C34647   1.097   4.012   4.787 -0.5259 -0.1154  0.0941
  252MOL0     C34648   1.239   4.053   4.750  0.2881 -0.0434  0.3890
  252MOL0     C34649   1.346   3.947   4.777 -0.5083  0.8602 -0.6136
  252MOL0     C34650   1.476   3.977   4.704  0.3600  0.2372 -0.1100
  252MOL0     C34651   1.580   3.866   4.721 -0.4578 -0.2004 -0.1530
  252MOL0     C34652   1.708   3.874   4.640 -0.0384 -0.1350  0.1003
  252MOL0     C34653   1.780   3.742   4.615 -0.1294 -0.3234  0.5272
  252MOL0     C34654   1.931   3.760   4.589 -0.6129 -0.4209  0.6349
  252MOL0     N34655   1.977   3.628   4.539 -0.2821 -0.0397  0.0405
  252MOL0     C34656   2.034   3.594   4.415 -0.0405 -0.6187 -0.9153
  252MOL0     C34657   2.083   3.473   4.436  0.0342 -0.3141 -0.0523
  252MOL0     C34658   2.167   3.395   4.331  0.6952 -0.3961 -0.3714
  252MOL0     C34659   2.286   3.480   4.281  0.9281 -0.3647 -0.0155
  252MOL0     C34660   2.417   3.460   4.366 -0.4353 -0.3003  0.5580
  252MOL0     C34661   2.481   3.316   4.356 -0.5353 -0.2579 -0.7838
  252MOL0     O34662   2.525   3.292   4.227 -0.4102  0.2219  0.0869
  252MOL0     C34663   2.659   3.291   4.198 -0.6311  0.3604  0.9958
  252MOL0     C34664   2.747   3.374   4.273  0.4353  0.7665 -0.2296
  252MOL0     C34665   2.880   3.388   4.238 -0.1566 -0.4008  0.3653
  252MOL0     C34666   2.973   3.461   4.335  0.2517  0.1651 -0.0485
  252MOL0     C34667   2.928   3.332   4.118 -0.3708  0.1886 -0.1198
  252MOL0     C34668   3.063   3.347   4.066 -0.1192 -0.4720 -0.0118
  252MOL0     O34669   3.075   3.306   3.936 -0.6262 -0.8680  0.1937
  252MOL0     C34670   3.210   3.312   3.894  0.5515  0.2992 -0.5415
  252MOL0     C34671   3.271   3.415   3.830 -0.4447 -0.3308  0.6102
  252MOL0     C34672   3.409   3.400   3.798  0.2283  0.2839  0.4046
  252MOL0     C34673   3.474   3.286   3.817  0.1901 -0.2007 -0.1469
  252MOL0     O34674   3.603   3.275   3.766  0.7939  1.0655 -0.0565
  252MOL0     C34675   3.675   3.158   3.809 -0.0147  0.4043  0.3044
  252MOL0     C34676   3.815   3.164   3.758 -0.0242  0.0636  0.4827
  252MOL0     C34677   3.900   3.295   3.792 -0.2828  0.1790 -0.2800
  252MOL0     C34678   4.043   3.285   3.740 -0.1037 -0.1780  0.0638
  252MOL0     C34679   4.134   3.395   3.767 -0.4151  0.6468 -0.0758
  252MOL0     C34680   4.270   3.384   3.705 -0.4755  0.3700  0.6529
  252MOL0     C34681   4.360   3.291   3.788 -0.0062  0.4529 -0.1852
  252MOL0     C34682   4.482   3.273   3.706  0.0814  0.4067 -0.0815
  252MOL0    Cl34683   4.581   3.166   3.807 -0.0831  0.2099 -0.1144
  252MOL0     C34684   3.412   3.178   3.880 -0.2787 -0.0751 -0.9912
  252MOL0     C34685   3.281   3.196   3.917  0.4319 -0.3666  0.2613
  252MOL0     O34686   3.152   3.394   4.139  0.5528 -0.8544  1.5605
  252MOL0     C34687   2.839   3.255   4.040  0.1231  1.0564  0.4428
  252MOL0     C34688   2.708   3.226   4.083  0.1290 -0.0062  0.9917
  252MOL0     N34689   2.065   3.439   4.565 -0.3156 -0.3207 -0.5027
  252MOL0     N34690   1.994   3.523   4.626  0.4630 -0.6620  0.6523
  252MOL0     C34691   0.862   4.027   4.942  0.6768 -0.6334  0.0274
  252MOL0     C34692   0.736   4.007   5.012  0.3752  0.3536  0.3814
  252MOL0     C34693   0.387   3.824   5.218 -0.0284 -0.5455  0.7366
  252MOL0     C34694   0.333   3.700   5.219  0.1839  0.1579 -0.1293
  252MOL0     C34695   0.210   3.680   5.284  0.1326 -0.7831  0.0448
  252MOL0     C34696   0.138   3.788   5.335 -0.0180  0.4684  0.3867
  252MOL0     O34697   0.019   3.763   5.400 -0.0382 -0.6448  0.4247
  252MOL0     C34698  -0.045   3.856   5.484  0.1691  0.0359  0.4354
  252MOL0     C34699  -0.203   3.841   5.478 -0.1325  0.3612  0.0211
  252MOL0     C34700  -0.290   3.910   5.597  0.9777 -0.1795  0.1457
  252MOL0     C34701  -0.283   3.831   5.733  1.2941 -0.2753 -0.6787
  252MOL0     C34702  -0.324   3.685   5.714 -0.2883  0.9697 -0.8370
  252MOL0     C34703  -0.364   3.568   5.703 -0.1116 -0.5404  0.3423
  252MOL0     C34704   0.193   3.922   5.327  0.1620  0.1319 -0.5050
  252MOL0     C34705   0.322   3.935   5.283  0.3641  0.0349  0.0400
  252MOL0     C34706   0.382   4.066   5.283  0.0486 -1.0752 -0.0677
  252MOL0     H34707   0.843   3.831   5.275  0.9965  3.3285  2.3802
  252MOL0     H34708   1.063   3.854   5.158 -0.5062 -0.8187  0.7645
  252MOL0     H34709   1.028   4.093   4.760  0.6210  1.1527  0.8355
  252MOL0     H34710   1.064   3.924   4.731 -3.5797 -0.4475  2.1526
  252MOL0     H34711   1.240   4.077   4.643  0.5482  1.8719  0.7903
  252MOL0     H34712   1.262   4.147   4.801 -1.1081  0.1220  0.7366
  252MOL0     H34713   1.362   3.937   4.885 -3.1601 -1.1494 -0.3000
  252MOL0     H34714   1.313   3.846   4.749 -0.2611  0.7448 -0.4833
  252MOL0     H34715   1.454   3.992   4.598 -0.9000  1.2013  0.2568
  252MOL0     H34716   1.516   4.069   4.748  0.3922 -0.6983  1.9025
  252MOL0     H34717   1.535   3.772   4.690  1.4189 -2.5739  3.4838
  252MOL0     H34718   1.602   3.862   4.829 -1.5137 -0.8090  0.0457
  252MOL0     H34719   1.679   3.918   4.544 -1.1231  1.0925  0.9541
  252MOL0     H34720   1.780   3.943   4.686  1.8814 -2.3196  0.5396
  252MOL0     H34721   1.729   3.701   4.526  2.5640 -1.7994 -0.4466
  252MOL0     H34722   1.763   3.679   4.703  0.4358 -1.1822  0.0475
  252MOL0     H34723   1.944   3.837   4.512  0.5214 -0.5364  0.7000
  252MOL0     H34724   1.966   3.785   4.690 -2.8029  1.0606  1.0968
  252MOL0     H34725   2.017   3.638   4.318 -2.5258 -2.5186 -1.4607
  252MOL0     H34726   2.099   3.362   4.253 -1.1119  0.0931  0.9329
  252MOL0     H34727   2.216   3.307   4.375  1.5690  0.8662  1.3231
  252MOL0     H34728   2.304   3.456   4.176 -0.7666 -1.3910 -0.1093
  252MOL0     H34729   2.263   3.583   4.251  1.3572  0.0695  1.0810
  252MOL0     H34730   2.483   3.534   4.321 -2.9214  2.4974  1.1587
  252MOL0     H34731   2.402   3.491   4.470  1.0077 -0.1221  0.7298
  252MOL0     H34732   2.567   3.321   4.424 -0.7188 -2.3052 -0.3530
  252MOL0     H34733   2.412   3.237   4.386 -1.7353  0.2167 -2.1845
  252MOL0     H34734   2.704   3.429   4.356 -2.4245 -2.1852  0.4174
  252MOL0     H34735   3.056   3.396   4.366  1.5376  1.1589 -1.2901
  252MOL0     H34736   2.920   3.489   4.426 -1.1073  0.2847 -0.8512
  252MOL0     H34737   3.025   3.549   4.297  1.6076 -0.5144  0.1893
  252MOL0     H34738   3.217   3.507   3.809 -1.0182 -0.7045  0.4141
  252MOL0     H34739   3.468   3.484   3.765 -0.3232  0.1654 -0.9645
  252MOL0     H34740   3.680   3.146   3.918 -1.4081  1.7210  0.5484
  252MOL0     H34741   3.621   3.077   3.759 -1.9180  2.1325 -0.6174
  252MOL0     H34742   3.873   3.074   3.784 -0.3643 -0.2271  0.2540
  252MOL0     H34743   3.810   3.162   3.649  0.5745 -0.1612  0.4542
  252MOL0     H34744   3.898   3.319   3.899 -0.9659  3.4849 -0.9249
  252MOL0     H34745   3.846   3.377   3.745 -2.6239  0.1977  2.1861
  252MOL0     H34746   4.031   3.265   3.633  0.5756 -1.9627  0.2765
  252MOL0     H34747   4.075   3.191   3.787 -1.2182 -1.1141 -0.9797
  252MOL0     H34748   4.081   3.480   3.722 -1.7578 -0.5872 -0.9073
  252MOL0     H34749   4.134   3.409   3.876 -2.4338 -0.0620  0.0659
  252MOL0     H34750   4.302   3.488   3.708  0.8904  0.0586 -1.3758
  252MOL0     H34751   4.275   3.358   3.599  1.9070  4.9802 -0.6307
  252MOL0     H34752   4.312   3.193   3.794 -0.7095  0.8171  0.3315
  252MOL0     H34753   4.388   3.329   3.886 -2.1486  1.9220 -0.0756
  252MOL0     H34754   4.519   3.373   3.681 -2.5697  1.4006 -0.4437
  252MOL0     H34755   4.459   3.219   3.614 -1.0629 -0.3224  0.6092
  252MOL0     H34756   3.466   3.088   3.904  3.8711  2.5391  0.4625
  252MOL0     H34757   3.241   3.118   3.981  1.3883  0.3357  1.7778
  252MOL0     H34758   2.868   3.208   3.946 -1.6212 -0.1519  0.4610
  252MOL0     H34759   2.628   3.197   4.016  0.2877  2.7418 -0.5464
  252MOL0     H34760   0.844   4.093   4.859 -3.6807  1.0448  1.9770
  252MOL0     H34761   0.643   4.062   4.999 -0.6552 -0.6598  2.8769
  252MOL0     H34762   0.385   3.617   5.171 -2.1260 -2.6605  1.8711
  252MOL0     H34763   0.166   3.581   5.292  1.0880 -1.1696  0.8364
  252MOL0     H34764  -0.006   3.841   5.585  2.3799 -0.2555 -0.4048
  252MOL0     H34765  -0.030   3.961   5.459 -0.2869  0.6575  2.5669
  252MOL0     H34766  -0.213   3.732   5.484 -0.6319  0.3499 -0.9548
  252MOL0     H34767  -0.231   3.886   5.383  0.9022 -2.5551 -1.7972
  252MOL0     H34768  -0.247   4.008   5.621 -0.2359  0.8652 -1.6920
  252MOL0     H34769  -0.394   3.924   5.565  1.2761 -0.2425 -0.8980
  252MOL0     H34770  -0.350   3.874   5.808  1.2876  2.3740 -2.0879
  252MOL0     H34771  -0.191   3.844   5.790  0.4078  1.4990  0.4340
  252MOL0     H34772  -0.405   3.469   5.693  0.8670 -0.8806 -0.5254
  252MOL0     H34773   0.130   3.998   5.373 -2.1211 -1.8233 -0.2124
  252MOL0     H34774   0.440   4.056   5.375 -3.5638 -1.6294  2.3667
  252MOL0     H34775   0.443   4.095   5.197 -0.9780 -0.7145 -0.6962
  252MOL0     H34776   0.308   4.143   5.305  0.9916 -0.4497  1.0259
  253MOL0     O34777   6.772   3.724   7.480 -0.3032 -0.7557 -0.0775
  253MOL0     C34778   6.726   3.819   7.538  0.2446  0.2371 -0.7696
  253MOL0     O34779   6.794   3.879   7.641  0.1149 -0.6718  0.7914
  253MOL0     C34780   6.874   3.823   7.725 -1.3863 -0.7505  0.1387
  253MOL0     C34781   6.967   3.907   7.788  0.8608 -0.8261 -0.2071
  253MOL0     C34782   7.056   3.862   7.884  0.7480 -0.2162 -0.3279
  253MOL0     C34783   7.066   3.734   7.925 -1.3126  0.5626 -0.0973
  253MOL0     O34784   7.171   3.705   8.009 -0.3824 -0.9876 -0.3703
  253MOL0     C34785   7.204   3.569   8.036  0.4146 -0.3419 -0.3210
  253MOL0     C34786   7.335   3.570   8.104 -0.3787  0.1391  0.2182
  253MOL0     C34787   7.334   3.606   8.247  0.2386 -0.4571 -0.1250
  253MOL0     C34788   7.424   3.724   8.283  0.6840 -0.5638 -0.4408
  253MOL0     C34789   7.573   3.689   8.275 -0.1201  0.1462 -0.0670
  253MOL0     C34790   7.659   3.816   8.287 -0.1768  0.2726  1.1070
  253MOL0     C34791   7.805   3.764   8.307  0.8087 -0.2986 -0.0580
  253MOL0     C34792   7.822   3.727   8.456 -0.5739 -0.0343 -0.2270
  253MOL0     N34793   7.964   3.729   8.505 -0.1201  0.3224 -0.1998
  253MOL0     C34794   8.062   3.657   8.446  0.3341  0.9236 -0.7229
  253MOL0     C34795   8.180   3.707   8.500  0.1041 -0.3869 -0.3125
  253MOL0     C34796   8.315   3.653   8.452 -0.1411 -0.3738 -0.0331
  253MOL0     C34797   8.410   3.773   8.442  0.8376  0.3660 -0.3524
  253MOL0     C34798   8.535   3.742   8.372 -0.0130 -0.0018  0.2022
  253MOL0     C34799   8.606   3.882   8.344  0.0725 -0.1465 -0.0271
  253MOL0     O34800   8.729   3.858   8.283 -0.5691  0.3641  0.0897
  253MOL0     C34801   8.840   3.929   8.330 -0.5841 -0.0344 -0.5189
  253MOL0     C34802   8.829   4.058   8.383  0.7712 -0.1593 -0.0773
  253MOL0     C34803   8.933   4.126   8.453 -0.0835 -0.3811  0.2661
  253MOL0     C34804   8.905   4.259   8.521  0.1609 -0.1415 -0.1747
  253MOL0     C34805   9.055   4.051   8.473 -1.0238  0.1438  0.2476
  253MOL0     C34806   9.168   4.103   8.560  0.2222  0.0800 -0.0913
  253MOL0     O34807   9.275   4.015   8.558 -0.5392 -0.0037  0.4372
  253MOL0     C34808   9.397   4.050   8.611 -0.3828  0.2468 -1.0320
  253MOL0     C34809   9.443   4.178   8.639 -0.4684  1.1110  0.8463
  253MOL0     C34810   9.575   4.208   8.683  0.3882  0.8565  0.0093
  253MOL0     C34811   9.657   4.102   8.704 -1.3641  0.2144 -0.7538
  253MOL0     O34812   9.794   4.119   8.735 -0.5022 -0.2400  0.2307
  253MOL0     C34813   9.833   4.252   8.782  0.2169  0.2857  0.5578
  253MOL0     C34814   9.886   4.333   8.653  0.3894 -0.2015 -0.4159
  253MOL0     C34815  10.016   4.273   8.589  0.6570 -0.4530 -0.5598
  253MOL0     C34816  10.055   4.353   8.463  0.0244  0.7774  0.4786
  253MOL0     C34817  10.187   4.310   8.408 -0.0583  0.5237 -0.4407
  253MOL0     C34818  10.234   4.380   8.274  0.9285  0.2435 -0.7442
  253MOL0     C34819  10.374   4.343   8.259  0.6578 -0.0532  0.5819
  253MOL0     C34820  10.393   4.219   8.175 -0.6958  0.2806  0.4544
  253MOL0    Cl34821  10.565   4.179   8.171 -0.1331  0.3336 -0.1334
  253MOL0     C34822   9.608   3.980   8.691  0.7142 -0.4708 -0.5407
  253MOL0     C34823   9.480   3.949   8.643 -0.3941  0.4841 -0.2660
  253MOL0     O34824   9.161   4.206   8.628 -0.7973 -0.0451 -0.0287
  253MOL0     C34825   9.073   3.938   8.396  0.5956  0.3230 -0.2315
  253MOL0     C34826   8.969   3.872   8.326  0.6120  0.3623  0.4164
  253MOL0     N34827   8.150   3.801   8.589 -0.3176  0.3591  0.2320
  253MOL0     N34828   8.020   3.819   8.586  0.4115  0.2405 -0.5324
  253MOL0     C34829   6.974   3.642   7.867 -0.5074 -0.1890 -0.0492
  253MOL0     C34830   6.882   3.684   7.767 -0.0058 -0.2954 -0.0548
  253MOL0     C34831   6.617   3.898   7.476  0.2665  0.2998  0.5399
  253MOL0     C34832   6.604   4.039   7.508  0.6609 -1.1486 -0.9817
  253MOL0     C34833   6.503   4.125   7.450  0.1001 -1.1353 -0.5836
  253MOL0     C34834   6.414   4.074   7.357  0.2007  0.0321  0.1550
  253MOL0     O34835   6.326   4.163   7.298 -0.3943 -0.4462 -0.1079
  253MOL0     C34836   6.198   4.118   7.254 -0.0002  0.4899 -0.5633
  253MOL0     C34837   6.117   4.244   7.236 -0.3723 -0.7462 -0.1287
  253MOL0     C34838   6.146   4.309   7.100  0.3510  0.1351  0.3505
  253MOL0     C34839   6.083   4.454   7.080  0.3219  0.2800 -0.3420
  253MOL0     C34840   5.952   4.470   7.143 -0.6240 -0.5866 -0.1920
  253MOL0     C34841   5.854   4.488   7.219 -1.0951 -0.0696 -0.1202
  253MOL0     C34842   6.418   3.933   7.320 -1.2464 -0.2225 -0.9279
  253MOL0     C34843   6.529   3.851   7.364 -0.1927  0.4523  0.2827
  253MOL0     C34844   6.521   3.710   7.313 -0.0466 -0.1256 -0.1346
  253MOL0     H34845   6.970   4.015   7.774  5.7328 -0.9055 -1.4133
  253MOL0     H34846   7.129   3.931   7.925  0.6025 -1.3043  1.9374
  253MOL0     H34847   7.202   3.509   7.945  0.1500  0.5425 -0.9180
  253MOL0     H34848   7.126   3.528   8.100  0.1704 -3.2377 -2.3004
  253MOL0     H34849   7.364   3.466   8.088 -2.9591 -0.8712  1.5663
  253MOL0     H34850   7.405   3.636   8.052  2.0309 -3.6100 -1.7571
  253MOL0     H34851   7.235   3.641   8.276  1.4590  2.1981  1.1729
  253MOL0     H34852   7.353   3.513   8.301  0.1705 -0.3613  0.0646
  253MOL0     H34853   7.406   3.803   8.211 -1.2376 -0.6341 -0.0819
  253MOL0     H34854   7.398   3.746   8.387 -1.4014 -2.1328 -0.5783
  253MOL0     H34855   7.594   3.655   8.174 -3.2643 -0.7929 -0.5211
  253MOL0     H34856   7.596   3.615   8.352 -2.2135  1.2503  1.7328
  253MOL0     H34857   7.652   3.871   8.193  0.2103 -1.7277 -0.1586
  253MOL0     H34858   7.627   3.891   8.360  0.1295  1.6470 -0.1334
  253MOL0     H34859   7.865   3.854   8.294 -2.6244  2.2892  0.6729
  253MOL0     H34860   7.820   3.674   8.245 -1.3104  0.3829 -1.6757
  253MOL0     H34861   7.771   3.806   8.512  0.7242  0.3921  0.3994
  253MOL0     H34862   7.782   3.626   8.470  1.8550 -1.4567 -2.5419
  253MOL0     H34863   8.041   3.574   8.379  1.4222 -2.7754  3.0641
  253MOL0     H34864   8.304   3.602   8.356 -4.2814 -4.2915  2.1059
  253MOL0     H34865   8.346   3.585   8.532  0.0438  1.3049  1.3976
  253MOL0     H34866   8.360   3.861   8.402  2.2343  0.6296 -1.6084
  253MOL0     H34867   8.439   3.801   8.544 -1.6404 -1.3797  0.9189
  253MOL0     H34868   8.597   3.672   8.427 -2.0930 -2.5812 -0.5230
  253MOL0     H34869   8.502   3.700   8.277 -1.6650  1.6728 -0.0398
  253MOL0     H34870   8.551   3.950   8.278  0.3523  1.1025  0.9860
  253MOL0     H34871   8.615   3.932   8.441 -0.6890  0.6624 -0.3520
  253MOL0     H34872   8.732   4.106   8.374  0.9989  0.5712  1.2743
  253MOL0     H34873   8.803   4.289   8.494  0.6463  2.0906  0.2357
  253MOL0     H34874   8.982   4.334   8.499 -0.5439  0.7956  0.4612
  253MOL0     H34875   8.917   4.230   8.625 -1.2441  0.3640  0.1597
  253MOL0     H34876   9.381   4.263   8.612  0.3782  1.5363  0.1767
  253MOL0     H34877   9.600   4.312   8.666 -3.7078  1.8661 -0.8362
  253MOL0     H34878   9.742   4.296   8.823 -1.3029 -1.0240 -1.2700
  253MOL0     H34879   9.918   4.246   8.851  0.5345 -2.8216  0.0434
  253MOL0     H34880   9.808   4.325   8.577  1.0011  0.7779 -1.1714
  253MOL0     H34881   9.911   4.438   8.671  2.7981 -0.4065 -2.1268
  253MOL0     H34882   9.998   4.165   8.581  0.8675 -0.9414  3.3661
  253MOL0     H34883  10.092   4.280   8.667 -1.0277 -2.6717  1.4524
  253MOL0     H34884  10.053   4.460   8.483  2.1705  1.0934 -0.6976
  253MOL0     H34885   9.979   4.336   8.386  0.6173  3.4234 -0.8110
  253MOL0     H34886  10.259   4.331   8.488  0.5169 -0.9892 -0.5350
  253MOL0     H34887  10.184   4.201   8.404 -4.3958  0.3876  1.5601
  253MOL0     H34888  10.215   4.487   8.290 -0.6425  0.1070 -1.5848
  253MOL0     H34889  10.172   4.360   8.187 -0.0894 -0.5188  0.1373
  253MOL0     H34890  10.423   4.317   8.354 -1.1498 -0.2264  1.4974
  253MOL0     H34891  10.428   4.423   8.206 -0.2681  0.1131 -0.1277
  253MOL0     H34892  10.352   4.236   8.075 -1.4966  0.5604  0.8209
  253MOL0     H34893  10.340   4.143   8.235  1.8112 -0.5964  1.6694
  253MOL0     H34894   9.674   3.897   8.718 -2.0444 -2.9075 -0.7701
  253MOL0     H34895   9.434   3.851   8.648  0.8618 -0.0513  2.2966
  253MOL0     H34896   9.160   3.875   8.411  0.3374  0.5666  3.0112
  253MOL0     H34897   8.992   3.777   8.280  0.1642  1.2483 -1.7416
  253MOL0     H34898   6.972   3.538   7.899  2.0226 -0.0591  0.6894
  253MOL0     H34899   6.812   3.614   7.721 -0.3777  2.6143 -4.4091
  253MOL0     H34900   6.675   4.087   7.574 -0.3004 -0.1013 -0.6709
  253MOL0     H34901   6.501   4.232   7.469 -3.6954 -0.7641 -2.1435
  253MOL0     H34902   6.199   4.074   7.154  1.9075 -0.3449 -0.2334
  253MOL0     H34903   6.154   4.043   7.320  0.8589 -0.0840 -0.6318
  253MOL0     H34904   6.145   4.313   7.317  1.1483 -1.3163 -0.1218
  253MOL0     H34905   6.012   4.218   7.249 -0.3440 -0.4943  0.7066
  253MOL0     H34906   6.253   4.315   7.082  0.8889  0.1667  3.0664
  253MOL0     H34907   6.110   4.242   7.022 -2.9042  2.2572 -0.1690
  253MOL0     H34908   6.068   4.475   6.974 -0.5155  1.7934  0.0446
  253MOL0     H34909   6.152   4.530   7.117  2.4623 -1.8619  0.3801
  253MOL0     H34910   5.780   4.504   7.295 -1.6622  0.4395 -0.7581
  253MOL0     H34911   6.342   3.890   7.256 -0.9961 -1.4894 -0.4074
  253MOL0     H34912   6.505   3.646   7.400  0.7418 -0.6592 -0.3656
  253MOL0     H34913   6.433   3.689   7.251 -2.6173  2.8772  2.2490
  253MOL0     H34914   6.611   3.691   7.253  0.4816 -2.7339  1.3276
  254MOL0     O34915   8.805   8.567   9.890 -0.6118  0.1112  0.2289
  254MOL0     C34916   8.715   8.496   9.855 -0.5354 -0.2534  0.7040
  254MOL0     O34917   8.699   8.362   9.888 -0.7010  0.2375 -0.6753
  254MOL0     C34918   8.809   8.317   9.970 -0.5317 -0.1791 -0.4114
  254MOL0     C34919   8.947   8.322   9.935  0.6050 -0.2946 -0.6794
  254MOL0     C34920   9.041   8.266  10.022  0.4011 -0.8119  0.1843
  254MOL0     C34921   9.002   8.223  10.148  0.0718  0.2114 -0.0341
  254MOL0     O34922   9.094   8.171  10.237 -0.4247 -0.8691  0.5498
  254MOL0     C34923   9.105   8.245  10.362 -0.1841  0.3081  0.7331
  254MOL0     C34924   9.253   8.246  10.412  0.6063  0.3920 -0.1337
  254MOL0     C34925   9.290   8.121  10.490 -1.0979  0.3705  0.3774
  254MOL0     C34926   9.440   8.113  10.517  0.4241 -0.2602 -0.2649
  254MOL0     C34927   9.486   7.977  10.579 -0.3109 -0.0835 -0.0752
  254MOL0     C34928   9.423   7.966  10.717 -0.1291  0.5228  0.6611
  254MOL0     C34929   9.452   7.829  10.774 -0.2741  0.1977  0.0902
  254MOL0     C34930   9.375   7.812  10.898  0.8654 -0.4133 -0.3495
  254MOL0     N34931   9.411   7.689  10.971  0.6349  0.1750 -0.0046
  254MOL0     C34932   9.365   7.562  10.937 -0.0751 -0.2471  0.0935
  254MOL0     C34933   9.435   7.475  11.016 -0.3547 -0.2546 -0.2860
  254MOL0     C34934   9.406   7.329  11.017 -0.6217  0.0746  0.3383
  254MOL0     C34935   9.524   7.242  10.977  0.0029 -0.0171  0.0776
  254MOL0     C34936   9.493   7.090  11.006  0.6355  0.5258  0.4520
  254MOL0     C34937   9.350   7.033  10.971 -1.1227 -0.5112  0.1530
  254MOL0     O34938   9.356   6.892  10.972  0.2813 -0.2585  0.2609
  254MOL0     C34939   9.243   6.825  10.927 -0.0264 -0.3802 -0.3301
  254MOL0     C34940   9.279   6.700  10.886  0.6365  0.3243 -1.2119
  254MOL0     C34941   9.184   6.604  10.844  0.5358  0.1105  0.0029
  254MOL0     C34942   9.238   6.465  10.821 -0.5057  0.2410  0.2441
  254MOL0     C34943   9.045   6.645  10.837  0.2890 -0.0657 -0.2024
  254MOL0     C34944   8.930   6.555  10.805 -0.4943 -0.3993 -0.2833
  254MOL0     O34945   8.833   6.617  10.728  0.1241  0.1761  0.7081
  254MOL0     C34946   8.709   6.560  10.732  0.4440 -0.6948 -0.2856
  254MOL0     C34947   8.632   6.579  10.620  0.4836 -0.3029 -0.2276
  254MOL0     C34948   8.499   6.523  10.611 -0.6169  0.6564 -0.7566
  254MOL0     C34949   8.442   6.467  10.725  0.1952 -0.3600  0.3922
  254MOL0     O34950   8.313   6.436  10.712 -0.1399  0.2296 -0.3508
  254MOL0     C34951   8.283   6.294  10.734  0.6807  0.1730  0.3739
  254MOL0     C34952   8.210   6.246  10.597 -0.0009  1.3420  0.0365
  254MOL0     C34953   8.130   6.109  10.618 -0.3049 -0.6703 -0.5157
  254MOL0     C34954   8.070   6.061  10.487 -0.2172  0.3913 -0.3266
  254MOL0     C34955   7.988   5.934  10.518  0.5611  0.2181 -0.1017
  254MOL0     C34956   7.921   5.867  10.398  0.0384 -0.5760  0.7878
  254MOL0     C34957   7.821   5.958  10.339  1.2438  0.6104  0.0565
  254MOL0     C34958   7.717   5.882  10.250  0.2153 -0.8087  0.1120
  254MOL0    Cl34959   7.556   5.964  10.269 -0.2748  0.4496 -0.0031
  254MOL0     C34960   8.516   6.453  10.846 -0.0860  0.4916  0.6451
  254MOL0     C34961   8.652   6.490  10.845  0.2175  0.5146 -0.0948
  254MOL0     O34962   8.944   6.444  10.834  0.6220  0.3679 -0.1839
  254MOL0     C34963   9.007   6.773  10.881 -0.1166  0.5186 -0.1021
  254MOL0     C34964   9.105   6.864  10.926 -0.0803 -0.0031  0.3323
  254MOL0     N34965   9.513   7.553  11.105 -0.1048 -0.1219  0.1924
  254MOL0     N34966   9.494   7.679  11.072 -0.0206 -0.1557  0.2802
  254MOL0     C34967   8.868   8.213  10.178  0.1606 -0.5726 -0.0974
  254MOL0     C34968   8.775   8.262  10.090 -0.7515 -1.0663 -0.3348
  254MOL0     C34969   8.621   8.555   9.744 -0.2355 -0.0823 -0.3509
  254MOL0     C34970   8.555   8.453   9.669  0.0555  0.4498  0.8007
  254MOL0     C34971   8.478   8.483   9.558  0.1360  0.5598  0.3194
  254MOL0     C34972   8.444   8.619   9.531 -0.0217 -0.3432 -0.0583
  254MOL0     O34973   8.354   8.666   9.440  0.9151 -0.1033 -0.1446
  254MOL0     C34974   8.257   8.566   9.402 -0.3527  0.1959 -0.5745
  254MOL0     C34975   8.134   8.642   9.352  0.5458  0.5534 -0.0533
  254MOL0     C34976   8.031   8.555   9.297 -0.0156 -0.5369 -0.3650
  254MOL0     C34977   7.919   8.626   9.225  1.0219  0.6038  1.1279
  254MOL0     C34978   7.963   8.706   9.109  0.8005 -1.1758  0.8698
  254MOL0     C34979   8.010   8.779   9.014 -0.0951 -0.3140  0.1507
  254MOL0     C34980   8.507   8.719   9.607  0.5016 -0.2804  0.0933
  254MOL0     C34981   8.597   8.694   9.711 -0.5331 -0.1051 -1.0257
  254MOL0     C34982   8.684   8.803   9.769  0.2945  0.3303  0.2802
  254MOL0     H34983   8.990   8.349   9.839 -1.9341 -1.2175 -2.1841
  254MOL0     H34984   9.144   8.260   9.991  1.6890  4.1168  2.6078
  254MOL0     H34985   9.036   8.196  10.430 -4.0338  0.8365 -2.4516
  254MOL0     H34986   9.074   8.347  10.339  0.1881  0.5886  1.4371
  254MOL0     H34987   9.322   8.250  10.327  0.3734  1.8075 -0.2692
  254MOL0     H34988   9.272   8.338  10.468 -1.5819  2.1110 -2.0132
  254MOL0     H34989   9.225   8.119  10.578 -0.7118  3.8168  0.8759
  254MOL0     H34990   9.276   8.026  10.437  0.8417 -0.8246  1.8848
  254MOL0     H34991   9.488   8.122  10.419 -2.4771 -2.4371 -2.0243
  254MOL0     H34992   9.476   8.201  10.572 -0.0076  1.2031 -2.1844
  254MOL0     H34993   9.594   7.986  10.592 -0.4129  0.8524  0.2091
  254MOL0     H34994   9.456   7.888  10.522 -2.9874 -1.1429  2.6901
  254MOL0     H34995   9.464   8.045  10.780 -1.7112  1.0810  1.0368
  254MOL0     H34996   9.314   7.969  10.714 -0.2843 -2.3733 -0.4498
  254MOL0     H34997   9.560   7.818  10.787 -0.2683 -2.7395 -1.5593
  254MOL0     H34998   9.417   7.753  10.704  3.7517 -1.1727 -0.7269
  254MOL0     H34999   9.401   7.892  10.967 -1.1008 -1.2788  1.5073
  254MOL0     H35000   9.268   7.823  10.875  1.0507 -2.4375 -2.5348
  254MOL0     H35001   9.301   7.541  10.852  1.0579 -1.1895 -0.5575
  254MOL0     H35002   9.325   7.312  10.944 -0.9673  2.7714 -0.0035
  254MOL0     H35003   9.375   7.296  11.116  0.9268 -0.2383  0.7385
  254MOL0     H35004   9.540   7.254  10.870 -1.1095 -1.9092 -0.3565
  254MOL0     H35005   9.613   7.275  11.031  0.1909  0.3527 -0.4499
  254MOL0     H35006   9.568   7.032  10.951  0.6807  0.0057  1.0484
  254MOL0     H35007   9.514   7.081  11.113  0.1811  1.6511  0.6510
  254MOL0     H35008   9.283   7.069  11.049  0.2401 -0.0923  1.1649
  254MOL0     H35009   9.312   7.052  10.870 -2.6045  2.4927  1.1798
  254MOL0     H35010   9.385   6.675  10.886  0.4420 -0.5472 -0.2792
  254MOL0     H35011   9.344   6.459  10.797 -0.1383  1.8303  1.3160
  254MOL0     H35012   9.195   6.402  10.743 -0.7902 -0.8285  1.2157
  254MOL0     H35013   9.229   6.424  10.923  1.0155  3.0590  1.6233
  254MOL0     H35014   8.669   6.638  10.537 -2.9482  1.4180 -0.6962
  254MOL0     H35015   8.442   6.547  10.522 -1.0583  1.8854 -0.1638
  254MOL0     H35016   8.372   6.230  10.741 -0.3290 -1.3125  0.0854
  254MOL0     H35017   8.218   6.285  10.821  2.6545  0.4340  1.9249
  254MOL0     H35018   8.140   6.322  10.562 -0.9383  0.1646 -0.7667
  254MOL0     H35019   8.283   6.225  10.519 -0.5742 -1.1793  0.0647
  254MOL0     H35020   8.048   6.124  10.689  1.0736  1.2738  0.7444
  254MOL0     H35021   8.192   6.029  10.657  0.5694 -0.2307 -0.9825
  254MOL0     H35022   8.158   6.025  10.433 -1.0332 -1.3440 -0.5503
  254MOL0     H35023   8.004   6.136  10.441 -0.9829 -1.0472 -1.6682
  254MOL0     H35024   8.054   5.856  10.557  1.8652  0.8505 -0.9715
  254MOL0     H35025   7.909   5.957  10.590  1.4605  0.8910  0.7058
  254MOL0     H35026   7.881   5.768  10.420  0.3691 -0.8390  0.2405
  254MOL0     H35027   8.006   5.857  10.330 -2.4338 -0.8282 -2.5353
  254MOL0     H35028   7.853   6.041  10.275 -3.0423  3.1683  0.8078
  254MOL0     H35029   7.769   6.008  10.421 -2.3078 -3.8157  0.9112
  254MOL0     H35030   7.702   5.782  10.292 -5.3204 -0.3549 -0.1080
  254MOL0     H35031   7.747   5.877  10.144 -2.4569 -0.0252 -0.7515
  254MOL0     H35032   8.465   6.406  10.930  0.3138  0.2270  0.7466
  254MOL0     H35033   8.697   6.467  10.941 -1.8032 -3.0479  0.2145
  254MOL0     H35034   8.906   6.812  10.891  0.1253  1.1177  0.0527
  254MOL0     H35035   9.069   6.959  10.966  0.6943  1.0383 -1.3363
  254MOL0     H35036   8.828   8.185  10.275 -1.5126  1.7132 -0.0428
  254MOL0     H35037   8.670   8.258  10.115 -1.4067  3.9174 -1.2686
  254MOL0     H35038   8.578   8.350   9.693 -0.8768 -0.0127 -0.1988
  254MOL0     H35039   8.440   8.404   9.494  0.6621  0.2986  0.3204
  254MOL0     H35040   8.307   8.505   9.326 -1.6001  1.2229 -2.2802
  254MOL0     H35041   8.226   8.493   9.477 -2.0943 -0.7138 -2.1079
  254MOL0     H35042   8.173   8.721   9.287  1.2310  0.9966  0.8796
  254MOL0     H35043   8.081   8.697   9.430 -0.6249  0.9812 -1.1197
  254MOL0     H35044   8.081   8.488   9.227  2.6176  0.6851  0.2472
  254MOL0     H35045   7.985   8.504   9.382  0.6441  0.9694  0.9421
  254MOL0     H35046   7.863   8.691   9.293  0.6028  1.2035  0.2284
  254MOL0     H35047   7.853   8.549   9.184  1.2102 -0.2561  2.3976
  254MOL0     H35048   8.039   8.855   8.944 -2.8630  1.8400  1.1407
  254MOL0     H35049   8.491   8.824   9.584  2.0690  0.4164  1.8611
  254MOL0     H35050   8.686   8.792   9.877 -1.4899  1.0141  0.4142
  254MOL0     H35051   8.787   8.799   9.731  1.5019  3.3364  2.8179
  254MOL0     H35052   8.650   8.905   9.748 -1.1151  0.0132  0.9681
  255MOL0     O35053   6.105   4.098   5.306  0.7075  0.3838  0.0310
  255MOL0     C35054   6.092   3.985   5.244 -0.8833 -0.1988 -0.4543
  255MOL0     O35055   6.178   3.880   5.262  0.0803  0.3240 -0.7138
  255MOL0     C35056   6.262   3.870   5.371 -0.3041  0.0328 -0.6972
  255MOL0     C35057   6.397   3.856   5.335  0.7476 -0.4494 -0.0331
  255MOL0     C35058   6.493   3.844   5.435 -0.1051  0.5824  0.2067
  255MOL0     C35059   6.463   3.827   5.567 -0.4520  0.0012 -1.1467
  255MOL0     O35060   6.554   3.801   5.674 -0.1535 -0.3191  0.5601
  255MOL0     C35061   6.611   3.676   5.642 -0.1774  1.3517 -0.1642
  255MOL0     C35062   6.763   3.692   5.613  0.0664  0.0260 -0.6265
  255MOL0     C35063   6.839   3.721   5.747 -0.3475 -0.3634 -0.0732
  255MOL0     C35064   6.993   3.737   5.716  0.9114 -0.0459 -0.6784
  255MOL0     C35065   7.084   3.803   5.826  0.5696 -0.0153 -0.2211
  255MOL0     C35066   7.081   3.741   5.975  0.0336 -0.6848  0.6092
  255MOL0     C35067   7.125   3.593   5.969 -0.0819  0.1061  0.0124
  255MOL0     C35068   7.151   3.550   6.118 -0.7352 -0.8888  1.0484
  255MOL0     N35069   7.294   3.568   6.157 -0.1294 -0.5257 -0.1649
  255MOL0     C35070   7.373   3.467   6.204  0.4937 -0.3287  0.7122
  255MOL0     C35071   7.500   3.526   6.219 -0.4068 -0.3984  0.0575
  255MOL0     C35072   7.627   3.451   6.246  0.1439 -0.1150 -0.1224
  255MOL0     C35073   7.701   3.423   6.120  0.2536  0.4957  0.2471
  255MOL0     C35074   7.848   3.406   6.153 -0.5120  0.0854  0.0183
  255MOL0     C35075   7.941   3.389   6.032  1.0990  0.4933 -0.3180
  255MOL0     O35076   7.982   3.509   5.972 -0.3084 -0.5757 -0.4821
  255MOL0     C35077   8.083   3.587   6.030 -0.6269 -0.0369  1.2428
  255MOL0     C35078   8.110   3.709   5.961  0.4684 -0.1788 -0.1237
  255MOL0     C35079   8.220   3.795   5.990 -0.1647 -0.4039  0.2274
  255MOL0     C35080   8.243   3.909   5.905  0.0600  0.2785 -0.9768
  255MOL0     C35081   8.303   3.754   6.099  0.1116  0.6189 -0.2497
  255MOL0     C35082   8.422   3.837   6.148  0.1411  0.5468  0.3708
  255MOL0     O35083   8.457   3.836   6.278 -0.0689 -0.5015 -0.0008
  255MOL0     C35084   8.553   3.932   6.320  0.2402  0.2013 -0.2295
  255MOL0     C35085   8.691   3.904   6.307  0.2376  0.5262 -0.7302
  255MOL0     C35086   8.781   4.003   6.353  0.2390  0.3777 -0.6525
  255MOL0     C35087   8.741   4.130   6.394 -0.0054  0.4330 -0.1645
  255MOL0     O35088   8.840   4.223   6.417  0.0143 -0.1994  0.5558
  255MOL0     C35089   8.896   4.285   6.299 -0.5466  0.1097  0.2021
  255MOL0     C35090   9.029   4.356   6.332 -0.5805 -1.0061 -0.0368
  255MOL0     C35091   9.154   4.271   6.365 -0.0688  1.1928  0.2468
  255MOL0     C35092   9.205   4.195   6.243 -0.2358  0.2191 -0.3245
  255MOL0     C35093   9.342   4.134   6.272 -0.2869  0.1016  0.5247
  255MOL0     C35094   9.408   4.086   6.138 -0.5051  0.8020 -0.0183
  255MOL0     C35095   9.544   4.016   6.145  0.4248  1.0771 -0.6939
  255MOL0     C35096   9.643   4.054   6.258  0.3035  0.0543 -0.1759
  255MOL0    Cl35097   9.768   3.924   6.290  0.2057  0.0625  0.0699
  255MOL0     C35098   8.605   4.166   6.396  0.0253  0.9045  0.3670
  255MOL0     C35099   8.514   4.063   6.359  0.1556 -0.0361  0.7907
  255MOL0     O35100   8.487   3.896   6.062 -0.4740  0.1791  0.2771
  255MOL0     C35101   8.271   3.635   6.168 -0.8436 -0.4960 -0.0011
  255MOL0     C35102   8.158   3.555   6.135 -0.7951  0.4591  1.9474
  255MOL0     N35103   7.484   3.658   6.167  0.7503  0.0024 -0.4785
  255MOL0     N35104   7.359   3.682   6.134 -0.4556 -0.1834 -0.1362
  255MOL0     C35105   6.330   3.849   5.605  0.5052  0.0023 -0.3599
  255MOL0     C35106   6.231   3.868   5.507  0.9475  0.3076  0.0488
  255MOL0     C35107   5.998   3.982   5.132  0.3506 -0.6009  0.1477
  255MOL0     C35108   6.024   3.907   5.022 -0.9273 -0.4972  0.8749
  255MOL0     C35109   5.941   3.916   4.904 -0.3684  0.1090  1.0632
  255MOL0     C35110   5.829   3.998   4.899 -0.7203  0.0694  0.3561
  255MOL0     O35111   5.742   4.012   4.788 -0.2533  0.0133  0.6193
  255MOL0     C35112   5.631   3.923   4.772 -0.2511  0.1962 -0.0262
  255MOL0     C35113   5.497   3.998   4.748 -0.6055  0.6764 -0.0944
  255MOL0     C35114   5.478   4.066   4.613  0.7701 -0.7012 -0.9259
  255MOL0     C35115   5.575   4.192   4.585 -0.9987 -0.0429 -0.5902
  255MOL0     C35116   5.546   4.226   4.451  0.6112  0.6123  0.4172
  255MOL0     C35117   5.525   4.255   4.334  1.1136 -0.7970  0.8548
  255MOL0     C35118   5.804   4.065   5.017  0.9832 -0.4504 -0.4190
  255MOL0     C35119   5.884   4.059   5.133  0.2189 -0.4538  0.4520
  255MOL0     C35120   5.833   4.129   5.250  0.8366  0.0361 -0.0837
  255MOL0     H35121   6.427   3.845   5.231  4.1671  1.5749  0.6024
  255MOL0     H35122   6.588   3.803   5.401 -0.0858  1.0480 -0.3160
  255MOL0     H35123   6.575   3.613   5.560  0.9891 -0.5009  0.6596
  255MOL0     H35124   6.599   3.612   5.730  1.9950 -2.6729 -2.4717
  255MOL0     H35125   6.817   3.612   5.560 -0.0865 -0.3622 -0.2004
  255MOL0     H35126   6.772   3.778   5.546 -1.3196 -0.5148 -1.5425
  255MOL0     H35127   6.801   3.807   5.803 -1.9533  0.1075 -1.7772
  255MOL0     H35128   6.821   3.644   5.823 -0.1005  1.8779  2.3710
  255MOL0     H35129   7.033   3.637   5.698  1.7383  0.4680 -1.8039
  255MOL0     H35130   6.997   3.799   5.626  2.9464 -1.0446 -1.3475
  255MOL0     H35131   7.038   3.901   5.842  0.3551 -0.5946  3.8870
  255MOL0     H35132   7.187   3.820   5.794  1.0511 -0.6816  0.8953
  255MOL0     H35133   7.151   3.802   6.032  1.1730  0.2641 -1.6765
  255MOL0     H35134   6.984   3.748   6.025  0.8645 -0.4650  2.2602
  255MOL0     H35135   7.214   3.575   5.907 -0.6186 -1.5985 -0.3088
  255MOL0     H35136   7.043   3.531   5.931 -0.2954  0.1991  0.3178
  255MOL0     H35137   7.085   3.609   6.181  0.0426  0.7034  0.4337
  255MOL0     H35138   7.120   3.447   6.135 -3.4436 -0.4148 -0.4808
  255MOL0     H35139   7.343   3.365   6.225  0.4322 -0.2257  1.1333
  255MOL0     H35140   7.604   3.350   6.281  1.2016 -1.0059 -1.8238
  255MOL0     H35141   7.689   3.500   6.322 -2.7348  1.1576  1.5574
  255MOL0     H35142   7.672   3.336   6.059  1.6503  2.5148 -3.6494
  255MOL0     H35143   7.685   3.506   6.051  1.1706  0.5403  0.0721
  255MOL0     H35144   7.890   3.491   6.208  1.7330 -0.3681 -0.9052
  255MOL0     H35145   7.850   3.315   6.214 -1.1484 -0.5264 -0.8375
  255MOL0     H35146   8.024   3.324   6.061 -0.2812  0.1851  3.5482
  255MOL0     H35147   7.891   3.338   5.950  1.4631  0.1229 -0.3119
  255MOL0     H35148   8.045   3.727   5.876  1.2169 -0.1823 -0.7057
  255MOL0     H35149   8.347   3.908   5.869  0.7381 -0.1870  0.9117
  255MOL0     H35150   8.225   3.994   5.972 -2.5232 -1.3563  0.5651
  255MOL0     H35151   8.170   3.903   5.824 -1.6331 -1.6228  0.6002
  255MOL0     H35152   8.714   3.813   6.251  2.4044 -0.4513  1.5906
  255MOL0     H35153   8.887   3.984   6.357  0.6689  2.5264 -1.1549
  255MOL0     H35154   8.894   4.208   6.221 -5.3082 -0.3950  0.5191
  255MOL0     H35155   8.824   4.360   6.265 -0.0413  0.6025  0.2183
  255MOL0     H35156   9.064   4.410   6.244  0.9185 -0.7138  0.7020
  255MOL0     H35157   9.009   4.435   6.405  1.4996 -1.3590  1.0152
  255MOL0     H35158   9.149   4.208   6.454  1.3911 -1.2383 -1.2903
  255MOL0     H35159   9.239   4.335   6.390  0.8021  0.1534  0.0006
  255MOL0     H35160   9.204   4.261   6.155  0.9538  0.7293  0.0233
  255MOL0     H35161   9.143   4.111   6.209  0.5008  0.4864 -2.4831
  255MOL0     H35162   9.410   4.205   6.321  1.7641 -0.6071 -1.1514
  255MOL0     H35163   9.338   4.052   6.344  2.9954  0.0436  0.7796
  255MOL0     H35164   9.433   4.173   6.077  0.2286  1.6557  1.4536
  255MOL0     H35165   9.344   4.024   6.075  0.6712 -0.6245  0.1442
  255MOL0     H35166   9.596   4.014   6.048  0.0081 -0.5700 -0.9085
  255MOL0     H35167   9.516   3.913   6.166 -0.1810  1.2542 -0.6040
  255MOL0     H35168   9.583   4.067   6.349 -0.2320 -1.4111 -0.2792
  255MOL0     H35169   9.691   4.146   6.225  1.3773 -0.5400 -0.3009
  255MOL0     H35170   8.565   4.261   6.430 -0.1711 -0.0321  2.9993
  255MOL0     H35171   8.406   4.071   6.366 -0.0914 -0.9736 -1.2073
  255MOL0     H35172   8.336   3.611   6.251  1.5442  1.8295 -1.0698
  255MOL0     H35173   8.140   3.463   6.190  1.5665 -0.6275  1.0724
  255MOL0     H35174   6.295   3.834   5.706 -1.2115  0.7489 -0.7905
  255MOL0     H35175   6.125   3.873   5.531  0.1835  0.3259 -2.9304
  255MOL0     H35176   6.107   3.838   5.020 -0.3140  0.2200 -0.6888
  255MOL0     H35177   5.977   3.855   4.822  1.3350 -2.1133  3.2992
  255MOL0     H35178   5.646   3.853   4.689  1.1482 -0.0167  0.3807
  255MOL0     H35179   5.633   3.866   4.866 -0.4182 -0.0452 -0.1670
  255MOL0     H35180   5.485   4.062   4.837  2.7716 -2.9264  3.3630
  255MOL0     H35181   5.412   3.929   4.754 -0.2190  0.0405 -1.5933
  255MOL0     H35182   5.485   3.984   4.542  1.6477 -2.4082  1.0418
  255MOL0     H35183   5.379   4.114   4.614  0.2168 -1.7972 -1.2585
  255MOL0     H35184   5.680   4.162   4.597 -0.6458  1.2697 -0.1900
  255MOL0     H35185   5.545   4.272   4.654 -0.2091 -0.9447  0.8716
  255MOL0     H35186   5.508   4.270   4.229 -1.0134 -0.9689  1.1352
  255MOL0     H35187   5.714   4.126   5.023  0.1922 -1.7323  2.7503
  255MOL0     H35188   5.731   4.166   5.233  0.3160 -1.4941 -0.4845
  255MOL0     H35189   5.837   4.071   5.342  0.8441  0.4302  0.1670
  255MOL0     H35190   5.881   4.223   5.278 -0.7891  0.7778  0.3786
  256MOL0     O35191   1.232   2.144   0.860 -0.4014  0.3454  0.8121
  256MOL0     C35192   1.157   2.178   0.774 -0.2438  0.0604  0.1225
  256MOL0     O35193   1.148   2.299   0.715  0.5540 -0.2806  0.6648
  256MOL0     C35194   1.246   2.393   0.740  0.0997  0.7267  0.5165
  256MOL0     C35195   1.249   2.470   0.854 -1.2319 -0.2016 -0.5683
  256MOL0     C35196   1.359   2.542   0.898 -0.2137  0.2102 -0.0587
  256MOL0     C35197   1.469   2.556   0.822  0.1227 -1.0485  1.0655
  256MOL0     O35198   1.579   2.635   0.837  0.3766  0.2583  0.9001
  256MOL0     C35199   1.553   2.771   0.886 -0.1720  0.5192 -0.4877
  256MOL0     C35200   1.683   2.857   0.864  0.1011  0.3761 -0.8159
  256MOL0     C35201   1.800   2.833   0.962  0.7824 -0.0862  0.1810
  256MOL0     C35202   1.890   2.961   0.972 -0.1323  0.1861 -0.5109
  256MOL0     C35203   2.028   2.919   1.023 -0.2029  0.0433 -0.2387
  256MOL0     C35204   2.108   3.039   1.036  0.1290 -0.5506 -0.3033
  256MOL0     C35205   2.250   3.019   1.089 -0.3740  0.5337 -0.1889
  256MOL0     C35206   2.353   2.967   0.985 -0.3937  0.0772 -0.9329
  256MOL0     N35207   2.340   2.821   0.953 -0.7194 -0.1508  0.0308
  256MOL0     C35208   2.335   2.728   1.054  0.3826 -0.0378  0.1481
  256MOL0     C35209   2.316   2.611   0.991 -0.0967  0.2556  1.2330
  256MOL0     C35210   2.307   2.473   1.048 -0.0677  0.1938  0.2644
  256MOL0     C35211   2.413   2.440   1.152 -0.2751 -0.3928  0.6635
  256MOL0     C35212   2.562   2.428   1.114 -0.1245  0.4612  1.1426
  256MOL0     C35213   2.625   2.556   1.065 -0.3263  0.2516 -0.1154
  256MOL0     O35214   2.761   2.531   1.047 -0.2529  0.2574 -0.8056
  256MOL0     C35215   2.835   2.636   0.997 -0.3557 -0.8315 -0.1104
  256MOL0     C35216   2.811   2.773   1.018  0.0119  0.0719 -0.5982
  256MOL0     C35217   2.897   2.883   0.978  0.9192  0.7284 -0.3073
  256MOL0     C35218   2.853   3.029   0.996  0.1736  0.0609  0.4990
  256MOL0     C35219   3.013   2.847   0.914  0.0508  0.9935 -0.0200
  256MOL0     C35220   3.124   2.932   0.872 -0.0665 -0.0177 -0.6008
  256MOL0     O35221   3.248   2.871   0.874 -0.4493 -0.5429  0.3418
  256MOL0     C35222   3.356   2.920   0.816  0.2268 -0.7652  0.6676
  256MOL0     C35223   3.466   2.953   0.895 -0.5102  0.4458 -0.2408
  256MOL0     C35224   3.589   3.003   0.842  0.5021 -0.7168 -1.0696
  256MOL0     C35225   3.601   3.007   0.702 -1.0282 -0.2920  0.1588
  256MOL0     O35226   3.722   3.043   0.635  0.8412 -0.1104  0.2230
  256MOL0     C35227   3.848   3.076   0.706 -0.3220 -0.2122 -0.7715
  256MOL0     C35228   3.969   3.039   0.613 -0.5475  0.2166 -0.8682
  256MOL0     C35229   4.101   3.058   0.679 -0.5179  0.3633 -0.8739
  256MOL0     C35230   4.206   3.012   0.575 -1.0018  0.1203  0.3543
  256MOL0     C35231   4.353   3.038   0.602  0.1268  0.3507 -0.0795
  256MOL0     C35232   4.404   2.930   0.702 -0.7968 -1.3633 -0.7127
  256MOL0     C35233   4.560   2.944   0.695  0.3048 -0.0656  0.5375
  256MOL0     C35234   4.627   2.841   0.792 -0.3500 -0.7493  0.1909
  256MOL0    Cl35235   4.812   2.867   0.793 -0.3768 -0.2532  0.0429
  256MOL0     C35236   3.488   2.973   0.624 -1.1889  0.2789  0.1467
  256MOL0     C35237   3.367   2.931   0.682 -0.1409  0.0217 -0.1330
  256MOL0     O35238   3.111   3.053   0.861 -0.2138  0.2271  0.9103
  256MOL0     C35239   3.041   2.706   0.895  0.4119  0.0210  0.4774
  256MOL0     C35240   2.952   2.604   0.934  0.2949 -0.4846  0.5806
  256MOL0     N35241   2.332   2.636   0.854 -0.0679  0.0195  0.1915
  256MOL0     N35242   2.339   2.760   0.833  0.5851 -0.7997 -0.2595
  256MOL0     C35243   1.474   2.477   0.702  0.4938 -0.4676  0.1613
  256MOL0     C35244   1.361   2.402   0.663  0.2857 -0.1028 -0.9710
  256MOL0     C35245   1.083   2.066   0.710 -0.2867 -0.7142  0.2951
  256MOL0     C35246   1.056   2.078   0.574 -0.2819 -0.0730 -0.9077
  256MOL0     C35247   0.982   1.978   0.504 -0.4837 -0.8773 -0.2600
  256MOL0     C35248   0.929   1.867   0.555  0.3814 -0.1858 -0.0382
  256MOL0     O35249   0.865   1.779   0.469  1.0874 -0.3433  0.3123
  256MOL0     C35250   0.795   1.664   0.517  0.3246  0.2877  0.3798
  256MOL0     C35251   0.686   1.604   0.421  0.6288 -0.6609  0.4052
  256MOL0     C35252   0.565   1.698   0.429  1.1855 -0.4523  0.3238
  256MOL0     C35253   0.455   1.667   0.323 -0.0203 -0.8352 -0.0996
  256MOL0     C35254   0.381   1.543   0.342 -0.6203 -0.1698  0.0704
  256MOL0     C35255   0.335   1.427   0.361  0.4972 -0.0765  0.0621
  256MOL0     C35256   0.972   1.850   0.697  0.3675  0.4876 -0.1960
  256MOL0     C35257   1.049   1.949   0.775 -0.2919 -0.3313 -0.2083
  256MOL0     C35258   1.078   1.908   0.917  0.0075  0.4882 -0.2455
  256MOL0     H35259   1.160   2.481   0.916 -0.4945 -0.4372  0.5753
  256MOL0     H35260   1.355   2.608   0.984  0.2049 -0.8679  0.8046
  256MOL0     H35261   1.521   2.779   0.990  0.4869 -0.3994 -0.1992
  256MOL0     H35262   1.464   2.805   0.833 -1.5998  1.5268  2.4133
  256MOL0     H35263   1.721   2.863   0.761 -0.1203 -0.8367 -0.9829
  256MOL0     H35264   1.654   2.962   0.880  0.0515  0.7311 -2.9454
  256MOL0     H35265   1.770   2.806   1.063 -0.8124  2.2369  0.4037
  256MOL0     H35266   1.853   2.745   0.924  2.4026  0.7538  0.4299
  256MOL0     H35267   1.908   3.007   0.874  3.4205  0.8329  0.3118
  256MOL0     H35268   1.835   3.030   1.037 -0.3098  0.4122 -0.8970
  256MOL0     H35269   2.082   2.853   0.955  2.0941  0.0109  1.4780
  256MOL0     H35270   2.015   2.871   1.120  0.3967 -1.0001 -0.6604
  256MOL0     H35271   2.111   3.085   0.937  0.0097  1.8741  0.7478
  256MOL0     H35272   2.060   3.112   1.102  0.4426 -0.9883  0.4259
  256MOL0     H35273   2.240   2.957   1.179 -4.0141  2.7180  1.1324
  256MOL0     H35274   2.284   3.118   1.123 -0.7359  1.3326 -2.0335
  256MOL0     H35275   2.361   3.028   0.894  3.2006 -1.7724 -2.0250
  256MOL0     H35276   2.448   2.990   1.034 -0.7652  1.4669 -0.8094
  256MOL0     H35277   2.331   2.732   1.162  0.3324 -0.6809  0.1716
  256MOL0     H35278   2.323   2.404   0.965 -0.1340  2.2176 -1.5108
  256MOL0     H35279   2.211   2.452   1.095  1.5695 -1.1905  3.2720
  256MOL0     H35280   2.405   2.523   1.223 -1.0834 -1.1240  1.4379
  256MOL0     H35281   2.372   2.350   1.198  0.9722 -0.7861  1.0360
  256MOL0     H35282   2.619   2.388   1.198 -2.2262  0.6413  2.7432
  256MOL0     H35283   2.570   2.346   1.042 -1.0460 -0.2923  1.8746
  256MOL0     H35284   2.585   2.592   0.970 -3.2950 -1.9269  0.1643
  256MOL0     H35285   2.602   2.633   1.140 -0.8290  1.0385 -1.0634
  256MOL0     H35286   2.718   2.810   1.058 -1.0963 -1.2390 -1.8411
  256MOL0     H35287   2.744   3.026   1.001  0.0187  0.5709 -1.6247
  256MOL0     H35288   2.862   3.077   0.898 -1.7234 -1.3681 -0.4512
  256MOL0     H35289   2.899   3.084   1.079  1.0877 -1.9474  1.3792
  256MOL0     H35290   3.465   2.927   1.000  0.0556 -1.9504 -0.7771
  256MOL0     H35291   3.661   3.029   0.919  0.1103  0.0065 -0.9384
  256MOL0     H35292   3.849   3.182   0.730  1.2696 -0.3919  0.0555
  256MOL0     H35293   3.868   3.019   0.797  2.3356  0.8596 -0.6102
  256MOL0     H35294   3.955   2.936   0.579 -2.8550  0.4423 -0.7691
  256MOL0     H35295   3.964   3.105   0.526 -0.5248 -1.1731 -1.9562
  256MOL0     H35296   4.105   3.012   0.778 -1.6711  3.2138  0.5884
  256MOL0     H35297   4.114   3.164   0.700  3.1844 -0.0993 -0.1856
  256MOL0     H35298   4.186   3.061   0.479  3.5404 -0.4231 -1.1073
  256MOL0     H35299   4.192   2.905   0.554  1.1306 -0.7710  2.8991
  256MOL0     H35300   4.396   3.023   0.503 -0.1465 -1.9541  0.0999
  256MOL0     H35301   4.359   3.145   0.626 -1.7766  0.5731 -0.4620
  256MOL0     H35302   4.373   2.830   0.669 -2.6028  0.0581 -3.7256
  256MOL0     H35303   4.372   2.952   0.804  2.7137  2.4199 -0.1628
  256MOL0     H35304   4.588   3.043   0.731 -0.6651 -0.0794  1.3696
  256MOL0     H35305   4.600   2.923   0.595 -1.6721 -0.6534 -0.1660
  256MOL0     H35306   4.610   2.741   0.751 -3.2482 -0.8424  1.4140
  256MOL0     H35307   4.588   2.850   0.894 -1.6237 -4.1907  0.1369
  256MOL0     H35308   3.501   2.980   0.516 -1.4917  0.3373  0.1149
  256MOL0     H35309   3.275   2.909   0.628 -0.0811 -0.1770 -0.1558
  256MOL0     H35310   3.133   2.670   0.851  0.8341  0.4591  0.9949
  256MOL0     H35311   2.971   2.502   0.901 -0.5590 -0.2351 -0.8030
  256MOL0     H35312   1.560   2.474   0.636  0.7292  1.1035  0.3546
  256MOL0     H35313   1.359   2.348   0.569  0.1114 -1.2179 -0.3398
  256MOL0     H35314   1.093   2.163   0.517  0.3044 -0.7131 -1.5058
  256MOL0     H35315   0.955   1.992   0.400  0.0300 -2.7575 -0.6709
  256MOL0     H35316   0.871   1.585   0.520  2.2532  2.0740  1.1770
  256MOL0     H35317   0.749   1.678   0.615  2.4515  2.0630  1.2156
  256MOL0     H35318   0.659   1.507   0.463  0.2613 -0.2053  1.2505
  256MOL0     H35319   0.715   1.604   0.316 -2.3052  2.3201 -0.5639
  256MOL0     H35320   0.517   1.690   0.527  1.9225 -2.2725  0.5734
  256MOL0     H35321   0.600   1.800   0.409 -0.7586  0.1993 -0.0041
  256MOL0     H35322   0.503   1.669   0.224  2.9188  1.6408  1.2136
  256MOL0     H35323   0.394   1.757   0.324 -0.0764 -0.8349 -1.4127
  256MOL0     H35324   0.295   1.329   0.374  0.6858 -0.2019 -0.2797
  256MOL0     H35325   0.941   1.755   0.739  0.5401  0.0987 -0.9342
  256MOL0     H35326   1.005   1.833   0.950 -0.7735  0.7485 -1.3273
  256MOL0     H35327   1.179   1.866   0.911 -0.3547 -0.3362 -0.7432
  256MOL0     H35328   1.076   1.988   0.991  1.0868 -0.9373  1.4166
  257MOL0     O35329  10.671   6.043   0.708  0.7989  0.1357  0.2459
  257MOL0     C35330  10.588   6.131   0.704 -0.4398  0.3942 -0.0295
  257MOL0     O35331  10.562   6.215   0.803 -0.1305  0.2134  0.6146
  257MOL0     C35332  10.638   6.211   0.919  0.1107 -0.4954  0.0428
  257MOL0     C35333  10.767   6.268   0.920  1.0624 -0.6884 -0.5378
  257MOL0     C35334  10.838   6.271   1.041  0.6991  0.2603  0.1435
  257MOL0     C35335  10.787   6.200   1.152  0.5381 -0.1033  0.3685
  257MOL0     O35336  10.855   6.199   1.270 -0.5351 -0.7637  0.1096
  257MOL0     C35337  10.785   6.238   1.389  0.2859  0.5486  0.6509
  257MOL0     C35338  10.890   6.269   1.493 -0.8483 -0.1981  0.1124
  257MOL0     C35339  10.825   6.301   1.622  0.6741  0.1202 -0.3549
  257MOL0     C35340  10.918   6.350   1.736  0.1482 -0.5166 -0.0289
  257MOL0     C35341  10.911   6.503   1.763  0.1257  0.8120 -0.3860
  257MOL0     C35342  10.984   6.539   1.888  0.5517 -0.1050 -0.8942
  257MOL0     C35343  11.137   6.549   1.852 -0.7036  2.0006  0.2756
  257MOL0     C35344  11.211   6.632   1.952 -0.1710  0.0742  1.0608
  257MOL0     N35345  11.355   6.640   1.912 -0.8657  0.3001 -0.1793
  257MOL0     C35346  11.435   6.530   1.901 -0.3552 -0.5536 -0.3550
  257MOL0     C35347  11.553   6.581   1.866 -0.1645 -0.5781  0.2607
  257MOL0     C35348  11.677   6.505   1.818 -0.4869 -0.1748 -0.9456
  257MOL0     C35349  11.743   6.562   1.681  0.4132 -0.5026 -0.5539
  257MOL0     C35350  11.891   6.510   1.656 -0.1989  1.0718 -0.8614
  257MOL0     C35351  11.986   6.489   1.779  0.1794  0.3973  0.9606
  257MOL0     O35352  12.005   6.616   1.839 -0.0089  0.2056  0.3847
  257MOL0     C35353  12.079   6.636   1.952 -0.4461  0.1426 -0.1328
  257MOL0     C35354  12.169   6.537   2.012 -0.4848 -0.3299  0.4627
  257MOL0     C35355  12.235   6.560   2.129  0.7930 -1.5042  0.6675
  257MOL0     C35356  12.309   6.450   2.195  1.1331  0.1500  0.0188
  257MOL0     C35357  12.233   6.694   2.181 -0.4975 -1.1793 -0.4742
  257MOL0     C35358  12.318   6.739   2.294  0.1860 -0.2855 -0.3462
  257MOL0     O35359  12.268   6.838   2.363  0.4058  0.2584 -0.0248
  257MOL0     C35360  12.304   6.884   2.489  1.1816 -0.0932  0.1191
  257MOL0     C35361  12.225   6.986   2.550  0.1038 -0.4809 -0.1731
  257MOL0     C35362  12.253   7.039   2.669 -0.0551  0.5933 -1.0879
  257MOL0     C35363  12.351   6.985   2.739 -0.2598  0.0991 -0.1169
  257MOL0     O35364  12.376   7.048   2.856  0.6948 -1.1177  0.1727
  257MOL0     C35365  12.508   7.028   2.921  0.7090 -0.4151 -0.0257
  257MOL0     C35366  12.520   7.137   3.030  0.8993 -0.3000 -0.2071
  257MOL0     C35367  12.662   7.122   3.096 -0.9542  0.3104 -0.5823
  257MOL0     C35368  12.671   7.195   3.235 -0.5816  1.2196  1.1264
  257MOL0     C35369  12.784   7.132   3.308  1.0098  0.7779 -0.2000
  257MOL0     C35370  12.915   7.168   3.243  1.6505 -0.5058 -0.1707
  257MOL0     C35371  13.028   7.087   3.313 -0.8316 -0.6523  0.1776
  257MOL0     C35372  13.168   7.155   3.278  0.5063 -0.2685 -0.1279
  257MOL0    Cl35373  13.195   7.164   3.105 -0.2779 -0.4529  0.1695
  257MOL0     C35374  12.433   6.882   2.696  0.6929  0.0408  0.2241
  257MOL0     C35375  12.404   6.833   2.567 -0.2258  1.2352 -0.2114
  257MOL0     O35376  12.432   6.701   2.299  0.1986  0.1335 -0.3691
  257MOL0     C35377  12.133   6.789   2.137  0.2454 -0.1020 -0.0521
  257MOL0     C35378  12.059   6.760   2.020  0.1084  1.1396  0.6620
  257MOL0     N35379  11.555   6.719   1.872  0.5140  0.9128  0.8099
  257MOL0     N35380  11.430   6.750   1.906  0.0052 -0.3951 -0.1481
  257MOL0     C35381  10.659   6.139   1.142 -0.4398 -0.3885 -0.5696
  257MOL0     C35382  10.585   6.148   1.032 -0.2584  0.6729  0.0143
  257MOL0     C35383  10.495   6.143   0.593  0.4260  0.1507 -0.2312
  257MOL0     C35384  10.367   6.200   0.615  0.0496 -0.5671  0.4927
  257MOL0     C35385  10.274   6.203   0.517  0.4672  0.2758 -0.0901
  257MOL0     C35386  10.301   6.140   0.393 -0.3368 -0.6044  0.6513
  257MOL0     O35387  10.227   6.157   0.283  0.0603 -0.4103  0.2139
  257MOL0     C35388  10.083   6.183   0.307 -0.3957  0.4848 -0.4488
  257MOL0     C35389   9.996   6.181   0.178  0.5774  0.3597 -0.2685
  257MOL0     C35390   9.971   6.038   0.128  0.6608 -0.4252  0.9955
  257MOL0     C35391   9.882   6.028   0.001  0.0477 -0.3028 -0.3778
  257MOL0     C35392   9.742   6.057   0.037  0.3581  0.3794  0.4146
  257MOL0     C35393   9.627   6.077   0.066  0.1567  0.7759  0.3533
  257MOL0     C35394  10.429   6.095   0.370 -0.0452  0.2681  0.9552
  257MOL0     C35395  10.524   6.082   0.469  0.1470 -0.1158 -0.7138
  257MOL0     C35396  10.655   6.014   0.430  0.1442 -0.2794  0.4914
  257MOL0     H35397  10.806   6.324   0.836 -0.9678 -0.5772 -1.4673
  257MOL0     H35398  10.933   6.325   1.047  0.6422  0.5800 -1.3963
  257MOL0     H35399  10.719   6.156   1.419 -0.2337  0.7933  0.1988
  257MOL0     H35400  10.716   6.321   1.372  0.6525  0.5627 -0.8929
  257MOL0     H35401  10.963   6.187   1.494  0.3421  0.8093 -0.3620
  257MOL0     H35402  10.946   6.352   1.450  1.9088 -1.8978  0.1502
  257MOL0     H35403  10.746   6.374   1.602 -0.5594 -0.9509  0.4694
  257MOL0     H35404  10.768   6.217   1.663 -1.1559  0.8012 -1.4132
  257MOL0     H35405  10.888   6.297   1.827 -1.0414  3.3888  2.0748
  257MOL0     H35406  11.020   6.321   1.710  0.7244 -0.2674  1.8019
  257MOL0     H35407  10.805   6.528   1.773  0.0851  0.6347 -0.3577
  257MOL0     H35408  10.962   6.562   1.686 -2.1417  0.1132 -2.5363
  257MOL0     H35409  10.932   6.632   1.912  0.5273  1.5603 -6.0379
  257MOL0     H35410  10.966   6.468   1.969 -0.1085  1.2276  0.1489
  257MOL0     H35411  11.161   6.584   1.751  0.5238  2.5966  0.7471
  257MOL0     H35412  11.187   6.452   1.847  0.1685  2.4842 -1.1688
  257MOL0     H35413  11.157   6.727   1.945  2.9067  2.1304  2.4673
  257MOL0     H35414  11.209   6.589   2.052  0.8643 -1.5239  0.4382
  257MOL0     H35415  11.407   6.426   1.918 -3.7807  0.1301 -1.0783
  257MOL0     H35416  11.650   6.401   1.797  2.0618 -1.0908 -0.0454
  257MOL0     H35417  11.750   6.503   1.899  1.0055 -1.2270 -2.2377
  257MOL0     H35418  11.684   6.536   1.593 -0.4617  1.1745 -0.5006
  257MOL0     H35419  11.742   6.671   1.688  0.3992 -0.5839  1.5245
  257MOL0     H35420  11.862   6.411   1.619  1.8233  0.3215 -0.5870
  257MOL0     H35421  11.946   6.572   1.586  0.7725 -0.1407 -1.2099
  257MOL0     H35422  11.943   6.419   1.851 -0.2168 -0.2397  0.1331
  257MOL0     H35423  12.087   6.452   1.760  0.9036  1.2030  3.0380
  257MOL0     H35424  12.183   6.441   1.963 -0.2030 -0.0950  0.0722
  257MOL0     H35425  12.238   6.367   2.200  1.9950 -0.7113 -1.2021
  257MOL0     H35426  12.344   6.481   2.294  1.8068  1.9874 -0.7628
  257MOL0     H35427  12.393   6.406   2.140 -1.4478 -4.5193 -0.7323
  257MOL0     H35428  12.148   7.024   2.484 -0.6449 -2.1120 -0.2862
  257MOL0     H35429  12.192   7.120   2.708  1.3966  0.2381  2.3227
  257MOL0     H35430  12.494   6.933   2.973  2.7139 -1.3698 -1.1325
  257MOL0     H35431  12.595   7.035   2.856 -0.5044  0.0880 -1.6710
  257MOL0     H35432  12.523   7.235   2.983  2.2261 -0.2491 -0.0636
  257MOL0     H35433  12.446   7.130   3.111  0.9512  2.3687  0.1378
  257MOL0     H35434  12.735   7.155   3.020 -0.1274 -0.0624  0.0355
  257MOL0     H35435  12.675   7.015   3.109  0.7572  0.6067  0.5937
  257MOL0     H35436  12.572   7.186   3.281 -0.8767  2.6940  0.8257
  257MOL0     H35437  12.686   7.301   3.212 -0.8765  1.1823  0.7355
  257MOL0     H35438  12.786   7.170   3.410  1.4965 -0.0941  0.1299
  257MOL0     H35439  12.780   7.023   3.315  0.8528  0.7559 -0.5684
  257MOL0     H35440  12.926   7.276   3.255 -0.9514 -0.4145  2.5578
  257MOL0     H35441  12.916   7.148   3.135  0.2405  0.4080 -0.3921
  257MOL0     H35442  13.035   6.986   3.272 -1.8482 -0.4907 -0.4285
  257MOL0     H35443  13.016   7.082   3.421 -1.8261 -0.1213  0.1105
  257MOL0     H35444  13.240   7.089   3.326 -0.1608 -0.9353 -0.0243
  257MOL0     H35445  13.173   7.255   3.322  2.2011 -0.7691  0.9169
  257MOL0     H35446  12.525   6.856   2.748  0.4241  2.4395  2.0875
  257MOL0     H35447  12.464   6.750   2.532 -2.0754  1.3397 -4.0824
  257MOL0     H35448  12.112   6.888   2.177  1.4334 -0.1311  0.7114
  257MOL0     H35449  11.977   6.825   1.991  0.0143  0.7864  0.1108
  257MOL0     H35450  10.631   6.078   1.227  2.6441 -2.0979 -0.6348
  257MOL0     H35451  10.486   6.104   1.035 -1.7403  3.8095  1.6190
  257MOL0     H35452  10.349   6.244   0.713  1.8755 -2.8061  1.9325
  257MOL0     H35453  10.184   6.256   0.547  1.2471  0.8556  1.2867
  257MOL0     H35454  10.042   6.120   0.386  0.1947  3.1843  2.1806
  257MOL0     H35455  10.094   6.285   0.345  0.4940  0.2555 -0.0589
  257MOL0     H35456  10.056   6.243   0.111  3.0999  0.3534  1.7996
  257MOL0     H35457   9.894   6.218   0.198  0.4412 -1.0084  1.9338
  257MOL0     H35458  10.064   5.983   0.112 -0.0986 -1.3081 -0.6650
  257MOL0     H35459   9.934   5.974   0.209  1.8172 -1.5318  0.6921
  257MOL0     H35460   9.895   5.927  -0.038  1.4403 -2.1151  4.1175
  257MOL0     H35461   9.914   6.101  -0.074  0.1863 -0.5096 -0.5189
  257MOL0     H35462   9.523   6.096   0.086 -0.5134 -2.2228  0.2112
  257MOL0     H35463  10.454   6.050   0.274 -1.0323  0.7260  0.4576
  257MOL0     H35464  10.736   6.086   0.444  2.8968 -3.1262  0.2293
  257MOL0     H35465  10.667   5.915   0.476 -4.1465 -0.6989  1.1888
  257MOL0     H35466  10.649   5.991   0.324 -0.6244 -3.4895  1.1371
  258MOL0     O35467   4.776   2.741   9.422  0.6401  1.4233 -0.2476
  258MOL0     C35468   4.685   2.737   9.507 -0.1396  0.1405 -0.4466
  258MOL0     O35469   4.710   2.685   9.632 -0.4791 -0.4717 -0.1429
  258MOL0     C35470   4.829   2.623   9.655  0.5230  0.0429 -0.6872
  258MOL0     C35471   4.910   2.659   9.765 -0.0618 -0.6872  0.4425
  258MOL0     C35472   5.025   2.592   9.797 -0.4135  0.6451 -0.2088
  258MOL0     C35473   5.072   2.480   9.720  0.7016 -0.3356  0.4779
  258MOL0     O35474   5.187   2.416   9.738  0.1905  1.1173 -0.0436
  258MOL0     C35475   5.284   2.478   9.818 -1.2270 -0.1376 -0.8693
  258MOL0     C35476   5.407   2.398   9.829  0.0329  0.7897 -0.4452
  258MOL0     C35477   5.482   2.447   9.948  0.1434  0.3977  0.7089
  258MOL0     C35478   5.629   2.386   9.939 -0.7098 -0.0643 -0.0431
  258MOL0     C35479   5.698   2.406  10.084  0.2043  0.1075 -0.3327
  258MOL0     C35480   5.725   2.557  10.116  0.5885  0.6447  0.3699
  258MOL0     C35481   5.806   2.629  10.008 -0.1333 -0.1869  0.6099
  258MOL0     C35482   5.869   2.762  10.048 -0.1550 -0.2292  0.0672
  258MOL0     N35483   5.978   2.799   9.947 -0.6254 -0.3217 -0.0674
  258MOL0     C35484   6.101   2.743   9.927 -0.1141  0.6839  0.1540
  258MOL0     C35485   6.170   2.827   9.847 -0.2942  0.7429 -0.4831
  258MOL0     C35486   6.315   2.803   9.787 -0.6035  0.3381  0.2863
  258MOL0     C35487   6.422   2.725   9.862  0.3168 -0.1475  0.4525
  258MOL0     C35488   6.406   2.578   9.845 -0.1670  0.1750 -0.2512
  258MOL0     C35489   6.521   2.511   9.929  0.1541  1.2693  0.3039
  258MOL0     O35490   6.658   2.519   9.874 -0.1043 -0.2756 -0.8225
  258MOL0     C35491   6.753   2.445   9.932 -1.6377  0.1587 -0.2629
  258MOL0     C35492   6.744   2.386  10.057  0.0002  0.2367 -0.2278
  258MOL0     C35493   6.854   2.320  10.116 -0.0953  1.0026 -0.4813
  258MOL0     C35494   6.830   2.276  10.261  0.8524 -0.5584 -0.5032
  258MOL0     C35495   6.967   2.292  10.047  0.5230  1.0894  0.6423
  258MOL0     C35496   7.094   2.218  10.102  1.1334 -0.3789  0.6399
  258MOL0     O35497   7.198   2.203  10.021 -0.1678 -0.0581 -0.1198
  258MOL0     C35498   7.317   2.156  10.079  0.1159 -0.0175  0.0196
  258MOL0     C35499   7.386   2.061  10.008 -0.5874  0.0510  0.2579
  258MOL0     C35500   7.515   2.024  10.053 -0.4616  0.1922  0.0593
  258MOL0     C35501   7.578   2.090  10.165 -0.3924 -0.3921 -0.6518
  258MOL0     O35502   7.706   2.061  10.213 -0.0625  0.1571 -0.0609
  258MOL0     C35503   7.791   1.964  10.152  0.7748  0.3438 -0.2322
  258MOL0     C35504   7.918   1.943  10.239 -0.0846  0.9010 -0.2453
  258MOL0     C35505   8.000   2.077  10.243  0.3417 -0.2338  0.0855
  258MOL0     C35506   8.150   2.063  10.251  0.3144  0.4895 -0.1172
  258MOL0     C35507   8.213   2.006  10.126 -1.1817 -0.9532 -0.1127
  258MOL0     C35508   8.365   2.048  10.103  0.5611  0.6468  0.3600
  258MOL0     C35509   8.405   2.036   9.959  0.0731  0.0035  1.1531
  258MOL0     C35510   8.555   2.041   9.958 -0.3504 -0.9378  0.1306
  258MOL0    Cl35511   8.633   1.881   9.996  0.4772  0.2244 -0.0462
  258MOL0     C35512   7.511   2.192  10.223 -1.1022 -1.4657  0.9236
  258MOL0     C35513   7.378   2.226  10.188 -0.2277 -0.0735 -0.3662
  258MOL0     O35514   7.082   2.158  10.211 -0.4249 -1.4678 -0.0384
  258MOL0     C35515   6.977   2.345   9.923 -0.7952 -0.7152  0.3358
  258MOL0     C35516   6.874   2.422   9.867 -0.3878  0.2828 -0.1020
  258MOL0     N35517   6.086   2.928   9.804 -0.2671  0.3600  0.6029
  258MOL0     N35518   5.978   2.913   9.864  0.5342 -0.6944 -0.2050
  258MOL0     C35519   4.989   2.438   9.622  0.3597 -0.2835  0.7096
  258MOL0     C35520   4.867   2.502   9.593 -0.5765  1.0288  0.2758
  258MOL0     C35521   4.565   2.820   9.487  0.1190  0.0714 -0.1339
  258MOL0     C35522   4.453   2.785   9.560  0.7547 -0.3145  0.4764
  258MOL0     C35523   4.335   2.865   9.558 -0.1766  0.0696  0.6407
  258MOL0     C35524   4.314   2.969   9.476 -0.4444 -0.4215  0.7617
  258MOL0     O35525   4.200   3.048   9.478 -0.2558  0.8457  0.3294
  258MOL0     C35526   4.075   2.974   9.468  0.3979  1.2058  0.2262
  258MOL0     C35527   4.077   2.865   9.354  0.9673  0.1319 -0.1964
  258MOL0     C35528   4.109   2.915   9.215  0.7343 -0.0177  0.6457
  258MOL0     C35529   4.146   2.801   9.121  1.2698  0.4247  0.1777
  258MOL0     C35530   4.025   2.716   9.107  0.3578 -0.0547 -0.0404
  258MOL0     C35531   3.923   2.646   9.087 -0.5832 -0.5016 -0.3687
  258MOL0     C35532   4.426   3.020   9.412  0.3197  0.2915  0.2316
  258MOL0     C35533   4.550   2.938   9.404  0.4391 -0.1206 -0.3208
  258MOL0     C35534   4.667   2.989   9.328  0.2829 -0.5895 -0.0040
  258MOL0     H35535   4.886   2.748   9.822 -1.1051 -0.3961 -0.4256
  258MOL0     H35536   5.059   2.627   9.894 -0.3741 -0.6819  0.2741
  258MOL0     H35537   5.247   2.510   9.916  2.8891  3.4723 -0.2128
  258MOL0     H35538   5.320   2.565   9.762 -0.3310 -1.0517 -1.7544
  258MOL0     H35539   5.372   2.294   9.835 -0.1065  0.9189  1.2939
  258MOL0     H35540   5.467   2.410   9.738  0.4465 -0.3804 -0.3391
  258MOL0     H35541   5.491   2.556   9.946 -1.6694  0.5699 -0.4200
  258MOL0     H35542   5.426   2.423  10.039  0.7572  0.3927  1.0934
  258MOL0     H35543   5.642   2.285   9.901  0.5448 -0.0632  0.3471
  258MOL0     H35544   5.676   2.448   9.862 -1.7470  2.0106  0.8946
  258MOL0     H35545   5.796   2.359  10.084 -0.0329 -0.5031  2.3565
  258MOL0     H35546   5.627   2.356  10.150 -0.1484  0.9683 -0.0359
  258MOL0     H35547   5.628   2.607  10.106  1.3738  1.8588 -1.8316
  258MOL0     H35548   5.776   2.566  10.212  0.4919 -0.3382  0.5227
  258MOL0     H35549   5.737   2.647   9.925  1.9415 -1.1871 -1.4635
  258MOL0     H35550   5.889   2.563   9.978  1.2685  0.7622  2.2682
  258MOL0     H35551   5.804   2.849  10.051  3.4227  2.7247 -0.6913
  258MOL0     H35552   5.927   2.744  10.139 -3.6478 -2.6369  2.0301
  258MOL0     H35553   6.137   2.647   9.961 -2.8036 -0.9145 -1.1662
  258MOL0     H35554   6.356   2.904   9.775 -1.9328  0.8682  0.0589
  258MOL0     H35555   6.303   2.756   9.689  1.7347  1.0250 -0.3797
  258MOL0     H35556   6.515   2.751   9.812 -0.3203  0.2112 -0.5773
  258MOL0     H35557   6.416   2.752   9.968  0.1845  0.3147  0.3260
  258MOL0     H35558   6.308   2.554   9.886 -0.0593 -0.4670 -0.3647
  258MOL0     H35559   6.406   2.543   9.742  0.4788  0.1087 -0.2317
  258MOL0     H35560   6.510   2.560  10.026 -2.2599  1.5054 -0.0153
  258MOL0     H35561   6.502   2.403   9.934  0.5706  1.2201  0.8509
  258MOL0     H35562   6.643   2.388  10.097  0.5820  0.4447  1.2894
  258MOL0     H35563   6.908   2.266  10.337 -2.7614  0.0960  3.7551
  258MOL0     H35564   6.775   2.181  10.268 -0.4412  0.2009  0.2830
  258MOL0     H35565   6.764   2.355  10.300 -2.5733 -2.5535 -1.8449
  258MOL0     H35566   7.334   2.026   9.919 -0.5026  0.9955 -0.1803
  258MOL0     H35567   7.569   1.941  10.009  0.6786  0.7082  0.4559
  258MOL0     H35568   7.725   1.877  10.139  2.0351 -0.7382  0.3127
  258MOL0     H35569   7.833   1.983  10.053 -1.2780  1.2543 -0.9752
  258MOL0     H35570   7.879   1.938  10.341 -1.5619  4.3262 -0.5004
  258MOL0     H35571   7.980   1.858  10.209 -1.8719 -1.6764  2.7154
  258MOL0     H35572   7.966   2.137  10.327 -3.0129 -0.7489 -0.7387
  258MOL0     H35573   7.980   2.145  10.160 -0.8974  0.3879  0.8652
  258MOL0     H35574   8.170   1.991  10.330  1.8753  1.2573  0.2150
  258MOL0     H35575   8.180   2.164  10.281  0.0357  0.7723 -0.7665
  258MOL0     H35576   8.200   1.897  10.115 -0.1279 -1.0689 -0.2728
  258MOL0     H35577   8.165   2.058  10.042  0.8182  1.8338  0.3521
  258MOL0     H35578   8.429   1.988  10.168 -1.2240 -2.0282 -0.2064
  258MOL0     H35579   8.383   2.153  10.129 -0.7726  1.2621 -1.0454
  258MOL0     H35580   8.359   2.120   9.906  2.1416  2.7322  3.4179
  258MOL0     H35581   8.380   1.936   9.921  1.3525  0.0713  0.0327
  258MOL0     H35582   8.595   2.121  10.022 -0.5652 -0.3752 -0.4224
  258MOL0     H35583   8.571   2.076   9.856 -1.2331 -4.9755 -1.5677
  258MOL0     H35584   7.562   2.256  10.294  1.5775  0.1973 -2.2060
  258MOL0     H35585   7.319   2.306  10.232  0.7148 -1.0581  2.9718
  258MOL0     H35586   7.066   2.320   9.867 -0.7066 -1.4837  0.8012
  258MOL0     H35587   6.887   2.457   9.765  2.7375  0.2266  0.1965
  258MOL0     H35588   5.027   2.356   9.563  1.2730  1.2669 -0.9612
  258MOL0     H35589   4.795   2.463   9.522 -0.0166  1.3710 -0.5030
  258MOL0     H35590   4.455   2.701   9.629 -2.1206  0.9725  2.2981
  258MOL0     H35591   4.246   2.841   9.616 -0.1462  0.4276  0.8421
  258MOL0     H35592   4.051   2.921   9.560  1.1385 -0.0573 -0.2874
  258MOL0     H35593   3.990   3.044   9.461 -2.8515 -2.4159  0.2081
  258MOL0     H35594   3.980   2.816   9.364  1.1898 -0.1243  0.7960
  258MOL0     H35595   4.149   2.790   9.389 -2.2064 -2.7685  0.5573
  258MOL0     H35596   4.028   2.978   9.176  1.7914  1.0987  0.1868
  258MOL0     H35597   4.195   2.982   9.226 -0.3392  1.4318  0.4259
  258MOL0     H35598   4.237   2.747   9.149  3.3933  3.9798  0.7978
  258MOL0     H35599   4.169   2.843   9.023 -0.2911 -1.3924 -1.0405
  258MOL0     H35600   3.831   2.593   9.081  1.5068 -4.6759  0.7690
  258MOL0     H35601   4.416   3.099   9.338 -1.5280 -1.9458 -2.0651
  258MOL0     H35602   4.669   2.957   9.223 -0.4920 -0.3633 -0.0973
  258MOL0     H35603   4.647   3.096   9.321  0.2365 -0.5396  0.8616
  258MOL0     H35604   4.762   2.970   9.377  0.5054 -2.0573 -0.9056
  259MOL0     O35605   4.731   9.416   0.455  0.4898 -0.1513  0.2757
  259MOL0     C35606   4.700   9.344   0.361 -0.3885 -0.2471  0.1047
  259MOL0     O35607   4.776   9.246   0.309 -0.5167 -0.6684  0.5174
  259MOL0     C35608   4.884   9.197   0.384 -0.3680 -0.1751  0.2291
  259MOL0     C35609   4.884   9.056   0.411  0.3953 -0.2719 -0.5227
  259MOL0     C35610   4.994   9.007   0.483  0.8889 -0.3326 -0.5156
  259MOL0     C35611   5.103   9.095   0.510 -0.5699  0.2290  0.1577
  259MOL0     O35612   5.216   9.043   0.574 -0.4674  0.1742 -0.4895
  259MOL0     C35613   5.291   8.964   0.486 -0.5697  0.0904  0.8389
  259MOL0     C35614   5.424   8.940   0.550  0.5025 -0.2457 -0.1620
  259MOL0     C35615   5.529   8.957   0.449  0.7605  1.2294  0.2810
  259MOL0     C35616   5.656   8.898   0.496 -0.0937 -0.3803 -0.0787
  259MOL0     C35617   5.757   8.897   0.383 -0.1999 -0.0392 -0.1605
  259MOL0     C35618   5.898   8.906   0.445  0.7053  0.3200  0.2702
  259MOL0     C35619   6.014   8.871   0.355 -0.0544 -0.5125 -0.1200
  259MOL0     C35620   6.141   8.872   0.428 -1.2601  0.2706 -0.3411
  259MOL0     N35621   6.249   8.840   0.333 -0.4309  0.5189 -0.4102
  259MOL0     C35622   6.274   8.720   0.270  0.7988 -0.4182 -0.3651
  259MOL0     C35623   6.371   8.744   0.182  0.7100  0.0666 -0.0861
  259MOL0     C35624   6.441   8.651   0.089  0.4658  0.7111  0.3364
  259MOL0     C35625   6.435   8.691  -0.059 -0.3927 -0.1780  1.0277
  259MOL0     C35626   6.295   8.734  -0.105 -0.0042  0.2727  0.0007
  259MOL0     C35627   6.273   8.749  -0.261 -0.2440  0.9711 -0.0483
  259MOL0     O35628   6.320   8.878  -0.311 -0.1847 -0.1752 -0.3111
  259MOL0     C35629   6.332   8.892  -0.446 -0.1752  0.1978 -0.4166
  259MOL0     C35630   6.401   9.005  -0.484  0.1036  0.1709  0.6273
  259MOL0     C35631   6.425   9.043  -0.616 -0.1775  0.2683 -0.3190
  259MOL0     C35632   6.467   9.186  -0.640 -0.0070  0.2526 -0.4013
  259MOL0     C35633   6.395   8.946  -0.717  0.5585 -0.4252 -0.0106
  259MOL0     C35634   6.426   8.966  -0.856 -0.6863  0.2958  1.2154
  259MOL0     O35635   6.527   9.055  -0.884 -0.4204  0.8544  0.5853
  259MOL0     C35636   6.529   9.092  -1.020 -0.1178 -0.0750 -0.8008
  259MOL0     C35637   6.629   9.051  -1.096 -0.3997  0.5655 -0.6187
  259MOL0     C35638   6.620   9.069  -1.234  0.5905  0.3689  1.0194
  259MOL0     C35639   6.512   9.135  -1.292  0.2709  0.2883 -0.0202
  259MOL0     O35640   6.499   9.171  -1.425 -0.9132 -0.5818  0.4150
  259MOL0     C35641   6.521   9.066  -1.514 -0.2073 -0.0667  0.7899
  259MOL0     C35642   6.445   9.109  -1.641  0.3830 -0.3633 -0.4687
  259MOL0     C35643   6.325   9.020  -1.659  0.6560  0.6296  0.7330
  259MOL0     C35644   6.212   9.064  -1.573  0.6607  0.5799 -0.3408
  259MOL0     C35645   6.089   8.974  -1.602  0.6245 -0.3422  1.2250
  259MOL0     C35646   5.992   8.982  -1.486 -0.2410 -0.0819 -0.2366
  259MOL0     C35647   5.864   8.909  -1.520 -0.4617  0.1757  0.4508
  259MOL0     C35648   5.778   8.915  -1.401  0.2401 -0.7392  0.7540
  259MOL0    Cl35649   5.613   8.849  -1.434 -0.6223 -0.1478 -0.4035
  259MOL0     C35650   6.410   9.192  -1.212 -0.6784  0.1570 -0.4000
  259MOL0     C35651   6.411   9.156  -1.077 -0.9117 -0.3672 -0.5012
  259MOL0     O35652   6.338   8.917  -0.933  0.1083 -0.4221 -0.3944
  259MOL0     C35653   6.314   8.829  -0.677 -0.3817 -0.1259  0.4565
  259MOL0     C35654   6.279   8.806  -0.552  0.1343  0.3595  0.4838
  259MOL0     N35655   6.399   8.882   0.180 -0.4212  0.1875 -0.4572
  259MOL0     N35656   6.318   8.931   0.268  0.3584  0.2234  0.3896
  259MOL0     C35657   5.100   9.225   0.475 -0.1162  0.3354 -0.4130
  259MOL0     C35658   4.992   9.285   0.412  0.5412  0.3188 -0.5175
  259MOL0     C35659   4.571   9.371   0.303 -0.2614  0.2072  1.3459
  259MOL0     C35660   4.531   9.501   0.275  0.1018 -0.8901 -0.7386
  259MOL0     C35661   4.402   9.532   0.225  0.1046  0.1751  0.9489
  259MOL0     C35662   4.314   9.428   0.199 -0.3868 -0.0602  0.3233
  259MOL0     O35663   4.198   9.454   0.130  0.1641 -0.4664 -0.4345
  259MOL0     C35664   4.089   9.491   0.220  0.2419 -0.2362  0.3859
  259MOL0     C35665   3.967   9.502   0.126 -0.3225 -0.1454  0.9752
  259MOL0     C35666   3.849   9.541   0.207  0.0251  0.2079  0.1664
  259MOL0     C35667   3.733   9.568   0.125  0.7360 -0.1472 -0.3225
  259MOL0     C35668   3.618   9.607   0.216 -0.3894 -0.0364  0.4059
  259MOL0     C35669   3.520   9.634   0.278 -0.8735 -0.1033 -0.1180
  259MOL0     C35670   4.347   9.296   0.232 -0.0094  0.1997 -0.1237
  259MOL0     C35671   4.470   9.265   0.285  0.1569  0.4370 -0.4349
  259MOL0     C35672   4.490   9.124   0.332 -0.1077  0.3729 -0.5930
  259MOL0     H35673   4.797   9.001   0.378  0.7755 -0.3056 -1.4886
  259MOL0     H35674   4.986   8.904   0.516 -0.2111  0.2918  1.3602
  259MOL0     H35675   5.305   9.031   0.402 -0.1259  2.3862  2.6314
  259MOL0     H35676   5.245   8.868   0.460 -0.1621  0.4714 -1.4346
  259MOL0     H35677   5.448   9.010   0.631  2.1181  1.6599 -2.1888
  259MOL0     H35678   5.421   8.838   0.590  0.8281 -0.8060 -1.5210
  259MOL0     H35679   5.491   8.899   0.365 -2.3462  1.3303  1.4948
  259MOL0     H35680   5.536   9.063   0.423 -1.2548  0.9579 -1.6797
  259MOL0     H35681   5.699   8.949   0.582 -0.1784  0.3078 -0.4376
  259MOL0     H35682   5.642   8.798   0.537 -0.8019 -1.2808 -2.3513
  259MOL0     H35683   5.739   8.989   0.327 -2.1136 -0.0747  0.3417
  259MOL0     H35684   5.748   8.811   0.316  0.6613 -0.2549 -0.0160
  259MOL0     H35685   5.916   9.004   0.489  0.2987  0.8163 -0.6497
  259MOL0     H35686   5.890   8.835   0.528 -1.8142 -2.0076 -1.7521
  259MOL0     H35687   6.030   8.920   0.259  1.9296 -2.3533 -0.7831
  259MOL0     H35688   6.002   8.764   0.336  1.6306 -0.8195  0.4529
  259MOL0     H35689   6.156   8.974   0.465 -1.6766  0.8341 -1.6285
  259MOL0     H35690   6.144   8.803   0.512  5.0765  1.2407  0.7500
  259MOL0     H35691   6.229   8.622   0.280 -0.9712  0.3868 -0.0606
  259MOL0     H35692   6.401   8.551   0.109 -0.6804  1.1963  0.5657
  259MOL0     H35693   6.547   8.663   0.114  0.5869  1.2726 -0.4112
  259MOL0     H35694   6.503   8.776  -0.068 -0.5926 -0.0858  0.3253
  259MOL0     H35695   6.472   8.609  -0.120 -1.7853 -0.1360  0.0809
  259MOL0     H35696   6.229   8.651  -0.076  0.7366 -0.6494 -0.8662
  259MOL0     H35697   6.267   8.825  -0.051  2.5536  1.7833 -1.0592
  259MOL0     H35698   6.335   8.678  -0.316  0.7303 -1.1610  3.5043
  259MOL0     H35699   6.167   8.734  -0.282 -0.0696  0.1258 -0.3710
  259MOL0     H35700   6.431   9.068  -0.400  2.6884 -1.0716  0.7191
  259MOL0     H35701   6.467   9.242  -0.547  0.2265 -0.3431 -0.0407
  259MOL0     H35702   6.399   9.247  -0.701  1.0192  3.3089  1.3543
  259MOL0     H35703   6.565   9.194  -0.687  0.7945  0.2926  1.2450
  259MOL0     H35704   6.708   9.003  -1.039  0.2354  0.6367 -1.4040
  259MOL0     H35705   6.712   9.034  -1.281  0.9937  1.5441  0.9175
  259MOL0     H35706   6.626   9.062  -1.545 -0.9802 -1.6460 -1.9832
  259MOL0     H35707   6.492   8.966  -1.480  0.1393 -0.3079  0.3760
  259MOL0     H35708   6.417   9.215  -1.643  0.0983 -0.3644  1.7283
  259MOL0     H35709   6.507   9.097  -1.730  0.1285  0.2623 -0.7350
  259MOL0     H35710   6.353   8.917  -1.638 -0.7031  0.3955  1.4467
  259MOL0     H35711   6.303   9.030  -1.765  1.1178  1.9182  0.7334
  259MOL0     H35712   6.190   9.171  -1.576  1.4527  0.7286 -2.5635
  259MOL0     H35713   6.251   9.048  -1.472 -0.1782 -0.9388 -0.2273
  259MOL0     H35714   6.047   9.002  -1.699  2.8673  0.6699  0.4748
  259MOL0     H35715   6.104   8.865  -1.607  0.2259 -0.3873 -3.2579
  259MOL0     H35716   5.981   9.090  -1.469  2.0940  0.4830 -1.7402
  259MOL0     H35717   6.029   8.936  -1.394 -0.2304  0.0124 -0.1938
  259MOL0     H35718   5.875   8.802  -1.539 -2.0185 -0.0026  0.4079
  259MOL0     H35719   5.814   8.949  -1.608  2.4649 -0.4523 -1.6283
  259MOL0     H35720   5.767   9.017  -1.364  1.8690 -0.5830  0.8969
  259MOL0     H35721   5.830   8.854  -1.327 -0.5725 -0.8777  1.2180
  259MOL0     H35722   6.339   9.259  -1.259 -0.0724  1.0071 -0.1207
  259MOL0     H35723   6.340   9.186  -1.001  1.3029  2.2322  0.7132
  259MOL0     H35724   6.284   8.757  -0.752  1.0084  0.8348 -1.1136
  259MOL0     H35725   6.223   8.714  -0.537  1.5199 -0.6794 -0.4144
  259MOL0     H35726   5.173   9.302   0.497 -1.1724  1.5413 -0.9342
  259MOL0     H35727   4.990   9.390   0.386  1.1007  0.7753  1.1601
  259MOL0     H35728   4.588   9.589   0.301 -2.7441  0.4222  1.6296
  259MOL0     H35729   4.374   9.634   0.201  0.1569  1.4281  5.3713
  259MOL0     H35730   4.065   9.413   0.293 -1.8023  1.3181  1.4918
  259MOL0     H35731   4.111   9.580   0.280  2.5659 -1.0181  0.7870
  259MOL0     H35732   3.955   9.403   0.079 -3.7271  0.8660 -0.6071
  259MOL0     H35733   3.991   9.563   0.038  1.2629 -3.4519 -1.1062
  259MOL0     H35734   3.832   9.468   0.288 -1.7295  2.0822  1.5788
  259MOL0     H35735   3.871   9.634   0.260  1.3309 -0.1976  0.3807
  259MOL0     H35736   3.698   9.484   0.063 -0.0712 -0.6339  0.7661
  259MOL0     H35737   3.751   9.654   0.059  0.9760 -0.9907 -1.3797
  259MOL0     H35738   3.437   9.668   0.338  0.8299  1.9649  1.2183
  259MOL0     H35739   4.280   9.212   0.217  3.8534 -2.8130 -2.4383
  259MOL0     H35740   4.452   9.110   0.433  2.7468 -0.4747  0.4578
  259MOL0     H35741   4.438   9.052   0.267  1.1090 -1.6869  0.6245
  259MOL0     H35742   4.593   9.087   0.332  0.4632  1.6949  2.5532
  260MOL0     O35743   7.234  11.174   6.245 -0.0929 -0.7640 -0.8224
  260MOL0     C35744   7.206  11.058   6.229 -0.1596  0.5558 -0.7465
  260MOL0     O35745   7.280  10.954   6.276  1.1548  0.1885  0.4737
  260MOL0     C35746   7.407  10.974   6.321 -0.5393 -0.5559  0.2556
  260MOL0     C35747   7.508  10.912   6.250 -0.0168  0.5564  0.2587
  260MOL0     C35748   7.642  10.922   6.296 -0.1840  0.2906 -0.7140
  260MOL0     C35749   7.676  11.014   6.400 -0.1109 -0.0347  1.2078
  260MOL0     O35750   7.814  11.038   6.402  0.4712  0.0746 -0.0218
  260MOL0     C35751   7.842  11.126   6.512  0.2338  1.0725  0.3177
  260MOL0     C35752   7.988  11.158   6.519  0.3769 -0.2221 -0.2494
  260MOL0     C35753   8.024  11.248   6.636 -0.6115 -0.3788 -0.4509
  260MOL0     C35754   7.973  11.384   6.617  0.1863  0.1417 -0.1877
  260MOL0     C35755   8.066  11.481   6.698  0.9391  0.3694 -0.3813
  260MOL0     C35756   7.983  11.607   6.713  0.0507 -0.5640 -0.1339
  260MOL0     C35757   8.036  11.705   6.813  0.4970  0.1504 -0.1190
  260MOL0     C35758   7.941  11.823   6.851  0.2397  0.3179 -0.4692
  260MOL0     N35759   7.813  11.789   6.912 -0.4611  0.6513  0.3007
  260MOL0     C35760   7.718  11.732   6.833 -0.3531 -0.7522 -1.0732
  260MOL0     C35761   7.610  11.716   6.908  0.1859  0.2791 -0.1871
  260MOL0     C35762   7.472  11.703   6.851 -0.3625 -0.1697  0.1434
  260MOL0     C35763   7.432  11.818   6.762  0.9268  0.1646  0.5246
  260MOL0     C35764   7.289  11.799   6.689 -0.0625 -0.2922 -0.3339
  260MOL0     C35765   7.194  11.739   6.793 -0.0857 -0.8627  0.5014
  260MOL0     O35766   7.185  11.833   6.901  0.4244 -0.0720 -0.3817
  260MOL0     C35767   7.066  11.832   6.953  0.3513 -1.1317  0.3567
  260MOL0     C35768   6.961  11.905   6.886 -0.0719  0.0236 -0.4344
  260MOL0     C35769   6.830  11.899   6.943  1.2284  1.3710 -0.3002
  260MOL0     C35770   6.723  11.991   6.888  0.2267 -0.6858  0.7543
  260MOL0     C35771   6.808  11.813   7.050  0.0128  0.5850 -0.2275
  260MOL0     C35772   6.673  11.767   7.089  0.1712 -1.3000  0.2950
  260MOL0     O35773   6.558  11.759   7.015 -0.2643  0.4375 -0.8400
  260MOL0     C35774   6.438  11.715   7.072 -0.7503  0.5106 -0.1004
  260MOL0     C35775   6.420  11.587   7.122  0.2895 -0.4814  0.2201
  260MOL0     C35776   6.294  11.560   7.182  0.8441 -0.1746  0.5341
  260MOL0     C35777   6.192  11.652   7.191 -0.2783  0.1728 -0.5212
  260MOL0     O35778   6.071  11.625   7.241 -0.2577 -0.3478  0.7232
  260MOL0     C35779   6.023  11.490   7.249  0.2908 -0.0573  0.0838
  260MOL0     C35780   5.874  11.469   7.284 -0.3598  0.3899  0.5357
  260MOL0     C35781   5.839  11.308   7.308 -0.1247 -0.3308  0.4899
  260MOL0     C35782   5.709  11.283   7.369  0.0968  0.6347  0.5464
  260MOL0     C35783   5.585  11.330   7.296 -0.1274 -0.5015  0.8165
  260MOL0     C35784   5.473  11.310   7.389 -0.2506  0.7310 -0.6172
  260MOL0     C35785   5.339  11.292   7.325 -0.4598 -0.1527  0.1399
  260MOL0     C35786   5.275  11.428   7.297 -0.5888 -0.2152 -0.0614
  260MOL0    Cl35787   5.098  11.427   7.241  0.4046  0.4539 -0.3158
  260MOL0     C35788   6.216  11.775   7.144 -0.5934 -0.5426  0.2538
  260MOL0     C35789   6.334  11.809   7.079  0.4205  0.5992 -0.2914
  260MOL0     O35790   6.678  11.749   7.212  0.4631  0.1855 -0.1852
  260MOL0     C35791   6.920  11.750   7.102  0.4918  0.8974 -0.0316
  260MOL0     C35792   7.049  11.762   7.064  0.8536  0.4954  0.7911
  260MOL0     N35793   7.645  11.742   7.041 -0.5240 -0.6499  0.6659
  260MOL0     N35794   7.772  11.780   7.042  1.5582  0.2265  0.8474
  260MOL0     C35795   7.568  11.081   6.470  0.1392  0.3441  0.0352
  260MOL0     C35796   7.434  11.059   6.429 -0.4376  0.4633 -1.0165
  260MOL0     C35797   7.074  11.024   6.176  0.1932  0.5284  0.4237
  260MOL0     C35798   7.063  10.901   6.100 -0.7004 -0.7233 -0.0109
  260MOL0     C35799   6.948  10.876   6.029 -0.4078 -0.4077 -0.2379
  260MOL0     C35800   6.838  10.957   6.037 -1.7621  0.1736  0.5608
  260MOL0     O35801   6.731  10.918   5.956 -0.2499  1.2448  0.7965
  260MOL0     C35802   6.605  10.989   5.995 -0.0409 -0.6585  0.0941
  260MOL0     C35803   6.494  10.891   5.959 -0.6572  0.9877 -0.1135
  260MOL0     C35804   6.351  10.947   5.969  0.2361  0.2483 -0.3912
  260MOL0     C35805   6.321  10.995   6.113  0.3507 -0.0603 -0.2448
  260MOL0     C35806   6.356  10.898   6.214  0.2468 -0.8740 -0.1557
  260MOL0     C35807   6.386  10.810   6.297  0.2994 -0.6688  0.5204
  260MOL0     C35808   6.852  11.075   6.106 -0.4959  0.4583 -0.1340
  260MOL0     C35809   6.967  11.111   6.184  0.6280  0.0348  0.5510
  260MOL0     C35810   6.965  11.238   6.259  0.2116  0.0124  0.3202
  260MOL0     H35811   7.490  10.856   6.158 -0.0997 -1.1294  1.2561
  260MOL0     H35812   7.734  10.881   6.255  0.3712  1.9387 -1.2102
  260MOL0     H35813   7.805  11.079   6.604  3.1567  3.0178  2.6702
  260MOL0     H35814   7.786  11.218   6.497  0.0751  1.1961  1.5272
  260MOL0     H35815   8.042  11.065   6.537  3.0466  0.8673 -1.8541
  260MOL0     H35816   8.026  11.211   6.431  0.4856 -0.0847 -0.1213
  260MOL0     H35817   7.985  11.205   6.729  0.3631 -1.5721 -0.5780
  260MOL0     H35818   8.132  11.251   6.652 -0.3357 -0.6456 -2.1003
  260MOL0     H35819   7.976  11.422   6.515  0.0603 -0.5769 -0.4686
  260MOL0     H35820   7.869  11.385   6.652 -0.2897  3.4365 -1.3061
  260MOL0     H35821   8.148  11.515   6.635 -1.3334  1.8125 -2.7155
  260MOL0     H35822   8.104  11.447   6.795  0.1711  3.0342  0.9461
  260MOL0     H35823   7.965  11.656   6.617  0.0505  2.4396  1.2812
  260MOL0     H35824   7.889  11.567   6.752  0.8764 -0.0832  2.5545
  260MOL0     H35825   8.127  11.747   6.769  2.9525 -3.1558  1.3323
  260MOL0     H35826   8.068  11.647   6.900 -3.8002  0.7862  2.1902
  260MOL0     H35827   7.993  11.895   6.915  0.2635 -0.4979  0.4424
  260MOL0     H35828   7.917  11.876   6.758 -2.4766 -0.5582 -0.3553
  260MOL0     H35829   7.723  11.714   6.726  0.3517 -1.9672 -0.8579
  260MOL0     H35830   7.407  11.695   6.939  3.6290 -3.0658  3.1923
  260MOL0     H35831   7.463  11.608   6.797 -1.1753  0.3904 -0.7526
  260MOL0     H35832   7.422  11.909   6.823  2.8569 -0.1641  1.3776
  260MOL0     H35833   7.508  11.844   6.688  0.0558 -2.8572 -1.5911
  260MOL0     H35834   7.245  11.889   6.644 -1.9003 -1.1863 -0.4103
  260MOL0     H35835   7.304  11.725   6.610 -0.0474 -1.7091  0.9416
  260MOL0     H35836   7.095  11.719   6.751 -0.7917  0.9560  1.2143
  260MOL0     H35837   7.218  11.640   6.832 -1.3147 -0.9794  1.0156
  260MOL0     H35838   6.986  11.965   6.799  0.3130  2.4241  1.2228
  260MOL0     H35839   6.665  12.028   6.974 -3.2533  2.1493 -2.4445
  260MOL0     H35840   6.662  11.954   6.806  4.6993  1.4191 -4.0735
  260MOL0     H35841   6.762  12.087   6.852 -0.9436 -0.3599  0.2776
  260MOL0     H35842   6.494  11.508   7.120  0.8449 -0.0153  1.4666
  260MOL0     H35843   6.272  11.460   7.220 -2.6811  0.3815  0.3006
  260MOL0     H35844   6.040  11.444   7.151  2.5038  1.6857 -0.4465
  260MOL0     H35845   6.081  11.431   7.320  0.6162  0.3833  0.1933
  260MOL0     H35846   5.858  11.523   7.378 -0.4911  0.9289  0.2099
  260MOL0     H35847   5.818  11.521   7.206  3.7307  1.1066 -2.2206
  260MOL0     H35848   5.912  11.270   7.379 -0.8087 -0.6003  1.0610
  260MOL0     H35849   5.857  11.253   7.215  0.6010  0.7518 -0.0300
  260MOL0     H35850   5.704  11.319   7.472 -1.5514  2.7399 -0.1992
  260MOL0     H35851   5.704  11.175   7.388  0.8497  0.3904 -0.5453
  260MOL0     H35852   5.584  11.432   7.257 -0.2939 -1.2087 -1.1257
  260MOL0     H35853   5.589  11.276   7.200  0.8370  0.1114  0.5020
  260MOL0     H35854   5.484  11.387   7.466  3.3780  0.7352 -0.9372
  260MOL0     H35855   5.483  11.214   7.439  0.7681  0.9924 -0.2868
  260MOL0     H35856   5.263  11.236   7.379 -0.4759 -1.4666 -1.1630
  260MOL0     H35857   5.360  11.246   7.228 -2.2002  2.9055 -1.8589
  260MOL0     H35858   5.345  11.468   7.223 -1.1171  0.7503 -0.0553
  260MOL0     H35859   5.278  11.484   7.391 -1.6080 -2.7956  1.6167
  260MOL0     H35860   6.131  11.843   7.144  0.2117  0.5509 -1.5286
  260MOL0     H35861   6.342  11.906   7.032  0.2749  0.4978 -0.5298
  260MOL0     H35862   6.899  11.683   7.186 -3.6904  1.3158 -0.5329
  260MOL0     H35863   7.140  11.723   7.107  1.4279 -0.5435 -1.2587
  260MOL0     H35864   7.575  11.152   6.552 -2.2431  1.3928 -0.5668
  260MOL0     H35865   7.347  11.098   6.480 -0.9386 -1.0629 -0.6339
  260MOL0     H35866   7.141  10.825   6.092 -1.5741 -1.6221 -0.1025
  260MOL0     H35867   6.936  10.786   5.969 -0.4454 -1.0427  0.7079
  260MOL0     H35868   6.598  11.016   6.101  1.5404  0.1068  0.0238
  260MOL0     H35869   6.594  11.070   5.923 -0.9567 -1.0654 -0.2392
  260MOL0     H35870   6.499  10.796   6.012 -0.4267  0.5071 -0.9753
  260MOL0     H35871   6.510  10.865   5.854 -0.6083  0.6666 -0.0280
  260MOL0     H35872   6.355  11.025   5.893  2.1819  0.4771 -0.1200
  260MOL0     H35873   6.293  10.861   5.934  3.2072 -3.2547  2.3233
  260MOL0     H35874   6.214  11.012   6.120  0.1174 -1.6563  0.6331
  260MOL0     H35875   6.371  11.087   6.142  2.0455 -0.9457 -0.2141
  260MOL0     H35876   6.413  10.743   6.376  1.6630  0.5120  1.1012
  260MOL0     H35877   6.761  11.134   6.108 -3.4082 -3.5822 -0.4213
  260MOL0     H35878   7.022  11.229   6.352 -0.8779  0.0607  1.0089
  260MOL0     H35879   7.003  11.318   6.195  1.0666 -0.9615 -0.4240
  260MOL0     H35880   6.865  11.261   6.298  1.3210  0.1729  3.3208
  261MOL0     O35881   8.849   3.031   1.889  0.0171 -0.2698 -0.3012
  261MOL0     C35882   8.783   3.087   1.974  0.0726  0.0444  0.0953
  261MOL0     O35883   8.832   3.169   2.067 -0.3607 -0.2017 -0.6258
  261MOL0     C35884   8.943   3.246   2.064  0.1274 -0.6858  0.4360
  261MOL0     C35885   8.978   3.311   2.186  0.6063  0.3427 -0.6712
  261MOL0     C35886   9.097   3.388   2.197  0.1990 -0.5872  0.5388
  261MOL0     C35887   9.185   3.408   2.089 -0.8930  0.5702 -0.2137
  261MOL0     O35888   9.303   3.482   2.107  0.0144  0.9428 -0.0303
  261MOL0     C35889   9.395   3.486   2.002  0.5170  0.6737  0.4680
  261MOL0     C35890   9.506   3.578   2.050  0.3250  0.5480  0.9361
  261MOL0     C35891   9.612   3.504   2.131 -0.7983  0.7734  1.0551
  261MOL0     C35892   9.760   3.544   2.112  0.9594  0.2891  1.4341
  261MOL0     C35893   9.772   3.690   2.152  0.0990 -0.7207  0.1820
  261MOL0     C35894   9.730   3.725   2.293 -0.8194  0.1912 -0.3020
  261MOL0     C35895   9.779   3.639   2.416  0.6805 -0.6651 -0.1490
  261MOL0     C35896   9.754   3.706   2.556 -0.6831 -0.7294  0.6328
  261MOL0     N35897   9.609   3.726   2.583 -0.1580 -0.2219  0.1641
  261MOL0     C35898   9.526   3.620   2.568  0.5281  0.0476  0.7416
  261MOL0     C35899   9.412   3.665   2.620 -0.0057 -0.7577  0.7195
  261MOL0     C35900   9.287   3.593   2.636 -1.0682 -0.3272  0.1838
  261MOL0     C35901   9.182   3.624   2.525  0.9949 -0.2810 -0.1396
  261MOL0     C35902   9.114   3.766   2.552  0.1118 -1.1822  0.2360
  261MOL0     C35903   8.997   3.787   2.469  0.0835  0.4859  0.9990
  261MOL0     O35904   9.005   3.738   2.335  0.1250  0.2195 -0.4881
  261MOL0     C35905   9.043   3.813   2.230  1.0084  0.4332  0.1036
  261MOL0     C35906   9.052   3.751   2.106  0.1475  0.5638  0.8914
  261MOL0     C35907   9.106   3.802   1.987  0.4502 -0.5793 -0.2169
  261MOL0     C35908   9.098   3.725   1.857  0.8672  0.9601  0.0496
  261MOL0     C35909   9.137   3.936   1.990  0.0324  0.4141 -0.1569
  261MOL0     C35910   9.167   4.019   1.870  0.0699  0.2779  0.4037
  261MOL0     O35911   9.149   4.154   1.882  1.1839 -0.5304 -0.9446
  261MOL0     C35912   9.190   4.235   1.778 -0.0143  1.0667 -0.0736
  261MOL0     C35913   9.102   4.259   1.674  0.3217  0.1918  0.2521
  261MOL0     C35914   9.136   4.342   1.560 -0.4462 -0.1302 -0.1899
  261MOL0     C35915   9.262   4.403   1.557 -0.0973 -0.4796  0.5613
  261MOL0     O35916   9.288   4.487   1.449 -0.4414  0.2815  0.1466
  261MOL0     C35917   9.371   4.598   1.477  0.2484 -0.5500 -0.4864
  261MOL0     C35918   9.370   4.684   1.353  0.5066 -0.2978  0.3244
  261MOL0     C35919   9.235   4.728   1.300  0.2371 -0.7594  0.1727
  261MOL0     C35920   9.220   4.856   1.211  0.5585 -1.2924  0.0520
  261MOL0     C35921   9.266   4.984   1.283 -0.2926 -0.6576  0.4000
  261MOL0     C35922   9.186   5.022   1.407 -0.2701  0.0907  0.4366
  261MOL0     C35923   9.250   5.150   1.452  0.3723  0.8964 -1.0519
  261MOL0     C35924   9.182   5.278   1.410 -0.2577 -0.2341 -1.0802
  261MOL0    Cl35925   9.004   5.280   1.439  0.3125  0.3540 -0.4390
  261MOL0     C35926   9.350   4.361   1.655 -0.5985 -0.6116  0.6137
  261MOL0     C35927   9.319   4.288   1.766  0.6941 -0.1494  0.6304
  261MOL0     O35928   9.222   3.963   1.776 -0.3665  0.3697  0.2306
  261MOL0     C35929   9.124   4.002   2.114 -0.3110 -0.1518 -0.2717
  261MOL0     C35930   9.075   3.947   2.235 -0.6685 -0.0329 -0.4845
  261MOL0     N35931   9.429   3.787   2.677 -0.1696 -0.4109  0.2558
  261MOL0     N35932   9.555   3.833   2.653 -0.2154  0.4090 -0.1643
  261MOL0     C35933   9.154   3.337   1.971 -0.4894  0.6448 -1.0357
  261MOL0     C35934   9.038   3.258   1.956  0.6316  0.1815 -0.5215
  261MOL0     C35935   8.632   3.074   1.977 -0.5144  0.2140 -0.3981
  261MOL0     C35936   8.557   3.169   2.048  0.0520  0.9538 -0.3979
  261MOL0     C35937   8.416   3.170   2.045  0.2733 -0.0584  0.1866
  261MOL0     C35938   8.341   3.067   1.991  0.3600  0.1980  0.2189
  261MOL0     O35939   8.206   3.058   1.987  0.2361 -0.3786  0.0915
  261MOL0     C35940   8.134   2.999   1.885  1.2604 -0.4693 -0.1001
  261MOL0     C35941   7.989   3.008   1.926 -0.0773 -0.2328 -0.4992
  261MOL0     C35942   7.941   2.878   1.995 -0.4470 -0.0961 -0.9622
  261MOL0     C35943   7.945   2.755   1.901 -0.4995  0.5694  0.5680
  261MOL0     C35944   7.889   2.784   1.764 -0.3281  0.3437 -1.2546
  261MOL0     C35945   7.859   2.807   1.652  0.6112  0.7790 -0.4328
  261MOL0     C35946   8.424   2.964   1.935 -0.1570  0.0168  0.4616
  261MOL0     C35947   8.557   2.965   1.923  0.3504 -0.4421  0.3429
  261MOL0     C35948   8.630   2.857   1.841 -0.0602 -0.8567 -0.4037
  261MOL0     H35949   8.920   3.299   2.278 -0.8901  0.1140 -1.6082
  261MOL0     H35950   9.106   3.448   2.287  0.6806  1.4895 -0.8447
  261MOL0     H35951   9.341   3.515   1.911  0.6381 -1.8977 -0.4838
  261MOL0     H35952   9.430   3.385   1.982 -0.6022  0.3260  0.1839
  261MOL0     H35953   9.558   3.636   1.973 -0.1305  0.4392  0.5418
  261MOL0     H35954   9.465   3.655   2.116  1.7568  0.2275  2.2484
  261MOL0     H35955   9.573   3.499   2.233 -0.6661 -1.2351  1.0412
  261MOL0     H35956   9.611   3.400   2.098 -1.4215  0.3401  2.3743
  261MOL0     H35957   9.828   3.475   2.164  3.9435 -1.5781 -4.1576
  261MOL0     H35958   9.795   3.535   2.009 -1.5861 -2.0637  0.6684
  261MOL0     H35959   9.707   3.744   2.082 -0.5249 -0.9375  0.5877
  261MOL0     H35960   9.872   3.731   2.135 -1.2391  2.3282 -1.1280
  261MOL0     H35961   9.770   3.825   2.312  1.1969 -0.4288 -1.0814
  261MOL0     H35962   9.622   3.735   2.306 -0.7382 -0.9828  1.7832
  261MOL0     H35963   9.886   3.620   2.401  1.2115  1.9957 -0.3144
  261MOL0     H35964   9.729   3.542   2.416 -2.6104  0.8185 -2.3401
  261MOL0     H35965   9.788   3.634   2.631 -1.5632 -0.9830  0.8010
  261MOL0     H35966   9.802   3.803   2.571 -3.5508  0.5418  2.4967
  261MOL0     H35967   9.551   3.522   2.529 -0.3913  0.8104 -1.9768
  261MOL0     H35968   9.248   3.606   2.738  2.1498 -5.2551  2.4177
  261MOL0     H35969   9.317   3.488   2.626 -0.1353 -0.1118  0.6568
  261MOL0     H35970   9.229   3.628   2.426 -2.2442  2.5087 -1.8006
  261MOL0     H35971   9.111   3.541   2.537  1.2453 -0.1943  2.3828
  261MOL0     H35972   9.083   3.782   2.656  1.1961  4.4284  0.0391
  261MOL0     H35973   9.190   3.842   2.531 -0.4786  0.2808  2.9316
  261MOL0     H35974   8.915   3.730   2.512 -1.9689  1.8120 -0.9344
  261MOL0     H35975   8.982   3.895   2.474 -1.1732  0.3758  0.0903
  261MOL0     H35976   9.044   3.643   2.111 -0.0766  0.4070 -1.6888
  261MOL0     H35977   9.196   3.704   1.812 -0.4814 -2.0911 -1.8158
  261MOL0     H35978   9.029   3.772   1.787 -0.8226 -0.9999  0.3223
  261MOL0     H35979   9.051   3.627   1.869 -1.3384  1.5570 -2.6273
  261MOL0     H35980   9.003   4.216   1.675  0.7300 -0.7931 -0.2962
  261MOL0     H35981   9.063   4.349   1.480 -1.2900 -0.1856  0.5642
  261MOL0     H35982   9.324   4.646   1.563 -0.4557 -0.4412 -0.9272
  261MOL0     H35983   9.474   4.572   1.505  0.7286  0.8076 -0.9167
  261MOL0     H35984   9.425   4.772   1.388 -0.6750  0.9295 -0.7823
  261MOL0     H35985   9.417   4.632   1.270 -1.7008 -1.9562  0.0037
  261MOL0     H35986   9.175   4.751   1.389 -0.1713 -1.4336  0.0786
  261MOL0     H35987   9.200   4.639   1.247  0.5770 -0.3066 -0.8542
  261MOL0     H35988   9.115   4.865   1.183  0.3161 -3.2589  0.1855
  261MOL0     H35989   9.274   4.856   1.116  0.6620  0.9850  0.0756
  261MOL0     H35990   9.366   4.974   1.325 -0.8644 -0.5427  1.8254
  261MOL0     H35991   9.272   5.066   1.210 -2.8849 -1.3071 -0.6524
  261MOL0     H35992   9.188   4.938   1.477 -0.5565 -1.3300 -1.2042
  261MOL0     H35993   9.080   5.044   1.394  0.0059  1.1080 -0.2504
  261MOL0     H35994   9.359   5.161   1.442  0.4724  1.3232  0.2341
  261MOL0     H35995   9.234   5.152   1.560 -1.3174  0.8294 -1.2862
  261MOL0     H35996   9.194   5.294   1.303 -1.7564  3.1706 -0.8818
  261MOL0     H35997   9.218   5.368   1.461 -0.7340  1.2705 -3.2683
  261MOL0     H35998   9.455   4.391   1.651 -0.5454 -0.9511 -2.3566
  261MOL0     H35999   9.393   4.276   1.845  0.6147  0.0501  0.7334
  261MOL0     H36000   9.172   4.100   2.114  1.9131 -1.1708 -0.6906
  261MOL0     H36001   9.079   3.988   2.336 -0.7539 -0.5512 -0.2675
  261MOL0     H36002   9.229   3.337   1.892  1.1592 -1.1798  0.4428
  261MOL0     H36003   9.024   3.198   1.868  0.5388 -0.5302 -0.0285
  261MOL0     H36004   8.595   3.246   2.114 -0.3901 -1.0288  2.3869
  261MOL0     H36005   8.365   3.252   2.095  0.8291  0.0217  0.6325
  261MOL0     H36006   8.162   3.060   1.798  3.0335 -0.0569  0.7030
  261MOL0     H36007   8.167   2.895   1.874 -1.5892 -1.5650  0.9006
  261MOL0     H36008   7.923   3.029   1.842  0.4373  1.2280 -0.5755
  261MOL0     H36009   7.978   3.094   1.992  3.0356 -1.2778  1.5997
  261MOL0     H36010   8.010   2.854   2.076  0.1801 -1.1834 -1.7990
  261MOL0     H36011   7.843   2.880   2.044  0.4524 -0.2294  0.9457
  261MOL0     H36012   7.871   2.685   1.942  0.8872 -0.2493  1.7830
  261MOL0     H36013   8.045   2.712   1.910 -1.1431 -0.8266  1.2860
  261MOL0     H36014   7.820   2.826   1.554  3.1212  1.5888 -1.3663
  261MOL0     H36015   8.369   2.883   1.888  0.6498 -0.4023  0.2336
  261MOL0     H36016   8.553   2.788   1.805 -0.2877 -0.1558 -1.3019
  261MOL0     H36017   8.674   2.900   1.750  2.8225  0.9657  1.6791
  261MOL0     H36018   8.703   2.810   1.907  0.1307  0.1193  0.1016
  262MOL0     O36019   5.003   9.947   7.635 -0.2084  0.3412 -0.2143
  262MOL0     C36020   4.908   9.926   7.570 -0.0919 -0.1844  0.0011
  262MOL0     O36021   4.878   9.980   7.448 -0.6159  0.6521 -0.3514
  262MOL0     C36022   4.971   9.995   7.351  0.2894 -0.0285 -1.4461
  262MOL0     C36023   4.921   9.986   7.222 -0.5584 -0.3007  0.5488
  262MOL0     C36024   5.007  10.001   7.119  0.5185  0.7512 -0.1863
  262MOL0     C36025   5.142  10.036   7.129  0.3981  0.5208  0.5620
  262MOL0     O36026   5.217  10.057   7.019  0.1817 -0.3531  0.0212
  262MOL0     C36027   5.149  10.095   6.893  0.1001  0.7506  0.4780
  262MOL0     C36028   5.250  10.132   6.790  0.4615 -0.6856  0.1571
  262MOL0     C36029   5.323  10.261   6.836  0.1162 -0.4291  0.4111
  262MOL0     C36030   5.426  10.316   6.732 -0.6094 -0.8168 -0.5614
  262MOL0     C36031   5.529  10.228   6.667  0.5492 -0.1052 -0.2943
  262MOL0     C36032   5.620  10.166   6.765  0.5468 -0.1583  0.0049
  262MOL0     C36033   5.700  10.256   6.860 -0.5713  0.0165  0.1454
  262MOL0     C36034   5.829  10.312   6.789 -0.0060 -0.4895 -0.0150
  262MOL0     N36035   5.930  10.210   6.752  0.5925  0.1810 -0.6613
  262MOL0     C36036   6.021  10.165   6.839 -0.5301 -0.5063  0.3871
  262MOL0     C36037   6.092  10.080   6.765 -1.1536  0.5726  0.2542
  262MOL0     C36038   6.217  10.021   6.813  0.8413  0.0591 -0.7032
  262MOL0     C36039   6.331  10.002   6.710 -0.8327 -0.2536  0.0363
  262MOL0     C36040   6.461   9.949   6.766 -0.3916  0.0531 -0.6050
  262MOL0     C36041   6.584   9.984   6.679 -0.0599 -0.3606 -0.5130
  262MOL0     O36042   6.618   9.880   6.590 -0.5822  0.1810  0.5039
  262MOL0     C36043   6.751   9.859   6.563 -0.2604  1.1158 -0.7205
  262MOL0     C36044   6.791   9.740   6.505 -0.1598 -0.0854 -0.5274
  262MOL0     C36045   6.927   9.710   6.465  0.5686  0.2550  0.1461
  262MOL0     C36046   6.953   9.576   6.406 -0.5346 -0.5994  0.2376
  262MOL0     C36047   7.021   9.812   6.479  0.1059 -0.3094 -1.2214
  262MOL0     C36048   7.164   9.801   6.442  1.0229  0.4629 -0.3226
  262MOL0     O36049   7.244   9.890   6.511 -0.3616  0.0128  0.6284
  262MOL0     C36050   7.377   9.907   6.485  0.2354 -0.5062  0.2272
  262MOL0     C36051   7.427   9.957   6.367  0.9396  0.4142  0.2456
  262MOL0     C36052   7.564   9.992   6.349  0.4229  0.4599  0.2453
  262MOL0     C36053   7.652   9.980   6.463  0.6154 -0.1382 -0.1443
  262MOL0     O36054   7.785  10.006   6.455 -0.9645  0.2430  0.0777
  262MOL0     C36055   7.839   9.997   6.321  0.3734  0.0026  0.0143
  262MOL0     C36056   7.980   9.947   6.337  0.2238  0.0804  0.4461
  262MOL0     C36057   8.067   9.953   6.214 -0.1210  0.3146  0.0536
  262MOL0     C36058   8.187   9.862   6.227  0.2649  0.6623 -0.4701
  262MOL0     C36059   8.269   9.916   6.341  0.3034 -0.5476 -0.2328
  262MOL0     C36060   8.394   9.829   6.341  0.0949  0.5382 -0.2978
  262MOL0     C36061   8.484   9.827   6.464 -0.0363  0.0249  0.1756
  262MOL0     C36062   8.557   9.704   6.481 -0.8002  0.0346  0.4448
  262MOL0    Cl36063   8.673   9.688   6.348 -0.0461  0.4212  0.2578
  262MOL0     C36064   7.599   9.930   6.585 -0.0341  1.0641 -0.8122
  262MOL0     C36065   7.460   9.894   6.594 -0.0440  0.1333  0.0547
  262MOL0     O36066   7.201   9.733   6.350  0.5851  0.3197  0.3203
  262MOL0     C36067   6.987   9.923   6.541  0.2709 -0.7227 -0.5415
  262MOL0     C36068   6.850   9.954   6.586 -0.5319 -0.7298  0.4389
  262MOL0     N36069   6.042  10.072   6.639 -0.2778  0.3283  0.3422
  262MOL0     N36070   5.947  10.154   6.630 -1.4536  0.0541 -0.5281
  262MOL0     C36071   5.199  10.051   7.260 -0.5261 -0.0586  0.1319
  262MOL0     C36072   5.111  10.034   7.372  0.7936  0.2197  1.2468
  262MOL0     C36073   4.796   9.881   7.652 -0.0716 -0.4166  0.3496
  262MOL0     C36074   4.834   9.792   7.755 -0.0139 -0.7221 -0.1773
  262MOL0     C36075   4.739   9.743   7.839 -0.1028 -0.4859 -0.2834
  262MOL0     C36076   4.602   9.769   7.816 -1.1207 -1.1963 -0.6672
  262MOL0     O36077   4.502   9.712   7.884  0.4161 -1.0528  0.2255
  262MOL0     C36078   4.536   9.641   8.004  0.6444  0.1112  0.7995
  262MOL0     C36079   4.583   9.732   8.102 -0.9505 -0.3927 -0.5922
  262MOL0     C36080   4.507   9.724   8.237  0.1438  0.1588  0.6775
  262MOL0     C36081   4.533   9.850   8.332 -0.0009  0.2126 -0.7159
  262MOL0     C36082   4.424   9.885   8.433 -0.0643 -0.0013  0.5671
  262MOL0     C36083   4.352   9.905   8.529 -0.0609 -0.1426 -0.5311
  262MOL0     C36084   4.568   9.867   7.718  1.1099 -0.5687  0.0756
  262MOL0     C36085   4.663   9.918   7.637  0.2587  0.0551  0.0821
  262MOL0     C36086   4.594  10.007   7.533 -0.3712  0.5919  0.1672
  262MOL0     H36087   4.818   9.957   7.204 -0.9048  1.5977 -0.7689
  262MOL0     H36088   4.950   9.995   7.027 -2.2781  2.2610  1.3211
  262MOL0     H36089   5.070  10.170   6.904 -2.6847 -1.9347  0.3102
  262MOL0     H36090   5.112  10.000   6.855  0.1460  0.4801  1.0953
  262MOL0     H36091   5.327  10.057   6.772  2.5902  1.8265 -2.2511
  262MOL0     H36092   5.207  10.146   6.690  0.7848 -1.8718 -0.1619
  262MOL0     H36093   5.258  10.347   6.857  1.3693  0.4217  0.9305
  262MOL0     H36094   5.371  10.233   6.930  0.5528 -2.2019 -0.3014
  262MOL0     H36095   5.360  10.370   6.664 -0.3198  0.4565  0.1408
  262MOL0     H36096   5.488  10.394   6.777  0.9046 -3.8563  3.2015
  262MOL0     H36097   5.581  10.288   6.592 -1.3131  1.5266 -0.3724
  262MOL0     H36098   5.480  10.144   6.616  0.4234  0.7089 -1.5550
  262MOL0     H36099   5.559  10.100   6.828  0.7269  0.1026  0.4538
  262MOL0     H36100   5.687  10.100   6.709 -0.1608  1.3355 -2.7391
  262MOL0     H36101   5.727  10.195   6.947 -2.0187  1.4050  1.6529
  262MOL0     H36102   5.637  10.332   6.908 -0.1785  0.5983 -0.2416
  262MOL0     H36103   5.787  10.351   6.696  1.3175  0.5545 -0.2106
  262MOL0     H36104   5.873  10.392   6.849  2.3788 -2.2472  0.7392
  262MOL0     H36105   6.033  10.208   6.938 -2.6490  0.8627  0.1095
  262MOL0     H36106   6.196   9.922   6.854  0.0446  1.2296  1.9573
  262MOL0     H36107   6.252  10.086   6.894 -0.4472 -0.4912  0.3324
  262MOL0     H36108   6.305   9.944   6.621  0.7621  0.9299 -1.2734
  262MOL0     H36109   6.346  10.098   6.659 -1.6770  0.3600  0.9110
  262MOL0     H36110   6.478   9.990   6.866 -0.0304  0.8600 -0.9862
  262MOL0     H36111   6.452   9.840   6.773  0.9082 -0.0385  0.0877
  262MOL0     H36112   6.574  10.082   6.632 -0.6651  0.5447  1.4271
  262MOL0     H36113   6.664   9.998   6.752 -2.3319  1.8486  1.7565
  262MOL0     H36114   6.709   9.669   6.494 -3.1189  3.1635 -1.5427
  262MOL0     H36115   7.051   9.536   6.433  0.4013  0.9224 -0.7725
  262MOL0     H36116   6.940   9.579   6.297 -3.3283  1.6634  0.5206
  262MOL0     H36117   6.874   9.507   6.437 -0.7724 -0.8713 -0.9016
  262MOL0     H36118   7.343   9.971   6.298  1.0777  0.8076  0.1532
  262MOL0     H36119   7.590  10.037   6.254  2.3466  0.7749  0.8825
  262MOL0     H36120   7.788   9.915   6.269 -2.5494  0.3597  2.0503
  262MOL0     H36121   7.830  10.095   6.275 -1.1958 -0.0537  0.1387
  262MOL0     H36122   8.024  10.016   6.410 -0.8568  1.1269  0.1413
  262MOL0     H36123   7.976   9.844   6.373 -0.8336 -1.4001 -3.4480
  262MOL0     H36124   8.107  10.052   6.189  1.3284  0.1697  1.6577
  262MOL0     H36125   8.007   9.920   6.128  2.0356  0.4673 -1.6177
  262MOL0     H36126   8.245   9.848   6.135  0.1565  0.8212 -0.5645
  262MOL0     H36127   8.141   9.767   6.254 -0.1561  1.2194  0.8481
  262MOL0     H36128   8.304  10.018   6.325  1.0649 -0.6934  0.4213
  262MOL0     H36129   8.222   9.904   6.439 -0.6495 -0.9788 -0.7375
  262MOL0     H36130   8.440   9.857   6.245 -2.1056  1.0842 -1.2570
  262MOL0     H36131   8.362   9.726   6.327 -1.6859  0.8563  1.0261
  262MOL0     H36132   8.425   9.840   6.555 -2.5098 -2.1575 -0.9866
  262MOL0     H36133   8.560   9.906   6.457  0.4173 -0.4489 -0.3986
  262MOL0     H36134   8.498   9.612   6.480  2.0431 -1.9416  1.5874
  262MOL0     H36135   8.611   9.695   6.576 -0.1676 -1.9883 -0.0606
  262MOL0     H36136   7.661   9.914   6.673  1.5672  1.0943 -1.8924
  262MOL0     H36137   7.423   9.867   6.692  2.2129 -0.9250  0.6883
  262MOL0     H36138   7.055  10.007   6.550 -2.3971  1.5691 -0.3817
  262MOL0     H36139   6.841  10.051   6.633 -0.4008 -0.2196 -0.5489
  262MOL0     H36140   5.304  10.078   7.273 -0.2398 -0.9142 -0.3048
  262MOL0     H36141   5.152  10.048   7.472  3.4620  3.1790 -0.0545
  262MOL0     H36142   4.939   9.764   7.758  1.0682  2.8822 -0.2135
  262MOL0     H36143   4.773   9.674   7.915 -0.7345 -1.3582 -0.7744
  262MOL0     H36144   4.441   9.599   8.038  1.9180 -2.2032  1.7077
  262MOL0     H36145   4.613   9.565   7.994  0.7515  0.3290 -0.2052
  262MOL0     H36146   4.553   9.832   8.070 -0.1087 -0.5859 -2.0940
  262MOL0     H36147   4.689   9.726   8.128 -0.2526 -0.8649 -3.2767
  262MOL0     H36148   4.399   9.711   8.223  0.4931 -0.4769 -1.8782
  262MOL0     H36149   4.528   9.633   8.293  2.8380  0.5373  0.4004
  262MOL0     H36150   4.558   9.943   8.279  1.1306  0.6272  0.5069
  262MOL0     H36151   4.624   9.821   8.384  0.2504  1.3587 -0.4906
  262MOL0     H36152   4.282   9.914   8.609  2.4933  1.1750  1.6951
  262MOL0     H36153   4.462   9.876   7.693  0.7199 -1.1963  1.4177
  262MOL0     H36154   4.559  10.099   7.582  0.9598  0.9126  0.5772
  262MOL0     H36155   4.660  10.046   7.455 -1.8117  1.6444 -0.5548
  262MOL0     H36156   4.512   9.954   7.485  1.7005 -0.1349 -2.8787
  263MOL0     O36157   2.950   2.331   2.758  0.2825  0.3027 -1.3997
  263MOL0     C36158   2.891   2.254   2.684  0.0473 -1.0252  0.0660
  263MOL0     O36159   2.921   2.123   2.677  0.0378  0.7442  0.5605
  263MOL0     C36160   3.048   2.084   2.704  0.0499 -0.1642 -0.8248
  263MOL0     C36161   3.076   1.991   2.803 -0.5684 -1.3963 -0.5531
  263MOL0     C36162   3.206   1.948   2.843 -0.0966  0.0908  0.3966
  263MOL0     C36163   3.312   2.016   2.777  0.6349  0.2475 -0.2898
  263MOL0     O36164   3.441   2.000   2.821  0.0740 -0.0853 -0.1305
  263MOL0     C36165   3.453   2.037   2.953  0.6715  0.1175 -0.0102
  263MOL0     C36166   3.584   1.996   3.007 -1.1985 -0.0685 -0.1057
  263MOL0     C36167   3.601   1.855   3.055  0.5023 -0.2291  0.4055
  263MOL0     C36168   3.731   1.833   3.134  0.4398 -1.1805 -0.2012
  263MOL0     C36169   3.748   1.697   3.177 -0.2978  0.1577 -0.0510
  263MOL0     C36170   3.638   1.645   3.273  0.2114  1.2669 -0.4624
  263MOL0     C36171   3.667   1.507   3.316 -0.8087 -0.2989  0.5885
  263MOL0     C36172   3.591   1.459   3.440 -0.8229 -0.9641 -0.3506
  263MOL0     N36173   3.653   1.500   3.567 -0.2370  0.0336 -0.0502
  263MOL0     C36174   3.728   1.416   3.641 -0.3806 -0.0003  0.1984
  263MOL0     C36175   3.762   1.487   3.752  0.0114 -0.2134 -0.6019
  263MOL0     C36176   3.842   1.441   3.875 -0.6539 -0.1908  0.2350
  263MOL0     C36177   3.816   1.310   3.926 -0.4407  0.1607  0.0918
  263MOL0     C36178   3.908   1.276   4.053 -0.2255  0.1466  0.2418
  263MOL0     C36179   3.851   1.323   4.189  0.3773  0.5049  0.8333
  263MOL0     O36180   3.717   1.273   4.186  0.3349  2.0238  0.1274
  263MOL0     C36181   3.693   1.140   4.216  0.4322 -0.0273  0.3484
  263MOL0     C36182   3.554   1.109   4.205  0.0293  0.2288  0.4182
  263MOL0     C36183   3.502   0.990   4.253 -0.0901 -0.0284  0.3736
  263MOL0     C36184   3.344   0.991   4.265  1.1331  0.5074 -0.0325
  263MOL0     C36185   3.585   0.893   4.294  0.0390 -0.4415 -0.0891
  263MOL0     C36186   3.537   0.758   4.311  0.8174 -0.4888  0.5495
  263MOL0     O36187   3.406   0.733   4.253  0.3020 -0.1660 -0.2512
  263MOL0     C36188   3.341   0.619   4.281 -0.0035  0.1077 -0.3858
  263MOL0     C36189   3.201   0.623   4.310 -0.4996 -0.1233 -0.2366
  263MOL0     C36190   3.127   0.501   4.319 -0.4562 -0.2459  0.4348
  263MOL0     C36191   3.185   0.377   4.284  0.3542 -0.5067 -0.6321
  263MOL0     O36192   3.110   0.264   4.286 -0.1619 -0.0016 -0.3807
  263MOL0     C36193   3.163   0.150   4.227  0.3846 -0.6543  0.1711
  263MOL0     C36194   3.088   0.022   4.280 -0.3817 -0.7662  0.1862
  263MOL0     C36195   3.157  -0.108   4.243  0.0912 -0.0301  0.4766
  263MOL0     C36196   3.049  -0.224   4.240 -0.2746 -0.9191 -0.2082
  263MOL0     C36197   3.117  -0.361   4.215 -0.3707 -0.5240  0.6429
  263MOL0     C36198   3.010  -0.471   4.204  0.6093  0.0758 -0.8914
  263MOL0     C36199   3.080  -0.609   4.206 -0.1681 -0.0645  0.2025
  263MOL0     C36200   2.964  -0.715   4.204 -0.0055  0.3093  0.5178
  263MOL0    Cl36201   3.037  -0.876   4.232 -0.1378 -0.0678  0.4455
  263MOL0     C36202   3.328   0.381   4.266 -0.4481 -0.4964  0.1946
  263MOL0     C36203   3.403   0.501   4.258 -0.3105  0.8408 -0.6260
  263MOL0     O36204   3.604   0.686   4.383 -0.1889  0.3283  0.1202
  263MOL0     C36205   3.727   0.923   4.310  0.2246 -0.1187  0.2385
  263MOL0     C36206   3.779   1.048   4.272  0.2533  0.0126  0.9979
  263MOL0     N36207   3.729   1.622   3.731 -0.7249  0.8356 -0.0513
  263MOL0     N36208   3.658   1.621   3.625 -0.5917 -0.2439  0.0728
  263MOL0     C36209   3.289   2.102   2.671  0.4167  0.0143 -0.8298
  263MOL0     C36210   3.156   2.129   2.636  0.0993  0.0164  0.4930
  263MOL0     C36211   2.766   2.305   2.618  0.1589 -0.5976 -0.7672
  263MOL0     C36212   2.653   2.222   2.624  0.2025  0.0675 -0.0646
  263MOL0     C36213   2.527   2.262   2.576 -0.2800  0.0295  0.2661
  263MOL0     C36214   2.522   2.387   2.519  0.1119  0.4514 -0.5759
  263MOL0     O36215   2.392   2.428   2.481  0.0408 -0.0945  0.1465
  263MOL0     C36216   2.376   2.579   2.457 -0.0315  1.1001  0.4055
  263MOL0     C36217   2.226   2.611   2.480 -0.5244 -0.2272  1.0667
  263MOL0     C36218   2.139   2.543   2.377  1.1939  0.0771  0.3488
  263MOL0     C36219   1.997   2.588   2.366 -0.3112  0.4949  0.5224
  263MOL0     C36220   1.932   2.601   2.496  0.4476 -0.6155 -0.4275
  263MOL0     C36221   1.868   2.630   2.594 -0.6550 -0.1570  0.3014
  263MOL0     C36222   2.636   2.473   2.512  0.2850  0.6354  0.1771
  263MOL0     C36223   2.763   2.428   2.550 -0.6976  0.1030  0.2694
  263MOL0     C36224   2.883   2.510   2.524  0.8494 -0.9448  0.3430
  263MOL0     H36225   2.997   1.944   2.861  0.7040 -1.8520  0.8698
  263MOL0     H36226   3.231   1.868   2.913 -2.1451 -0.7780  0.1991
  263MOL0     H36227   3.372   1.999   3.015 -0.7090 -1.8730 -2.7968
  263MOL0     H36228   3.451   2.146   2.942  0.4613 -0.0855 -2.8271
  263MOL0     H36229   3.658   2.011   2.928  0.8986 -0.6483  1.6281
  263MOL0     H36230   3.603   2.064   3.090 -4.2102 -0.3550  0.9537
  263MOL0     H36231   3.521   1.839   3.129 -0.1099  0.1115 -0.1691
  263MOL0     H36232   3.584   1.797   2.964  1.8347 -0.0607  0.0292
  263MOL0     H36233   3.819   1.865   3.079 -0.9133  2.7495 -0.3690
  263MOL0     H36234   3.741   1.899   3.220 -2.7663 -2.0260  0.9866
  263MOL0     H36235   3.845   1.686   3.226  0.8865 -2.5305 -2.6516
  263MOL0     H36236   3.760   1.624   3.097 -1.6811 -0.7192  0.5050
  263MOL0     H36237   3.636   1.719   3.354  1.1080  1.2710 -0.4334
  263MOL0     H36238   3.539   1.650   3.226  0.7474  0.0315 -1.7785
  263MOL0     H36239   3.774   1.499   3.339 -0.9179 -1.5446  0.7018
  263MOL0     H36240   3.632   1.441   3.237 -0.0410 -1.5887  1.2970
  263MOL0     H36241   3.490   1.503   3.441 -0.9573 -1.2388  1.1523
  263MOL0     H36242   3.584   1.350   3.440  0.2150 -1.0640  1.2365
  263MOL0     H36243   3.736   1.308   3.628 -1.1287  0.0696 -1.0541
  263MOL0     H36244   3.854   1.520   3.949  2.1198 -0.9193  0.7111
  263MOL0     H36245   3.945   1.428   3.839  0.0364  2.4424  1.0620
  263MOL0     H36246   3.712   1.294   3.956 -0.9873  3.0558  0.0216
  263MOL0     H36247   3.845   1.241   3.846  0.1687 -0.8801  1.1687
  263MOL0     H36248   3.917   1.168   4.066 -2.2906 -0.2195 -0.9806
  263MOL0     H36249   4.007   1.319   4.034 -0.5523  0.0410 -1.9916
  263MOL0     H36250   3.920   1.286   4.266  2.6720  3.3952  0.3500
  263MOL0     H36251   3.850   1.431   4.175  0.1729  0.6122  1.6120
  263MOL0     H36252   3.486   1.183   4.163  1.5197  0.4527 -1.7937
  263MOL0     H36253   3.302   0.934   4.182  0.2464  1.7058 -0.4426
  263MOL0     H36254   3.302   1.092   4.259 -0.8724 -0.2241  1.0152
  263MOL0     H36255   3.317   0.944   4.359 -2.4957  0.7777 -0.8069
  263MOL0     H36256   3.148   0.717   4.318  0.1342  0.3737 -1.5293
  263MOL0     H36257   3.020   0.504   4.335 -0.6246 -1.2778 -0.3985
  263MOL0     H36258   3.144   0.156   4.119 -4.0065 -1.4399  0.6918
  263MOL0     H36259   3.269   0.130   4.246  0.7827  0.3423 -0.9047
  263MOL0     H36260   3.087   0.023   4.389  1.7841  3.5404  0.3656
  263MOL0     H36261   2.986   0.020   4.240  0.1253  0.7098 -1.2828
  263MOL0     H36262   3.227  -0.138   4.323  1.7976 -1.9002 -1.5790
  263MOL0     H36263   3.209  -0.109   4.147 -2.9225 -3.1325 -1.3224
  263MOL0     H36264   2.975  -0.200   4.164  1.7669 -2.4916 -2.8511
  263MOL0     H36265   3.007  -0.228   4.341 -2.3011  1.0767 -0.8884
  263MOL0     H36266   3.168  -0.348   4.119 -1.4118  0.3663  0.1728
  263MOL0     H36267   3.192  -0.385   4.290  0.9299  2.4929  0.4366
  263MOL0     H36268   2.942  -0.451   4.121 -0.3457  1.3486  0.1632
  263MOL0     H36269   2.947  -0.460   4.293  1.1845  1.6454 -0.6433
  263MOL0     H36270   3.130  -0.618   4.303 -0.3795  0.2697  0.3447
  263MOL0     H36271   3.150  -0.620   4.123  0.6281  2.6453  0.4369
  263MOL0     H36272   2.915  -0.710   4.106  0.2678  0.7810  0.3982
  263MOL0     H36273   2.891  -0.693   4.282 -1.4705  1.1991 -1.0222
  263MOL0     H36274   3.386   0.294   4.238  0.7929  0.6850 -1.0677
  263MOL0     H36275   3.502   0.493   4.215  0.5021 -0.7773  1.3772
  263MOL0     H36276   3.805   0.853   4.338  2.0109  0.1670 -3.3286
  263MOL0     H36277   3.884   1.067   4.292  0.6289 -0.4284 -0.4483
  263MOL0     H36278   3.374   2.143   2.616  0.3223 -0.5372 -1.3896
  263MOL0     H36279   3.135   2.203   2.559 -1.6970  1.4382  2.2518
  263MOL0     H36280   2.659   2.119   2.658  1.3339  0.0855 -0.1633
  263MOL0     H36281   2.435   2.206   2.589  0.0367 -0.0963  2.2030
  263MOL0     H36282   2.430   2.643   2.527 -0.2064  2.4973 -0.7100
  263MOL0     H36283   2.417   2.619   2.363  0.5972  0.2710  0.3145
  263MOL0     H36284   2.218   2.719   2.467  3.2460  0.0221 -0.5496
  263MOL0     H36285   2.196   2.592   2.583  0.2017 -0.3473  1.2641
  263MOL0     H36286   2.180   2.559   2.277  0.3467 -0.8314 -0.1618
  263MOL0     H36287   2.150   2.436   2.397  3.0330  0.3014  0.7637
  263MOL0     H36288   1.947   2.518   2.298 -2.4258 -0.0529  2.4939
  263MOL0     H36289   1.997   2.683   2.312  1.9746  0.5425  0.5358
  263MOL0     H36290   1.814   2.665   2.680  0.3442  1.0927  0.4552
  263MOL0     H36291   2.636   2.571   2.465  1.8639  0.5105 -0.1482
  263MOL0     H36292   2.982   2.465   2.530  4.0346  5.1029  0.6795
  263MOL0     H36293   2.876   2.569   2.433  0.4244 -0.2728  0.8022
  263MOL0     H36294   2.874   2.587   2.601 -2.6798 -2.2641  1.4786
  264MOL0     O36295   0.844   6.314   5.892 -0.1372  0.1074  0.6857
  264MOL0     C36296   0.877   6.211   5.830  0.3849 -0.2900 -0.3580
  264MOL0     O36297   0.790   6.121   5.770  0.4187  0.5392 -0.1056
  264MOL0     C36298   0.656   6.134   5.790 -0.2766  0.3038  0.1562
  264MOL0     C36299   0.586   6.188   5.688  0.1387 -0.3409  0.4955
  264MOL0     C36300   0.442   6.183   5.696  0.2718 -0.0288 -0.1558
  264MOL0     C36301   0.375   6.113   5.807  0.1619  0.5630  0.5612
  264MOL0     O36302   0.240   6.123   5.814 -0.4954 -0.2760 -0.3900
  264MOL0     C36303   0.174   6.040   5.911 -0.0273  0.3394  0.3816
  264MOL0     C36304   0.032   6.027   5.871  0.6060  0.8745 -1.1656
  264MOL0     C36305  -0.003   5.948   5.746  0.8015 -0.8403  0.3919
  264MOL0     C36306  -0.157   5.943   5.725 -0.0311  0.3049  0.2227
  264MOL0     C36307  -0.197   5.869   5.598 -0.2629 -0.4912  0.3833
  264MOL0     C36308  -0.342   5.890   5.560 -0.6187 -0.7940 -0.8168
  264MOL0     C36309  -0.378   5.837   5.417 -0.3929 -0.3152 -0.1974
  264MOL0     C36310  -0.528   5.872   5.383  0.6843  0.9323 -0.7199
  264MOL0     N36311  -0.538   5.979   5.290 -0.0754 -0.0942  0.2008
  264MOL0     C36312  -0.477   6.116   5.305  0.3326 -0.0802 -0.5092
  264MOL0     C36313  -0.504   6.179   5.188  0.3733  0.3053  0.3911
  264MOL0     C36314  -0.477   6.324   5.151  0.7746 -0.2922 -1.1526
  264MOL0     C36315  -0.338   6.377   5.197 -1.2411  0.7175 -0.0661
  264MOL0     C36316  -0.267   6.447   5.089  0.7629  0.3079  0.0624
  264MOL0     C36317  -0.131   6.493   5.136  0.3009  1.2804  0.6619
  264MOL0     O36318  -0.079   6.580   5.031 -0.5080 -0.6171  0.0925
  264MOL0     C36319   0.061   6.581   5.011 -0.5957 -0.4234 -0.3027
  264MOL0     C36320   0.101   6.584   4.880  0.8359  0.2178  1.2550
  264MOL0     C36321   0.235   6.593   4.847 -0.0629  0.3063  0.1667
  264MOL0     C36322   0.270   6.587   4.700 -0.4592  0.3245 -0.1980
  264MOL0     C36323   0.332   6.591   4.947  0.4442  0.6561  0.6129
  264MOL0     C36324   0.490   6.599   4.932  0.3402  0.3455 -0.9359
  264MOL0     O36325   0.559   6.665   5.021  0.3056  1.0762  0.1571
  264MOL0     C36326   0.692   6.690   5.007 -0.2228 -0.1436  0.3219
  264MOL0     C36327   0.787   6.598   5.042  0.5537  0.0432 -0.2564
  264MOL0     C36328   0.924   6.632   5.022  0.0638  0.1022 -0.5510
  264MOL0     C36329   0.966   6.754   4.970  0.1521  0.2433 -0.1401
  264MOL0     O36330   1.093   6.796   4.951 -0.7390 -0.8495 -0.5950
  264MOL0     C36331   1.177   6.748   5.056  0.1419  0.0530 -0.1152
  264MOL0     C36332   1.304   6.821   5.081 -0.0033  0.3536  0.0025
  264MOL0     C36333   1.273   6.972   5.103 -0.0683 -0.5370  0.7057
  264MOL0     C36334   1.406   7.054   5.121  0.8392  0.7222 -0.1401
  264MOL0     C36335   1.380   7.197   5.163  1.0226 -0.4328  0.3104
  264MOL0     C36336   1.508   7.269   5.194 -0.1737  0.1560  0.4500
  264MOL0     C36337   1.485   7.399   5.264 -0.4420  0.0078  0.3108
  264MOL0     C36338   1.439   7.515   5.185 -0.5171 -0.6994 -0.0091
  264MOL0    Cl36339   1.557   7.565   5.052 -0.0882 -0.3260  0.1157
  264MOL0     C36340   0.866   6.843   4.930  0.7241  0.0282  0.4519
  264MOL0     C36341   0.731   6.807   4.940  0.2080  0.3753  0.2929
  264MOL0     O36342   0.533   6.545   4.834 -0.1280  0.0266 -0.5917
  264MOL0     C36343   0.295   6.584   5.079 -0.8452  0.4740 -0.9671
  264MOL0     C36344   0.160   6.584   5.114  0.3097 -0.2506 -0.7067
  264MOL0     N36345  -0.588   6.101   5.115  0.3286 -0.2139 -0.6410
  264MOL0     N36346  -0.599   5.983   5.168  0.0506 -0.0847 -0.8484
  264MOL0     C36347   0.452   6.045   5.901 -0.9667  0.1222 -0.4233
  264MOL0     C36348   0.591   6.060   5.891  0.5261  0.1943 -0.4487
  264MOL0     C36349   1.022   6.193   5.805  0.1514 -0.1668 -0.6051
  264MOL0     C36350   1.063   6.140   5.679  1.1192 -0.0845 -0.6237
  264MOL0     C36351   1.205   6.130   5.654  0.1582  0.3179  0.5512
  264MOL0     C36352   1.297   6.166   5.756 -0.9872  0.2705  0.9602
  264MOL0     O36353   1.436   6.147   5.754 -0.6597  0.2203 -0.2135
  264MOL0     C36354   1.501   6.138   5.629 -0.3365  0.8311  0.2085
  264MOL0     C36355   1.655   6.175   5.630 -0.7614 -0.0762 -0.1617
  264MOL0     C36356   1.714   6.088   5.743  0.0600  0.3230  0.6656
  264MOL0     C36357   1.726   5.942   5.715  1.0154  0.6005  0.2903
  264MOL0     C36358   1.815   5.918   5.593 -0.3315 -0.0635 -0.4550
  264MOL0     C36359   1.884   5.913   5.494 -1.3771  0.5404 -0.0517
  264MOL0     C36360   1.254   6.222   5.874 -0.9052  0.0612 -0.2787
  264MOL0     C36361   1.119   6.243   5.895 -0.2669 -0.3662  0.8398
  264MOL0     C36362   1.098   6.302   6.028  0.4815 -0.1214 -0.1140
  264MOL0     H36363   0.632   6.230   5.598 -0.4313  2.1589  1.2737
  264MOL0     H36364   0.393   6.245   5.622  0.8185  1.8272  0.9827
  264MOL0     H36365   0.190   6.070   6.015  0.0422 -1.2620  0.8656
  264MOL0     H36366   0.217   5.939   5.913 -0.3104  0.2245  1.7778
  264MOL0     H36367  -0.011   5.977   5.958 -0.5690  0.1240 -2.1451
  264MOL0     H36368  -0.012   6.127   5.871  0.4978  0.8273 -1.1933
  264MOL0     H36369   0.024   6.004   5.657 -4.0491  4.0191  1.4683
  264MOL0     H36370   0.044   5.849   5.742 -0.1705 -1.2827 -0.4397
  264MOL0     H36371  -0.209   5.896   5.809 -0.2040 -1.0094 -0.6007
  264MOL0     H36372  -0.186   6.049   5.721  0.5197  0.4144 -1.5841
  264MOL0     H36373  -0.170   5.763   5.605 -0.1315 -0.3883  1.6913
  264MOL0     H36374  -0.130   5.911   5.521  0.8309  1.5665  2.3281
  264MOL0     H36375  -0.400   5.838   5.637  0.0473 -0.4076 -0.0476
  264MOL0     H36376  -0.370   5.995   5.561 -0.9978 -0.8693  1.1194
  264MOL0     H36377  -0.359   5.730   5.409  1.0457 -0.2838  1.9624
  264MOL0     H36378  -0.320   5.885   5.337 -1.6008 -2.0432 -2.2127
  264MOL0     H36379  -0.579   5.787   5.336  1.7279  1.0720 -2.1655
  264MOL0     H36380  -0.586   5.902   5.472  0.9705 -1.9750  0.5426
  264MOL0     H36381  -0.411   6.149   5.385  0.5023 -0.8026 -0.3488
  264MOL0     H36382  -0.557   6.386   5.191  2.3985  0.6845  0.7778
  264MOL0     H36383  -0.493   6.346   5.045 -0.0858  3.9735 -0.3264
  264MOL0     H36384  -0.355   6.449   5.277  1.4757  3.8647 -2.0514
  264MOL0     H36385  -0.269   6.300   5.233 -0.0306  1.7993  0.0080
  264MOL0     H36386  -0.272   6.389   4.996 -2.6776  0.3600  0.0752
  264MOL0     H36387  -0.313   6.545   5.071  3.0028  2.2205  3.6547
  264MOL0     H36388  -0.131   6.558   5.224 -2.0868  1.3813  0.6671
  264MOL0     H36389  -0.064   6.408   5.150  1.1013  1.4941 -1.5042
  264MOL0     H36390   0.022   6.550   4.814 -1.0417 -0.4589  3.7223
  264MOL0     H36391   0.334   6.499   4.696 -0.2703  0.4165  0.5802
  264MOL0     H36392   0.337   6.671   4.676  1.9357 -1.9626 -2.0938
  264MOL0     H36393   0.180   6.574   4.639 -0.9873 -2.5366  1.0573
  264MOL0     H36394   0.748   6.504   5.079  0.2204  0.1162 -0.4189
  264MOL0     H36395   0.985   6.557   5.072 -1.7384 -0.0003  1.6491
  264MOL0     H36396   1.116   6.744   5.147 -0.3793 -0.5847 -0.4876
  264MOL0     H36397   1.198   6.643   5.035  1.6801  0.0679  1.0832
  264MOL0     H36398   1.365   6.771   5.158  0.1468  0.4060 -0.0808
  264MOL0     H36399   1.360   6.819   4.987 -1.0347 -0.9368 -0.6079
  264MOL0     H36400   1.211   6.977   5.193  1.9203  0.0093  2.1212
  264MOL0     H36401   1.220   7.013   5.017 -2.7552 -0.8273  2.1155
  264MOL0     H36402   1.471   7.063   5.033  2.5309  0.8005  1.0807
  264MOL0     H36403   1.471   7.001   5.191  0.9911  0.7169 -0.2847
  264MOL0     H36404   1.333   7.257   5.084 -1.0032  1.3972  2.7203
  264MOL0     H36405   1.318   7.205   5.253  0.9639 -2.6777  0.5245
  264MOL0     H36406   1.575   7.281   5.109  2.1074 -1.8956  1.8442
  264MOL0     H36407   1.560   7.205   5.265  0.5843  0.3084  0.0429
  264MOL0     H36408   1.580   7.420   5.315 -1.0501 -0.0401  1.5162
  264MOL0     H36409   1.410   7.385   5.343 -1.2292  0.5884 -0.3194
  264MOL0     H36410   1.433   7.591   5.263  2.4959 -0.7583  0.4153
  264MOL0     H36411   1.346   7.482   5.137 -0.4844 -1.9664  0.7595
  264MOL0     H36412   0.885   6.942   4.889  0.0800 -0.1627 -0.3657
  264MOL0     H36413   0.644   6.866   4.911  1.2197  0.7657 -2.1233
  264MOL0     H36414   0.372   6.598   5.154 -0.6261  1.2093 -1.3290
  264MOL0     H36415   0.134   6.576   5.219 -2.4293  0.2457 -1.2732
  264MOL0     H36416   0.414   5.968   5.967  0.5207 -1.0867 -0.9076
  264MOL0     H36417   0.649   6.004   5.964 -2.8488 -0.7978  1.6723
  264MOL0     H36418   0.991   6.113   5.603 -2.8213  2.2283  1.9257
  264MOL0     H36419   1.223   6.097   5.552 -1.8433 -1.4231  0.6941
  264MOL0     H36420   1.486   6.042   5.579 -1.1624  0.7680  0.5592
  264MOL0     H36421   1.457   6.221   5.573  1.0935  0.7049 -1.1757
  264MOL0     H36422   1.671   6.279   5.660  1.4006 -0.5003  0.3491
  264MOL0     H36423   1.705   6.163   5.534  1.0511 -1.2076  0.8603
  264MOL0     H36424   1.805   6.133   5.783  0.6922  2.0286 -2.3725
  264MOL0     H36425   1.640   6.098   5.823 -1.1926  0.7133 -0.5062
  264MOL0     H36426   1.626   5.901   5.705  0.5627  1.9477 -1.1216
  264MOL0     H36427   1.760   5.896   5.808 -0.5897 -2.8891 -0.6737
  264MOL0     H36428   1.956   5.899   5.417 -2.0563  1.7162 -0.9351
  264MOL0     H36429   1.334   6.252   5.940  0.9713  0.8447 -2.7861
  264MOL0     H36430   1.028   6.240   6.085 -0.6837 -1.0916 -2.4453
  264MOL0     H36431   1.189   6.323   6.085  0.4951 -3.8016  1.4408
  264MOL0     H36432   1.046   6.399   6.025 -0.7279 -0.7557 -0.5297
  265MOL0     O36433   3.119   6.913   1.046 -0.4146 -0.1836 -0.2578
  265MOL0     C36434   3.068   6.828   1.120 -0.0975  0.1503  1.0934
  265MOL0     O36435   3.135   6.715   1.160  0.2279 -0.3143 -0.6185
  265MOL0     C36436   3.269   6.708   1.132 -0.5153 -0.6639 -0.0570
  265MOL0     C36437   3.319   6.603   1.049  1.0860 -0.3254 -0.1114
  265MOL0     C36438   3.446   6.597   1.010  0.4077  0.7868  0.6116
  265MOL0     C36439   3.541   6.672   1.073  0.3511  0.5518  0.1662
  265MOL0     O36440   3.674   6.657   1.064  0.3737  0.0532 -0.4542
  265MOL0     C36441   3.737   6.539   1.104 -0.1030 -0.2317  0.3254
  265MOL0     C36442   3.888   6.542   1.076  0.0108 -0.6533  0.1781
  265MOL0     C36443   3.903   6.570   0.930 -0.0491  0.3277  0.1674
  265MOL0     C36444   4.038   6.524   0.877 -0.1543 -0.2453  0.8406
  265MOL0     C36445   4.058   6.549   0.722  0.0414 -0.2170 -0.0751
  265MOL0     C36446   4.203   6.533   0.672  0.0133  0.1963 -0.2466
  265MOL0     C36447   4.203   6.518   0.521 -0.0727 -0.5439 -0.4870
  265MOL0     C36448   4.143   6.380   0.484  0.0177  0.8728  0.5210
  265MOL0     N36449   4.200   6.340   0.345 -0.0002  0.4062 -0.1586
  265MOL0     C36450   4.324   6.295   0.306 -0.3273 -1.6217  0.2428
  265MOL0     C36451   4.334   6.316   0.171 -0.5912  0.5391 -0.3970
  265MOL0     C36452   4.465   6.293   0.103 -0.2867  0.0434  0.7279
  265MOL0     C36453   4.488   6.152   0.035  0.0759 -0.3887 -0.9189
  265MOL0     C36454   4.470   6.030   0.123  0.5301 -0.3613 -0.1252
  265MOL0     C36455   4.605   6.013   0.195  0.1358 -0.1480 -0.3244
  265MOL0     O36456   4.595   5.908   0.296  0.6922  0.0374  0.2966
  265MOL0     C36457   4.701   5.823   0.296 -0.4203  0.7463  0.6460
  265MOL0     C36458   4.680   5.685   0.267  0.1696 -1.0727 -0.4618
  265MOL0     C36459   4.794   5.598   0.272 -0.3794  0.0429  0.0280
  265MOL0     C36460   4.747   5.456   0.251 -0.6486 -0.4906  0.1011
  265MOL0     C36461   4.930   5.641   0.284 -0.1514 -0.0472  0.2195
  265MOL0     C36462   5.058   5.552   0.276  0.2981  0.3737  0.6526
  265MOL0     O36463   5.176   5.615   0.243  0.1213  0.0612  0.3572
  265MOL0     C36464   5.297   5.540   0.261 -0.0684 -1.3489  0.6350
  265MOL0     C36465   5.330   5.474   0.383 -0.2295  1.1125  0.1258
  265MOL0     C36466   5.449   5.401   0.402  0.3633  0.3162 -0.1571
  265MOL0     C36467   5.548   5.401   0.299 -0.4619  0.7101 -0.7192
  265MOL0     O36468   5.666   5.339   0.324  0.3072 -0.8551  0.0870
  265MOL0     C36469   5.776   5.364   0.228  0.2368 -0.0193 -0.2324
  265MOL0     C36470   5.902   5.356   0.306 -0.0774  0.6119 -0.0249
  265MOL0     C36471   5.943   5.492   0.367 -0.1648  0.3571 -0.6873
  265MOL0     C36472   6.077   5.465   0.441  0.1496  0.2142  0.3268
  265MOL0     C36473   6.147   5.593   0.485 -0.1859  0.0540  0.0565
  265MOL0     C36474   6.273   5.573   0.559 -0.2482 -0.3507  0.2807
  265MOL0     C36475   6.374   5.470   0.496  0.0660 -0.7799  0.0991
  265MOL0     C36476   6.494   5.452   0.597  0.4192 -0.6534 -0.0591
  265MOL0    Cl36477   6.641   5.392   0.529 -0.2516 -0.3603 -0.1597
  265MOL0     C36478   5.511   5.464   0.180 -0.5530 -0.2709 -0.5997
  265MOL0     C36479   5.390   5.525   0.160 -1.0561 -0.3329  0.4925
  265MOL0     O36480   5.041   5.433   0.305 -0.1244  0.8348  0.9282
  265MOL0     C36481   4.942   5.777   0.309 -0.4900 -0.4546 -0.3626
  265MOL0     C36482   4.834   5.866   0.318 -0.6542 -0.2784  0.0218
  265MOL0     N36483   4.218   6.361   0.123 -0.6158 -0.8754  0.3283
  265MOL0     N36484   4.142   6.381   0.228  0.6339  0.3772  0.6648
  265MOL0     C36485   3.504   6.764   1.168 -1.0089  0.6741 -0.7526
  265MOL0     C36486   3.365   6.782   1.204  0.4242 -0.3016 -0.1845
  265MOL0     C36487   2.927   6.841   1.166 -0.1427 -0.3460 -0.3765
  265MOL0     C36488   2.883   6.775   1.283 -0.2833  0.5625 -0.2518
  265MOL0     C36489   2.761   6.798   1.352  0.5194  0.9213  0.0829
  265MOL0     C36490   2.679   6.896   1.288 -0.2425 -0.4949 -0.2496
  265MOL0     O36491   2.554   6.899   1.338  0.7343  0.7649 -0.0175
  265MOL0     C36492   2.450   6.973   1.266 -1.1503  0.3008 -0.1218
  265MOL0     C36493   2.318   6.902   1.315 -0.7926  0.2541  0.3538
  265MOL0     C36494   2.187   6.990   1.276  0.3157  0.0612  0.7084
  265MOL0     C36495   2.064   6.906   1.242 -1.0798 -0.6175 -0.5867
  265MOL0     C36496   2.084   6.814   1.125  0.8737 -0.1377 -0.5375
  265MOL0     C36497   2.088   6.752   1.026 -0.8833 -0.2799 -0.0235
  265MOL0     C36498   2.718   6.968   1.181 -0.4691 -0.3534 -0.1196
  265MOL0     C36499   2.838   6.938   1.107  0.0335 -0.2657 -0.9300
  265MOL0     C36500   2.869   7.035   0.993 -0.4433  0.4421 -0.6209
  265MOL0     H36501   3.238   6.544   1.006 -0.1689 -0.4600  2.2863
  265MOL0     H36502   3.469   6.531   0.926 -2.2564 -1.2436  1.3406
  265MOL0     H36503   3.676   6.459   1.060 -0.6842  0.1180  0.4761
  265MOL0     H36504   3.730   6.535   1.213 -1.9273  0.1640  0.2626
  265MOL0     H36505   3.933   6.623   1.133 -1.5945  0.1888  0.2944
  265MOL0     H36506   3.937   6.450   1.108  0.5003  0.1785  1.9031
  265MOL0     H36507   3.825   6.514   0.877 -1.3707  0.6527  1.6932
  265MOL0     H36508   3.886   6.678   0.925  4.5907  1.4106  2.2287
  265MOL0     H36509   4.111   6.574   0.942 -1.0702  1.0624  0.9191
  265MOL0     H36510   4.054   6.418   0.895 -0.8466 -0.3063  1.1357
  265MOL0     H36511   4.043   6.656   0.704 -1.8820 -0.3851  0.3555
  265MOL0     H36512   3.988   6.488   0.665 -0.2877  1.8713 -2.0434
  265MOL0     H36513   4.260   6.622   0.699 -1.2081  0.1070  3.0914
  265MOL0     H36514   4.248   6.458   0.738 -0.2256  2.8019  3.1639
  265MOL0     H36515   4.306   6.505   0.486  0.0988 -3.6308  0.8568
  265MOL0     H36516   4.158   6.599   0.463  0.4696 -0.4692 -0.8144
  265MOL0     H36517   4.185   6.304   0.551  2.5780  1.6274 -0.1095
  265MOL0     H36518   4.034   6.384   0.488  0.0391  0.7808  1.6916
  265MOL0     H36519   4.405   6.289   0.378  0.5718  1.0542 -0.4293
  265MOL0     H36520   4.543   6.318   0.175 -1.9108  1.8930  1.9564
  265MOL0     H36521   4.484   6.362   0.020 -0.2265 -1.7207 -0.7995
  265MOL0     H36522   4.414   6.140  -0.044  0.2439  2.4595 -1.6160
  265MOL0     H36523   4.585   6.157  -0.017 -0.0364 -2.2404 -1.3713
  265MOL0     H36524   4.383   6.038   0.189  1.2263 -1.6734  1.0016
  265MOL0     H36525   4.445   5.940   0.067  0.7106  0.1131 -0.9819
  265MOL0     H36526   4.677   5.976   0.121  0.5392  0.3979 -0.2132
  265MOL0     H36527   4.646   6.104   0.239  0.4770 -0.6124  0.3215
  265MOL0     H36528   4.577   5.658   0.243 -0.7151  1.5022  0.1586
  265MOL0     H36529   4.796   5.400   0.331  1.2493  0.4205 -0.3545
  265MOL0     H36530   4.794   5.421   0.158  1.6350  0.1036  0.9598
  265MOL0     H36531   4.643   5.432   0.272 -0.3617  0.4573  3.1191
  265MOL0     H36532   5.249   5.471   0.456 -1.8957  0.1729 -1.6836
  265MOL0     H36533   5.482   5.348   0.491 -0.0164  0.0348 -0.1820
  265MOL0     H36534   5.775   5.292   0.146 -1.9313 -1.2305  0.7722
  265MOL0     H36535   5.767   5.466   0.190 -2.3222  1.1480  2.9662
  265MOL0     H36536   5.902   5.277   0.382  2.9273  1.1644  0.6452
  265MOL0     H36537   5.981   5.331   0.235  0.2955 -0.3250  0.6957
  265MOL0     H36538   5.867   5.517   0.441  1.3224 -0.0829  1.0867
  265MOL0     H36539   5.957   5.570   0.291  1.5824  0.7766  0.0124
  265MOL0     H36540   6.146   5.405   0.380  0.8612 -0.4133  1.7046
  265MOL0     H36541   6.056   5.401   0.527 -1.2716  1.5070  0.9818
  265MOL0     H36542   6.177   5.625   0.385  2.4421  0.1142  0.7839
  265MOL0     H36543   6.092   5.671   0.537  1.7197 -0.0868  2.4990
  265MOL0     H36544   6.248   5.541   0.660 -0.1262 -0.7626  0.1808
  265MOL0     H36545   6.328   5.668   0.566 -1.0990  0.2380 -0.7809
  265MOL0     H36546   6.399   5.515   0.398  0.5842  0.1866  0.6533
  265MOL0     H36547   6.324   5.374   0.479  0.1580 -0.5949 -1.3658
  265MOL0     H36548   6.464   5.386   0.680 -2.0338  1.0297  0.4946
  265MOL0     H36549   6.521   5.548   0.642  0.5034  0.9644 -3.2817
  265MOL0     H36550   5.570   5.451   0.090 -0.7594 -2.9298 -0.4179
  265MOL0     H36551   5.370   5.573   0.065  0.3580  1.5364  1.0826
  265MOL0     H36552   5.038   5.826   0.325 -1.5988  1.7874 -0.2724
  265MOL0     H36553   4.862   5.968   0.341 -0.0940 -0.2720 -0.6508
  265MOL0     H36554   3.579   6.821   1.222 -2.8016  0.6022  2.0343
  265MOL0     H36555   3.337   6.854   1.282  0.1520 -2.0383  1.3951
  265MOL0     H36556   2.943   6.705   1.340 -0.1797 -0.0135 -1.0722
  265MOL0     H36557   2.735   6.737   1.437  1.2587  1.2022  0.5143
  265MOL0     H36558   2.456   7.081   1.278 -1.7537  0.6070 -2.1394
  265MOL0     H36559   2.469   6.955   1.160 -0.1738  0.2217  0.0577
  265MOL0     H36560   2.324   6.902   1.424 -0.8047 -1.2374  0.3780
  265MOL0     H36561   2.316   6.797   1.287 -1.1316  0.5357 -0.7327
  265MOL0     H36562   2.171   7.050   1.365  2.7909 -0.5747  1.6807
  265MOL0     H36563   2.208   7.055   1.191  2.8753 -0.1156  1.1098
  265MOL0     H36564   1.986   6.982   1.230  0.6081  1.0271 -1.6347
  265MOL0     H36565   2.049   6.845   1.332  0.9451  0.9007  0.8451
  265MOL0     H36566   2.132   6.700   0.943  2.5115 -1.4534  2.3191
  265MOL0     H36567   2.666   7.059   1.156 -0.0778 -0.2082 -0.4234
  265MOL0     H36568   2.775   7.084   0.967 -0.0091  0.9346 -1.2959
  265MOL0     H36569   2.954   7.103   0.998 -0.8851  0.9121  1.1645
  265MOL0     H36570   2.902   6.966   0.915  0.0189 -2.4093  1.9046
  266MOL0     O36571  10.665   2.268   6.167 -0.3201 -0.9713  0.4862
  266MOL0     C36572  10.708   2.380   6.126 -0.7005  0.7059  0.4693
  266MOL0     O36573  10.834   2.440   6.149  0.3808  0.0766 -0.1257
  266MOL0     C36574  10.940   2.378   6.212  0.5089  0.4908 -0.3766
  266MOL0     C36575  11.032   2.457   6.276 -0.4348  0.5563  0.1274
  266MOL0     C36576  11.157   2.410   6.308 -0.0513 -0.3663  0.5499
  266MOL0     C36577  11.197   2.276   6.279  0.6704 -0.8735 -0.6331
  266MOL0     O36578  11.319   2.225   6.323 -0.2708  0.3167 -0.4848
  266MOL0     C36579  11.405   2.173   6.223  0.5078 -0.6779 -0.0175
  266MOL0     C36580  11.471   2.279   6.135  0.8639 -0.8044 -0.1856
  266MOL0     C36581  11.556   2.359   6.227  0.6746 -0.1157 -0.0250
  266MOL0     C36582  11.658   2.445   6.141 -0.4632 -0.2306  0.3542
  266MOL0     C36583  11.707   2.570   6.215  0.7364 -0.3138 -0.9873
  266MOL0     C36584  11.604   2.680   6.247  0.5164 -0.7144 -0.0867
  266MOL0     C36585  11.651   2.814   6.193 -0.1075  0.4575  0.6353
  266MOL0     C36586  11.772   2.883   6.273  0.0028  0.8929  0.1320
  266MOL0     N36587  11.858   2.965   6.190  0.2471  0.7901 -0.3816
  266MOL0     C36588  11.817   3.054   6.091  0.9784  0.1048  0.1047
  266MOL0     C36589  11.922   3.133   6.070 -0.1643  0.5235  0.5534
  266MOL0     C36590  11.910   3.270   5.998 -1.2391 -0.0755 -0.6974
  266MOL0     C36591  12.023   3.364   6.036 -0.5511  0.4731  0.0510
  266MOL0     C36592  11.974   3.499   5.998 -0.1756 -0.9874  0.0984
  266MOL0     C36593  12.064   3.612   6.040 -0.6336  0.8994  0.1176
  266MOL0     O36594  12.065   3.623   6.183 -0.3431  0.3612 -0.6014
  266MOL0     C36595  12.171   3.693   6.244  0.3422  0.9195  1.0971
  266MOL0     C36596  12.235   3.804   6.189 -0.6850 -0.3338 -0.7707
  266MOL0     C36597  12.344   3.863   6.249 -0.0315  0.1203 -0.7216
  266MOL0     C36598  12.410   3.961   6.166  0.1414 -0.8024  0.3879
  266MOL0     C36599  12.385   3.825   6.379  0.5797  0.6017 -0.3233
  266MOL0     C36600  12.493   3.880   6.466 -0.1338  1.0391  0.5534
  266MOL0     O36601  12.546   4.005   6.427  0.6483  0.1044 -0.3556
  266MOL0     C36602  12.657   4.031   6.503  0.6646  0.2161  0.0329
  266MOL0     C36603  12.636   4.113   6.621  0.1627 -0.2379 -0.1603
  266MOL0     C36604  12.744   4.153   6.694 -0.2328 -0.5887 -0.3330
  266MOL0     C36605  12.878   4.112   6.669 -0.1735  0.1562  0.2431
  266MOL0     O36606  12.984   4.148   6.749 -0.3066 -0.1375  0.0016
  266MOL0     C36607  13.087   4.213   6.672  0.6426 -0.4486  0.4262
  266MOL0     C36608  13.202   4.254   6.775  0.1386  0.6195  0.0291
  266MOL0     C36609  13.318   4.296   6.697 -0.3931 -0.8579  0.2756
  266MOL0     C36610  13.416   4.366   6.783 -0.5059 -0.0165 -0.3608
  266MOL0     C36611  13.533   4.439   6.714  0.1866  0.5732 -0.2229
  266MOL0     C36612  13.618   4.526   6.813 -0.6308 -0.6554 -0.4385
  266MOL0     C36613  13.728   4.595   6.738  0.9773 -1.3301 -0.0307
  266MOL0     C36614  13.788   4.702   6.827 -0.5641 -0.1894 -0.2369
  266MOL0    Cl36615  13.880   4.826   6.725 -0.6211 -0.4662 -0.4157
  266MOL0     C36616  12.892   4.029   6.559  0.5914 -0.2772 -0.2611
  266MOL0     C36617  12.786   3.978   6.480  0.4780 -0.9197 -0.4917
  266MOL0     O36618  12.528   3.819   6.567  0.5020 -0.7100 -0.1839
  266MOL0     C36619  12.319   3.710   6.436  0.2696  0.1900 -0.1184
  266MOL0     C36620  12.212   3.646   6.368 -0.1695 -0.0180 -0.6881
  266MOL0     N36621  12.037   3.067   6.122 -0.0291 -0.6578 -0.5170
  266MOL0     N36622  11.995   2.958   6.185 -0.0591  0.5518 -0.1771
  266MOL0     C36623  11.111   2.199   6.204 -0.0736  0.4510  0.0390
  266MOL0     C36624  10.977   2.246   6.168 -0.1745  0.0579 -0.3927
  266MOL0     C36625  10.604   2.461   6.053  0.0081  0.5106  0.4731
  266MOL0     C36626  10.496   2.490   6.129  0.8342  0.1629  0.4011
  266MOL0     C36627  10.375   2.538   6.076  0.1996  0.0280 -0.1591
  266MOL0     C36628  10.368   2.556   5.937  0.0215 -0.3241  0.3932
  266MOL0     O36629  10.258   2.591   5.873 -0.2376 -0.4452  0.1960
  266MOL0     C36630  10.148   2.646   5.951 -0.8195  0.4802 -0.8580
  266MOL0     C36631  10.058   2.533   5.995 -0.3280 -0.1172 -0.1948
  266MOL0     C36632   9.969   2.483   5.877 -0.6621 -0.2906 -0.2528
  266MOL0     C36633   9.929   2.337   5.882  1.2100  0.3310  1.0347
  266MOL0     C36634   9.886   2.302   6.019 -1.1231  0.3857  0.0242
  266MOL0     C36635   9.857   2.281   6.136 -0.2788  0.2757 -0.1193
  266MOL0     C36636  10.482   2.535   5.857 -0.0260 -0.0029  0.8278
  266MOL0     C36637  10.598   2.486   5.911 -0.2713  0.5046 -0.4746
  266MOL0     C36638  10.723   2.446   5.837 -0.9252  0.0362 -0.4076
  266MOL0     H36639  11.006   2.563   6.283 -3.2137 -0.1465  2.6364
  266MOL0     H36640  11.227   2.479   6.354  0.1115  0.7514 -1.2885
  266MOL0     H36641  11.351   2.104   6.158  0.1765 -1.5182  1.1160
  266MOL0     H36642  11.480   2.106   6.267  0.2613 -2.0643 -1.6332
  266MOL0     H36643  11.529   2.235   6.054 -0.1067  0.7853 -1.8131
  266MOL0     H36644  11.402   2.347   6.083  1.4151  0.3675  0.5594
  266MOL0     H36645  11.503   2.423   6.298 -1.2391 -1.6619  0.0378
  266MOL0     H36646  11.621   2.291   6.284  1.0714 -0.3389 -0.7268
  266MOL0     H36647  11.734   2.372   6.115 -0.5560 -0.2221  0.0602
  266MOL0     H36648  11.607   2.483   6.052 -0.9278  0.4629  0.8979
  266MOL0     H36649  11.784   2.618   6.154  1.5674 -0.3298  0.0316
  266MOL0     H36650  11.753   2.541   6.309  0.1794  1.1088 -0.2345
  266MOL0     H36651  11.511   2.660   6.193 -1.7507  0.3026  3.1359
  266MOL0     H36652  11.563   2.702   6.346 -0.7665  0.1882 -0.7804
  266MOL0     H36653  11.562   2.878   6.195  0.5291  1.4697 -1.0128
  266MOL0     H36654  11.678   2.787   6.090  1.9314 -1.7329  1.6655
  266MOL0     H36655  11.717   2.935   6.352 -1.3607  0.1964 -0.3235
  266MOL0     H36656  11.824   2.801   6.323 -1.0143  0.0391 -0.1733
  266MOL0     H36657  11.719   3.069   6.048  1.8723 -0.9126 -2.4537
  266MOL0     H36658  11.812   3.309   6.029 -0.1255  3.9421 -1.6621
  266MOL0     H36659  11.924   3.251   5.892 -1.5442  0.8468 -0.9101
  266MOL0     H36660  12.051   3.350   6.142  1.0629 -2.9265 -0.6612
  266MOL0     H36661  12.116   3.340   5.983  0.3248  3.5424  0.0226
  266MOL0     H36662  11.970   3.503   5.889  1.2221  2.2343  0.0757
  266MOL0     H36663  11.872   3.515   6.034 -0.3219  2.1371 -1.4244
  266MOL0     H36664  12.163   3.590   6.000 -1.0063  2.2269 -1.6254
  266MOL0     H36665  12.034   3.702   5.986  0.2260  0.9222 -0.3343
  266MOL0     H36666  12.211   3.825   6.085 -0.8817 -2.8669 -1.2977
  266MOL0     H36667  12.514   3.968   6.197  0.3525  0.0445 -0.4472
  266MOL0     H36668  12.376   4.065   6.173  2.1304  0.0484 -1.3885
  266MOL0     H36669  12.413   3.918   6.065  2.8921  0.5299 -0.1912
  266MOL0     H36670  12.543   4.151   6.664  2.4242  0.2685  5.1220
  266MOL0     H36671  12.730   4.227   6.773  1.0799 -1.5673  0.8671
  266MOL0     H36672  13.127   4.155   6.588 -0.9317 -2.1590  0.8050
  266MOL0     H36673  13.046   4.307   6.634 -2.0245 -0.9986  1.7495
  266MOL0     H36674  13.174   4.316   6.860  0.1295 -1.0135  1.2712
  266MOL0     H36675  13.244   4.171   6.832 -0.9005  1.3453  1.9446
  266MOL0     H36676  13.289   4.364   6.616 -1.1126  0.9485  1.9496
  266MOL0     H36677  13.370   4.212   6.650  1.1513  0.2297 -0.0300
  266MOL0     H36678  13.460   4.297   6.856 -2.3559 -0.6265  0.2395
  266MOL0     H36679  13.363   4.449   6.831  2.3881  1.2261  0.9403
  266MOL0     H36680  13.594   4.368   6.658 -1.3925 -1.9063  1.0569
  266MOL0     H36681  13.483   4.505   6.642  0.0272  2.6309  1.6619
  266MOL0     H36682  13.661   4.463   6.892  0.8839 -1.4001 -1.8225
  266MOL0     H36683  13.549   4.599   6.856 -1.6258 -2.9790  2.2248
  266MOL0     H36684  13.689   4.655   6.655 -0.6430 -1.9509  0.2346
  266MOL0     H36685  13.806   4.525   6.706  4.7338  1.9118  1.2706
  266MOL0     H36686  13.854   4.656   6.901 -0.6963  1.1323  0.7254
  266MOL0     H36687  13.715   4.747   6.895  0.5298 -2.0181  2.3202
  266MOL0     H36688  12.997   4.007   6.539  0.2998 -0.1103 -2.1397
  266MOL0     H36689  12.817   3.923   6.392  0.5945 -1.4735 -0.1106
  266MOL0     H36690  12.341   3.678   6.538  0.3271 -1.0565 -0.5113
  266MOL0     H36691  12.156   3.580   6.434  0.1794  0.6267  0.2703
  266MOL0     H36692  11.143   2.099   6.174  0.0059  0.1152  1.1673
  266MOL0     H36693  10.907   2.192   6.105 -0.5694  1.2249 -0.9837
  266MOL0     H36694  10.512   2.481   6.236  3.6943 -1.1296 -0.0411
  266MOL0     H36695  10.285   2.556   6.134  0.2463 -1.4303  0.3919
  266MOL0     H36696  10.199   2.700   6.031 -2.6320  0.8577  0.0950
  266MOL0     H36697  10.081   2.717   5.901 -0.7220 -0.4130 -2.3239
  266MOL0     H36698   9.993   2.574   6.074 -0.2680 -0.4843  0.0444
  266MOL0     H36699  10.117   2.449   6.030 -1.2194 -0.6761  0.0025
  266MOL0     H36700   9.882   2.550   5.878  0.6428  1.5525  2.2251
  266MOL0     H36701  10.020   2.493   5.781 -1.9756  0.8410 -0.8604
  266MOL0     H36702  10.016   2.274   5.862  0.7063 -0.5212  1.4879
  266MOL0     H36703   9.856   2.314   5.805  2.1854  0.1322  0.1408
  266MOL0     H36704   9.823   2.250   6.233 -1.3200  0.5933 -0.3690
  266MOL0     H36705  10.471   2.557   5.751  1.5513 -1.9442  0.1841
  266MOL0     H36706  10.722   2.339   5.812 -3.7022  0.5457 -3.1799
  266MOL0     H36707  10.736   2.479   5.733  1.0620  1.0262  0.1113
  266MOL0     H36708  10.812   2.471   5.895 -0.0421 -4.2781  0.4616
  267MOL0     O36709   2.651   8.039  10.219 -0.3913 -0.3003 -0.1302
  267MOL0     C36710   2.544   8.037  10.277 -0.5952  0.5858 -0.5514
  267MOL0     O36711   2.522   8.051  10.411 -0.1210  0.0904  0.0690
  267MOL0     C36712   2.622   8.100  10.483 -0.4753  0.3274  0.2168
  267MOL0     C36713   2.674   8.232  10.469  0.6681  0.1409 -0.0478
  267MOL0     C36714   2.771   8.284  10.551  0.1773 -0.8826  0.2314
  267MOL0     C36715   2.852   8.201  10.633  0.1787 -0.5363 -0.5108
  267MOL0     O36716   2.953   8.242  10.718 -0.6374  0.7383  0.3612
  267MOL0     C36717   3.003   8.376  10.704 -0.8826 -0.1953 -0.2756
  267MOL0     C36718   3.120   8.394  10.809 -0.2165  0.6523  0.1229
  267MOL0     C36719   3.246   8.306  10.787  0.2408 -0.9193 -0.1339
  267MOL0     C36720   3.364   8.361  10.865  0.1050  0.2030 -0.9710
  267MOL0     C36721   3.482   8.257  10.860 -0.3932 -0.5382  0.1619
  267MOL0     C36722   3.575   8.274  10.977 -0.2054 -0.1901 -0.2506
  267MOL0     C36723   3.700   8.183  10.976  0.1942 -0.0798  0.5489
  267MOL0     C36724   3.787   8.211  10.853  0.3708 -0.5824  0.2512
  267MOL0     N36725   3.927   8.174  10.875 -0.1196  0.2448  0.1723
  267MOL0     C36726   3.976   8.045  10.885  0.5155 -0.3485 -0.3636
  267MOL0     C36727   4.113   8.061  10.892  0.2744 -0.1456  0.3954
  267MOL0     C36728   4.195   7.943  10.887 -0.4515  0.5530 -0.3671
  267MOL0     C36729   4.347   7.969  10.861  0.6957 -0.2847 -0.1158
  267MOL0     C36730   4.363   8.033  10.719 -0.2261 -0.2167 -0.7099
  267MOL0     C36731   4.494   8.095  10.691  0.3212  0.8626 -0.1473
  267MOL0     O36732   4.581   7.978  10.664 -0.6228 -0.8397  0.7786
  267MOL0     C36733   4.711   7.996  10.624  0.0978 -0.0708 -0.0139
  267MOL0     C36734   4.783   7.886  10.584  0.6329  0.4326 -0.5281
  267MOL0     C36735   4.911   7.894  10.530  0.2621  0.0263  0.1537
  267MOL0     C36736   4.974   7.771  10.477  0.2213 -0.6277  0.7469
  267MOL0     C36737   4.973   8.016  10.531  0.3980 -0.7682  0.1200
  267MOL0     C36738   5.105   8.043  10.478  0.2807  0.2397  0.1998
  267MOL0     O36739   5.165   8.162  10.512  0.0322  0.3499 -0.3660
  267MOL0     C36740   5.286   8.185  10.458 -0.7639  0.1025 -0.6924
  267MOL0     C36741   5.405   8.154  10.526  0.1960  0.4085  0.4206
  267MOL0     C36742   5.536   8.178  10.471 -0.2017  0.6849  0.5347
  267MOL0     C36743   5.539   8.236  10.342 -0.0169 -0.5196  0.1852
  267MOL0     O36744   5.665   8.274  10.294 -0.1172  0.0940 -0.0385
  267MOL0     C36745   5.707   8.193  10.180  0.0163 -0.0477  0.3808
  267MOL0     C36746   5.793   8.286  10.093  0.2961  0.3514 -0.3297
  267MOL0     C36747   5.938   8.315  10.152  0.3949  0.0407 -0.4667
  267MOL0     C36748   5.952   8.436  10.255  0.2405 -0.0953  0.6423
  267MOL0     C36749   5.958   8.581  10.193 -0.6596  0.0591  0.4370
  267MOL0     C36750   6.093   8.616  10.116 -0.0876 -0.6118  0.5201
  267MOL0     C36751   6.214   8.647  10.210 -0.7139 -0.5056 -0.1464
  267MOL0     C36752   6.294   8.759  10.144 -1.0284  0.0554 -0.6046
  267MOL0    Cl36753   6.336   8.721   9.976  0.0345 -0.6556  0.0321
  267MOL0     C36754   5.421   8.263  10.269 -0.4633  0.5068  0.4214
  267MOL0     C36755   5.296   8.242  10.327 -0.1013  0.6471  0.3604
  267MOL0     O36756   5.154   7.960  10.396  0.0744  0.0868  0.5750
  267MOL0     C36757   4.904   8.132  10.579 -0.6283  0.2412 -0.0662
  267MOL0     C36758   4.774   8.121  10.628  0.6012 -1.2309  0.2282
  267MOL0     N36759   4.139   8.199  10.887  0.4768  0.5519  0.0003
  267MOL0     N36760   4.032   8.261  10.890  0.3135 -0.2449 -0.1403
  267MOL0     C36761   2.811   8.062  10.629 -0.5109 -0.4178  0.3453
  267MOL0     C36762   2.698   8.017  10.557 -0.0538  0.3219 -0.2392
  267MOL0     C36763   2.425   8.028  10.199  0.1475 -0.8892  0.1566
  267MOL0     C36764   2.307   7.986  10.264 -0.4593  0.0007  0.4900
  267MOL0     C36765   2.186   7.976  10.201 -0.9767  0.5456 -0.8447
  267MOL0     C36766   2.176   7.994  10.065  0.8390 -0.8252 -0.5522
  267MOL0     O36767   2.058   7.987   9.996 -0.1972 -0.1052  0.2159
  267MOL0     C36768   1.939   7.951  10.054  0.5039 -0.2030 -0.1924
  267MOL0     C36769   1.832   7.931   9.957 -0.2036  0.6623  0.2252
  267MOL0     C36770   1.685   7.921   9.996  0.2259 -0.4495 -0.1781
  267MOL0     C36771   1.596   7.860   9.890  0.9873 -0.4691 -0.5951
  267MOL0     C36772   1.452   7.854   9.935 -0.0150  1.2442 -0.2210
  267MOL0     C36773   1.341   7.833   9.976 -0.1456 -0.3761 -0.0349
  267MOL0     C36774   2.296   8.029   9.996  0.4637 -0.5390  0.4858
  267MOL0     C36775   2.418   8.054  10.061  0.2090  0.7541 -0.2936
  267MOL0     C36776   2.533   8.094   9.975  0.1225  0.4292  0.4602
  267MOL0     H36777   2.611   8.291  10.404  0.0913 -0.5374 -0.1206
  267MOL0     H36778   2.779   8.392  10.557  0.8439 -0.9353  0.3556
  267MOL0     H36779   2.923   8.449  10.710 -1.2035 -0.6302  0.9962
  267MOL0     H36780   3.054   8.385  10.608  1.8326  1.7237  1.2167
  267MOL0     H36781   3.156   8.495  10.790  2.8647  0.0963  2.3478
  267MOL0     H36782   3.078   8.387  10.910  0.5507 -0.5867  0.3702
  267MOL0     H36783   3.227   8.200  10.806  0.5202 -0.4654  3.2759
  267MOL0     H36784   3.274   8.295  10.682  0.4655 -2.3844  0.0652
  267MOL0     H36785   3.401   8.457  10.830 -0.0027  1.4124  1.9770
  267MOL0     H36786   3.330   8.378  10.967 -4.1422  0.2173 -2.2160
  267MOL0     H36787   3.538   8.258  10.766  1.4246 -1.2212  1.1986
  267MOL0     H36788   3.450   8.153  10.859  2.0738 -1.3961 -2.3636
  267MOL0     H36789   3.620   8.373  10.977 -0.2764 -0.1294 -1.7308
  267MOL0     H36790   3.513   8.252  11.064 -0.3048  1.7233  0.1900
  267MOL0     H36791   3.668   8.079  10.974  1.0150 -0.3833  1.8057
  267MOL0     H36792   3.753   8.213  11.068  0.1194  0.0726  0.5439
  267MOL0     H36793   3.748   8.161  10.764 -1.0543 -1.5366  1.3688
  267MOL0     H36794   3.793   8.318  10.832 -0.7565 -1.0393 -2.8903
  267MOL0     H36795   3.903   7.965  10.889 -0.6120  0.6767  1.7198
  267MOL0     H36796   4.165   7.889  10.797 -1.3629 -1.1134  0.8710
  267MOL0     H36797   4.193   7.882  10.978  0.7137  1.4810  0.3144
  267MOL0     H36798   4.374   8.037  10.943 -1.4889 -0.6713  0.9960
  267MOL0     H36799   4.404   7.877  10.877 -0.4239 -1.5170 -2.6912
  267MOL0     H36800   4.329   7.951  10.655 -1.9271 -1.7669  1.9823
  267MOL0     H36801   4.310   8.128  10.715 -0.7088 -0.5256 -2.3773
  267MOL0     H36802   4.487   8.175  10.617  2.6983  2.2936  1.0791
  267MOL0     H36803   4.529   8.138  10.785 -0.8541  2.2111 -0.2873
  267MOL0     H36804   4.731   7.791  10.584 -0.4390  1.0045 -0.0386
  267MOL0     H36805   5.079   7.759  10.507 -0.1957 -1.7269  1.8619
  267MOL0     H36806   4.966   7.764  10.368  0.9206 -1.0492  0.7165
  267MOL0     H36807   4.917   7.680  10.498  0.3716 -1.2896 -1.4280
  267MOL0     H36808   5.403   8.112  10.626 -0.8646  2.0466  1.1477
  267MOL0     H36809   5.632   8.159  10.520  0.7513 -2.0187 -2.0557
  267MOL0     H36810   5.761   8.108  10.222 -0.8379 -1.1375 -0.6609
  267MOL0     H36811   5.623   8.164  10.116  0.4443 -1.9191  0.6089
  267MOL0     H36812   5.804   8.237   9.995  1.3437 -1.0536  0.4436
  267MOL0     H36813   5.735   8.375  10.068 -1.6903 -0.5746  0.7434
  267MOL0     H36814   5.999   8.339  10.065  0.4956  1.4613 -0.0217
  267MOL0     H36815   5.982   8.231  10.206  0.5221 -1.2646 -2.4742
  267MOL0     H36816   6.048   8.426  10.306  1.1462 -4.0541 -1.3782
  267MOL0     H36817   5.865   8.430  10.320 -0.0108 -0.0692  0.3118
  267MOL0     H36818   5.873   8.589  10.124 -1.1479 -1.9123  0.7598
  267MOL0     H36819   5.949   8.659  10.269 -0.8585  0.4793 -0.0102
  267MOL0     H36820   6.071   8.697  10.045  1.3214  1.9070  2.7545
  267MOL0     H36821   6.127   8.537  10.049  0.8654 -0.7385  1.1361
  267MOL0     H36822   6.277   8.563  10.242 -2.7509 -1.9577  0.1958
  267MOL0     H36823   6.169   8.696  10.296 -0.6651  1.2814 -1.0961
  267MOL0     H36824   6.385   8.785  10.200 -0.2069 -1.6896 -1.0559
  267MOL0     H36825   6.242   8.855  10.142 -0.4065  0.4462  0.6106
  267MOL0     H36826   5.423   8.284  10.162  3.3486 -0.5268  0.1208
  267MOL0     H36827   5.206   8.254  10.268 -0.9172  2.1346  1.8357
  267MOL0     H36828   4.948   8.230  10.594 -1.2289  0.1310  3.4994
  267MOL0     H36829   4.730   8.213  10.664 -1.4094 -1.0000 -2.4544
  267MOL0     H36830   2.871   7.996  10.690  5.0373  1.9789 -1.8465
  267MOL0     H36831   2.673   7.911  10.565 -0.8808  0.4338 -1.2063
  267MOL0     H36832   2.316   7.964  10.370  0.9326 -0.1891  0.3560
  267MOL0     H36833   2.092   7.954  10.251 -1.7540 -0.5117 -2.6683
  267MOL0     H36834   1.960   7.860  10.110  1.7697 -0.5426 -1.1639
  267MOL0     H36835   1.909   8.031  10.123 -0.7946 -0.7867 -0.0680
  267MOL0     H36836   1.851   7.843   9.896 -0.4317  0.8185 -0.0774
  267MOL0     H36837   1.853   8.010   9.884  1.6614  0.6682  0.7331
  267MOL0     H36838   1.680   7.877  10.096 -1.3575  0.9501  0.3945
  267MOL0     H36839   1.651   8.025  10.005  3.5361  0.7296  0.2094
  267MOL0     H36840   1.638   7.760   9.872 -1.0239 -2.0174  2.4936
  267MOL0     H36841   1.606   7.928   9.805  0.1494  0.5423  0.0951
  267MOL0     H36842   1.248   7.802  10.018 -0.0306 -0.4403  0.1739
  267MOL0     H36843   2.295   8.033   9.887 -0.5124 -0.7201  0.4720
  267MOL0     H36844   2.500   8.149   9.887 -3.2181 -0.4659  1.0123
  267MOL0     H36845   2.608   8.158  10.021  1.9152 -1.1493 -0.0999
  267MOL0     H36846   2.591   8.004   9.950  3.3870  2.0979  1.3820
  268MOL0     O36847   1.366   7.000   1.987 -0.7420  0.1269  0.6180
  268MOL0     C36848   1.262   6.937   2.003 -1.0913 -0.5325  0.4407
  268MOL0     O36849   1.205   6.919   2.119  0.5809  0.0672 -0.2431
  268MOL0     C36850   1.279   6.935   2.234  0.4957  0.9795  0.5966
  268MOL0     C36851   1.417   6.903   2.254 -0.6235 -0.1450 -0.5304
  268MOL0     C36852   1.482   6.947   2.367 -0.4097  0.0766 -0.4483
  268MOL0     C36853   1.411   7.000   2.476  0.3938  0.1617  0.3144
  268MOL0     O36854   1.487   7.035   2.580  0.5418 -0.0870 -0.1898
  268MOL0     C36855   1.570   7.157   2.570 -0.7446  0.2913 -0.2482
  268MOL0     C36856   1.642   7.187   2.703 -1.3302 -0.1239 -0.1216
  268MOL0     C36857   1.708   7.072   2.767  0.0605  0.1992 -0.4261
  268MOL0     C36858   1.798   6.988   2.682 -0.5856 -0.0125  0.4622
  268MOL0     C36859   1.858   6.874   2.761  0.1109 -0.6492 -0.6270
  268MOL0     C36860   1.924   6.787   2.655 -0.0998 -0.2716 -0.8083
  268MOL0     C36861   2.028   6.696   2.717  0.0730  0.2663  0.0281
  268MOL0     C36862   2.065   6.583   2.617  0.0738  0.4395  0.3552
  268MOL0     N36863   2.204   6.540   2.617 -0.3920 -0.5552  0.0953
  268MOL0     C36864   2.311   6.623   2.577 -0.1462 -0.3397 -0.4407
  268MOL0     C36865   2.409   6.526   2.564 -1.0790 -0.2230  0.5332
  268MOL0     C36866   2.547   6.564   2.498 -0.0669 -0.1296 -0.9257
  268MOL0     C36867   2.624   6.441   2.449  0.1967 -0.9941 -0.1325
  268MOL0     C36868   2.742   6.485   2.362  0.2752 -1.3216 -0.8358
  268MOL0     C36869   2.815   6.369   2.288 -0.2082 -0.1405  0.2002
  268MOL0     O36870   2.909   6.426   2.187  0.4008 -0.0984 -0.2079
  268MOL0     C36871   2.984   6.334   2.112 -0.3306 -0.9031 -0.3740
  268MOL0     C36872   2.941   6.203   2.095 -0.8377 -0.0309 -0.1108
  268MOL0     C36873   3.006   6.108   2.015  0.5699  0.2511 -0.8721
  268MOL0     C36874   2.944   5.967   2.021  0.7451 -0.0569  0.6042
  268MOL0     C36875   3.123   6.153   1.946  0.6993 -0.2169  0.2304
  268MOL0     C36876   3.189   6.059   1.851 -0.3766  0.4095 -0.9888
  268MOL0     O36877   3.316   6.091   1.816 -0.4602 -0.5030 -0.1396
  268MOL0     C36878   3.370   6.023   1.711  0.0520  0.0830 -0.2088
  268MOL0     C36879   3.408   5.892   1.729  0.6214 -0.4599  0.7036
  268MOL0     C36880   3.459   5.817   1.619 -0.7139  0.5743 -0.7953
  268MOL0     C36881   3.463   5.876   1.491 -0.5711 -0.1921  0.2995
  268MOL0     O36882   3.535   5.809   1.399  0.5400 -0.0861 -0.4853
  268MOL0     C36883   3.617   5.884   1.298 -0.2132  0.1897 -0.3771
  268MOL0     C36884   3.750   5.815   1.260  0.7258 -0.3281 -0.1616
  268MOL0     C36885   3.838   5.802   1.387 -0.2855 -0.0649  0.2107
  268MOL0     C36886   3.985   5.756   1.350  0.0988  0.2431  0.1133
  268MOL0     C36887   4.081   5.734   1.468  0.5955 -0.2521 -0.0441
  268MOL0     C36888   4.161   5.866   1.501 -0.1820  0.0008  0.4268
  268MOL0     C36889   4.258   5.916   1.402  0.3054  0.1020  0.2224
  268MOL0     C36890   4.324   6.044   1.445  0.0975  0.4721 -0.2626
  268MOL0    Cl36891   4.421   5.997   1.600 -0.2042 -0.1873 -0.0859
  268MOL0     C36892   3.435   6.012   1.471 -0.8016 -0.3020 -0.0654
  268MOL0     C36893   3.377   6.079   1.580  0.0364 -0.0392 -1.1728
  268MOL0     O36894   3.124   5.978   1.796 -0.1153  0.2686  0.1817
  268MOL0     C36895   3.162   6.289   1.950 -0.0042 -0.5522  0.6660
  268MOL0     C36896   3.095   6.381   2.035  0.0808  0.7390  0.3519
  268MOL0     N36897   2.367   6.401   2.613 -0.1617  1.0469  0.2435
  268MOL0     N36898   2.244   6.411   2.638  0.6000 -0.5513 -0.1506
  268MOL0     C36899   1.270   7.008   2.465  0.0218  0.6304 -0.0811
  268MOL0     C36900   1.210   6.966   2.347  0.3597  0.2320 -0.4723
  268MOL0     C36901   1.185   6.885   1.882  0.5558 -0.5355 -0.8691
  268MOL0     C36902   1.036   6.884   1.905 -0.6183  1.7852 -0.1348
  268MOL0     C36903   0.951   6.863   1.799  0.5220  0.1871 -0.0028
  268MOL0     C36904   0.999   6.825   1.677  0.1496  0.5019  0.1262
  268MOL0     O36905   0.902   6.806   1.583 -0.2107  0.6772  0.5495
  268MOL0     C36906   0.863   6.668   1.559 -0.4123 -0.2222  0.7389
  268MOL0     C36907   0.794   6.672   1.413  0.4624 -0.4808 -0.1242
  268MOL0     C36908   0.872   6.742   1.305 -0.1806 -0.4108 -0.6247
  268MOL0     C36909   0.793   6.746   1.174  0.5558  0.0691 -0.7218
  268MOL0     C36910   0.881   6.802   1.074 -0.7153 -1.0149  1.1293
  268MOL0     C36911   0.979   6.829   1.007  0.1956  0.5532 -0.1304
  268MOL0     C36912   1.139   6.824   1.655 -0.2440 -0.9593  0.6694
  268MOL0     C36913   1.234   6.863   1.748  1.2002  0.3656  0.4823
  268MOL0     C36914   1.380   6.894   1.709  0.9394  0.3765 -0.4622
  268MOL0     H36915   1.465   6.858   2.168  0.8694  0.0534  0.1780
  268MOL0     H36916   1.590   6.947   2.377 -0.5310  2.3631  2.7677
  268MOL0     H36917   1.508   7.240   2.532  2.9871  2.1829 -2.8344
  268MOL0     H36918   1.653   7.142   2.501 -0.2288 -2.8667  0.9204
  268MOL0     H36919   1.714   7.268   2.688  0.0997 -1.2924  0.1256
  268MOL0     H36920   1.572   7.227   2.777 -2.2718 -1.2432 -0.3745
  268MOL0     H36921   1.769   7.114   2.848  0.0991 -2.2007  0.8614
  268MOL0     H36922   1.638   7.000   2.810  0.9771  0.2814  1.2723
  268MOL0     H36923   1.740   6.953   2.596  0.3970  0.3357 -0.3614
  268MOL0     H36924   1.877   7.052   2.643  1.6094 -1.9614  1.4796
  268MOL0     H36925   1.780   6.820   2.816 -0.2416 -0.3017 -0.7838
  268MOL0     H36926   1.926   6.916   2.836 -0.8890 -1.9173  1.0890
  268MOL0     H36927   1.843   6.730   2.610  1.0364 -3.6152  1.0160
  268MOL0     H36928   1.977   6.844   2.578 -0.3738 -0.4075 -1.0959
  268MOL0     H36929   2.002   6.656   2.815 -1.5243  2.1705  0.4339
  268MOL0     H36930   2.111   6.765   2.736 -1.6548  1.5357  3.8323
  268MOL0     H36931   2.003   6.492   2.618 -0.8414  0.9712 -1.9116
  268MOL0     H36932   2.046   6.630   2.520 -0.1607 -0.4024 -0.0214
  268MOL0     H36933   2.316   6.726   2.543 -0.1689 -0.3423 -0.4521
  268MOL0     H36934   2.604   6.623   2.571  1.2116 -2.8016  0.3913
  268MOL0     H36935   2.530   6.624   2.408 -1.8979 -0.0345 -0.5561
  268MOL0     H36936   2.660   6.398   2.543  3.1459  0.8466 -0.2699
  268MOL0     H36937   2.561   6.373   2.392 -0.9893 -0.7196  0.8232
  268MOL0     H36938   2.707   6.549   2.280  0.6591 -0.6974 -0.5241
  268MOL0     H36939   2.818   6.537   2.421  0.2035 -3.3363  1.1565
  268MOL0     H36940   2.864   6.311   2.367  0.6633  1.3151  0.7690
  268MOL0     H36941   2.743   6.308   2.233  1.0975  0.7290 -2.6104
  268MOL0     H36942   2.847   6.175   2.143 -2.1691 -2.7197 -3.8081
  268MOL0     H36943   3.022   5.894   2.000 -0.5261 -1.8204  1.6781
  268MOL0     H36944   2.879   5.965   1.933 -0.2574  2.7266  1.1550
  268MOL0     H36945   2.895   5.947   2.117 -0.0690 -0.0287  0.2091
  268MOL0     H36946   3.397   5.851   1.829  0.9402  1.7197  1.6817
  268MOL0     H36947   3.517   5.729   1.645  2.4724  2.3329 -1.3849
  268MOL0     H36948   3.565   5.927   1.213  1.5649  3.1627 -0.1047
  268MOL0     H36949   3.654   5.970   1.355 -0.6826 -0.2199  0.5652
  268MOL0     H36950   3.734   5.721   1.206  2.4686 -1.0087  0.4641
  268MOL0     H36951   3.800   5.875   1.184 -0.6817 -0.4937 -1.2691
  268MOL0     H36952   3.795   5.729   1.457 -1.1302 -1.5585 -1.7767
  268MOL0     H36953   3.844   5.898   1.440  1.0522 -0.0189  0.0050
  268MOL0     H36954   4.034   5.821   1.277 -0.5151  1.8074  1.0512
  268MOL0     H36955   3.960   5.662   1.299 -1.4326  0.0226  1.1913
  268MOL0     H36956   4.016   5.706   1.551 -1.9103  0.4622 -1.6463
  268MOL0     H36957   4.149   5.650   1.457 -0.2035 -1.0224  0.7521
  268MOL0     H36958   4.217   5.834   1.589 -1.1362  0.5542  1.2493
  268MOL0     H36959   4.090   5.946   1.524 -2.9936 -1.9690 -0.7821
  268MOL0     H36960   4.207   5.934   1.307  2.3146 -0.9214 -1.1222
  268MOL0     H36961   4.327   5.832   1.386  0.5335 -0.4075  3.2852
  268MOL0     H36962   4.255   6.126   1.464 -0.6536 -0.6633  2.5419
  268MOL0     H36963   4.394   6.067   1.365 -0.1688  1.1850 -0.2942
  268MOL0     H36964   3.452   6.069   1.380 -0.0872 -2.8904 -1.6398
  268MOL0     H36965   3.365   6.187   1.574  0.6637  0.2118  1.0496
  268MOL0     H36966   3.242   6.331   1.889 -2.4128  1.7753 -1.1169
  268MOL0     H36967   3.136   6.481   2.038 -1.4819  1.3899  0.7021
  268MOL0     H36968   1.216   7.033   2.555  2.1842 -0.3644  1.5818
  268MOL0     H36969   1.103   6.974   2.336  0.4902  0.0650 -2.1272
  268MOL0     H36970   0.988   6.892   2.002 -3.2167  1.0430 -1.2655
  268MOL0     H36971   0.843   6.861   1.805  0.5927 -0.3375  3.8041
  268MOL0     H36972   0.956   6.611   1.546 -0.0702  0.8891 -2.6828
  268MOL0     H36973   0.801   6.630   1.640  0.5748 -1.5077  0.9234
  268MOL0     H36974   0.695   6.716   1.422 -0.0408 -0.8321 -2.9440
  268MOL0     H36975   0.773   6.573   1.371  0.0011 -0.0119 -1.0248
  268MOL0     H36976   0.898   6.846   1.327  2.6548 -0.6362 -2.3367
  268MOL0     H36977   0.969   6.691   1.302 -0.3463 -0.8582  0.7865
  268MOL0     H36978   0.709   6.814   1.189  2.5116  2.6204 -0.5358
  268MOL0     H36979   0.759   6.644   1.154 -0.8321  0.2661  0.4733
  268MOL0     H36980   1.074   6.840   0.959 -0.1071 -1.4869 -1.3191
  268MOL0     H36981   1.181   6.805   1.557 -0.1234  0.2092  0.4805
  268MOL0     H36982   1.394   7.002   1.718  1.4587  0.3039 -0.3778
  268MOL0     H36983   1.450   6.849   1.779 -1.2320  1.7679  2.8749
  268MOL0     H36984   1.416   6.846   1.618  1.4449 -0.4434  0.1620
  269MOL0     O36985   1.386   4.663   4.246 -0.6152  0.3473  0.0015
  269MOL0     C36986   1.343   4.727   4.147  0.5085  0.0195 -0.4601
  269MOL0     O36987   1.378   4.708   4.023 -0.0802  0.0593  0.4293
  269MOL0     C36988   1.457   4.605   3.986  0.0899 -0.2450  0.1062
  269MOL0     C36989   1.408   4.472   3.988 -0.6595  0.8074  0.5714
  269MOL0     C36990   1.491   4.363   3.943 -0.4006 -0.8908 -0.4838
  269MOL0     C36991   1.611   4.399   3.877 -0.3874  0.2781  0.4407
  269MOL0     O36992   1.705   4.308   3.832 -0.2979  0.6480 -0.1748
  269MOL0     C36993   1.737   4.211   3.931  0.7609  0.1081  0.6175
  269MOL0     C36994   1.851   4.128   3.870  0.1000  0.4124 -0.1800
  269MOL0     C36995   1.991   4.189   3.899  0.1747  0.7244 -0.6663
  269MOL0     C36996   2.002   4.345   3.913  0.5708 -0.6343 -0.7381
  269MOL0     C36997   2.144   4.387   3.954 -0.1192 -0.8841 -0.7188
  269MOL0     C36998   2.149   4.543   3.974 -0.9954  0.7041  0.2022
  269MOL0     C36999   2.282   4.597   4.041  0.4597  0.3087 -0.1462
  269MOL0     C37000   2.258   4.739   4.079  0.0543 -0.5624 -0.8364
  269MOL0     N37001   2.383   4.780   4.157 -1.0755 -0.7082 -0.0919
  269MOL0     C37002   2.382   4.825   4.292  0.0936  0.5101 -0.1668
  269MOL0     C37003   2.506   4.886   4.305  0.3501 -0.4222 -0.5509
  269MOL0     C37004   2.552   4.924   4.447  0.3859 -0.7665  0.5433
  269MOL0     C37005   2.703   4.967   4.437  0.2582  0.0345  0.4833
  269MOL0     C37006   2.754   5.006   4.579 -0.2193 -0.5928 -0.0883
  269MOL0     C37007   2.901   5.043   4.572 -0.2444 -0.4889  0.2530
  269MOL0     O37008   2.956   5.035   4.701  0.5099  0.3096  0.8250
  269MOL0     C37009   3.083   5.085   4.728 -0.2514 -0.8610 -0.3500
  269MOL0     C37010   3.149   5.038   4.843  0.6443  0.3600 -0.0505
  269MOL0     C37011   3.280   5.061   4.883 -0.4240  0.6066 -0.2981
  269MOL0     C37012   3.326   4.996   5.012  0.7095  0.5971  0.1358
  269MOL0     C37013   3.362   5.136   4.797 -0.7161 -0.6111 -0.1092
  269MOL0     C37014   3.514   5.142   4.821 -0.3941 -0.2627 -0.4167
  269MOL0     O37015   3.578   5.234   4.745 -0.0051  0.0334 -0.6413
  269MOL0     C37016   3.707   5.266   4.779  0.5681 -0.3122 -0.0039
  269MOL0     C37017   3.730   5.382   4.852 -0.6881  0.1228 -0.8663
  269MOL0     C37018   3.866   5.415   4.884  0.1466  0.0944 -0.0614
  269MOL0     C37019   3.979   5.344   4.843 -0.2873 -0.4039 -1.3341
  269MOL0     O37020   4.102   5.379   4.891 -0.6002  0.1745  0.7933
  269MOL0     C37021   4.216   5.321   4.830 -0.3367 -0.2066 -0.0758
  269MOL0     C37022   4.332   5.401   4.892  0.3615  0.0620  0.6161
  269MOL0     C37023   4.467   5.404   4.804  0.2120  0.1068  0.1576
  269MOL0     C37024   4.585   5.490   4.867  0.8067 -0.2341 -0.9518
  269MOL0     C37025   4.707   5.460   4.783 -0.1645 -0.2460  0.3587
  269MOL0     C37026   4.824   5.552   4.820  0.7703 -0.2400 -0.1498
  269MOL0     C37027   4.845   5.577   4.972 -0.4249 -0.1835 -0.6045
  269MOL0     C37028   4.992   5.618   5.007  0.0534 -0.1635  1.1289
  269MOL0    Cl37029   5.022   5.788   4.952  0.2486  0.0590  0.2220
  269MOL0     C37030   3.945   5.225   4.774  0.6132  0.3403 -0.5466
  269MOL0     C37031   3.813   5.190   4.729 -0.0902  0.4851 -0.4025
  269MOL0     O37032   3.572   5.059   4.893 -0.8236  0.3488  0.1948
  269MOL0     C37033   3.299   5.212   4.693 -0.3037  0.5723 -1.0390
  269MOL0     C37034   3.164   5.178   4.653 -0.5922  0.1054  0.0355
  269MOL0     N37035   2.569   4.894   4.180  0.6781 -0.5092 -0.0973
  269MOL0     N37036   2.497   4.824   4.094 -0.4015 -0.9543  0.2860
  269MOL0     C37037   1.658   4.532   3.870  0.3427 -0.5893 -0.2086
  269MOL0     C37038   1.580   4.638   3.922 -0.0221  0.1279  0.2738
  269MOL0     C37039   1.226   4.824   4.166  0.9244  0.4855 -0.4036
  269MOL0     C37040   1.212   4.933   4.082  0.0115 -0.8325  0.5375
  269MOL0     C37041   1.115   5.039   4.098 -0.7981 -0.2067  0.0744
  269MOL0     C37042   1.023   5.018   4.198  0.1523 -0.4019  0.5110
  269MOL0     O37043   0.919   5.113   4.204 -0.0457  0.3593 -0.0275
  269MOL0     C37044   0.896   5.173   4.331 -0.4138 -0.4092  0.5286
  269MOL0     C37045   0.830   5.308   4.318 -0.1732 -0.5073  0.8716
  269MOL0     C37046   0.830   5.396   4.443  0.6079  0.5114  1.1286
  269MOL0     C37047   0.759   5.329   4.569  0.4362 -0.5972 -0.8374
  269MOL0     C37048   0.619   5.294   4.540  0.7082  0.3041  0.8220
  269MOL0     C37049   0.501   5.266   4.511  1.0325  0.9581  0.5232
  269MOL0     C37050   1.026   4.910   4.280  0.5969  0.0848 -0.0579
  269MOL0     C37051   1.127   4.813   4.269 -0.0613  0.6228 -0.6902
  269MOL0     C37052   1.096   4.690   4.357 -0.7101  0.2431 -0.3681
  269MOL0     H37053   1.326   4.446   4.054  0.4332  2.2218  2.5986
  269MOL0     H37054   1.476   4.256   3.950 -1.2669 -0.7900 -0.7285
  269MOL0     H37055   1.647   4.153   3.951  0.5866  0.4821  0.9080
  269MOL0     H37056   1.776   4.254   4.024 -1.3835  0.2812  1.4827
  269MOL0     H37057   1.852   4.033   3.924 -0.5801  0.9514  0.8226
  269MOL0     H37058   1.840   4.112   3.763 -2.1585 -1.9946  0.3190
  269MOL0     H37059   2.033   4.153   3.993  1.2343  0.7188 -1.1301
  269MOL0     H37060   2.065   4.148   3.829 -0.0598  0.0515 -0.5298
  269MOL0     H37061   1.982   4.393   3.817 -0.9755  1.0095  0.3374
  269MOL0     H37062   1.929   4.382   3.985 -1.1731 -1.0210 -2.2282
  269MOL0     H37063   2.210   4.360   3.871  0.0201 -0.2455 -0.8174
  269MOL0     H37064   2.184   4.337   4.042 -0.3892 -0.0023 -0.0869
  269MOL0     H37065   2.132   4.578   3.872  2.4547 -0.2258 -0.8471
  269MOL0     H37066   2.064   4.577   4.034 -1.4511  0.5479 -0.3515
  269MOL0     H37067   2.373   4.574   3.985  0.5927 -2.8180  1.1183
  269MOL0     H37068   2.295   4.540   4.134  0.4835  1.9050  0.8604
  269MOL0     H37069   2.247   4.791   3.983 -1.5308  0.3877 -0.1718
  269MOL0     H37070   2.163   4.742   4.132 -1.3212  1.1224 -3.1957
  269MOL0     H37071   2.323   4.798   4.379 -0.4979  2.0957 -0.0535
  269MOL0     H37072   2.544   4.846   4.523 -1.4793  0.4530  1.6712
  269MOL0     H37073   2.490   5.010   4.476 -0.1354 -1.2010  0.7295
  269MOL0     H37074   2.763   4.883   4.401  3.2647  2.2465 -0.0347
  269MOL0     H37075   2.717   5.054   4.372  0.6813  0.6604  1.4002
  269MOL0     H37076   2.703   5.092   4.624  1.0775  1.5094 -2.3825
  269MOL0     H37077   2.749   4.910   4.631 -0.5807 -1.2687 -1.3496
  269MOL0     H37078   2.952   4.976   4.503 -1.9836 -2.5462  0.8658
  269MOL0     H37079   2.907   5.143   4.527 -2.9702 -1.3411 -2.2879
  269MOL0     H37080   3.086   4.980   4.909 -0.8390  0.7816 -1.0443
  269MOL0     H37081   3.239   4.971   5.073  1.8859 -3.6083  0.3770
  269MOL0     H37082   3.395   5.062   5.065  1.7666 -1.9333  2.1567
  269MOL0     H37083   3.364   4.895   4.994 -3.4404 -1.4530  1.5535
  269MOL0     H37084   3.648   5.443   4.887 -0.1305 -0.6500  2.0884
  269MOL0     H37085   3.885   5.494   4.956  0.1260 -0.5592  0.6805
  269MOL0     H37086   4.223   5.214   4.848  1.5447  0.0336  0.9330
  269MOL0     H37087   4.205   5.334   4.722 -0.5086  0.7410  0.0457
  269MOL0     H37088   4.308   5.507   4.899  1.2851  0.3323 -0.0309
  269MOL0     H37089   4.344   5.364   4.994 -1.7872  1.7454  1.5435
  269MOL0     H37090   4.434   5.433   4.704 -0.2736 -0.6407  0.0903
  269MOL0     H37091   4.487   5.297   4.793 -3.4859 -0.5938 -1.0470
  269MOL0     H37092   4.597   5.459   4.971 -1.5856  0.1628 -0.4860
  269MOL0     H37093   4.551   5.594   4.861  0.5155 -0.0422  2.3130
  269MOL0     H37094   4.737   5.357   4.805 -0.6844 -0.7408 -1.0909
  269MOL0     H37095   4.669   5.474   4.681  0.3171  0.7771  0.3072
  269MOL0     H37096   4.795   5.646   4.770 -0.7492 -0.8872 -0.5379
  269MOL0     H37097   4.918   5.529   4.769  1.7956  1.7255  0.7652
  269MOL0     H37098   4.823   5.482   5.023  1.1909 -0.2781 -0.0309
  269MOL0     H37099   4.782   5.651   5.023 -0.5405 -1.8405  1.8685
  269MOL0     H37100   5.066   5.558   4.953  1.8598  3.0247 -0.2353
  269MOL0     H37101   5.013   5.605   5.113 -1.6371  0.6158  1.5950
  269MOL0     H37102   4.028   5.165   4.737  1.0037  1.1316 -0.9666
  269MOL0     H37103   3.791   5.102   4.670 -2.7236 -0.0378  1.1702
  269MOL0     H37104   3.350   5.275   4.621  0.0180 -1.3673 -2.6175
  269MOL0     H37105   3.121   5.243   4.576 -1.2300  1.2585  1.3148
  269MOL0     H37106   1.745   4.548   3.806  0.4394 -0.8785 -0.1515
  269MOL0     H37107   1.591   4.745   3.910 -0.3596  0.1468  0.1266
  269MOL0     H37108   1.289   4.940   4.006  0.8055 -0.2259  1.3729
  269MOL0     H37109   1.105   5.127   4.035 -0.9976  0.3791  0.9062
  269MOL0     H37110   0.839   5.104   4.393 -0.5422  0.7097  1.7098
  269MOL0     H37111   0.986   5.185   4.392 -0.7738 -1.6873  1.3450
  269MOL0     H37112   0.729   5.300   4.278 -0.0504 -1.3879  0.7129
  269MOL0     H37113   0.894   5.362   4.247 -0.2487 -0.9586  0.4517
  269MOL0     H37114   0.931   5.429   4.467  1.6971 -0.5609 -1.6258
  269MOL0     H37115   0.784   5.491   4.413  1.8300  0.5699 -0.7367
  269MOL0     H37116   0.747   5.403   4.648 -1.2097  0.6029 -2.1249
  269MOL0     H37117   0.813   5.245   4.612  0.2361  0.1902  1.0646
  269MOL0     H37118   0.405   5.229   4.480  2.3559 -0.3796 -2.3876
  269MOL0     H37119   0.952   4.902   4.359  0.5102 -2.2143 -0.3132
  269MOL0     H37120   1.050   4.614   4.293 -0.0022 -2.0224  1.6598
  269MOL0     H37121   1.187   4.647   4.400 -3.0930 -2.0893  2.8578
  269MOL0     H37122   1.036   4.715   4.445  0.0498 -1.3828  0.6623
  270MOL0     O37123   7.015  10.750   3.346  0.2461 -0.7923 -0.0770
  270MOL0     C37124   7.055  10.676   3.438 -0.2380 -1.3802 -0.2791
  270MOL0     O37125   7.173  10.700   3.509  0.6442 -0.3192  0.5429
  270MOL0     C37126   7.274  10.777   3.478  0.2697 -0.8860 -0.5249
  270MOL0     C37127   7.379  10.787   3.576  0.4046  0.9731 -0.8249
  270MOL0     C37128   7.501  10.854   3.555 -0.5888  0.2430 -0.0459
  270MOL0     C37129   7.519  10.918   3.434  0.2656  0.7144 -0.0132
  270MOL0     O37130   7.631  10.997   3.426 -0.4421 -0.0469  0.0419
  270MOL0     C37131   7.676  11.045   3.296  1.0776 -0.0649  0.4429
  270MOL0     C37132   7.817  11.101   3.297 -0.7035 -0.4497 -0.1029
  270MOL0     C37133   7.831  11.225   3.376  0.9653  0.4917 -1.0241
  270MOL0     C37134   7.972  11.262   3.423 -0.4023 -0.0296 -0.1589
  270MOL0     C37135   8.079  11.275   3.312  0.2107  0.6541 -0.6520
  270MOL0     C37136   8.200  11.358   3.357 -0.0822  0.1493  1.1506
  270MOL0     C37137   8.319  11.335   3.265  0.1123 -0.2350 -0.7513
  270MOL0     C37138   8.314  11.376   3.124 -0.2628  0.4244  0.3311
  270MOL0     N37139   8.299  11.522   3.106 -0.0177  0.2971 -0.7511
  270MOL0     C37140   8.398  11.612   3.144 -0.6416  0.0047  0.2854
  270MOL0     C37141   8.348  11.730   3.103 -0.7983 -0.6094 -0.2983
  270MOL0     C37142   8.424  11.868   3.112  0.6989  0.3316  0.4784
  270MOL0     C37143   8.533  11.876   3.005  0.1563 -1.0799 -0.6597
  270MOL0     C37144   8.616  12.002   3.033  0.2360  0.5845 -0.9492
  270MOL0     C37145   8.760  11.979   2.985 -0.0184 -0.3928 -0.1011
  270MOL0     O37146   8.833  11.877   3.049  0.6190  0.8598  0.2335
  270MOL0     C37147   8.953  11.834   3.010 -1.0864 -0.4534 -0.1518
  270MOL0     C37148   9.014  11.742   3.100  0.5053  0.5637 -0.1265
  270MOL0     C37149   9.147  11.693   3.064  0.1671 -0.3083  0.2335
  270MOL0     C37150   9.213  11.618   3.181  0.9954  0.1022 -0.1726
  270MOL0     C37151   9.216  11.735   2.949 -0.1808  0.3852 -0.1755
  270MOL0     C37152   9.352  11.700   2.920 -0.0324 -0.3059 -0.1483
  270MOL0     O37153   9.418  11.791   2.852 -0.8242 -0.0969  0.2679
  270MOL0     C37154   9.552  11.787   2.864  1.1066 -0.7172 -0.2082
  270MOL0     C37155   9.634  11.692   2.798 -0.5278 -0.4674  0.8975
  270MOL0     C37156   9.776  11.686   2.811 -0.2595  0.1002 -0.9891
  270MOL0     C37157   9.849  11.783   2.884  0.0453  0.0947  0.0301
  270MOL0     O37158   9.985  11.798   2.890  0.8463  0.2590  0.7381
  270MOL0     C37159  10.070  11.754   2.789  0.3818  0.1529  0.6069
  270MOL0     C37160  10.213  11.795   2.825  0.2902 -0.2878 -0.1150
  270MOL0     C37161  10.311  11.796   2.711 -0.1294  0.8594 -0.8496
  270MOL0     C37162  10.445  11.846   2.765  0.2416 -1.1073  0.7426
  270MOL0     C37163  10.560  11.797   2.689 -0.6909 -0.0985  0.3369
  270MOL0     C37164  10.695  11.837   2.739 -0.0404  0.5932 -0.1586
  270MOL0     C37165  10.742  11.973   2.684  0.6770 -0.1100  0.0542
  270MOL0     C37166  10.843  12.046   2.772  0.8110 -0.0638  0.2453
  270MOL0    Cl37167  10.958  11.945   2.852  0.3174  0.1650 -0.0366
  270MOL0     C37168   9.766  11.882   2.949  0.3243 -0.4002 -0.2291
  270MOL0     C37169   9.622  11.879   2.943 -0.5982 -0.4592 -0.1746
  270MOL0     O37170   9.386  11.592   2.951  0.1062  0.2881 -0.2988
  270MOL0     C37171   9.145  11.823   2.869  0.7185 -0.3795  0.4955
  270MOL0     C37172   9.015  11.868   2.895 -0.1139 -0.5463 -0.2464
  270MOL0     N37173   8.222  11.710   3.045 -0.0609 -0.9706 -0.0785
  270MOL0     N37174   8.203  11.584   3.034  0.2294  0.4287  0.5645
  270MOL0     C37175   7.415  10.923   3.338 -0.3457  0.4346  0.0578
  270MOL0     C37176   7.305  10.842   3.357  0.7880  0.4476  0.5249
  270MOL0     C37177   6.970  10.549   3.461 -0.2555  0.4736 -0.2366
  270MOL0     C37178   6.837  10.548   3.413 -0.1777  0.2033 -0.9774
  270MOL0     C37179   6.752  10.439   3.425  0.0023 -0.1692  0.3389
  270MOL0     C37180   6.807  10.316   3.462 -0.7451 -0.3069  0.7126
  270MOL0     O37181   6.716  10.218   3.460  0.2176  0.2347  0.7533
  270MOL0     C37182   6.736  10.082   3.506  0.8625 -0.2847 -0.0744
  270MOL0     C37183   6.600  10.018   3.532 -0.6342  0.1751  0.2269
  270MOL0     C37184   6.510  10.023   3.410 -0.4383  1.3272  0.4995
  270MOL0     C37185   6.559   9.952   3.280 -0.5592  0.1911 -0.5772
  270MOL0     C37186   6.516   9.811   3.286  0.2941 -0.7119  0.1835
  270MOL0     C37187   6.475   9.697   3.306 -0.1071 -0.4601 -0.6344
  270MOL0     C37188   6.932  10.317   3.524 -0.2314  0.3948 -0.6948
  270MOL0     C37189   7.016  10.429   3.530 -1.2164 -0.3371 -0.3003
  270MOL0     C37190   7.149  10.422   3.600 -0.2675 -0.2271  0.3224
  270MOL0     H37191   7.360  10.738   3.671  4.2269  1.3424  0.3028
  270MOL0     H37192   7.571  10.857   3.637 -0.1390 -1.1460 -0.3580
  270MOL0     H37193   7.597  11.111   3.260 -3.4392 -5.5809 -1.3344
  270MOL0     H37194   7.673  10.965   3.221 -2.4926 -0.1719  0.5223
  270MOL0     H37195   7.880  11.023   3.342  0.0167  0.1279 -0.1086
  270MOL0     H37196   7.845  11.115   3.192 -1.1761 -0.4788 -0.2354
  270MOL0     H37197   7.775  11.303   3.323 -1.3601 -0.7677 -0.5491
  270MOL0     H37198   7.772  11.211   3.467 -1.4685 -3.4887 -2.9958
  270MOL0     H37199   7.962  11.358   3.476 -2.6762 -1.8312  3.0661
  270MOL0     H37200   8.019  11.198   3.498 -0.9478  0.8166  0.9471
  270MOL0     H37201   8.026  11.307   3.222 -2.6484 -3.6441 -0.7942
  270MOL0     H37202   8.113  11.173   3.293  2.0993  0.8649  1.2209
  270MOL0     H37203   8.161  11.461   3.358 -3.4922 -1.0155  1.5177
  270MOL0     H37204   8.226  11.336   3.461  1.8051  1.6667  1.0635
  270MOL0     H37205   8.332  11.227   3.267 -2.5046 -0.6207 -1.5722
  270MOL0     H37206   8.413  11.369   3.312 -1.5092  3.0182  0.4974
  270MOL0     H37207   8.393  11.338   3.059 -1.6053 -3.8637  0.9114
  270MOL0     H37208   8.219  11.339   3.082 -1.1979  3.2850 -0.3085
  270MOL0     H37209   8.495  11.587   3.185 -1.1856 -0.8178  1.1137
  270MOL0     H37210   8.462  11.880   3.213  1.8781  1.7725 -0.1085
  270MOL0     H37211   8.344  11.942   3.102 -1.4622 -1.5995  2.3949
  270MOL0     H37212   8.597  11.789   3.027  0.1988 -0.9205 -0.1345
  270MOL0     H37213   8.499  11.881   2.901 -0.7039  2.0738 -0.3244
  270MOL0     H37214   8.577  12.090   2.982  0.5475 -0.1397 -2.4896
  270MOL0     H37215   8.623  12.020   3.141 -0.2395  0.4437 -0.8919
  270MOL0     H37216   8.759  11.970   2.876 -1.4088  1.0703 -0.2431
  270MOL0     H37217   8.825  12.067   2.991 -1.4415  1.3483 -5.3634
  270MOL0     H37218   8.963  11.712   3.192 -2.5453  2.2632 -1.1269
  270MOL0     H37219   9.179  11.647   3.280 -0.3937 -0.0385 -0.5944
  270MOL0     H37220   9.321  11.637   3.182  0.7734  1.4546  0.9840
  270MOL0     H37221   9.194  11.511   3.167  1.4716 -0.6390  3.7951
  270MOL0     H37222   9.567  11.635   2.734 -0.0570  0.3913 -0.4008
  270MOL0     H37223   9.838  11.615   2.757  2.0427 -0.0961  1.7047
  270MOL0     H37224  10.070  11.645   2.774  1.4393  0.3430 -0.9872
  270MOL0     H37225  10.054  11.811   2.697  2.1136  1.1740  0.8922
  270MOL0     H37226  10.207  11.899   2.857  4.1591 -0.3774  1.5743
  270MOL0     H37227  10.246  11.739   2.913 -2.3455 -0.8818  0.5587
  270MOL0     H37228  10.282  11.866   2.632  1.1540  0.8648 -1.3341
  270MOL0     H37229  10.318  11.698   2.664 -3.2103  0.9932 -1.8082
  270MOL0     H37230  10.458  11.819   2.870  4.8208 -3.2675 -0.1241
  270MOL0     H37231  10.446  11.956   2.763 -0.8141 -1.0364 -2.4754
  270MOL0     H37232  10.558  11.687   2.684 -0.4280 -0.1907  1.7468
  270MOL0     H37233  10.553  11.831   2.585  4.4320  2.4058  0.5160
  270MOL0     H37234  10.768  11.763   2.707 -0.8866  0.7802 -2.7698
  270MOL0     H37235  10.684  11.831   2.848 -2.6418 -0.6148 -0.4097
  270MOL0     H37236  10.656  12.039   2.668  0.4038  0.7003  3.8297
  270MOL0     H37237  10.782  11.963   2.583  0.4134 -1.2918  0.0468
  270MOL0     H37238  10.797  12.117   2.841  1.7463  1.0041 -0.1917
  270MOL0     H37239  10.897  12.118   2.709  0.4056 -1.0399 -1.2872
  270MOL0     H37240   9.817  11.960   3.005 -1.9568  1.2528 -0.3287
  270MOL0     H37241   9.561  11.946   3.004  2.0552 -0.4534  2.7105
  270MOL0     H37242   9.194  11.870   2.784  1.7146 -1.0785  0.6689
  270MOL0     H37243   8.978  11.937   2.820 -1.4646 -2.5654 -1.5389
  270MOL0     H37244   7.423  10.974   3.243 -2.2751  1.6452  0.4794
  270MOL0     H37245   7.231  10.840   3.278 -0.7477  0.8847  1.9112
  270MOL0     H37246   6.795  10.634   3.361 -1.9161 -1.1288 -1.8629
  270MOL0     H37247   6.646  10.440   3.401 -0.3142 -0.1186  1.6510
  270MOL0     H37248   6.799  10.036   3.430  1.5801  2.0197 -0.9640
  270MOL0     H37249   6.796  10.075   3.598  2.9479  1.5058 -1.1953
  270MOL0     H37250   6.554  10.071   3.616  1.5190 -1.0354  2.3034
  270MOL0     H37251   6.612   9.915   3.567  1.8053 -0.1882 -1.4222
  270MOL0     H37252   6.431   9.961   3.453  0.9505 -1.7471 -0.9680
  270MOL0     H37253   6.472  10.122   3.386 -4.5316 -0.1805  0.0097
  270MOL0     H37254   6.669   9.950   3.282 -0.4344  3.0473 -0.2485
  270MOL0     H37255   6.520   9.996   3.188 -1.2940 -1.5479 -1.1425
  270MOL0     H37256   6.452   9.594   3.323  0.0498 -0.5153 -0.7527
  270MOL0     H37257   6.972  10.226   3.568  1.5987  2.8748  3.3159
  270MOL0     H37258   7.168  10.510   3.662  1.5563 -1.7468  2.0940
  270MOL0     H37259   7.165  10.337   3.668  0.4347 -2.0071 -1.9462
  270MOL0     H37260   7.227  10.416   3.524 -0.8803  1.2517 -0.4488
  271MOL0     O37261   1.471   4.184   0.682 -0.3626 -0.0013  0.4875
  271MOL0     C37262   1.502   4.095   0.607  0.7978 -0.2693  0.8404
  271MOL0     O37263   1.623   4.057   0.554  0.2004  0.0338  0.7354
  271MOL0     C37264   1.737   4.123   0.573 -0.6984  0.3708 -0.2421
  271MOL0     C37265   1.752   4.262   0.594 -0.3997 -0.2746  0.5551
  271MOL0     C37266   1.884   4.315   0.606  0.0738 -0.1137 -1.2201
  271MOL0     C37267   1.997   4.233   0.602 -0.4475  0.3507  0.1299
  271MOL0     O37268   2.123   4.287   0.628 -0.4496 -0.5728 -0.7084
  271MOL0     C37269   2.157   4.413   0.558 -0.1493  0.0871 -0.7940
  271MOL0     C37270   2.311   4.416   0.541 -0.3507  0.1836  0.8341
  271MOL0     C37271   2.391   4.433   0.675  0.4875  0.0043  0.2816
  271MOL0     C37272   2.544   4.427   0.654  0.8194  0.2238  0.8131
  271MOL0     C37273   2.617   4.497   0.768 -0.3323 -0.0023  0.1902
  271MOL0     C37274   2.770   4.493   0.738  0.1338  0.0478 -0.4541
  271MOL0     C37275   2.822   4.351   0.784  0.0033 -1.0992 -0.3186
  271MOL0     C37276   2.940   4.306   0.697 -0.3650  0.1997  0.0366
  271MOL0     N37277   2.983   4.169   0.737 -0.1747 -0.5004 -0.6820
  271MOL0     C37278   3.108   4.144   0.796 -0.7173  0.3144  0.4062
  271MOL0     C37279   3.118   4.015   0.797  0.0128  0.4544  0.0719
  271MOL0     C37280   3.238   3.929   0.837 -0.2313  0.0007 -0.0794
  271MOL0     C37281   3.369   3.955   0.757 -0.1815  0.6544  0.0806
  271MOL0     C37282   3.492   3.871   0.792  0.0281  0.0532 -0.0694
  271MOL0     C37283   3.629   3.940   0.754  0.4893  0.2468 -0.7331
  271MOL0     O37284   3.641   4.064   0.819 -0.6652  0.1915  0.5328
  271MOL0     C37285   3.719   4.162   0.747  0.5981  0.3565  0.1247
  271MOL0     C37286   3.818   4.226   0.818  0.3297 -0.3110 -0.3329
  271MOL0     C37287   3.893   4.331   0.760  0.5685 -0.8063 -0.2257
  271MOL0     C37288   4.000   4.391   0.848 -0.2370  0.2022  0.0772
  271MOL0     C37289   3.855   4.368   0.631  0.1600 -0.2370 -0.0138
  271MOL0     C37290   3.922   4.478   0.556 -0.1932 -0.3049  0.0115
  271MOL0     O37291   4.057   4.463   0.557 -0.3960 -0.6816  0.5173
  271MOL0     C37292   4.147   4.565   0.535 -0.2828 -0.9917 -0.1068
  271MOL0     C37293   4.116   4.693   0.481  0.1033  0.3082 -0.6938
  271MOL0     C37294   4.215   4.787   0.446  0.4126  0.7052  0.0820
  271MOL0     C37295   4.349   4.750   0.460  0.5415 -0.1428 -0.4472
  271MOL0     O37296   4.441   4.849   0.430 -0.4019  0.1361  0.8794
  271MOL0     C37297   4.577   4.847   0.480 -0.1024 -0.5202  0.0660
  271MOL0     C37298   4.649   4.973   0.425 -0.2142 -0.2273  0.3025
  271MOL0     C37299   4.797   4.990   0.460  0.2454  0.0365  0.0898
  271MOL0     C37300   4.802   5.029   0.610  0.3592  0.3740 -1.0646
  271MOL0     C37301   4.943   5.041   0.666  0.0417 -0.7157  0.9299
  271MOL0     C37302   5.036   5.135   0.581 -0.2741 -0.2035 -0.1536
  271MOL0     C37303   5.173   5.170   0.632  0.2933 -0.6256  0.1847
  271MOL0     C37304   5.176   5.255   0.761  0.1280 -0.6589 -0.2515
  271MOL0    Cl37305   5.344   5.269   0.811 -0.4924  0.4973 -0.2774
  271MOL0     C37306   4.383   4.619   0.516  0.4277 -0.2407 -0.7100
  271MOL0     C37307   4.279   4.532   0.560  0.7773 -0.0934  0.7191
  271MOL0     O37308   3.854   4.556   0.489 -0.2962  0.1551 -0.1945
  271MOL0     C37309   3.752   4.304   0.560 -0.5705  0.0753  1.0741
  271MOL0     C37310   3.689   4.194   0.616 -0.6480  0.2359 -0.3538
  271MOL0     N37311   3.001   3.962   0.742  0.2039 -0.5625 -0.6307
  271MOL0     N37312   2.923   4.054   0.704 -0.7364  0.7194  1.6621
  271MOL0     C37313   1.979   4.100   0.575  0.2156 -0.4993  1.0926
  271MOL0     C37314   1.853   4.047   0.561 -0.7716 -0.0010  1.0340
  271MOL0     C37315   1.380   4.020   0.570 -0.1309  1.0872  0.0334
  271MOL0     C37316   1.251   4.084   0.569  0.3500  0.8468  0.7226
  271MOL0     C37317   1.137   4.009   0.569 -0.1397 -0.3354 -0.5185
  271MOL0     C37318   1.141   3.869   0.535 -0.3790  0.6065 -0.6925
  271MOL0     O37319   1.018   3.805   0.533  0.2255  0.2923 -0.0712
  271MOL0     C37320   1.016   3.660   0.501 -0.1901 -0.8750 -0.1001
  271MOL0     C37321   0.874   3.618   0.518  0.4723 -0.2021  0.6767
  271MOL0     C37322   0.850   3.549   0.653  0.2686 -1.2117 -0.4556
  271MOL0     C37323   0.799   3.407   0.659 -0.5329 -0.6216  0.5472
  271MOL0     C37324   0.662   3.410   0.598  0.8005 -0.5438  0.4189
  271MOL0     C37325   0.548   3.401   0.551 -0.3929 -0.0235 -0.5343
  271MOL0     C37326   1.269   3.807   0.517 -0.3492  0.0619  0.0005
  271MOL0     C37327   1.389   3.880   0.540 -0.0487  0.3298  0.1195
  271MOL0     C37328   1.506   3.789   0.532 -0.1190  0.0250  0.2944
  271MOL0     H37329   1.660   4.320   0.592  0.8031  1.7138 -0.9403
  271MOL0     H37330   1.885   4.421   0.633 -2.4103 -0.5452  0.9768
  271MOL0     H37331   2.126   4.505   0.607  1.2304  1.2805 -2.0909
  271MOL0     H37332   2.113   4.416   0.458 -2.0104  4.2142 -0.0346
  271MOL0     H37333   2.347   4.324   0.495 -0.0941  1.1719 -1.0578
  271MOL0     H37334   2.336   4.497   0.471 -0.0536  0.0005  0.7260
  271MOL0     H37335   2.372   4.531   0.720  1.8053  1.1307 -1.4574
  271MOL0     H37336   2.368   4.364   0.756  0.1255 -2.0528 -1.5001
  271MOL0     H37337   2.581   4.325   0.641 -1.4425 -0.5965  0.3270
  271MOL0     H37338   2.573   4.476   0.560  1.4972 -3.3798 -1.0511
  271MOL0     H37339   2.600   4.447   0.864  1.4365 -0.3448  0.3677
  271MOL0     H37340   2.594   4.604   0.772  2.9484  0.9951 -2.4844
  271MOL0     H37341   2.780   4.497   0.630  3.3535 -1.6444 -0.3761
  271MOL0     H37342   2.814   4.581   0.787  3.5347 -2.0290  0.6485
  271MOL0     H37343   2.743   4.275   0.786 -0.5434 -0.5205  1.3107
  271MOL0     H37344   2.853   4.363   0.888 -2.7130 -0.4280  0.4963
  271MOL0     H37345   2.918   4.311   0.590 -1.1298  1.7068  0.2245
  271MOL0     H37346   3.016   4.379   0.725 -1.2641  0.7985  1.0040
  271MOL0     H37347   3.188   4.212   0.824  0.2465 -1.1750  1.3563
  271MOL0     H37348   3.199   3.833   0.802  1.8292 -0.4395 -1.3865
  271MOL0     H37349   3.265   3.935   0.943 -2.2071 -1.2072  0.5348
  271MOL0     H37350   3.337   3.929   0.655  0.4302  2.5340 -0.6298
  271MOL0     H37351   3.402   4.059   0.757  0.8935  0.3301  0.7140
  271MOL0     H37352   3.493   3.862   0.901 -0.7192  0.3794 -0.0291
  271MOL0     H37353   3.490   3.768   0.753 -0.1552  0.2223 -0.5129
  271MOL0     H37354   3.710   3.882   0.799 -0.5107  0.2609  1.2131
  271MOL0     H37355   3.642   3.943   0.645  1.8568  0.5143 -0.5792
  271MOL0     H37356   3.841   4.196   0.920  3.9458 -1.0831 -1.2501
  271MOL0     H37357   3.963   4.433   0.942  1.5488  0.2941  0.7716
  271MOL0     H37358   4.043   4.482   0.805  0.2551 -0.2594 -0.4157
  271MOL0     H37359   4.077   4.321   0.880 -1.3541 -0.5569  1.1652
  271MOL0     H37360   4.024   4.734   0.440  0.6735  0.8120 -1.5040
  271MOL0     H37361   4.193   4.880   0.394  0.1269 -0.8561 -2.8108
  271MOL0     H37362   4.568   4.854   0.589 -1.4489 -0.8219 -0.0068
  271MOL0     H37363   4.635   4.759   0.452  1.6712 -0.0034  1.9135
  271MOL0     H37364   4.639   4.969   0.317  1.3291  3.6006 -0.1589
  271MOL0     H37365   4.589   5.055   0.466 -1.7664 -1.7104  1.1395
  271MOL0     H37366   4.831   5.083   0.413  1.6117 -0.4282  0.1321
  271MOL0     H37367   4.856   4.910   0.415 -0.0007 -0.8810  1.3533
  271MOL0     H37368   4.754   4.946   0.662 -1.2275  2.2471  0.6236
  271MOL0     H37369   4.748   5.123   0.624  0.4575  0.2011  0.6314
  271MOL0     H37370   4.939   5.080   0.768  3.2284 -0.3120  1.0199
  271MOL0     H37371   4.987   4.941   0.669  1.0967 -0.2528  1.4059
  271MOL0     H37372   4.988   5.231   0.556  1.3665  0.2511 -1.7285
  271MOL0     H37373   5.043   5.083   0.486 -1.0162  1.0653 -0.9412
  271MOL0     H37374   5.230   5.235   0.565  2.6593  0.7507  3.2689
  271MOL0     H37375   5.227   5.077   0.650 -0.7002 -1.1773  0.3967
  271MOL0     H37376   5.116   5.206   0.838  0.0182  0.5387  0.4441
  271MOL0     H37377   5.149   5.360   0.751  0.6991 -0.4186  0.6499
  271MOL0     H37378   4.484   4.583   0.530 -0.5915 -2.6937  1.0200
  271MOL0     H37379   4.297   4.439   0.614 -2.9337 -0.4123  1.7082
  271MOL0     H37380   3.736   4.334   0.457 -0.2561 -1.3959  0.5750
  271MOL0     H37381   3.603   4.155   0.563  0.9242  0.4731 -3.2790
  271MOL0     H37382   2.062   4.031   0.564  1.4574  1.3131 -2.0196
  271MOL0     H37383   1.836   3.942   0.541  4.4416 -0.9286  0.0904
  271MOL0     H37384   1.259   4.192   0.574  1.6711  0.7876  0.3837
  271MOL0     H37385   1.041   4.052   0.597  0.7476  0.0050  2.3176
  271MOL0     H37386   1.041   3.643   0.396 -1.2685 -1.7703 -0.2238
  271MOL0     H37387   1.085   3.602   0.563 -1.2033 -0.9817  0.9590
  271MOL0     H37388   0.850   3.544   0.441  2.9685  0.9109 -1.3402
  271MOL0     H37389   0.800   3.695   0.494 -1.8832 -2.6904 -0.6080
  271MOL0     H37390   0.939   3.560   0.715  1.6235 -1.7417 -2.2028
  271MOL0     H37391   0.779   3.614   0.704  0.4275 -1.5057  0.1485
  271MOL0     H37392   0.790   3.378   0.764 -1.8314  1.1026  0.9654
  271MOL0     H37393   0.871   3.350   0.600 -0.3447  0.3347 -0.1628
  271MOL0     H37394   0.447   3.416   0.519 -0.2208  0.3052 -0.9364
  271MOL0     H37395   1.263   3.702   0.489 -0.7943 -0.5255  2.0875
  271MOL0     H37396   1.475   3.685   0.540  1.7146 -0.6114 -0.4728
  271MOL0     H37397   1.556   3.782   0.435 -0.2520  0.6586  0.1744
  271MOL0     H37398   1.583   3.797   0.610  0.6951 -3.1248 -0.0771
  272MOL0     O37399   9.476   2.697  10.817  0.2529 -0.3153 -0.0402
  272MOL0     C37400   9.402   2.694  10.910  0.1850  0.4967 -0.9576
  272MOL0     O37401   9.360   2.806  10.985 -0.0896  0.9893  0.2541
  272MOL0     C37402   9.425   2.923  10.976  0.2937  0.4861 -0.5988
  272MOL0     C37403   9.548   2.962  10.909 -0.4728 -0.0055 -0.5350
  272MOL0     C37404   9.592   3.098  10.916 -0.3712  0.1036 -1.0432
  272MOL0     C37405   9.520   3.193  10.986 -0.0416  0.5157  0.1717
  272MOL0     O37406   9.540   3.333  10.971 -0.5732  0.8300 -0.4661
  272MOL0     C37407   9.544   3.408  11.101  0.1558  1.3409 -0.4347
  272MOL0     C37408   9.427   3.508  11.097  0.2274  0.6955  0.2113
  272MOL0     C37409   9.465   3.627  11.005 -0.1536  0.4329 -0.3056
  272MOL0     C37410   9.339   3.718  10.993  0.2950 -0.0374 -0.0724
  272MOL0     C37411   9.379   3.858  10.919 -0.4364  0.3792 -0.6761
  272MOL0     C37412   9.268   3.948  10.890 -0.4768 -0.2995  0.4677
  272MOL0     C37413   9.189   3.919  10.761 -0.8781  0.0496 -0.2412
  272MOL0     C37414   9.286   3.931  10.642  0.4347 -0.1054 -0.2738
  272MOL0     N37415   9.214   3.923  10.513  0.2328 -0.9209 -0.3005
  272MOL0     C37416   9.152   4.036  10.460  0.1473 -1.0079  0.4798
  272MOL0     C37417   9.086   3.990  10.347  0.0260 -0.8165  0.6820
  272MOL0     C37418   9.029   4.077  10.241  0.0615 -0.8671 -0.3919
  272MOL0     C37419   8.886   4.117  10.280  0.1666  0.5251  0.4228
  272MOL0     C37420   8.792   3.997  10.292  0.2461 -0.7850 -0.8527
  272MOL0     C37421   8.648   4.018  10.348 -0.4598  0.4365  0.1004
  272MOL0     O37422   8.574   4.115  10.268  0.1522  0.0119 -0.5088
  272MOL0     C37423   8.442   4.132  10.310 -0.5002  0.4483 -0.3663
  272MOL0     C37424   8.360   4.215  10.231 -0.1356 -0.3960 -0.6371
  272MOL0     C37425   8.220   4.236  10.259 -0.5781  0.1440 -0.0358
  272MOL0     C37426   8.129   4.309  10.163 -0.9246 -0.5300  0.2920
  272MOL0     C37427   8.164   4.169  10.369  0.2834 -0.5766 -0.8415
  272MOL0     C37428   8.023   4.183  10.419 -0.4644 -0.5805 -0.6526
  272MOL0     O37429   7.969   4.081  10.490  0.4118 -0.0527  0.7698
  272MOL0     C37430   7.840   4.095  10.530  0.2452  0.2380 -0.0198
  272MOL0     C37431   7.739   4.042  10.451  0.2239  0.0564 -0.5176
  272MOL0     C37432   7.605   4.029  10.505 -0.7175 -0.4583 -0.6782
  272MOL0     C37433   7.574   4.089  10.635 -0.2286  0.1169 -0.6039
  272MOL0     O37434   7.449   4.088  10.694 -0.1572  0.5013 -0.1275
  272MOL0     C37435   7.352   4.163  10.622 -1.1465 -0.4869  0.5030
  272MOL0     C37436   7.221   4.181  10.695 -0.3465 -0.3267  0.0950
  272MOL0     C37437   7.164   4.037  10.734 -0.6764  0.8257 -1.1966
  272MOL0     C37438   7.020   4.049  10.785  0.7984 -0.2459  0.0432
  272MOL0     C37439   6.969   3.923  10.860  0.0111  0.9458  0.6285
  272MOL0     C37440   6.960   3.785  10.787 -0.3520 -0.3951  0.0071
  272MOL0     C37441   6.979   3.672  10.876  0.6746  0.0485 -0.0195
  272MOL0     C37442   6.894   3.555  10.837  0.9739 -0.5208  0.7518
  272MOL0    Cl37443   6.908   3.538  10.661 -0.2302 -0.6403 -0.0623
  272MOL0     C37444   7.684   4.147  10.705  0.0771 -0.2780 -0.1777
  272MOL0     C37445   7.811   4.143  10.657  0.1753 -0.2821  0.8714
  272MOL0     O37446   7.966   4.288  10.392 -0.3882 -0.3221  0.4168
  272MOL0     C37447   8.250   4.088  10.452 -0.2676  0.8195  0.6618
  272MOL0     C37448   8.385   4.067  10.419  0.0007  0.2393  0.9023
  272MOL0     N37449   9.107   3.854  10.333  0.2969  0.0422  0.2919
  272MOL0     N37450   9.183   3.815  10.434  0.3435 -0.1584 -0.1563
  272MOL0     C37451   9.402   3.149  11.046 -0.5246  0.6051 -0.9233
  272MOL0     C37452   9.354   3.020  11.047  0.5187 -0.5039  0.6778
  272MOL0     C37453   9.332   2.563  10.945 -0.8439 -0.1038  0.5078
  272MOL0     C37454   9.412   2.449  10.924  0.1348  0.0121 -0.0039
  272MOL0     C37455   9.355   2.326  10.958  1.1588 -0.7932  0.6887
  272MOL0     C37456   9.223   2.307  10.986  0.5643  1.2625  0.0466
  272MOL0     O37457   9.166   2.181  11.001 -0.3515 -0.5706 -0.0251
  272MOL0     C37458   9.230   2.054  10.981  0.5099 -0.3213  0.0039
  272MOL0     C37459   9.269   2.033  10.828  0.5642  0.0590  0.4885
  272MOL0     C37460   9.162   2.070  10.723 -0.6343  0.6517 -0.1499
  272MOL0     C37461   9.165   2.218  10.670 -0.4272  0.2749 -0.9987
  272MOL0     C37462   9.079   2.212  10.554  0.3857  0.0240  0.4199
  272MOL0     C37463   9.023   2.220  10.446  0.1518  0.2980  0.2507
  272MOL0     C37464   9.146   2.422  11.015  0.2213  0.1356 -0.0832
  272MOL0     C37465   9.201   2.551  10.995 -0.3475  0.1924  0.4778
  272MOL0     C37466   9.116   2.670  11.025  0.0735  0.0508 -0.3182
  272MOL0     H37467   9.614   2.889  10.862  0.9599  1.1663 -0.4300
  272MOL0     H37468   9.683   3.138  10.872 -0.6711  1.8870 -0.1287
  272MOL0     H37469   9.645   3.446  11.116  0.2924 -0.0796  3.1870
  272MOL0     H37470   9.532   3.332  11.179  2.2465  1.6575  0.2397
  272MOL0     H37471   9.333   3.460  11.067  0.8654 -2.3613  2.5419
  272MOL0     H37472   9.399   3.531  11.200 -1.2418  0.3454 -0.0921
  272MOL0     H37473   9.550   3.678  11.051  3.1953 -2.8578 -2.2279
  272MOL0     H37474   9.490   3.601  10.901 -1.0827  0.1339 -0.4595
  272MOL0     H37475   9.256   3.659  10.954 -0.1668 -0.3027  1.2506
  272MOL0     H37476   9.301   3.752  11.090 -2.3745 -3.7866  0.3841
  272MOL0     H37477   9.436   3.839  10.827  1.2437  1.2516  0.1308
  272MOL0     H37478   9.452   3.910  10.982  0.6396  1.0927 -2.4050
  272MOL0     H37479   9.197   3.950  10.973  0.1974 -0.8411  1.0732
  272MOL0     H37480   9.311   4.047  10.877  2.7121 -1.9114 -2.7734
  272MOL0     H37481   9.105   3.989  10.758 -1.0648  0.1853  3.3840
  272MOL0     H37482   9.143   3.821  10.778  1.2940 -0.4711  3.7540
  272MOL0     H37483   9.325   4.032  10.657 -1.0789  0.1399  3.0742
  272MOL0     H37484   9.364   3.855  10.645  1.4086  0.8861  0.1208
  272MOL0     H37485   9.142   4.141  10.488  0.0851 -0.1073 -2.5105
  272MOL0     H37486   9.016   4.028  10.144 -0.8697  0.2010 -0.8320
  272MOL0     H37487   9.078   4.173  10.225  0.1066 -0.4069  2.0981
  272MOL0     H37488   8.888   4.156  10.383  2.0366 -2.7593  1.7938
  272MOL0     H37489   8.843   4.190  10.212  0.1714  0.9848  0.9075
  272MOL0     H37490   8.773   3.949  10.195 -0.9024 -2.0906 -0.0332
  272MOL0     H37491   8.837   3.921  10.357 -0.1284  0.3507  0.7841
  272MOL0     H37492   8.602   3.919  10.347  0.5093 -0.0223  0.5118
  272MOL0     H37493   8.662   4.040  10.454 -0.2901 -0.6914  0.3210
  272MOL0     H37494   8.395   4.256  10.137 -1.7994 -0.5756 -1.3714
  272MOL0     H37495   8.033   4.257  10.159 -1.2696 -0.2984  3.4433
  272MOL0     H37496   8.169   4.311  10.061 -0.6873 -2.3968  0.3240
  272MOL0     H37497   8.120   4.410  10.204 -1.8617 -1.4499  2.5309
  272MOL0     H37498   7.763   4.009  10.350  4.4627  1.8167 -0.3009
  272MOL0     H37499   7.522   3.987  10.449 -1.1321 -4.6220  2.5945
  272MOL0     H37500   7.391   4.264  10.610 -0.2420 -1.0100 -1.4069
  272MOL0     H37501   7.338   4.122  10.522  0.6488  1.0993 -0.4749
  272MOL0     H37502   7.224   4.249  10.781 -3.6992 -0.8053  0.7261
  272MOL0     H37503   7.153   4.234  10.628  1.1028  0.9823 -0.4016
  272MOL0     H37504   7.216   3.986  10.815  0.0367  2.2642 -0.7060
  272MOL0     H37505   7.175   3.968  10.649 -0.7238  0.2372 -0.7287
  272MOL0     H37506   6.963   4.067  10.694  0.3652  3.2342  0.8922
  272MOL0     H37507   7.011   4.128  10.860  4.3996  0.4426 -0.0333
  272MOL0     H37508   7.040   3.906  10.942  1.1299 -0.0201 -0.5079
  272MOL0     H37509   6.873   3.942  10.910 -1.3558  0.3088 -1.6525
  272MOL0     H37510   7.044   3.786  10.716 -0.7022 -0.8700 -0.4161
  272MOL0     H37511   6.866   3.772  10.734  0.9872 -1.1847 -2.3179
  272MOL0     H37512   6.952   3.698  10.979 -2.2375  1.5976 -1.0449
  272MOL0     H37513   7.084   3.642  10.872  0.5015 -0.4776 -1.3744
  272MOL0     H37514   6.786   3.572  10.847  0.1445 -3.2892 -1.9677
  272MOL0     H37515   6.924   3.469  10.898  0.4378  0.1408  1.9822
  272MOL0     H37516   7.674   4.188  10.805 -2.5528 -0.1193 -0.4208
  272MOL0     H37517   7.887   4.183  10.724  0.6305 -1.3332  1.0105
  272MOL0     H37518   8.212   4.051  10.547  1.3520  2.0366  1.8592
  272MOL0     H37519   8.451   4.023  10.493  3.1194  3.7159  0.5034
  272MOL0     H37520   9.337   3.217  11.100  1.5221  1.1959  0.9595
  272MOL0     H37521   9.261   2.999  11.100  0.0013 -0.5331 -0.2189
  272MOL0     H37522   9.511   2.456  10.880 -0.3502 -0.2860 -1.1902
  272MOL0     H37523   9.423   2.241  10.956  1.9064 -0.1945  0.0532
  272MOL0     H37524   9.319   2.043  11.044 -0.0910 -2.1862  0.5704
  272MOL0     H37525   9.162   1.975  11.014  0.7249 -1.1007 -1.3203
  272MOL0     H37526   9.281   1.925  10.824 -0.7699 -0.1153  0.7327
  272MOL0     H37527   9.363   2.086  10.809  0.4660  0.0583 -0.0076
  272MOL0     H37528   9.197   2.003  10.645  1.6269  3.3974 -1.6667
  272MOL0     H37529   9.065   2.033  10.759 -0.0458 -0.7728 -0.0011
  272MOL0     H37530   9.266   2.235  10.633 -0.5696 -1.1421 -2.1507
  272MOL0     H37531   9.128   2.281  10.751  1.0032 -0.9486  0.6797
  272MOL0     H37532   8.975   2.220  10.350  2.8013 -0.3781 -1.1799
  272MOL0     H37533   9.046   2.405  11.055  0.2807  1.3584  0.6382
  272MOL0     H37534   9.149   2.733  11.108  1.7121 -0.0047 -0.8915
  272MOL0     H37535   9.102   2.733  10.936  0.8329 -0.0865 -0.5433
  272MOL0     H37536   9.018   2.625  11.040  1.3198 -2.0307  2.5419
  273MOL0     O37537   3.695   8.325   7.316 -0.4198 -0.7599  0.3417
  273MOL0     C37538   3.707   8.276   7.205  0.0836  0.6582  0.5553
  273MOL0     O37539   3.813   8.209   7.150 -0.2478 -0.4748  0.0876
  273MOL0     C37540   3.938   8.245   7.188  0.7816 -0.0329  0.7374
  273MOL0     C37541   3.990   8.361   7.140  0.8536 -0.7103 -0.0144
  273MOL0     C37542   4.126   8.400   7.158 -0.4681 -0.3144 -0.3834
  273MOL0     C37543   4.205   8.324   7.245 -0.6787  0.1652  0.5364
  273MOL0     O37544   4.340   8.364   7.270  0.3048  0.1537 -0.5177
  273MOL0     C37545   4.390   8.495   7.247  0.0787 -0.7227  0.2090
  273MOL0     C37546   4.474   8.492   7.120  0.8353  0.2269 -0.0960
  273MOL0     C37547   4.599   8.392   7.133 -0.1162 -0.5673 -0.6090
  273MOL0     C37548   4.711   8.451   7.224 -0.0031  0.0737 -0.5768
  273MOL0     C37549   4.828   8.357   7.264 -0.3728 -0.4829  0.3615
  273MOL0     C37550   4.953   8.382   7.172  0.5106  0.2691 -0.3155
  273MOL0     C37551   5.049   8.263   7.191  0.4743  0.1335  0.3120
  273MOL0     C37552   5.180   8.287   7.128  0.0940  0.1829  0.0308
  273MOL0     N37553   5.174   8.269   6.982 -0.4940  0.4079 -0.2965
  273MOL0     C37554   5.177   8.375   6.898 -0.4171 -0.0202 -0.1281
  273MOL0     C37555   5.198   8.324   6.783  0.6704  0.4535  0.0323
  273MOL0     C37556   5.228   8.410   6.666 -0.6510 -0.2741 -0.3624
  273MOL0     C37557   5.386   8.422   6.657 -0.9110  0.4565  0.1854
  273MOL0     C37558   5.449   8.450   6.516 -0.1861 -0.0918 -0.1809
  273MOL0     C37559   5.604   8.470   6.528  0.4937  0.0685  0.9556
  273MOL0     O37560   5.665   8.340   6.563  0.2712 -0.1138  0.2819
  273MOL0     C37561   5.794   8.347   6.600 -0.0812 -0.8674 -0.1285
  273MOL0     C37562   5.875   8.237   6.575 -0.8758  0.4563  0.2313
  273MOL0     C37563   6.016   8.242   6.606  1.1253  0.1213  1.6534
  273MOL0     C37564   6.097   8.121   6.565 -0.0033 -0.1499  0.2132
  273MOL0     C37565   6.079   8.363   6.652  1.2633 -0.6728  0.7973
  273MOL0     C37566   6.221   8.378   6.674 -0.7199  0.7939 -0.1932
  273MOL0     O37567   6.307   8.290   6.605 -0.1642 -0.6209 -0.0276
  273MOL0     C37568   6.435   8.288   6.637  0.2384  0.4564 -0.4560
  273MOL0     C37569   6.498   8.167   6.651  0.5275 -0.0994 -0.7159
  273MOL0     C37570   6.637   8.159   6.664  0.7873  0.7098  0.3847
  273MOL0     C37571   6.715   8.270   6.670 -0.8906  0.1997 -0.7898
  273MOL0     O37572   6.845   8.274   6.705 -0.8785  0.1882 -0.6170
  273MOL0     C37573   6.903   8.155   6.758 -0.6212  0.3133  0.5305
  273MOL0     C37574   7.037   8.186   6.829  0.5043  0.6054  0.1743
  273MOL0     C37575   7.141   8.228   6.729  0.2139  0.9450 -0.4643
  273MOL0     C37576   7.224   8.340   6.789  0.9311 -0.1503  0.1594
  273MOL0     C37577   7.344   8.300   6.884 -0.2972  0.1828 -0.1574
  273MOL0     C37578   7.484   8.277   6.805  0.8946 -0.7588 -0.0588
  273MOL0     C37579   7.493   8.160   6.719 -0.0770 -0.5967  0.6856
  273MOL0     C37580   7.633   8.098   6.714  0.0362  0.3705  0.4353
  273MOL0    Cl37581   7.767   8.208   6.660  0.1046  0.0920  0.4057
  273MOL0     C37582   6.660   8.393   6.652  0.0940 -0.0522  0.0810
  273MOL0     C37583   6.517   8.397   6.648  0.0389 -0.3817 -0.6608
  273MOL0     O37584   6.254   8.448   6.765 -0.1044  0.1907 -0.0405
  273MOL0     C37585   5.992   8.457   6.700 -0.2408 -0.3262  0.1746
  273MOL0     C37586   5.857   8.450   6.678  0.4793  0.1332 -0.1042
  273MOL0     N37587   5.212   8.192   6.790  0.6487  0.8435  0.2738
  273MOL0     N37588   5.198   8.153   6.913  0.7539  0.2043 -0.5578
  273MOL0     C37589   4.157   8.203   7.288 -0.4066  0.1642 -0.4361
  273MOL0     C37590   4.023   8.157   7.257  0.7460  0.6427  0.0541
  273MOL0     C37591   3.590   8.266   7.118  0.1642 -0.1884 -0.5265
  273MOL0     C37592   3.597   8.188   6.994  0.0656 -0.5389 -0.9996
  273MOL0     C37593   3.493   8.187   6.908 -0.4362  0.2696 -0.1367
  273MOL0     C37594   3.375   8.256   6.935 -0.9229  0.1438  0.7676
  273MOL0     O37595   3.275   8.266   6.840 -0.5568 -0.2769 -0.4256
  273MOL0     C37596   3.297   8.244   6.702  0.3070 -0.3251  0.2108
  273MOL0     C37597   3.190   8.314   6.613  0.2790  1.6039 -0.4240
  273MOL0     C37598   3.052   8.248   6.624  0.2844  0.0843 -0.1031
  273MOL0     C37599   2.950   8.292   6.518 -0.3824 -0.1505 -0.6978
  273MOL0     C37600   2.813   8.247   6.552  0.6805 -0.4406 -0.4866
  273MOL0     C37601   2.698   8.210   6.577  0.3834  0.1559 -0.2103
  273MOL0     C37602   3.359   8.320   7.063  1.2454  0.5034  0.7023
  273MOL0     C37603   3.459   8.314   7.154  0.6534  0.1367 -0.6398
  273MOL0     C37604   3.408   8.355   7.294  0.0222 -0.9285  0.2467
  273MOL0     H37605   3.925   8.420   7.076  1.9639  1.4909  0.8208
  273MOL0     H37606   4.177   8.480   7.106  1.1359 -0.9158  0.1598
  273MOL0     H37607   4.452   8.532   7.330  1.2657  0.3405 -1.0793
  273MOL0     H37608   4.314   8.573   7.248  2.1350  1.3979  0.4288
  273MOL0     H37609   4.415   8.451   7.038 -0.5855 -1.2776  1.5902
  273MOL0     H37610   4.497   8.596   7.095 -0.1819  0.8166  1.2889
  273MOL0     H37611   4.567   8.304   7.190  1.8098  0.9664  3.2977
  273MOL0     H37612   4.637   8.361   7.035  0.8169 -2.6157  0.3351
  273MOL0     H37613   4.754   8.544   7.183  2.8812 -0.8068  0.1718
  273MOL0     H37614   4.652   8.481   7.311 -0.4277  1.0713 -1.1911
  273MOL0     H37615   4.790   8.254   7.270 -1.3741 -0.0415  4.1949
  273MOL0     H37616   4.865   8.371   7.365 -0.2194  1.6851  0.0569
  273MOL0     H37617   4.916   8.381   7.069  1.7976 -1.6533 -0.8001
  273MOL0     H37618   4.996   8.481   7.191 -0.9207  0.6271  1.3653
  273MOL0     H37619   5.008   8.171   7.148  0.8350  0.6920 -1.3067
  273MOL0     H37620   5.060   8.235   7.297 -1.4065 -1.6821  0.0918
  273MOL0     H37621   5.231   8.380   7.157  1.0342 -0.0284 -0.9098
  273MOL0     H37622   5.245   8.208   7.166  0.3347 -0.3536 -1.4463
  273MOL0     H37623   5.169   8.477   6.934 -1.8543  0.2486 -1.1199
  273MOL0     H37624   5.182   8.509   6.676 -1.7253 -0.8446  0.5587
  273MOL0     H37625   5.188   8.360   6.577 -1.4988 -0.1416 -0.0648
  273MOL0     H37626   5.412   8.508   6.720 -0.9937  2.2163 -2.0562
  273MOL0     H37627   5.433   8.332   6.698 -1.0163  0.0831 -0.4979
  273MOL0     H37628   5.448   8.364   6.449 -0.7008 -0.3648  0.1785
  273MOL0     H37629   5.410   8.538   6.465  1.2540 -1.4560 -3.9726
  273MOL0     H37630   5.642   8.505   6.432  0.9212 -2.0981  0.2827
  273MOL0     H37631   5.630   8.542   6.606 -0.3187  2.8505 -1.1909
  273MOL0     H37632   5.838   8.146   6.529  1.3561 -0.0322 -0.7250
  273MOL0     H37633   6.149   8.143   6.471 -1.6159  2.3512 -0.1735
  273MOL0     H37634   6.029   8.040   6.539  2.0761 -1.8462 -0.2096
  273MOL0     H37635   6.162   8.080   6.644  3.0408  2.3759 -0.7534
  273MOL0     H37636   6.439   8.078   6.634 -1.2268  0.6838  0.8409
  273MOL0     H37637   6.689   8.064   6.673  1.0444  0.5709 -1.9866
  273MOL0     H37638   6.838   8.096   6.824  1.0551 -2.2157  0.0495
  273MOL0     H37639   6.924   8.095   6.669 -2.0306  0.2716  0.1947
  273MOL0     H37640   7.018   8.257   6.910 -0.1023  0.3055  0.3010
  273MOL0     H37641   7.073   8.096   6.881  1.3685  2.1605  2.4233
  273MOL0     H37642   7.105   8.252   6.628 -2.5680  1.1404  0.4909
  273MOL0     H37643   7.210   8.144   6.721 -0.0326  0.7076 -0.0960
  273MOL0     H37644   7.162   8.406   6.850 -0.9581 -1.3129 -0.4284
  273MOL0     H37645   7.263   8.406   6.712  1.0338 -0.0850  0.2668
  273MOL0     H37646   7.351   8.386   6.951 -1.1742  0.1968 -0.0743
  273MOL0     H37647   7.323   8.211   6.944 -1.7271  0.4308 -0.2550
  273MOL0     H37648   7.565   8.271   6.879  0.3540 -0.6208  0.5587
  273MOL0     H37649   7.508   8.369   6.751 -0.8711 -0.7987 -0.9923
  273MOL0     H37650   7.468   8.179   6.614  0.4203  1.0807  0.8522
  273MOL0     H37651   7.433   8.081   6.766 -0.0584 -2.1184 -1.6642
  273MOL0     H37652   7.627   8.012   6.648 -2.6228  1.1236 -0.4319
  273MOL0     H37653   7.656   8.062   6.815  0.0538 -0.8133  0.0167
  273MOL0     H37654   6.719   8.483   6.659 -1.6671  1.4762 -2.7567
  273MOL0     H37655   6.459   8.488   6.632  2.3951  1.5082  0.8187
  273MOL0     H37656   6.045   8.541   6.743  3.0161 -1.1175 -1.8724
  273MOL0     H37657   5.802   8.538   6.709  0.1047  0.5137 -1.7218
  273MOL0     H37658   4.231   8.146   7.344 -0.6730 -0.2065 -0.4556
  273MOL0     H37659   3.977   8.069   7.300  1.5657  0.2207  0.0890
  273MOL0     H37660   3.683   8.123   6.981  0.5534 -0.0458 -0.2964
  273MOL0     H37661   3.510   8.119   6.825 -1.2309 -1.5580  1.1390
  273MOL0     H37662   3.395   8.283   6.675 -0.1419 -0.4322 -1.7544
  273MOL0     H37663   3.286   8.140   6.670  3.8188 -1.5961  2.6444
  273MOL0     H37664   3.210   8.297   6.507  0.1802  0.2946 -0.2559
  273MOL0     H37665   3.188   8.422   6.632 -0.2913  1.1832  2.4389
  273MOL0     H37666   3.058   8.139   6.619 -2.0764 -0.0941 -0.7676
  273MOL0     H37667   3.014   8.269   6.724  1.5858 -3.6390  1.3333
  273MOL0     H37668   2.969   8.241   6.423  3.8918  0.4370 -0.3525
  273MOL0     H37669   2.945   8.401   6.513  1.9145  0.0920  0.8064
  273MOL0     H37670   2.603   8.182   6.617  0.1499  1.0233 -0.1314
  273MOL0     H37671   3.263   8.363   7.088  1.1005  0.2130  0.6475
  273MOL0     H37672   3.394   8.264   7.353  0.5647 -1.4943 -0.4751
  273MOL0     H37673   3.478   8.433   7.326 -0.6137  0.0057 -0.5734
  273MOL0     H37674   3.313   8.408   7.300  1.0812  0.9740  0.9621
  274MOL0     O37675   8.959   4.050   5.112  0.0329  0.4276  0.0452
  274MOL0     C37676   8.842   4.082   5.083  1.1198  0.1961 -0.0292
  274MOL0     O37677   8.735   3.994   5.056 -0.0773  0.5125  0.2337
  274MOL0     C37678   8.767   3.858   5.060 -0.0622  0.2080 -0.5040
  274MOL0     C37679   8.878   3.794   4.992  0.0229  0.0995 -0.2647
  274MOL0     C37680   8.887   3.657   4.998  0.7935  0.0646  0.1232
  274MOL0     C37681   8.812   3.579   5.088  0.3178  0.5836 -0.6285
  274MOL0     O37682   8.820   3.436   5.100  0.3169 -0.8782  0.3757
  274MOL0     C37683   8.849   3.356   4.991 -0.4888  0.2419  0.8219
  274MOL0     C37684   8.849   3.203   5.025 -0.4873 -0.1865 -0.0615
  274MOL0     C37685   8.904   3.161   5.155  0.4298 -0.5117  0.0034
  274MOL0     C37686   9.061   3.164   5.154 -0.2844 -0.6134 -0.6174
  274MOL0     C37687   9.120   3.115   5.284 -0.6232 -0.5239 -0.4047
  274MOL0     C37688   9.277   3.117   5.272  0.0204 -0.0142  0.0433
  274MOL0     C37689   9.345   3.044   5.396 -0.2472 -0.1537 -0.1690
  274MOL0     C37690   9.497   3.052   5.392  0.4198  0.3529 -0.0897
  274MOL0     N37691   9.555   3.189   5.384  0.7147 -0.6370  0.1235
  274MOL0     C37692   9.553   3.285   5.285  0.0116  0.1625  0.0352
  274MOL0     C37693   9.606   3.391   5.343 -0.1258 -0.2661 -0.8594
  274MOL0     C37694   9.632   3.521   5.275 -0.4475  0.2161 -0.7815
  274MOL0     C37695   9.776   3.555   5.249 -0.9107  0.4566  0.4665
  274MOL0     C37696   9.811   3.683   5.174  0.0051 -0.1782  0.4732
  274MOL0     C37697   9.741   3.803   5.241  0.6134  0.1437  0.4052
  274MOL0     O37698   9.789   3.925   5.176  0.0559 -0.2205 -0.6890
  274MOL0     C37699   9.715   4.041   5.193  0.6332 -0.2748 -0.2350
  274MOL0     C37700   9.789   4.155   5.165  0.3251 -0.2729 -0.6717
  274MOL0     C37701   9.734   4.277   5.150 -0.2502  0.1070  0.5051
  274MOL0     C37702   9.818   4.388   5.077  0.4421 -0.3296 -0.3252
  274MOL0     C37703   9.603   4.305   5.195  1.5305  0.7395  1.1236
  274MOL0     C37704   9.530   4.433   5.181  0.1992 -0.5999 -0.0075
  274MOL0     O37705   9.616   4.533   5.202 -0.2541 -0.7807  0.0558
  274MOL0     C37706   9.575   4.657   5.226 -1.0180 -0.7307 -0.7288
  274MOL0     C37707   9.633   4.767   5.163 -0.0209 -0.4854  0.8394
  274MOL0     C37708   9.591   4.894   5.183  0.3570 -0.0476  0.1587
  274MOL0     C37709   9.485   4.921   5.272 -0.7653 -0.1935 -0.6626
  274MOL0     O37710   9.452   5.054   5.309 -0.2692  0.4198  0.2067
  274MOL0     C37711   9.480   5.166   5.217  0.0815  0.7343  0.3109
  274MOL0     C37712   9.441   5.300   5.274 -0.1137  0.2871  0.0860
  274MOL0     C37713   9.431   5.405   5.162 -0.0418  0.1459  0.5487
  274MOL0     C37714   9.401   5.544   5.226 -0.3473 -0.4659 -0.3210
  274MOL0     C37715   9.393   5.656   5.127  0.5390  0.3894 -0.1207
  274MOL0     C37716   9.310   5.777   5.167  0.1984  0.8110  0.5520
  274MOL0     C37717   9.379   5.841   5.289 -0.4592 -0.0318 -1.2644
  274MOL0     C37718   9.315   5.976   5.324  0.2698  0.4026 -0.4610
  274MOL0    Cl37719   9.138   5.956   5.343  0.5041 -0.1599 -0.0064
  274MOL0     C37720   9.415   4.816   5.330  0.2899  0.2947  0.7150
  274MOL0     C37721   9.463   4.682   5.305  0.1978 -0.0976 -0.1459
  274MOL0     O37722   9.407   4.447   5.172  0.3653 -0.5798  0.2221
  274MOL0     C37723   9.525   4.191   5.228 -0.6724  0.0254  0.8758
  274MOL0     C37724   9.580   4.061   5.230 -0.2041  0.4304 -0.4730
  274MOL0     N37725   9.610   3.372   5.483  0.7024  0.0212 -0.0986
  274MOL0     N37726   9.566   3.258   5.505  0.0879  0.4748 -0.8629
  274MOL0     C37727   8.714   3.642   5.164  0.0615  0.3408  0.1873
  274MOL0     C37728   8.683   3.777   5.138 -0.1207 -0.3597  0.6140
  274MOL0     C37729   8.833   4.224   5.041  0.0040 -0.7111 -0.1622
  274MOL0     C37730   8.717   4.257   4.984 -0.6241  0.1045 -0.2467
  274MOL0     C37731   8.677   4.382   4.945  0.3678  0.1799 -0.1304
  274MOL0     C37732   8.769   4.486   4.956  0.0723 -0.7730  0.2248
  274MOL0     O37733   8.725   4.619   4.942  1.0859 -0.2402  0.2098
  274MOL0     C37734   8.586   4.666   4.933  0.0047 -0.0390 -0.7354
  274MOL0     C37735   8.534   4.718   5.073  0.5475 -0.2912 -0.0017
  274MOL0     C37736   8.588   4.859   5.133  0.2040 -0.3669 -0.6937
  274MOL0     C37737   8.536   4.903   5.275 -0.4146 -0.1342 -0.0201
  274MOL0     C37738   8.593   4.825   5.383  0.1645 -0.1380  0.2859
  274MOL0     C37739   8.617   4.762   5.480  0.3891  0.1470  0.3577
  274MOL0     C37740   8.897   4.460   5.010 -0.5657 -0.4009  0.3006
  274MOL0     C37741   8.934   4.331   5.049  0.7306  1.2862 -0.7782
  274MOL0     C37742   9.067   4.308   5.116 -0.4874  0.3146  0.0537
  274MOL0     H37743   8.949   3.851   4.932  0.6178 -2.0723 -1.7694
  274MOL0     H37744   8.970   3.619   4.939  1.2255 -0.7863  1.2407
  274MOL0     H37745   8.950   3.372   4.953 -1.3804  0.6624 -1.5995
  274MOL0     H37746   8.790   3.387   4.904 -0.1456  2.5760  1.3552
  274MOL0     H37747   8.741   3.183   5.024 -0.9055  1.8092 -2.5658
  274MOL0     H37748   8.894   3.140   4.948  1.8713 -1.4096  2.1769
  274MOL0     H37749   8.861   3.223   5.234 -1.6455 -0.0677 -1.3779
  274MOL0     H37750   8.856   3.065   5.177 -3.5776  0.8351 -1.7865
  274MOL0     H37751   9.086   3.104   5.065 -2.9278 -0.7469 -1.3730
  274MOL0     H37752   9.101   3.261   5.125  1.1419 -1.7829 -2.9179
  274MOL0     H37753   9.089   3.012   5.306 -1.4637 -0.1897  0.0108
  274MOL0     H37754   9.083   3.174   5.368  2.7424 -0.1735  0.9807
  274MOL0     H37755   9.306   3.072   5.176  3.8979 -2.0389  1.9212
  274MOL0     H37756   9.302   3.223   5.282 -3.0758  0.8919 -0.6777
  274MOL0     H37757   9.308   2.942   5.384 -0.4808 -0.0005 -0.8136
  274MOL0     H37758   9.315   3.080   5.495  2.7788  0.2559  0.6847
  274MOL0     H37759   9.536   2.996   5.477 -1.4411 -0.4132  0.3140
  274MOL0     H37760   9.544   3.002   5.307  0.1156 -1.6962  0.8925
  274MOL0     H37761   9.535   3.268   5.179  1.0243  1.5195 -0.3820
  274MOL0     H37762   9.575   3.600   5.324  1.2503  1.7416 -1.1753
  274MOL0     H37763   9.582   3.506   5.178  1.6101  1.7037 -2.1728
  274MOL0     H37764   9.834   3.553   5.342 -1.2458  1.2637  0.6965
  274MOL0     H37765   9.821   3.472   5.192 -1.2634  1.8646 -2.0258
  274MOL0     H37766   9.920   3.691   5.172  0.1458 -1.8297 -0.1134
  274MOL0     H37767   9.783   3.683   5.068  1.0767  0.3409  0.1789
  274MOL0     H37768   9.633   3.799   5.220  0.6994 -3.3441  0.0953
  274MOL0     H37769   9.760   3.796   5.348 -2.3663  0.1477  1.0398
  274MOL0     H37770   9.892   4.135   5.139  1.0868  2.5188 -0.1636
  274MOL0     H37771   9.833   4.476   5.140 -2.7650  0.3070 -0.2804
  274MOL0     H37772   9.758   4.423   4.992 -1.0843 -1.0038  0.4465
  274MOL0     H37773   9.920   4.364   5.043  0.0358  0.5975 -2.3549
  274MOL0     H37774   9.720   4.744   5.102 -0.0680 -1.5813  1.1656
  274MOL0     H37775   9.644   4.972   5.127  0.4307 -0.3384 -0.1827
  274MOL0     H37776   9.583   5.172   5.179 -0.5984  1.6394 -1.4836
  274MOL0     H37777   9.420   5.146   5.128 -2.2302  1.1093  1.7166
  274MOL0     H37778   9.344   5.291   5.323  0.4156  0.8187  1.2843
  274MOL0     H37779   9.510   5.332   5.353 -0.4017  0.3999  0.2939
  274MOL0     H37780   9.348   5.386   5.094  0.8933 -1.3798 -0.2051
  274MOL0     H37781   9.524   5.415   5.105  0.3254 -2.3389  0.6055
  274MOL0     H37782   9.475   5.574   5.300 -0.1265  1.8897 -1.3936
  274MOL0     H37783   9.305   5.545   5.277 -0.9092  2.4914 -1.2204
  274MOL0     H37784   9.491   5.666   5.080  0.2582 -4.8431 -2.5651
  274MOL0     H37785   9.340   5.612   5.042  1.5381 -2.2019  0.5054
  274MOL0     H37786   9.206   5.750   5.184  0.2516 -2.1636 -2.7886
  274MOL0     H37787   9.315   5.856   5.090 -0.4707 -0.5793 -0.9711
  274MOL0     H37788   9.487   5.849   5.280 -0.4356  1.6738 -0.0697
  274MOL0     H37789   9.365   5.771   5.372  1.8659 -0.9978 -1.6221
  274MOL0     H37790   9.334   6.041   5.238 -0.3461 -1.3999 -2.0517
  274MOL0     H37791   9.366   6.013   5.413  1.4586  1.9293 -1.7138
  274MOL0     H37792   9.332   4.841   5.395 -0.9284  1.3040 -1.1539
  274MOL0     H37793   9.405   4.607   5.358 -1.0408 -0.4354 -1.8899
  274MOL0     H37794   9.419   4.204   5.249 -1.3746 -0.1879 -2.0710
  274MOL0     H37795   9.521   3.975   5.260  1.2406 -0.0029  1.2882
  274MOL0     H37796   8.670   3.596   5.252  0.8188  0.8382  0.8389
  274MOL0     H37797   8.605   3.836   5.187  1.6863  0.7199  2.3276
  274MOL0     H37798   8.639   4.186   4.955 -1.9640  1.7079 -0.7375
  274MOL0     H37799   8.577   4.394   4.905  0.1607 -0.8199  0.0765
  274MOL0     H37800   8.578   4.743   4.856 -1.1791  0.5858 -0.0074
  274MOL0     H37801   8.523   4.581   4.905 -1.2407  0.7354 -0.3293
  274MOL0     H37802   8.558   4.645   5.150 -0.7348 -0.0876  0.6262
  274MOL0     H37803   8.425   4.719   5.058  0.4926 -0.8026  0.3476
  274MOL0     H37804   8.695   4.849   5.154  0.1307 -1.8324 -0.9257
  274MOL0     H37805   8.568   4.944   5.067  1.7412 -0.3603 -1.1934
  274MOL0     H37806   8.427   4.895   5.284 -0.3215 -0.6001  0.8283
  274MOL0     H37807   8.552   5.008   5.301 -2.6970 -0.2099  2.1292
  274MOL0     H37808   8.660   4.700   5.556  0.6914 -1.7192 -1.2648
  274MOL0     H37809   8.957   4.550   5.019  0.0100 -0.4094 -2.5977
  274MOL0     H37810   9.125   4.227   5.070 -2.8879 -1.9868  0.8573
  274MOL0     H37811   9.115   4.406   5.117 -0.0515  0.1420 -1.3557
  274MOL0     H37812   9.064   4.286   5.223  0.4031  0.7585  0.1818
  275MOL0     O37813   4.056   5.933   2.848  0.5371  0.4644 -0.6641
  275MOL0     C37814   4.127   5.871   2.927 -0.5752 -0.5905  0.2672
  275MOL0     O37815   4.255   5.892   2.938 -0.4886 -0.2941 -0.3226
  275MOL0     C37816   4.312   6.004   2.894 -0.2475 -0.2467  0.4718
  275MOL0     C37817   4.392   6.002   2.778  0.3534  0.8537 -0.1484
  275MOL0     C37818   4.460   6.114   2.739 -0.4698 -0.1604  0.0402
  275MOL0     C37819   4.456   6.239   2.814  0.7565  0.5240 -0.0280
  275MOL0     O37820   4.550   6.342   2.791 -0.3209  0.3427  0.6214
  275MOL0     C37821   4.568   6.434   2.904 -0.8058 -0.6421 -0.4235
  275MOL0     C37822   4.692   6.521   2.889  0.1974 -0.3019 -0.0305
  275MOL0     C37823   4.823   6.448   2.924  0.6448  0.0778  0.1062
  275MOL0     C37824   4.945   6.530   2.882 -0.2487 -0.0997  0.1391
  275MOL0     C37825   5.067   6.435   2.879 -0.9635  0.7170 -0.7924
  275MOL0     C37826   5.184   6.493   2.798  0.1297  0.6116  0.2078
  275MOL0     C37827   5.316   6.413   2.808 -1.0721  0.6538  0.4141
  275MOL0     C37828   5.333   6.302   2.697 -0.3819 -0.1337 -0.3852
  275MOL0     N37829   5.372   6.368   2.571  1.3482  0.1297 -0.0638
  275MOL0     C37830   5.480   6.441   2.549 -1.2411 -0.6540  0.3990
  275MOL0     C37831   5.477   6.471   2.417 -0.6572  0.2321 -0.7294
  275MOL0     C37832   5.589   6.541   2.350 -0.6552 -0.0045  0.3375
  275MOL0     C37833   5.674   6.437   2.263  0.9861 -0.6368  0.4998
  275MOL0     C37834   5.780   6.503   2.168  0.3989 -0.0152 -0.5730
  275MOL0     C37835   5.904   6.535   2.245 -0.3074  0.7633 -0.4381
  275MOL0     O37836   5.970   6.410   2.269  0.3642 -0.2550  0.4625
  275MOL0     C37837   6.100   6.409   2.310  0.6544 -0.0687 -0.1655
  275MOL0     C37838   6.169   6.510   2.373 -0.2655 -0.4149 -0.7087
  275MOL0     C37839   6.296   6.498   2.430  0.1578  0.1479 -0.2512
  275MOL0     C37840   6.347   6.624   2.494 -0.8529  0.6820  0.3877
  275MOL0     C37841   6.367   6.380   2.390 -0.2747 -0.1658 -0.6771
  275MOL0     C37842   6.511   6.373   2.417  0.5487  0.0007 -0.6135
  275MOL0     O37843   6.578   6.280   2.338  0.5836 -0.7566 -0.0203
  275MOL0     C37844   6.709   6.249   2.362  0.0026  0.6289  0.2193
  275MOL0     C37845   6.757   6.126   2.307 -0.5133 -0.1853 -0.5348
  275MOL0     C37846   6.887   6.089   2.308 -0.4283  0.6605  0.1592
  275MOL0     C37847   6.981   6.168   2.370 -0.1399  0.4608 -0.6290
  275MOL0     O37848   7.117   6.135   2.363 -0.0885 -0.0880  0.7351
  275MOL0     C37849   7.151   5.999   2.399 -0.1441  0.0668  0.3755
  275MOL0     C37850   7.271   5.967   2.316 -0.2786 -0.1187  0.0009
  275MOL0     C37851   7.398   6.033   2.339 -0.3852 -0.1534 -0.5162
  275MOL0     C37852   7.457   5.967   2.470 -0.7058 -0.0816 -0.1938
  275MOL0     C37853   7.610   5.989   2.475  0.9414 -0.3138  0.5223
  275MOL0     C37854   7.669   6.118   2.530 -0.6364  0.2929 -1.4647
  275MOL0     C37855   7.816   6.122   2.507 -0.0514  0.1374 -0.6245
  275MOL0     C37856   7.904   6.023   2.589  1.0741 -0.7139  0.6049
  275MOL0    Cl37857   7.896   6.069   2.760  0.0092 -0.2318  0.2204
  275MOL0     C37858   6.935   6.283   2.435 -0.0321  0.3922 -1.1352
  275MOL0     C37859   6.802   6.325   2.432 -0.0968  0.2277 -0.6415
  275MOL0     O37860   6.556   6.418   2.520  0.2933 -1.0467  1.3001
  275MOL0     C37861   6.295   6.274   2.319 -0.3971  0.4659 -0.6971
  275MOL0     C37862   6.166   6.294   2.282  0.1236  0.4427 -0.5704
  275MOL0     N37863   5.369   6.416   2.357 -0.4463 -1.0400 -0.7987
  275MOL0     N37864   5.303   6.363   2.454 -1.1544  0.3651  1.2817
  275MOL0     C37865   4.358   6.241   2.916  1.0378 -0.0316 -0.7754
  275MOL0     C37866   4.288   6.124   2.959 -0.8532  0.5546 -0.0673
  275MOL0     C37867   4.076   5.751   3.002  0.6244 -0.4067 -1.1279
  275MOL0     C37868   3.970   5.681   2.953  0.0168  0.1333  0.3349
  275MOL0     C37869   3.912   5.574   3.019 -0.0265  0.5854 -0.7297
  275MOL0     C37870   3.958   5.539   3.148  0.4188  0.6267  0.5413
  275MOL0     O37871   3.909   5.446   3.237  0.0129 -0.0384  0.7163
  275MOL0     C37872   3.761   5.428   3.225  0.8515 -1.1151  0.1119
  275MOL0     C37873   3.680   5.534   3.299  0.9805  0.1428 -0.4612
  275MOL0     C37874   3.716   5.556   3.447  0.0570 -0.0398 -0.2776
  275MOL0     C37875   3.633   5.658   3.524  0.6432 -0.5468 -0.6073
  275MOL0     C37876   3.666   5.668   3.669  0.1699 -0.8784  0.0156
  275MOL0     C37877   3.704   5.675   3.784  0.0254  0.2371  0.1699
  275MOL0     C37878   4.057   5.615   3.208 -0.2501  0.8420  0.2452
  275MOL0     C37879   4.113   5.721   3.134 -0.6546  0.3242  0.4058
  275MOL0     C37880   4.215   5.807   3.204 -0.3377  0.5655  0.0204
  275MOL0     H37881   4.401   5.907   2.725  1.8104  0.4240  0.8056
  275MOL0     H37882   4.532   6.103   2.658  0.5649 -0.3062  0.9524
  275MOL0     H37883   4.577   6.368   2.991 -3.5828  0.1976  0.5789
  275MOL0     H37884   4.477   6.491   2.925 -0.8650 -0.8932  0.0260
  275MOL0     H37885   4.695   6.554   2.785 -2.9170  3.9266  0.9215
  275MOL0     H37886   4.676   6.617   2.939 -2.2116 -2.3632  3.6523
  275MOL0     H37887   4.823   6.440   3.033 -0.0593  1.4748  0.2336
  275MOL0     H37888   4.821   6.352   2.872 -1.6357  0.7371 -1.1902
  275MOL0     H37889   4.927   6.565   2.780  1.1292 -1.7229 -0.7106
  275MOL0     H37890   4.970   6.617   2.943  2.7402  0.8545 -2.1972
  275MOL0     H37891   5.042   6.334   2.846 -1.1083  0.8712 -1.1541
  275MOL0     H37892   5.103   6.416   2.981 -0.3752  3.7863 -0.3392
  275MOL0     H37893   5.156   6.500   2.693 -0.6923  2.5803  0.5085
  275MOL0     H37894   5.193   6.601   2.815 -0.6975  0.5443  1.1588
  275MOL0     H37895   5.333   6.364   2.904 -1.3951 -2.1712 -0.8847
  275MOL0     H37896   5.405   6.477   2.800 -1.5523  1.2962  0.0919
  275MOL0     H37897   5.409   6.225   2.717  0.3834  0.8341  0.6237
  275MOL0     H37898   5.242   6.244   2.684  1.0171 -1.6406 -5.7397
  275MOL0     H37899   5.560   6.464   2.618 -0.6836 -2.0680  0.2558
  275MOL0     H37900   5.648   6.587   2.429 -0.8556  1.1483 -0.1497
  275MOL0     H37901   5.547   6.615   2.280  0.1816  0.8259  0.6994
  275MOL0     H37902   5.712   6.363   2.334 -1.6840 -0.3500  2.3676
  275MOL0     H37903   5.602   6.386   2.198 -1.3473  0.6815  1.9288
  275MOL0     H37904   5.806   6.435   2.087 -1.5180 -1.7110  0.1381
  275MOL0     H37905   5.738   6.592   2.122 -0.0182  0.9625  1.5863
  275MOL0     H37906   5.972   6.602   2.190 -0.2928 -0.0391 -1.4406
  275MOL0     H37907   5.886   6.583   2.341 -1.3007 -1.4710  0.5567
  275MOL0     H37908   6.105   6.591   2.407  2.8190  2.2508 -0.8267
  275MOL0     H37909   6.399   6.602   2.588 -1.8903 -0.3177  0.7469
  275MOL0     H37910   6.285   6.714   2.494 -1.0317  0.7586  4.5474
  275MOL0     H37911   6.440   6.645   2.440  0.4800 -0.3214  2.1530
  275MOL0     H37912   6.676   6.070   2.261 -1.1149  2.2168 -2.6947
  275MOL0     H37913   6.923   5.999   2.260  0.6691 -0.1292  2.3182
  275MOL0     H37914   7.180   5.989   2.504  0.0819 -2.0045  0.1454
  275MOL0     H37915   7.065   5.934   2.380 -1.2975  1.2665  1.2136
  275MOL0     H37916   7.287   5.859   2.325  1.2739  0.0270 -0.6023
  275MOL0     H37917   7.241   5.988   2.213 -0.9665  0.7674  0.3653
  275MOL0     H37918   7.397   6.142   2.346  0.0864 -0.1491 -0.4365
  275MOL0     H37919   7.470   6.006   2.260 -0.0389  3.4470 -1.5908
  275MOL0     H37920   7.445   5.859   2.464  0.3322 -0.2542  0.5182
  275MOL0     H37921   7.405   6.006   2.558 -1.5139 -0.0739 -0.6667
  275MOL0     H37922   7.638   5.908   2.543 -2.0385 -2.0496 -0.1029
  275MOL0     H37923   7.658   5.953   2.383 -3.1204 -0.9315 -1.6214
  275MOL0     H37924   7.644   6.123   2.636  0.4552  0.4482 -1.2112
  275MOL0     H37925   7.621   6.205   2.484 -0.3948  0.5204 -1.2887
  275MOL0     H37926   7.852   6.219   2.543  2.6968 -1.7751  2.3004
  275MOL0     H37927   7.826   6.118   2.398  1.6103 -1.0410 -0.4592
  275MOL0     H37928   8.004   6.039   2.545 -0.1528 -0.7835 -2.4383
  275MOL0     H37929   7.872   5.924   2.558 -0.1305  0.5434 -2.5635
  275MOL0     H37930   7.009   6.341   2.489  0.6164 -2.2962  1.1081
  275MOL0     H37931   6.774   6.422   2.472  0.7206 -0.9941  3.3564
  275MOL0     H37932   6.331   6.173   2.297 -0.0210  0.1795  1.1108
  275MOL0     H37933   6.127   6.221   2.213  1.9470  1.2973 -2.6246
  275MOL0     H37934   4.338   6.331   2.973  1.4119  0.4963 -1.4548
  275MOL0     H37935   4.246   6.125   3.060  2.1939 -1.7447  1.4183
  275MOL0     H37936   3.936   5.692   2.851  1.8723  0.1147 -0.3220
  275MOL0     H37937   3.825   5.529   2.972 -0.1303 -0.9181  0.8009
  275MOL0     H37938   3.737   5.430   3.118 -1.2378 -0.5567  0.5518
  275MOL0     H37939   3.724   5.334   3.266 -0.8831 -0.0679  1.0622
  275MOL0     H37940   3.575   5.500   3.297  1.0514 -0.2467  1.2460
  275MOL0     H37941   3.678   5.627   3.241 -3.1158  0.2026 -0.5219
  275MOL0     H37942   3.720   5.460   3.500  1.4934 -1.1060 -2.1888
  275MOL0     H37943   3.821   5.586   3.442 -0.0092  0.1308 -0.6792
  275MOL0     H37944   3.526   5.633   3.518 -0.2533  1.6177  3.0595
  275MOL0     H37945   3.630   5.758   3.478  1.3132 -0.0595  0.3841
  275MOL0     H37946   3.738   5.686   3.885 -3.2950  1.8900  1.2850
  275MOL0     H37947   4.079   5.593   3.312 -1.9642  2.8473  1.1152
  275MOL0     H37948   4.170   5.906   3.214  0.3361  0.6387  3.5287
  275MOL0     H37949   4.229   5.768   3.305 -1.2801 -0.4467 -0.2271
  275MOL0     H37950   4.312   5.802   3.153  0.1659  1.6260  0.8331
  276MOL0     O37951   2.518   6.014   7.080 -0.0866 -0.8892  0.3699
  276MOL0     C37952   2.471   5.988   6.968 -0.2701 -0.2615  0.8186
  276MOL0     O37953   2.529   6.025   6.844  0.4593 -0.3704 -0.7644
  276MOL0     C37954   2.630   6.112   6.836 -0.0782  0.0250 -0.0886
  276MOL0     C37955   2.746   6.087   6.757  0.2031 -0.1748 -0.1841
  276MOL0     C37956   2.849   6.183   6.743  0.0146 -0.9884 -0.3309
  276MOL0     C37957   2.835   6.306   6.812 -0.1396 -0.2375 -0.2405
  276MOL0     O37958   2.926   6.412   6.818  0.8576  0.6065  0.3945
  276MOL0     C37959   3.045   6.410   6.734  0.3256 -0.9588 -0.9521
  276MOL0     C37960   3.130   6.534   6.720  0.1964 -0.0170  0.2567
  276MOL0     C37961   3.048   6.635   6.648  0.9885 -0.0353 -0.2698
  276MOL0     C37962   3.120   6.756   6.596 -0.9396  1.3114 -0.1417
  276MOL0     C37963   3.193   6.740   6.466 -0.8737 -0.1949  0.1455
  276MOL0     C37964   3.100   6.762   6.347  0.3912  0.1726 -0.0205
  276MOL0     C37965   3.067   6.627   6.285 -0.8992 -0.0612 -0.6109
  276MOL0     C37966   2.986   6.645   6.159  0.2458 -0.0399  0.1342
  276MOL0     N37967   2.860   6.726   6.179  0.0759  1.0075 -1.0062
  276MOL0     C37968   2.742   6.672   6.218  0.3191 -0.5101  0.3246
  276MOL0     C37969   2.659   6.779   6.235  0.4924  0.0661  0.0015
  276MOL0     C37970   2.524   6.759   6.293  0.0733 -0.3115 -0.5988
  276MOL0     C37971   2.533   6.699   6.436 -0.9031 -0.2099 -0.1566
  276MOL0     C37972   2.391   6.724   6.492  1.4283  0.3269 -0.6338
  276MOL0     C37973   2.365   6.667   6.638 -0.2803  0.5637 -0.0029
  276MOL0     O37974   2.400   6.523   6.644  0.1593 -0.6102 -0.2429
  276MOL0     C37975   2.300   6.430   6.628  1.0972  0.0709  0.5814
  276MOL0     C37976   2.197   6.441   6.528 -0.7974  0.2637  0.6033
  276MOL0     C37977   2.108   6.332   6.509 -0.2894  0.2257  0.1762
  276MOL0     C37978   2.017   6.339   6.387  0.6754 -0.5545 -0.6549
  276MOL0     C37979   2.111   6.220   6.596 -0.0639 -0.7633  0.6087
  276MOL0     C37980   2.027   6.107   6.586  1.1870  0.2922  0.0878
  276MOL0     O37981   1.898   6.120   6.608  0.1916  0.6531  0.1731
  276MOL0     C37982   1.828   5.999   6.622  0.3532  0.0664  0.1536
  276MOL0     C37983   1.836   5.911   6.733 -0.4359 -0.1540 -0.7284
  276MOL0     C37984   1.746   5.801   6.732  0.6654 -1.3021  0.3805
  276MOL0     C37985   1.645   5.790   6.640  0.1463  0.2051  0.0241
  276MOL0     O37986   1.550   5.700   6.672  0.8967  0.0524  0.3145
  276MOL0     C37987   1.472   5.649   6.563 -0.3121  0.0537 -0.7107
  276MOL0     C37988   1.356   5.565   6.608  0.5570 -0.5646  0.2758
  276MOL0     C37989   1.389   5.448   6.698  0.5194 -1.0557 -0.7980
  276MOL0     C37990   1.268   5.408   6.777  0.4172  0.0411 -0.4757
  276MOL0     C37991   1.323   5.298   6.869  0.5581 -0.9485 -0.6066
  276MOL0     C37992   1.201   5.209   6.917  1.1329 -0.0769 -0.8401
  276MOL0     C37993   1.189   5.097   6.810  0.4916 -0.7304 -0.0770
  276MOL0     C37994   1.066   5.018   6.835 -0.3268  0.5534  0.5244
  276MOL0    Cl37995   0.918   5.129   6.791  0.4914 -0.0620  0.4298
  276MOL0     C37996   1.637   5.878   6.533 -0.3440  0.5136  0.1858
  276MOL0     C37997   1.739   5.982   6.522  0.1871  0.9681  0.5245
  276MOL0     O37998   2.080   5.995   6.563  0.3660 -0.2072  0.4302
  276MOL0     C37999   2.207   6.214   6.703 -0.1431 -0.0814  0.9475
  276MOL0     C38000   2.297   6.315   6.705 -0.3344  0.3842 -0.3912
  276MOL0     N38001   2.717   6.899   6.196  0.3103  1.3298  0.0444
  276MOL0     N38002   2.840   6.859   6.162 -1.2982  0.0293  0.6665
  276MOL0     C38003   2.718   6.331   6.881  0.1466 -0.4197 -0.2136
  276MOL0     C38004   2.620   6.236   6.892 -0.3559  0.0168 -0.3757
  276MOL0     C38005   2.340   5.920   6.973  0.5170 -0.1494  0.8822
  276MOL0     C38006   2.265   5.911   7.099 -0.5486 -0.3449 -0.0281
  276MOL0     C38007   2.141   5.843   7.112  0.8318 -0.8288  0.3680
  276MOL0     C38008   2.098   5.766   7.006 -0.2414 -0.8313  0.8954
  276MOL0     O38009   1.991   5.677   7.001  0.3549 -0.3629  0.1271
  276MOL0     C38010   1.900   5.685   7.116  0.1246  0.6065  0.2579
  276MOL0     C38011   1.790   5.589   7.071 -0.1530  0.5205 -0.2943
  276MOL0     C38012   1.659   5.593   7.156  0.0560  0.3827  0.5567
  276MOL0     C38013   1.559   5.480   7.125  0.6382 -0.8754 -0.3372
  276MOL0     C38014   1.614   5.350   7.145 -0.5305 -0.1682 -0.4476
  276MOL0     C38015   1.648   5.237   7.167 -0.6111  0.2400 -0.6169
  276MOL0     C38016   2.157   5.787   6.883 -0.6214 -0.5697  0.4565
  276MOL0     C38017   2.271   5.863   6.861 -0.0244 -0.2120 -0.1028
  276MOL0     C38018   2.316   5.871   6.717 -0.5113 -0.2136 -1.0416
  276MOL0     H38019   2.753   5.992   6.706 -2.0082 -0.6101  0.2293
  276MOL0     H38020   2.945   6.152   6.702  1.0716  0.1890  1.1266
  276MOL0     H38021   3.018   6.369   6.636 -0.1050 -1.5168 -0.6038
  276MOL0     H38022   3.108   6.340   6.789  0.0447 -0.9360 -0.5980
  276MOL0     H38023   3.165   6.569   6.817  2.3278 -0.9519 -0.1297
  276MOL0     H38024   3.216   6.522   6.653  1.2756  0.8262  1.4371
  276MOL0     H38025   2.979   6.597   6.572 -0.9646 -1.7907  2.1933
  276MOL0     H38026   2.977   6.663   6.727  0.1357  0.7232 -1.2796
  276MOL0     H38027   3.042   6.831   6.578 -1.6825  0.2924 -1.3331
  276MOL0     H38028   3.191   6.793   6.671  1.3068 -1.5989 -0.6138
  276MOL0     H38029   3.246   6.645   6.451 -4.0057 -2.1592  0.6292
  276MOL0     H38030   3.265   6.822   6.454 -2.1354  0.6079 -2.9746
  276MOL0     H38031   3.007   6.816   6.367 -2.5141 -4.3766  0.2487
  276MOL0     H38032   3.158   6.822   6.278 -0.1841  0.6306 -0.1098
  276MOL0     H38033   3.015   6.561   6.355  1.1581 -3.1265 -1.7350
  276MOL0     H38034   3.161   6.573   6.271 -0.9640 -0.9220  1.8868
  276MOL0     H38035   3.035   6.704   6.082 -1.8756  0.8108 -0.6326
  276MOL0     H38036   2.960   6.548   6.115  1.0775 -0.5810  0.8006
  276MOL0     H38037   2.724   6.566   6.236 -0.6899 -0.4820 -0.4536
  276MOL0     H38038   2.469   6.700   6.219 -1.8579  2.1396 -1.2706
  276MOL0     H38039   2.464   6.850   6.303 -0.5885 -0.8992  0.8996
  276MOL0     H38040   2.556   6.592   6.436  3.0348  0.5044 -0.0534
  276MOL0     H38041   2.610   6.739   6.503 -0.3045 -3.2924  1.1576
  276MOL0     H38042   2.388   6.831   6.517  0.1349 -0.0497  0.9721
  276MOL0     H38043   2.307   6.704   6.426 -1.2031 -0.0034  2.5565
  276MOL0     H38044   2.427   6.724   6.707  1.2656 -0.8021 -0.2105
  276MOL0     H38045   2.259   6.669   6.667 -0.1858  1.9181  0.3032
  276MOL0     H38046   2.199   6.524   6.458 -0.5744 -2.4268 -2.8449
  276MOL0     H38047   1.940   6.261   6.388 -1.0730  1.0925 -0.7206
  276MOL0     H38048   2.084   6.311   6.305 -2.3363 -2.1620 -2.7767
  276MOL0     H38049   1.982   6.442   6.375  0.5170 -0.6237 -0.7867
  276MOL0     H38050   1.910   5.928   6.811  0.3511  0.0435 -1.5080
  276MOL0     H38051   1.755   5.738   6.820  1.4250 -1.4329  0.2144
  276MOL0     H38052   1.430   5.735   6.510  0.5324  0.2389 -1.0990
  276MOL0     H38053   1.534   5.598   6.488 -1.6640  0.1527 -1.9393
  276MOL0     H38054   1.291   5.633   6.664  0.7585 -0.9782  1.0193
  276MOL0     H38055   1.290   5.526   6.529  0.3256 -0.9256  0.6464
  276MOL0     H38056   1.456   5.484   6.776 -2.2732 -1.4928  2.0335
  276MOL0     H38057   1.417   5.364   6.634 -0.3667 -1.8834 -0.1470
  276MOL0     H38058   1.187   5.364   6.718  1.3883 -2.0976 -0.3225
  276MOL0     H38059   1.231   5.487   6.844  0.9698  1.1097 -1.3941
  276MOL0     H38060   1.403   5.237   6.826 -0.2054 -1.9080 -0.7110
  276MOL0     H38061   1.364   5.342   6.961 -3.1166 -0.5926  1.0312
  276MOL0     H38062   1.114   5.275   6.920 -0.3928 -1.9913 -1.0197
  276MOL0     H38063   1.207   5.171   7.020  1.2657  3.6107  0.6763
  276MOL0     H38064   1.272   5.025   6.810  0.7414 -0.4610 -1.2157
  276MOL0     H38065   1.192   5.136   6.708  2.8588 -0.8799 -0.1337
  276MOL0     H38066   1.058   4.977   6.936 -0.5005  2.1404  1.1781
  276MOL0     H38067   1.058   4.940   6.758  0.3986  0.8828  0.1085
  276MOL0     H38068   1.560   5.866   6.458  1.4461  0.1931 -1.6903
  276MOL0     H38069   1.746   6.045   6.434 -0.5141  0.6557  0.2330
  276MOL0     H38070   2.210   6.134   6.776  2.0484  1.0609  2.2192
  276MOL0     H38071   2.387   6.312   6.766 -0.3289  0.3123 -0.4026
  276MOL0     H38072   2.694   6.429   6.922 -1.8837 -1.5160  1.4012
  276MOL0     H38073   2.524   6.257   6.940 -0.7842 -1.4088 -0.5391
  276MOL0     H38074   2.305   5.957   7.189 -0.4021 -1.4232  0.4767
  276MOL0     H38075   2.089   5.845   7.207  1.3060 -1.3190  0.6425
  276MOL0     H38076   1.958   5.648   7.201  1.4380  0.8209 -0.5245
  276MOL0     H38077   1.864   5.785   7.142 -0.2959  0.5200  0.0104
  276MOL0     H38078   1.838   5.491   7.080  1.2756  1.1340 -0.9495
  276MOL0     H38079   1.770   5.604   6.965  1.2867 -4.1995 -1.5027
  276MOL0     H38080   1.683   5.602   7.263  0.3798  1.4200  0.4117
  276MOL0     H38081   1.596   5.677   7.124  0.7407  0.5751 -0.3052
  276MOL0     H38082   1.533   5.491   7.019 -3.2155 -0.4507  0.4974
  276MOL0     H38083   1.464   5.490   7.179 -0.1193  1.3582 -1.9052
  276MOL0     H38084   1.664   5.132   7.181  1.0003  0.5082 -0.2010
  276MOL0     H38085   2.117   5.732   6.799  0.6473 -2.4679  1.0234
  276MOL0     H38086   2.408   5.816   6.696 -0.5406 -0.2928 -0.9647
  276MOL0     H38087   2.236   5.830   6.655 -0.0005  0.0359 -1.8806
  276MOL0     H38088   2.321   5.977   6.690 -1.0031  0.8856  2.6355
  277MOL0     O38089   7.724   5.720   8.707  0.8186 -0.5242 -0.3257
  277MOL0     C38090   7.658   5.630   8.766 -0.4957  0.4024 -0.4861
  277MOL0     O38091   7.701   5.502   8.767 -0.5580  0.0488  0.4569
  277MOL0     C38092   7.839   5.480   8.742 -0.4624  0.1078 -0.2949
  277MOL0     C38093   7.889   5.443   8.611  0.1760 -0.6985 -0.8686
  277MOL0     C38094   8.020   5.409   8.599  0.6695 -0.5337 -0.0755
  277MOL0     C38095   8.114   5.434   8.706  0.7167  0.3351 -0.8587
  277MOL0     O38096   8.248   5.427   8.692 -0.2459 -0.1892 -0.0872
  277MOL0     C38097   8.303   5.558   8.715 -1.1958 -0.6405  1.1046
  277MOL0     C38098   8.457   5.553   8.704  0.4986  0.3043  0.4356
  277MOL0     C38099   8.511   5.443   8.793  0.5976  0.9484 -1.0026
  277MOL0     C38100   8.658   5.444   8.776 -0.6618  0.1300  0.0935
  277MOL0     C38101   8.735   5.324   8.831  0.8687  0.9394  0.6600
  277MOL0     C38102   8.705   5.314   8.981  0.0047 -1.9534 -0.6615
  277MOL0     C38103   8.804   5.227   9.055  0.4798  0.5860  0.1626
  277MOL0     C38104   8.791   5.073   9.032 -0.2575 -1.4930 -0.1898
  277MOL0     N38105   8.871   4.983   9.113 -0.4697  0.0406 -0.1928
  277MOL0     C38106   9.003   4.968   9.106 -0.5146 -0.2450 -0.8810
  277MOL0     C38107   9.042   4.874   9.193  0.6385  0.2486  0.5485
  277MOL0     C38108   9.189   4.839   9.225  0.1758 -0.0969 -0.5935
  277MOL0     C38109   9.243   4.737   9.121 -0.3990  0.5911 -0.1071
  277MOL0     C38110   9.183   4.592   9.115  0.4881 -0.2137  0.0794
  277MOL0     C38111   9.193   4.521   9.254  0.1286  0.0243  0.5589
  277MOL0     O38112   9.327   4.496   9.299  0.1734 -0.1687 -0.7993
  277MOL0     C38113   9.397   4.391   9.247 -0.2369 -0.0191  0.2240
  277MOL0     C38114   9.365   4.293   9.148  0.2030  0.7474  0.2120
  277MOL0     C38115   9.453   4.186   9.114 -0.0909 -0.0374 -1.0861
  277MOL0     C38116   9.405   4.094   9.012  0.0032  0.3752 -0.0177
  277MOL0     C38117   9.576   4.181   9.179 -0.6543 -0.0896 -0.2489
  277MOL0     C38118   9.681   4.074   9.168  0.6367 -0.1701 -0.0373
  277MOL0     O38119   9.818   4.084   9.200  0.6556 -0.4227 -0.5810
  277MOL0     C38120   9.893   3.971   9.190  0.5624 -0.0123  0.4533
  277MOL0     C38121   9.931   3.910   9.069 -0.2318  0.4316  0.0561
  277MOL0     C38122  10.030   3.808   9.069 -0.2813 -0.1754  0.1892
  277MOL0     C38123  10.068   3.750   9.188 -0.2480 -1.0241  0.1019
  277MOL0     O38124  10.148   3.642   9.188 -0.4530  0.1324  0.3896
  277MOL0     C38125  10.290   3.657   9.181  1.0539  0.2883  0.7349
  277MOL0     C38126  10.333   3.690   9.319 -0.6859  0.3467  0.3343
  277MOL0     C38127  10.484   3.699   9.325  0.1849  0.0073 -0.9002
  277MOL0     C38128  10.515   3.715   9.475 -1.0261 -0.0298 -0.7029
  277MOL0     C38129  10.661   3.740   9.508  0.5612 -0.4306 -0.4256
  277MOL0     C38130  10.767   3.674   9.411 -1.1778  0.2865  0.1810
  277MOL0     C38131  10.915   3.710   9.449 -0.4220 -0.1474  0.1901
  277MOL0     C38132  11.008   3.595   9.413  0.3055  0.9800 -0.0002
  277MOL0    Cl38133  10.982   3.454   9.508  0.8722  0.4741 -0.0133
  277MOL0     C38134  10.023   3.809   9.313  0.0771  0.4139  0.7509
  277MOL0     C38135   9.935   3.923   9.311 -0.0829  0.2544  0.9233
  277MOL0     O38136   9.616   3.966   9.163 -0.2895  0.0740  0.0273
  277MOL0     C38137   9.607   4.282   9.271  0.0496 -0.5647 -0.5577
  277MOL0     C38138   9.522   4.384   9.303 -0.1216 -0.0249 -0.0728
  277MOL0     N38139   8.929   4.846   9.260 -0.4534 -0.0175 -0.1084
  277MOL0     N38140   8.824   4.914   9.216 -0.2637  0.6258 -0.2672
  277MOL0     C38141   8.054   5.467   8.833  0.2043  0.3183  0.2594
  277MOL0     C38142   7.926   5.499   8.850 -0.4019 -0.5040  0.1918
  277MOL0     C38143   7.537   5.658   8.842  0.3452 -0.0946  0.5381
  277MOL0     C38144   7.481   5.551   8.909 -0.1536  0.2736 -0.1181
  277MOL0     C38145   7.373   5.565   8.992  0.1323  0.4050 -0.4394
  277MOL0     C38146   7.302   5.685   9.000 -0.1208  0.0523 -0.0814
  277MOL0     O38147   7.198   5.686   9.087 -0.2093 -0.1417 -0.4786
  277MOL0     C38148   7.107   5.787   9.100  0.0145 -0.6684 -0.6156
  277MOL0     C38149   7.093   5.809   9.253 -0.5084 -0.4871  0.1481
  277MOL0     C38150   7.025   5.695   9.327  0.4903 -0.4750 -0.5793
  277MOL0     C38151   7.109   5.654   9.452 -0.0833  0.1841 -0.1898
  277MOL0     C38152   7.045   5.552   9.542 -0.1831  0.5310 -0.3505
  277MOL0     C38153   7.020   5.464   9.620 -0.7653 -0.0147 -0.4565
  277MOL0     C38154   7.356   5.797   8.931  0.5110  0.1726 -0.2638
  277MOL0     C38155   7.471   5.783   8.851 -0.4897  0.0057  0.2624
  277MOL0     C38156   7.523   5.897   8.774  1.1816 -0.0186  0.3712
  277MOL0     H38157   7.813   5.436   8.534 -4.1380  1.0850  2.7378
  277MOL0     H38158   8.056   5.392   8.498 -0.3617  0.9301 -0.7167
  277MOL0     H38159   8.265   5.593   8.812 -1.4254 -2.6875  1.8014
  277MOL0     H38160   8.265   5.627   8.639 -0.8075 -1.7703 -0.1378
  277MOL0     H38161   8.474   5.533   8.598  0.7852 -1.6277  0.8056
  277MOL0     H38162   8.498   5.651   8.730 -1.4944  1.5347 -0.7937
  277MOL0     H38163   8.477   5.449   8.897  0.4233 -1.1106 -0.8833
  277MOL0     H38164   8.468   5.351   8.751 -1.0966  1.7671 -1.1122
  277MOL0     H38165   8.675   5.449   8.668 -0.9118 -0.5748  0.0174
  277MOL0     H38166   8.702   5.536   8.815  0.5900 -1.5429  2.9057
  277MOL0     H38167   8.841   5.331   8.805  0.9630  1.4260  1.1518
  277MOL0     H38168   8.689   5.235   8.786  1.1925  1.0924  0.0207
  277MOL0     H38169   8.706   5.414   9.025 -2.0417 -2.5459  0.8960
  277MOL0     H38170   8.603   5.274   8.989  0.6209 -3.3196  1.0108
  277MOL0     H38171   8.782   5.243   9.161 -1.0984  2.1275 -0.3452
  277MOL0     H38172   8.906   5.259   9.030  0.4433  0.9538  0.4820
  277MOL0     H38173   8.686   5.059   9.060 -0.7801  0.9179 -0.7704
  277MOL0     H38174   8.799   5.050   8.926 -0.6783  1.9532 -1.0813
  277MOL0     H38175   9.075   5.013   9.039  1.6390  0.1633  1.5506
  277MOL0     H38176   9.194   4.798   9.326  1.6835  2.5492  0.4882
  277MOL0     H38177   9.237   4.937   9.222 -0.9190  0.4340 -2.5292
  277MOL0     H38178   9.239   4.766   9.016  0.6094  1.3856  0.0497
  277MOL0     H38179   9.350   4.731   9.145 -0.8744 -0.2060  1.9799
  277MOL0     H38180   9.084   4.601   9.068  1.0324  0.4873 -0.9718
  277MOL0     H38181   9.236   4.532   9.041 -2.1398 -2.0907 -0.4451
  277MOL0     H38182   9.148   4.579   9.336  1.0825  1.2097  0.2778
  277MOL0     H38183   9.136   4.429   9.243 -0.3810  0.3769  0.2087
  277MOL0     H38184   9.274   4.290   9.090 -0.1665 -1.9472  0.7879
  277MOL0     H38185   9.488   4.064   8.948  0.6899  0.5827  0.7661
  277MOL0     H38186   9.321   4.137   8.955 -0.2677 -0.9132 -0.6202
  277MOL0     H38187   9.378   4.002   9.064 -0.7970 -0.6567 -2.1484
  277MOL0     H38188   9.905   3.954   8.973 -0.7317 -1.6733 -0.8294
  277MOL0     H38189  10.067   3.770   8.975 -2.5142 -1.1653 -0.3576
  277MOL0     H38190  10.336   3.562   9.150  2.6611  1.3267 -0.2014
  277MOL0     H38191  10.310   3.731   9.103  0.8979  1.6921  1.9741
  277MOL0     H38192  10.279   3.783   9.340 -2.8125 -0.9552  0.8822
  277MOL0     H38193  10.292   3.610   9.381 -0.6412  0.1687  0.1375
  277MOL0     H38194  10.527   3.789   9.281  1.3846  0.6436  1.4169
  277MOL0     H38195  10.525   3.605   9.287 -0.7478 -1.0241  0.5186
  277MOL0     H38196  10.492   3.620   9.524  1.7282 -1.4480 -1.9282
  277MOL0     H38197  10.453   3.797   9.510  0.6084  1.8233 -1.9584
  277MOL0     H38198  10.689   3.846   9.505  0.0181 -0.2904 -2.2521
  277MOL0     H38199  10.677   3.705   9.610  2.4933 -2.2265 -1.2571
  277MOL0     H38200  10.753   3.703   9.307  3.0930 -2.6054 -1.4861
  277MOL0     H38201  10.752   3.567   9.424  0.2458  0.1630  1.1538
  277MOL0     H38202  10.937   3.733   9.553  3.4751  0.4025 -0.5823
  277MOL0     H38203  10.945   3.797   9.390 -2.0584 -0.1398 -0.6889
  277MOL0     H38204  11.111   3.623   9.433  0.1362  0.4013  1.9486
  277MOL0     H38205  11.012   3.551   9.313  1.0807 -1.7133  1.1173
  277MOL0     H38206  10.062   3.768   9.405  2.0523 -1.3737 -0.7736
  277MOL0     H38207   9.900   3.960   9.406 -1.5205 -1.1437  0.9764
  277MOL0     H38208   9.703   4.283   9.321 -0.2602  1.9718  0.0810
  277MOL0     H38209   9.557   4.459   9.374 -0.3628  0.9547 -0.9595
  277MOL0     H38210   8.120   5.479   8.919 -0.6752  3.0709  0.6316
  277MOL0     H38211   7.890   5.547   8.941 -0.9953  0.8293 -0.7197
  277MOL0     H38212   7.519   5.449   8.902  0.3244  0.4177  0.3146
  277MOL0     H38213   7.325   5.487   9.050 -1.2830  0.6253 -1.2644
  277MOL0     H38214   7.123   5.881   9.047 -3.8382  0.1942 -0.4798
  277MOL0     H38215   7.013   5.741   9.068 -2.7949 -0.7784  6.1604
  277MOL0     H38216   7.030   5.895   9.277  1.4131  0.5609  1.7824
  277MOL0     H38217   7.196   5.826   9.288 -1.4099 -1.0295  3.4064
  277MOL0     H38218   6.924   5.728   9.355  1.2387  1.0264  0.4798
  277MOL0     H38219   7.015   5.610   9.259  2.9463 -2.9228  1.8494
  277MOL0     H38220   7.120   5.743   9.514 -2.4837 -0.4525  1.2784
  277MOL0     H38221   7.203   5.618   9.408 -0.9391  0.1001 -2.0393
  277MOL0     H38222   6.984   5.400   9.698  0.4770  1.4350  1.3982
  277MOL0     H38223   7.316   5.894   8.958 -3.4644 -1.9189  2.3368
  277MOL0     H38224   7.543   5.870   8.670 -0.8270  3.0770 -0.9595
  277MOL0     H38225   7.452   5.980   8.772 -2.2651 -2.6193  2.6223
  277MOL0     H38226   7.613   5.935   8.822  1.1360  1.4080 -0.6117
  278MOL0     O38227   6.625   5.820   9.728  0.3464  0.2016 -0.0023
  278MOL0     C38228   6.612   5.839   9.854 -0.2671 -0.0109  0.3703
  278MOL0     O38229   6.538   5.929   9.918 -0.3814  0.3163  0.2594
  278MOL0     C38230   6.532   6.067   9.878 -0.4307  1.0661 -0.3824
  278MOL0     C38231   6.419   6.145   9.912 -0.3812 -0.6783  0.9508
  278MOL0     C38232   6.403   6.276   9.875 -0.0621  0.1059  0.2220
  278MOL0     C38233   6.501   6.339   9.793 -0.7220  0.3453 -0.0146
  278MOL0     O38234   6.496   6.469   9.750 -0.5449 -0.2679 -0.1711
  278MOL0     C38235   6.405   6.552   9.823  0.0794  0.9460 -0.1272
  278MOL0     C38236   6.439   6.694   9.800 -0.4512 -0.8132 -0.9904
  278MOL0     C38237   6.583   6.724   9.856 -0.1855  0.8663  0.5238
  278MOL0     C38238   6.625   6.862   9.808 -1.0140  0.3808  0.2891
  278MOL0     C38239   6.757   6.895   9.884  0.3063  0.9316 -0.8382
  278MOL0     C38240   6.799   7.045   9.875 -0.0795  0.9720  0.3234
  278MOL0     C38241   6.857   7.097   9.741 -0.6816 -0.2044 -0.6493
  278MOL0     C38242   6.985   7.025   9.693  0.5538 -0.1758  0.1279
  278MOL0     N38243   7.045   7.086   9.571  0.1395  0.0829  0.0047
  278MOL0     C38244   7.106   7.027   9.454 -0.0686  0.2105 -0.8901
  278MOL0     C38245   7.170   7.134   9.394  1.4799  0.4713 -0.7378
  278MOL0     C38246   7.257   7.147   9.262  0.0000 -0.1234  0.8195
  278MOL0     C38247   7.384   7.225   9.287 -1.0092 -0.2416  0.0175
  278MOL0     C38248   7.463   7.271   9.160 -0.8269  0.2432  0.9376
  278MOL0     C38249   7.595   7.337   9.206  0.3547  0.0512  0.0112
  278MOL0     O38250   7.565   7.465   9.274  0.3483 -0.2071 -0.6746
  278MOL0     C38251   7.654   7.488   9.378  0.9073 -0.0421 -0.7998
  278MOL0     C38252   7.755   7.577   9.369  0.1903  0.8741  0.0095
  278MOL0     C38253   7.848   7.600   9.480  0.0354 -0.1953 -0.0688
  278MOL0     C38254   7.958   7.697   9.445 -0.5481  0.2799 -0.5424
  278MOL0     C38255   7.831   7.531   9.601 -0.0556 -0.1794 -0.2794
  278MOL0     C38256   7.936   7.526   9.706 -0.2726  0.2626 -0.2721
  278MOL0     O38257   7.897   7.480   9.825  0.4288  0.6698  0.0406
  278MOL0     C38258   7.983   7.472   9.928  0.3493 -0.0859 -1.1485
  278MOL0     C38259   8.106   7.546   9.949  0.0577  0.5316 -0.6219
  278MOL0     C38260   8.173   7.520  10.070  0.4999 -0.2471 -0.6429
  278MOL0     C38261   8.129   7.425  10.164  0.2366 -0.5631 -0.4773
  278MOL0     O38262   8.208   7.394  10.274  0.3510  0.5337 -0.0498
  278MOL0     C38263   8.283   7.273  10.256 -0.0225  0.4103  0.2736
  278MOL0     C38264   8.354   7.220  10.382  0.3084  0.2931  0.7237
  278MOL0     C38265   8.287   7.106  10.456 -0.3562  1.2361 -1.0088
  278MOL0     C38266   8.355   7.093  10.599  0.0111  0.0997  0.5340
  278MOL0     C38267   8.260   7.010  10.698  0.4842 -0.2474  0.2797
  278MOL0     C38268   8.343   6.981  10.828  0.1600 -0.4369 -0.0121
  278MOL0     C38269   8.455   6.876  10.799 -0.4717  0.0674  0.4871
  278MOL0     C38270   8.497   6.827  10.934  0.0050  0.6431 -0.4080
  278MOL0    Cl38271   8.608   6.941  11.028  0.0189  0.1273  0.0207
  278MOL0     C38272   8.009   7.361  10.146 -0.0497  0.3124 -0.8522
  278MOL0     C38273   7.935   7.375  10.026 -0.8306 -0.1056 -0.1686
  278MOL0     O38274   8.048   7.542   9.669  0.6625 -0.0402  0.1359
  278MOL0     C38275   7.716   7.454   9.613 -0.6036  0.0434 -0.1435
  278MOL0     C38276   7.630   7.428   9.506 -0.3391 -0.9083 -0.5603
  278MOL0     N38277   7.127   7.255   9.452  0.5746  0.3988 -0.3377
  278MOL0     N38278   7.052   7.221   9.554 -0.0746  0.5662 -0.0009
  278MOL0     C38279   6.615   6.265   9.753  0.1451 -0.5723  0.1069
  278MOL0     C38280   6.629   6.130   9.803 -0.3083 -0.5616  0.1717
  278MOL0     C38281   6.671   5.729   9.936  0.3520 -0.7848 -0.1391
  278MOL0     C38282   6.596   5.681  10.047  0.7659  0.0967  0.1366
  278MOL0     C38283   6.642   5.581  10.132  0.4344 -0.5653  0.1391
  278MOL0     C38284   6.772   5.523  10.118  0.8548 -0.3247 -0.3065
  278MOL0     O38285   6.819   5.435  10.210 -0.7590  0.4691  0.0223
  278MOL0     C38286   6.933   5.483  10.280 -0.0308  0.4045  0.1941
  278MOL0     C38287   6.929   5.635  10.321 -0.0095 -0.0593  0.1920
  278MOL0     C38288   7.056   5.683  10.390 -0.1273 -0.3652  0.8036
  278MOL0     C38289   7.180   5.680  10.296 -0.1922 -0.1732  0.3910
  278MOL0     C38290   7.162   5.761  10.170  0.8599  0.4721 -0.2880
  278MOL0     C38291   7.136   5.824  10.074  0.1554 -0.2014 -0.0212
  278MOL0     C38292   6.846   5.577  10.011  1.3363 -0.4236 -0.4111
  278MOL0     C38293   6.797   5.673   9.917  0.5111  0.7248  0.3541
  278MOL0     C38294   6.891   5.714   9.805 -0.4173 -0.5415  0.0947
  278MOL0     H38295   6.344   6.092   9.969 -3.6219  2.1173 -0.3887
  278MOL0     H38296   6.311   6.322   9.909 -0.4599 -1.4198  1.3388
  278MOL0     H38297   6.397   6.526   9.929 -1.7866  3.4532  0.4448
  278MOL0     H38298   6.306   6.538   9.777  0.6377  0.3304 -1.1756
  278MOL0     H38299   6.423   6.708   9.693  0.6185  1.8572 -0.8895
  278MOL0     H38300   6.370   6.767   9.844 -0.7616 -0.3232 -2.2443
  278MOL0     H38301   6.582   6.728   9.965  3.7844  1.0850  0.6787
  278MOL0     H38302   6.660   6.648   9.838  1.0560  2.0914  0.5547
  278MOL0     H38303   6.638   6.858   9.700 -1.9772  1.0598  0.1414
  278MOL0     H38304   6.545   6.932   9.835 -0.9899  0.8654 -0.8511
  278MOL0     H38305   6.841   6.834   9.848  2.5961  3.7721 -0.7148
  278MOL0     H38306   6.755   6.871   9.991 -2.3779 -0.0261 -1.0500
  278MOL0     H38307   6.716   7.108   9.907 -0.5607  0.2218  0.5741
  278MOL0     H38308   6.871   7.074   9.952  0.8347  0.9968 -0.5183
  278MOL0     H38309   6.884   7.203   9.749  1.3884 -0.6840 -0.4975
  278MOL0     H38310   6.779   7.082   9.666  0.7041 -3.7021 -1.5830
  278MOL0     H38311   7.061   7.025   9.772  2.5782  1.0376 -1.7303
  278MOL0     H38312   6.961   6.919   9.682  1.8950 -0.9832  3.4828
  278MOL0     H38313   7.108   6.921   9.429 -1.9579 -0.3335  0.9777
  278MOL0     H38314   7.193   7.185   9.182  0.1285  1.9346  1.6389
  278MOL0     H38315   7.282   7.045   9.229 -2.0807 -0.8777  1.4099
  278MOL0     H38316   7.354   7.314   9.343  2.0810  0.5541  0.5837
  278MOL0     H38317   7.453   7.164   9.347 -0.2535 -0.8624 -1.4432
  278MOL0     H38318   7.495   7.189   9.095 -0.4133  2.0764 -1.2699
  278MOL0     H38319   7.406   7.340   9.098 -1.8620 -1.7461 -0.4018
  278MOL0     H38320   7.637   7.265   9.277 -0.0439  0.3112  0.5137
  278MOL0     H38321   7.667   7.341   9.124  1.1302 -0.9474  0.6212
  278MOL0     H38322   7.782   7.611   9.270 -1.3063  2.3823  0.0786
  278MOL0     H38323   7.929   7.763   9.362  2.3314 -0.7581 -2.5387
  278MOL0     H38324   8.049   7.645   9.413 -1.5940 -2.4319  0.6466
  278MOL0     H38325   7.984   7.765   9.527  2.9739  0.0797 -1.3175
  278MOL0     H38326   8.130   7.628   9.881 -2.0767 -0.8595 -3.2579
  278MOL0     H38327   8.263   7.577  10.092 -0.6398  1.7859 -0.9041
  278MOL0     H38328   8.223   7.190  10.215 -3.0346  1.6274  1.8480
  278MOL0     H38329   8.365   7.297  10.189  1.6042 -0.3891  1.8882
  278MOL0     H38330   8.451   7.176  10.357  0.4586 -0.1703  2.0469
  278MOL0     H38331   8.367   7.305  10.450  2.4497 -1.5974  2.8194
  278MOL0     H38332   8.299   7.012  10.402 -1.1488  0.9407 -0.6913
  278MOL0     H38333   8.183   7.138  10.470  0.1025  3.1505 -1.6236
  278MOL0     H38334   8.376   7.191  10.641  3.0267 -0.9582  1.7819
  278MOL0     H38335   8.455   7.048  10.591  0.3893  0.8255  1.1270
  278MOL0     H38336   8.165   7.057  10.724 -1.0167 -2.7224 -0.5155
  278MOL0     H38337   8.245   6.918  10.642 -1.0218  1.0299 -1.5444
  278MOL0     H38338   8.270   6.923  10.885  2.7730 -2.8645  1.1492
  278MOL0     H38339   8.384   7.071  10.873  0.1855 -0.1618 -0.5745
  278MOL0     H38340   8.547   6.918  10.758 -0.6242  1.4958  1.5645
  278MOL0     H38341   8.427   6.791  10.735  0.5861  1.2770 -1.7167
  278MOL0     H38342   8.551   6.732  10.933  2.0850  1.7303  0.9671
  278MOL0     H38343   8.402   6.799  10.979 -0.2341  3.0543  0.7263
  278MOL0     H38344   7.972   7.293  10.222  1.2024  0.8085  0.2302
  278MOL0     H38345   7.844   7.318  10.011 -2.1009  1.6730  0.4330
  278MOL0     H38346   7.703   7.394   9.702  2.5549  2.4297  2.1809
  278MOL0     H38347   7.544   7.362   9.516 -1.6572  0.6766 -0.9837
  278MOL0     H38348   6.698   6.314   9.704 -1.2175 -0.5158 -2.2974
  278MOL0     H38349   6.719   6.072   9.784 -1.8736 -2.8920 -0.5320
  278MOL0     H38350   6.509   5.735  10.082 -1.7029 -0.2510 -4.5924
  278MOL0     H38351   6.593   5.556  10.226  1.9247 -0.4542  0.9821
  278MOL0     H38352   6.950   5.425  10.372 -1.9753 -0.7690 -0.1308
  278MOL0     H38353   7.022   5.453  10.224 -0.6589 -1.3155  0.0394
  278MOL0     H38354   6.853   5.653  10.398 -0.6930  2.8067 -1.0100
  278MOL0     H38355   6.901   5.703  10.240 -1.5081  0.2453  0.9312
  278MOL0     H38356   7.043   5.786  10.426 -2.8602 -0.3505 -0.0290
  278MOL0     H38357   7.066   5.615  10.475 -1.5467 -0.8294  0.6189
  278MOL0     H38358   7.210   5.579  10.265  2.3548  0.2750  1.2359
  278MOL0     H38359   7.268   5.706  10.354  1.1029 -1.5325 -0.8955
  278MOL0     H38360   7.127   5.887   9.987  3.4044 -0.5460 -0.7016
  278MOL0     H38361   6.950   5.547  10.005  1.2446 -1.5109  2.1473
  278MOL0     H38362   6.835   5.700   9.712 -0.5042 -2.7774  0.4384
  278MOL0     H38363   6.919   5.820   9.812 -0.1736 -0.5124 -1.1203
  278MOL0     H38364   6.989   5.665   9.807 -0.7751 -1.2745  2.2104
  279MOL0     O38365   4.051  11.156   1.960  1.1436  0.0718  0.0254
  279MOL0     C38366   3.943  11.215   1.966  0.3395 -0.4265  0.5149
  279MOL0     O38367   3.931  11.350   1.936  0.1210  0.1850 -0.1648
  279MOL0     C38368   4.051  11.409   1.895 -0.0748  0.0336 -0.4865
  279MOL0     C38369   4.122  11.489   1.987 -0.6066 -0.1650 -0.6658
  279MOL0     C38370   4.230  11.561   1.948  0.4351  0.2210  0.2259
  279MOL0     C38371   4.285  11.546   1.816 -0.5580  0.3444 -0.0141
  279MOL0     O38372   4.408  11.591   1.779 -0.5299 -0.4680 -0.3534
  279MOL0     C38373   4.502  11.624   1.892  1.0559 -0.2103  0.5597
  279MOL0     C38374   4.636  11.645   1.827  0.6434 -0.0472 -0.1125
  279MOL0     C38375   4.689  11.533   1.734  0.2272  0.4444 -0.7978
  279MOL0     C38376   4.795  11.592   1.641  0.5414  0.0066  0.4926
  279MOL0     C38377   4.807  11.514   1.510 -1.0996 -1.0487 -0.1236
  279MOL0     C38378   4.930  11.566   1.435 -0.4575 -0.4648 -0.0285
  279MOL0     C38379   4.954  11.486   1.305 -0.4278  0.3863  0.1520
  279MOL0     C38380   5.087  11.505   1.232 -0.8914 -0.6085  0.3968
  279MOL0     N38381   5.202  11.479   1.315 -0.7210 -0.3239  0.0656
  279MOL0     C38382   5.238  11.345   1.340 -0.6744 -0.1417 -0.3341
  279MOL0     C38383   5.377  11.349   1.370  0.0854 -0.8097  0.8816
  279MOL0     C38384   5.469  11.227   1.372 -0.3165  0.2825 -0.0507
  279MOL0     C38385   5.622  11.259   1.362 -0.1693  0.5606 -0.0481
  279MOL0     C38386   5.659  11.332   1.490  0.1140 -0.7676 -0.0073
  279MOL0     C38387   5.808  11.366   1.499 -0.0437 -0.1045 -0.1237
  279MOL0     O38388   5.859  11.419   1.375  0.1290 -0.2932 -0.3205
  279MOL0     C38389   5.994  11.449   1.368  0.3542 -0.3005 -0.6487
  279MOL0     C38390   6.045  11.488   1.238  0.6253 -0.7770  0.3924
  279MOL0     C38391   6.181  11.501   1.216 -0.0524 -0.6358  0.9774
  279MOL0     C38392   6.226  11.521   1.081 -0.1167  0.2097 -0.1390
  279MOL0     C38393   6.275  11.493   1.324  0.3698 -0.2849 -0.0145
  279MOL0     C38394   6.425  11.509   1.318  0.5264 -0.6442  0.0274
  279MOL0     O38395   6.500  11.472   1.431  0.6219 -0.6370  0.2220
  279MOL0     C38396   6.639  11.475   1.418 -0.4017 -0.0852  0.0790
  279MOL0     C38397   6.708  11.597   1.401 -0.0811 -0.0898  0.2187
  279MOL0     C38398   6.847  11.589   1.385  0.5467 -0.6318 -0.9536
  279MOL0     C38399   6.916  11.471   1.398 -0.4887  0.3899 -0.0674
  279MOL0     O38400   7.055  11.451   1.374  0.5807 -0.0500 -0.0479
  279MOL0     C38401   7.125  11.577   1.367  0.2583  0.1158  0.3531
  279MOL0     C38402   7.278  11.566   1.351  0.1844 -0.3822 -0.6584
  279MOL0     C38403   7.339  11.493   1.470 -0.0877 -0.0033 -0.6844
  279MOL0     C38404   7.493  11.485   1.445 -0.2841  0.3063 -0.4037
  279MOL0     C38405   7.564  11.396   1.552  0.1626 -0.0685  0.9427
  279MOL0     C38406   7.575  11.259   1.491 -0.0790  0.1831 -0.1380
  279MOL0     C38407   7.671  11.164   1.566 -0.3110  0.7918 -0.2514
  279MOL0     C38408   7.690  11.027   1.497  0.2530 -0.0858  0.3896
  279MOL0    Cl38409   7.804  11.032   1.348  0.0394 -0.0484 -0.3086
  279MOL0     C38410   6.842  11.352   1.434  0.0442 -0.3500 -0.5531
  279MOL0     C38411   6.702  11.356   1.440 -0.1204 -1.1111  0.1522
  279MOL0     O38412   6.479  11.559   1.223  0.1741  0.3420  0.6124
  279MOL0     C38413   6.219  11.459   1.443 -0.1211 -0.2020  0.7979
  279MOL0     C38414   6.083  11.436   1.472 -0.4942  0.2379 -0.1608
  279MOL0     N38415   5.398  11.490   1.363  0.1618 -0.2409 -0.3886
  279MOL0     N38416   5.293  11.567   1.345 -0.1506  0.1637 -0.2506
  279MOL0     C38417   4.212  11.471   1.728  0.0160 -0.6573  0.0590
  279MOL0     C38418   4.097  11.409   1.766 -0.4476  0.1658  0.0687
  279MOL0     C38419   3.809  11.157   1.979  0.0988  0.2270 -0.5143
  279MOL0     C38420   3.696  11.237   1.969  0.1156  0.9145  0.1247
  279MOL0     C38421   3.568  11.190   1.975  0.1270  0.3292  0.4291
  279MOL0     C38422   3.544  11.056   2.004  0.0514 -0.7259  0.0632
  279MOL0     O38423   3.422  10.998   2.017  0.3139 -0.1637 -0.4711
  279MOL0     C38424   3.311  11.074   2.060  1.5617 -0.2075 -0.4812
  279MOL0     C38425   3.324  11.094   2.213  0.3767  0.5340  0.7041
  279MOL0     C38426   3.291  11.232   2.257  0.3965 -0.2070  0.0935
  279MOL0     C38427   3.161  11.238   2.342 -0.8638  0.0653 -0.5997
  279MOL0     C38428   3.154  11.355   2.423  0.4788 -0.5762  1.1886
  279MOL0     C38429   3.128  11.458   2.475 -0.2162 -0.8766 -0.3146
  279MOL0     C38430   3.654  10.964   2.000 -0.0312  0.1510  0.6074
  279MOL0     C38431   3.788  11.015   1.988  0.3460  1.4116  0.0317
  279MOL0     C38432   3.895  10.906   1.993 -0.6744 -0.0146 -0.0354
  279MOL0     H38433   4.094  11.514   2.089  5.3667  0.0474  1.3339
  279MOL0     H38434   4.276  11.631   2.016  2.8814 -1.8254  0.8496
  279MOL0     H38435   4.510  11.538   1.958  1.5406  0.1603  0.9871
  279MOL0     H38436   4.470  11.714   1.946  0.0706  0.3497 -0.8853
  279MOL0     H38437   4.625  11.736   1.767  2.7223 -0.1909 -0.7856
  279MOL0     H38438   4.710  11.670   1.903 -0.2413  0.3753  0.6288
  279MOL0     H38439   4.735  11.465   1.806 -0.4535  1.8605  1.0603
  279MOL0     H38440   4.607  11.482   1.684 -0.5274 -1.0588  1.8012
  279MOL0     H38441   4.772  11.690   1.598  0.6907 -0.2621 -0.2087
  279MOL0     H38442   4.887  11.616   1.695  0.6400  0.4333  0.1434
  279MOL0     H38443   4.721  11.540   1.447 -1.6208 -1.1205  0.5446
  279MOL0     H38444   4.817  11.409   1.538  1.7722 -0.6246  0.7169
  279MOL0     H38445   4.913  11.673   1.419 -1.6055 -0.4644  1.0602
  279MOL0     H38446   5.024  11.552   1.489  1.6197  0.4779 -3.1442
  279MOL0     H38447   4.872  11.514   1.237 -1.5757 -2.0180  0.4179
  279MOL0     H38448   4.949  11.381   1.336 -0.1788  0.8292  1.7471
  279MOL0     H38449   5.078  11.459   1.133 -0.0841  0.5470 -0.2374
  279MOL0     H38450   5.098  11.611   1.209  1.1905 -1.0304 -0.8210
  279MOL0     H38451   5.186  11.254   1.314  1.4335 -1.3029 -0.6670
  279MOL0     H38452   5.447  11.164   1.286 -2.2072  1.5853 -0.5881
  279MOL0     H38453   5.455  11.169   1.464 -0.4997  1.6316  0.8125
  279MOL0     H38454   5.677  11.164   1.361 -0.6317  0.2790 -1.3390
  279MOL0     H38455   5.640  11.315   1.270  2.2250  0.9237  0.5807
  279MOL0     H38456   5.596  11.418   1.515  1.7853  0.4636  0.1229
  279MOL0     H38457   5.635  11.266   1.574  0.3413 -1.7702 -0.7112
  279MOL0     H38458   5.832  11.435   1.581 -0.9895  0.3873 -0.2492
  279MOL0     H38459   5.863  11.276   1.526  1.2082  0.9639  1.1046
  279MOL0     H38460   5.971  11.495   1.159  1.7186 -0.7876 -0.6805
  279MOL0     H38461   6.253  11.627   1.072 -0.2256  0.3731  1.1887
  279MOL0     H38462   6.160  11.489   1.001  0.6063  1.3872 -1.2477
  279MOL0     H38463   6.319  11.465   1.067 -0.1441  0.0608  0.2489
  279MOL0     H38464   6.652  11.690   1.398  1.3712  0.8046 -0.0256
  279MOL0     H38465   6.893  11.679   1.345  0.5887 -0.7355 -1.1379
  279MOL0     H38466   7.085  11.634   1.283  1.4671 -2.0739 -1.8376
  279MOL0     H38467   7.096  11.649   1.445 -2.5042  1.6973 -1.9444
  279MOL0     H38468   7.298  11.509   1.260 -1.5412  2.1299 -2.7554
  279MOL0     H38469   7.321  11.666   1.339  1.5777 -0.6465  1.5182
  279MOL0     H38470   7.297  11.393   1.482 -0.6247  0.2970  0.0056
  279MOL0     H38471   7.324  11.543   1.566 -2.7263  1.0029 -1.5265
  279MOL0     H38472   7.529  11.587   1.464 -0.2925 -0.4657  5.9897
  279MOL0     H38473   7.514  11.449   1.345  2.2536 -2.1064  0.8582
  279MOL0     H38474   7.661  11.436   1.582  0.8453  0.2871 -1.4710
  279MOL0     H38475   7.503  11.389   1.643 -1.3262 -1.3064 -0.0766
  279MOL0     H38476   7.612  11.259   1.388  2.3243 -1.6442  0.6061
  279MOL0     H38477   7.475  11.216   1.492 -1.1028  2.2797  2.8832
  279MOL0     H38478   7.639  11.140   1.667  1.5633 -1.1372 -0.0321
  279MOL0     H38479   7.766  11.212   1.590 -0.3877  1.2732 -0.8745
  279MOL0     H38480   7.597  10.987   1.456 -1.3636  0.8980  2.9124
  279MOL0     H38481   7.718  10.951   1.570 -1.7597 -0.2491  1.0442
  279MOL0     H38482   6.890  11.255   1.443  1.2602  0.0618 -2.1853
  279MOL0     H38483   6.644  11.269   1.470 -0.1673 -0.1060  3.3819
  279MOL0     H38484   6.279  11.444   1.532 -1.3557 -3.9670  1.1668
  279MOL0     H38485   6.059  11.403   1.572 -0.1568  1.0108  0.1851
  279MOL0     H38486   4.242  11.460   1.624 -2.6688 -0.1025 -0.8418
  279MOL0     H38487   4.038  11.357   1.691  0.7595  0.4144 -1.1014
  279MOL0     H38488   3.703  11.344   1.956  0.7343  0.9007  0.3049
  279MOL0     H38489   3.478  11.249   1.960  1.1377  1.5623 -1.0153
  279MOL0     H38490   3.299  11.168   2.005 -1.7355 -1.7906 -2.8479
  279MOL0     H38491   3.219  11.018   2.043  1.6862 -0.4982 -0.2140
  279MOL0     H38492   3.432  11.089   2.231  1.0803 -1.5795 -3.0866
  279MOL0     H38493   3.272  11.012   2.264  0.5283  0.5661  0.9130
  279MOL0     H38494   3.372  11.265   2.322 -0.0615  0.7786  0.1727
  279MOL0     H38495   3.280  11.300   2.172 -0.1695 -2.1985 -1.5130
  279MOL0     H38496   3.155  11.151   2.408 -2.1278 -0.4776 -1.3874
  279MOL0     H38497   3.076  11.238   2.273 -1.5255  2.6363  0.1147
  279MOL0     H38498   3.108  11.540   2.541 -0.0895 -0.1460 -1.1758
  279MOL0     H38499   3.644  10.860   2.027 -0.5653  0.3503  1.2262
  279MOL0     H38500   3.979  10.929   2.060  0.5754  0.3143 -1.6624
  279MOL0     H38501   3.852  10.814   2.033  2.3246 -1.8336 -0.7016
  279MOL0     H38502   3.938  10.883   1.895  0.5174  0.3643  0.3791
  280MOL0     O38503   3.998   5.357   9.284 -0.1331  0.3454  0.1533
  280MOL0     C38504   3.949   5.306   9.387  0.3977 -0.1086 -0.2778
  280MOL0     O38505   4.010   5.303   9.510 -0.1191  0.5284 -0.3938
  280MOL0     C38506   4.136   5.357   9.517 -0.2174  0.4711  0.2610
  280MOL0     C38507   4.244   5.285   9.487  0.1840  0.2488  0.3887
  280MOL0     C38508   4.373   5.340   9.489 -0.6123  0.0139  0.6498
  280MOL0     C38509   4.400   5.477   9.510  0.0832  0.4439 -1.1311
  280MOL0     O38510   4.530   5.511   9.501  0.2060 -1.1604  0.0815
  280MOL0     C38511   4.552   5.647   9.548 -0.0565  0.1507  0.8433
  280MOL0     C38512   4.705   5.674   9.542  0.9767 -0.3860  0.2721
  280MOL0     C38513   4.775   5.572   9.637  0.4604  0.0365  0.6143
  280MOL0     C38514   4.923   5.579   9.608  0.1084  1.4765  0.8971
  280MOL0     C38515   5.008   5.502   9.710  0.2661  0.4830  0.2621
  280MOL0     C38516   5.151   5.496   9.659 -0.5044  0.3813 -0.1699
  280MOL0     C38517   5.220   5.355   9.687  1.0543  0.2362 -0.5203
  280MOL0     C38518   5.140   5.248   9.598  0.0985  0.0701 -0.1967
  280MOL0     N38519   5.223   5.139   9.559 -0.1521 -0.5313 -0.1612
  280MOL0     C38520   5.321   5.163   9.464 -0.1093  0.5338 -0.5239
  280MOL0     C38521   5.388   5.046   9.455 -0.3092  0.2118 -0.0109
  280MOL0     C38522   5.508   5.034   9.357  0.0426 -0.5595 -0.0764
  280MOL0     C38523   5.630   5.093   9.418 -0.4561 -0.2927 -0.4936
  280MOL0     C38524   5.746   5.058   9.323 -0.6753  0.0170  0.5358
  280MOL0     C38525   5.800   4.916   9.307  0.3845 -0.1101  0.6261
  280MOL0     O38526   5.807   4.844   9.430  0.4704  0.3729 -0.2815
  280MOL0     C38527   5.894   4.743   9.429 -0.3781  0.1577 -0.1835
  280MOL0     C38528   5.851   4.612   9.458  0.2172 -0.5602 -0.0873
  280MOL0     C38529   5.938   4.512   9.457  0.0307  0.7208 -0.2555
  280MOL0     C38530   5.881   4.375   9.504  0.1785  0.0933 -0.5299
  280MOL0     C38531   6.077   4.530   9.430 -0.4735 -0.6736  0.8453
  280MOL0     C38532   6.182   4.428   9.428 -0.3191  0.3193 -0.3110
  280MOL0     O38533   6.158   4.304   9.372  0.0082 -0.1559  0.4210
  280MOL0     C38534   6.237   4.196   9.391  0.8201  0.1690  0.4575
  280MOL0     C38535   6.254   4.147   9.515  0.6264 -0.2380  0.2212
  280MOL0     C38536   6.308   4.023   9.542 -0.1868 -0.2630  0.1655
  280MOL0     C38537   6.345   3.937   9.438 -1.1426  0.1384 -0.0795
  280MOL0     O38538   6.407   3.817   9.459  0.3277 -0.2080 -0.6529
  280MOL0     C38539   6.484   3.799   9.574  0.1328 -0.0505  0.3484
  280MOL0     C38540   6.564   3.680   9.540  0.2750  0.7699 -0.8214
  280MOL0     C38541   6.618   3.606   9.660 -0.0084 -0.7495 -0.2008
  280MOL0     C38542   6.716   3.702   9.743  0.4514 -0.1972  0.2281
  280MOL0     C38543   6.843   3.748   9.672  0.5133 -0.3759 -0.3860
  280MOL0     C38544   6.940   3.809   9.774  0.4550  0.7014  0.1896
  280MOL0     C38545   7.008   3.704   9.867  0.2185  0.8815  0.9698
  280MOL0     C38546   7.121   3.627   9.795  0.5224  0.3401  1.1139
  280MOL0    Cl38547   7.170   3.500   9.902  0.2062 -0.6347  0.1031
  280MOL0     C38548   6.348   3.996   9.313  0.0796 -0.1855  0.5994
  280MOL0     C38549   6.298   4.128   9.288 -0.2679 -0.4271  0.4657
  280MOL0     O38550   6.290   4.466   9.483 -0.9915 -0.2964  0.1932
  280MOL0     C38551   6.118   4.661   9.405  0.0344  0.3226 -0.3382
  280MOL0     C38552   6.024   4.760   9.392  0.3928 -0.2353  0.1106
  280MOL0     N38553   5.325   4.947   9.530  1.0795 -0.1702 -0.0575
  280MOL0     N38554   5.226   5.003   9.589 -0.6188 -0.2270  0.1929
  280MOL0     C38555   4.285   5.555   9.555  0.2462  0.4471  0.0494
  280MOL0     C38556   4.157   5.490   9.541  0.0314  0.1056  0.0128
  280MOL0     C38557   3.823   5.231   9.378  0.7712 -0.8088  0.1790
  280MOL0     C38558   3.795   5.132   9.479  0.7069 -0.9047 -0.4740
  280MOL0     C38559   3.685   5.051   9.468  0.2422  0.1953 -0.4972
  280MOL0     C38560   3.591   5.059   9.366 -0.3222  0.4487 -1.0523
  280MOL0     O38561   3.489   4.969   9.379  0.8218  1.0358 -0.5609
  280MOL0     C38562   3.400   4.948   9.266  0.0585 -0.6401 -0.3080
  280MOL0     C38563   3.314   4.826   9.294  0.6230 -0.5018 -0.3100
  280MOL0     C38564   3.229   4.836   9.429  0.7712 -0.0177 -0.0312
  280MOL0     C38565   3.137   4.952   9.430  0.2427 -0.4011 -0.4164
  280MOL0     C38566   3.049   4.938   9.549 -0.2516  0.0070  1.5197
  280MOL0     C38567   2.971   4.931   9.644 -1.0518  0.8689  0.3561
  280MOL0     C38568   3.615   5.147   9.259  0.3294  0.0894 -0.4470
  280MOL0     C38569   3.731   5.234   9.261 -0.3317  0.2113  0.1250
  280MOL0     C38570   3.755   5.337   9.145 -0.6711 -0.1061 -0.1570
  280MOL0     H38571   4.240   5.180   9.458 -0.4365  0.0990  0.9692
  280MOL0     H38572   4.457   5.280   9.456 -1.9447 -1.4282 -0.2483
  280MOL0     H38573   4.518   5.662   9.651  0.1770 -0.6317  1.0381
  280MOL0     H38574   4.507   5.731   9.493 -1.5753  1.0284  3.2675
  280MOL0     H38575   4.729   5.654   9.437 -1.9589 -0.9058 -0.4016
  280MOL0     H38576   4.723   5.778   9.570 -0.3430 -0.5637  2.0265
  280MOL0     H38577   4.752   5.595   9.742 -1.4860 -0.9927  0.4506
  280MOL0     H38578   4.740   5.470   9.623 -0.2957  0.4713 -0.9451
  280MOL0     H38579   4.942   5.538   9.508 -0.2894  0.1001  1.3746
  280MOL0     H38580   4.949   5.686   9.609  0.0341  1.5190 -0.1423
  280MOL0     H38581   4.961   5.404   9.718  0.1695  0.5068 -0.0134
  280MOL0     H38582   5.001   5.547   9.809  3.0877 -0.6649  1.0906
  280MOL0     H38583   5.165   5.520   9.553  0.4264 -0.4991 -0.2656
  280MOL0     H38584   5.199   5.587   9.695 -1.6177  1.8468 -2.1813
  280MOL0     H38585   5.226   5.336   9.795 -0.9521  2.0321 -0.0167
  280MOL0     H38586   5.325   5.361   9.655  0.7342 -1.5540 -2.0763
  280MOL0     H38587   5.054   5.210   9.653 -0.3528  0.2093 -0.8038
  280MOL0     H38588   5.092   5.290   9.509 -1.2953 -0.6465  0.1971
  280MOL0     H38589   5.349   5.257   9.418 -1.2055  0.2504 -1.8479
  280MOL0     H38590   5.484   5.081   9.261  0.7415  0.9396  0.4546
  280MOL0     H38591   5.525   4.926   9.348 -1.4905 -1.1422  2.7448
  280MOL0     H38592   5.636   5.202   9.419  0.8388 -0.3528 -0.5811
  280MOL0     H38593   5.651   5.057   9.519 -2.3463  1.3363  0.5509
  280MOL0     H38594   5.711   5.092   9.225 -1.3953 -1.6842  0.1613
  280MOL0     H38595   5.828   5.118   9.362  1.1632 -2.2193  0.3535
  280MOL0     H38596   5.731   4.859   9.245 -1.1378  1.5159  0.7314
  280MOL0     H38597   5.897   4.915   9.258  0.7334 -3.6153  1.1496
  280MOL0     H38598   5.743   4.607   9.470  0.1014 -0.2241 -0.9632
  280MOL0     H38599   5.789   4.382   9.562 -0.0609 -1.5097 -0.6632
  280MOL0     H38600   5.950   4.322   9.570  0.3275  0.1722 -0.6209
  280MOL0     H38601   5.875   4.307   9.418 -1.2824 -2.6919  1.6169
  280MOL0     H38602   6.221   4.209   9.598 -2.6177  1.0895 -1.8752
  280MOL0     H38603   6.313   3.993   9.646 -1.0269  0.3628  0.3971
  280MOL0     H38604   6.543   3.888   9.597 -1.0540  1.9912 -3.6122
  280MOL0     H38605   6.424   3.754   9.654 -0.2428 -0.0690  0.0560
  280MOL0     H38606   6.498   3.615   9.481 -4.6707  2.6303  2.0243
  280MOL0     H38607   6.641   3.704   9.466 -0.2458  1.9771 -0.9904
  280MOL0     H38608   6.685   3.525   9.629  0.0994 -0.9635  0.5851
  280MOL0     H38609   6.534   3.567   9.718 -0.2388 -0.8664 -0.6059
  280MOL0     H38610   6.736   3.649   9.837 -1.4136  3.3603  2.8803
  280MOL0     H38611   6.656   3.789   9.771 -0.9386 -1.4958  1.4340
  280MOL0     H38612   6.888   3.664   9.617 -0.5043 -1.3519  0.2204
  280MOL0     H38613   6.815   3.822   9.596 -2.2434 -2.0291 -1.1178
  280MOL0     H38614   6.891   3.891   9.828  1.1390  2.0117 -1.1141
  280MOL0     H38615   7.018   3.853   9.712  1.9044 -3.5692 -1.3636
  280MOL0     H38616   6.937   3.627   9.897  0.9646  0.1538  0.9067
  280MOL0     H38617   7.050   3.754   9.954  1.0814  1.2282  0.3662
  280MOL0     H38618   7.199   3.700   9.773 -1.2827  3.0915  3.2794
  280MOL0     H38619   7.081   3.577   9.706  3.1381 -1.8569  1.0238
  280MOL0     H38620   6.397   3.939   9.235  0.0461  0.0931  0.3702
  280MOL0     H38621   6.311   4.157   9.184  1.2387 -1.1808  0.4149
  280MOL0     H38622   6.220   4.672   9.372 -0.0651 -1.7125 -1.5179
  280MOL0     H38623   6.063   4.860   9.378 -0.5281  0.0633 -0.4109
  280MOL0     H38624   4.280   5.659   9.586 -0.2392 -0.0992  1.9264
  280MOL0     H38625   4.068   5.550   9.556 -0.7836 -1.4261  1.8251
  280MOL0     H38626   3.858   5.107   9.564 -0.4540 -0.6920  0.4754
  280MOL0     H38627   3.668   4.977   9.546  2.5682  0.9595  0.8094
  280MOL0     H38628   3.336   5.033   9.241  1.8846  1.1933  0.8844
  280MOL0     H38629   3.460   4.935   9.175 -0.8751 -0.1959 -0.9959
  280MOL0     H38630   3.378   4.739   9.311 -1.0028 -1.8888 -1.0084
  280MOL0     H38631   3.253   4.804   9.206  1.3361  1.8876 -1.5111
  280MOL0     H38632   3.156   4.755   9.434 -0.8684  1.2075 -2.2160
  280MOL0     H38633   3.288   4.832   9.521  0.0412 -0.5580  0.4286
  280MOL0     H38634   3.081   4.959   9.336 -2.0188  1.0725  0.9644
  280MOL0     H38635   3.198   5.042   9.441 -1.5010  0.5175  3.0663
  280MOL0     H38636   2.916   4.931   9.735 -2.1953  0.7577 -0.3193
  280MOL0     H38637   3.552   5.147   9.170 -1.4341  1.2783  0.7373
  280MOL0     H38638   3.847   5.309   9.094  0.6252  0.5342  1.7453
  280MOL0     H38639   3.680   5.331   9.065  0.3562 -4.3900 -1.0513
  280MOL0     H38640   3.760   5.440   9.180 -2.7402  0.3787 -1.0959
  281MOL0     O38641   3.472   7.452   6.309 -0.6121 -0.3013  0.1838
  281MOL0     C38642   3.402   7.358   6.334  0.4855  0.1305  0.6568
  281MOL0     O38643   3.280   7.326   6.279  0.4883  0.0991 -0.3696
  281MOL0     C38644   3.231   7.422   6.190  0.1495  0.7237  0.0083
  281MOL0     C38645   3.301   7.470   6.075 -0.0877 -0.5753  0.2029
  281MOL0     C38646   3.253   7.579   5.997 -0.9067  0.4493 -0.2904
  281MOL0     C38647   3.122   7.627   6.016 -0.5343  0.3625 -0.0182
  281MOL0     O38648   3.078   7.735   5.947  0.0430 -0.2518  0.2126
  281MOL0     C38649   2.960   7.723   5.870  0.5799 -0.0145 -0.2132
  281MOL0     C38650   2.981   7.650   5.732 -0.5153  0.8785 -0.0174
  281MOL0     C38651   2.868   7.699   5.633 -0.0719  0.0412  0.6434
  281MOL0     C38652   2.864   7.595   5.515  0.4820  0.0958 -0.9520
  281MOL0     C38653   2.775   7.643   5.398  0.3482 -0.9764 -0.1124
  281MOL0     C38654   2.728   7.539   5.303  0.0336  0.7743 -0.8756
  281MOL0     C38655   2.664   7.601   5.186  0.0148  0.2380  0.1365
  281MOL0     C38656   2.600   7.490   5.096  0.5003 -0.1162  0.3364
  281MOL0     N38657   2.534   7.548   4.977  0.3558  0.1667 -0.6711
  281MOL0     C38658   2.467   7.468   4.892 -0.4945 -0.3641 -0.6132
  281MOL0     C38659   2.440   7.545   4.786  0.9137 -0.0870 -0.9840
  281MOL0     C38660   2.360   7.499   4.669 -0.2337 -0.3058 -0.1158
  281MOL0     C38661   2.222   7.559   4.646  0.6592  0.2518  0.7925
  281MOL0     C38662   2.216   7.706   4.615  0.7455 -0.2726 -0.1187
  281MOL0     C38663   2.083   7.773   4.578  0.4525  0.1211 -0.3231
  281MOL0     O38664   2.048   7.717   4.452 -0.3094  0.3319  0.4210
  281MOL0     C38665   1.936   7.778   4.392  0.3914  0.3393 -0.1932
  281MOL0     C38666   1.936   7.792   4.257 -0.6010  0.6795 -0.0704
  281MOL0     C38667   1.834   7.852   4.184  0.0990 -1.0237  0.0636
  281MOL0     C38668   1.848   7.841   4.030  0.5209 -0.0471  0.3011
  281MOL0     C38669   1.722   7.908   4.255 -0.1457 -0.3324 -0.0020
  281MOL0     C38670   1.612   7.985   4.198 -0.1879  0.0079  0.1838
  281MOL0     O38671   1.639   8.062   4.091  0.2886 -0.1065  0.2193
  281MOL0     C38672   1.531   8.125   4.043 -0.4350  0.2792  0.6595
  281MOL0     C38673   1.516   8.262   4.062  0.2145  0.3646 -0.1920
  281MOL0     C38674   1.399   8.328   4.008 -0.1029 -0.1475 -0.5605
  281MOL0     C38675   1.297   8.254   3.939 -0.1498 -0.4768  0.2233
  281MOL0     O38676   1.187   8.319   3.883 -0.1767  0.0033 -0.0926
  281MOL0     C38677   1.173   8.462   3.870  0.1975  0.0386  0.1532
  281MOL0     C38678   1.035   8.489   3.800  0.6779 -0.1274 -0.0918
  281MOL0     C38679   1.001   8.638   3.762  1.0088 -1.2400  0.6981
  281MOL0     C38680   1.025   8.685   3.620  0.3543 -0.5949 -0.1342
  281MOL0     C38681   0.998   8.836   3.575  0.6164  0.2961  0.2782
  281MOL0     C38682   1.008   8.854   3.424 -0.4916  0.1340  0.1579
  281MOL0     C38683   1.003   9.006   3.388 -0.2358  0.7482  0.1927
  281MOL0     C38684   1.033   9.052   3.241  0.5394  0.1551 -0.2964
  281MOL0    Cl38685   0.920   8.995   3.118 -0.1053 -0.2365  0.0563
  281MOL0     C38686   1.321   8.118   3.930  0.0026  0.2616 -1.3166
  281MOL0     C38687   1.433   8.057   3.983 -0.9613  0.3978 -0.5852
  281MOL0     O38688   1.502   7.965   4.257  0.6969 -0.2039 -0.3018
  281MOL0     C38689   1.726   7.902   4.399  0.3144  0.0884 -0.1983
  281MOL0     C38690   1.835   7.846   4.464 -0.1240  0.4205  0.0303
  281MOL0     N38691   2.499   7.669   4.809 -0.8802 -0.0177  0.7075
  281MOL0     N38692   2.562   7.666   4.916  0.0555 -0.7755  0.0343
  281MOL0     C38693   3.043   7.563   6.120 -1.0986 -0.0162 -0.2833
  281MOL0     C38694   3.105   7.471   6.209  0.8330  0.1332  0.3214
  281MOL0     C38695   3.455   7.249   6.419 -0.1583  0.0439  1.1666
  281MOL0     C38696   3.504   7.299   6.545  0.8275  0.5405  1.3518
  281MOL0     C38697   3.556   7.214   6.638  1.3805 -0.0166 -0.9050
  281MOL0     C38698   3.550   7.078   6.622 -0.3979 -1.0492 -0.9113
  281MOL0     O38699   3.587   6.996   6.726  0.2713  0.6197 -0.5390
  281MOL0     C38700   3.715   7.028   6.793  0.2581  1.3923 -0.5740
  281MOL0     C38701   3.713   7.034   6.945 -0.4536  0.0852  0.1193
  281MOL0     C38702   3.636   6.923   7.018  0.6026 -0.1250  0.2083
  281MOL0     C38703   3.638   6.959   7.162 -0.5133  0.3228 -0.5244
  281MOL0     C38704   3.766   6.922   7.221 -1.0468 -0.0932  0.1090
  281MOL0     C38705   3.877   6.896   7.273 -0.1361 -0.0637  0.6577
  281MOL0     C38706   3.493   7.019   6.508  0.8532 -0.0465 -0.6732
  281MOL0     C38707   3.443   7.107   6.405  0.6279  0.2411  0.2895
  281MOL0     C38708   3.377   7.038   6.290 -0.1310 -0.0462 -0.3462
  281MOL0     H38709   3.405   7.445   6.055 -0.9169 -4.3413  0.0123
  281MOL0     H38710   3.312   7.633   5.923  1.0104 -2.8226 -1.3772
  281MOL0     H38711   2.916   7.821   5.851  0.8347  0.7414  2.6723
  281MOL0     H38712   2.881   7.678   5.932 -0.8017  1.6805 -0.6637
  281MOL0     H38713   3.080   7.670   5.690  0.0892  0.8218  1.3380
  281MOL0     H38714   2.972   7.542   5.751 -0.7378  0.8771 -0.1194
  281MOL0     H38715   2.772   7.683   5.683  0.5586 -1.3800  1.4497
  281MOL0     H38716   2.888   7.802   5.602  2.4049 -1.0031 -1.6429
  281MOL0     H38717   2.961   7.571   5.471 -0.7210 -0.1547 -3.6751
  281MOL0     H38718   2.840   7.492   5.545  0.9120  0.6886  1.6925
  281MOL0     H38719   2.820   7.725   5.341  0.1987 -1.4049 -0.8649
  281MOL0     H38720   2.684   7.680   5.447  0.2676 -1.6783  0.2906
  281MOL0     H38721   2.814   7.475   5.278 -0.7479 -0.8302  0.3089
  281MOL0     H38722   2.651   7.480   5.354  0.6427  0.5582 -0.1939
  281MOL0     H38723   2.735   7.653   5.121  0.5972 -0.0054  0.5782
  281MOL0     H38724   2.584   7.668   5.220 -1.8579 -1.6683 -0.2659
  281MOL0     H38725   2.671   7.420   5.052 -2.3503 -1.6720 -2.1718
  281MOL0     H38726   2.543   7.424   5.161 -0.1513 -1.7655 -1.7748
  281MOL0     H38727   2.441   7.363   4.899  3.0115 -1.5843 -2.8625
  281MOL0     H38728   2.355   7.390   4.670 -2.0109 -0.3028  2.5923
  281MOL0     H38729   2.436   7.529   4.597  3.7367 -2.8575  2.5700
  281MOL0     H38730   2.190   7.511   4.554 -0.8711 -0.1041  1.4878
  281MOL0     H38731   2.158   7.537   4.732 -2.0076 -3.7780 -1.8839
  281MOL0     H38732   2.247   7.762   4.704 -0.9900 -4.1061  3.2113
  281MOL0     H38733   2.295   7.724   4.541  0.1138  0.8929 -0.5334
  281MOL0     H38734   2.007   7.759   4.655  2.9814 -0.0190  2.3060
  281MOL0     H38735   2.107   7.878   4.560 -0.3748 -0.1168 -3.3896
  281MOL0     H38736   2.017   7.737   4.210 -1.8946 -2.8676  1.4472
  281MOL0     H38737   1.833   7.737   4.002 -0.2788 -0.1037  0.9049
  281MOL0     H38738   1.949   7.874   4.004  0.4045  3.9304  3.6754
  281MOL0     H38739   1.769   7.903   3.987  0.3055 -0.8291 -0.4428
  281MOL0     H38740   1.603   8.311   4.105 -0.8151  2.3741 -0.2821
  281MOL0     H38741   1.379   8.434   4.015 -0.7027 -0.2796 -0.2441
  281MOL0     H38742   1.170   8.490   3.976  2.5733 -0.8016  0.4874
  281MOL0     H38743   1.255   8.508   3.816  2.7485 -0.5377  3.2538
  281MOL0     H38744   1.033   8.427   3.709 -0.8508 -1.5047  0.8258
  281MOL0     H38745   0.969   8.458   3.881 -0.7270  1.1703 -0.6818
  281MOL0     H38746   1.072   8.693   3.824  1.0755  1.4984 -1.5497
  281MOL0     H38747   0.898   8.662   3.791  0.6762 -0.8503 -0.7027
  281MOL0     H38748   0.961   8.638   3.544 -0.9006  2.1994 -0.9474
  281MOL0     H38749   1.130   8.657   3.608  0.1491 -0.8255 -1.6396
  281MOL0     H38750   0.901   8.876   3.605  0.2146 -0.1404 -0.4171
  281MOL0     H38751   1.083   8.886   3.623  0.3486 -0.6101  1.7587
  281MOL0     H38752   0.931   8.797   3.371  0.3140 -1.9272  1.1020
  281MOL0     H38753   1.099   8.802   3.392 -2.3980 -3.0007 -0.6440
  281MOL0     H38754   1.086   9.050   3.445  1.0304 -0.8942 -0.2979
  281MOL0     H38755   0.904   9.042   3.417 -1.3933 -1.2302 -1.0769
  281MOL0     H38756   1.127   9.001   3.216  1.1063  1.2043 -0.3451
  281MOL0     H38757   1.040   9.161   3.237 -0.8969  0.3091  0.5911
  281MOL0     H38758   1.246   8.058   3.880  0.0390  1.3651 -2.7611
  281MOL0     H38759   1.449   7.953   3.953 -1.3724  1.3197 -4.5554
  281MOL0     H38760   1.658   7.955   4.465 -0.7767 -3.1832  1.5407
  281MOL0     H38761   1.836   7.850   4.572 -0.7204  0.7216  0.0316
  281MOL0     H38762   2.942   7.598   6.135 -1.4471 -0.3202 -1.8061
  281MOL0     H38763   3.047   7.410   6.277  1.2747 -3.1485 -1.9707
  281MOL0     H38764   3.498   7.406   6.561  0.3787  0.8393 -0.6030
  281MOL0     H38765   3.593   7.254   6.732  0.9429 -1.8098  0.0749
  281MOL0     H38766   3.775   6.938   6.781 -3.5544 -1.7956  1.5712
  281MOL0     H38767   3.773   7.115   6.761  1.6790  0.5906 -0.2435
  281MOL0     H38768   3.688   7.135   6.979  1.3825  1.1041 -1.3784
  281MOL0     H38769   3.821   7.025   6.961 -0.3852 -1.0720 -0.8320
  281MOL0     H38770   3.534   6.919   6.979  0.9996  0.5323 -0.9872
  281MOL0     H38771   3.678   6.823   7.006 -0.8138 -0.9639  1.8183
  281MOL0     H38772   3.549   6.913   7.207 -0.0547 -1.2988 -1.2015
  281MOL0     H38773   3.623   7.067   7.172  0.9643  0.5452 -0.4789
  281MOL0     H38774   3.977   6.870   7.303 -0.0009  1.5415  1.7362
  281MOL0     H38775   3.486   6.911   6.508  1.0155 -0.0600 -0.1277
  281MOL0     H38776   3.395   6.931   6.280 -2.7385 -0.4576 -1.7124
  281MOL0     H38777   3.268   7.055   6.290 -0.0095  0.7794 -0.4507
  281MOL0     H38778   3.420   7.076   6.197 -2.2654  0.7453 -1.0847
  282MOL0     O38779   8.283   0.889  10.174  0.3572 -0.3094  0.0799
  282MOL0     C38780   8.310   0.827  10.068  0.0947 -0.2071  0.3826
  282MOL0     O38781   8.436   0.821  10.018 -0.3298  0.6136  0.7513
  282MOL0     C38782   8.544   0.857  10.092 -0.1018 -0.0451 -0.5968
  282MOL0     C38783   8.610   0.758  10.171  0.0319 -0.4132  0.2918
  282MOL0     C38784   8.717   0.797  10.246  0.3822 -0.0477  0.6631
  282MOL0     C38785   8.754   0.935  10.251 -0.2336  0.3252  0.3871
  282MOL0     O38786   8.871   0.976  10.314 -0.2548  0.3012 -0.8167
  282MOL0     C38787   8.923   0.892  10.416  0.8623  0.0749 -0.3172
  282MOL0     C38788   9.000   0.971  10.516  0.1892  0.3253  0.2744
  282MOL0     C38789   9.079   0.873  10.618 -0.1539 -0.3788  0.4425
  282MOL0     C38790   9.163   0.961  10.714 -0.2211  0.9756  0.4151
  282MOL0     C38791   9.270   0.887  10.783 -0.3970  0.4360  0.0849
  282MOL0     C38792   9.398   0.869  10.695 -0.5393  0.1230  1.0735
  282MOL0     C38793   9.494   0.759  10.745  0.4768  0.1152  0.6372
  282MOL0     C38794   9.549   0.779  10.892 -0.2523  0.0855 -0.1818
  282MOL0     N38795   9.614   0.905  10.910 -0.3770  0.2035  0.3204
  282MOL0     C38796   9.572   1.003  10.997 -0.4542  0.0783 -0.0276
  282MOL0     C38797   9.662   1.098  10.999  0.0048 -0.7823 -0.0005
  282MOL0     C38798   9.661   1.235  11.078  0.0455 -0.1255  0.0040
  282MOL0     C38799   9.773   1.329  11.046  0.0959  0.9688  0.0770
  282MOL0     C38800   9.901   1.300  11.132 -0.9493 -0.4248  0.1905
  282MOL0     C38801   9.984   1.421  11.167  0.0532  0.9902  0.2663
  282MOL0     O38802  10.025   1.492  11.047 -0.3583  0.3537 -0.1476
  282MOL0     C38803  10.154   1.485  11.007 -0.2888  0.3031 -0.0785
  282MOL0     C38804  10.191   1.368  10.939  0.7937  0.4779  0.2130
  282MOL0     C38805  10.324   1.337  10.900 -0.1409  0.8355 -0.6786
  282MOL0     C38806  10.344   1.189  10.867 -0.1285  0.9739 -0.5704
  282MOL0     C38807  10.418   1.438  10.926 -0.0934  0.6102 -0.1913
  282MOL0     C38808  10.563   1.421  10.900 -0.6381 -0.2001  0.3900
  282MOL0     O38809  10.659   1.500  10.948 -0.0115  0.6371 -0.5404
  282MOL0     C38810  10.793   1.464  10.935  0.0656 -0.3921 -0.0067
  282MOL0     C38811  10.867   1.484  10.809  0.3222 -1.1103 -0.6539
  282MOL0     C38812  11.011   1.467  10.797  0.5434 -0.3803  0.6779
  282MOL0     C38813  11.083   1.425  10.916  0.7790 -0.2274  1.3032
  282MOL0     O38814  11.219   1.394  10.913  0.2755  0.3829 -0.7921
  282MOL0     C38815  11.301   1.422  10.799  0.6159  1.0817 -0.4752
  282MOL0     C38816  11.330   1.566  10.750  0.7191 -0.4751  0.1856
  282MOL0     C38817  11.470   1.578  10.690  0.3437 -0.0076 -0.5608
  282MOL0     C38818  11.486   1.550  10.542 -0.3006 -0.2229  0.7921
  282MOL0     C38819  11.627   1.586  10.500  0.3281 -0.2102 -0.8193
  282MOL0     C38820  11.741   1.482  10.527 -0.2319  0.9104  0.0914
  282MOL0     C38821  11.873   1.522  10.445 -0.1176 -0.1461  0.8351
  282MOL0     C38822  11.991   1.434  10.462  0.3023  0.1442 -0.1848
  282MOL0    Cl38823  12.071   1.513  10.611 -0.3960 -0.1818 -0.2542
  282MOL0     C38824  11.014   1.422  11.037  0.2899 -0.9326  0.2746
  282MOL0     C38825  10.876   1.443  11.044 -0.1975  0.1666 -0.4617
  282MOL0     O38826  10.592   1.341  10.812 -0.1612 -0.2766  0.8003
  282MOL0     C38827  10.381   1.554  10.994  0.5332  0.1338 -0.1424
  282MOL0     C38828  10.252   1.581  11.037 -0.5686  1.0430  0.1399
  282MOL0     N38829   9.752   1.063  10.903  0.9783  0.2593 -0.2586
  282MOL0     N38830   9.727   0.951  10.845  0.1764 -0.2120 -0.1429
  282MOL0     C38831   8.679   1.036  10.186 -0.2210 -0.0781  0.1646
  282MOL0     C38832   8.582   0.993  10.093  0.0354  1.5146  0.2416
  282MOL0     C38833   8.197   0.761   9.994  0.3263 -0.4095  0.2150
  282MOL0     C38834   8.228   0.696   9.872  0.0682 -0.2102 -0.9094
  282MOL0     C38835   8.132   0.651   9.788 -0.5591  0.3525 -0.0082
  282MOL0     C38836   7.996   0.664   9.817 -0.2160  0.1334  0.4983
  282MOL0     O38837   7.892   0.639   9.725 -0.7758  0.2676 -0.7846
  282MOL0     C38838   7.932   0.594   9.593 -0.7653 -0.7859 -0.1611
  282MOL0     C38839   7.806   0.549   9.504  0.3033 -0.3742 -0.7301
  282MOL0     C38840   7.741   0.422   9.564  1.0740  0.2358 -0.6408
  282MOL0     C38841   7.641   0.357   9.471 -0.0570  0.4523 -0.7196
  282MOL0     C38842   7.602   0.217   9.505 -0.2500 -0.3941  0.3034
  282MOL0     C38843   7.564   0.099   9.518  0.0066 -0.6061 -0.4048
  282MOL0     C38844   7.961   0.702   9.948 -0.1035 -0.4559 -0.2548
  282MOL0     C38845   8.059   0.759  10.033  0.1333  0.4106 -0.0780
  282MOL0     C38846   8.014   0.809  10.165  0.6090  0.7443 -0.0467
  282MOL0     H38847   8.581   0.656  10.151  2.5140 -0.8635 -1.5563
  282MOL0     H38848   8.776   0.724  10.302  2.4706  1.0846  0.0658
  282MOL0     H38849   8.980   0.807  10.376  0.6441  0.2962 -1.1224
  282MOL0     H38850   8.846   0.848  10.480  1.6051  1.4360  1.6096
  282MOL0     H38851   9.073   1.028  10.458  0.5535  0.7068  1.0769
  282MOL0     H38852   8.930   1.033  10.573  0.1399  0.9937 -0.4954
  282MOL0     H38853   9.008   0.819  10.682 -0.1475 -2.6101 -1.3100
  282MOL0     H38854   9.148   0.807  10.564 -1.1726 -1.1600  0.0571
  282MOL0     H38855   9.209   1.048  10.665  0.6692  0.0194 -0.5035
  282MOL0     H38856   9.090   0.996  10.787 -2.8793 -4.0062  0.5299
  282MOL0     H38857   9.224   0.793  10.814 -1.3165  1.0745  0.6919
  282MOL0     H38858   9.297   0.938  10.876  3.4094 -1.8029  0.4416
  282MOL0     H38859   9.376   0.829  10.595 -3.5078 -0.0037  1.7090
  282MOL0     H38860   9.439   0.970  10.693  1.3706 -0.5578 -2.1151
  282MOL0     H38861   9.584   0.772  10.686 -0.7417  1.6742 -0.9929
  282MOL0     H38862   9.453   0.660  10.725 -2.1604  1.4161 -0.9939
  282MOL0     H38863   9.466   0.782  10.964  0.1792  0.9032  0.2951
  282MOL0     H38864   9.628   0.706  10.909  3.0776  3.4022 -0.0594
  282MOL0     H38865   9.483   1.002  11.059 -0.9482 -1.6078 -0.7138
  282MOL0     H38866   9.640   1.216  11.183 -1.2179  1.0209 -0.0046
  282MOL0     H38867   9.575   1.297  11.052 -1.1405  0.2895  4.2608
  282MOL0     H38868   9.802   1.345  10.942  1.6249  2.7328  0.7270
  282MOL0     H38869   9.732   1.425  11.079 -0.2879  1.5802 -2.0595
  282MOL0     H38870   9.870   1.274  11.233  2.1789  0.7684  1.5862
  282MOL0     H38871   9.953   1.217  11.083 -0.8691  0.2461 -0.8980
  282MOL0     H38872   9.924   1.490  11.226  0.9313  1.2189  0.9182
  282MOL0     H38873  10.067   1.388  11.231 -0.1007  1.3696  0.6662
  282MOL0     H38874  10.112   1.298  10.913  0.4386  1.0883 -0.4100
  282MOL0     H38875  10.246   1.141  10.859 -0.1766  0.7595  1.0388
  282MOL0     H38876  10.406   1.142  10.944  0.9915  2.0082 -0.8115
  282MOL0     H38877  10.399   1.173  10.773  1.2692  0.3691  0.3115
  282MOL0     H38878  10.813   1.497  10.715  0.6103  0.2987 -0.6483
  282MOL0     H38879  11.051   1.476  10.696 -2.1021  2.2642 -0.2667
  282MOL0     H38880  11.396   1.375  10.827 -0.7358 -1.2587  0.5135
  282MOL0     H38881  11.260   1.365  10.714 -0.3353  1.1396 -0.0699
  282MOL0     H38882  11.255   1.597  10.677  1.2595  0.6719  0.1040
  282MOL0     H38883  11.324   1.637  10.834  0.1022 -0.1159 -0.1538
  282MOL0     H38884  11.545   1.514  10.736  1.1925  0.3935 -1.3602
  282MOL0     H38885  11.498   1.682  10.708  0.4714  0.1089 -1.3865
  282MOL0     H38886  11.425   1.621  10.486 -0.6806  0.0264  1.5034
  282MOL0     H38887  11.458   1.447  10.516 -1.6322  0.3815 -0.3020
  282MOL0     H38888  11.619   1.614  10.394  1.4404  3.1083 -0.1436
  282MOL0     H38889  11.650   1.686  10.538  5.1633 -1.3667 -0.1551
  282MOL0     H38890  11.708   1.382  10.500 -1.8332  0.9707  1.6238
  282MOL0     H38891  11.751   1.492  10.636 -3.0795  3.6042  0.2865
  282MOL0     H38892  11.895   1.629  10.458 -1.3469  0.1917  0.2631
  282MOL0     H38893  11.851   1.514  10.338 -1.1952  3.5695  0.6427
  282MOL0     H38894  12.054   1.444  10.374 -0.4515  3.4531 -0.4798
  282MOL0     H38895  11.967   1.330  10.486  2.3604 -0.1697  0.7517
  282MOL0     H38896  11.068   1.401  11.128 -1.7168 -1.4190  1.4278
  282MOL0     H38897  10.836   1.443  11.145  0.6280 -1.2820 -0.1142
  282MOL0     H38898  10.465   1.614  11.028  0.3273 -0.4729  1.5626
  282MOL0     H38899  10.225   1.665  11.100 -1.8525  0.1241  0.8368
  282MOL0     H38900   8.707   1.140  10.197 -0.2616  0.1120 -1.2340
  282MOL0     H38901   8.518   1.067  10.044 -0.8891 -0.1167 -1.1076
  282MOL0     H38902   8.327   0.683   9.827  0.4641 -1.8686  0.3445
  282MOL0     H38903   8.170   0.598   9.701  0.3173  0.0905  0.5163
  282MOL0     H38904   7.991   0.669   9.539 -0.1295 -0.8272  0.4618
  282MOL0     H38905   8.000   0.508   9.606  0.5637  0.6013  3.2953
  282MOL0     H38906   7.843   0.536   9.402  2.7502  3.1516 -0.4744
  282MOL0     H38907   7.727   0.623   9.489  0.6720  0.4576  1.2012
  282MOL0     H38908   7.818   0.346   9.577 -1.5028 -2.0367  3.8815
  282MOL0     H38909   7.695   0.444   9.661  2.0945  0.9325 -0.3024
  282MOL0     H38910   7.690   0.354   9.373  0.9194 -2.0590 -0.2435
  282MOL0     H38911   7.552   0.420   9.476 -0.5112 -0.1885 -0.5425
  282MOL0     H38912   7.525   0.003   9.544  0.7104 -0.7585  0.1061
  282MOL0     H38913   7.856   0.711   9.973  0.6751  2.6320  2.6225
  282MOL0     H38914   7.905   0.801  10.167  0.7453 -2.1593  1.6724
  282MOL0     H38915   8.040   0.733  10.240 -2.7947 -1.7962 -1.1974
  282MOL0     H38916   8.050   0.911  10.180  1.0190  0.5572  0.2810
  283MOL0     O38917   1.888   8.874   2.901  0.5602 -0.1003  0.0295
  283MOL0     C38918   1.799   8.876   2.815 -0.0988 -0.3666  0.2511
  283MOL0     O38919   1.821   8.850   2.690  0.2226 -0.4817  0.0104
  283MOL0     C38920   1.949   8.823   2.648  0.3284  0.2598 -0.3041
  283MOL0     C38921   1.980   8.690   2.624 -0.6697  0.3046 -0.0620
  283MOL0     C38922   2.114   8.656   2.604  0.4954  0.5593 -0.5791
  283MOL0     C38923   2.207   8.752   2.594  0.0765 -0.2224  0.1488
  283MOL0     O38924   2.342   8.733   2.579 -0.5011  0.0529 -0.0375
  283MOL0     C38925   2.401   8.608   2.619 -0.2950  0.3215 -0.3213
  283MOL0     C38926   2.550   8.622   2.636 -0.4082  0.3557  1.0546
  283MOL0     C38927   2.634   8.624   2.500 -0.4178  0.9539 -0.2284
  283MOL0     C38928   2.591   8.512   2.409  0.0904  0.8618  0.0059
  283MOL0     C38929   2.693   8.494   2.298  0.6355  0.0060 -0.4412
  283MOL0     C38930   2.648   8.384   2.196 -0.3423  0.1941  0.4358
  283MOL0     C38931   2.744   8.363   2.077  0.3991 -0.9221  0.9991
  283MOL0     C38932   2.698   8.250   1.975  0.5692 -0.8938 -0.6021
  283MOL0     N38933   2.797   8.235   1.870  0.0698 -0.5755 -0.2915
  283MOL0     C38934   2.931   8.271   1.868 -0.0787 -0.3045 -0.7090
  283MOL0     C38935   2.957   8.291   1.736  0.1338  0.4642  0.2994
  283MOL0     C38936   3.081   8.351   1.677 -1.5838 -0.3527  0.6099
  283MOL0     C38937   3.127   8.301   1.537 -0.8264 -0.3673 -0.0312
  283MOL0     C38938   3.265   8.366   1.505 -1.5256  0.4956 -0.6878
  283MOL0     C38939   3.338   8.281   1.402 -0.2597  0.3373  0.1484
  283MOL0     O38940   3.443   8.354   1.336 -0.1550 -0.2410 -0.3146
  283MOL0     C38941   3.529   8.288   1.261  0.1403  0.5813  0.4042
  283MOL0     C38942   3.641   8.358   1.222 -0.8187 -0.2848  0.3116
  283MOL0     C38943   3.743   8.301   1.148  0.2413 -0.0962  0.7637
  283MOL0     C38944   3.847   8.399   1.105  0.2246  0.1421  0.2942
  283MOL0     C38945   3.731   8.164   1.099 -0.4896  0.1495 -0.4819
  283MOL0     C38946   3.821   8.086   1.012  0.7008  0.7315 -0.2558
  283MOL0     O38947   3.917   8.160   0.947  0.0459 -0.6425 -0.1385
  283MOL0     C38948   4.027   8.108   0.886 -0.5870  0.2732  0.2157
  283MOL0     C38949   4.069   8.182   0.779  0.6696 -0.2477  0.0631
  283MOL0     C38950   4.176   8.146   0.705 -0.3760  1.2552  0.3885
  283MOL0     C38951   4.245   8.027   0.732  0.4022  0.2083 -0.3595
  283MOL0     O38952   4.352   8.010   0.660  0.2662 -0.2382  0.1717
  283MOL0     C38953   4.427   7.889   0.667  0.0538  0.4202  0.2681
  283MOL0     C38954   4.541   7.883   0.570  0.1488  0.2870  0.0755
  283MOL0     C38955   4.659   7.965   0.621  0.1162  0.1513  0.2185
  283MOL0     C38956   4.768   7.967   0.506 -0.2891  0.8311  0.2619
  283MOL0     C38957   4.906   8.013   0.550  0.3797  0.4318  0.5745
  283MOL0     C38958   5.008   8.025   0.430  0.4714  0.1749  0.1628
  283MOL0     C38959   5.152   8.057   0.470 -0.0718  0.6244 -0.0654
  283MOL0     C38960   5.226   8.093   0.335  0.0852  0.8487 -0.3690
  283MOL0    Cl38961   5.372   8.184   0.364  0.0585  0.3158  0.2123
  283MOL0     C38962   4.179   7.933   0.827 -1.3781  0.0331 -0.9113
  283MOL0     C38963   4.079   7.983   0.909  0.0559  0.0472 -0.6263
  283MOL0     O38964   3.806   7.961   1.003 -0.4137 -0.4931  1.4022
  283MOL0     C38965   3.617   8.091   1.151  0.3057 -0.5014 -1.4930
  283MOL0     C38966   3.525   8.151   1.237 -0.0655 -0.5398 -0.0613
  283MOL0     N38967   2.846   8.262   1.664  0.4767 -0.0934  0.1380
  283MOL0     N38968   2.748   8.232   1.744  0.1004  0.4912 -0.0388
  283MOL0     C38969   2.162   8.885   2.584 -0.3158 -0.2565 -0.3224
  283MOL0     C38970   2.034   8.925   2.613  0.6680 -0.2534  0.1861
  283MOL0     C38971   1.661   8.890   2.855  0.2580  0.5377  0.6650
  283MOL0     C38972   1.558   8.820   2.793 -0.0387  0.6101 -0.1485
  283MOL0     C38973   1.427   8.839   2.829  0.1361 -0.6599 -0.5166
  283MOL0     C38974   1.393   8.922   2.933 -0.1265  0.0126  0.0700
  283MOL0     O38975   1.260   8.938   2.967  0.4023 -0.2711 -0.7761
  283MOL0     C38976   1.156   8.847   2.920  0.7889  0.2936 -0.9629
  283MOL0     C38977   1.175   8.702   2.990  0.7203 -0.7937 -0.0573
  283MOL0     C38978   1.068   8.602   2.944  0.7745  0.5080 -0.1898
  283MOL0     C38979   1.090   8.459   3.001  0.6501  0.2652 -0.2604
  283MOL0     C38980   1.072   8.459   3.144 -0.0699 -0.4931 -0.7068
  283MOL0     C38981   1.062   8.479   3.266  0.1048  0.0978  0.1848
  283MOL0     C38982   1.483   9.012   2.986 -0.4067  0.9009  0.0951
  283MOL0     C38983   1.620   8.993   2.954 -0.8175  0.4891  0.1094
  283MOL0     C38984   1.713   9.091   3.009  0.0510  0.2385  0.1038
  283MOL0     H38985   1.917   8.602   2.630  2.6927 -2.4463 -1.7800
  283MOL0     H38986   2.144   8.551   2.600 -0.9319  0.1672 -3.3206
  283MOL0     H38987   2.385   8.531   2.543  2.5162 -0.5090 -0.2011
  283MOL0     H38988   2.364   8.582   2.719 -1.4110 -0.1548 -0.8404
  283MOL0     H38989   2.575   8.713   2.692 -1.9892  2.2146 -1.0983
  283MOL0     H38990   2.587   8.534   2.691  2.9211  0.4944 -0.6809
  283MOL0     H38991   2.625   8.725   2.458 -0.8595  0.4306 -1.4300
  283MOL0     H38992   2.735   8.604   2.536 -1.4727 -4.7687  0.3786
  283MOL0     H38993   2.579   8.420   2.466  3.4285  1.2581  1.6305
  283MOL0     H38994   2.494   8.532   2.363 -0.1258 -1.3037 -0.5590
  283MOL0     H38995   2.786   8.468   2.349  0.3699  4.5971  2.9098
  283MOL0     H38996   2.706   8.590   2.247  0.2009  1.0440  1.3456
  283MOL0     H38997   2.649   8.293   2.258  0.2174  1.5039  2.4340
  283MOL0     H38998   2.545   8.405   2.168 -0.0856  1.2903  0.2769
  283MOL0     H38999   2.840   8.340   2.123  1.6609  1.5422 -0.1540
  283MOL0     H39000   2.761   8.459   2.026  0.3841 -2.0222 -1.2313
  283MOL0     H39001   2.691   8.157   2.032 -0.3556 -0.2717  0.3235
  283MOL0     H39002   2.598   8.269   1.936 -0.1571 -1.6678  0.8013
  283MOL0     H39003   2.996   8.285   1.955 -4.3828  0.4157  2.7481
  283MOL0     H39004   3.168   8.334   1.741  0.2471  0.6305 -1.4956
  283MOL0     H39005   3.065   8.459   1.666  0.6054 -0.2544 -3.0123
  283MOL0     H39006   3.144   8.193   1.548  3.3689  0.3009  2.2082
  283MOL0     H39007   3.050   8.327   1.464  0.3066  0.2081 -1.0597
  283MOL0     H39008   3.248   8.464   1.459  0.5056 -0.0712 -2.8667
  283MOL0     H39009   3.321   8.372   1.598 -1.1146 -1.7578 -0.7481
  283MOL0     H39010   3.384   8.194   1.451 -2.7170 -1.3605 -0.3415
  283MOL0     H39011   3.271   8.233   1.330  2.4643 -1.2124 -1.5641
  283MOL0     H39012   3.648   8.461   1.253  3.7605 -0.5821  0.8567
  283MOL0     H39013   3.823   8.434   1.004  1.5191 -1.3863 -0.6079
  283MOL0     H39014   3.948   8.358   1.097  0.5440  0.9136  0.2437
  283MOL0     H39015   3.852   8.481   1.177 -0.9323 -0.1248  0.6931
  283MOL0     H39016   4.002   8.263   0.754  2.3474  1.6253  1.2874
  283MOL0     H39017   4.190   8.206   0.615 -2.7055  0.4434 -0.5922
  283MOL0     H39018   4.470   7.872   0.766  1.6415  0.3100 -0.4103
  283MOL0     H39019   4.369   7.800   0.642  0.9029 -0.8044  2.3951
  283MOL0     H39020   4.566   7.778   0.552 -2.7217 -0.6581  1.1095
  283MOL0     H39021   4.498   7.924   0.478  0.7453 -1.1825 -0.8976
  283MOL0     H39022   4.703   7.929   0.714  2.6404 -3.0198 -1.9661
  283MOL0     H39023   4.634   8.071   0.631  2.6004  0.9337 -1.0490
  283MOL0     H39024   4.720   8.002   0.415  1.5080 -1.3379 -1.6446
  283MOL0     H39025   4.777   7.861   0.482  0.8963  1.2009 -1.0807
  283MOL0     H39026   4.904   8.108   0.605 -0.7355  0.0224  1.2733
  283MOL0     H39027   4.932   7.934   0.621  0.0359 -0.8975 -0.7254
  283MOL0     H39028   4.966   8.111   0.376 -0.5235  1.3903  2.6972
  283MOL0     H39029   4.994   7.934   0.371 -0.7171 -0.1205  0.8859
  283MOL0     H39030   5.207   7.973   0.514 -2.4177  0.2009  2.2468
  283MOL0     H39031   5.163   8.135   0.546 -1.4643  0.2083  0.5834
  283MOL0     H39032   5.175   8.161   0.267  0.0670 -1.3016 -2.6405
  283MOL0     H39033   5.249   8.001   0.279  0.4766  0.0429  1.0543
  283MOL0     H39034   4.222   7.834   0.832  0.7029  0.9045 -0.3378
  283MOL0     H39035   4.042   7.915   0.985  2.8308 -1.2018 -0.2914
  283MOL0     H39036   3.607   7.984   1.131  0.8000 -0.8490 -0.0661
  283MOL0     H39037   3.439   8.091   1.266 -3.7885  2.2662 -3.8498
  283MOL0     H39038   2.229   8.962   2.547  0.7124 -1.2828 -0.6802
  283MOL0     H39039   1.998   9.027   2.609  0.5622 -0.3110 -3.4892
  283MOL0     H39040   1.579   8.732   2.733 -0.9904 -1.1362  1.9446
  283MOL0     H39041   1.349   8.795   2.767  0.2928  2.0330 -2.8757
  283MOL0     H39042   1.057   8.893   2.932 -0.5680 -2.6698  0.0702
  283MOL0     H39043   1.160   8.828   2.813  0.5014 -2.3813 -0.5679
  283MOL0     H39044   1.171   8.727   3.096 -1.5685  2.0297 -0.6768
  283MOL0     H39045   1.275   8.660   2.979  0.2343 -1.8652 -0.5933
  283MOL0     H39046   0.970   8.641   2.975 -0.2832 -2.1491  0.0672
  283MOL0     H39047   1.079   8.602   2.835  1.9402 -0.7876 -0.1055
  283MOL0     H39048   1.182   8.417   2.959 -0.8706 -1.3245 -2.2180
  283MOL0     H39049   1.015   8.394   2.956  1.7345 -1.8919  0.8846
  283MOL0     H39050   1.041   8.490   3.370 -0.6264  0.5415  0.0003
  283MOL0     H39051   1.459   9.090   3.057 -0.3400  1.3851 -0.4103
  283MOL0     H39052   1.660   9.171   3.061 -3.4901 -2.3312  0.8184
  283MOL0     H39053   1.782   9.049   3.082  0.9213  0.4058 -0.6066
  283MOL0     H39054   1.761   9.144   2.926  0.2428  1.2844  0.8696
  284MOL0     O39055   7.667   7.729   0.082 -0.6920  0.7505 -0.4218
  284MOL0     C39056   7.656   7.776  -0.034  1.2492  0.0854  0.1544
  284MOL0     O39057   7.733   7.860  -0.098  0.8661  0.8628  0.4311
  284MOL0     C39058   7.846   7.901  -0.033 -0.7793  0.8344  0.0372
  284MOL0     C39059   7.943   7.799   0.005 -0.8747  0.8062 -0.0003
  284MOL0     C39060   8.060   7.832   0.071 -0.0296 -0.2945 -0.7237
  284MOL0     C39061   8.090   7.969   0.099  0.4106  0.8482 -0.2506
  284MOL0     O39062   8.216   7.990   0.149 -0.8575 -0.1310  0.1415
  284MOL0     C39063   8.261   8.125   0.147 -0.1647 -0.5076  0.7942
  284MOL0     C39064   8.406   8.133   0.162 -0.5993  0.0477 -0.0940
  284MOL0     C39065   8.456   8.070   0.299  0.9956  0.0859  0.4047
  284MOL0     C39066   8.601   8.109   0.335  0.1686  0.6148 -0.5471
  284MOL0     C39067   8.658   8.022   0.450 -0.0451 -0.8012 -0.4649
  284MOL0     C39068   8.805   8.060   0.476 -0.3852  0.2519 -0.1935
  284MOL0     C39069   8.874   7.952   0.562  0.2183 -1.0100  0.1810
  284MOL0     C39070   8.854   7.998   0.704 -0.7174  0.2881  0.4051
  284MOL0     N39071   8.942   7.915   0.790  0.7246  0.1054  0.0852
  284MOL0     C39072   8.905   7.783   0.810  0.8085  0.2535  0.2308
  284MOL0     C39073   9.022   7.717   0.830  1.1988  0.4665 -0.7150
  284MOL0     C39074   9.032   7.566   0.851 -0.4054  0.0576 -0.4525
  284MOL0     C39075   9.018   7.491   0.712 -0.7691 -0.1763  0.2544
  284MOL0     C39076   9.002   7.339   0.726 -1.2839  0.9727  0.2619
  284MOL0     C39077   9.124   7.267   0.786 -0.0463 -0.6353 -0.1084
  284MOL0     O39078   9.153   7.295   0.926  0.1855 -0.0726 -0.1975
  284MOL0     C39079   9.285   7.262   0.947  1.8270  0.4620 -0.1753
  284MOL0     C39080   9.313   7.140   1.003 -0.1247  0.6179  0.7667
  284MOL0     C39081   9.447   7.106   1.041 -0.1410 -0.5216  0.3577
  284MOL0     C39082   9.469   6.963   1.095  0.0099 -0.0812  0.1356
  284MOL0     C39083   9.554   7.204   1.024 -0.7596 -0.0211 -0.5595
  284MOL0     C39084   9.696   7.186   1.057 -0.5965 -0.7894  0.1132
  284MOL0     O39085   9.773   7.298   1.037 -0.4055  0.2186 -0.5852
  284MOL0     C39086   9.905   7.302   1.078 -0.0640 -0.3864 -0.2057
  284MOL0     C39087   9.960   7.432   1.106  0.3912  0.5644 -0.1988
  284MOL0     C39088  10.090   7.447   1.152  0.1374  0.5034  0.3059
  284MOL0     C39089  10.180   7.341   1.150  0.5820 -0.2613 -0.2702
  284MOL0     O39090  10.312   7.365   1.197  0.3436  0.3601 -0.6771
  284MOL0     C39091  10.332   7.374   1.345 -0.0605  0.1647  0.6751
  284MOL0     C39092  10.481   7.412   1.367 -0.4215  0.6695 -0.0386
  284MOL0     C39093  10.512   7.412   1.519 -0.0542  0.6266  0.5587
  284MOL0     C39094  10.648   7.459   1.545  0.3219 -0.5379 -0.9340
  284MOL0     C39095  10.688   7.463   1.690 -0.9024  0.0113 -0.2445
  284MOL0     C39096  10.706   7.325   1.766  0.2197 -0.0097 -0.5589
  284MOL0     C39097  10.729   7.350   1.906  0.1514 -0.5027 -0.5632
  284MOL0     C39098  10.753   7.218   1.983 -0.4958 -0.8166 -0.4524
  284MOL0    Cl39099  10.761   7.264   2.159 -0.4128  0.2561  0.0381
  284MOL0     C39100  10.134   7.216   1.119  0.1746 -0.5913 -0.1083
  284MOL0     C39101   9.998   7.197   1.092 -0.2078  0.0765 -0.1120
  284MOL0     O39102   9.737   7.076   1.102  0.3851  0.0360 -0.2065
  284MOL0     C39103   9.515   7.331   0.986 -0.7426 -1.0473 -0.5827
  284MOL0     C39104   9.383   7.353   0.951  0.1257 -0.0755 -0.0407
  284MOL0     N39105   9.123   7.812   0.822  0.2103  0.0987  0.0952
  284MOL0     N39106   9.075   7.924   0.793 -0.3276 -0.4450 -0.2330
  284MOL0     C39107   7.992   8.068   0.072 -0.3314  0.0846 -0.2982
  284MOL0     C39108   7.876   8.037   0.003  0.9347 -0.1996  0.1467
  284MOL0     C39109   7.530   7.740  -0.113  0.0964 -0.3089 -0.4467
  284MOL0     C39110   7.508   7.793  -0.241 -0.0414  0.2790  0.5519
  284MOL0     C39111   7.391   7.777  -0.309 -0.6186 -0.2237  0.0818
  284MOL0     C39112   7.287   7.704  -0.251  0.3254 -0.4284 -0.5514
  284MOL0     O39113   7.180   7.692  -0.338  0.6882 -0.1237  0.0044
  284MOL0     C39114   7.052   7.624  -0.312 -0.5580  0.1813  0.1277
  284MOL0     C39115   6.952   7.698  -0.397 -0.7802 -0.7649  0.4233
  284MOL0     C39116   6.822   7.624  -0.414  0.0262 -0.3867  0.2260
  284MOL0     C39117   6.759   7.633  -0.551 -0.5374  0.8449 -0.1212
  284MOL0     C39118   6.661   7.522  -0.571  0.3340 -0.7540 -0.3300
  284MOL0     C39119   6.583   7.426  -0.580 -0.2182 -0.2837 -0.3191
  284MOL0     C39120   7.310   7.637  -0.136  1.1668  0.2164 -0.1307
  284MOL0     C39121   7.428   7.653  -0.066 -0.4884  0.3070  0.2875
  284MOL0     C39122   7.446   7.563   0.055 -0.3603 -0.1584 -0.5235
  284MOL0     H39123   7.918   7.697  -0.021  0.1605  0.7465 -0.8475
  284MOL0     H39124   8.136   7.757   0.091  0.4241  0.6143  1.1028
  284MOL0     H39125   8.211   8.172   0.232 -1.5185 -1.3224  0.4758
  284MOL0     H39126   8.223   8.173   0.056 -0.0069 -1.5690  0.1452
  284MOL0     H39127   8.444   8.087   0.070  0.4482  0.9565 -0.1411
  284MOL0     H39128   8.428   8.240   0.167  0.0413 -0.1248  1.1547
  284MOL0     H39129   8.394   8.103   0.383  0.8242 -1.7537  1.0392
  284MOL0     H39130   8.453   7.961   0.290 -2.1178  0.0470  0.9064
  284MOL0     H39131   8.664   8.106   0.246  1.0873 -0.4894  0.1192
  284MOL0     H39132   8.604   8.212   0.371 -0.0532  0.6027 -0.4899
  284MOL0     H39133   8.661   7.924   0.402  2.3750  0.2140 -2.5920
  284MOL0     H39134   8.599   8.027   0.542  1.8143 -2.2763  0.8932
  284MOL0     H39135   8.852   8.059   0.377  0.8095 -0.6025  0.3693
  284MOL0     H39136   8.817   8.158   0.523  1.4109 -0.6774  1.4134
  284MOL0     H39137   8.983   7.947   0.546  0.0959 -0.7399 -0.7920
  284MOL0     H39138   8.844   7.849   0.541  0.5252 -0.6603 -2.2314
  284MOL0     H39139   8.904   8.095   0.712  1.7265 -0.8436 -0.1258
  284MOL0     H39140   8.747   8.006   0.724 -1.2434 -1.7395 -1.2329
  284MOL0     H39141   8.807   7.739   0.828  1.3934 -1.2527 -0.1218
  284MOL0     H39142   8.951   7.534   0.916 -2.0778  3.7176 -0.5016
  284MOL0     H39143   9.128   7.550   0.900 -0.6166  0.4919  0.1087
  284MOL0     H39144   8.943   7.534   0.644 -1.6761 -1.2111  0.5645
  284MOL0     H39145   9.108   7.501   0.651  1.8057 -2.5423  3.3923
  284MOL0     H39146   8.920   7.309   0.792 -0.6726  1.7071  1.3952
  284MOL0     H39147   8.992   7.290   0.629  0.4678  0.9265  0.0730
  284MOL0     H39148   9.116   7.159   0.771  0.0344 -0.8086  0.9601
  284MOL0     H39149   9.205   7.302   0.722  0.0454 -1.1495 -0.2758
  284MOL0     H39150   9.240   7.061   1.013  0.9600 -0.7041 -1.1034
  284MOL0     H39151   9.372   6.915   1.112  0.1441  0.3699  2.5912
  284MOL0     H39152   9.525   6.974   1.188 -0.6327 -2.4177  0.8810
  284MOL0     H39153   9.528   6.905   1.023  0.0817 -0.1871  0.2797
  284MOL0     H39154   9.892   7.513   1.084 -1.7422 -0.7324  1.3028
  284MOL0     H39155  10.136   7.544   1.170  1.6955 -0.1466 -0.0520
  284MOL0     H39156  10.274   7.457   1.387  0.1883  0.4249  0.5130
  284MOL0     H39157  10.309   7.279   1.394  1.6511  0.2028  1.6302
  284MOL0     H39158  10.548   7.350   1.308 -0.1458 -0.4719  1.4262
  284MOL0     H39159  10.484   7.516   1.332 -0.1053  1.2376  1.5526
  284MOL0     H39160  10.498   7.310   1.553 -1.9090  0.2793 -1.0343
  284MOL0     H39161  10.450   7.486   1.572 -0.1973 -1.8550  4.1541
  284MOL0     H39162  10.658   7.563   1.513  3.4359  0.6655  3.0978
  284MOL0     H39163  10.717   7.395   1.490  0.7985 -3.2527  2.4643
  284MOL0     H39164  10.791   7.500   1.692 -0.0543 -2.1584  2.3743
  284MOL0     H39165  10.635   7.541   1.746  1.6458  0.8692  1.1898
  284MOL0     H39166  10.785   7.264   1.720  0.6597  0.4599 -0.4422
  284MOL0     H39167  10.613   7.268   1.771 -0.1775  0.7472  1.4649
  284MOL0     H39168  10.642   7.389   1.959 -0.4104 -0.2958 -1.6106
  284MOL0     H39169  10.817   7.414   1.914 -1.4566  1.6807  0.6971
  284MOL0     H39170  10.842   7.162   1.952 -0.8128  0.2598 -3.6929
  284MOL0     H39171  10.670   7.148   1.972  1.2354 -3.8078  3.0903
  284MOL0     H39172  10.202   7.133   1.106  1.4287  0.6353 -1.8366
  284MOL0     H39173   9.953   7.100   1.074 -2.7901  1.5065 -1.9595
  284MOL0     H39174   9.579   7.419   0.988 -1.8063 -0.2607  0.0666
  284MOL0     H39175   9.361   7.452   0.912  1.7620  0.8430  1.1911
  284MOL0     H39176   7.995   8.169   0.112 -2.0300 -0.1914  0.6354
  284MOL0     H39177   7.797   8.108  -0.016  2.7686  1.5120 -1.6581
  284MOL0     H39178   7.567   7.873  -0.285  0.0740  0.1720  0.5155
  284MOL0     H39179   7.379   7.837  -0.399 -0.3319  0.9891  0.8195
  284MOL0     H39180   7.061   7.522  -0.351  0.3522  0.0131  0.7402
  284MOL0     H39181   7.019   7.617  -0.208  0.6661 -2.5278  0.4123
  284MOL0     H39182   6.997   7.704  -0.497 -2.0693  1.2079 -0.1059
  284MOL0     H39183   6.924   7.800  -0.369 -3.4905 -0.4105 -2.9006
  284MOL0     H39184   6.836   7.518  -0.388  0.3453 -0.4141 -0.0432
  284MOL0     H39185   6.754   7.677  -0.347  1.7122  4.9956 -1.8261
  284MOL0     H39186   6.832   7.613  -0.630  0.1538 -1.0422  0.9185
  284MOL0     H39187   6.717   7.727  -0.588  0.6679  0.4433 -2.7630
  284MOL0     H39188   6.515   7.345  -0.565 -2.2868  1.5090  0.5081
  284MOL0     H39189   7.229   7.572  -0.107  1.4539 -0.0733  0.0332
  284MOL0     H39190   7.522   7.490   0.024  1.4052  1.4194 -0.0733
  284MOL0     H39191   7.469   7.616   0.147  0.5315 -1.5131  0.0649
  284MOL0     H39192   7.358   7.502   0.076 -1.2279  0.7803 -1.2975
  285MOL0     O39193   8.442   5.697   7.499  0.4269 -0.1462 -0.1899
  285MOL0     C39194   8.340   5.642   7.453  1.1064 -0.6516  0.1953
  285MOL0     O39195   8.300   5.653   7.323  0.6790 -0.0018 -0.5271
  285MOL0     C39196   8.396   5.680   7.225  0.0038  0.0039 -0.1657
  285MOL0     C39197   8.369   5.774   7.127 -0.0603 -0.2127  0.5917
  285MOL0     C39198   8.470   5.804   7.039 -0.0276 -0.4899  0.1032
  285MOL0     C39199   8.605   5.756   7.046  0.7897 -0.1984  1.2200
  285MOL0     O39200   8.708   5.818   6.972 -0.4903 -0.4559  0.6346
  285MOL0     C39201   8.831   5.823   7.055  0.3627  0.1207 -0.1972
  285MOL0     C39202   8.919   5.928   6.993  0.0616 -0.2192  0.5861
  285MOL0     C39203   9.048   5.923   7.081 -0.4596  0.5010  0.5819
  285MOL0     C39204   9.151   6.039   7.046  0.4379 -0.4556 -0.5195
  285MOL0     C39205   9.291   6.002   7.094  0.4969 -0.4245  0.3298
  285MOL0     C39206   9.399   6.087   7.029  0.0735  0.4425 -0.5440
  285MOL0     C39207   9.541   6.049   7.063 -0.6563 -0.8033 -0.3608
  285MOL0     C39208   9.575   5.924   6.987  0.6687 -0.1882  0.3831
  285MOL0     N39209   9.724   5.899   6.994 -0.7226  0.1150 -0.9355
  285MOL0     C39210   9.821   5.977   6.940 -0.8463 -0.5173 -0.3601
  285MOL0     C39211   9.928   5.947   7.011 -0.0914 -0.3562  0.6216
  285MOL0     C39212  10.060   6.011   6.983 -0.5171 -0.1131  0.2949
  285MOL0     C39213  10.151   5.938   6.884 -0.5832  0.1277 -0.5848
  285MOL0     C39214  10.176   5.786   6.905 -0.9759 -0.3951 -0.3474
  285MOL0     C39215  10.282   5.738   6.805 -0.2287  0.0255  0.0334
  285MOL0     O39216  10.421   5.784   6.819  0.0111  0.2782 -1.2232
  285MOL0     C39217  10.517   5.687   6.847 -0.4758  0.0121  0.3221
  285MOL0     C39218  10.512   5.549   6.835  0.0287  0.3819  0.0572
  285MOL0     C39219  10.613   5.464   6.866  0.6761  0.2964 -0.2403
  285MOL0     C39220  10.592   5.323   6.836  0.1233  0.6163  0.3842
  285MOL0     C39221  10.729   5.523   6.931 -0.4007  0.1174  0.1418
  285MOL0     C39222  10.843   5.444   6.971 -0.7779 -0.2437 -0.3121
  285MOL0     O39223  10.954   5.517   7.018  0.3124  0.2054  0.2973
  285MOL0     C39224  11.082   5.471   7.042 -0.1623  0.6869 -0.2038
  285MOL0     C39225  11.170   5.549   7.118  0.3686 -0.0960  0.5298
  285MOL0     C39226  11.299   5.508   7.156 -0.5838  0.3515  0.2070
  285MOL0     C39227  11.346   5.393   7.100  0.0278 -0.4998 -0.1825
  285MOL0     O39228  11.471   5.375   7.123 -0.7999  0.6883 -0.7084
  285MOL0     C39229  11.526   5.244   7.102  0.3605 -0.1796 -0.3145
  285MOL0     C39230  11.612   5.238   6.974  0.2579 -0.3996  0.9746
  285MOL0     C39231  11.734   5.328   6.974 -0.7656  0.0950  1.2675
  285MOL0     C39232  11.832   5.312   7.084 -0.9043 -0.4506 -0.4830
  285MOL0     C39233  11.961   5.381   7.036  0.5209 -0.9962  0.0442
  285MOL0     C39234  12.074   5.362   7.135 -0.5209  0.4568 -0.3043
  285MOL0     C39235  12.215   5.381   7.070  0.2071  0.1316 -0.3859
  285MOL0     C39236  12.230   5.522   7.021 -0.4759 -0.5790  0.1289
  285MOL0    Cl39237  12.373   5.528   6.920  0.2415 -0.2910 -0.2965
  285MOL0     C39238  11.262   5.309   7.023  0.4923 -0.5926  0.5778
  285MOL0     C39239  11.134   5.348   6.991 -0.4882  0.0397 -0.2506
  285MOL0     O39240  10.844   5.328   6.943  0.1982  0.2927  0.5419
  285MOL0     C39241  10.737   5.661   6.952  0.6968  0.4874 -0.2848
  285MOL0     C39242  10.630   5.747   6.906 -0.0685  0.3894 -0.6829
  285MOL0     N39243   9.892   5.852   7.105 -1.5545  0.7533  0.3694
  285MOL0     N39244   9.779   5.814   7.080 -0.1526  0.3197 -0.7849
  285MOL0     C39245   8.625   5.656   7.140 -0.7696  1.0097 -0.3520
  285MOL0     C39246   8.525   5.621   7.236 -0.0675  0.6909  0.1564
  285MOL0     C39247   8.241   5.580   7.546 -0.1242  0.1064 -0.1320
  285MOL0     C39248   8.108   5.576   7.505 -0.5096 -0.2963  0.3221
  285MOL0     C39249   8.012   5.524   7.588  0.2412 -0.1657 -1.0113
  285MOL0     C39250   8.039   5.486   7.717 -0.4977  0.2516  0.6151
  285MOL0     O39251   7.941   5.440   7.796 -0.1908  0.0322 -0.4215
  285MOL0     C39252   7.928   5.296   7.787  0.2816  0.1497 -0.2942
  285MOL0     C39253   7.827   5.242   7.685  0.7237 -0.4749  0.1453
  285MOL0     C39254   7.705   5.335   7.671  0.0962 -0.1918 -0.7685
  285MOL0     C39255   7.612   5.276   7.570 -0.2160  0.6920  0.7003
  285MOL0     C39256   7.508   5.372   7.523  0.3534 -0.1491 -1.0200
  285MOL0     C39257   7.411   5.437   7.481  0.1879 -0.6366  0.0643
  285MOL0     C39258   8.169   5.490   7.768 -0.3490  0.1038  0.0319
  285MOL0     C39259   8.272   5.534   7.683  0.6281 -0.7689 -0.6814
  285MOL0     C39260   8.415   5.529   7.740 -0.0149 -0.2543  0.1098
  285MOL0     H39261   8.269   5.813   7.110  0.2224 -0.3765 -1.8957
  285MOL0     H39262   8.453   5.844   6.940  2.0863 -1.9984 -0.9354
  285MOL0     H39263   8.890   5.731   7.049 -1.5591 -1.0747 -2.9908
  285MOL0     H39264   8.809   5.854   7.157 -1.9942 -1.4105 -0.1505
  285MOL0     H39265   8.938   5.914   6.887  0.6087  0.7189  0.5486
  285MOL0     H39266   8.875   6.028   6.988 -0.9803 -0.7360 -3.5222
  285MOL0     H39267   9.025   5.912   7.187  1.7592 -2.6669  0.8730
  285MOL0     H39268   9.111   5.839   7.051  2.9655  3.3848 -1.0981
  285MOL0     H39269   9.151   6.036   6.937  0.6819 -2.0601 -0.5089
  285MOL0     H39270   9.120   6.134   7.088 -2.6827 -1.3501 -0.5619
  285MOL0     H39271   9.313   5.898   7.069 -1.7474 -0.9882  0.4748
  285MOL0     H39272   9.294   6.012   7.203  0.1899 -0.4764  0.3444
  285MOL0     H39273   9.385   6.097   6.921  0.6122  1.1119 -0.5565
  285MOL0     H39274   9.387   6.185   7.075 -0.0369 -1.1681  3.1753
  285MOL0     H39275   9.557   6.043   7.171 -3.0931  2.2324  0.3316
  285MOL0     H39276   9.612   6.126   7.032  0.4911 -1.0724  1.4700
  285MOL0     H39277   9.533   5.837   7.039  1.1462  0.8143  2.5305
  285MOL0     H39278   9.552   5.923   6.880  1.1342  0.0072  0.2767
  285MOL0     H39279   9.810   6.028   6.845  1.0826 -1.4229 -1.1306
  285MOL0     H39280  10.116   6.024   7.077 -2.9749  0.5677  1.7697
  285MOL0     H39281  10.032   6.110   6.946  1.0582  0.6173  0.9984
  285MOL0     H39282  10.095   5.950   6.791 -2.3177 -0.1216  0.3743
  285MOL0     H39283  10.240   6.001   6.887  0.2997 -1.1145  1.1739
  285MOL0     H39284  10.218   5.774   7.005  0.9348  2.3652 -0.7103
  285MOL0     H39285  10.081   5.732   6.903 -1.8809  1.0839 -2.8017
  285MOL0     H39286  10.272   5.631   6.787  1.7753 -0.1890 -0.0967
  285MOL0     H39287  10.251   5.782   6.709 -2.2837 -1.6321 -0.1174
  285MOL0     H39288  10.425   5.505   6.788 -1.0172  2.3167  0.0824
  285MOL0     H39289  10.588   5.268   6.931  1.3012  0.6852  0.4885
  285MOL0     H39290  10.667   5.284   6.766 -3.4797 -0.8943 -3.0210
  285MOL0     H39291  10.500   5.297   6.784  1.4874  0.1034 -1.9370
  285MOL0     H39292  11.130   5.648   7.143 -0.4139  0.3141 -2.0875
  285MOL0     H39293  11.359   5.564   7.227 -1.0766  0.1577  0.7849
  285MOL0     H39294  11.592   5.218   7.185  2.8331  1.1850 -1.7675
  285MOL0     H39295  11.449   5.166   7.099  2.3862 -2.2699 -0.9741
  285MOL0     H39296  11.647   5.139   6.943  1.8875  1.0321 -2.3217
  285MOL0     H39297  11.553   5.274   6.889  0.0221 -1.3845  0.7075
  285MOL0     H39298  11.690   5.428   6.976 -0.0539  0.5653 -1.7143
  285MOL0     H39299  11.777   5.318   6.874 -2.5791  0.2809  0.4328
  285MOL0     H39300  11.861   5.210   7.111  0.8939  0.1481  0.0049
  285MOL0     H39301  11.802   5.357   7.179  3.0115 -0.3456  0.9165
  285MOL0     H39302  11.982   5.331   6.941 -0.1106 -1.8034  0.3234
  285MOL0     H39303  11.943   5.485   7.005  0.8368 -0.9008  0.1773
  285MOL0     H39304  12.061   5.262   7.178  3.7931 -0.1139  0.1334
  285MOL0     H39305  12.066   5.426   7.223 -0.5596 -0.6482  0.5139
  285MOL0     H39306  12.211   5.303   6.993 -0.7237  0.4259 -0.6515
  285MOL0     H39307  12.297   5.365   7.141  2.1530  0.3797 -2.4677
  285MOL0     H39308  12.241   5.593   7.103 -0.3395  0.2159 -0.5623
  285MOL0     H39309  12.149   5.552   6.955  1.0763 -2.0500 -2.6550
  285MOL0     H39310  11.297   5.217   6.977  0.1252 -0.4020 -0.0945
  285MOL0     H39311  11.076   5.276   6.933 -0.9627  0.6302 -0.5157
  285MOL0     H39312  10.817   5.718   6.997 -1.9510  2.0662  2.8816
  285MOL0     H39313  10.642   5.855   6.916  0.3536  0.1661  1.9129
  285MOL0     H39314   8.727   5.618   7.143  0.3135  3.7410  0.7206
  285MOL0     H39315   8.538   5.557   7.323 -4.5041  2.1921  2.2275
  285MOL0     H39316   8.075   5.619   7.411 -0.9436 -3.2315 -0.9861
  285MOL0     H39317   7.912   5.531   7.544  0.0832  2.6081 -0.3848
  285MOL0     H39318   8.024   5.245   7.774 -0.3479 -0.8457 -1.2309
  285MOL0     H39319   7.884   5.272   7.884  0.0456 -0.4170 -0.5355
  285MOL0     H39320   7.791   5.146   7.725 -0.2296  1.2292  3.8907
  285MOL0     H39321   7.874   5.228   7.588  2.2913  0.7538  0.6727
  285MOL0     H39322   7.660   5.343   7.771  0.1588 -0.0614 -0.7507
  285MOL0     H39323   7.730   5.436   7.637  2.2541 -0.0406  1.0304
  285MOL0     H39324   7.553   5.188   7.600  1.5055  0.2888  3.1814
  285MOL0     H39325   7.668   5.244   7.481  2.1151 -1.8171  2.8914
  285MOL0     H39326   7.332   5.497   7.441  1.6844  1.4951  0.0991
  285MOL0     H39327   8.190   5.459   7.870  0.5978  3.7998  1.1465
  285MOL0     H39328   8.412   5.464   7.828  1.9983 -1.0031 -0.3104
  285MOL0     H39329   8.489   5.489   7.670 -0.6405  1.8672 -1.8770
  285MOL0     H39330   8.458   5.623   7.775  1.9817 -1.2856  0.5745
  286MOL0     O39331   0.960   3.938   3.007  0.6454  0.3181  0.3861
  286MOL0     C39332   0.915   4.052   2.992 -0.4403  0.5093 -0.1778
  286MOL0     O39333   0.794   4.082   2.922  0.4311  0.0890  0.4935
  286MOL0     C39334   0.711   3.986   2.868  0.1700 -0.2322 -0.4894
  286MOL0     C39335   0.582   4.024   2.846  0.4615  0.3137 -0.5482
  286MOL0     C39336   0.485   3.938   2.791  0.9021 -0.3835 -0.0427
  286MOL0     C39337   0.519   3.806   2.742  0.3684  0.0195 -0.1990
  286MOL0     O39338   0.431   3.723   2.675 -0.3398 -0.5975 -0.2214
  286MOL0     C39339   0.292   3.731   2.724 -0.5369  0.1812 -0.0363
  286MOL0     C39340   0.241   3.585   2.688  0.4329  0.3257 -0.3508
  286MOL0     C39341   0.214   3.584   2.542 -0.9386 -0.1282 -0.2014
  286MOL0     C39342   0.183   3.448   2.489  0.1973  0.3610  0.8289
  286MOL0     C39343   0.131   3.472   2.347  0.0455 -0.0549 -0.3679
  286MOL0     C39344   0.076   3.336   2.287 -0.3610  0.1519 -0.2006
  286MOL0     C39345   0.018   3.361   2.146 -0.2110 -0.5398 -0.2479
  286MOL0     C39346   0.023   3.234   2.062  0.8760 -0.0949 -0.1469
  286MOL0     N39347   0.011   3.255   1.919 -1.2139 -0.0551 -0.6595
  286MOL0     C39348   0.101   3.329   1.843  0.7699  0.1858  0.9677
  286MOL0     C39349   0.076   3.299   1.715  0.4146 -0.5162 -0.7711
  286MOL0     C39350   0.150   3.337   1.587 -0.3926 -0.0971 -0.3728
  286MOL0     C39351   0.297   3.375   1.590 -0.5955  0.6892  0.3782
  286MOL0     C39352   0.400   3.263   1.609  0.1033 -0.0441 -0.1684
  286MOL0     C39353   0.541   3.328   1.626  0.7467  0.7540  0.5758
  286MOL0     O39354   0.640   3.221   1.643 -0.3423 -0.0937 -0.6156
  286MOL0     C39355   0.774   3.252   1.614  0.4719 -0.2600 -0.7907
  286MOL0     C39356   0.814   3.386   1.586  0.2247  0.7977 -0.2005
  286MOL0     C39357   0.939   3.419   1.538  0.3976  1.2657 -0.1623
  286MOL0     C39358   0.962   3.563   1.493 -0.6097 -0.1712  0.7762
  286MOL0     C39359   1.034   3.314   1.526 -0.6619  0.8214  0.1923
  286MOL0     C39360   1.172   3.338   1.476  0.3972  0.7816  0.3781
  286MOL0     O39361   1.255   3.231   1.506 -0.0097 -0.0384 -0.2167
  286MOL0     C39362   1.379   3.227   1.456 -0.3112 -0.7642  0.1079
  286MOL0     C39363   1.403   3.132   1.357  0.7691 -0.5833 -0.7628
  286MOL0     C39364   1.533   3.124   1.307  0.0538  0.3629 -0.2603
  286MOL0     C39365   1.641   3.203   1.353  0.5006 -0.0789 -0.6433
  286MOL0     O39366   1.756   3.188   1.281  0.3641  0.3170 -0.0806
  286MOL0     C39367   1.875   3.254   1.326 -0.9089 -0.6996  0.6096
  286MOL0     C39368   1.879   3.409   1.294 -0.0114  0.3592 -0.1992
  286MOL0     C39369   1.982   3.444   1.182 -0.2185  0.6645 -0.2870
  286MOL0     C39370   2.125   3.432   1.247 -0.7291 -0.4573  0.9273
  286MOL0     C39371   2.227   3.463   1.137 -0.2661 -0.3087 -0.1374
  286MOL0     C39372   2.361   3.476   1.194  0.5343 -0.7749 -0.5188
  286MOL0     C39373   2.480   3.506   1.095  0.2880  0.3926 -0.2332
  286MOL0     C39374   2.617   3.509   1.153  0.6925 -0.7619  0.7371
  286MOL0    Cl39375   2.643   3.348   1.210 -0.3609 -0.5489 -0.3298
  286MOL0     C39376   1.614   3.300   1.454  1.5237 -0.2267 -0.8610
  286MOL0     C39377   1.480   3.317   1.504  0.1505  1.2443  0.3430
  286MOL0     O39378   1.204   3.432   1.403  0.1614  0.0389 -0.7675
  286MOL0     C39379   1.005   3.182   1.573 -0.2243  0.1439 -0.8436
  286MOL0     C39380   0.867   3.157   1.610  0.0896 -0.1372  0.0856
  286MOL0     N39381  -0.034   3.213   1.717 -0.5350  0.5509  0.4109
  286MOL0     N39382  -0.073   3.184   1.832  0.4126 -0.6735 -0.1834
  286MOL0     C39383   0.654   3.767   2.770 -0.5847 -1.0436 -0.2580
  286MOL0     C39384   0.740   3.856   2.832 -0.3383  0.4989  0.4586
  286MOL0     C39385   0.989   4.169   3.039  0.4065 -0.1538 -0.0029
  286MOL0     C39386   0.961   4.293   2.972 -0.4907 -0.1950 -0.1302
  286MOL0     C39387   1.016   4.414   3.019  0.1364 -0.0627  0.4481
  286MOL0     C39388   1.105   4.416   3.124  0.7141  0.1739 -0.5449
  286MOL0     O39389   1.139   4.544   3.164  0.0105  0.1369  0.4486
  286MOL0     C39390   1.253   4.572   3.244  0.1263  0.3741  0.1637
  286MOL0     C39391   1.377   4.562   3.151  0.4882 -0.7225 -0.0118
  286MOL0     C39392   1.500   4.501   3.214 -0.0556  0.1821  0.1542
  286MOL0     C39393   1.596   4.448   3.110 -0.3898 -0.1629 -0.1245
  286MOL0     C39394   1.553   4.342   3.027 -0.6771  0.4795 -0.2153
  286MOL0     C39395   1.512   4.241   2.969  0.9543  0.2510 -0.0253
  286MOL0     C39396   1.138   4.294   3.185 -0.1126 -0.8694  0.0600
  286MOL0     C39397   1.084   4.171   3.146  0.5428  0.7419  0.0021
  286MOL0     C39398   1.119   4.049   3.228 -0.7052  0.1306 -0.3493
  286MOL0     H39399   0.557   4.125   2.878 -2.4779 -0.8531  1.3204
  286MOL0     H39400   0.384   3.971   2.768  0.5617  0.3310  2.2347
  286MOL0     H39401   0.225   3.801   2.674 -1.4049 -1.3203 -1.0835
  286MOL0     H39402   0.298   3.743   2.832  1.5869 -1.0641  0.0361
  286MOL0     H39403   0.321   3.512   2.699 -0.4366 -0.3475  2.1695
  286MOL0     H39404   0.153   3.553   2.744 -0.9851  2.1195 -1.4123
  286MOL0     H39405   0.131   3.654   2.527  1.0142  1.9943 -1.7665
  286MOL0     H39406   0.302   3.627   2.493  0.2205  0.0013  1.8484
  286MOL0     H39407   0.279   3.395   2.487 -0.7554 -1.4425 -1.3302
  286MOL0     H39408   0.111   3.390   2.547  0.7522 -2.7148 -1.3211
  286MOL0     H39409   0.206   3.518   2.282  0.4878  0.2305  0.3287
  286MOL0     H39410   0.047   3.542   2.342  2.7172  3.3547 -2.3290
  286MOL0     H39411   0.164   3.272   2.279 -0.2276  0.4954 -1.9830
  286MOL0     H39412   0.004   3.281   2.348 -0.0224 -1.7581 -1.4225
  286MOL0     H39413   0.077   3.441   2.100  0.4686 -1.0755 -0.3403
  286MOL0     H39414  -0.078   3.410   2.161  0.9604  1.2543  2.2797
  286MOL0     H39415   0.119   3.182   2.076  2.1278  2.3668  1.0760
  286MOL0     H39416  -0.054   3.168   2.102  1.0858 -0.6741 -0.6794
  286MOL0     H39417   0.189   3.387   1.869  0.3533  0.8072  1.0105
  286MOL0     H39418   0.097   3.421   1.541 -0.0850 -0.6448 -1.7651
  286MOL0     H39419   0.132   3.258   1.514  1.7545 -0.1766 -0.8779
  286MOL0     H39420   0.322   3.428   1.497 -0.2752 -2.2068 -1.3363
  286MOL0     H39421   0.323   3.440   1.674  0.3040 -1.5741  1.9546
  286MOL0     H39422   0.381   3.195   1.692  0.6262 -2.4299 -1.8742
  286MOL0     H39423   0.399   3.196   1.522 -0.0291 -4.4443  2.9148
  286MOL0     H39424   0.558   3.383   1.533 -0.5180  2.6140  1.3711
  286MOL0     H39425   0.545   3.407   1.703 -0.6203  1.3768  0.0362
  286MOL0     H39426   0.751   3.474   1.597 -0.5177  0.3780 -0.9896
  286MOL0     H39427   1.020   3.614   1.570 -0.2304  0.8024 -0.1393
  286MOL0     H39428   0.863   3.609   1.482 -1.1341 -1.2474  0.8812
  286MOL0     H39429   1.009   3.569   1.395 -0.0732  0.4907  1.0649
  286MOL0     H39430   1.324   3.081   1.302 -0.6357  1.0283 -0.3130
  286MOL0     H39431   1.556   3.047   1.234  1.1564 -2.6670  2.9965
  286MOL0     H39432   1.881   3.245   1.435 -0.3754 -0.6824  0.5839
  286MOL0     H39433   1.966   3.208   1.287  0.1603  0.1550  2.0277
  286MOL0     H39434   1.780   3.439   1.258  1.0090  2.0448 -1.7545
  286MOL0     H39435   1.893   3.469   1.384  0.5196 -0.5052  0.3100
  286MOL0     H39436   1.958   3.547   1.153 -0.3814  0.2093 -1.8206
  286MOL0     H39437   1.968   3.372   1.101 -3.6055  1.0775 -0.2079
  286MOL0     H39438   2.145   3.335   1.294  2.0260 -1.4039 -1.8997
  286MOL0     H39439   2.136   3.501   1.332  0.6966 -1.1770  1.3541
  286MOL0     H39440   2.234   3.374   1.074  3.1088 -2.6535  3.1172
  286MOL0     H39441   2.192   3.550   1.080  0.2651  0.6863  0.9889
  286MOL0     H39442   2.382   3.391   1.259  0.8009 -0.5041 -0.2504
  286MOL0     H39443   2.360   3.561   1.263  1.2345 -1.7070  0.6735
  286MOL0     H39444   2.462   3.608   1.059 -0.1201  0.0600 -0.9664
  286MOL0     H39445   2.469   3.441   1.008 -1.9769 -1.1829  1.1498
  286MOL0     H39446   2.628   3.589   1.227  2.2869  1.5436 -1.8245
  286MOL0     H39447   2.699   3.534   1.086  0.7722 -0.8598  0.7954
  286MOL0     H39448   1.685   3.374   1.488 -0.5909  1.3761  0.2003
  286MOL0     H39449   1.437   3.387   1.574 -0.2283  1.7465 -0.3757
  286MOL0     H39450   1.077   3.100   1.578  1.2768  1.4749  0.4145
  286MOL0     H39451   0.851   3.051   1.626  0.0592 -0.4511 -1.7809
  286MOL0     H39452   0.695   3.668   2.752 -0.8226 -1.2784  0.4333
  286MOL0     H39453   0.840   3.817   2.845 -1.2035 -1.1311  2.8823
  286MOL0     H39454   0.900   4.298   2.882 -2.1848  1.5196  1.0218
  286MOL0     H39455   0.989   4.493   2.951 -2.7832 -2.3667 -1.3302
  286MOL0     H39456   1.239   4.674   3.281  0.7302  0.7933 -0.7199
  286MOL0     H39457   1.260   4.498   3.324 -1.1812  1.7624  1.6413
  286MOL0     H39458   1.406   4.663   3.119 -1.4020 -0.5036 -1.1814
  286MOL0     H39459   1.350   4.506   3.061 -0.6103 -2.2938  1.2537
  286MOL0     H39460   1.552   4.587   3.257  0.2752  0.7213 -1.2550
  286MOL0     H39461   1.472   4.415   3.276  1.4090 -1.0512 -0.8190
  286MOL0     H39462   1.696   4.437   3.154  0.1188  1.2129 -0.8626
  286MOL0     H39463   1.616   4.528   3.039  0.6883 -0.4087 -0.1191
  286MOL0     H39464   1.473   4.145   2.943 -1.4685  0.7730  1.4060
  286MOL0     H39465   1.204   4.298   3.271 -1.4108  2.5993  1.0615
  286MOL0     H39466   1.219   4.047   3.273 -1.6695  0.9068  2.0185
  286MOL0     H39467   1.055   4.034   3.315  1.4324 -0.5385  1.2048
  286MOL0     H39468   1.111   3.954   3.175 -1.4142 -0.0512  0.0721
  287MOL0     O39469   3.176   7.788   4.028 -0.2431  0.7737 -0.2459
  287MOL0     C39470   3.154   7.797   3.906 -0.2351 -0.1426  0.0547
  287MOL0     O39471   3.239   7.751   3.809  0.2211  0.1555  0.5554
  287MOL0     C39472   3.350   7.684   3.851  0.6521 -0.4861  0.5083
  287MOL0     C39473   3.351   7.545   3.870 -0.2549  0.3128 -0.3551
  287MOL0     C39474   3.471   7.489   3.912  0.9083  1.5937  0.5379
  287MOL0     C39475   3.588   7.559   3.924 -0.3668 -0.8938 -0.4630
  287MOL0     O39476   3.715   7.528   3.966  0.1332 -0.7296  0.3684
  287MOL0     C39477   3.750   7.386   3.980 -0.0608  0.3810 -0.3227
  287MOL0     C39478   3.834   7.314   3.874 -0.1994  0.1544  0.1163
  287MOL0     C39479   3.969   7.392   3.844 -0.0935  0.9314 -0.8626
  287MOL0     C39480   4.091   7.379   3.945 -0.7235 -0.0526  0.0087
  287MOL0     C39481   4.213   7.447   3.873 -1.0795  0.2746 -0.6152
  287MOL0     C39482   4.341   7.464   3.949 -0.5501  0.1932 -0.9526
  287MOL0     C39483   4.443   7.567   3.883 -0.3527  0.9485  0.6242
  287MOL0     C39484   4.481   7.509   3.750 -0.9223 -0.6018  0.6682
  287MOL0     N39485   4.562   7.602   3.668  0.5487  0.0615 -0.9207
  287MOL0     C39486   4.700   7.596   3.656  0.5342 -0.9557  0.5958
  287MOL0     C39487   4.734   7.679   3.552  1.0021  0.0003 -0.4290
  287MOL0     C39488   4.871   7.701   3.498  0.3061 -0.5123  0.1760
  287MOL0     C39489   4.935   7.590   3.421  0.3620  0.3674  0.0146
  287MOL0     C39490   4.863   7.574   3.285 -0.4475 -0.0259  0.1004
  287MOL0     C39491   4.902   7.432   3.207  0.1789  0.2816  0.9021
  287MOL0     O39492   5.045   7.403   3.194 -0.6211  0.7057 -0.2543
  287MOL0     C39493   5.106   7.490   3.106  0.1367  0.6295  0.0774
  287MOL0     C39494   5.059   7.518   2.979  0.2939 -0.1190  0.1826
  287MOL0     C39495   5.124   7.603   2.880  0.5395  0.5473 -0.3819
  287MOL0     C39496   5.051   7.612   2.743 -0.0439  0.0256  0.5359
  287MOL0     C39497   5.243   7.668   2.920 -0.4037 -0.4197  0.3841
  287MOL0     C39498   5.334   7.756   2.841  0.3584 -0.0691  0.2682
  287MOL0     O39499   5.457   7.799   2.900  0.7722  0.4781  0.2691
  287MOL0     C39500   5.546   7.890   2.860  0.2826 -0.7095  0.7503
  287MOL0     C39501   5.542   7.965   2.740 -0.4281  0.0213 -0.3460
  287MOL0     C39502   5.656   8.032   2.699  0.4995 -0.3836  0.2934
  287MOL0     C39503   5.762   8.050   2.788 -0.3730 -0.0390 -0.2711
  287MOL0     O39504   5.858   8.141   2.756 -0.0994  0.0207 -0.0213
  287MOL0     C39505   5.841   8.258   2.829 -0.2717 -0.2473 -0.6397
  287MOL0     C39506   5.961   8.360   2.822  0.6563  0.0398  0.1083
  287MOL0     C39507   6.096   8.301   2.844  0.1921  0.0049 -0.8177
  287MOL0     C39508   6.202   8.415   2.823 -0.1054 -0.5408  0.9948
  287MOL0     C39509   6.342   8.367   2.871  0.9074 -0.2183  0.2490
  287MOL0     C39510   6.445   8.468   2.842  0.2764  0.5032 -0.1066
  287MOL0     C39511   6.563   8.469   2.937  0.4798 -0.3941 -0.4084
  287MOL0     C39512   6.705   8.494   2.882  0.2092  0.1363  0.1933
  287MOL0    Cl39513   6.828   8.501   3.003 -0.1953  0.3425 -0.2567
  287MOL0     C39514   5.757   7.987   2.913 -0.3454 -1.2618 -0.2871
  287MOL0     C39515   5.653   7.905   2.953 -0.2405 -0.4628 -0.1007
  287MOL0     O39516   5.289   7.785   2.734 -0.5374 -0.2912  0.5141
  287MOL0     C39517   5.290   7.639   3.050 -0.5851 -0.6497 -0.1139
  287MOL0     C39518   5.224   7.548   3.133  0.0129 -0.1354  0.1624
  287MOL0     N39519   4.612   7.733   3.506 -0.3509 -1.3340 -0.3980
  287MOL0     N39520   4.513   7.685   3.567 -0.4512 -0.1022 -0.2756
  287MOL0     C39521   3.590   7.703   3.895 -0.5937  0.5807  0.5537
  287MOL0     C39522   3.465   7.765   3.864 -0.1680  0.2763 -0.2493
  287MOL0     C39523   3.041   7.883   3.866  0.6938 -0.3836 -0.3778
  287MOL0     C39524   3.034   7.930   3.732  0.6558  0.4856  0.4353
  287MOL0     C39525   2.933   8.011   3.679  0.3789 -0.0045  0.6285
  287MOL0     C39526   2.834   8.050   3.767  0.4290 -0.2235  0.7761
  287MOL0     O39527   2.736   8.133   3.743 -0.1709 -0.0344  0.6273
  287MOL0     C39528   2.709   8.192   3.619  0.1203  0.7839 -1.0237
  287MOL0     C39529   2.575   8.256   3.634  0.2276  0.9832  1.0163
  287MOL0     C39530   2.545   8.311   3.490 -0.2621 -1.1586  0.3649
  287MOL0     C39531   2.470   8.223   3.394  0.7584  0.1904 -0.0851
  287MOL0     C39532   2.570   8.175   3.286  0.0678  0.4190 -0.2284
  287MOL0     C39533   2.643   8.153   3.189  0.7639 -0.6278  0.2433
  287MOL0     C39534   2.832   8.001   3.899  1.2767 -0.3880 -0.2758
  287MOL0     C39535   2.928   7.914   3.953 -0.3617  0.4659  0.8882
  287MOL0     C39536   2.898   7.859   4.084 -0.1880  0.3453 -0.1203
  287MOL0     H39537   3.262   7.487   3.845  1.4796 -2.6585 -0.1441
  287MOL0     H39538   3.477   7.381   3.920 -0.3319  1.5540  1.2998
  287MOL0     H39539   3.661   7.330   4.012  1.7023 -1.2817  2.1261
  287MOL0     H39540   3.821   7.390   4.064 -0.1810  1.4677 -0.2648
  287MOL0     H39541   3.845   7.209   3.902 -4.0827 -0.5113 -0.2581
  287MOL0     H39542   3.779   7.321   3.779  1.0142 -2.2118 -0.8303
  287MOL0     H39543   3.997   7.340   3.752 -0.0290 -0.9585  0.1838
  287MOL0     H39544   3.941   7.496   3.826  1.5988  1.1085 -2.7331
  287MOL0     H39545   4.075   7.438   4.036 -0.4911 -1.2932  0.8765
  287MOL0     H39546   4.114   7.279   3.980  0.9513  0.3490  0.1348
  287MOL0     H39547   4.191   7.549   3.841  0.8920  1.2778  1.0224
  287MOL0     H39548   4.232   7.387   3.783 -1.1340 -0.4538 -0.1464
  287MOL0     H39549   4.314   7.492   4.051 -1.6332  0.3487 -1.2658
  287MOL0     H39550   4.377   7.362   3.966  0.5553  0.8219  0.7661
  287MOL0     H39551   4.527   7.585   3.951 -1.8700  0.6567  2.6699
  287MOL0     H39552   4.403   7.668   3.870 -0.0886  0.6354 -4.9669
  287MOL0     H39553   4.549   7.423   3.761  4.2071  2.4366 -2.6415
  287MOL0     H39554   4.394   7.485   3.688  0.7837 -2.7074 -1.1252
  287MOL0     H39555   4.761   7.524   3.711 -1.0477 -0.0583  3.7329
  287MOL0     H39556   4.936   7.733   3.580 -0.2242 -2.6099  1.4882
  287MOL0     H39557   4.867   7.793   3.439 -0.3579 -0.5310  0.1775
  287MOL0     H39558   5.039   7.616   3.399  0.1875  1.0841  0.0145
  287MOL0     H39559   4.921   7.499   3.480  2.0285 -0.5952 -0.9869
  287MOL0     H39560   4.755   7.570   3.299 -0.0624 -3.3060  3.6294
  287MOL0     H39561   4.894   7.654   3.216  1.1929 -1.6712 -1.1855
  287MOL0     H39562   4.855   7.354   3.267 -1.1335 -0.9753 -1.6071
  287MOL0     H39563   4.848   7.437   3.112  1.5470  1.6101  0.1496
  287MOL0     H39564   4.967   7.466   2.955 -0.1392  1.1646 -1.0736
  287MOL0     H39565   4.961   7.550   2.735  0.9399 -1.1802 -2.3318
  287MOL0     H39566   5.122   7.576   2.668  1.5344  1.6402  1.1878
  287MOL0     H39567   5.021   7.717   2.741  1.4768  0.4747 -0.3352
  287MOL0     H39568   5.453   7.944   2.680  0.0939 -2.7108 -0.2743
  287MOL0     H39569   5.670   8.079   2.603  0.7461  2.3185  1.5430
  287MOL0     H39570   5.758   8.313   2.784  0.2079  0.4278 -0.7178
  287MOL0     H39571   5.833   8.244   2.937 -3.1307  1.8746 -0.4500
  287MOL0     H39572   5.954   8.392   2.717 -2.8500  0.4518  0.3379
  287MOL0     H39573   5.942   8.446   2.888 -1.2566 -0.4427  0.2557
  287MOL0     H39574   6.121   8.221   2.774 -0.4482 -0.6202 -0.3466
  287MOL0     H39575   6.100   8.260   2.945 -1.9292 -0.2448 -0.7852
  287MOL0     H39576   6.178   8.506   2.878  2.0369  1.0533 -0.5347
  287MOL0     H39577   6.214   8.448   2.719 -1.1169  2.6073  1.7594
  287MOL0     H39578   6.327   8.345   2.977 -0.4761 -2.5362 -0.3602
  287MOL0     H39579   6.365   8.266   2.836  1.9011 -0.2971  1.0686
  287MOL0     H39580   6.405   8.570   2.840 -1.8778 -0.1874  2.1492
  287MOL0     H39581   6.483   8.442   2.744  0.2721 -0.6455  0.1861
  287MOL0     H39582   6.552   8.372   2.987 -0.5074 -0.1716 -0.1808
  287MOL0     H39583   6.548   8.547   3.013  0.9116  0.2104 -0.9373
  287MOL0     H39584   6.705   8.592   2.834 -2.1213 -0.4289 -1.1576
  287MOL0     H39585   6.720   8.413   2.810  0.4544  0.6466 -0.3399
  287MOL0     H39586   5.827   8.021   2.988 -1.1677  2.6339 -1.0553
  287MOL0     H39587   5.654   7.856   3.050 -1.2963 -1.3062 -0.5066
  287MOL0     H39588   5.375   7.694   3.089 -0.4816 -0.6643 -0.3140
  287MOL0     H39589   5.278   7.535   3.226 -1.2556  1.1993  1.1274
  287MOL0     H39590   3.686   7.748   3.918  0.1687  0.3175 -1.8411
  287MOL0     H39591   3.459   7.874   3.861 -0.1523  0.3198  0.9413
  287MOL0     H39592   3.109   7.897   3.661  1.7552  0.1564  1.6946
  287MOL0     H39593   2.930   8.044   3.575 -2.4690 -0.5982  0.4481
  287MOL0     H39594   2.791   8.262   3.600  1.6651 -0.2866  1.2909
  287MOL0     H39595   2.700   8.115   3.541  2.8759 -2.2003  1.3331
  287MOL0     H39596   2.563   8.340   3.704 -5.5319  0.0635  1.6866
  287MOL0     H39597   2.493   8.194   3.672 -0.4919  0.5935 -1.0733
  287MOL0     H39598   2.489   8.403   3.506 -1.3533 -2.1237  2.4495
  287MOL0     H39599   2.639   8.343   3.444 -1.3434 -2.5618 -3.1734
  287MOL0     H39600   2.391   8.280   3.345 -1.3702  0.0138  2.8709
  287MOL0     H39601   2.423   8.137   3.443  1.1409  0.8408  1.4958
  287MOL0     H39602   2.708   8.151   3.104  0.9342 -0.6614  0.3724
  287MOL0     H39603   2.739   8.027   3.947  0.3593 -1.2075 -1.5359
  287MOL0     H39604   2.822   7.928   4.122  0.7054  0.7178  1.0781
  287MOL0     H39605   2.872   7.753   4.087  2.2118 -0.2924  0.0633
  287MOL0     H39606   2.990   7.873   4.142  0.3283 -1.0695 -0.5619
  288MOL0     O39607   1.135   0.737   1.776  0.1722 -0.3944  0.0955
  288MOL0     C39608   1.092   0.655   1.695 -0.1819 -0.3467 -0.1419
  288MOL0     O39609   1.164   0.562   1.630 -0.4409  0.2529  0.3976
  288MOL0     C39610   1.286   0.509   1.674 -0.0250  0.4265  0.2913
  288MOL0     C39611   1.314   0.479   1.805 -0.1032  0.5356 -0.0762
  288MOL0     C39612   1.423   0.398   1.842 -0.0047 -0.5773  0.2421
  288MOL0     C39613   1.518   0.367   1.750  0.2971  0.0275  0.4704
  288MOL0     O39614   1.628   0.284   1.787  0.2349 -0.5994  0.0678
  288MOL0     C39615   1.739   0.264   1.691 -0.2459 -0.5145 -0.1793
  288MOL0     C39616   1.815   0.406   1.699 -0.1434  1.0984 -0.5168
  288MOL0     C39617   1.964   0.403   1.684 -1.1102 -0.2665  0.1178
  288MOL0     C39618   2.003   0.424   1.538  0.3106  0.2279  0.0130
  288MOL0     C39619   2.143   0.471   1.512  0.0087 -0.8653 -0.3528
  288MOL0     C39620   2.176   0.461   1.356 -0.0167 -0.4154 -0.7544
  288MOL0     C39621   2.293   0.553   1.319  0.1758  0.3473  0.3769
  288MOL0     C39622   2.433   0.489   1.346 -0.5944  0.1442  0.3527
  288MOL0     N39623   2.495   0.426   1.232  0.7373  1.1808 -1.0520
  288MOL0     C39624   2.542   0.498   1.130 -0.1970 -0.8826  0.4367
  288MOL0     C39625   2.621   0.417   1.062 -0.0180  0.4105 -0.6776
  288MOL0     C39626   2.716   0.446   0.947 -0.4575  0.2295  0.2427
  288MOL0     C39627   2.647   0.517   0.832 -0.2798 -0.6282 -0.0864
  288MOL0     C39628   2.539   0.427   0.765 -0.0355  1.1445 -1.4323
  288MOL0     C39629   2.464   0.507   0.658  0.2356 -0.1593  0.0081
  288MOL0     O39630   2.565   0.538   0.563  0.3311 -0.3070 -0.1057
  288MOL0     C39631   2.531   0.610   0.456 -0.0667  0.6719  0.0313
  288MOL0     C39632   2.400   0.651   0.425  0.5188  0.4793 -0.0227
  288MOL0     C39633   2.363   0.718   0.309  0.5502 -0.6361 -0.0547
  288MOL0     C39634   2.216   0.764   0.285  0.9723  0.2081  0.4192
  288MOL0     C39635   2.472   0.753   0.216  0.6908  0.6068 -0.5595
  288MOL0     C39636   2.448   0.826   0.093 -0.8854  1.1668 -0.0272
  288MOL0     O39637   2.470   0.754  -0.017 -0.6298 -0.1092  0.7955
  288MOL0     C39638   2.444   0.816  -0.143 -0.8452  0.2134 -0.2191
  288MOL0     C39639   2.493   0.940  -0.185  0.4143 -0.2540 -0.0465
  288MOL0     C39640   2.448   0.992  -0.303 -0.1349 -0.7242 -0.1686
  288MOL0     C39641   2.363   0.931  -0.391  0.7133 -0.4557  0.9506
  288MOL0     O39642   2.336   0.997  -0.508 -0.2938 -0.5106 -0.2574
  288MOL0     C39643   2.291   0.929  -0.620  0.3287 -0.2013  0.5267
  288MOL0     C39644   2.244   1.026  -0.726 -0.7847  0.3318  0.3287
  288MOL0     C39645   2.164   0.953  -0.839 -0.0033 -0.2990 -0.9643
  288MOL0     C39646   2.242   0.845  -0.907  0.7295 -0.1545 -0.0205
  288MOL0     C39647   2.187   0.817  -1.049 -0.2545  0.5698 -0.6234
  288MOL0     C39648   2.045   0.757  -1.047 -0.4888  0.0491  0.3452
  288MOL0     C39649   2.012   0.697  -1.191  0.2228  0.3422 -0.1001
  288MOL0     C39650   1.927   0.571  -1.185 -0.4687 -0.1202 -0.3709
  288MOL0    Cl39651   1.760   0.607  -1.134  0.0139 -0.6443  0.0626
  288MOL0     C39652   2.309   0.814  -0.345  0.1349  0.3138 -0.3877
  288MOL0     C39653   2.345   0.755  -0.220  0.2134 -0.3573 -0.5623
  288MOL0     O39654   2.405   0.941   0.099 -0.5988 -0.3532  0.3793
  288MOL0     C39655   2.606   0.719   0.244  0.2252  0.5830  0.8665
  288MOL0     C39656   2.637   0.639   0.365  0.4631 -0.1637  0.3955
  288MOL0     N39657   2.627   0.293   1.128  0.0190  0.5890 -0.1713
  288MOL0     N39658   2.554   0.302   1.233  0.7213 -0.1395  0.1879
  288MOL0     C39659   1.504   0.415   1.623 -0.2462  0.6710 -0.1122
  288MOL0     C39660   1.391   0.473   1.587  0.7475 -1.3275  1.2554
  288MOL0     C39661   0.951   0.686   1.654 -0.9440 -0.7536 -0.5168
  288MOL0     C39662   0.930   0.684   1.512  0.3530 -0.3407  0.0217
  288MOL0     C39663   0.804   0.730   1.469  0.5715 -0.1018 -0.3746
  288MOL0     C39664   0.697   0.751   1.557 -0.8556  0.5627 -0.0071
  288MOL0     O39665   0.568   0.801   1.530  0.3045  0.6316  0.1607
  288MOL0     C39666   0.479   0.702   1.458 -0.1339  0.1514 -0.4593
  288MOL0     C39667   0.423   0.602   1.560  0.8205  0.4140  1.0921
  288MOL0     C39668   0.308   0.661   1.645  0.0248  0.4317 -0.0102
  288MOL0     C39669   0.166   0.599   1.611  0.2650  0.5099  0.1392
  288MOL0     C39670   0.123   0.636   1.476  0.3738 -0.6515  0.8105
  288MOL0     C39671   0.090   0.658   1.364  0.5639  0.1934  1.5237
  288MOL0     C39672   0.715   0.729   1.693 -0.1572 -0.1739 -0.0509
  288MOL0     C39673   0.846   0.705   1.747 -0.7493 -0.2854  0.3562
  288MOL0     C39674   0.864   0.709   1.894  0.0183  0.6429 -0.2415
  288MOL0     H39675   1.243   0.514   1.880 -1.0925 -1.8413  0.1732
  288MOL0     H39676   1.433   0.369   1.946 -3.3061  3.8753  2.1410
  288MOL0     H39677   1.706   0.230   1.592 -1.5714 -1.0286  0.4070
  288MOL0     H39678   1.801   0.185   1.736 -0.9630 -0.3228  1.2036
  288MOL0     H39679   1.766   0.474   1.628 -2.2664 -3.0173 -3.4307
  288MOL0     H39680   1.804   0.442   1.802  0.3273 -0.1276 -0.0189
  288MOL0     H39681   2.010   0.483   1.742 -2.9060 -0.1088  1.4094
  288MOL0     H39682   2.010   0.309   1.719 -0.8529 -0.1450  0.1069
  288MOL0     H39683   1.976   0.338   1.476  0.5342  0.2014 -0.0462
  288MOL0     H39684   1.952   0.512   1.498 -0.1663  1.3754  2.8613
  288MOL0     H39685   2.208   0.406   1.572 -0.8225 -1.3646  0.0241
  288MOL0     H39686   2.150   0.575   1.545 -1.4490 -0.9356  0.2580
  288MOL0     H39687   2.185   0.354   1.332  0.9689 -0.6785  0.6693
  288MOL0     H39688   2.086   0.484   1.297 -0.4125 -0.0437 -0.0161
  288MOL0     H39689   2.277   0.645   1.376 -1.3089 -0.3859  1.2171
  288MOL0     H39690   2.282   0.576   1.213  0.6821 -0.7730  0.0686
  288MOL0     H39691   2.504   0.565   1.381  1.6138 -0.6934 -1.9526
  288MOL0     H39692   2.423   0.427   1.436  1.8432  1.4843  1.6697
  288MOL0     H39693   2.537   0.605   1.118  0.6518 -0.5556  2.5248
  288MOL0     H39694   2.757   0.351   0.911 -2.0035 -0.2469 -0.3709
  288MOL0     H39695   2.799   0.500   0.995  0.5366  0.0570 -1.2213
  288MOL0     H39696   2.589   0.599   0.877 -0.6501 -2.2879  2.7000
  288MOL0     H39697   2.721   0.560   0.764 -1.0654 -0.2126 -0.7117
  288MOL0     H39698   2.582   0.335   0.725 -0.5729 -1.3898  3.2106
  288MOL0     H39699   2.471   0.397   0.845  0.6440  1.5423 -0.6932
  288MOL0     H39700   2.387   0.446   0.610  1.1610 -0.6373 -0.9219
  288MOL0     H39701   2.412   0.590   0.706 -1.0582  0.7012 -2.6791
  288MOL0     H39702   2.320   0.644   0.498  0.5474 -0.1767 -0.0500
  288MOL0     H39703   2.213   0.819   0.191  3.6732  1.9380  1.2385
  288MOL0     H39704   2.175   0.835   0.358 -0.7931  1.7884 -1.9848
  288MOL0     H39705   2.146   0.680   0.277 -0.4247  1.3001  0.7493
  288MOL0     H39706   2.575   0.985  -0.130  0.0446  1.8382 -1.1308
  288MOL0     H39707   2.474   1.091  -0.341 -0.7415 -1.5711 -3.0405
  288MOL0     H39708   2.382   0.880  -0.656  0.1954  1.0602 -1.7220
  288MOL0     H39709   2.210   0.856  -0.609 -2.0067  1.8656 -1.6657
  288MOL0     H39710   2.178   1.100  -0.678 -0.8164  0.6651 -0.2216
  288MOL0     H39711   2.328   1.090  -0.755 -0.9531  0.6645  0.5656
  288MOL0     H39712   2.140   1.030  -0.912  3.1464  1.0310 -0.7673
  288MOL0     H39713   2.064   0.925  -0.805  0.2458  2.2474  2.4424
  288MOL0     H39714   2.257   0.756  -0.845 -3.1642 -0.6709  0.4472
  288MOL0     H39715   2.335   0.894  -0.934  0.5471  0.1285 -0.1396
  288MOL0     H39716   2.173   0.913  -1.100  0.5144  2.0885  1.8740
  288MOL0     H39717   2.264   0.761  -1.103  1.0212  0.2072  1.4434
  288MOL0     H39718   1.971   0.829  -1.013  0.1747  1.3561 -0.8705
  288MOL0     H39719   2.035   0.682  -0.968  1.0409 -2.1031 -1.3637
  288MOL0     H39720   2.108   0.672  -1.237  2.4928  2.5003  3.0420
  288MOL0     H39721   1.966   0.768  -1.260 -0.9852 -1.0106 -0.7355
  288MOL0     H39722   1.980   0.498  -1.123 -0.5981 -1.3817 -1.7066
  288MOL0     H39723   1.905   0.515  -1.276 -1.3365 -1.9212  0.8896
  288MOL0     H39724   2.244   0.750  -0.404 -0.8915  0.9784 -0.0044
  288MOL0     H39725   2.325   0.650  -0.201  3.4469 -0.9877  0.0040
  288MOL0     H39726   2.678   0.760   0.174 -0.0402 -0.5816 -0.1145
  288MOL0     H39727   2.742   0.620   0.383  2.0218  4.2063 -2.3209
  288MOL0     H39728   1.577   0.406   1.544 -0.6280 -2.0038 -0.2310
  288MOL0     H39729   1.382   0.498   1.482 -0.0528 -1.0710  1.3767
  288MOL0     H39730   1.011   0.664   1.443 -0.9686 -1.8908 -1.1568
  288MOL0     H39731   0.781   0.731   1.363  1.4214  4.2668 -0.7190
  288MOL0     H39732   0.396   0.743   1.399  0.1841 -0.3104 -1.2370
  288MOL0     H39733   0.544   0.637   1.400  1.0871 -0.3524  1.4023
  288MOL0     H39734   0.504   0.564   1.623  1.4793  0.2844  0.1831
  288MOL0     H39735   0.375   0.519   1.507 -0.6659  0.9114  1.6059
  288MOL0     H39736   0.339   0.655   1.749  2.0517  4.5119 -0.1650
  288MOL0     H39737   0.300   0.770   1.649  1.6016  0.5481  1.4062
  288MOL0     H39738   0.089   0.647   1.673 -0.0270 -0.1825  0.3224
  288MOL0     H39739   0.172   0.490   1.622 -0.6878  0.4230 -0.0803
  288MOL0     H39740   0.061   0.689   1.266  2.2591 -1.9613  0.2486
  288MOL0     H39741   0.631   0.744   1.760  1.6199  0.8849  2.0712
  288MOL0     H39742   0.767   0.736   1.938 -0.8210 -1.8021 -0.4382
  288MOL0     H39743   0.903   0.616   1.936  1.2633  1.5546  0.6908
  288MOL0     H39744   0.933   0.792   1.912  2.0761 -1.3600  1.7533
  289MOL0     O39745   0.274   2.623   8.076 -0.2371 -0.1307 -0.8295
  289MOL0     C39746   0.279   2.503   8.105  1.0751  0.4328 -0.8100
  289MOL0     O39747   0.389   2.437   8.138  0.2719  0.2247  0.7943
  289MOL0     C39748   0.504   2.501   8.166  0.2688 -0.0381 -0.3335
  289MOL0     C39749   0.529   2.536   8.296  0.7257  0.0784  0.0619
  289MOL0     C39750   0.639   2.616   8.329  0.0746  0.8752 -0.4436
  289MOL0     C39751   0.720   2.661   8.230 -0.7883 -0.5363 -0.5565
  289MOL0     O39752   0.833   2.743   8.249 -0.2335  0.1449 -0.5148
  289MOL0     C39753   0.890   2.770   8.378  0.5403  0.1862  0.1322
  289MOL0     C39754   1.039   2.817   8.350 -0.0774 -0.1751 -0.1386
  289MOL0     C39755   1.113   2.822   8.480 -0.0510  0.5054 -0.6908
  289MOL0     C39756   1.268   2.833   8.452 -0.2231  0.0448 -0.1368
  289MOL0     C39757   1.335   2.828   8.580 -0.0971  0.4077 -0.7724
  289MOL0     C39758   1.478   2.857   8.582 -0.1615  0.1496 -0.4656
  289MOL0     C39759   1.569   2.766   8.494  0.0838  0.0314 -0.3332
  289MOL0     C39760   1.597   2.818   8.349 -0.2834  0.1912 -0.4057
  289MOL0     N39761   1.686   2.738   8.268  0.2997  0.5195 -0.2567
  289MOL0     C39762   1.676   2.600   8.254 -0.0462  0.2483  0.3418
  289MOL0     C39763   1.757   2.568   8.146 -1.3005 -0.5450  0.3251
  289MOL0     C39764   1.780   2.431   8.091  1.0222 -0.2867  0.3268
  289MOL0     C39765   1.661   2.401   7.999 -0.0641  0.1248 -0.0013
  289MOL0     C39766   1.675   2.261   7.954  0.5416  1.1426 -0.3598
  289MOL0     C39767   1.535   2.204   7.932  0.2923 -0.2680 -0.3905
  289MOL0     O39768   1.556   2.074   7.873  0.0869 -0.4159 -0.3082
  289MOL0     C39769   1.443   2.001   7.853  0.7874  1.2417 -0.4875
  289MOL0     C39770   1.449   1.867   7.883 -0.4216 -0.1594  0.3884
  289MOL0     C39771   1.343   1.778   7.860 -0.4131 -1.1057  0.5107
  289MOL0     C39772   1.373   1.638   7.907  0.7939  0.6140 -0.1874
  289MOL0     C39773   1.222   1.831   7.803 -0.1476  0.0772 -0.4620
  289MOL0     C39774   1.094   1.747   7.782 -0.0541  0.4049  0.4525
  289MOL0     O39775   0.978   1.810   7.748  0.1756 -0.5488  0.0861
  289MOL0     C39776   0.867   1.738   7.724  1.0279 -0.9769 -0.2966
  289MOL0     C39777   0.851   1.601   7.692 -0.5870  0.0756  1.0361
  289MOL0     C39778   0.726   1.550   7.675 -0.2785 -0.5886  0.0006
  289MOL0     C39779   0.613   1.623   7.676  0.7772 -0.3069 -0.1301
  289MOL0     O39780   0.494   1.562   7.644 -0.0863 -0.2277  0.7131
  289MOL0     C39781   0.365   1.634   7.674  1.0075 -0.4647  0.1423
  289MOL0     C39782   0.349   1.663   7.830  0.4532 -0.8397  1.0645
  289MOL0     C39783   0.206   1.723   7.839 -1.0533  0.4618  0.4770
  289MOL0     C39784   0.202   1.764   7.981 -0.0863  0.1033 -0.1096
  289MOL0     C39785   0.084   1.852   8.011  0.4920 -0.1901 -1.1498
  289MOL0     C39786  -0.052   1.787   7.987  0.7904 -0.0010  0.3804
  289MOL0     C39787  -0.170   1.868   8.050 -1.2407 -0.3276  0.7703
  289MOL0     C39788  -0.294   1.781   8.052  0.1447 -0.3974 -0.1252
  289MOL0    Cl39789  -0.371   1.786   7.891 -0.0929  0.4291 -0.3164
  289MOL0     C39790   0.626   1.761   7.702  0.5286 -0.8575  0.8526
  289MOL0     C39791   0.753   1.817   7.718  0.3068 -0.1998  0.3333
  289MOL0     O39792   1.108   1.624   7.795  0.0618 -0.3237  0.2273
  289MOL0     C39793   1.218   1.971   7.770  0.3970  0.6149 -0.0354
  289MOL0     C39794   1.327   2.056   7.797  0.4438 -0.6414 -0.6252
  289MOL0     N39795   1.831   2.682   8.110 -0.7759 -0.7214 -0.5450
  289MOL0     N39796   1.784   2.779   8.182 -0.1636  0.5584  0.1147
  289MOL0     C39797   0.693   2.629   8.090 -0.8475 -0.9579 -0.2995
  289MOL0     C39798   0.581   2.545   8.060 -0.1234 -1.0033  0.3709
  289MOL0     C39799   0.144   2.429   8.113  0.4565 -0.3390 -0.1580
  289MOL0     C39800   0.028   2.503   8.125 -0.5016 -0.1254  0.7729
  289MOL0     C39801  -0.094   2.441   8.121  0.7987 -0.0273  0.1157
  289MOL0     C39802  -0.113   2.302   8.123 -1.0425  1.3981 -0.2496
  289MOL0     O39803  -0.242   2.249   8.131  0.0565  0.2899  0.0417
  289MOL0     C39804  -0.344   2.329   8.178  0.6941 -0.0927  0.6597
  289MOL0     C39805  -0.429   2.408   8.072 -1.6854  0.9975 -0.7821
  289MOL0     C39806  -0.490   2.313   7.974  0.3661  0.7310  0.0222
  289MOL0     C39807  -0.578   2.381   7.872  0.1232 -0.2727 -0.3247
  289MOL0     C39808  -0.683   2.471   7.929  0.1639 -0.4703 -0.0153
  289MOL0     C39809  -0.784   2.527   7.977  0.4848 -0.5115  1.3187
  289MOL0     C39810  -0.002   2.222   8.129 -0.6728  0.0009 -0.1336
  289MOL0     C39811   0.126   2.287   8.129 -1.0611 -0.0728  0.4259
  289MOL0     C39812   0.250   2.194   8.129  0.5733  0.4289  0.2511
  289MOL0     H39813   0.460   2.500   8.371 -3.1894  2.2222 -2.1726
  289MOL0     H39814   0.646   2.659   8.429 -0.8089  1.5359 -0.6493
  289MOL0     H39815   0.886   2.674   8.430  0.5115  0.2836  0.3099
  289MOL0     H39816   0.836   2.846   8.435 -1.2567 -0.6437 -0.3939
  289MOL0     H39817   1.079   2.741   8.283  2.1242 -1.6283  2.6315
  289MOL0     H39818   1.044   2.916   8.304  1.3735  0.1946  0.7346
  289MOL0     H39819   1.069   2.902   8.540 -2.2720 -0.0824 -1.4672
  289MOL0     H39820   1.093   2.730   8.534 -2.3584 -0.5218 -3.0767
  289MOL0     H39821   1.297   2.752   8.384 -0.8752 -2.2308  2.1271
  289MOL0     H39822   1.286   2.930   8.405  1.3702 -0.0900  0.1541
  289MOL0     H39823   1.317   2.737   8.637  0.3582  2.3811  2.7639
  289MOL0     H39824   1.290   2.907   8.640  1.3779  0.3254  0.5171
  289MOL0     H39825   1.486   2.960   8.545  1.0970  0.3625  0.3273
  289MOL0     H39826   1.503   2.847   8.688 -2.3034  0.8253  0.1540
  289MOL0     H39827   1.522   2.668   8.490  3.4038 -1.6746 -1.1159
  289MOL0     H39828   1.666   2.756   8.544  0.0605 -2.1014 -0.6092
  289MOL0     H39829   1.503   2.820   8.294 -0.8534  0.1812  0.5513
  289MOL0     H39830   1.627   2.923   8.353 -0.1270  0.2051 -1.6495
  289MOL0     H39831   1.610   2.525   8.297 -1.8880  2.0024  0.7194
  289MOL0     H39832   1.789   2.371   8.182 -1.2592  3.6467  3.4893
  289MOL0     H39833   1.869   2.429   8.027 -0.4780 -2.0702 -1.8809
  289MOL0     H39834   1.574   2.422   8.063  0.4547  1.4920  0.2922
  289MOL0     H39835   1.657   2.462   7.909 -1.5952  0.5466  0.3257
  289MOL0     H39836   1.726   2.241   7.859  2.0384 -1.0395  0.8283
  289MOL0     H39837   1.726   2.205   8.032 -2.0944  0.4055  0.9652
  289MOL0     H39838   1.492   2.198   8.032  1.2200  2.4968  0.2658
  289MOL0     H39839   1.479   2.276   7.871  2.6084  2.3328  0.3676
  289MOL0     H39840   1.538   1.819   7.922 -0.2026 -1.8479 -1.9111
  289MOL0     H39841   1.362   1.570   7.822 -2.4322 -0.1685  0.7137
  289MOL0     H39842   1.295   1.597   7.971 -0.7372 -0.3747 -2.5349
  289MOL0     H39843   1.470   1.621   7.955 -0.6672 -1.4888  2.2885
  289MOL0     H39844   0.924   1.523   7.673  1.4263  2.2765 -1.1949
  289MOL0     H39845   0.710   1.443   7.669 -0.8970 -0.5247  0.4365
  289MOL0     H39846   0.357   1.733   7.629 -3.1717 -0.2919  0.8639
  289MOL0     H39847   0.279   1.579   7.635  1.2663 -0.0141 -1.1094
  289MOL0     H39848   0.356   1.564   7.877 -0.5078 -2.0402 -1.2057
  289MOL0     H39849   0.424   1.736   7.864 -0.9845  1.0140  0.4248
  289MOL0     H39850   0.133   1.654   7.796  2.0061 -2.6675 -0.2176
  289MOL0     H39851   0.189   1.815   7.783 -2.1901  0.1697  0.3246
  289MOL0     H39852   0.288   1.829   7.995 -0.8057  0.6473  2.2662
  289MOL0     H39853   0.196   1.687   8.059 -3.5071  2.2977  2.0596
  289MOL0     H39854   0.090   1.873   8.119 -1.1578 -1.0075 -0.8776
  289MOL0     H39855   0.090   1.944   7.953  0.3049 -0.5622 -1.7665
  289MOL0     H39856  -0.042   1.688   8.033  1.1619 -0.4400 -0.6254
  289MOL0     H39857  -0.079   1.770   7.883 -1.3004 -2.6582  1.2494
  289MOL0     H39858  -0.187   1.963   8.000 -3.5326 -0.7999  0.5679
  289MOL0     H39859  -0.140   1.891   8.153 -2.1537  1.0534  0.7512
  289MOL0     H39860  -0.357   1.831   8.126 -0.1128 -0.2394 -0.4466
  289MOL0     H39861  -0.278   1.679   8.088 -3.9624 -1.1483  0.0653
  289MOL0     H39862   0.544   1.831   7.701 -0.3263 -1.7997 -1.3593
  289MOL0     H39863   0.779   1.922   7.726  0.9797 -0.2674 -0.7608
  289MOL0     H39864   1.129   2.011   7.723 -0.2689 -0.2969  0.4259
  289MOL0     H39865   1.332   2.163   7.780  1.2409 -0.5875 -0.0954
  289MOL0     H39866   0.762   2.673   8.019  1.2215 -1.5229  1.2416
  289MOL0     H39867   0.541   2.524   7.962  1.2446  0.3711 -0.5334
  289MOL0     H39868   0.032   2.612   8.120 -1.8509 -0.1095 -1.6236
  289MOL0     H39869  -0.176   2.511   8.118  1.1549  0.3743 -1.8026
  289MOL0     H39870  -0.408   2.258   8.232 -0.7287 -2.7109 -3.9410
  289MOL0     H39871  -0.314   2.401   8.255  1.9229 -2.8065  2.8932
  289MOL0     H39872  -0.362   2.481   8.027  1.7514 -1.8229 -0.6999
  289MOL0     H39873  -0.506   2.460   8.130 -0.0496  1.2000  1.3430
  289MOL0     H39874  -0.410   2.261   7.920 -0.4798  0.4167 -0.9539
  289MOL0     H39875  -0.557   2.244   8.026 -0.6391  1.6290 -0.0480
  289MOL0     H39876  -0.634   2.307   7.815  0.6082 -0.8649 -0.0361
  289MOL0     H39877  -0.515   2.440   7.805  0.0878 -0.6422 -0.6830
  289MOL0     H39878  -0.875   2.577   8.003 -0.8811 -1.3228 -1.5164
  289MOL0     H39879  -0.020   2.115   8.120  1.2951 -0.7038  3.0968
  289MOL0     H39880   0.219   2.091   8.149 -1.6244  0.8999 -0.4529
  289MOL0     H39881   0.315   2.214   8.043 -0.2324  2.5012  0.0626
  289MOL0     H39882   0.321   2.220   8.207  1.3773 -0.4504 -0.1740
  290MOL0     O39883  11.143   4.073  10.596 -0.4505 -1.0123 -0.0188
  290MOL0     C39884  11.072   3.980  10.564  0.7460 -0.1220 -0.4989
  290MOL0     O39885  11.073   3.852  10.621  0.3121 -0.6001  0.0863
  290MOL0     C39886  11.171   3.836  10.710  0.3957  0.0678  0.0037
  290MOL0     C39887  11.169   3.891  10.841  0.1308 -0.3223  0.4222
  290MOL0     C39888  11.257   3.849  10.939 -0.8274 -0.1325 -0.7504
  290MOL0     C39889  11.357   3.761  10.907 -0.1336  1.4348  0.3954
  290MOL0     O39890  11.436   3.708  11.005  0.6239  0.0406 -0.5091
  290MOL0     C39891  11.581   3.691  10.970  0.7377  0.6040 -0.6000
  290MOL0     C39892  11.666   3.812  10.991 -0.1048  0.1098 -0.1419
  290MOL0     C39893  11.817   3.788  10.968  0.0592 -0.0449  0.2683
  290MOL0     C39894  11.902   3.913  10.992 -0.1259  0.0783  0.0983
  290MOL0     C39895  12.056   3.883  10.955 -0.2508  0.7232 -0.3076
  290MOL0     C39896  12.139   4.005  10.962  0.1324  0.2690  1.0165
  290MOL0     C39897  12.285   3.972  10.927 -1.1107  0.8606  0.6815
  290MOL0     C39898  12.369   4.105  10.905 -0.5915  0.2174 -0.7075
  290MOL0     N39899  12.494   4.083  10.823 -0.3926  0.0879  1.3385
  290MOL0     C39900  12.598   3.998  10.851  0.2449  0.5021  0.3095
  290MOL0     C39901  12.678   4.014  10.741 -0.7152  0.4181 -0.6153
  290MOL0     C39902  12.799   3.935  10.721 -0.4357 -0.5454  0.1197
  290MOL0     C39903  12.761   3.795  10.663 -0.1661  0.0865  0.1471
  290MOL0     C39904  12.868   3.726  10.585 -0.0319  0.8150  0.5305
  290MOL0     C39905  12.977   3.683  10.688  0.0874 -0.6784 -0.5414
  290MOL0     O39906  13.074   3.607  10.608 -0.2634  0.6946 -0.0086
  290MOL0     C39907  13.193   3.572  10.666  0.2662 -0.4015  0.4271
  290MOL0     C39908  13.287   3.491  10.597  0.8322 -0.0756 -0.7871
  290MOL0     C39909  13.410   3.452  10.650 -0.7871  0.3750  0.3104
  290MOL0     C39910  13.499   3.370  10.560 -0.5621  0.9999 -0.2558
  290MOL0     C39911  13.454   3.495  10.781 -0.9475  0.5401  0.6378
  290MOL0     C39912  13.583   3.460  10.855 -1.0040  0.0217  0.7112
  290MOL0     O39913  13.675   3.374  10.795  0.0071 -0.5512 -0.0898
  290MOL0     C39914  13.800   3.359  10.856 -0.6887 -1.1272  0.6361
  290MOL0     C39915  13.843   3.247  10.911 -0.3479 -0.3205 -0.3501
  290MOL0     C39916  13.969   3.226  10.974 -1.0624  0.4972  0.5997
  290MOL0     C39917  14.056   3.328  10.978 -0.4850  0.2169 -0.0454
  290MOL0     O39918  14.168   3.317  11.058 -0.2466  0.8429  0.3776
  290MOL0     C39919  14.158   3.254  11.189 -0.5087 -0.0657  0.1675
  290MOL0     C39920  14.108   3.347  11.293 -0.3322  0.3836 -0.5031
  290MOL0     C39921  13.965   3.385  11.263  0.7580 -0.3084 -0.3505
  290MOL0     C39922  13.912   3.454  11.387  0.3444  0.0439 -1.2584
  290MOL0     C39923  13.762   3.494  11.381  0.5085 -0.3666 -0.0653
  290MOL0     C39924  13.670   3.381  11.332 -0.0313  0.4683  0.0379
  290MOL0     C39925  13.530   3.414  11.366  0.4175 -0.6420  0.5461
  290MOL0     C39926  13.422   3.334  11.295  0.2495 -0.2963 -0.2156
  290MOL0    Cl39927  13.250   3.372  11.350  0.1317 -0.3402  0.0701
  290MOL0     C39928  14.027   3.452  10.919  0.6077 -0.5132  0.5011
  290MOL0     C39929  13.897   3.471  10.867  0.3457  0.1385 -0.4396
  290MOL0     O39930  13.599   3.517  10.964 -0.0626 -0.2838  0.1100
  290MOL0     C39931  13.360   3.586  10.845  0.1593 -0.2151 -0.3650
  290MOL0     C39932  13.237   3.611  10.792 -0.2809  0.0371  0.4876
  290MOL0     N39933  12.624   4.113  10.657  0.2597  0.4818  0.2282
  290MOL0     N39934  12.516   4.153  10.706  0.3052  0.1582 -0.4435
  290MOL0     C39935  11.368   3.708  10.778  0.6760  0.2796  0.0733
  290MOL0     C39936  11.269   3.739  10.679 -0.4677  0.0307 -0.8723
  290MOL0     C39937  10.956   4.019  10.486 -0.7304  0.0182 -1.2510
  290MOL0     C39938  10.924   3.959  10.361  0.3354 -0.0761 -0.7047
  290MOL0     C39939  10.804   4.004  10.295 -0.6768  0.5914 -0.2439
  290MOL0     C39940  10.715   4.091  10.359 -0.4351  0.3397 -0.5456
  290MOL0     O39941  10.593   4.115  10.304  0.0407  0.2048  0.3332
  290MOL0     C39942  10.534   4.044  10.194 -0.0703 -0.0571  0.5794
  290MOL0     C39943  10.420   4.125  10.139  0.0627 -0.6677 -0.5192
  290MOL0     C39944  10.313   4.177  10.242 -0.2686  0.4053  0.3674
  290MOL0     C39945  10.179   4.193  10.173 -0.4093  0.1907 -0.4841
  290MOL0     C39946  10.180   4.290  10.070 -0.6169 -0.5588 -0.8425
  290MOL0     C39947  10.167   4.356   9.967  0.0647 -0.4197 -0.6207
  290MOL0     C39948  10.749   4.149  10.485 -0.5791 -0.1034 -0.0211
  290MOL0     C39949  10.868   4.111  10.548  0.1412  0.6052 -0.1050
  290MOL0     C39950  10.885   4.175  10.682 -0.3616 -0.4085  0.4200
  290MOL0     H39951  11.097   3.967  10.869 -1.2068 -2.0466  1.8811
  290MOL0     H39952  11.240   3.890  11.038  1.5724 -0.1743 -0.2720
  290MOL0     H39953  11.599   3.649  10.871  3.3772  1.1754 -0.4455
  290MOL0     H39954  11.612   3.609  11.034 -0.8043 -0.4849 -1.1938
  290MOL0     H39955  11.635   3.896  10.929 -2.7662  0.0726  1.0319
  290MOL0     H39956  11.660   3.854  11.091 -0.7482  2.0009 -0.9372
  290MOL0     H39957  11.850   3.714  11.042 -0.3164 -0.0520  0.4314
  290MOL0     H39958  11.831   3.743  10.869 -0.3411 -1.6823  0.9198
  290MOL0     H39959  11.868   4.002  10.938  2.4818  0.8385 -0.4336
  290MOL0     H39960  11.894   3.929  11.100 -0.4926  2.6300 -0.2523
  290MOL0     H39961  12.058   3.847  10.851 -0.1054 -0.6244  0.1453
  290MOL0     H39962  12.091   3.802  11.020 -1.7292 -0.1093 -0.4954
  290MOL0     H39963  12.094   4.086  10.903  2.1134 -1.1271 -2.7276
  290MOL0     H39964  12.143   4.041  11.066  3.3057  3.8280 -0.0951
  290MOL0     H39965  12.290   3.914  10.834 -0.9102 -0.1166  1.2975
  290MOL0     H39966  12.333   3.917  11.008  1.4809  3.1896  0.8809
  290MOL0     H39967  12.304   4.183  10.866 -1.6195  1.4159  2.9415
  290MOL0     H39968  12.405   4.141  11.002  0.4095  1.1302 -1.3928
  290MOL0     H39969  12.607   3.922  10.928 -0.4804  1.3246  1.2237
  290MOL0     H39970  12.852   3.935  10.817 -4.5773  1.4718  2.7153
  290MOL0     H39971  12.865   3.979  10.646  2.3506  1.9486  3.7147
  290MOL0     H39972  12.723   3.727  10.740  0.4624 -1.4426 -0.8430
  290MOL0     H39973  12.680   3.806  10.591 -1.1226 -5.2198 -0.0071
  290MOL0     H39974  12.832   3.636  10.534  5.5163 -1.0445 -0.8099
  290MOL0     H39975  12.909   3.787  10.504  1.0615 -1.1343 -0.4617
  290MOL0     H39976  13.018   3.782  10.708 -0.3281  0.2360 -3.6833
  290MOL0     H39977  12.928   3.647  10.779  0.9023 -1.1121 -0.2694
  290MOL0     H39978  13.269   3.451  10.497 -0.2945  1.3341 -1.1785
  290MOL0     H39979  13.600   3.413  10.552  0.0323 -0.0852  1.0786
  290MOL0     H39980  13.450   3.358  10.463  1.4490  4.1085 -1.8449
  290MOL0     H39981  13.515   3.269  10.599  0.4378  1.6249  1.0575
  290MOL0     H39982  13.768   3.168  10.910 -0.8849  0.0164  2.6465
  290MOL0     H39983  13.985   3.131  11.025  0.9030 -0.0278 -0.8624
  290MOL0     H39984  14.106   3.158  11.192  2.2721 -1.7011 -0.7771
  290MOL0     H39985  14.258   3.219  11.217 -0.0814  0.5357 -0.5761
  290MOL0     H39986  14.115   3.297  11.390  1.0449 -0.3264 -0.9446
  290MOL0     H39987  14.180   3.429  11.288  0.5612 -0.3991 -0.6720
  290MOL0     H39988  13.905   3.295  11.247 -1.4101  0.8758  0.6363
  290MOL0     H39989  13.956   3.455  11.179 -1.8533 -1.7262 -1.3716
  290MOL0     H39990  13.967   3.548  11.397  2.9878 -1.3930 -1.5146
  290MOL0     H39991  13.934   3.388  11.472  3.2291  1.8495 -0.4600
  290MOL0     H39992  13.733   3.528  11.481  1.1752  0.0781 -0.0208
  290MOL0     H39993  13.744   3.584  11.320  0.1010 -1.0084 -0.9193
  290MOL0     H39994  13.706   3.292  11.385  1.7992  0.8603 -0.4690
  290MOL0     H39995  13.686   3.363  11.226 -1.4890 -1.1965  0.0628
  290MOL0     H39996  13.516   3.519  11.339  1.5061 -0.7981 -0.7499
  290MOL0     H39997  13.518   3.418  11.475 -1.8631  0.9319  0.3081
  290MOL0     H39998  13.440   3.227  11.309  0.8389 -0.1259  0.3696
  290MOL0     H39999  13.428   3.345  11.186  0.2047 -1.7121 -0.3835
  290MOL0     H40000  14.087   3.542  10.918 -0.8694  0.5230 -0.8472
  290MOL0     H40001  13.879   3.566  10.816  1.6192  0.0805 -1.0554
  290MOL0     H40002  13.379   3.634  10.941 -0.8860  1.6575 -1.0353
  290MOL0     H40003  13.166   3.663  10.856  1.0869  0.8576  1.3745
  290MOL0     H40004  11.431   3.627  10.743 -0.5112 -1.0919  0.9771
  290MOL0     H40005  11.279   3.686  10.585  0.0009 -1.1195 -0.1956
  290MOL0     H40006  10.997   3.895  10.314  1.6151  2.4915 -2.4771
  290MOL0     H40007  10.779   3.969  10.195  0.7428  1.2440 -0.8504
  290MOL0     H40008  10.600   4.047  10.108 -0.6014 -0.6566  0.1403
  290MOL0     H40009  10.504   3.943  10.221  0.0105  0.4839  2.9164
  290MOL0     H40010  10.370   4.049  10.079 -1.4345  0.6538 -1.0305
  290MOL0     H40011  10.457   4.212  10.084 -0.4718 -0.4933 -0.6025
  290MOL0     H40012  10.301   4.096  10.313  4.0999  0.2654  1.2050
  290MOL0     H40013  10.338   4.273  10.289 -0.1438  1.4092 -1.6288
  290MOL0     H40014  10.102   4.210  10.248 -0.4207 -0.4273 -0.3547
  290MOL0     H40015  10.150   4.101  10.121 -1.0322 -1.0628  1.9494
  290MOL0     H40016  10.157   4.414   9.877 -0.3453  2.3361  1.0765
  290MOL0     H40017  10.686   4.227  10.527  1.2558  2.0034 -0.9922
  290MOL0     H40018  10.919   4.100  10.755 -1.8278 -3.6989 -2.0282
  290MOL0     H40019  10.952   4.260  10.669  0.0866 -0.5787  1.5220
  290MOL0     H40020  10.802   4.238  10.715 -0.5563 -0.7082  0.4997
  291MOL0     O40021   0.548   4.429   2.222  0.0482 -0.0996 -0.2273
  291MOL0     C40022   0.472   4.455   2.318  0.2861 -0.5113  0.4073
  291MOL0     O40023   0.493   4.555   2.413 -1.0087  0.7581  0.8519
  291MOL0     C40024   0.613   4.602   2.433 -0.2529  0.9683  0.0368
  291MOL0     C40025   0.632   4.626   2.569  0.4134 -0.2076  0.1441
  291MOL0     C40026   0.749   4.687   2.614 -0.3513 -0.4681  0.6507
  291MOL0     C40027   0.848   4.735   2.532 -0.2005 -1.1950 -0.5458
  291MOL0     O40028   0.962   4.802   2.572 -0.9804  0.5164  0.8824
  291MOL0     C40029   1.008   4.799   2.706 -0.0187 -0.4358  0.0698
  291MOL0     C40030   1.161   4.785   2.726  0.1725  0.2690  0.3579
  291MOL0     C40031   1.239   4.910   2.708 -0.1357  0.1675  0.5120
  291MOL0     C40032   1.392   4.884   2.700 -0.3171 -0.2302  1.0128
  291MOL0     C40033   1.472   5.009   2.649 -0.6675  0.3986 -0.1592
  291MOL0     C40034   1.448   5.138   2.726  0.1176  1.1269  0.6718
  291MOL0     C40035   1.526   5.253   2.667  0.1128 -0.9105 -0.1838
  291MOL0     C40036   1.682   5.249   2.696  0.4854  0.9739  0.7255
  291MOL0     N40037   1.741   5.373   2.686 -0.0910 -1.0932  0.0130
  291MOL0     C40038   1.863   5.408   2.752  0.2596 -0.2519  0.8849
  291MOL0     C40039   1.896   5.529   2.711  0.1675 -0.0953 -0.0967
  291MOL0     C40040   2.021   5.608   2.736 -0.1829  0.0207  0.4743
  291MOL0     C40041   1.998   5.741   2.802 -0.7178  0.6130  0.8215
  291MOL0     C40042   1.957   5.730   2.947  0.2422  0.5063 -0.0729
  291MOL0     C40043   2.070   5.758   3.050 -0.0477  0.0092 -0.4559
  291MOL0     O40044   2.189   5.687   3.023  0.1302 -0.6284  0.2079
  291MOL0     C40045   2.306   5.711   3.088  1.4006  0.2120 -0.8472
  291MOL0     C40046   2.344   5.826   3.157 -0.8518  0.5905  0.3568
  291MOL0     C40047   2.465   5.844   3.216  0.1813  0.3725 -0.4150
  291MOL0     C40048   2.480   5.965   3.292 -0.3093 -0.6711 -0.9591
  291MOL0     C40049   2.549   5.738   3.218 -0.0752 -0.0542  0.5427
  291MOL0     C40050   2.674   5.740   3.286  0.8454  0.2884 -0.4318
  291MOL0     O40051   2.769   5.833   3.257 -0.2882 -0.1443  0.7623
  291MOL0     C40052   2.889   5.834   3.320 -0.4909  0.3481  0.0275
  291MOL0     C40053   2.936   5.783   3.441  0.0273 -0.3176 -0.6429
  291MOL0     C40054   3.066   5.802   3.498  0.7817  0.5415  0.1739
  291MOL0     C40055   3.165   5.855   3.420  0.9879 -0.2806 -0.0878
  291MOL0     O40056   3.299   5.856   3.442  0.2754 -0.2139 -0.5966
  291MOL0     C40057   3.359   5.888   3.569  0.3384  0.1672 -0.5150
  291MOL0     C40058   3.311   6.021   3.620 -0.0507 -0.2218 -0.2965
  291MOL0     C40059   3.342   6.142   3.528  0.4268  0.0474  0.3596
  291MOL0     C40060   3.318   6.280   3.596 -0.5865  0.4883 -0.3445
  291MOL0     C40061   3.392   6.398   3.510  0.3161 -0.1904 -0.2057
  291MOL0     C40062   3.387   6.532   3.582 -0.6976  0.2884 -0.2321
  291MOL0     C40063   3.421   6.642   3.486 -0.2818 -1.2043 -0.2874
  291MOL0     C40064   3.416   6.783   3.563  0.0561  0.1508  0.2807
  291MOL0    Cl40065   3.255   6.838   3.600  0.3627 -0.0780  0.0245
  291MOL0     C40066   3.134   5.904   3.290 -0.3318 -0.3889  1.0398
  291MOL0     C40067   3.003   5.883   3.248  0.6953  0.5616  1.0730
  291MOL0     O40068   2.675   5.663   3.380 -0.0511  0.5950 -0.8796
  291MOL0     C40069   2.524   5.623   3.139  1.4922 -0.6915 -0.0679
  291MOL0     C40070   2.400   5.605   3.089  0.6867 -0.0332  0.7203
  291MOL0     N40071   1.805   5.569   2.607  0.4850 -1.0723 -0.3963
  291MOL0     N40072   1.712   5.479   2.599  0.0749  0.2309 -0.5033
  291MOL0     C40073   0.831   4.703   2.397 -0.2669 -0.2732  0.4541
  291MOL0     C40074   0.717   4.642   2.346  0.1804  0.1869  0.3753
  291MOL0     C40075   0.337   4.407   2.313 -0.0593  0.2978  0.3648
  291MOL0     C40076   0.290   4.369   2.438  0.4081  0.4059 -0.1826
  291MOL0     C40077   0.176   4.295   2.442  0.2781  1.0110 -0.7837
  291MOL0     C40078   0.102   4.257   2.334  0.3459  0.1176 -0.3084
  291MOL0     O40079  -0.022   4.194   2.355 -0.0019  0.0650 -0.4547
  291MOL0     C40080  -0.104   4.159   2.246 -1.0556  0.1059  0.5084
  291MOL0     C40081  -0.233   4.099   2.289  0.3434  0.1427 -0.3784
  291MOL0     C40082  -0.223   3.993   2.397  0.3208 -0.5973 -0.2707
  291MOL0     C40083  -0.119   3.892   2.363  0.1122 -0.6097  0.0555
  291MOL0     C40084  -0.155   3.762   2.415  0.5274 -0.6146 -0.8181
  291MOL0     C40085  -0.183   3.660   2.468  0.6962  0.3398  0.0099
  291MOL0     C40086   0.151   4.291   2.205  0.1727 -0.3374  0.4849
  291MOL0     C40087   0.267   4.369   2.189  0.4951  0.1026  0.2013
  291MOL0     C40088   0.312   4.403   2.050 -0.4759  0.7987 -0.3354
  291MOL0     H40089   0.558   4.593   2.642 -0.5767 -1.2625 -1.2729
  291MOL0     H40090   0.755   4.697   2.722 -1.1327  1.0671  0.5778
  291MOL0     H40091   0.967   4.714   2.762  0.9538  0.3953  2.1255
  291MOL0     H40092   0.971   4.882   2.767 -2.2878 -1.5915  0.3556
  291MOL0     H40093   1.161   4.749   2.830 -1.9643 -1.6374 -0.2317
  291MOL0     H40094   1.210   4.705   2.671  3.1792  0.6413  2.2386
  291MOL0     H40095   1.211   4.941   2.607 -0.7186  1.7492  1.1070
  291MOL0     H40096   1.215   4.990   2.780 -0.1556 -1.7069  2.6844
  291MOL0     H40097   1.428   4.846   2.797 -1.5543 -2.6535  0.5926
  291MOL0     H40098   1.411   4.804   2.628 -1.8068  0.8332 -0.6246
  291MOL0     H40099   1.455   5.031   2.543 -0.5866  0.4565 -0.1604
  291MOL0     H40100   1.579   4.988   2.660 -0.3592  1.1417 -1.4838
  291MOL0     H40101   1.346   5.177   2.724 -0.8164 -1.1477 -0.3108
  291MOL0     H40102   1.472   5.130   2.832 -3.8866  0.8072  1.7361
  291MOL0     H40103   1.487   5.340   2.721  0.9485 -2.8425  3.8951
  291MOL0     H40104   1.517   5.263   2.559 -1.4636 -1.3092 -0.1154
  291MOL0     H40105   1.710   5.194   2.786  1.0092 -0.4578 -0.2672
  291MOL0     H40106   1.711   5.193   2.606 -0.6857  1.0844  0.2585
  291MOL0     H40107   1.918   5.353   2.828  3.4810 -0.2102 -1.2261
  291MOL0     H40108   2.075   5.623   2.642 -0.5333  0.3646  0.3257
  291MOL0     H40109   2.083   5.550   2.806 -0.2469  0.6426  1.0550
  291MOL0     H40110   2.087   5.805   2.805 -0.9448  1.0164 -0.3535
  291MOL0     H40111   1.924   5.797   2.745 -0.9110  1.4028  1.8203
  291MOL0     H40112   1.886   5.809   2.969  2.5710  3.2378 -1.6978
  291MOL0     H40113   1.907   5.634   2.966  1.3398 -0.4021 -1.5273
  291MOL0     H40114   2.096   5.865   3.056  0.5041 -0.0922 -0.9341
  291MOL0     H40115   2.023   5.737   3.147  1.4931  0.7717  0.5073
  291MOL0     H40116   2.277   5.911   3.160 -0.1162  1.1533  1.0411
  291MOL0     H40117   2.579   6.010   3.282 -0.3348  0.3422  2.2297
  291MOL0     H40118   2.465   5.925   3.393 -0.7387 -2.0539 -1.5318
  291MOL0     H40119   2.404   6.043   3.290  2.0065  1.9514  2.3621
  291MOL0     H40120   2.864   5.736   3.507  1.7074 -0.0777  1.4778
  291MOL0     H40121   3.089   5.758   3.594 -0.0355 -1.3731 -0.4653
  291MOL0     H40122   3.344   5.798   3.629  0.1536  0.5633  0.0450
  291MOL0     H40123   3.466   5.903   3.559  0.7210 -2.2641 -0.6155
  291MOL0     H40124   3.202   6.009   3.624  0.1372 -1.9955  0.7716
  291MOL0     H40125   3.357   6.032   3.718 -0.9750  0.5018  0.0734
  291MOL0     H40126   3.272   6.124   3.447  0.2088  1.1016  0.3003
  291MOL0     H40127   3.447   6.139   3.495  0.5254 -0.5356  0.7291
  291MOL0     H40128   3.357   6.279   3.699 -1.6342 -1.0111  0.0785
  291MOL0     H40129   3.209   6.286   3.604 -0.4126  1.0010  3.0518
  291MOL0     H40130   3.496   6.367   3.494  0.2629  0.0061 -0.9230
  291MOL0     H40131   3.336   6.409   3.417  0.8598  0.6648 -0.4368
  291MOL0     H40132   3.460   6.527   3.662 -0.8307 -1.1258 -0.1778
  291MOL0     H40133   3.290   6.542   3.631 -0.8003 -1.5049 -0.0272
  291MOL0     H40134   3.356   6.637   3.399 -0.7154  0.1328 -0.0667
  291MOL0     H40135   3.526   6.622   3.461 -0.0718 -1.0367  0.4379
  291MOL0     H40136   3.465   6.858   3.502  4.2879 -1.5122  1.2813
  291MOL0     H40137   3.469   6.764   3.657  0.1821 -0.3921  0.1050
  291MOL0     H40138   3.210   5.955   3.231 -1.8260 -0.2913 -0.9154
  291MOL0     H40139   2.963   5.905   3.149  0.6230  2.3125  1.4557
  291MOL0     H40140   2.601   5.549   3.123  0.4496 -1.5830 -1.1370
  291MOL0     H40141   2.380   5.513   3.034  1.1491  0.9336 -1.1250
  291MOL0     H40142   0.902   4.757   2.335 -2.6327  1.6846 -0.6925
  291MOL0     H40143   0.708   4.623   2.239  0.0825  1.5052  0.1226
  291MOL0     H40144   0.342   4.402   2.528  0.7552 -0.8795  0.0983
  291MOL0     H40145   0.127   4.268   2.535 -0.1195 -2.3561 -1.8327
  291MOL0     H40146  -0.119   4.248   2.185  2.0931  1.1995  1.1368
  291MOL0     H40147  -0.043   4.090   2.187  0.3714 -0.7338  2.7960
  291MOL0     H40148  -0.276   4.061   2.196 -0.0256  2.1107 -1.0664
  291MOL0     H40149  -0.295   4.178   2.334  2.2149  0.8184  1.1496
  291MOL0     H40150  -0.200   4.032   2.496  1.5581 -1.9143 -0.0136
  291MOL0     H40151  -0.323   3.950   2.398  0.0245 -0.2789 -3.5927
  291MOL0     H40152  -0.018   3.922   2.393  0.7806 -2.4767 -0.2092
  291MOL0     H40153  -0.110   3.888   2.254  2.0181 -1.5337  0.1980
  291MOL0     H40154  -0.213   3.567   2.514 -1.6553  0.5678 -0.9567
  291MOL0     H40155   0.089   4.275   2.117 -4.4703  0.8137  3.2169
  291MOL0     H40156   0.389   4.337   2.010 -2.3073  0.2318 -3.2291
  291MOL0     H40157   0.230   4.395   1.978  2.0058  0.3130 -3.3271
  291MOL0     H40158   0.358   4.502   2.043  0.0140  0.6279  0.3409
  292MOL0     O40159   7.600   9.200  10.782 -0.1963  0.7992  0.0099
  292MOL0     C40160   7.656   9.102  10.829  0.0543 -0.5271 -0.0280
  292MOL0     O40161   7.779   9.098  10.881  0.2549 -0.0118  0.7653
  292MOL0     C40162   7.855   9.211  10.902  0.2405 -1.0068 -0.0220
  292MOL0     C40163   7.802   9.342  10.932  0.6821 -0.6129  0.0823
  292MOL0     C40164   7.875   9.456  10.938 -0.1287  0.1125  0.0363
  292MOL0     C40165   8.011   9.450  10.919  0.2156 -0.4580  0.5769
  292MOL0     O40166   8.072   9.572  10.909 -0.1584  0.2009  0.2102
  292MOL0     C40167   8.183   9.601  10.994  0.7251  0.3055 -0.6965
  292MOL0     C40168   8.231   9.731  10.938  0.4093  0.2113 -0.5898
  292MOL0     C40169   8.312   9.700  10.818 -0.9008 -0.1659 -0.3139
  292MOL0     C40170   8.375   9.818  10.747 -0.3189 -0.2504 -0.3160
  292MOL0     C40171   8.463   9.778  10.629  0.5551 -0.0603 -0.2021
  292MOL0     C40172   8.393   9.677  10.532 -0.3524 -0.5727  0.2783
  292MOL0     C40173   8.268   9.735  10.452  0.1737  0.4004  0.1804
  292MOL0     C40174   8.216   9.632  10.343  0.1192 -0.2355 -0.3945
  292MOL0     N40175   8.151   9.713  10.241 -0.4621  0.1900 -0.1062
  292MOL0     C40176   8.012   9.724  10.234 -0.1035  0.7916  0.3776
  292MOL0     C40177   7.988   9.809  10.135 -0.9428  0.0753  0.3046
  292MOL0     C40178   7.846   9.860  10.080 -0.1014  0.1667  0.8681
  292MOL0     C40179   7.722   9.772  10.122 -0.8700  0.2667  0.3956
  292MOL0     C40180   7.738   9.624  10.079  0.1365 -0.3055  0.2128
  292MOL0     C40181   7.604   9.553  10.122 -0.6403  0.0632 -0.1199
  292MOL0     O40182   7.623   9.407  10.115 -0.3705 -0.3038 -0.0804
  292MOL0     C40183   7.626   9.351   9.995 -0.8974  0.8172  0.6757
  292MOL0     C40184   7.748   9.326   9.931 -0.0570  0.1412  0.4558
  292MOL0     C40185   7.747   9.255   9.804 -0.4736  0.1567 -0.4465
  292MOL0     C40186   7.881   9.203   9.763 -0.9138 -0.0029  0.5914
  292MOL0     C40187   7.624   9.236   9.733 -0.0115  0.0185  0.1220
  292MOL0     C40188   7.604   9.164   9.595 -0.9646 -0.4232  0.4717
  292MOL0     O40189   7.506   9.065   9.583  0.3443  0.3989  0.2711
  292MOL0     C40190   7.495   9.003   9.461 -0.4993  0.8686  0.2075
  292MOL0     C40191   7.536   8.870   9.444  0.7083  0.1039  0.4150
  292MOL0     C40192   7.516   8.798   9.321 -0.5958 -0.3135 -0.0057
  292MOL0     C40193   7.468   8.866   9.208  0.0439 -0.1428  0.5674
  292MOL0     O40194   7.453   8.800   9.089 -0.9031 -0.1125 -0.1510
  292MOL0     C40195   7.546   8.693   9.052  0.3827  0.3696 -0.6882
  292MOL0     C40196   7.475   8.562   9.088 -0.0552 -0.3606 -0.1202
  292MOL0     C40197   7.355   8.514   8.992 -0.5425  0.3324 -0.6921
  292MOL0     C40198   7.298   8.387   9.044  0.4087  0.2818  0.0662
  292MOL0     C40199   7.210   8.315   8.937  0.0362  0.3907 -0.4912
  292MOL0     C40200   7.150   8.180   8.993 -0.0763  0.2824  0.6103
  292MOL0     C40201   7.074   8.106   8.881  0.3161 -0.1254  1.0664
  292MOL0     C40202   6.921   8.122   8.884 -0.0820  0.9565 -0.1178
  292MOL0    Cl40203   6.849   8.051   8.732 -0.2406  0.1165 -0.0290
  292MOL0     C40204   7.435   9.001   9.227 -0.1793  0.6121 -0.2216
  292MOL0     C40205   7.451   9.068   9.349 -0.7570 -0.0935  1.8391
  292MOL0     O40206   7.699   9.179   9.512 -0.2288  0.8751 -0.3440
  292MOL0     C40207   7.510   9.279   9.793  0.5387 -0.5553 -0.0619
  292MOL0     C40208   7.506   9.338   9.920  0.3241 -0.3426 -0.2545
  292MOL0     N40209   8.109   9.850  10.082  0.5655  0.5433 -0.6887
  292MOL0     N40210   8.208   9.793  10.149 -0.1279 -0.4884  0.0123
  292MOL0     C40211   8.074   9.323  10.897  0.5122 -0.6355  0.0538
  292MOL0     C40212   7.994   9.211  10.898 -0.9265  0.0789 -0.4953
  292MOL0     C40213   7.582   8.980  10.856  0.3000  1.2892  0.5961
  292MOL0     C40214   7.657   8.869  10.914 -0.3348 -0.5063 -0.2773
  292MOL0     C40215   7.579   8.754  10.950 -0.2299 -0.3235  0.1862
  292MOL0     C40216   7.439   8.747  10.936  0.8497 -0.0385  0.0128
  292MOL0     O40217   7.374   8.636  10.974  0.5448 -0.2134 -0.3373
  292MOL0     C40218   7.265   8.651  11.058  0.5528  0.5546 -0.2655
  292MOL0     C40219   7.241   8.508  11.127 -1.0631 -0.5812 -0.1010
  292MOL0     C40220   7.359   8.482  11.229  0.3538 -0.1930  0.5035
  292MOL0     C40221   7.365   8.359  11.308 -0.2914 -0.6041 -0.4960
  292MOL0     C40222   7.353   8.245  11.222 -0.3463 -0.8302  0.3157
  292MOL0     C40223   7.334   8.138  11.164  0.1463 -0.3926  0.2433
  292MOL0     C40224   7.372   8.856  10.881 -0.5121 -0.2208 -0.4306
  292MOL0     C40225   7.440   8.972  10.846 -0.8199  0.3150 -0.5939
  292MOL0     C40226   7.346   9.083  10.801  0.2501 -0.7509 -0.0203
  292MOL0     H40227   7.700   9.341  10.967  0.9877  1.6897  1.2644
  292MOL0     H40228   7.827   9.549  10.965  1.1333  1.1641 -1.1686
  292MOL0     H40229   8.260   9.524  11.006 -0.8506 -1.1490  0.6591
  292MOL0     H40230   8.132   9.613  11.090 -1.2590  0.5937 -1.7355
  292MOL0     H40231   8.152   9.798  10.904  0.9446  1.3182  0.2590
  292MOL0     H40232   8.302   9.777  11.009  0.7076  0.5359 -1.0928
  292MOL0     H40233   8.390   9.630  10.848 -1.8029 -1.1035 -0.1128
  292MOL0     H40234   8.252   9.641  10.748  0.7038 -2.5510  0.2235
  292MOL0     H40235   8.291   9.885  10.725  0.1745  1.8423  3.4831
  292MOL0     H40236   8.434   9.870  10.822 -0.4582  2.0123 -1.6848
  292MOL0     H40237   8.553   9.731  10.670  1.1380 -0.8967 -2.2986
  292MOL0     H40238   8.490   9.864  10.567 -1.5213 -1.5614 -3.4538
  292MOL0     H40239   8.468   9.650  10.456 -1.2550 -1.1266 -0.4422
  292MOL0     H40240   8.372   9.582  10.582  5.4804 -1.1210  2.5586
  292MOL0     H40241   8.289   9.823  10.390 -2.2871  2.2978  1.8477
  292MOL0     H40242   8.187   9.770  10.515 -1.4070  0.0950 -1.5856
  292MOL0     H40243   8.303   9.588  10.295 -0.6567 -0.1779 -1.9211
  292MOL0     H40244   8.145   9.558  10.380  1.1302  0.9819  4.8269
  292MOL0     H40245   7.938   9.683  10.302 -1.4564  3.5578  0.6917
  292MOL0     H40246   7.862   9.861   9.972 -0.6437  0.8897  0.7888
  292MOL0     H40247   7.821   9.960  10.116  1.4453  2.0514 -2.8226
  292MOL0     H40248   7.714   9.768  10.231  0.6364  1.3654  0.5834
  292MOL0     H40249   7.630   9.813  10.078 -0.5600  1.3058  0.6858
  292MOL0     H40250   7.746   9.609   9.971  2.0254  1.8572 -0.0100
  292MOL0     H40251   7.822   9.577  10.131  2.7010  1.1874 -2.3020
  292MOL0     H40252   7.566   9.580  10.221  0.9069  0.9199  0.2605
  292MOL0     H40253   7.522   9.585  10.057 -0.1976 -1.5657 -1.5571
  292MOL0     H40254   7.844   9.339   9.980  1.8182 -1.8603 -2.3824
  292MOL0     H40255   7.950   9.184   9.845  1.9355  0.7871 -1.4738
  292MOL0     H40256   7.922   9.286   9.704 -2.9018 -0.0898 -1.0275
  292MOL0     H40257   7.876   9.117   9.696  0.5488  1.1726 -1.1293
  292MOL0     H40258   7.580   8.830   9.535 -2.1560 -2.2925  0.9148
  292MOL0     H40259   7.550   8.695   9.313 -1.1992 -0.5594  0.4940
  292MOL0     H40260   7.563   8.693   8.944 -3.0198  1.9111 -1.3698
  292MOL0     H40261   7.640   8.718   9.102  0.8006  2.0675 -2.2389
  292MOL0     H40262   7.553   8.485   9.083  2.2881  1.9385 -1.8985
  292MOL0     H40263   7.430   8.570   9.188 -0.4122 -0.3233 -0.2838
  292MOL0     H40264   7.401   8.487   8.897  1.3764  0.4442  0.1738
  292MOL0     H40265   7.279   8.592   8.980  0.1092  0.8753 -1.3653
  292MOL0     H40266   7.241   8.409   9.135  0.4511 -0.6904  0.3469
  292MOL0     H40267   7.384   8.323   9.067 -0.2122 -0.6064 -0.0134
  292MOL0     H40268   7.130   8.376   8.895  0.9737  1.0895 -1.3210
  292MOL0     H40269   7.278   8.293   8.854 -1.5631  2.1501 -2.3656
  292MOL0     H40270   7.078   8.212   9.070  1.0747  0.6204  1.5738
  292MOL0     H40271   7.224   8.117   9.041 -0.4755  0.1835  1.1040
  292MOL0     H40272   7.113   8.004   8.888  0.5094 -0.0440  1.1851
  292MOL0     H40273   7.107   8.150   8.786  1.7387 -2.6066  0.3165
  292MOL0     H40274   6.899   8.228   8.898 -2.5637  0.4031  0.8455
  292MOL0     H40275   6.883   8.062   8.968 -2.8980  0.0378 -1.9018
  292MOL0     H40276   7.405   9.050   9.135 -0.3076 -2.0397 -1.6910
  292MOL0     H40277   7.426   9.172   9.333  3.8398  1.1230  1.1059
  292MOL0     H40278   7.413   9.246   9.757 -1.8935  2.9923  2.6381
  292MOL0     H40279   7.412   9.374   9.960  0.1601 -1.5929  0.5415
  292MOL0     H40280   8.181   9.327  10.879  0.3789 -2.3777 -1.4823
  292MOL0     H40281   8.034   9.111  10.888 -0.8704 -0.2713  2.2534
  292MOL0     H40282   7.764   8.863  10.929 -0.3792 -3.1269 -0.6211
  292MOL0     H40283   7.634   8.667  10.982 -1.4780 -2.1898 -2.3270
  292MOL0     H40284   7.286   8.726  11.135 -0.4071  1.5456 -0.9396
  292MOL0     H40285   7.173   8.687  11.011 -1.1107 -1.8012  0.9035
  292MOL0     H40286   7.242   8.424  11.056  0.8294 -0.9550  0.3065
  292MOL0     H40287   7.145   8.510  11.178 -0.5611 -0.8846  0.8924
  292MOL0     H40288   7.455   8.494  11.178 -0.6121 -0.7408 -1.5391
  292MOL0     H40289   7.359   8.565  11.300  0.0638 -0.2288  0.5461
  292MOL0     H40290   7.275   8.373  11.369 -1.5181  3.1925 -2.7904
  292MOL0     H40291   7.459   8.353  11.363 -0.6311 -1.1993  0.0332
  292MOL0     H40292   7.328   8.041  11.119 -3.0965 -0.5704  0.8684
  292MOL0     H40293   7.264   8.853  10.879 -0.5875 -0.5726  1.6405
  292MOL0     H40294   7.241   9.053  10.810  1.3572 -4.6205  2.8725
  292MOL0     H40295   7.350   9.174  10.861  1.3289  1.0897 -2.7276
  292MOL0     H40296   7.361   9.127  10.702 -3.6532 -2.8403 -1.7986
  293MOL0     O40297  10.823   0.986  11.380  0.2584  0.5195 -0.1137
  293MOL0     C40298  10.765   1.080  11.327 -0.5422  0.8559 -0.3451
  293MOL0     O40299  10.834   1.200  11.303  0.8245  0.4115  0.6539
  293MOL0     C40300  10.962   1.223  11.338  0.9099 -0.8682 -0.2127
  293MOL0     C40301  11.060   1.129  11.339 -0.3692  0.3180  0.5920
  293MOL0     C40302  11.190   1.151  11.395  0.1926  0.4422 -0.1264
  293MOL0     C40303  11.229   1.278  11.425 -0.1378 -0.0085 -0.6817
  293MOL0     O40304  11.354   1.303  11.479  0.4310 -0.5632  0.5264
  293MOL0     C40305  11.407   1.436  11.454  0.0735  0.4199 -0.7559
  293MOL0     C40306  11.561   1.451  11.478  0.3305  0.5133 -0.0812
  293MOL0     C40307  11.631   1.347  11.394 -0.1040 -0.1058 -0.7481
  293MOL0     C40308  11.781   1.363  11.395 -0.3162 -0.3700 -0.3449
  293MOL0     C40309  11.850   1.260  11.301 -0.9605 -0.0577  0.0534
  293MOL0     C40310  11.994   1.290  11.274  0.4612  0.0658 -0.4782
  293MOL0     C40311  12.090   1.260  11.388  0.2137  0.2226 -0.3218
  293MOL0     C40312  12.086   1.373  11.492  1.1098 -0.1667 -1.0005
  293MOL0     N40313  12.211   1.380  11.574 -0.3449  0.2087  0.6219
  293MOL0     C40314  12.324   1.467  11.558 -0.1758 -0.1897 -0.4160
  293MOL0     C40315  12.420   1.427  11.644  0.3344 -0.6584 -0.6233
  293MOL0     C40316  12.556   1.480  11.676  0.2249 -1.0553 -0.7367
  293MOL0     C40317  12.662   1.377  11.642 -0.1936 -0.1943 -1.0953
  293MOL0     C40318  12.698   1.382  11.494  0.3075  0.4227 -0.7734
  293MOL0     C40319  12.744   1.241  11.452  0.5968  0.0462 -0.4150
  293MOL0     O40320  12.834   1.255  11.340  0.6462 -0.3130 -0.4278
  293MOL0     C40321  12.876   1.138  11.282 -0.3791 -0.8228  0.3362
  293MOL0     C40322  12.852   1.011  11.325  0.4125  0.1120 -0.0244
  293MOL0     C40323  12.924   0.904  11.267 -0.2718 -0.5477  0.3110
  293MOL0     C40324  12.914   0.778  11.343  0.4252  0.2922 -0.0399
  293MOL0     C40325  13.019   0.924  11.159 -0.4864 -0.9810 -0.1211
  293MOL0     C40326  13.107   0.820  11.098 -0.6998  0.1357 -0.6338
  293MOL0     O40327  13.214   0.864  11.032 -0.1072 -0.3609  0.1971
  293MOL0     C40328  13.308   0.772  10.987  0.7218 -1.1098  0.6810
  293MOL0     C40329  13.361   0.693  11.086 -1.4637 -0.1413  0.8655
  293MOL0     C40330  13.463   0.599  11.056 -0.1108 -0.5726  0.9049
  293MOL0     C40331  13.497   0.571  10.922 -0.5723 -0.3027  0.0765
  293MOL0     O40332  13.599   0.477  10.899 -0.3314 -0.0143  0.3197
  293MOL0     C40333  13.603   0.405  10.771 -0.1248 -0.4455 -0.8711
  293MOL0     C40334  13.716   0.296  10.769 -0.9936 -0.3300 -0.1606
  293MOL0     C40335  13.667   0.183  10.864 -1.0342 -0.6179  0.4149
  293MOL0     C40336  13.569   0.077  10.797  0.1811 -0.1348 -0.4700
  293MOL0     C40337  13.531  -0.030  10.900  0.1749  0.5616 -1.1900
  293MOL0     C40338  13.412  -0.111  10.853  0.0176 -0.2452 -0.1081
  293MOL0     C40339  13.337  -0.173  10.975  0.1915 -0.1270  0.2798
  293MOL0     C40340  13.213  -0.261  10.944  0.4395 -0.1099  0.1855
  293MOL0    Cl40341  13.162  -0.328  11.096 -0.8331 -0.8645 -0.0788
  293MOL0     C40342  13.444   0.649  10.817  0.9792 -0.2307  0.2441
  293MOL0     C40343  13.346   0.750  10.853  0.4004  0.1277 -0.7792
  293MOL0     O40344  13.078   0.703  11.108 -0.2637  0.2594 -0.2675
  293MOL0     C40345  13.031   1.059  11.115 -0.2219  1.0599  0.8351
  293MOL0     C40346  12.967   1.164  11.179  1.1396  0.2496  0.1999
  293MOL0     N40347  12.357   1.321  11.719 -0.6201  0.1509 -0.9973
  293MOL0     N40348  12.244   1.296  11.670  0.4048 -0.6678 -0.4977
  293MOL0     C40349  11.130   1.381  11.423  0.4514  0.3902  0.0949
  293MOL0     C40350  11.001   1.349  11.388  0.1781  0.4307 -0.3727
  293MOL0     C40351  10.624   1.076  11.317  0.4212  0.1949  0.5268
  293MOL0     C40352  10.550   1.200  11.301 -1.3956 -0.4010  0.2789
  293MOL0     C40353  10.416   1.205  11.255  0.1034  0.2466 -0.0492
  293MOL0     C40354  10.343   1.087  11.224  0.0005  0.7213 -0.4889
  293MOL0     O40355  10.218   1.093  11.172  0.1154 -0.1234  0.6444
  293MOL0     C40356  10.146   0.970  11.137  0.5823  0.5619 -0.8007
  293MOL0     C40357  10.086   0.887  11.251 -1.0435 -0.4951  0.1671
  293MOL0     C40358   9.978   0.959  11.339  0.9816 -0.7928  0.5092
  293MOL0     C40359   9.846   0.914  11.275  0.2503 -1.4350 -0.0400
  293MOL0     C40360   9.724   0.973  11.331 -0.8566  0.5388 -0.2010
  293MOL0     C40361   9.622   1.017  11.376  0.4429 -0.8452 -0.1396
  293MOL0     C40362  10.407   0.965  11.251  0.2788 -0.6138 -0.2105
  293MOL0     C40363  10.540   0.959  11.301  0.8043  0.2146 -0.7267
  293MOL0     C40364  10.606   0.821  11.304  0.2008 -0.4953  0.0397
  293MOL0     H40365  11.044   1.027  11.307  1.2719  0.4859 -0.8783
  293MOL0     H40366  11.259   1.069  11.408 -0.4597  0.1490  1.7712
  293MOL0     H40367  11.361   1.514  11.517 -0.0626 -0.2773  0.0292
  293MOL0     H40368  11.390   1.462  11.349  0.1067  0.0844 -0.8457
  293MOL0     H40369  11.592   1.554  11.458  0.9730  0.0413 -1.7535
  293MOL0     H40370  11.591   1.432  11.582 -0.0071  1.8957  0.2866
  293MOL0     H40371  11.609   1.248  11.434 -0.8989  0.7710  1.0854
  293MOL0     H40372  11.593   1.365  11.293  0.8729  0.2824 -1.0690
  293MOL0     H40373  11.813   1.467  11.391 -3.2530  1.1472  5.1369
  293MOL0     H40374  11.812   1.325  11.493 -0.4403 -2.7512 -1.1641
  293MOL0     H40375  11.792   1.257  11.209 -0.6403  0.9547 -0.1936
  293MOL0     H40376  11.843   1.159  11.342 -0.3414  0.2919  1.0800
  293MOL0     H40377  12.021   1.227  11.190  1.8277  0.3032 -0.2424
  293MOL0     H40378  12.016   1.395  11.251  1.5479  0.5420  2.2552
  293MOL0     H40379  12.189   1.251  11.344  0.0475 -1.1858 -0.4497
  293MOL0     H40380  12.064   1.172  11.449 -3.0989  2.0606  1.2078
  293MOL0     H40381  12.065   1.476  11.460 -3.0387 -0.3607  0.3861
  293MOL0     H40382  12.010   1.346  11.567 -0.5984  0.6442 -2.3680
  293MOL0     H40383  12.325   1.555  11.495  1.6819 -0.0068 -0.1875
  293MOL0     H40384  12.546   1.506  11.782  1.1266 -1.9961 -0.3978
  293MOL0     H40385  12.562   1.573  11.619  0.3315 -1.0270 -0.6805
  293MOL0     H40386  12.750   1.392  11.704  1.5098  0.9887 -3.6125
  293MOL0     H40387  12.629   1.276  11.670  3.6951 -1.4563 -0.4414
  293MOL0     H40388  12.609   1.412  11.436 -0.2295 -2.2847 -1.4767
  293MOL0     H40389  12.783   1.451  11.493 -0.5797  1.5552 -0.7964
  293MOL0     H40390  12.810   1.186  11.520  1.0670 -1.5097 -2.0666
  293MOL0     H40391  12.663   1.170  11.431  1.2371 -1.0540  0.6831
  293MOL0     H40392  12.772   0.978  11.389  0.7602 -0.9046 -0.0921
  293MOL0     H40393  12.849   0.788  11.431 -0.8641  0.7340 -1.0205
  293MOL0     H40394  13.007   0.747  11.392 -0.9646 -1.0029  1.9617
  293MOL0     H40395  12.869   0.694  11.289 -2.0311 -0.7595  3.2472
  293MOL0     H40396  13.314   0.699  11.184 -3.0081 -1.4589  0.2492
  293MOL0     H40397  13.516   0.546  11.134 -0.3691  1.2981  2.4259
  293MOL0     H40398  13.506   0.360  10.751  0.3511 -1.6688 -0.5343
  293MOL0     H40399  13.640   0.478  10.699  1.4886  2.0266  2.2070
  293MOL0     H40400  13.732   0.268  10.664  1.7438  0.2681  0.0136
  293MOL0     H40401  13.808   0.332  10.814 -0.5657 -1.6526  0.0673
  293MOL0     H40402  13.619   0.224  10.954 -0.1424  0.4455  0.4341
  293MOL0     H40403  13.756   0.129  10.895 -1.7725 -1.0827  1.8071
  293MOL0     H40404  13.604   0.046  10.699  2.2637 -2.6084  0.9325
  293MOL0     H40405  13.476   0.132  10.784  0.1169 -0.0566  0.2511
  293MOL0     H40406  13.620  -0.089  10.924 -0.2918  0.2617 -0.1157
  293MOL0     H40407  13.503   0.017  10.995 -1.4420  0.4017 -1.5591
  293MOL0     H40408  13.441  -0.190  10.783 -2.4419 -0.4240 -1.0396
  293MOL0     H40409  13.337  -0.052  10.800 -0.9707  1.8111  3.2853
  293MOL0     H40410  13.307  -0.095  11.045  2.0383 -0.8147  1.9236
  293MOL0     H40411  13.421  -0.225  11.023  2.9614  3.5049 -0.1944
  293MOL0     H40412  13.237  -0.343  10.875 -3.9365 -1.5309  0.0755
  293MOL0     H40413  13.137  -0.199  10.897  0.7540  0.6326  0.6400
  293MOL0     H40414  13.471   0.642  10.712  0.5191 -0.6361  0.1475
  293MOL0     H40415  13.294   0.809  10.778 -1.0520  2.6074  1.9501
  293MOL0     H40416  13.102   1.077  11.034  1.4086  0.4978  2.0733
  293MOL0     H40417  12.998   1.263  11.148 -0.7390  0.7129 -0.2886
  293MOL0     H40418  11.142   1.473  11.480 -2.8989 -0.2750  2.1458
  293MOL0     H40419  10.944   1.440  11.402  0.7084  0.4802  1.9122
  293MOL0     H40420  10.609   1.291  11.303 -0.7924 -0.7629 -0.3646
  293MOL0     H40421  10.373   1.303  11.241  0.4165  0.4572  0.4581
  293MOL0     H40422  10.061   0.996  11.075  2.0687 -1.4133 -3.9419
  293MOL0     H40423  10.213   0.917  11.069  1.9957  1.3143 -0.0465
  293MOL0     H40424  10.161   0.844  11.318 -1.4765 -3.5391 -1.1733
  293MOL0     H40425  10.035   0.806  11.199 -1.1753 -0.0537 -0.4020
  293MOL0     H40426   9.992   0.910  11.436  0.9666  1.5462  1.7570
  293MOL0     H40427   9.988   1.068  11.342  0.9239 -0.7527 -0.4371
  293MOL0     H40428   9.829   0.807  11.291 -1.2816 -1.1596  0.3026
  293MOL0     H40429   9.847   0.937  11.168  2.6366 -0.4705  0.1178
  293MOL0     H40430   9.522   1.041  11.407  1.4208 -0.0388  2.6175
  293MOL0     H40431  10.356   0.870  11.235 -0.6897 -0.1115 -0.1571
  293MOL0     H40432  10.655   0.807  11.207 -1.8982 -0.3979 -1.0821
  293MOL0     H40433  10.673   0.788  11.384  1.0897 -2.7918 -1.5395
  293MOL0     H40434  10.521   0.753  11.316 -0.3533  0.3120  0.8138
  294MOL0     O40435   1.954   1.309  10.729 -0.2835  0.2050  0.4480
  294MOL0     C40436   1.962   1.272  10.610 -0.1469  0.0866 -0.7598
  294MOL0     O40437   2.059   1.317  10.521 -0.7411 -0.3437 -0.1731
  294MOL0     C40438   2.154   1.412  10.549  0.6531  0.8368  1.0333
  294MOL0     C40439   2.278   1.392  10.496 -1.4249 -0.7109  0.5982
  294MOL0     C40440   2.380   1.492  10.523  0.6940  0.3660  0.6066
  294MOL0     C40441   2.347   1.602  10.607 -0.1264  0.3355  0.6102
  294MOL0     O40442   2.426   1.714  10.627 -0.4206 -0.0562 -0.3655
  294MOL0     C40443   2.568   1.690  10.622 -0.4760  0.3002 -0.7154
  294MOL0     C40444   2.607   1.746  10.490 -0.4565  0.4533  0.4552
  294MOL0     C40445   2.759   1.738  10.485 -0.5795  1.1758  0.0397
  294MOL0     C40446   2.826   1.764  10.348  0.1231  0.2674 -1.0717
  294MOL0     C40447   2.981   1.764  10.356 -0.0008 -0.6690 -0.0936
  294MOL0     C40448   3.050   1.793  10.223  0.3671 -0.2373 -0.0614
  294MOL0     C40449   3.197   1.766  10.230  0.7525  0.9151  0.2129
  294MOL0     C40450   3.277   1.849  10.333  1.5759  0.7987  0.0581
  294MOL0     N40451   3.426   1.831  10.324  0.1585  0.8803 -0.4176
  294MOL0     C40452   3.509   1.743  10.390 -0.5238 -0.6519  0.3825
  294MOL0     C40453   3.631   1.789  10.350  0.3537 -0.2652 -0.4805
  294MOL0     C40454   3.770   1.726  10.381  1.0486 -0.1670 -0.5366
  294MOL0     C40455   3.853   1.684  10.261  0.2218  0.0589  0.7171
  294MOL0     C40456   4.000   1.669  10.299  0.3907  0.1853  0.5644
  294MOL0     C40457   4.075   1.564  10.217  0.3332 -0.0187 -0.7042
  294MOL0     O40458   4.078   1.606  10.074 -0.4247 -0.6906 -0.6927
  294MOL0     C40459   3.990   1.560   9.977  0.7033  0.5072 -0.5826
  294MOL0     C40460   3.946   1.426   9.973 -0.1031 -0.4146 -0.1660
  294MOL0     C40461   3.844   1.371   9.892 -0.9624 -0.0793  0.3629
  294MOL0     C40462   3.810   1.215   9.902  0.7327  0.1074 -0.2558
  294MOL0     C40463   3.784   1.459   9.795 -0.0875  0.6023  0.3733
  294MOL0     C40464   3.700   1.413   9.686 -0.1020  0.6365 -0.0064
  294MOL0     O40465   3.718   1.483   9.576  0.0793  0.1753  0.8286
  294MOL0     C40466   3.621   1.486   9.485 -0.4351  0.3569 -0.2290
  294MOL0     C40467   3.619   1.397   9.371 -0.2881 -0.6523  0.3703
  294MOL0     C40468   3.509   1.396   9.278 -0.0500 -0.6843 -0.1481
  294MOL0     C40469   3.389   1.467   9.301 -0.3284  0.6429  0.0694
  294MOL0     O40470   3.282   1.460   9.208  0.3186 -0.0398  0.3014
  294MOL0     C40471   3.145   1.435   9.247  0.3671  0.0689  0.2268
  294MOL0     C40472   3.044   1.422   9.121 -0.0080 -0.0632 -0.0732
  294MOL0     C40473   3.078   1.297   9.045  0.3245 -0.3256 -0.5301
  294MOL0     C40474   2.982   1.238   8.946 -0.3851 -0.1233 -0.1081
  294MOL0     C40475   3.067   1.137   8.855  0.1294  0.1426 -0.2106
  294MOL0     C40476   2.987   1.034   8.777 -0.4855 -0.1925 -0.1388
  294MOL0     C40477   3.067   0.970   8.664  0.0679  0.1580  0.4974
  294MOL0     C40478   3.001   0.848   8.598  0.3507  0.8303  0.0722
  294MOL0    Cl40479   2.855   0.901   8.492 -0.4119 -0.2858 -0.2518
  294MOL0     C40480   3.393   1.550   9.418  0.7630  0.5502 -0.4524
  294MOL0     C40481   3.502   1.560   9.512  0.3441  0.8558 -0.6375
  294MOL0     O40482   3.614   1.329   9.699 -0.4752 -0.2254 -0.5413
  294MOL0     C40483   3.829   1.595   9.801 -0.2763 -0.4173 -0.4703
  294MOL0     C40484   3.924   1.641   9.892  0.3811 -0.7538  0.5461
  294MOL0     N40485   3.620   1.894  10.259  0.1117 -0.2412 -1.1615
  294MOL0     N40486   3.493   1.908  10.234 -0.5227 -0.5746 -0.4722
  294MOL0     C40487   2.223   1.615  10.657  0.2273  0.2573 -0.9349
  294MOL0     C40488   2.123   1.522  10.633 -0.1080  0.0720  0.4488
  294MOL0     C40489   1.869   1.157  10.566  0.2478 -1.0065  0.4540
  294MOL0     C40490   1.808   1.081  10.669 -0.2023  0.7637 -0.3807
  294MOL0     C40491   1.725   0.974  10.633  0.5781  0.2380 -0.9808
  294MOL0     C40492   1.696   0.946  10.505 -0.1781  0.1796 -0.1901
  294MOL0     O40493   1.580   0.867  10.485  0.6278  0.4168 -0.2615
  294MOL0     C40494   1.519   0.856  10.355 -0.3605  0.1603  0.2432
  294MOL0     C40495   1.445   0.989  10.322  0.3577  0.3163  0.2642
  294MOL0     C40496   1.335   1.017  10.422  0.8290  0.1975  0.1843
  294MOL0     C40497   1.228   0.907  10.429 -0.6340 -0.4410 -0.0680
  294MOL0     C40498   1.178   0.875  10.292 -0.6603 -0.4280 -0.5832
  294MOL0     C40499   1.163   0.837  10.177  0.3169 -0.4287 -0.1412
  294MOL0     C40500   1.771   1.016  10.401 -0.2977  0.5452 -0.1085
  294MOL0     C40501   1.852   1.117  10.428  0.8888  0.8903 -0.1740
  294MOL0     C40502   1.907   1.185  10.301  1.3719  0.4998 -0.2061
  294MOL0     H40503   2.300   1.310  10.429  1.4096  0.4686 -0.0548
  294MOL0     H40504   2.473   1.475  10.470 -1.1507 -1.2531 -2.4165
  294MOL0     H40505   2.602   1.587  10.636  0.1291  0.3692 -1.5843
  294MOL0     H40506   2.620   1.755  10.693 -3.0902  1.4339  0.2743
  294MOL0     H40507   2.570   1.684  10.408  0.6626 -0.0724  0.3296
  294MOL0     H40508   2.562   1.845  10.489 -0.0261  0.6732  1.4010
  294MOL0     H40509   2.796   1.810  10.558 -2.1808  1.7182  0.3570
  294MOL0     H40510   2.786   1.635  10.505  1.0070  0.7074 -3.6010
  294MOL0     H40511   2.795   1.694  10.269 -0.1436  0.0202 -0.7507
  294MOL0     H40512   2.791   1.856  10.301  1.6005  1.9898  1.0154
  294MOL0     H40513   3.011   1.667  10.396 -1.1329 -0.3179  1.7256
  294MOL0     H40514   3.023   1.838  10.425  0.7919  2.9146 -4.0288
  294MOL0     H40515   2.995   1.747  10.142 -0.1155  0.2170  0.0029
  294MOL0     H40516   3.036   1.900  10.205 -1.0312 -0.5922 -1.2250
  294MOL0     H40517   3.234   1.784  10.128  0.1217  1.1146  0.0150
  294MOL0     H40518   3.214   1.659  10.244 -0.6960  0.6668  0.1545
  294MOL0     H40519   3.261   1.957  10.321  3.7943  1.1172 -0.5571
  294MOL0     H40520   3.236   1.823  10.431  0.4727  3.3685  0.3564
  294MOL0     H40521   3.485   1.666  10.462  2.5060 -0.4954  1.7289
  294MOL0     H40522   3.738   1.637  10.437 -3.3060  2.5151  1.8376
  294MOL0     H40523   3.836   1.789  10.441  0.6216  0.4555 -0.7100
  294MOL0     H40524   3.820   1.593  10.211  0.5782 -0.8402  2.0501
  294MOL0     H40525   3.846   1.764  10.186 -0.2991 -0.0609  0.6357
  294MOL0     H40526   4.040   1.770  10.287  3.8041 -1.3133 -2.1447
  294MOL0     H40527   3.988   1.643  10.405 -0.1360 -1.9100  0.0352
  294MOL0     H40528   4.175   1.546  10.256 -0.5461 -2.1640  0.7401
  294MOL0     H40529   4.020   1.470  10.226 -1.9572  1.1859 -1.2698
  294MOL0     H40530   4.002   1.363  10.042  3.5354  2.5678 -0.0967
  294MOL0     H40531   3.885   1.162   9.960  1.4526  1.7420  0.3650
  294MOL0     H40532   3.783   1.162   9.810  0.4176  1.8186 -1.2145
  294MOL0     H40533   3.722   1.208   9.967  1.1228  1.6283  0.5036
  294MOL0     H40534   3.710   1.340   9.354  0.2264  0.8560 -2.6956
  294MOL0     H40535   3.507   1.345   9.183  1.2485 -1.0514 -0.0064
  294MOL0     H40536   3.137   1.346   9.310  0.3243  0.0556  0.2032
  294MOL0     H40537   3.112   1.518   9.309  0.3144  0.4794 -0.3468
  294MOL0     H40538   2.941   1.410   9.156 -1.0167  0.3586 -2.6879
  294MOL0     H40539   3.068   1.505   9.054 -2.7445 -0.0479 -1.1648
  294MOL0     H40540   3.099   1.221   9.121 -2.9695 -0.4651  0.3690
  294MOL0     H40541   3.167   1.322   8.987 -0.4959  0.5685 -1.4521
  294MOL0     H40542   2.948   1.318   8.879 -2.0983 -0.0587  0.7729
  294MOL0     H40543   2.896   1.188   8.991 -0.7450  0.1050 -0.5333
  294MOL0     H40544   3.128   1.193   8.785  0.3156  0.2837  0.0618
  294MOL0     H40545   3.126   1.075   8.924 -1.6025 -1.1950  0.1325
  294MOL0     H40546   2.886   1.069   8.754  0.5862  2.9514 -0.5506
  294MOL0     H40547   2.970   0.951   8.845  0.5068 -0.9104 -0.7470
  294MOL0     H40548   3.162   0.935   8.706  0.9440 -0.5286 -1.8961
  294MOL0     H40549   3.086   1.052   8.594 -0.6986 -2.4955 -3.1033
  294MOL0     H40550   2.978   0.766   8.667  0.5756  0.0328 -0.7752
  294MOL0     H40551   3.079   0.804   8.535 -0.4018 -0.1953 -0.1747
  294MOL0     H40552   3.305   1.607   9.447  0.6458 -0.9975  2.5838
  294MOL0     H40553   3.485   1.607   9.607  1.2494  1.0880 -0.5759
  294MOL0     H40554   3.784   1.664   9.730  3.2654  0.8581 -1.6984
  294MOL0     H40555   3.949   1.746   9.895 -0.8079 -0.4445  0.3911
  294MOL0     H40556   2.185   1.706  10.703 -1.5305 -1.2466  0.7958
  294MOL0     H40557   2.025   1.543  10.675  0.1630 -0.2216  1.2553
  294MOL0     H40558   1.816   1.110  10.774  0.1380  0.4998 -0.3355
  294MOL0     H40559   1.653   0.917  10.692 -1.0916  1.3049 -1.9125
  294MOL0     H40560   1.597   0.825  10.285 -1.9235 -3.1968 -0.2425
  294MOL0     H40561   1.451   0.770  10.356 -1.0121  0.6375 -1.1468
  294MOL0     H40562   1.412   0.990  10.217 -2.3130  1.6959  1.0330
  294MOL0     H40563   1.510   1.076  10.338 -2.0623  2.0152  1.4955
  294MOL0     H40564   1.383   1.043  10.517  2.2625 -2.1093  0.1857
  294MOL0     H40565   1.287   1.111  10.396  2.9794  1.2941 -0.0719
  294MOL0     H40566   1.145   0.932  10.495 -1.4056 -2.2053 -0.3141
  294MOL0     H40567   1.273   0.817  10.473  2.5621  0.1468 -1.7937
  294MOL0     H40568   1.169   0.793  10.079  0.4987  0.6531 -0.6268
  294MOL0     H40569   1.752   0.985  10.298  1.2382  1.1258 -0.5900
  294MOL0     H40570   2.015   1.171  10.302  1.6431  2.3868  0.4051
  294MOL0     H40571   1.867   1.131  10.214 -1.4357  1.2910  0.4993
  294MOL0     H40572   1.874   1.289  10.295 -0.3364  0.2564  3.0135
  295MOL0     O40573   0.106   5.789   9.843 -0.0275 -0.4590 -0.4865
  295MOL0     C40574   0.001   5.846   9.873  0.0710  0.5306 -0.3040
  295MOL0     O40575  -0.042   5.859  10.007 -0.0397 -0.5080  0.3792
  295MOL0     C40576   0.040   5.832  10.104 -0.5793  0.2446  0.2032
  295MOL0     C40577   0.100   5.710  10.122  0.1871 -0.4478  0.2394
  295MOL0     C40578   0.185   5.692  10.229  0.7675 -0.1168  0.4516
  295MOL0     C40579   0.206   5.790  10.322 -0.4162 -0.1791 -0.0446
  295MOL0     O40580   0.307   5.765  10.407  0.3209 -0.4379  0.1955
  295MOL0     C40581   0.338   5.857  10.507 -0.1609  0.2483 -0.6687
  295MOL0     C40582   0.444   5.791  10.596  0.8535 -0.5807  0.2159
  295MOL0     C40583   0.361   5.693  10.682 -0.0913  0.5272 -0.7937
  295MOL0     C40584   0.467   5.616  10.773  0.3712  0.8560 -0.1390
  295MOL0     C40585   0.392   5.515  10.856 -0.5116 -0.5601 -0.3057
  295MOL0     C40586   0.443   5.500  10.994  0.3874 -0.2619 -0.0049
  295MOL0     C40587   0.562   5.414  10.998  1.2179  0.1150  0.2971
  295MOL0     C40588   0.624   5.410  11.133 -0.6582  0.5518 -0.3875
  295MOL0     N40589   0.733   5.315  11.132 -0.7232  0.4148  0.2837
  295MOL0     C40590   0.714   5.181  11.166 -0.0854  0.3927  0.7334
  295MOL0     C40591   0.825   5.128  11.118  0.5945 -0.6054  0.5608
  295MOL0     C40592   0.876   4.981  11.103  0.2840 -0.3763 -0.1333
  295MOL0     C40593   1.025   4.973  11.068 -0.3881 -0.5512 -0.0920
  295MOL0     C40594   1.062   4.828  11.045  0.6000 -0.2628 -0.5986
  295MOL0     C40595   1.190   4.809  10.974  0.0839  0.6594 -0.3772
  295MOL0     O40596   1.206   4.674  10.931 -0.9230  0.5242 -0.7500
  295MOL0     C40597   1.316   4.655  10.847 -0.6326  0.1451 -0.1696
  295MOL0     C40598   1.361   4.521  10.821  0.7049 -0.6388  0.5806
  295MOL0     C40599   1.464   4.496  10.737  0.5084  0.9225  0.2195
  295MOL0     C40600   1.496   4.346  10.720 -0.1875  0.7145  0.1021
  295MOL0     C40601   1.549   4.603  10.685 -0.2378 -0.7731  0.5029
  295MOL0     C40602   1.685   4.595  10.626 -0.1638 -0.2681 -0.3494
  295MOL0     O40603   1.735   4.704  10.564  0.3733 -0.1620 -0.8646
  295MOL0     C40604   1.867   4.718  10.546 -0.1072 -0.6190 -0.1534
  295MOL0     C40605   1.914   4.852  10.526  0.4179 -0.2544 -0.3574
  295MOL0     C40606   2.048   4.883  10.519  0.1069 -0.6006 -0.2652
  295MOL0     C40607   2.148   4.784  10.511 -0.0142 -0.4852  0.0108
  295MOL0     O40608   2.268   4.809  10.465 -0.2929 -0.3970  0.6932
  295MOL0     C40609   2.380   4.718  10.465  0.1805  0.9211  0.6888
  295MOL0     C40610   2.507   4.805  10.441 -0.3700 -0.3687 -0.3900
  295MOL0     C40611   2.498   4.899  10.321 -0.2399  0.9420  0.5621
  295MOL0     C40612   2.505   4.803  10.200 -0.3994 -0.1627  0.3170
  295MOL0     C40613   2.548   4.874  10.072 -0.1179  0.7610 -0.4976
  295MOL0     C40614   2.507   4.808   9.939 -0.0852  0.0225  0.7018
  295MOL0     C40615   2.572   4.674   9.909 -0.0905 -0.9609  0.2625
  295MOL0     C40616   2.495   4.608   9.794 -0.6515 -0.3619 -0.3137
  295MOL0    Cl40617   2.563   4.700   9.656 -0.1333 -0.4608  0.0106
  295MOL0     C40618   2.099   4.654  10.521  0.3587 -0.0081  0.4386
  295MOL0     C40619   1.960   4.621  10.529 -0.1708  0.1993  0.3935
  295MOL0     O40620   1.739   4.481  10.645 -1.0501  0.0812 -0.6699
  295MOL0     C40621   1.501   4.731  10.707  0.9689 -0.5418  0.0919
  295MOL0     C40622   1.385   4.756  10.777 -0.2120  0.0739 -0.4570
  295MOL0     N40623   0.909   5.224  11.075 -0.2570 -0.4575  0.3995
  295MOL0     N40624   0.859   5.342  11.088  0.3420  0.1969 -0.0443
  295MOL0     C40625   0.150   5.915  10.307  1.1355  0.8310 -0.0913
  295MOL0     C40626   0.057   5.932  10.202  0.6823  0.0655 -0.5204
  295MOL0     C40627  -0.091   5.895   9.760 -0.4779 -0.5650 -0.1363
  295MOL0     C40628  -0.207   5.961   9.791  0.3961 -1.4085 -0.3786
  295MOL0     C40629  -0.306   5.998   9.703  0.2500  0.3745  0.6412
  295MOL0     C40630  -0.270   5.992   9.563 -0.1668 -0.0625 -0.0091
  295MOL0     O40631  -0.347   6.053   9.463  0.1390  0.2944  0.0371
  295MOL0     C40632  -0.480   6.090   9.493 -0.0041  0.3970  0.4106
  295MOL0     C40633  -0.527   6.196   9.383  0.5076 -0.2853  0.5235
  295MOL0     C40634  -0.433   6.321   9.389  0.2651  0.2072  0.8374
  295MOL0     C40635  -0.465   6.441   9.295  0.1972  0.4044 -0.2508
  295MOL0     C40636  -0.572   6.516   9.359 -0.5944 -0.5482 -0.5823
  295MOL0     C40637  -0.654   6.572   9.414  1.3427 -0.7687  0.2361
  295MOL0     C40638  -0.149   5.939   9.528 -0.7071 -0.3056 -0.4516
  295MOL0     C40639  -0.058   5.895   9.620  0.1850  0.6260  0.4027
  295MOL0     C40640   0.068   5.838   9.563  0.5163  0.5942  0.8126
  295MOL0     H40641   0.075   5.637  10.045 -1.9648  0.7798 -0.3179
  295MOL0     H40642   0.219   5.589  10.229 -0.1634 -0.5085 -1.9406
  295MOL0     H40643   0.258   5.896  10.569  2.0894  4.4270 -0.0247
  295MOL0     H40644   0.390   5.942  10.462 -0.8354  0.3524 -1.2515
  295MOL0     H40645   0.519   5.735  10.539 -1.4550 -2.2616 -1.3406
  295MOL0     H40646   0.490   5.864  10.664  0.9173  2.3827 -2.7265
  295MOL0     H40647   0.295   5.752  10.746  0.0112 -1.5299  1.3014
  295MOL0     H40648   0.313   5.627  10.610  0.6831  0.4190 -1.2283
  295MOL0     H40649   0.553   5.573  10.723  1.2968 -1.6657  3.2371
  295MOL0     H40650   0.523   5.688  10.834  0.2682  0.9802 -0.1907
  295MOL0     H40651   0.399   5.418  10.805  0.9829  0.4697 -2.2295
  295MOL0     H40652   0.286   5.537  10.870 -0.1909  2.3949 -1.6862
  295MOL0     H40653   0.474   5.598  11.034  2.1908 -1.0743  0.7138
  295MOL0     H40654   0.364   5.456  11.056  0.5307 -0.4447  0.0486
  295MOL0     H40655   0.633   5.429  10.915  0.3173  0.7920 -0.3688
  295MOL0     H40656   0.531   5.314  10.966  0.4267 -0.1438  1.8037
  295MOL0     H40657   0.680   5.501  11.158  0.8956 -1.3096  3.9007
  295MOL0     H40658   0.555   5.383  11.214  0.9189  0.1059  0.8536
  295MOL0     H40659   0.624   5.134  11.205 -0.2016  1.5158  1.8570
  295MOL0     H40660   0.813   4.916  11.041  0.3725 -1.4641  0.8823
  295MOL0     H40661   0.870   4.931  11.200  0.2078 -2.0403 -0.9601
  295MOL0     H40662   1.041   5.033  10.978 -0.7457  0.8953  0.7865
  295MOL0     H40663   1.084   5.016  11.149 -1.8312  0.6202  0.3761
  295MOL0     H40664   1.060   4.780  11.144 -3.1801 -0.6910 -0.7389
  295MOL0     H40665   0.984   4.787  10.980 -0.6124  2.5054 -1.0459
  295MOL0     H40666   1.181   4.885  10.896  2.3217  2.2635  0.8118
  295MOL0     H40667   1.283   4.831  11.027  0.3777  2.0386 -1.4177
  295MOL0     H40668   1.296   4.449  10.870  0.6423  0.4900  2.2704
  295MOL0     H40669   1.579   4.322  10.786  0.1328  0.6568 -0.3186
  295MOL0     H40670   1.534   4.340  10.617  2.7340  2.9626  0.9140
  295MOL0     H40671   1.414   4.276  10.737  1.4539 -1.7710 -1.4515
  295MOL0     H40672   1.842   4.932  10.523  0.4952 -0.1242  0.6666
  295MOL0     H40673   2.071   4.989  10.527 -2.0775 -0.0888 -0.0523
  295MOL0     H40674   2.390   4.660  10.557 -1.1055 -3.2224 -1.5249
  295MOL0     H40675   2.369   4.646  10.383  1.0305 -0.3681  1.6651
  295MOL0     H40676   2.522   4.865  10.532  1.3272 -0.2306 -0.7276
  295MOL0     H40677   2.594   4.739  10.442  0.4622  0.6732  1.1786
  295MOL0     H40678   2.574   4.977  10.327 -2.2398  2.9940  0.9012
  295MOL0     H40679   2.406   4.958  10.313  0.2510  1.5162 -1.0207
  295MOL0     H40680   2.403   4.765  10.186 -1.9734  3.6331  0.1036
  295MOL0     H40681   2.580   4.724  10.206 -0.1475  0.0570  0.0751
  295MOL0     H40682   2.488   4.966  10.073 -1.3286  0.0124 -1.4666
  295MOL0     H40683   2.654   4.896  10.082 -0.3909  1.5019  1.0657
  295MOL0     H40684   2.549   4.881   9.869  0.3135 -0.4904  0.3973
  295MOL0     H40685   2.398   4.801   9.942 -0.1474  1.0092  1.0726
  295MOL0     H40686   2.560   4.608   9.996  0.9585 -0.5252  0.7659
  295MOL0     H40687   2.680   4.684   9.890 -0.4452 -2.1498 -2.8838
  295MOL0     H40688   2.388   4.630   9.795 -0.3793  1.3661 -2.4180
  295MOL0     H40689   2.504   4.499   9.783 -2.6752 -0.7169  0.9276
  295MOL0     H40690   2.159   4.568  10.491 -1.3230 -0.8409 -0.6905
  295MOL0     H40691   1.930   4.518  10.512 -3.5444  0.5588  3.1623
  295MOL0     H40692   1.553   4.816  10.665  1.8416 -0.7726  0.6885
  295MOL0     H40693   1.346   4.857  10.785  0.8182  0.3861  1.1699
  295MOL0     H40694   0.181   5.997  10.371 -0.2058  2.2648 -1.2007
  295MOL0     H40695   0.009   6.027  10.180  0.1805 -0.9089 -4.2872
  295MOL0     H40696  -0.220   5.997   9.892  1.3544 -2.0258 -0.0241
  295MOL0     H40697  -0.396   6.055   9.724  0.3036  1.2352 -1.2946
  295MOL0     H40698  -0.550   6.007   9.505 -1.0668  1.2352  0.1806
  295MOL0     H40699  -0.481   6.150   9.584  1.1573 -0.9535  1.3614
  295MOL0     H40700  -0.628   6.236   9.393  0.0877 -1.2715  0.3453
  295MOL0     H40701  -0.528   6.148   9.285 -1.4064  4.7452 -2.2624
  295MOL0     H40702  -0.436   6.354   9.493 -2.8585  2.8763  0.0889
  295MOL0     H40703  -0.334   6.292   9.353  0.2448  1.7481 -0.6099
  295MOL0     H40704  -0.484   6.403   9.194 -0.0893  0.3394 -0.1751
  295MOL0     H40705  -0.383   6.511   9.279  0.8619 -0.8329 -2.7482
  295MOL0     H40706  -0.739   6.622   9.453  1.4371  1.0082 -1.6511
  295MOL0     H40707  -0.125   5.937   9.423 -1.0549 -3.2341 -0.5435
  295MOL0     H40708   0.056   5.831   9.455 -0.5199  0.7073  0.9105
  295MOL0     H40709   0.146   5.909   9.592  1.5837 -0.9310  1.8380
  295MOL0     H40710   0.087   5.742   9.614  0.8617  0.6924  0.8715
  296MOL0     O40711   1.304   3.210   8.525 -0.2023  0.4150 -0.1672
  296MOL0     C40712   1.246   3.281   8.607  0.1042  0.0438 -0.7991
  296MOL0     O40713   1.309   3.344   8.703  0.3269 -0.0369 -0.2188
  296MOL0     C40714   1.445   3.325   8.735  0.4535 -0.2265  0.0112
  296MOL0     C40715   1.518   3.435   8.778 -0.4924  0.8954  0.2670
  296MOL0     C40716   1.643   3.421   8.830  0.0052  0.2393  0.0672
  296MOL0     C40717   1.711   3.296   8.829 -0.0823  0.1563  0.7040
  296MOL0     O40718   1.837   3.263   8.879  0.9341 -0.3626 -0.0490
  296MOL0     C40719   1.920   3.368   8.929  0.2994 -0.5832 -0.2128
  296MOL0     C40720   2.047   3.304   8.976  0.2912  0.1460  0.3373
  296MOL0     C40721   2.137   3.265   8.857  0.1428 -0.1055 -0.5276
  296MOL0     C40722   2.274   3.221   8.917  0.1414 -0.0763 -0.0271
  296MOL0     C40723   2.381   3.215   8.807 -0.6059 -0.6175  0.6527
  296MOL0     C40724   2.515   3.190   8.884 -0.2431  0.4121 -0.3383
  296MOL0     C40725   2.642   3.177   8.801 -0.6031  0.5131 -0.0787
  296MOL0     C40726   2.769   3.163   8.881 -0.0407 -0.4153 -1.1727
  296MOL0     N40727   2.895   3.178   8.801  0.0092 -0.1766 -0.7048
  296MOL0     C40728   2.946   3.078   8.724 -0.9730 -0.2781  0.6329
  296MOL0     C40729   3.033   3.135   8.641 -0.3721 -1.3567  0.4310
  296MOL0     C40730   3.111   3.063   8.532  0.2804  0.7017  0.7266
  296MOL0     C40731   3.267   3.062   8.551 -0.2486 -0.4839 -0.6651
  296MOL0     C40732   3.339   3.039   8.420 -0.7993 -0.5269 -0.3435
  296MOL0     C40733   3.489   3.033   8.441  0.2456 -0.0093  0.8015
  296MOL0     O40734   3.554   3.057   8.312 -0.1528 -0.6901  0.5349
  296MOL0     C40735   3.692   3.047   8.291  0.0211 -0.5859 -0.1642
  296MOL0     C40736   3.780   2.988   8.373  0.0228  0.1344  0.1225
  296MOL0     C40737   3.918   2.976   8.351  0.1077  0.8941 -0.2426
  296MOL0     C40738   4.002   2.898   8.453  0.0763 -0.5135 -0.0769
  296MOL0     C40739   3.973   3.037   8.232 -0.0093  0.0457 -0.5005
  296MOL0     C40740   4.124   3.047   8.193 -0.5998  0.4279  0.7565
  296MOL0     O40741   4.216   2.978   8.262 -0.0514 -0.4911  0.1318
  296MOL0     C40742   4.344   2.977   8.207  0.0049 -0.8377 -0.1266
  296MOL0     C40743   4.453   3.032   8.273 -0.2032  0.4735 -0.1315
  296MOL0     C40744   4.583   3.005   8.230  0.5641  0.7223 -0.1372
  296MOL0     C40745   4.610   2.939   8.107  0.0566  0.1249 -0.1841
  296MOL0     O40746   4.744   2.934   8.074  0.0317  0.3555 -0.3852
  296MOL0     C40747   4.784   2.843   7.973  0.1732 -0.9077 -0.1403
  296MOL0     C40748   4.939   2.820   7.993 -0.1870 -0.8485 -0.7364
  296MOL0     C40749   5.009   2.946   8.032 -0.7008  0.0600 -0.6056
  296MOL0     C40750   5.163   2.954   8.024  0.3231 -0.2553 -0.5959
  296MOL0     C40751   5.242   2.873   8.124 -0.6370  0.0227  0.1873
  296MOL0     C40752   5.396   2.898   8.107 -0.7908  0.4490 -0.2333
  296MOL0     C40753   5.476   2.791   8.184  0.9848 -0.7312 -1.0745
  296MOL0     C40754   5.609   2.759   8.111  0.8426  0.5775  0.3926
  296MOL0    Cl40755   5.581   2.652   7.966 -0.6793  0.2651  0.0780
  296MOL0     C40756   4.499   2.904   8.029  0.5761  0.2295 -0.0588
  296MOL0     C40757   4.368   2.925   8.083  1.1764  0.4483 -0.1782
  296MOL0     O40758   4.152   3.102   8.091 -0.0430 -0.3322 -0.3212
  296MOL0     C40759   3.884   3.100   8.145 -0.4747 -0.8734 -0.5463
  296MOL0     C40760   3.743   3.103   8.177 -0.2693  0.0189 -0.6709
  296MOL0     N40761   3.031   3.272   8.665 -0.5461  0.5843 -0.4599
  296MOL0     N40762   2.942   3.298   8.759 -0.2783 -0.1499  0.1310
  296MOL0     C40763   1.647   3.185   8.779 -1.0400 -0.2907  0.1809
  296MOL0     C40764   1.516   3.203   8.729  0.1450  0.6098 -0.6579
  296MOL0     C40765   1.102   3.296   8.598 -0.5443 -1.3147 -0.1056
  296MOL0     C40766   1.040   3.370   8.710  0.1880  0.5958  0.0941
  296MOL0     C40767   0.902   3.386   8.720  0.4005  0.2418  0.1220
  296MOL0     C40768   0.817   3.343   8.621 -0.5550  0.5256  0.9736
  296MOL0     O40769   0.683   3.364   8.618  0.1878  0.5571 -0.3293
  296MOL0     C40770   0.648   3.467   8.530  0.5494 -0.2058  0.8563
  296MOL0     C40771   0.491   3.464   8.546  0.3615 -0.5580  0.2851
  296MOL0     C40772   0.427   3.350   8.468  0.1231 -0.8427  0.5959
  296MOL0     C40773   0.279   3.357   8.473 -0.1074  1.0125 -0.1823
  296MOL0     C40774   0.222   3.383   8.607  0.1012 -0.5563 -0.8651
  296MOL0     C40775   0.158   3.394   8.712  0.0465 -0.3117 -0.4511
  296MOL0     C40776   0.873   3.281   8.503  0.4140 -1.2579  0.2579
  296MOL0     C40777   1.012   3.255   8.498 -1.1119  0.4920  0.1026
  296MOL0     C40778   1.055   3.188   8.368  0.3455 -0.5392  0.9699
  296MOL0     H40779   1.473   3.534   8.785  0.2003  2.0130 -5.9187
  296MOL0     H40780   1.672   3.519   8.867  2.4603 -1.1307  2.0769
  296MOL0     H40781   1.882   3.424   9.016  0.2305  0.2152 -0.7428
  296MOL0     H40782   1.938   3.441   8.849 -2.7912 -0.6558 -1.1098
  296MOL0     H40783   2.095   3.382   9.037  0.4267  1.8156 -1.7961
  296MOL0     H40784   2.021   3.232   9.054 -4.1871  1.4852  0.3421
  296MOL0     H40785   2.099   3.183   8.795 -2.0540 -0.0062  0.5995
  296MOL0     H40786   2.153   3.352   8.793  3.1550 -1.4573 -1.8372
  296MOL0     H40787   2.301   3.287   8.999  3.7764  0.2649 -1.3085
  296MOL0     H40788   2.279   3.124   8.967  1.1895 -0.0494 -0.0531
  296MOL0     H40789   2.371   3.306   8.746 -0.3404  0.3615  2.0230
  296MOL0     H40790   2.358   3.125   8.749 -0.1452  0.3850 -1.1719
  296MOL0     H40791   2.534   3.274   8.952 -1.3254  0.8742 -0.5938
  296MOL0     H40792   2.497   3.102   8.947  1.7948  0.1279 -0.0769
  296MOL0     H40793   2.646   3.256   8.725 -1.5202 -0.3923 -1.1127
  296MOL0     H40794   2.631   3.085   8.743  1.0410  0.7145 -0.7645
  296MOL0     H40795   2.763   3.240   8.959  0.7729  0.2813 -1.7844
  296MOL0     H40796   2.770   3.062   8.922  1.7792  0.5830  1.4766
  296MOL0     H40797   2.920   2.973   8.716  0.9983 -0.7267 -0.5662
  296MOL0     H40798   3.087   3.122   8.443 -1.2149  1.7073  1.7402
  296MOL0     H40799   3.069   2.963   8.518 -0.5758  1.0473  0.7221
  296MOL0     H40800   3.297   3.156   8.599 -1.4446 -0.8090  0.8106
  296MOL0     H40801   3.285   2.984   8.626 -0.8552 -1.4232 -1.4725
  296MOL0     H40802   3.305   2.939   8.393 -2.1364 -0.3121  0.4689
  296MOL0     H40803   3.300   3.101   8.339 -1.1024 -0.6859 -0.3186
  296MOL0     H40804   3.532   3.114   8.501  3.1807 -1.5874  1.0217
  296MOL0     H40805   3.520   2.936   8.481  3.5911  1.7334  2.9584
  296MOL0     H40806   3.752   2.930   8.461  1.7742 -1.1947 -0.1377
  296MOL0     H40807   3.943   2.838   8.523  3.6549 -1.3478  2.5295
  296MOL0     H40808   4.061   2.968   8.514 -2.6458 -2.6184  5.7569
  296MOL0     H40809   4.077   2.836   8.404 -1.0994  0.0230 -2.6973
  296MOL0     H40810   4.422   3.077   8.367 -0.5723  0.5526 -0.2870
  296MOL0     H40811   4.671   3.042   8.282  1.7171  1.0475 -2.2018
  296MOL0     H40812   4.723   2.754   7.989 -0.0157 -0.7144  0.2273
  296MOL0     H40813   4.772   2.879   7.870  0.1300 -0.0233  0.1580
  296MOL0     H40814   4.965   2.744   8.066 -2.5011  1.1244  2.4212
  296MOL0     H40815   4.975   2.789   7.895  1.7795 -0.9085 -0.0401
  296MOL0     H40816   4.982   2.970   8.135  0.6930 -0.2975 -0.1315
  296MOL0     H40817   4.971   3.027   7.969 -1.5235 -1.5545 -2.2746
  296MOL0     H40818   5.183   3.061   8.034 -2.2345  0.5440 -2.8328
  296MOL0     H40819   5.194   2.930   7.922 -1.1678 -1.5230 -0.7781
  296MOL0     H40820   5.222   2.912   8.224 -3.5510  1.0778 -0.7202
  296MOL0     H40821   5.229   2.766   8.105  2.2502 -0.4952  0.6202
  296MOL0     H40822   5.421   2.999   8.141  0.5657 -0.0909  0.4522
  296MOL0     H40823   5.419   2.888   8.000  1.0712 -3.1332  0.3301
  296MOL0     H40824   5.433   2.690   8.191  1.5954 -0.8666  2.6291
  296MOL0     H40825   5.486   2.813   8.290 -1.5738 -0.9317 -0.7541
  296MOL0     H40826   5.673   2.704   8.180  1.3079  0.5448 -0.0553
  296MOL0     H40827   5.659   2.847   8.069  0.6853 -0.7231 -2.7751
  296MOL0     H40828   4.523   2.851   7.937  0.9758  0.5760 -0.1586
  296MOL0     H40829   4.283   2.889   8.026  0.0321 -1.1852  2.3853
  296MOL0     H40830   3.915   3.166   8.065 -0.2286  0.7150  0.8234
  296MOL0     H40831   3.666   3.151   8.118 -1.5983 -1.9059 -0.5742
  296MOL0     H40832   1.691   3.086   8.774 -1.1194 -0.5125  2.6947
  296MOL0     H40833   1.472   3.115   8.684 -2.2361  0.8461  1.0478
  296MOL0     H40834   1.092   3.417   8.792 -1.8804  2.0405  0.6774
  296MOL0     H40835   0.855   3.452   8.793 -3.2063  0.7254 -2.3772
  296MOL0     H40836   0.692   3.565   8.550  2.2957 -0.7643 -0.0368
  296MOL0     H40837   0.668   3.453   8.423 -0.0933  4.2827 -0.0894
  296MOL0     H40838   0.445   3.558   8.514 -1.8696 -0.9766  1.9979
  296MOL0     H40839   0.468   3.472   8.653 -0.7446 -0.5323  0.0546
  296MOL0     H40840   0.461   3.338   8.365 -0.5812 -0.7407  0.3474
  296MOL0     H40841   0.459   3.258   8.517  0.3548  1.0689  4.4678
  296MOL0     H40842   0.254   3.259   8.432 -0.9004  1.0545  0.1846
  296MOL0     H40843   0.250   3.439   8.407  2.7381  1.1268 -1.4713
  296MOL0     H40844   0.096   3.391   8.799  0.5252 -1.2350 -0.1265
  296MOL0     H40845   0.796   3.266   8.427 -1.1500  4.5574  0.2091
  296MOL0     H40846   1.111   3.098   8.393  3.1700  0.7800 -0.1975
  296MOL0     H40847   0.966   3.161   8.310  0.7929 -2.2421  1.0142
  296MOL0     H40848   1.134   3.250   8.326  1.8975 -2.6336  0.6362
  297MOL0     O40849   7.726   2.790   3.025 -0.1546 -0.4111 -0.4275
  297MOL0     C40850   7.774   2.690   2.971  0.4032 -0.5375 -0.0831
  297MOL0     O40851   7.886   2.684   2.898  0.7794 -0.0039 -0.2038
  297MOL0     C40852   7.960   2.802   2.879  0.6153  0.2648  0.5794
  297MOL0     C40853   8.097   2.792   2.899  0.4042  0.7091  0.5395
  297MOL0     C40854   8.181   2.905   2.887  0.1776  0.8790 -0.0683
  297MOL0     C40855   8.136   3.029   2.840 -0.4595  0.5001  0.5613
  297MOL0     O40856   8.223   3.128   2.808 -0.2067  0.0525  0.7022
  297MOL0     C40857   8.363   3.095   2.784 -0.4883  0.3001 -0.0143
  297MOL0     C40858   8.440   3.122   2.915 -0.3288 -0.2448  0.5835
  297MOL0     C40859   8.584   3.072   2.913  0.5026 -0.2148 -0.6501
  297MOL0     C40860   8.653   3.121   3.043  0.9110  0.2270  1.2237
  297MOL0     C40861   8.804   3.095   3.041  0.4837  0.8840 -0.8497
  297MOL0     C40862   8.866   3.119   3.174  0.5637 -0.3457 -0.8161
  297MOL0     C40863   9.019   3.098   3.172  0.5348  2.0362 -1.0343
  297MOL0     C40864   9.075   3.119   3.313  0.0852  0.7464 -0.2368
  297MOL0     N40865   9.221   3.113   3.317  0.8777  0.2866 -0.6032
  297MOL0     C40866   9.305   3.201   3.247 -0.3005 -0.2806  0.6290
  297MOL0     C40867   9.429   3.150   3.268 -0.5953 -0.4192  0.0784
  297MOL0     C40868   9.552   3.203   3.204 -0.1873 -0.0856 -0.2216
  297MOL0     C40869   9.624   3.317   3.279 -0.5358 -0.5124 -0.3198
  297MOL0     C40870   9.737   3.380   3.202 -0.7851  0.1656 -0.4716
  297MOL0     C40871   9.863   3.293   3.187 -0.1966  0.2294 -0.3805
  297MOL0     O40872   9.960   3.356   3.103  0.0235 -0.5960 -0.0370
  297MOL0     C40873  10.084   3.400   3.152  0.7636 -0.4741  0.0008
  297MOL0     C40874  10.191   3.397   3.069  0.0779 -0.6215  0.5693
  297MOL0     C40875  10.313   3.445   3.099  0.0859  0.6295  0.6627
  297MOL0     C40876  10.413   3.442   2.987 -0.3908  0.0225  0.2397
  297MOL0     C40877  10.343   3.490   3.223  0.4982  0.5926  0.3311
  297MOL0     C40878  10.472   3.549   3.259 -0.5528 -0.5684  0.1077
  297MOL0     O40879  10.555   3.491   3.354  0.2683 -0.8835  0.5322
  297MOL0     C40880  10.680   3.533   3.374 -0.4995 -0.1633  0.1215
  297MOL0     C40881  10.774   3.572   3.274 -0.1748 -0.6399  0.6884
  297MOL0     C40882  10.900   3.618   3.308 -0.2824 -0.4957 -0.3824
  297MOL0     C40883  10.932   3.624   3.440  0.0357  0.7025  0.5931
  297MOL0     O40884  11.058   3.672   3.472 -0.8158  0.3219  0.1946
  297MOL0     C40885  11.152   3.564   3.512  0.1022  0.5833  0.0167
  297MOL0     C40886  11.288   3.632   3.532  0.4995  0.8632  0.1164
  297MOL0     C40887  11.358   3.667   3.399 -0.1263  0.5562  0.2974
  297MOL0     C40888  11.482   3.749   3.404  0.5928  0.0260  0.2996
  297MOL0     C40889  11.539   3.793   3.273  0.5726  0.2408  0.3602
  297MOL0     C40890  11.652   3.893   3.288 -0.8730  0.7644 -0.8643
  297MOL0     C40891  11.698   3.949   3.156 -0.3040 -0.3637  0.2396
  297MOL0     C40892  11.612   4.065   3.113 -0.2295 -0.2093  0.2516
  297MOL0    Cl40893  11.626   4.203   3.226 -0.2882  0.0084 -0.2305
  297MOL0     C40894  10.839   3.582   3.545  0.2672 -0.5115 -0.8785
  297MOL0     C40895  10.716   3.544   3.507  0.2046  0.4901  0.3360
  297MOL0     O40896  10.493   3.654   3.209 -0.1774 -0.0345 -0.3653
  297MOL0     C40897  10.239   3.500   3.317  0.3307 -0.0142  0.4444
  297MOL0     C40898  10.106   3.464   3.283 -0.5237  0.5922  0.6600
  297MOL0     N40899   9.420   3.032   3.334 -0.8293 -0.3258  0.0256
  297MOL0     N40900   9.297   3.016   3.359  0.0644  0.4261 -0.3714
  297MOL0     C40901   8.004   3.040   2.815 -0.2185  0.3890 -0.6791
  297MOL0     C40902   7.914   2.932   2.826 -0.5899  0.5337  0.4803
  297MOL0     C40903   7.694   2.566   2.977 -0.8923 -0.2702 -0.1706
  297MOL0     C40904   7.575   2.569   3.054  0.0584  0.2892 -0.0061
  297MOL0     C40905   7.503   2.457   3.074  0.7982 -0.7303 -0.5897
  297MOL0     C40906   7.539   2.337   3.008  1.0040 -0.1278  0.2383
  297MOL0     O40907   7.453   2.227   3.016 -0.6068 -0.3699 -0.1049
  297MOL0     C40908   7.398   2.191   3.146 -0.0049 -0.5477  0.0001
  297MOL0     C40909   7.411   2.037   3.152 -0.4384  0.4642 -0.3464
  297MOL0     C40910   7.544   1.987   3.205  0.3673 -0.3896  0.2680
  297MOL0     C40911   7.539   1.837   3.242 -0.1864 -0.1459 -0.5180
  297MOL0     C40912   7.665   1.769   3.284 -0.6443 -0.0754 -0.4033
  297MOL0     C40913   7.767   1.711   3.322 -0.9312 -0.3081 -0.2788
  297MOL0     C40914   7.655   2.331   2.936 -0.4336 -0.2003  0.8137
  297MOL0     C40915   7.739   2.442   2.915 -0.0650  0.5393  0.7351
  297MOL0     C40916   7.856   2.415   2.819  0.4436  0.5626 -0.0276
  297MOL0     H40917   8.149   2.700   2.927  1.0545  1.3155  1.3913
  297MOL0     H40918   8.288   2.894   2.905  0.0825 -2.5821 -0.9047
  297MOL0     H40919   8.411   3.164   2.714  2.2819 -1.2855  0.1664
  297MOL0     H40920   8.362   2.995   2.738 -1.3788  0.2457  0.1062
  297MOL0     H40921   8.440   3.231   2.923 -0.5084 -0.0526 -1.5014
  297MOL0     H40922   8.384   3.075   2.997 -1.9550 -1.1640 -0.9829
  297MOL0     H40923   8.607   2.965   2.906  2.6986 -0.0557  2.2274
  297MOL0     H40924   8.642   3.127   2.838 -0.2374 -2.0481 -2.6446
  297MOL0     H40925   8.648   3.230   3.049  2.0101  0.2748  1.5080
  297MOL0     H40926   8.597   3.085   3.130  0.0731  0.0030  0.6110
  297MOL0     H40927   8.854   3.170   2.978 -0.5927  5.0886  2.7956
  297MOL0     H40928   8.812   2.990   3.012 -2.6744  0.0117  0.9569
  297MOL0     H40929   8.829   3.214   3.212 -3.6248 -1.9402 -0.3339
  297MOL0     H40930   8.832   3.044   3.246  0.9576 -1.1505 -1.4510
  297MOL0     H40931   9.065   3.162   3.097  1.0074  0.6935 -1.9295
  297MOL0     H40932   9.036   2.992   3.148 -0.3174  1.6696 -0.1086
  297MOL0     H40933   9.040   3.213   3.355 -0.2208  0.1043  1.0026
  297MOL0     H40934   9.037   3.043   3.381 -1.8133 -0.9788 -3.0004
  297MOL0     H40935   9.269   3.292   3.201 -0.1955  0.8020  2.5849
  297MOL0     H40936   9.539   3.233   3.099 -0.9039  1.3804  0.2543
  297MOL0     H40937   9.615   3.114   3.213 -1.3028 -0.8689 -0.1046
  297MOL0     H40938   9.552   3.393   3.310  0.1890  0.0875 -0.0761
  297MOL0     H40939   9.674   3.271   3.365 -1.6959 -4.4434 -1.5211
  297MOL0     H40940   9.707   3.404   3.100 -1.0047  0.6760 -0.2884
  297MOL0     H40941   9.754   3.475   3.254  1.8032  0.2066 -1.2415
  297MOL0     H40942   9.912   3.271   3.282  2.2085 -0.4529 -1.7039
  297MOL0     H40943   9.838   3.194   3.148  1.5177  0.2726 -1.6804
  297MOL0     H40944  10.178   3.377   2.963  1.1218  1.0709  0.0828
  297MOL0     H40945  10.408   3.340   2.948 -2.7639  0.7332 -1.5294
  297MOL0     H40946  10.513   3.474   3.019  1.1208 -2.1136 -1.9268
  297MOL0     H40947  10.382   3.504   2.902  3.0308 -0.7602 -1.7705
  297MOL0     H40948  10.758   3.567   3.167  1.5531 -1.0777  0.4325
  297MOL0     H40949  10.971   3.663   3.239 -0.1031  1.2858  0.8901
  297MOL0     H40950  11.102   3.521   3.599 -2.2963 -1.3598 -2.1573
  297MOL0     H40951  11.153   3.483   3.439 -0.0609  0.2052  0.4296
  297MOL0     H40952  11.291   3.721   3.596  3.1976  2.2532 -1.7176
  297MOL0     H40953  11.341   3.549   3.578 -3.3771 -1.6597  0.4226
  297MOL0     H40954  11.279   3.720   3.345 -0.7108  0.0578  0.6489
  297MOL0     H40955  11.382   3.581   3.336  2.2820  1.2738  0.1638
  297MOL0     H40956  11.554   3.684   3.454 -0.7793 -1.1856  0.7792
  297MOL0     H40957  11.462   3.832   3.472  0.5915 -0.4807  0.9187
  297MOL0     H40958  11.559   3.709   3.205 -2.7255  0.8131 -1.5115
  297MOL0     H40959  11.456   3.833   3.214  0.2400 -1.2840 -0.2686
  297MOL0     H40960  11.741   3.848   3.333 -1.3230  0.1018 -0.6273
  297MOL0     H40961  11.639   3.968   3.366 -0.4993 -1.5891  1.6225
  297MOL0     H40962  11.694   3.868   3.083  0.1037 -3.1427  3.0834
  297MOL0     H40963  11.803   3.979   3.168 -0.9665  0.8439  4.3150
  297MOL0     H40964  11.509   4.033   3.099 -0.2252  0.4004 -1.4525
  297MOL0     H40965  11.647   4.090   3.013  0.5827 -2.6260 -0.1232
  297MOL0     H40966  10.877   3.592   3.646 -0.1322  1.6014 -0.8930
  297MOL0     H40967  10.635   3.527   3.577 -0.1907  1.0361  0.0168
  297MOL0     H40968  10.263   3.539   3.415  2.1488 -2.1914  0.9686
  297MOL0     H40969  10.022   3.483   3.348 -1.4735 -1.1815  0.0201
  297MOL0     H40970   7.966   3.133   2.775  0.4285  1.4487  1.0848
  297MOL0     H40971   7.807   2.941   2.808 -0.0269  0.9215 -3.5476
  297MOL0     H40972   7.533   2.662   3.093 -0.4238  0.2272 -0.3593
  297MOL0     H40973   7.412   2.462   3.132  0.9760 -2.2788 -0.1241
  297MOL0     H40974   7.456   2.246   3.220  0.1546  1.0872 -1.2892
  297MOL0     H40975   7.296   2.229   3.152 -0.2396 -1.2444  0.5120
  297MOL0     H40976   7.382   1.982   3.062  0.3213  0.4389 -0.5824
  297MOL0     H40977   7.335   2.006   3.224  1.0368  0.2026  1.1367
  297MOL0     H40978   7.627   2.008   3.136 -1.1262 -0.8648 -1.7394
  297MOL0     H40979   7.562   2.044   3.297 -0.2117 -0.8096  0.6493
  297MOL0     H40980   7.506   1.773   3.159  1.9326 -1.8060 -0.1858
  297MOL0     H40981   7.462   1.827   3.319 -0.9814  1.8595 -0.9768
  297MOL0     H40982   7.847   1.657   3.368  0.1177  1.9625  0.7818
  297MOL0     H40983   7.671   2.239   2.879  0.8540  0.2404  0.4232
  297MOL0     H40984   7.949   2.452   2.862  0.5669 -1.3463  1.4682
  297MOL0     H40985   7.874   2.308   2.807  0.7741  0.5270  0.7720
  297MOL0     H40986   7.837   2.463   2.722 -0.8619  0.0674 -0.0470
  298MOL0     O40987   1.979  10.666   8.717  0.7997  0.4393  0.5558
  298MOL0     C40988   2.087  10.617   8.685  0.5653  0.5600  0.1921
  298MOL0     O40989   2.210  10.649   8.742 -0.2513  0.5663  0.2072
  298MOL0     C40990   2.200  10.756   8.836 -1.3868 -0.7537 -0.4646
  298MOL0     C40991   2.238  10.886   8.791 -0.2289 -0.7213 -0.4065
  298MOL0     C40992   2.241  10.997   8.886  0.5941  0.1906  0.4410
  298MOL0     C40993   2.196  10.990   9.011 -0.7262  0.7455 -0.1143
  298MOL0     O40994   2.206  11.086   9.107  0.3890  0.6942  0.1470
  298MOL0     C40995   2.251  11.214   9.071  0.3062 -0.8800 -0.6829
  298MOL0     C40996   2.195  11.322   9.170 -0.5772  0.0643 -0.0005
  298MOL0     C40997   2.048  11.334   9.175 -0.5210 -0.2543  0.7792
  298MOL0     C40998   2.000  11.376   9.317 -0.1391 -0.8490 -0.0937
  298MOL0     C40999   1.928  11.286   9.414 -0.8390 -0.0925  0.4791
  298MOL0     C41000   1.918  11.351   9.554  0.0004 -0.2693 -0.6491
  298MOL0     C41001   1.847  11.257   9.650  0.6169 -0.7775 -0.9910
  298MOL0     C41002   1.868  11.299   9.799 -1.2258  0.3736  0.7045
  298MOL0     N41003   1.814  11.197   9.885 -0.0625 -0.2879 -0.0415
  298MOL0     C41004   1.694  11.145   9.881 -0.3748 -0.7085 -0.2779
  298MOL0     C41005   1.677  11.065   9.993 -0.5204  0.4989 -0.1947
  298MOL0     C41006   1.556  10.992  10.033  0.2857  0.4931 -0.0797
  298MOL0     C41007   1.494  11.038  10.156  0.4179 -0.5433 -0.0802
  298MOL0     C41008   1.573  10.993  10.281 -0.1301 -0.0568  0.3915
  298MOL0     C41009   1.505  11.042  10.403  0.4776  0.5991  0.3189
  298MOL0     O41010   1.377  10.972  10.427 -0.3310 -0.5931  0.0179
  298MOL0     C41011   1.315  10.990  10.552 -0.2669 -1.1072 -1.5265
  298MOL0     C41012   1.189  10.930  10.571 -0.1399  0.9385  0.7472
  298MOL0     C41013   1.109  10.945  10.691 -0.3519 -0.7410 -0.1229
  298MOL0     C41014   0.966  10.883  10.690  0.3205  0.4010  0.6450
  298MOL0     C41015   1.164  11.026  10.791 -0.5164 -0.9731 -1.2460
  298MOL0     C41016   1.095  11.046  10.926 -1.0488 -0.1080  0.5484
  298MOL0     O41017   1.165  11.112  11.022  0.8794  0.2424 -0.0689
  298MOL0     C41018   1.102  11.134  11.144 -0.2078 -0.7597 -0.2054
  298MOL0     C41019   1.030  11.258  11.169 -0.0436  1.4917  0.4751
  298MOL0     C41020   0.976  11.279  11.296 -0.8203 -0.4686  0.4261
  298MOL0     C41021   0.982  11.181  11.401  0.1359 -0.2048 -0.3797
  298MOL0     O41022   0.931  11.213  11.527  0.1865 -0.0673  0.0855
  298MOL0     C41023   0.876  11.107  11.606  0.1619 -0.3161  0.2644
  298MOL0     C41024   0.982  11.060  11.698 -0.4500 -0.2706 -0.3097
  298MOL0     C41025   0.934  10.971  11.808 -0.8236 -0.0618 -0.4095
  298MOL0     C41026   1.035  10.968  11.919  0.1573  0.5712 -0.7760
  298MOL0     C41027   0.962  10.912  12.049  0.2395  0.0046 -0.3124
  298MOL0     C41028   0.894  10.776  12.029 -0.2867  0.4978 -0.6054
  298MOL0     C41029   0.887  10.707  12.160 -0.2502  0.1403 -0.2007
  298MOL0     C41030   0.774  10.609  12.168 -0.4796  0.4864 -0.4699
  298MOL0    Cl41031   0.825  10.447  12.124 -0.0377  0.2973  0.1482
  298MOL0     C41032   1.055  11.063  11.372 -1.0674 -0.4831  0.2517
  298MOL0     C41033   1.102  11.034  11.242 -0.4163  0.6842 -0.2778
  298MOL0     O41034   0.989  10.999  10.947 -0.1821 -0.1850 -0.3538
  298MOL0     C41035   1.287  11.099  10.771  0.5151  0.4522  0.2729
  298MOL0     C41036   1.363  11.080  10.654 -0.1864  0.3544 -0.2328
  298MOL0     N41037   1.800  11.061  10.053  0.4785 -0.0625 -0.0857
  298MOL0     N41038   1.881  11.130   9.981  0.0180 -0.0730  0.7690
  298MOL0     C41039   2.149  10.864   9.052  0.8069  0.2241  0.7423
  298MOL0     C41040   2.158  10.749   8.970 -0.0454  1.3508  1.0051
  298MOL0     C41041   2.094  10.514   8.575 -0.8106  0.2871  0.3871
  298MOL0     C41042   1.983  10.519   8.483  0.5777  0.5696  0.4474
  298MOL0     C41043   1.985  10.430   8.374  0.1733  0.3744 -0.1899
  298MOL0     C41044   2.088  10.346   8.350  0.3717  0.1862 -0.4660
  298MOL0     O41045   2.100  10.269   8.237 -0.0735  0.3413  0.5041
  298MOL0     C41046   2.014  10.277   8.122 -0.8049 -0.1107 -1.0537
  298MOL0     C41047   2.028  10.405   8.040 -0.0443 -0.0897 -1.1158
  298MOL0     C41048   2.168  10.416   7.970 -0.0983 -0.0106  0.1345
  298MOL0     C41049   2.186  10.558   7.917 -0.2516 -0.5994 -0.1612
  298MOL0     C41050   2.080  10.605   7.830  0.6123 -0.3192 -0.6961
  298MOL0     C41051   1.990  10.644   7.755 -0.1099  0.2169  0.2325
  298MOL0     C41052   2.190  10.344   8.441  0.4639 -0.7773 -0.1719
  298MOL0     C41053   2.197  10.416   8.560 -0.1209  0.1122  0.1295
  298MOL0     C41054   2.317  10.388   8.640  0.5070  0.3162 -0.8654
  298MOL0     H41055   2.267  10.901   8.687  0.0387  0.1743 -0.2158
  298MOL0     H41056   2.284  11.085   8.841  0.8884 -0.1538  0.0362
  298MOL0     H41057   2.209  11.238   8.973 -0.6948 -3.6019 -0.9988
  298MOL0     H41058   2.360  11.223   9.071  0.1362  3.7750  1.0794
  298MOL0     H41059   2.239  11.309   9.270  0.9593  1.0074 -0.5050
  298MOL0     H41060   2.227  11.422   9.137 -0.4948 -0.1880 -0.6847
  298MOL0     H41061   2.022  11.407   9.099  0.9809  0.2683  0.7463
  298MOL0     H41062   1.992  11.243   9.150 -0.9289  0.4173 -0.8311
  298MOL0     H41063   2.069  11.438   9.375 -2.6053  1.7691  0.2886
  298MOL0     H41064   1.923  11.447   9.284  1.1009  0.7690  0.3826
  298MOL0     H41065   1.984  11.193   9.429 -2.5339 -1.0959  0.7599
  298MOL0     H41066   1.826  11.282   9.376 -0.9260  3.9831 -0.2255
  298MOL0     H41067   2.018  11.383   9.585 -1.4269  1.8163  2.3414
  298MOL0     H41068   1.858  11.443   9.554  0.4959  0.0787  0.4991
  298MOL0     H41069   1.886  11.156   9.638  0.5747 -1.3219  2.4540
  298MOL0     H41070   1.738  11.262   9.635  0.8094  1.3446 -2.1467
  298MOL0     H41071   1.977  11.297   9.793 -1.3155 -0.5152 -1.5297
  298MOL0     H41072   1.827  11.395   9.831 -2.9393 -0.4866  1.2001
  298MOL0     H41073   1.622  11.175   9.805  0.5413 -0.0406 -0.9051
  298MOL0     H41074   1.589  10.888  10.043  0.7541  0.8745  4.0463
  298MOL0     H41075   1.479  10.998   9.956 -1.5110 -2.2686  1.3077
  298MOL0     H41076   1.495  11.147  10.163 -1.8508 -0.5004  0.1971
  298MOL0     H41077   1.392  10.999  10.162 -0.8362  1.7033 -3.6347
  298MOL0     H41078   1.573  10.883  10.280 -0.1232 -0.0581  0.5539
  298MOL0     H41079   1.677  11.027  10.287 -0.1179  0.6431 -2.4732
  298MOL0     H41080   1.566  11.027  10.493 -0.9550 -2.4208  0.9076
  298MOL0     H41081   1.492  11.149  10.385 -3.6537 -0.0173 -1.4569
  298MOL0     H41082   1.146  10.866  10.495 -1.9775 -1.6385  3.7019
  298MOL0     H41083   0.954  10.815  10.605 -0.9746 -1.1711  2.0402
  298MOL0     H41084   0.900  10.966  10.662 -0.3067  0.8321  3.2063
  298MOL0     H41085   0.944  10.834  10.785  1.6428 -2.1631 -0.2684
  298MOL0     H41086   1.017  11.328  11.087 -2.6693 -0.1807 -0.6504
  298MOL0     H41087   0.937  11.379  11.314  4.6250  2.0254  0.5795
  298MOL0     H41088   0.794  11.150  11.663  0.1234 -1.6144  1.2368
  298MOL0     H41089   0.834  11.026  11.545 -0.9394  2.0707 -2.3619
  298MOL0     H41090   1.059  11.005  11.642  0.9737  0.6515  0.6707
  298MOL0     H41091   1.029  11.149  11.740 -2.4355  1.4657 -1.5836
  298MOL0     H41092   0.903  10.869  11.781 -1.9618  0.3661 -0.7595
  298MOL0     H41093   0.850  11.011  11.865  0.8399  1.2250  1.2777
  298MOL0     H41094   1.084  11.065  11.930  0.9335 -0.0394  1.8667
  298MOL0     H41095   1.113  10.898  11.889 -1.6541 -2.1118  0.3726
  298MOL0     H41096   1.043  10.911  12.123 -0.8362  1.0132  0.9181
  298MOL0     H41097   0.887  10.986  12.076 -0.4823 -0.8735  0.1395
  298MOL0     H41098   0.938  10.707  11.956 -3.0492 -1.8935 -0.1982
  298MOL0     H41099   0.792  10.794  11.994 -0.8476  0.5928  1.0091
  298MOL0     H41100   0.867  10.787  12.232 -0.3878 -1.4568  1.6232
  298MOL0     H41101   0.976  10.655  12.196  0.4370  1.4466  0.0647
  298MOL0     H41102   0.694  10.642  12.102 -1.1085 -0.7298 -0.3531
  298MOL0     H41103   0.726  10.591  12.265 -1.9624 -0.6627 -1.3641
  298MOL0     H41104   1.095  10.992  11.444  4.1433  1.8085  0.0328
  298MOL0     H41105   1.144  10.939  11.209 -1.1945  0.1322  0.2648
  298MOL0     H41106   1.341  11.156  10.846  4.4289 -1.7483 -0.6296
  298MOL0     H41107   1.450  11.144  10.660 -0.7482  0.9927  2.6450
  298MOL0     H41108   2.114  10.848   9.154  1.6535 -1.0268  0.8644
  298MOL0     H41109   2.142  10.645   9.000 -0.9445  1.1711 -0.0289
  298MOL0     H41110   1.905  10.593   8.489  0.7479  0.7982 -0.0875
  298MOL0     H41111   1.904  10.422   8.302 -0.0253 -1.5182  0.1848
  298MOL0     H41112   2.046  10.188   8.067  0.7966 -0.2606  0.0453
  298MOL0     H41113   1.909  10.261   8.149 -0.5943  0.9851  0.5610
  298MOL0     H41114   2.006  10.494   8.099  0.9763  0.4005 -1.4541
  298MOL0     H41115   1.957  10.389   7.958 -1.5066 -0.2537  0.1356
  298MOL0     H41116   2.252  10.383   8.032 -1.9399 -2.5109  1.4649
  298MOL0     H41117   2.177  10.346   7.887 -0.6994 -2.1322  1.7730
  298MOL0     H41118   2.274  10.549   7.853  1.0580 -0.4911  1.5630
  298MOL0     H41119   2.204  10.624   8.002  1.1581 -0.8257 -0.2661
  298MOL0     H41120   1.909  10.681   7.694  1.2349  2.0714 -0.5534
  298MOL0     H41121   2.267  10.270   8.419  0.1671 -1.2938  0.4545
  298MOL0     H41122   2.334  10.473   8.707  1.2083  1.8067 -2.8312
  298MOL0     H41123   2.285  10.308   8.708  2.2613 -1.3026 -1.8395
  298MOL0     H41124   2.410  10.361   8.589  1.6725  1.1602  0.7031
  299MOL0     O41125  10.530   9.674   0.543  0.0873  0.8100  0.1368
  299MOL0     C41126  10.509   9.786   0.581  0.2330 -0.0478  0.2019
  299MOL0     O41127  10.571   9.840   0.691 -0.3749  0.8189  0.3356
  299MOL0     C41128  10.677   9.773   0.748 -0.2575 -0.4434  1.0844
  299MOL0     C41129  10.665   9.718   0.877 -0.2849  0.5040  0.4016
  299MOL0     C41130  10.763   9.661   0.949 -0.4142 -0.2626 -0.3287
  299MOL0     C41131  10.896   9.647   0.897 -0.3954 -0.2123  0.7184
  299MOL0     O41132  11.010   9.602   0.958  0.0180 -0.1186  0.2763
  299MOL0     C41133  11.003   9.592   1.102 -0.4504  0.7116  0.3415
  299MOL0     C41134  11.133   9.574   1.171  0.8427 -0.3832  0.6514
  299MOL0     C41135  11.105   9.556   1.319 -0.2470 -0.2831  0.0606
  299MOL0     C41136  11.236   9.513   1.393 -0.1882  0.5969  0.0849
  299MOL0     C41137  11.222   9.482   1.542 -0.5319  0.0248 -0.1866
  299MOL0     C41138  11.336   9.425   1.610 -0.4701  0.4794  0.1524
  299MOL0     C41139  11.306   9.371   1.750 -0.2672  0.3936 -0.1503
  299MOL0     C41140  11.283   9.484   1.845 -1.0143 -0.3683  0.0066
  299MOL0     N41141  11.418   9.545   1.866 -0.7889 -0.4182  0.1680
  299MOL0     C41142  11.506   9.501   1.968 -0.2999 -0.3134 -0.1753
  299MOL0     C41143  11.605   9.603   1.970  0.9851  0.2473 -0.1538
  299MOL0     C41144  11.708   9.632   2.071 -0.1078 -0.3814 -0.6621
  299MOL0     C41145  11.659   9.680   2.207  1.0506 -0.4323 -0.2670
  299MOL0     C41146  11.770   9.730   2.305  0.7485 -0.0111 -0.5508
  299MOL0     C41147  11.726   9.829   2.417  0.0478 -0.3433 -0.2830
  299MOL0     O41148  11.720   9.966   2.377  0.5736  0.1185 -0.0014
  299MOL0     C41149  11.799  10.063   2.432 -0.9125 -0.3559  1.0137
  299MOL0     C41150  11.789  10.184   2.366  1.2437  0.5806 -0.2578
  299MOL0     C41151  11.848  10.299   2.401 -1.3398 -0.0223 -0.1959
  299MOL0     C41152  11.824  10.406   2.312  0.1967 -0.1466  0.6654
  299MOL0     C41153  11.951  10.284   2.508  0.2420 -0.3050 -0.5218
  299MOL0     C41154  12.055  10.392   2.543  0.2395  0.5084  0.2118
  299MOL0     O41155  12.034  10.516   2.502  0.0055 -0.1385  0.0508
  299MOL0     C41156  12.137  10.603   2.529 -0.4295 -0.2472  0.2207
  299MOL0     C41157  12.262  10.593   2.469 -0.2676  0.0725  0.2389
  299MOL0     C41158  12.357  10.698   2.499  0.3167  1.5820 -0.3199
  299MOL0     C41159  12.330  10.807   2.577  0.2844 -0.6170 -0.1573
  299MOL0     O41160  12.428  10.901   2.581  0.4135  0.5092 -0.8146
  299MOL0     C41161  12.417  11.002   2.677  0.0679 -0.7439  0.6777
  299MOL0     C41162  12.528  11.110   2.648  0.2531  0.5382  0.0335
  299MOL0     C41163  12.669  11.062   2.679  0.3908  0.2357  0.4529
  299MOL0     C41164  12.697  11.046   2.833 -0.1610 -0.7410  0.1717
  299MOL0     C41165  12.833  10.998   2.871  0.1117 -0.2928 -0.4154
  299MOL0     C41166  12.875  10.851   2.837 -1.0113  0.6390  0.7212
  299MOL0     C41167  13.034  10.833   2.848  0.2294  0.4577 -0.0943
  299MOL0     C41168  13.102  10.885   2.720  0.0798 -0.7093 -0.5120
  299MOL0    Cl41169  13.061  10.783   2.600 -0.3730 -0.1864  0.7683
  299MOL0     C41170  12.203  10.807   2.646 -0.5451  0.4020 -0.6482
  299MOL0     C41171  12.108  10.708   2.620  0.0242 -0.5280  0.0231
  299MOL0     O41172  12.149  10.361   2.610 -0.7945 -0.2633  0.3875
  299MOL0     C41173  11.965  10.154   2.571 -0.4957  0.1740  0.0576
  299MOL0     C41174  11.881  10.046   2.539 -0.5090 -0.3840 -0.6975
  299MOL0     N41175  11.569   9.693   1.867  1.0773  0.3329 -0.7970
  299MOL0     N41176  11.462   9.660   1.809  0.2492  0.0558  0.0538
  299MOL0     C41177  10.911   9.702   0.762  0.1811  0.2441 -1.0988
  299MOL0     C41178  10.808   9.768   0.693  1.0359 -0.1870  0.0946
  299MOL0     C41179  10.415   9.869   0.504 -0.2328 -0.5878 -0.0951
  299MOL0     C41180  10.382   9.993   0.561  0.0679 -0.6678  0.5850
  299MOL0     C41181  10.270  10.072   0.510 -1.0105  0.0360 -0.3808
  299MOL0     C41182  10.219  10.037   0.393 -0.0846  0.7134  1.0115
  299MOL0     O41183  10.106  10.099   0.360  0.8937 -0.6775 -0.2985
  299MOL0     C41184  10.003  10.058   0.262  0.3634  0.2242 -0.6647
  299MOL0     C41185   9.884   9.997   0.345 -1.0131 -1.3152 -0.7647
  299MOL0     C41186   9.779   9.966   0.233 -0.4246 -0.4817  0.3675
  299MOL0     C41187   9.640   9.932   0.297  0.3100 -0.0704  0.0854
  299MOL0     C41188   9.538   9.915   0.191 -0.0385  0.3491  0.1188
  299MOL0     C41189   9.442   9.914   0.121  0.2297  0.4613  0.1095
  299MOL0     C41190  10.260   9.917   0.335 -0.5888  0.5495 -0.6284
  299MOL0     C41191  10.352   9.828   0.387  0.0480  0.7590 -0.3962
  299MOL0     C41192  10.359   9.698   0.317  0.5568  0.1104 -0.4995
  299MOL0     H41193  10.566   9.714   0.920 -0.5849 -0.2189 -0.3243
  299MOL0     H41194  10.748   9.602   1.038 -2.4172 -2.9001 -2.2671
  299MOL0     H41195  10.935   9.510   1.127  0.0454  0.3068  0.3878
  299MOL0     H41196  10.964   9.684   1.146 -1.9089  0.3547 -0.1344
  299MOL0     H41197  11.188   9.487   1.134 -0.2723 -0.7360 -0.2372
  299MOL0     H41198  11.194   9.663   1.149 -0.3720  0.7054  1.4889
  299MOL0     H41199  11.059   9.646   1.362 -0.6194 -1.7279  2.8575
  299MOL0     H41200  11.027   9.480   1.326 -1.8015  1.3938  2.7940
  299MOL0     H41201  11.275   9.424   1.342  0.6655  0.4957  0.8997
  299MOL0     H41202  11.315   9.587   1.376  1.2022 -0.8149  0.1093
  299MOL0     H41203  11.135   9.416   1.548 -0.0929 -0.6922 -1.3869
  299MOL0     H41204  11.185   9.570   1.596 -0.6297 -0.0899 -0.0650
  299MOL0     H41205  11.371   9.344   1.546 -2.8534  1.1335 -2.1321
  299MOL0     H41206  11.409   9.507   1.615 -0.6647  0.7682 -1.2502
  299MOL0     H41207  11.384   9.305   1.788 -0.6667  0.4313  0.7657
  299MOL0     H41208  11.216   9.309   1.750 -0.9167  1.3050  0.5261
  299MOL0     H41209  11.208   9.551   1.804 -0.1230 -1.1230 -3.1252
  299MOL0     H41210  11.235   9.443   1.934  1.5492  1.4701  2.4095
  299MOL0     H41211  11.488   9.416   2.033  0.9023  2.3857  4.0637
  299MOL0     H41212  11.772   9.710   2.030 -1.1640  0.6122 -0.4624
  299MOL0     H41213  11.778   9.548   2.082  1.2130  0.7769  0.0177
  299MOL0     H41214  11.583   9.759   2.212  0.5301 -0.9509  0.1609
  299MOL0     H41215  11.622   9.590   2.257  3.1747 -0.7462  0.8525
  299MOL0     H41216  11.805   9.646   2.366 -0.0862 -1.2291 -1.6866
  299MOL0     H41217  11.855   9.775   2.254  1.2631 -1.9053 -1.4631
  299MOL0     H41218  11.628   9.797   2.453 -0.9882  1.2493 -1.5884
  299MOL0     H41219  11.799   9.821   2.499 -1.0540 -0.5193  0.7027
  299MOL0     H41220  11.721  10.175   2.282  0.9420 -3.8909  0.2348
  299MOL0     H41221  11.722  10.446   2.325 -0.7089 -1.6138 -1.4324
  299MOL0     H41222  11.813  10.365   2.212 -0.9372 -0.6602  0.9749
  299MOL0     H41223  11.893  10.491   2.311 -1.7053  1.4913 -0.7942
  299MOL0     H41224  12.278  10.521   2.389 -2.0302  1.6769 -1.6980
  299MOL0     H41225  12.451  10.689   2.445  0.8227  0.2848  0.7326
  299MOL0     H41226  12.322  11.054   2.662  0.8904  0.1340 -2.0009
  299MOL0     H41227  12.432  10.966   2.780 -0.2551  1.0742  1.4032
  299MOL0     H41228  12.517  11.148   2.547  0.1811  2.6380  0.7916
  299MOL0     H41229  12.497  11.198   2.705 -2.1096 -1.1761  1.6197
  299MOL0     H41230  12.743  11.133   2.641  2.2825 -2.2575 -0.7642
  299MOL0     H41231  12.691  10.966   2.633  1.3327  1.0238 -0.8105
  299MOL0     H41232  12.620  10.988   2.885 -0.8058  1.3075  1.6184
  299MOL0     H41233  12.689  11.145   2.878 -0.8907 -0.1187 -1.2410
  299MOL0     H41234  12.912  11.064   2.835  1.3453 -1.6858 -0.3432
  299MOL0     H41235  12.843  11.013   2.979 -0.1043  2.3684 -0.6984
  299MOL0     H41236  12.859  10.822   2.733  4.2670  0.2504 -0.2682
  299MOL0     H41237  12.829  10.778   2.904  0.0725 -0.9207 -0.1666
  299MOL0     H41238  13.072  10.735   2.877  1.3771  0.5918 -1.0538
  299MOL0     H41239  13.067  10.895   2.932  2.2981  0.3291 -0.7679
  299MOL0     H41240  13.211  10.881   2.730  0.1707  0.9412 -0.5477
  299MOL0     H41241  13.068  10.986   2.695  0.0301 -0.6270 -0.1195
  299MOL0     H41242  12.177  10.893   2.707  0.7265  1.0984 -1.0258
  299MOL0     H41243  12.011  10.711   2.669 -0.2582  1.4629 -0.5834
  299MOL0     H41244  12.042  10.146   2.647 -0.2902 -2.2790 -0.3416
  299MOL0     H41245  11.904   9.954   2.593 -0.9802 -1.7139 -2.6474
  299MOL0     H41246  11.012   9.694   0.725  0.3692  1.3710 -0.8439
  299MOL0     H41247  10.829   9.818   0.599 -1.0169  2.9614  1.1484
  299MOL0     H41248  10.428  10.022   0.655  1.8211  0.8292 -0.6635
  299MOL0     H41249  10.235  10.157   0.568  0.5993 -0.7976  1.9765
  299MOL0     H41250   9.960  10.143   0.208 -0.7047 -0.6203 -1.1783
  299MOL0     H41251  10.037   9.981   0.193 -2.8547 -0.0201 -2.1783
  299MOL0     H41252   9.836  10.074   0.407  2.7451 -0.7262  1.7464
  299MOL0     H41253   9.913   9.914   0.409  1.7042 -0.1545 -0.3586
  299MOL0     H41254   9.763  10.050   0.165  1.4309  0.2731  0.7961
  299MOL0     H41255   9.812   9.875   0.180 -0.5910 -0.0489 -0.5056
  299MOL0     H41256   9.597  10.003   0.369 -2.1006 -0.5116 -0.8062
  299MOL0     H41257   9.642   9.838   0.351 -1.4971 -0.2469 -0.0804
  299MOL0     H41258   9.352   9.927   0.065 -2.7036  0.2305  4.2568
  299MOL0     H41259  10.222   9.879   0.240  3.8499 -1.1773 -1.9728
  299MOL0     H41260  10.287   9.689   0.236  3.7625  0.1363 -3.5816
  299MOL0     H41261  10.455   9.673   0.271  0.1319 -1.2762 -0.7066
  299MOL0     H41262  10.334   9.622   0.393 -1.1412 -1.6123 -2.6606
  300MOL0     O41263   6.352   9.035   5.473  0.1833 -0.0901  0.2223
  300MOL0     C41264   6.329   9.081   5.366 -0.5489  0.7244  0.3054
  300MOL0     O41265   6.404   9.156   5.297 -0.6739 -0.4932  0.2809
  300MOL0     C41266   6.508   9.222   5.359 -0.5128 -0.8119  0.3260
  300MOL0     C41267   6.631   9.236   5.285  0.2612  0.3109  0.0953
  300MOL0     C41268   6.734   9.318   5.326  0.9800 -0.4418  0.4027
  300MOL0     C41269   6.724   9.393   5.446  0.5023 -0.3071 -0.2557
  300MOL0     O41270   6.837   9.449   5.496 -0.3325 -1.1219  0.4060
  300MOL0     C41271   6.806   9.560   5.581  0.2666  0.5758  0.5798
  300MOL0     C41272   6.935   9.627   5.616  0.3043 -0.7785  0.3919
  300MOL0     C41273   6.906   9.758   5.699  0.0354  0.0726  0.7250
  300MOL0     C41274   7.041   9.807   5.752  0.7634 -0.6092 -0.6521
  300MOL0     C41275   7.031   9.914   5.853  0.4915  0.4072 -0.0844
  300MOL0     C41276   6.971   9.871   5.990  0.5414 -1.0977  0.7256
  300MOL0     C41277   6.995   9.968   6.105 -0.2000  0.5741  0.8692
  300MOL0     C41278   6.915  10.089   6.082  0.9685 -0.3784 -0.6613
  300MOL0     N41279   6.767  10.059   6.093 -0.2068 -0.3322  0.0740
  300MOL0     C41280   6.711   9.964   6.180 -0.4359  0.8384  0.0122
  300MOL0     C41281   6.589   9.934   6.125 -0.1732 -0.3902 -0.3908
  300MOL0     C41282   6.494   9.825   6.154 -0.3944  0.5019  0.3678
  300MOL0     C41283   6.408   9.858   6.280 -0.6170 -0.4849  0.0061
  300MOL0     C41284   6.300   9.958   6.236  0.1832  0.2237 -0.4589
  300MOL0     C41285   6.217  10.015   6.358  0.7502  1.1205 -0.2922
  300MOL0     O41286   6.126  10.118   6.315 -0.0913 -0.0914  0.3034
  300MOL0     C41287   6.010  10.082   6.245 -0.5144  0.1567 -0.0914
  300MOL0     C41288   5.949  10.189   6.181  0.2619 -0.0319 -0.0747
  300MOL0     C41289   5.832  10.168   6.104 -0.1393  0.1939  0.6485
  300MOL0     C41290   5.775  10.288   6.022 -0.5575 -0.3118 -0.5016
  300MOL0     C41291   5.770  10.042   6.100 -0.4100  0.0178  0.9725
  300MOL0     C41292   5.635  10.017   6.043  0.5243  1.6000  0.8485
  300MOL0     O41293   5.602   9.890   6.018 -0.1979 -0.7556  0.5053
  300MOL0     C41294   5.481   9.849   5.955 -0.3690  0.4239 -0.7081
  300MOL0     C41295   5.391   9.927   5.888 -0.3397  0.0058  0.3750
  300MOL0     C41296   5.285   9.874   5.824  0.4044  0.6833  1.0388
  300MOL0     C41297   5.267   9.733   5.830  0.0649  0.1305  0.5359
  300MOL0     O41298   5.170   9.669   5.755 -0.1224  0.3860 -0.2152
  300MOL0     C41299   5.031   9.715   5.781 -0.4337 -0.0739  0.4502
  300MOL0     C41300   4.958   9.635   5.877 -0.3972 -0.1460  0.1048
  300MOL0     C41301   4.807   9.650   5.860 -0.6488 -0.5064 -0.5739
  300MOL0     C41302   4.728   9.591   5.984  0.0062 -0.5636  0.3200
  300MOL0     C41303   4.575   9.597   5.977 -0.6945  0.1670  0.8447
  300MOL0     C41304   4.513   9.520   5.855 -1.0784  0.7540 -0.1407
  300MOL0     C41305   4.537   9.361   5.879 -0.4509 -0.4206  0.8824
  300MOL0     C41306   4.455   9.282   5.780 -0.0003 -0.1315 -0.0923
  300MOL0    Cl41307   4.283   9.270   5.833 -0.3319  0.0739 -0.2203
  300MOL0     C41308   5.358   9.644   5.889  1.6661 -0.1118 -0.7727
  300MOL0     C41309   5.464   9.709   5.956 -0.1721  0.0342  0.9431
  300MOL0     O41310   5.561  10.108   6.034  0.1452 -0.3653 -0.1624
  300MOL0     C41311   5.838   9.935   6.156  0.1137 -0.1365 -0.5815
  300MOL0     C41312   5.957   9.951   6.226 -0.3497 -0.3486  0.1274
  300MOL0     N41313   6.569  10.021   6.013 -0.8192  0.2364 -0.4572
  300MOL0     N41314   6.677  10.081   5.994  0.3058 -1.1425  0.0384
  300MOL0     C41315   6.601   9.372   5.524 -0.5431  0.2115 -0.2010
  300MOL0     C41316   6.497   9.291   5.483 -0.1748 -0.3135 -0.5498
  300MOL0     C41317   6.202   9.032   5.312  0.1981  1.3181  0.4796
  300MOL0     C41318   6.179   9.050   5.174 -0.3477  0.0611  1.3287
  300MOL0     C41319   6.063   9.018   5.106 -0.3286  0.6081 -0.6481
  300MOL0     C41320   5.956   8.966   5.173 -0.4588 -0.5616  0.9046
  300MOL0     O41321   5.848   8.951   5.091 -0.1083 -0.2481 -0.5213
  300MOL0     C41322   5.726   8.904   5.158 -0.9278  0.7383  0.6210
  300MOL0     C41323   5.611   8.870   5.056 -0.6303  0.2280  0.6485
  300MOL0     C41324   5.552   8.995   4.986  0.9698 -0.0674  0.6395
  300MOL0     C41325   5.464   8.950   4.866  0.3664 -0.0431 -0.3852
  300MOL0     C41326   5.548   8.891   4.752  0.7976 -0.5468  0.9111
  300MOL0     C41327   5.616   8.835   4.661  0.5512  0.1613  0.5128
  300MOL0     C41328   5.975   8.927   5.302 -0.7528 -0.8583  0.0839
  300MOL0     C41329   6.092   8.959   5.380 -0.5712 -0.5154  0.1708
  300MOL0     C41330   6.101   8.935   5.528 -0.0526 -0.1239 -0.5090
  300MOL0     H41331   6.633   9.188   5.187  1.2741 -0.0047  0.2565
  300MOL0     H41332   6.817   9.337   5.260  1.1658 -2.1235  0.1285
  300MOL0     H41333   6.751   9.527   5.669 -1.7835  0.1695 -0.7868
  300MOL0     H41334   6.738   9.629   5.530  0.2354  0.3898  0.3683
  300MOL0     H41335   6.984   9.558   5.685 -2.1821 -3.5677 -0.4191
  300MOL0     H41336   6.994   9.659   5.530 -2.0502  1.6113 -0.4798
  300MOL0     H41337   6.855   9.838   5.645  0.3412  0.9427  1.6902
  300MOL0     H41338   6.852   9.730   5.790  0.8780 -0.4513  1.0871
  300MOL0     H41339   7.107   9.731   5.796  1.2619 -0.8055 -1.6937
  300MOL0     H41340   7.099   9.850   5.670  2.6486 -1.9323 -0.1046
  300MOL0     H41341   6.974   9.996   5.807 -1.7722 -1.9551 -1.7789
  300MOL0     H41342   7.133   9.949   5.874  1.1003 -2.5735  2.7543
  300MOL0     H41343   6.865   9.850   5.974 -0.2014  2.7478 -0.4320
  300MOL0     H41344   7.014   9.773   6.015 -2.6812 -3.0171 -0.5087
  300MOL0     H41345   7.101   9.993   6.099  0.1819 -1.1675 -0.5642
  300MOL0     H41346   6.989   9.927   6.206  0.0669  0.4962  0.8540
  300MOL0     H41347   6.929  10.164   6.161 -3.2536  0.4149 -0.4414
  300MOL0     H41348   6.935  10.137   5.986  2.0063  0.2400 -0.1524
  300MOL0     H41349   6.764   9.915   6.261  1.1619  3.6096  0.7461
  300MOL0     H41350   6.549   9.736   6.184 -1.8343  0.2186  2.3961
  300MOL0     H41351   6.428   9.797   6.072 -1.7552  0.9365  1.2784
  300MOL0     H41352   6.364   9.764   6.314 -0.7521 -1.0081 -1.5132
  300MOL0     H41353   6.472   9.901   6.358 -0.8560 -1.9805  1.0715
  300MOL0     H41354   6.344  10.033   6.169  1.1209  0.5831  0.5481
  300MOL0     H41355   6.236   9.892   6.176  1.3630 -2.9711  1.5839
  300MOL0     H41356   6.162   9.933   6.405  3.8233 -1.0728 -0.2901
  300MOL0     H41357   6.293  10.059   6.422  0.6151  2.9311 -1.3188
  300MOL0     H41358   5.998  10.286   6.173  1.5896 -0.8445 -4.0090
  300MOL0     H41359   5.707  10.352   6.078 -0.0019 -0.3313  0.2086
  300MOL0     H41360   5.724  10.246   5.934 -0.8386 -2.2160  0.5080
  300MOL0     H41361   5.859  10.346   5.984  1.5530 -1.9306  1.3879
  300MOL0     H41362   5.396  10.035   5.885 -0.9220  0.1744  2.8123
  300MOL0     H41363   5.225   9.931   5.754 -0.6068 -1.6009 -0.0549
  300MOL0     H41364   5.025   9.819   5.815  3.2727  0.4747 -0.1712
  300MOL0     H41365   4.975   9.701   5.688  0.9968  0.9416 -0.6227
  300MOL0     H41366   4.989   9.531   5.860 -1.9917 -0.4313 -1.3777
  300MOL0     H41367   4.993   9.668   5.975  0.0279 -1.8802  0.5745
  300MOL0     H41368   4.779   9.591   5.772  0.1411  0.6922 -1.6586
  300MOL0     H41369   4.772   9.751   5.837  1.8923  0.4848 -0.3991
  300MOL0     H41370   4.751   9.644   6.077  3.7425 -0.7075 -0.3893
  300MOL0     H41371   4.760   9.487   5.994  1.2204 -0.0028  4.1467
  300MOL0     H41372   4.534   9.565   6.073  1.7511 -1.5796  1.3773
  300MOL0     H41373   4.556   9.702   5.950  1.0373  0.3569  0.2329
  300MOL0     H41374   4.557   9.539   5.757  1.3518 -3.3225 -0.0682
  300MOL0     H41375   4.407   9.543   5.851 -1.1466  0.3900 -0.4139
  300MOL0     H41376   4.513   9.328   5.980  2.8176 -2.9518  0.9987
  300MOL0     H41377   4.644   9.340   5.878 -0.2565  0.5383  0.5961
  300MOL0     H41378   4.493   9.180   5.773 -1.3900 -0.7532  0.7780
  300MOL0     H41379   4.459   9.340   5.688 -0.2151  0.0816  0.0296
  300MOL0     H41380   5.338   9.537   5.888 -1.2185  0.3563 -0.4752
  300MOL0     H41381   5.542   9.647   5.999 -1.1137 -1.7389  0.2034
  300MOL0     H41382   5.803   9.832   6.155 -2.3899  0.6531 -2.1656
  300MOL0     H41383   6.005   9.872   6.283 -1.7583 -3.0746 -2.2588
  300MOL0     H41384   6.585   9.400   5.628 -1.1022 -2.2788  0.4491
  300MOL0     H41385   6.412   9.270   5.547  2.3252 -1.3130  2.7201
  300MOL0     H41386   6.271   9.071   5.120 -0.3888 -1.8875  0.4145
  300MOL0     H41387   6.061   9.031   4.999 -2.8310  1.5925 -0.5465
  300MOL0     H41388   5.751   8.816   5.219  1.8633  1.3764  0.5326
  300MOL0     H41389   5.681   8.976   5.227 -1.9032  3.3255 -2.4864
  300MOL0     H41390   5.536   8.804   5.100  0.9218 -1.6952  0.5913
  300MOL0     H41391   5.650   8.805   4.976  0.8015  0.8432  0.8194
  300MOL0     H41392   5.491   9.043   5.063 -0.4463  0.6607 -0.8778
  300MOL0     H41393   5.633   9.058   4.948  1.4434 -1.6778 -1.2175
  300MOL0     H41394   5.400   9.034   4.833 -0.7700 -0.8344 -0.2530
  300MOL0     H41395   5.391   8.875   4.897 -0.5967  1.4922  1.2913
  300MOL0     H41396   5.668   8.774   4.590  2.5050 -2.1150  3.6075
  300MOL0     H41397   5.894   8.872   5.350 -0.8634 -1.0295 -0.2973
  300MOL0     H41398   6.188   8.875   5.556  0.8214 -0.3691 -3.4536
  300MOL0     H41399   6.105   9.035   5.570 -0.1649  0.8972 -2.7653
  300MOL0     H41400   6.014   8.876   5.560  1.7220 -1.9576  1.2009
  301MOL0     O41401   6.948   1.206   1.437 -0.1344  0.1469 -0.5051
  301MOL0     C41402   6.923   1.121   1.352 -0.4217 -0.2016 -0.0883
  301MOL0     O41403   7.008   1.089   1.254 -0.0144 -0.5081  0.4071
  301MOL0     C41404   7.140   1.121   1.284  0.3326 -0.1673  0.8486
  301MOL0     C41405   7.211   1.057   1.382 -0.9219  0.5881  0.3101
  301MOL0     C41406   7.351   1.065   1.389  0.9100 -0.2478 -0.3739
  301MOL0     C41407   7.415   1.149   1.295 -0.0989  0.6586  0.5109
  301MOL0     O41408   7.548   1.170   1.278  0.5065  0.2349  0.6398
  301MOL0     C41409   7.627   1.186   1.390 -0.8695  0.0699 -0.1289
  301MOL0     C41410   7.762   1.188   1.328  0.2843  0.2843  0.3844
  301MOL0     C41411   7.807   1.073   1.247  0.3897 -0.6965  0.2722
  301MOL0     C41412   7.950   1.104   1.201 -0.0260  0.2665 -0.2346
  301MOL0     C41413   7.994   1.009   1.086 -0.4969  0.1413  0.7750
  301MOL0     C41414   8.141   1.033   1.046  0.6762  0.1378  0.2317
  301MOL0     C41415   8.176   0.949   0.927  0.1619 -0.7128  0.2851
  301MOL0     C41416   8.125   1.001   0.799 -0.6828  1.2440 -0.2295
  301MOL0     N41417   8.188   0.921   0.690 -0.2759 -0.7776  0.7774
  301MOL0     C41418   8.115   0.844   0.605  0.3543  0.0355 -0.5071
  301MOL0     C41419   8.205   0.797   0.512 -0.0740 -0.6953 -0.0417
  301MOL0     C41420   8.180   0.687   0.407 -0.0302 -0.0566 -0.5722
  301MOL0     C41421   8.191   0.542   0.471 -0.2878  0.2781  0.4330
  301MOL0     C41422   8.328   0.503   0.520  0.1394  0.0040 -0.2382
  301MOL0     C41423   8.439   0.543   0.424 -0.3703  0.3661 -0.4631
  301MOL0     O41424   8.567   0.487   0.472  1.4413 -0.0522 -0.2792
  301MOL0     C41425   8.648   0.554   0.565 -0.4046  0.0555  0.0965
  301MOL0     C41426   8.619   0.674   0.634  0.6661  0.6991 -0.1009
  301MOL0     C41427   8.711   0.723   0.732 -0.1543 -0.0171 -0.6201
  301MOL0     C41428   8.672   0.856   0.794  0.9853 -0.1447  0.4078
  301MOL0     C41429   8.820   0.651   0.774 -0.1010  0.1654  0.6692
  301MOL0     C41430   8.909   0.705   0.878  0.1020 -0.0372  0.0045
  301MOL0     O41431   8.957   0.609   0.960  0.1178  0.1771 -0.7031
  301MOL0     C41432   9.044   0.634   1.057  0.0216 -0.5517  0.9633
  301MOL0     C41433   9.034   0.740   1.140 -0.2360 -0.1865 -0.0299
  301MOL0     C41434   9.148   0.774   1.211  0.7882  0.0231  0.1804
  301MOL0     C41435   9.264   0.698   1.212 -0.1599 -0.2078 -0.6091
  301MOL0     O41436   9.366   0.756   1.281 -0.5557 -0.4409 -0.3854
  301MOL0     C41437   9.467   0.660   1.315  0.2249 -0.0261  0.0579
  301MOL0     C41438   9.549   0.713   1.428  0.5388 -0.6006 -0.3594
  301MOL0     C41439   9.661   0.614   1.465 -0.0772 -0.4709 -0.6653
  301MOL0     C41440   9.779   0.676   1.545  0.5907 -0.4731 -0.0449
  301MOL0     C41441   9.893   0.586   1.555  0.4527  0.4807 -1.1700
  301MOL0     C41442  10.011   0.655   1.620 -0.3517  0.5874 -0.1877
  301MOL0     C41443  10.139   0.571   1.606 -0.7613  0.2180 -0.0724
  301MOL0     C41444  10.252   0.625   1.696  0.6270  0.3991  0.7203
  301MOL0    Cl41445  10.309   0.782   1.659 -0.2061 -0.0847 -0.1654
  301MOL0     C41446   9.267   0.573   1.143  0.1544  0.7492 -0.1165
  301MOL0     C41447   9.153   0.540   1.070 -0.1599 -0.0836 -0.0744
  301MOL0     O41448   8.943   0.823   0.867 -0.2523  0.0634 -0.4838
  301MOL0     C41449   8.842   0.523   0.710  0.6852 -0.4629 -0.2554
  301MOL0     C41450   8.756   0.475   0.611  0.3593 -0.1190 -0.6108
  301MOL0     N41451   8.333   0.851   0.534  0.1782  0.6306 -0.9916
  301MOL0     N41452   8.318   0.921   0.650 -0.6033 -0.4297  0.3720
  301MOL0     C41453   7.339   1.230   1.209  0.2603  0.2994  0.2965
  301MOL0     C41454   7.203   1.210   1.203  0.7429 -0.5505 -1.2762
  301MOL0     C41455   6.785   1.051   1.345 -0.8386  0.0053  0.2072
  301MOL0     C41456   6.673   1.135   1.372 -1.0236 -0.2078 -0.3157
  301MOL0     C41457   6.546   1.085   1.364 -0.4416 -0.0474 -0.0169
  301MOL0     C41458   6.514   0.948   1.343 -0.6472 -0.5741  0.8373
  301MOL0     O41459   6.393   0.889   1.343  0.2619 -0.2173 -0.8086
  301MOL0     C41460   6.284   0.960   1.408  1.3679  0.3991  0.3915
  301MOL0     C41461   6.165   0.859   1.432 -0.9517  0.2506  0.4401
  301MOL0     C41462   6.126   0.777   1.308  0.2173 -0.0186 -0.0684
  301MOL0     C41463   6.061   0.859   1.193  0.3536 -0.2769  0.1990
  301MOL0     C41464   5.946   0.941   1.231  0.0990 -0.3301 -0.4249
  301MOL0     C41465   5.852   1.023   1.248 -0.3511  0.4228 -0.3111
  301MOL0     C41466   6.621   0.871   1.316 -0.5714 -0.3648 -0.3151
  301MOL0     C41467   6.755   0.920   1.315  0.2251  0.7032  0.5363
  301MOL0     C41468   6.859   0.821   1.283  0.8982 -0.0260  0.5975
  301MOL0     H41469   7.168   0.977   1.442 -0.3019 -2.4788 -2.9628
  301MOL0     H41470   7.401   1.012   1.470 -1.3621 -3.7389 -1.0414
  301MOL0     H41471   7.615   1.107   1.465 -1.3788 -0.3417 -0.6336
  301MOL0     H41472   7.605   1.286   1.430  2.4427  2.6427 -4.0508
  301MOL0     H41473   7.759   1.273   1.259 -1.5719  0.3280  0.4727
  301MOL0     H41474   7.837   1.197   1.407  0.5858 -1.4502  0.3407
  301MOL0     H41475   7.812   0.987   1.314  1.5699  0.2157  1.4181
  301MOL0     H41476   7.738   1.050   1.165 -1.4127  2.6374  0.6927
  301MOL0     H41477   7.952   1.210   1.172  1.0492  0.6470  1.1390
  301MOL0     H41478   8.023   1.105   1.282 -1.8087  0.9040  1.4276
  301MOL0     H41479   7.937   1.045   1.000  0.9467  0.8549  0.0810
  301MOL0     H41480   7.972   0.905   1.109 -3.5881  0.8316  1.3108
  301MOL0     H41481   8.159   1.136   1.014 -0.2797  0.5696  1.0503
  301MOL0     H41482   8.215   1.013   1.124  1.3005 -0.3930 -0.4722
  301MOL0     H41483   8.126   0.853   0.945 -1.2855 -0.5053 -2.1029
  301MOL0     H41484   8.284   0.935   0.926  0.1568 -0.8987 -1.5664
  301MOL0     H41485   8.016   0.990   0.795 -0.6223  0.3618  0.4112
  301MOL0     H41486   8.144   1.109   0.793  2.2721  0.8293 -0.0613
  301MOL0     H41487   8.017   0.803   0.626  2.2946 -2.9329  4.6332
  301MOL0     H41488   8.260   0.695   0.332  0.6491  1.8288  0.2950
  301MOL0     H41489   8.083   0.701   0.358  0.1788 -0.0313 -0.9854
  301MOL0     H41490   8.112   0.528   0.545 -0.7083 -0.0853 -0.0720
  301MOL0     H41491   8.180   0.466   0.393 -1.3863  1.6884 -0.8353
  301MOL0     H41492   8.335   0.548   0.620 -4.7078  0.3497  0.1576
  301MOL0     H41493   8.320   0.398   0.550 -1.5171  0.5205  1.3449
  301MOL0     H41494   8.417   0.492   0.330 -1.1215 -0.8185  0.3256
  301MOL0     H41495   8.463   0.648   0.408  1.1341 -0.1404 -1.7342
  301MOL0     H41496   8.537   0.739   0.608 -0.4254  0.6252  2.7945
  301MOL0     H41497   8.728   0.937   0.747 -0.8530  0.6881 -0.4583
  301MOL0     H41498   8.677   0.856   0.903  2.8905 -2.1366  0.3987
  301MOL0     H41499   8.566   0.877   0.778  1.3040  0.6013 -0.8250
  301MOL0     H41500   8.947   0.803   1.125 -1.2520 -1.6407 -0.4105
  301MOL0     H41501   9.136   0.869   1.262 -2.3804  0.9611 -1.9517
  301MOL0     H41502   9.432   0.563   1.353  2.0937  0.0249  2.1215
  301MOL0     H41503   9.530   0.649   1.226 -1.3627 -1.0099 -1.0014
  301MOL0     H41504   9.588   0.808   1.391  0.8709 -0.4914  0.2609
  301MOL0     H41505   9.498   0.724   1.524  1.2789 -0.7646  0.0590
  301MOL0     H41506   9.697   0.564   1.375  3.3065 -1.7790  1.2419
  301MOL0     H41507   9.624   0.533   1.529  0.3386 -1.6303 -1.8492
  301MOL0     H41508   9.752   0.700   1.648  0.2965 -0.5303 -0.1076
  301MOL0     H41509   9.810   0.769   1.497 -2.8573  0.4719 -0.7083
  301MOL0     H41510   9.860   0.503   1.619  0.7631  1.9799  1.0451
  301MOL0     H41511   9.917   0.549   1.455  1.6181 -1.3421 -0.2883
  301MOL0     H41512   9.980   0.664   1.724  1.5207  1.2757  0.3437
  301MOL0     H41513  10.034   0.747   1.566  1.3603  0.7613  0.7929
  301MOL0     H41514  10.169   0.572   1.501  3.2702  1.9591  0.9110
  301MOL0     H41515  10.111   0.467   1.622  1.2496 -0.3663 -0.0362
  301MOL0     H41516  10.328   0.547   1.703 -1.9145 -2.2745  0.5730
  301MOL0     H41517  10.204   0.628   1.795 -1.1615  0.8375 -0.1246
  301MOL0     H41518   9.355   0.510   1.149 -0.9581 -0.7934  0.5443
  301MOL0     H41519   9.152   0.451   1.009  0.7826  0.9746 -1.6950
  301MOL0     H41520   8.931   0.473   0.749  0.2211 -1.8405 -0.8897
  301MOL0     H41521   8.783   0.376   0.576  0.9676  0.0015 -0.4972
  301MOL0     H41522   7.392   1.290   1.135  1.2102 -0.6252  0.1920
  301MOL0     H41523   7.146   1.269   1.131  0.7428 -1.1678 -1.7939
  301MOL0     H41524   6.688   1.240   1.391 -0.6284 -0.5125  1.1802
  301MOL0     H41525   6.460   1.151   1.375  0.7031  1.1395  2.5366
  301MOL0     H41526   6.314   0.980   1.511  0.6478 -0.3810  0.7646
  301MOL0     H41527   6.247   1.049   1.357 -1.4833  0.4116  2.2418
  301MOL0     H41528   6.082   0.904   1.486 -1.5787  0.5900 -0.7688
  301MOL0     H41529   6.212   0.785   1.497  0.0920 -1.2655 -1.8809
  301MOL0     H41530   6.218   0.737   1.264  0.8569  1.7521 -0.4279
  301MOL0     H41531   6.064   0.689   1.326  0.6052  0.1700  2.5151
  301MOL0     H41532   6.036   0.781   1.121  1.8085 -1.3902  0.8525
  301MOL0     H41533   6.119   0.940   1.147  0.6568 -1.2462 -1.2029
  301MOL0     H41534   5.776   1.096   1.265 -1.4911 -0.9391  0.6993
  301MOL0     H41535   6.605   0.767   1.291 -0.0917 -0.2267 -1.2350
  301MOL0     H41536   6.939   0.874   1.231 -2.8288  3.3842 -2.3138
  301MOL0     H41537   6.899   0.770   1.372  2.8613 -3.8520 -2.1980
  301MOL0     H41538   6.818   0.748   1.214  0.2714  1.4286 -0.6286
  302MOL0     O41539   4.610   4.710  10.355  0.1410 -0.9418  0.2201
  302MOL0     C41540   4.536   4.649  10.282  0.9451 -0.3010  0.6138
  302MOL0     O41541   4.571   4.585  10.160  0.2520  0.6023  0.3469
  302MOL0     C41542   4.704   4.579  10.133  1.0740  0.1211 -0.6106
  302MOL0     C41543   4.781   4.693  10.113  0.2088 -0.1848 -0.8872
  302MOL0     C41544   4.925   4.676  10.109 -0.2312  0.1264 -0.3343
  302MOL0     C41545   4.987   4.555  10.129 -0.1095  0.3098  0.9219
  302MOL0     O41546   5.123   4.527  10.133 -0.7667 -0.8031 -0.4510
  302MOL0     C41547   5.211   4.639  10.175  1.0347 -0.0424 -0.0846
  302MOL0     C41548   5.322   4.579  10.265  0.4574  0.6046  0.1588
  302MOL0     C41549   5.435   4.677  10.278 -1.1491  0.0929  0.0915
  302MOL0     C41550   5.558   4.595  10.317  0.0074  0.1548 -0.0367
  302MOL0     C41551   5.677   4.684  10.357 -0.7113 -0.9944  0.0830
  302MOL0     C41552   5.797   4.608  10.416 -0.7031  0.4339 -0.1847
  302MOL0     C41553   5.868   4.512  10.316  0.5173  0.9423 -0.2282
  302MOL0     C41554   5.948   4.576  10.199 -0.4170 -0.3540  0.1368
  302MOL0     N41555   6.053   4.664  10.247  0.5345  0.5285  0.1159
  302MOL0     C41556   6.162   4.619  10.313  0.8945  0.9575 -0.9059
  302MOL0     C41557   6.251   4.727  10.305  0.4494 -0.1954  0.6346
  302MOL0     C41558   6.374   4.738  10.390 -0.1056 -0.0803  0.3012
  302MOL0     C41559   6.507   4.725  10.313  0.0332 -0.2014  0.4411
  302MOL0     C41560   6.535   4.852  10.220 -0.0383 -0.5103  0.0585
  302MOL0     C41561   6.578   4.970  10.298  0.9263  0.6910  0.6189
  302MOL0     O41562   6.698   4.929  10.356  0.1756  0.3076  0.5074
  302MOL0     C41563   6.774   5.032  10.396 -0.0697 -1.0105 -0.4347
  302MOL0     C41564   6.891   5.061  10.328 -0.4998 -0.8074  0.2131
  302MOL0     C41565   6.987   5.157  10.380  0.7073 -0.9662  0.1023
  302MOL0     C41566   7.087   5.193  10.288  0.2115 -0.8247  0.6619
  302MOL0     C41567   6.958   5.227  10.499  0.3678  0.6142 -0.3055
  302MOL0     C41568   7.051   5.331  10.563  0.6001  0.1667  0.2840
  302MOL0     O41569   6.995   5.437  10.631  0.0848  0.5854  1.0871
  302MOL0     C41570   7.059   5.530  10.721 -0.3201 -0.0399  0.9856
  302MOL0     C41571   7.175   5.494  10.794 -0.0080 -0.6549  0.4160
  302MOL0     C41572   7.229   5.589  10.875 -0.4435 -0.2477  0.0766
  302MOL0     C41573   7.161   5.713  10.902 -0.6486 -0.5522 -0.2236
  302MOL0     O41574   7.206   5.807  10.989  0.1052 -0.2005 -0.5034
  302MOL0     C41575   7.343   5.833  10.998 -0.4720 -0.7568  0.8610
  302MOL0     C41576   7.355   5.955  11.088 -0.1356  0.8540 -0.6552
  302MOL0     C41577   7.314   6.086  11.011  0.1373 -0.2425 -0.2430
  302MOL0     C41578   7.163   6.117  11.014  0.7156  0.2711 -0.1823
  302MOL0     C41579   7.130   6.243  10.928  0.8235 -0.1657  0.1262
  302MOL0     C41580   6.987   6.276  10.935 -0.3159  0.0171 -0.1225
  302MOL0     C41581   6.961   6.420  10.894 -0.2298 -0.3117 -0.4133
  302MOL0     C41582   7.003   6.525  11.000  0.3977 -0.2843  1.0208
  302MOL0    Cl41583   6.885   6.533  11.132 -0.3919  0.0440 -0.0850
  302MOL0     C41584   7.040   5.747  10.843 -0.0319 -0.2446  0.4371
  302MOL0     C41585   6.993   5.650  10.748  0.4571 -0.2715 -0.6159
  302MOL0     O41586   7.173   5.311  10.550  0.1259  0.5514 -0.3370
  302MOL0     C41587   6.838   5.200  10.564 -0.6240  0.1083  0.5451
  302MOL0     C41588   6.741   5.107  10.510  0.2682 -0.0930 -0.0905
  302MOL0     N41589   6.173   4.832  10.250 -0.0365  0.1386 -0.2598
  302MOL0     N41590   6.054   4.792  10.213  0.2008  1.4000  0.3260
  302MOL0     C41591   4.906   4.442  10.129  0.2713 -0.3598  0.7848
  302MOL0     C41592   4.768   4.451  10.131  0.2681  0.6231  0.4664
  302MOL0     C41593   4.402   4.611  10.327 -1.2035 -0.0876 -1.0241
  302MOL0     C41594   4.377   4.475  10.328  0.5033 -0.3693  0.0168
  302MOL0     C41595   4.255   4.431  10.381  0.1709 -0.0649 -0.3925
  302MOL0     C41596   4.173   4.527  10.441  0.1624 -0.5439 -0.7160
  302MOL0     O41597   4.054   4.474  10.494 -0.1212 -0.3391 -0.2623
  302MOL0     C41598   3.940   4.553  10.526 -0.9508 -0.7818  0.6325
  302MOL0     C41599   3.889   4.622  10.393 -0.1357 -0.7299  0.4096
  302MOL0     C41600   3.797   4.533  10.314  0.4006 -0.1073  0.4546
  302MOL0     C41601   3.735   4.595  10.195  0.3199  0.0345  0.1081
  302MOL0     C41602   3.717   4.735  10.200 -0.1836 -0.1829  0.4083
  302MOL0     C41603   3.688   4.859  10.211 -0.7650  0.9172  0.9156
  302MOL0     C41604   4.199   4.668  10.443 -0.5873  1.3846  0.5841
  302MOL0     C41605   4.316   4.715  10.378 -0.6001 -0.3176 -0.4123
  302MOL0     C41606   4.349   4.860  10.351 -0.3158  0.1043 -0.0707
  302MOL0     H41607   4.725   4.786  10.108 -0.4755 -0.2411  2.7149
  302MOL0     H41608   4.973   4.770  10.086 -0.6394  0.4056 -0.0681
  302MOL0     H41609   5.157   4.720  10.225 -0.4427 -0.8533 -0.3100
  302MOL0     H41610   5.250   4.693  10.088  2.9658 -0.6057  0.3856
  302MOL0     H41611   5.274   4.553  10.360  0.8930 -3.9535 -0.6094
  302MOL0     H41612   5.371   4.490  10.223 -1.1486 -0.1429 -0.2177
  302MOL0     H41613   5.456   4.748  10.198  3.3099 -0.3469  0.5853
  302MOL0     H41614   5.403   4.734  10.366  3.0244  1.9174  0.6583
  302MOL0     H41615   5.538   4.527  10.400 -0.1945 -0.5157 -0.6298
  302MOL0     H41616   5.575   4.521  10.238 -1.7350 -1.3895  0.9447
  302MOL0     H41617   5.641   4.760  10.427  1.5498 -1.3104  1.7034
  302MOL0     H41618   5.714   4.741  10.272  1.0206  0.9304  1.9984
  302MOL0     H41619   5.868   4.680  10.458  1.0635 -1.3966  0.0982
  302MOL0     H41620   5.755   4.552  10.500  1.7826  0.9327  1.5050
  302MOL0     H41621   5.793   4.453  10.261  2.8918 -0.0742 -2.5885
  302MOL0     H41622   5.928   4.446  10.379 -1.2841 -1.3124 -0.7153
  302MOL0     H41623   5.995   4.506  10.130  1.2311 -1.0730  1.9057
  302MOL0     H41624   5.879   4.637  10.138  0.5701  1.5512  0.8356
  302MOL0     H41625   6.177   4.523  10.361 -0.3497  1.0475 -0.3072
  302MOL0     H41626   6.363   4.666  10.472  2.3619  0.3420  1.0751
  302MOL0     H41627   6.369   4.836  10.438  0.3084 -0.0050  0.1936
  302MOL0     H41628   6.590   4.723  10.385  1.5636 -1.4263 -1.2751
  302MOL0     H41629   6.508   4.639  10.246 -0.7872  0.8851 -1.0207
  302MOL0     H41630   6.606   4.830  10.140  0.4685 -0.7566  0.5722
  302MOL0     H41631   6.444   4.863  10.160  0.0886 -2.7793 -0.6583
  302MOL0     H41632   6.604   5.052  10.231 -0.9781  1.4008  0.6790
  302MOL0     H41633   6.505   5.007  10.371 -1.3159  0.9476 -1.5883
  302MOL0     H41634   6.923   4.995  10.248 -1.2405 -1.1575  0.1931
  302MOL0     H41635   7.048   5.185  10.187  1.5865 -0.1037  0.0448
  302MOL0     H41636   7.171   5.122  10.295  1.5440  0.7980  1.9566
  302MOL0     H41637   7.115   5.298  10.299 -2.3062 -0.0484  0.2566
  302MOL0     H41638   7.229   5.403  10.770  1.5700  0.7658 -1.8035
  302MOL0     H41639   7.316   5.561  10.932 -0.1679  1.3406  0.4902
  302MOL0     H41640   7.408   5.750  11.027  1.2951 -0.1518 -1.0773
  302MOL0     H41641   7.369   5.862  10.896  1.9695  0.7958  1.8179
  302MOL0     H41642   7.306   5.951  11.186  2.1010  2.5285  0.6327
  302MOL0     H41643   7.458   5.959  11.124 -0.2168 -2.5943  0.2788
  302MOL0     H41644   7.347   6.080  10.906 -0.0438  3.3285 -0.5972
  302MOL0     H41645   7.364   6.169  11.061 -2.4229 -0.4621  2.9694
  302MOL0     H41646   7.122   6.134  11.115  0.8778 -0.8570  0.0878
  302MOL0     H41647   7.104   6.033  10.976  0.7734  0.5951 -0.9943
  302MOL0     H41648   7.191   6.327  10.961  0.5506  0.8381 -1.8048
  302MOL0     H41649   7.158   6.224  10.824 -0.4399 -0.9582 -0.0924
  302MOL0     H41650   6.956   6.273  11.041 -2.8157 -0.1286 -0.7805
  302MOL0     H41651   6.926   6.205  10.878 -0.5787 -0.1471  0.3562
  302MOL0     H41652   6.855   6.446  10.887  0.2264  1.9053  0.3497
  302MOL0     H41653   7.013   6.443  10.800  0.1291 -1.4838 -0.5301
  302MOL0     H41654   7.002   6.622  10.949  0.6251  0.2610  2.0365
  302MOL0     H41655   7.101   6.504  11.044  2.4471  2.6972 -1.6508
  302MOL0     H41656   6.983   5.830  10.882 -0.4125 -0.9321  1.4002
  302MOL0     H41657   6.900   5.667  10.696 -0.3160 -1.4076  0.3297
  302MOL0     H41658   6.806   5.262  10.648 -1.4431  2.6174 -1.4807
  302MOL0     H41659   6.642   5.084  10.548 -1.6004  0.3791 -4.0919
  302MOL0     H41660   4.951   4.345  10.109  1.4396 -0.0333  1.7297
  302MOL0     H41661   4.708   4.364  10.154 -1.7640  2.5916  3.4175
  302MOL0     H41662   4.445   4.399  10.292 -0.1556 -1.4755  1.0539
  302MOL0     H41663   4.233   4.325  10.393  0.7797 -0.1411  0.1345
  302MOL0     H41664   3.866   4.483  10.564 -0.7845 -1.1417  0.3021
  302MOL0     H41665   3.976   4.626  10.599  0.4400 -1.8606  1.0496
  302MOL0     H41666   3.971   4.659  10.331 -0.8992 -1.1164 -0.8470
  302MOL0     H41667   3.841   4.712  10.434  0.3704 -0.7161  0.9777
  302MOL0     H41668   3.861   4.452  10.277  2.8277  0.6488  2.6600
  302MOL0     H41669   3.723   4.498  10.386  2.5647 -0.0845  2.8194
  302MOL0     H41670   3.636   4.554  10.173  0.3339 -0.4208  0.8752
  302MOL0     H41671   3.801   4.576  10.110 -1.2367  0.6980 -1.3258
  302MOL0     H41672   3.672   4.965  10.218  1.0839  1.3356 -0.5180
  302MOL0     H41673   4.134   4.738  10.493  1.0440  3.3590  0.0900
  302MOL0     H41674   4.400   4.885  10.258  0.3742  0.1090  0.2984
  302MOL0     H41675   4.262   4.926  10.340  1.7016  3.4941  2.3817
  302MOL0     H41676   4.409   4.911  10.427 -0.6327 -1.1643  1.0787
  303MOL0     O41677   6.810   3.591   6.124  0.3917  0.0787  0.3715
  303MOL0     C41678   6.737   3.674   6.178  0.1499  0.5624 -0.4309
  303MOL0     O41679   6.769   3.745   6.295 -0.4614 -0.2862  0.5654
  303MOL0     C41680   6.888   3.713   6.359 -0.1323 -0.0955  0.6653
  303MOL0     C41681   6.989   3.805   6.360 -0.0884  1.1445  0.2040
  303MOL0     C41682   7.106   3.779   6.424 -0.2240  0.3998  1.2507
  303MOL0     C41683   7.124   3.660   6.496  0.2221 -0.0445  0.0849
  303MOL0     O41684   7.241   3.620   6.565 -0.3549  0.7365  0.1359
  303MOL0     C41685   7.372   3.681   6.539  0.0775 -0.2494  0.2151
  303MOL0     C41686   7.467   3.573   6.576 -1.3623  0.3022 -1.0499
  303MOL0     C41687   7.614   3.605   6.577  0.0672 -0.1361 -0.4865
  303MOL0     C41688   7.687   3.475   6.608  0.1989 -0.0095  0.8812
  303MOL0     C41689   7.836   3.506   6.640 -0.6940  1.0976 -0.7643
  303MOL0     C41690   7.919   3.376   6.654  0.5311 -0.1056  0.7602
  303MOL0     C41691   7.985   3.330   6.525  0.2232 -1.1896  0.3472
  303MOL0     C41692   8.080   3.212   6.536 -0.5183  0.4974 -0.0792
  303MOL0     N41693   8.124   3.165   6.398 -0.2904  0.3414 -0.4146
  303MOL0     C41694   8.220   3.219   6.320 -0.0434 -0.4274  0.1346
  303MOL0     C41695   8.216   3.141   6.209  0.0214  0.1999  0.0471
  303MOL0     C41696   8.315   3.147   6.099 -0.2601 -0.0192  0.3907
  303MOL0     C41697   8.430   3.035   6.126  0.7566 -0.3865 -0.4005
  303MOL0     C41698   8.539   3.083   6.223  0.5395 -0.3852 -0.9315
  303MOL0     C41699   8.665   2.996   6.214 -0.2882 -0.2243 -0.5584
  303MOL0     O41700   8.745   3.038   6.318  0.1107  0.5672 -0.4312
  303MOL0     C41701   8.875   2.992   6.317  0.1847  0.7872  1.0902
  303MOL0     C41702   8.937   2.918   6.208 -0.7641  0.4754 -0.1758
  303MOL0     C41703   9.076   2.879   6.216  0.0486 -0.6133  0.6327
  303MOL0     C41704   9.135   2.829   6.088  0.5040 -0.1505  0.5814
  303MOL0     C41705   9.134   2.868   6.345 -0.0208 -0.1703 -0.1111
  303MOL0     C41706   9.272   2.815   6.375  0.9282  0.7908  0.4920
  303MOL0     O41707   9.313   2.801   6.506  0.2616 -0.7083  0.5243
  303MOL0     C41708   9.430   2.733   6.538 -0.1080 -0.7756 -0.1307
  303MOL0     C41709   9.515   2.796   6.629 -0.2197  0.8627 -0.1078
  303MOL0     C41710   9.641   2.750   6.668 -0.3034 -0.0327  0.0921
  303MOL0     C41711   9.697   2.633   6.610  0.1334 -0.2481 -0.0186
  303MOL0     O41712   9.825   2.595   6.632  0.3473  1.2052  0.5764
  303MOL0     C41713   9.880   2.600   6.762  0.8910  0.6945  0.6665
  303MOL0     C41714  10.020   2.666   6.752 -0.3280  0.0971  0.3708
  303MOL0     C41715  10.087   2.688   6.892 -0.2986 -0.4889 -0.1827
  303MOL0     C41716  10.189   2.571   6.916  0.0336 -0.6289  0.7563
  303MOL0     C41717  10.254   2.588   7.046  0.2980 -0.1055  0.1568
  303MOL0     C41718  10.364   2.483   7.060 -0.2791  0.3985  0.0938
  303MOL0     C41719  10.504   2.537   7.026 -0.6055 -0.2039 -0.5987
  303MOL0     C41720  10.626   2.443   7.071  0.4780 -0.4205 -0.5716
  303MOL0    Cl41721  10.778   2.539   7.102 -0.4910 -0.1564  0.0273
  303MOL0     C41722   9.616   2.570   6.508 -0.5616 -0.9212  0.3224
  303MOL0     C41723   9.486   2.618   6.477 -0.4991  1.0977 -0.4691
  303MOL0     O41724   9.327   2.766   6.283  0.6510  0.0144  0.6082
  303MOL0     C41725   9.067   2.928   6.455  0.4272  0.7956 -0.2807
  303MOL0     C41726   8.941   2.990   6.439  0.1668  0.7523 -0.0320
  303MOL0     N41727   8.126   3.034   6.230  0.2914 -0.1662 -0.5293
  303MOL0     N41728   8.078   3.046   6.353 -0.0466 -0.3447 -0.4113
  303MOL0     C41729   7.012   3.574   6.506  0.1018  0.1895 -0.0957
  303MOL0     C41730   6.894   3.596   6.433 -1.1881 -0.1624 -0.1137
  303MOL0     C41731   6.600   3.703   6.120  0.6541  0.3244 -0.1266
  303MOL0     C41732   6.539   3.822   6.163 -0.4425 -0.6116 -0.6191
  303MOL0     C41733   6.409   3.855   6.120 -0.0927  0.0578  0.1875
  303MOL0     C41734   6.341   3.768   6.040 -0.1741  0.8892  0.8342
  303MOL0     O41735   6.205   3.797   6.004 -0.1032  0.0652  0.3716
  303MOL0     C41736   6.122   3.692   5.954  0.5249  0.2831 -0.2584
  303MOL0     C41737   5.975   3.727   5.934 -0.1810  1.2699  0.2473
  303MOL0     C41738   5.961   3.819   5.809 -0.2026 -0.8128  0.2862
  303MOL0     C41739   6.009   3.967   5.830 -0.0637 -0.0628  0.7690
  303MOL0     C41740   5.942   4.051   5.726 -0.0049 -0.7503 -1.1989
  303MOL0     C41741   5.875   4.128   5.657  0.2375  0.7849  0.3713
  303MOL0     C41742   6.412   3.649   5.997 -0.6903 -0.1905 -0.4619
  303MOL0     C41743   6.542   3.615   6.032  0.2312 -0.5948 -0.1204
  303MOL0     C41744   6.600   3.489   5.969  0.0131 -0.7835 -0.3116
  303MOL0     H41745   6.967   3.894   6.301 -3.5598  1.5493  1.8448
  303MOL0     H41746   7.179   3.859   6.422 -0.0177  0.3463 -3.2274
  303MOL0     H41747   7.370   3.772   6.601  0.9794  1.8361 -2.5932
  303MOL0     H41748   7.381   3.717   6.436 -2.0754 -1.5991 -0.5077
  303MOL0     H41749   7.446   3.534   6.676  2.3097 -1.1661 -0.7134
  303MOL0     H41750   7.453   3.492   6.504  1.0951 -1.1270 -0.0241
  303MOL0     H41751   7.637   3.641   6.476 -0.5137 -1.5258 -1.1338
  303MOL0     H41752   7.642   3.681   6.650  0.5812 -0.3746 -0.4315
  303MOL0     H41753   7.646   3.437   6.702 -1.3753  1.2113  0.7400
  303MOL0     H41754   7.691   3.405   6.525  1.2819  4.0267 -2.8206
  303MOL0     H41755   7.829   3.569   6.729 -0.7019  0.2243 -0.1404
  303MOL0     H41756   7.891   3.560   6.562  0.0672 -1.0977 -1.8110
  303MOL0     H41757   7.991   3.400   6.733  1.2237  2.1138 -0.4603
  303MOL0     H41758   7.854   3.291   6.677 -1.1654  0.4431 -1.6117
  303MOL0     H41759   8.054   3.404   6.483  0.1546 -1.6758 -0.6656
  303MOL0     H41760   7.910   3.314   6.447  0.3931 -1.1881  0.1828
  303MOL0     H41761   8.167   3.230   6.600  0.1140 -3.8003  0.5470
  303MOL0     H41762   8.030   3.129   6.586  0.0810  0.4581  0.4646
  303MOL0     H41763   8.290   3.300   6.335 -0.4967  0.2226 -1.1596
  303MOL0     H41764   8.346   3.251   6.091  0.7972 -0.4424 -2.3232
  303MOL0     H41765   8.268   3.130   6.001 -2.1640 -1.6638  1.5075
  303MOL0     H41766   8.384   2.942   6.162 -0.0435  0.2523  0.2718
  303MOL0     H41767   8.479   3.003   6.033  1.4150 -1.3908  0.2666
  303MOL0     H41768   8.574   3.182   6.193  0.7128 -0.3610 -0.6560
  303MOL0     H41769   8.494   3.088   6.322  0.8671  0.3494 -0.8174
  303MOL0     H41770   8.648   2.889   6.232  0.5367 -0.4971 -1.2990
  303MOL0     H41771   8.707   3.002   6.113 -0.1547  1.6150 -0.4191
  303MOL0     H41772   8.881   2.898   6.117  0.6050  1.9479 -1.3838
  303MOL0     H41773   9.067   2.825   6.003 -0.5264  2.7044  1.1525
  303MOL0     H41774   9.181   2.730   6.096  0.0530 -0.3964  0.1423
  303MOL0     H41775   9.209   2.905   6.062 -0.2298  0.9648  1.6205
  303MOL0     H41776   9.479   2.898   6.641 -2.2248  0.5284 -2.5319
  303MOL0     H41777   9.693   2.801   6.749  0.3253 -1.4382  0.6097
  303MOL0     H41778   9.823   2.658   6.836 -2.6781 -0.6578 -0.7960
  303MOL0     H41779   9.895   2.496   6.795 -0.4787  0.8179  1.8042
  303MOL0     H41780  10.093   2.615   6.688  0.7143  0.6875  1.0441
  303MOL0     H41781  10.005   2.766   6.711 -0.7236 -0.3821 -0.6757
  303MOL0     H41782  10.011   2.690   6.971  0.1836  2.3717  0.3170
  303MOL0     H41783  10.143   2.782   6.886  0.2133 -0.8653 -1.8884
  303MOL0     H41784  10.257   2.567   6.831  0.0877  0.9777  0.6848
  303MOL0     H41785  10.137   2.475   6.912  0.7214 -0.9737 -0.0720
  303MOL0     H41786  10.292   2.689   7.066 -0.1016  0.2178 -0.6528
  303MOL0     H41787  10.174   2.573   7.119 -1.0543  2.1228 -0.7429
  303MOL0     H41788  10.339   2.396   6.999  1.6824  0.0977 -0.3459
  303MOL0     H41789  10.368   2.452   7.165 -0.1358 -0.8247 -0.2528
  303MOL0     H41790  10.518   2.633   7.076  2.0746 -1.2928  0.9476
  303MOL0     H41791  10.516   2.569   6.922  0.9001 -1.8454 -0.9821
  303MOL0     H41792  10.638   2.368   6.992 -1.2080  0.7624 -1.9991
  303MOL0     H41793  10.598   2.392   7.164 -1.1913  0.4941 -0.5429
  303MOL0     H41794   9.660   2.486   6.456 -1.5462 -0.0403 -2.0968
  303MOL0     H41795   9.427   2.573   6.398  1.5632 -2.1340 -0.3578
  303MOL0     H41796   9.118   2.939   6.550 -1.0555  1.1236  0.5057
  303MOL0     H41797   8.897   3.017   6.535  2.5489 -0.0059  1.3765
  303MOL0     H41798   7.026   3.485   6.566  1.8581  1.0558  0.8460
  303MOL0     H41799   6.807   3.531   6.439 -2.1081  1.1146  0.8554
  303MOL0     H41800   6.580   3.901   6.224  1.5491 -0.7959 -1.6325
  303MOL0     H41801   6.363   3.951   6.141  0.3495 -0.4922  4.8501
  303MOL0     H41802   6.167   3.635   5.872 -0.6818  0.0265 -0.7565
  303MOL0     H41803   6.124   3.613   6.030  0.7803 -0.0506 -0.6061
  303MOL0     H41804   5.927   3.771   6.022  0.0871 -0.0372  1.0737
  303MOL0     H41805   5.911   3.640   5.916 -1.4918  2.3222 -0.3932
  303MOL0     H41806   6.002   3.772   5.719  1.8112 -2.4402  1.9645
  303MOL0     H41807   5.852   3.818   5.798 -0.2415 -2.8561  0.4475
  303MOL0     H41808   6.116   3.977   5.810 -0.2026  2.0002  0.8590
  303MOL0     H41809   5.981   3.999   5.931 -1.3688 -2.0725  1.1022
  303MOL0     H41810   5.809   4.199   5.611 -1.4423 -0.7574  0.2369
  303MOL0     H41811   6.354   3.584   5.932 -1.4122  0.3393 -0.3723
  303MOL0     H41812   6.612   3.415   6.049  2.6165 -0.2664 -0.1370
  303MOL0     H41813   6.535   3.447   5.892 -3.1705  0.7486  1.3759
  303MOL0     H41814   6.702   3.492   5.928 -0.3735 -1.2046 -1.3236
  304MOL0     O41815  10.953   7.726  10.752 -0.0837  0.3277  0.7441
  304MOL0     C41816  10.924   7.803  10.841  0.0168  0.8436 -0.2312
  304MOL0     O41817  11.017   7.887  10.899  1.3609 -0.0315  0.9286
  304MOL0     C41818  11.150   7.851  10.879  0.9056 -0.4737 -0.1194
  304MOL0     C41819  11.214   7.758  10.958  0.7762  0.2090  0.0552
  304MOL0     C41820  11.353   7.739  10.948 -0.3969  0.1576 -0.1908
  304MOL0     C41821  11.432   7.809  10.850  0.0062 -0.2100  0.7536
  304MOL0     O41822  11.569   7.797  10.849  0.4621 -0.7533  0.1065
  304MOL0     C41823  11.623   7.716  10.732  0.3098 -0.1278 -0.0784
  304MOL0     C41824  11.764   7.655  10.747 -0.0145 -0.6641 -0.3375
  304MOL0     C41825  11.778   7.541  10.641  0.8233 -0.0434  1.0057
  304MOL0     C41826  11.912   7.468  10.646 -1.0638 -0.9344  0.5397
  304MOL0     C41827  11.916   7.392  10.519 -0.4431  0.4894  0.4429
  304MOL0     C41828  12.035   7.300  10.514  0.5331  0.9513 -1.2992
  304MOL0     C41829  12.009   7.199  10.404  0.0912  1.4069  0.6164
  304MOL0     C41830  12.002   7.260  10.259 -0.0708  0.3873 -0.3909
  304MOL0     N41831  12.122   7.319  10.191 -0.3917  0.5476 -0.8081
  304MOL0     C41832  12.252   7.260  10.185  0.6736  0.2622  0.1885
  304MOL0     C41833  12.333   7.354  10.127 -0.6768  0.2739 -0.5235
  304MOL0     C41834  12.472   7.335  10.085 -0.0320 -0.6129 -0.3417
  304MOL0     C41835  12.565   7.443  10.144  0.0909 -0.8922  0.0049
  304MOL0     C41836  12.692   7.455  10.061  0.1195 -0.1900  0.2626
  304MOL0     C41837  12.803   7.522  10.147  0.1245  0.8411  0.3776
  304MOL0     O41838  12.922   7.527  10.073 -0.0768  0.4311  0.1728
  304MOL0     C41839  13.033   7.576  10.135 -1.6032  0.5332 -0.1092
  304MOL0     C41840  13.159   7.519  10.082  0.1923  0.3190  0.0327
  304MOL0     C41841  13.282   7.544  10.144  0.4124  0.9428 -0.0121
  304MOL0     C41842  13.403   7.464  10.105  0.2502 -0.5472  0.6653
  304MOL0     C41843  13.282   7.640  10.259  0.2434 -0.3011 -1.3323
  304MOL0     C41844  13.399   7.669  10.347 -0.1607 -0.8681 -0.1387
  304MOL0     O41845  13.379   7.740  10.460  0.6971  0.1903 -0.2161
  304MOL0     C41846  13.474   7.774  10.550 -0.4574  0.2974 -0.5077
  304MOL0     C41847  13.453   7.886  10.623 -0.6577 -0.9162 -0.5696
  304MOL0     C41848  13.562   7.927  10.706  0.0225  0.2774 -0.0668
  304MOL0     C41849  13.682   7.855  10.723  0.2639 -0.3683 -0.1717
  304MOL0     O41850  13.781   7.899  10.803  0.0121 -0.4992  0.0548
  304MOL0     C41851  13.923   7.887  10.767  0.6481 -0.5280  0.1016
  304MOL0     C41852  13.989   7.795  10.880 -0.2175  0.2887 -0.1950
  304MOL0     C41853  14.129   7.761  10.844  0.5506 -0.6157 -0.7888
  304MOL0     C41854  14.187   7.668  10.951  1.4175  0.2574 -0.0301
  304MOL0     C41855  14.343   7.655  10.941 -0.3888 -0.1626  0.5222
  304MOL0     C41856  14.392   7.588  11.075  0.2627  0.1787  0.8670
  304MOL0     C41857  14.406   7.434  11.056 -0.1861 -0.3773 -0.3572
  304MOL0     C41858  14.477   7.377  11.186  0.5648 -0.0940  0.2562
  304MOL0    Cl41859  14.660   7.407  11.156 -0.2768  0.4420  0.2587
  304MOL0     C41860  13.688   7.737  10.647  0.1993  0.0176 -0.4568
  304MOL0     C41861  13.590   7.698  10.566 -0.7895  0.6452 -0.0867
  304MOL0     O41862  13.513   7.652  10.290  0.1967  0.1207  0.1554
  304MOL0     C41863  13.161   7.697  10.302 -0.3008  0.3550  0.0044
  304MOL0     C41864  13.046   7.662  10.245  0.1122  0.5136  0.3743
  304MOL0     N41865  12.255   7.456  10.080 -0.0444  0.0886 -0.2231
  304MOL0     N41866  12.132   7.432  10.115 -0.3193  0.2354  0.0494
  304MOL0     C41867  11.368   7.893  10.771 -0.2639  0.0606  0.4546
  304MOL0     C41868  11.229   7.916  10.791  0.2755 -0.6433  0.8993
  304MOL0     C41869  10.778   7.817  10.881  1.1139 -0.1394  0.3943
  304MOL0     C41870  10.741   7.941  10.929 -0.2776 -0.5409  0.1225
  304MOL0     C41871  10.614   7.960  10.972  0.4241 -0.3273 -0.3827
  304MOL0     C41872  10.516   7.865  10.951  0.2963 -0.4272  0.9364
  304MOL0     O41873  10.381   7.877  10.987 -0.4211 -0.4607 -0.3454
  304MOL0     C41874  10.315   7.985  10.925  1.0473 -0.9132 -0.3747
  304MOL0     C41875  10.299   8.101  11.025  0.4879 -0.2556 -0.1047
  304MOL0     C41876  10.218   8.064  11.154  0.1018 -0.7805 -0.5873
  304MOL0     C41877  10.317   8.021  11.271 -0.2172 -0.7130  0.3427
  304MOL0     C41878  10.250   7.950  11.374  0.1247  0.0228 -0.2587
  304MOL0     C41879  10.178   7.900  11.458  0.6153  0.0526 -0.6646
  304MOL0     C41880  10.552   7.747  10.894 -0.0144  0.1924 -0.8263
  304MOL0     C41881  10.675   7.724  10.843 -0.2889  0.8889 -0.4652
  304MOL0     C41882  10.697   7.583  10.794  0.4031 -0.7326 -0.0679
  304MOL0     H41883  11.158   7.720  11.043  0.8190  0.9713  0.4270
  304MOL0     H41884  11.409   7.684  11.023  0.7168  0.3274 -0.8650
  304MOL0     H41885  11.618   7.776  10.641  2.6728 -0.3844 -0.4327
  304MOL0     H41886  11.555   7.633  10.714 -1.1963  1.1856 -0.6961
  304MOL0     H41887  11.849   7.723  10.737  0.5000 -1.0765  1.0418
  304MOL0     H41888  11.756   7.615  10.848 -0.4560  0.2031 -0.0240
  304MOL0     H41889  11.696   7.473  10.664  1.5032 -0.6079  1.8151
  304MOL0     H41890  11.764   7.586  10.542  1.4801 -1.5273  0.2204
  304MOL0     H41891  12.003   7.529  10.651 -1.1547 -0.7215 -0.1987
  304MOL0     H41892  11.923   7.405  10.734 -1.3313  2.6770  3.4224
  304MOL0     H41893  11.916   7.460  10.433 -1.5975 -2.1264 -1.7575
  304MOL0     H41894  11.824   7.334  10.518 -0.5887  0.6599 -1.8007
  304MOL0     H41895  12.124   7.360  10.493  2.3961 -0.5966  1.5519
  304MOL0     H41896  12.056   7.251  10.610  2.6434  0.9634 -1.7098
  304MOL0     H41897  11.921   7.136  10.423  0.1124  0.5434 -1.8655
  304MOL0     H41898  12.094   7.131  10.401 -1.1832 -0.2392 -0.1697
  304MOL0     H41899  11.969   7.179  10.192 -0.0535 -1.5893  1.8674
  304MOL0     H41900  11.922   7.334  10.262 -0.8675 -0.4884  1.0027
  304MOL0     H41901  12.284   7.164  10.222 -1.6712 -0.5970  0.1106
  304MOL0     H41902  12.479   7.346   9.977  0.9772 -3.3439 -0.6483
  304MOL0     H41903  12.516   7.239  10.113  3.3072  0.7405 -0.5385
  304MOL0     H41904  12.511   7.536  10.161  0.3607 -0.6881 -0.2376
  304MOL0     H41905  12.591   7.403  10.242 -2.1287 -2.3730  0.0662
  304MOL0     H41906  12.713   7.357  10.016 -0.4317 -0.4544  0.5699
  304MOL0     H41907  12.679   7.527   9.980  0.4693  0.2700  0.6144
  304MOL0     H41908  12.767   7.624  10.165  1.6393  1.3213  0.7762
  304MOL0     H41909  12.826   7.467  10.239  1.7170 -1.0262 -1.0578
  304MOL0     H41910  13.157   7.451   9.997  1.0061 -1.1906  1.1791
  304MOL0     H41911  13.464   7.538  10.054 -0.4565 -1.7909 -2.2274
  304MOL0     H41912  13.380   7.398  10.020  1.6205 -0.4714  0.2253
  304MOL0     H41913  13.456   7.409  10.183 -0.4770  1.5112  2.7189
  304MOL0     H41914  13.360   7.942  10.619  0.2090  0.5103 -2.0220
  304MOL0     H41915  13.555   8.016  10.767 -0.1284 -0.0802  0.4376
  304MOL0     H41916  13.938   7.847  10.666 -0.8939 -0.6296 -0.1158
  304MOL0     H41917  13.963   7.987  10.781  2.3541 -1.4618  2.6681
  304MOL0     H41918  13.994   7.846  10.977  0.7487  2.2203 -1.1958
  304MOL0     H41919  13.928   7.705  10.892  1.4655 -0.7208  1.1568
  304MOL0     H41920  14.185   7.855  10.836  1.2083 -0.7805  1.1996
  304MOL0     H41921  14.131   7.713  10.746 -1.0896  0.8803 -1.6266
  304MOL0     H41922  14.137   7.571  10.946 -1.0842  1.5093 -1.1431
  304MOL0     H41923  14.158   7.713  11.046 -1.3508 -0.4607 -0.4469
  304MOL0     H41924  14.364   7.603  10.848  2.1052  2.2182 -0.3886
  304MOL0     H41925  14.371   7.760  10.930 -1.0638 -0.2126 -2.8087
  304MOL0     H41926  14.324   7.616  11.156 -1.5345  1.0252 -0.8453
  304MOL0     H41927  14.484   7.642  11.100  0.1598  2.4377 -2.7501
  304MOL0     H41928  14.472   7.406  10.972 -2.1385 -4.0507 -0.8949
  304MOL0     H41929  14.306   7.391  11.046  0.1491 -1.6388  1.3872
  304MOL0     H41930  14.456   7.272  11.208  2.5189 -0.3920  0.8537
  304MOL0     H41931  14.449   7.431  11.278  0.8464 -1.7995  1.3882
  304MOL0     H41932  13.778   7.677  10.645 -1.4405 -2.5965 -1.6175
  304MOL0     H41933  13.617   7.615  10.501 -0.6914  0.7822 -0.2231
  304MOL0     H41934  13.158   7.772  10.381 -0.9734 -1.0328  1.3413
  304MOL0     H41935  12.959   7.714  10.284  0.9905  1.1982  1.4855
  304MOL0     H41936  11.417   7.946  10.690 -1.9927 -0.1269 -0.7770
  304MOL0     H41937  11.183   7.990  10.727  3.2061 -0.5432 -1.3265
  304MOL0     H41938  10.817   8.017  10.946 -1.1153  0.1158  1.0461
  304MOL0     H41939  10.591   8.055  11.019  0.9219  0.0045 -0.7936
  304MOL0     H41940  10.362   8.025  10.835 -2.5430  3.1362 -0.7351
  304MOL0     H41941  10.210   7.961  10.902  0.2493  2.9781 -1.4105
  304MOL0     H41942  10.268   8.195  10.979 -1.5389 -1.2614 -0.9507
  304MOL0     H41943  10.399   8.131  11.058  1.0303  1.8276 -3.2200
  304MOL0     H41944  10.166   8.153  11.190  0.2157 -1.4638  1.3477
  304MOL0     H41945  10.134   7.994  11.145 -0.8128 -0.2886  2.9609
  304MOL0     H41946  10.366   8.108  11.315  1.7281 -1.5543 -0.0132
  304MOL0     H41947  10.395   7.958  11.225 -1.4186 -1.5499 -0.6109
  304MOL0     H41948  10.128   7.850  11.538  1.1667  0.0624 -0.3046
  304MOL0     H41949  10.473   7.672  10.894  0.8126 -0.6964 -0.7108
  304MOL0     H41950  10.610   7.523  10.767 -0.1185 -0.2264  0.4468
  304MOL0     H41951  10.757   7.585  10.703  1.4658 -0.9070  0.5968
  304MOL0     H41952  10.761   7.529  10.865  0.6865 -0.1110  0.1567
  305MOL0     O41953   4.388  10.547   8.735  0.4205  0.3538 -0.6041
  305MOL0     C41954   4.380  10.622   8.640  0.7442  0.0975  0.1385
  305MOL0     O41955   4.481  10.685   8.582  0.0643 -0.3105  0.3806
  305MOL0     C41956   4.607  10.710   8.637  0.3521  1.2899 -0.7810
  305MOL0     C41957   4.656  10.688   8.762 -0.0623 -0.3541  0.2302
  305MOL0     C41958   4.791  10.721   8.797  0.1646 -0.4259 -0.4303
  305MOL0     C41959   4.872  10.769   8.707 -0.3492  0.4648 -0.3569
  305MOL0     O41960   4.992  10.804   8.755 -0.3347 -1.3130 -0.2528
  305MOL0     C41961   5.099  10.791   8.664 -0.5703  0.4129  0.4370
  305MOL0     C41962   5.235  10.762   8.739 -0.0700 -0.3244  0.1147
  305MOL0     C41963   5.353  10.789   8.644 -0.2094 -0.0063  0.3582
  305MOL0     C41964   5.341  10.926   8.560 -0.2598 -0.2470 -1.2487
  305MOL0     C41965   5.482  10.946   8.491 -0.1260 -0.3191 -0.5326
  305MOL0     C41966   5.575  11.001   8.600 -0.8855 -0.1425  0.3831
  305MOL0     C41967   5.721  11.047   8.560  1.2099 -0.4015  0.4247
  305MOL0     C41968   5.786  11.117   8.682 -0.3013 -0.3557 -0.2989
  305MOL0     N41969   5.922  11.156   8.663 -0.2051 -0.4141  0.9126
  305MOL0     C41970   5.988  11.266   8.725  0.1255 -0.1709  0.0905
  305MOL0     C41971   6.119  11.246   8.701 -0.5968 -0.3034 -0.2581
  305MOL0     C41972   6.236  11.323   8.768 -1.1403 -0.0130 -0.0140
  305MOL0     C41973   6.199  11.470   8.790  0.7473  0.0027  0.2184
  305MOL0     C41974   6.296  11.547   8.869 -0.2436 -0.3927 -0.2093
  305MOL0     C41975   6.435  11.523   8.836 -0.8490 -0.0516 -0.3475
  305MOL0     O41976   6.512  11.633   8.895 -0.3504  0.7555 -0.1651
  305MOL0     C41977   6.644  11.649   8.866  0.7201 -0.2450 -0.0494
  305MOL0     C41978   6.720  11.745   8.938  0.7555  0.1745 -0.0878
  305MOL0     C41979   6.854  11.776   8.917 -0.1721 -0.1871 -0.9949
  305MOL0     C41980   6.916  11.878   9.010  0.3268  0.3033 -0.5072
  305MOL0     C41981   6.928  11.696   8.817  0.7483  0.7754  0.2389
  305MOL0     C41982   7.065  11.712   8.769 -0.3157 -0.9076  0.1410
  305MOL0     O41983   7.127  11.831   8.805 -0.0445 -0.4697 -0.0825
  305MOL0     C41984   7.240  11.879   8.752 -0.6863  0.2289 -0.1860
  305MOL0     C41985   7.341  11.816   8.676  0.3541  0.8668  0.7676
  305MOL0     C41986   7.451  11.881   8.618 -0.9055 -0.7105  0.0758
  305MOL0     C41987   7.464  12.021   8.626 -0.4973  0.5268  0.1898
  305MOL0     O41988   7.562  12.077   8.558  0.3204 -0.7036 -0.3016
  305MOL0     C41989   7.703  12.042   8.589  0.2603 -0.5069 -0.7006
  305MOL0     C41990   7.801  12.031   8.477 -0.0825  0.4075  0.2500
  305MOL0     C41991   7.753  11.935   8.363 -0.0820  0.2876  1.1503
  305MOL0     C41992   7.797  11.993   8.226  0.2395  0.5027  0.3350
  305MOL0     C41993   7.786  11.872   8.121  0.1839 -0.0895  0.2518
  305MOL0     C41994   7.768  11.921   7.979 -1.4201 -0.8390  0.8687
  305MOL0     C41995   7.769  11.799   7.880 -0.5077 -0.3944 -0.3597
  305MOL0     C41996   7.813  11.831   7.740 -0.4660  0.3383  0.0540
  305MOL0    Cl41997   7.990  11.872   7.735 -0.2910  0.3388 -0.3650
  305MOL0     C41998   7.361  12.091   8.691  0.1359  0.3529 -0.5509
  305MOL0     C41999   7.258  12.019   8.753 -0.9938  0.2901 -0.2200
  305MOL0     O42000   7.117  11.625   8.688 -0.7665  0.0976 -0.0216
  305MOL0     C42001   6.851  11.597   8.749 -0.2175 -0.9136  0.0476
  305MOL0     C42002   6.713  11.568   8.774  0.0483 -0.1431  0.0600
  305MOL0     N42003   6.132  11.125   8.634  0.0109  1.0014 -0.5685
  305MOL0     N42004   6.020  11.068   8.620  0.6842 -0.1003  0.0752
  305MOL0     C42005   4.830  10.775   8.572  0.6036  0.6925  0.0243
  305MOL0     C42006   4.696  10.771   8.547  1.1408  0.0378 -0.4807
  305MOL0     C42007   4.247  10.662   8.583  0.1004  0.7180 -0.3939
  305MOL0     C42008   4.232  10.703   8.449 -0.5890 -0.3496 -0.8022
  305MOL0     C42009   4.112  10.730   8.384 -0.1410 -0.0643 -0.6993
  305MOL0     C42010   3.996  10.743   8.462  0.7307  0.2283 -0.9124
  305MOL0     O42011   3.872  10.779   8.411 -0.2577 -0.6449  0.4823
  305MOL0     C42012   3.865  10.854   8.291  0.7317  0.5085  0.1029
  305MOL0     C42013   3.719  10.899   8.292  0.2812  0.3700 -0.7503
  305MOL0     C42014   3.680  10.955   8.162 -0.0285 -0.3431  0.8932
  305MOL0     C42015   3.528  10.996   8.159  0.1151 -0.8835 -0.4005
  305MOL0     C42016   3.449  10.874   8.132 -0.0665  0.1140 -0.4464
  305MOL0     C42017   3.377  10.782   8.129 -0.2763  0.0300 -0.6044
  305MOL0     C42018   4.009  10.718   8.602 -0.2423 -0.1617 -0.2210
  305MOL0     C42019   4.131  10.683   8.661 -0.5201  0.8304 -0.5300
  305MOL0     C42020   4.134  10.669   8.811 -0.9187  0.3012  0.0689
  305MOL0     H42021   4.592  10.654   8.842 -0.7962  0.5745  0.0578
  305MOL0     H42022   4.822  10.710   8.901 -1.2273 -0.7469 -0.0287
  305MOL0     H42023   5.103  10.881   8.602 -0.8612  0.2128  0.1225
  305MOL0     H42024   5.089  10.701   8.603  2.5638  1.4461 -1.8489
  305MOL0     H42025   5.248  10.829   8.825  1.5518 -0.0065 -0.3424
  305MOL0     H42026   5.220  10.660   8.774 -1.9952 -0.7384 -1.7247
  305MOL0     H42027   5.448  10.791   8.697 -0.7688  3.2078  1.4622
  305MOL0     H42028   5.354  10.707   8.572  0.5896 -0.3015  0.6956
  305MOL0     H42029   5.259  10.927   8.489 -2.0050  0.4572  0.6626
  305MOL0     H42030   5.324  11.010   8.628  1.8383  1.1231 -2.2833
  305MOL0     H42031   5.473  11.028   8.419 -0.8602  1.7053  1.7149
  305MOL0     H42032   5.521  10.850   8.458 -1.3618 -0.9898 -0.1051
  305MOL0     H42033   5.521  11.087   8.642 -0.3141  0.1125  0.5968
  305MOL0     H42034   5.583  10.938   8.689 -0.8942 -0.8957 -0.1393
  305MOL0     H42035   5.714  11.103   8.466 -2.4583  0.2182  0.9091
  305MOL0     H42036   5.784  10.960   8.540  1.7835  0.5618 -2.4425
  305MOL0     H42037   5.722  11.202   8.705  0.0090 -0.4541  0.9897
  305MOL0     H42038   5.783  11.041   8.761  2.0532 -2.3216 -1.9440
  305MOL0     H42039   5.943  11.349   8.779  0.3821 -1.9985  3.3185
  305MOL0     H42040   6.327  11.320   8.708  0.7975  1.2566  2.6537
  305MOL0     H42041   6.270  11.292   8.867  1.3167  2.5285  0.0630
  305MOL0     H42042   6.194  11.515   8.690  0.0228 -1.9589 -0.7016
  305MOL0     H42043   6.099  11.476   8.834 -1.5080 -2.9744 -3.7705
  305MOL0     H42044   6.263  11.651   8.856  1.6136  0.3555  0.6729
  305MOL0     H42045   6.276  11.508   8.970 -0.1667 -1.8456 -0.7279
  305MOL0     H42046   6.479  11.439   8.890 -1.9098 -0.7039 -0.4827
  305MOL0     H42047   6.453  11.506   8.729  1.8229 -1.6665  0.2656
  305MOL0     H42048   6.663  11.814   9.000 -1.7475  0.7544 -2.8331
  305MOL0     H42049   6.908  11.977   8.965 -4.4991  0.2828 -0.2303
  305MOL0     H42050   7.021  11.862   9.036  0.1484  0.7157  0.5265
  305MOL0     H42051   6.861  11.869   9.104 -3.3870  1.6486 -2.3512
  305MOL0     H42052   7.349  11.707   8.681  0.1329  0.7099 -1.3140
  305MOL0     H42053   7.522  11.821   8.563  0.1291  1.2192 -0.7846
  305MOL0     H42054   7.748  12.119   8.652  0.5424  0.4468 -2.0243
  305MOL0     H42055   7.700  11.941   8.631 -2.0491  0.2980  1.3207
  305MOL0     H42056   7.814  12.133   8.441 -1.8654  0.6867  0.2689
  305MOL0     H42057   7.897  11.994   8.513 -0.4058 -0.5941  0.1130
  305MOL0     H42058   7.645  11.922   8.371 -0.1693 -0.0610 -0.3667
  305MOL0     H42059   7.802  11.839   8.380  0.7444  1.0902  3.7150
  305MOL0     H42060   7.902  12.024   8.221 -0.3465  2.5089  0.0380
  305MOL0     H42061   7.723  12.070   8.205 -0.2761  0.6629  2.5230
  305MOL0     H42062   7.876  11.811   8.131 -1.9891 -3.4394  0.8605
  305MOL0     H42063   7.701  11.806   8.142  1.4554 -1.5673  0.8780
  305MOL0     H42064   7.841  11.999   7.958 -3.1398  0.8927  0.9738
  305MOL0     H42065   7.668  11.962   7.961 -0.6324 -0.2565 -2.9161
  305MOL0     H42066   7.662  11.778   7.868 -0.9083  2.6531 -4.0430
  305MOL0     H42067   7.827  11.725   7.936  1.7036  1.1771 -0.4497
  305MOL0     H42068   7.762  11.922   7.704 -1.0969 -1.3413 -3.8555
  305MOL0     H42069   7.791  11.749   7.672  3.3202  1.0511 -2.3641
  305MOL0     H42070   7.380  12.197   8.700  3.4066  0.4425 -5.1517
  305MOL0     H42071   7.206  12.096   8.810  1.1783 -0.1929  2.6665
  305MOL0     H42072   6.905  11.545   8.670  1.1779  1.9789 -1.0428
  305MOL0     H42073   6.668  11.489   8.714  1.3350 -1.1553  0.3809
  305MOL0     H42074   4.907  10.810   8.504  0.5676 -0.3366 -0.5776
  305MOL0     H42075   4.662  10.790   8.446 -0.9662  0.5873  0.2803
  305MOL0     H42076   4.318  10.703   8.383 -1.2150  3.0744 -1.7867
  305MOL0     H42077   4.105  10.774   8.285  0.3912  2.9763  0.4958
  305MOL0     H42078   3.936  10.937   8.289  1.6621 -0.2379  0.8578
  305MOL0     H42079   3.886  10.795   8.201  1.8505  3.5915 -1.8360
  305MOL0     H42080   3.695  10.971   8.371 -1.9711 -2.8291  1.7586
  305MOL0     H42081   3.657  10.816   8.327  1.1882 -0.8163 -1.8124
  305MOL0     H42082   3.748  11.039   8.144  0.6719 -0.5165  2.6043
  305MOL0     H42083   3.698  10.878   8.086  2.8975 -1.3541  2.4675
  305MOL0     H42084   3.514  11.067   8.077 -3.5492 -1.0981 -0.0955
  305MOL0     H42085   3.489  11.039   8.252 -1.6740  1.9702 -2.2925
  305MOL0     H42086   3.296  10.712   8.121 -1.0028  0.7431  0.2770
  305MOL0     H42087   3.920  10.736   8.662 -0.3771 -2.1011  0.2269
  305MOL0     H42088   4.042  10.700   8.862 -2.3858  0.5520 -2.5541
  305MOL0     H42089   4.154  10.565   8.840  1.3402  0.4726 -0.7103
  305MOL0     H42090   4.208  10.738   8.852 -0.3990 -1.0934  1.6181
  306MOL0     O42091   0.320   7.803   0.710 -0.3574 -0.0605 -0.2301
  306MOL0     C42092   0.303   7.925   0.702  0.3898 -1.3084 -0.0794
  306MOL0     O42093   0.401   8.023   0.701  0.2309 -0.0233  0.3530
  306MOL0     C42094   0.537   7.993   0.697  0.0911 -0.1644 -0.2273
  306MOL0     C42095   0.595   7.864   0.676  0.7455 -0.2280 -0.1664
  306MOL0     C42096   0.731   7.867   0.671 -0.8743  0.0052 -1.2139
  306MOL0     C42097   0.818   7.977   0.674 -0.5022  1.3223 -0.4036
  306MOL0     O42098   0.955   7.977   0.674 -0.2381  0.3565 -0.1412
  306MOL0     C42099   1.022   7.848   0.690  0.2381 -0.2332  0.6715
  306MOL0     C42100   1.166   7.878   0.695  0.6164  0.3399 -0.4044
  306MOL0     C42101   1.255   7.919   0.578 -0.2221  0.5710  0.4023
  306MOL0     C42102   1.371   8.011   0.631  0.2057 -0.0765  0.4709
  306MOL0     C42103   1.496   7.992   0.548  0.1051  0.0255 -0.2880
  306MOL0     C42104   1.472   8.032   0.394  0.7611 -0.4701 -0.2634
  306MOL0     C42105   1.578   7.954   0.321  0.4761  0.3104  0.3332
  306MOL0     C42106   1.576   7.995   0.172 -0.4821 -0.1626  0.1474
  306MOL0     N42107   1.663   8.107   0.142  0.3156  0.3727  0.3520
  306MOL0     C42108   1.749   8.167   0.223  0.7847  0.6080 -0.3872
  306MOL0     C42109   1.820   8.247   0.144 -0.5695  0.3828  0.1625
  306MOL0     C42110   1.927   8.343   0.191  0.5086 -0.1050  0.3923
  306MOL0     C42111   2.061   8.326   0.115  0.5778 -0.4470  0.5216
  306MOL0     C42112   2.170   8.419   0.174  0.0388 -0.0949  0.0710
  306MOL0     C42113   2.132   8.569   0.172  0.6518  0.2380  1.1301
  306MOL0     O42114   2.102   8.617   0.037  0.1857  0.7830  0.3084
  306MOL0     C42115   2.023   8.728   0.021  0.3828 -0.5503 -0.4462
  306MOL0     C42116   1.936   8.782   0.119 -0.1100 -0.0313  0.1947
  306MOL0     C42117   1.855   8.905   0.093  0.3407  0.5781 -0.2628
  306MOL0     C42118   1.753   8.935   0.193 -0.0847  0.0346  0.3167
  306MOL0     C42119   1.885   8.975  -0.028 -0.1503  0.5013  0.3037
  306MOL0     C42120   1.830   9.097  -0.072 -0.2770 -0.0082  1.6573
  306MOL0     O42121   1.816   9.128  -0.206  0.0453 -0.4004 -0.2181
  306MOL0     C42122   1.750   9.249  -0.238 -0.5118 -0.3840 -0.1011
  306MOL0     C42123   1.781   9.374  -0.187 -0.2804 -0.0751 -0.9860
  306MOL0     C42124   1.719   9.491  -0.228 -0.3605 -0.3448 -1.4130
  306MOL0     C42125   1.614   9.474  -0.315  0.5808 -0.3555 -0.0920
  306MOL0     O42126   1.534   9.571  -0.366 -0.6093  0.4354 -0.3727
  306MOL0     C42127   1.590   9.708  -0.359  0.0989  0.1078  0.3446
  306MOL0     C42128   1.529   9.792  -0.470 -0.3579 -0.4222  0.0620
  306MOL0     C42129   1.374   9.787  -0.463 -0.6141  0.0682  0.2462
  306MOL0     C42130   1.304   9.903  -0.534 -0.9543 -0.0235 -0.3421
  306MOL0     C42131   1.144   9.889  -0.539  0.2233 -0.2457  1.1728
  306MOL0     C42132   1.070   9.883  -0.408 -0.4494  0.2056 -1.3186
  306MOL0     C42133   1.086  10.012  -0.323 -0.2898  0.5353 -0.8353
  306MOL0     C42134   0.972  10.110  -0.336  0.2878  0.0843  0.3343
  306MOL0    Cl42135   0.825  10.044  -0.279  0.1012  0.5117 -0.4174
  306MOL0     C42136   1.577   9.343  -0.359  0.4955  0.4471  0.2508
  306MOL0     C42137   1.646   9.232  -0.319  0.2179  0.3271 -0.7281
  306MOL0     O42138   1.802   9.171   0.020 -0.0873  0.3226  0.4953
  306MOL0     C42139   1.977   8.919  -0.121 -0.3008  0.1466  0.2429
  306MOL0     C42140   2.038   8.790  -0.108  0.0095  0.6862 -0.6190
  306MOL0     N42141   1.796   8.219   0.013  0.5282  0.0013 -1.1365
  306MOL0     N42142   1.698   8.135   0.015 -0.0944  1.2726  0.1622
  306MOL0     C42143   0.760   8.100   0.669  0.2954 -0.3713 -0.5021
  306MOL0     C42144   0.615   8.111   0.679 -0.3359  0.0972 -0.5134
  306MOL0     C42145   0.166   7.967   0.664 -0.3121 -1.0486 -0.1667
  306MOL0     C42146   0.145   8.090   0.592  0.1162  0.4840 -0.3785
  306MOL0     C42147   0.015   8.126   0.562  0.1887  0.1021  0.7786
  306MOL0     C42148  -0.095   8.052   0.602  0.7867 -0.1846 -0.5783
  306MOL0     O42149  -0.221   8.097   0.564  0.5390 -0.2336 -1.2371
  306MOL0     C42150  -0.339   8.039   0.627  0.7538  0.8819 -0.3748
  306MOL0     C42151  -0.476   8.084   0.577  1.2525  0.1733  0.1794
  306MOL0     C42152  -0.484   8.086   0.428  0.5674  0.6827  0.9260
  306MOL0     C42153  -0.449   7.954   0.361 -0.4982 -0.7650  0.4320
  306MOL0     C42154  -0.540   7.859   0.418  0.5251  1.0712 -0.3923
  306MOL0     C42155  -0.624   7.784   0.462 -0.2844  0.5481  1.2192
  306MOL0     C42156  -0.078   7.938   0.683  0.2369 -0.3839 -0.2574
  306MOL0     C42157   0.057   7.898   0.715  0.2906  0.4749  0.0653
  306MOL0     C42158   0.067   7.787   0.821  0.7805 -0.1413  0.1723
  306MOL0     H42159   0.547   7.767   0.665  2.2692 -0.8621 -1.5958
  306MOL0     H42160   0.766   7.764   0.667 -0.9110 -0.0096 -1.1545
  306MOL0     H42161   0.998   7.780   0.607 -0.1062  1.1568 -0.4265
  306MOL0     H42162   0.983   7.792   0.775 -1.8344 -1.9626 -1.3014
  306MOL0     H42163   1.171   7.958   0.769 -0.9670  0.4273 -0.3606
  306MOL0     H42164   1.213   7.788   0.737 -0.5392 -0.1637 -0.1662
  306MOL0     H42165   1.307   7.829   0.545 -0.6848 -0.3202  2.0173
  306MOL0     H42166   1.197   7.964   0.496  0.8212  0.3785 -0.4736
  306MOL0     H42167   1.335   8.114   0.624 -0.0374 -0.2052 -0.3182
  306MOL0     H42168   1.400   7.984   0.733  3.1577 -1.8349 -0.6586
  306MOL0     H42169   1.515   7.884   0.551 -2.9351 -0.7575 -3.3001
  306MOL0     H42170   1.576   8.052   0.593  1.4629 -2.6608  1.1229
  306MOL0     H42171   1.372   7.999   0.364  0.1533  1.5528 -0.6189
  306MOL0     H42172   1.474   8.140   0.376  1.6339 -0.1511  1.5704
  306MOL0     H42173   1.538   7.853   0.322  1.9248 -0.4014 -2.5205
  306MOL0     H42174   1.676   7.949   0.367  1.1160 -2.8213 -1.1424
  306MOL0     H42175   1.589   7.902   0.117 -2.1394 -1.7483  2.2447
  306MOL0     H42176   1.474   8.028   0.150 -0.7939 -1.0055  0.3036
  306MOL0     H42177   1.756   8.149   0.330  0.7986 -2.5493 -0.8193
  306MOL0     H42178   1.950   8.343   0.298  0.2996 -0.5582  0.4413
  306MOL0     H42179   1.894   8.443   0.162  1.7181  0.1988  0.0322
  306MOL0     H42180   2.084   8.219   0.126  3.0047  0.1328  1.9232
  306MOL0     H42181   2.042   8.357   0.012 -1.3009 -1.4099  0.5379
  306MOL0     H42182   2.186   8.393   0.279 -2.6936 -0.0327  0.5842
  306MOL0     H42183   2.263   8.410   0.118  0.0502  1.8915 -0.2801
  306MOL0     H42184   2.044   8.592   0.232 -3.2126  2.3496 -4.4468
  306MOL0     H42185   2.220   8.627   0.201  1.3179 -0.2703  0.1823
  306MOL0     H42186   1.927   8.731   0.214 -0.7910 -2.7177 -1.2120
  306MOL0     H42187   1.770   9.023   0.255  0.0493 -1.3218  2.3148
  306MOL0     H42188   1.749   8.849   0.261 -0.5722 -1.1013 -1.1182
  306MOL0     H42189   1.656   8.943   0.144  0.5589  0.5205 -0.9255
  306MOL0     H42190   1.872   9.396  -0.132 -1.3010  0.6952  0.4395
  306MOL0     H42191   1.749   9.589  -0.191 -0.2157 -1.9624  3.4087
  306MOL0     H42192   1.563   9.770  -0.272 -2.3684  0.0445 -0.2928
  306MOL0     H42193   1.697   9.706  -0.380  0.1248 -2.3048  0.4348
  306MOL0     H42194   1.557   9.896  -0.451  1.8562 -0.6813 -1.5103
  306MOL0     H42195   1.567   9.762  -0.568  1.1315 -0.4658  0.6269
  306MOL0     H42196   1.351   9.783  -0.356 -0.0927 -0.0960  0.3537
  306MOL0     H42197   1.344   9.696  -0.517  0.9472  1.8325 -3.9889
  306MOL0     H42198   1.357   9.907  -0.629  0.8471 -0.7488  0.5945
  306MOL0     H42199   1.323   9.999  -0.484 -4.2116  0.3740  0.4078
  306MOL0     H42200   1.103   9.967  -0.604 -0.0764 -1.4797 -0.1745
  306MOL0     H42201   1.119   9.794  -0.588  1.6152 -1.2821  2.3481
  306MOL0     H42202   1.131   9.817  -0.346 -1.2893  0.4492 -0.1983
  306MOL0     H42203   0.966   9.848  -0.413 -1.2372  0.8515  4.0793
  306MOL0     H42204   1.186  10.056  -0.323  1.5043 -3.1569 -0.3243
  306MOL0     H42205   1.077   9.977  -0.220  2.0247  0.2371 -0.6795
  306MOL0     H42206   0.960  10.145  -0.439 -0.5704 -0.2354  0.3183
  306MOL0     H42207   0.992  10.203  -0.283 -0.8774  0.2035  0.6028
  306MOL0     H42208   1.488   9.336  -0.420 -0.9038 -0.3167  2.2741
  306MOL0     H42209   1.635   9.132  -0.361  2.0342 -1.8229  3.2876
  306MOL0     H42210   2.010   8.982  -0.203 -2.5682  1.2606  0.1135
  306MOL0     H42211   2.107   8.749  -0.181  0.3299 -1.4710  0.8023
  306MOL0     H42212   0.814   8.193   0.650  0.3823 -0.1699  0.6541
  306MOL0     H42213   0.577   8.210   0.701 -0.6940 -0.9275  4.9753
  306MOL0     H42214   0.224   8.152   0.550  1.4394 -1.9483 -1.7148
  306MOL0     H42215  -0.002   8.207   0.491 -1.6809 -3.0576 -2.7106
  306MOL0     H42216  -0.327   7.931   0.617  1.1866  0.7455  1.2614
  306MOL0     H42217  -0.340   8.052   0.736  0.2102  1.7035 -0.4602
  306MOL0     H42218  -0.500   8.186   0.608  1.5151  0.2575  0.1081
  306MOL0     H42219  -0.550   8.022   0.629  1.1996 -0.1321 -0.2562
  306MOL0     H42220  -0.582   8.125   0.399  1.3178 -1.0926 -5.5500
  306MOL0     H42221  -0.414   8.164   0.397  1.4042  0.2573  1.7235
  306MOL0     H42222  -0.344   7.922   0.363 -0.1355  0.2959 -0.4373
  306MOL0     H42223  -0.470   7.968   0.255 -0.9755 -1.1276  0.4738
  306MOL0     H42224  -0.700   7.719   0.502  0.9557 -1.6248  0.1915
  306MOL0     H42225  -0.155   7.866   0.707 -0.7690  0.8228  0.3086
  306MOL0     H42226  -0.035   7.752   0.842  0.8364 -0.0964  0.5245
  306MOL0     H42227   0.139   7.705   0.806  2.0530  0.6762  1.5709
  306MOL0     H42228   0.102   7.832   0.914 -0.4897  0.5162  0.3460
  307MOL0     O42229   3.269  11.419   8.100 -0.0457  0.4996 -0.2813
  307MOL0     C42230   3.263  11.505   8.187 -0.3925  0.3010 -0.4184
  307MOL0     O42231   3.325  11.492   8.314  0.4164  0.2248  0.3138
  307MOL0     C42232   3.437  11.419   8.314 -0.6845  0.2353  0.2986
  307MOL0     C42233   3.469  11.353   8.436 -0.2050 -1.1164 -0.0516
  307MOL0     C42234   3.585  11.278   8.443 -0.2697 -0.5481  0.2604
  307MOL0     C42235   3.680  11.276   8.349 -0.7309  1.6942  0.3843
  307MOL0     O42236   3.803  11.213   8.368 -0.2586  0.2458  0.2259
  307MOL0     C42237   3.841  11.200   8.507  0.1312  0.0885 -0.0145
  307MOL0     C42238   3.984  11.146   8.535 -0.7094  0.5176  0.5207
  307MOL0     C42239   4.018  11.137   8.693  0.1758 -0.6687  0.7370
  307MOL0     C42240   4.037  11.279   8.757 -0.0265  0.4803 -0.5092
  307MOL0     C42241   4.156  11.350   8.702 -0.0843 -0.2935  0.7859
  307MOL0     C42242   4.184  11.473   8.779 -0.9356 -0.3928  0.2301
  307MOL0     C42243   4.302  11.551   8.715 -0.9167 -0.7516  0.0623
  307MOL0     C42244   4.426  11.469   8.665 -0.4208 -0.1441 -0.5329
  307MOL0     N42245   4.544  11.558   8.630  0.9310  0.3833  0.0563
  307MOL0     C42246   4.669  11.528   8.675  1.0448 -0.7233  0.7229
  307MOL0     C42247   4.751  11.593   8.583 -0.7757  0.2112  0.5547
  307MOL0     C42248   4.898  11.588   8.583 -0.0072 -0.3122  0.3368
  307MOL0     C42249   4.958  11.734   8.588  0.2634 -0.0667  0.2111
  307MOL0     C42250   4.984  11.801   8.448 -1.0928 -0.8244 -0.5527
  307MOL0     C42251   5.092  11.727   8.369  1.1186 -0.6760  0.1620
  307MOL0     O42252   5.218  11.793   8.388 -0.0280 -0.6185 -0.5679
  307MOL0     C42253   5.332  11.759   8.311 -0.4420  0.7780  0.1847
  307MOL0     C42254   5.456  11.821   8.337 -0.4248 -0.5955 -0.0680
  307MOL0     C42255   5.575  11.780   8.269 -0.3042  0.3807 -0.3477
  307MOL0     C42256   5.699  11.855   8.305  0.2753  0.2713 -0.2479
  307MOL0     C42257   5.571  11.681   8.166  0.0819 -0.0729  0.0707
  307MOL0     C42258   5.689  11.621   8.094 -0.2813 -0.2344 -0.4712
  307MOL0     O42259   5.795  11.699   8.075 -0.6800 -0.1822  0.1675
  307MOL0     C42260   5.916  11.650   8.029 -0.8780  0.1566 -0.2211
  307MOL0     C42261   5.957  11.512   8.009  0.0240 -0.7485 -0.5571
  307MOL0     C42262   6.088  11.491   7.976  0.7821 -0.4827  0.2765
  307MOL0     C42263   6.175  11.593   7.946  0.0557  0.3987  0.6687
  307MOL0     O42264   6.297  11.557   7.904  0.7029  0.4078  0.0965
  307MOL0     C42265   6.390  11.655   7.847  0.5135  0.3626 -0.7418
  307MOL0     C42266   6.459  11.737   7.950  0.3805 -0.3761  0.4361
  307MOL0     C42267   6.581  11.797   7.877 -0.3594  0.0992  0.0343
  307MOL0     C42268   6.613  11.928   7.944  0.7853  0.1853 -0.1528
  307MOL0     C42269   6.747  11.982   7.906 -0.1919 -0.0883  1.2363
  307MOL0     C42270   6.746  12.001   7.750  0.8183  0.7562  0.7360
  307MOL0     C42271   6.864  12.092   7.709 -0.4164  0.7699  0.1181
  307MOL0     C42272   6.872  12.144   7.566 -0.0069 -0.0397 -0.6205
  307MOL0    Cl42273   7.028  12.227   7.541 -0.3185  0.1107 -0.2595
  307MOL0     C42274   6.131  11.723   7.952  0.6569 -1.2489  0.5774
  307MOL0     C42275   6.003  11.746   7.993 -0.4418  0.2732  0.4796
  307MOL0     O42276   5.676  11.506   8.062 -0.5933 -0.1654 -0.3871
  307MOL0     C42277   5.443  11.635   8.136 -0.7189  0.1665  0.3935
  307MOL0     C42278   5.329  11.669   8.202 -0.2925  0.7263  0.1050
  307MOL0     N42279   4.672  11.667   8.500  0.3707 -0.3558  0.2481
  307MOL0     N42280   4.545  11.642   8.524 -0.1476 -0.9460  0.7370
  307MOL0     C42281   3.658  11.347   8.235 -0.3031 -0.7491  0.0882
  307MOL0     C42282   3.536  11.416   8.219  0.3212  0.3707  0.6429
  307MOL0     C42283   3.163  11.612   8.179  0.1178 -0.9315  0.2914
  307MOL0     C42284   3.135  11.684   8.294 -0.0615 -0.5549 -0.4516
  307MOL0     C42285   3.029  11.776   8.305 -0.0806 -0.6154  0.4644
  307MOL0     C42286   2.951  11.804   8.191  0.2766  0.0069 -0.4515
  307MOL0     O42287   2.835  11.876   8.203 -0.6022  0.2461 -0.9266
  307MOL0     C42288   2.838  11.978   8.305 -0.2847  0.2779 -0.3401
  307MOL0     C42289   2.738  12.088   8.284 -0.5181  0.2992  0.2925
  307MOL0     C42290   2.597  12.029   8.257 -0.7958  0.0527  0.8429
  307MOL0     C42291   2.495  12.130   8.196  0.5937  0.3399 -0.3329
  307MOL0     C42292   2.550  12.185   8.073  0.5453  0.2003 -0.1743
  307MOL0     C42293   2.590  12.234   7.970  0.0692  0.2812 -0.0905
  307MOL0     C42294   2.977  11.740   8.072 -0.0921  0.4281  0.0769
  307MOL0     C42295   3.083  11.647   8.064 -0.2415  0.4811  0.4046
  307MOL0     C42296   3.094  11.574   7.926  1.4063  0.1285  0.5524
  307MOL0     H42297   3.415  11.376   8.528  0.0984  5.1733 -1.0110
  307MOL0     H42298   3.603  11.226   8.536  0.1925 -0.4662  0.2185
  307MOL0     H42299   3.774  11.123   8.547  0.9522 -0.5288  0.2117
  307MOL0     H42300   3.833  11.298   8.555  0.0514  0.5701 -0.9847
  307MOL0     H42301   3.992  11.047   8.490  0.1598 -0.8768  3.4489
  307MOL0     H42302   4.062  11.202   8.483  0.1891 -1.6504 -0.5823
  307MOL0     H42303   3.938  11.080   8.741  0.5234 -4.1729 -2.3635
  307MOL0     H42304   4.102  11.070   8.709  0.3898 -0.8790 -0.9998
  307MOL0     H42305   3.947  11.340   8.746 -0.3284  0.5291  1.7660
  307MOL0     H42306   4.052  11.255   8.862  0.6212 -2.1194 -1.1156
  307MOL0     H42307   4.151  11.371   8.595  1.6567  0.0755  0.7477
  307MOL0     H42308   4.246  11.287   8.702  0.8417  0.9837  1.1561
  307MOL0     H42309   4.094  11.534   8.790 -2.5602 -2.6892  0.3431
  307MOL0     H42310   4.219  11.443   8.878 -0.4345  0.6514  0.3887
  307MOL0     H42311   4.336  11.620   8.793 -2.3205 -2.1124  1.9516
  307MOL0     H42312   4.268  11.608   8.627  0.5535  1.5995  0.9276
  307MOL0     H42313   4.441  11.396   8.745 -3.0804  1.6397  1.7667
  307MOL0     H42314   4.399  11.418   8.572  0.2201  1.3332 -1.5601
  307MOL0     H42315   4.690  11.449   8.747 -1.7624 -1.8101  0.4551
  307MOL0     H42316   4.938  11.537   8.496  1.5523  0.6883  0.4162
  307MOL0     H42317   4.943  11.521   8.657 -2.7343 -2.5467  0.1399
  307MOL0     H42318   4.895  11.795   8.655 -1.1469  2.6784 -3.2959
  307MOL0     H42319   5.055  11.736   8.639  0.7985 -0.7591 -0.7764
  307MOL0     H42320   4.886  11.803   8.400 -1.6263  2.4586  0.3633
  307MOL0     H42321   5.009  11.907   8.463  0.4802 -1.5932  4.1984
  307MOL0     H42322   5.107  11.625   8.406 -1.7870 -0.0098  3.6999
  307MOL0     H42323   5.063  11.729   8.264  1.9788 -0.5347 -0.0814
  307MOL0     H42324   5.451  11.891   8.420 -4.1788  1.1226 -1.5320
  307MOL0     H42325   5.774  11.785   8.341  0.0827  1.5172  2.9056
  307MOL0     H42326   5.676  11.930   8.382  0.0973 -0.4454  0.4105
  307MOL0     H42327   5.736  11.917   8.222 -1.6917  2.0881  0.1168
  307MOL0     H42328   5.895  11.424   8.014  0.5646 -1.0518  2.9345
  307MOL0     H42329   6.123  11.388   7.976  0.5593 -0.6639 -2.8779
  307MOL0     H42330   6.458  11.595   7.787 -0.7427 -0.5201 -1.3207
  307MOL0     H42331   6.335  11.724   7.782 -0.8677 -1.7846 -1.9602
  307MOL0     H42332   6.390  11.811   7.991 -0.4656 -2.1377  2.3422
  307MOL0     H42333   6.481  11.668   8.032  2.4513  0.6507  0.8129
  307MOL0     H42334   6.562  11.809   7.769 -4.3245  0.3118  0.6096
  307MOL0     H42335   6.666  11.729   7.881 -0.2278  0.1751 -0.9935
  307MOL0     H42336   6.609  11.922   8.053 -1.0767 -1.9948 -0.2572
  307MOL0     H42337   6.535  11.999   7.917  1.0895  0.9436  0.9031
  307MOL0     H42338   6.755  12.082   7.949  0.7982  0.2866  0.2212
  307MOL0     H42339   6.830  11.917   7.934  0.8007 -1.1660 -3.3420
  307MOL0     H42340   6.652  12.045   7.715  1.3603 -0.8808 -3.3925
  307MOL0     H42341   6.756  11.904   7.700 -3.2748  1.2199 -1.4273
  307MOL0     H42342   6.952  12.034   7.737 -1.0121 -0.9651 -1.3697
  307MOL0     H42343   6.871  12.182   7.771  2.4247 -0.4724  1.7873
  307MOL0     H42344   6.780  12.198   7.545 -1.0423  0.8546  4.9208
  307MOL0     H42345   6.873  12.053   7.505  1.2718 -1.3363  1.2452
  307MOL0     H42346   6.187  11.812   7.926  0.8180 -1.2971  0.7610
  307MOL0     H42347   5.963  11.847   8.003 -1.1835  0.0734 -0.3226
  307MOL0     H42348   5.428  11.566   8.054  0.9206  1.0078 -0.6571
  307MOL0     H42349   5.234  11.633   8.163 -0.5229 -0.4105  1.5879
  307MOL0     H42350   3.735  11.356   8.159 -0.5463 -1.9988 -0.3268
  307MOL0     H42351   3.501  11.470   8.132 -2.4219 -0.8248  0.9313
  307MOL0     H42352   3.188  11.666   8.388 -0.2784 -0.7028 -0.3576
  307MOL0     H42353   3.005  11.814   8.404 -1.8844 -1.3007  0.3312
  307MOL0     H42354   2.821  11.921   8.397 -0.1638 -2.4557 -1.9110
  307MOL0     H42355   2.934  12.031   8.301  0.7241 -1.2802  1.3933
  307MOL0     H42356   2.767  12.145   8.195 -1.5986  1.1415  0.4598
  307MOL0     H42357   2.734  12.150   8.374 -1.0087  0.7806 -0.0481
  307MOL0     H42358   2.603  11.942   8.190  4.9359 -0.0243  0.9306
  307MOL0     H42359   2.564  11.988   8.353 -1.5554 -1.9398 -0.2020
  307MOL0     H42360   2.478  12.205   8.273  1.4807 -0.7853  1.0245
  307MOL0     H42361   2.407  12.066   8.182  0.9327 -0.4635  1.0369
  307MOL0     H42362   2.623  12.282   7.881  0.3183 -0.0293 -0.1660
  307MOL0     H42363   2.915  11.754   7.984  1.8575 -0.5870 -1.5450
  307MOL0     H42364   3.189  11.523   7.908 -0.7081 -4.4994  1.1078
  307MOL0     H42365   3.030  11.486   7.935  0.6894  0.6819  0.9510
  307MOL0     H42366   3.075  11.642   7.843  0.6197  0.1293  0.7241
  308MOL0     O42367   1.773  11.229   4.806 -0.2910  0.0606 -1.4601
  308MOL0     C42368   1.765  11.192   4.922  0.6545 -0.2593 -0.3523
  308MOL0     O42369   1.858  11.134   4.993 -0.1166  0.3663  0.0857
  308MOL0     C42370   1.995  11.131   4.956  0.1258 -0.2337 -0.4377
  308MOL0     C42371   2.088  11.097   5.052 -0.2224  0.8849  0.5658
  308MOL0     C42372   2.223  11.083   5.018  0.2292 -0.7524 -0.1549
  308MOL0     C42373   2.270  11.089   4.884 -0.0164  0.1789  0.2239
  308MOL0     O42374   2.401  11.058   4.855 -0.4207  0.0815 -0.3854
  308MOL0     C42375   2.498  11.093   4.957 -0.0657  0.3641  0.2467
  308MOL0     C42376   2.639  11.080   4.895 -0.1713  0.6874  1.0421
  308MOL0     C42377   2.748  11.063   4.998  0.0543 -0.5994 -0.0499
  308MOL0     C42378   2.896  11.049   4.948  0.5353 -1.1572 -0.3645
  308MOL0     C42379   2.995  11.032   5.067  0.0710 -0.0483 -1.4028
  308MOL0     C42380   3.029  11.163   5.146 -0.5363  0.6508 -0.0865
  308MOL0     C42381   3.124  11.129   5.264  0.0576  0.3055  0.0214
  308MOL0     C42382   3.269  11.126   5.228 -0.7680  0.5516  0.0982
  308MOL0     N42383   3.357  11.140   5.342  0.2064  0.2976 -1.1378
  308MOL0     C42384   3.410  11.034   5.421  0.9320  0.1790 -0.3067
  308MOL0     C42385   3.507  11.095   5.500 -0.7380 -0.5575 -0.1595
  308MOL0     C42386   3.605  11.020   5.590  0.0972  0.7363  0.1474
  308MOL0     C42387   3.739  10.978   5.524 -0.7070 -0.1684  0.0302
  308MOL0     C42388   3.804  11.092   5.443 -0.4501 -0.5977  0.3019
  308MOL0     C42389   3.949  11.057   5.392 -0.2443 -0.2423  0.4077
  308MOL0     O42390   4.016  11.178   5.373  0.7818 -0.3947  0.3274
  308MOL0     C42391   4.140  11.170   5.315 -0.0210  0.0909 -1.2880
  308MOL0     C42392   4.237  11.078   5.341 -0.0732  0.5291 -1.0935
  308MOL0     C42393   4.370  11.086   5.304 -0.3502 -0.7040 -0.0319
  308MOL0     C42394   4.445  10.966   5.352  0.6383 -0.6407 -0.0854
  308MOL0     C42395   4.416  11.207   5.244  0.9396 -0.5169  1.2573
  308MOL0     C42396   4.551  11.223   5.202 -0.7283  0.6817  0.1553
  308MOL0     O42397   4.618  11.118   5.189  0.1400  0.7457 -0.3682
  308MOL0     C42398   4.737  11.121   5.120 -0.1872 -0.5660 -0.2749
  308MOL0     C42399   4.855  11.108   5.185  0.1667 -0.3106 -0.4334
  308MOL0     C42400   4.974  11.110   5.115  0.4150  0.1091  0.2250
  308MOL0     C42401   4.970  11.116   4.971 -0.9577  0.2229  0.0021
  308MOL0     O42402   5.094  11.099   4.905  0.6198  0.0921 -0.4026
  308MOL0     C42403   5.109  11.185   4.789 -0.4043 -0.5334  0.4773
  308MOL0     C42404   5.263  11.193   4.760 -0.1582 -0.5491 -0.6296
  308MOL0     C42405   5.295  11.293   4.645 -1.1353 -0.0001 -0.3933
  308MOL0     C42406   5.297  11.213   4.521  0.0681  0.7662  0.1909
  308MOL0     C42407   5.300  11.301   4.394 -0.2350  0.1315  1.0995
  308MOL0     C42408   5.434  11.381   4.365 -0.5998 -0.5700  0.4771
  308MOL0     C42409   5.391  11.491   4.259 -0.4322  0.3684 -0.1027
  308MOL0     C42410   5.500  11.601   4.246 -0.0145  0.2252 -0.1959
  308MOL0    Cl42411   5.640  11.544   4.151  0.1344  0.0264 -0.8396
  308MOL0     C42412   4.846  11.139   4.905 -0.8797 -0.3487  0.0018
  308MOL0     C42413   4.729  11.129   4.979 -0.8835  0.2525  0.8105
  308MOL0     O42414   4.593  11.335   5.189 -0.1380  0.6352 -0.4170
  308MOL0     C42415   4.321  11.309   5.224  0.5722 -0.2727 -0.4883
  308MOL0     C42416   4.186  11.296   5.268 -0.0167  0.5820  0.2141
  308MOL0     N42417   3.507  11.229   5.473  0.5585 -0.6662 -0.0011
  308MOL0     N42418   3.410  11.258   5.385 -0.4702  0.5558  0.0022
  308MOL0     C42419   2.181  11.116   4.784 -0.4960 -1.0254 -0.4001
  308MOL0     C42420   2.051  11.140   4.827 -0.2246 -0.8765  0.3287
  308MOL0     C42421   1.629  11.217   4.990  0.3809 -0.1429  0.2637
  308MOL0     C42422   1.622  11.166   5.115 -0.8563  0.0114  0.6716
  308MOL0     C42423   1.513  11.186   5.192  0.3685 -0.5090 -0.2345
  308MOL0     C42424   1.395  11.254   5.144 -0.0401  0.9390 -0.2318
  308MOL0     O42425   1.275  11.277   5.214 -0.3792 -0.5390  0.4877
  308MOL0     C42426   1.284  11.302   5.354  0.1981  0.8732 -0.0751
  308MOL0     C42427   1.163  11.363   5.415  0.4424  0.1958 -0.2931
  308MOL0     C42428   1.036  11.289   5.365  0.7665 -0.2594 -0.4377
  308MOL0     C42429   0.903  11.325   5.438  0.4170 -0.6330 -0.0981
  308MOL0     C42430   0.791  11.234   5.399 -0.1992 -0.0206 -0.6207
  308MOL0     C42431   0.713  11.141   5.368 -0.5963  0.2093  0.3306
  308MOL0     C42432   1.407  11.303   5.018 -0.3633 -0.6871 -0.1520
  308MOL0     C42433   1.516  11.294   4.944 -0.0241 -0.4580  1.0300
  308MOL0     C42434   1.514  11.366   4.813  0.0081 -0.0294  0.0982
  308MOL0     H42435   2.067  11.111   5.157  1.4582 -0.1663  1.0875
  308MOL0     H42436   2.288  11.064   5.103 -1.5709  1.0006  1.7322
  308MOL0     H42437   2.484  11.017   5.034 -1.5584 -0.7188 -1.0177
  308MOL0     H42438   2.480  11.191   5.000 -0.9808 -0.3883  1.6639
  308MOL0     H42439   2.645  11.010   4.812  2.5989  0.4217  1.3747
  308MOL0     H42440   2.654  11.172   4.837  0.7628 -0.9141 -1.3834
  308MOL0     H42441   2.740  11.153   5.061  0.0954 -0.5104 -0.1722
  308MOL0     H42442   2.733  10.980   5.068 -0.5941 -0.4448 -0.0014
  308MOL0     H42443   2.896  10.962   4.882  1.4417 -1.2267 -0.2879
  308MOL0     H42444   2.922  11.139   4.893  1.7970 -0.5920  1.0821
  308MOL0     H42445   3.085  10.987   5.023 -0.7178 -3.0104 -0.2640
  308MOL0     H42446   2.951  10.958   5.135  0.5575 -0.6701 -1.7481
  308MOL0     H42447   3.080  11.235   5.082  2.8423 -1.0884  0.4642
  308MOL0     H42448   2.938  11.207   5.190  0.8155  0.7422  2.8669
  308MOL0     H42449   3.091  11.030   5.296  0.7154  0.4411  1.1837
  308MOL0     H42450   3.095  11.194   5.348  2.0259  0.7194  0.4279
  308MOL0     H42451   3.287  11.029   5.180 -0.5048  0.0230  1.2433
  308MOL0     H42452   3.299  11.207   5.161 -1.2545  2.1358  1.7033
  308MOL0     H42453   3.379  10.930   5.414 -0.9437  0.7380 -0.7992
  308MOL0     H42454   3.549  10.946   5.648  0.9223  1.1078  1.4533
  308MOL0     H42455   3.629  11.091   5.670 -0.8758  0.3934  0.7672
  308MOL0     H42456   3.802  10.937   5.604 -1.2892 -0.4692  0.3450
  308MOL0     H42457   3.710  10.900   5.453  4.0349 -1.6754 -0.5868
  308MOL0     H42458   3.751  11.116   5.351  0.7285  1.2916  0.0782
  308MOL0     H42459   3.804  11.181   5.506  0.9566  0.4499 -1.1129
  308MOL0     H42460   4.001  11.005   5.473 -0.5208  1.6243  1.8476
  308MOL0     H42461   3.950  11.008   5.295 -2.6050 -0.6982  0.5720
  308MOL0     H42462   4.187  11.003   5.401  0.9390  0.0715 -0.8018
  308MOL0     H42463   4.391  10.922   5.437  0.0503  0.6796  0.2475
  308MOL0     H42464   4.547  10.990   5.386 -0.1235 -0.3041  2.1704
  308MOL0     H42465   4.450  10.883   5.282 -1.4268 -2.0126  1.2786
  308MOL0     H42466   4.852  11.098   5.293 -0.2867  3.8559  0.0938
  308MOL0     H42467   5.073  11.110   5.159  0.1375 -0.7595  0.8762
  308MOL0     H42468   5.050  11.149   4.704  0.8429 -4.1344  0.9706
  308MOL0     H42469   5.078  11.286   4.818 -1.5044 -0.9229  0.7194
  308MOL0     H42470   5.308  11.228   4.853 -3.4215 -0.1693  0.9840
  308MOL0     H42471   5.304  11.093   4.749 -1.7980 -1.6935  2.3689
  308MOL0     H42472   5.394  11.339   4.656  0.1578 -2.2923 -1.8017
  308MOL0     H42473   5.225  11.377   4.642  0.2600  1.1867 -1.0788
  308MOL0     H42474   5.208  11.150   4.525  0.2539  0.1864 -2.6534
  308MOL0     H42475   5.373  11.135   4.514 -1.2656 -0.7084  1.4276
  308MOL0     H42476   5.272  11.250   4.302  2.1894  2.1251 -0.9199
  308MOL0     H42477   5.219  11.375   4.403  1.0542  1.8900 -0.8116
  308MOL0     H42478   5.501  11.306   4.322 -0.1655 -1.0462  1.9150
  308MOL0     H42479   5.481  11.433   4.449 -0.1431  2.3673 -1.4542
  308MOL0     H42480   5.297  11.537   4.289  0.0011 -0.7104  3.3707
  308MOL0     H42481   5.379  11.444   4.161  0.4216 -0.2553  0.0766
  308MOL0     H42482   5.543  11.635   4.340  0.7905  0.0434 -0.4870
  308MOL0     H42483   5.447  11.684   4.199  0.1178  0.1768 -0.4372
  308MOL0     H42484   4.841  11.153   4.798  1.8619  3.3948  0.1683
  308MOL0     H42485   4.633  11.130   4.929 -0.0640 -0.8121 -0.9094
  308MOL0     H42486   4.344  11.409   5.188 -4.6061  1.1527 -0.6451
  308MOL0     H42487   4.126  11.387   5.265 -0.6957  0.1213 -0.8421
  308MOL0     H42488   2.216  11.123   4.682  0.8088 -2.2310 -0.0482
  308MOL0     H42489   1.990  11.174   4.744 -0.5275  0.5550  1.0963
  308MOL0     H42490   1.702  11.109   5.162 -0.1847 -0.0758 -0.5494
  308MOL0     H42491   1.515  11.141   5.290 -0.9081  0.5883  0.3371
  308MOL0     H42492   1.308  11.204   5.396  0.2382 -0.6114 -3.2361
  308MOL0     H42493   1.374  11.363   5.368  0.7602 -0.1047  0.6897
  308MOL0     H42494   1.150  11.469   5.392 -1.3547  0.4785  1.7073
  308MOL0     H42495   1.166  11.355   5.524 -1.2301  0.3606 -0.2080
  308MOL0     H42496   1.020  11.303   5.258  2.0391 -0.9260 -0.7508
  308MOL0     H42497   1.041  11.182   5.387 -2.1855  0.2978  4.3359
  308MOL0     H42498   0.879  11.429   5.414 -2.5684 -2.0394 -4.5562
  308MOL0     H42499   0.906  11.327   5.547  2.7692  0.5859 -0.1238
  308MOL0     H42500   0.657  11.056   5.333  2.1811 -1.6896  0.2370
  308MOL0     H42501   1.314  11.349   4.987 -0.7089 -0.3287  1.3470
  308MOL0     H42502   1.422  11.423   4.802  1.0203  1.4858 -0.8944
  308MOL0     H42503   1.598  11.436   4.816  0.0355 -0.0830  0.7409
  308MOL0     H42504   1.523  11.287   4.737  0.1449  0.5230 -0.4656
  309MOL0     O42505   2.165   4.121   5.267  0.2124  0.1864 -0.2658
  309MOL0     C42506   2.233   4.179   5.356  0.0964  0.0372 -0.0117
  309MOL0     O42507   2.362   4.140   5.402  0.1305  0.8758  0.4585
  309MOL0     C42508   2.437   4.039   5.342  0.4235 -0.2213  0.5349
  309MOL0     C42509   2.505   3.947   5.426 -0.0702 -0.3584  0.8919
  309MOL0     C42510   2.578   3.848   5.361  0.2625 -0.0614  0.1200
  309MOL0     C42511   2.592   3.834   5.219  0.3746  0.0721 -0.8364
  309MOL0     O42512   2.654   3.726   5.165 -0.1803  0.0083 -0.4124
  309MOL0     C42513   2.589   3.601   5.204  0.3626  0.6964  0.0248
  309MOL0     C42514   2.685   3.511   5.271 -0.6660  0.0806 -0.0322
  309MOL0     C42515   2.800   3.454   5.178 -1.0043  0.4463 -0.3928
  309MOL0     C42516   2.784   3.307   5.130 -1.0848 -0.0129  0.4353
  309MOL0     C42517   2.904   3.268   5.044  0.0745 -0.0880  0.0959
  309MOL0     C42518   2.918   3.113   5.029  0.1053 -0.1405 -0.0791
  309MOL0     C42519   3.030   3.075   4.933  0.1486 -0.3123 -0.2602
  309MOL0     C42520   3.161   3.123   4.976 -0.9550 -0.0322  0.4338
  309MOL0     N42521   3.280   3.053   4.922 -0.2876  0.2717  0.3170
  309MOL0     C42522   3.294   3.040   4.789 -0.5727  0.2709 -0.0014
  309MOL0     C42523   3.400   2.958   4.777 -0.5455 -0.0076 -0.3352
  309MOL0     C42524   3.465   2.901   4.653  0.4826 -0.6191 -0.9642
  309MOL0     C42525   3.428   2.749   4.645  1.0664 -0.0217 -0.0564
  309MOL0     C42526   3.272   2.721   4.636  0.5578  0.1869  0.3730
  309MOL0     C42527   3.208   2.751   4.506  0.6658  0.1213 -0.1733
  309MOL0     O42528   3.171   2.890   4.511 -0.3219  0.3453 -0.6836
  309MOL0     C42529   3.044   2.921   4.561 -0.3501  0.4718  0.7637
  309MOL0     C42530   2.997   3.051   4.564 -0.3526 -0.7170 -0.1628
  309MOL0     C42531   2.874   3.095   4.616  0.7474 -0.4106 -0.2367
  309MOL0     C42532   2.837   3.245   4.603 -0.1112 -1.0309 -0.6316
  309MOL0     C42533   2.784   2.994   4.677 -0.1528 -0.0071  0.7983
  309MOL0     C42534   2.649   3.032   4.740 -0.4750  0.4292 -0.1277
  309MOL0     O42535   2.616   3.164   4.772  0.4310  0.5435  0.2561
  309MOL0     C42536   2.491   3.201   4.820 -0.4153  0.2111 -0.1761
  309MOL0     C42537   2.410   3.281   4.746  0.1466  0.4208 -0.8288
  309MOL0     C42538   2.288   3.317   4.801 -0.7084  0.2643  0.2352
  309MOL0     C42539   2.248   3.251   4.921  0.2279 -1.1916 -0.0523
  309MOL0     O42540   2.133   3.269   4.995 -0.7170  0.2078  0.1349
  309MOL0     C42541   2.018   3.279   4.907  0.6184  0.1680  0.5601
  309MOL0     C42542   1.909   3.318   5.003 -0.0973 -0.7082  0.5065
  309MOL0     C42543   1.784   3.358   4.920 -0.5603  0.3118 -0.4614
  309MOL0     C42544   1.676   3.386   5.018  0.0539  0.5198  0.4335
  309MOL0     C42545   1.539   3.419   4.960  0.6272 -0.1020 -0.7565
  309MOL0     C42546   1.516   3.571   4.938 -0.6758 -0.4209 -0.6370
  309MOL0     C42547   1.472   3.645   5.069  0.6000 -0.4197  0.0101
  309MOL0     C42548   1.319   3.648   5.088 -0.4889  0.1871 -0.5364
  309MOL0    Cl42549   1.261   3.703   5.249  0.0353 -0.3967 -0.2261
  309MOL0     C42550   2.339   3.182   5.006  0.0861 -0.0879  0.9845
  309MOL0     C42551   2.455   3.148   4.945 -0.3558  0.4588  0.0597
  309MOL0     O42552   2.578   2.937   4.752  0.3225 -1.1241  0.0063
  309MOL0     C42553   2.823   2.857   4.674 -0.1021  0.2457  0.2566
  309MOL0     C42554   2.953   2.825   4.625  0.7134 -0.0103 -0.3273
  309MOL0     N42555   3.451   2.934   4.904  0.5971  0.1433 -0.0228
  309MOL0     N42556   3.382   2.991   4.998 -0.5102 -0.3825  0.7276
  309MOL0     C42557   2.527   3.934   5.139  0.2010 -0.4889 -0.5237
  309MOL0     C42558   2.448   4.038   5.204  0.8082  0.2922  0.2071
  309MOL0     C42559   2.159   4.301   5.422 -0.8549  0.3095  1.6190
  309MOL0     C42560   2.234   4.396   5.494  0.7567 -0.0742  0.1924
  309MOL0     C42561   2.176   4.501   5.559  0.3756 -0.7566 -0.0853
  309MOL0     C42562   2.045   4.517   5.561  0.2251 -1.0261 -0.1204
  309MOL0     O42563   1.998   4.630   5.625 -0.3492  0.4630  0.2172
  309MOL0     C42564   1.858   4.668   5.624  0.6509 -0.1760  0.8632
  309MOL0     C42565   1.823   4.764   5.728 -0.6399  0.3152 -0.4969
  309MOL0     C42566   1.864   4.718   5.863  0.5949  0.5251  0.0585
  309MOL0     C42567   1.833   4.805   5.980  0.5813  0.5542  0.2662
  309MOL0     C42568   1.688   4.819   6.012 -0.0670 -0.7309 -0.8342
  309MOL0     C42569   1.569   4.828   6.053 -0.2183  0.3207  0.4714
  309MOL0     C42570   1.965   4.431   5.479 -0.3312  0.6836 -0.0330
  309MOL0     C42571   2.020   4.316   5.418 -0.0958  0.2512  0.3665
  309MOL0     C42572   1.922   4.231   5.346  0.4113  0.5949 -0.6174
  309MOL0     H42573   2.491   3.958   5.533 -1.5216  2.8350  0.4944
  309MOL0     H42574   2.619   3.765   5.418 -1.7075 -3.0229 -2.4505
  309MOL0     H42575   2.556   3.560   5.108  2.3183  1.6603 -1.1294
  309MOL0     H42576   2.508   3.619   5.275  1.6075  2.1343  1.1388
  309MOL0     H42577   2.728   3.561   5.359  0.8322 -1.3677  0.1002
  309MOL0     H42578   2.635   3.427   5.320  2.0135  0.0706  3.0802
  309MOL0     H42579   2.816   3.519   5.092 -2.1518 -0.3724 -1.2601
  309MOL0     H42580   2.887   3.457   5.243 -1.8178 -1.0146  0.8489
  309MOL0     H42581   2.785   3.235   5.212  0.7669 -0.7442 -0.1871
  309MOL0     H42582   2.689   3.282   5.080 -1.2384  0.4034  0.5187
  309MOL0     H42583   2.986   3.299   5.110 -1.1366 -3.8404  3.7807
  309MOL0     H42584   2.905   3.319   4.947 -1.7427 -1.1354 -0.5057
  309MOL0     H42585   2.945   3.064   5.123  0.1010  0.3568  0.1852
  309MOL0     H42586   2.827   3.078   4.979  1.7226 -1.1383 -2.4598
  309MOL0     H42587   3.007   3.117   4.835 -1.1061 -0.0944  0.1069
  309MOL0     H42588   3.031   2.966   4.922 -0.5701 -0.5152  1.3238
  309MOL0     H42589   3.168   3.225   4.939  2.7836 -0.7321 -1.2642
  309MOL0     H42590   3.174   3.138   5.084 -0.9676  2.4594  0.1389
  309MOL0     H42591   3.232   3.065   4.704  0.1707  2.2317 -0.0006
  309MOL0     H42592   3.574   2.909   4.654  0.3398  3.2022 -0.6991
  309MOL0     H42593   3.434   2.960   4.566 -1.4457 -1.9473 -1.2510
  309MOL0     H42594   3.480   2.697   4.563  1.1230 -1.0395  0.6067
  309MOL0     H42595   3.474   2.698   4.730  2.0173 -0.3769 -0.7564
  309MOL0     H42596   3.252   2.617   4.665 -0.6498  0.1602 -0.4860
  309MOL0     H42597   3.225   2.763   4.726 -0.1637 -0.2751  0.2223
  309MOL0     H42598   3.274   2.734   4.421  1.4990  1.4545  0.1703
  309MOL0     H42599   3.117   2.694   4.487 -0.9793  2.6972 -0.5344
  309MOL0     H42600   3.062   3.121   4.511 -0.2180 -1.5959 -1.1930
  309MOL0     H42601   2.851   3.293   4.701  0.8945  0.4077 -1.4403
  309MOL0     H42602   2.732   3.252   4.574 -0.3182  0.0714  0.2955
  309MOL0     H42603   2.905   3.308   4.545 -1.9247  0.4235 -1.2848
  309MOL0     H42604   2.436   3.323   4.649 -0.2912 -0.4070 -1.3150
  309MOL0     H42605   2.238   3.397   4.748 -0.8270 -1.8551 -3.1838
  309MOL0     H42606   2.025   3.346   4.820 -0.0626 -0.1737  0.2376
  309MOL0     H42607   1.996   3.180   4.866 -1.2347  0.9088 -0.3433
  309MOL0     H42608   1.896   3.229   5.065 -1.5926  0.2819  1.6567
  309MOL0     H42609   1.927   3.404   5.068 -2.9045  1.0203 -0.7843
  309MOL0     H42610   1.755   3.271   4.861 -0.0538 -0.2903  0.1539
  309MOL0     H42611   1.801   3.447   4.859 -0.5936  0.8180  0.2616
  309MOL0     H42612   1.713   3.466   5.083  0.9045  0.6161 -0.1604
  309MOL0     H42613   1.660   3.292   5.073  0.8544 -0.3612 -0.7945
  309MOL0     H42614   1.536   3.369   4.863  2.3025 -0.3085 -0.7287
  309MOL0     H42615   1.449   3.382   5.010  1.2791 -1.0467 -0.2534
  309MOL0     H42616   1.441   3.596   4.862 -2.0165  0.4447  0.9278
  309MOL0     H42617   1.615   3.611   4.914  0.8572 -3.8643 -0.6986
  309MOL0     H42618   1.498   3.748   5.045 -1.0349  0.0267  0.0217
  309MOL0     H42619   1.517   3.607   5.161 -0.8247  2.5006  2.0831
  309MOL0     H42620   1.278   3.551   5.058 -1.1960 -0.2149  1.5737
  309MOL0     H42621   1.282   3.718   5.012  2.6000  0.4128 -2.0034
  309MOL0     H42622   2.298   3.141   5.098 -1.4913 -1.5795 -0.3242
  309MOL0     H42623   2.522   3.087   5.004 -0.4017  0.5840  0.2441
  309MOL0     H42624   2.758   2.774   4.701  1.7734 -2.5799 -3.0672
  309MOL0     H42625   2.975   2.721   4.647 -1.7521 -0.2324  1.5753
  309MOL0     H42626   2.541   3.924   5.032 -2.2344 -3.8487 -0.6940
  309MOL0     H42627   2.405   4.113   5.138  1.4649  0.4083 -0.1020
  309MOL0     H42628   2.342   4.394   5.495  0.8412 -0.4291  3.4602
  309MOL0     H42629   2.241   4.571   5.612  0.5633 -2.7313  2.5055
  309MOL0     H42630   1.835   4.711   5.526 -2.9726  0.5398  1.8913
  309MOL0     H42631   1.798   4.579   5.642 -1.6284  1.3907  1.3614
  309MOL0     H42632   1.716   4.782   5.725 -1.0178 -0.9657  2.1279
  309MOL0     H42633   1.880   4.855   5.708 -2.0030  1.1094 -0.8567
  309MOL0     H42634   1.823   4.618   5.882  0.9184  0.3307 -0.2514
  309MOL0     H42635   1.973   4.709   5.863  0.5437 -0.4288 -1.3263
  309MOL0     H42636   1.887   4.899   5.988 -2.4580  2.8136 -2.7933
  309MOL0     H42637   1.873   4.751   6.067 -1.2204 -1.8540 -0.2807
  309MOL0     H42638   1.470   4.832   6.094 -0.2119 -1.0303  0.6635
  309MOL0     H42639   1.857   4.446   5.470 -0.3697 -0.0791 -1.0238
  309MOL0     H42640   1.937   4.126   5.374 -1.1898  0.5812  0.2954
  309MOL0     H42641   1.819   4.248   5.377  0.9412 -2.0618  3.3845
  309MOL0     H42642   1.938   4.240   5.238  3.5535 -0.8860 -0.3962
  310MOL0     O42643  10.150  10.141   3.886 -0.1720 -0.1925 -1.0734
  310MOL0     C42644  10.104  10.028   3.864 -0.6204 -0.0510 -0.1561
  310MOL0     O42645  10.174   9.912   3.838  0.6221  0.3733  0.0025
  310MOL0     C42646  10.312   9.917   3.819  0.0741 -0.4844  0.4691
  310MOL0     C42647  10.400  10.021   3.775 -0.1730 -0.5693  0.5491
  310MOL0     C42648  10.540  10.019   3.786 -0.4053  0.6458  0.5090
  310MOL0     C42649  10.598   9.902   3.820 -0.9051 -0.1202  0.3634
  310MOL0     O42650  10.733   9.887   3.825 -0.4751 -0.1118 -0.8643
  310MOL0     C42651  10.802   9.981   3.903  0.2383 -0.6975  0.3510
  310MOL0     C42652  10.950   9.943   3.923 -0.3022  0.3260  0.0240
  310MOL0     C42653  10.967   9.801   3.972  0.3889 -0.4198  0.7169
  310MOL0     C42654  11.104   9.757   4.025 -0.0817  0.3387  0.2910
  310MOL0     C42655  11.218   9.766   3.918 -0.0773  0.6574 -0.5332
  310MOL0     C42656  11.183   9.672   3.802 -0.3024 -0.6166 -0.8102
  310MOL0     C42657  11.282   9.687   3.683 -0.5862  0.2448  0.2778
  310MOL0     C42658  11.422   9.649   3.722 -0.0361  1.5932 -1.0031
  310MOL0     N42659  11.512   9.770   3.753  0.0240 -0.0610 -0.3648
  310MOL0     C42660  11.551   9.867   3.669  0.4707  0.0236 -0.1691
  310MOL0     C42661  11.654   9.931   3.733 -1.2283  0.1020 -0.6669
  310MOL0     C42662  11.711  10.061   3.683 -0.3235  0.5966  0.5880
  310MOL0     C42663  11.811  10.024   3.570  0.6335 -0.4156  0.5194
  310MOL0     C42664  11.864  10.153   3.499 -0.6228  0.5857  0.6690
  310MOL0     C42665  11.892  10.108   3.344  0.5630  0.3203  0.1589
  310MOL0     O42666  11.987  10.001   3.340  0.0161  0.1595  0.4474
  310MOL0     C42667  12.046   9.975   3.221 -0.2827  0.2801 -0.1522
  310MOL0     C42668  11.982   9.917   3.109  0.1090  0.6484 -0.5406
  310MOL0     C42669  12.037   9.909   2.981 -0.6823 -0.7764  0.1105
  310MOL0     C42670  11.956   9.853   2.877  0.4186 -0.0159  0.3630
  310MOL0     C42671  12.177   9.948   2.962  0.1526 -0.9208  0.1154
  310MOL0     C42672  12.248   9.958   2.833 -0.3306  1.1248  0.5070
  310MOL0     O42673  12.364  10.029   2.839 -0.0792 -0.0356  0.3948
  310MOL0     C42674  12.451  10.025   2.737 -0.0555 -0.0542  0.1916
  310MOL0     C42675  12.533   9.920   2.712 -0.3765  0.1113  0.6890
  310MOL0     C42676  12.624   9.926   2.600  0.0159  0.0359 -0.5189
  310MOL0     C42677  12.620  10.037   2.514 -0.1556 -0.7350 -0.3607
  310MOL0     O42678  12.687  10.048   2.402 -0.5560 -0.6428  0.6984
  310MOL0     C42679  12.819   9.986   2.389  0.2164 -1.0207  0.0556
  310MOL0     C42680  12.858  10.011   2.243  0.3019 -0.1922  0.2443
  310MOL0     C42681  12.836  10.151   2.188 -0.4469 -0.5605 -0.0875
  310MOL0     C42682  12.888  10.168   2.045 -1.3199 -0.5063  0.3406
  310MOL0     C42683  13.049  10.179   2.033  0.6258  0.5306 -0.0771
  310MOL0     C42684  13.095  10.237   1.899 -0.1310  0.1255 -0.1080
  310MOL0     C42685  13.251  10.230   1.885  0.1623  0.3048  0.0645
  310MOL0     C42686  13.328  10.275   2.011  0.3218  1.2562 -0.2729
  310MOL0    Cl42687  13.502  10.286   1.989  0.1489 -0.3267 -0.0168
  310MOL0     C42688  12.535  10.144   2.548 -0.4708 -0.0920  0.4126
  310MOL0     C42689  12.455  10.145   2.661 -0.6004  0.0199 -0.8880
  310MOL0     O42690  12.199   9.905   2.732  0.3122  0.3443 -0.2067
  310MOL0     C42691  12.241   9.996   3.077 -0.4279  0.1906 -0.1046
  310MOL0     C42692  12.182  10.004   3.203  1.0095 -0.2005 -0.2846
  310MOL0     N42693  11.668   9.873   3.860 -0.7318  0.4096 -0.1976
  310MOL0     N42694  11.590   9.774   3.870  0.3997 -0.3570  0.1408
  310MOL0     C42695  10.523   9.798   3.862  0.8005 -0.7904  0.2546
  310MOL0     C42696  10.380   9.796   3.861 -0.6381 -1.0624 -1.0655
  310MOL0     C42697   9.960  10.005   3.872 -0.6128  0.9724  0.4201
  310MOL0     C42698   9.890  10.011   3.992  0.4260 -0.9622 -0.1295
  310MOL0     C42699   9.750  10.002   4.001 -0.6098  1.0351  0.3438
  310MOL0     C42700   9.681   9.973   3.885  0.2423  0.0025 -0.4325
  310MOL0     O42701   9.543   9.965   3.897  0.3997 -0.6188  0.4258
  310MOL0     C42702   9.470  10.023   3.787  0.3546 -0.2255  0.5982
  310MOL0     C42703   9.317  10.000   3.792  0.0670 -0.5367 -0.2038
  310MOL0     C42704   9.283   9.858   3.759 -0.0872  0.7398 -0.4686
  310MOL0     C42705   9.138   9.813   3.780  0.4630  0.8088  0.4084
  310MOL0     C42706   9.120   9.673   3.741 -0.1718  0.1155  0.2965
  310MOL0     C42707   9.081   9.563   3.708 -0.6712  0.6594 -0.4254
  310MOL0     C42708   9.756   9.948   3.760  0.9409  0.4068 -0.2958
  310MOL0     C42709   9.891   9.969   3.752 -0.2557 -0.6581 -0.0405
  310MOL0     C42710   9.954   9.967   3.616 -0.5119  0.6750 -0.7803
  310MOL0     H42711  10.345  10.103   3.729  0.2020  0.9272  2.6464
  310MOL0     H42712  10.591  10.106   3.745 -1.6314  0.6729 -1.0806
  310MOL0     H42713  10.749   9.995   3.997 -2.1374 -3.1346 -0.4991
  310MOL0     H42714  10.803  10.075   3.847  1.2324  0.2319  1.8602
  310MOL0     H42715  11.012   9.943   3.832 -0.0710 -1.1566  0.1578
  310MOL0     H42716  11.004  10.008   3.992 -2.0546  3.7284 -1.5920
  310MOL0     H42717  10.905   9.793   4.062  0.7704 -3.0783  0.8137
  310MOL0     H42718  10.947   9.728   3.894  1.2180  1.0545 -0.9520
  310MOL0     H42719  11.123   9.822   4.111 -1.0139  0.2237  0.5936
  310MOL0     H42720  11.093   9.653   4.056 -1.2558 -0.5354 -2.6492
  310MOL0     H42721  11.311   9.739   3.968 -1.7188  0.5335  2.7003
  310MOL0     H42722  11.224   9.866   3.874  0.8947 -0.8486 -4.1865
  310MOL0     H42723  11.177   9.571   3.844  2.6067  0.2914  2.2709
  310MOL0     H42724  11.090   9.702   3.753  0.2895 -0.4507 -1.8493
  310MOL0     H42725  11.275   9.788   3.642 -0.2943 -0.1615 -0.7999
  310MOL0     H42726  11.245   9.621   3.604 -0.2284 -0.8954  1.0443
  310MOL0     H42727  11.410   9.594   3.816  0.3805 -0.6155 -2.1642
  310MOL0     H42728  11.465   9.588   3.642  0.3381  0.5398 -0.0340
  310MOL0     H42729  11.496   9.890   3.578 -2.1751  2.6720  1.9003
  310MOL0     H42730  11.762  10.102   3.771 -2.0688 -1.9044  2.9650
  310MOL0     H42731  11.627  10.122   3.648  0.5280  1.9744  0.8831
  310MOL0     H42732  11.889   9.951   3.593  2.6551 -0.1795 -4.3505
  310MOL0     H42733  11.759   9.963   3.495  4.7141 -4.0490  0.2649
  310MOL0     H42734  11.787  10.229   3.491  0.8049  1.8980 -1.9894
  310MOL0     H42735  11.960  10.194   3.534  0.8444  0.8609 -3.1702
  310MOL0     H42736  11.795  10.072   3.307 -0.3441  3.0382 -0.3246
  310MOL0     H42737  11.915  10.195   3.282  3.3457 -0.3476  0.1389
  310MOL0     H42738  11.877   9.902   3.131 -0.0672  2.8090  0.3530
  310MOL0     H42739  12.010   9.805   2.795  1.0381 -0.1247  0.8243
  310MOL0     H42740  11.900   9.936   2.833  0.2901  0.1332  0.8070
  310MOL0     H42741  11.887   9.779   2.918  2.0529 -2.0305 -0.3505
  310MOL0     H42742  12.534   9.838   2.783  0.2560 -2.1712 -1.8002
  310MOL0     H42743  12.675   9.836   2.570 -3.3996 -2.3783  0.2872
  310MOL0     H42744  12.892  10.029   2.457  0.4152 -0.6385 -0.3986
  310MOL0     H42745  12.816   9.878   2.406  2.5191 -1.2004 -0.4015
  310MOL0     H42746  12.963   9.984   2.229  0.4946 -0.1698  1.5272
  310MOL0     H42747  12.803   9.942   2.180  1.5287  0.8745 -2.1599
  310MOL0     H42748  12.890  10.221   2.252 -0.4120  1.4695 -2.2215
  310MOL0     H42749  12.731  10.179   2.192  0.0187  2.2476 -3.1706
  310MOL0     H42750  12.837  10.259   2.013 -1.7972 -0.6620  0.6346
  310MOL0     H42751  12.861  10.086   1.977 -0.5178 -0.2149 -0.3440
  310MOL0     H42752  13.081  10.243   2.115 -2.5455  0.5473  1.3098
  310MOL0     H42753  13.096  10.081   2.046 -0.5305 -0.1804 -1.0032
  310MOL0     H42754  13.066  10.342   1.890  0.6524  0.3404 -0.2167
  310MOL0     H42755  13.044  10.183   1.818 -1.9726  0.3887  0.8043
  310MOL0     H42756  13.263  10.287   1.792  1.1531 -0.2091 -0.1325
  310MOL0     H42757  13.273  10.128   1.854 -3.7524 -0.0748 -2.0852
  310MOL0     H42758  13.318  10.202   2.092  2.0955  3.3279  1.9676
  310MOL0     H42759  13.284  10.371   2.040  0.0031  0.7635  0.9619
  310MOL0     H42760  12.532  10.231   2.483 -0.8296 -1.8765 -2.1058
  310MOL0     H42761  12.385  10.224   2.688 -1.4271 -1.2260  0.8370
  310MOL0     H42762  12.346  10.025   3.081 -0.4892  0.3318  3.0912
  310MOL0     H42763  12.242  10.046   3.282  2.1564  0.6015 -1.5415
  310MOL0     H42764  10.569   9.705   3.895 -2.5572 -3.8993 -2.8532
  310MOL0     H42765  10.330   9.715   3.914  0.5592 -1.0269  0.1746
  310MOL0     H42766   9.949  10.033   4.080  0.8148  0.0676 -0.6354
  310MOL0     H42767   9.695  10.021   4.093 -0.5826  2.9860 -0.0016
  310MOL0     H42768   9.489  10.131   3.778  1.3571 -0.3885  0.6188
  310MOL0     H42769   9.504   9.977   3.693  0.5500  1.9138 -0.4461
  310MOL0     H42770   9.277  10.071   3.720  0.5840 -1.6457 -1.6406
  310MOL0     H42771   9.283  10.029   3.892  1.1898 -2.2269  0.7182
  310MOL0     H42772   9.304   9.840   3.653  0.1637 -0.1094 -0.2783
  310MOL0     H42773   9.348   9.801   3.826  2.9201  0.6647 -3.1875
  310MOL0     H42774   9.078   9.879   3.717  0.9231  0.2067 -0.6899
  310MOL0     H42775   9.093   9.814   3.880 -0.2482  2.5919  0.0953
  310MOL0     H42776   9.050   9.460   3.706  1.9654 -0.2090 -1.7016
  310MOL0     H42777   9.695   9.903   3.683  0.2520 -1.7768  1.4119
  310MOL0     H42778  10.057  10.003   3.609  0.1955 -0.6450  1.6280
  310MOL0     H42779   9.954   9.864   3.580  1.1907  0.2260  0.4153
  310MOL0     H42780   9.892  10.023   3.546  0.6450  0.3437 -2.1202
  311MOL0     O42781  11.349   5.475   3.932 -0.1282  0.1095  0.0179
  311MOL0     C42782  11.280   5.543   4.004  0.3894 -0.4986 -0.3214
  311MOL0     O42783  11.170   5.496   4.064  0.7429 -0.5079  0.2062
  311MOL0     C42784  11.105   5.379   4.018  0.0309  0.5966 -0.3704
  311MOL0     C42785  11.145   5.296   3.910  0.0523 -0.3124 -0.1461
  311MOL0     C42786  11.097   5.170   3.905 -0.4189 -0.2393 -0.3197
  311MOL0     C42787  10.993   5.132   3.989 -0.7958 -1.0042  0.0094
  311MOL0     O42788  10.937   5.014   3.949  0.8047  0.2825 -0.4394
  311MOL0     C42789  10.805   4.984   4.017  0.2284 -1.1100  0.6788
  311MOL0     C42790  10.726   4.898   3.922  0.0226 -0.2843  0.2488
  311MOL0     C42791  10.802   4.790   3.848 -0.4268  0.3716  0.5083
  311MOL0     C42792  10.865   4.691   3.952  0.6667 -0.1432  0.8383
  311MOL0     C42793  10.910   4.553   3.906  0.4206  0.0939 -0.4770
  311MOL0     C42794  10.999   4.543   3.777  0.5338 -0.6353 -1.3466
  311MOL0     C42795  11.050   4.403   3.750 -0.0642  0.3108  0.0638
  311MOL0     C42796  11.150   4.358   3.857 -0.4242  0.4759  0.2038
  311MOL0     N42797  11.172   4.212   3.834 -0.0016  0.3620  0.8736
  311MOL0     C42798  11.092   4.112   3.877 -0.0856 -0.7827  0.3841
  311MOL0     C42799  11.151   4.000   3.829  0.0290  0.0661  0.0438
  311MOL0     C42800  11.114   3.864   3.871  0.0836 -0.2062  1.0363
  311MOL0     C42801  10.986   3.805   3.804 -0.1450 -0.0829 -0.0291
  311MOL0     C42802  10.857   3.852   3.872  0.8270  0.2430  0.3633
  311MOL0     C42803  10.723   3.800   3.827 -0.4486 -0.5717 -0.2967
  311MOL0     O42804  10.706   3.665   3.870 -0.3568  0.1026 -0.7906
  311MOL0     C42805  10.593   3.603   3.832  0.9271  0.1299  0.1419
  311MOL0     C42806  10.579   3.464   3.848  0.1019  0.5775 -0.5784
  311MOL0     C42807  10.464   3.390   3.809  1.0201  0.2196 -0.5921
  311MOL0     C42808  10.447   3.241   3.847 -0.1232 -0.6021 -0.3728
  311MOL0     C42809  10.355   3.455   3.744  0.2324 -0.5497 -0.3827
  311MOL0     C42810  10.224   3.395   3.702 -0.1740  0.7204  0.4621
  311MOL0     O42811  10.117   3.471   3.723 -0.6699 -0.1327  0.1747
  311MOL0     C42812   9.989   3.426   3.707 -0.4006 -0.6616 -0.9896
  311MOL0     C42813   9.899   3.524   3.698 -0.4450 -0.8683  0.5585
  311MOL0     C42814   9.761   3.501   3.692 -1.1724 -0.0699  1.2656
  311MOL0     C42815   9.711   3.377   3.670  0.3774  0.1236  0.6253
  311MOL0     O42816   9.579   3.368   3.635 -0.5607  0.3685  0.0508
  311MOL0     C42817   9.508   3.258   3.689 -0.1022  0.6390  0.0027
  311MOL0     C42818   9.364   3.301   3.697  0.2354 -0.4505 -0.2639
  311MOL0     C42819   9.348   3.415   3.803  0.0867  0.1507  0.4792
  311MOL0     C42820   9.199   3.446   3.840 -0.4251 -0.7523 -1.1597
  311MOL0     C42821   9.180   3.558   3.934  0.4939 -0.1474 -0.2169
  311MOL0     C42822   9.249   3.690   3.908  1.0785 -0.7973  0.6009
  311MOL0     C42823   9.214   3.741   3.765 -0.4428  0.3362 -0.8859
  311MOL0     C42824   9.280   3.879   3.738  0.0879 -0.2955  0.0562
  311MOL0    Cl42825   9.180   4.029   3.785  0.0432  0.6585  0.3891
  311MOL0     C42826   9.802   3.273   3.660  0.9269  0.2949  0.2558
  311MOL0     C42827   9.941   3.295   3.672  0.2130  0.4714 -0.3524
  311MOL0     O42828  10.230   3.279   3.650 -0.5198 -0.0079 -0.1662
  311MOL0     C42829  10.365   3.599   3.726  0.4684  0.4654 -0.0499
  311MOL0     C42830  10.486   3.662   3.750  0.6589 -0.7227 -0.2815
  311MOL0     N42831  11.265   4.042   3.752  0.7926  0.0229  0.5983
  311MOL0     N42832  11.265   4.169   3.753 -0.5068  0.2588  0.0828
  311MOL0     C42833  10.957   5.206   4.097 -0.5521 -0.7439 -0.2539
  311MOL0     C42834  11.007   5.339   4.107  0.0445  0.4103 -0.2039
  311MOL0     C42835  11.311   5.689   4.029 -0.0668  0.2883 -0.0530
  311MOL0     C42836  11.212   5.769   4.100  0.1533  0.0022 -0.0637
  311MOL0     C42837  11.239   5.902   4.137  0.0597  0.6566 -0.3207
  311MOL0     C42838  11.360   5.960   4.096 -0.5133 -0.2259  0.3982
  311MOL0     O42839  11.387   6.087   4.148 -1.4604  0.5618 -0.0467
  311MOL0     C42840  11.516   6.150   4.110  0.2467  0.4622 -0.4354
  311MOL0     C42841  11.636   6.109   4.200  0.2797 -0.5591 -0.2273
  311MOL0     C42842  11.774   6.144   4.136 -0.4349  0.5877 -0.2673
  311MOL0     C42843  11.794   6.291   4.112  0.1295 -0.2207 -0.2915
  311MOL0     C42844  11.740   6.338   3.983  0.4529  0.0045 -0.9119
  311MOL0     C42845  11.687   6.375   3.885 -0.1801 -0.7887 -0.0315
  311MOL0     C42846  11.456   5.883   4.035 -0.1607 -0.6899  0.1896
  311MOL0     C42847  11.433   5.749   3.990 -0.2481 -0.2261  0.1759
  311MOL0     C42848  11.546   5.680   3.911 -0.2274 -0.5072 -0.0829
  311MOL0     H42849  11.220   5.317   3.835  0.2646  0.7578  0.3444
  311MOL0     H42850  11.129   5.102   3.826 -1.4455 -0.1397 -0.8261
  311MOL0     H42851  10.743   5.071   4.037 -1.9968 -1.6129 -3.0905
  311MOL0     H42852  10.824   4.933   4.112 -0.6000 -1.3425  0.7256
  311MOL0     H42853  10.642   4.858   3.981  0.1425 -0.1865  0.4890
  311MOL0     H42854  10.687   4.967   3.847 -2.6152 -0.0166  1.7330
  311MOL0     H42855  10.734   4.739   3.779  1.3997  0.6411 -1.5668
  311MOL0     H42856  10.884   4.823   3.785 -1.0754  2.9850  0.8997
  311MOL0     H42857  10.953   4.742   3.992  3.1381 -0.8933 -3.0112
  311MOL0     H42858  10.797   4.685   4.037  0.8116  3.2409  1.3349
  311MOL0     H42859  10.819   4.500   3.876 -0.6013  2.7107 -2.2581
  311MOL0     H42860  10.962   4.513   3.995  0.4238  0.1769 -0.4421
  311MOL0     H42861  10.934   4.569   3.693  0.0884  0.5718 -0.6473
  311MOL0     H42862  11.088   4.607   3.774  0.6080 -0.6577 -0.0957
  311MOL0     H42863  11.116   4.402   3.663  4.4137  0.3454  3.1191
  311MOL0     H42864  10.965   4.336   3.741 -0.5865  1.1077 -1.2567
  311MOL0     H42865  11.243   4.415   3.847 -0.9003  0.9341 -2.3257
  311MOL0     H42866  11.121   4.383   3.959 -1.2544  2.6810 -0.5124
  311MOL0     H42867  10.999   4.113   3.934 -0.8452 -0.9160 -0.8196
  311MOL0     H42868  11.098   3.873   3.979  0.5806  0.6610  1.0432
  311MOL0     H42869  11.193   3.791   3.851 -0.6118 -0.6868 -0.0579
  311MOL0     H42870  10.983   3.845   3.702 -0.5571  2.0510  0.7655
  311MOL0     H42871  10.993   3.696   3.796 -1.5732 -0.2488  0.5331
  311MOL0     H42872  10.860   3.836   3.980 -1.3113  0.6722  0.5348
  311MOL0     H42873  10.852   3.960   3.861  0.2803  0.3140  1.2298
  311MOL0     H42874  10.661   3.867   3.888  2.3483  0.1788  1.9219
  311MOL0     H42875  10.700   3.817   3.721  0.3499  0.1205 -0.3652
  311MOL0     H42876  10.659   3.428   3.912 -0.8849  1.1973  1.0679
  311MOL0     H42877  10.349   3.225   3.892  0.2113  1.5262  1.3076
  311MOL0     H42878  10.513   3.204   3.926 -2.8066 -2.3578  1.1929
  311MOL0     H42879  10.460   3.184   3.754  3.0428  1.9347 -1.6898
  311MOL0     H42880   9.950   3.619   3.706  2.3639 -2.3267  1.1698
  311MOL0     H42881   9.694   3.586   3.695  3.2087  3.9669 -1.2514
  311MOL0     H42882   9.518   3.170   3.624  0.4010 -0.8751  2.0400
  311MOL0     H42883   9.540   3.232   3.790  0.8529 -2.4789 -1.0109
  311MOL0     H42884   9.312   3.339   3.608  0.1439  1.6000  0.6020
  311MOL0     H42885   9.301   3.216   3.723  1.0720 -1.8323 -2.4371
  311MOL0     H42886   9.397   3.499   3.752 -0.8243 -1.4445 -3.3844
  311MOL0     H42887   9.399   3.390   3.896  0.6162  1.6268  0.6125
  311MOL0     H42888   9.161   3.355   3.888 -0.2453 -0.2134  0.0544
  311MOL0     H42889   9.136   3.465   3.753 -4.9065 -1.9570  1.4578
  311MOL0     H42890   9.074   3.579   3.948  0.9106  0.6023  2.1021
  311MOL0     H42891   9.213   3.522   4.031 -0.4892  2.5867  1.2298
  311MOL0     H42892   9.356   3.672   3.914  0.8259 -3.0761 -0.4765
  311MOL0     H42893   9.222   3.767   3.981 -0.3230 -0.1333 -0.5443
  311MOL0     H42894   9.106   3.740   3.752 -0.9773 -3.0810  2.2538
  311MOL0     H42895   9.241   3.676   3.682  2.1169  1.7938 -1.3099
  311MOL0     H42896   9.295   3.885   3.630 -4.0122  1.6119 -0.6098
  311MOL0     H42897   9.379   3.882   3.785 -0.4687  1.8764  1.2591
  311MOL0     H42898   9.764   3.173   3.641 -0.2106  1.2563 -3.1440
  311MOL0     H42899  10.007   3.209   3.678 -0.7437 -0.2242  0.7900
  311MOL0     H42900  10.278   3.638   3.676 -1.1708 -0.9382  1.5774
  311MOL0     H42901  10.479   3.766   3.721  3.2062 -0.7887 -1.4264
  311MOL0     H42902  10.888   5.172   4.173 -0.5151 -0.0742  0.0934
  311MOL0     H42903  10.981   5.403   4.191  3.0989  3.1468 -1.1212
  311MOL0     H42904  11.119   5.738   4.148  1.1703  1.7450  3.3371
  311MOL0     H42905  11.159   5.959   4.184 -0.3631  0.3705 -0.6857
  311MOL0     H42906  11.545   6.134   4.006  4.8802  0.5748  0.6219
  311MOL0     H42907  11.493   6.257   4.121 -1.6904 -0.1420  2.6224
  311MOL0     H42908  11.635   6.001   4.216  1.4247 -0.2762  2.1610
  311MOL0     H42909  11.631   6.150   4.301  3.0311 -0.5180 -0.0343
  311MOL0     H42910  11.857   6.120   4.203 -0.5333 -1.3534 -0.7674
  311MOL0     H42911  11.790   6.085   4.044 -0.3913 -1.2539  0.8636
  311MOL0     H42912  11.901   6.313   4.118  0.3290 -0.3016 -2.6946
  311MOL0     H42913  11.752   6.349   4.195  1.5818  3.6512 -2.0348
  311MOL0     H42914  11.627   6.416   3.806  0.5637 -0.7564 -0.5907
  311MOL0     H42915  11.554   5.918   4.005  0.2863  0.9170  3.2022
  311MOL0     H42916  11.638   5.716   3.958 -1.2348 -0.6401  2.1133
  311MOL0     H42917  11.545   5.571   3.916 -1.4018 -0.7955 -3.9270
  311MOL0     H42918  11.538   5.696   3.803  1.4052 -1.8413 -0.4349
  312MOL0     O42919   6.342   6.176   8.421 -0.0299  0.1722 -0.1978
  312MOL0     C42920   6.345   6.255   8.514  0.0457 -0.0816 -0.3302
  312MOL0     O42921   6.237   6.329   8.562  0.2654 -0.7321 -0.5053
  312MOL0     C42922   6.109   6.310   8.520  0.2765  0.0294 -0.3515
  312MOL0     C42923   6.006   6.396   8.563 -0.1082  0.6749  0.0737
  312MOL0     C42924   5.873   6.381   8.528  0.3365 -0.2608 -0.6968
  312MOL0     C42925   5.827   6.271   8.459  0.4298  0.3528 -1.1030
  312MOL0     O42926   5.698   6.268   8.420  0.4170  0.5575 -0.3035
  312MOL0     C42927   5.666   6.176   8.316 -1.2016 -0.5516  1.0275
  312MOL0     C42928   5.527   6.223   8.278  0.1834 -0.3578  0.4439
  312MOL0     C42929   5.464   6.143   8.166 -0.8469 -0.0952 -0.5625
  312MOL0     C42930   5.341   6.202   8.108 -0.2513 -0.3484  0.2144
  312MOL0     C42931   5.284   6.101   8.009  0.3235 -0.4792  0.4573
  312MOL0     C42932   5.153   6.152   7.943 -0.2642 -0.0348 -0.3635
  312MOL0     C42933   5.098   6.050   7.843  0.9443  0.4435  0.3317
  312MOL0     C42934   4.991   6.102   7.753  0.6521  0.6356  0.2304
  312MOL0     N42935   5.045   6.129   7.619  0.4965  0.3441 -0.0534
  312MOL0     C42936   5.044   6.030   7.518 -0.3960  0.9432  0.1568
  312MOL0     C42937   5.086   6.104   7.411 -0.1775  0.8291 -0.7905
  312MOL0     C42938   5.096   6.045   7.273 -0.6044 -0.4778  1.1220
  312MOL0     C42939   5.244   6.058   7.215 -0.4115  0.3856 -0.4908
  312MOL0     C42940   5.243   6.050   7.067 -0.6349  0.6346  0.1954
  312MOL0     C42941   5.390   6.039   7.010 -0.2830  0.2075  0.4072
  312MOL0     O42942   5.378   6.004   6.870 -0.8738  0.1904  0.2282
  312MOL0     C42943   5.485   6.006   6.784 -0.0428  0.5121  1.4657
  312MOL0     C42944   5.451   5.989   6.651 -0.1554 -0.3470  0.2791
  312MOL0     C42945   5.555   5.989   6.547  0.2543 -0.2195 -0.0744
  312MOL0     C42946   5.502   5.963   6.404 -0.3630 -0.2420 -0.2143
  312MOL0     C42947   5.693   6.009   6.578  0.6498 -0.3385 -0.3473
  312MOL0     C42948   5.803   6.009   6.486 -0.4099 -0.0221 -0.0430
  312MOL0     O42949   5.921   5.972   6.542  0.3799  0.4367  0.8454
  312MOL0     C42950   6.038   6.017   6.485  0.6405 -1.1694  1.1343
  312MOL0     C42951   6.056   6.116   6.382  0.9868 -0.3786  0.1976
  312MOL0     C42952   6.179   6.170   6.346 -0.0937 -0.1500  0.8015
  312MOL0     C42953   6.294   6.114   6.412 -0.0142 -0.1076 -0.3397
  312MOL0     O42954   6.429   6.147   6.386  0.0776  0.0723 -0.3893
  312MOL0     C42955   6.462   6.244   6.289 -0.1467  0.1729 -1.0479
  312MOL0     C42956   6.603   6.292   6.274  0.7237 -0.0341 -0.2964
  312MOL0     C42957   6.644   6.375   6.394  0.7134  0.5348 -1.2937
  312MOL0     C42958   6.800   6.382   6.404  0.2612 -0.1800  0.3072
  312MOL0     C42959   6.847   6.472   6.528  0.0159  0.3810  0.5223
  312MOL0     C42960   6.972   6.546   6.488 -0.1002 -0.2549  0.6748
  312MOL0     C42961   7.010   6.633   6.608  0.7626 -0.9256  0.0361
  312MOL0     C42962   7.137   6.716   6.586 -0.3192 -0.3395  0.1799
  312MOL0    Cl42963   7.194   6.782   6.743  0.0524 -0.1400  0.2660
  312MOL0     C42964   6.279   6.010   6.501 -0.0785  0.3631 -0.1788
  312MOL0     C42965   6.152   5.964   6.544 -0.5347  0.3170  0.0822
  312MOL0     O42966   5.781   6.022   6.367 -0.9407 -0.2523  0.5462
  312MOL0     C42967   5.713   6.027   6.721 -0.3341 -0.7381  0.8573
  312MOL0     C42968   5.619   6.035   6.814 -0.4000 -0.1871  0.1462
  312MOL0     N42969   5.098   6.238   7.446  1.4852 -0.0551  0.8089
  312MOL0     N42970   5.058   6.246   7.564  0.1930  0.2298  0.4894
  312MOL0     C42971   5.925   6.178   8.425  0.7255 -0.3721 -0.1342
  312MOL0     C42972   6.064   6.197   8.458  0.9910  0.9742 -0.3997
  312MOL0     C42973   6.477   6.281   8.574 -0.1435  0.1148  0.6507
  312MOL0     C42974   6.479   6.333   8.704 -0.2961 -0.2146 -0.0766
  312MOL0     C42975   6.599   6.341   8.772 -0.1648  0.6261 -0.4795
  312MOL0     C42976   6.720   6.295   8.715  0.6912  1.1069 -0.8139
  312MOL0     O42977   6.833   6.322   8.788  0.4634  0.1638 -0.4672
  312MOL0     C42978   6.942   6.397   8.722 -0.5559  0.4006  0.4993
  312MOL0     C42979   6.906   6.548   8.681  0.0825 -0.0160  0.2695
  312MOL0     C42980   7.040   6.626   8.673  0.9009 -0.2953  0.5049
  312MOL0     C42981   7.019   6.768   8.608 -0.5004  0.5271 -0.1215
  312MOL0     C42982   6.917   6.846   8.680  0.1460  0.4329  0.6664
  312MOL0     C42983   6.830   6.906   8.746 -0.3250 -0.6521 -0.0500
  312MOL0     C42984   6.725   6.253   8.584 -0.2189 -0.2326 -0.1724
  312MOL0     C42985   6.602   6.258   8.510  1.0198  0.2135 -1.0042
  312MOL0     C42986   6.617   6.224   8.368  0.1914  0.0831 -0.3916
  312MOL0     H42987   6.029   6.484   8.623  0.6409  0.1019  0.6456
  312MOL0     H42988   5.807   6.460   8.562 -1.7894 -3.0139  2.2043
  312MOL0     H42989   5.667   6.071   8.347 -1.7185 -0.2350  2.1337
  312MOL0     H42990   5.737   6.187   8.233 -0.3777  1.0316  1.9020
  312MOL0     H42991   5.459   6.215   8.364 -2.1963  0.1810 -1.2734
  312MOL0     H42992   5.528   6.331   8.258 -0.4315 -0.3710  0.3137
  312MOL0     H42993   5.537   6.148   8.085 -0.2242 -2.8450 -0.2602
  312MOL0     H42994   5.455   6.042   8.206  0.1712 -0.1645 -0.4746
  312MOL0     H42995   5.267   6.220   8.187  0.0903 -1.8404  0.9005
  312MOL0     H42996   5.357   6.295   8.051  0.4710 -0.6222 -0.0426
  312MOL0     H42997   5.257   6.012   8.066  0.8670  1.0050  3.2225
  312MOL0     H42998   5.361   6.073   7.936  0.7229 -3.1972  1.8162
  312MOL0     H42999   5.092   6.191   8.025  2.2609  2.4654  0.5070
  312MOL0     H43000   5.197   6.225   7.875  0.5713 -1.2592 -1.1843
  312MOL0     H43001   5.079   5.952   7.887 -1.4861 -1.1796 -3.7852
  312MOL0     H43002   5.187   6.035   7.781 -1.0023 -0.5507 -2.3821
  312MOL0     H43003   4.908   6.031   7.750  0.8409  0.4518 -1.5586
  312MOL0     H43004   4.949   6.201   7.776  3.2324  2.3155 -1.7423
  312MOL0     H43005   5.009   5.928   7.513 -3.7865  1.9249  1.0792
  312MOL0     H43006   5.031   6.112   7.216  3.3307  2.9729  0.2763
  312MOL0     H43007   5.066   5.939   7.266  0.1306 -0.6006 -1.2877
  312MOL0     H43008   5.286   6.151   7.255 -2.3421  0.9018  0.4663
  312MOL0     H43009   5.309   5.979   7.253 -2.0168 -0.1473  1.2691
  312MOL0     H43010   5.186   5.962   7.035  0.5628 -0.0781 -0.0568
  312MOL0     H43011   5.193   6.140   7.029  0.5957  1.2601 -0.0117
  312MOL0     H43012   5.436   6.138   7.021 -0.4225  0.5781 -1.8287
  312MOL0     H43013   5.458   5.970   7.061  0.1381  0.8470  0.7269
  312MOL0     H43014   5.346   5.981   6.625 -0.0935 -2.1363  0.4066
  312MOL0     H43015   5.393   5.964   6.396 -0.3312  1.0676 -0.6497
  312MOL0     H43016   5.533   5.867   6.363 -0.3205  0.5979 -2.2503
  312MOL0     H43017   5.539   6.037   6.333 -3.4788  0.4013 -1.3302
  312MOL0     H43018   5.969   6.170   6.345  0.7224 -1.7053 -1.1938
  312MOL0     H43019   6.197   6.248   6.272 -0.1143  0.6706  1.6439
  312MOL0     H43020   6.438   6.203   6.190  2.3806  1.3315 -2.2134
  312MOL0     H43021   6.399   6.330   6.314 -0.1010 -1.0788  4.9490
  312MOL0     H43022   6.679   6.213   6.267  1.4254  0.5818  0.2028
  312MOL0     H43023   6.598   6.356   6.185 -0.2296 -0.8481 -0.8568
  312MOL0     H43024   6.609   6.331   6.488 -0.2850  1.0690 -1.3960
  312MOL0     H43025   6.585   6.467   6.385 -2.1858 -1.0740 -0.2562
  312MOL0     H43026   6.838   6.417   6.308 -0.1888 -3.3849 -1.1897
  312MOL0     H43027   6.844   6.282   6.409  1.3766  0.3054  0.4613
  312MOL0     H43028   6.775   6.550   6.555 -0.6728  0.5368 -1.5915
  312MOL0     H43029   6.863   6.404   6.612  0.4949 -1.4618 -0.9681
  312MOL0     H43030   6.958   6.603   6.396  0.8272 -0.2860  0.5091
  312MOL0     H43031   7.055   6.480   6.459 -0.5471 -0.5192 -0.0395
  312MOL0     H43032   7.036   6.570   6.694  1.8252  0.9297  1.1472
  312MOL0     H43033   6.929   6.694   6.650  1.4095 -0.7420  1.0745
  312MOL0     H43034   7.105   6.794   6.515 -3.2198 -2.1080 -0.6275
  312MOL0     H43035   7.224   6.665   6.545  0.1042 -0.2949  1.0178
  312MOL0     H43036   6.368   5.961   6.538 -0.8254 -3.2485 -2.5800
  312MOL0     H43037   6.133   5.892   6.622 -1.8757 -0.9592 -1.3588
  312MOL0     H43038   5.815   6.054   6.748  0.5498 -1.9974 -1.0181
  312MOL0     H43039   5.650   6.077   6.909 -1.4724 -0.0302  0.4394
  312MOL0     H43040   5.901   6.084   8.377  0.6333  0.6688 -2.2141
  312MOL0     H43041   6.118   6.111   8.418  0.2697  0.1894  0.2946
  312MOL0     H43042   6.387   6.350   8.759 -2.1294 -2.2631 -2.2677
  312MOL0     H43043   6.600   6.373   8.876 -1.7921  0.3175 -0.3503
  312MOL0     H43044   7.023   6.394   8.796 -2.2965  0.0243  2.4989
  312MOL0     H43045   6.979   6.332   8.642  0.4412 -1.9396  2.6803
  312MOL0     H43046   6.832   6.583   8.753 -1.1177 -1.6231 -0.1141
  312MOL0     H43047   6.843   6.551   8.591 -0.4025  0.0620  0.6048
  312MOL0     H43048   7.069   6.643   8.778 -0.7495  0.7569  0.8321
  312MOL0     H43049   7.118   6.573   8.618  0.8182  0.3637 -0.2665
  312MOL0     H43050   6.988   6.760   8.503  1.4393  0.9595 -0.7713
  312MOL0     H43051   7.109   6.828   8.618 -0.4526  1.1424 -3.2702
  312MOL0     H43052   6.752   6.947   8.808  0.2518  1.1929 -0.4779
  312MOL0     H43053   6.823   6.224   8.548  0.3481  0.8132  0.4723
  312MOL0     H43054   6.717   6.249   8.333  0.6701  1.6263  1.8525
  312MOL0     H43055   6.595   6.118   8.349 -3.0118 -0.0067  2.6617
  312MOL0     H43056   6.550   6.287   8.309  1.0928 -1.9374 -3.8255
  313MOL0     O43057  10.652   2.674   4.649 -0.3529  0.0445  0.3529
  313MOL0     C43058  10.714   2.771   4.598 -0.3954  0.4013  0.3012
  313MOL0     O43059  10.732   2.894   4.666 -0.0529  0.0047 -0.4349
  313MOL0     C43060  10.712   2.897   4.803 -0.4245  0.3217  0.4172
  313MOL0     C43061  10.742   2.792   4.891  0.0963  0.6181 -0.1394
  313MOL0     C43062  10.713   2.803   5.028  0.0380  0.3490  0.2637
  313MOL0     C43063  10.672   2.921   5.078 -0.4088  1.1234  0.1977
  313MOL0     O43064  10.646   2.914   5.209  0.9585 -0.0758  0.1682
  313MOL0     C43065  10.566   3.024   5.272  0.1586  0.1051  0.2784
  313MOL0     C43066  10.551   2.985   5.422  1.3746  0.0629 -0.2933
  313MOL0     C43067  10.438   3.055   5.502 -0.1342  0.6108 -0.2565
  313MOL0     C43068  10.439   2.997   5.648 -0.3884 -0.0257 -0.3731
  313MOL0     C43069  10.522   3.078   5.750  0.3643 -0.3519 -0.2485
  313MOL0     C43070  10.508   3.018   5.895 -0.8950 -0.6097  0.1507
  313MOL0     C43071  10.360   3.006   5.963 -0.6006 -0.0722 -0.0607
  313MOL0     C43072  10.377   2.934   6.096  0.2397 -0.6449 -1.8487
  313MOL0     N43073  10.260   2.948   6.181  0.1011 -0.8433 -1.1137
  313MOL0     C43074  10.135   2.909   6.148 -0.3541 -0.0038 -0.0201
  313MOL0     C43075  10.062   2.936   6.258  0.3783 -0.5885  0.5273
  313MOL0     C43076   9.918   2.911   6.269 -0.6880  0.1356  0.0610
  313MOL0     C43077   9.840   2.866   6.150  0.8361 -0.3270 -0.1964
  313MOL0     C43078   9.691   2.828   6.179  0.6356  0.3555  0.4412
  313MOL0     C43079   9.611   2.813   6.046 -0.9937  0.0740 -0.4037
  313MOL0     O43080   9.638   2.677   5.991  0.1983 -0.4617  1.1631
  313MOL0     C43081   9.539   2.585   5.990 -0.0359  0.3196  0.1326
  313MOL0     C43082   9.567   2.459   6.031  0.4485  0.3613  0.3173
  313MOL0     C43083   9.472   2.353   6.033 -0.2789  0.1041 -0.7538
  313MOL0     C43084   9.493   2.226   6.123  0.0065 -0.0026  0.5942
  313MOL0     C43085   9.339   2.382   5.995 -0.1522 -0.0880 -0.2970
  313MOL0     C43086   9.221   2.290   6.001  0.7485  0.4431 -0.2143
  313MOL0     O43087   9.149   2.272   5.885  0.6131  0.1244  0.4527
  313MOL0     C43088   9.014   2.232   5.878 -0.6448 -0.0844 -0.2456
  313MOL0     C43089   8.952   2.189   5.760 -0.8917  0.0836 -0.0204
  313MOL0     C43090   8.814   2.143   5.748 -1.0373  0.1687 -0.2725
  313MOL0     C43091   8.737   2.137   5.865  0.4523  0.3219 -0.0338
  313MOL0     O43092   8.602   2.095   5.870  0.3793 -0.4383  0.0126
  313MOL0     C43093   8.531   2.108   5.742 -0.0689  0.7395  0.0519
  313MOL0     C43094   8.386   2.079   5.759 -0.0438  0.0898 -0.1551
  313MOL0     C43095   8.337   2.168   5.869 -0.2682  0.2821  0.5944
  313MOL0     C43096   8.189   2.172   5.894  0.2807  0.7547 -0.1030
  313MOL0     C43097   8.125   2.245   5.775  0.1316 -0.1210 -0.2462
  313MOL0     C43098   7.972   2.264   5.795 -0.2512 -0.3500 -0.7924
  313MOL0     C43099   7.889   2.143   5.860  0.1190  0.2126  0.3569
  313MOL0     C43100   7.744   2.174   5.879  0.0569  0.2096 -0.2623
  313MOL0    Cl43101   7.672   2.226   5.721  0.5046 -0.3778 -0.0343
  313MOL0     C43102   8.800   2.177   5.982 -1.0135  0.3507 -0.2361
  313MOL0     C43103   8.933   2.230   5.994 -1.3710  0.2016  0.6106
  313MOL0     O43104   9.199   2.240   6.107  0.1428  0.2980 -0.0730
  313MOL0     C43105   9.313   2.504   5.939  0.1084 -0.5882  0.7807
  313MOL0     C43106   9.418   2.603   5.934  0.4853 -0.9100 -0.3011
  313MOL0     N43107  10.140   2.985   6.358 -0.4251  0.6160  0.6344
  313MOL0     N43108  10.261   2.982   6.313  0.1135 -0.4784 -0.1525
  313MOL0     C43109  10.639   3.024   4.993  0.5953  0.5469 -0.7191
  313MOL0     C43110  10.654   3.013   4.856 -0.4230  0.3227 -0.3918
  313MOL0     C43111  10.769   2.754   4.467  0.4981  0.2488 -0.3936
  313MOL0     C43112  10.844   2.857   4.417  0.4562 -0.3223  0.1353
  313MOL0     C43113  10.895   2.868   4.283  0.0943  1.1614  0.3444
  313MOL0     C43114  10.866   2.768   4.192  0.2456 -0.3562  0.2299
  313MOL0     O43115  10.914   2.795   4.066  0.2758  0.3568  0.3320
  313MOL0     C43116  11.011   2.695   4.009 -0.1440 -0.1579 -0.0811
  313MOL0     C43117  11.119   2.778   3.941  0.0136  0.1363 -0.3833
  313MOL0     C43118  11.253   2.701   3.910  0.6299  0.6235  0.4494
  313MOL0     C43119  11.348   2.779   3.823  0.3855  0.0913  0.1765
  313MOL0     C43120  11.482   2.725   3.815  0.0926  0.0375 -0.2470
  313MOL0     C43121  11.595   2.690   3.816 -0.3704 -0.3444  0.5970
  313MOL0     C43122  10.801   2.657   4.235  0.6019 -0.5781 -0.0817
  313MOL0     C43123  10.755   2.645   4.373  0.1766  0.6806 -0.9873
  313MOL0     C43124  10.675   2.516   4.395 -0.5020  0.2961 -0.1779
  313MOL0     H43125  10.777   2.698   4.849 -1.9230 -0.1032 -0.3067
  313MOL0     H43126  10.749   2.715   5.080  2.5098 -0.1382 -2.0376
  313MOL0     H43127  10.472   3.039   5.219  0.0697 -1.1452  0.0482
  313MOL0     H43128  10.618   3.120   5.268 -0.1479  0.2464 -0.4010
  313MOL0     H43129  10.530   2.878   5.410  2.6167 -0.1308 -1.0444
  313MOL0     H43130  10.642   3.000   5.482  0.6182  4.4823  0.0812
  313MOL0     H43131  10.459   3.161   5.513  1.7520  0.2705 -0.2637
  313MOL0     H43132  10.344   3.024   5.456  0.4267 -2.4062  0.4161
  313MOL0     H43133  10.334   3.010   5.674 -0.2803 -3.1012  2.1778
  313MOL0     H43134  10.458   2.889   5.655 -1.2696 -0.0545  2.6527
  313MOL0     H43135  10.480   3.178   5.742  2.9956  0.7088 -2.0672
  313MOL0     H43136  10.624   3.081   5.713  0.5495 -0.5964  0.2386
  313MOL0     H43137  10.542   2.914   5.884  1.4772  0.2139 -0.7444
  313MOL0     H43138  10.566   3.078   5.965 -1.4474 -0.6788  0.6827
  313MOL0     H43139  10.287   2.954   5.900 -2.1080  2.0717 -0.1836
  313MOL0     H43140  10.313   3.103   5.981 -4.1219 -1.7475  0.6097
  313MOL0     H43141  10.388   2.829   6.067 -0.0616 -0.5929 -2.1575
  313MOL0     H43142  10.465   2.964   6.152 -2.3133 -0.3314  2.4424
  313MOL0     H43143  10.104   2.877   6.049  4.4157  1.8539 -2.4453
  313MOL0     H43144   9.875   2.998   6.319 -0.0358 -0.9136  2.5946
  313MOL0     H43145   9.922   2.829   6.341  0.1392 -0.2027 -0.3495
  313MOL0     H43146   9.847   2.951   6.082  2.6339 -0.4046 -0.1513
  313MOL0     H43147   9.885   2.775   6.111 -1.0089 -1.7111  0.7666
  313MOL0     H43148   9.690   2.734   6.236  0.2601  0.0366 -0.0852
  313MOL0     H43149   9.643   2.905   6.239 -0.6457 -2.0187  2.6490
  313MOL0     H43150   9.504   2.823   6.067 -0.9018  0.8187 -0.2905
  313MOL0     H43151   9.640   2.892   5.977  0.3532 -0.0320  0.0271
  313MOL0     H43152   9.665   2.443   6.075  1.2137  1.7999 -0.7514
  313MOL0     H43153   9.450   2.140   6.070  1.6861 -0.1604 -0.5985
  313MOL0     H43154   9.450   2.237   6.223 -1.4316 -0.4086  0.0421
  313MOL0     H43155   9.599   2.199   6.128 -0.2844 -1.0693  1.5045
  313MOL0     H43156   9.000   2.192   5.663 -0.2690 -3.8176 -0.0029
  313MOL0     H43157   8.774   2.120   5.650  1.6374 -0.9491 -1.2025
  313MOL0     H43158   8.545   2.209   5.704  2.3933  0.1874 -0.7138
  313MOL0     H43159   8.576   2.037   5.672  0.6162  1.0286  0.1973
  313MOL0     H43160   8.333   2.108   5.667  0.6869  0.5783 -0.4275
  313MOL0     H43161   8.368   1.973   5.782 -0.6989  0.6882  2.2865
  313MOL0     H43162   8.374   2.270   5.856 -0.3752  0.0990 -1.5210
  313MOL0     H43163   8.393   2.141   5.959  0.3807 -2.9547 -0.6294
  313MOL0     H43164   8.160   2.222   5.988  0.9210  2.0611 -0.5685
  313MOL0     H43165   8.156   2.068   5.897 -0.2616  0.9300  0.3325
  313MOL0     H43166   8.177   2.341   5.766  0.4627 -0.0069  2.1304
  313MOL0     H43167   8.145   2.180   5.689  2.6786 -3.0539  2.2881
  313MOL0     H43168   7.923   2.286   5.700 -0.6320 -1.3087 -0.8279
  313MOL0     H43169   7.971   2.351   5.861  0.2749 -0.6002 -0.4511
  313MOL0     H43170   7.934   2.112   5.954 -1.3629 -1.0306  0.7023
  313MOL0     H43171   7.895   2.055   5.794  0.6713  0.6539 -0.2021
  313MOL0     H43172   7.718   2.244   5.959  2.7654  2.2541 -1.0174
  313MOL0     H43173   7.686   2.084   5.897 -1.4823  0.3750 -3.6234
  313MOL0     H43174   8.741   2.180   6.074  0.2286  2.9849  0.5925
  313MOL0     H43175   8.958   2.255   6.097  0.8003 -1.0442  0.4314
  313MOL0     H43176   9.213   2.520   5.900 -0.0041 -1.1013  0.8605
  313MOL0     H43177   9.395   2.686   5.868 -2.2704 -1.5014 -0.1801
  313MOL0     H43178  10.610   3.121   5.032 -0.0720  0.7044 -1.5730
  313MOL0     H43179  10.636   3.102   4.797  2.4419  0.7937 -0.7049
  313MOL0     H43180  10.861   2.948   4.474 -0.6491  0.8743 -1.3275
  313MOL0     H43181  10.959   2.953   4.263  0.4108  0.3795 -2.2947
  313MOL0     H43182  11.062   2.631   4.082  1.2803 -1.0112 -1.7362
  313MOL0     H43183  10.964   2.621   3.943  0.4221 -0.2151 -0.4266
  313MOL0     H43184  11.143   2.858   4.012 -0.4225 -0.8467  0.9037
  313MOL0     H43185  11.080   2.828   3.851 -2.1040 -0.6405  0.0419
  313MOL0     H43186  11.298   2.674   4.005 -4.0958 -2.1321  2.2284
  313MOL0     H43187  11.216   2.613   3.857 -0.3911  0.8571  0.7475
  313MOL0     H43188  11.364   2.876   3.870 -0.6086  0.4634 -0.2355
  313MOL0     H43189  11.309   2.790   3.722  2.0436 -2.0897 -0.7755
  313MOL0     H43190  11.696   2.657   3.814 -0.1521  0.3369 -0.3949
  313MOL0     H43191  10.791   2.573   4.166  3.1100 -0.8278 -0.2320
  313MOL0     H43192  10.625   2.508   4.491 -1.7455 -0.2543 -0.8448
  313MOL0     H43193  10.589   2.512   4.327 -2.1611  0.5882  1.8063
  313MOL0     H43194  10.737   2.426   4.381 -3.2274 -1.6246 -0.8195
  314MOL0     O43195   0.273   8.958   5.120 -0.6850  0.2089  0.0117
  314MOL0     C43196   0.209   8.894   5.038  0.3898 -0.4831 -0.6679
  314MOL0     O43197   0.257   8.875   4.905  0.2978 -0.2578 -0.2194
  314MOL0     C43198   0.375   8.924   4.875 -0.9316  0.2589 -0.4805
  314MOL0     C43199   0.381   9.042   4.804 -0.1437  0.1651 -0.3000
  314MOL0     C43200   0.507   9.085   4.755  0.2056 -0.3334  0.6418
  314MOL0     C43201   0.628   9.011   4.783  0.5139 -0.0497 -0.0876
  314MOL0     O43202   0.749   9.041   4.741 -0.5957 -0.6369 -0.4127
  314MOL0     C43203   0.786   9.173   4.698 -0.2149  0.5207 -0.2182
  314MOL0     C43204   0.933   9.166   4.650 -0.0940 -0.8450 -0.2959
  314MOL0     C43205   1.041   9.160   4.763  0.4228 -0.8547  0.1209
  314MOL0     C43206   1.184   9.182   4.704  0.2879  0.3308  0.3602
  314MOL0     C43207   1.282   9.223   4.813 -0.7529  0.0458 -0.4235
  314MOL0     C43208   1.276   9.124   4.930  0.2783 -0.1260 -0.4506
  314MOL0     C43209   1.400   9.131   5.023  0.0135 -0.2100  0.5299
  314MOL0     C43210   1.389   9.041   5.146 -0.1644 -0.1798 -0.6878
  314MOL0     N43211   1.422   8.906   5.133 -0.0554 -0.7192  0.1328
  314MOL0     C43212   1.439   8.809   5.230  0.1077  0.1139  0.9897
  314MOL0     C43213   1.472   8.702   5.156 -0.1103 -0.1981 -0.3366
  314MOL0     C43214   1.487   8.556   5.204  0.7725 -0.4499 -1.0630
  314MOL0     C43215   1.628   8.542   5.281 -0.1998  0.4409  0.1620
  314MOL0     C43216   1.603   8.438   5.382 -0.6036  0.1648  0.1114
  314MOL0     C43217   1.734   8.368   5.436  0.4281  0.4824 -0.7120
  314MOL0     O43218   1.826   8.467   5.484  0.7656  0.5348 -0.0637
  314MOL0     C43219   1.955   8.429   5.511 -0.4034 -0.7639 -0.1469
  314MOL0     C43220   2.014   8.301   5.492  0.8099  0.4746 -0.0486
  314MOL0     C43221   2.137   8.271   5.540 -0.5574  0.1277 -0.2480
  314MOL0     C43222   2.206   8.135   5.511 -0.5557 -0.3443 -0.2974
  314MOL0     C43223   2.219   8.365   5.603 -0.9106  0.4748  0.6013
  314MOL0     C43224   2.343   8.332   5.671 -0.4364  1.1800  0.2705
  314MOL0     O43225   2.343   8.248   5.785 -0.4327  0.1702 -0.2579
  314MOL0     C43226   2.448   8.217   5.861  1.0560  1.4570  0.4887
  314MOL0     C43227   2.585   8.256   5.844  0.4167  0.1543 -0.7515
  314MOL0     C43228   2.686   8.213   5.929  0.3657 -0.1559  0.7405
  314MOL0     C43229   2.658   8.129   6.034  0.1896  0.0436 -0.0948
  314MOL0     O43230   2.749   8.075   6.125  0.4397  0.7263  0.0450
  314MOL0     C43231   2.886   8.092   6.103 -1.3671 -0.2626  0.2483
  314MOL0     C43232   2.955   7.982   6.184 -0.2746 -0.1252 -0.0586
  314MOL0     C43233   3.097   8.027   6.225  1.1523  0.5226  0.1220
  314MOL0     C43234   3.178   7.905   6.259 -0.4246 -1.8272  0.1170
  314MOL0     C43235   3.316   7.955   6.332  0.2561  0.4663 -0.4040
  314MOL0     C43236   3.419   7.841   6.353 -0.4442  0.4718 -1.6601
  314MOL0     C43237   3.541   7.883   6.439 -0.6186 -0.7303 -0.0725
  314MOL0     C43238   3.647   7.776   6.457  0.1802 -0.1532 -0.2737
  314MOL0    Cl43239   3.776   7.812   6.574 -0.0758 -0.5357 -0.2078
  314MOL0     C43240   2.527   8.098   6.056 -0.5926 -0.0965 -0.6495
  314MOL0     C43241   2.426   8.134   5.971  0.5975 -0.7835  0.0889
  314MOL0     O43242   2.443   8.393   5.634  0.7723  0.2721 -1.0660
  314MOL0     C43243   2.170   8.493   5.607  0.2697 -0.2930  0.1594
  314MOL0     C43244   2.038   8.530   5.571  0.2822  0.5935 -0.1826
  314MOL0     N43245   1.485   8.737   5.021 -0.2728 -0.0805 -0.8997
  314MOL0     N43246   1.456   8.859   5.011 -0.4059  0.0476  1.2098
  314MOL0     C43247   0.612   8.886   4.852  0.1927  0.7184  0.4269
  314MOL0     C43248   0.488   8.848   4.899  0.0755  0.5269  0.0022
  314MOL0     C43249   0.084   8.827   5.076  0.8008  0.6023  0.7772
  314MOL0     C43250   0.059   8.827   5.212 -0.4699 -0.3808  0.6959
  314MOL0     C43251  -0.057   8.774   5.265 -0.0291  0.1825  0.3907
  314MOL0     C43252  -0.161   8.724   5.192  0.3236 -0.0774  0.2245
  314MOL0     O43253  -0.276   8.662   5.237 -0.8556 -0.2936  0.4233
  314MOL0     C43254  -0.310   8.682   5.372 -0.0259 -0.3588  0.1060
  314MOL0     C43255  -0.451   8.623   5.400 -0.3812 -0.0434 -0.5901
  314MOL0     C43256  -0.556   8.720   5.336 -0.1807  0.3061  0.1426
  314MOL0     C43257  -0.702   8.672   5.364 -0.3617 -0.8314  0.0386
  314MOL0     C43258  -0.731   8.542   5.303  1.4916 -1.1858 -0.5833
  314MOL0     C43259  -0.742   8.429   5.258  0.4659 -0.2797 -0.4426
  314MOL0     C43260  -0.136   8.723   5.056 -0.1174  0.3006 -0.0334
  314MOL0     C43261  -0.022   8.773   4.989  0.6544 -0.0006  0.6196
  314MOL0     C43262  -0.041   8.778   4.838  0.1823 -0.4884  0.5804
  314MOL0     H43263   0.292   9.097   4.775 -0.1129  1.3169  1.6560
  314MOL0     H43264   0.499   9.175   4.694 -2.4985 -0.7999  0.1806
  314MOL0     H43265   0.780   9.227   4.793  2.7793 -2.4754  1.9115
  314MOL0     H43266   0.718   9.204   4.619  0.1105 -0.5852 -0.9468
  314MOL0     H43267   0.944   9.076   4.589  2.1412  0.1328 -1.4562
  314MOL0     H43268   0.949   9.250   4.582  0.7285 -0.0457  0.8479
  314MOL0     H43269   1.015   9.232   4.841 -0.4524  0.0892 -1.0132
  314MOL0     H43270   1.036   9.063   4.814  1.5587 -0.8522  0.2824
  314MOL0     H43271   1.204   9.084   4.660 -5.4853 -0.1298 -2.2023
  314MOL0     H43272   1.182   9.258   4.625  1.8659 -1.3699 -1.4067
  314MOL0     H43273   1.249   9.324   4.840 -1.7923  1.0071 -4.5859
  314MOL0     H43274   1.385   9.226   4.774 -0.5573  1.6215  0.1391
  314MOL0     H43275   1.179   9.143   4.978  0.2552  1.4206 -1.0572
  314MOL0     H43276   1.277   9.020   4.895  4.4901 -0.1436 -0.6777
  314MOL0     H43277   1.415   9.229   5.069  0.9854  1.0362 -2.2117
  314MOL0     H43278   1.481   9.106   4.955  0.8759  0.7821  1.1546
  314MOL0     H43279   1.454   9.070   5.229  0.7376 -3.1096 -0.2812
  314MOL0     H43280   1.283   9.046   5.172 -0.1909 -2.7357 -0.0295
  314MOL0     H43281   1.420   8.806   5.336 -0.5632  0.5056  0.8837
  314MOL0     H43282   1.468   8.468   5.142 -0.6174 -1.0119  0.1020
  314MOL0     H43283   1.407   8.551   5.278  1.0839  0.1579 -0.6747
  314MOL0     H43284   1.697   8.512   5.202 -1.0724  0.9123 -0.7938
  314MOL0     H43285   1.649   8.641   5.321 -1.2177  1.4332 -1.6623
  314MOL0     H43286   1.553   8.490   5.465 -0.7075 -0.5312  0.4907
  314MOL0     H43287   1.532   8.363   5.347 -2.8255  2.2201 -0.0838
  314MOL0     H43288   1.708   8.291   5.509  1.7935 -3.1666 -3.7324
  314MOL0     H43289   1.783   8.312   5.355  4.4777  0.5128  1.4778
  314MOL0     H43290   1.967   8.224   5.431  0.3630  0.9943 -0.3685
  314MOL0     H43291   2.163   8.068   5.435  0.0646 -0.3023 -0.6946
  314MOL0     H43292   2.192   8.080   5.604  0.0846 -0.8094 -0.4693
  314MOL0     H43293   2.312   8.154   5.493 -0.6575 -0.6386 -1.2730
  314MOL0     H43294   2.627   8.319   5.767  3.5583 -0.4967  0.2847
  314MOL0     H43295   2.783   8.260   5.914 -0.6184  1.0126 -2.8615
  314MOL0     H43296   2.918   8.077   6.000  1.6481  3.0096  0.5120
  314MOL0     H43297   2.907   8.195   6.136  1.2687  0.0153 -1.9489
  314MOL0     H43298   2.892   7.951   6.268 -0.2834  1.0602  0.3885
  314MOL0     H43299   2.977   7.900   6.114 -0.3897  2.2704 -3.1021
  314MOL0     H43300   3.092   8.105   6.302  1.5226  1.3681 -0.6930
  314MOL0     H43301   3.133   8.074   6.134  1.8589  0.2714  0.2686
  314MOL0     H43302   3.204   7.854   6.166  0.8659 -3.0147  1.0716
  314MOL0     H43303   3.128   7.839   6.330 -2.0064 -1.2375 -0.4148
  314MOL0     H43304   3.368   8.025   6.265 -1.0140  0.8286 -1.0424
  314MOL0     H43305   3.284   8.002   6.425 -0.7053 -0.4865 -0.2476
  314MOL0     H43306   3.456   7.805   6.257  2.5690  0.3844 -0.5704
  314MOL0     H43307   3.375   7.765   6.419  1.9562 -0.7000 -1.2970
  314MOL0     H43308   3.510   7.908   6.541  3.2086 -1.3239  1.3878
  314MOL0     H43309   3.598   7.967   6.398  0.6169 -0.9273  1.1570
  314MOL0     H43310   3.691   7.755   6.359 -2.2023 -1.3719 -1.1624
  314MOL0     H43311   3.591   7.684   6.477  0.3120 -0.3510 -0.7956
  314MOL0     H43312   2.507   8.039   6.144  1.6627 -1.7595 -1.1688
  314MOL0     H43313   2.327   8.099   5.996  0.9999 -1.0898  1.3284
  314MOL0     H43314   2.233   8.570   5.652  0.9392 -1.1332  0.6829
  314MOL0     H43315   1.994   8.627   5.591 -2.5717 -1.2133  3.5412
  314MOL0     H43316   0.701   8.825   4.863  1.4259  2.5231  0.8383
  314MOL0     H43317   0.454   8.750   4.930 -2.2511  1.1152 -0.4865
  314MOL0     H43318   0.130   8.874   5.280  1.0212  1.3096 -1.8933
  314MOL0     H43319  -0.055   8.787   5.373  0.8238  1.6179  0.2376
  314MOL0     H43320  -0.242   8.622   5.433 -1.1991  0.0732  1.9189
  314MOL0     H43321  -0.296   8.786   5.401 -0.1271 -0.7531  1.6540
  314MOL0     H43322  -0.459   8.615   5.509  0.0047  2.8590 -0.2593
  314MOL0     H43323  -0.454   8.525   5.352  3.4147 -1.0490  0.8598
  314MOL0     H43324  -0.536   8.816   5.384  3.3205 -0.2471  0.0416
  314MOL0     H43325  -0.535   8.728   5.229  3.9067 -2.3397  0.5397
  314MOL0     H43326  -0.785   8.734   5.330 -0.8258 -1.3351  0.2402
  314MOL0     H43327  -0.723   8.657   5.470 -2.7595  1.9888  0.0770
  314MOL0     H43328  -0.750   8.332   5.213  1.8848  0.7078 -3.0123
  314MOL0     H43329  -0.222   8.686   5.001 -1.5988  0.0163  2.3258
  314MOL0     H43330  -0.140   8.770   4.792  1.0925  3.9666 -2.8129
  314MOL0     H43331   0.002   8.867   4.792  3.7753 -1.0916  2.3997
  314MOL0     H43332   0.015   8.694   4.796 -0.0512 -0.4468  0.1863
  315MOL0     O43333   7.096   4.005   5.218 -0.2469  0.3051  0.1726
  315MOL0     C43334   7.108   4.027   5.342 -0.5032 -0.3629 -0.5172
  315MOL0     O43335   7.009   4.078   5.419 -0.4114  0.7011 -0.2823
  315MOL0     C43336   6.896   4.128   5.357  0.4600  0.0079  0.2151
  315MOL0     C43337   6.885   4.228   5.255  0.5625 -0.4309  0.4319
  315MOL0     C43338   6.762   4.280   5.216  0.3980  0.9448 -0.6296
  315MOL0     C43339   6.645   4.245   5.277  0.2461  0.5541 -0.8177
  315MOL0     O43340   6.530   4.313   5.238 -0.6237  1.0618  0.1479
  315MOL0     C43341   6.421   4.224   5.232  0.1978  0.0067  0.3353
  315MOL0     C43342   6.319   4.286   5.138 -0.7299  0.0139  0.4316
  315MOL0     C43343   6.377   4.363   5.022 -0.1720  0.1215 -0.0351
  315MOL0     C43344   6.268   4.405   4.925  0.4923  0.3330  0.1965
  315MOL0     C43345   6.318   4.472   4.803  0.5218 -0.4112 -0.5990
  315MOL0     C43346   6.229   4.584   4.760 -1.0176 -1.0153 -0.5713
  315MOL0     C43347   6.296   4.677   4.655  0.4373  0.1469  0.2262
  315MOL0     C43348   6.192   4.757   4.574  0.1074  0.7524  0.7273
  315MOL0     N43349   6.241   4.890   4.530 -0.4409  0.1197  0.2427
  315MOL0     C43350   6.277   4.922   4.397  0.7998  0.6889 -1.3284
  315MOL0     C43351   6.322   5.053   4.408  0.8736 -0.0741 -0.5935
  315MOL0     C43352   6.384   5.123   4.290 -0.1640 -0.4543  0.2697
  315MOL0     C43353   6.503   5.053   4.222 -0.6413  0.0226  0.0317
  315MOL0     C43354   6.618   5.013   4.318 -0.1232  1.2485  0.3357
  315MOL0     C43355   6.673   4.874   4.262 -0.2964 -0.4019  0.2536
  315MOL0     O43356   6.796   4.830   4.341  0.1660 -0.9071  0.4637
  315MOL0     C43357   6.881   4.729   4.300 -0.3814 -0.0932 -0.1535
  315MOL0     C43358   7.004   4.706   4.360  0.5780 -0.5591  0.4730
  315MOL0     C43359   7.105   4.631   4.303  0.4281  0.7327 -0.2291
  315MOL0     C43360   7.231   4.633   4.377  0.8481  0.6707  0.4213
  315MOL0     C43361   7.075   4.558   4.183 -0.5463 -0.4383 -0.4080
  315MOL0     C43362   7.175   4.463   4.117  0.3502 -0.3785  1.1209
  315MOL0     O43363   7.297   4.444   4.173  0.0990 -0.1987 -0.6893
  315MOL0     C43364   7.363   4.332   4.125 -0.3730 -0.2898  0.4919
  315MOL0     C43365   7.496   4.349   4.085 -0.6775 -0.3748 -0.4978
  315MOL0     C43366   7.576   4.236   4.061  0.0153 -0.1111  0.7806
  315MOL0     C43367   7.535   4.110   4.073  0.9215 -0.5784 -0.0153
  315MOL0     O43368   7.600   3.994   4.039 -0.3229 -0.0065  0.7279
  315MOL0     C43369   7.742   3.979   4.058 -0.9537 -0.3002 -1.2208
  315MOL0     C43370   7.762   3.826   4.068  0.0793  0.4379  0.5961
  315MOL0     C43371   7.684   3.779   4.189 -0.8225 -0.4931  0.0169
  315MOL0     C43372   7.657   3.637   4.177 -0.8516 -0.2218  0.0809
  315MOL0     C43373   7.623   3.588   4.319  0.0314  0.5401 -0.2111
  315MOL0     C43374   7.490   3.638   4.384 -0.2045 -0.1422  0.1314
  315MOL0     C43375   7.366   3.608   4.289  0.1411  0.3089  0.0480
  315MOL0     C43376   7.256   3.705   4.331  0.1900  0.0260 -0.0068
  315MOL0    Cl43377   7.096   3.664   4.283 -0.2538 -0.5015  0.0467
  315MOL0     C43378   7.399   4.093   4.102  0.5579  0.1538 -0.6717
  315MOL0     C43379   7.310   4.201   4.122 -0.3324 -0.1962 -0.5094
  315MOL0     O43380   7.132   4.411   4.012 -0.7497  0.1671  0.3344
  315MOL0     C43381   6.945   4.564   4.139  1.1214 -0.7646  0.5473
  315MOL0     C43382   6.852   4.655   4.191  0.5057  0.0770  0.1831
  315MOL0     N43383   6.291   5.109   4.532  0.1924  0.4844  0.1683
  315MOL0     N43384   6.245   5.007   4.607  0.0906  0.8816 -0.1397
  315MOL0     C43385   6.651   4.142   5.369  0.3066 -0.0995 -0.4812
  315MOL0     C43386   6.778   4.080   5.410 -0.5071 -0.7215  0.3305
  315MOL0     C43387   7.221   3.963   5.424  0.0813  0.0169  0.1956
  315MOL0     C43388   7.284   3.849   5.366  0.5135 -1.0988 -0.0421
  315MOL0     C43389   7.387   3.777   5.434  0.3369 -0.3318  0.4572
  315MOL0     C43390   7.443   3.828   5.551 -0.4652  0.1313  0.0641
  315MOL0     O43391   7.538   3.758   5.618 -0.3293  0.3708  0.1291
  315MOL0     C43392   7.498   3.680   5.733 -0.0375 -0.1426  0.7136
  315MOL0     C43393   7.558   3.535   5.731  0.1912  0.0029 -0.3328
  315MOL0     C43394   7.709   3.521   5.740  0.2550 -0.1346 -0.6100
  315MOL0     C43395   7.789   3.504   5.613  1.1535  0.3067  1.2627
  315MOL0     C43396   7.927   3.454   5.649  0.5471  0.8561 -0.1203
  315MOL0     C43397   8.038   3.421   5.678  0.8373 -0.5984  0.4233
  315MOL0     C43398   7.393   3.949   5.596  0.6640 -0.5688 -0.4818
  315MOL0     C43399   7.276   4.009   5.538  0.4468 -0.0603  0.6865
  315MOL0     C43400   7.223   4.127   5.614 -0.7848  0.2533  0.0076
  315MOL0     H43401   6.982   4.257   5.215  0.6477 -1.1297  0.1088
  315MOL0     H43402   6.762   4.345   5.128 -1.7452 -0.1892 -1.5490
  315MOL0     H43403   6.378   4.207   5.331 -0.6995 -2.1490 -0.3733
  315MOL0     H43404   6.456   4.127   5.195 -1.1293 -0.4514  0.2111
  315MOL0     H43405   6.284   4.191   5.095  0.0095 -0.1112  0.0874
  315MOL0     H43406   6.245   4.345   5.193 -2.6025 -0.6564 -1.2320
  315MOL0     H43407   6.435   4.450   5.055  0.5339  0.4529 -2.0389
  315MOL0     H43408   6.455   4.307   4.969 -1.8475 -1.3801 -0.9982
  315MOL0     H43409   6.216   4.319   4.882 -2.0930  1.1675  1.4290
  315MOL0     H43410   6.195   4.462   4.984  0.5844  0.1074  0.5342
  315MOL0     H43411   6.305   4.399   4.722  0.0307  1.5306 -2.3421
  315MOL0     H43412   6.418   4.512   4.822 -0.4598  0.8690  2.4131
  315MOL0     H43413   6.140   4.539   4.716 -1.3622 -0.4733 -0.4462
  315MOL0     H43414   6.197   4.648   4.843  0.1480 -1.6999  0.4338
  315MOL0     H43415   6.365   4.628   4.587  1.6581  3.2575 -0.9374
  315MOL0     H43416   6.362   4.743   4.712  1.4773  2.9653 -3.8068
  315MOL0     H43417   6.168   4.694   4.488  2.1458  1.2077 -0.2283
  315MOL0     H43418   6.104   4.763   4.640  0.3078 -2.4849  1.4508
  315MOL0     H43419   6.288   4.851   4.316  0.7257 -1.9379  0.8147
  315MOL0     H43420   6.419   5.224   4.315 -0.1763  0.6181 -3.4483
  315MOL0     H43421   6.309   5.120   4.211  0.6869 -1.2478 -0.5351
  315MOL0     H43422   6.458   4.959   4.189  0.6204 -0.8561  0.7620
  315MOL0     H43423   6.547   5.110   4.139  0.9653 -0.1294  0.7367
  315MOL0     H43424   6.695   5.086   4.345  0.3470  0.1187  2.1383
  315MOL0     H43425   6.576   4.983   4.414 -0.4911 -0.7627 -0.4076
  315MOL0     H43426   6.603   4.790   4.269 -0.7336 -0.3282 -2.1599
  315MOL0     H43427   6.707   4.896   4.160  3.5855  1.2186  1.6921
  315MOL0     H43428   7.013   4.753   4.458  1.3119  1.9344 -0.6866
  315MOL0     H43429   7.266   4.530   4.383 -1.4532 -0.6698 -4.3768
  315MOL0     H43430   7.231   4.700   4.464 -1.6869  4.1979 -2.0369
  315MOL0     H43431   7.309   4.672   4.312  0.7199 -3.7810 -2.8325
  315MOL0     H43432   7.538   4.449   4.089 -2.1864  0.3056 -1.0539
  315MOL0     H43433   7.680   4.236   4.029  0.0400  0.3487  0.8603
  315MOL0     H43434   7.791   4.018   3.969  1.6654  1.8256  0.9878
  315MOL0     H43435   7.792   4.027   4.142  4.6757  0.2440 -4.4074
  315MOL0     H43436   7.726   3.786   3.973 -0.8432 -0.6156  1.3633
  315MOL0     H43437   7.866   3.804   4.093 -0.2687  0.3968  2.0902
  315MOL0     H43438   7.583   3.820   4.199 -1.2834 -1.1891 -1.5469
  315MOL0     H43439   7.735   3.814   4.279  1.3406 -2.2779 -0.4502
  315MOL0     H43440   7.736   3.575   4.134  0.8029  0.7473  1.5972
  315MOL0     H43441   7.576   3.626   4.105 -1.0889  2.7079 -0.2116
  315MOL0     H43442   7.603   3.481   4.306 -1.1134  0.8664 -1.3199
  315MOL0     H43443   7.700   3.603   4.395  1.3992 -0.0591 -1.4259
  315MOL0     H43444   7.494   3.742   4.415 -1.6759 -0.0640  0.1688
  315MOL0     H43445   7.480   3.580   4.476  0.3749  2.0005  1.6119
  315MOL0     H43446   7.341   3.502   4.290  1.3296 -0.0248 -1.3025
  315MOL0     H43447   7.400   3.631   4.187 -1.1282  0.0254 -0.4594
  315MOL0     H43448   7.285   3.795   4.276  1.1629  0.5629  1.3274
  315MOL0     H43449   7.248   3.728   4.438 -2.3387  0.1144 -0.1512
  315MOL0     H43450   7.351   3.996   4.095  2.7414 -1.0238 -0.4745
  315MOL0     H43451   7.205   4.183   4.142 -0.1023  0.0065  0.9646
  315MOL0     H43452   6.911   4.514   4.048 -0.1949 -0.1962  0.7083
  315MOL0     H43453   6.754   4.664   4.145  0.2544 -2.0535  0.2094
  315MOL0     H43454   6.560   4.098   5.408  1.2889 -1.3667  0.5212
  315MOL0     H43455   6.761   4.006   5.489 -1.3973 -0.1719  0.6676
  315MOL0     H43456   7.259   3.808   5.268 -1.0175 -2.9773  1.0667
  315MOL0     H43457   7.429   3.688   5.389  0.2373 -0.0542 -0.1948
  315MOL0     H43458   7.541   3.744   5.811  0.7722  2.7283 -1.8449
  315MOL0     H43459   7.389   3.682   5.744  0.0443  2.3125  1.7377
  315MOL0     H43460   7.517   3.485   5.642 -1.2906 -0.2855  0.4783
  315MOL0     H43461   7.520   3.486   5.821  3.2802 -0.8390  0.6192
  315MOL0     H43462   7.756   3.604   5.793 -1.9652  1.8747 -1.5955
  315MOL0     H43463   7.725   3.433   5.803 -0.5345  0.6421  0.7373
  315MOL0     H43464   7.784   3.601   5.563  0.9957  0.2008  1.0715
  315MOL0     H43465   7.741   3.429   5.549 -2.4299  1.8990  1.8202
  315MOL0     H43466   8.136   3.401   5.718  0.7973 -1.1944  0.2281
  315MOL0     H43467   7.432   4.001   5.683 -4.0286  2.4852  0.1906
  315MOL0     H43468   7.123   4.106   5.654 -1.5315  1.0564 -1.3558
  315MOL0     H43469   7.281   4.154   5.702  0.4532  0.5807 -0.8754
  315MOL0     H43470   7.220   4.214   5.547  1.1845 -0.5305 -1.1904
  316MOL0     O43471   1.035   8.116   2.710  0.6751  0.4097  0.9247
  316MOL0     C43472   0.951   8.038   2.756 -0.2405  0.1095  0.2562
  316MOL0     O43473   0.980   7.959   2.867 -0.6762 -0.6807 -0.1949
  316MOL0     C43474   1.101   7.978   2.928 -0.2597 -0.0066  0.0571
  316MOL0     C43475   1.112   8.064   3.045 -0.8051  0.1632  0.2819
  316MOL0     C43476   1.240   8.076   3.101  0.4054  0.5073 -0.3009
  316MOL0     C43477   1.351   8.003   3.058 -0.4599 -0.7432  0.4417
  316MOL0     O43478   1.479   8.023   3.108 -0.3591 -0.3327  0.2682
  316MOL0     C43479   1.480   8.036   3.255  0.5843  0.0856  0.5620
  316MOL0     C43480   1.619   8.050   3.307  0.3577  0.5209 -0.7079
  316MOL0     C43481   1.674   8.186   3.279 -0.8809 -0.7750 -0.9451
  316MOL0     C43482   1.803   8.223   3.359  0.8911  0.2442  0.5974
  316MOL0     C43483   1.835   8.369   3.335  0.2121  0.3679  0.1963
  316MOL0     C43484   1.976   8.415   3.388 -0.7224 -1.3290 -0.8618
  316MOL0     C43485   2.014   8.551   3.323  0.0756 -0.8656 -0.2657
  316MOL0     C43486   1.923   8.661   3.379  0.5615  1.2851  0.3767
  316MOL0     N43487   1.992   8.786   3.337  0.1382 -0.2774 -0.2122
  316MOL0     C43488   2.020   8.834   3.210  0.3326 -0.3899 -0.1868
  316MOL0     C43489   2.108   8.941   3.229 -0.0474  0.4484  0.9077
  316MOL0     C43490   2.163   9.033   3.134 -0.4517 -0.0796  0.6388
  316MOL0     C43491   2.313   9.052   3.149 -0.4276  0.1111  0.0483
  316MOL0     C43492   2.385   8.925   3.081  0.1674  0.0182 -0.4381
  316MOL0     C43493   2.534   8.946   3.057  0.1886  0.1469 -0.0592
  316MOL0     O43494   2.583   8.829   2.995 -0.3522  1.5050 -0.2919
  316MOL0     C43495   2.715   8.828   2.948 -0.0661 -0.7908  0.6596
  316MOL0     C43496   2.760   8.709   2.891 -0.2223 -0.2354 -1.1297
  316MOL0     C43497   2.888   8.688   2.833  1.1477 -0.0432 -0.0006
  316MOL0     C43498   2.905   8.553   2.767  0.2765  0.5980 -0.2959
  316MOL0     C43499   2.979   8.797   2.825 -0.7180 -0.7307 -0.3636
  316MOL0     C43500   3.119   8.789   2.764 -0.4981  0.2216 -0.2797
  316MOL0     O43501   3.189   8.907   2.737  0.0102 -0.0777  0.2719
  316MOL0     C43502   3.307   8.883   2.669 -0.3038  0.5431 -0.5017
  316MOL0     C43503   3.426   8.871   2.740 -1.4279  0.3756 -0.0564
  316MOL0     C43504   3.542   8.838   2.680 -0.1736  0.8535 -0.0095
  316MOL0     C43505   3.547   8.823   2.540 -0.0697 -0.4670 -0.5231
  316MOL0     O43506   3.665   8.787   2.489  0.2214 -0.4249 -0.1329
  316MOL0     C43507   3.676   8.728   2.361  0.3492 -0.6358 -0.4273
  316MOL0     C43508   3.830   8.707   2.330  0.2302  0.5553 -0.3086
  316MOL0     C43509   3.852   8.645   2.198  0.3698  0.2814 -0.4391
  316MOL0     C43510   4.000   8.639   2.149  0.3869 -0.7745 -0.8928
  316MOL0     C43511   4.023   8.539   2.029  0.1735  0.5369  0.8045
  316MOL0     C43512   4.162   8.584   1.965  0.1374 -0.0851  0.3427
  316MOL0     C43513   4.193   8.532   1.819 -0.5296  0.5682 -0.6457
  316MOL0     C43514   4.323   8.590   1.763 -0.1525 -0.1456 -0.0344
  316MOL0    Cl43515   4.292   8.760   1.716  0.1763  0.0525  0.8573
  316MOL0     C43516   3.436   8.844   2.464  0.4132 -0.7702 -0.1245
  316MOL0     C43517   3.309   8.861   2.529 -0.0847  0.2014 -0.0240
  316MOL0     O43518   3.161   8.674   2.739  0.0782  0.3914 -0.3579
  316MOL0     C43519   2.939   8.920   2.891 -0.7929  0.1578  0.2535
  316MOL0     C43520   2.815   8.932   2.951  0.2940  0.3166  0.5025
  316MOL0     N43521   2.120   8.959   3.368 -0.8666  0.1262 -0.4318
  316MOL0     N43522   2.053   8.862   3.427 -0.0973 -0.1077  0.0700
  316MOL0     C43523   1.333   7.920   2.948 -0.4722 -0.2819  0.3769
  316MOL0     C43524   1.214   7.903   2.882  1.5337 -0.2278 -0.0104
  316MOL0     C43525   0.823   8.000   2.694  0.1949  0.5589  0.4157
  316MOL0     C43526   0.737   7.907   2.764 -0.5015 -0.4329  0.4696
  316MOL0     C43527   0.612   7.874   2.707 -0.4103 -0.3210 -0.2581
  316MOL0     C43528   0.572   7.928   2.592  0.1760 -0.2434 -0.1418
  316MOL0     O43529   0.447   7.915   2.534 -0.1164 -0.4489 -0.6129
  316MOL0     C43530   0.354   7.825   2.596 -0.6277 -0.3025  0.3445
  316MOL0     C43531   0.205   7.857   2.555 -0.4733 -0.2965  0.1528
  316MOL0     C43532   0.175   7.864   2.402 -0.8331  0.3405  0.4497
  316MOL0     C43533   0.042   7.797   2.371  0.1937 -0.3788 -0.3587
  316MOL0     C43534  -0.009   7.835   2.236 -1.4429 -0.3856  0.2588
  316MOL0     C43535  -0.032   7.870   2.126 -0.3719 -0.3470  0.2039
  316MOL0     C43536   0.663   8.013   2.526  0.4648  0.4565  1.1709
  316MOL0     C43537   0.780   8.052   2.572  0.6131 -0.7759 -0.2020
  316MOL0     C43538   0.864   8.152   2.494  0.1884  0.3914 -0.0451
  316MOL0     H43539   1.022   8.111   3.084  0.0130  0.1858  2.2432
  316MOL0     H43540   1.245   8.142   3.187  2.1252  1.5140 -1.1055
  316MOL0     H43541   1.437   7.946   3.299  1.7561 -1.1992 -0.8238
  316MOL0     H43542   1.421   8.123   3.286 -1.3411 -0.7777 -0.4837
  316MOL0     H43543   1.623   8.042   3.416 -2.0304  2.7187 -0.3725
  316MOL0     H43544   1.685   7.980   3.254 -2.3162 -2.7114 -0.0838
  316MOL0     H43545   1.693   8.204   3.173  1.8027  1.1642 -0.2669
  316MOL0     H43546   1.597   8.259   3.307  1.4428  1.6825 -0.5087
  316MOL0     H43547   1.778   8.203   3.463 -2.7574 -1.6493 -0.4699
  316MOL0     H43548   1.889   8.168   3.320 -0.0685 -0.9116  0.0605
  316MOL0     H43549   1.770   8.445   3.379 -0.6620  0.6409 -1.4699
  316MOL0     H43550   1.824   8.382   3.227 -0.2226 -0.1663  0.1737
  316MOL0     H43551   1.983   8.418   3.497 -0.0304  1.3909 -0.9222
  316MOL0     H43552   2.045   8.334   3.364  2.1816  1.0396 -1.0218
  316MOL0     H43553   1.993   8.561   3.216  0.8207  2.8045 -0.2081
  316MOL0     H43554   2.117   8.579   3.348  0.1092 -0.8422 -0.4326
  316MOL0     H43555   1.820   8.660   3.341  1.1039  0.6706 -1.1749
  316MOL0     H43556   1.913   8.657   3.488  1.4450  0.3835  0.4330
  316MOL0     H43557   1.972   8.796   3.120 -1.4898 -2.5794  1.5767
  316MOL0     H43558   2.115   9.130   3.149 -0.2752  0.4760 -1.9129
  316MOL0     H43559   2.133   9.004   3.033 -1.2317 -0.6457  1.0205
  316MOL0     H43560   2.353   9.149   3.119 -1.7432  0.8691  0.6550
  316MOL0     H43561   2.342   9.054   3.254 -0.3639  0.2091  0.0284
  316MOL0     H43562   2.360   8.836   3.139 -0.4625  0.8174  0.5297
  316MOL0     H43563   2.341   8.907   2.982 -0.6558 -1.1953  0.1264
  316MOL0     H43564   2.562   9.040   3.010  1.4720  0.6242  1.5806
  316MOL0     H43565   2.583   8.969   3.152 -1.3773 -1.7627  1.2983
  316MOL0     H43566   2.676   8.641   2.879 -0.1346 -0.1936 -2.0503
  316MOL0     H43567   2.921   8.573   2.661  0.5750  0.5929 -0.2541
  316MOL0     H43568   2.820   8.487   2.783  0.8563  0.6002  3.9415
  316MOL0     H43569   2.994   8.500   2.803 -1.7152 -2.4963  0.4787
  316MOL0     H43570   3.424   8.883   2.848  3.1227  0.5175  0.1953
  316MOL0     H43571   3.623   8.828   2.752 -1.6924  0.3678  1.6892
  316MOL0     H43572   3.626   8.631   2.368 -1.6092  0.4396  1.3224
  316MOL0     H43573   3.632   8.790   2.282  0.4515  2.8608  2.0589
  316MOL0     H43574   3.876   8.806   2.331 -0.7034  1.0026 -0.7702
  316MOL0     H43575   3.883   8.641   2.400  0.6274 -0.8178 -1.8369
  316MOL0     H43576   3.784   8.682   2.121 -1.8144  0.0008  1.2687
  316MOL0     H43577   3.825   8.541   2.220 -0.2485  0.4534 -0.3805
  316MOL0     H43578   4.068   8.619   2.232  1.0441 -0.6823 -1.3949
  316MOL0     H43579   4.014   8.743   2.116  1.3205  0.3364  2.5752
  316MOL0     H43580   4.029   8.432   2.049 -1.2653  0.4311  0.7218
  316MOL0     H43581   3.941   8.555   1.959 -0.9109  0.6064  2.0613
  316MOL0     H43582   4.239   8.554   2.036  1.5160  0.7418 -0.7501
  316MOL0     H43583   4.156   8.693   1.963 -0.8519 -0.0580  2.4290
  316MOL0     H43584   4.106   8.539   1.753 -0.1231  0.6508 -1.1812
  316MOL0     H43585   4.212   8.425   1.829 -1.4695  0.5271  0.8837
  316MOL0     H43586   4.349   8.529   1.676 -2.4275 -1.6685  0.2672
  316MOL0     H43587   4.401   8.599   1.840 -1.2180  0.5119  1.0086
  316MOL0     H43588   3.433   8.842   2.356 -0.2351  1.0255 -0.1680
  316MOL0     H43589   3.225   8.891   2.468 -1.7817 -1.8342  1.1580
  316MOL0     H43590   3.017   8.994   2.909  3.1354 -3.2346 -1.0830
  316MOL0     H43591   2.790   9.027   2.996 -0.9696 -0.2354  1.0007
  316MOL0     H43592   1.416   7.862   2.908  0.6565  1.4536  0.0822
  316MOL0     H43593   1.203   7.832   2.801 -2.7263  1.4595 -1.1789
  316MOL0     H43594   0.770   7.865   2.858 -2.3431 -1.3465  0.7543
  316MOL0     H43595   0.564   7.795   2.764  2.5710 -1.2169  1.2212
  316MOL0     H43596   0.386   7.723   2.573  0.5787  0.2841 -0.6655
  316MOL0     H43597   0.353   7.834   2.705  1.6503  0.5242  0.3572
  316MOL0     H43598   0.185   7.958   2.592 -2.7920 -1.0645  1.1274
  316MOL0     H43599   0.137   7.794   2.611  0.5657  0.1651  2.0127
  316MOL0     H43600   0.171   7.971   2.379  0.5058 -0.1002 -2.2550
  316MOL0     H43601   0.252   7.813   2.343  0.0865 -0.2881  2.1169
  316MOL0     H43602  -0.035   7.825   2.443  1.2549 -2.0684  1.5371
  316MOL0     H43603   0.048   7.688   2.374  0.2752 -0.3799  2.3188
  316MOL0     H43604  -0.071   7.912   2.036 -0.6494  0.3103  0.6179
  316MOL0     H43605   0.619   8.068   2.444  1.5794  0.1863  0.3766
  316MOL0     H43606   0.834   8.173   2.390  2.1802  2.5569 -0.2736
  316MOL0     H43607   0.857   8.252   2.537  0.9288 -0.5204  2.3074
  316MOL0     H43608   0.962   8.113   2.468 -0.0719  0.0985 -0.6298
  317MOL0     O43609   8.339   6.956   4.485 -0.1431  0.3925  0.1603
  317MOL0     C43610   8.347   7.007   4.596  0.2113 -0.3606  0.0369
  317MOL0     O43611   8.461   7.065   4.645  0.5467 -0.5316 -0.0112
  317MOL0     C43612   8.577   7.029   4.592 -0.5344  0.1523 -0.0052
  317MOL0     C43613   8.627   7.113   4.494 -1.0801  0.2832 -0.2665
  317MOL0     C43614   8.757   7.090   4.441 -0.3057 -0.0622  0.1241
  317MOL0     C43615   8.836   6.994   4.501 -0.1353  0.4759 -1.1786
  317MOL0     O43616   8.962   6.979   4.459 -0.0984  0.3649 -0.1988
  317MOL0     C43617   9.067   6.927   4.549 -0.1189  0.4646  0.3347
  317MOL0     C43618   9.194   7.020   4.537  0.2025  0.4177 -0.3773
  317MOL0     C43619   9.160   7.168   4.575  0.4215 -0.2950 -0.5649
  317MOL0     C43620   9.080   7.180   4.711 -0.3158 -0.6377 -0.7090
  317MOL0     C43621   9.049   7.329   4.752 -0.3045 -0.4309  0.4869
  317MOL0     C43622   8.907   7.370   4.723 -0.3701  0.8648 -0.5513
  317MOL0     C43623   8.904   7.523   4.719  0.0362 -0.1226 -0.9376
  317MOL0     C43624   8.885   7.589   4.861  0.7634 -0.1052  0.4512
  317MOL0     N43625   8.977   7.565   4.964  0.5315 -0.4554 -0.0762
  317MOL0     C43626   9.106   7.619   4.972 -1.0269 -0.3632 -0.0186
  317MOL0     C43627   9.151   7.562   5.084 -0.1917  0.1386  0.0888
  317MOL0     C43628   9.280   7.584   5.143 -0.8476  0.2678 -0.4394
  317MOL0     C43629   9.350   7.449   5.160 -0.5383  0.0222 -0.2222
  317MOL0     C43630   9.496   7.457   5.104  1.1715 -0.0718 -0.3855
  317MOL0     C43631   9.490   7.470   4.954 -0.4091 -0.0994  0.5383
  317MOL0     O43632   9.428   7.357   4.897  0.2671  0.7217  0.6584
  317MOL0     C43633   9.490   7.308   4.789 -0.0685 -0.0671  0.2217
  317MOL0     C43634   9.496   7.380   4.664 -0.4977 -0.0173 -0.2932
  317MOL0     C43635   9.557   7.314   4.549  0.0726 -0.7143 -0.4445
  317MOL0     C43636   9.564   7.387   4.422  0.5441 -0.0555  0.4702
  317MOL0     C43637   9.625   7.186   4.567 -0.4152  0.3483 -0.2920
  317MOL0     C43638   9.702   7.127   4.459  0.0213 -0.1315  0.0694
  317MOL0     O43639   9.791   7.028   4.494  0.6882 -0.3563 -0.3130
  317MOL0     C43640   9.878   6.980   4.398 -0.2918 -0.1160 -0.1207
  317MOL0     C43641   9.971   7.065   4.335  0.6957  0.0201  0.4304
  317MOL0     C43642  10.053   7.018   4.233 -0.0961  0.5656 -0.0558
  317MOL0     C43643  10.062   6.878   4.206  0.8870  0.1076 -0.0894
  317MOL0     O43644  10.138   6.826   4.108  0.0194  0.6477 -0.1020
  317MOL0     C43645  10.242   6.904   4.042  0.2491  0.2200  0.9658
  317MOL0     C43646  10.320   6.809   3.959  0.4078  0.1953  0.0656
  317MOL0     C43647  10.233   6.759   3.839  0.2381  0.5333  0.4264
  317MOL0     C43648  10.316   6.649   3.781 -0.1927  1.0293  0.9626
  317MOL0     C43649  10.245   6.580   3.668  0.3734 -0.3245 -0.7813
  317MOL0     C43650  10.315   6.450   3.633  0.7618  0.3423  0.6657
  317MOL0     C43651  10.244   6.393   3.503 -0.4657 -0.1408 -0.2776
  317MOL0     C43652  10.304   6.256   3.466 -0.6349 -0.8785  0.2416
  317MOL0    Cl43653  10.233   6.131   3.563 -0.4194  0.5604 -0.0860
  317MOL0     C43654   9.964   6.792   4.274  0.8067  0.6759  0.1231
  317MOL0     C43655   9.874   6.845   4.372 -0.5534  0.0446 -0.3387
  317MOL0     O43656   9.673   7.155   4.344  1.2356  0.0621  0.2950
  317MOL0     C43657   9.619   7.124   4.696  0.8167  0.2540  0.4833
  317MOL0     C43658   9.557   7.189   4.807  0.2874  0.8249  0.1861
  317MOL0     N43659   9.056   7.477   5.145 -1.3121 -0.6347 -0.7067
  317MOL0     N43660   8.958   7.482   5.064 -0.1015  0.2733 -0.4480
  317MOL0     C43661   8.787   6.916   4.605 -0.2295 -0.6352 -0.3378
  317MOL0     C43662   8.657   6.932   4.654  0.2204  0.3730  0.7680
  317MOL0     C43663   8.220   7.018   4.673 -0.2261 -0.1339 -0.2382
  317MOL0     C43664   8.103   7.021   4.605  0.8915  0.0126 -0.2389
  317MOL0     C43665   7.989   7.058   4.679 -0.9503  1.1659  0.4582
  317MOL0     C43666   7.991   7.092   4.812 -0.5954  1.3109 -0.6120
  317MOL0     O43667   7.889   7.134   4.891  0.7082  0.8218  0.5821
  317MOL0     C43668   7.768   7.172   4.830 -0.1779 -0.1373  0.7881
  317MOL0     C43669   7.699   7.250   4.939  0.0934 -0.1712 -0.5383
  317MOL0     C43670   7.567   7.301   4.895 -0.5188 -0.5119  0.7173
  317MOL0     C43671   7.459   7.187   4.902 -0.3526  0.2945 -0.5259
  317MOL0     C43672   7.330   7.235   4.943 -0.4234  0.2132 -0.6471
  317MOL0     C43673   7.218   7.268   4.971  0.2649  0.3811 -0.5774
  317MOL0     C43674   8.112   7.079   4.881  0.0081  0.6333  0.2911
  317MOL0     C43675   8.222   7.030   4.813  0.4817 -1.2573  0.4914
  317MOL0     C43676   8.344   7.000   4.898 -0.3896 -0.5623 -0.7049
  317MOL0     H43677   8.554   7.190   4.471 -0.4106  0.8232 -0.6133
  317MOL0     H43678   8.806   7.149   4.364  0.4395 -1.2791 -0.3705
  317MOL0     H43679   9.084   6.825   4.515 -1.9410  0.4228 -0.5648
  317MOL0     H43680   9.047   6.911   4.655  1.1142  0.3159  0.5612
  317MOL0     H43681   9.262   6.978   4.611  0.3407  0.2532 -0.5979
  317MOL0     H43682   9.232   7.004   4.436 -3.3022 -4.1945 -1.3091
  317MOL0     H43683   9.258   7.216   4.582  1.6062 -2.3668 -1.9824
  317MOL0     H43684   9.101   7.212   4.494  0.3809 -2.6350 -1.8964
  317MOL0     H43685   8.984   7.133   4.687  1.4315 -4.2666 -1.2266
  317MOL0     H43686   9.129   7.126   4.793  2.7293  1.5684 -0.8958
  317MOL0     H43687   9.113   7.395   4.694  0.2653  0.2887  1.8989
  317MOL0     H43688   9.076   7.350   4.856 -0.2570  1.9327  0.0442
  317MOL0     H43689   8.870   7.327   4.630  0.8103 -1.3342 -0.0735
  317MOL0     H43690   8.842   7.339   4.805  1.8995  1.1514  1.4589
  317MOL0     H43691   8.819   7.560   4.660 -1.9583  1.0220  2.4095
  317MOL0     H43692   9.000   7.556   4.678  0.5867  0.5027  0.7675
  317MOL0     H43693   8.883   7.697   4.842  1.6192 -0.4548 -1.9801
  317MOL0     H43694   8.783   7.570   4.896 -0.0131 -1.0640 -2.1128
  317MOL0     H43695   9.153   7.701   4.920  0.2074 -0.6279  0.6374
  317MOL0     H43696   9.276   7.632   5.241 -2.0982 -0.6220 -0.0285
  317MOL0     H43697   9.334   7.652   5.076  0.5710  0.3742  0.7645
  317MOL0     H43698   9.347   7.433   5.268  2.6533  2.4675  0.3949
  317MOL0     H43699   9.296   7.368   5.110 -0.5487  0.1720 -0.4540
  317MOL0     H43700   9.540   7.550   5.141  0.7032  0.0853 -0.2070
  317MOL0     H43701   9.564   7.378   5.135  1.0037  0.6112  1.9394
  317MOL0     H43702   9.435   7.561   4.928 -0.6999 -0.1819  0.8748
  317MOL0     H43703   9.593   7.488   4.921 -1.1338  1.2108 -1.1990
  317MOL0     H43704   9.451   7.477   4.645 -0.1682  0.2061  0.0631
  317MOL0     H43705   9.514   7.320   4.351 -0.5247  0.4298  0.7485
  317MOL0     H43706   9.671   7.399   4.398  0.8539  2.5870  2.6832
  317MOL0     H43707   9.519   7.486   4.415  1.1177  0.1707 -0.2345
  317MOL0     H43708   9.966   7.171   4.358  1.1908  0.8905 -2.9746
  317MOL0     H43709  10.115   7.081   4.171 -0.9642  1.9808  0.4778
  317MOL0     H43710  10.207   6.981   3.972  3.0819 -0.1115 -0.9401
  317MOL0     H43711  10.299   6.945   4.126 -2.4925 -0.3664  3.2694
  317MOL0     H43712  10.412   6.851   3.918  1.2917 -0.1146  1.6777
  317MOL0     H43713  10.344   6.718   4.014  2.6447 -0.6660 -2.1136
  317MOL0     H43714  10.208   6.839   3.768  0.6980 -0.5089 -0.9697
  317MOL0     H43715  10.138   6.722   3.878  0.0055  1.3927  0.7028
  317MOL0     H43716  10.359   6.575   3.849 -0.3862 -0.5346 -0.5480
  317MOL0     H43717  10.392   6.699   3.719 -0.7194 -2.2605 -2.7721
  317MOL0     H43718  10.144   6.556   3.704  1.6222 -0.5924  3.0289
  317MOL0     H43719  10.233   6.656   3.591  2.4806 -1.3135 -2.2021
  317MOL0     H43720  10.301   6.390   3.724  1.4109  0.3073  0.7524
  317MOL0     H43721  10.419   6.477   3.612  0.8648 -1.4404 -1.5498
  317MOL0     H43722  10.251   6.448   3.409 -2.2512  0.1327 -0.2810
  317MOL0     H43723  10.138   6.387   3.529 -0.4242  0.7930  0.1442
  317MOL0     H43724  10.412   6.245   3.477 -0.5093  0.9614  1.2312
  317MOL0     H43725  10.276   6.236   3.362 -0.2960  0.7096 -0.1804
  317MOL0     H43726   9.961   6.686   4.251 -0.6424  0.7382 -0.0815
  317MOL0     H43727   9.802   6.787   4.428 -1.0051  2.3789  1.6789
  317MOL0     H43728   9.671   7.030   4.714  2.6347  0.6741 -2.0982
  317MOL0     H43729   9.549   7.140   4.903 -1.8743  0.5065 -0.0955
  317MOL0     H43730   8.844   6.836   4.650 -1.1723 -2.2312 -1.8672
  317MOL0     H43731   8.628   6.879   4.745 -0.2490 -0.4978  0.1286
  317MOL0     H43732   8.082   7.015   4.499 -0.6283  2.2826 -0.1216
  317MOL0     H43733   7.898   7.036   4.625  0.2895 -2.1912 -0.5096
  317MOL0     H43734   7.792   7.229   4.739  0.2777 -3.0114 -1.0050
  317MOL0     H43735   7.707   7.087   4.798  0.5406 -1.5108  2.8847
  317MOL0     H43736   7.772   7.326   4.968  2.3133 -1.4624 -2.4198
  317MOL0     H43737   7.690   7.190   5.031  0.4336  0.9194  0.2242
  317MOL0     H43738   7.533   7.390   4.949  0.2930 -0.3890  1.0284
  317MOL0     H43739   7.580   7.330   4.790 -1.4065  4.9911  1.8280
  317MOL0     H43740   7.489   7.103   4.965  0.1371  0.7884 -0.0900
  317MOL0     H43741   7.454   7.137   4.805  1.6057  0.7815 -0.9160
  317MOL0     H43742   7.115   7.285   4.993  0.1818 -2.0876  1.3745
  317MOL0     H43743   8.121   7.119   4.981  0.9308  0.0503  0.4546
  317MOL0     H43744   8.416   7.081   4.915 -2.4918  0.5733  4.7297
  317MOL0     H43745   8.306   6.971   4.996  0.0554 -0.3334 -0.4597
  317MOL0     H43746   8.394   6.912   4.857 -3.8247 -3.1257  0.1872
  318MOL0     O43747   7.442   7.543   5.764 -0.4312  0.0288 -0.1633
  318MOL0     C43748   7.426   7.581   5.647  0.1288  0.2244 -0.0965
  318MOL0     O43749   7.305   7.593   5.582  0.2960  0.0927  0.1816
  318MOL0     C43750   7.199   7.575   5.662  0.5713 -0.2900  0.4934
  318MOL0     C43751   7.177   7.620   5.795  0.3186  0.2053 -0.4443
  318MOL0     C43752   7.051   7.597   5.855 -0.1404  0.7839  0.5593
  318MOL0     C43753   6.942   7.530   5.791 -0.2402 -1.1180 -1.1087
  318MOL0     O43754   6.830   7.510   5.866  0.2780 -0.3502  0.1765
  318MOL0     C43755   6.718   7.447   5.802 -0.0626 -0.4972 -0.0758
  318MOL0     C43756   6.606   7.437   5.899 -0.8562  0.1949 -0.5171
  318MOL0     C43757   6.659   7.372   6.040 -0.3039  0.6805 -0.1940
  318MOL0     C43758   6.537   7.346   6.136 -0.5245 -0.6723  0.3249
  318MOL0     C43759   6.578   7.314   6.286  0.6177 -0.4203 -0.7623
  318MOL0     C43760   6.698   7.216   6.296  0.1393 -0.1240  0.9614
  318MOL0     C43761   6.721   7.165   6.442 -0.7118 -0.0606 -1.0466
  318MOL0     C43762   6.790   7.019   6.444 -0.3544 -0.4786  0.3671
  318MOL0     N43763   6.922   7.011   6.359 -0.0754 -0.5610  0.9144
  318MOL0     C43764   7.020   7.109   6.346  0.9148  0.8102 -0.3234
  318MOL0     C43765   7.115   7.047   6.276 -1.2541  0.0897  0.7224
  318MOL0     C43766   7.245   7.111   6.243  0.7317  0.5180 -0.3812
  318MOL0     C43767   7.324   7.175   6.359  0.3439  0.3136  0.3147
  318MOL0     C43768   7.371   7.062   6.462 -0.4519 -0.3012  0.8911
  318MOL0     C43769   7.479   7.121   6.564  0.6192  0.5942  0.3099
  318MOL0     O43770   7.583   7.198   6.505  0.5758 -0.2602  0.4775
  318MOL0     C43771   7.683   7.239   6.592  0.1403 -0.4320 -0.8817
  318MOL0     C43772   7.788   7.304   6.525  1.9602  0.3014  0.0720
  318MOL0     C43773   7.904   7.348   6.588 -0.2398  0.4837 -0.3999
  318MOL0     C43774   8.011   7.396   6.486  0.5184 -0.9164 -0.9359
  318MOL0     C43775   7.917   7.327   6.726 -1.0022  0.3350  0.4840
  318MOL0     C43776   8.046   7.345   6.797  0.3687  0.0537  0.0333
  318MOL0     O43777   8.136   7.427   6.747 -0.4106  0.3861  0.8898
  318MOL0     C43778   8.267   7.426   6.798  0.5711  0.2035  0.2037
  318MOL0     C43779   8.335   7.545   6.805  0.0684 -0.5454  0.0643
  318MOL0     C43780   8.469   7.558   6.845  0.3831  0.6025  0.4430
  318MOL0     C43781   8.535   7.443   6.895 -0.4690 -0.3709  0.4128
  318MOL0     O43782   8.651   7.451   6.964 -0.2104 -0.0384  0.3356
  318MOL0     C43783   8.724   7.575   6.967  0.2441 -0.2344 -0.2441
  318MOL0     C43784   8.862   7.550   7.046 -0.1809  0.3559 -0.0345
  318MOL0     C43785   8.951   7.688   7.051  0.7335  0.4288  0.3187
  318MOL0     C43786   9.024   7.693   6.912  0.0316 -0.4910  0.6247
  318MOL0     C43787   9.134   7.803   6.921 -0.5525 -0.1304 -0.0864
  318MOL0     C43788   9.263   7.746   6.855 -0.6410  0.4046  0.0453
  318MOL0     C43789   9.393   7.816   6.885  0.0751 -0.2853  0.6100
  318MOL0     C43790   9.451   7.792   7.030  0.7804 -0.4347  0.0395
  318MOL0    Cl43791   9.629   7.841   7.017 -0.5455 -0.0775 -0.0208
  318MOL0     C43792   8.472   7.323   6.889  0.3492 -0.5932 -0.0027
  318MOL0     C43793   8.340   7.311   6.833 -0.4626  0.3913  0.5725
  318MOL0     O43794   8.062   7.281   6.900  0.9635  0.7980  0.0508
  318MOL0     C43795   7.816   7.257   6.798  0.0880  0.9691 -0.4560
  318MOL0     C43796   7.701   7.205   6.728 -0.4875  0.2890  0.0884
  318MOL0     N43797   7.077   6.922   6.237  0.0239  0.2589  0.5876
  318MOL0     N43798   6.959   6.901   6.287  0.2921 -0.7542  0.1605
  318MOL0     C43799   6.964   7.492   5.662  0.0210 -0.0946 -0.1024
  318MOL0     C43800   7.089   7.512   5.603  0.2314 -0.1643  0.4984
  318MOL0     C43801   7.545   7.626   5.568  0.8571  0.6612 -0.4653
  318MOL0     C43802   7.520   7.677   5.439 -0.2552  0.7395  0.1638
  318MOL0     C43803   7.611   7.705   5.348 -0.0456 -0.2832  0.3058
  318MOL0     C43804   7.741   7.708   5.384  0.0422  0.1595  0.0313
  318MOL0     O43805   7.820   7.782   5.293  0.1595  0.0556  0.2459
  318MOL0     C43806   7.932   7.841   5.359 -0.2976  0.5529  0.3617
  318MOL0     C43807   7.987   7.950   5.265 -0.0968 -0.0643  0.1007
  318MOL0     C43808   7.892   8.072   5.253  0.3817  0.3493  0.3946
  318MOL0     C43809   7.957   8.197   5.205 -0.3201  0.3350 -0.0312
  318MOL0     C43810   8.035   8.259   5.311  0.3262  0.2485  0.7091
  318MOL0     C43811   8.084   8.312   5.405  0.1926  0.8133 -0.2790
  318MOL0     C43812   7.782   7.654   5.515 -0.3374 -0.3492 -0.4672
  318MOL0     C43813   7.684   7.607   5.603 -0.0130  0.0922  0.5244
  318MOL0     C43814   7.738   7.548   5.731  0.0458  0.4894 -0.9171
  318MOL0     H43815   7.250   7.673   5.857 -0.2885  0.3590  0.1562
  318MOL0     H43816   7.037   7.624   5.959 -0.8614  0.8355  0.4554
  318MOL0     H43817   6.749   7.351   5.760  0.0308 -0.9472  1.0042
  318MOL0     H43818   6.671   7.516   5.731 -0.9352  0.5778  1.5001
  318MOL0     H43819   6.569   7.539   5.911 -0.8389  0.1179  0.2692
  318MOL0     H43820   6.529   7.368   5.862 -1.4597  0.4257  0.2754
  318MOL0     H43821   6.704   7.273   6.027 -2.7126 -0.5501  0.2573
  318MOL0     H43822   6.726   7.440   6.093  0.3882 -1.3960  1.7227
  318MOL0     H43823   6.483   7.440   6.126 -1.6001 -1.0850  1.8098
  318MOL0     H43824   6.480   7.258   6.105 -2.8077  0.8426  0.0771
  318MOL0     H43825   6.489   7.280   6.340  2.1323 -0.8261  1.6573
  318MOL0     H43826   6.600   7.400   6.351 -0.6653 -3.5291  4.3875
  318MOL0     H43827   6.688   7.136   6.223  0.9924  3.4432 -3.5269
  318MOL0     H43828   6.786   7.268   6.257 -0.5549 -0.4915 -1.2136
  318MOL0     H43829   6.631   7.162   6.504  0.4008 -0.8722  0.5938
  318MOL0     H43830   6.787   7.244   6.479  0.0804 -0.4113 -1.6907
  318MOL0     H43831   6.798   6.988   6.549 -4.4946  0.5168  1.1620
  318MOL0     H43832   6.722   6.940   6.411  0.1049 -0.0378 -1.7353
  318MOL0     H43833   7.029   7.209   6.387  3.5702  0.2212  0.7343
  318MOL0     H43834   7.235   7.190   6.168  1.7424 -1.6728 -3.0268
  318MOL0     H43835   7.308   7.030   6.204  0.6560 -0.0569  0.6488
  318MOL0     H43836   7.411   7.218   6.309  0.0466 -0.5822 -1.0071
  318MOL0     H43837   7.262   7.246   6.415  0.0494  1.5273 -1.4506
  318MOL0     H43838   7.288   7.011   6.511 -1.6447 -2.1812 -2.6810
  318MOL0     H43839   7.416   6.991   6.392 -0.6033  1.9676 -1.6809
  318MOL0     H43840   7.421   7.184   6.632  0.7862  1.4021 -0.2771
  318MOL0     H43841   7.534   7.043   6.617  2.8562 -0.9624 -3.8345
  318MOL0     H43842   7.767   7.324   6.420 -1.0276 -1.3307  0.2505
  318MOL0     H43843   8.020   7.505   6.498 -3.7711 -0.2063 -2.3606
  318MOL0     H43844   7.980   7.378   6.382 -1.4994  0.3429 -0.6208
  318MOL0     H43845   8.108   7.346   6.488 -0.0612 -2.0566 -0.3139
  318MOL0     H43846   8.282   7.635   6.775 -0.2644 -1.3597 -2.0182
  318MOL0     H43847   8.514   7.656   6.855  1.3672  0.1561  0.4737
  318MOL0     H43848   8.746   7.601   6.863  0.3169  1.4123  0.1570
  318MOL0     H43849   8.669   7.656   7.015 -0.9278 -1.0707 -0.1284
  318MOL0     H43850   8.835   7.518   7.147 -2.3781  1.9426 -0.0514
  318MOL0     H43851   8.917   7.465   7.004  0.6383 -0.2855  2.1793
  318MOL0     H43852   9.022   7.668   7.132  0.6805 -3.1575 -0.3654
  318MOL0     H43853   8.894   7.780   7.066  0.0588  0.2388 -0.9828
  318MOL0     H43854   8.955   7.710   6.830  1.7397 -0.4839 -0.8802
  318MOL0     H43855   9.055   7.590   6.890 -1.4227 -1.0200  0.9345
  318MOL0     H43856   9.120   7.893   6.861 -1.8500 -0.7449 -0.7660
  318MOL0     H43857   9.152   7.827   7.025 -1.3968  0.6989 -0.1162
  318MOL0     H43858   9.243   7.746   6.747 -1.9409  2.6533  0.2129
  318MOL0     H43859   9.268   7.642   6.887  2.4741  0.7329  0.9300
  318MOL0     H43860   9.375   7.923   6.874  1.3151 -0.1900 -0.7045
  318MOL0     H43861   9.458   7.788   6.802 -1.2367 -0.5426 -0.3598
  318MOL0     H43862   9.433   7.689   7.062 -0.7866 -0.2623 -0.1924
  318MOL0     H43863   9.405   7.869   7.093  0.3121 -1.8896  1.5456
  318MOL0     H43864   8.513   7.230   6.929 -2.0467 -1.3700  0.8047
  318MOL0     H43865   8.297   7.211   6.837  0.1831  0.1029  0.4951
  318MOL0     H43866   7.828   7.231   6.903  0.2188  1.1671 -0.4219
  318MOL0     H43867   7.633   7.137   6.777 -1.1045  0.1613 -0.9121
  318MOL0     H43868   6.888   7.439   5.606 -0.7810  0.8816  0.0453
  318MOL0     H43869   7.111   7.474   5.504  1.2437  1.5810  0.0014
  318MOL0     H43870   7.418   7.690   5.404 -0.5396  0.1455  0.7447
  318MOL0     H43871   7.572   7.728   5.249  0.2205 -2.5020 -0.3571
  318MOL0     H43872   7.899   7.882   5.454 -2.5969 -0.7204  0.1941
  318MOL0     H43873   8.014   7.771   5.377 -2.2620 -1.6692  1.3798
  318MOL0     H43874   8.013   7.912   5.166 -2.0948 -0.0936 -0.4680
  318MOL0     H43875   8.083   7.983   5.304  2.1566 -0.9692 -4.1479
  318MOL0     H43876   7.802   8.053   5.195  0.0474  2.8787 -0.0328
  318MOL0     H43877   7.852   8.079   5.355 -0.5326 -2.2250  0.2755
  318MOL0     H43878   7.883   8.265   5.162  0.8681  2.6347  1.3436
  318MOL0     H43879   8.030   8.167   5.129 -1.5447 -2.8844 -0.0873
  318MOL0     H43880   8.135   8.354   5.489 -0.7024 -0.4275  0.9426
  318MOL0     H43881   7.890   7.648   5.526 -0.5870 -1.0427  2.7095
  318MOL0     H43882   7.743   7.441   5.753  2.1774  0.8238  0.5003
  318MOL0     H43883   7.842   7.579   5.736  0.1621  0.0209 -0.3707
  318MOL0     H43884   7.691   7.591   5.820  1.7196  0.5557 -0.0380
  319MOL0     O43885   2.461  10.196   0.446 -0.1708  0.5818  0.7162
  319MOL0     C43886   2.406  10.290   0.501 -0.2222  0.4650  0.0271
  319MOL0     O43887   2.269  10.302   0.520 -0.5620  0.0878 -0.1897
  319MOL0     C43888   2.191  10.194   0.487  0.0298  0.5816  0.0729
  319MOL0     C43889   2.115  10.134   0.592  0.2370 -0.1995  0.4042
  319MOL0     C43890   2.019  10.038   0.567 -0.3528 -0.1949 -0.0075
  319MOL0     C43891   1.994   9.991   0.439 -0.1324  0.9748 -0.2031
  319MOL0     O43892   1.908   9.894   0.405 -0.5174  0.4862 -0.0686
  319MOL0     C43893   1.790   9.871   0.485 -0.2505 -0.3986  0.1038
  319MOL0     C43894   1.705   9.755   0.422  0.5644 -0.5352 -0.3549
  319MOL0     C43895   1.773   9.624   0.445  0.4299  0.2489  1.0222
  319MOL0     C43896   1.691   9.497   0.385  0.0022 -0.0736  0.4022
  319MOL0     C43897   1.785   9.372   0.348  0.3908  0.6855 -0.8761
  319MOL0     C43898   1.880   9.321   0.461  0.0368 -0.6102 -0.6982
  319MOL0     C43899   1.933   9.177   0.440  0.0051 -0.6920  0.3834
  319MOL0     C43900   2.023   9.159   0.320  0.1577  0.0983  0.0100
  319MOL0     N43901   2.151   9.225   0.358 -0.1071 -0.2283 -0.1870
  319MOL0     C43902   2.178   9.351   0.313 -0.1378 -0.0400 -0.1073
  319MOL0     C43903   2.309   9.374   0.349  0.2679  0.2994  0.1876
  319MOL0     C43904   2.395   9.487   0.300 -0.6459  0.8438 -0.0753
  319MOL0     C43905   2.497   9.439   0.197  0.2473 -0.1861 -0.7330
  319MOL0     C43906   2.606   9.350   0.263 -0.8094 -0.0859 -0.2770
  319MOL0     C43907   2.704   9.399   0.376  0.7826 -0.4384 -0.1079
  319MOL0     O43908   2.787   9.507   0.329 -0.4835 -1.0447  0.1905
  319MOL0     C43909   2.870   9.572   0.418 -0.4852  0.3919 -0.1241
  319MOL0     C43910   2.874   9.552   0.556  0.5475  0.2021  0.2024
  319MOL0     C43911   2.970   9.627   0.632 -0.2167  0.0315 -0.0150
  319MOL0     C43912   2.987   9.598   0.788  0.1756 -0.5606  0.9873
  319MOL0     C43913   3.041   9.735   0.574  0.4253  0.0391 -0.7267
  319MOL0     C43914   3.130   9.834   0.648  0.4872  1.0076 -0.2629
  319MOL0     O43915   3.225   9.895   0.568  1.0123  1.2700  0.1637
  319MOL0     C43916   3.356   9.922   0.603 -0.1917 -0.7706  1.2484
  319MOL0     C43917   3.438   9.991   0.510  0.4758  0.2061  0.1582
  319MOL0     C43918   3.573  10.013   0.537  0.6921 -0.4100  0.2986
  319MOL0     C43919   3.629   9.980   0.665  0.0548 -0.5730 -0.0553
  319MOL0     O43920   3.764   9.997   0.688 -0.0806 -0.3380 -0.1939
  319MOL0     C43921   3.779  10.083   0.802 -0.6529 -0.2505  0.2268
  319MOL0     C43922   3.764  10.225   0.754  0.4786 -0.3843 -0.2653
  319MOL0     C43923   3.835  10.317   0.858  0.8860  1.1876 -0.3519
  319MOL0     C43924   3.890  10.439   0.800  1.2698 -0.6887  0.6239
  319MOL0     C43925   3.959  10.530   0.900 -0.3073 -0.0419 -0.2166
  319MOL0     C43926   4.033  10.652   0.836 -0.6393  0.4644 -0.3248
  319MOL0     C43927   4.103  10.738   0.938 -1.1509  0.0106  0.3321
  319MOL0     C43928   4.030  10.863   0.984  1.1182  0.1528  0.3895
  319MOL0    Cl43929   4.136  10.975   1.065  0.1639 -0.2964  0.4139
  319MOL0     C43930   3.544   9.915   0.758 -0.2427 -0.3940  0.1482
  319MOL0     C43931   3.409   9.896   0.728 -0.7418  0.6929 -0.1783
  319MOL0     O43932   3.110   9.862   0.769 -0.1496 -0.3315  0.0123
  319MOL0     C43933   3.027   9.746   0.438 -0.6202 -1.2799 -0.2598
  319MOL0     C43934   2.951   9.666   0.365  1.0087  0.5434 -0.5679
  319MOL0     N43935   2.347   9.271   0.423 -0.1612  0.3942 -0.0702
  319MOL0     N43936   2.250   9.181   0.438 -0.5164 -0.2216 -0.3880
  319MOL0     C43937   2.073  10.046   0.335  0.8485  0.4717  0.0781
  319MOL0     C43938   2.165  10.150   0.358  0.1432 -0.1104  0.3342
  319MOL0     C43939   2.487  10.410   0.531 -0.2361 -0.1799 -1.1414
  319MOL0     C43940   2.415  10.517   0.600 -0.5042 -0.7558  0.0009
  319MOL0     C43941   2.480  10.643   0.631  0.0902 -0.2814  0.2004
  319MOL0     C43942   2.617  10.651   0.615  0.9260  0.0544 -0.5662
  319MOL0     O43943   2.696  10.758   0.637 -0.1709  0.0633  0.1074
  319MOL0     C43944   2.650  10.891   0.669 -0.4817 -0.0605  0.0239
  319MOL0     C43945   2.558  10.963   0.560  0.4300 -0.2416  0.6443
  319MOL0     C43946   2.595  10.929   0.412  0.3447  0.2969  0.9549
  319MOL0     C43947   2.471  10.940   0.316  0.4851 -0.1455  0.3463
  319MOL0     C43948   2.435  11.080   0.287 -0.0835  0.8219 -0.9155
  319MOL0     C43949   2.407  11.198   0.274 -0.2145  0.6473  0.3110
  319MOL0     C43950   2.694  10.544   0.565 -0.0624  0.0291 -0.6400
  319MOL0     C43951   2.628  10.419   0.528 -0.5426  0.0975  0.9935
  319MOL0     C43952   2.718  10.308   0.479  0.0704  0.5850 -0.8284
  319MOL0     H43953   2.117  10.176   0.692  3.3681  0.1621  0.3022
  319MOL0     H43954   1.979   9.989   0.655  0.4244 -1.8753 -0.5544
  319MOL0     H43955   1.732   9.963   0.482  0.8505  0.2739 -1.5295
  319MOL0     H43956   1.816   9.854   0.590 -0.5291 -0.2844  0.1939
  319MOL0     H43957   1.604   9.756   0.464  0.9454  2.4179  0.7679
  319MOL0     H43958   1.688   9.761   0.314 -1.7609  1.6305  0.0407
  319MOL0     H43959   1.875   9.630   0.407 -0.4339  1.7415 -1.3209
  319MOL0     H43960   1.767   9.600   0.551 -1.4544 -1.5707  0.5820
  319MOL0     H43961   1.627   9.464   0.467  2.1649 -0.0758  2.2007
  319MOL0     H43962   1.634   9.534   0.300 -0.4790  1.0732  1.1965
  319MOL0     H43963   1.842   9.372   0.254  2.0096 -1.8185  0.0374
  319MOL0     H43964   1.714   9.290   0.334  1.9641 -0.7045 -0.8866
  319MOL0     H43965   1.956   9.396   0.484  0.4904 -0.7240 -1.7702
  319MOL0     H43966   1.814   9.316   0.548 -0.3680 -1.7979 -1.0619
  319MOL0     H43967   1.851   9.106   0.430  0.2396 -0.6232 -3.0640
  319MOL0     H43968   1.983   9.148   0.533 -1.6686 -1.7491  0.9921
  319MOL0     H43969   2.031   9.051   0.307 -0.5683 -0.5012  3.6398
  319MOL0     H43970   1.982   9.215   0.235 -1.0816  2.4562  2.0302
  319MOL0     H43971   2.138   9.420   0.240  3.6808 -0.2930 -2.7456
  319MOL0     H43972   2.450   9.533   0.382 -1.6265 -0.7643  1.5390
  319MOL0     H43973   2.332   9.564   0.254  2.0589  5.7313  3.4594
  319MOL0     H43974   2.451   9.385   0.114  2.4586  0.7859 -2.7121
  319MOL0     H43975   2.559   9.519   0.155  1.5968  0.7699  2.7763
  319MOL0     H43976   2.560   9.264   0.312  2.4685  1.4733  6.8380
  319MOL0     H43977   2.678   9.323   0.184 -1.5916  0.1714 -1.0961
  319MOL0     H43978   2.638   9.441   0.452  1.7884 -1.0394  1.1334
  319MOL0     H43979   2.763   9.315   0.415  0.7159  0.0730  1.1502
  319MOL0     H43980   2.809   9.482   0.606 -1.5748  1.9530  0.0328
  319MOL0     H43981   2.945   9.501   0.813 -1.2152 -0.0283  0.8302
  319MOL0     H43982   2.939   9.680   0.842  0.4461 -0.2193  0.7195
  319MOL0     H43983   3.092   9.603   0.815  0.4249  0.4944 -0.0719
  319MOL0     H43984   3.401  10.014   0.410  0.0852  1.3057  0.5364
  319MOL0     H43985   3.618  10.060   0.450 -1.5957 -1.5075 -1.5652
  319MOL0     H43986   3.712  10.071   0.888 -0.4402 -1.2710  0.2657
  319MOL0     H43987   3.880  10.065   0.841 -0.6545  1.0093  0.8675
  319MOL0     H43988   3.811  10.238   0.656  2.2188 -0.0809  0.5598
  319MOL0     H43989   3.656  10.240   0.743  0.5427  0.6764  0.4261
  319MOL0     H43990   3.926  10.282   0.909 -0.0606  1.1490  1.3937
  319MOL0     H43991   3.759  10.352   0.928  0.4122 -0.2540 -0.1261
  319MOL0     H43992   3.821  10.494   0.736  0.3311 -0.4430  1.8056
  319MOL0     H43993   3.964  10.401   0.729  0.7383  0.1450 -0.3918
  319MOL0     H43994   3.886  10.570   0.971  0.5581 -1.0692  1.3030
  319MOL0     H43995   4.032  10.471   0.955  1.5496  2.1061 -0.2302
  319MOL0     H43996   3.957  10.708   0.779 -2.5937  0.4102  2.0694
  319MOL0     H43997   4.111  10.611   0.770 -1.6869 -1.7018 -0.2900
  319MOL0     H43998   4.192  10.775   0.886 -0.7415 -2.3933 -0.7981
  319MOL0     H43999   4.155  10.682   1.016  0.2881  0.3053 -0.3683
  319MOL0     H44000   3.943  10.835   1.044 -0.8157  2.9608 -0.8472
  319MOL0     H44001   3.995  10.911   0.892  0.2529 -0.7706  0.2211
  319MOL0     H44002   3.586   9.875   0.850  0.1055 -1.5461 -0.4835
  319MOL0     H44003   3.346   9.825   0.779 -0.7594  0.5272 -0.4280
  319MOL0     H44004   3.074   9.824   0.379 -1.0069 -1.1199 -0.3625
  319MOL0     H44005   2.955   9.670   0.256  3.5501 -0.6144 -0.5910
  319MOL0     H44006   2.069  10.008   0.234 -2.4826  1.0868 -0.1411
  319MOL0     H44007   2.217  10.191   0.273 -1.3793  1.3274  0.0401
  319MOL0     H44008   2.308  10.532   0.611 -0.3255  2.1512 -1.3840
  319MOL0     H44009   2.425  10.728   0.671  0.0649 -1.1713  2.1936
  319MOL0     H44010   2.597  10.893   0.765  1.1123 -0.7033  0.9629
  319MOL0     H44011   2.735  10.953   0.697 -2.5225  2.1767  1.7527
  319MOL0     H44012   2.580  11.070   0.564  1.8186 -0.4795 -0.0961
  319MOL0     H44013   2.451  10.944   0.574  0.7256 -4.6215 -1.5188
  319MOL0     H44014   2.673  10.995   0.373 -0.1143  0.1157 -0.3010
  319MOL0     H44015   2.629  10.825   0.399  1.7245  1.0190 -1.9648
  319MOL0     H44016   2.385  10.888   0.359  1.0983 -0.9753  0.5763
  319MOL0     H44017   2.490  10.891   0.220 -2.9102 -1.5106  0.2503
  319MOL0     H44018   2.385  11.298   0.240 -1.2105  1.3527  2.8144
  319MOL0     H44019   2.802  10.547   0.568 -0.0946  0.8970 -0.0818
  319MOL0     H44020   2.714  10.311   0.370 -0.2099  1.1201 -0.8085
  319MOL0     H44021   2.823  10.322   0.507 -0.9554  0.6556  3.8055
  319MOL0     H44022   2.693  10.208   0.516  0.0070  0.7642 -0.3783
  320MOL0     O44023   1.774   0.008   2.653  0.4174 -0.4996 -0.2343
  320MOL0     C44024   1.743   0.121   2.675 -0.4936 -0.2051 -0.3668
  320MOL0     O44025   1.797   0.237   2.618  0.8783 -0.1416  0.9056
  320MOL0     C44026   1.916   0.209   2.564 -0.8620  0.1687 -0.2314
  320MOL0     C44027   1.935   0.148   2.442 -0.3009 -0.7499 -0.6987
  320MOL0     C44028   2.062   0.111   2.397  0.5040 -0.3560  1.0735
  320MOL0     C44029   2.174   0.132   2.481  0.2416  0.0160  0.1697
  320MOL0     O44030   2.297   0.100   2.442 -0.4328 -0.1147  0.3647
  320MOL0     C44031   2.393   0.204   2.451 -0.8093  0.1056 -0.2762
  320MOL0     C44032   2.518   0.165   2.371  0.5115 -0.1365 -1.3412
  320MOL0     C44033   2.612   0.065   2.452  0.6482 -0.6657 -0.3644
  320MOL0     C44034   2.767   0.075   2.423  0.0578  0.7609 -0.0694
  320MOL0     C44035   2.791   0.050   2.270 -0.5730  0.5863  0.8891
  320MOL0     C44036   2.784  -0.100   2.230 -0.4451 -0.9332 -0.5632
  320MOL0     C44037   2.803  -0.114   2.074  0.2304  0.3163 -0.5691
  320MOL0     C44038   2.934  -0.039   2.026 -0.0959 -0.6345 -0.7855
  320MOL0     N44039   2.996  -0.088   1.914  0.0484 -0.6996  0.7177
  320MOL0     C44040   3.014  -0.034   1.790 -0.4166 -0.3109 -1.0125
  320MOL0     C44041   3.063  -0.128   1.712 -0.1040 -0.4318  0.5047
  320MOL0     C44042   3.084  -0.135   1.567  0.1493  0.5783 -0.4733
  320MOL0     C44043   3.155  -0.266   1.526 -0.2388  0.5223  0.4935
  320MOL0     C44044   3.189  -0.252   1.368  0.5234  0.6136 -0.8763
  320MOL0     C44045   3.303  -0.158   1.343 -0.2717  0.2389 -0.1566
  320MOL0     O44046   3.425  -0.234   1.302  0.6677  0.9181  0.0757
  320MOL0     C44047   3.522  -0.168   1.226  0.4429 -0.3418  0.1738
  320MOL0     C44048   3.658  -0.191   1.246  0.2496 -0.3487 -0.6906
  320MOL0     C44049   3.753  -0.118   1.172 -0.6518  0.2995 -0.5924
  320MOL0     C44050   3.896  -0.142   1.218  0.0179 -0.7239  0.2254
  320MOL0     C44051   3.712  -0.033   1.064 -1.0396  0.0909  0.0974
  320MOL0     C44052   3.793   0.035   0.964 -0.5746  0.4283  0.0953
  320MOL0     O44053   3.728   0.105   0.856  0.2637  0.3172 -0.3933
  320MOL0     C44054   3.798   0.191   0.783 -0.3061  0.4569 -0.0017
  320MOL0     C44055   3.895   0.288   0.834  0.0351 -0.1920  0.7353
  320MOL0     C44056   3.943   0.394   0.758  0.7069  0.3506  0.5716
  320MOL0     C44057   3.905   0.391   0.620 -0.3574 -0.4870  0.3731
  320MOL0     O44058   3.959   0.465   0.514  0.3965  0.4841 -0.2678
  320MOL0     C44059   4.048   0.572   0.550  0.0694  0.5969  0.1199
  320MOL0     C44060   4.082   0.658   0.429  0.0208 -0.3736  0.6456
  320MOL0     C44061   4.222   0.720   0.461  0.0405  0.1178 -0.7368
  320MOL0     C44062   4.219   0.808   0.588  0.0712 -1.0315 -0.3144
  320MOL0     C44063   4.346   0.887   0.621  0.2133  0.5186 -0.3163
  320MOL0     C44064   4.334   0.981   0.742 -0.5811  0.6736  0.4946
  320MOL0     C44065   4.307   0.920   0.877  0.2036  0.2627 -0.1507
  320MOL0     C44066   4.298   1.014   0.998  0.0211 -1.1047 -0.0110
  320MOL0    Cl44067   4.164   1.132   0.961 -0.0519 -0.0402 -0.1458
  320MOL0     C44068   3.796   0.317   0.569 -0.0148  0.2941 -0.0955
  320MOL0     C44069   3.741   0.216   0.654  0.3556 -1.0641 -0.4661
  320MOL0     O44070   3.919   0.025   0.978 -0.2928 -0.4155  0.6512
  320MOL0     C44071   3.576  -0.010   1.049 -0.8638 -0.1158 -0.6188
  320MOL0     C44072   3.482  -0.078   1.124  0.5603  0.6209  0.1895
  320MOL0     N44073   3.098  -0.233   1.796  0.4976 -0.4068 -0.1942
  320MOL0     N44074   3.049  -0.211   1.911  0.0040 -1.2305 -0.6090
  320MOL0     C44075   2.159   0.213   2.595 -0.4070  0.7750  0.2289
  320MOL0     C44076   2.029   0.251   2.640 -0.0643  0.4672  0.0571
  320MOL0     C44077   1.619   0.137   2.745  0.9710 -0.3738 -0.0630
  320MOL0     C44078   1.583   0.275   2.791 -0.7936  0.8770 -0.4886
  320MOL0     C44079   1.463   0.298   2.863 -0.1140  0.4562  0.3488
  320MOL0     C44080   1.372   0.193   2.884 -0.4419  0.2603  0.6883
  320MOL0     O44081   1.266   0.194   2.966 -0.9474  0.0088 -0.0925
  320MOL0     C44082   1.213   0.329   2.966  0.9941  0.4956  0.1415
  320MOL0     C44083   1.062   0.346   2.995 -0.4840 -1.1194  0.0171
  320MOL0     C44084   0.967   0.255   2.920 -0.1285  0.7254 -0.2199
  320MOL0     C44085   0.830   0.261   2.984  1.3337 -0.1197  0.1924
  320MOL0     C44086   0.730   0.199   2.892  0.7283  0.2810  0.1610
  320MOL0     C44087   0.651   0.144   2.822  0.7528  0.1697  0.3991
  320MOL0     C44088   1.408   0.060   2.851  0.0757  0.1064  0.3286
  320MOL0     C44089   1.531   0.032   2.789  0.1009  0.1804  1.2845
  320MOL0     C44090   1.545  -0.114   2.742 -0.7886 -0.0865 -0.6876
  320MOL0     H44091   1.849   0.119   2.384 -0.9101 -1.3384  0.4552
  320MOL0     H44092   2.080   0.066   2.300 -0.3409  0.5369  0.4900
  320MOL0     H44093   2.413   0.239   2.553 -0.9820  0.8668 -0.4957
  320MOL0     H44094   2.362   0.295   2.398  2.9836  0.8260 -1.6151
  320MOL0     H44095   2.476   0.113   2.285  1.6710 -3.1903 -0.2019
  320MOL0     H44096   2.585   0.250   2.353  1.6717 -0.1918  1.8998
  320MOL0     H44097   2.590   0.080   2.558 -3.2676 -1.2178 -0.9449
  320MOL0     H44098   2.593  -0.041   2.434  0.1377 -0.4519 -1.1413
  320MOL0     H44099   2.805   0.177   2.430  3.5851 -0.2052 -2.5083
  320MOL0     H44100   2.824   0.008   2.488  1.6518  1.4457 -0.7164
  320MOL0     H44101   2.886   0.094   2.236 -1.3082  2.0624  0.6608
  320MOL0     H44102   2.713   0.111   2.223 -1.3686 -1.1224 -0.0933
  320MOL0     H44103   2.861  -0.164   2.275 -1.5166 -1.5201  0.4909
  320MOL0     H44104   2.688  -0.149   2.251 -0.8791 -1.7872 -3.8857
  320MOL0     H44105   2.710  -0.088   2.024  0.0483 -1.6417 -1.3298
  320MOL0     H44106   2.814  -0.222   2.060  0.4811  0.4729 -1.6895
  320MOL0     H44107   2.896   0.062   2.009 -3.4301 -0.7592  4.0384
  320MOL0     H44108   3.013  -0.024   2.100 -0.6505 -1.4491 -0.0205
  320MOL0     H44109   2.965   0.059   1.762 -0.2935 -0.5269 -1.9996
  320MOL0     H44110   3.145  -0.053   1.530 -0.0864  1.9056  1.8743
  320MOL0     H44111   2.989  -0.138   1.512  0.6698 -3.4633 -1.4771
  320MOL0     H44112   3.242  -0.277   1.590  1.2331  2.3189 -1.0620
  320MOL0     H44113   3.097  -0.358   1.539 -0.5328  0.5023 -0.7616
  320MOL0     H44114   3.212  -0.348   1.321 -0.4759 -0.6757  1.1280
  320MOL0     H44115   3.105  -0.215   1.309  0.6811  0.4131 -1.2288
  320MOL0     H44116   3.265  -0.095   1.263 -2.5670 -1.0675 -0.1862
  320MOL0     H44117   3.333  -0.101   1.432  0.4797 -0.8564  0.3276
  320MOL0     H44118   3.686  -0.257   1.327  1.8632  0.7956 -0.2760
  320MOL0     H44119   3.901  -0.150   1.327  0.5920  0.4789  0.3081
  320MOL0     H44120   3.962  -0.063   1.180  1.1638 -2.1129 -0.7308
  320MOL0     H44121   3.923  -0.232   1.162  1.3820  0.5054 -1.1965
  320MOL0     H44122   3.929   0.283   0.936 -0.6640 -1.6089  0.9313
  320MOL0     H44123   4.010   0.468   0.800  0.1578 -0.1146  2.3739
  320MOL0     H44124   3.988   0.631   0.620  3.9554  0.9388  3.5229
  320MOL0     H44125   4.131   0.529   0.606 -0.9063 -1.6655 -0.0702
  320MOL0     H44126   4.084   0.600   0.336 -0.2718 -1.9505  1.5832
  320MOL0     H44127   3.999   0.728   0.414 -1.3086 -1.4786  2.4270
  320MOL0     H44128   4.253   0.785   0.379  0.6572  2.1224  1.0094
  320MOL0     H44129   4.305   0.649   0.470 -1.6248 -2.0509 -1.5375
  320MOL0     H44130   4.191   0.752   0.677 -0.0205 -1.6429 -0.7229
  320MOL0     H44131   4.139   0.882   0.589  0.7082 -0.2494  2.9958
  320MOL0     H44132   4.421   0.809   0.638  0.4815  0.7637 -0.3586
  320MOL0     H44133   4.380   0.939   0.531  0.1899 -0.6737 -1.0311
  320MOL0     H44134   4.265   1.063   0.717  0.9681  2.1104  0.7531
  320MOL0     H44135   4.434   1.022   0.757  1.1523 -3.0522  0.1339
  320MOL0     H44136   4.374   0.837   0.900 -0.5910  0.3585  3.0271
  320MOL0     H44137   4.208   0.876   0.863  0.0815 -0.5814  2.6348
  320MOL0     H44138   4.393   1.058   1.031 -0.5445  1.0995 -1.1110
  320MOL0     H44139   4.264   0.954   1.082 -0.3869  0.3302  0.8873
  320MOL0     H44140   3.751   0.333   0.472 -3.2739 -2.8034  0.6832
  320MOL0     H44141   3.651   0.158   0.637 -0.0113 -0.2897 -1.2158
  320MOL0     H44142   3.546   0.059   0.971  1.5310 -0.5050 -1.9697
  320MOL0     H44143   3.377  -0.074   1.098  0.4540  0.1842  0.5344
  320MOL0     H44144   2.245   0.247   2.653  0.7368  0.6155 -1.3215
  320MOL0     H44145   2.028   0.315   2.728  0.8577  0.2802  0.2074
  320MOL0     H44146   1.654   0.357   2.782  0.3709  0.4530  3.1263
  320MOL0     H44147   1.441   0.399   2.894 -0.6565  0.1258  1.0544
  320MOL0     H44148   1.262   0.397   3.036 -0.4582  0.7938  0.9119
  320MOL0     H44149   1.220   0.373   2.866 -0.7365 -1.3056 -0.8447
  320MOL0     H44150   1.029   0.449   2.984  2.3849 -0.4466 -5.3325
  320MOL0     H44151   1.044   0.328   3.102  0.5611 -0.3276  0.3453
  320MOL0     H44152   0.981   0.280   2.814  1.5279  0.0234 -0.2060
  320MOL0     H44153   1.007   0.155   2.938 -2.0073  0.2414  1.6623
  320MOL0     H44154   0.798   0.361   3.012  1.2522 -0.4838  1.4647
  320MOL0     H44155   0.828   0.209   3.080 -0.0489 -0.6662 -0.1185
  320MOL0     H44156   0.577   0.096   2.761 -1.2630  3.6721 -0.2179
  320MOL0     H44157   1.343  -0.020   2.884 -0.0330 -0.3725 -0.9971
  320MOL0     H44158   1.646  -0.148   2.768 -0.2668  0.0532 -2.3923
  320MOL0     H44159   1.468  -0.176   2.789 -0.9867  1.3297  0.9621
  320MOL0     H44160   1.519  -0.116   2.636 -2.4343  2.2008 -0.3910
  321MOL0     O44161   9.505   8.003   9.789  0.5827  0.6909  0.5881
  321MOL0     C44162   9.474   8.097   9.717 -0.4692  1.0967  0.5813
  321MOL0     O44163   9.560   8.186   9.662  0.3847  0.0345 -0.3994
  321MOL0     C44164   9.686   8.203   9.700  0.3342  0.2777 -0.6528
  321MOL0     C44165   9.771   8.276   9.617  0.3881 -0.1609  0.6856
  321MOL0     C44166   9.901   8.298   9.654 -1.1150 -0.1181  0.1256
  321MOL0     C44167   9.954   8.259   9.778 -0.6041 -0.2356  0.3824
  321MOL0     O44168  10.087   8.278   9.791 -1.0232 -0.0974 -0.3496
  321MOL0     C44169  10.141   8.348   9.903 -0.9062  0.1144 -0.4197
  321MOL0     C44170  10.283   8.386   9.881  0.6214  0.0594 -0.8240
  321MOL0     C44171  10.284   8.495   9.769 -1.2711 -0.3054  0.4918
  321MOL0     C44172  10.422   8.563   9.755  0.0068  0.0344  0.0274
  321MOL0     C44173  10.535   8.471   9.714  0.7224  0.6455  0.4764
  321MOL0     C44174  10.517   8.427   9.563  0.3608  0.0597 -0.6086
  321MOL0     C44175  10.626   8.323   9.521  0.2819  0.3470  0.4184
  321MOL0     C44176  10.761   8.393   9.521  0.1677  0.1147 -0.1915
  321MOL0     N44177  10.867   8.285   9.536  0.1223  0.3684 -0.2589
  321MOL0     C44178  10.911   8.201   9.433  0.3826  0.1460 -0.0665
  321MOL0     C44179  10.992   8.119   9.495  0.1015  0.1158 -0.4304
  321MOL0     C44180  11.046   7.989   9.428  0.4066 -0.0656 -0.5195
  321MOL0     C44181  11.183   7.954   9.484 -0.3019 -0.3492  0.3235
  321MOL0     C44182  11.212   7.804   9.464 -1.0159 -0.1318  0.6153
  321MOL0     C44183  11.354   7.773   9.508  0.2205  0.1777 -0.1737
  321MOL0     O44184  11.452   7.846   9.426 -0.5280 -0.2453 -0.0754
  321MOL0     C44185  11.582   7.807   9.452 -0.4825 -0.0729  0.7166
  321MOL0     C44186  11.623   7.699   9.532 -0.4993 -0.3473  1.1940
  321MOL0     C44187  11.758   7.665   9.545  0.0292 -0.0395  0.2095
  321MOL0     C44188  11.797   7.544   9.634  0.6881 -0.2736  0.2361
  321MOL0     C44189  11.862   7.736   9.474 -0.2246  0.0695  0.5286
  321MOL0     C44190  12.011   7.709   9.467 -0.3196 -0.7158  0.1389
  321MOL0     O44191  12.087   7.764   9.366  0.0501  0.0723 -0.2889
  321MOL0     C44192  12.214   7.706   9.340  0.8766 -0.6556 -0.2821
  321MOL0     C44193  12.327   7.786   9.352  0.3514 -0.0349 -0.1820
  321MOL0     C44194  12.456   7.737   9.310  0.0965  0.2811  0.4605
  321MOL0     C44195  12.472   7.603   9.279 -0.8813 -0.3059  0.6970
  321MOL0     O44196  12.581   7.543   9.216  0.3274 -0.2691 -0.6709
  321MOL0     C44197  12.716   7.609   9.194 -0.6249 -0.2384  0.4005
  321MOL0     C44198  12.799   7.539   9.082  0.6111 -0.4579  0.5934
  321MOL0     C44199  12.838   7.396   9.118 -0.6413  0.2052  0.1858
  321MOL0     C44200  12.974   7.392   9.187 -0.6504 -0.5281 -0.3547
  321MOL0     C44201  13.041   7.256   9.177  0.0058  0.3692 -0.0815
  321MOL0     C44202  13.178   7.259   9.241  0.5832 -0.3473 -0.6906
  321MOL0     C44203  13.226   7.116   9.258 -0.4480  0.5524 -0.2784
  321MOL0     C44204  13.337   7.089   9.361 -0.6394 -0.0701 -0.0568
  321MOL0    Cl44205  13.356   6.919   9.413 -0.0356  0.1785 -0.2522
  321MOL0     C44206  12.360   7.523   9.289 -0.2760 -0.0713 -0.4620
  321MOL0     C44207  12.228   7.572   9.317 -1.3249 -0.2896  0.8771
  321MOL0     O44208  12.058   7.619   9.536  0.6103  0.6934 -0.2531
  321MOL0     C44209  11.814   7.840   9.389  0.7030 -0.3555  0.7276
  321MOL0     C44210  11.678   7.876   9.380  0.2446  0.8335 -0.0997
  321MOL0     N44211  11.010   8.159   9.623  0.2137  0.1223  0.2027
  321MOL0     N44212  10.946   8.265   9.647  0.4448 -0.2033  0.1220
  321MOL0     C44213   9.868   8.198   9.872  0.3616 -0.7129  0.0988
  321MOL0     C44214   9.739   8.167   9.829 -0.5908 -0.0611 -1.0532
  321MOL0     C44215   9.326   8.107   9.674  0.8949 -0.5214 -1.2321
  321MOL0     C44216   9.230   8.008   9.713  0.2040  0.0192 -0.3021
  321MOL0     C44217   9.097   8.016   9.673 -0.8570 -0.1818  0.3467
  321MOL0     C44218   9.048   8.125   9.597 -0.2251 -0.5913  0.4194
  321MOL0     O44219   8.924   8.142   9.551 -0.6756 -0.1567  0.2437
  321MOL0     C44220   8.841   8.029   9.532  0.3008 -0.1126  0.6646
  321MOL0     C44221   8.739   8.009   9.643  0.6758 -0.0652 -0.5146
  321MOL0     C44222   8.608   7.950   9.605  0.0266  0.3400 -0.3021
  321MOL0     C44223   8.618   7.802   9.571  0.4414  1.0522 -0.6564
  321MOL0     C44224   8.492   7.769   9.490  0.0458  0.6075 -0.1431
  321MOL0     C44225   8.399   7.730   9.418  0.8594  0.1956 -0.2461
  321MOL0     C44226   9.134   8.226   9.564 -0.1893  0.5433 -0.3109
  321MOL0     C44227   9.267   8.217   9.595 -0.5374  0.2626  0.4352
  321MOL0     C44228   9.359   8.325   9.535 -0.2734 -0.7096 -0.3324
  321MOL0     H44229   9.748   8.310   9.517  2.6950  2.0669  0.7970
  321MOL0     H44230   9.974   8.342   9.587 -1.6741  1.5240  0.5457
  321MOL0     H44231  10.136   8.281   9.989  0.5797 -0.8327 -1.0385
  321MOL0     H44232  10.086   8.439   9.930  0.4009  0.8737 -0.2519
  321MOL0     H44233  10.317   8.432   9.974  0.1111 -1.5484  0.1959
  321MOL0     H44234  10.342   8.295   9.864 -1.1091 -1.1380 -0.6429
  321MOL0     H44235  10.260   8.447   9.673 -1.6863 -1.2042  1.0400
  321MOL0     H44236  10.220   8.582   9.788  0.0897  0.3255  2.3674
  321MOL0     H44237  10.415   8.647   9.686 -2.7524  1.7694  2.2234
  321MOL0     H44238  10.451   8.616   9.846 -0.8247 -1.4326  1.1934
  321MOL0     H44239  10.551   8.380   9.772 -0.2270 -0.3341 -0.7511
  321MOL0     H44240  10.626   8.531   9.727 -0.0033  1.8301  0.2381
  321MOL0     H44241  10.421   8.390   9.527 -1.0042  3.8035 -1.2538
  321MOL0     H44242  10.535   8.518   9.504  0.5976  0.9289  0.7618
  321MOL0     H44243  10.606   8.281   9.422  1.5540  0.3647  0.1284
  321MOL0     H44244  10.631   8.238   9.589  0.2750  1.4065  1.7830
  321MOL0     H44245  10.767   8.455   9.431 -0.5283  1.3775  0.6007
  321MOL0     H44246  10.781   8.463   9.602 -0.6741 -1.0784  1.0958
  321MOL0     H44247  10.880   8.178   9.331  0.3600 -1.1258  0.2139
  321MOL0     H44248  11.034   7.980   9.320 -1.7477 -3.1140 -0.1518
  321MOL0     H44249  10.976   7.908   9.451  1.0187 -1.1733 -2.3180
  321MOL0     H44250  11.246   8.023   9.428 -0.0149  0.2631  1.3813
  321MOL0     H44251  11.191   7.992   9.586 -0.7375  3.7134 -0.9994
  321MOL0     H44252  11.148   7.729   9.511 -0.0795 -0.8242  0.8219
  321MOL0     H44253  11.194   7.786   9.358 -3.0401  0.9347  0.7345
  321MOL0     H44254  11.368   7.791   9.615  2.7505 -1.3600 -0.1444
  321MOL0     H44255  11.363   7.664   9.512 -0.9693  0.0835  2.7718
  321MOL0     H44256  11.559   7.639   9.596 -1.1220 -1.1537 -0.1389
  321MOL0     H44257  11.885   7.564   9.695  0.5689  1.7518 -0.1885
  321MOL0     H44258  11.817   7.458   9.569  0.7969 -0.8931  1.0755
  321MOL0     H44259  11.727   7.517   9.714  2.6432  0.4873  2.2984
  321MOL0     H44260  12.309   7.888   9.385  2.7715  0.2402  0.4624
  321MOL0     H44261  12.536   7.809   9.305 -1.6385  2.2417 -0.8259
  321MOL0     H44262  12.691   7.711   9.164 -2.7712  0.4785  3.9978
  321MOL0     H44263  12.784   7.609   9.279  0.3216 -0.0094 -0.3324
  321MOL0     H44264  12.724   7.531   9.002 -2.4474  0.3715  3.1692
  321MOL0     H44265  12.881   7.604   9.051 -0.2840  0.1718 -0.5540
  321MOL0     H44266  12.840   7.344   9.022 -0.5159  2.1035 -0.8932
  321MOL0     H44267  12.773   7.364   9.200  1.0123  1.8080  2.2427
  321MOL0     H44268  12.966   7.420   9.292  0.4232  1.5972 -0.7739
  321MOL0     H44269  13.048   7.457   9.139 -0.2324 -1.6849 -1.3264
  321MOL0     H44270  12.981   7.178   9.226  1.2176 -1.0654 -0.8085
  321MOL0     H44271  13.052   7.225   9.073 -0.6501 -2.4613  0.6066
  321MOL0     H44272  13.183   7.320   9.332 -0.2970 -1.0106 -0.1882
  321MOL0     H44273  13.248   7.313   9.176  1.0033 -0.5366 -0.4018
  321MOL0     H44274  13.269   7.079   9.164 -0.7114  0.0064 -0.1838
  321MOL0     H44275  13.148   7.043   9.278 -1.8466  0.8271 -4.0158
  321MOL0     H44276  13.318   7.157   9.445 -1.7678 -1.3898  0.8045
  321MOL0     H44277  13.426   7.128   9.311 -2.6163  2.9407 -1.5617
  321MOL0     H44278  12.361   7.416   9.271  0.2218 -0.1554  0.0081
  321MOL0     H44279  12.150   7.496   9.324  1.3717 -3.2683  0.9591
  321MOL0     H44280  11.872   7.898   9.317 -0.3320  0.9633  0.9289
  321MOL0     H44281  11.636   7.939   9.303 -2.6537  1.1046  1.5615
  321MOL0     H44282   9.891   8.161   9.972  0.6061  2.2459  1.2333
  321MOL0     H44283   9.665   8.130   9.899 -1.2133  0.9005 -1.1897
  321MOL0     H44284   9.252   7.927   9.782  2.3929  1.0274  0.2826
  321MOL0     H44285   9.025   7.942   9.706 -0.5672 -0.7953 -0.3579
  321MOL0     H44286   8.787   8.045   9.438 -1.6507 -3.3622  1.0868
  321MOL0     H44287   8.900   7.938   9.515 -0.7880 -0.9512  1.2343
  321MOL0     H44288   8.716   8.108   9.682 -0.9724 -0.7732  0.4168
  321MOL0     H44289   8.797   7.957   9.720 -0.7193 -3.4933 -1.5898
  321MOL0     H44290   8.543   7.964   9.692 -0.4552 -2.0358 -0.2044
  321MOL0     H44291   8.562   8.002   9.521 -2.0346  0.1474  0.6366
  321MOL0     H44292   8.631   7.746   9.664  1.0961  0.4381 -1.1027
  321MOL0     H44293   8.704   7.778   9.508 -0.4397 -0.3609 -1.3903
  321MOL0     H44294   8.320   7.692   9.356  2.5113 -1.3365 -1.5344
  321MOL0     H44295   9.093   8.314   9.517 -1.6476  1.7131  2.8453
  321MOL0     H44296   9.434   8.278   9.471 -0.8467 -0.4098 -1.2522
  321MOL0     H44297   9.295   8.395   9.480  0.9897  2.1794  1.6468
  321MOL0     H44298   9.405   8.378   9.619  0.7239 -1.4568 -0.3893
  322MOL0     O44299   4.093   1.702  11.317 -0.5544  0.1363  0.1158
  322MOL0     C44300   4.087   1.691  11.436 -0.1538  0.6667 -0.7511
  322MOL0     O44301   4.188   1.733  11.526  0.0186 -0.0527 -0.6140
  322MOL0     C44302   4.299   1.779  11.478 -0.1697 -0.3179 -0.4525
  322MOL0     C44303   4.310   1.870  11.374  0.6607 -0.8340  0.6740
  322MOL0     C44304   4.439   1.914  11.329 -0.1381  0.1782 -0.3579
  322MOL0     C44305   4.553   1.883  11.404 -0.1713  0.2686 -0.4062
  322MOL0     O44306   4.679   1.931  11.350  0.6630  0.1610 -0.4637
  322MOL0     C44307   4.794   1.926  11.434  0.5148 -1.0573 -1.0810
  322MOL0     C44308   4.909   1.980  11.358 -0.5755 -0.0493  0.2342
  322MOL0     C44309   5.036   1.974  11.434  0.7962 -1.0935 -0.6404
  322MOL0     C44310   5.164   2.013  11.345  0.8946  0.7833 -0.2554
  322MOL0     C44311   5.270   2.074  11.439  0.2420 -0.2785 -0.1282
  322MOL0     C44312   5.397   2.084  11.365  0.5052  0.5434  0.4687
  322MOL0     C44313   5.505   2.152  11.450  0.8204  0.0665 -0.4672
  322MOL0     C44314   5.636   2.172  11.373 -0.5859  0.2677  0.6060
  322MOL0     N44315   5.716   2.049  11.339  0.3595  0.3965  0.2771
  322MOL0     C44316   5.814   1.997  11.421 -1.4642 -0.6297 -0.0998
  322MOL0     C44317   5.872   1.901  11.350  0.8660 -0.8500  0.6304
  322MOL0     C44318   6.000   1.837  11.375 -0.2642  0.0924  0.3563
  322MOL0     C44319   6.014   1.698  11.309 -0.3597 -0.1777  0.4500
  322MOL0     C44320   6.122   1.609  11.373 -0.1928  0.3770  0.0461
  322MOL0     C44321   6.257   1.659  11.307  0.0057  0.2288 -0.0819
  322MOL0     O44322   6.365   1.583  11.371 -0.3065 -0.9978 -0.7200
  322MOL0     C44323   6.491   1.637  11.354  0.1302 -0.3742 -0.3095
  322MOL0     C44324   6.524   1.729  11.252 -0.1522  0.9050 -0.4094
  322MOL0     C44325   6.651   1.766  11.244 -0.6605  0.0386  0.5505
  322MOL0     C44326   6.683   1.814  11.102 -0.0132  0.5667  0.1685
  322MOL0     C44327   6.757   1.731  11.338 -0.1912  0.2966  0.7655
  322MOL0     C44328   6.896   1.776  11.329  0.3947 -0.1725  0.8350
  322MOL0     O44329   6.919   1.888  11.250  0.0078 -0.2343 -0.0106
  322MOL0     C44330   7.045   1.911  11.212  1.2175  0.3839  0.0087
  322MOL0     C44331   7.140   1.952  11.297  0.4853 -0.1223  1.1742
  322MOL0     C44332   7.267   1.984  11.251  0.8471  0.0000 -0.3305
  322MOL0     C44333   7.302   1.959  11.126 -0.7354 -0.4156 -0.0974
  322MOL0     O44334   7.434   1.987  11.089  0.8867  0.2482 -0.1662
  322MOL0     C44335   7.469   1.962  10.952  0.7153  0.5065  0.1066
  322MOL0     C44336   7.618   1.984  10.934  0.4951 -0.0954  0.5663
  322MOL0     C44337   7.650   1.982  10.782  0.1726  0.2637 -0.0211
  322MOL0     C44338   7.798   2.012  10.743  0.3581 -0.1289  0.4999
  322MOL0     C44339   7.901   1.905  10.807 -0.0490 -0.3655 -0.0191
  322MOL0     C44340   8.047   1.928  10.782 -0.5799 -0.1593 -0.6099
  322MOL0     C44341   8.097   2.071  10.780  0.5969  0.2051  0.0919
  322MOL0     C44342   8.106   2.141  10.911 -0.0945 -0.2959 -0.9219
  322MOL0    Cl44343   8.224   2.269  10.902 -0.7555  0.2405  0.1764
  322MOL0     C44344   7.206   1.923  11.034  0.2160 -0.7342 -0.1924
  322MOL0     C44345   7.077   1.896  11.085  0.5136  0.2431  0.5084
  322MOL0     O44346   6.977   1.725  11.401  0.4578  0.9337  0.3130
  322MOL0     C44347   6.715   1.644  11.447 -0.2248  0.2297 -0.1817
  322MOL0     C44348   6.588   1.590  11.448  0.1233 -1.2576 -0.0338
  322MOL0     N44349   5.788   1.879  11.234 -0.5566 -0.3115 -0.4030
  322MOL0     N44350   5.706   1.976  11.230 -0.3170  0.2156 -0.4288
  322MOL0     C44351   4.546   1.797  11.509 -0.4181 -0.1190 -0.5887
  322MOL0     C44352   4.421   1.744  11.549  0.1022 -0.0226  0.0941
  322MOL0     C44353   3.962   1.638  11.490  0.6804  0.7525 -0.5681
  322MOL0     C44354   3.959   1.619  11.634 -0.4790 -0.0748  0.2306
  322MOL0     C44355   3.852   1.554  11.694 -0.6446 -0.1588 -0.1438
  322MOL0     C44356   3.739   1.502  11.621 -0.6386  0.2744 -0.0231
  322MOL0     O44357   3.645   1.425  11.691  0.5055  0.4957 -0.5983
  322MOL0     C44358   3.527   1.380  11.612 -0.3251  0.5426  0.7926
  322MOL0     C44359   3.432   1.318  11.706  0.8571 -0.5318 -0.2371
  322MOL0     C44360   3.482   1.218  11.808 -0.0152 -0.6604  0.7398
  322MOL0     C44361   3.370   1.133  11.851  0.1579 -0.2622  0.9298
  322MOL0     C44362   3.360   1.022  11.749 -0.1059  1.4221 -0.2635
  322MOL0     C44363   3.365   0.925  11.676  0.6269 -0.1869  0.0284
  322MOL0     C44364   3.745   1.517  11.486 -0.4394 -0.6475 -0.3251
  322MOL0     C44365   3.854   1.582  11.415  0.5473 -0.3657 -0.0534
  322MOL0     C44366   3.836   1.590  11.261 -0.2428  0.2895 -0.0770
  322MOL0     H44367   4.235   1.912  11.308  0.2382  1.9774  2.7611
  322MOL0     H44368   4.445   1.958  11.230  1.2840 -0.3221 -0.5227
  322MOL0     H44369   4.811   1.823  11.468 -2.1262 -0.3699  3.0036
  322MOL0     H44370   4.778   1.995  11.517 -1.4306 -1.9180 -0.6828
  322MOL0     H44371   4.926   1.928  11.264  1.3883  0.5414  0.2168
  322MOL0     H44372   4.902   2.087  11.340  0.7983  0.2261  1.1658
  322MOL0     H44373   5.027   2.037  11.523  3.5592 -1.4751  0.0236
  322MOL0     H44374   5.061   1.874  11.470  2.0757 -1.5983 -2.7782
  322MOL0     H44375   5.183   1.920  11.290  0.4818  0.9463 -0.6771
  322MOL0     H44376   5.141   2.089  11.270 -1.7974 -0.4344 -0.7630
  322MOL0     H44377   5.282   2.014  11.529  1.5201 -0.0602 -0.1352
  322MOL0     H44378   5.244   2.174  11.476  0.8309  0.1927 -0.9482
  322MOL0     H44379   5.444   1.986  11.348  2.0416  0.4924  4.0951
  322MOL0     H44380   5.378   2.144  11.276 -1.7875 -0.3217  0.2997
  322MOL0     H44381   5.525   2.085  11.535 -2.0952 -1.2411 -0.6883
  322MOL0     H44382   5.472   2.248  11.491  0.9636 -0.5680  1.2172
  322MOL0     H44383   5.624   2.240  11.288  2.2614 -0.0004 -0.1045
  322MOL0     H44384   5.705   2.215  11.445  2.2045 -1.1930 -1.0137
  322MOL0     H44385   5.841   2.042  11.517  0.3341  1.0917 -1.3315
  322MOL0     H44386   6.013   1.826  11.483 -3.4994 -2.5412  0.6261
  322MOL0     H44387   6.078   1.900  11.332  0.3517 -0.9617 -0.0855
  322MOL0     H44388   5.915   1.651  11.310 -1.0327  1.1513  2.7330
  322MOL0     H44389   6.045   1.700  11.204 -2.4918 -3.0450 -0.3543
  322MOL0     H44390   6.123   1.628  11.481 -0.8350 -1.7283  0.4582
  322MOL0     H44391   6.109   1.502  11.354  2.0626  0.4068 -2.1475
  322MOL0     H44392   6.262   1.645  11.199  0.5161 -2.4866  0.2197
  322MOL0     H44393   6.279   1.765  11.326  2.6892 -0.3029  0.1747
  322MOL0     H44394   6.452   1.760  11.178  0.1881  1.5528 -0.4765
  322MOL0     H44395   6.782   1.772  11.082 -1.0682 -4.0571  3.1802
  322MOL0     H44396   6.691   1.923  11.100 -0.6421  0.6503  1.1675
  322MOL0     H44397   6.606   1.787  11.030  1.8386 -0.3285 -1.5583
  322MOL0     H44398   7.101   1.958  11.399 -3.9251  0.2073 -0.3013
  322MOL0     H44399   7.339   2.020  11.324 -1.5065  2.0034  1.1460
  322MOL0     H44400   7.465   1.854  10.934  0.0740  0.5998 -0.3104
  322MOL0     H44401   7.407   2.017  10.881 -2.6973 -0.6569  1.9568
  322MOL0     H44402   7.649   2.079  10.979  0.1947 -1.1663  3.2766
  322MOL0     H44403   7.678   1.915  10.995  2.2817  2.4328  1.8952
  322MOL0     H44404   7.597   2.065  10.734  1.0659  1.1980  0.5498
  322MOL0     H44405   7.627   1.883  10.742  1.0879  0.6049 -1.5047
  322MOL0     H44406   7.821   2.112  10.781 -1.0590 -0.2378  1.7497
  322MOL0     H44407   7.818   2.013  10.636 -0.1053  0.7348  0.4133
  322MOL0     H44408   7.878   1.907  10.914 -2.2692 -1.0043 -0.4441
  322MOL0     H44409   7.889   1.803  10.769 -2.2017  1.6561 -5.8124
  322MOL0     H44410   8.073   1.876  10.689  0.7157  0.2763 -0.5115
  322MOL0     H44411   8.095   1.874  10.864  0.0398 -1.5205 -1.8144
  322MOL0     H44412   8.036   2.136  10.716 -0.2793 -1.1113 -0.4365
  322MOL0     H44413   8.194   2.057  10.733 -0.0816 -1.8576 -0.7763
  322MOL0     H44414   8.145   2.063  10.977  0.8722  0.9144 -0.0156
  322MOL0     H44415   8.011   2.176  10.950  1.5367  3.2621  0.2251
  322MOL0     H44416   7.231   1.907  10.930  0.1621 -2.1050 -0.0224
  322MOL0     H44417   6.992   1.870  11.023 -0.4554  2.1456  0.9794
  322MOL0     H44418   6.786   1.619  11.526  1.1583 -0.2459 -1.5405
  322MOL0     H44419   6.551   1.526  11.527  1.4755  0.1835  1.8445
  322MOL0     H44420   4.635   1.780  11.568  1.5317  2.5590 -2.4758
  322MOL0     H44421   4.419   1.689  11.642  1.1729  3.5739  2.4410
  322MOL0     H44422   4.042   1.650  11.696  0.1034 -3.1685  1.1282
  322MOL0     H44423   3.860   1.539  11.802  3.5004 -6.2337 -0.7954
  322MOL0     H44424   3.457   1.446  11.560 -2.1753 -2.6540 -1.0622
  322MOL0     H44425   3.566   1.307  11.541  0.9332  3.0539 -1.2982
  322MOL0     H44426   3.353   1.271  11.647  0.5891 -0.6798  0.2388
  322MOL0     H44427   3.394   1.394  11.775 -3.0591 -0.7086 -1.9656
  322MOL0     H44428   3.565   1.159  11.767  1.2134  2.2460 -1.3789
  322MOL0     H44429   3.520   1.278  11.891  0.6325 -0.6786  0.4686
  322MOL0     H44430   3.273   1.184  11.857 -0.0895 -0.5125 -0.5726
  322MOL0     H44431   3.395   1.084  11.946 -2.4941 -0.6883  1.4918
  322MOL0     H44432   3.355   0.838  11.614 -0.0796  1.4596 -2.3447
  322MOL0     H44433   3.665   1.482  11.422 -0.3590  1.0319 -1.4086
  322MOL0     H44434   3.852   1.692  11.227 -0.1580 -0.2550 -1.7363
  322MOL0     H44435   3.915   1.525  11.222  1.1824  0.3706  2.4492
  322MOL0     H44436   3.735   1.568  11.226 -0.6126  1.8174 -0.0352
  323MOL0     O44437   1.809  10.819   5.124 -0.1646 -0.2178  0.3860
  323MOL0     C44438   1.915  10.812   5.190 -0.2131 -0.6417 -0.2543
  323MOL0     O44439   1.924  10.862   5.315  0.5036 -0.1828 -0.5146
  323MOL0     C44440   1.804  10.909   5.372  0.0343 -0.2495  0.1096
  323MOL0     C44441   1.689  10.828   5.408  0.6271 -0.3883  0.2518
  323MOL0     C44442   1.593  10.883   5.486  0.5889  0.8479  0.5219
  323MOL0     C44443   1.600  11.014   5.527 -0.1084 -0.6221 -0.4421
  323MOL0     O44444   1.505  11.075   5.608  0.1724 -0.1951  0.2801
  323MOL0     C44445   1.385  11.005   5.618  0.0503 -0.2202 -0.0958
  323MOL0     C44446   1.290  11.098   5.695 -0.0622 -0.7320  0.3030
  323MOL0     C44447   1.144  11.054   5.697  0.2270 -0.2918 -0.0385
  323MOL0     C44448   1.050  11.126   5.802 -0.6780  0.5399  0.4474
  323MOL0     C44449   0.912  11.101   5.774  0.0697  0.4933 -0.1850
  323MOL0     C44450   0.825  11.144   5.896 -0.4195 -0.6810 -0.4463
  323MOL0     C44451   0.672  11.132   5.871 -0.7188 -0.5442 -0.1746
  323MOL0     C44452   0.593  11.217   5.968 -0.0148  0.3036 -0.3360
  323MOL0     N44453   0.456  11.174   5.976 -0.4304 -0.0563  0.2363
  323MOL0     C44454   0.373  11.178   6.083 -0.9661 -0.0072 -0.1747
  323MOL0     C44455   0.264  11.104   6.056  0.0816 -0.5380 -0.0257
  323MOL0     C44456   0.144  11.091   6.145 -0.2668 -0.6003 -0.0470
  323MOL0     C44457   0.050  10.986   6.086  0.3797  0.6613 -0.3954
  323MOL0     C44458  -0.082  10.983   6.155  0.1778 -0.2827  0.0071
  323MOL0     C44459  -0.167  10.873   6.092  0.1057  0.1585  0.0245
  323MOL0     O44460  -0.306  10.890   6.133 -0.5040  0.7882  0.4375
  323MOL0     C44461  -0.402  10.833   6.058  0.8964  0.2030  0.3150
  323MOL0     C44462  -0.378  10.723   5.975  0.6561  0.0858  0.2267
  323MOL0     C44463  -0.485  10.665   5.904  0.3601 -0.2325 -0.3632
  323MOL0     C44464  -0.435  10.554   5.814  0.4392  0.4504  0.2411
  323MOL0     C44465  -0.618  10.712   5.920 -0.1189 -1.2354  0.0333
  323MOL0     C44466  -0.732  10.672   5.836  0.8057  0.3118 -0.8619
  323MOL0     O44467  -0.851  10.717   5.882  0.6888 -0.4506 -0.1611
  323MOL0     C44468  -0.964  10.651   5.850 -0.2461 -0.4511  0.1457
  323MOL0     C44469  -0.972  10.517   5.815  0.7367 -0.6347 -0.6802
  323MOL0     C44470  -1.094  10.460   5.781 -0.3506  0.6841 -0.3103
  323MOL0     C44471  -1.210  10.540   5.776 -0.1520  0.1123 -1.2003
  323MOL0     O44472  -1.338  10.499   5.739  0.3075 -0.5391  0.2968
  323MOL0     C44473  -1.386  10.373   5.785 -0.5310  0.2364 -0.3780
  323MOL0     C44474  -1.532  10.379   5.762  0.1593  0.5856  0.2543
  323MOL0     C44475  -1.585  10.240   5.802  1.0761 -0.7291 -0.1359
  323MOL0     C44476  -1.735  10.224   5.758  0.1568  0.4130  0.8258
  323MOL0     C44477  -1.779  10.078   5.790  0.8904  0.3493 -0.5725
  323MOL0     C44478  -1.927  10.067   5.741 -0.3814  0.2421 -0.0671
  323MOL0     C44479  -2.011   9.978   5.826  0.3061 -0.1740 -0.6765
  323MOL0     C44480  -2.152   9.967   5.764 -0.7546 -0.0532 -0.4279
  323MOL0    Cl44481  -2.242  10.114   5.790 -0.2629 -0.2581 -0.1299
  323MOL0     C44482  -1.204  10.673   5.804  0.0694 -0.4886  0.0818
  323MOL0     C44483  -1.082  10.732   5.839 -0.1503 -0.5602 -0.1998
  323MOL0     O44484  -0.714  10.602   5.734  0.1789 -1.3698 -0.3814
  323MOL0     C44485  -0.636  10.818   6.015  0.2846  0.3483  0.2988
  323MOL0     C44486  -0.535  10.878   6.074 -0.8111 -0.1706 -0.4550
  323MOL0     N44487   0.272  11.060   5.924  0.0902 -0.5698  0.2217
  323MOL0     N44488   0.384  11.105   5.874  0.6162  0.0404 -0.0040
  323MOL0     C44489   1.719  11.093   5.495  0.1435  0.0882  0.4408
  323MOL0     C44490   1.813  11.043   5.418  0.2322 -0.3737  1.1951
  323MOL0     C44491   2.047  10.788   5.132  0.4731 -0.5339  1.0214
  323MOL0     C44492   2.054  10.777   4.990 -0.2354 -0.4996  0.2143
  323MOL0     C44493   2.172  10.760   4.917 -0.3398 -0.7899  0.5184
  323MOL0     C44494   2.293  10.746   4.987  0.4120  0.2161  0.8934
  323MOL0     O44495   2.419  10.724   4.933 -0.1716 -0.8162 -0.3759
  323MOL0     C44496   2.428  10.693   4.795 -0.1761  0.0815  0.0309
  323MOL0     C44497   2.564  10.635   4.756  0.3758  0.4569  0.7843
  323MOL0     C44498   2.674  10.728   4.752 -0.0691 -0.7416  0.3881
  323MOL0     C44499   2.814  10.678   4.738 -0.0922 -0.2037  0.3549
  323MOL0     C44500   2.840  10.592   4.618 -0.3085 -0.9815 -0.1854
  323MOL0     C44501   2.858  10.516   4.533  0.0060  0.9300 -0.4420
  323MOL0     C44502   2.294  10.753   5.126  0.8681  0.3601 -0.2865
  323MOL0     C44503   2.174  10.785   5.198  0.2835 -0.0400 -0.0126
  323MOL0     C44504   2.198  10.811   5.345  0.8160  0.1115  0.1409
  323MOL0     H44505   1.671  10.726   5.377 -3.4116 -0.5271  2.3524
  323MOL0     H44506   1.523  10.803   5.505  0.7136  0.8713  1.0883
  323MOL0     H44507   1.401  10.912   5.672  1.4302 -1.5504 -2.6208
  323MOL0     H44508   1.349  10.984   5.517  0.3938 -1.6370  0.0572
  323MOL0     H44509   1.332  11.103   5.796 -0.6408 -4.5314  0.8865
  323MOL0     H44510   1.293  11.198   5.651 -1.4268  0.5163  2.8106
  323MOL0     H44511   1.114  11.072   5.593  0.6219  0.7346  0.0075
  323MOL0     H44512   1.135  10.947   5.716 -0.8539 -0.2098  0.0148
  323MOL0     H44513   1.075  11.082   5.899 -0.8468 -0.2004  0.1567
  323MOL0     H44514   1.065  11.235   5.803  1.3939  0.2956  0.5083
  323MOL0     H44515   0.893  10.998   5.743 -2.9658  1.5351 -2.2756
  323MOL0     H44516   0.889  11.154   5.680  1.7115  2.7545  0.6040
  323MOL0     H44517   0.863  11.086   5.980  2.8767 -0.1893 -1.4351
  323MOL0     H44518   0.847  11.250   5.917  0.9357 -0.4830 -2.5177
  323MOL0     H44519   0.645  11.029   5.893  0.9803 -0.8060  0.8914
  323MOL0     H44520   0.650  11.149   5.765 -1.2986 -0.1745  0.0040
  323MOL0     H44521   0.636  11.192   6.065  1.1570 -1.7345 -1.3096
  323MOL0     H44522   0.592  11.326   5.957 -3.1519  0.6808  2.3055
  323MOL0     H44523   0.399  11.234   6.173  3.2367 -1.3991 -0.2986
  323MOL0     H44524   0.096  11.189   6.136  2.3985  0.8189  0.1283
  323MOL0     H44525   0.175  11.069   6.247 -0.6986 -0.8559  0.0301
  323MOL0     H44526   0.023  10.992   5.980 -0.1319  0.5175 -0.2755
  323MOL0     H44527   0.093  10.886   6.101  0.9935  0.9026 -0.5376
  323MOL0     H44528  -0.074  10.949   6.259 -1.0274 -2.6634 -0.6120
  323MOL0     H44529  -0.136  11.079   6.155 -0.8556 -0.7428  2.9430
  323MOL0     H44530  -0.166  10.881   5.983 -3.1927  0.0251 -0.1086
  323MOL0     H44531  -0.130  10.775   6.123 -1.3013 -0.5832 -0.5759
  323MOL0     H44532  -0.275  10.690   5.970  0.7687  0.6133 -1.4785
  323MOL0     H44533  -0.333  10.519   5.835  0.5528  1.7939  2.1985
  323MOL0     H44534  -0.441  10.583   5.709  2.5324 -0.4197 -0.1719
  323MOL0     H44535  -0.486  10.458   5.822  0.9925  0.1879  0.7381
  323MOL0     H44536  -0.886  10.450   5.822  0.0927 -1.4558 -0.5087
  323MOL0     H44537  -1.114  10.356   5.758 -2.3635  0.7942  0.7608
  323MOL0     H44538  -1.332  10.296   5.730  0.6530  1.2508 -0.6979
  323MOL0     H44539  -1.382  10.365   5.894 -0.3171 -0.5710 -0.4406
  323MOL0     H44540  -1.575  10.456   5.827  0.6603  2.7956 -1.8813
  323MOL0     H44541  -1.547  10.397   5.656  1.7743 -0.1171 -0.1224
  323MOL0     H44542  -1.571  10.216   5.908 -0.6896  1.6946  0.7431
  323MOL0     H44543  -1.523  10.165   5.754  2.2366 -0.7898  1.3970
  323MOL0     H44544  -1.750  10.240   5.651 -1.7217 -1.8989  0.6606
  323MOL0     H44545  -1.799  10.293   5.813 -1.3122  0.0411 -0.3442
  323MOL0     H44546  -1.708  10.004   5.749 -0.0462 -1.2132  0.5009
  323MOL0     H44547  -1.790  10.068   5.898  3.6293  0.7958 -0.1752
  323MOL0     H44548  -1.913  10.023   5.641 -0.0702 -2.9676  1.2567
  323MOL0     H44549  -1.976  10.164   5.734  2.6177  1.8311 -0.5827
  323MOL0     H44550  -2.014  10.012   5.930  1.1661  1.0912 -1.0423
  323MOL0     H44551  -1.971   9.876   5.826 -0.0808 -0.4615  3.0948
  323MOL0     H44552  -2.213   9.891   5.814 -2.1266  1.0888 -0.2691
  323MOL0     H44553  -2.137   9.944   5.658 -0.8883 -1.7329 -0.1110
  323MOL0     H44554  -1.287  10.742   5.818  1.8031  1.5816  0.8050
  323MOL0     H44555  -1.082  10.837   5.865 -0.8943 -0.9032  1.3191
  323MOL0     H44556  -0.735  10.858   6.032 -0.5106  0.1105 -3.0659
  323MOL0     H44557  -0.547  10.961   6.144 -0.2654  1.1042 -1.8113
  323MOL0     H44558   1.715  11.199   5.515  1.6369  0.0526  1.0110
  323MOL0     H44559   1.904  11.096   5.394 -1.1817  2.0744  0.8888
  323MOL0     H44560   1.967  10.787   4.926 -0.2471 -1.5787  0.0547
  323MOL0     H44561   2.175  10.766   4.809  2.8622 -0.0963  0.5424
  323MOL0     H44562   2.347  10.623   4.771 -1.1567  1.0571  0.4201
  323MOL0     H44563   2.408  10.791   4.752  0.8261 -0.6149 -2.1604
  323MOL0     H44564   2.543  10.588   4.660  3.5506  0.7330 -0.1534
  323MOL0     H44565   2.572  10.546   4.819 -0.5169  0.2190  0.5757
  323MOL0     H44566   2.653  10.798   4.671  1.3018 -0.5322  0.1842
  323MOL0     H44567   2.672  10.782   4.847 -0.6071 -0.0379 -0.0212
  323MOL0     H44568   2.841  10.622   4.828  2.6115 -1.5973 -1.2070
  323MOL0     H44569   2.890  10.756   4.729  1.2493 -1.6668 -1.6263
  323MOL0     H44570   2.883  10.441   4.460  2.9190  2.3314 -1.0146
  323MOL0     H44571   2.384  10.741   5.186  0.9180  1.0686 -0.2071
  323MOL0     H44572   2.131  10.752   5.408  1.4554 -2.7535 -1.6700
  323MOL0     H44573   2.300  10.781   5.368 -0.1050 -2.1805  1.6581
  323MOL0     H44574   2.188  10.919   5.359 -0.9701  0.1966 -1.3621
  324MOL0     O44575   7.261   4.603   6.269 -0.3802 -0.9426  0.7749
  324MOL0     C44576   7.147   4.614   6.311 -0.2217  0.8987 -0.8515
  324MOL0     O44577   7.082   4.526   6.387 -0.0008  0.4740  0.6152
  324MOL0     C44578   7.157   4.422   6.424  0.5749  0.9815  0.3891
  324MOL0     C44579   7.264   4.431   6.513 -1.0979 -0.4840 -0.0028
  324MOL0     C44580   7.326   4.318   6.566 -0.2055 -0.0719  0.6826
  324MOL0     C44581   7.298   4.188   6.509 -0.4003  0.2691  0.4402
  324MOL0     O44582   7.370   4.080   6.545 -0.1724 -0.6312  0.2925
  324MOL0     C44583   7.465   4.030   6.439 -0.3807 -0.1987  0.2887
  324MOL0     C44584   7.595   4.026   6.513  0.0833  0.0231 -0.5076
  324MOL0     C44585   7.710   3.989   6.422  0.0956 -1.0432 -0.1972
  324MOL0     C44586   7.844   3.980   6.496 -0.5690 -0.6940 -0.2197
  324MOL0     C44587   7.952   3.909   6.410  0.1265 -0.0729 -1.1799
  324MOL0     C44588   8.069   3.881   6.514  0.6344  1.5307  0.3900
  324MOL0     C44589   8.156   3.752   6.486 -0.4361 -0.1976 -0.6449
  324MOL0     C44590   8.261   3.728   6.599  0.8623 -0.2554  0.3126
  324MOL0     N44591   8.340   3.614   6.575 -0.5966 -0.3272  0.0772
  324MOL0     C44592   8.468   3.615   6.515  0.3692  0.4348  0.0495
  324MOL0     C44593   8.502   3.484   6.497  0.0677  0.3938 -0.0982
  324MOL0     C44594   8.632   3.430   6.451 -0.2948 -0.1049  0.6513
  324MOL0     C44595   8.701   3.316   6.528  0.4589 -0.2692  0.4717
  324MOL0     C44596   8.740   3.366   6.669  0.3549  0.2858 -0.7273
  324MOL0     C44597   8.868   3.459   6.660  0.7963 -0.0219  1.7458
  324MOL0     O44598   8.966   3.401   6.582  0.0203  1.1968 -0.2379
  324MOL0     C44599   9.077   3.362   6.657  1.2714 -0.8283 -0.1843
  324MOL0     C44600   9.165   3.462   6.705 -0.1746  0.2665 -0.5536
  324MOL0     C44601   9.281   3.436   6.783  0.3868 -0.6814  0.1395
  324MOL0     C44602   9.379   3.549   6.815  0.0187 -0.0081  0.1353
  324MOL0     C44603   9.316   3.301   6.807 -0.1814 -0.6123  0.3812
  324MOL0     C44604   9.437   3.262   6.888  0.1567 -0.2157  0.6764
  324MOL0     O44605   9.494   3.140   6.857 -0.9076  0.0721  0.0844
  324MOL0     C44606   9.594   3.085   6.937 -0.1723  0.1088 -0.7455
  324MOL0     C44607   9.704   3.153   6.987  0.1704  0.0836 -0.5571
  324MOL0     C44608   9.785   3.095   7.083  0.3203  0.6532  0.6169
  324MOL0     C44609   9.771   2.960   7.127 -0.3219 -0.3320 -0.0039
  324MOL0     O44610   9.846   2.926   7.231 -0.1909  0.1115 -0.0864
  324MOL0     C44611   9.915   2.808   7.203 -1.0826 -0.3637  0.3095
  324MOL0     C44612   9.952   2.716   7.327  0.7263 -0.0170 -1.1740
  324MOL0     C44613  10.047   2.790   7.420  1.1856 -0.6975  0.6192
  324MOL0     C44614  10.102   2.701   7.525 -0.2048  0.2545  0.5767
  324MOL0     C44615  10.233   2.629   7.472 -0.2644 -0.3216 -0.2047
  324MOL0     C44616  10.324   2.553   7.578  0.0964 -0.2997  0.2053
  324MOL0     C44617  10.237   2.465   7.661 -0.0795 -0.5564 -0.5775
  324MOL0     C44618  10.167   2.353   7.587 -0.1234 -0.3397 -0.2480
  324MOL0    Cl44619  10.278   2.256   7.476  0.2318 -0.1058 -0.1441
  324MOL0     C44620   9.664   2.883   7.076 -0.3802  0.1328  0.1113
  324MOL0     C44621   9.583   2.944   6.975 -0.0897  0.1476 -0.2517
  324MOL0     O44622   9.493   3.334   6.970 -0.9785 -0.1964  0.2666
  324MOL0     C44623   9.236   3.202   6.754  0.0241  1.7007 -0.1257
  324MOL0     C44624   9.115   3.226   6.686  0.4863 -0.4114 -0.8433
  324MOL0     N44625   8.393   3.412   6.538  0.4955  0.5995 -0.2717
  324MOL0     N44626   8.299   3.486   6.586 -0.2895 -0.5454 -0.1243
  324MOL0     C44627   7.202   4.173   6.412  0.2797  0.3941 -0.7426
  324MOL0     C44628   7.132   4.288   6.372  0.1873 -0.6906  0.1298
  324MOL0     C44629   7.068   4.733   6.268 -0.8550  0.9313 -0.1881
  324MOL0     C44630   6.936   4.713   6.213 -0.7820  0.0397  0.0747
  324MOL0     C44631   6.863   4.822   6.167 -0.0529 -0.0655 -0.5600
  324MOL0     C44632   6.917   4.952   6.190 -0.6778  0.0467 -0.0421
  324MOL0     O44633   6.857   5.070   6.162 -0.2639 -0.3034 -0.0351
  324MOL0     C44634   6.732   5.070   6.099  0.2282  0.4321 -0.7066
  324MOL0     C44635   6.624   5.015   6.203  0.1895 -0.1945 -0.3170
  324MOL0     C44636   6.514   4.934   6.131  0.0016  0.3493 -0.2468
  324MOL0     C44637   6.411   5.029   6.060 -0.1182 -0.3450 -0.5613
  324MOL0     C44638   6.479   5.122   5.955  0.7069 -0.2616 -0.3349
  324MOL0     C44639   6.520   5.189   5.864 -0.0727  0.0557 -0.3217
  324MOL0     C44640   7.047   4.970   6.249 -0.7449 -0.0603 -0.2807
  324MOL0     C44641   7.121   4.864   6.296 -0.0198  0.6730 -0.6408
  324MOL0     C44642   7.254   4.886   6.376 -0.0467 -0.4438 -0.2759
  324MOL0     H44643   7.289   4.532   6.543  0.1463 -0.9585  0.6036
  324MOL0     H44644   7.416   4.322   6.627  1.1949  0.8746 -1.3209
  324MOL0     H44645   7.464   4.100   6.355 -0.4581 -0.4952  0.0403
  324MOL0     H44646   7.448   3.926   6.407  0.6017  0.1949 -1.6382
  324MOL0     H44647   7.605   4.123   6.561  0.2624 -0.8583  1.3327
  324MOL0     H44648   7.575   3.950   6.590  0.2394  0.9859  0.4969
  324MOL0     H44649   7.694   3.891   6.375  2.5772 -0.2704 -2.9445
  324MOL0     H44650   7.723   4.066   6.346  3.1127 -0.4230  0.8000
  324MOL0     H44651   7.886   4.075   6.531  1.4022 -1.8173  0.5892
  324MOL0     H44652   7.830   3.911   6.580 -1.1174 -0.2871  0.0352
  324MOL0     H44653   7.983   3.977   6.329  0.2297  2.9171  1.1925
  324MOL0     H44654   7.912   3.814   6.373 -1.0009  0.0134 -0.2280
  324MOL0     H44655   8.133   3.969   6.527 -0.8413  2.7644 -0.4223
  324MOL0     H44656   8.018   3.860   6.608 -1.4277  1.3015 -0.7251
  324MOL0     H44657   8.208   3.763   6.390  0.6892 -0.1215 -0.0450
  324MOL0     H44658   8.092   3.664   6.481 -1.3244  0.3278  0.9395
  324MOL0     H44659   8.332   3.811   6.604  2.4417 -1.6286  3.7904
  324MOL0     H44660   8.193   3.728   6.685 -1.5180  2.3276 -1.3939
  324MOL0     H44661   8.528   3.704   6.496 -0.9942  1.3913  0.0727
  324MOL0     H44662   8.704   3.509   6.429 -0.0309 -0.1432  1.3528
  324MOL0     H44663   8.612   3.389   6.352  0.8454  1.0743 -0.1002
  324MOL0     H44664   8.625   3.239   6.542 -0.0079  0.5242  2.8328
  324MOL0     H44665   8.784   3.279   6.468  0.2830  0.1668 -0.0534
  324MOL0     H44666   8.653   3.417   6.711 -0.2440  2.6599 -4.3653
  324MOL0     H44667   8.772   3.278   6.725  0.3973  0.2887 -0.7476
  324MOL0     H44668   8.832   3.552   6.614  2.3319 -0.0399  0.4350
  324MOL0     H44669   8.907   3.481   6.760  3.3788 -0.6946  0.9464
  324MOL0     H44670   9.129   3.561   6.678 -0.6402 -0.5581 -3.3699
  324MOL0     H44671   9.367   3.561   6.923 -2.4380  2.8350 -0.3125
  324MOL0     H44672   9.352   3.645   6.770 -0.9545 -0.2975  0.0736
  324MOL0     H44673   9.481   3.515   6.794 -0.4616 -2.7454  1.8282
  324MOL0     H44674   9.722   3.260   6.973  1.6791 -0.2895 -1.7254
  324MOL0     H44675   9.854   3.160   7.136  2.9601 -1.7487  0.3284
  324MOL0     H44676   9.868   2.741   7.130  2.0539 -2.8198  0.3158
  324MOL0     H44677  10.010   2.822   7.151 -0.6041  0.3929  1.3355
  324MOL0     H44678   9.861   2.684   7.379 -0.0410 -2.0562 -3.6068
  324MOL0     H44679  10.016   2.632   7.299  0.7807 -0.5659  0.4845
  324MOL0     H44680   9.999   2.875   7.469 -1.1391 -0.2387 -2.1532
  324MOL0     H44681  10.117   2.839   7.351 -0.4513  1.9221  0.6632
  324MOL0     H44682  10.030   2.628   7.562  0.0968  0.0602  0.7822
  324MOL0     H44683  10.131   2.772   7.602 -0.0060  1.3835 -0.5058
  324MOL0     H44684  10.211   2.552   7.398 -0.2802 -1.0669  0.5571
  324MOL0     H44685  10.283   2.719   7.436  2.3342 -1.4705  0.3116
  324MOL0     H44686  10.376   2.629   7.637  0.7144 -1.3016  0.9982
  324MOL0     H44687  10.395   2.496   7.516 -0.4583 -2.6037  1.5663
  324MOL0     H44688  10.170   2.522   7.726 -0.0488 -1.9072  0.7041
  324MOL0     H44689  10.306   2.410   7.726  1.3634  0.5925 -1.0888
  324MOL0     H44690  10.084   2.400   7.534  0.0444  0.1320 -0.1052
  324MOL0     H44691  10.135   2.286   7.668  0.0342  0.8921  0.8756
  324MOL0     H44692   9.621   2.787   7.101  1.3995 -1.2592 -1.8669
  324MOL0     H44693   9.493   2.891   6.942 -0.8410 -1.3381  3.6818
  324MOL0     H44694   9.256   3.099   6.783 -1.7398  1.4902  0.4280
  324MOL0     H44695   9.052   3.139   6.671 -0.7103 -0.1668  2.1429
  324MOL0     H44696   7.181   4.073   6.377  2.2098  0.1365 -1.2690
  324MOL0     H44697   7.054   4.286   6.296 -0.0861 -2.0774  0.4132
  324MOL0     H44698   6.886   4.619   6.195 -1.4247  0.1388  1.2261
  324MOL0     H44699   6.763   4.808   6.127 -0.7314  0.1411  0.9762
  324MOL0     H44700   6.707   5.176   6.082  0.0860  0.5212  0.0210
  324MOL0     H44701   6.725   5.018   6.003 -2.2787  2.5579 -1.8244
  324MOL0     H44702   6.574   5.101   6.249  0.7067  1.6628 -3.0237
  324MOL0     H44703   6.673   4.949   6.275  1.0649 -1.7056 -2.2356
  324MOL0     H44704   6.556   4.868   6.054  1.2814  0.7154  0.1126
  324MOL0     H44705   6.463   4.874   6.207 -0.7040  0.2956 -0.7568
  324MOL0     H44706   6.351   5.083   6.133 -1.6823  0.5471 -2.4101
  324MOL0     H44707   6.343   4.963   6.004 -0.8022  0.1108 -0.2731
  324MOL0     H44708   6.556   5.244   5.779  0.2166  1.3341  0.5855
  324MOL0     H44709   7.086   5.071   6.259 -0.2567 -0.3457  0.7449
  324MOL0     H44710   7.257   4.972   6.443 -0.2771 -0.6434 -0.0119
  324MOL0     H44711   7.272   4.803   6.444 -1.7356  0.2781  1.1380
  324MOL0     H44712   7.340   4.891   6.308  0.4827  0.4627  0.4204
  325MOL0     O44713   2.149   6.006   3.347 -0.1109 -0.2007  0.2539
  325MOL0     C44714   2.050   6.066   3.304 -0.3214  0.2830  0.4323
  325MOL0     O44715   2.047   6.192   3.244  0.8677 -0.5601  0.2142
  325MOL0     C44716   2.149   6.277   3.278 -0.0036 -0.3240  0.1584
  325MOL0     C44717   2.173   6.319   3.402 -0.4957 -0.1010  0.1680
  325MOL0     C44718   2.272   6.412   3.438  0.6924 -0.3992  0.2537
  325MOL0     C44719   2.348   6.471   3.339 -0.7447  0.0339 -0.5471
  325MOL0     O44720   2.432   6.572   3.384 -0.0184 -0.6093 -0.4165
  325MOL0     C44721   2.510   6.645   3.283 -0.1612 -0.8311  0.1339
  325MOL0     C44722   2.565   6.779   3.353  0.4111 -0.0418 -0.7626
  325MOL0     C44723   2.687   6.822   3.264 -0.2293 -0.2699  0.2916
  325MOL0     C44724   2.758   6.947   3.303 -0.3878 -0.3226 -0.5033
  325MOL0     C44725   2.862   6.931   3.410 -0.1391  0.0189  0.5514
  325MOL0     C44726   2.997   6.913   3.351  0.0547 -0.6597 -0.9941
  325MOL0     C44727   3.010   6.785   3.267 -0.0052 -0.0599  0.2720
  325MOL0     C44728   3.145   6.759   3.216  0.5013 -0.3007  0.1079
  325MOL0     N44729   3.211   6.861   3.129  0.6626 -0.8182 -0.0756
  325MOL0     C44730   3.278   6.979   3.155 -0.5261  0.0153 -0.4587
  325MOL0     C44731   3.342   7.023   3.044  0.8674 -0.1600 -0.0865
  325MOL0     C44732   3.416   7.149   3.009 -0.2759 -0.4120 -0.3849
  325MOL0     C44733   3.565   7.120   2.974 -0.4191 -0.2503  0.3070
  325MOL0     C44734   3.636   7.244   2.916  0.1247  0.7263  0.6999
  325MOL0     C44735   3.779   7.220   2.908  0.7187 -0.3504  0.0902
  325MOL0     O44736   3.832   7.332   2.847 -0.0488  0.1812  0.3933
  325MOL0     C44737   3.971   7.359   2.867  0.0998  0.4078  0.8888
  325MOL0     C44738   4.061   7.258   2.913 -0.2928  0.8152  0.0866
  325MOL0     C44739   4.196   7.274   2.911 -1.3395 -0.0826  0.0535
  325MOL0     C44740   4.294   7.153   2.959  0.5574  0.2845  0.1685
  325MOL0     C44741   4.250   7.405   2.879  0.7812 -0.3204 -0.2107
  325MOL0     C44742   4.391   7.444   2.905  0.1491 -0.5136 -0.3549
  325MOL0     O44743   4.414   7.584   2.887  0.8732  0.7066  0.7513
  325MOL0     C44744   4.531   7.641   2.923  0.2798 -0.6260  0.1212
  325MOL0     C44745   4.631   7.671   2.832  0.0429  0.5504  0.4169
  325MOL0     C44746   4.744   7.759   2.860  1.5650 -0.4194 -0.6974
  325MOL0     C44747   4.753   7.814   2.982  0.5478  0.4557 -0.0939
  325MOL0     O44748   4.859   7.892   3.005  0.7498 -0.2236 -0.2464
  325MOL0     C44749   4.916   7.894   3.134  0.2932 -1.1640 -0.0898
  325MOL0     C44750   4.989   8.032   3.137 -0.0112  0.4771  0.4704
  325MOL0     C44751   5.120   8.034   3.051 -0.7081 -0.7666  0.2496
  325MOL0     C44752   5.220   8.144   3.106  0.7088  0.0435 -0.0715
  325MOL0     C44753   5.356   8.134   3.042  0.1273  0.3563  0.2815
  325MOL0     C44754   5.431   8.276   3.079  0.5100  0.1647 -0.5706
  325MOL0     C44755   5.560   8.296   2.994 -0.1409 -0.0492  0.5047
  325MOL0     C44756   5.625   8.430   3.028  0.6853 -0.5889  0.0066
  325MOL0    Cl44757   5.672   8.418   3.196 -0.2909  0.1618 -0.1185
  325MOL0     C44758   4.646   7.804   3.072 -0.6862  0.3293  0.4928
  325MOL0     C44759   4.536   7.717   3.042  0.2635 -0.0988 -0.4750
  325MOL0     O44760   4.470   7.368   2.948 -0.2314 -0.0392 -0.7326
  325MOL0     C44761   4.161   7.505   2.832  0.3716 -0.6562 -0.2086
  325MOL0     C44762   4.024   7.475   2.814  0.2729 -0.4035  0.9396
  325MOL0     N44763   3.302   6.928   2.945 -0.2917 -0.7603  0.5299
  325MOL0     N44764   3.226   6.840   2.993  0.4468 -1.0428  0.1739
  325MOL0     C44765   2.331   6.424   3.209 -0.6124  0.4577 -0.2287
  325MOL0     C44766   2.237   6.319   3.178 -0.1910  0.2192  0.1332
  325MOL0     C44767   1.922   5.994   3.282  0.4160 -0.3751  0.1474
  325MOL0     C44768   1.853   6.020   3.161 -0.2159  0.1738  0.4416
  325MOL0     C44769   1.735   5.974   3.134  0.7943  0.9075  0.0460
  325MOL0     C44770   1.667   5.884   3.216 -0.3502  0.7629 -0.4074
  325MOL0     O44771   1.547   5.816   3.192  0.5418  0.1420 -0.0238
  325MOL0     C44772   1.470   5.815   3.072 -0.3163  0.3787  0.4724
  325MOL0     C44773   1.524   5.700   2.982 -0.2625  0.3604  0.0226
  325MOL0     C44774   1.507   5.558   3.047 -0.0060  0.4498 -1.1736
  325MOL0     C44775   1.630   5.472   3.021 -0.4172  0.2147  0.5103
  325MOL0     C44776   1.608   5.333   3.067 -0.3184 -0.1675 -0.5983
  325MOL0     C44777   1.596   5.216   3.099 -0.7664  0.4834  0.3479
  325MOL0     C44778   1.735   5.837   3.335  0.3133  0.1436 -0.3597
  325MOL0     C44779   1.855   5.902   3.366  0.0501  0.2520 -0.6021
  325MOL0     C44780   1.943   5.844   3.474  0.6322 -0.0266 -0.0323
  325MOL0     H44781   2.106   6.270   3.471 -4.0843  1.2541 -2.0532
  325MOL0     H44782   2.293   6.458   3.535  0.2392  0.2218  0.0624
  325MOL0     H44783   2.434   6.672   3.209 -1.3579 -1.5079  1.0957
  325MOL0     H44784   2.587   6.579   3.241 -1.6095 -0.8351 -2.7700
  325MOL0     H44785   2.487   6.854   3.370 -1.3501 -1.6762 -1.2375
  325MOL0     H44786   2.597   6.759   3.456  0.0611 -0.9816 -0.8264
  325MOL0     H44787   2.762   6.743   3.254  2.2878  1.9650  0.6852
  325MOL0     H44788   2.637   6.845   3.169 -1.1891 -0.2583  0.7846
  325MOL0     H44789   2.803   6.981   3.210  0.3645  0.5528  0.1601
  325MOL0     H44790   2.691   7.027   3.335 -1.7605 -2.3482  2.1944
  325MOL0     H44791   2.830   6.855   3.481 -2.1533  1.8651  1.7609
  325MOL0     H44792   2.863   7.029   3.458 -3.1718 -0.3633  1.5882
  325MOL0     H44793   3.035   6.999   3.294  0.6129 -0.9232 -1.0276
  325MOL0     H44794   3.063   6.894   3.437 -1.2472 -0.2331  0.1388
  325MOL0     H44795   2.955   6.804   3.174  0.0566 -0.0004  0.2474
  325MOL0     H44796   2.974   6.699   3.324 -3.1551  0.8045 -0.1789
  325MOL0     H44797   3.204   6.732   3.304  1.4998 -0.5623 -0.6295
  325MOL0     H44798   3.140   6.669   3.153  2.1987  0.1560 -0.7205
  325MOL0     H44799   3.295   7.033   3.248 -2.4544  0.8345 -0.5373
  325MOL0     H44800   3.410   7.214   3.097 -4.2587 -0.5586 -0.3675
  325MOL0     H44801   3.366   7.194   2.923 -0.6170 -1.7548 -0.9148
  325MOL0     H44802   3.616   7.080   3.061  1.8909 -2.6063 -1.9629
  325MOL0     H44803   3.560   7.042   2.897 -1.6599 -0.7888  0.9127
  325MOL0     H44804   3.601   7.275   2.817 -1.6022  3.2721  2.0035
  325MOL0     H44805   3.617   7.331   2.980 -1.6589  0.7505  0.2077
  325MOL0     H44806   3.822   7.216   3.009  0.1042 -0.7273  0.3394
  325MOL0     H44807   3.796   7.131   2.846 -0.5965  0.0461 -0.8871
  325MOL0     H44808   4.031   7.155   2.927  0.3306  0.6730  0.4043
  325MOL0     H44809   4.243   7.057   2.952  1.4117 -0.0643 -3.2625
  325MOL0     H44810   4.332   7.173   3.059  2.6709 -0.7315 -0.3620
  325MOL0     H44811   4.385   7.153   2.897  0.1262  2.4223 -0.5659
  325MOL0     H44812   4.617   7.621   2.736 -1.1716  0.9242  0.3718
  325MOL0     H44813   4.821   7.791   2.791  1.3258 -1.4043 -1.4501
  325MOL0     H44814   4.850   7.882   3.220  0.8259 -0.8341  0.3765
  325MOL0     H44815   4.993   7.816   3.147  1.3241  0.0737  1.7362
  325MOL0     H44816   4.922   8.110   3.100 -0.3543  0.1895  0.4740
  325MOL0     H44817   5.013   8.052   3.242 -3.4316 -0.5109  1.5860
  325MOL0     H44818   5.097   8.065   2.949 -0.3409 -1.4384 -0.0463
  325MOL0     H44819   5.175   7.939   3.049 -0.6527 -0.7356  0.2670
  325MOL0     H44820   5.230   8.129   3.214 -0.3277 -0.9006 -0.0841
  325MOL0     H44821   5.177   8.245   3.101 -0.2937 -0.3825 -0.2861
  325MOL0     H44822   5.413   8.042   3.060  0.5572  0.1873 -1.7480
  325MOL0     H44823   5.346   8.141   2.933 -1.3371  1.5206  0.4570
  325MOL0     H44824   5.456   8.279   3.185 -2.7724  2.5719  0.2910
  325MOL0     H44825   5.357   8.352   3.055 -1.7019 -1.9991 -0.9523
  325MOL0     H44826   5.534   8.302   2.888  0.8793 -1.9643  0.0995
  325MOL0     H44827   5.626   8.212   3.018 -2.8037 -2.2822  0.4424
  325MOL0     H44828   5.554   8.511   3.009  1.0337 -0.1993  0.3409
  325MOL0     H44829   5.703   8.451   2.954 -0.7305  2.8850 -0.6710
  325MOL0     H44830   4.642   7.867   3.161 -0.1603  0.7770  0.2026
  325MOL0     H44831   4.449   7.717   3.107  0.9765  3.2807  0.6488
  325MOL0     H44832   4.198   7.600   2.795  0.8804 -0.8456 -0.1864
  325MOL0     H44833   3.952   7.536   2.760  1.9770  0.6051 -0.2884
  325MOL0     H44834   2.392   6.466   3.130 -2.1188 -0.4690 -1.9622
  325MOL0     H44835   2.229   6.281   3.076  0.4490 -2.6755  1.0758
  325MOL0     H44836   1.900   6.073   3.078 -0.9674 -0.8516 -0.6584
  325MOL0     H44837   1.681   5.994   3.043 -0.0266  0.9638  0.5376
  325MOL0     H44838   1.364   5.802   3.095 -0.9903 -0.9002 -2.6904
  325MOL0     H44839   1.481   5.908   3.016  2.0676 -2.0359 -3.6559
  325MOL0     H44840   1.631   5.722   2.972  0.3152 -2.3971 -0.6903
  325MOL0     H44841   1.466   5.705   2.890  0.6359 -2.8377 -0.8550
  325MOL0     H44842   1.488   5.575   3.153  1.3332 -1.2603 -0.6249
  325MOL0     H44843   1.418   5.518   2.997 -0.7510  1.9379 -1.1178
  325MOL0     H44844   1.721   5.517   3.062 -0.1119  2.5014 -2.2869
  325MOL0     H44845   1.642   5.478   2.912  0.0322  3.3973  0.6478
  325MOL0     H44846   1.596   5.113   3.128 -1.5812  0.7814  1.5068
  325MOL0     H44847   1.708   5.751   3.395 -0.1709  0.4239 -0.1724
  325MOL0     H44848   1.993   5.918   3.536  1.8734  2.8159 -3.9974
  325MOL0     H44849   1.887   5.768   3.530 -0.3770 -0.5280 -1.6318
  325MOL0     H44850   2.027   5.793   3.425  1.1712 -0.6965  1.5297
  326MOL0     O44851   3.758   6.118   8.904  0.0277  0.2445 -0.4015
  326MOL0     C44852   3.840   6.182   8.838 -0.3431  0.1390  0.3450
  326MOL0     O44853   3.815   6.217   8.712 -1.1634  0.6087 -0.6431
  326MOL0     C44854   3.689   6.235   8.661  0.6377  0.3095 -0.8262
  326MOL0     C44855   3.574   6.256   8.734 -0.7954  0.0096 -0.2413
  326MOL0     C44856   3.455   6.296   8.671  0.3367 -0.6804 -0.8260
  326MOL0     C44857   3.448   6.300   8.528  0.0769 -0.3273  0.0619
  326MOL0     O44858   3.339   6.335   8.457  0.1053 -0.0540  1.1576
  326MOL0     C44859   3.224   6.392   8.506  0.2151 -0.0219 -0.3943
  326MOL0     C44860   3.247   6.539   8.524 -0.4514 -0.5196 -0.2609
  326MOL0     C44861   3.113   6.600   8.564  0.2334 -0.6010 -0.6782
  326MOL0     C44862   3.136   6.745   8.571 -1.0027 -0.8447  0.0661
  326MOL0     C44863   3.006   6.825   8.596  0.3045 -0.0415  0.1752
  326MOL0     C44864   3.042   6.973   8.612  0.3255  0.3485 -0.0021
  326MOL0     C44865   2.919   7.050   8.672 -0.2201 -0.2502  0.2279
  326MOL0     C44866   2.956   7.181   8.731 -0.2445  0.1127  0.2776
  326MOL0     N44867   3.014   7.275   8.627 -0.1727 -0.0991 -0.1878
  326MOL0     C44868   3.149   7.288   8.578  0.5336 -0.0702 -0.2338
  326MOL0     C44869   3.146   7.382   8.477 -0.8573 -0.3638 -0.2370
  326MOL0     C44870   3.260   7.436   8.406 -1.3457  0.1219 -0.8993
  326MOL0     C44871   3.220   7.560   8.322 -0.0941 -0.1179 -0.3575
  326MOL0     C44872   3.343   7.600   8.230 -0.0252 -0.2159  0.3268
  326MOL0     C44873   3.474   7.642   8.306  0.2099  0.0015 -0.0843
  326MOL0     O44874   3.566   7.668   8.202 -0.5349  0.1983 -0.0486
  326MOL0     C44875   3.630   7.790   8.202 -0.4904  0.4814  0.0941
  326MOL0     C44876   3.768   7.785   8.224 -0.2768 -0.2458 -0.1071
  326MOL0     C44877   3.838   7.910   8.232 -0.4816 -0.4697  0.6727
  326MOL0     C44878   3.995   7.895   8.239 -0.1280 -0.2725  0.4728
  326MOL0     C44879   3.765   8.033   8.241  0.5116 -0.1423 -0.5045
  326MOL0     C44880   3.824   8.171   8.257  1.0114 -0.5036 -0.1516
  326MOL0     O44881   3.958   8.187   8.236 -0.1320  0.2015 -0.9833
  326MOL0     C44882   4.013   8.314   8.259  0.4938  0.1379  0.0145
  326MOL0     C44883   4.050   8.403   8.153 -0.3206 -0.4074  0.4096
  326MOL0     C44884   4.118   8.523   8.190  0.6103 -0.1017  0.9555
  326MOL0     C44885   4.137   8.555   8.326  0.3710 -0.4752 -0.9290
  326MOL0     O44886   4.201   8.673   8.357 -0.2234 -0.0474 -0.1548
  326MOL0     C44887   4.197   8.726   8.491 -0.3696  0.4305  0.2369
  326MOL0     C44888   4.062   8.771   8.542  0.4932  0.7808  0.6054
  326MOL0     C44889   3.991   8.877   8.449 -0.0090  0.0480 -0.3526
  326MOL0     C44890   4.082   8.998   8.421 -0.0269 -0.7399 -0.3881
  326MOL0     C44891   4.001   9.113   8.351 -0.6194  1.0261  0.7341
  326MOL0     C44892   4.088   9.240   8.358  0.1358 -0.0197 -0.6961
  326MOL0     C44893   4.015   9.357   8.302  0.0717  0.0537  0.0759
  326MOL0     C44894   4.102   9.463   8.237 -0.4910 -0.1806  0.3427
  326MOL0    Cl44895   4.226   9.405   8.116 -0.2312  0.5624  0.2996
  326MOL0     C44896   4.085   8.475   8.425  0.3891  0.8979 -0.3433
  326MOL0     C44897   4.014   8.356   8.395 -0.5605  0.6187 -0.1154
  326MOL0     O44898   3.741   8.263   8.285 -0.3322 -0.2157  0.2702
  326MOL0     C44899   3.622   8.018   8.242 -0.1765 -0.3207 -0.4061
  326MOL0     C44900   3.556   7.903   8.211 -0.1787 -0.8431  0.2019
  326MOL0     N44901   3.009   7.428   8.478 -0.1036 -0.2367  0.7188
  326MOL0     N44902   2.941   7.366   8.565 -1.5316 -0.8271 -0.7321
  326MOL0     C44903   3.563   6.272   8.455 -0.4720 -0.8387 -0.5420
  326MOL0     C44904   3.683   6.243   8.520 -0.3100  0.2648 -0.2373
  326MOL0     C44905   3.972   6.210   8.899 -0.2514  0.7582 -1.0357
  326MOL0     C44906   4.006   6.138   9.017  0.4881 -0.5580 -0.2235
  326MOL0     C44907   4.105   6.174   9.101 -0.0142 -0.8883 -0.1989
  326MOL0     C44908   4.193   6.284   9.071 -0.2807  0.0381 -0.1579
  326MOL0     O44909   4.291   6.313   9.162 -0.1105  0.5659 -0.3497
  326MOL0     C44910   4.312   6.449   9.179  0.8061  0.0488  0.1079
  326MOL0     C44911   4.351   6.485   9.326  0.3192  0.9696 -0.0790
  326MOL0     C44912   4.376   6.637   9.344  0.0526  0.3341  0.7609
  326MOL0     C44913   4.415   6.665   9.495  0.1333  0.3006 -0.4502
  326MOL0     C44914   4.394   6.805   9.522  0.6500  1.0378  0.4814
  326MOL0     C44915   4.386   6.917   9.557 -0.0877 -0.7061 -0.4616
  326MOL0     C44916   4.159   6.357   8.951  0.0062  0.3442  0.2896
  326MOL0     C44917   4.053   6.323   8.872  0.1337 -0.4794 -0.6676
  326MOL0     C44918   4.021   6.418   8.757  0.4528 -0.0483 -0.1039
  326MOL0     H44919   3.572   6.254   8.843 -0.0372  3.2840 -0.0410
  326MOL0     H44920   3.372   6.324   8.735  2.9139 -0.2915  2.6571
  326MOL0     H44921   3.195   6.339   8.598  1.7372  0.5607  0.4624
  326MOL0     H44922   3.151   6.375   8.427 -2.0521  0.9865  1.3535
  326MOL0     H44923   3.320   6.545   8.605 -1.1972 -1.9601  0.5688
  326MOL0     H44924   3.277   6.596   8.436  1.1826 -0.2664  0.4178
  326MOL0     H44925   3.036   6.582   8.488 -0.4661 -0.0989 -0.1047
  326MOL0     H44926   3.081   6.560   8.661 -0.9595  0.9851 -0.3688
  326MOL0     H44927   3.204   6.760   8.656 -0.0912 -0.7832 -0.6496
  326MOL0     H44928   3.186   6.780   8.480 -0.3907 -1.4518  0.1587
  326MOL0     H44929   2.970   6.792   8.693 -1.6499  1.4674  0.0350
  326MOL0     H44930   2.927   6.815   8.521  0.6593  1.3304 -0.4281
  326MOL0     H44931   3.123   6.975   8.685  1.7239 -2.0020 -1.3716
  326MOL0     H44932   3.070   7.018   8.517  2.4427 -1.1673 -0.1637
  326MOL0     H44933   2.878   6.987   8.751 -3.5302  0.8672 -0.4409
  326MOL0     H44934   2.848   7.072   8.592  0.9233 -0.0903 -0.7732
  326MOL0     H44935   2.865   7.227   8.770 -0.7456  0.0481 -0.7768
  326MOL0     H44936   3.031   7.162   8.809 -0.8315 -0.7496  0.6559
  326MOL0     H44937   3.240   7.246   8.619  1.7957  1.7935 -0.9547
  326MOL0     H44938   3.305   7.352   8.351 -1.3530 -0.3976 -0.1286
  326MOL0     H44939   3.327   7.470   8.486 -2.5312 -1.3893  0.8238
  326MOL0     H44940   3.127   7.540   8.269 -1.5103  0.0488  1.9350
  326MOL0     H44941   3.200   7.652   8.378  1.0975 -0.3412  0.4821
  326MOL0     H44942   3.368   7.515   8.165 -3.8936  0.0028 -1.7279
  326MOL0     H44943   3.319   7.683   8.163  1.6272 -0.8296 -1.1195
  326MOL0     H44944   3.455   7.731   8.367  0.3955  2.0782 -2.8639
  326MOL0     H44945   3.515   7.563   8.368  0.0447  0.6394  0.8585
  326MOL0     H44946   3.820   7.690   8.233 -0.3532 -0.2351  0.4870
  326MOL0     H44947   4.025   7.890   8.133 -1.3902  2.4400 -0.0876
  326MOL0     H44948   4.004   7.804   8.300 -2.0438 -0.1052  1.0685
  326MOL0     H44949   4.043   7.984   8.281 -1.6970  1.5992 -1.4658
  326MOL0     H44950   4.036   8.378   8.049  1.2501  0.8482 -0.1525
  326MOL0     H44951   4.156   8.585   8.109  0.9180 -0.9410  0.4523
  326MOL0     H44952   4.247   8.651   8.553  1.5164  0.7645 -0.7977
  326MOL0     H44953   4.269   8.808   8.495  0.0901 -0.0135  2.1073
  326MOL0     H44954   3.998   8.685   8.562  2.8096 -1.4588 -0.9483
  326MOL0     H44955   4.084   8.805   8.644  1.6545  1.4046  0.1650
  326MOL0     H44956   3.898   8.913   8.493 -2.5826 -2.0955 -3.5124
  326MOL0     H44957   3.968   8.830   8.352  0.4793 -1.0466  0.0462
  326MOL0     H44958   4.173   8.972   8.367  0.0024  1.6642 -1.6530
  326MOL0     H44959   4.111   9.029   8.522 -1.5820 -0.6623  0.0692
  326MOL0     H44960   3.980   9.075   8.250 -1.2182 -0.1132  1.2796
  326MOL0     H44961   3.904   9.142   8.393 -1.4200  2.5709 -1.9190
  326MOL0     H44962   4.180   9.224   8.301  0.6220  0.0522  0.0584
  326MOL0     H44963   4.106   9.263   8.464  0.3489 -0.1941 -0.6954
  326MOL0     H44964   3.930   9.387   8.364 -1.4167 -0.2187 -1.7249
  326MOL0     H44965   3.950   9.326   8.219  1.3654 -0.1296 -0.9018
  326MOL0     H44966   4.140   9.535   8.310  1.9037  1.1580 -2.0165
  326MOL0     H44967   4.028   9.520   8.180  0.3978  0.2926 -0.3841
  326MOL0     H44968   4.095   8.485   8.532  3.1366 -1.2868 -0.2923
  326MOL0     H44969   3.966   8.293   8.469 -2.2961 -0.5576 -2.1244
  326MOL0     H44970   3.564   8.109   8.254  0.9329  0.6919 -2.1995
  326MOL0     H44971   3.450   7.905   8.188  0.1803  0.2962 -1.5131
  326MOL0     H44972   3.563   6.273   8.347  2.8657 -3.7770 -0.7696
  326MOL0     H44973   3.780   6.221   8.478 -1.0191 -2.0200 -0.8527
  326MOL0     H44974   3.955   6.047   9.048  4.0793 -3.3248 -1.7185
  326MOL0     H44975   4.131   6.115   9.189  1.8431  1.3212  0.8443
  326MOL0     H44976   4.385   6.487   9.107  1.9802 -1.7413  0.3023
  326MOL0     H44977   4.215   6.499   9.162  2.3074  2.2296 -3.0279
  326MOL0     H44978   4.444   6.430   9.342  2.0174  2.6720 -3.0306
  326MOL0     H44979   4.270   6.453   9.391  1.9468  1.2195  2.1944
  326MOL0     H44980   4.458   6.672   9.279 -2.1248  1.6648 -1.4879
  326MOL0     H44981   4.291   6.697   9.309 -0.3235 -0.4329  0.3342
  326MOL0     H44982   4.521   6.644   9.513  1.0512  1.8139 -3.3671
  326MOL0     H44983   4.362   6.601   9.566  0.2553  0.5739 -0.1123
  326MOL0     H44984   4.356   7.009   9.604  0.0442 -0.2605 -1.2360
  326MOL0     H44985   4.222   6.440   8.922  0.3949 -0.1386 -0.2697
  326MOL0     H44986   4.100   6.493   8.768  1.8749 -1.0900 -2.2512
  326MOL0     H44987   4.034   6.375   8.657 -1.3012  0.8721 -0.7502
  326MOL0     H44988   3.919   6.456   8.760 -0.2268 -1.4832 -2.3882
  327MOL0     O44989   6.916   0.936   5.115  0.0082 -0.3276 -0.1322
  327MOL0     C44990   6.830   0.941   5.028 -0.5283  0.7013  0.7265
  327MOL0     O44991   6.849   0.898   4.897  0.2561 -0.6452 -0.5646
  327MOL0     C44992   6.963   0.829   4.855  0.0657  0.8325 -0.9958
  327MOL0     C44993   7.097   0.851   4.902  0.6532 -0.2009 -0.1600
  327MOL0     C44994   7.203   0.768   4.859  0.2100  0.4819 -0.4828
  327MOL0     C44995   7.180   0.653   4.783 -0.2206 -0.0679  0.3402
  327MOL0     O44996   7.293   0.582   4.751 -0.3361 -0.4768 -0.4798
  327MOL0     C44997   7.285   0.453   4.685 -0.2048  0.1426  0.3697
  327MOL0     C44998   7.415   0.376   4.715  1.0202 -0.3198  0.2979
  327MOL0     C44999   7.459   0.278   4.602  0.4845 -0.6718  0.3825
  327MOL0     C45000   7.565   0.184   4.664  0.0362 -0.7771 -0.3425
  327MOL0     C45001   7.625   0.075   4.576 -0.7013 -0.2678 -0.0614
  327MOL0     C45002   7.720  -0.019   4.657 -0.0115 -0.0097 -0.2465
  327MOL0     C45003   7.855   0.038   4.691  0.7519 -0.5460 -0.4521
  327MOL0     C45004   7.938  -0.054   4.782  0.1238 -0.1205 -0.0101
  327MOL0     N45005   7.988  -0.165   4.711 -0.1658 -0.6514 -0.1991
  327MOL0     C45006   8.113  -0.180   4.647  0.2531 -0.1831 -0.4391
  327MOL0     C45007   8.110  -0.303   4.583 -0.3877  0.1512 -0.3410
  327MOL0     C45008   8.204  -0.375   4.501 -0.4968 -0.0876  0.4288
  327MOL0     C45009   8.230  -0.315   4.363  0.1406 -0.1495 -0.3388
  327MOL0     C45010   8.345  -0.387   4.304  0.0080 -0.4430  0.8693
  327MOL0     C45011   8.379  -0.341   4.162 -0.9414 -0.1243 -0.6127
  327MOL0     O45012   8.316  -0.410   4.058 -0.6910  0.3820  0.7762
  327MOL0     C45013   8.359  -0.401   3.925 -0.4802 -0.4771  0.3134
  327MOL0     C45014   8.428  -0.287   3.878  0.3051 -0.7889 -0.2050
  327MOL0     C45015   8.467  -0.264   3.748  0.1907  0.4012 -0.3052
  327MOL0     C45016   8.536  -0.135   3.715  0.5027 -0.3085  0.7071
  327MOL0     C45017   8.454  -0.375   3.658  0.8567 -0.5749 -0.3932
  327MOL0     C45018   8.506  -0.387   3.516  1.0432 -0.6880 -0.1161
  327MOL0     O45019   8.478  -0.494   3.445  0.2678  0.1114 -0.2178
  327MOL0     C45020   8.564  -0.533   3.339  0.4540  0.3396  0.3247
  327MOL0     C45021   8.523  -0.630   3.246  0.6013 -0.2504 -0.3537
  327MOL0     C45022   8.611  -0.682   3.149 -0.1393 -0.1665  0.0951
  327MOL0     C45023   8.744  -0.636   3.137 -0.1228  0.9182 -0.6166
  327MOL0     O45024   8.835  -0.696   3.052 -0.8655 -0.2039 -0.7396
  327MOL0     C45025   8.801  -0.731   2.916  0.3240 -0.4624 -0.0140
  327MOL0     C45026   8.923  -0.740   2.819 -0.0578 -0.3966  0.2984
  327MOL0     C45027   9.043  -0.833   2.868  0.0612  0.0722 -0.3065
  327MOL0     C45028   9.008  -0.991   2.885 -0.0403 -0.2801 -0.5080
  327MOL0     C45029   9.136  -1.082   2.911  0.2035 -0.9440  0.6803
  327MOL0     C45030   9.095  -1.233   2.903 -0.0286 -0.1094 -0.0759
  327MOL0     C45031   9.223  -1.322   2.884 -0.7233  0.4847 -0.4986
  327MOL0     C45032   9.207  -1.445   2.796  0.3780 -0.1489  0.0790
  327MOL0    Cl45033   9.350  -1.545   2.823 -0.1950  0.0680  0.0429
  327MOL0     C45034   8.782  -0.540   3.229  0.9004 -0.9352 -0.1145
  327MOL0     C45035   8.695  -0.494   3.321  0.0618 -0.7080 -0.1910
  327MOL0     O45036   8.557  -0.287   3.464  0.0546 -0.9073 -0.0841
  327MOL0     C45037   8.377  -0.489   3.707 -0.1521 -0.0140 -0.3028
  327MOL0     C45038   8.337  -0.504   3.839  0.6060 -0.2051  0.6932
  327MOL0     N45039   7.985  -0.358   4.619  0.8565 -0.0568  0.2176
  327MOL0     N45040   7.916  -0.273   4.686  0.7546 -0.0591 -0.2463
  327MOL0     C45041   7.052   0.629   4.741 -0.0621 -0.6061  1.0448
  327MOL0     C45042   6.949   0.725   4.758 -0.2228  1.0812 -0.0471
  327MOL0     C45043   6.690   0.954   5.067  0.2358  0.2097  0.3837
  327MOL0     C45044   6.597   0.878   4.999 -0.6853  0.5704  0.9297
  327MOL0     C45045   6.456   0.887   5.021  0.1949 -0.5004  0.2470
  327MOL0     C45046   6.408   0.977   5.113  0.7904  0.1887  0.0035
  327MOL0     O45047   6.279   1.005   5.139 -0.0689 -0.6787 -0.0451
  327MOL0     C45048   6.172   0.940   5.065 -0.1720  0.5825 -0.1470
  327MOL0     C45049   6.037   0.994   5.085  0.9489  0.2863  0.0362
  327MOL0     C45050   5.974   0.931   5.210  0.4059 -0.3713  0.1806
  327MOL0     C45051   5.830   0.992   5.227 -0.3775 -0.2084 -0.9608
  327MOL0     C45052   5.750   0.923   5.327  0.2035  0.0413 -0.5345
  327MOL0     C45053   5.679   0.873   5.412  0.4909  0.7035  0.2917
  327MOL0     C45054   6.500   1.058   5.173  0.3006 -0.2857 -0.1326
  327MOL0     C45055   6.632   1.054   5.149 -0.7749  0.0236  0.0261
  327MOL0     C45056   6.719   1.142   5.232  0.1026 -0.0419 -0.2526
  327MOL0     H45057   7.121   0.940   4.958  0.9899  1.0411 -2.1882
  327MOL0     H45058   7.302   0.793   4.895  0.9211  1.8605 -3.1348
  327MOL0     H45059   7.265   0.467   4.578  0.2544 -1.4144  0.0572
  327MOL0     H45060   7.201   0.392   4.719  1.1662 -1.9218  0.2294
  327MOL0     H45061   7.500   0.444   4.728  1.2320 -0.4693 -0.2681
  327MOL0     H45062   7.391   0.324   4.808  0.4300  2.9187  2.1255
  327MOL0     H45063   7.376   0.226   4.554  1.4654 -1.2536 -0.7440
  327MOL0     H45064   7.503   0.337   4.521 -0.1823  0.2521  0.6733
  327MOL0     H45065   7.644   0.246   4.709 -1.0530  1.9762 -1.9405
  327MOL0     H45066   7.518   0.130   4.747  0.5966 -0.0877  0.4435
  327MOL0     H45067   7.679   0.111   4.488 -3.0489 -2.3205 -2.5281
  327MOL0     H45068   7.537   0.021   4.540  1.5144 -2.6500 -2.3578
  327MOL0     H45069   7.680  -0.053   4.753  2.3640  1.6314  1.4580
  327MOL0     H45070   7.730  -0.107   4.593  2.1960  0.4533 -0.6195
  327MOL0     H45071   7.848   0.132   4.746 -1.9254 -1.6893  1.3665
  327MOL0     H45072   7.907   0.064   4.599  1.8176  1.3911  0.6318
  327MOL0     H45073   8.023   0.009   4.809  1.0541 -1.2922 -0.1303
  327MOL0     H45074   7.890  -0.103   4.867  0.9996  0.0533  0.5942
  327MOL0     H45075   8.188  -0.101   4.652 -2.5928  2.7158 -0.7506
  327MOL0     H45076   8.184  -0.482   4.492 -0.5594 -0.1399  1.0996
  327MOL0     H45077   8.298  -0.377   4.558 -0.8907 -1.2928  1.0525
  327MOL0     H45078   8.138  -0.305   4.305 -0.3295 -2.5601 -0.1016
  327MOL0     H45079   8.264  -0.211   4.374  1.8086 -0.8521  1.9523
  327MOL0     H45080   8.429  -0.360   4.369  1.8066 -1.7102 -0.7951
  327MOL0     H45081   8.337  -0.496   4.303 -0.5043 -0.4286  2.2006
  327MOL0     H45082   8.360  -0.233   4.160 -0.5680 -0.0609 -1.2371
  327MOL0     H45083   8.488  -0.353   4.160 -0.9648 -0.4380 -0.0973
  327MOL0     H45084   8.447  -0.219   3.961 -0.8455 -2.3237  1.3717
  327MOL0     H45085   8.641  -0.162   3.701  0.4052  0.1346 -1.0754
  327MOL0     H45086   8.526  -0.074   3.805  1.8445 -2.6247  2.5441
  327MOL0     H45087   8.515  -0.081   3.622  5.8062  0.7738 -0.1578
  327MOL0     H45088   8.426  -0.678   3.254  0.8240 -0.6952 -0.2962
  327MOL0     H45089   8.571  -0.749   3.074 -1.5940  1.1675 -0.3754
  327MOL0     H45090   8.754  -0.829   2.922 -0.6361  0.0132  0.5161
  327MOL0     H45091   8.729  -0.656   2.880  0.3896 -0.7624 -0.7874
  327MOL0     H45092   8.886  -0.779   2.724  0.6755  2.4370 -1.2514
  327MOL0     H45093   8.971  -0.643   2.802  0.1320 -0.8188 -1.8235
  327MOL0     H45094   9.074  -0.785   2.962  0.6361 -2.1298  0.6981
  327MOL0     H45095   9.128  -0.830   2.799 -0.6281 -1.3215 -1.2612
  327MOL0     H45096   8.953  -1.032   2.800  0.3353 -2.6049  0.2935
  327MOL0     H45097   8.931  -1.001   2.963  0.8035  1.6665  0.6620
  327MOL0     H45098   9.218  -1.065   2.841 -1.2419 -1.5922 -1.2396
  327MOL0     H45099   9.176  -1.052   3.008 -2.7726  5.2884  0.4564
  327MOL0     H45100   9.033  -1.232   2.813 -0.4930  1.6720  0.2369
  327MOL0     H45101   9.037  -1.279   2.983 -0.8428  0.6686 -0.2033
  327MOL0     H45102   9.269  -1.351   2.979  1.5618  2.3277 -0.9574
  327MOL0     H45103   9.305  -1.261   2.846  2.4487 -3.0559  0.0358
  327MOL0     H45104   9.193  -1.419   2.691  2.7362 -1.5489 -0.6436
  327MOL0     H45105   9.115  -1.496   2.827  0.2625  0.9181  1.6182
  327MOL0     H45106   8.884  -0.507   3.245  0.3731  0.0862  1.3800
  327MOL0     H45107   8.734  -0.420   3.389  1.9203 -2.1995  0.4421
  327MOL0     H45108   8.365  -0.577   3.645  0.9608 -2.5355  2.7856
  327MOL0     H45109   8.288  -0.593   3.878  2.5625 -0.9079  1.6505
  327MOL0     H45110   7.032   0.543   4.677 -1.2949  1.3792 -1.4426
  327MOL0     H45111   6.846   0.717   4.723 -0.0264  0.5051 -0.5035
  327MOL0     H45112   6.627   0.799   4.930 -0.5847 -0.5737  2.2354
  327MOL0     H45113   6.394   0.811   4.975 -1.4089  0.6627  0.4251
  327MOL0     H45114   6.196   0.952   4.959  2.4663  0.2574  0.3667
  327MOL0     H45115   6.177   0.833   5.088 -0.1850  0.3211 -1.2660
  327MOL0     H45116   5.980   0.976   4.993 -2.2275  2.8303  1.3097
  327MOL0     H45117   6.049   1.100   5.112 -0.2509 -0.4467  4.1346
  327MOL0     H45118   5.962   0.823   5.203 -0.9940 -0.2483  0.3398
  327MOL0     H45119   6.034   0.957   5.298  0.4105 -0.9086  0.3402
  327MOL0     H45120   5.776   0.985   5.132 -3.1709 -2.3021  0.6556
  327MOL0     H45121   5.833   1.097   5.257  0.9864 -0.1246 -1.2858
  327MOL0     H45122   5.610   0.814   5.470  0.1639  1.3607  0.5781
  327MOL0     H45123   6.463   1.130   5.245  0.7279  1.2380 -1.3759
  327MOL0     H45124   6.650   1.219   5.268 -1.8590 -1.9622  0.3158
  327MOL0     H45125   6.771   1.083   5.307  2.4284  2.2610  0.1037
  327MOL0     H45126   6.794   1.194   5.172  0.3756  0.5865  0.6099
  328MOL0     O45127   6.630   4.848   5.607 -0.4477  0.1537 -0.0456
  328MOL0     C45128   6.616   4.886   5.492 -0.3551  0.5443  1.3652
  328MOL0     O45129   6.707   4.966   5.428 -0.6609  0.3901 -1.0617
  328MOL0     C45130   6.813   5.012   5.508  0.9336 -0.0954  0.2933
  328MOL0     C45131   6.777   5.101   5.606  0.3918  0.1436 -0.6547
  328MOL0     C45132   6.880   5.160   5.680 -0.1134  0.3220  0.0822
  328MOL0     C45133   7.014   5.132   5.652  0.5085 -0.9529 -0.2411
  328MOL0     O45134   7.122   5.198   5.702  0.2962 -0.0535 -0.6908
  328MOL0     C45135   7.130   5.205   5.848 -0.1612  0.5464 -0.4814
  328MOL0     C45136   7.277   5.241   5.887 -0.2417  0.8908 -0.4076
  328MOL0     C45137   7.300   5.210   6.032  0.9530  0.6571  0.0772
  328MOL0     C45138   7.438   5.244   6.084  0.3449 -0.5258  0.5942
  328MOL0     C45139   7.455   5.194   6.225 -0.3190  0.6059 -0.3445
  328MOL0     C45140   7.571   5.257   6.295 -0.5314 -0.6221 -0.1199
  328MOL0     C45141   7.602   5.195   6.433 -0.5805  0.2734 -1.1946
  328MOL0     C45142   7.707   5.274   6.511  0.2925 -0.3921 -0.1178
  328MOL0     N45143   7.751   5.206   6.634  0.3757 -0.2918  0.1314
  328MOL0     C45144   7.852   5.124   6.627 -0.3129  0.2804  0.1221
  328MOL0     C45145   7.878   5.103   6.761  0.5265 -0.9174  0.0947
  328MOL0     C45146   7.990   5.035   6.821 -0.8762 -0.9878  0.3324
  328MOL0     C45147   8.093   5.137   6.880 -0.5258 -0.5047 -0.7051
  328MOL0     C45148   8.215   5.055   6.922  0.0110  0.0305 -0.3103
  328MOL0     C45149   8.290   5.121   7.033  0.7767  0.4404 -0.2486
  328MOL0     O45150   8.368   5.236   6.986 -0.1432 -0.4183  0.7071
  328MOL0     C45151   8.501   5.220   6.965  0.2776 -1.5116 -0.2774
  328MOL0     C45152   8.569   5.338   6.937  0.1880  0.1826  0.0853
  328MOL0     C45153   8.710   5.331   6.905 -0.3898  0.4206  0.0791
  328MOL0     C45154   8.774   5.463   6.875 -0.8329  0.5875  0.4088
  328MOL0     C45155   8.784   5.215   6.940  0.0197 -0.2935  0.5584
  328MOL0     C45156   8.929   5.192   6.906 -0.6257 -1.0816  0.7495
  328MOL0     O45157   8.986   5.077   6.951  0.1189  0.3360  0.3985
  328MOL0     C45158   9.123   5.064   6.948  0.4815  0.0079 -0.1671
  328MOL0     C45159   9.211   5.164   6.991  0.8089 -0.3731  0.1020
  328MOL0     C45160   9.341   5.144   6.972  0.2968  0.9540  0.2560
  328MOL0     C45161   9.394   5.031   6.916 -0.5366  0.1132 -0.1209
  328MOL0     O45162   9.530   5.004   6.892  0.1184 -0.7986 -0.1885
  328MOL0     C45163   9.630   5.084   6.943  0.2522 -0.8396 -0.3801
  328MOL0     C45164   9.769   5.036   6.903 -0.6936  0.6753  0.0047
  328MOL0     C45165   9.806   4.910   6.991 -0.6269  0.9335 -0.4619
  328MOL0     C45166   9.927   4.836   6.937 -1.2518  0.7204  0.0444
  328MOL0     C45167   9.933   4.698   7.008  0.3423 -0.8123  0.1370
  328MOL0     C45168  10.063   4.627   6.985 -0.2706  0.6342 -0.0140
  328MOL0     C45169  10.078   4.507   7.085 -0.5342 -0.0911 -0.0179
  328MOL0     C45170  10.066   4.376   7.014  0.6019  1.1414 -0.1974
  328MOL0    Cl45171  10.029   4.231   7.132  0.7390  0.0514 -0.0838
  328MOL0     C45172   9.308   4.923   6.881  0.9349  0.2815 -0.8556
  328MOL0     C45173   9.173   4.944   6.897  0.5651  0.4383 -0.2588
  328MOL0     O45174   8.987   5.273   6.828  0.4307  0.1398  0.2350
  328MOL0     C45175   8.709   5.107   6.985 -0.4718  0.0962  0.4670
  328MOL0     C45176   8.571   5.108   6.999 -0.8103  0.3135  0.7321
  328MOL0     N45177   7.799   5.183   6.837  0.2633 -0.2857  0.1381
  328MOL0     N45178   7.723   5.250   6.757 -0.6041 -0.4640 -0.0431
  328MOL0     C45179   7.046   5.029   5.568  0.9228  0.2387 -0.2612
  328MOL0     C45180   6.940   4.967   5.490  0.0343  0.1631 -0.4595
  328MOL0     C45181   6.504   4.851   5.405 -0.4901  0.4637 -0.2715
  328MOL0     C45182   6.451   4.953   5.325  0.5327 -0.0585  0.0184
  328MOL0     C45183   6.345   4.921   5.240 -0.1718  1.1112  0.0867
  328MOL0     C45184   6.294   4.789   5.231 -0.3743 -0.0390  0.7198
  328MOL0     O45185   6.193   4.756   5.145  0.4453 -0.4188  0.8140
  328MOL0     C45186   6.134   4.847   5.048  0.5602  0.1072 -0.0773
  328MOL0     C45187   5.999   4.910   5.089  0.6155 -0.1418  0.1110
  328MOL0     C45188   6.012   5.023   5.191 -0.4893  0.1516 -0.6144
  328MOL0     C45189   5.868   5.082   5.219 -0.4319  0.2059 -0.5861
  328MOL0     C45190   5.881   5.217   5.272  0.3247  0.2570 -0.7128
  328MOL0     C45191   5.892   5.333   5.305  0.9777  0.0085 -0.1835
  328MOL0     C45192   6.351   4.688   5.310 -0.3403 -0.1736  0.7319
  328MOL0     C45193   6.457   4.716   5.396 -0.3733  0.1026  0.0793
  328MOL0     C45194   6.504   4.601   5.479 -0.6816 -0.9030 -0.2157
  328MOL0     H45195   6.673   5.130   5.621  1.0854  2.1003  0.8992
  328MOL0     H45196   6.860   5.242   5.748 -1.7088 -1.0782  1.3771
  328MOL0     H45197   7.089   5.112   5.888 -1.8693  1.7643  0.7529
  328MOL0     H45198   7.060   5.270   5.902 -1.9193 -1.7755  0.1969
  328MOL0     H45199   7.349   5.186   5.825  2.5498  1.0661  2.4457
  328MOL0     H45200   7.283   5.349   5.874 -0.0631  1.4408  3.2369
  328MOL0     H45201   7.221   5.250   6.095  0.8341  1.9665 -0.8516
  328MOL0     H45202   7.302   5.101   6.021  1.3208  0.8787 -2.6413
  328MOL0     H45203   7.512   5.204   6.013 -1.8811 -2.0713 -1.0008
  328MOL0     H45204   7.459   5.350   6.070 -0.3293 -0.6801 -2.2453
  328MOL0     H45205   7.491   5.091   6.210 -0.8644  0.7599 -3.2564
  328MOL0     H45206   7.367   5.198   6.290  0.9130  0.7359  1.3807
  328MOL0     H45207   7.651   5.230   6.226 -1.2020 -2.2375 -0.3188
  328MOL0     H45208   7.561   5.366   6.306  0.4028 -0.7081  2.1163
  328MOL0     H45209   7.657   5.101   6.426  1.8766  1.4154  0.9207
  328MOL0     H45210   7.516   5.192   6.502  0.6685  0.6306  0.4491
  328MOL0     H45211   7.792   5.306   6.448 -1.6327  3.4213 -1.1034
  328MOL0     H45212   7.656   5.364   6.546 -0.4060 -1.3711  1.4529
  328MOL0     H45213   7.904   5.073   6.548 -1.2776  0.0145 -0.3561
  328MOL0     H45214   8.042   4.973   6.747  2.8375  1.2379  0.8002
  328MOL0     H45215   7.955   4.973   6.904  2.5617 -3.0454  0.4230
  328MOL0     H45216   8.114   5.216   6.807  1.2085 -1.2600 -1.0703
  328MOL0     H45217   8.046   5.185   6.966  0.1164  1.0985 -1.2060
  328MOL0     H45218   8.181   4.955   6.951 -1.5035  0.0242 -1.9209
  328MOL0     H45219   8.282   5.024   6.841  1.7511 -0.4554  1.2324
  328MOL0     H45220   8.228   5.162   7.113 -0.0407 -0.0022 -0.6362
  328MOL0     H45221   8.346   5.045   7.089 -1.7406 -1.2275  0.1851
  328MOL0     H45222   8.515   5.431   6.932  0.3453  0.2232 -3.6467
  328MOL0     H45223   8.718   5.556   6.890 -3.4627 -1.0037  0.9989
  328MOL0     H45224   8.791   5.471   6.767  3.0110  0.9591  0.8955
  328MOL0     H45225   8.870   5.472   6.927 -0.3681 -3.3469  0.5575
  328MOL0     H45226   9.163   5.249   7.039  0.5020 -1.7035  2.2738
  328MOL0     H45227   9.407   5.226   7.000  0.4593  1.0168 -0.3073
  328MOL0     H45228   9.625   5.184   6.899  1.7224  0.2436  1.7030
  328MOL0     H45229   9.622   5.087   7.052  2.3070 -3.0357 -0.0694
  328MOL0     H45230   9.772   4.992   6.803  1.6716 -0.3079  0.4304
  328MOL0     H45231   9.850   5.108   6.918  0.7387 -0.7845 -0.3576
  328MOL0     H45232   9.722   4.842   7.004 -0.1367  0.6381  1.6833
  328MOL0     H45233   9.830   4.934   7.095  0.0122 -1.6474  0.0812
  328MOL0     H45234  10.010   4.904   6.956  0.0901 -0.8238 -0.1116
  328MOL0     H45235   9.913   4.821   6.829 -2.7237 -0.4290  0.3628
  328MOL0     H45236   9.919   4.711   7.115  0.4066  0.8259 -0.0234
  328MOL0     H45237   9.855   4.628   6.977 -0.0839  0.4962 -1.9551
  328MOL0     H45238  10.152   4.690   6.999  1.8158 -2.2829  0.6912
  328MOL0     H45239  10.063   4.604   6.878  1.9928  2.0455 -0.3907
  328MOL0     H45240  10.004   4.503   7.166  0.1547 -3.0152  0.6024
  328MOL0     H45241  10.177   4.509   7.132 -0.0420  0.7431 -1.0585
  328MOL0     H45242  10.156   4.341   6.961  0.6830  0.3379  0.4536
  328MOL0     H45243   9.988   4.375   6.937  1.9143 -1.2460 -1.6290
  328MOL0     H45244   9.344   4.828   6.842  0.7127  0.4570 -1.5050
  328MOL0     H45245   9.111   4.860   6.869 -0.6165 -0.0799  3.3558
  328MOL0     H45246   8.760   5.013   7.006 -1.1610 -0.3812  0.0405
  328MOL0     H45247   8.522   5.018   7.034  2.1326 -1.1155  1.4689
  328MOL0     H45248   7.150   5.003   5.551  1.1393  1.3906 -0.8534
  328MOL0     H45249   6.968   4.894   5.415 -0.3210  0.2909 -0.7240
  328MOL0     H45250   6.482   5.056   5.311 -1.2536  0.3383 -1.4716
  328MOL0     H45251   6.291   4.997   5.185 -0.2193 -0.3510 -1.9532
  328MOL0     H45252   6.203   4.929   5.027 -0.4932  0.7795 -1.0474
  328MOL0     H45253   6.112   4.793   4.956 -0.5524 -0.8443  0.7165
  328MOL0     H45254   5.931   4.833   5.128 -1.6577  1.4762 -0.5185
  328MOL0     H45255   5.940   4.943   5.004 -2.1441  2.1455  2.6852
  328MOL0     H45256   6.055   4.974   5.278 -0.6149  0.3174 -0.4594
  328MOL0     H45257   6.087   5.096   5.157  1.5467 -2.0318 -1.1276
  328MOL0     H45258   5.817   5.016   5.289 -0.9282  0.6119 -0.5569
  328MOL0     H45259   5.804   5.075   5.130 -0.2677 -3.9210 -0.5764
  328MOL0     H45260   5.909   5.435   5.333  2.9784  0.2548 -2.0863
  328MOL0     H45261   6.316   4.585   5.306 -0.0962 -0.3627  2.6695
  328MOL0     H45262   6.502   4.624   5.586 -1.5417 -0.2850 -0.3543
  328MOL0     H45263   6.442   4.513   5.463  0.8137 -2.0979  0.3773
  328MOL0     H45264   6.609   4.585   5.452 -1.2490 -1.3711 -2.3390
  329MOL0     O45265   6.158   5.604   5.363 -0.7477 -0.2950 -0.2764
  329MOL0     C45266   6.085   5.678   5.296  0.1522  0.3151 -0.4776
  329MOL0     O45267   6.117   5.741   5.178  0.0769  0.5108  0.7189
  329MOL0     C45268   6.249   5.744   5.130  0.6453  0.5288 -0.0027
  329MOL0     C45269   6.261   5.718   4.991 -1.0192  1.0040 -0.3468
  329MOL0     C45270   6.391   5.706   4.938  0.5088  0.0760 -0.3531
  329MOL0     C45271   6.509   5.731   5.023  0.1469 -0.4121  0.3369
  329MOL0     O45272   6.633   5.721   4.968  0.2250 -0.4360  0.4559
  329MOL0     C45273   6.753   5.779   5.019 -0.2128 -0.3288  0.4274
  329MOL0     C45274   6.871   5.756   4.927  0.4912  0.3187  0.0837
  329MOL0     C45275   6.998   5.768   5.004 -0.2948  0.5290  0.0821
  329MOL0     C45276   7.120   5.802   4.915 -0.7549  0.1367  0.3655
  329MOL0     C45277   7.187   5.673   4.865 -0.2675  0.0710  0.2863
  329MOL0     C45278   7.327   5.708   4.808  0.2849  0.1049 -0.8096
  329MOL0     C45279   7.400   5.587   4.753 -0.7926  0.4667 -0.2191
  329MOL0     C45280   7.396   5.582   4.604 -0.6711  0.1774 -0.3654
  329MOL0     N45281   7.452   5.703   4.541 -0.2109 -0.7787 -0.1757
  329MOL0     C45282   7.583   5.716   4.519 -0.3595  0.9339 -1.1526
  329MOL0     C45283   7.597   5.818   4.425 -0.3265  0.6405  0.3295
  329MOL0     C45284   7.719   5.863   4.349  0.0640 -0.2396 -0.1526
  329MOL0     C45285   7.805   5.745   4.282  0.4763 -0.6391 -0.5434
  329MOL0     C45286   7.733   5.693   4.161  0.2579  0.0244 -0.3418
  329MOL0     C45287   7.800   5.573   4.092  1.0830 -0.8090  0.0582
  329MOL0     O45288   7.783   5.586   3.950 -0.8801 -0.0049  0.4510
  329MOL0     C45289   7.890   5.536   3.879  0.3207 -0.3943  0.9476
  329MOL0     C45290   7.991   5.443   3.928 -0.1461  0.6656 -0.6581
  329MOL0     C45291   8.088   5.393   3.839 -0.5150  0.2777  0.2636
  329MOL0     C45292   8.199   5.308   3.906 -0.8489 -0.4659 -0.5036
  329MOL0     C45293   8.088   5.422   3.704  0.5429  0.9124 -0.3113
  329MOL0     C45294   8.203   5.395   3.614 -0.8819  0.0329  0.2300
  329MOL0     O45295   8.213   5.469   3.514  0.0476 -0.6132 -0.3441
  329MOL0     C45296   8.308   5.438   3.426  0.5181  0.2130 -0.3422
  329MOL0     C45297   8.433   5.469   3.453 -0.4790 -0.2975  0.2698
  329MOL0     C45298   8.530   5.421   3.368  0.0404 -0.3117  0.5519
  329MOL0     C45299   8.505   5.350   3.245 -0.1936  0.1785 -0.5448
  329MOL0     O45300   8.622   5.336   3.163  0.5234  0.3475  0.4225
  329MOL0     C45301   8.604   5.281   3.023  0.1873  0.3102 -0.8647
  329MOL0     C45302   8.652   5.141   2.990 -0.3596  0.9329 -0.1433
  329MOL0     C45303   8.572   5.041   3.067 -0.1516 -0.9530 -1.0534
  329MOL0     C45304   8.630   4.901   3.067 -0.0540  0.0188 -0.2036
  329MOL0     C45305   8.541   4.805   3.145 -0.2097  0.3521 -0.2120
  329MOL0     C45306   8.585   4.659   3.117  0.2472 -0.5880 -0.6897
  329MOL0     C45307   8.516   4.562   3.215 -0.6594 -0.2848 -0.2424
  329MOL0     C45308   8.559   4.412   3.210 -0.1183 -0.1989  0.2326
  329MOL0    Cl45309   8.532   4.343   3.047 -0.0225 -0.3308  0.2487
  329MOL0     C45310   8.370   5.318   3.217  0.8287 -0.0486  0.6601
  329MOL0     C45311   8.275   5.359   3.314 -0.5322  0.2726  0.7019
  329MOL0     O45312   8.272   5.295   3.638 -0.0805  0.2605  0.0828
  329MOL0     C45313   7.986   5.507   3.662 -0.5377 -0.0722 -0.1523
  329MOL0     C45314   7.891   5.565   3.745 -0.9518  0.6369  0.2778
  329MOL0     N45315   7.472   5.857   4.398  0.6400 -0.5313 -0.8248
  329MOL0     N45316   7.380   5.787   4.463  0.2793 -0.2136  0.0789
  329MOL0     C45317   6.490   5.760   5.160 -0.7458 -0.1119 -0.1144
  329MOL0     C45318   6.358   5.776   5.216  0.0739  0.6054 -0.0983
  329MOL0     C45319   5.948   5.686   5.354 -0.4514  1.1081 -1.0211
  329MOL0     C45320   5.932   5.687   5.497  0.7134  0.2329 -0.4252
  329MOL0     C45321   5.809   5.719   5.550  0.7304  0.5918 -0.0969
  329MOL0     C45322   5.692   5.722   5.467 -0.6532 -0.0641  0.5137
  329MOL0     O45323   5.561   5.727   5.511  0.0244 -0.0981  0.6181
  329MOL0     C45324   5.542   5.683   5.642  0.5730 -0.1804 -0.2052
  329MOL0     C45325   5.548   5.530   5.651  0.5628 -0.4954  1.0906
  329MOL0     C45326   5.471   5.453   5.545 -0.8971 -0.3275 -0.7604
  329MOL0     C45327   5.513   5.300   5.544 -0.9696  0.3727  0.0206
  329MOL0     C45328   5.534   5.232   5.673  0.0612 -0.2659 -0.9575
  329MOL0     C45329   5.564   5.184   5.781 -0.6435 -0.2129 -0.6013
  329MOL0     C45330   5.703   5.710   5.330 -0.0484 -0.5346  0.1925
  329MOL0     C45331   5.828   5.693   5.271  0.6220  0.1596 -1.2305
  329MOL0     C45332   5.828   5.651   5.122 -0.1094 -0.2965  0.2390
  329MOL0     H45333   6.168   5.708   4.937  0.1081 -1.7405 -1.9546
  329MOL0     H45334   6.411   5.671   4.837  1.2739 -3.8984  1.0141
  329MOL0     H45335   6.774   5.742   5.119  1.0888  0.3404  0.4234
  329MOL0     H45336   6.747   5.889   5.021  2.2462  0.0060 -2.5386
  329MOL0     H45337   6.868   5.651   4.897 -3.7203  0.0988  0.7536
  329MOL0     H45338   6.862   5.832   4.850  0.1337  0.4931  0.2960
  329MOL0     H45339   6.971   5.847   5.075 -0.5336  0.3877  0.1479
  329MOL0     H45340   7.020   5.682   5.067 -3.0748 -0.4981 -0.2232
  329MOL0     H45341   7.095   5.865   4.830 -2.8946  1.7167  2.0654
  329MOL0     H45342   7.187   5.858   4.980  2.3861 -1.6400 -1.0934
  329MOL0     H45343   7.127   5.624   4.788  0.9809 -2.5884  0.8978
  329MOL0     H45344   7.185   5.600   4.946 -0.1471 -0.0696  0.1619
  329MOL0     H45345   7.322   5.788   4.734  3.5205 -0.0343 -1.3182
  329MOL0     H45346   7.381   5.763   4.886  3.2354 -0.8588 -2.0411
  329MOL0     H45347   7.352   5.495   4.789 -3.1628  1.7461  0.1025
  329MOL0     H45348   7.504   5.581   4.785 -0.5170  0.1487 -1.1393
  329MOL0     H45349   7.451   5.495   4.569  1.8383  0.7055  1.9438
  329MOL0     H45350   7.292   5.573   4.571 -0.0370 -1.0706 -2.1596
  329MOL0     H45351   7.661   5.651   4.559  0.2839  1.7305 -1.0725
  329MOL0     H45352   7.785   5.907   4.424  1.2665  0.4397 -1.5552
  329MOL0     H45353   7.696   5.949   4.285 -3.7784 -0.1388  1.1399
  329MOL0     H45354   7.901   5.784   4.246 -0.5677 -1.5172 -4.7082
  329MOL0     H45355   7.815   5.666   4.358 -0.9739  1.1275  1.5975
  329MOL0     H45356   7.634   5.661   4.194  0.3250 -2.7218 -2.4440
  329MOL0     H45357   7.736   5.777   4.092 -0.4352  0.9926  0.7713
  329MOL0     H45358   7.907   5.588   4.108  1.5271 -0.5460 -2.6730
  329MOL0     H45359   7.751   5.481   4.127  1.0956 -0.8233  0.0365
  329MOL0     H45360   7.977   5.403   4.028  1.8501  1.0287 -0.2021
  329MOL0     H45361   8.292   5.354   3.872 -2.0133  0.9640 -1.9599
  329MOL0     H45362   8.181   5.204   3.878 -1.8251  0.0940 -2.1213
  329MOL0     H45363   8.196   5.308   4.015 -0.7491 -3.5569 -0.4159
  329MOL0     H45364   8.465   5.511   3.548 -0.4606 -0.6173  0.4039
  329MOL0     H45365   8.631   5.449   3.398  0.0154 -2.4159  2.9632
  329MOL0     H45366   8.500   5.287   2.987  0.5889  1.0336 -1.9760
  329MOL0     H45367   8.675   5.341   2.964  2.2822 -1.5176 -0.2943
  329MOL0     H45368   8.646   5.121   2.883 -1.8670 -3.2410  0.5553
  329MOL0     H45369   8.761   5.142   3.000 -0.1344 -0.2595 -2.0216
  329MOL0     H45370   8.469   5.042   3.029 -2.1479  1.5471  3.6234
  329MOL0     H45371   8.556   5.083   3.167  0.2669  0.1707 -1.4400
  329MOL0     H45372   8.729   4.898   3.113 -0.7142 -0.0862  1.2708
  329MOL0     H45373   8.649   4.869   2.964 -1.1595  1.0222 -0.7396
  329MOL0     H45374   8.548   4.846   3.246  1.1339  0.1830 -0.2204
  329MOL0     H45375   8.439   4.827   3.112 -0.1446  0.4245 -0.3699
  329MOL0     H45376   8.693   4.660   3.134  0.5647 -0.6656 -2.4855
  329MOL0     H45377   8.571   4.629   3.013  0.1668 -1.6547 -0.3876
  329MOL0     H45378   8.407   4.558   3.210 -0.6025 -2.0385 -0.8841
  329MOL0     H45379   8.540   4.607   3.312  0.9333 -2.3745  0.4246
  329MOL0     H45380   8.504   4.359   3.288  0.5297  1.7617  2.1671
  329MOL0     H45381   8.667   4.405   3.228  0.0512 -0.4688 -0.8351
  329MOL0     H45382   8.341   5.268   3.126  2.2068 -0.2958  0.3360
  329MOL0     H45383   8.170   5.331   3.309  0.2277 -2.8224 -0.8833
  329MOL0     H45384   7.990   5.539   3.558  0.5694  0.3292 -0.0028
  329MOL0     H45385   7.824   5.642   3.710 -1.7706 -0.9596 -1.8934
  329MOL0     H45386   6.583   5.788   5.209  1.2051  1.3849 -4.2370
  329MOL0     H45387   6.349   5.794   5.323 -0.6203  1.5338 -0.3018
  329MOL0     H45388   6.016   5.694   5.565 -0.9049 -1.3218  1.8681
  329MOL0     H45389   5.801   5.724   5.658  0.5705  0.2814 -0.0940
  329MOL0     H45390   5.605   5.726   5.720  2.7492 -2.3260 -0.6625
  329MOL0     H45391   5.442   5.720   5.669  0.2722  0.3979 -2.0166
  329MOL0     H45392   5.515   5.499   5.751  0.1553 -2.6714  0.3418
  329MOL0     H45393   5.654   5.505   5.648  0.7013  0.1399 -0.5935
  329MOL0     H45394   5.366   5.475   5.569  0.0144  3.4628  0.3299
  329MOL0     H45395   5.485   5.487   5.442 -2.0367  2.6051 -0.0235
  329MOL0     H45396   5.602   5.292   5.482 -0.0932 -0.5005  1.3549
  329MOL0     H45397   5.437   5.248   5.484 -1.6146 -0.4294  1.4827
  329MOL0     H45398   5.580   5.142   5.879 -0.7150  1.8220  0.3306
  329MOL0     H45399   5.619   5.718   5.262  2.2057  0.8324 -2.6784
  329MOL0     H45400   5.922   5.603   5.093 -0.1862 -0.5070  0.3332
  329MOL0     H45401   5.747   5.579   5.104 -1.4784  0.2563  3.4592
  329MOL0     H45402   5.821   5.741   5.061 -0.6933 -0.5804 -0.1116
  330MOL0     O45403   6.923   6.863   0.930  0.5372 -0.6178 -0.4273
  330MOL0     C45404   6.855   6.771   0.880 -0.3668  0.2758 -0.6574
  330MOL0     O45405   6.902   6.648   0.856  0.3800 -0.4800 -0.4537
  330MOL0     C45406   6.989   6.593   0.938  0.5822  0.0176  0.1667
  330MOL0     C45407   7.076   6.487   0.896 -0.2307 -0.5142 -0.3282
  330MOL0     C45408   7.159   6.417   0.983 -0.5894  0.7941  0.6622
  330MOL0     C45409   7.141   6.431   1.126 -0.4254  1.2279  0.4589
  330MOL0     O45410   7.212   6.348   1.202  0.3215 -0.2640  0.2154
  330MOL0     C45411   7.200   6.351   1.340  0.1247  0.3768 -0.0225
  330MOL0     C45412   7.283   6.461   1.407  0.0931 -0.0225  1.5014
  330MOL0     C45413   7.431   6.406   1.417 -0.0420 -0.1283  0.0433
  330MOL0     C45414   7.517   6.500   1.505  0.1390 -0.2798  0.1149
  330MOL0     C45415   7.660   6.445   1.516 -0.5194 -0.4292  0.4896
  330MOL0     C45416   7.760   6.555   1.569 -0.0863  0.7093  0.3681
  330MOL0     C45417   7.901   6.506   1.606  0.8709  0.1613  0.6446
  330MOL0     C45418   7.922   6.455   1.747 -0.3862  0.5526 -0.1572
  330MOL0     N45419   8.058   6.460   1.793 -0.2637  0.6430 -0.0119
  330MOL0     C45420   8.163   6.384   1.753 -0.5621 -0.4390  0.0332
  330MOL0     C45421   8.277   6.450   1.794 -0.5080  0.0876  0.1459
  330MOL0     C45422   8.409   6.397   1.757 -0.3507 -0.0179  0.0431
  330MOL0     C45423   8.497   6.350   1.874 -0.3498  0.2495 -1.3976
  330MOL0     C45424   8.548   6.465   1.966  0.2439  0.0404  0.3480
  330MOL0     C45425   8.656   6.424   2.063 -0.5681 -0.3978 -0.7291
  330MOL0     O45426   8.753   6.335   2.010  0.5742 -0.1504 -0.0819
  330MOL0     C45427   8.874   6.323   2.060 -0.8049 -0.2547 -0.1117
  330MOL0     C45428   8.928   6.412   2.151 -0.7448  0.1094  0.2000
  330MOL0     C45429   9.049   6.403   2.205  0.6791  0.6509  0.0021
  330MOL0     C45430   9.099   6.516   2.288  0.1068 -0.2604  0.1534
  330MOL0     C45431   9.132   6.292   2.171 -0.1824 -0.0864  0.0167
  330MOL0     C45432   9.265   6.269   2.228  1.1207 -0.1152 -0.4128
  330MOL0     O45433   9.289   6.310   2.361  0.1323 -0.2467 -0.3377
  330MOL0     C45434   9.417   6.318   2.403  0.2632 -0.4284  0.4423
  330MOL0     C45435   9.506   6.421   2.378  0.0668 -0.3357  0.1364
  330MOL0     C45436   9.629   6.426   2.437 -0.9341  0.7143  0.1826
  330MOL0     C45437   9.667   6.338   2.529 -0.4867 -0.2760 -0.2758
  330MOL0     O45438   9.797   6.358   2.573 -0.1159 -0.2541 -0.5276
  330MOL0     C45439   9.871   6.259   2.654 -0.5711 -0.3247 -0.8652
  330MOL0     C45440  10.014   6.298   2.679  0.6155 -0.9663 -0.5426
  330MOL0     C45441  10.093   6.345   2.556  0.0539 -0.1215 -0.3535
  330MOL0     C45442  10.061   6.245   2.439 -0.2911 -0.2329  0.3197
  330MOL0     C45443  10.167   6.235   2.326 -0.1442 -0.2652 -0.2371
  330MOL0     C45444  10.282   6.154   2.363 -0.9710  0.8911 -0.2208
  330MOL0     C45445  10.383   6.135   2.246 -0.2663 -0.2123 -0.6054
  330MOL0     C45446  10.486   6.044   2.293 -0.2643  0.6158  0.2650
  330MOL0    Cl45447  10.408   5.875   2.313  0.1360  0.0178  0.5832
  330MOL0     C45448   9.582   6.230   2.552  0.0256  0.2865 -0.2364
  330MOL0     C45449   9.461   6.216   2.485 -0.7731  0.5291  0.4127
  330MOL0     O45450   9.342   6.200   2.165  0.1204  0.2085  0.1962
  330MOL0     C45451   9.091   6.204   2.073  0.8914  0.3883  0.5755
  330MOL0     C45452   8.959   6.226   2.012  0.4453  0.5175 -0.3493
  330MOL0     N45453   8.227   6.560   1.875  0.2204  0.5614 -0.7277
  330MOL0     N45454   8.104   6.555   1.880  0.0094 -0.0753  0.3869
  330MOL0     C45455   7.040   6.519   1.172  0.1887 -0.3131  0.2708
  330MOL0     C45456   6.971   6.595   1.078  1.1405 -0.3667 -0.5307
  330MOL0     C45457   6.713   6.810   0.825  0.3628  0.3179  0.0070
  330MOL0     C45458   6.633   6.896   0.897 -0.1111  0.3381 -0.0326
  330MOL0     C45459   6.494   6.911   0.857  0.2505  0.1923  0.5456
  330MOL0     C45460   6.442   6.851   0.748  0.5427 -0.2895 -0.0264
  330MOL0     O45461   6.308   6.876   0.723  0.3262  0.0311 -0.1197
  330MOL0     C45462   6.248   6.841   0.591 -0.2122 -0.6285  0.2847
  330MOL0     C45463   6.113   6.909   0.582 -0.0693 -0.1389 -0.5536
  330MOL0     C45464   6.119   7.052   0.532 -0.4661 -0.1421 -0.2332
  330MOL0     C45465   5.988   7.129   0.561 -0.4355  0.9121 -0.0263
  330MOL0     C45466   5.988   7.263   0.513  0.1278  0.6214 -0.4868
  330MOL0     C45467   5.979   7.376   0.470 -0.6587  0.8580 -0.2052
  330MOL0     C45468   6.521   6.763   0.675  0.1806 -0.1057  0.2637
  330MOL0     C45469   6.654   6.741   0.712  0.5566 -0.2425  0.2196
  330MOL0     C45470   6.726   6.648   0.624  0.6780  0.6335  0.4759
  330MOL0     H45471   7.065   6.456   0.793 -0.2302  1.2873 -0.9031
  330MOL0     H45472   7.215   6.330   0.951 -0.8207 -0.2321  2.8559
  330MOL0     H45473   7.241   6.256   1.376  2.4853  1.4857  0.4483
  330MOL0     H45474   7.097   6.365   1.374 -0.8321  0.3285 -2.6322
  330MOL0     H45475   7.279   6.557   1.354 -3.2540 -1.6889 -1.6517
  330MOL0     H45476   7.247   6.462   1.510 -2.4974  0.0350  0.6533
  330MOL0     H45477   7.434   6.312   1.473 -0.1502 -0.5894 -0.7178
  330MOL0     H45478   7.480   6.401   1.319  3.8155  2.1161  1.6249
  330MOL0     H45479   7.512   6.597   1.455 -1.9061 -1.0051 -1.2113
  330MOL0     H45480   7.464   6.508   1.600 -1.3660  0.6527 -0.7620
  330MOL0     H45481   7.694   6.398   1.423 -1.5911  2.6049 -1.5900
  330MOL0     H45482   7.657   6.368   1.594  1.1080  2.6857  3.9318
  330MOL0     H45483   7.772   6.630   1.490  0.6812 -0.6367 -0.8401
  330MOL0     H45484   7.717   6.605   1.656 -1.8232  2.0878 -1.1852
  330MOL0     H45485   7.969   6.591   1.597 -0.8083  1.3750 -2.5440
  330MOL0     H45486   7.936   6.435   1.530  3.9574  2.4897 -0.2916
  330MOL0     H45487   7.863   6.512   1.819 -1.4546 -2.1521  1.2841
  330MOL0     H45488   7.888   6.351   1.754  1.6565 -0.0210  3.0604
  330MOL0     H45489   8.154   6.300   1.685 -0.7189 -1.5698  1.3912
  330MOL0     H45490   8.464   6.475   1.703  0.4522 -1.5685 -1.5055
  330MOL0     H45491   8.394   6.308   1.696 -3.8579 -1.2350  2.4184
  330MOL0     H45492   8.427   6.287   1.930 -0.9192  2.4062  0.5084
  330MOL0     H45493   8.581   6.285   1.849  0.8710  1.2780 -0.1085
  330MOL0     H45494   8.581   6.548   1.904  0.5005 -0.2789  0.0538
  330MOL0     H45495   8.458   6.483   2.025  0.5719  0.0570  0.8479
  330MOL0     H45496   8.694   6.519   2.102  2.1596 -1.5591 -0.3570
  330MOL0     H45497   8.618   6.375   2.153  2.5908 -1.1999  0.2914
  330MOL0     H45498   8.887   6.509   2.177 -0.2730  0.7126 -1.1972
  330MOL0     H45499   9.198   6.545   2.251  0.5244 -1.6689  0.0962
  330MOL0     H45500   9.112   6.479   2.390 -0.0927 -0.4074  0.1265
  330MOL0     H45501   9.031   6.601   2.296  1.5490  1.0099 -0.5311
  330MOL0     H45502   9.473   6.496   2.307 -1.1393  0.9639  1.9840
  330MOL0     H45503   9.687   6.514   2.413 -3.4523  2.2664 -0.5691
  330MOL0     H45504   9.822   6.244   2.751  0.8175  0.1375 -0.0621
  330MOL0     H45505   9.861   6.163   2.603 -1.1408 -0.8514  0.1911
  330MOL0     H45506  10.014   6.372   2.759  0.7146 -0.8661 -0.6352
  330MOL0     H45507  10.072   6.217   2.724  1.1537  1.0492  2.6553
  330MOL0     H45508  10.199   6.351   2.580  0.4939 -1.0417 -1.8928
  330MOL0     H45509  10.060   6.443   2.518  1.8292  1.1845  1.2482
  330MOL0     H45510   9.968   6.289   2.401 -1.2861 -0.0204  2.8563
  330MOL0     H45511  10.041   6.141   2.464  1.5049 -1.4626 -2.7409
  330MOL0     H45512  10.130   6.200   2.229  0.2597 -0.9150 -0.1676
  330MOL0     H45513  10.200   6.338   2.313 -0.8491  0.0505  0.4366
  330MOL0     H45514  10.249   6.056   2.400 -1.6015  1.8743  1.9304
  330MOL0     H45515  10.325   6.190   2.456  1.6646 -3.5591  0.5882
  330MOL0     H45516  10.428   6.231   2.221 -1.6240  0.4994 -0.3702
  330MOL0     H45517  10.335   6.101   2.155 -0.3222 -0.5098 -0.4663
  330MOL0     H45518  10.520   6.083   2.389  0.2196  3.3397 -0.9308
  330MOL0     H45519  10.572   6.031   2.227  0.3816 -0.3073  1.2680
  330MOL0     H45520   9.620   6.157   2.622  0.6101  0.0842 -0.7607
  330MOL0     H45521   9.389   6.140   2.514  0.1884 -0.8495 -0.6759
  330MOL0     H45522   9.151   6.127   2.026 -0.3892  1.6615 -3.6058
  330MOL0     H45523   8.922   6.174   1.924 -0.0757 -2.0400  1.2523
  330MOL0     H45524   7.014   6.525   1.277  1.2616 -1.4666  0.6351
  330MOL0     H45525   6.895   6.657   1.123 -0.5035 -3.7555  1.8429
  330MOL0     H45526   6.675   6.951   0.980 -1.1734  0.6985  0.2890
  330MOL0     H45527   6.431   6.975   0.918  0.2318  0.4654  0.2425
  330MOL0     H45528   6.314   6.866   0.507 -2.0670  2.7152 -0.3367
  330MOL0     H45529   6.232   6.734   0.575  2.1325 -0.6373 -2.9620
  330MOL0     H45530   6.066   6.909   0.681  0.3004 -3.4475 -0.2916
  330MOL0     H45531   6.060   6.852   0.506 -2.2825 -1.7446  1.9871
  330MOL0     H45532   6.203   7.106   0.575 -0.1124  1.3862 -2.6639
  330MOL0     H45533   6.137   7.047   0.425 -0.9690 -0.4907 -0.3053
  330MOL0     H45534   5.971   7.131   0.669  0.9950  0.4640  0.2326
  330MOL0     H45535   5.902   7.079   0.514  0.0881 -0.2337  0.1929
  330MOL0     H45536   5.965   7.480   0.445 -1.2355  0.3547 -2.1446
  330MOL0     H45537   6.486   6.711   0.586  0.2180  0.7878 -0.2857
  330MOL0     H45538   6.670   6.631   0.532  2.5669  1.8159 -0.9401
  330MOL0     H45539   6.826   6.677   0.591  0.1666  1.9107 -0.0020
  330MOL0     H45540   6.734   6.552   0.677  0.2234 -0.0249 -0.6156
  331MOL0     O45541   8.795   2.983   4.161 -0.3349  0.3607  0.2795
  331MOL0     C45542   8.723   2.910   4.227 -0.8556  0.1785 -0.3474
  331MOL0     O45543   8.720   2.900   4.358  0.3263 -0.2416 -0.1977
  331MOL0     C45544   8.794   2.993   4.436 -0.0517  0.3160  0.1746
  331MOL0     C45545   8.791   3.130   4.405  0.5723  0.0196 -0.0854
  331MOL0     C45546   8.868   3.221   4.483  0.5660  0.1889 -1.0676
  331MOL0     C45547   8.934   3.172   4.596 -0.3083  0.5201 -0.2659
  331MOL0     O45548   9.005   3.238   4.687 -0.7092  0.5080  0.4582
  331MOL0     C45549   9.133   3.275   4.633 -0.2212  0.5765 -0.5584
  331MOL0     C45550   9.166   3.398   4.703  0.3169 -0.0315  0.0767
  331MOL0     C45551   9.058   3.506   4.655 -0.5101  0.3915  0.6030
  331MOL0     C45552   9.125   3.645   4.672 -1.0122 -0.0058 -0.1104
  331MOL0     C45553   9.026   3.761   4.650 -0.8356  0.1602  0.2266
  331MOL0     C45554   9.096   3.897   4.681  0.7086 -0.1590 -0.1832
  331MOL0     C45555   9.000   4.016   4.704 -0.0710  0.5739  0.0745
  331MOL0     C45556   9.077   4.143   4.749 -0.2008 -0.7278  0.1210
  331MOL0     N45557   9.163   4.189   4.651 -0.3191 -0.1627  0.4321
  331MOL0     C45558   9.127   4.262   4.536  0.1963 -0.3435 -1.2272
  331MOL0     C45559   9.242   4.293   4.472 -0.4059  0.0763  0.3810
  331MOL0     C45560   9.255   4.389   4.358 -1.5619  0.5080  0.0713
  331MOL0     C45561   9.170   4.508   4.388  0.3809  0.5191  0.5230
  331MOL0     C45562   9.198   4.614   4.276  0.2352  0.2929  0.2379
  331MOL0     C45563   9.118   4.738   4.298 -0.6028  0.7863 -0.1479
  331MOL0     O45564   9.128   4.821   4.185  0.0918 -0.4457  0.7550
  331MOL0     C45565   9.035   4.929   4.173 -0.5211 -0.1402  0.2582
  331MOL0     C45566   9.083   5.040   4.106 -0.1484 -0.2343 -0.7440
  331MOL0     C45567   9.011   5.158   4.079 -0.0485 -0.2391 -0.5323
  331MOL0     C45568   9.089   5.273   4.027  0.1189 -0.2536 -0.7511
  331MOL0     C45569   8.876   5.154   4.112  0.8238  0.8601  0.0507
  331MOL0     C45570   8.789   5.275   4.112  0.6027  0.1339 -0.5060
  331MOL0     O45571   8.776   5.352   4.001 -0.7517 -0.0494  0.4125
  331MOL0     C45572   8.683   5.456   3.989  0.2817 -0.1900 -1.5930
  331MOL0     C45573   8.708   5.565   4.076  0.4151 -0.3935 -0.9880
  331MOL0     C45574   8.617   5.674   4.074 -0.3654 -0.1763 -0.6508
  331MOL0     C45575   8.511   5.678   3.982  0.5201  0.1193  0.3785
  331MOL0     O45576   8.413   5.786   3.982  0.1311  0.4144 -0.4249
  331MOL0     C45577   8.279   5.765   4.020  0.1549  0.6595  0.2206
  331MOL0     C45578   8.232   5.906   4.060  0.3428  0.0762 -0.1134
  331MOL0     C45579   8.082   5.934   4.048 -0.0230 -0.1040 -0.2457
  331MOL0     C45580   8.054   6.080   4.092  0.5004  0.2247  0.2144
  331MOL0     C45581   7.949   6.150   4.008  0.0562 -1.3843  0.4361
  331MOL0     C45582   7.934   6.288   4.072  0.3856 -0.0618 -1.3188
  331MOL0     C45583   7.844   6.386   4.001  0.2208  0.6527 -0.2709
  331MOL0     C45584   7.886   6.526   4.001  0.2334 -0.2322 -0.7242
  331MOL0    Cl45585   7.744   6.625   4.055  0.2476 -0.1906  0.0709
  331MOL0     C45586   8.498   5.572   3.896  0.2742  0.1404 -0.2106
  331MOL0     C45587   8.576   5.457   3.898 -0.5027 -0.8577  0.3446
  331MOL0     O45588   8.731   5.298   4.214  0.2583 -0.1112 -0.5815
  331MOL0     C45589   8.821   5.047   4.178  0.3955  0.1485 -0.1858
  331MOL0     C45590   8.898   4.929   4.203  0.6089  0.5737  0.3226
  331MOL0     N45591   9.344   4.231   4.544 -0.8475  0.2035  0.8280
  331MOL0     N45592   9.299   4.162   4.640  0.2138  0.6193 -0.0814
  331MOL0     C45593   8.943   3.039   4.614  0.4022 -0.2184  0.3405
  331MOL0     C45594   8.878   2.945   4.538 -0.2464 -0.6604  0.0146
  331MOL0     C45595   8.623   2.837   4.141 -0.2670 -1.2975  0.0387
  331MOL0     C45596   8.496   2.841   4.198  0.3569  0.1841 -0.6619
  331MOL0     C45597   8.386   2.815   4.115 -0.5050  0.2593  0.6787
  331MOL0     C45598   8.401   2.765   3.988  0.1124 -0.0276  1.1997
  331MOL0     O45599   8.298   2.726   3.899 -0.2950  0.3944 -0.2743
  331MOL0     C45600   8.168   2.728   3.946  0.6653  0.5737 -0.6214
  331MOL0     C45601   8.068   2.630   3.863 -0.1152  0.0932 -0.5812
  331MOL0     C45602   8.133   2.488   3.850  0.3479  0.1857 -0.0037
  331MOL0     C45603   8.114   2.412   3.981  0.1838  0.2558 -0.3744
  331MOL0     C45604   8.197   2.291   4.002 -0.5254  0.6475 -0.5507
  331MOL0     C45605   8.276   2.195   4.011  0.5059  0.3251 -0.0617
  331MOL0     C45606   8.534   2.763   3.932  1.0551  0.4422 -0.1428
  331MOL0     C45607   8.641   2.795   4.010 -1.3570 -1.5101  0.6735
  331MOL0     C45608   8.777   2.796   3.942  0.6178 -0.2466  1.0085
  331MOL0     H45609   8.732   3.171   4.323  2.1465  1.3206 -0.6421
  331MOL0     H45610   8.864   3.326   4.456 -2.4754  0.2637 -0.6605
  331MOL0     H45611   9.126   3.285   4.524 -1.5162  0.3755 -0.5129
  331MOL0     H45612   9.204   3.193   4.646 -1.0477 -0.1453 -0.4891
  331MOL0     H45613   9.179   3.392   4.811  1.3704 -0.2411 -0.0531
  331MOL0     H45614   9.263   3.430   4.663 -0.1864  1.0014 -0.3507
  331MOL0     H45615   9.034   3.486   4.550  3.3319  1.0221 -0.5699
  331MOL0     H45616   8.965   3.504   4.713 -1.9343 -3.5536 -1.4085
  331MOL0     H45617   9.156   3.652   4.777  2.0922 -0.6464 -0.8673
  331MOL0     H45618   9.214   3.657   4.609 -0.5589  0.4775  0.5919
  331MOL0     H45619   8.935   3.751   4.709  0.4102  2.0112  2.6500
  331MOL0     H45620   9.005   3.767   4.543 -0.1327 -1.3149 -0.0245
  331MOL0     H45621   9.163   3.879   4.766  0.6057  0.5378  0.0593
  331MOL0     H45622   9.167   3.904   4.598  1.1121 -3.0540 -0.1731
  331MOL0     H45623   8.922   4.000   4.779  1.8910 -1.6924  1.7896
  331MOL0     H45624   8.955   4.035   4.606  0.5907  1.2307 -0.1107
  331MOL0     H45625   9.010   4.226   4.773  0.5695  0.2882 -1.1573
  331MOL0     H45626   9.141   4.110   4.831 -0.3031  1.4316  1.1393
  331MOL0     H45627   9.024   4.277   4.505 -0.4110 -1.9397 -0.1135
  331MOL0     H45628   9.234   4.340   4.263 -1.6449  1.1799 -0.2610
  331MOL0     H45629   9.359   4.421   4.355 -1.4136 -0.0246 -2.1361
  331MOL0     H45630   9.065   4.478   4.395  0.8193 -1.4947 -0.8352
  331MOL0     H45631   9.197   4.544   4.488 -2.2968 -1.1313  1.9615
  331MOL0     H45632   9.302   4.647   4.285 -0.2961  1.7295  1.5827
  331MOL0     H45633   9.172   4.565   4.182 -0.5947 -1.5333  1.3660
  331MOL0     H45634   9.016   4.700   4.310  0.5903 -2.7450 -0.1465
  331MOL0     H45635   9.143   4.786   4.393  1.9277 -2.4464  0.9967
  331MOL0     H45636   9.186   5.035   4.073 -0.1494  2.1781 -1.2678
  331MOL0     H45637   9.049   5.309   3.932 -0.5806  0.5450 -0.1731
  331MOL0     H45638   9.195   5.256   4.011  0.1285  0.2767 -1.2843
  331MOL0     H45639   9.072   5.354   4.099 -0.8247 -0.8661 -0.2563
  331MOL0     H45640   8.784   5.568   4.154 -1.4812  1.0415  0.9507
  331MOL0     H45641   8.632   5.762   4.135  2.1046 -0.6244 -0.5187
  331MOL0     H45642   8.221   5.720   3.939  0.3100 -1.9167  1.4506
  331MOL0     H45643   8.277   5.694   4.103 -0.3034  1.1636  0.6501
  331MOL0     H45644   8.277   5.927   4.157 -1.2680 -1.1660  0.9604
  331MOL0     H45645   8.286   5.973   3.993  2.2756  2.1941  3.3044
  331MOL0     H45646   8.019   5.871   4.112 -0.3033  0.0518 -0.3673
  331MOL0     H45647   8.054   5.918   3.943 -2.2865  0.3548  0.2264
  331MOL0     H45648   8.145   6.139   4.102  1.6283 -1.4083 -0.0261
  331MOL0     H45649   8.002   6.065   4.187 -1.3105 -0.5684 -0.8363
  331MOL0     H45650   7.977   6.175   3.905 -1.8063  1.4736  0.4961
  331MOL0     H45651   7.855   6.093   4.005  0.4503 -2.0936  1.2318
  331MOL0     H45652   8.032   6.336   4.078 -0.0558  0.6971  0.9481
  331MOL0     H45653   7.894   6.263   4.171  3.1017 -2.1823 -0.6528
  331MOL0     H45654   7.747   6.386   4.053  2.3431  2.4443  4.1860
  331MOL0     H45655   7.828   6.360   3.896 -0.1280 -0.4187  0.0352
  331MOL0     H45656   7.913   6.557   3.900 -1.3247  1.2236 -0.7345
  331MOL0     H45657   7.962   6.554   4.076 -0.5998  2.3796 -0.7712
  331MOL0     H45658   8.417   5.567   3.824  1.4491  0.5363 -1.6178
  331MOL0     H45659   8.584   5.379   3.823  0.3397 -0.8053  0.3678
  331MOL0     H45660   8.719   5.055   4.213  0.5577  0.6539  0.1843
  331MOL0     H45661   8.849   4.838   4.237 -0.5948  0.2430 -2.0791
  331MOL0     H45662   9.015   3.011   4.690  1.4255 -0.0564 -0.5458
  331MOL0     H45663   8.885   2.838   4.553 -0.5247 -0.5431  1.0221
  331MOL0     H45664   8.488   2.865   4.303 -0.6342 -0.9518 -0.4606
  331MOL0     H45665   8.286   2.820   4.158 -1.9687  0.7283 -2.4562
  331MOL0     H45666   8.170   2.692   4.049  0.9053  0.1810 -0.7576
  331MOL0     H45667   8.126   2.828   3.940  1.3928  0.8280 -5.3199
  331MOL0     H45668   8.045   2.670   3.764  2.8751 -0.2888 -1.5330
  331MOL0     H45669   7.972   2.626   3.915  1.0226 -0.1753  1.5957
  331MOL0     H45670   8.083   2.436   3.768 -0.9081  0.6869  0.4228
  331MOL0     H45671   8.238   2.487   3.818 -0.3780 -0.6165 -2.6038
  331MOL0     H45672   8.007   2.390   3.992  0.6700 -2.3548 -0.2397
  331MOL0     H45673   8.133   2.481   4.064 -1.0732  0.1258  0.0423
  331MOL0     H45674   8.343   2.111   4.014 -0.3690 -0.3765  2.8284
  331MOL0     H45675   8.553   2.722   3.833  1.4662  1.4778 -0.5070
  331MOL0     H45676   8.806   2.895   3.904  0.4664 -1.0737 -1.3955
  331MOL0     H45677   8.865   2.762   3.997  0.0116 -0.6334  1.7534
  331MOL0     H45678   8.768   2.726   3.859 -0.3312  1.6874 -0.6133
  332MOL0     O45679  10.496   5.271   5.268  0.1022  0.0233  0.9397
  332MOL0     C45680  10.424   5.328   5.338 -0.3871 -0.6539 -0.2349
  332MOL0     O45681  10.357   5.267   5.442  0.3488  0.0899 -0.1901
  332MOL0     C45682  10.378   5.144   5.490  0.4968  0.0763 -0.6088
  332MOL0     C45683  10.279   5.098   5.567  0.3051  0.3172  0.1528
  332MOL0     C45684  10.278   4.964   5.611  0.6843 -0.3452 -0.0556
  332MOL0     C45685  10.362   4.872   5.559 -1.4470  0.3883  0.0816
  332MOL0     O45686  10.341   4.737   5.592 -0.3952  0.4870  0.5977
  332MOL0     C45687  10.436   4.637   5.554  0.2893 -0.6016 -0.6989
  332MOL0     C45688  10.392   4.506   5.615  0.1735  0.4577  0.2486
  332MOL0     C45689  10.489   4.395   5.579 -0.4090 -0.2338 -0.7156
  332MOL0     C45690  10.420   4.285   5.507  0.8473  0.4914  0.6397
  332MOL0     C45691  10.503   4.157   5.508  0.7920 -0.0823  0.8393
  332MOL0     C45692  10.609   4.167   5.398  0.1743 -0.5371 -0.5807
  332MOL0     C45693  10.698   4.033   5.399 -0.8866 -0.1121 -0.4411
  332MOL0     C45694  10.633   3.925   5.309 -1.2729  0.3402  0.6306
  332MOL0     N45695  10.619   3.944   5.161  0.0164  0.2085  0.2382
  332MOL0     C45696  10.701   4.009   5.066 -0.6971 -1.0807 -0.5583
  332MOL0     C45697  10.659   3.966   4.947 -0.1575 -0.4568  0.6765
  332MOL0     C45698  10.697   4.005   4.807 -0.1714  0.3625  1.0222
  332MOL0     C45699  10.851   4.000   4.774 -0.1132  0.1044 -0.1032
  332MOL0     C45700  10.903   4.030   4.633 -0.3985  0.4878  0.4690
  332MOL0     C45701  10.872   4.170   4.577  0.2732  0.3585 -0.1964
  332MOL0     O45702  10.919   4.188   4.451 -0.4427 -0.4303  0.0588
  332MOL0     C45703  11.047   4.232   4.433 -0.1516  0.4965  0.2187
  332MOL0     C45704  11.148   4.258   4.525  0.6108 -0.4123  0.3120
  332MOL0     C45705  11.281   4.277   4.488  0.1778  0.1647 -0.6298
  332MOL0     C45706  11.377   4.272   4.597 -0.7568 -0.7100 -0.2708
  332MOL0     C45707  11.320   4.275   4.350 -0.3752  0.5449  0.2744
  332MOL0     C45708  11.456   4.277   4.293 -1.1104  0.8894 -0.0168
  332MOL0     O45709  11.556   4.328   4.368  0.1786 -0.6293 -0.0292
  332MOL0     C45710  11.684   4.315   4.310 -0.2523  0.4497 -0.0978
  332MOL0     C45711  11.713   4.401   4.208  0.0248 -0.1684  0.4636
  332MOL0     C45712  11.836   4.393   4.137  0.3899  1.4113  0.9773
  332MOL0     C45713  11.909   4.282   4.153 -1.0481 -0.1514 -0.5370
  332MOL0     O45714  12.026   4.274   4.084 -0.0314  0.2360 -0.3968
  332MOL0     C45715  12.004   4.235   3.949 -0.5657  0.3063  0.8783
  332MOL0     C45716  12.141   4.231   3.884  0.1637 -0.2116 -0.2633
  332MOL0     C45717  12.119   4.170   3.739  0.1249 -0.1863 -0.3598
  332MOL0     C45718  12.101   4.020   3.746  0.4450  0.5623  0.5260
  332MOL0     C45719  12.147   3.962   3.601 -0.3411 -0.6644 -0.4044
  332MOL0     C45720  12.029   3.972   3.503 -0.6245 -0.4195  1.6293
  332MOL0     C45721  12.053   3.921   3.363  0.1874 -0.7048  1.6440
  332MOL0     C45722  12.182   3.970   3.297 -0.0012 -0.3687 -0.1479
  332MOL0    Cl45723  12.196   4.153   3.311  0.2141  0.2097 -0.2690
  332MOL0     C45724  11.878   4.181   4.246  0.0177  0.0734  0.0916
  332MOL0     C45725  11.769   4.201   4.330  0.2517 -0.0190  0.1321
  332MOL0     O45726  11.477   4.206   4.197 -0.4375  0.2343 -1.1951
  332MOL0     C45727  11.213   4.267   4.257 -0.3502  0.2321 -0.4450
  332MOL0     C45728  11.080   4.225   4.297 -0.1558 -1.1489 -0.3547
  332MOL0     N45729  10.566   3.869   4.971  0.6305  0.4923  0.3482
  332MOL0     N45730  10.547   3.854   5.095 -0.5213 -0.3811  0.2941
  332MOL0     C45731  10.475   4.920   5.484 -0.0034 -0.7150 -0.1285
  332MOL0     C45732  10.479   5.058   5.452 -0.6532  1.1268 -0.8157
  332MOL0     C45733  10.393   5.469   5.316  0.7041  0.2777 -0.0417
  332MOL0     C45734  10.282   5.517   5.389 -0.9015 -0.7611  0.1830
  332MOL0     C45735  10.230   5.655   5.367 -0.4589  0.4835  0.0772
  332MOL0     C45736  10.295   5.744   5.287  0.2918 -0.4400 -0.5765
  332MOL0     O45737  10.250   5.870   5.257  0.1529 -0.1063 -0.2788
  332MOL0     C45738  10.143   5.860   5.161 -0.6251 -0.6547  0.5609
  332MOL0     C45739  10.201   5.827   5.022  0.1455 -0.4536  0.7048
  332MOL0     C45740  10.090   5.828   4.915 -0.0593  0.0392 -0.1685
  332MOL0     C45741  10.149   5.813   4.778  0.0982 -0.0673 -0.9173
  332MOL0     C45742  10.044   5.867   4.694 -0.1916  0.1481 -0.3458
  332MOL0     C45743   9.971   5.923   4.614 -0.8906 -0.2096 -0.2594
  332MOL0     C45744  10.414   5.696   5.229 -0.2209 -0.1884 -1.1847
  332MOL0     C45745  10.468   5.567   5.243  0.3353 -0.4183 -0.2941
  332MOL0     C45746  10.597   5.527   5.162  0.3727  0.2136 -0.0216
  332MOL0     H45747  10.183   5.142   5.591 -0.4890 -0.5710 -1.2507
  332MOL0     H45748  10.193   4.928   5.667  0.8094  2.7647  2.3509
  332MOL0     H45749  10.534   4.664   5.594 -0.8509  0.1696  1.7147
  332MOL0     H45750  10.429   4.632   5.445  0.5091  0.0449 -0.7464
  332MOL0     H45751  10.387   4.503   5.724 -0.4754 -0.9035  0.2146
  332MOL0     H45752  10.294   4.476   5.576  1.0662 -1.6255 -0.5087
  332MOL0     H45753  10.571   4.435   5.519 -0.1394  0.9482  0.3772
  332MOL0     H45754  10.536   4.353   5.668 -2.8916 -2.0178 -0.1439
  332MOL0     H45755  10.327   4.258   5.559  1.1224 -0.1268  0.8175
  332MOL0     H45756  10.396   4.305   5.402  0.8481 -0.8450  0.3611
  332MOL0     H45757  10.450   4.065   5.482  0.5611  0.7345 -1.9406
  332MOL0     H45758  10.545   4.152   5.608 -3.2394  4.2450  3.1633
  332MOL0     H45759  10.568   4.191   5.300 -1.4897 -1.4879 -0.1430
  332MOL0     H45760  10.674   4.247   5.435  0.5032 -2.2377  2.8645
  332MOL0     H45761  10.730   4.005   5.500  1.5580  1.3981 -0.7281
  332MOL0     H45762  10.791   4.072   5.357  0.3343  0.7380  2.7265
  332MOL0     H45763  10.698   3.839   5.328 -2.3143 -0.4743  0.6243
  332MOL0     H45764  10.531   3.911   5.346 -1.6448  0.5895 -0.2732
  332MOL0     H45765  10.778   4.082   5.090  1.3939 -4.1870  3.6073
  332MOL0     H45766  10.658   4.105   4.786 -2.4862 -0.0113  3.1880
  332MOL0     H45767  10.661   3.936   4.730  3.2051  1.1527 -1.5066
  332MOL0     H45768  10.903   4.076   4.833 -2.0804  1.2451  0.2605
  332MOL0     H45769  10.885   3.899   4.800 -0.4036  0.0132 -0.0599
  332MOL0     H45770  11.011   4.013   4.628 -0.7559 -1.7833 -1.0425
  332MOL0     H45771  10.858   3.954   4.570  0.2478 -0.6618  1.3383
  332MOL0     H45772  10.763   4.184   4.582 -0.0743 -2.2727  1.7413
  332MOL0     H45773  10.920   4.240   4.645  1.7248 -0.6716 -0.1058
  332MOL0     H45774  11.127   4.271   4.631  2.2300  1.9071  0.4273
  332MOL0     H45775  11.404   4.167   4.607  1.1695 -0.3429 -1.1911
  332MOL0     H45776  11.337   4.302   4.695 -0.5628  0.7796 -0.6137
  332MOL0     H45777  11.471   4.325   4.575 -1.3428 -0.0848 -1.3485
  332MOL0     H45778  11.652   4.489   4.195 -0.2093  0.1038  2.9117
  332MOL0     H45779  11.853   4.476   4.069  1.2127 -0.4635 -1.2184
  332MOL0     H45780  11.952   4.138   3.940 -1.0686  0.7503 -2.5543
  332MOL0     H45781  11.941   4.310   3.900  1.0855  1.3207  0.2276
  332MOL0     H45782  12.184   4.331   3.878  2.2511 -0.9564  0.8904
  332MOL0     H45783  12.200   4.162   3.946 -1.0041 -3.4028 -2.4528
  332MOL0     H45784  12.217   4.186   3.692 -0.1213  1.6380 -0.3322
  332MOL0     H45785  12.038   4.217   3.682 -0.5325 -4.4357 -3.4413
  332MOL0     H45786  11.996   3.995   3.769  0.5096 -2.5347 -1.7877
  332MOL0     H45787  12.176   3.982   3.816 -0.3256 -1.8193  0.1776
  332MOL0     H45788  12.229   4.018   3.555 -0.1237 -0.7548 -0.1324
  332MOL0     H45789  12.173   3.855   3.603  2.3753 -0.1197 -2.0367
  332MOL0     H45790  11.990   4.074   3.493 -1.3597 -0.9102 -1.4945
  332MOL0     H45791  11.950   3.911   3.546  1.6897 -2.3974  3.3460
  332MOL0     H45792  11.967   3.947   3.301  0.5949 -2.0897  0.4590
  332MOL0     H45793  12.063   3.812   3.360 -0.2877 -0.7405 -1.0575
  332MOL0     H45794  12.186   3.942   3.192  1.1978 -0.1040 -0.1881
  332MOL0     H45795  12.257   3.917   3.356 -1.1816 -0.1362  1.6662
  332MOL0     H45796  11.939   4.094   4.266 -2.2747 -0.9465  3.3738
  332MOL0     H45797  11.737   4.119   4.393 -0.5991  0.3275  0.1623
  332MOL0     H45798  11.246   4.283   4.155  1.8053  2.1472  0.4402
  332MOL0     H45799  11.008   4.189   4.224  0.6790 -3.8619  0.0555
  332MOL0     H45800  10.546   4.853   5.437 -1.2875 -0.2689 -2.9045
  332MOL0     H45801  10.567   5.093   5.399  1.8112  0.8481  2.7148
  332MOL0     H45802  10.223   5.459   5.460 -0.8296 -0.7677  0.2382
  332MOL0     H45803  10.142   5.698   5.414 -0.0254  0.0184  1.3720
  332MOL0     H45804  10.072   5.779   5.179  1.4628 -3.4753 -2.6189
  332MOL0     H45805  10.084   5.952   5.166  1.0439  0.7293 -2.2759
  332MOL0     H45806  10.253   5.731   5.027 -0.0886 -0.6501 -0.4295
  332MOL0     H45807  10.274   5.905   4.999 -0.0538 -0.3394  0.4537
  332MOL0     H45808  10.040   5.733   4.935  2.5461 -1.0514  1.8658
  332MOL0     H45809  10.023   5.913   4.925 -1.3907 -1.1268  1.4492
  332MOL0     H45810  10.172   5.709   4.757  1.6379  0.0594 -0.0190
  332MOL0     H45811  10.234   5.882   4.769 -1.2337  2.0750  1.6652
  332MOL0     H45812   9.919   5.974   4.536 -0.9477  0.7148  0.3655
  332MOL0     H45813  10.469   5.765   5.166  1.4050 -1.4590 -1.2005
  332MOL0     H45814  10.653   5.460   5.228 -1.8834 -1.6350  0.1494
  332MOL0     H45815  10.574   5.482   5.065 -1.2354  0.2701  0.3004
  332MOL0     H45816  10.657   5.617   5.146 -0.6529  1.0174  0.5449
  333MOL0     O45817   0.580  11.113   8.828  0.1006  0.0745 -0.1027
  333MOL0     C45818   0.637  11.225   8.838  0.6660 -0.8444  0.3384
  333MOL0     O45819   0.766  11.237   8.863 -0.4497 -0.8027  0.1834
  333MOL0     C45820   0.838  11.121   8.860  0.3284  0.1905 -0.0744
  333MOL0     C45821   0.888  11.069   8.977  0.0514  0.5989 -1.2744
  333MOL0     C45822   0.967  10.950   8.987 -0.2490 -1.3172 -0.2437
  333MOL0     C45823   0.984  10.869   8.877 -0.6831  0.4790  0.0567
  333MOL0     O45824   1.058  10.756   8.877 -0.9036  0.2798 -0.0949
  333MOL0     C45825   1.087  10.692   9.003 -0.6675  0.1568 -0.6816
  333MOL0     C45826   1.216  10.740   9.073  0.0139  0.3818  0.0292
  333MOL0     C45827   1.341  10.679   9.011  0.1876  0.9085  0.8369
  333MOL0     C45828   1.459  10.739   9.087 -1.0159  0.3165 -0.1535
  333MOL0     C45829   1.589  10.705   9.026 -0.7742  0.5440 -0.5551
  333MOL0     C45830   1.613  10.766   8.885 -0.5570  0.4924  0.6625
  333MOL0     C45831   1.625  10.914   8.868  0.5224 -0.2904 -0.1232
  333MOL0     C45832   1.754  10.974   8.940  0.3861 -0.2398 -0.4760
  333MOL0     N45833   1.751  11.123   8.913  0.9106 -1.3625 -0.0111
  333MOL0     C45834   1.664  11.206   8.977  0.2220  0.3464  0.3741
  333MOL0     C45835   1.699  11.327   8.938 -0.2372 -0.8085 -0.1713
  333MOL0     C45836   1.631  11.461   8.960 -0.6894  0.1208 -0.1955
  333MOL0     C45837   1.654  11.503   9.107  1.2187 -0.5141  0.6200
  333MOL0     C45838   1.593  11.407   9.207 -0.3971 -0.3173  0.1178
  333MOL0     C45839   1.584  11.475   9.343 -0.0996  0.6685 -0.1845
  333MOL0     O45840   1.515  11.384   9.429 -0.5279 -0.3722  0.0493
  333MOL0     C45841   1.507  11.430   9.562  0.7666  0.4198 -0.2694
  333MOL0     C45842   1.453  11.335   9.648 -0.5053 -0.3236 -0.4413
  333MOL0     C45843   1.422  11.364   9.779  0.4923 -0.4613  0.1402
  333MOL0     C45844   1.345  11.255   9.851 -1.0298 -0.3570  0.6576
  333MOL0     C45845   1.461  11.489   9.838  0.7055 -0.7827 -0.4673
  333MOL0     C45846   1.413  11.543   9.967  0.0842  0.7049 -1.0974
  333MOL0     O45847   1.444  11.676   9.987  0.0389  0.3711  0.7572
  333MOL0     C45848   1.398  11.731  10.099  0.4532 -0.0143 -0.1208
  333MOL0     C45849   1.473  11.830  10.165  0.0635 -0.0596  1.0549
  333MOL0     C45850   1.422  11.898  10.279  0.5721  0.1281  0.2731
  333MOL0     C45851   1.299  11.864  10.324  0.6612  0.2109 -0.5797
  333MOL0     O45852   1.239  11.938  10.420  0.0654  0.3439 -0.3971
  333MOL0     C45853   1.302  11.903  10.552 -0.2675 -0.5433  0.0903
  333MOL0     C45854   1.356  12.024  10.628 -0.6516  0.3190  1.1338
  333MOL0     C45855   1.431  11.989  10.759  0.1436 -0.9417  0.1965
  333MOL0     C45856   1.578  11.941  10.724  0.4995 -0.4878 -0.8199
  333MOL0     C45857   1.665  11.884  10.838  0.7468  0.9377 -0.1698
  333MOL0     C45858   1.587  11.786  10.937  0.3705  0.1425 -0.4998
  333MOL0     C45859   1.688  11.739  11.042  0.3820 -0.0330 -0.5584
  333MOL0     C45860   1.772  11.627  10.997 -0.0552 -0.6289  0.4076
  333MOL0    Cl45861   1.914  11.650  11.113 -0.0684 -0.0684  0.4916
  333MOL0     C45862   1.224  11.765  10.258 -0.1836  0.5044  0.5141
  333MOL0     C45863   1.272  11.701  10.145  0.1404 -0.7280  0.1492
  333MOL0     O45864   1.375  11.469  10.056  0.0790  0.8002  0.4802
  333MOL0     C45865   1.539  11.579   9.758 -0.1986 -0.5378 -0.1257
  333MOL0     C45866   1.547  11.553   9.618 -0.4767  0.0805  0.3684
  333MOL0     N45867   1.819  11.321   8.866 -0.1606 -0.1874 -0.3017
  333MOL0     N45868   1.846  11.196   8.844 -0.1618  0.8564  0.3140
  333MOL0     C45869   0.934  10.911   8.749 -0.6864 -0.0866 -0.5796
  333MOL0     C45870   0.862  11.039   8.742  0.3908 -0.3654 -0.5413
  333MOL0     C45871   0.564  11.350   8.817  0.2917  0.2401  0.5783
  333MOL0     C45872   0.633  11.477   8.850 -0.2601 -0.2405  0.1886
  333MOL0     C45873   0.571  11.601   8.852 -0.2377 -0.1748  0.0686
  333MOL0     C45874   0.441  11.603   8.807 -0.0407  0.2653  0.4413
  333MOL0     O45875   0.370  11.721   8.818 -0.8765 -0.5385  0.3164
  333MOL0     C45876   0.430  11.838   8.759  0.4201  0.0976 -0.6367
  333MOL0     C45877   0.497  11.824   8.626  0.3940 -0.6394 -0.0277
  333MOL0     C45878   0.411  11.753   8.515  0.0627 -0.2017 -0.4735
  333MOL0     C45879   0.480  11.789   8.389 -0.2712  0.0284  0.1305
  333MOL0     C45880   0.412  11.748   8.269  0.0081  0.1881  0.9400
  333MOL0     C45881   0.339  11.729   8.173  0.2764  0.1301 -0.6872
  333MOL0     C45882   0.370  11.489   8.766  0.8427 -1.2207 -0.2740
  333MOL0     C45883   0.430  11.367   8.769  0.4797  0.2459 -0.1130
  333MOL0     C45884   0.346  11.251   8.715  0.0530  0.3950 -1.0092
  333MOL0     H45885   0.870  11.124   9.068  0.9061 -0.1334 -0.6425
  333MOL0     H45886   1.002  10.925   9.086 -0.1480 -1.1132 -0.2269
  333MOL0     H45887   1.115  10.588   8.989  5.6213  1.2815  0.5055
  333MOL0     H45888   0.996  10.698   9.065 -0.4856 -1.1936 -0.2629
  333MOL0     H45889   1.229  10.847   9.053 -2.4497  0.4877 -1.3914
  333MOL0     H45890   1.215  10.698   9.174 -0.9501  1.6449  0.5709
  333MOL0     H45891   1.342  10.569   9.017 -0.5480  0.9016  0.9746
  333MOL0     H45892   1.342  10.709   8.906 -2.0085 -0.6061  0.3022
  333MOL0     H45893   1.454  10.845   9.114  1.2869  0.2649  0.6431
  333MOL0     H45894   1.458  10.684   9.181 -1.0791 -0.4972 -0.6214
  333MOL0     H45895   1.603  10.597   9.020  0.9815  0.7810 -1.5116
  333MOL0     H45896   1.675  10.749   9.077 -0.2547  0.1786 -1.1044
  333MOL0     H45897   1.700  10.717   8.840 -0.9990  1.5530 -1.4537
  333MOL0     H45898   1.531  10.734   8.820  0.5768  0.6147 -0.8564
  333MOL0     H45899   1.537  10.960   8.913  0.8504  1.2174 -0.9762
  333MOL0     H45900   1.610  10.940   8.763 -0.5421  2.6015  0.6646
  333MOL0     H45901   1.759  10.941   9.045  0.6914  2.8845  0.6004
  333MOL0     H45902   1.837  10.928   8.886 -0.9140 -0.6512 -2.2026
  333MOL0     H45903   1.577  11.167   9.028 -0.8307 -0.0046 -1.5839
  333MOL0     H45904   1.525  11.465   8.931 -0.1207  2.4020 -2.3416
  333MOL0     H45905   1.682  11.535   8.898  0.8132  0.9647  1.9626
  333MOL0     H45906   1.758  11.520   9.135  0.3990  0.1663  3.6003
  333MOL0     H45907   1.606  11.601   9.119  1.7565 -0.2251  0.4461
  333MOL0     H45908   1.492  11.382   9.173 -1.1368 -1.6675  3.0076
  333MOL0     H45909   1.652  11.315   9.213  0.2623  0.1920  1.6739
  333MOL0     H45910   1.682  11.511   9.376  0.7422 -1.7963  0.2237
  333MOL0     H45911   1.520  11.563   9.336  0.5144  1.2077  0.7263
  333MOL0     H45912   1.415  11.243   9.604 -1.3747 -1.2946  2.1716
  333MOL0     H45913   1.366  11.162   9.797 -1.5153  0.9509 -1.9332
  333MOL0     H45914   1.242  11.292   9.845  0.2434  3.4299 -1.6240
  333MOL0     H45915   1.364  11.239   9.957 -2.5472  1.0690  1.1920
  333MOL0     H45916   1.571  11.855  10.127 -0.2895  0.3274  0.3664
  333MOL0     H45917   1.483  11.961  10.342 -0.6708  0.5050  1.1434
  333MOL0     H45918   1.221  11.869  10.618  0.2030 -0.5947  0.6536
  333MOL0     H45919   1.369  11.817  10.539 -0.2180 -0.4316 -0.4195
  333MOL0     H45920   1.430  12.083  10.573 -1.4678 -1.5237 -2.2578
  333MOL0     H45921   1.271  12.091  10.644 -0.5391  0.5757  0.6858
  333MOL0     H45922   1.373  11.913  10.811 -1.8801  0.1839 -0.3180
  333MOL0     H45923   1.431  12.082  10.817 -3.7697 -0.6211 -0.0512
  333MOL0     H45924   1.624  12.035  10.691  0.6157  0.5294  1.9562
  333MOL0     H45925   1.578  11.864  10.647  1.8943 -0.6919 -0.6483
  333MOL0     H45926   1.746  11.834  10.786  0.9272 -0.2522  1.2144
  333MOL0     H45927   1.706  11.964  10.900  1.3480 -1.5697  2.9369
  333MOL0     H45928   1.547  11.701  10.882  1.0317  0.0517 -0.8369
  333MOL0     H45929   1.501  11.835  10.984  0.9241  0.6037  0.0441
  333MOL0     H45930   1.640  11.705  11.135 -1.7209  1.1145 -1.1888
  333MOL0     H45931   1.752  11.822  11.074 -1.8287  0.8492  1.9581
  333MOL0     H45932   1.810  11.646  10.896 -1.6439 -0.0164 -0.1125
  333MOL0     H45933   1.719  11.534  11.013  0.7355 -0.8295  2.0369
  333MOL0     H45934   1.128  11.725  10.289 -0.4729 -1.6874 -2.7972
  333MOL0     H45935   1.211  11.631  10.088  1.3994 -2.0285  0.3265
  333MOL0     H45936   1.588  11.668   9.795  1.0515 -0.5181 -1.7284
  333MOL0     H45937   1.602  11.619   9.551  2.8311 -1.3614  1.4536
  333MOL0     H45938   0.953  10.865   8.653  0.8646  0.8159 -0.7410
  333MOL0     H45939   0.833  11.078   8.645  0.9262  1.9435  0.1628
  333MOL0     H45940   0.729  11.473   8.902  0.3560  1.9263 -0.6993
  333MOL0     H45941   0.619  11.690   8.893 -0.7550  0.2328 -0.2017
  333MOL0     H45942   0.349  11.912   8.754 -0.0832 -0.4285 -0.3360
  333MOL0     H45943   0.507  11.876   8.827  1.3001 -2.5782 -0.0418
  333MOL0     H45944   0.592  11.770   8.624  0.9429  0.3330 -1.5331
  333MOL0     H45945   0.505  11.928   8.594  0.6110 -0.5074  0.4469
  333MOL0     H45946   0.413  11.644   8.531 -0.7702  0.0260  1.3996
  333MOL0     H45947   0.313  11.800   8.520  1.0479  1.8954  0.0136
  333MOL0     H45948   0.578  11.741   8.394 -0.4661 -0.9630 -3.0052
  333MOL0     H45949   0.495  11.897   8.378  1.6747 -0.0012  1.9231
  333MOL0     H45950   0.275  11.688   8.098  1.6102 -0.0136 -1.7883
  333MOL0     H45951   0.270  11.494   8.725 -0.3808 -1.1884  2.4821
  333MOL0     H45952   0.297  11.201   8.799  1.9317 -0.7786 -0.5327
  333MOL0     H45953   0.280  11.294   8.639 -1.0046 -1.4104 -1.1905
  333MOL0     H45954   0.406  11.172   8.668  2.6327  2.1536 -0.8637
  334MOL0     O45955   9.512  11.368   9.807  0.2093  0.3354 -0.2971
  334MOL0     C45956   9.446  11.435   9.885  0.2242  0.0488  0.0279
  334MOL0     O45957   9.490  11.487  10.001  0.2274 -0.5872 -0.1438
  334MOL0     C45958   9.589  11.435  10.075 -0.0730 -0.3036  0.2399
  334MOL0     C45959   9.714  11.409  10.017  0.0567  0.1557 -0.0815
  334MOL0     C45960   9.807  11.358  10.111 -1.1402  0.1467 -0.0277
  334MOL0     C45961   9.782  11.329  10.251  0.6446 -0.4827  1.6436
  334MOL0     O45962   9.852  11.251  10.332 -0.2464 -0.1067 -0.1540
  334MOL0     C45963   9.967  11.186  10.275  0.2771 -0.0346  0.6877
  334MOL0     C45964  10.043  11.168  10.404  0.5685 -0.1463  0.4454
  334MOL0     C45965  10.192  11.155  10.389 -0.2567 -0.2275 -0.7790
  334MOL0     C45966  10.215  11.012  10.349 -0.1492 -0.2941 -0.6585
  334MOL0     C45967  10.358  10.989  10.300 -0.2549 -0.1121  0.1832
  334MOL0     C45968  10.401  10.843  10.279  0.1230  0.3856  0.6869
  334MOL0     C45969  10.512  10.828  10.182 -0.1994  0.2898 -0.3154
  334MOL0     C45970  10.554  10.682  10.181  0.0528  0.1488 -0.8974
  334MOL0     N45971  10.663  10.657  10.280  0.4328  0.4478  0.7139
  334MOL0     C45972  10.799  10.686  10.268  0.5158  0.1521  0.0217
  334MOL0     C45973  10.860  10.600  10.365  0.0835 -0.2953  0.4599
  334MOL0     C45974  11.012  10.580  10.378  0.6261 -0.5574 -0.0594
  334MOL0     C45975  11.048  10.706  10.465 -1.0182 -0.1577  0.6881
  334MOL0     C45976  11.202  10.707  10.494 -0.0855 -0.0892 -0.4869
  334MOL0     C45977  11.298  10.758  10.392 -0.5894 -0.1442 -0.7812
  334MOL0     O45978  11.420  10.694  10.418 -0.3654 -0.0279  0.1588
  334MOL0     C45979  11.524  10.718  10.327  0.4099 -0.0593 -0.3948
  334MOL0     C45980  11.651  10.685  10.376  0.7030  0.0699  0.3979
  334MOL0     C45981  11.765  10.706  10.303  0.2276 -0.5655 -0.3941
  334MOL0     C45982  11.894  10.663  10.380 -0.4950  0.6677  0.0453
  334MOL0     C45983  11.755  10.755  10.169 -0.3498  0.8443  0.9632
  334MOL0     C45984  11.871  10.779  10.085 -0.8169  0.0054  0.1482
  334MOL0     O45985  11.877  10.906  10.022 -0.0336  0.5877  0.1246
  334MOL0     C45986  11.986  10.936   9.946 -0.2341 -0.5854 -0.2247
  334MOL0     C45987  12.017  10.875   9.819  0.0917 -0.1990 -0.3897
  334MOL0     C45988  12.141  10.895   9.764  0.1450  0.6450 -0.0066
  334MOL0     C45989  12.237  10.966   9.835 -0.5310 -0.1965  0.1783
  334MOL0     O45990  12.364  10.987   9.792 -0.1428 -0.1547  0.4182
  334MOL0     C45991  12.434  10.893   9.723  0.1173  0.7765  0.5311
  334MOL0     C45992  12.573  10.933   9.697 -0.7591 -0.5838  0.7640
  334MOL0     C45993  12.650  10.860   9.592 -1.1657  0.3096 -0.2855
  334MOL0     C45994  12.793  10.921   9.575  0.2324 -0.2141  0.2977
  334MOL0     C45995  12.849  10.870   9.440 -0.2086  0.7646 -0.7646
  334MOL0     C45996  12.983  10.946   9.410  0.2161 -0.7566 -1.1583
  334MOL0     C45997  13.100  10.912   9.508  0.1316 -0.5690  0.5958
  334MOL0     C45998  13.229  10.969   9.440  0.2328  0.0837  0.3356
  334MOL0    Cl45999  13.281  10.870   9.295 -0.2392 -0.6879 -0.0655
  334MOL0     C46000  12.198  11.041   9.951 -0.1289 -0.3574  0.4091
  334MOL0     C46001  12.072  11.028  10.009 -0.3717 -0.9425  0.2845
  334MOL0     O46002  11.941  10.683  10.052  0.3428 -0.5184  0.3845
  334MOL0     C46003  11.622  10.782  10.120  0.1131 -0.5571  0.3509
  334MOL0     C46004  11.512  10.761  10.196 -0.4215  0.6437  0.7031
  334MOL0     N46005  10.759  10.540  10.433 -0.4483  0.4315 -0.3635
  334MOL0     N46006  10.649  10.571  10.383 -0.1493 -0.5984  0.3949
  334MOL0     C46007   9.653  11.373  10.299 -0.6264 -0.6059 -0.0055
  334MOL0     C46008   9.559  11.425  10.208 -0.4657 -0.2861 -0.2855
  334MOL0     C46009   9.312  11.483   9.835 -0.6446 -0.1481  0.3780
  334MOL0     C46010   9.312  11.615   9.780 -0.5458  0.5550  0.0565
  334MOL0     C46011   9.195  11.662   9.709  0.5769  0.9132  0.0589
  334MOL0     C46012   9.078  11.582   9.692  0.0214  0.1242  0.5711
  334MOL0     O46013   8.955  11.635   9.637  0.2414 -0.0849 -0.4194
  334MOL0     C46014   8.852  11.552   9.585 -0.1534  0.3054  0.1922
  334MOL0     C46015   8.733  11.626   9.528  0.2558  0.0288  0.5049
  334MOL0     C46016   8.777  11.703   9.409 -0.3846  0.9854  0.3967
  334MOL0     C46017   8.661  11.782   9.345  0.1824  0.1774  0.6279
  334MOL0     C46018   8.712  11.837   9.214  0.1858 -0.1303  1.0273
  334MOL0     C46019   8.754  11.884   9.113  0.1339 -0.6577 -0.6142
  334MOL0     C46020   9.083  11.448   9.745 -0.6786  0.6354  0.0542
  334MOL0     C46021   9.197  11.407   9.825  0.9289  1.0246  0.2325
  334MOL0     C46022   9.191  11.268   9.885 -0.6030 -0.0005  0.1230
  334MOL0     H46023   9.742  11.427   9.914  0.1511  0.8261  0.0514
  334MOL0     H46024   9.903  11.329  10.069 -1.1125 -1.3042  0.9695
  334MOL0     H46025  10.032  11.244  10.209  5.2290 -1.5245  3.6637
  334MOL0     H46026   9.948  11.084  10.241 -0.6108  0.4794 -0.4335
  334MOL0     H46027  10.017  11.254  10.467  4.2210 -2.2295  5.3669
  334MOL0     H46028  10.011  11.078  10.457 -1.0255 -0.5446 -1.0856
  334MOL0     H46029  10.234  11.220  10.312  0.3959  0.5669  0.2218
  334MOL0     H46030  10.236  11.174  10.488 -1.1165 -0.0902 -0.4201
  334MOL0     H46031  10.176  10.942  10.423 -3.2830  0.1832 -1.6969
  334MOL0     H46032  10.155  10.996  10.259  0.8893  1.1807 -1.6743
  334MOL0     H46033  10.435  11.019  10.372  1.1872 -2.8977 -0.0783
  334MOL0     H46034  10.370  11.046  10.207  3.0762 -0.7763  0.0728
  334MOL0     H46035  10.437  10.809  10.377  1.6939  0.4743  0.1664
  334MOL0     H46036  10.314  10.780  10.255  0.5136 -0.1679  0.7133
  334MOL0     H46037  10.603  10.885  10.207 -1.1757  1.7332  0.1213
  334MOL0     H46038  10.472  10.847  10.082 -2.3982  2.0064  0.7902
  334MOL0     H46039  10.466  10.620  10.196 -0.1214 -0.0150 -2.4713
  334MOL0     H46040  10.603  10.655  10.087  2.0642 -4.1749  1.0766
  334MOL0     H46041  10.843  10.747  10.191 -2.4828 -0.0481 -2.0164
  334MOL0     H46042  11.062  10.575  10.281  0.0308 -1.4402 -0.3345
  334MOL0     H46043  11.029  10.485  10.429  0.0798  0.0913  1.3730
  334MOL0     H46044  11.020  10.792  10.403  1.8563 -0.2544 -0.9309
  334MOL0     H46045  10.997  10.703  10.562 -2.9356  1.9292 -0.1772
  334MOL0     H46046  11.215  10.758  10.590  1.1610  1.1865 -1.2957
  334MOL0     H46047  11.232  10.603  10.514 -0.2144  0.2346  1.5846
  334MOL0     H46048  11.254  10.725  10.297 -0.8993 -1.9781 -0.0378
  334MOL0     H46049  11.303  10.868  10.395 -3.1069  0.0358  1.7084
  334MOL0     H46050  11.675  10.653  10.477  1.0068  2.7027  1.2576
  334MOL0     H46051  11.990  10.676  10.329 -2.3216 -0.7589 -4.1729
  334MOL0     H46052  11.895  10.556  10.401  3.0273 -0.0321 -2.7830
  334MOL0     H46053  11.897  10.721  10.473  0.2435 -0.1851  0.5694
  334MOL0     H46054  11.934  10.814   9.784  0.8804 -2.5130  1.5055
  334MOL0     H46055  12.158  10.844   9.670  2.8279  1.2575  0.0691
  334MOL0     H46056  12.435  10.801   9.781  1.3979  0.0605 -0.5583
  334MOL0     H46057  12.383  10.883   9.627 -1.9076 -0.9281  1.7074
  334MOL0     H46058  12.559  11.039   9.671 -0.5145 -0.4549  1.1437
  334MOL0     H46059  12.631  10.928   9.790  1.4492  2.3323 -0.3138
  334MOL0     H46060  12.598  10.874   9.497  2.5049  0.1565 -2.5028
  334MOL0     H46061  12.645  10.757   9.627 -0.3529 -0.3518 -2.0249
  334MOL0     H46062  12.856  10.904   9.663  0.3819  1.4737  0.5398
  334MOL0     H46063  12.787  11.028   9.553  0.7503 -0.4498 -1.0811
  334MOL0     H46064  12.866  10.763   9.456 -2.9068  0.5642  1.4400
  334MOL0     H46065  12.777  10.887   9.359 -0.6608  1.5085 -0.2181
  334MOL0     H46066  12.947  11.049   9.417 -2.8140 -1.5193 -3.4281
  334MOL0     H46067  13.007  10.928   9.305 -1.2385  1.9636 -2.0531
  334MOL0     H46068  13.095  10.803   9.510  0.2452 -0.5909  0.0008
  334MOL0     H46069  13.078  10.959   9.604 -0.7806  2.0075 -0.7509
  334MOL0     H46070  13.305  10.975   9.518  0.0146  1.5005  0.4631
  334MOL0     H46071  13.211  11.075   9.421 -1.3704 -0.0877  0.7114
  334MOL0     H46072  12.274  11.111   9.985 -0.1434  0.1809 -0.6502
  334MOL0     H46073  12.038  11.082  10.097  1.2494  0.0727  0.3372
  334MOL0     H46074  11.613  10.823  10.020  0.1876 -0.4276  0.3961
  334MOL0     H46075  11.418  10.780  10.145  1.1850  0.8071 -2.4544
  334MOL0     H46076   9.621  11.360  10.401  2.7522 -0.0391  1.2697
  334MOL0     H46077   9.462  11.452  10.250 -0.0315 -1.0728  1.2875
  334MOL0     H46078   9.400  11.678   9.780 -0.3289  0.3156 -1.9271
  334MOL0     H46079   9.206  11.765   9.677  0.7031  0.6415 -0.7898
  334MOL0     H46080   8.885  11.481   9.509 -0.4082  1.4102 -0.9779
  334MOL0     H46081   8.815  11.497   9.672  1.0211  1.3282  1.4075
  334MOL0     H46082   8.677  11.689   9.597 -1.4830  0.5514 -1.2867
  334MOL0     H46083   8.668  11.543   9.500  1.0243 -0.3769 -0.1296
  334MOL0     H46084   8.858  11.774   9.430 -1.4194  1.7916  1.8173
  334MOL0     H46085   8.798  11.631   9.329 -2.4913 -0.8483  1.3962
  334MOL0     H46086   8.609  11.853   9.410 -1.5498 -0.2647 -0.2044
  334MOL0     H46087   8.578  11.718   9.315  0.6519  0.5893 -1.7621
  334MOL0     H46088   8.789  11.930   9.024 -1.9807  1.6205 -0.3770
  334MOL0     H46089   9.000  11.382   9.725  1.7134 -2.3197 -0.9026
  334MOL0     H46090   9.256  11.195   9.837  1.1038  1.8690 -0.5594
  334MOL0     H46091   9.233  11.264   9.986  0.7006 -2.4755 -0.4589
  334MOL0     H46092   9.090  11.227   9.898 -0.9867  0.7438 -0.3914
  335MOL0     O46093  10.026   4.563  10.154 -0.5836 -0.5320  0.2163
  335MOL0     C46094   9.946   4.607  10.242 -0.0905  0.3714  0.2408
  335MOL0     O46095   9.983   4.675  10.357 -0.2748 -0.2675  0.1325
  335MOL0     C46096  10.114   4.705  10.376 -0.8157 -0.6896  0.5193
  335MOL0     C46097  10.202   4.603  10.398 -0.5044  0.2425  0.1944
  335MOL0     C46098  10.340   4.624  10.439 -0.8961 -0.2069  0.2463
  335MOL0     C46099  10.381   4.757  10.461  1.0234 -0.3360  0.6662
  335MOL0     O46100  10.507   4.783  10.492 -0.5581 -0.5233  0.0237
  335MOL0     C46101  10.576   4.682  10.570 -0.1712  0.6421 -0.1912
  335MOL0     C46102  10.699   4.737  10.637 -0.1652 -0.2073 -0.0956
  335MOL0     C46103  10.812   4.629  10.661  0.4354 -0.1503  0.0241
  335MOL0     C46104  10.928   4.704  10.733  0.2607 -0.7875 -0.2019
  335MOL0     C46105  11.048   4.620  10.762 -0.5704  0.8534  0.1467
  335MOL0     C46106  11.016   4.503  10.859 -0.5572 -0.0005  0.4452
  335MOL0     C46107  11.140   4.417  10.858  0.5096  0.1311  0.4068
  335MOL0     C46108  11.120   4.288  10.931 -0.0719 -0.0359 -0.0837
  335MOL0     N46109  11.231   4.222  10.998 -0.1124 -0.0852  0.6371
  335MOL0     C46110  11.359   4.214  10.946  0.5461 -0.0055 -0.4632
  335MOL0     C46111  11.437   4.169  11.050 -1.1136 -0.3913  0.6809
  335MOL0     C46112  11.593   4.142  11.053  0.7756 -0.8198  0.1239
  335MOL0     C46113  11.640   4.260  11.142  0.9116 -0.9853 -1.2022
  335MOL0     C46114  11.793   4.253  11.136  0.9640 -0.1576 -0.4292
  335MOL0     C46115  11.842   4.190  11.267 -0.0015 -0.3919 -0.9358
  335MOL0     O46116  11.986   4.184  11.270  0.3000  0.3223  0.8674
  335MOL0     C46117  12.051   4.190  11.390 -0.1208 -1.1757  0.6473
  335MOL0     C46118  11.999   4.166  11.521  0.1245 -0.7543  0.3800
  335MOL0     C46119  12.081   4.182  11.633 -0.3859 -0.7936 -0.4170
  335MOL0     C46120  12.023   4.150  11.764  0.4025 -0.0647 -0.0399
  335MOL0     C46121  12.209   4.227  11.619 -0.6148 -0.2445  0.4544
  335MOL0     C46122  12.302   4.230  11.734  0.4946 -0.7999  0.4488
  335MOL0     O46123  12.381   4.343  11.770  0.9689  0.4551 -0.4140
  335MOL0     C46124  12.333   4.469  11.733  1.0550 -0.5113  1.0646
  335MOL0     C46125  12.224   4.530  11.790 -0.8960 -0.8656 -0.4702
  335MOL0     C46126  12.181   4.659  11.745  0.3523  0.9512  0.9248
  335MOL0     C46127  12.247   4.726  11.638 -0.2162  0.3036  0.1303
  335MOL0     O46128  12.207   4.853  11.592 -0.1381  0.6259 -0.0170
  335MOL0     C46129  12.303   4.948  11.529  0.1169  0.0293  0.2356
  335MOL0     C46130  12.236   5.071  11.471  0.5162 -0.1378 -0.1240
  335MOL0     C46131  12.158   5.151  11.575 -0.5680 -0.5733  0.4955
  335MOL0     C46132  12.069   5.253  11.494  0.7769  0.4103 -0.0131
  335MOL0     C46133  11.971   5.318  11.593 -0.9960  0.4585  0.1169
  335MOL0     C46134  12.044   5.424  11.676 -0.8896 -0.4845  0.0381
  335MOL0     C46135  11.953   5.511  11.773  0.5712 -0.3101 -0.1612
  335MOL0     C46136  11.805   5.552  11.734  0.7096  0.4174  0.1809
  335MOL0    Cl46137  11.742   5.628  11.888  0.4765  0.0925  0.0733
  335MOL0     C46138  12.344   4.652  11.572 -0.3361 -0.1470  0.0095
  335MOL0     C46139  12.393   4.530  11.627 -0.0231  0.4435 -0.4817
  335MOL0     O46140  12.324   4.121  11.775 -0.8169 -0.0471  0.2716
  335MOL0     C46141  12.270   4.251  11.494  0.5259 -1.3397  0.5765
  335MOL0     C46142  12.184   4.237  11.386 -0.3147 -0.2726 -0.5364
  335MOL0     N46143  11.360   4.158  11.161  0.5525  0.2526  0.3990
  335MOL0     N46144  11.233   4.189  11.137 -0.1282 -0.1965  0.5385
  335MOL0     C46145  10.284   4.857  10.456 -0.5078 -0.0161 -0.4364
  335MOL0     C46146  10.154   4.831  10.401  0.0314 -0.2728 -0.2454
  335MOL0     C46147   9.796   4.587  10.205 -0.5020 -0.1394  0.9763
  335MOL0     C46148   9.688   4.647  10.279 -0.8886 -0.1955 -0.1380
  335MOL0     C46149   9.552   4.626  10.256 -0.2095 -0.4870  0.0257
  335MOL0     C46150   9.508   4.567  10.143 -1.3404  0.6822  1.1740
  335MOL0     O46151   9.374   4.558  10.122 -0.0918  0.0595  0.4236
  335MOL0     C46152   9.334   4.559   9.977 -0.0821 -0.3721 -0.3207
  335MOL0     C46153   9.195   4.633   9.970  0.7784 -0.1942 -0.4081
  335MOL0     C46154   9.098   4.574  10.074 -0.3417  0.5419 -0.3317
  335MOL0     C46155   8.958   4.621  10.062 -0.8050 -0.7624 -0.3600
  335MOL0     C46156   8.890   4.581   9.938  0.2210  0.6401  0.4790
  335MOL0     C46157   8.834   4.557   9.836  0.5979 -0.4784  0.2172
  335MOL0     C46158   9.613   4.519  10.054 -0.4338 -0.8591  0.2905
  335MOL0     C46159   9.753   4.510  10.089 -0.3536 -0.7739 -0.6106
  335MOL0     C46160   9.841   4.428   9.997 -0.0132  0.3414  0.7780
  335MOL0     H46161  10.169   4.503  10.374 -2.5240  1.0415 -0.6143
  335MOL0     H46162  10.411   4.542  10.440 -1.5620 -0.8302 -1.2968
  335MOL0     H46163  10.615   4.603  10.505 -0.4702 -0.6099  1.1225
  335MOL0     H46164  10.517   4.645  10.653  0.4829 -1.1083 -0.4728
  335MOL0     H46165  10.748   4.805  10.566  0.7877  2.2956  2.7071
  335MOL0     H46166  10.670   4.798  10.724 -2.6058  0.1237 -1.0654
  335MOL0     H46167  10.769   4.555  10.729 -1.1966 -2.6151 -3.3494
  335MOL0     H46168  10.848   4.578  10.571  1.2507  0.2757  0.1034
  335MOL0     H46169  10.952   4.792  10.672 -2.4726 -0.9386 -1.6544
  335MOL0     H46170  10.892   4.739  10.831 -1.7779 -1.2547 -0.7301
  335MOL0     H46171  11.126   4.677  10.811  2.5750 -0.7592 -2.5615
  335MOL0     H46172  11.083   4.585  10.664  1.3482 -0.8054  1.3394
  335MOL0     H46173  10.995   4.538  10.961 -2.0596 -0.9940  0.5039
  335MOL0     H46174  10.928   4.451  10.823  0.7926 -1.3630 -1.0380
  335MOL0     H46175  11.219   4.479  10.901  0.4069  0.4116  0.1949
  335MOL0     H46176  11.161   4.384  10.755  1.6104  2.2906 -0.1131
  335MOL0     H46177  11.067   4.321  11.021 -2.1494 -0.8484 -0.9517
  335MOL0     H46178  11.061   4.214  10.877 -0.8076 -0.9823  1.9298
  335MOL0     H46179  11.404   4.240  10.850  2.0508  1.6928  0.6382
  335MOL0     H46180  11.635   4.144  10.952 -2.4832  0.7650 -1.3663
  335MOL0     H46181  11.605   4.045  11.102 -0.3680 -1.2333 -0.3660
  335MOL0     H46182  11.617   4.351  11.086  0.1418 -0.3564  0.0853
  335MOL0     H46183  11.600   4.253  11.244  0.9524 -0.9081 -1.1808
  335MOL0     H46184  11.823   4.187  11.054  1.5508  0.6708 -0.8954
  335MOL0     H46185  11.827   4.357  11.127  1.0373  0.1379  2.4871
  335MOL0     H46186  11.810   4.250  11.352  2.9362  1.3459 -0.9229
  335MOL0     H46187  11.795   4.093  11.281  0.9987 -0.3846  4.3722
  335MOL0     H46188  11.900   4.123  11.530  1.0261 -3.6406 -1.8741
  335MOL0     H46189  11.918   4.120  11.762  0.3467  0.1653 -1.2165
  335MOL0     H46190  12.019   4.241  11.824  3.2383 -0.2288  0.5407
  335MOL0     H46191  12.079   4.069  11.813 -0.6145 -1.6878 -1.4769
  335MOL0     H46192  12.156   4.483  11.860  0.1172 -0.0619  1.1156
  335MOL0     H46193  12.113   4.722  11.801 -0.8591  0.8907 -0.4099
  335MOL0     H46194  12.364   4.999  11.604 -2.9573 -0.0619  3.0449
  335MOL0     H46195  12.368   4.903  11.454 -0.9386 -1.0917 -0.0463
  335MOL0     H46196  12.320   5.128  11.431  2.4018 -0.4688  3.0633
  335MOL0     H46197  12.164   5.046  11.392 -2.5402  0.8976  2.1609
  335MOL0     H46198  12.225   5.210  11.638 -4.5118  2.8503  1.9162
  335MOL0     H46199  12.093   5.086  11.634 -0.2280 -0.2150  1.2746
  335MOL0     H46200  12.011   5.197  11.420 -1.8848  0.8146  1.6468
  335MOL0     H46201  12.129   5.326  11.439  2.4059  0.9960  2.3839
  335MOL0     H46202  11.890   5.366  11.537 -0.1604  1.2123 -0.4680
  335MOL0     H46203  11.923   5.238  11.650 -1.6344 -0.0385 -1.0662
  335MOL0     H46204  12.088   5.490  11.601 -0.6767 -0.9465 -0.2492
  335MOL0     H46205  12.129   5.385  11.731 -1.2088  1.4815  2.0736
  335MOL0     H46206  12.001   5.605  11.802 -2.2684  1.0791  0.3508
  335MOL0     H46207  11.950   5.452  11.865 -0.5516 -0.0004  0.0162
  335MOL0     H46208  11.751   5.459  11.713  0.7131  0.0624  1.6383
  335MOL0     H46209  11.811   5.625  11.652  1.7068 -1.4682 -1.5012
  335MOL0     H46210  12.397   4.686  11.484 -0.0237 -0.6007  0.0196
  335MOL0     H46211  12.481   4.480  11.587 -0.2408  0.2097 -0.6765
  335MOL0     H46212  12.373   4.286  11.497  0.6564 -1.7406  0.8006
  335MOL0     H46213  12.228   4.264  11.290  0.8297  1.4057  0.4139
  335MOL0     H46214  10.307   4.958  10.487 -2.3626 -0.4656  2.8373
  335MOL0     H46215  10.077   4.907  10.391  0.3430 -0.1735 -2.1962
  335MOL0     H46216   9.709   4.710  10.365  0.7405 -0.5645 -0.2353
  335MOL0     H46217   9.474   4.663  10.321 -1.2718  1.8729 -2.4007
  335MOL0     H46218   9.416   4.592   9.912  2.1930  2.1095  3.4276
  335MOL0     H46219   9.306   4.458   9.949 -2.1499  0.4738 -1.5100
  335MOL0     H46220   9.142   4.611   9.877 -1.6487 -2.4915  1.3643
  335MOL0     H46221   9.212   4.741   9.978  1.4061 -0.1543 -1.9908
  335MOL0     H46222   9.098   4.465  10.065 -1.0583  0.3330  1.8012
  335MOL0     H46223   9.135   4.597  10.174  2.4220 -1.5182 -0.7466
  335MOL0     H46224   8.958   4.730  10.063  0.5382 -0.7272 -1.1888
  335MOL0     H46225   8.906   4.591  10.153  1.4740  0.5993  1.5026
  335MOL0     H46226   8.782   4.537   9.745 -1.9818 -1.2474  1.7604
  335MOL0     H46227   9.583   4.466   9.965  2.9521 -0.0110 -1.5381
  335MOL0     H46228   9.891   4.362  10.069 -2.1151  2.4726  4.5643
  335MOL0     H46229   9.783   4.353   9.943 -0.8145  0.6515  1.1870
  335MOL0     H46230   9.918   4.481   9.942 -0.1698  1.4577  1.5999
  336MOL0     O46231   4.044   2.562   7.640 -0.0829 -0.6536  0.3117
  336MOL0     C46232   4.023   2.598   7.754 -0.4202 -0.4406 -0.0985
  336MOL0     O46233   4.118   2.593   7.854  0.1712 -0.1708 -0.6101
  336MOL0     C46234   4.247   2.596   7.826  0.3703 -0.1188 -0.6582
  336MOL0     C46235   4.309   2.651   7.717  0.0258  0.4273 -0.0986
  336MOL0     C46236   4.445   2.658   7.697 -0.4062  0.6338  0.7719
  336MOL0     C46237   4.535   2.609   7.795  0.2071 -0.6885 -0.8676
  336MOL0     O46238   4.663   2.585   7.775 -0.4597  0.0582  0.4029
  336MOL0     C46239   4.686   2.508   7.651  0.9467 -0.0122  0.0005
  336MOL0     C46240   4.817   2.429   7.651 -0.3352  0.3164 -0.0886
  336MOL0     C46241   4.936   2.522   7.645  0.4218  0.4877  0.7010
  336MOL0     C46242   5.073   2.449   7.660  1.0174 -0.5063 -0.1529
  336MOL0     C46243   5.185   2.547   7.643  1.0535 -0.1496 -0.3566
  336MOL0     C46244   5.322   2.477   7.607  0.2896  0.5582 -0.4423
  336MOL0     C46245   5.442   2.562   7.605  0.6857  0.0748  0.1831
  336MOL0     C46246   5.560   2.486   7.544  0.5316  0.5330  0.6047
  336MOL0     N46247   5.685   2.557   7.548 -0.6988  0.2718  0.1227
  336MOL0     C46248   5.714   2.662   7.633 -0.1969 -0.6177  1.0104
  336MOL0     C46249   5.852   2.676   7.635  0.4048 -0.1155 -0.1361
  336MOL0     C46250   5.930   2.781   7.714 -0.5828 -0.1389  0.5313
  336MOL0     C46251   6.068   2.820   7.667  0.3845  0.0696  0.5781
  336MOL0     C46252   6.146   2.934   7.754  0.3598  0.1199  0.2895
  336MOL0     C46253   6.159   2.906   7.907 -0.3665 -0.1440  0.2804
  336MOL0     O46254   6.246   2.795   7.936  0.2052  0.7476 -0.4507
  336MOL0     C46255   6.385   2.812   7.933  0.8259 -0.3073 -0.7481
  336MOL0     C46256   6.446   2.928   7.899 -0.5379 -0.5780 -0.0250
  336MOL0     C46257   6.591   2.947   7.911 -0.5204  0.1629 -0.3791
  336MOL0     C46258   6.637   3.088   7.879  0.5435 -0.2322  0.3928
  336MOL0     C46259   6.667   2.832   7.950 -0.0333  0.0634 -0.6243
  336MOL0     C46260   6.807   2.839   7.970 -1.0543  0.6804 -0.6959
  336MOL0     O46261   6.862   2.715   8.003  0.4585  0.3746  0.3897
  336MOL0     C46262   6.998   2.687   7.991 -0.4654  1.5793  0.8119
  336MOL0     C46263   7.024   2.561   8.025  0.0868  0.3262 -0.5643
  336MOL0     C46264   7.152   2.516   8.029  0.1462 -0.6341  0.1235
  336MOL0     C46265   7.263   2.594   7.994  0.7967  0.2491 -0.1174
  336MOL0     O46266   7.390   2.536   8.002  0.9363  0.6924  0.1343
  336MOL0     C46267   7.508   2.616   7.995  0.6547 -0.3264  0.8916
  336MOL0     C46268   7.631   2.521   8.002 -0.4768 -0.6383 -0.0560
  336MOL0     C46269   7.754   2.598   7.980 -0.7455  0.3343 -0.3241
  336MOL0     C46270   7.875   2.504   7.950 -0.2922 -0.4967 -1.0843
  336MOL0     C46271   7.999   2.593   7.941 -0.1739 -0.4659  0.1768
  336MOL0     C46272   8.126   2.522   7.897  0.8663  0.1613  0.6250
  336MOL0     C46273   8.239   2.625   7.926 -0.0063 -0.4863 -0.5873
  336MOL0     C46274   8.377   2.557   7.898 -0.5277  0.7961 -0.4055
  336MOL0    Cl46275   8.505   2.674   7.889 -0.0871 -0.0237  0.4502
  336MOL0     C46276   7.228   2.719   7.947 -0.5799 -0.1516  0.6406
  336MOL0     C46277   7.099   2.765   7.937 -0.5159  0.2342 -0.8558
  336MOL0     O46278   6.867   2.945   7.971 -0.4216  0.2755  0.6904
  336MOL0     C46279   6.601   2.707   7.961  0.4228 -0.3022 -1.0353
  336MOL0     C46280   6.463   2.697   7.956  0.4636 -0.8117  0.7102
  336MOL0     N46281   5.904   2.576   7.556  0.1478  0.7095 -0.3101
  336MOL0     N46282   5.806   2.509   7.504  0.8258 -0.9319 -0.0514
  336MOL0     C46283   4.481   2.562   7.915  0.2096 -0.4958  0.7182
  336MOL0     C46284   4.339   2.567   7.928  0.1204  0.7754  0.3542
  336MOL0     C46285   3.892   2.653   7.781  0.0581  0.8379 -0.6034
  336MOL0     C46286   3.889   2.769   7.864 -0.1080  0.4079  0.2670
  336MOL0     C46287   3.769   2.830   7.900 -0.3243  0.2226  0.5204
  336MOL0     C46288   3.655   2.784   7.841 -0.6569  0.8115  0.2609
  336MOL0     O46289   3.545   2.851   7.869  0.4584  0.4400  0.2962
  336MOL0     C46290   3.429   2.770   7.899 -0.2211 -0.5308  0.4881
  336MOL0     C46291   3.386   2.808   8.036  0.7427 -0.3623  0.2323
  336MOL0     C46292   3.344   2.956   8.054  0.1639  0.2568  0.3433
  336MOL0     C46293   3.194   2.952   8.048 -0.7781 -0.2299 -0.1351
  336MOL0     C46294   3.135   3.085   8.032 -0.6651  0.3802 -0.7504
  336MOL0     C46295   3.088   3.195   8.009 -0.4108 -0.9038 -0.3740
  336MOL0     C46296   3.656   2.677   7.753 -0.0191 -1.1043  0.1884
  336MOL0     C46297   3.773   2.605   7.732 -0.6803  0.7065 -0.4379
  336MOL0     C46298   3.765   2.473   7.660 -0.3178 -0.2834 -0.4719
  336MOL0     H46299   4.246   2.693   7.640  2.6718  2.8819 -1.0894
  336MOL0     H46300   4.477   2.695   7.600 -1.3441 -5.1609 -2.2173
  336MOL0     H46301   4.682   2.574   7.565  1.7465 -0.0198 -0.0483
  336MOL0     H46302   4.597   2.447   7.634 -3.0127  4.8498  0.8719
  336MOL0     H46303   4.822   2.367   7.740  0.4174  0.9629  0.3371
  336MOL0     H46304   4.820   2.352   7.573  2.7055 -1.5518  1.6707
  336MOL0     H46305   4.927   2.583   7.555 -1.1881 -0.4889  0.1496
  336MOL0     H46306   4.939   2.592   7.729  2.7673 -0.1862  1.2491
  336MOL0     H46307   5.069   2.410   7.762 -0.1937  1.2335  0.5079
  336MOL0     H46308   5.086   2.373   7.582  2.8588  1.5577 -1.9929
  336MOL0     H46309   5.197   2.607   7.733  2.8392 -1.9910  0.7274
  336MOL0     H46310   5.151   2.605   7.557  0.9527 -1.8408 -1.5206
  336MOL0     H46311   5.339   2.382   7.658 -0.1061  0.6279 -0.1787
  336MOL0     H46312   5.310   2.434   7.507 -1.7466 -1.2207  0.4950
  336MOL0     H46313   5.456   2.602   7.706 -2.9597 -1.5640  1.5201
  336MOL0     H46314   5.426   2.652   7.544  2.8109  0.0521 -0.4711
  336MOL0     H46315   5.557   2.385   7.586 -1.2072 -0.1600 -1.0332
  336MOL0     H46316   5.535   2.467   7.439  1.7407 -1.1882  0.5751
  336MOL0     H46317   5.649   2.726   7.693  2.1165  2.7308  0.2314
  336MOL0     H46318   5.943   2.739   7.814 -0.3750 -1.9205 -0.2077
  336MOL0     H46319   5.877   2.877   7.724  3.1353  2.0033  1.9841
  336MOL0     H46320   6.134   2.732   7.667  1.4213  0.8039 -1.2741
  336MOL0     H46321   6.059   2.846   7.561  0.2149  0.2961  0.6494
  336MOL0     H46322   6.243   2.947   7.704  0.9926 -1.7103  0.9713
  336MOL0     H46323   6.098   3.031   7.739  0.5536  0.2043  0.2114
  336MOL0     H46324   6.194   3.003   7.944  0.8672 -0.9962  1.4711
  336MOL0     H46325   6.067   2.897   7.966  0.0266  0.4131  0.9940
  336MOL0     H46326   6.401   3.018   7.858  3.0376  2.3144  1.7924
  336MOL0     H46327   6.698   3.091   7.788 -0.8410  0.2413 -0.5465
  336MOL0     H46328   6.700   3.125   7.960 -0.6270  1.2389  0.6629
  336MOL0     H46329   6.555   3.160   7.877  0.8106  0.1196  1.6974
  336MOL0     H46330   6.936   2.506   8.058 -0.5240 -0.1106 -2.7348
  336MOL0     H46331   7.165   2.416   8.071  0.0521 -1.0000 -0.6982
  336MOL0     H46332   7.511   2.671   7.900 -0.3313  1.9143  2.0932
  336MOL0     H46333   7.509   2.695   8.070 -0.1019 -0.2219  0.8028
  336MOL0     H46334   7.632   2.465   8.095  1.4774  0.2974  0.5513
  336MOL0     H46335   7.623   2.447   7.921  0.1205 -0.7102 -0.0526
  336MOL0     H46336   7.786   2.657   8.066 -1.0907  0.1685 -0.0800
  336MOL0     H46337   7.746   2.665   7.893  3.4827 -1.1874 -2.1559
  336MOL0     H46338   7.871   2.446   7.858  1.0034  0.5905 -1.8685
  336MOL0     H46339   7.895   2.437   8.035  2.3914  1.1072 -0.3245
  336MOL0     H46340   7.974   2.679   7.877 -0.9913  0.6530  1.9011
  336MOL0     H46341   8.016   2.643   8.037  0.2188  1.5191 -0.8744
  336MOL0     H46342   8.127   2.505   7.789  2.5960  2.3371  0.2278
  336MOL0     H46343   8.147   2.428   7.949 -3.7748  0.0680  2.8336
  336MOL0     H46344   8.247   2.656   8.030  0.3265 -0.2738 -0.6754
  336MOL0     H46345   8.225   2.708   7.856  0.7828 -0.7337 -1.0458
  336MOL0     H46346   8.375   2.485   7.816  1.3535 -1.6761  1.5737
  336MOL0     H46347   8.396   2.500   7.989 -2.9223 -0.6644 -0.7517
  336MOL0     H46348   7.302   2.785   7.903 -2.0677  1.5076  0.4901
  336MOL0     H46349   7.086   2.852   7.874 -1.0198  0.6118 -0.2466
  336MOL0     H46350   6.660   2.617   7.981  0.4741 -0.6594 -2.6134
  336MOL0     H46351   6.401   2.611   7.979 -1.6756  1.3093  3.7761
  336MOL0     H46352   4.538   2.541   8.004  0.1763  2.1194  1.4484
  336MOL0     H46353   4.300   2.532   8.023 -1.9464  2.4595  0.2125
  336MOL0     H46354   3.976   2.817   7.908  0.6349  0.5468 -1.2924
  336MOL0     H46355   3.775   2.893   7.988  0.4141 -2.5764  2.5953
  336MOL0     H46356   3.358   2.785   7.818  1.5520  0.9246 -0.8763
  336MOL0     H46357   3.453   2.663   7.905  2.8436  0.1445  2.4630
  336MOL0     H46358   3.467   2.793   8.108  0.4211 -1.1450  0.4507
  336MOL0     H46359   3.302   2.740   8.057 -0.6018  0.9571 -0.6988
  336MOL0     H46360   3.391   2.994   8.145  1.6830 -1.4786  0.3449
  336MOL0     H46361   3.378   3.029   7.979  1.2366  1.0380  1.5385
  336MOL0     H46362   3.149   2.907   8.136 -1.1678 -0.3087 -0.3699
  336MOL0     H46363   3.168   2.895   7.958  2.6417 -0.0152 -1.4237
  336MOL0     H46364   3.040   3.289   7.993  0.8737 -0.6508 -3.3473
  336MOL0     H46365   3.566   2.656   7.697  0.9709  1.1340 -2.4586
  336MOL0     H46366   3.800   2.396   7.729 -0.1094 -1.8999 -2.3150
  336MOL0     H46367   3.663   2.453   7.625  0.5823 -0.1137 -3.4892
  336MOL0     H46368   3.831   2.469   7.574  1.5636 -4.0182  0.9492
  337MOL0     O46369   8.432   4.078   3.484  0.3312  0.6375 -0.4378
  337MOL0     C46370   8.418   4.100   3.603  0.8855  0.0765 -0.3683
  337MOL0     O46371   8.331   4.192   3.652 -0.7430 -0.3635 -0.1284
  337MOL0     C46372   8.268   4.285   3.566 -0.1532  0.0389 -0.1499
  337MOL0     C46373   8.326   4.408   3.547 -0.9462 -0.7335 -0.8552
  337MOL0     C46374   8.253   4.510   3.480  0.0295 -0.7160  0.6242
  337MOL0     C46375   8.123   4.486   3.432 -0.9353 -0.5257  0.0712
  337MOL0     O46376   8.075   4.577   3.341 -0.0912 -0.4023 -0.4878
  337MOL0     C46377   7.941   4.562   3.302  0.5114 -0.2386 -0.2209
  337MOL0     C46378   7.879   4.681   3.229 -0.0470 -0.1892 -0.5598
  337MOL0     C46379   7.739   4.651   3.177  0.3015 -0.0771 -0.3670
  337MOL0     C46380   7.666   4.783   3.140  0.8408  0.3008  0.9521
  337MOL0     C46381   7.543   4.744   3.038  0.6126 -0.4426  0.6023
  337MOL0     C46382   7.494   4.859   2.944  0.7265  0.6534  0.8545
  337MOL0     C46383   7.476   4.995   3.005 -0.3539  1.1753  0.4162
  337MOL0     C46384   7.415   5.078   2.903 -0.5131  0.5000  0.4127
  337MOL0     N46385   7.355   5.196   2.961  0.4233 -0.1185 -0.0989
  337MOL0     C46386   7.425   5.308   3.001  0.3993  0.1719 -0.2902
  337MOL0     C46387   7.320   5.394   3.038  0.2928  0.2234 -0.2644
  337MOL0     C46388   7.320   5.522   3.113 -0.0151  0.2647 -0.1135
  337MOL0     C46389   7.261   5.639   3.033  0.7687  0.0253 -0.5530
  337MOL0     C46390   7.285   5.769   3.111 -0.0800  0.4257  0.8746
  337MOL0     C46391   7.251   5.896   3.030  0.2255 -0.5177  0.2482
  337MOL0     O46392   7.338   5.903   2.911  0.2729  0.1248 -0.2343
  337MOL0     C46393   7.466   5.937   2.947  0.5932  0.2061 -0.4625
  337MOL0     C46394   7.493   6.050   3.027  0.4668 -0.0146 -0.3965
  337MOL0     C46395   7.628   6.081   3.064  0.5455 -0.5481  1.0702
  337MOL0     C46396   7.648   6.206   3.158 -0.0965 -0.5143  0.3302
  337MOL0     C46397   7.724   5.984   3.036 -0.5543  0.0871  0.4890
  337MOL0     C46398   7.862   6.000   3.093  0.4703 -0.3506 -0.2723
  337MOL0     O46399   7.911   6.123   3.081 -0.0954 -1.1691  0.4169
  337MOL0     C46400   8.041   6.151   3.094  0.4041 -0.1778 -0.7681
  337MOL0     C46401   8.080   6.244   3.189 -0.1242 -0.0818 -0.1302
  337MOL0     C46402   8.212   6.283   3.204 -1.3041  0.2109 -0.1127
  337MOL0     C46403   8.310   6.245   3.111 -0.0550 -0.4492 -0.2654
  337MOL0     O46404   8.432   6.301   3.122 -0.4636  0.0867  0.1587
  337MOL0     C46405   8.498   6.362   3.011  0.2904 -0.3035  0.4319
  337MOL0     C46406   8.632   6.437   3.049  1.0336 -0.1455  0.5314
  337MOL0     C46407   8.606   6.591   3.042 -0.0973  0.3161 -0.6588
  337MOL0     C46408   8.704   6.683   3.121 -0.5237 -0.0174  0.1205
  337MOL0     C46409   8.840   6.711   3.042  0.2427 -0.3499  0.3325
  337MOL0     C46410   8.929   6.784   3.138  0.5636  0.3011  0.3483
  337MOL0     C46411   9.067   6.810   3.079  0.7224 -0.2787  0.4512
  337MOL0     C46412   9.148   6.913   3.163  0.1050 -0.0148  0.4606
  337MOL0    Cl46413   9.112   6.900   3.341 -0.0584  0.6503  0.1728
  337MOL0     C46414   8.270   6.154   3.013 -0.2111 -0.4451  0.6535
  337MOL0     C46415   8.140   6.111   3.003  0.4352  0.6987 -0.0448
  337MOL0     O46416   7.924   5.902   3.129  0.6982  0.1742  0.0260
  337MOL0     C46417   7.690   5.876   2.952 -0.6300  0.8973 -0.0190
  337MOL0     C46418   7.563   5.854   2.904 -0.1660 -0.0869 -0.7577
  337MOL0     N46419   7.198   5.331   3.019  0.6062 -0.4500 -0.3395
  337MOL0     N46420   7.216   5.214   2.975 -0.0978 -0.0007 -0.0410
  337MOL0     C46421   8.068   4.362   3.455  0.0551 -0.2946  0.0746
  337MOL0     C46422   8.138   4.264   3.531  0.0853 -0.3121 -0.0297
  337MOL0     C46423   8.491   4.034   3.708 -0.6572  0.1144 -0.6326
  337MOL0     C46424   8.495   4.092   3.839 -1.0104  0.2865 -0.0621
  337MOL0     C46425   8.554   4.039   3.943 -0.9579 -1.0041 -1.3926
  337MOL0     C46426   8.616   3.917   3.935 -0.4230 -0.0986  0.5330
  337MOL0     O46427   8.664   3.879   4.057 -0.0363 -0.3310 -0.3294
  337MOL0     C46428   8.732   3.757   4.045  0.5390 -0.3725 -0.0965
  337MOL0     C46429   8.798   3.727   4.179  0.4265  0.2037  0.0988
  337MOL0     C46430   8.859   3.588   4.178 -0.5291 -0.3916 -0.4883
  337MOL0     C46431   8.952   3.563   4.293  0.3957  0.5118  0.0532
  337MOL0     C46432   9.028   3.448   4.251 -0.2008 -0.0989  0.2756
  337MOL0     C46433   9.101   3.355   4.214  0.9795 -0.5190  0.8692
  337MOL0     C46434   8.632   3.859   3.802 -0.7673  0.0508 -0.1310
  337MOL0     C46435   8.570   3.921   3.693 -0.0751  0.1360  0.2016
  337MOL0     C46436   8.601   3.862   3.551  0.6975  0.0099  0.3875
  337MOL0     H46437   8.422   4.438   3.587 -0.4182 -0.2046 -2.4498
  337MOL0     H46438   8.302   4.604   3.456 -0.0312 -0.8207  0.0788
  337MOL0     H46439   7.883   4.532   3.390  2.1136  0.3098  1.0848
  337MOL0     H46440   7.938   4.473   3.239  2.1150 -0.3266 -0.2196
  337MOL0     H46441   7.866   4.768   3.293 -0.7584 -0.2753 -0.5873
  337MOL0     H46442   7.943   4.712   3.145  2.4793 -3.5258 -0.0668
  337MOL0     H46443   7.749   4.589   3.088 -2.2733 -2.2470  0.7206
  337MOL0     H46444   7.679   4.596   3.250  3.0850 -1.5842  0.9227
  337MOL0     H46445   7.631   4.820   3.236 -0.8144  0.9948  0.1200
  337MOL0     H46446   7.729   4.860   3.094 -0.8512  2.6207  2.3023
  337MOL0     H46447   7.460   4.706   3.098  0.1365 -2.7609 -1.3593
  337MOL0     H46448   7.566   4.652   2.982 -1.3290 -1.7432  1.8340
  337MOL0     H46449   7.570   4.860   2.865 -0.2482  1.9393 -0.1104
  337MOL0     H46450   7.402   4.817   2.900  0.9008  0.7982  0.3417
  337MOL0     H46451   7.571   5.036   3.040  0.0547 -0.0021  0.7205
  337MOL0     H46452   7.406   4.993   3.089 -2.5642  0.8433 -1.3306
  337MOL0     H46453   7.487   5.112   2.829  3.1074 -3.2638  1.8272
  337MOL0     H46454   7.330   5.024   2.861  0.1318 -0.7733  0.6977
  337MOL0     H46455   7.533   5.317   3.007  0.5408 -0.2993 -1.9253
  337MOL0     H46456   7.422   5.540   3.147  0.3746 -0.7155 -0.7180
  337MOL0     H46457   7.261   5.506   3.204 -0.7897 -0.1912 -0.6802
  337MOL0     H46458   7.302   5.639   2.932  1.1658 -0.0202 -0.3920
  337MOL0     H46459   7.154   5.617   3.027 -0.2297  3.8037  0.6102
  337MOL0     H46460   7.228   5.770   3.204 -0.8391  1.5419  0.4336
  337MOL0     H46461   7.389   5.772   3.145 -0.3413 -3.2094  2.3449
  337MOL0     H46462   7.154   5.876   2.983  0.3474 -1.4204  0.3608
  337MOL0     H46463   7.249   5.989   3.088  0.8811 -0.3453 -0.0008
  337MOL0     H46464   7.411   6.109   3.067 -0.3860 -0.1015 -1.9470
  337MOL0     H46465   7.561   6.267   3.185 -1.1681  1.2322 -5.5828
  337MOL0     H46466   7.706   6.285   3.109 -1.6730  2.2140  2.4927
  337MOL0     H46467   7.706   6.167   3.242  0.7482 -2.4868 -1.1060
  337MOL0     H46468   8.004   6.294   3.248  1.8339  1.1156  1.5344
  337MOL0     H46469   8.242   6.338   3.292 -1.2694 -2.7228  1.8425
  337MOL0     H46470   8.524   6.280   2.942 -2.9016 -0.2097 -1.0484
  337MOL0     H46471   8.425   6.429   2.966  2.3088  2.8167  1.4678
  337MOL0     H46472   8.644   6.424   3.157 -1.8326  0.1336  0.9416
  337MOL0     H46473   8.721   6.426   2.986  1.6252  1.0676  1.1094
  337MOL0     H46474   8.503   6.609   3.074 -1.5636 -2.7202 -3.0655
  337MOL0     H46475   8.602   6.629   2.939 -0.6354 -2.6474 -1.8480
  337MOL0     H46476   8.731   6.653   3.223 -0.3005 -0.7762 -0.1578
  337MOL0     H46477   8.646   6.775   3.121 -1.3698 -0.4268  3.3175
  337MOL0     H46478   8.870   6.611   3.010 -4.0988 -2.1392  1.0504
  337MOL0     H46479   8.828   6.774   2.954  0.8071 -2.5399 -1.4019
  337MOL0     H46480   8.944   6.720   3.226 -1.3053  0.2545  0.6879
  337MOL0     H46481   8.883   6.879   3.166  2.7479  0.7919  2.5770
  337MOL0     H46482   9.053   6.855   2.981  0.5755  0.7859  0.9409
  337MOL0     H46483   9.118   6.714   3.069  0.0291 -0.7521  1.3552
  337MOL0     H46484   9.130   7.013   3.122 -0.2553 -1.1088 -2.3122
  337MOL0     H46485   9.255   6.899   3.145 -0.1356 -1.3256 -0.1238
  337MOL0     H46486   8.333   6.115   2.933 -0.7046 -0.3540  0.2148
  337MOL0     H46487   8.107   6.047   2.922  4.1720  0.5664 -1.6565
  337MOL0     H46488   7.765   5.804   2.920 -0.2284  0.5664  1.6076
  337MOL0     H46489   7.551   5.769   2.837  2.3549 -0.0352 -1.3658
  337MOL0     H46490   7.978   4.331   3.404  0.8191 -0.1522 -1.4346
  337MOL0     H46491   8.083   4.173   3.553 -0.0807 -0.4612 -1.0349
  337MOL0     H46492   8.443   4.185   3.862 -3.4769 -0.4453 -2.2321
  337MOL0     H46493   8.532   4.067   4.046 -0.5143 -1.4654 -1.1618
  337MOL0     H46494   8.662   3.675   4.025  2.4806 -1.4892 -3.0543
  337MOL0     H46495   8.810   3.765   3.968  1.2450  1.5164  0.7500
  337MOL0     H46496   8.721   3.742   4.255 -0.6308 -0.1751 -0.8685
  337MOL0     H46497   8.889   3.787   4.188  0.0098  0.9667 -0.5928
  337MOL0     H46498   8.778   3.515   4.183 -0.5827 -0.3473 -0.6994
  337MOL0     H46499   8.910   3.580   4.082  1.1543  0.5339  0.2870
  337MOL0     H46500   8.916   3.527   4.390 -1.4423 -0.6618 -0.9989
  337MOL0     H46501   9.025   3.644   4.289 -0.0713  0.8963 -1.4023
  337MOL0     H46502   9.155   3.264   4.195 -0.2810 -1.0824 -0.1190
  337MOL0     H46503   8.690   3.769   3.787 -1.5968 -0.6138  0.4624
  337MOL0     H46504   8.508   3.855   3.494 -0.4232  2.0720  1.8299
  337MOL0     H46505   8.662   3.929   3.490 -0.3424  0.8880  0.2824
  337MOL0     H46506   8.643   3.761   3.544 -0.5954 -0.4526 -1.9663
  338MOL0     O46507   4.074   8.365   1.515 -0.6223 -0.3309 -0.2103
  338MOL0     C46508   4.115   8.459   1.449 -0.6056 -0.1166 -0.9213
  338MOL0     O46509   4.046   8.577   1.425 -0.2023 -0.3436 -0.1501
  338MOL0     C46510   3.943   8.600   1.514  0.9402  0.4476 -0.0866
  338MOL0     C46511   3.955   8.689   1.623 -0.2200 -0.3187  0.0249
  338MOL0     C46512   3.845   8.732   1.687  0.8018 -0.7952  0.0495
  338MOL0     C46513   3.719   8.687   1.656  0.2818  0.0328 -0.1275
  338MOL0     O46514   3.612   8.740   1.716  0.0088  0.5293  0.0613
  338MOL0     C46515   3.595   8.686   1.850  0.0762  0.4062 -0.1685
  338MOL0     C46516   3.441   8.676   1.857  0.4223  0.3379  0.3274
  338MOL0     C46517   3.397   8.637   2.000 -0.6057  0.2368  0.6106
  338MOL0     C46518   3.427   8.494   2.037 -0.1953 -0.1143 -0.4556
  338MOL0     C46519   3.376   8.462   2.176 -0.8293  0.1394 -1.1421
  338MOL0     C46520   3.234   8.421   2.182 -0.0978  0.0267  1.0058
  338MOL0     C46521   3.198   8.395   2.332 -0.0324  0.0529  0.1235
  338MOL0     C46522   3.201   8.525   2.413 -0.3948 -0.5288  0.2624
  338MOL0     N46523   3.130   8.650   2.363 -0.5270  0.7054 -0.4838
  338MOL0     C46524   3.010   8.690   2.411  0.3621  1.1086  0.5235
  338MOL0     C46525   2.984   8.802   2.342 -0.1581  0.7631  0.6267
  338MOL0     C46526   2.856   8.874   2.350 -0.3301  0.4881  0.3481
  338MOL0     C46527   2.809   8.924   2.496 -0.3456  0.4706 -0.2456
  338MOL0     C46528   2.924   9.020   2.548 -0.0076  0.4105 -1.0230
  338MOL0     C46529   2.915   9.154   2.477  0.1955 -0.3486 -0.7736
  338MOL0     O46530   3.011   9.239   2.543  0.4343 -0.9443  0.5253
  338MOL0     C46531   3.145   9.229   2.512  0.3571  0.4552 -0.3591
  338MOL0     C46532   3.205   9.163   2.401  0.0833 -0.0619 -0.4405
  338MOL0     C46533   3.343   9.181   2.371  0.4667 -0.3120  0.4208
  338MOL0     C46534   3.384   9.113   2.236 -0.1638  0.0718  0.4553
  338MOL0     C46535   3.434   9.246   2.466  0.1911 -0.1431  0.1134
  338MOL0     C46536   3.576   9.257   2.457 -1.2963  0.9002  0.0214
  338MOL0     O46537   3.649   9.317   2.555 -0.2138 -0.0587  0.5357
  338MOL0     C46538   3.785   9.320   2.540  0.2958  0.1961 -0.1800
  338MOL0     C46539   3.863   9.200   2.525  0.1851  0.3428 -0.2624
  338MOL0     C46540   4.000   9.201   2.514 -0.9880 -0.5933 -0.3190
  338MOL0     C46541   4.068   9.326   2.522 -0.0372  0.0744 -0.3190
  338MOL0     O46542   4.201   9.326   2.539  0.1187 -0.0933 -0.5863
  338MOL0     C46543   4.263   9.410   2.644 -0.2092 -0.0285 -0.0930
  338MOL0     C46544   4.414   9.363   2.637  1.3420 -0.7161 -0.0845
  338MOL0     C46545   4.478   9.395   2.505  0.0111  0.5217  0.2775
  338MOL0     C46546   4.617   9.332   2.486  0.1677 -0.7374 -0.2341
  338MOL0     C46547   4.714   9.399   2.584 -0.5243 -0.0250  0.1196
  338MOL0     C46548   4.858   9.373   2.567  0.6098  1.1882 -0.2766
  338MOL0     C46549   4.932   9.440   2.671  0.4150  0.2363 -0.0569
  338MOL0     C46550   5.072   9.442   2.633 -0.2787  0.7417 -0.9385
  338MOL0    Cl46551   5.147   9.577   2.728  0.6585  0.3650  0.4207
  338MOL0     C46552   3.991   9.440   2.541 -0.0108 -1.5891 -0.1879
  338MOL0     C46553   3.849   9.437   2.540  0.0289 -0.1739  0.2472
  338MOL0     O46554   3.634   9.222   2.350 -0.3784 -0.0099 -0.5483
  338MOL0     C46555   3.374   9.306   2.576 -0.3518 -0.0954  0.5284
  338MOL0     C46556   3.238   9.304   2.585  0.2241  0.5053 -0.6626
  338MOL0     N46557   3.086   8.826   2.248  0.2188 -0.0540  0.0044
  338MOL0     N46558   3.179   8.734   2.266 -0.5118 -0.5861 -0.1558
  338MOL0     C46559   3.694   8.593   1.555  0.5897  0.0251  0.2137
  338MOL0     C46560   3.810   8.562   1.484 -0.0457  0.4442  0.3317
  338MOL0     C46561   4.249   8.463   1.398 -0.9395  0.2606 -0.2397
  338MOL0     C46562   4.309   8.586   1.356  0.6084 -0.0347  1.1080
  338MOL0     C46563   4.436   8.599   1.290  0.0925 -1.0239  0.0038
  338MOL0     C46564   4.529   8.487   1.291  0.6827 -0.8320 -0.0208
  338MOL0     O46565   4.659   8.491   1.258  0.3187  0.4560  0.5316
  338MOL0     C46566   4.711   8.608   1.191  0.1283  0.3407  0.1133
  338MOL0     C46567   4.792   8.681   1.291  0.0966  0.2845  0.7844
  338MOL0     C46568   4.875   8.793   1.215 -0.5401  0.2739 -0.1125
  338MOL0     C46569   4.973   8.841   1.309 -1.1144  0.4408 -0.0703
  338MOL0     C46570   5.074   8.730   1.347  0.8068 -0.2461 -0.3773
  338MOL0     C46571   5.154   8.644   1.381 -0.2357  0.1881 -0.0445
  338MOL0     C46572   4.482   8.373   1.352  0.0556  0.5675 -1.9629
  338MOL0     C46573   4.349   8.358   1.397  0.5159  0.3510 -0.2078
  338MOL0     C46574   4.324   8.223   1.465  0.3213  0.3275  0.3448
  338MOL0     H46575   4.057   8.719   1.649 -0.1721 -1.6289  1.5071
  338MOL0     H46576   3.851   8.801   1.771 -1.4368 -0.5286  0.0555
  338MOL0     H46577   3.642   8.760   1.916  0.5753 -0.5939  0.6114
  338MOL0     H46578   3.638   8.587   1.863  0.3705  0.3657 -1.3410
  338MOL0     H46579   3.390   8.769   1.827 -0.3255 -1.1936 -3.7888
  338MOL0     H46580   3.400   8.614   1.777  0.8472  0.5944 -0.0998
  338MOL0     H46581   3.452   8.699   2.071 -0.1518  1.1536 -0.5190
  338MOL0     H46582   3.290   8.659   2.011 -1.2450 -2.1186 -0.3116
  338MOL0     H46583   3.383   8.425   1.965 -0.0545 -0.1573 -0.5001
  338MOL0     H46584   3.536   8.485   2.037 -0.2278 -4.2603  3.2113
  338MOL0     H46585   3.406   8.538   2.248 -3.1557  1.6330 -1.6400
  338MOL0     H46586   3.432   8.370   2.199  0.8088  1.6089  1.1709
  338MOL0     H46587   3.173   8.500   2.136 -1.0664 -1.7171 -0.8307
  338MOL0     H46588   3.224   8.338   2.112  2.8298  3.2091 -3.7019
  338MOL0     H46589   3.265   8.323   2.380  1.5759  1.9114  0.8337
  338MOL0     H46590   3.098   8.351   2.341 -0.5329  1.1747  0.2070
  338MOL0     H46591   3.158   8.496   2.509  2.1535 -1.7263  1.1533
  338MOL0     H46592   3.306   8.551   2.428 -0.7627  0.9805  0.3228
  338MOL0     H46593   2.953   8.635   2.485  0.5955  0.2545  0.0830
  338MOL0     H46594   2.786   8.804   2.303  3.1146 -0.2072 -4.4604
  338MOL0     H46595   2.859   8.955   2.276  1.0979 -0.2323 -0.4225
  338MOL0     H46596   2.712   8.974   2.498 -0.3167  0.5405 -0.5409
  338MOL0     H46597   2.809   8.836   2.560  1.2862 -0.4794 -1.4857
  338MOL0     H46598   2.907   9.033   2.655  0.7889 -2.6211 -0.4384
  338MOL0     H46599   3.026   8.981   2.542 -0.1761 -0.6456  1.6460
  338MOL0     H46600   2.934   9.145   2.369  1.5151  1.7156 -0.7812
  338MOL0     H46601   2.818   9.198   2.503  1.2625  1.3407  0.5509
  338MOL0     H46602   3.143   9.104   2.335 -1.0699  0.4988  0.1055
  338MOL0     H46603   3.400   9.190   2.161 -0.1576  1.8405  2.1899
  338MOL0     H46604   3.315   9.038   2.197  0.4665 -1.4291  2.0960
  338MOL0     H46605   3.474   9.051   2.244  0.7112  0.7632 -2.5956
  338MOL0     H46606   3.815   9.103   2.532  2.7393 -0.9296  0.5165
  338MOL0     H46607   4.054   9.108   2.497  0.6696  0.3835 -0.6777
  338MOL0     H46608   4.251   9.517   2.627  1.4659  0.2036 -0.0562
  338MOL0     H46609   4.212   9.375   2.734 -0.3488 -0.5711 -0.3783
  338MOL0     H46610   4.472   9.421   2.710 -0.0322  0.8703 -0.1942
  338MOL0     H46611   4.422   9.257   2.661 -0.5958 -0.9857 -0.5021
  338MOL0     H46612   4.474   9.504   2.499 -1.4350  0.5474  1.1489
  338MOL0     H46613   4.422   9.352   2.422  1.1653 -1.2966  0.3937
  338MOL0     H46614   4.637   9.350   2.380  2.2171  1.7577  0.4716
  338MOL0     H46615   4.617   9.223   2.497  0.7635 -0.5888  1.4743
  338MOL0     H46616   4.697   9.507   2.580 -0.3573  0.0732  1.6026
  338MOL0     H46617   4.687   9.368   2.685  0.4514 -3.4457 -0.5198
  338MOL0     H46618   4.884   9.398   2.464  1.3503 -1.1901 -0.7105
  338MOL0     H46619   4.875   9.266   2.575  0.7578  1.0673 -1.8073
  338MOL0     H46620   4.918   9.392   2.768 -0.0155  2.5237  1.0827
  338MOL0     H46621   4.897   9.543   2.682 -1.0098 -0.1696 -0.6302
  338MOL0     H46622   5.076   9.465   2.526 -2.1204  4.2720 -0.4126
  338MOL0     H46623   5.099   9.339   2.655 -1.8942  0.5496  0.3177
  338MOL0     H46624   4.048   9.532   2.555 -3.5959  0.5488  2.0171
  338MOL0     H46625   3.784   9.524   2.541  0.7011  0.4539 -2.4013
  338MOL0     H46626   3.428   9.366   2.648  0.7726 -0.6574  0.1663
  338MOL0     H46627   3.189   9.348   2.672 -0.2932 -0.0073 -0.6844
  338MOL0     H46628   3.593   8.555   1.539  0.7484 -2.2400  3.6055
  338MOL0     H46629   3.806   8.498   1.397 -0.9383  0.3861  0.4066
  338MOL0     H46630   4.261   8.683   1.368  0.2612 -0.0672  0.1569
  338MOL0     H46631   4.463   8.693   1.245 -0.1325 -1.0229 -0.1304
  338MOL0     H46632   4.763   8.564   1.106  0.5215 -0.5196  0.7816
  338MOL0     H46633   4.637   8.671   1.141 -0.3820  0.2683  0.7688
  338MOL0     H46634   4.857   8.607   1.339  1.5137  0.4313 -0.7815
  338MOL0     H46635   4.725   8.726   1.364  1.0048  2.5705  0.3021
  338MOL0     H46636   4.922   8.751   1.126 -1.6358 -0.5373 -0.3321
  338MOL0     H46637   4.807   8.873   1.184 -0.9290  0.4317  1.1005
  338MOL0     H46638   4.922   8.890   1.393  0.0641  2.7834 -0.6201
  338MOL0     H46639   5.024   8.924   1.260 -0.1994 -1.2210 -2.0540
  338MOL0     H46640   5.225   8.571   1.414  1.6335  1.1490 -1.7915
  338MOL0     H46641   4.554   8.292   1.350  2.2401  2.2180  1.3722
  338MOL0     H46642   4.414   8.163   1.448 -0.2107  0.0046 -1.6000
  338MOL0     H46643   4.314   8.250   1.570  0.0324  0.8660  0.1867
  338MOL0     H46644   4.238   8.164   1.430 -0.2758  1.5578 -0.3237
  339MOL0     O46645   5.686   3.062  10.181 -0.1099 -0.2083  0.0841
  339MOL0     C46646   5.729   3.164  10.113 -0.7757  0.0069  0.3886
  339MOL0     O46647   5.851   3.221  10.123 -0.5489  0.5674  1.2271
  339MOL0     C46648   5.960   3.161  10.184 -0.1742  0.5219  0.9683
  339MOL0     C46649   6.070   3.241  10.178  0.7507  1.1272 -0.4224
  339MOL0     C46650   6.195   3.219  10.231 -0.3150 -0.0243  0.6141
  339MOL0     C46651   6.216   3.099  10.303  0.8662 -0.0106  0.7879
  339MOL0     O46652   6.343   3.057  10.339 -0.4428  0.3613  0.4685
  339MOL0     C46653   6.456   3.149  10.317  0.6457  0.3677  0.0387
  339MOL0     C46654   6.573   3.068  10.368  0.1390 -0.0312 -0.0695
  339MOL0     C46655   6.706   3.150  10.352  0.3797 -0.6522  1.1229
  339MOL0     C46656   6.805   3.061  10.423 -0.1465  0.5783 -0.3430
  339MOL0     C46657   6.945   3.108  10.399  0.9057 -0.2167 -0.2750
  339MOL0     C46658   6.982   3.101  10.252 -1.1434  0.4500 -0.0842
  339MOL0     C46659   7.133   3.071  10.221 -0.5720 -0.8998 -0.0970
  339MOL0     C46660   7.240   3.133  10.316  0.4121 -0.0620  0.0587
  339MOL0     N46661   7.380   3.104  10.268  0.0399  0.3829  0.4831
  339MOL0     C46662   7.418   2.992  10.206  0.5308 -0.5416  0.5484
  339MOL0     C46663   7.549   3.000  10.190 -0.6683 -0.1774 -0.3722
  339MOL0     C46664   7.639   2.881  10.144 -0.0545  0.2061  0.1408
  339MOL0     C46665   7.787   2.909  10.108 -0.2846 -0.2687 -0.1896
  339MOL0     C46666   7.802   3.021  10.006 -0.3111  1.0071 -0.3596
  339MOL0     C46667   7.936   3.046   9.947  0.2570  0.4954  0.7568
  339MOL0     O46668   7.990   2.926   9.905 -0.3869  0.0753  0.2745
  339MOL0     C46669   8.129   2.931   9.907 -0.3062  0.1181 -0.6862
  339MOL0     C46670   8.208   2.966  10.018 -0.1187 -0.4410  0.8785
  339MOL0     C46671   8.345   2.952  10.020 -0.2639 -0.0811  1.0157
  339MOL0     C46672   8.406   3.001  10.150 -0.2094 -0.8405  0.0627
  339MOL0     C46673   8.409   2.886   9.911 -0.2333  0.3529 -0.4338
  339MOL0     C46674   8.553   2.847   9.909  0.5614 -0.4676  0.1510
  339MOL0     O46675   8.611   2.809   9.791  0.0719  0.2854  0.1057
  339MOL0     C46676   8.749   2.783   9.777  0.4751 -0.3818  1.3574
  339MOL0     C46677   8.856   2.807   9.861  0.3970  0.0538  0.1314
  339MOL0     C46678   8.985   2.768   9.824 -0.4876 -0.4320  0.4407
  339MOL0     C46679   9.015   2.710   9.695 -0.2059 -0.8481  0.5987
  339MOL0     O46680   9.133   2.650   9.652  0.1444  0.3842  0.4477
  339MOL0     C46681   9.253   2.713   9.710 -0.1568 -0.2999 -0.5512
  339MOL0     C46682   9.382   2.650   9.641 -0.9264  0.4010 -0.0597
  339MOL0     C46683   9.521   2.695   9.709 -0.2763  0.4234  0.3719
  339MOL0     C46684   9.626   2.674   9.603 -0.7939 -0.0965  0.1762
  339MOL0     C46685   9.764   2.721   9.647 -0.2112 -0.4546 -0.1015
  339MOL0     C46686   9.865   2.678   9.547 -0.3492 -0.5166  0.6569
  339MOL0     C46687  10.004   2.718   9.576 -0.2076 -0.1266  0.6241
  339MOL0     C46688  10.057   2.638   9.691  0.3292 -0.3529 -0.0674
  339MOL0    Cl46689  10.219   2.682   9.720  0.0654  0.3244 -0.3032
  339MOL0     C46690   8.911   2.714   9.611  0.1852  0.2859  0.3402
  339MOL0     C46691   8.786   2.737   9.649  0.1179  0.1933 -0.7636
  339MOL0     O46692   8.615   2.859  10.013  0.4490 -0.1636  0.0417
  339MOL0     C46693   8.323   2.858   9.792  0.1908  0.7994 -0.0081
  339MOL0     C46694   8.186   2.883   9.795 -0.4157 -0.8843  0.3882
  339MOL0     N46695   7.585   3.130  10.226 -0.1169 -0.3960 -0.2353
  339MOL0     N46696   7.486   3.194  10.273  0.2846 -0.3069  0.6479
  339MOL0     C46697   6.111   3.005  10.312  0.3381  0.5094 -0.5168
  339MOL0     C46698   5.982   3.034  10.255  0.3667  0.0171 -1.0752
  339MOL0     C46699   5.638   3.203  10.002  0.2695 -0.5771 -0.8504
  339MOL0     C46700   5.504   3.189  10.026  0.0401 -0.1778 -0.0010
  339MOL0     C46701   5.409   3.230   9.938 -0.3617  0.5328  0.0673
  339MOL0     C46702   5.445   3.289   9.818 -0.4242  0.7309 -0.4066
  339MOL0     O46703   5.357   3.328   9.725  0.3894  0.2925 -0.0062
  339MOL0     C46704   5.275   3.444   9.762 -0.4282  0.4044  1.1813
  339MOL0     C46705   5.142   3.403   9.812  0.6250  0.2578  0.4800
  339MOL0     C46706   5.046   3.520   9.829  0.3100  0.9174  0.4573
  339MOL0     C46707   4.911   3.486   9.903 -0.0896  0.0748 -0.6206
  339MOL0     C46708   4.826   3.403   9.806 -0.3957  0.0438  0.4375
  339MOL0     C46709   4.743   3.355   9.729 -0.4201 -0.4351  0.4454
  339MOL0     C46710   5.580   3.312   9.792  0.4010  0.8957 -0.5527
  339MOL0     C46711   5.678   3.266   9.880  0.6423 -0.6599  0.1251
  339MOL0     C46712   5.808   3.303   9.840 -0.0972 -0.3873  0.0969
  339MOL0     H46713   6.060   3.339  10.133 -2.4810  0.8644 -0.5123
  339MOL0     H46714   6.272   3.290  10.203 -0.7237  0.5891  1.0097
  339MOL0     H46715   6.449   3.251  10.356  3.5898  0.8983 -0.5380
  339MOL0     H46716   6.485   3.164  10.212  0.7281 -1.7002 -0.2745
  339MOL0     H46717   6.554   3.047  10.474 -2.5367 -1.9999 -0.8250
  339MOL0     H46718   6.564   2.974  10.313  1.4576 -1.2667  1.7053
  339MOL0     H46719   6.713   3.145  10.242 -0.0857  2.6777  0.8337
  339MOL0     H46720   6.699   3.256  10.380 -0.3884 -0.6334  0.8968
  339MOL0     H46721   6.797   3.079  10.531  2.4886  1.3555 -0.2041
  339MOL0     H46722   6.790   2.954  10.406 -0.0193  0.2071  1.5855
  339MOL0     H46723   7.018   3.050  10.456  0.6046 -0.8826 -0.5508
  339MOL0     H46724   6.954   3.215  10.421 -4.1956  0.5577 -0.7140
  339MOL0     H46725   6.912   3.040  10.194 -2.3673  1.5310  0.1864
  339MOL0     H46726   6.978   3.200  10.205  0.1563  0.6674  0.2334
  339MOL0     H46727   7.157   3.097  10.118 -0.0338 -0.2673  0.1759
  339MOL0     H46728   7.159   2.965  10.226  0.1586 -0.9565 -3.1745
  339MOL0     H46729   7.237   3.242  10.326 -2.8591 -0.0352 -0.1205
  339MOL0     H46730   7.232   3.090  10.416 -0.3342 -0.6042 -0.2256
  339MOL0     H46731   7.353   2.907  10.191 -1.9395  1.4991 -1.1060
  339MOL0     H46732   7.581   2.849  10.057  1.1657 -1.1602 -0.2099
  339MOL0     H46733   7.645   2.794  10.210  2.3260 -3.4008 -4.1821
  339MOL0     H46734   7.821   2.953  10.203 -2.0842 -0.9391  0.8011
  339MOL0     H46735   7.841   2.818  10.082 -0.0369  0.0937 -0.9674
  339MOL0     H46736   7.731   3.000   9.926 -0.3274 -3.3983  0.5758
  339MOL0     H46737   7.774   3.117  10.051 -0.5308  1.0582 -0.6039
  339MOL0     H46738   7.935   3.104   9.854  0.7563 -2.1966 -1.0377
  339MOL0     H46739   7.999   3.096  10.021  2.1570 -0.6353 -0.0224
  339MOL0     H46740   8.163   2.995  10.112 -0.6757 -2.2245  1.1995
  339MOL0     H46741   8.465   3.089  10.122 -0.9260 -0.3598  0.0483
  339MOL0     H46742   8.462   2.919  10.197 -0.7580 -2.1414 -1.4901
  339MOL0     H46743   8.331   3.035  10.222  0.3494  0.9425 -0.1396
  339MOL0     H46744   8.849   2.844   9.963  2.5495  0.8293  0.0495
  339MOL0     H46745   9.062   2.788   9.898 -0.6950  1.7157  0.1646
  339MOL0     H46746   9.253   2.822   9.702 -1.7112 -0.3024 -1.0668
  339MOL0     H46747   9.258   2.685   9.816 -2.6009 -1.0797 -0.5778
  339MOL0     H46748   9.379   2.543   9.659 -1.1268  0.6928  1.8397
  339MOL0     H46749   9.374   2.676   9.535 -1.0605  2.3340  0.3775
  339MOL0     H46750   9.546   2.638   9.799  0.4102 -0.2335 -0.2218
  339MOL0     H46751   9.519   2.803   9.724  1.3329  0.8126 -1.7236
  339MOL0     H46752   9.606   2.711   9.502  0.3267 -0.5320 -0.2280
  339MOL0     H46753   9.639   2.565   9.595 -1.2124 -0.0423 -1.6428
  339MOL0     H46754   9.766   2.829   9.666  0.8301 -0.1055 -1.9396
  339MOL0     H46755   9.788   2.671   9.741  1.7408 -2.8216 -1.7424
  339MOL0     H46756   9.839   2.726   9.453  3.7886 -2.2116 -1.6081
  339MOL0     H46757   9.855   2.570   9.533  4.1685 -1.5019  3.1596
  339MOL0     H46758  10.015   2.826   9.593 -1.2946 -0.0706  1.0238
  339MOL0     H46759  10.057   2.681   9.488 -2.6097 -1.3627 -0.3795
  339MOL0     H46760  10.063   2.530   9.672  0.8150 -0.1755 -1.0461
  339MOL0     H46761  10.003   2.660   9.783  2.7313 -0.5614  1.4905
  339MOL0     H46762   8.919   2.665   9.515  0.7677 -0.4406  0.7456
  339MOL0     H46763   8.710   2.728   9.573 -1.7912 -0.0104  1.0903
  339MOL0     H46764   8.368   2.817   9.702 -1.4087  1.4676 -1.1545
  339MOL0     H46765   8.118   2.848   9.718  1.6642 -3.3006 -0.5139
  339MOL0     H46766   6.125   2.916  10.373  1.1535 -0.2389 -1.7425
  339MOL0     H46767   5.906   2.958  10.265  0.3074  0.0409 -1.3435
  339MOL0     H46768   5.462   3.143  10.115 -0.4014 -1.5079 -0.8874
  339MOL0     H46769   5.306   3.200   9.952 -0.6281 -0.3404 -3.0734
  339MOL0     H46770   5.328   3.516   9.825  0.2156 -0.2055  1.3356
  339MOL0     H46771   5.268   3.476   9.657 -3.3439 -1.3478  0.7237
  339MOL0     H46772   5.165   3.359   9.909  2.9654 -1.5987 -0.8123
  339MOL0     H46773   5.094   3.328   9.748  0.6432  0.4860  0.1987
  339MOL0     H46774   5.094   3.602   9.883  1.3311  0.0729  0.8513
  339MOL0     H46775   5.014   3.544   9.727 -1.1153 -2.0776  0.0859
  339MOL0     H46776   4.854   3.577   9.924 -0.3427  0.0542 -1.2023
  339MOL0     H46777   4.933   3.435   9.998  0.8787 -0.9546 -1.3653
  339MOL0     H46778   4.673   3.320   9.655 -0.9844  0.8014  0.3788
  339MOL0     H46779   5.610   3.367   9.704  0.3540  0.6209 -0.7434
  339MOL0     H46780   5.843   3.277   9.739  1.7865  0.1927  0.5717
  339MOL0     H46781   5.817   3.407   9.871 -1.5530 -0.7879  2.0446
  339MOL0     H46782   5.884   3.257   9.904 -0.2912 -3.8921 -1.8924
  340MOL0     O46783   0.180   4.786   4.740  0.0495  0.2674 -0.4819
  340MOL0     C46784   0.277   4.715   4.722 -0.3196  0.0636  0.7690
  340MOL0     O46785   0.299   4.593   4.783 -0.2031 -0.0684  0.0017
  340MOL0     C46786   0.205   4.545   4.876  0.6128 -0.4175  0.7783
  340MOL0     C46787   0.073   4.521   4.846  0.3840  0.4324 -0.1206
  340MOL0     C46788  -0.013   4.461   4.942 -0.1060 -0.5423 -0.0201
  340MOL0     C46789   0.036   4.433   5.075  0.5571 -1.4631  0.1196
  340MOL0     O46790  -0.052   4.381   5.164  0.2999  0.0815  0.0716
  340MOL0     C46791  -0.019   4.354   5.296  0.1911  0.2007  0.8214
  340MOL0     C46792  -0.138   4.284   5.361  0.6943  0.0230 -0.1055
  340MOL0     C46793  -0.262   4.370   5.386  0.6015  0.3726  0.3983
  340MOL0     C46794  -0.369   4.300   5.471 -0.6671  0.6195  0.5144
  340MOL0     C46795  -0.498   4.376   5.465 -0.5288 -0.2751  0.0421
  340MOL0     C46796  -0.499   4.528   5.511  0.1575 -0.0274 -0.0794
  340MOL0     C46797  -0.454   4.535   5.660  0.2559  0.2769  0.2706
  340MOL0     C46798  -0.449   4.679   5.709 -0.0147  0.0065  0.9393
  340MOL0     N46799  -0.584   4.732   5.729 -0.3216  0.1232  0.4155
  340MOL0     C46800  -0.669   4.706   5.834  0.8681  0.8352 -0.3829
  340MOL0     C46801  -0.774   4.793   5.825 -0.0225 -0.5858  0.3672
  340MOL0     C46802  -0.889   4.817   5.915 -1.4496  0.7726  0.0237
  340MOL0     C46803  -0.867   4.916   6.020 -0.3118 -0.1137  0.2100
  340MOL0     C46804  -0.792   4.881   6.153  0.3410  0.4470 -0.0206
  340MOL0     C46805  -0.652   4.815   6.138  0.3778  0.7773 -0.2164
  340MOL0     O46806  -0.677   4.671   6.156 -0.6556 -0.1409 -0.3386
  340MOL0     C46807  -0.583   4.623   6.241 -0.3722 -1.0426  0.2001
  340MOL0     C46808  -0.599   4.657   6.378 -0.2909  0.8175  0.2763
  340MOL0     C46809  -0.513   4.602   6.474  0.0454  0.5747  0.8810
  340MOL0     C46810  -0.572   4.620   6.613  0.0021 -0.3481  0.0912
  340MOL0     C46811  -0.410   4.516   6.440  0.2815  0.2611  0.5534
  340MOL0     C46812  -0.323   4.445   6.539 -0.5532  0.5141 -0.3887
  340MOL0     O46813  -0.211   4.385   6.485 -0.5654  0.0288 -0.1069
  340MOL0     C46814  -0.102   4.338   6.555 -0.6448  0.0934  0.3353
  340MOL0     C46815  -0.116   4.259   6.667  0.0664 -0.1614  0.3293
  340MOL0     C46816  -0.007   4.215   6.748 -0.5723  0.3188 -0.4296
  340MOL0     C46817   0.127   4.235   6.702 -0.6649  0.7997  0.5911
  340MOL0     O46818   0.226   4.204   6.796 -0.5472  0.2144 -0.6614
  340MOL0     C46819   0.353   4.270   6.785 -0.6903  0.5429 -0.3103
  340MOL0     C46820   0.344   4.409   6.848 -0.7156 -0.6761 -0.2989
  340MOL0     C46821   0.468   4.499   6.821  0.8577 -0.1719  0.1744
  340MOL0     C46822   0.498   4.595   6.925 -0.0144  0.0579 -0.1623
  340MOL0     C46823   0.610   4.696   6.884  0.8011  0.3879 -0.6768
  340MOL0     C46824   0.568   4.797   6.784  0.5566  0.4357  0.2900
  340MOL0     C46825   0.669   4.904   6.770  0.0904  0.0415 -0.4857
  340MOL0     C46826   0.611   5.007   6.678 -0.1121  0.2481  0.4892
  340MOL0    Cl46827   0.487   5.101   6.758  0.1402 -0.0658 -0.1501
  340MOL0     C46828   0.138   4.297   6.576  0.0288 -1.5848 -0.1529
  340MOL0     C46829   0.025   4.346   6.506 -0.9531  0.0796 -0.2298
  340MOL0     O46830  -0.342   4.462   6.662  0.2145  0.7446  0.6410
  340MOL0     C46831  -0.399   4.479   6.305 -1.1012  0.4292  1.1640
  340MOL0     C46832  -0.484   4.538   6.208 -0.5167  0.0084  0.7738
  340MOL0     N46833  -0.752   4.873   5.719 -0.6071 -0.7386 -0.0519
  340MOL0     N46834  -0.639   4.836   5.665  0.4646 -0.0372  0.5744
  340MOL0     C46835   0.173   4.462   5.099 -0.4779 -0.3216 -0.5409
  340MOL0     C46836   0.250   4.516   5.001 -0.1836 -0.3534  0.1735
  340MOL0     C46837   0.378   4.770   4.627  0.5263  0.0387  0.1026
  340MOL0     C46838   0.506   4.741   4.659 -0.6085  0.3472 -0.2669
  340MOL0     C46839   0.601   4.776   4.568  0.2801 -0.1807 -0.4075
  340MOL0     C46840   0.575   4.850   4.451  0.2499  0.8468  0.3682
  340MOL0     O46841   0.676   4.890   4.361  0.3843  0.3400 -0.2895
  340MOL0     C46842   0.643   4.891   4.220 -0.5757 -0.4611 -0.0426
  340MOL0     C46843   0.635   4.753   4.148  0.2115 -0.1220  0.2526
  340MOL0     C46844   0.782   4.698   4.157  0.5408  0.6830 -0.1336
  340MOL0     C46845   0.792   4.561   4.088 -0.4626 -0.2962  0.0270
  340MOL0     C46846   0.926   4.523   4.043 -0.6779  0.0468 -0.1577
  340MOL0     C46847   1.028   4.471   3.994  0.1613 -0.5856  0.1001
  340MOL0     C46848   0.441   4.896   4.428  0.0970 -0.1079 -0.9847
  340MOL0     C46849   0.344   4.838   4.509  0.8117  1.1909 -0.6282
  340MOL0     C46850   0.210   4.836   4.444  0.0136 -0.2373 -0.2290
  340MOL0     H46851   0.037   4.556   4.750  3.3768 -0.1816 -1.5844
  340MOL0     H46852  -0.116   4.435   4.918  0.6225 -2.3707 -1.5169
  340MOL0     H46853   0.013   4.442   5.351  2.4043 -1.4686  2.4038
  340MOL0     H46854   0.071   4.292   5.303 -0.3522 -0.7953 -0.4463
  340MOL0     H46855  -0.155   4.198   5.295  0.8515 -1.6420  1.9230
  340MOL0     H46856  -0.114   4.243   5.459  1.6169  2.1735  0.6105
  340MOL0     H46857  -0.232   4.465   5.431 -1.7075  1.3765 -0.0170
  340MOL0     H46858  -0.309   4.395   5.290 -1.5080 -3.5785  0.1800
  340MOL0     H46859  -0.382   4.201   5.429  0.9334  0.2883  0.7179
  340MOL0     H46860  -0.341   4.291   5.577  0.6418  0.2550  0.1577
  340MOL0     H46861  -0.571   4.324   5.529  0.9660 -0.7343  1.4331
  340MOL0     H46862  -0.533   4.357   5.363  1.7352 -1.2325 -0.6213
  340MOL0     H46863  -0.441   4.588   5.440 -1.8039  0.7283 -1.1160
  340MOL0     H46864  -0.601   4.566   5.513  0.4848  0.8511  0.5883
  340MOL0     H46865  -0.354   4.492   5.663 -0.3248 -1.2769 -1.0840
  340MOL0     H46866  -0.516   4.469   5.723  1.0757 -0.1780  0.6184
  340MOL0     H46867  -0.392   4.695   5.801 -2.5213  2.9886  2.1724
  340MOL0     H46868  -0.396   4.746   5.640  1.2061 -1.2554  0.6015
  340MOL0     H46869  -0.669   4.627   5.908 -0.1015 -0.1699 -1.4001
  340MOL0     H46870  -0.906   4.725   5.972  1.8495  0.4897  0.7252
  340MOL0     H46871  -0.973   4.841   5.849 -2.4074 -3.6330 -0.6579
  340MOL0     H46872  -0.807   4.995   5.974 -0.7575  2.2917  3.4548
  340MOL0     H46873  -0.957   4.972   6.043 -0.2524  0.4429 -0.8251
  340MOL0     H46874  -0.774   4.966   6.219 -0.4899 -0.7478  1.8195
  340MOL0     H46875  -0.860   4.814   6.205  1.0066  0.8417  1.4006
  340MOL0     H46876  -0.620   4.845   6.038  0.9640  1.6247  0.2197
  340MOL0     H46877  -0.594   4.856   6.221 -1.8753  1.4026  1.1507
  340MOL0     H46878  -0.681   4.725   6.399 -0.0053  1.3487 -0.2983
  340MOL0     H46879  -0.660   4.686   6.617 -0.7234 -1.3568  1.7747
  340MOL0     H46880  -0.503   4.670   6.682 -0.0138 -0.4344  0.1693
  340MOL0     H46881  -0.612   4.523   6.645 -1.4108 -0.5883 -2.1986
  340MOL0     H46882  -0.213   4.231   6.706 -0.2918 -2.5768 -2.0075
  340MOL0     H46883  -0.030   4.177   6.847  0.6567  1.4184  0.3213
  340MOL0     H46884   0.413   4.208   6.852  0.8529  0.7505 -1.4352
  340MOL0     H46885   0.396   4.267   6.684  3.1986  1.9808  1.0886
  340MOL0     H46886   0.255   4.464   6.815  0.5812  0.9066 -1.3657
  340MOL0     H46887   0.331   4.387   6.954  1.2033 -1.0697 -0.1162
  340MOL0     H46888   0.447   4.550   6.726  0.4279 -1.4043 -0.4150
  340MOL0     H46889   0.556   4.438   6.797  0.3917 -2.0309  2.7846
  340MOL0     H46890   0.535   4.545   7.015 -2.1001  0.2185  0.8253
  340MOL0     H46891   0.407   4.648   6.954  0.3486  0.1208  0.9088
  340MOL0     H46892   0.638   4.748   6.976 -0.0697  0.4776 -0.4503
  340MOL0     H46893   0.694   4.636   6.847  0.6638  0.4800 -1.1404
  340MOL0     H46894   0.467   4.840   6.793  0.8569  2.0819 -2.6845
  340MOL0     H46895   0.557   4.743   6.689 -1.0594  0.1971  0.5735
  340MOL0     H46896   0.763   4.863   6.732  0.4924  2.2261 -2.0570
  340MOL0     H46897   0.685   4.939   6.872 -1.8418 -1.1505  0.2808
  340MOL0     H46898   0.571   4.967   6.584 -1.4911  0.6702  0.8789
  340MOL0     H46899   0.700   5.062   6.646  2.1083 -2.8882  0.6930
  340MOL0     H46900   0.233   4.301   6.523 -0.0700 -0.6864 -0.2677
  340MOL0     H46901   0.042   4.405   6.416 -2.9337 -0.8764 -1.2964
  340MOL0     H46902  -0.318   4.414   6.272 -2.2693 -0.6339  0.3034
  340MOL0     H46903  -0.473   4.521   6.101 -2.2828  0.7142  0.4482
  340MOL0     H46904   0.219   4.429   5.192 -1.4614  0.9658  0.4496
  340MOL0     H46905   0.354   4.535   5.026 -0.4368 -0.3546  1.2791
  340MOL0     H46906   0.541   4.692   4.749  0.0349 -0.7858 -1.1078
  340MOL0     H46907   0.701   4.740   4.591  0.6318  1.6159  1.0743
  340MOL0     H46908   0.553   4.950   4.199 -0.9094 -1.0745 -0.3529
  340MOL0     H46909   0.719   4.947   4.163 -2.3234  0.4095 -1.6680
  340MOL0     H46910   0.590   4.766   4.049 -0.4483  1.0461  0.6823
  340MOL0     H46911   0.559   4.694   4.199 -0.1649 -3.0677 -3.3303
  340MOL0     H46912   0.847   4.776   4.116 -0.7882  1.2999 -1.1665
  340MOL0     H46913   0.820   4.692   4.260 -0.5197  0.5693  0.2678
  340MOL0     H46914   0.711   4.560   4.014 -0.7593 -1.6692  0.3431
  340MOL0     H46915   0.755   4.485   4.157 -0.8216 -1.2669 -1.1989
  340MOL0     H46916   1.111   4.426   3.943 -0.1078  0.2724 -1.1333
  340MOL0     H46917   0.416   4.956   4.341  2.9377  0.3627 -1.5656
  340MOL0     H46918   0.195   4.742   4.391 -2.0971  0.4618 -0.9777
  340MOL0     H46919   0.117   4.849   4.500 -0.5058 -0.8082 -0.9387
  340MOL0     H46920   0.219   4.914   4.368  2.2212 -0.4432 -0.2482
  341MOL0     O46921   5.982   4.460  11.281 -0.5882  0.0089 -0.2072
  341MOL0     C46922   5.960   4.341  11.266 -0.1913  0.7232 -0.8374
  341MOL0     O46923   5.948   4.276  11.146 -0.5659 -0.5756  0.0173
  341MOL0     C46924   5.981   4.347  11.031  0.6863  0.3791 -0.5593
  341MOL0     C46925   6.112   4.379  11.008 -0.4474  0.1740 -0.5640
  341MOL0     C46926   6.148   4.450  10.897 -0.0115  0.5492  0.3848
  341MOL0     C46927   6.046   4.482  10.806  0.1115 -0.2729  0.1571
  341MOL0     O46928   6.084   4.554  10.694  0.3060 -0.1504  0.0047
  341MOL0     C46929   6.038   4.693  10.702 -0.1142 -0.2438  0.0396
  341MOL0     C46930   6.135   4.783  10.787 -0.1279 -0.0195  1.1877
  341MOL0     C46931   6.279   4.782  10.744  0.2033  0.2771  0.8648
  341MOL0     C46932   6.381   4.792  10.849  0.0935 -0.2210 -0.8364
  341MOL0     C46933   6.511   4.815  10.779 -0.1575 -0.2841  0.3573
  341MOL0     C46934   6.606   4.884  10.882  0.1782  1.2788 -0.7654
  341MOL0     C46935   6.749   4.903  10.829  0.1285  0.0297 -0.5357
  341MOL0     C46936   6.855   4.940  10.928 -0.1316  0.4555 -0.2561
  341MOL0     N46937   6.994   4.924  10.878 -0.5027 -0.1442  0.3315
  341MOL0     C46938   7.036   4.962  10.755 -0.0091 -0.6863 -0.4054
  341MOL0     C46939   7.169   4.953  10.752  0.5757  0.8682 -0.1690
  341MOL0     C46940   7.252   4.985  10.623  1.0499  0.2505 -0.6333
  341MOL0     C46941   7.375   5.068  10.657 -0.6718  0.5143  0.3234
  341MOL0     C46942   7.440   5.115  10.529 -0.4434  0.3530  0.1902
  341MOL0     C46943   7.581   5.168  10.558 -0.2987 -0.2405 -0.0562
  341MOL0     O46944   7.653   5.060  10.619  0.4687  0.4070 -0.3819
  341MOL0     C46945   7.755   5.019  10.539 -0.4133 -0.4257  0.1377
  341MOL0     C46946   7.772   4.898  10.478 -1.0425 -0.0040  1.2419
  341MOL0     C46947   7.892   4.856  10.423  0.4333 -0.5295  0.0352
  341MOL0     C46948   7.898   4.714  10.375 -0.7486 -0.4779 -0.6841
  341MOL0     C46949   7.997   4.943  10.406 -0.0716 -0.4662 -0.6652
  341MOL0     C46950   8.124   4.922  10.335  0.2867 -0.3492 -0.1928
  341MOL0     O46951   8.235   4.988  10.383  0.1950 -0.1849 -0.0694
  341MOL0     C46952   8.358   4.956  10.326 -0.0899 -0.8093  0.2209
  341MOL0     C46953   8.400   4.848  10.233 -0.4326 -0.0006 -1.2161
  341MOL0     C46954   8.530   4.850  10.190 -0.7021  0.2873 -0.1283
  341MOL0     C46955   8.619   4.961  10.208 -0.3173  0.0414 -0.5270
  341MOL0     O46956   8.740   4.960  10.144 -0.1554 -0.4991 -0.0201
  341MOL0     C46957   8.827   5.080  10.142  0.2269 -0.2555  0.7785
  341MOL0     C46958   8.941   5.088  10.246 -0.7054 -0.3332 -0.0254
  341MOL0     C46959   9.068   5.021  10.202  0.9843 -0.1557 -1.0312
  341MOL0     C46960   9.187   5.057  10.299  0.1359 -0.3486 -0.4843
  341MOL0     C46961   9.320   5.006  10.235 -0.6011  0.0497  0.3553
  341MOL0     C46962   9.453   5.051  10.299  0.6774 -0.2338 -0.3346
  341MOL0     C46963   9.568   4.997  10.218 -0.8541  0.4303 -0.2425
  341MOL0     C46964   9.694   5.045  10.288 -0.3133 -0.9863 -0.0133
  341MOL0    Cl46965   9.825   5.036  10.176 -0.1446  0.1414 -0.0620
  341MOL0     C46966   8.571   5.062  10.286 -0.2675 -0.7506  0.6255
  341MOL0     C46967   8.445   5.060  10.347 -0.4811  0.1943  0.7273
  341MOL0     O46968   8.120   4.846  10.243 -0.1135 -0.3416  0.7465
  341MOL0     C46969   7.972   5.075  10.454  0.6071  0.0830  0.0239
  341MOL0     C46970   7.859   5.108  10.515 -0.3731  0.5818  0.0712
  341MOL0     N46971   7.205   4.896  10.869  1.1543  0.2509  0.9658
  341MOL0     N46972   7.101   4.870  10.941  0.2118 -0.5089  0.5168
  341MOL0     C46973   5.912   4.456  10.836  0.7874 -0.0734 -0.7180
  341MOL0     C46974   5.875   4.387  10.946 -0.1928  0.6597  0.1783
  341MOL0     C46975   5.937   4.255  11.387 -0.3362 -0.0120  0.1250
  341MOL0     C46976   5.830   4.163  11.397 -0.5458 -0.2693  0.9293
  341MOL0     C46977   5.813   4.081  11.503  0.6392 -0.1682 -0.5939
  341MOL0     C46978   5.900   4.094  11.614 -1.7982 -0.7368  0.1230
  341MOL0     O46979   5.879   4.013  11.720 -0.2709 -1.0060 -0.3960
  341MOL0     C46980   5.956   4.035  11.835 -1.0737 -0.2142 -0.0759
  341MOL0     C46981   5.915   3.940  11.942 -0.4690  0.7449 -0.7098
  341MOL0     C46982   5.911   3.793  11.902  0.1418 -0.1360 -0.3854
  341MOL0     C46983   6.051   3.730  11.904  0.4085 -0.0345  0.0948
  341MOL0     C46984   6.038   3.585  11.913  0.2752 -1.3999  0.5825
  341MOL0     C46985   6.022   3.465  11.930  0.3900 -0.9002  0.2061
  341MOL0     C46986   6.005   4.186  11.612 -0.2908  0.4588  0.2014
  341MOL0     C46987   6.024   4.264  11.499  0.2670 -0.2807  0.0821
  341MOL0     C46988   6.136   4.364  11.512 -1.0326  0.4577  0.0646
  341MOL0     H46989   6.186   4.347  11.081 -1.8419  0.1476  0.8865
  341MOL0     H46990   6.248   4.484  10.871  0.9248  1.2313  4.2792
  341MOL0     H46991   5.941   4.710  10.749 -1.9539  1.6009 -3.9380
  341MOL0     H46992   6.031   4.721  10.596  2.0282 -1.7045 -0.5715
  341MOL0     H46993   6.102   4.887  10.793  3.9652  1.5867 -0.2758
  341MOL0     H46994   6.114   4.741  10.885  3.0447 -1.5535  1.3286
  341MOL0     H46995   6.285   4.692  10.681 -3.0911 -0.8948  1.9665
  341MOL0     H46996   6.288   4.870  10.680  2.6989 -0.6353 -0.1676
  341MOL0     H46997   6.374   4.885  10.907  4.7709 -0.7961  1.0341
  341MOL0     H46998   6.376   4.704  10.914 -1.1643  2.9819  3.9439
  341MOL0     H46999   6.487   4.885  10.698 -0.5605  0.0870  0.7900
  341MOL0     H47000   6.543   4.717  10.743  0.9554  0.5560 -1.0545
  341MOL0     H47001   6.555   4.979  10.905 -2.6367  0.2138 -2.0835
  341MOL0     H47002   6.612   4.823  10.972  2.5634  0.3473 -1.4714
  341MOL0     H47003   6.741   4.975  10.747 -0.1775  1.5714  0.7984
  341MOL0     H47004   6.780   4.808  10.783 -3.1586 -1.2352 -0.4014
  341MOL0     H47005   6.842   5.041  10.966  0.2267  0.1165  0.8119
  341MOL0     H47006   6.847   4.877  11.017 -0.0025  0.4545 -0.2449
  341MOL0     H47007   6.970   4.988  10.673 -0.3722  0.6867  0.3004
  341MOL0     H47008   7.186   5.038  10.553 -1.2734  0.3337  1.4740
  341MOL0     H47009   7.290   4.891  10.583  1.2588 -0.0593  0.2717
  341MOL0     H47010   7.348   5.157  10.715 -1.3007  0.6425 -0.1561
  341MOL0     H47011   7.448   5.014  10.719  1.5913  0.6067 -2.0691
  341MOL0     H47012   7.458   5.026  10.468 -0.3512  0.2695  0.3372
  341MOL0     H47013   7.376   5.187  10.478  2.2917  1.5332 -1.8191
  341MOL0     H47014   7.627   5.221  10.475 -2.5796  2.1511  0.0784
  341MOL0     H47015   7.574   5.247  10.633  0.4925  0.9328 -1.1833
  341MOL0     H47016   7.690   4.829  10.493  1.4888 -3.3126  1.0159
  341MOL0     H47017   7.838   4.652  10.444  1.1944  1.0111  2.5857
  341MOL0     H47018   7.994   4.661  10.375 -0.2164  0.4538  0.4293
  341MOL0     H47019   7.846   4.715  10.279 -1.0390  0.0189 -0.5265
  341MOL0     H47020   8.336   4.764  10.210  1.1364 -2.0555  1.2794
  341MOL0     H47021   8.571   4.764  10.139  0.4593  0.1613  0.9738
  341MOL0     H47022   8.873   5.083  10.042 -0.4734  3.1621  0.4286
  341MOL0     H47023   8.763   5.168  10.145 -1.4373 -1.4422  1.7905
  341MOL0     H47024   8.959   5.193  10.270 -1.8919 -0.0677 -0.2287
  341MOL0     H47025   8.910   5.040  10.339  0.4274 -2.7126 -0.7735
  341MOL0     H47026   9.087   5.055  10.100 -1.1183  3.5013 -0.3862
  341MOL0     H47027   9.039   4.915  10.205 -1.3297  0.3841  2.5315
  341MOL0     H47028   9.167   5.022  10.400 -1.2435  0.1081 -0.5850
  341MOL0     H47029   9.182   5.165  10.311 -3.9493 -0.6920  3.1765
  341MOL0     H47030   9.322   4.897  10.221  2.3391 -0.1148  1.3465
  341MOL0     H47031   9.323   5.040  10.131  0.5342  0.8936  0.6424
  341MOL0     H47032   9.460   5.015  10.402  0.1281 -0.3148 -0.3231
  341MOL0     H47033   9.455   5.160  10.305  0.9914 -0.2435 -0.2311
  341MOL0     H47034   9.559   5.048  10.122  0.9505 -0.5912 -0.9986
  341MOL0     H47035   9.570   4.892  10.187  1.2986  0.7560 -1.3714
  341MOL0     H47036   9.711   4.989  10.381  2.2910 -2.2610 -1.1595
  341MOL0     H47037   9.683   5.149  10.320  2.3687  0.1100 -2.2402
  341MOL0     H47038   8.626   5.154  10.307 -0.1759 -0.4582 -0.7868
  341MOL0     H47039   8.419   5.139  10.418 -3.4938 -0.9583  1.0210
  341MOL0     H47040   8.049   5.152  10.453  0.7676 -0.0065  1.8078
  341MOL0     H47041   7.850   5.209  10.554  1.2380  1.7147 -2.2251
  341MOL0     H47042   5.836   4.452  10.759  1.1191 -1.5038 -1.0131
  341MOL0     H47043   5.772   4.356  10.960 -0.4059  0.5749 -1.4390
  341MOL0     H47044   5.770   4.166  11.307  0.8397  2.8321 -0.0367
  341MOL0     H47045   5.742   3.999  11.508  0.7515 -0.2003  1.5834
  341MOL0     H47046   6.061   4.018  11.812 -1.5912 -0.5565 -2.4867
  341MOL0     H47047   5.945   4.139  11.866  0.0776  0.2618 -1.1808
  341MOL0     H47048   5.815   3.963  11.980 -1.1323 -2.3278 -0.3240
  341MOL0     H47049   5.985   3.956  12.025 -2.6227 -0.4965  1.4830
  341MOL0     H47050   5.854   3.753  11.986  0.4485  1.0708  0.4254
  341MOL0     H47051   5.863   3.778  11.805  2.1554 -1.2605 -1.2838
  341MOL0     H47052   6.112   3.772  11.985 -0.5541  0.0790  0.7769
  341MOL0     H47053   6.089   3.755  11.804  1.6502  0.6256  0.7190
  341MOL0     H47054   5.998   3.361  11.934 -4.0238 -0.1485 -1.1516
  341MOL0     H47055   6.073   4.212  11.692  0.1975  2.1062 -0.6921
  341MOL0     H47056   6.189   4.385  11.418 -1.5364  0.3517 -0.2442
  341MOL0     H47057   6.089   4.455  11.549 -0.6919  2.0616 -3.1115
  341MOL0     H47058   6.217   4.333  11.579  0.2569  3.7171  0.2244
  342MOL0     O47059   7.185  10.051  10.026 -0.1432 -0.1757  0.8869
  342MOL0     C47060   7.237  10.038  10.137 -0.4192  0.7831 -0.4513
  342MOL0     O47061   7.212   9.944  10.228 -0.4825 -0.3529 -0.1712
  342MOL0     C47062   7.149   9.828  10.188 -0.3855 -0.5527 -0.9078
  342MOL0     C47063   7.013   9.830  10.166 -0.1050 -0.2724 -0.1415
  342MOL0     C47064   6.953   9.724  10.115 -0.5200  0.0974  0.3478
  342MOL0     C47065   7.017   9.603  10.082 -0.3089  0.6374 -0.2168
  342MOL0     O47066   6.964   9.500  10.012 -0.1869 -0.0397  0.0551
  342MOL0     C47067   6.826   9.469  10.030  0.1859  0.3858 -0.0072
  342MOL0     C47068   6.798   9.351   9.924  0.8219 -0.0527 -1.1216
  342MOL0     C47069   6.822   9.409   9.781 -0.1359 -0.2008  0.0169
  342MOL0     C47070   6.804   9.286   9.682 -0.6262 -0.3608  0.7335
  342MOL0     C47071   6.760   9.330   9.540 -0.4733 -0.0360  0.3303
  342MOL0     C47072   6.836   9.454   9.490  0.0194  0.2341  0.8788
  342MOL0     C47073   6.863   9.469   9.342 -0.2957  0.1559 -0.2845
  342MOL0     C47074   6.968   9.375   9.294  0.3576 -0.3208  0.4820
  342MOL0     N47075   7.101   9.399   9.346 -0.0087 -0.8034  0.2040
  342MOL0     C47076   7.197   9.483   9.295  0.0682  0.0092 -0.1422
  342MOL0     C47077   7.296   9.469   9.388 -0.5820 -1.2281 -0.0239
  342MOL0     C47078   7.422   9.550   9.371  0.7590 -0.2065 -0.1494
  342MOL0     C47079   7.557   9.472   9.370 -0.2303  0.1042  0.4116
  342MOL0     C47080   7.678   9.557   9.401  0.5070 -0.3761  0.2409
  342MOL0     C47081   7.796   9.462   9.413 -0.0288 -0.8626  0.1596
  342MOL0     O47082   7.908   9.556   9.408 -0.0446  0.1381  0.1397
  342MOL0     C47083   8.037   9.502   9.426  0.4341 -0.1507 -0.7047
  342MOL0     C47084   8.147   9.588   9.415  0.1246  0.2098 -0.2400
  342MOL0     C47085   8.280   9.551   9.435  0.0749  0.5912  0.7423
  342MOL0     C47086   8.376   9.658   9.435 -0.1361 -0.1824 -0.4442
  342MOL0     C47087   8.306   9.414   9.455 -0.1262 -0.6376 -0.3279
  342MOL0     C47088   8.440   9.359   9.464 -0.7557 -0.2330 -0.7559
  342MOL0     O47089   8.504   9.337   9.350 -0.0147  0.0376 -0.6334
  342MOL0     C47090   8.603   9.243   9.347  0.2990  0.2129 -0.3145
  342MOL0     C47091   8.601   9.139   9.433 -0.0958 -0.2342 -0.3957
  342MOL0     C47092   8.712   9.049   9.433  0.3520 -0.6089  0.6504
  342MOL0     C47093   8.825   9.065   9.346  0.1309 -0.2210 -1.1584
  342MOL0     O47094   8.932   8.978   9.347 -0.1851 -0.7622  0.2601
  342MOL0     C47095   8.952   8.908   9.471  0.5713  0.1104  0.0783
  342MOL0     C47096   9.095   8.861   9.459  0.0185 -0.4679 -0.6080
  342MOL0     C47097   9.126   8.741   9.544  0.0146  0.0827  0.2517
  342MOL0     C47098   9.269   8.694   9.527  0.3943 -0.3635  0.3450
  342MOL0     C47099   9.372   8.800   9.567  0.2309  0.1248  0.4647
  342MOL0     C47100   9.502   8.732   9.555 -0.1769 -0.0158 -0.9467
  342MOL0     C47101   9.591   8.830   9.633 -0.4980 -0.3558 -1.0359
  342MOL0     C47102   9.740   8.817   9.606  0.8619 -0.3719 -0.4479
  342MOL0    Cl47103   9.830   8.885   9.744  0.0097 -0.4134  0.0891
  342MOL0     C47104   8.825   9.171   9.257  0.8188 -0.6147  0.0823
  342MOL0     C47105   8.715   9.264   9.267  0.0086  0.3435 -0.5430
  342MOL0     O47106   8.482   9.348   9.580 -0.6116  0.4260 -0.5153
  342MOL0     C47107   8.192   9.321   9.453 -0.2611 -0.6603 -0.3235
  342MOL0     C47108   8.062   9.369   9.442  0.8017 -0.4901 -0.0767
  342MOL0     N47109   7.267   9.372   9.480 -0.3667 -0.1731  0.4343
  342MOL0     N47110   7.154   9.325   9.443 -0.1743  0.0958 -0.3738
  342MOL0     C47111   7.153   9.597  10.119  0.0008 -0.6074  0.9333
  342MOL0     C47112   7.219   9.706  10.173  0.5188 -1.0102  0.4868
  342MOL0     C47113   7.334  10.131  10.178 -0.7317 -0.4774  0.3619
  342MOL0     C47114   7.466  10.092  10.221 -1.6064  0.4774  0.1706
  342MOL0     C47115   7.558  10.188  10.258  0.0660  0.5447 -0.7431
  342MOL0     C47116   7.526  10.324  10.271 -1.2494 -0.1107 -0.0392
  342MOL0     O47117   7.614  10.425  10.315 -0.7791 -0.4908  0.5056
  342MOL0     C47118   7.754  10.390  10.352  0.6646 -0.3554  1.0588
  342MOL0     C47119   7.765  10.346  10.491  0.8420  0.7880  0.0089
  342MOL0     C47120   7.670  10.414  10.600 -0.4926  0.6383  0.1472
  342MOL0     C47121   7.728  10.555  10.633 -0.2980  0.4678  0.7807
  342MOL0     C47122   7.845  10.537  10.718 -0.0679 -0.1043 -0.2624
  342MOL0     C47123   7.922  10.524  10.809  0.5967  0.9208 -0.5636
  342MOL0     C47124   7.399  10.366  10.225 -0.6071  0.5734 -0.3220
  342MOL0     C47125   7.305  10.271  10.174  0.1891  0.2223  0.2639
  342MOL0     C47126   7.175  10.332  10.147 -0.3271 -0.5240 -0.4615
  342MOL0     H47127   6.959   9.923  10.178 -1.2064 -1.1255  2.1172
  342MOL0     H47128   6.848   9.730  10.088 -0.8003 -0.7238  1.2130
  342MOL0     H47129   6.759   9.553  10.014  0.6495  0.4594 -1.7026
  342MOL0     H47130   6.797   9.424  10.126  0.1152 -0.3551 -0.3676
  342MOL0     H47131   6.860   9.261   9.925 -0.8869 -1.2740 -1.6431
  342MOL0     H47132   6.694   9.322   9.938 -0.9138  5.7562  0.5928
  342MOL0     H47133   6.752   9.492   9.766 -1.8998 -1.4146  1.1701
  342MOL0     H47134   6.922   9.454   9.771 -1.6152  3.3241 -0.4576
  342MOL0     H47135   6.903   9.244   9.666 -0.4018  0.3531  0.1765
  342MOL0     H47136   6.734   9.212   9.722  0.3539 -1.4750  0.4117
  342MOL0     H47137   6.653   9.351   9.529 -0.4457  0.0940  0.3117
  342MOL0     H47138   6.774   9.241   9.478 -0.6281  0.6305 -0.6944
  342MOL0     H47139   6.781   9.545   9.514 -0.2263  0.0314  1.0812
  342MOL0     H47140   6.936   9.453   9.535  0.3678  0.5973  0.1382
  342MOL0     H47141   6.896   9.573   9.334 -0.2324  0.3426  1.9687
  342MOL0     H47142   6.771   9.470   9.282 -0.7197  2.9889  0.2957
  342MOL0     H47143   6.938   9.276   9.331  1.2436  0.7464  4.5207
  342MOL0     H47144   6.966   9.368   9.185  5.5105  0.8654  0.0659
  342MOL0     H47145   7.217   9.550   9.212 -0.3788  1.4222  0.8602
  342MOL0     H47146   7.414   9.628   9.448 -2.0367 -1.8803  1.4245
  342MOL0     H47147   7.413   9.605   9.277  0.9774 -2.8845 -1.8061
  342MOL0     H47148   7.551   9.402   9.454  0.6001  1.2264  1.4410
  342MOL0     H47149   7.565   9.407   9.283 -1.1184 -0.9511  1.0944
  342MOL0     H47150   7.704   9.628   9.322 -1.3627  1.3757  1.1218
  342MOL0     H47151   7.656   9.616   9.490  1.0849  0.5485 -0.2193
  342MOL0     H47152   7.781   9.402   9.504  0.6896 -1.0451  0.1625
  342MOL0     H47153   7.796   9.390   9.330 -0.8965  0.0414 -0.6473
  342MOL0     H47154   8.110   9.690   9.402 -2.0671 -0.6847 -1.7454
  342MOL0     H47155   8.458   9.641   9.506  1.4911  2.7742 -1.4074
  342MOL0     H47156   8.325   9.747   9.472  0.0748 -1.1875  2.5268
  342MOL0     H47157   8.422   9.665   9.336 -0.3214  0.6002 -0.4857
  342MOL0     H47158   8.523   9.119   9.505  2.0680 -0.8402  1.9294
  342MOL0     H47159   8.710   8.981   9.517 -0.0716  1.9455  2.8572
  342MOL0     H47160   8.931   8.978   9.552 -0.6759  1.1128 -1.0691
  342MOL0     H47161   8.878   8.828   9.482 -1.1180  1.4601 -0.9620
  342MOL0     H47162   9.119   8.849   9.353  1.4083  0.7938 -0.4685
  342MOL0     H47163   9.147   8.952   9.492  1.1414 -0.7298 -1.5933
  342MOL0     H47164   9.059   8.655   9.532 -0.8821  0.8761 -0.5800
  342MOL0     H47165   9.115   8.772   9.648 -0.3695  0.2245  0.1723
  342MOL0     H47166   9.292   8.661   9.426  1.3936  0.2903  0.3474
  342MOL0     H47167   9.277   8.605   9.590  1.2309 -0.0816  0.6575
  342MOL0     H47168   9.363   8.884   9.497  2.9325 -2.1145 -2.8747
  342MOL0     H47169   9.348   8.827   9.670  1.8967  0.7473  0.7089
  342MOL0     H47170   9.524   8.705   9.451 -1.6295  2.2526 -1.9275
  342MOL0     H47171   9.508   8.638   9.612  3.9892  1.2070  0.9529
  342MOL0     H47172   9.589   8.815   9.742  1.1453  0.1123 -0.9069
  342MOL0     H47173   9.563   8.933   9.608 -1.5489 -0.7315 -1.4528
  342MOL0     H47174   9.758   8.859   9.507  1.5294  0.1652 -0.1095
  342MOL0     H47175   9.763   8.710   9.611  3.7130  0.1724  3.4365
  342MOL0     H47176   8.913   9.185   9.195 -0.5912  0.7387 -1.7049
  342MOL0     H47177   8.712   9.348   9.198 -2.5699  0.2378 -0.6800
  342MOL0     H47178   8.213   9.215   9.461  2.4061 -0.1457  0.4729
  342MOL0     H47179   7.981   9.298   9.428  0.8876 -0.4588 -0.7700
  342MOL0     H47180   7.205   9.506  10.091 -0.0237  0.3627 -2.8893
  342MOL0     H47181   7.324   9.693  10.200  0.5774  1.6757  1.9071
  342MOL0     H47182   7.494   9.987  10.219 -2.6037  0.2162 -0.7388
  342MOL0     H47183   7.659  10.159  10.286 -0.4834 -0.4822  0.2828
  342MOL0     H47184   7.788  10.308  10.287  1.2997  1.5979 -1.2047
  342MOL0     H47185   7.826  10.469  10.329  1.8825 -1.4893  0.8108
  342MOL0     H47186   7.868  10.352  10.527  0.0945  0.8341  2.3423
  342MOL0     H47187   7.752  10.237  10.491 -1.7161  1.0389  0.3358
  342MOL0     H47188   7.571  10.440  10.561 -0.9181  0.0005  0.7697
  342MOL0     H47189   7.662  10.357  10.693  1.1680  0.2575  0.0721
  342MOL0     H47190   7.642  10.597  10.687 -2.6281 -2.1121 -0.6296
  342MOL0     H47191   7.746  10.613  10.542  0.7824  1.2746  1.4906
  342MOL0     H47192   7.983  10.501  10.894 -1.8386 -1.8957  0.6303
  342MOL0     H47193   7.369  10.470  10.222 -0.0215  0.7364 -2.7250
  342MOL0     H47194   7.119  10.331  10.240 -0.6869 -0.3419 -0.6734
  342MOL0     H47195   7.167  10.434  10.107 -1.3945 -1.1794 -2.0314
  342MOL0     H47196   7.111  10.277  10.078 -0.4522  0.3313 -1.0439
  343MOL0     O47197   8.891   5.394   0.924  0.2762 -0.4774  0.1355
  343MOL0     C47198   8.827   5.374   1.031 -0.2550  0.3815 -0.4859
  343MOL0     O47199   8.857   5.422   1.158  0.2534 -0.3208  0.0962
  343MOL0     C47200   8.955   5.507   1.186  0.7551 -0.2249 -0.7025
  343MOL0     C47201   8.924   5.616   1.275  0.0809 -0.6956  0.5882
  343MOL0     C47202   9.020   5.711   1.294  0.0735  0.5295  0.1750
  343MOL0     C47203   9.145   5.707   1.239 -0.2244  0.2911  0.3359
  343MOL0     O47204   9.247   5.799   1.250 -0.1769 -0.1490  0.1523
  343MOL0     C47205   9.254   5.874   1.372 -0.1427  0.2516  0.2546
  343MOL0     C47206   9.279   5.780   1.488  0.0767 -0.2599 -0.2471
  343MOL0     C47207   9.414   5.711   1.502  0.0294  0.0679 -0.2277
  343MOL0     C47208   9.454   5.607   1.395  0.2249 -0.6566  0.0855
  343MOL0     C47209   9.593   5.549   1.431 -0.8186 -0.4880  0.2661
  343MOL0     C47210   9.626   5.432   1.336  0.1851 -0.4558  0.0537
  343MOL0     C47211   9.765   5.374   1.375 -0.4194 -1.2711  0.0122
  343MOL0     C47212   9.768   5.224   1.352 -0.3751  0.2951 -0.2883
  343MOL0     N47213   9.906   5.164   1.328  0.8959 -0.7375 -0.2598
  343MOL0     C47214   9.982   5.102   1.426  0.1825  0.7645 -1.2390
  343MOL0     C47215  10.105   5.082   1.378  0.1936  0.2728  0.5156
  343MOL0     C47216  10.211   4.999   1.440  1.0858  0.7521 -0.0467
  343MOL0     C47217  10.331   5.084   1.499 -0.4834  0.6872  0.6834
  343MOL0     C47218  10.421   5.152   1.381 -0.7161 -0.5058 -0.4146
  343MOL0     C47219  10.538   5.223   1.450  0.3059 -0.8337 -0.1072
  343MOL0     O47220  10.624   5.266   1.349 -0.1182 -0.0862 -0.9091
  343MOL0     C47221  10.733   5.345   1.373 -0.5757  0.9427  0.5860
  343MOL0     C47222  10.813   5.374   1.261 -0.1248 -0.4167  0.7681
  343MOL0     C47223  10.918   5.461   1.269 -0.3575  0.2332  0.2990
  343MOL0     C47224  10.972   5.499   1.134 -0.3345  0.8216 -0.3579
  343MOL0     C47225  10.957   5.512   1.394 -0.4337 -0.4047  0.0660
  343MOL0     C47226  11.059   5.622   1.418 -1.2855  0.1987  0.8689
  343MOL0     O47227  11.093   5.705   1.305 -0.1937  1.0996  0.4520
  343MOL0     C47228  11.177   5.806   1.325 -0.4814 -0.0083 -1.4601
  343MOL0     C47229  11.293   5.795   1.404  0.2016 -0.2570 -0.7353
  343MOL0     C47230  11.372   5.907   1.425 -0.4947  0.7073 -0.4061
  343MOL0     C47231  11.344   6.029   1.362  0.4795 -0.6351  0.9830
  343MOL0     O47232  11.421   6.147   1.373 -0.2011  0.0325 -0.9325
  343MOL0     C47233  11.355   6.250   1.441  0.2254  0.0824 -1.0522
  343MOL0     C47234  11.334   6.365   1.335  0.6552 -0.8858 -0.0893
  343MOL0     C47235  11.286   6.492   1.412  0.1005 -0.4817  0.0339
  343MOL0     C47236  11.257   6.611   1.315  0.1757  0.7972 -0.2250
  343MOL0     C47237  11.106   6.592   1.269  0.2010  0.4412  0.1295
  343MOL0     C47238  11.050   6.716   1.215  0.9426 -0.1225 -0.5213
  343MOL0     C47239  10.889   6.705   1.224 -0.3034  0.4071 -0.6523
  343MOL0     C47240  10.828   6.815   1.143 -0.7219 -1.4781 -0.0884
  343MOL0    Cl47241  10.676   6.781   1.073 -0.3879  0.0309  0.0032
  343MOL0     C47242  11.226   6.031   1.279 -0.5929  0.3139 -0.3022
  343MOL0     C47243  11.145   5.922   1.257  0.3266 -0.4481  0.1539
  343MOL0     O47244  11.118   5.619   1.531 -0.2989 -0.3981 -0.0346
  343MOL0     C47245  10.888   5.468   1.513 -0.8476  0.0674 -0.0024
  343MOL0     C47246  10.768   5.400   1.502 -0.7509 -0.1646 -0.1877
  343MOL0     N47247  10.102   5.140   1.255 -0.7035 -0.4927  0.0123
  343MOL0     N47248   9.988   5.195   1.224  0.2724  0.6076  0.9481
  343MOL0     C47249   9.179   5.590   1.163  0.5347 -0.1812  0.0008
  343MOL0     C47250   9.080   5.490   1.142  0.4270 -0.2603  0.7754
  343MOL0     C47251   8.696   5.299   1.010 -0.2597 -0.6397  0.0041
  343MOL0     C47252   8.677   5.235   0.885 -0.7554  0.4750 -0.0565
  343MOL0     C47253   8.565   5.166   0.847 -0.8326 -0.8728  0.5182
  343MOL0     C47254   8.471   5.151   0.952  0.1910 -0.1894  0.1533
  343MOL0     O47255   8.359   5.078   0.954 -0.4330 -0.3006 -0.2683
  343MOL0     C47256   8.354   4.973   0.853  1.0018 -0.0052 -0.2142
  343MOL0     C47257   8.258   4.873   0.907 -0.4160 -0.1472  0.4101
  343MOL0     C47258   8.292   4.814   1.040 -0.1992  0.1649 -0.1808
  343MOL0     C47259   8.192   4.711   1.096 -0.2707 -0.0011  0.0148
  343MOL0     C47260   8.176   4.591   1.010 -0.1408  0.1993  0.1258
  343MOL0     C47261   8.166   4.496   0.936 -0.0069  0.6149 -1.1724
  343MOL0     C47262   8.482   5.219   1.068 -0.3808 -0.3316 -0.7418
  343MOL0     C47263   8.593   5.292   1.102 -0.0642  0.1713 -0.5587
  343MOL0     C47264   8.588   5.366   1.232 -0.0625 -0.5680 -0.2260
  343MOL0     H47265   8.825   5.620   1.319 -0.2396 -0.9506 -0.0942
  343MOL0     H47266   8.988   5.799   1.349 -2.8954  0.0162 -0.5400
  343MOL0     H47267   9.163   5.931   1.390  1.2195  2.5555  0.3311
  343MOL0     H47268   9.341   5.939   1.361  0.5998 -0.4709  1.5860
  343MOL0     H47269   9.262   5.841   1.578 -0.3905 -0.4744 -0.1866
  343MOL0     H47270   9.196   5.708   1.489 -0.3322  0.1858  1.1018
  343MOL0     H47271   9.488   5.790   1.522 -1.7095  1.5985  0.4096
  343MOL0     H47272   9.407   5.651   1.593 -1.4233  0.8913  0.2281
  343MOL0     H47273   9.376   5.534   1.374 -1.5613  1.9786 -3.4696
  343MOL0     H47274   9.456   5.655   1.297 -1.0123 -2.6419 -0.9705
  343MOL0     H47275   9.580   5.510   1.532  2.6050 -3.2897 -0.1757
  343MOL0     H47276   9.672   5.625   1.431  0.0893 -1.3929 -0.9800
  343MOL0     H47277   9.537   5.367   1.343 -0.0886 -0.1251 -0.2970
  343MOL0     H47278   9.620   5.460   1.230 -0.4934  3.0028  0.8740
  343MOL0     H47279   9.796   5.392   1.478  2.7098 -2.2453 -0.6442
  343MOL0     H47280   9.829   5.421   1.300 -1.5548 -2.1134 -1.5523
  343MOL0     H47281   9.719   5.178   1.439  1.9178 -0.6825  0.5627
  343MOL0     H47282   9.707   5.201   1.265 -1.2937  1.2259  0.0881
  343MOL0     H47283   9.943   5.079   1.524 -1.3896  0.2126 -1.9585
  343MOL0     H47284  10.255   4.916   1.384  0.1854  0.6859 -0.6762
  343MOL0     H47285  10.151   4.942   1.511  0.9131  0.0244 -0.7593
  343MOL0     H47286  10.300   5.154   1.577  0.4025  1.0090  0.7536
  343MOL0     H47287  10.392   5.020   1.563 -2.6167  0.1447  2.2694
  343MOL0     H47288  10.448   5.072   1.312 -0.2021 -3.6698  3.1495
  343MOL0     H47289  10.355   5.219   1.324 -3.1739 -0.8974  1.7707
  343MOL0     H47290  10.491   5.309   1.498  1.4950  0.1450 -0.6379
  343MOL0     H47291  10.589   5.149   1.513  1.3609  0.4801  0.6370
  343MOL0     H47292  10.779   5.330   1.167 -0.0331 -2.1415  1.4974
  343MOL0     H47293  10.932   5.448   1.046  0.1184 -2.0918  0.9986
  343MOL0     H47294  11.081   5.495   1.128 -0.2584 -1.0641  1.3707
  343MOL0     H47295  10.955   5.607   1.124 -1.8178  0.6020 -0.4541
  343MOL0     H47296  11.323   5.700   1.447 -2.7168  0.5683  3.7026
  343MOL0     H47297  11.467   5.898   1.476  0.3732 -0.9967 -2.1929
  343MOL0     H47298  11.266   6.210   1.492  0.4370 -1.3233 -1.7426
  343MOL0     H47299  11.420   6.294   1.517 -1.7906  0.6280  0.4523
  343MOL0     H47300  11.427   6.380   1.279  1.6354 -1.1971  1.3979
  343MOL0     H47301  11.257   6.334   1.264 -0.3948  1.9940 -0.3349
  343MOL0     H47302  11.363   6.525   1.483 -0.2168 -0.9079  0.5816
  343MOL0     H47303  11.195   6.463   1.464 -0.1648  2.1992  1.2486
  343MOL0     H47304  11.320   6.615   1.226 -0.1901 -1.1235 -0.5989
  343MOL0     H47305  11.277   6.708   1.362 -0.0305  0.6905  0.0892
  343MOL0     H47306  11.088   6.508   1.201  2.0880 -0.3217  0.5143
  343MOL0     H47307  11.056   6.566   1.363 -0.0118 -0.7115 -0.2894
  343MOL0     H47308  11.096   6.731   1.117  3.3455  1.6889  0.7837
  343MOL0     H47309  11.080   6.801   1.277  2.1296  1.2256 -2.8235
  343MOL0     H47310  10.859   6.722   1.328 -1.0879 -0.2240 -0.7693
  343MOL0     H47311  10.853   6.610   1.184  1.2246 -0.8844  0.9422
  343MOL0     H47312  10.907   6.849   1.075  1.6615 -1.1717  2.5946
  343MOL0     H47313  10.808   6.898   1.211 -1.6340  1.2389 -3.4068
  343MOL0     H47314  11.209   6.115   1.212  2.3022 -0.3598 -2.0566
  343MOL0     H47315  11.075   5.908   1.176  0.8335 -2.0000 -0.0481
  343MOL0     H47316  10.910   5.504   1.613 -0.0536 -0.9840  0.2193
  343MOL0     H47317  10.713   5.372   1.591 -1.9061 -0.5927 -1.0004
  343MOL0     H47318   9.269   5.579   1.103  0.4337 -2.7214  0.2169
  343MOL0     H47319   9.110   5.418   1.067  0.5873  2.2432 -1.7237
  343MOL0     H47320   8.753   5.242   0.808 -0.4918  2.5280  0.3293
  343MOL0     H47321   8.550   5.115   0.752 -3.2366  0.4685  0.1216
  343MOL0     H47322   8.311   5.009   0.759 -1.2096 -0.3410  0.6136
  343MOL0     H47323   8.450   4.923   0.843  0.2992 -1.3837 -0.2877
  343MOL0     H47324   8.252   4.795   0.831 -0.9781 -3.1322  3.3035
  343MOL0     H47325   8.160   4.922   0.912 -0.9843 -1.3291  1.8215
  343MOL0     H47326   8.394   4.776   1.032  1.2715  3.8328 -0.9470
  343MOL0     H47327   8.302   4.898   1.110 -0.0161 -0.6016  0.7465
  343MOL0     H47328   8.093   4.757   1.102 -0.0940  0.4438 -0.3746
  343MOL0     H47329   8.220   4.685   1.198 -2.2324 -2.5790 -0.0227
  343MOL0     H47330   8.142   4.403   0.887  1.2478 -1.3008  1.6138
  343MOL0     H47331   8.398   5.221   1.136  0.1807  1.0050 -0.0360
  343MOL0     H47332   8.501   5.351   1.298  0.8464  3.8259  2.3411
  343MOL0     H47333   8.680   5.363   1.290 -0.0693 -2.0101 -0.2539
  343MOL0     H47334   8.575   5.471   1.208  1.8489 -0.2494  0.0506
  344MOL0     O47335   9.176   3.192   7.182 -0.5881  0.0691 -0.3700
  344MOL0     C47336   9.219   3.306   7.208  0.5459  0.2262 -0.6008
  344MOL0     O47337   9.311   3.331   7.301 -0.4475 -0.3545 -0.7502
  344MOL0     C47338   9.365   3.228   7.368 -0.1919  0.2161  0.2803
  344MOL0     C47339   9.298   3.171   7.472 -0.4402  0.1045  0.3792
  344MOL0     C47340   9.362   3.070   7.548  0.0073 -0.9439 -0.3553
  344MOL0     C47341   9.495   3.039   7.519  0.2647  0.1447  0.5433
  344MOL0     O47342   9.549   2.946   7.606 -1.4547 -0.3795 -0.6215
  344MOL0     C47343   9.676   2.890   7.583 -0.3674  0.3673  0.8207
  344MOL0     C47344   9.781   2.991   7.648  0.8513 -0.2362  0.7029
  344MOL0     C47345   9.761   3.023   7.800 -0.4819  0.1792  0.2513
  344MOL0     C47346   9.834   3.145   7.841  0.5142 -0.9280 -0.0129
  344MOL0     C47347   9.798   3.188   7.988 -0.3226 -0.2839  0.1699
  344MOL0     C47348   9.850   3.324   8.034  0.8626 -0.4677 -0.3546
  344MOL0     C47349   9.821   3.372   8.171  0.0862  1.3424 -1.3227
  344MOL0     C47350   9.900   3.288   8.266  0.1256  0.0503  1.0002
  344MOL0     N47351   9.865   3.336   8.399  0.0047  0.5866  0.0927
  344MOL0     C47352   9.871   3.469   8.437  0.2033  0.7266  0.9331
  344MOL0     C47353   9.810   3.468   8.556  0.2188  0.8975 -0.5716
  344MOL0     C47354   9.802   3.588   8.654 -0.2834 -0.3561  0.4927
  344MOL0     C47355   9.851   3.558   8.789  0.9102  0.5417  0.5024
  344MOL0     C47356   9.786   3.642   8.898 -0.0088 -1.2806 -0.9319
  344MOL0     C47357   9.634   3.633   8.922  0.6900 -0.0865 -0.1061
  344MOL0     O47358   9.609   3.511   8.998 -0.0646 -0.4592  0.4045
  344MOL0     C47359   9.478   3.514   9.057 -0.6398 -0.1955 -0.4176
  344MOL0     C47360   9.444   3.396   9.126 -0.5139  0.1098  0.0539
  344MOL0     C47361   9.324   3.365   9.191  0.6837 -0.0993  1.5440
  344MOL0     C47362   9.306   3.229   9.249  0.4676 -0.5564  0.3939
  344MOL0     C47363   9.226   3.471   9.202 -0.1613  0.0611  0.0127
  344MOL0     C47364   9.088   3.451   9.264  0.0269  0.3753 -0.1679
  344MOL0     O47365   9.029   3.571   9.294 -0.5161 -0.6654 -0.3215
  344MOL0     C47366   8.896   3.575   9.329 -0.4278 -0.8896  0.1636
  344MOL0     C47367   8.812   3.587   9.220  0.1235  0.3662 -0.5690
  344MOL0     C47368   8.674   3.602   9.241 -0.1292 -0.6058  0.0795
  344MOL0     C47369   8.627   3.598   9.377  0.3165  0.0927 -0.1902
  344MOL0     O47370   8.496   3.592   9.424 -0.2413 -0.0440 -0.6122
  344MOL0     C47371   8.391   3.587   9.324  0.5760  0.8843  0.3334
  344MOL0     C47372   8.246   3.572   9.376 -0.3080  0.2517 -1.0797
  344MOL0     C47373   8.193   3.713   9.429 -0.1076  0.8300 -0.4073
  344MOL0     C47374   8.067   3.677   9.519 -0.2863 -0.6598  0.3261
  344MOL0     C47375   8.003   3.810   9.566 -0.4669 -0.2929  1.1035
  344MOL0     C47376   7.866   3.800   9.621 -0.0366  0.0279 -0.4879
  344MOL0     C47377   7.855   3.683   9.723 -0.0806  0.3147  0.7601
  344MOL0     C47378   7.716   3.657   9.780 -0.4348  0.0548 -0.6907
  344MOL0    Cl47379   7.593   3.638   9.651  0.3671  0.0940  0.2784
  344MOL0     C47380   8.718   3.600   9.479  0.0191  0.4140 -0.5489
  344MOL0     C47381   8.851   3.585   9.455 -0.1080 -0.4759 -0.3755
  344MOL0     O47382   9.050   3.332   9.285 -0.2820 -0.7608  0.3568
  344MOL0     C47383   9.265   3.596   9.143  0.2567 -0.0487 -0.1837
  344MOL0     C47384   9.391   3.617   9.072  0.2021 -0.2689 -0.3741
  344MOL0     N47385   9.768   3.342   8.592  0.4667 -0.2680 -0.4270
  344MOL0     N47386   9.793   3.266   8.492  0.5340  0.5989 -0.2878
  344MOL0     C47387   9.563   3.098   7.415 -0.3191 -0.4075 -0.0036
  344MOL0     C47388   9.496   3.192   7.336 -0.6968 -0.5125 -0.2398
  344MOL0     C47389   9.160   3.418   7.138  0.2437 -0.2965  0.8362
  344MOL0     C47390   9.239   3.538   7.150  0.2570  0.6533 -1.3309
  344MOL0     C47391   9.200   3.667   7.101 -0.4826 -0.3641 -0.0899
  344MOL0     C47392   9.080   3.673   7.035 -0.2350  0.5302  1.1307
  344MOL0     O47393   9.018   3.780   6.970 -0.6355 -0.3037  0.1792
  344MOL0     C47394   9.106   3.886   6.935 -0.0993 -0.1533  0.1657
  344MOL0     C47395   9.047   3.975   6.817 -0.0752 -0.1978 -0.4109
  344MOL0     C47396   8.998   3.900   6.689 -0.6460  0.0973  0.3287
  344MOL0     C47397   9.117   3.869   6.610 -0.2666  0.4531 -0.0577
  344MOL0     C47398   9.083   3.772   6.509  0.5451  1.2028 -0.2506
  344MOL0     C47399   9.050   3.694   6.421 -0.4104  0.5106  0.1672
  344MOL0     C47400   9.000   3.555   7.019 -0.5874  0.5903  0.0955
  344MOL0     C47401   9.032   3.431   7.071  0.1005  0.2975  0.1705
  344MOL0     C47402   8.932   3.319   7.043 -0.1865 -0.5886  0.4427
  344MOL0     H47403   9.190   3.186   7.474 -0.4974  0.8661 -2.8412
  344MOL0     H47404   9.294   3.034   7.625 -1.4011 -1.6195 -1.8425
  344MOL0     H47405   9.703   2.873   7.479  0.7300 -1.5642  1.3669
  344MOL0     H47406   9.682   2.790   7.627  0.3738  0.9804  2.1858
  344MOL0     H47407   9.878   2.939   7.645  1.0566  0.2098 -0.8226
  344MOL0     H47408   9.784   3.077   7.581 -0.9797 -3.1185 -3.5274
  344MOL0     H47409   9.655   3.035   7.825 -0.3129  0.7344  0.7119
  344MOL0     H47410   9.788   2.934   7.857 -3.7176 -0.4391  1.0471
  344MOL0     H47411   9.943   3.134   7.833  1.0421  3.3798 -1.3138
  344MOL0     H47412   9.801   3.223   7.771 -0.9274 -1.3641  0.1527
  344MOL0     H47413   9.826   3.109   8.058  2.6926  2.5394  2.4230
  344MOL0     H47414   9.689   3.188   7.999 -0.2742  2.2014  1.2765
  344MOL0     H47415   9.957   3.316   8.011  0.7887  0.3523 -1.0271
  344MOL0     H47416   9.805   3.398   7.966 -0.5032 -0.7693  0.1805
  344MOL0     H47417   9.715   3.364   8.194 -0.4778  2.2989 -3.3676
  344MOL0     H47418   9.854   3.476   8.183  2.3485  0.4994  0.5029
  344MOL0     H47419   9.869   3.184   8.261  0.1464  0.0981 -0.8482
  344MOL0     H47420  10.008   3.302   8.251  0.3192 -1.0939  1.2663
  344MOL0     H47421   9.894   3.558   8.379  1.0220 -1.3614 -2.1945
  344MOL0     H47422   9.695   3.609   8.663 -1.6131 -4.8308 -1.8309
  344MOL0     H47423   9.854   3.676   8.613 -1.8465  0.5975  0.4794
  344MOL0     H47424   9.837   3.455   8.823 -1.2198  1.3116  2.1712
  344MOL0     H47425   9.959   3.572   8.805  1.2447 -3.4641  3.2567
  344MOL0     H47426   9.834   3.622   8.994  0.5659  2.2443 -0.3489
  344MOL0     H47427   9.814   3.747   8.881  0.6092 -0.8193  2.3361
  344MOL0     H47428   9.614   3.721   8.984  2.7100 -0.9742  1.9480
  344MOL0     H47429   9.568   3.636   8.834 -1.4157  0.6654  1.4191
  344MOL0     H47430   9.522   3.322   9.131 -0.9775 -0.3525  0.6158
  344MOL0     H47431   9.380   3.175   9.188 -1.3172  2.0149 -4.5925
  344MOL0     H47432   9.216   3.183   9.208 -0.0210  2.4489 -2.2578
  344MOL0     H47433   9.315   3.212   9.357  0.1974 -0.2572  0.4643
  344MOL0     H47434   8.849   3.584   9.118  3.1317  0.6396  0.4125
  344MOL0     H47435   8.600   3.601   9.162 -2.1874 -0.5563  1.8927
  344MOL0     H47436   8.390   3.680   9.265 -0.8624  1.5596  1.3449
  344MOL0     H47437   8.408   3.507   9.252 -0.5726  0.0616  0.9471
  344MOL0     H47438   8.192   3.532   9.289 -0.6612 -3.1387  0.5595
  344MOL0     H47439   8.239   3.500   9.458  1.1230  0.8783 -0.3786
  344MOL0     H47440   8.163   3.772   9.343  2.4607  0.6653 -1.5194
  344MOL0     H47441   8.262   3.780   9.481 -2.7396  4.1904 -0.9180
  344MOL0     H47442   8.095   3.621   9.609  1.6047 -2.1154 -1.0808
  344MOL0     H47443   7.992   3.625   9.460 -1.1399 -0.4450  1.1878
  344MOL0     H47444   8.068   3.858   9.640 -0.2818 -0.6321  1.1622
  344MOL0     H47445   7.999   3.869   9.475  3.3542  1.7154  2.0309
  344MOL0     H47446   7.808   3.779   9.531 -0.9391  0.2577  0.0299
  344MOL0     H47447   7.822   3.895   9.653 -0.2992  0.2199 -1.3836
  344MOL0     H47448   7.938   3.696   9.794 -0.4980  0.0788  1.2929
  344MOL0     H47449   7.870   3.594   9.661 -0.5669  1.2769 -0.8198
  344MOL0     H47450   7.693   3.750   9.833  0.8028  0.3199 -0.5955
  344MOL0     H47451   7.730   3.575   9.852 -0.4778  2.8389  2.7591
  344MOL0     H47452   8.689   3.599   9.584  0.8844  0.5770 -0.3008
  344MOL0     H47453   8.909   3.581   9.547 -0.1514 -2.3641 -0.3996
  344MOL0     H47454   9.202   3.684   9.144 -0.7400 -0.4580 -4.7706
  344MOL0     H47455   9.416   3.719   9.044  2.8983 -1.5112 -3.0351
  344MOL0     H47456   9.666   3.080   7.386 -0.0387 -1.3363  1.4517
  344MOL0     H47457   9.536   3.252   7.255 -1.6473  2.7839  1.5568
  344MOL0     H47458   9.332   3.545   7.205  0.1642 -1.4363 -0.8033
  344MOL0     H47459   9.272   3.747   7.118 -1.8116  0.8096  0.2354
  344MOL0     H47460   9.128   3.948   7.022  0.6054  0.4203 -0.4030
  344MOL0     H47461   9.202   3.853   6.895 -0.0863 -1.0350  0.8746
  344MOL0     H47462   9.114   4.059   6.795 -2.0526  1.3011 -1.0322
  344MOL0     H47463   8.955   4.022   6.854 -0.2736  0.4938 -1.7073
  344MOL0     H47464   8.940   3.812   6.718  0.4405 -0.2989  1.3681
  344MOL0     H47465   8.924   3.961   6.635  0.1540  0.2819 -0.5861
  344MOL0     H47466   9.200   3.825   6.666 -1.8230 -0.5566  1.5253
  344MOL0     H47467   9.162   3.955   6.559  2.1627 -1.2077 -0.8915
  344MOL0     H47468   8.996   3.633   6.351 -1.3999  3.3556 -1.7191
  344MOL0     H47469   8.906   3.568   6.968  0.1173  1.8135 -0.9552
  344MOL0     H47470   8.866   3.300   7.129  1.5704  1.7953  2.4771
  344MOL0     H47471   8.873   3.352   6.958  1.0990 -1.2675 -0.7572
  344MOL0     H47472   8.981   3.227   7.010  0.9598  0.9384 -2.5192
  345MOL0     O47473   2.033   7.403   6.592 -0.3659 -0.4523  0.7305
  345MOL0     C47474   1.984   7.511   6.567 -0.3984  0.1288 -0.6803
  345MOL0     O47475   2.042   7.635   6.591  0.2933 -0.1294 -0.6166
  345MOL0     C47476   2.162   7.626   6.656  0.2811 -0.1906 -0.3126
  345MOL0     C47477   2.203   7.543   6.762  0.8190 -0.0280 -0.6404
  345MOL0     C47478   2.325   7.561   6.831 -0.9810 -0.0297  0.8623
  345MOL0     C47479   2.417   7.654   6.787  0.3915 -0.7911  0.9978
  345MOL0     O47480   2.544   7.675   6.835 -0.0904 -0.5546 -0.6173
  345MOL0     C47481   2.663   7.680   6.745  1.1755 -0.0171  0.3197
  345MOL0     C47482   2.782   7.623   6.825  0.3524 -0.0556 -0.0378
  345MOL0     C47483   2.758   7.468   6.835 -0.7752  0.5872 -0.0375
  345MOL0     C47484   2.884   7.401   6.881 -0.3419  0.0947 -0.1316
  345MOL0     C47485   2.856   7.250   6.923 -0.1357 -1.2500 -0.1807
  345MOL0     C47486   2.969   7.194   6.992  0.4289  0.4395  0.0770
  345MOL0     C47487   3.109   7.219   6.924 -0.4908  0.4422  0.5448
  345MOL0     C47488   3.212   7.116   6.968  1.2308 -0.3196 -0.2003
  345MOL0     N47489   3.266   7.135   7.109  0.1814  0.6277  0.7405
  345MOL0     C47490   3.210   7.081   7.221  0.4723  0.3148 -0.4116
  345MOL0     C47491   3.300   7.097   7.319 -0.0982 -0.1487 -0.4212
  345MOL0     C47492   3.305   7.021   7.451  0.0166 -0.4971 -0.9674
  345MOL0     C47493   3.203   7.066   7.550 -0.2257  0.3853 -0.7721
  345MOL0     C47494   3.234   7.197   7.619  1.2600 -0.0888  0.9136
  345MOL0     C47495   3.317   7.194   7.747 -0.4857  0.1325  0.2264
  345MOL0     O47496   3.328   7.324   7.812  0.1817  0.7462 -0.1977
  345MOL0     C47497   3.428   7.414   7.777  0.4088  0.2488  0.9384
  345MOL0     C47498   3.519   7.402   7.666  0.2253 -0.2514  0.3914
  345MOL0     C47499   3.612   7.501   7.646  0.1070 -1.0209  1.0475
  345MOL0     C47500   3.670   7.509   7.504  0.4218  0.1369 -0.2102
  345MOL0     C47501   3.625   7.612   7.731 -0.7464  0.0184  0.4506
  345MOL0     C47502   3.735   7.711   7.725 -0.9085 -0.4154  0.8522
  345MOL0     O47503   3.707   7.844   7.759 -0.1260  0.1041 -0.6278
  345MOL0     C47504   3.815   7.931   7.755 -0.5985  0.1977 -0.5605
  345MOL0     C47505   3.833   8.009   7.640 -0.7261  0.5622  0.1029
  345MOL0     C47506   3.946   8.091   7.629 -0.2526 -0.2115  0.3736
  345MOL0     C47507   4.028   8.117   7.735  0.4289 -0.4332 -0.9531
  345MOL0     O47508   4.139   8.200   7.731  0.4049 -0.1917 -0.0716
  345MOL0     C47509   4.163   8.297   7.624 -0.2300  0.2426 -0.0136
  345MOL0     C47510   4.264   8.406   7.649  1.4442  0.2244 -0.0253
  345MOL0     C47511   4.397   8.355   7.667  0.3838 -0.0224 -0.0628
  345MOL0     C47512   4.510   8.455   7.706  0.7895  0.6168  0.6098
  345MOL0     C47513   4.639   8.386   7.755  0.0837 -0.6870  0.0533
  345MOL0     C47514   4.725   8.325   7.649 -0.4719 -0.2461  0.1397
  345MOL0     C47515   4.851   8.268   7.723 -0.6088 -0.3275  0.3753
  345MOL0     C47516   4.939   8.175   7.642  0.0713 -0.5437  0.8402
  345MOL0    Cl47517   5.060   8.085   7.735  0.0707  0.2284 -0.2584
  345MOL0     C47518   4.011   8.038   7.851  0.0507  0.3693 -0.1621
  345MOL0     C47519   3.906   7.948   7.866  0.0423 -0.4455  0.6233
  345MOL0     O47520   3.848   7.665   7.696 -0.5077 -0.1041 -0.7936
  345MOL0     C47521   3.547   7.611   7.845  0.8043 -0.3819  0.1775
  345MOL0     C47522   3.442   7.523   7.864 -0.2001  0.2933 -0.6775
  345MOL0     N47523   3.398   7.186   7.271 -0.4753  0.4606  0.7269
  345MOL0     N47524   3.376   7.206   7.145  0.7065 -0.3483  0.6581
  345MOL0     C47525   2.374   7.745   6.691 -0.5822  0.1720 -0.1998
  345MOL0     C47526   2.251   7.731   6.627  0.2547 -0.4755 -0.2395
  345MOL0     C47527   1.852   7.514   6.497 -0.1620 -0.3669  0.1692
  345MOL0     C47528   1.809   7.643   6.447  0.6348  0.0290 -0.2522
  345MOL0     C47529   1.686   7.666   6.383 -0.1933 -0.4582  0.2656
  345MOL0     C47530   1.596   7.563   6.353 -0.0541  0.0356  0.4487
  345MOL0     O47531   1.471   7.588   6.291  0.2212  0.1185 -0.1159
  345MOL0     C47532   1.421   7.479   6.205 -0.4625 -0.1926  0.8896
  345MOL0     C47533   1.320   7.536   6.097 -0.2748  0.1907  0.6141
  345MOL0     C47534   1.197   7.594   6.157  0.7632  0.2582  0.5136
  345MOL0     C47535   1.088   7.627   6.048  0.3498  0.0855 -0.9680
  345MOL0     C47536   1.116   7.755   5.992 -0.3622  0.2029  0.4441
  345MOL0     C47537   1.144   7.853   5.926  0.9040 -0.1055 -0.5527
  345MOL0     C47538   1.639   7.431   6.396  0.2020 -0.5920  0.9419
  345MOL0     C47539   1.762   7.409   6.471 -0.1945 -0.7892  0.2224
  345MOL0     C47540   1.792   7.267   6.513  0.3971 -0.2845 -0.1941
  345MOL0     H47541   2.133   7.477   6.811  2.2692 -0.4639  0.9408
  345MOL0     H47542   2.360   7.484   6.898 -0.0718 -0.6506 -0.2808
  345MOL0     H47543   2.681   7.784   6.716  0.9762 -0.1300 -0.2189
  345MOL0     H47544   2.647   7.616   6.658 -0.0512 -1.4634  1.5403
  345MOL0     H47545   2.878   7.641   6.775 -1.0516 -2.4837 -4.1617
  345MOL0     H47546   2.784   7.662   6.927  1.7561 -1.9346  0.6994
  345MOL0     H47547   2.669   7.446   6.895  0.0226 -1.4035  0.4767
  345MOL0     H47548   2.741   7.435   6.733  0.7044  1.2085 -0.5102
  345MOL0     H47549   2.955   7.403   6.798 -0.2756 -2.3104 -0.1815
  345MOL0     H47550   2.924   7.457   6.967 -0.0743 -3.7074  2.4351
  345MOL0     H47551   2.827   7.199   6.831  2.0767 -2.1743 -0.4209
  345MOL0     H47552   2.773   7.255   6.994  0.5692  0.8302  0.5974
  345MOL0     H47553   2.966   7.237   7.093 -2.5131 -1.0012  0.7185
  345MOL0     H47554   2.950   7.088   7.012 -0.8059  0.8135  1.0363
  345MOL0     H47555   3.143   7.321   6.943 -0.5378  0.9294 -1.7285
  345MOL0     H47556   3.101   7.216   6.815  1.0512  1.7356  0.3628
  345MOL0     H47557   3.173   7.014   6.965 -0.1235  0.1233  1.1528
  345MOL0     H47558   3.300   7.120   6.903  0.6180  1.6833 -0.9545
  345MOL0     H47559   3.116   7.027   7.234 -0.5266  1.6896 -1.5636
  345MOL0     H47560   3.407   7.038   7.485  0.0714  2.8845 -2.4057
  345MOL0     H47561   3.294   6.914   7.431 -0.3624 -0.4475 -1.0421
  345MOL0     H47562   3.111   7.079   7.492 -0.5751 -0.2349 -0.3770
  345MOL0     H47563   3.177   6.988   7.623  1.6173  0.5288  0.0812
  345MOL0     H47564   3.278   7.269   7.549 -2.0649  2.4614  1.1957
  345MOL0     H47565   3.143   7.249   7.649 -1.6777 -3.2240 -1.7893
  345MOL0     H47566   3.278   7.118   7.816 -1.0976  0.4641  0.2603
  345MOL0     H47567   3.419   7.160   7.729 -0.5463  0.8798 -1.7294
  345MOL0     H47568   3.505   7.332   7.585 -0.6450 -0.8274  1.0254
  345MOL0     H47569   3.655   7.607   7.457 -0.8702 -0.5356 -1.2560
  345MOL0     H47570   3.622   7.431   7.444 -0.7845 -0.5220  1.5179
  345MOL0     H47571   3.778   7.495   7.507  0.8840  3.2034  1.1274
  345MOL0     H47572   3.761   7.995   7.560 -2.2912  0.5946  1.4598
  345MOL0     H47573   3.974   8.141   7.537  0.4425 -2.6383 -0.8047
  345MOL0     H47574   4.194   8.244   7.534  0.9586 -1.6252  1.4334
  345MOL0     H47575   4.068   8.350   7.608  0.7805  2.3007  0.4183
  345MOL0     H47576   4.266   8.476   7.565 -2.7659  1.6455  0.8208
  345MOL0     H47577   4.236   8.465   7.738  2.5867  0.3317  0.2846
  345MOL0     H47578   4.419   8.320   7.566  0.2898 -0.0380 -0.0778
  345MOL0     H47579   4.395   8.269   7.735  2.7662  2.1290  2.9904
  345MOL0     H47580   4.482   8.519   7.791 -1.4436  0.9597 -0.3070
  345MOL0     H47581   4.529   8.515   7.617 -0.5697  1.8825  1.1277
  345MOL0     H47582   4.704   8.457   7.808  1.3987  0.0055 -2.3573
  345MOL0     H47583   4.612   8.310   7.828  0.8057 -1.1889 -0.1914
  345MOL0     H47584   4.764   8.400   7.579  3.3924 -1.3888  0.8098
  345MOL0     H47585   4.671   8.243   7.601 -0.5713 -1.0525  1.5767
  345MOL0     H47586   4.808   8.201   7.798  1.4910 -0.2378  1.7566
  345MOL0     H47587   4.909   8.343   7.778  4.5306 -2.4279 -1.5317
  345MOL0     H47588   4.991   8.238   7.569 -2.9290 -0.9145 -1.8648
  345MOL0     H47589   4.870   8.103   7.597 -0.8706  1.0251 -0.3437
  345MOL0     H47590   4.084   8.058   7.929  2.3485 -0.3233 -1.9984
  345MOL0     H47591   3.883   7.894   7.957  1.8753 -1.8544  0.2980
  345MOL0     H47592   3.562   7.685   7.924  1.4785  1.2660 -1.4174
  345MOL0     H47593   3.374   7.543   7.947  0.0475 -0.7238 -0.2184
  345MOL0     H47594   2.441   7.824   6.658  3.2023 -2.5260  0.3356
  345MOL0     H47595   2.225   7.786   6.538 -0.7647  1.0195  0.9384
  345MOL0     H47596   1.879   7.725   6.459  1.2262 -0.4829 -0.1751
  345MOL0     H47597   1.648   7.763   6.351 -3.0031 -2.1463 -1.9937
  345MOL0     H47598   1.507   7.446   6.147 -1.8613 -1.6746 -0.4228
  345MOL0     H47599   1.365   7.405   6.262 -1.0340  1.5039  2.6294
  345MOL0     H47600   1.290   7.455   6.030 -1.7772  0.3477  1.0550
  345MOL0     H47601   1.373   7.612   6.039 -2.1387  1.3137  0.2711
  345MOL0     H47602   1.157   7.535   6.240  0.9574 -0.4126  0.1364
  345MOL0     H47603   1.213   7.689   6.209 -0.5282 -0.9444  3.3491
  345MOL0     H47604   0.989   7.634   6.095  1.3665  0.6495  1.2369
  345MOL0     H47605   1.084   7.547   5.974 -1.7514 -1.7934  1.0138
  345MOL0     H47606   1.157   7.942   5.868 -1.9611 -0.6369 -2.1953
  345MOL0     H47607   1.570   7.349   6.378 -1.4117  0.7508  0.7470
  345MOL0     H47608   1.860   7.225   6.438 -0.4714  0.1381 -1.2519
  345MOL0     H47609   1.820   7.267   6.618  0.2544  2.3417 -0.0742
  345MOL0     H47610   1.698   7.212   6.518  0.2760 -0.3046 -2.0195
  346MOL0     O47611  10.267   3.307  11.212  1.0523 -0.2681 -0.0205
  346MOL0     C47612  10.299   3.423  11.173 -0.5706 -0.1126 -0.2945
  346MOL0     O47613  10.413   3.456  11.117  0.2830 -0.0794  0.8234
  346MOL0     C47614  10.500   3.351  11.094 -1.2328  0.1541 -0.7576
  346MOL0     C47615  10.526   3.247  11.186 -0.9232 -0.1896  0.1666
  346MOL0     C47616  10.614   3.141  11.149 -0.2943  0.0714 -0.0656
  346MOL0     C47617  10.662   3.136  11.017 -0.3683  0.1182 -0.5471
  346MOL0     O47618  10.749   3.038  10.980  0.0275 -0.0534 -1.1857
  346MOL0     C47619  10.882   3.055  11.034  0.1525  0.1592 -0.2633
  346MOL0     C47620  10.959   2.924  11.024 -0.0034 -1.0142  0.0177
  346MOL0     C47621  11.001   2.893  10.872  0.0122 -0.0699 -0.2125
  346MOL0     C47622  11.080   2.758  10.866  0.0900  0.7233  0.2209
  346MOL0     C47623  10.985   2.631  10.867 -0.8724 -0.7238 -0.2312
  346MOL0     C47624  11.050   2.489  10.899 -0.2420 -0.4708  0.8687
  346MOL0     C47625  10.949   2.383  10.911  0.2480  0.6633 -0.0412
  346MOL0     C47626  10.996   2.246  10.961 -0.6604 -0.0051  0.9275
  346MOL0     N47627  11.025   2.250  11.105 -0.0939 -0.6474  0.1141
  346MOL0     C47628  10.929   2.221  11.193 -0.3960 -0.8907  0.1886
  346MOL0     C47629  10.991   2.225  11.310 -0.2119 -0.4795  0.1573
  346MOL0     C47630  10.922   2.192  11.437 -1.4454 -0.0722 -0.6029
  346MOL0     C47631  10.975   2.055  11.490 -0.2864  0.4132  0.9177
  346MOL0     C47632  10.884   1.931  11.460  0.6793  0.0725  0.5414
  346MOL0     C47633  10.950   1.811  11.527  0.0225  0.3637 -0.0848
  346MOL0     O47634  11.022   1.742  11.424  0.4993 -0.2058  0.3200
  346MOL0     C47635  11.158   1.765  11.407  0.5700  0.5002  0.5650
  346MOL0     C47636  11.214   1.698  11.296 -0.7469 -0.4627  0.0492
  346MOL0     C47637  11.350   1.719  11.262 -0.2790 -0.2581 -0.2321
  346MOL0     C47638  11.398   1.651  11.143  0.4959  0.4500  0.5443
  346MOL0     C47639  11.438   1.808  11.337  0.4972  0.3868  0.3517
  346MOL0     C47640  11.586   1.831  11.323 -0.2113 -0.4074  0.9213
  346MOL0     O47641  11.659   1.819  11.427 -0.4634 -0.3592 -0.0132
  346MOL0     C47642  11.797   1.826  11.415  0.0935  0.1305  0.2979
  346MOL0     C47643  11.872   1.899  11.507  0.1166 -0.1792  0.1393
  346MOL0     C47644  12.013   1.905  11.510  0.2866 -0.1538  0.3546
  346MOL0     C47645  12.084   1.826  11.421 -0.4230  0.4450 -0.0637
  346MOL0     O47646  12.221   1.817  11.416  0.1735  0.3061  0.4451
  346MOL0     C47647  12.315   1.892  11.500 -0.0249  0.1870 -0.1924
  346MOL0     C47648  12.458   1.857  11.463  0.6693  0.3982 -1.3077
  346MOL0     C47649  12.551   1.884  11.585 -0.0199 -0.4832  0.2844
  346MOL0     C47650  12.698   1.861  11.539 -0.0637 -0.1135  0.2726
  346MOL0     C47651  12.801   1.905  11.650  0.2809  0.0051  0.6894
  346MOL0     C47652  12.781   1.834  11.790 -0.1363 -0.5499  0.5523
  346MOL0     C47653  12.868   1.897  11.908  0.7230  0.9254  0.1100
  346MOL0     C47654  12.813   1.845  12.045  0.3223 -0.5332 -0.2292
  346MOL0    Cl47655  12.816   1.675  12.064 -0.1850 -0.0269  0.2557
  346MOL0     C47656  12.005   1.740  11.324 -0.4264 -0.0127 -1.0901
  346MOL0     C47657  11.866   1.745  11.328  0.7116  0.3498 -0.6449
  346MOL0     O47658  11.630   1.844  11.205 -0.1541 -0.3778 -0.3804
  346MOL0     C47659  11.378   1.868  11.450  0.5329  0.1261 -1.0246
  346MOL0     C47660  11.244   1.855  11.475  0.5612  0.2733 -0.9319
  346MOL0     N47661  11.126   2.253  11.293 -0.3661  0.0055 -0.0321
  346MOL0     N47662  11.146   2.262  11.165 -0.0988 -0.5312  0.0357
  346MOL0     C47663  10.640   3.235  10.935 -0.2365 -0.6137  0.5654
  346MOL0     C47664  10.553   3.343  10.968 -0.4595 -0.1446  0.0233
  346MOL0     C47665  10.184   3.518  11.171 -0.6446  0.0474 -0.4972
  346MOL0     C47666  10.106   3.522  11.293 -0.1583  0.8190  0.8785
  346MOL0     C47667   9.983   3.593  11.293 -0.0895  0.2313  0.3139
  346MOL0     C47668   9.952   3.679  11.188  0.0809 -0.4170  0.5737
  346MOL0     O47669   9.830   3.741  11.196  0.5643  0.1961 -0.5083
  346MOL0     C47670   9.803   3.837  11.097 -0.4304  0.1885 -0.4331
  346MOL0     C47671   9.680   3.916  11.142  0.2454 -0.0658  0.3976
  346MOL0     C47672   9.706   4.022  11.247 -0.3192 -0.0333  0.8403
  346MOL0     C47673   9.578   4.098  11.282  0.3488  1.0033 -0.7873
  346MOL0     C47674   9.523   4.195  11.185 -0.0044  0.2945 -0.5919
  346MOL0     C47675   9.480   4.282  11.112 -0.0681 -0.1995  0.1354
  346MOL0     C47676  10.033   3.684  11.068 -0.7128  0.1651  0.1400
  346MOL0     C47677  10.157   3.610  11.066 -0.1996  0.3915 -0.2748
  346MOL0     C47678  10.243   3.618  10.939 -0.0273 -0.4727 -0.6071
  346MOL0     H47679  10.488   3.242  11.288 -1.1618 -1.1762  0.0394
  346MOL0     H47680  10.640   3.062  11.218  3.6638 -1.0131 -2.4819
  346MOL0     H47681  10.883   3.087  11.139  1.4363  2.8478 -0.9896
  346MOL0     H47682  10.936   3.132  10.979  3.2494 -1.4696  0.2367
  346MOL0     H47683  11.049   2.944  11.084 -0.2046  5.3429 -1.1261
  346MOL0     H47684  10.893   2.843  11.057 -1.5715 -0.5786 -1.9228
  346MOL0     H47685  10.913   2.877  10.808  0.7460 -0.5279 -1.1361
  346MOL0     H47686  11.059   2.979  10.836 -1.3819  1.0857  0.1741
  346MOL0     H47687  11.133   2.754  10.771 -2.2726 -2.9966 -1.1717
  346MOL0     H47688  11.150   2.749  10.950  0.4823  0.9145 -0.0823
  346MOL0     H47689  10.946   2.629  10.765  1.9449  0.4987 -1.4232
  346MOL0     H47690  10.898   2.659  10.928 -0.4851  3.4002 -1.2841
  346MOL0     H47691  11.110   2.471  10.810  0.0593  1.5003  0.6374
  346MOL0     H47692  11.117   2.498  10.985  0.8437  3.0438 -0.1955
  346MOL0     H47693  10.893   2.363  10.819  1.4940 -1.3922 -0.4175
  346MOL0     H47694  10.887   2.426  10.990  0.1620 -0.9865  0.8520
  346MOL0     H47695  10.925   2.167  10.935  1.1644 -1.3825 -0.1081
  346MOL0     H47696  11.093   2.222  10.915 -0.6721  2.7474 -0.7431
  346MOL0     H47697  10.825   2.197  11.169 -0.3040 -1.1237  0.0224
  346MOL0     H47698  10.814   2.191  11.422 -1.4889 -0.8909 -0.2849
  346MOL0     H47699  10.954   2.273  11.503 -0.4813 -0.3918 -0.6532
  346MOL0     H47700  11.072   2.051  11.439 -1.3381  2.4442 -1.4243
  346MOL0     H47701  11.000   2.060  11.596  0.2498 -1.5264  0.9390
  346MOL0     H47702  10.782   1.947  11.497  0.0097  1.0231 -1.5821
  346MOL0     H47703  10.865   1.916  11.354  0.3421 -2.1514  0.8692
  346MOL0     H47704  11.020   1.847  11.603  2.8443 -1.0246 -1.8469
  346MOL0     H47705  10.882   1.741  11.576  0.7746 -0.1273  0.2734
  346MOL0     H47706  11.149   1.628  11.244 -0.7661  1.1793 -2.2629
  346MOL0     H47707  11.377   1.716  11.058  1.4144  0.3170  0.2071
  346MOL0     H47708  11.349   1.553  11.139  1.7714 -0.4677  3.9050
  346MOL0     H47709  11.505   1.635  11.155  0.5728 -0.8060 -1.3560
  346MOL0     H47710  11.811   1.955  11.577 -1.4195 -0.5548 -0.8292
  346MOL0     H47711  12.057   1.961  11.592 -0.0883  0.8793 -0.1330
  346MOL0     H47712  12.299   1.998  11.477  1.5426  0.4374 -0.2349
  346MOL0     H47713  12.299   1.882  11.608  1.5418  0.4870  0.1008
  346MOL0     H47714  12.455   1.750  11.441 -1.9670 -0.2407  1.3826
  346MOL0     H47715  12.497   1.897  11.369 -0.3598  0.5313 -1.6967
  346MOL0     H47716  12.514   1.810  11.656 -1.0616 -1.0553 -0.8169
  346MOL0     H47717  12.541   1.986  11.624 -2.4096  0.2759 -2.0049
  346MOL0     H47718  12.721   1.911  11.444  1.9360  0.6916  1.1330
  346MOL0     H47719  12.715   1.756  11.513 -0.1769  0.2345 -1.3386
  346MOL0     H47720  12.903   1.894  11.612  0.6359 -0.4603  1.7141
  346MOL0     H47721  12.793   2.012  11.672 -3.7157 -0.1132  0.4855
  346MOL0     H47722  12.808   1.730  11.774  0.1476 -0.6689  1.7632
  346MOL0     H47723  12.674   1.846  11.810  0.1161  0.3357  1.4560
  346MOL0     H47724  12.856   2.005  11.914 -0.3604  0.8196  0.0320
  346MOL0     H47725  12.974   1.871  11.899  0.6666  1.0843 -1.1896
  346MOL0     H47726  12.714   1.885  12.070  0.6830  0.9049 -0.9985
  346MOL0     H47727  12.878   1.886  12.122 -1.2742  1.4846  0.1233
  346MOL0     H47728  12.069   1.679  11.260 -0.0638 -2.8861  1.7157
  346MOL0     H47729  11.812   1.672  11.270  1.1614 -2.7401  2.4716
  346MOL0     H47730  11.431   1.929  11.522  1.1831 -1.6751  0.0912
  346MOL0     H47731  11.213   1.913  11.562  1.0665  0.8120 -1.1045
  346MOL0     H47732  10.681   3.229  10.834  1.8068  0.3887  1.2750
  346MOL0     H47733  10.530   3.424  10.899  0.4209  0.3251  0.2670
  346MOL0     H47734  10.120   3.452  11.374 -3.6105  0.3393  1.2314
  346MOL0     H47735   9.916   3.584  11.378  0.2644 -1.6276  0.4417
  346MOL0     H47736   9.882   3.909  11.073  2.3148 -3.2279 -2.5680
  346MOL0     H47737   9.783   3.780  11.006 -1.5487  0.5476 -0.4244
  346MOL0     H47738   9.601   3.841  11.157  0.4312 -1.3233 -3.6842
  346MOL0     H47739   9.640   3.972  11.057 -3.2110 -2.9799 -0.1473
  346MOL0     H47740   9.749   3.977  11.338 -0.1663 -2.2444 -0.2583
  346MOL0     H47741   9.771   4.092  11.194 -1.4839  0.4269 -0.0018
  346MOL0     H47742   9.598   4.164  11.367 -2.5607  0.6590  0.2557
  346MOL0     H47743   9.506   4.022  11.314  1.3288  0.6633  0.7385
  346MOL0     H47744   9.443   4.365  11.055  4.7158  0.2724 -2.7531
  346MOL0     H47745   9.992   3.743  10.987 -0.4021  1.6769  1.0420
  346MOL0     H47746  10.171   3.655  10.865  0.1627 -0.3127 -0.7147
  346MOL0     H47747  10.334   3.678  10.944  1.5215 -2.7683  0.6529
  346MOL0     H47748  10.267   3.515  10.911 -0.8560 -0.6526 -0.6937
  347MOL0     O47749   8.009   3.269   0.764  0.4359 -0.5925 -0.0966
  347MOL0     C47750   7.904   3.205   0.735  0.8155  0.9219 -0.4132
  347MOL0     O47751   7.879   3.150   0.620  0.1721 -0.5713 -0.2539
  347MOL0     C47752   7.963   3.170   0.513  0.2024  0.5718 -0.6560
  347MOL0     C47753   7.907   3.171   0.391 -0.4740 -0.1421  0.8996
  347MOL0     C47754   7.982   3.188   0.269  0.4956  0.1041 -0.4134
  347MOL0     C47755   8.121   3.208   0.286  0.7066  0.5326  0.3966
  347MOL0     O47756   8.200   3.242   0.173 -0.3008  0.0734  0.3301
  347MOL0     C47757   8.135   3.246   0.045  0.3546 -0.3096 -0.4971
  347MOL0     C47758   8.230   3.273  -0.069  0.0794  0.1370  0.3052
  347MOL0     C47759   8.294   3.406  -0.086 -0.0987 -0.2270  0.2433
  347MOL0     C47760   8.215   3.522  -0.152  0.3008 -0.2322  0.8973
  347MOL0     C47761   8.276   3.657  -0.121  0.3826  0.3558  0.1183
  347MOL0     C47762   8.210   3.771  -0.199  1.1171  0.7585 -0.0870
  347MOL0     C47763   8.312   3.877  -0.225  0.2009 -0.0162 -0.2823
  347MOL0     C47764   8.244   3.998  -0.303  0.3692  0.9074 -0.4053
  347MOL0     N47765   8.342   4.099  -0.342  0.3309  0.6883  0.4795
  347MOL0     C47766   8.323   4.229  -0.316 -0.7868  0.1430  0.0354
  347MOL0     C47767   8.447   4.281  -0.350 -0.5883  0.4750 -0.1564
  347MOL0     C47768   8.489   4.419  -0.314 -0.6411 -0.1271  0.3779
  347MOL0     C47769   8.457   4.521  -0.430 -0.1641  0.6310  0.2230
  347MOL0     C47770   8.488   4.666  -0.403 -0.4451 -0.1075  0.2559
  347MOL0     C47771   8.636   4.680  -0.360  0.6276  0.2637  0.2619
  347MOL0     O47772   8.720   4.616  -0.456 -0.9279 -0.3452  0.0002
  347MOL0     C47773   8.851   4.640  -0.443  0.7046  0.5585 -0.0844
  347MOL0     C47774   8.916   4.693  -0.336 -0.0511 -0.3635 -0.9408
  347MOL0     C47775   9.059   4.714  -0.331 -0.6488  0.2406  0.2202
  347MOL0     C47776   9.111   4.782  -0.212 -0.2074  0.3177  0.6350
  347MOL0     C47777   9.136   4.671  -0.441  0.0231 -0.2818 -0.3162
  347MOL0     C47778   9.282   4.680  -0.443 -0.4143  0.6470  0.3459
  347MOL0     O47779   9.344   4.720  -0.557  0.5105  0.1984 -0.1955
  347MOL0     C47780   9.475   4.708  -0.567 -0.3481  0.2659 -0.1447
  347MOL0     C47781   9.523   4.635  -0.672 -0.0193  0.2947  0.7998
  347MOL0     C47782   9.659   4.638  -0.708 -0.5929  0.0809 -0.5827
  347MOL0     C47783   9.747   4.715  -0.634 -0.5710  0.3168 -0.2116
  347MOL0     O47784   9.870   4.743  -0.685  0.4299 -0.5939 -0.8777
  347MOL0     C47785   9.938   4.617  -0.708  0.3651  0.1828 -0.1419
  347MOL0     C47786  10.092   4.636  -0.690 -0.1621 -0.7383 -0.6582
  347MOL0     C47787  10.135   4.642  -0.538 -0.4142 -0.6212  1.3690
  347MOL0     C47788  10.197   4.509  -0.490 -0.2858  0.0240  0.8380
  347MOL0     C47789  10.217   4.516  -0.342 -0.1829 -0.2994 -0.3817
  347MOL0     C47790  10.313   4.401  -0.300  0.0181 -0.0724 -0.2780
  347MOL0     C47791  10.246   4.263  -0.334 -0.0277  1.0328  0.2156
  347MOL0     C47792  10.318   4.153  -0.257  0.4164  0.1938 -0.9362
  347MOL0    Cl47793  10.287   3.976  -0.304 -0.3974 -0.2729  0.0052
  347MOL0     C47794   9.698   4.777  -0.516  0.7078  0.1807 -1.0739
  347MOL0     C47795   9.567   4.772  -0.480  0.0622 -0.0264 -0.0238
  347MOL0     O47796   9.338   4.625  -0.348 -0.2072 -0.1670 -0.7528
  347MOL0     C47797   9.066   4.618  -0.551 -0.5107 -0.1203 -0.7727
  347MOL0     C47798   8.930   4.607  -0.551  0.6434  0.5332 -0.1404
  347MOL0     N47799   8.523   4.182  -0.404  0.0191 -0.2022  0.8622
  347MOL0     N47800   8.460   4.071  -0.401 -0.2507  0.2252  0.8835
  347MOL0     C47801   8.175   3.201   0.407  0.1387  0.7283 -0.7934
  347MOL0     C47802   8.099   3.175   0.519  0.1377 -0.2187  0.6583
  347MOL0     C47803   7.799   3.184   0.849 -0.3948 -0.4881 -0.1216
  347MOL0     C47804   7.671   3.132   0.817  0.7132  0.3638  1.0774
  347MOL0     C47805   7.575   3.115   0.911 -0.5918  0.1946 -0.0572
  347MOL0     C47806   7.603   3.131   1.049 -0.2805  0.9732 -0.0700
  347MOL0     O47807   7.516   3.100   1.150  0.4113  1.1508  0.0500
  347MOL0     C47808   7.416   3.195   1.183 -0.4892  0.4228 -0.4983
  347MOL0     C47809   7.277   3.165   1.134  0.1445 -0.1510  0.0069
  347MOL0     C47810   7.206   3.034   1.203 -1.0377 -1.0782  0.0457
  347MOL0     C47811   7.074   3.080   1.271 -0.2034  1.6519  0.0513
  347MOL0     C47812   7.111   3.142   1.401  0.2672 -0.3247  0.1196
  347MOL0     C47813   7.155   3.204   1.494  0.0427  0.1617 -0.4158
  347MOL0     C47814   7.728   3.175   1.081 -0.6440 -0.4042  0.5733
  347MOL0     C47815   7.829   3.208   0.989 -0.7733  0.2145  1.1048
  347MOL0     C47816   7.962   3.242   1.051 -0.1745 -0.5822  0.7351
  347MOL0     H47817   7.799   3.164   0.380 -0.3652 -1.6545  0.5990
  347MOL0     H47818   7.924   3.190   0.178 -0.6692  0.5467  0.3129
  347MOL0     H47819   8.051   3.316   0.046  0.9300  0.4143 -1.0501
  347MOL0     H47820   8.097   3.149   0.013 -0.4011  0.2396 -1.3229
  347MOL0     H47821   8.313   3.205  -0.049 -1.3245 -0.9415  3.1135
  347MOL0     H47822   8.189   3.252  -0.168 -2.2992  0.8426  1.0563
  347MOL0     H47823   8.326   3.437   0.014  0.5945  1.5079 -0.4886
  347MOL0     H47824   8.385   3.397  -0.146 -0.1722  2.2061 -0.3498
  347MOL0     H47825   8.203   3.525  -0.260 -1.2356  2.3352  1.0664
  347MOL0     H47826   8.110   3.517  -0.123  0.3397 -0.8028  0.9502
  347MOL0     H47827   8.379   3.647  -0.157  0.0309 -2.0858 -0.4150
  347MOL0     H47828   8.278   3.670  -0.013 -1.0011 -3.3636  0.7372
  347MOL0     H47829   8.168   3.736  -0.294 -2.0356  3.1419  0.2514
  347MOL0     H47830   8.127   3.820  -0.147 -1.2398 -1.5355 -1.4498
  347MOL0     H47831   8.391   3.835  -0.288  0.9167 -3.0588  2.3607
  347MOL0     H47832   8.355   3.916  -0.132 -1.6458 -0.2169  0.7121
  347MOL0     H47833   8.200   3.959  -0.395  0.2251 -0.6770  0.3029
  347MOL0     H47834   8.174   4.050  -0.237  0.1109 -0.0632  0.0949
  347MOL0     H47835   8.239   4.272  -0.263  0.1003 -0.5458  2.1257
  347MOL0     H47836   8.591   4.439  -0.280 -1.0757  0.7149  1.2293
  347MOL0     H47837   8.426   4.436  -0.226 -0.0830 -1.6073  1.0980
  347MOL0     H47838   8.521   4.484  -0.511 -3.0663 -1.4222 -1.3217
  347MOL0     H47839   8.350   4.517  -0.451 -0.1428 -1.4102  0.3380
  347MOL0     H47840   8.474   4.718  -0.499  2.7364  1.6446  0.5797
  347MOL0     H47841   8.421   4.716  -0.333 -0.4921 -1.2590  1.0576
  347MOL0     H47842   8.659   4.786  -0.371 -1.5987  0.6935 -0.8409
  347MOL0     H47843   8.663   4.651  -0.258 -1.8499 -1.9388  0.3982
  347MOL0     H47844   8.868   4.723  -0.243  4.0719 -0.8612  1.6368
  347MOL0     H47845   9.030   4.817  -0.147  0.2420  0.6856  1.0079
  347MOL0     H47846   9.176   4.865  -0.241 -1.5598  1.5469  0.9390
  347MOL0     H47847   9.159   4.713  -0.143 -1.2665  0.5763  1.6765
  347MOL0     H47848   9.438   4.588  -0.721 -0.4826 -0.9723  2.7128
  347MOL0     H47849   9.691   4.569  -0.785  0.8713 -0.0405  0.0857
  347MOL0     H47850   9.902   4.532  -0.649 -2.6580  0.5598 -1.2910
  347MOL0     H47851   9.918   4.589  -0.812  0.1835  1.1981 -0.3952
  347MOL0     H47852  10.137   4.547  -0.734 -2.2421 -2.1117 -0.1600
  347MOL0     H47853  10.130   4.725  -0.742 -0.5044  0.2418  0.7084
  347MOL0     H47854  10.053   4.678  -0.475  0.7372 -1.8002  3.6582
  347MOL0     H47855  10.209   4.722  -0.523 -0.9148  0.0423  0.4033
  347MOL0     H47856  10.296   4.494  -0.532 -0.4960 -0.1029  0.3824
  347MOL0     H47857  10.131   4.425  -0.512 -1.6883  1.1137  0.7309
  347MOL0     H47858  10.272   4.607  -0.316 -2.3371  0.7515  0.6838
  347MOL0     H47859  10.120   4.519  -0.293  0.2299  0.1992  0.4242
  347MOL0     H47860  10.312   4.400  -0.191 -1.7094 -2.1839 -0.2467
  347MOL0     H47861  10.413   4.413  -0.343  1.1152 -0.6806  1.9434
  347MOL0     H47862  10.247   4.234  -0.440 -3.9917  1.1789 -0.0003
  347MOL0     H47863  10.142   4.270  -0.300  1.2259  2.1188  4.3202
  347MOL0     H47864  10.285   4.163  -0.153  2.1361  1.3163 -0.4597
  347MOL0     H47865  10.426   4.172  -0.251  0.5098  0.1649 -2.2266
  347MOL0     H47866   9.766   4.830  -0.451 -0.5754  2.1350 -1.2542
  347MOL0     H47867   9.535   4.823  -0.390  1.0688  3.5364 -1.5409
  347MOL0     H47868   9.119   4.588  -0.641 -1.6976  0.8825 -1.8422
  347MOL0     H47869   8.877   4.558  -0.631 -0.5946 -0.3712  1.1907
  347MOL0     H47870   8.280   3.216   0.430 -0.3841  2.3539  0.6887
  347MOL0     H47871   8.159   3.171   0.608 -1.1372  2.1774  1.7269
  347MOL0     H47872   7.664   3.120   0.709 -1.2131 -2.3562  1.4028
  347MOL0     H47873   7.482   3.065   0.890 -0.2777 -0.4914  0.1427
  347MOL0     H47874   7.423   3.219   1.289  0.8814  1.7296 -0.8500
  347MOL0     H47875   7.452   3.287   1.137  2.8169 -0.7545 -0.5026
  347MOL0     H47876   7.286   3.148   1.026 -1.3861 -0.2368 -0.1194
  347MOL0     H47877   7.210   3.249   1.152  1.6855  1.4334 -1.2759
  347MOL0     H47878   7.197   2.950   1.134  0.2850 -0.7993 -0.5091
  347MOL0     H47879   7.268   2.986   1.280 -0.1330  0.1816  0.1339
  347MOL0     H47880   7.002   3.000   1.287 -1.0494  2.2460 -0.7010
  347MOL0     H47881   7.017   3.143   1.202 -1.5977 -1.7560 -2.1557
  347MOL0     H47882   7.195   3.256   1.579  2.2529 -1.5840 -0.2873
  347MOL0     H47883   7.759   3.175   1.185 -1.5221 -0.7499  0.8438
  347MOL0     H47884   8.004   3.339   1.022 -0.8534 -0.5170 -0.0666
  347MOL0     H47885   7.950   3.253   1.159 -2.3334 -0.2252  0.5088
  347MOL0     H47886   8.032   3.164   1.021 -1.1627 -0.8187 -1.0851
  348MOL0     O47887   1.288  11.013   3.933  0.0155 -0.9954 -0.2117
  348MOL0     C47888   1.313  11.069   3.823  0.1125  0.1438 -0.6953
  348MOL0     O47889   1.382  11.183   3.814  0.4366 -0.2964  0.1029
  348MOL0     C47890   1.465  11.230   3.917 -0.3361  0.4148  0.1446
  348MOL0     C47891   1.547  11.135   3.976 -0.4651 -0.1937 -0.2622
  348MOL0     C47892   1.626  11.176   4.087 -1.5268  0.3693 -0.5919
  348MOL0     C47893   1.618  11.302   4.141 -0.5860 -0.8555  0.7584
  348MOL0     O47894   1.684  11.343   4.260 -0.5648  0.9896  0.7895
  348MOL0     C47895   1.720  11.242   4.351 -0.0992 -0.3208  0.7827
  348MOL0     C47896   1.780  11.301   4.476 -0.2331  0.0634 -0.1168
  348MOL0     C47897   1.891  11.400   4.459 -0.3189  0.0160  1.5683
  348MOL0     C47898   1.982  11.425   4.583  0.5786 -0.8003  0.2469
  348MOL0     C47899   2.075  11.540   4.539 -0.3254 -0.4311  0.2739
  348MOL0     C47900   2.156  11.589   4.667  0.6877  0.2820 -0.1698
  348MOL0     C47901   2.248  11.703   4.639  0.0567  0.9220 -0.2404
  348MOL0     C47902   2.173  11.838   4.605 -0.3705 -0.0655 -0.7386
  348MOL0     N47903   2.268  11.950   4.633  0.1873  1.3089  0.3584
  348MOL0     C47904   2.268  12.026   4.745 -0.8639  0.3473 -0.3853
  348MOL0     C47905   2.377  12.106   4.735  0.0570  0.3749  0.1590
  348MOL0     C47906   2.436  12.198   4.840  0.2441 -0.4141  0.1219
  348MOL0     C47907   2.484  12.112   4.960  0.6313  0.5493 -0.0022
  348MOL0     C47908   2.591  12.006   4.920 -0.8738 -0.4974 -0.5271
  348MOL0     C47909   2.715  12.029   5.014  0.3149 -0.0346  0.2037
  348MOL0     O47910   2.774  12.161   4.991 -0.0556  0.4684 -0.0491
  348MOL0     C47911   2.905  12.182   5.026  0.2440 -0.0427 -0.9001
  348MOL0     C47912   2.954  12.312   4.986  0.2775 -0.5922  0.2780
  348MOL0     C47913   3.085  12.350   5.014 -0.6981  0.7905 -0.3067
  348MOL0     C47914   3.144  12.465   4.942 -0.4989  0.5805  0.0368
  348MOL0     C47915   3.169  12.265   5.092  0.1955 -0.2191  0.1794
  348MOL0     C47916   3.306  12.282   5.123  0.1354  0.3646  0.6489
  348MOL0     O47917   3.349  12.295   5.246 -0.2485  0.2698  0.2512
  348MOL0     C47918   3.477  12.329   5.281 -0.0903  0.5072  0.0428
  348MOL0     C47919   3.569  12.399   5.201 -0.5340  0.7605  0.6325
  348MOL0     C47920   3.697  12.417   5.251 -0.2156  1.3933 -0.4020
  348MOL0     C47921   3.732  12.395   5.383  0.4631  0.5506 -0.8769
  348MOL0     O47922   3.853  12.432   5.441 -0.0990  0.0611  0.5670
  348MOL0     C47923   3.903  12.565   5.411 -0.1791  0.1645  0.4515
  348MOL0     C47924   4.019  12.574   5.310 -0.3275  0.6696 -0.4482
  348MOL0     C47925   4.153  12.511   5.375  0.1979  0.1880  0.1349
  348MOL0     C47926   4.217  12.616   5.458 -0.3386 -0.5092  0.0130
  348MOL0     C47927   4.362  12.575   5.489 -0.0501 -0.5052  0.1501
  348MOL0     C47928   4.429  12.686   5.583  0.5111  0.3410  0.3786
  348MOL0     C47929   4.580  12.642   5.597 -0.1988  0.5888  0.4270
  348MOL0     C47930   4.669  12.739   5.671  0.1760  0.0590  0.6271
  348MOL0    Cl47931   4.671  12.897   5.602 -0.4089  0.4056  0.2341
  348MOL0     C47932   3.634  12.340   5.463 -0.0083 -0.7090 -0.1510
  348MOL0     C47933   3.513  12.299   5.411  0.3137  0.6147 -0.1249
  348MOL0     O47934   3.376  12.282   5.023  0.3068  0.0886  0.0012
  348MOL0     C47935   3.106  12.155   5.147 -0.0986  0.1645  0.5779
  348MOL0     C47936   2.976  12.106   5.117 -0.5295  0.2090  0.4642
  348MOL0     N47937   2.436  12.083   4.614 -0.6728  0.0187  0.0955
  348MOL0     N47938   2.373  11.982   4.554 -0.2939  0.3993  1.0831
  348MOL0     C47939   1.539  11.392   4.079  0.6902  0.4436  0.0604
  348MOL0     C47940   1.471  11.364   3.958  0.0723 -1.3371  0.9150
  348MOL0     C47941   1.274  11.012   3.696  0.4497 -0.3275 -0.0309
  348MOL0     C47942   1.309  11.080   3.577  0.2903 -0.6015  0.2809
  348MOL0     C47943   1.281  11.033   3.451 -1.2286 -0.2322  0.7838
  348MOL0     C47944   1.221  10.914   3.434 -0.2120 -0.0581 -0.5354
  348MOL0     O47945   1.210  10.872   3.299  0.0520 -0.4627 -0.1812
  348MOL0     C47946   1.102  10.774   3.276 -0.3080  0.4547  0.1633
  348MOL0     C47947   0.970  10.840   3.298  0.1798 -0.5517 -0.1912
  348MOL0     C47948   0.847  10.745   3.303 -0.0438 -0.1678  0.6410
  348MOL0     C47949   0.844  10.663   3.431 -1.3619  0.7000  0.0037
  348MOL0     C47950   0.745  10.563   3.423 -1.2863  0.0475  0.6187
  348MOL0     C47951   0.664  10.479   3.380 -0.4393  0.2935  0.5908
  348MOL0     C47952   1.183  10.846   3.550 -0.3209 -0.0905  0.4844
  348MOL0     C47953   1.202  10.891   3.679 -0.8142  0.1302 -0.3393
  348MOL0     C47954   1.172  10.790   3.790  0.9447  0.0809 -0.7128
  348MOL0     H47955   1.546  11.036   3.931  1.4687  0.6455 -2.3568
  348MOL0     H47956   1.686  11.094   4.124  2.2078  3.3314  0.5557
  348MOL0     H47957   1.791  11.167   4.317 -0.0729 -0.8854  2.0013
  348MOL0     H47958   1.634  11.177   4.372 -0.9319  0.0663 -1.2550
  348MOL0     H47959   1.698  11.349   4.530 -0.7711  1.9825 -2.4874
  348MOL0     H47960   1.827  11.221   4.533 -1.6070  0.4918  1.7140
  348MOL0     H47961   1.947  11.372   4.369 -0.6828  0.6405  1.1314
  348MOL0     H47962   1.854  11.500   4.434 -0.8936 -0.6125 -0.2905
  348MOL0     H47963   1.915  11.455   4.664  0.4488  0.6874 -0.3803
  348MOL0     H47964   2.048  11.341   4.606  2.9407  0.3612 -1.8829
  348MOL0     H47965   2.025  11.624   4.489  3.7035  1.8856 -0.4223
  348MOL0     H47966   2.146  11.507   4.462  0.8779  0.5436  0.9246
  348MOL0     H47967   2.085  11.625   4.742 -0.6024 -1.5098 -0.4709
  348MOL0     H47968   2.207  11.504   4.714  0.0926  0.8986  1.7073
  348MOL0     H47969   2.309  11.665   4.557 -0.9383 -1.5911  0.0696
  348MOL0     H47970   2.314  11.711   4.725 -0.5361  2.7257  0.0758
  348MOL0     H47971   2.141  11.837   4.501  3.4803  0.9150 -2.0647
  348MOL0     H47972   2.089  11.851   4.675  1.5207 -0.0542  1.6594
  348MOL0     H47973   2.208  12.018   4.836  0.0701 -0.6112  0.1639
  348MOL0     H47974   2.364  12.275   4.869 -0.0289 -0.6752  0.1459
  348MOL0     H47975   2.514  12.258   4.792 -0.1451  0.1966  0.2496
  348MOL0     H47976   2.532  12.184   5.026 -1.2489  3.3190 -1.4797
  348MOL0     H47977   2.399  12.065   5.011  0.1530  3.0422  1.6634
  348MOL0     H47978   2.553  11.904   4.925 -2.5404  0.1115  0.0797
  348MOL0     H47979   2.620  12.018   4.815 -0.3697 -1.8801 -0.5570
  348MOL0     H47980   2.679  12.012   5.116 -1.4335 -3.8834 -0.8440
  348MOL0     H47981   2.799  11.962   4.990  0.5151  0.7962 -1.5612
  348MOL0     H47982   2.890  12.369   4.919 -2.1170 -2.9053  0.4534
  348MOL0     H47983   3.065  12.537   4.916 -0.1158  0.9253 -0.1873
  348MOL0     H47984   3.203  12.419   4.863 -0.2985 -0.2940  0.6862
  348MOL0     H47985   3.219  12.519   5.000 -0.7466  0.5097  0.4308
  348MOL0     H47986   3.560  12.437   5.100 -0.3152 -1.2666 -0.1824
  348MOL0     H47987   3.761  12.469   5.180 -0.8871 -1.7851 -3.6208
  348MOL0     H47988   3.828  12.638   5.378 -0.7643  0.9828  3.2999
  348MOL0     H47989   3.941  12.609   5.504  1.1763 -0.1040  0.0461
  348MOL0     H47990   3.985  12.521   5.220 -1.3078  0.3793  0.0815
  348MOL0     H47991   4.039  12.679   5.284  0.8938  0.4347 -0.5049
  348MOL0     H47992   4.220  12.484   5.292  2.4598 -1.6777  2.3881
  348MOL0     H47993   4.122  12.420   5.427  0.1420  0.8718  1.3115
  348MOL0     H47994   4.170  12.633   5.556  0.2010 -3.3885  0.8750
  348MOL0     H47995   4.214  12.711   5.404  0.8529 -0.8781 -0.7287
  348MOL0     H47996   4.356  12.478   5.541  1.6108 -2.2226 -2.6032
  348MOL0     H47997   4.419  12.555   5.398  3.3213 -3.2184  2.5545
  348MOL0     H47998   4.390  12.701   5.684 -0.1614 -0.1801  0.2075
  348MOL0     H47999   4.426  12.777   5.523 -1.3849  0.8648  1.2010
  348MOL0     H48000   4.627  12.628   5.499 -2.1049 -1.5077 -0.2686
  348MOL0     H48001   4.584  12.543   5.645  1.6303 -0.3801 -1.5952
  348MOL0     H48002   4.771  12.700   5.672  0.8948  1.5637 -2.2562
  348MOL0     H48003   4.629  12.748   5.772  0.5105  2.0272  0.6385
  348MOL0     H48004   3.658  12.344   5.569 -2.3936  1.4434  0.4081
  348MOL0     H48005   3.450  12.243   5.479 -1.5633 -0.9027 -2.9253
  348MOL0     H48006   3.167  12.093   5.211  0.3111  1.3689  1.3936
  348MOL0     H48007   2.942  12.010   5.154 -0.5606 -0.5376 -1.3885
  348MOL0     H48008   1.525  11.492   4.119 -2.3682 -0.0838  0.6218
  348MOL0     H48009   1.419  11.439   3.899  0.3191 -0.0045  2.3266
  348MOL0     H48010   1.367  11.172   3.584 -0.7774  0.2619 -1.4604
  348MOL0     H48011   1.315  11.089   3.363  3.7439  0.7656  2.9878
  348MOL0     H48012   1.097  10.741   3.172  1.8216  0.3307  0.0570
  348MOL0     H48013   1.109  10.685   3.339 -0.2921 -0.6751 -1.3603
  348MOL0     H48014   0.958  10.908   3.212 -1.9029 -0.6392 -0.0263
  348MOL0     H48015   0.972  10.906   3.385  0.8305  1.8472 -1.9157
  348MOL0     H48016   0.752  10.800   3.296 -0.4350 -0.8799  0.2408
  348MOL0     H48017   0.859  10.685   3.213  1.6413  2.1293 -0.7655
  348MOL0     H48018   0.835  10.716   3.526 -3.7674 -3.6158  2.4843
  348MOL0     H48019   0.943  10.621   3.450 -1.9128  0.2676  2.1377
  348MOL0     H48020   0.605  10.398   3.342 -1.3721  0.3127  1.9442
  348MOL0     H48021   1.122  10.757   3.536 -0.5348  0.3840 -2.1232
  348MOL0     H48022   1.147  10.691   3.752 -1.1622  0.7692 -1.2555
  348MOL0     H48023   1.264  10.782   3.849 -0.6316  2.0500  2.2885
  348MOL0     H48024   1.090  10.824   3.854 -0.4949 -2.4073 -1.1417
  349MOL0     O48025   5.609   3.989   9.556  0.5263  0.3034  0.3147
  349MOL0     C48026   5.657   4.037   9.454 -0.1496  0.1007 -0.2399
  349MOL0     O48027   5.774   3.994   9.387 -0.0193 -0.8981  0.3090
  349MOL0     C48028   5.843   3.900   9.447  0.2620 -0.2628  0.2759
  349MOL0     C48029   5.822   3.770   9.403 -0.2125  0.7953  1.0811
  349MOL0     C48030   5.898   3.669   9.464 -0.3058 -0.5032 -0.3672
  349MOL0     C48031   6.002   3.700   9.562 -0.5571 -0.0822  0.4267
  349MOL0     O48032   6.079   3.601   9.626 -0.8569  0.8819  0.0147
  349MOL0     C48033   6.032   3.473   9.620  0.2999  0.4069 -0.7094
  349MOL0     C48034   6.108   3.393   9.727 -0.5054  0.4512  0.6727
  349MOL0     C48035   6.258   3.385   9.684  0.2466 -0.0944  0.6212
  349MOL0     C48036   6.355   3.341   9.793  0.0697 -0.2220 -0.1251
  349MOL0     C48037   6.322   3.203   9.848 -1.0135  0.2717 -0.1190
  349MOL0     C48038   6.421   3.164   9.955 -0.7428 -0.2437  0.2154
  349MOL0     C48039   6.569   3.153   9.915 -0.4360  0.4902 -0.1318
  349MOL0     C48040   6.665   3.270   9.947  0.3049  0.1230  0.2093
  349MOL0     N48041   6.778   3.257   9.852 -0.1344  0.2850 -0.3484
  349MOL0     C48042   6.840   3.140   9.806 -0.5880 -0.1686  0.3572
  349MOL0     C48043   6.928   3.183   9.714 -0.5993 -0.0246  0.5083
  349MOL0     C48044   7.001   3.091   9.611  0.0476 -0.8835 -0.0916
  349MOL0     C48045   7.042   2.955   9.668  0.1662 -0.3233  1.0857
  349MOL0     C48046   7.164   2.948   9.765  0.5362  0.2942  0.4302
  349MOL0     C48047   7.213   2.799   9.765 -0.7537  0.6649  0.1061
  349MOL0     O48048   7.266   2.753   9.639  0.1245  0.6321 -0.4538
  349MOL0     C48049   7.400   2.768   9.618  0.2491  0.1022 -0.0873
  349MOL0     C48050   7.454   2.796   9.495  0.2267  0.2811 -0.4447
  349MOL0     C48051   7.591   2.821   9.470 -0.7617  0.5357  0.1066
  349MOL0     C48052   7.621   2.852   9.329  0.2844  0.0794  0.8579
  349MOL0     C48053   7.681   2.793   9.571  0.4174  0.1756  0.2283
  349MOL0     C48054   7.828   2.792   9.530  0.1672  0.4121  0.0710
  349MOL0     O48055   7.875   2.878   9.437 -0.4413  0.0124 -0.0070
  349MOL0     C48056   8.010   2.899   9.403  0.0030  0.3465 -0.8887
  349MOL0     C48057   8.115   2.809   9.435 -0.6091  0.7717 -0.9086
  349MOL0     C48058   8.248   2.844   9.395  0.3178  0.5429 -0.3709
  349MOL0     C48059   8.275   2.963   9.323 -0.4518  0.2757  0.4623
  349MOL0     O48060   8.402   3.016   9.286  0.3195 -0.3215 -0.1805
  349MOL0     C48061   8.511   2.925   9.265 -0.3639 -0.0860  0.8815
  349MOL0     C48062   8.639   3.012   9.217 -0.4891 -0.0271 -0.2197
  349MOL0     C48063   8.668   3.133   9.293 -1.0473 -0.3114 -0.5512
  349MOL0     C48064   8.716   3.105   9.445  0.3772 -0.1089  0.0772
  349MOL0     C48065   8.717   3.249   9.517  0.9998 -0.0758  0.0412
  349MOL0     C48066   8.824   3.252   9.628 -0.1594  0.3878  0.1421
  349MOL0     C48067   8.834   3.130   9.714  0.5185 -0.8141 -0.3389
  349MOL0     C48068   8.930   3.150   9.840  0.3607  0.6515 -0.7185
  349MOL0    Cl48069   9.094   3.135   9.782  0.2715  0.1023  0.0880
  349MOL0     C48070   8.168   3.055   9.291  0.5110  0.6984  0.2063
  349MOL0     C48071   8.034   3.015   9.339 -0.5686 -0.1563 -0.2003
  349MOL0     O48072   7.893   2.709   9.595  0.1114 -0.1376 -0.1148
  349MOL0     C48073   7.641   2.755   9.695  0.2043  0.3912  0.1503
  349MOL0     C48074   7.503   2.746   9.720 -0.6488 -0.4469  0.2212
  349MOL0     N48075   6.926   3.324   9.707 -0.1755 -0.4536  1.0787
  349MOL0     N48076   6.839   3.359   9.792  0.6700  0.2705 -0.6953
  349MOL0     C48077   6.025   3.830   9.593 -0.1592 -0.2283 -0.5815
  349MOL0     C48078   5.944   3.930   9.540 -0.7134  0.1144 -0.6194
  349MOL0     C48079   5.590   4.167   9.422 -0.5113 -0.5292  0.6272
  349MOL0     C48080   5.574   4.200   9.285  0.3125  0.2904 -0.8715
  349MOL0     C48081   5.504   4.316   9.249  0.9148 -0.0264  0.2708
  349MOL0     C48082   5.459   4.408   9.347  0.3694  0.4133  0.2093
  349MOL0     O48083   5.403   4.519   9.292  0.4675  0.4904 -0.1208
  349MOL0     C48084   5.374   4.633   9.371  0.0743  0.1111 -0.9358
  349MOL0     C48085   5.219   4.645   9.425 -0.0335 -0.2626  0.6045
  349MOL0     C48086   5.136   4.687   9.305 -0.6181 -0.1370  0.1273
  349MOL0     C48087   4.985   4.701   9.338 -0.2646 -0.1344  0.4293
  349MOL0     C48088   4.923   4.574   9.369  0.2202  0.6812  0.0999
  349MOL0     C48089   4.870   4.472   9.412 -0.4697 -0.6133  0.2984
  349MOL0     C48090   5.480   4.377   9.477  0.6758 -0.1575  0.1982
  349MOL0     C48091   5.544   4.259   9.516 -0.0564  0.3590  0.2188
  349MOL0     C48092   5.571   4.243   9.656  0.3319  0.7875  0.1358
  349MOL0     H48093   5.758   3.742   9.320 -1.0891  0.0581  1.9825
  349MOL0     H48094   5.890   3.563   9.439 -2.7733 -1.1465  2.5530
  349MOL0     H48095   6.049   3.435   9.519  2.2388 -1.2784  0.1991
  349MOL0     H48096   5.924   3.475   9.636  0.6195 -0.0658  1.7658
  349MOL0     H48097   6.092   3.450   9.819  1.3113  1.7616  0.2180
  349MOL0     H48098   6.067   3.291   9.733 -0.4861 -0.0276 -3.8721
  349MOL0     H48099   6.271   3.316   9.599 -1.6585 -2.8116  2.3619
  349MOL0     H48100   6.293   3.485   9.657  0.1288  1.5306  5.5338
  349MOL0     H48101   6.462   3.352   9.775  0.2207 -0.2588  0.6955
  349MOL0     H48102   6.345   3.414   9.874  0.9297  0.3870 -0.5503
  349MOL0     H48103   6.318   3.131   9.766  2.3403 -0.2860  0.0764
  349MOL0     H48104   6.224   3.214   9.896 -0.8807  2.8287 -0.3395
  349MOL0     H48105   6.418   3.248  10.026  0.9963  2.4278 -2.6306
  349MOL0     H48106   6.376   3.075   9.999 -3.0900  0.7700  0.0597
  349MOL0     H48107   6.559   3.123   9.810 -0.5248 -2.0044  0.5227
  349MOL0     H48108   6.617   3.069   9.966  0.2952  1.0414  0.0970
  349MOL0     H48109   6.612   3.365   9.946  0.3541  0.2234  2.3885
  349MOL0     H48110   6.709   3.269  10.047  0.7592  2.1950  0.0762
  349MOL0     H48111   6.819   3.038   9.836  0.0934 -1.5349 -3.2356
  349MOL0     H48112   7.096   3.137   9.583 -1.2063  0.7094 -1.9636
  349MOL0     H48113   6.950   3.088   9.514  0.5137 -1.9730 -0.3204
  349MOL0     H48114   6.957   2.903   9.713  1.2497 -2.1777  1.0778
  349MOL0     H48115   7.053   2.890   9.581 -1.1852 -1.9889  2.0915
  349MOL0     H48116   7.247   3.018   9.746  1.3551 -1.1524 -1.7177
  349MOL0     H48117   7.116   2.959   9.862  0.0102  1.0016  0.0981
  349MOL0     H48118   7.287   2.795   9.846 -0.4386 -0.0124 -0.2069
  349MOL0     H48119   7.129   2.738   9.802 -0.5507  0.6392  0.5326
  349MOL0     H48120   7.380   2.807   9.417 -0.1610 -0.4299 -0.1915
  349MOL0     H48121   7.686   2.771   9.296  3.4154  1.4343  3.1925
  349MOL0     H48122   7.675   2.947   9.321 -0.8319  0.8656  2.0725
  349MOL0     H48123   7.535   2.856   9.262  1.1205 -0.4036 -0.2655
  349MOL0     H48124   8.089   2.708   9.465 -2.1507  1.5988  0.7344
  349MOL0     H48125   8.328   2.777   9.425  1.1479  2.6276  2.5562
  349MOL0     H48126   8.526   2.874   9.360 -0.5944 -1.5965  0.1366
  349MOL0     H48127   8.479   2.867   9.178 -0.5939 -0.4812  1.2260
  349MOL0     H48128   8.724   2.951   9.184 -1.2521 -0.2305 -1.9213
  349MOL0     H48129   8.605   3.040   9.117 -0.7419 -1.3793 -0.5343
  349MOL0     H48130   8.594   3.213   9.289 -1.1534 -0.4255 -0.8728
  349MOL0     H48131   8.756   3.170   9.239 -2.2487  1.0182 -1.6734
  349MOL0     H48132   8.813   3.055   9.454 -0.4804 -1.5656  1.9671
  349MOL0     H48133   8.644   3.036   9.490 -2.6290  0.5351 -3.2530
  349MOL0     H48134   8.734   3.334   9.451  1.0801  0.7791  1.1434
  349MOL0     H48135   8.614   3.259   9.554  0.9216 -1.3295  0.2014
  349MOL0     H48136   8.809   3.345   9.684 -1.4042  0.1272  0.2676
  349MOL0     H48137   8.921   3.261   9.579  0.1717  0.0112  0.7320
  349MOL0     H48138   8.871   3.040   9.665  0.4224 -1.7335  1.2217
  349MOL0     H48139   8.736   3.103   9.755  0.9217 -2.9256 -0.6684
  349MOL0     H48140   8.912   3.086   9.927  2.1044  1.5565  0.3696
  349MOL0     H48141   8.918   3.255   9.868  0.3598  0.7689 -1.1669
  349MOL0     H48142   8.191   3.148   9.240  0.7502  1.6033  1.8854
  349MOL0     H48143   7.960   3.090   9.316  0.2041  0.6361 -0.1547
  349MOL0     H48144   7.712   2.743   9.777  0.4205  1.2049  0.0849
  349MOL0     H48145   7.484   2.723   9.825 -0.0263  1.4458  0.7975
  349MOL0     H48146   6.094   3.864   9.670  0.6604 -3.5965  0.3349
  349MOL0     H48147   5.973   4.030   9.572 -0.5850  0.4162 -1.6492
  349MOL0     H48148   5.623   4.141   9.208  4.1691 -1.5488  2.6011
  349MOL0     H48149   5.478   4.343   9.147 -0.8298 -0.7329  0.4919
  349MOL0     H48150   5.441   4.638   9.457 -1.8229 -2.8194  0.8611
  349MOL0     H48151   5.410   4.724   9.320  0.3764  0.7639  0.3994
  349MOL0     H48152   5.205   4.730   9.492  2.8166  0.9298 -0.1457
  349MOL0     H48153   5.188   4.553   9.476  2.9091 -1.6628  0.0802
  349MOL0     H48154   5.175   4.785   9.278  1.8547 -1.0433  0.1464
  349MOL0     H48155   5.150   4.617   9.223 -1.1477 -1.0564  0.8005
  349MOL0     H48156   4.933   4.751   9.256 -0.7732  1.8463  1.8932
  349MOL0     H48157   4.979   4.763   9.427 -0.0088  0.3638  0.1058
  349MOL0     H48158   4.833   4.373   9.425  0.0610 -1.4411 -3.3591
  349MOL0     H48159   5.452   4.446   9.557  2.5562 -1.2737  1.9164
  349MOL0     H48160   5.669   4.195   9.670 -0.8011 -1.5831  0.2658
  349MOL0     H48161   5.562   4.334   9.717 -1.6399 -0.9156  2.5898
  349MOL0     H48162   5.489   4.183   9.695  1.1146 -1.3716 -1.3669
  350MOL0     O48163   1.014  11.272   0.622  0.4280  0.1077  0.3773
  350MOL0     C48164   0.952  11.338   0.536 -0.3610  0.0119 -0.3609
  350MOL0     O48165   0.994  11.447   0.475 -0.4699 -0.6206 -0.5042
  350MOL0     C48166   1.133  11.444   0.464 -0.9082  0.2826  0.0017
  350MOL0     C48167   1.203  11.378   0.361  0.3194  0.5190 -0.0159
  350MOL0     C48168   1.340  11.381   0.356 -0.4981  0.2800  0.4909
  350MOL0     C48169   1.422  11.459   0.442 -0.5747  0.1123 -0.5424
  350MOL0     O48170   1.553  11.433   0.453  0.1411 -0.7750 -0.0476
  350MOL0     C48171   1.625  11.350   0.366  0.4028  0.5198 -0.3823
  350MOL0     C48172   1.767  11.368   0.401 -0.4073 -0.6181  0.7360
  350MOL0     C48173   1.794  11.341   0.550  1.1799 -0.1899  0.5331
  350MOL0     C48174   1.949  11.364   0.577 -0.0476  0.1718  0.3084
  350MOL0     C48175   2.061  11.276   0.511  0.7326 -0.2590 -0.4047
  350MOL0     C48176   2.086  11.124   0.540 -0.4219 -0.6410 -0.2215
  350MOL0     C48177   1.973  11.054   0.471  0.0127 -0.1939  0.5499
  350MOL0     C48178   1.990  10.903   0.453 -0.8172 -0.4664  0.0322
  350MOL0     N48179   2.002  10.825   0.580  0.4164  0.5241 -0.5360
  350MOL0     C48180   1.919  10.722   0.610 -0.4889  0.6883  1.0829
  350MOL0     C48181   1.983  10.656   0.708 -0.9013 -0.1820 -0.1791
  350MOL0     C48182   1.934  10.541   0.795 -0.6231 -0.0459  0.1651
  350MOL0     C48183   1.862  10.579   0.918 -0.2883  0.6075  0.1566
  350MOL0     C48184   1.725  10.656   0.897  1.2290  0.3742  0.0349
  350MOL0     C48185   1.647  10.636   1.026  0.4852 -0.2807  0.3189
  350MOL0     O48186   1.696  10.740   1.114 -0.1399  0.4534 -0.2138
  350MOL0     C48187   1.611  10.804   1.202 -0.7685 -0.3324 -0.7307
  350MOL0     C48188   1.479  10.796   1.237  0.5097  0.9738  0.2009
  350MOL0     C48189   1.414  10.861   1.340 -0.2717  0.1897 -0.0344
  350MOL0     C48190   1.271  10.819   1.370 -0.1646  0.1801 -0.0612
  350MOL0     C48191   1.484  10.968   1.402  0.6556  0.2903  0.3313
  350MOL0     C48192   1.424  11.047   1.503  0.5503 -0.8647 -0.5429
  350MOL0     O48193   1.506  11.089   1.608  0.2132  0.5315  0.4704
  350MOL0     C48194   1.466  11.178   1.708 -0.1943 -1.1947 -0.3722
  350MOL0     C48195   1.415  11.306   1.676  0.0703 -0.2366  0.3624
  350MOL0     C48196   1.406  11.401   1.782  0.6109 -0.1883  0.0087
  350MOL0     C48197   1.441  11.375   1.912  0.6540  0.9453 -0.0759
  350MOL0     O48198   1.424  11.471   2.010  0.2101  0.2405 -0.5945
  350MOL0     C48199   1.421  11.430   2.146 -0.5124  0.5316  0.2581
  350MOL0     C48200   1.436  11.562   2.229  0.3400  0.3894 -0.2079
  350MOL0     C48201   1.428  11.547   2.384 -0.8350  0.3683  0.2195
  350MOL0     C48202   1.307  11.454   2.431 -0.0872 -0.4885  0.3869
  350MOL0     C48203   1.168  11.522   2.408 -0.4624  0.5826  0.1774
  350MOL0     C48204   1.053  11.435   2.441  0.3108  1.0424 -0.1551
  350MOL0     C48205   0.930  11.526   2.465  0.6184 -0.3292  0.1667
  350MOL0     C48206   0.806  11.450   2.503  0.0874 -0.0111 -0.4796
  350MOL0    Cl48207   0.814  11.327   2.630 -0.2241  0.2465  0.0820
  350MOL0     C48208   1.497  11.246   1.938  0.6294 -0.4841 -0.0927
  350MOL0     C48209   1.512  11.150   1.836  0.9622 -0.1109  0.6163
  350MOL0     O48210   1.314  11.094   1.483 -0.2310 -0.3843  0.1779
  350MOL0     C48211   1.616  10.975   1.370  0.0851 -0.2805  1.2204
  350MOL0     C48212   1.686  10.898   1.277 -0.2891 -0.6720  0.2945
  350MOL0     N48213   2.100  10.723   0.742  1.1646  0.0834 -0.1806
  350MOL0     N48214   2.102  10.833   0.670  0.7235 -0.3926  0.3478
  350MOL0     C48215   1.353  11.537   0.536  0.1510  0.3486  0.0810
  350MOL0     C48216   1.213  11.521   0.549 -0.3866  0.0776 -0.7446
  350MOL0     C48217   0.811  11.307   0.520  0.4976  0.3080  0.9297
  350MOL0     C48218   0.734  11.238   0.612 -0.1326  0.9381  0.7073
  350MOL0     C48219   0.597  11.233   0.614 -0.1338  0.3050 -0.3355
  350MOL0     C48220   0.521  11.279   0.509 -0.1215  0.2352  0.3547
  350MOL0     O48221   0.377  11.272   0.518 -0.3956 -0.0184 -0.7623
  350MOL0     C48222   0.299  11.347   0.429  0.2404 -0.3413 -0.1444
  350MOL0     C48223   0.160  11.276   0.438  0.2443 -0.5878  0.5407
  350MOL0     C48224   0.056  11.325   0.545  0.1533  0.1069  0.2329
  350MOL0     C48225  -0.069  11.227   0.557  0.7009 -0.5959  0.7326
  350MOL0     C48226  -0.163  11.287   0.660 -0.2629 -0.1543 -0.7176
  350MOL0     C48227  -0.245  11.343   0.727 -0.3893 -0.8110 -0.8083
  350MOL0     C48228   0.588  11.348   0.417  0.1606 -0.4497  0.3897
  350MOL0     C48229   0.731  11.362   0.413  0.9226  0.5690 -0.1717
  350MOL0     C48230   0.788  11.439   0.293  0.3987  0.4673 -1.1143
  350MOL0     H48231   1.140  11.327   0.289  0.5689 -0.1709  0.2502
  350MOL0     H48232   1.384  11.311   0.286  0.3084  0.4765  0.7819
  350MOL0     H48233   1.604  11.371   0.260  0.1224 -3.9440 -1.4050
  350MOL0     H48234   1.598  11.245   0.375  0.2970  0.4961 -0.9143
  350MOL0     H48235   1.829  11.304   0.338 -0.8997 -0.4945  0.1156
  350MOL0     H48236   1.790  11.474   0.392 -2.8853 -0.1167 -0.7068
  350MOL0     H48237   1.733  11.411   0.606  0.6316 -0.3980  0.1990
  350MOL0     H48238   1.770  11.238   0.577 -1.0067  0.5850  1.8168
  350MOL0     H48239   1.971  11.469   0.552 -0.9273  0.2133 -0.3357
  350MOL0     H48240   1.949  11.356   0.686 -0.7125 -0.3131  0.2797
  350MOL0     H48241   2.151  11.314   0.559  1.4791 -2.5898  0.1885
  350MOL0     H48242   2.071  11.308   0.407  1.8953  2.2437  0.4004
  350MOL0     H48243   2.188  11.097   0.512 -0.7145 -0.7441 -1.1956
  350MOL0     H48244   2.069  11.099   0.646  0.1889 -1.9822 -0.4254
  350MOL0     H48245   1.949  11.094   0.372 -3.2133  1.1343  1.7487
  350MOL0     H48246   1.879  11.058   0.526 -0.4145  1.0363 -0.2378
  350MOL0     H48247   1.900  10.876   0.397 -0.4221 -1.3764 -0.1895
  350MOL0     H48248   2.089  10.896   0.406 -0.8997 -0.0999 -0.1940
  350MOL0     H48249   1.827  10.690   0.560 -0.2457 -0.3728  1.2770
  350MOL0     H48250   2.021  10.480   0.822  0.3324  1.0890 -0.2837
  350MOL0     H48251   1.868  10.481   0.731 -2.1869  0.1103  1.5482
  350MOL0     H48252   1.838  10.483   0.964 -1.0402 -0.4515 -2.2745
  350MOL0     H48253   1.924  10.643   0.980  1.2195  1.4075 -2.0405
  350MOL0     H48254   1.745  10.762   0.882  0.5529  0.6145  0.7259
  350MOL0     H48255   1.683  10.604   0.811  1.4927 -0.3079  0.3081
  350MOL0     H48256   1.540  10.651   1.011  0.5900  0.1957  0.0321
  350MOL0     H48257   1.669  10.540   1.074 -1.0996 -1.0620 -0.4235
  350MOL0     H48258   1.413  10.728   1.184 -0.9173  1.5141  1.2212
  350MOL0     H48259   1.244  10.746   1.293  0.5413  1.0033 -1.1250
  350MOL0     H48260   1.206  10.907   1.360  0.6119  0.7065 -0.5759
  350MOL0     H48261   1.254  10.777   1.470 -1.4259 -1.9094 -1.0922
  350MOL0     H48262   1.393  11.330   1.573  0.9450  0.9312  0.4183
  350MOL0     H48263   1.349  11.491   1.759  0.2842 -0.2168  0.6844
  350MOL0     H48264   1.338  11.363   2.171  0.5252 -1.0996 -0.5300
  350MOL0     H48265   1.508  11.367   2.169  0.8279  1.5089 -1.8288
  350MOL0     H48266   1.529  11.610   2.199  0.2619  0.9277  0.3797
  350MOL0     H48267   1.352  11.625   2.197 -0.8294 -0.6107  0.7781
  350MOL0     H48268   1.426  11.643   2.438  0.5921  1.0973 -0.9657
  350MOL0     H48269   1.516  11.494   2.422  1.3834  3.5300 -0.1352
  350MOL0     H48270   1.323  11.450   2.539  2.6363 -0.2204  0.0478
  350MOL0     H48271   1.307  11.356   2.383  0.1344 -0.1375 -0.3494
  350MOL0     H48272   1.180  11.617   2.460  2.5496  1.7133 -2.2434
  350MOL0     H48273   1.157  11.544   2.301 -2.6324  2.3664  0.6901
  350MOL0     H48274   1.078  11.383   2.534 -0.8355 -1.9429 -1.4140
  350MOL0     H48275   1.029  11.358   2.368  2.2652  0.2306 -0.0099
  350MOL0     H48276   0.907  11.575   2.370  1.7806 -1.6821 -0.8607
  350MOL0     H48277   0.950  11.597   2.546  2.0776 -0.4547 -0.0568
  350MOL0     H48278   0.758  11.409   2.414 -0.6669  0.9881 -0.5594
  350MOL0     H48279   0.734  11.529   2.530 -2.0720 -1.3975 -1.8977
  350MOL0     H48280   1.544  11.212   2.029 -0.1114  0.8403  0.8152
  350MOL0     H48281   1.551  11.049   1.851  1.3087 -0.1910 -0.7319
  350MOL0     H48282   1.678  11.049   1.419  0.9063 -1.0581  1.3914
  350MOL0     H48283   1.792  10.907   1.256  0.3201 -1.7356  2.7163
  350MOL0     H48284   1.410  11.591   0.610  0.6349 -0.8421  0.6028
  350MOL0     H48285   1.159  11.577   0.624  0.5840 -1.6871  1.3889
  350MOL0     H48286   0.780  11.182   0.693 -2.8289 -1.1190  0.9388
  350MOL0     H48287   0.559  11.189   0.706  2.2293 -0.3865  0.3805
  350MOL0     H48288   0.303  11.453   0.458  3.0176 -0.5044  0.3083
  350MOL0     H48289   0.325  11.354   0.323 -0.4828 -0.2233 -0.3219
  350MOL0     H48290   0.173  11.168   0.452  3.9193  0.1042  4.3012
  350MOL0     H48291   0.113  11.296   0.341 -0.3957 -1.8012  0.5720
  350MOL0     H48292   0.101  11.333   0.644  0.2190 -1.6203  0.3821
  350MOL0     H48293   0.014  11.424   0.528 -1.7462 -0.5480  0.8742
  350MOL0     H48294  -0.030  11.131   0.592  0.4000 -0.5021  1.3389
  350MOL0     H48295  -0.129  11.223   0.466  0.4601 -0.8708  0.9014
  350MOL0     H48296  -0.311  11.396   0.793  0.7090 -0.2795 -0.1250
  350MOL0     H48297   0.534  11.402   0.339 -2.9836 -2.3253  1.1151
  350MOL0     H48298   0.731  11.431   0.200 -0.4753  2.1218 -0.7656
  350MOL0     H48299   0.795  11.544   0.324  0.1639 -0.3582  2.1235
  350MOL0     H48300   0.889  11.404   0.273  1.0018  0.6208  1.2935
  351MOL0     O48301   4.601   2.209   2.070  0.3172 -0.5344 -0.3887
  351MOL0     C48302   4.524   2.247   1.981  0.4208  0.5894  0.3423
  351MOL0     O48303   4.545   2.220   1.845 -0.1302 -0.3617  0.4364
  351MOL0     C48304   4.675   2.164   1.817 -0.3643  0.3946 -0.3650
  351MOL0     C48305   4.767   2.238   1.742 -0.4761  0.1728  0.0772
  351MOL0     C48306   4.894   2.189   1.716 -0.4780  0.1930  0.1588
  351MOL0     C48307   4.928   2.060   1.752 -0.1372 -0.3053  0.1413
  351MOL0     O48308   5.052   2.004   1.732  0.4200 -0.4736 -0.5943
  351MOL0     C48309   5.161   2.090   1.763 -0.3224 -0.5473  1.0072
  351MOL0     C48310   5.218   2.062   1.898 -0.5143  0.1561  0.5313
  351MOL0     C48311   5.337   1.960   1.897  0.3403  0.5635  0.3200
  351MOL0     C48312   5.337   1.887   2.032  0.1472  0.2712  0.2286
  351MOL0     C48313   5.468   1.808   2.048 -0.6001  0.7987 -0.0699
  351MOL0     C48314   5.471   1.728   2.181  0.7736 -1.0542  0.1808
  351MOL0     C48315   5.412   1.591   2.164  0.1618  0.7509  0.2000
  351MOL0     C48316   5.500   1.481   2.109 -0.2931  0.1373  0.8686
  351MOL0     N48317   5.614   1.440   2.188  0.7744 -0.4586  0.0692
  351MOL0     C48318   5.732   1.378   2.153  0.5363 -0.0815 -0.2101
  351MOL0     C48319   5.813   1.378   2.259 -0.0113  0.1070 -0.3123
  351MOL0     C48320   5.953   1.318   2.261  0.4399 -0.1733  0.2476
  351MOL0     C48321   6.043   1.384   2.153 -0.1701 -0.3243 -0.4342
  351MOL0     C48322   6.189   1.390   2.195  0.5997  0.3044  0.0984
  351MOL0     C48323   6.259   1.514   2.122  0.2296 -0.0912 -0.6457
  351MOL0     O48324   6.397   1.487   2.115  0.2978 -0.2534  0.2884
  351MOL0     C48325   6.487   1.567   2.044 -0.3244  0.9298 -0.7104
  351MOL0     C48326   6.449   1.676   1.966 -0.2843  0.4510  0.5886
  351MOL0     C48327   6.536   1.753   1.894  0.8354 -0.4764  0.9943
  351MOL0     C48328   6.475   1.858   1.804  0.1492 -0.1193  0.6404
  351MOL0     C48329   6.680   1.730   1.904 -0.3701 -0.2763 -0.3365
  351MOL0     C48330   6.780   1.821   1.839  0.3761  0.2743 -0.4885
  351MOL0     O48331   6.913   1.799   1.870 -0.2103  0.2667 -0.5948
  351MOL0     C48332   7.020   1.866   1.819 -0.0699  1.1747  0.8638
  351MOL0     C48333   7.017   2.004   1.782  0.7181  0.3858 -0.1795
  351MOL0     C48334   7.128   2.063   1.728 -0.0912  0.9994  0.5164
  351MOL0     C48335   7.246   1.987   1.734 -0.5369 -0.2994  0.6705
  351MOL0     O48336   7.355   2.051   1.675  0.2948 -0.0431  0.7636
  351MOL0     C48337   7.490   2.010   1.701  0.2658 -0.7437  0.6831
  351MOL0     C48338   7.570   2.073   1.584  0.1604 -0.4061 -0.3811
  351MOL0     C48339   7.713   2.023   1.583  0.2432  0.2237 -0.6571
  351MOL0     C48340   7.790   2.068   1.453  0.0556  0.7417 -0.5267
  351MOL0     C48341   7.935   2.044   1.468  0.5099  0.4819 -0.1009
  351MOL0     C48342   8.006   2.076   1.330  0.3268 -1.5416 -0.1794
  351MOL0     C48343   8.153   2.067   1.334  0.7833 -0.3878  0.3147
  351MOL0     C48344   8.223   2.129   1.454 -0.4605  1.0839  0.5112
  351MOL0    Cl48345   8.393   2.166   1.414 -0.2189 -0.3651  0.4753
  351MOL0     C48346   7.252   1.852   1.766 -0.6794 -0.5141  0.4970
  351MOL0     C48347   7.130   1.792   1.806 -0.3705 -0.8380  0.2070
  351MOL0     O48348   6.743   1.901   1.761 -0.5828  0.2949  0.8140
  351MOL0     C48349   6.716   1.628   1.988 -0.6521  0.5716  0.5166
  351MOL0     C48350   6.623   1.554   2.060 -0.3782  0.9117 -0.2740
  351MOL0     N48351   5.739   1.427   2.363  0.2870 -0.8444 -0.4827
  351MOL0     N48352   5.621   1.464   2.321 -0.3759 -0.2308  0.1659
  351MOL0     C48353   4.832   1.978   1.816 -0.4448 -0.3369  0.0063
  351MOL0     C48354   4.711   2.035   1.854 -0.2962  0.2536  0.4757
  351MOL0     C48355   4.409   2.326   2.007 -0.8956  0.1656 -0.8538
  351MOL0     C48356   4.345   2.393   1.900 -0.2142  0.7616  0.5747
  351MOL0     C48357   4.240   2.479   1.905  0.2697 -0.2332 -0.2488
  351MOL0     C48358   4.180   2.506   2.034 -0.1400 -0.0414 -0.0245
  351MOL0     O48359   4.077   2.593   2.050  0.3431  0.1431 -0.6820
  351MOL0     C48360   4.014   2.642   1.939 -0.3568  0.2097 -0.0534
  351MOL0     C48361   3.877   2.700   1.985  0.6081 -0.3692  0.2662
  351MOL0     C48362   3.767   2.594   1.982  0.2502 -0.2959  0.0681
  351MOL0     C48363   3.632   2.652   2.027  0.5919  0.8137 -0.2091
  351MOL0     C48364   3.575   2.763   1.948  0.6049 -0.3408  0.8163
  351MOL0     C48365   3.548   2.858   1.866  0.4209  0.3072  0.2312
  351MOL0     C48366   4.241   2.447   2.148 -0.1136  0.6211 -0.5532
  351MOL0     C48367   4.346   2.348   2.135 -0.4250  0.3660  0.1218
  351MOL0     C48368   4.401   2.278   2.262  0.3739  0.5223  0.0459
  351MOL0     H48369   4.742   2.342   1.724 -2.0049 -0.3844 -1.2256
  351MOL0     H48370   4.965   2.252   1.662  0.1562  0.7444  1.5830
  351MOL0     H48371   5.127   2.194   1.751 -0.1759 -0.6462 -0.4333
  351MOL0     H48372   5.240   2.088   1.687 -0.3385  1.7413  0.8348
  351MOL0     H48373   5.267   2.154   1.932 -1.2158  0.4782  0.7008
  351MOL0     H48374   5.136   2.027   1.960  0.7516 -0.3269  1.9873
  351MOL0     H48375   5.309   1.882   1.825 -1.4516  0.6167  0.9250
  351MOL0     H48376   5.431   2.014   1.878  0.0546  1.1257  0.4903
  351MOL0     H48377   5.316   1.962   2.109  1.4944 -0.6660  1.5968
  351MOL0     H48378   5.253   1.817   2.036 -1.0556  1.6739  3.7645
  351MOL0     H48379   5.546   1.884   2.047 -0.8181  1.0854 -2.9121
  351MOL0     H48380   5.491   1.744   1.962  0.4699 -0.8342  1.3803
  351MOL0     H48381   5.572   1.735   2.223  0.4171  2.1985  0.7668
  351MOL0     H48382   5.415   1.782   2.258  0.6241  0.3628 -0.8807
  351MOL0     H48383   5.323   1.591   2.099  0.2924  0.6931  0.0196
  351MOL0     H48384   5.384   1.563   2.266  0.4640  1.2074  0.4098
  351MOL0     H48385   5.436   1.393   2.104  1.7285 -1.4905 -5.2041
  351MOL0     H48386   5.527   1.506   2.006  0.1961  0.0113  0.9637
  351MOL0     H48387   5.750   1.348   2.050 -0.7453  0.8902 -0.7542
  351MOL0     H48388   5.945   1.213   2.232 -4.2191  0.0528 -0.1052
  351MOL0     H48389   5.985   1.325   2.365 -1.7649 -0.4841  1.0030
  351MOL0     H48390   6.027   1.337   2.056 -2.3053  0.9972 -0.7804
  351MOL0     H48391   6.007   1.485   2.133 -0.1478 -0.3720 -0.7172
  351MOL0     H48392   6.179   1.406   2.303 -4.5208  2.9437 -0.4165
  351MOL0     H48393   6.231   1.292   2.172  1.2227  0.5049  0.3533
  351MOL0     H48394   6.217   1.535   2.023  2.0177 -0.0196 -1.4293
  351MOL0     H48395   6.246   1.607   2.178 -1.2984 -0.2083 -0.7553
  351MOL0     H48396   6.343   1.689   1.945 -0.7635 -3.2424 -0.0671
  351MOL0     H48397   6.365   1.861   1.804  0.0964 -1.2481 -0.5965
  351MOL0     H48398   6.521   1.846   1.705 -0.3911  1.3458  0.1802
  351MOL0     H48399   6.506   1.956   1.841  2.3565 -0.0035 -1.2701
  351MOL0     H48400   6.927   2.064   1.793 -2.1604 -3.5900  0.2918
  351MOL0     H48401   7.124   2.167   1.697 -1.0628  0.3608 -1.6593
  351MOL0     H48402   7.523   2.046   1.799 -0.6966  0.2656  0.6542
  351MOL0     H48403   7.502   1.902   1.700  1.0151 -0.6671  0.2637
  351MOL0     H48404   7.529   2.053   1.485  0.9619 -0.7907 -0.6369
  351MOL0     H48405   7.582   2.182   1.592 -0.4341 -0.3910  0.4756
  351MOL0     H48406   7.710   1.914   1.594 -2.5350  0.2970  0.1886
  351MOL0     H48407   7.763   2.061   1.673 -1.1615  1.2658 -0.2890
  351MOL0     H48408   7.768   2.174   1.437  0.1565  0.7396 -0.6838
  351MOL0     H48409   7.758   2.006   1.369  3.5940 -0.5142 -1.1397
  351MOL0     H48410   7.984   2.096   1.551 -0.6281  0.4175  0.6246
  351MOL0     H48411   7.951   1.939   1.496  3.2277  0.3662 -1.6428
  351MOL0     H48412   7.989   2.182   1.309  0.7579 -1.3025  0.6724
  351MOL0     H48413   7.968   2.009   1.251  1.8023 -4.2450  1.2652
  351MOL0     H48414   8.190   2.121   1.246  1.9701  2.5503  2.4384
  351MOL0     H48415   8.185   1.963   1.325 -0.2791 -0.7158  0.2254
  351MOL0     H48416   8.224   2.068   1.545 -2.7210 -2.8667 -1.8217
  351MOL0     H48417   8.169   2.220   1.485 -2.3613  0.4395 -0.7360
  351MOL0     H48418   7.342   1.794   1.752 -0.8144 -1.1587  2.1288
  351MOL0     H48419   7.127   1.687   1.832 -1.7325 -0.6029  1.0903
  351MOL0     H48420   6.823   1.613   2.001  0.0381  3.9318 -0.4370
  351MOL0     H48421   6.665   1.489   2.136 -2.4840 -0.3617 -0.1371
  351MOL0     H48422   4.865   1.878   1.841  3.6851  1.1245  1.3263
  351MOL0     H48423   4.644   1.974   1.913 -1.2938  0.3404 -0.5211
  351MOL0     H48424   4.388   2.375   1.802 -1.7090 -0.8392  0.1462
  351MOL0     H48425   4.196   2.521   1.815 -1.9710 -2.4325 -0.3100
  351MOL0     H48426   4.071   2.725   1.898 -1.0271 -0.3132 -2.1949
  351MOL0     H48427   3.997   2.568   1.860 -1.1368  0.0461  0.2507
  351MOL0     H48428   3.841   2.776   1.915 -1.9969 -0.5673  1.2552
  351MOL0     H48429   3.887   2.745   2.084  2.9260 -1.3739  0.5568
  351MOL0     H48430   3.754   2.568   1.877  0.2346 -1.0238  0.2452
  351MOL0     H48431   3.794   2.493   2.012  2.9005 -0.1305 -1.4647
  351MOL0     H48432   3.637   2.680   2.133 -0.7117  1.0275 -0.1944
  351MOL0     H48433   3.555   2.574   2.030 -1.7136  2.9813 -0.2770
  351MOL0     H48434   3.501   2.938   1.812 -2.2573 -1.4862 -0.3245
  351MOL0     H48435   4.196   2.475   2.242 -0.7406  1.2302 -1.0246
  351MOL0     H48436   4.341   2.313   2.346  0.5245  3.0625 -0.8375
  351MOL0     H48437   4.373   2.172   2.260  0.2252  0.4751  2.3260
  351MOL0     H48438   4.509   2.291   2.272  0.8279 -1.9775 -0.7749
  352MOL0     O48439   0.716   4.961   3.711  0.4221  0.2521 -0.7385
  352MOL0     C48440   0.721   5.019   3.821 -0.8541  0.1704  0.0590
  352MOL0     O48441   0.834   5.072   3.872 -1.1028  0.9396 -0.6679
  352MOL0     C48442   0.948   5.032   3.804 -0.8406  0.4717  0.3554
  352MOL0     C48443   0.995   4.901   3.798 -0.6085  0.0615  1.0886
  352MOL0     C48444   1.113   4.862   3.723 -0.7759 -0.1076 -0.0809
  352MOL0     C48445   1.195   4.955   3.665  0.0087  0.1992 -0.3534
  352MOL0     O48446   1.301   4.927   3.582 -1.0158 -0.8104  0.4592
  352MOL0     C48447   1.394   4.834   3.632 -0.5617  0.1541  0.5012
  352MOL0     C48448   1.517   4.820   3.541  0.1533 -0.2433  0.4484
  352MOL0     C48449   1.598   4.946   3.533 -1.0388 -0.8272  0.3275
  352MOL0     C48450   1.644   4.971   3.381 -0.2844 -0.4119  0.2284
  352MOL0     C48451   1.757   4.881   3.348 -1.2511  0.1189  0.1866
  352MOL0     C48452   1.780   4.878   3.190 -0.1373 -0.4044  0.9066
  352MOL0     C48453   1.906   4.800   3.140 -0.1002  0.2319 -0.6061
  352MOL0     C48454   1.943   4.804   2.991  0.5407 -0.1177 -0.0866
  352MOL0     N48455   1.991   4.937   2.964  0.5188  0.5261  0.5193
  352MOL0     C48456   2.111   4.991   3.012  0.2605 -0.1061 -0.0207
  352MOL0     C48457   2.118   5.109   2.949  0.1034 -0.5853 -0.1614
  352MOL0     C48458   2.217   5.219   2.971  0.0256  0.2147 -0.0660
  352MOL0     C48459   2.220   5.260   3.121 -1.0360  0.8570  0.7574
  352MOL0     C48460   2.098   5.339   3.160  0.2220 -0.1532 -0.2115
  352MOL0     C48461   2.084   5.368   3.310 -0.6402  0.0751  0.2037
  352MOL0     O48462   2.188   5.464   3.340  0.3030 -0.5323  0.6365
  352MOL0     C48463   2.187   5.529   3.465  0.1626  0.6105  0.2520
  352MOL0     C48464   2.081   5.557   3.559  0.5474  0.7626  0.0280
  352MOL0     C48465   2.103   5.628   3.681  0.7419  0.6138 -1.0667
  352MOL0     C48466   1.984   5.676   3.761  0.1717  0.3089  0.1978
  352MOL0     C48467   2.233   5.654   3.720  0.2334 -0.1511  0.0582
  352MOL0     C48468   2.272   5.717   3.849  0.5196  0.4983  0.3318
  352MOL0     O48469   2.399   5.786   3.862  0.0683 -0.3198 -0.2819
  352MOL0     C48470   2.437   5.816   3.992  0.5377 -0.8123 -0.3301
  352MOL0     C48471   2.439   5.951   4.034  0.2347  0.0373 -0.1636
  352MOL0     C48472   2.502   5.984   4.158 -0.2743 -1.2549  1.2345
  352MOL0     C48473   2.554   5.894   4.243  0.2405  0.6034  0.0604
  352MOL0     O48474   2.604   5.927   4.369  0.0553 -0.3678  0.2289
  352MOL0     C48475   2.610   5.827   4.473  0.3119 -0.2092  0.4266
  352MOL0     C48476   2.656   5.893   4.598 -0.0748  1.0880 -0.0541
  352MOL0     C48477   2.809   5.905   4.598 -0.8592 -0.4738 -0.1506
  352MOL0     C48478   2.869   5.993   4.709 -0.9107 -0.7285 -0.4533
  352MOL0     C48479   3.011   6.036   4.683  0.0289  1.1136  0.5062
  352MOL0     C48480   3.080   6.091   4.801  0.0725 -0.2694 -0.4250
  352MOL0     C48481   3.214   6.143   4.747 -0.3913 -0.5680 -0.5501
  352MOL0     C48482   3.297   6.206   4.850 -0.2775 -0.4191  0.2424
  352MOL0    Cl48483   3.348   6.071   4.956 -0.1015 -0.4062  0.2450
  352MOL0     C48484   2.558   5.760   4.192 -0.4377 -0.3406 -0.5271
  352MOL0     C48485   2.504   5.722   4.067 -0.2531 -1.0328  0.3765
  352MOL0     O48486   2.188   5.708   3.938 -0.6987  0.1494  0.1928
  352MOL0     C48487   2.345   5.621   3.636 -0.5004  0.4822 -0.1946
  352MOL0     C48488   2.316   5.566   3.512 -0.5842 -0.3388  0.3539
  352MOL0     N48489   2.010   5.122   2.864  0.1143  1.2308  1.1303
  352MOL0     N48490   1.940   5.011   2.865  0.0745 -0.2922 -0.0855
  352MOL0     C48491   1.144   5.090   3.666 -0.0535 -0.1429  0.4866
  352MOL0     C48492   1.027   5.129   3.745  0.0037 -0.2470 -0.2527
  352MOL0     C48493   0.601   5.062   3.897 -1.0546  0.9456 -0.1172
  352MOL0     C48494   0.610   5.160   3.995 -0.2738 -0.6233  0.2247
  352MOL0     C48495   0.506   5.194   4.078 -0.4533  0.4702  0.4170
  352MOL0     C48496   0.384   5.132   4.066 -0.0319 -0.1563 -0.4688
  352MOL0     O48497   0.287   5.137   4.166  0.7929 -0.2517  0.1188
  352MOL0     C48498   0.165   5.218   4.139 -0.4060 -0.7183 -0.7410
  352MOL0     C48499   0.060   5.186   4.245 -0.3594 -0.0387  0.4119
  352MOL0     C48500  -0.036   5.079   4.197 -0.6788  0.0037  0.4944
  352MOL0     C48501  -0.153   5.085   4.288  1.8504  0.3579 -0.0650
  352MOL0     C48502  -0.265   4.990   4.254 -0.7773 -0.2190 -0.2712
  352MOL0     C48503  -0.357   4.910   4.236 -0.5847  0.2025 -0.0489
  352MOL0     C48504   0.375   5.031   3.967  0.4144 -0.3554  0.2768
  352MOL0     C48505   0.480   4.993   3.881 -0.7699 -0.0256 -0.3685
  352MOL0     C48506   0.451   4.891   3.779 -0.1891  0.4716  0.3113
  352MOL0     H48507   0.951   4.815   3.847 -0.8519 -1.0219 -0.9263
  352MOL0     H48508   1.142   4.757   3.720  0.1842  0.1424 -0.1055
  352MOL0     H48509   1.351   4.734   3.640 -1.8492  0.7488  1.1861
  352MOL0     H48510   1.416   4.854   3.737 -0.1746  0.5701  0.3453
  352MOL0     H48511   1.588   4.749   3.584  1.3153 -1.1146 -2.6393
  352MOL0     H48512   1.490   4.782   3.442  0.0443  0.4296  0.2122
  352MOL0     H48513   1.544   5.036   3.564  0.0938  0.1370 -0.4292
  352MOL0     H48514   1.680   4.946   3.605  1.6032  1.6318 -2.3852
  352MOL0     H48515   1.552   4.957   3.325 -3.2329 -0.9751  4.6797
  352MOL0     H48516   1.682   5.073   3.381  0.7517 -0.7576  1.4335
  352MOL0     H48517   1.742   4.780   3.385 -0.4696 -0.5790 -1.3060
  352MOL0     H48518   1.848   4.917   3.396 -1.3657  0.6959 -0.0129
  352MOL0     H48519   1.688   4.833   3.149 -0.2036 -1.5450  2.2198
  352MOL0     H48520   1.786   4.984   3.165  0.5256 -0.6191  0.0909
  352MOL0     H48521   1.878   4.695   3.153 -0.9807  0.6092  0.7737
  352MOL0     H48522   1.990   4.821   3.206 -2.4351  1.5474  2.1612
  352MOL0     H48523   2.024   4.733   2.977  0.0176 -0.4611 -1.5492
  352MOL0     H48524   1.862   4.778   2.922  1.0973  1.7602 -1.5276
  352MOL0     H48525   2.181   4.953   3.086 -1.2805 -2.0445  0.5361
  352MOL0     H48526   2.196   5.307   2.910  2.4079  1.1455  0.3509
  352MOL0     H48527   2.321   5.194   2.948  1.2334  2.1350  2.7964
  352MOL0     H48528   2.226   5.166   3.177  0.6821 -0.6464 -1.7149
  352MOL0     H48529   2.315   5.313   3.131 -0.5823  0.1110  0.4626
  352MOL0     H48530   2.115   5.435   3.110  1.0304  0.2570  0.7955
  352MOL0     H48531   2.011   5.292   3.115 -0.3885  0.6364  0.1264
  352MOL0     H48532   1.986   5.414   3.320 -0.2906  1.1005 -0.7960
  352MOL0     H48533   2.087   5.277   3.370 -0.9712 -0.9928 -1.3240
  352MOL0     H48534   1.980   5.521   3.541  0.1572  0.7295  2.0475
  352MOL0     H48535   1.883   5.655   3.725 -0.1009  0.9540  0.5635
  352MOL0     H48536   1.984   5.786   3.765 -1.7382  0.5179 -2.7222
  352MOL0     H48537   1.976   5.635   3.862  0.9524 -0.6909 -0.1400
  352MOL0     H48538   2.403   6.032   3.971  0.2503 -0.6926 -1.1390
  352MOL0     H48539   2.496   6.087   4.191 -4.6169 -0.7889 -0.4051
  352MOL0     H48540   2.510   5.791   4.497  0.5978  0.3198  2.6024
  352MOL0     H48541   2.669   5.741   4.441  3.3827  1.4875  1.0977
  352MOL0     H48542   2.601   5.985   4.617 -3.4060 -0.7243 -0.1506
  352MOL0     H48543   2.643   5.823   4.681 -1.3203  0.3814 -0.8119
  352MOL0     H48544   2.835   5.948   4.501 -0.4046 -1.6785 -0.5850
  352MOL0     H48545   2.854   5.805   4.598 -1.9329 -0.9872 -1.4374
  352MOL0     H48546   2.865   5.928   4.797  2.4018  3.4027  3.2369
  352MOL0     H48547   2.799   6.074   4.729 -0.4365 -0.7425  1.4403
  352MOL0     H48548   3.071   5.958   4.635  1.6521  2.9358 -0.5603
  352MOL0     H48549   3.007   6.114   4.606  2.0729  0.7742  0.0126
  352MOL0     H48550   3.090   6.017   4.881  4.4765  2.4486  1.9988
  352MOL0     H48551   3.030   6.180   4.842  0.9948 -0.6286  1.6190
  352MOL0     H48552   3.194   6.220   4.671  1.7412 -0.8538 -1.4586
  352MOL0     H48553   3.267   6.060   4.700 -1.4149 -0.8073 -1.3377
  352MOL0     H48554   3.241   6.276   4.913  2.3260  1.7290  0.3024
  352MOL0     H48555   3.379   6.257   4.800  0.0607  0.1210  1.3276
  352MOL0     H48556   2.609   5.687   4.255 -3.3277 -2.4138 -0.3591
  352MOL0     H48557   2.518   5.620   4.035 -1.5347 -0.4702 -2.2669
  352MOL0     H48558   2.446   5.642   3.672  0.6295 -3.8833 -0.1816
  352MOL0     H48559   2.399   5.546   3.445  0.3802  3.1265  0.2877
  352MOL0     H48560   1.200   5.162   3.609 -3.0728  0.4748 -1.9807
  352MOL0     H48561   0.996   5.233   3.749 -0.4462 -0.3913  0.0317
  352MOL0     H48562   0.705   5.213   4.001 -0.8597  0.7647 -1.6323
  352MOL0     H48563   0.530   5.267   4.154  2.3101 -0.3469  0.4391
  352MOL0     H48564   0.193   5.323   4.148 -1.0452 -0.6574  1.0164
  352MOL0     H48565   0.132   5.193   4.038 -0.3927  2.9314 -1.7850
  352MOL0     H48566   0.007   5.276   4.277 -0.7282  0.2607 -1.0017
  352MOL0     H48567   0.124   5.157   4.329  1.6844  1.1294 -0.6543
  352MOL0     H48568  -0.074   5.100   4.097  3.3608  3.0535 -0.6633
  352MOL0     H48569   0.012   4.980   4.200 -1.2134 -0.4469 -2.8388
  352MOL0     H48570  -0.199   5.183   4.275 -2.2280 -1.5113 -1.7193
  352MOL0     H48571  -0.120   5.083   4.392  2.2485  0.3231 -0.1889
  352MOL0     H48572  -0.437   4.842   4.218  0.6948 -0.7137 -2.9237
  352MOL0     H48573   0.285   4.971   3.956  0.0371  0.3580 -0.6150
  352MOL0     H48574   0.432   4.945   3.686 -0.3496  0.1229  0.1437
  352MOL0     H48575   0.526   4.815   3.754  1.9027  3.2708 -2.8663
  352MOL0     H48576   0.353   4.846   3.794  0.7724 -2.7081 -1.7969
  353MOL0     O48577   5.133  10.084   2.264 -0.3782 -0.1859 -0.3474
  353MOL0     C48578   5.059  10.077   2.368  0.3978  0.4633 -0.7821
  353MOL0     O48579   5.095  10.113   2.495  0.3042 -0.0617  0.3927
  353MOL0     C48580   5.212  10.182   2.526  0.4203  0.4724  0.1897
  353MOL0     C48581   5.196  10.308   2.584 -0.0035  0.1525 -0.3666
  353MOL0     C48582   5.313  10.380   2.622 -0.8425  0.4921 -0.3956
  353MOL0     C48583   5.438  10.338   2.582 -1.0192  0.3337 -0.0468
  353MOL0     O48584   5.556  10.404   2.608 -0.7687  0.6276  0.5686
  353MOL0     C48585   5.547  10.512   2.699 -0.3404  0.3774 -0.1716
  353MOL0     C48586   5.682  10.556   2.741  0.1328  0.0077  0.5935
  353MOL0     C48587   5.685  10.675   2.840  0.4783 -0.2628  0.2456
  353MOL0     C48588   5.815  10.664   2.927  0.4119 -0.4325 -0.2549
  353MOL0     C48589   5.846  10.784   3.024  0.2538  0.4592 -0.0699
  353MOL0     C48590   5.967  10.742   3.110 -0.9077  0.7220 -0.2425
  353MOL0     C48591   6.004  10.865   3.187  0.0186  0.0265 -0.2234
  353MOL0     C48592   6.103  10.838   3.316  0.7114 -0.1643 -0.4282
  353MOL0     N48593   6.226  10.788   3.271 -0.3559  0.9513  0.2603
  353MOL0     C48594   6.311  10.846   3.175  0.5161 -0.1343 -0.9004
  353MOL0     C48595   6.407  10.750   3.156 -0.1474 -0.3177  1.2052
  353MOL0     C48596   6.524  10.780   3.076  0.4115  0.0403  0.1568
  353MOL0     C48597   6.632  10.847   3.158  0.6589  0.3591 -0.3502
  353MOL0     C48598   6.750  10.884   3.066 -1.1846  0.1538  0.0131
  353MOL0     C48599   6.856  10.982   3.110  0.9025 -0.1229  0.1622
  353MOL0     O48600   6.956  10.981   3.020  0.4105  0.3355 -0.3608
  353MOL0     C48601   7.063  11.072   3.020  0.3571  0.3204 -0.5674
  353MOL0     C48602   7.092  11.135   2.904  0.2899 -0.7322 -0.2115
  353MOL0     C48603   7.186  11.239   2.898  0.7358 -0.7974  0.1771
  353MOL0     C48604   7.191  11.320   2.766  0.3043 -0.0140  0.0190
  353MOL0     C48605   7.267  11.264   3.013  0.5116 -0.9910 -0.0725
  353MOL0     C48606   7.374  11.362   3.014  0.0801 -0.0297 -0.3387
  353MOL0     O48607   7.429  11.378   3.141  0.6878 -0.3644 -0.2236
  353MOL0     C48608   7.539  11.459   3.173  0.2098 -0.0181  0.4455
  353MOL0     C48609   7.573  11.476   3.310 -0.2662  0.3655 -0.4488
  353MOL0     C48610   7.673  11.559   3.354 -0.4893 -0.4785  0.0868
  353MOL0     C48611   7.754  11.627   3.259 -0.5330  0.1322  1.0726
  353MOL0     O48612   7.860  11.705   3.290 -0.4536  0.7273  0.1275
  353MOL0     C48613   7.934  11.681   3.409 -0.5164 -0.1525  0.3818
  353MOL0     C48614   8.072  11.748   3.405 -0.2748  0.3367  0.4566
  353MOL0     C48615   8.068  11.900   3.442 -0.4154  0.0727  0.3303
  353MOL0     C48616   8.197  11.976   3.378  0.7847  0.0658 -0.3303
  353MOL0     C48617   8.191  12.129   3.417 -0.2687 -0.5860 -0.1292
  353MOL0     C48618   8.326  12.198   3.383 -0.4215 -0.6613 -0.1451
  353MOL0     C48619   8.322  12.357   3.414  0.0736 -0.0203  0.0946
  353MOL0     C48620   8.421  12.390   3.524  0.1152 -0.3710 -0.2163
  353MOL0    Cl48621   8.362  12.313   3.673  0.2888  0.1782 -0.0245
  353MOL0     C48622   7.729  11.617   3.122 -0.3493 -0.5926  0.2036
  353MOL0     C48623   7.621  11.537   3.077 -1.2648 -0.5351  0.0464
  353MOL0     O48624   7.411  11.422   2.912 -0.7661 -0.1246  1.1497
  353MOL0     C48625   7.236  11.196   3.130  0.2683 -0.1116  0.3690
  353MOL0     C48626   7.134  11.105   3.137 -0.8574 -0.1472  0.0862
  353MOL0     N48627   6.377  10.644   3.236  0.8464  0.1688  0.4377
  353MOL0     N48628   6.263  10.658   3.300  0.4513 -0.7872  0.3657
  353MOL0     C48629   5.452  10.221   2.511  0.5676 -0.1245  0.2063
  353MOL0     C48630   5.333  10.147   2.478  0.3777  0.4859 -0.6872
  353MOL0     C48631   4.925  10.030   2.344  0.4933  0.0738 -0.6064
  353MOL0     C48632   4.861  10.090   2.227 -0.3641  0.2259  0.9483
  353MOL0     C48633   4.739  10.046   2.186  0.3652 -0.1725 -1.1647
  353MOL0     C48634   4.665   9.951   2.263  0.0756  0.1652  0.5116
  353MOL0     O48635   4.536   9.928   2.229  0.5426 -0.3407  0.5237
  353MOL0     C48636   4.485   9.801   2.265 -0.1396  1.1709  1.3017
  353MOL0     C48637   4.345   9.799   2.205  0.1746 -0.3137  0.9771
  353MOL0     C48638   4.283   9.671   2.240  0.4099  0.7376  0.0722
  353MOL0     C48639   4.178   9.622   2.134 -0.1539 -0.1865  0.7159
  353MOL0     C48640   4.093   9.517   2.186  0.3034 -0.2792 -0.1228
  353MOL0     C48641   4.009   9.435   2.213  0.2028  0.0239  0.2606
  353MOL0     C48642   4.726   9.890   2.376 -0.2527 -0.1474 -0.6370
  353MOL0     C48643   4.860   9.924   2.405  0.5015  0.9792 -0.4982
  353MOL0     C48644   4.920   9.845   2.511  1.3887  0.8310  0.1640
  353MOL0     H48645   5.102  10.353   2.615  0.6735  2.1009 -0.9894
  353MOL0     H48646   5.316  10.469   2.684  2.6127 -0.5301  1.1587
  353MOL0     H48647   5.496  10.487   2.792 -0.5187 -0.7255 -0.5508
  353MOL0     H48648   5.495  10.592   2.646 -2.5920 -1.2397 -0.5217
  353MOL0     H48649   5.724  10.478   2.806 -0.1554  1.5289  2.7035
  353MOL0     H48650   5.739  10.581   2.651  1.3049  1.4416  1.6952
  353MOL0     H48651   5.675  10.769   2.785  1.5443  0.0779  0.6236
  353MOL0     H48652   5.599  10.664   2.906  1.7196  0.3648  2.0458
  353MOL0     H48653   5.814  10.568   2.978 -3.7764 -0.0264  0.8210
  353MOL0     H48654   5.897  10.669   2.855  0.6112  0.4223  0.0132
  353MOL0     H48655   5.761  10.797   3.091 -0.4312 -1.9188 -0.4195
  353MOL0     H48656   5.874  10.874   2.968 -0.7021  0.1175 -1.1367
  353MOL0     H48657   5.941  10.659   3.176 -0.1566 -0.6294 -1.6072
  353MOL0     H48658   6.053  10.715   3.048 -0.9656 -2.3449  0.8725
  353MOL0     H48659   5.912  10.912   3.224 -1.0247 -0.3109 -2.2125
  353MOL0     H48660   6.054  10.940   3.124  2.5911 -1.0262  0.4510
  353MOL0     H48661   6.138  10.930   3.364 -0.8007  0.2844 -0.1245
  353MOL0     H48662   6.056  10.761   3.379 -0.7680  1.3003  0.3481
  353MOL0     H48663   6.293  10.947   3.140 -1.6961 -0.0598  0.3151
  353MOL0     H48664   6.495  10.850   2.998  0.6483 -0.1610 -0.1151
  353MOL0     H48665   6.562  10.688   3.029 -3.7041 -1.9436  0.2429
  353MOL0     H48666   6.589  10.935   3.209 -1.8061 -0.9420 -0.0577
  353MOL0     H48667   6.652  10.772   3.236 -0.4324 -1.1753 -1.4990
  353MOL0     H48668   6.790  10.792   3.024 -0.5330  0.8524 -0.9431
  353MOL0     H48669   6.705  10.926   2.976 -2.4671 -1.5098 -0.1556
  353MOL0     H48670   6.808  11.080   3.117  0.7090 -0.0253 -1.8795
  353MOL0     H48671   6.893  10.965   3.212 -0.6697 -0.2322  0.7541
  353MOL0     H48672   7.042  11.109   2.812 -0.4888 -1.5066  0.4109
  353MOL0     H48673   7.292  11.305   2.726  0.3738 -1.4363  0.6637
  353MOL0     H48674   7.165  11.426   2.768 -0.1999 -0.0023 -2.8568
  353MOL0     H48675   7.126  11.273   2.691  1.2749 -1.2360 -0.0947
  353MOL0     H48676   7.516  11.421   3.384 -0.5850  0.2799 -0.7548
  353MOL0     H48677   7.689  11.589   3.457  1.7946  0.7190 -0.5534
  353MOL0     H48678   7.863  11.707   3.489 -1.1015  0.3231 -0.2839
  353MOL0     H48679   7.957  11.574   3.409 -0.4083 -0.1483 -1.1784
  353MOL0     H48680   8.147  11.696   3.465 -1.2294  1.3077  2.6070
  353MOL0     H48681   8.104  11.734   3.302 -1.1931 -0.1729  0.2329
  353MOL0     H48682   8.056  11.905   3.551 -3.0376 -2.3358  0.2759
  353MOL0     H48683   7.974  11.937   3.401  0.1887  2.5916  1.0406
  353MOL0     H48684   8.202  11.961   3.270  0.9105 -1.2706 -0.1542
  353MOL0     H48685   8.288  11.924   3.407  2.1573  0.6753 -3.1822
  353MOL0     H48686   8.120  12.169   3.344 -0.9003 -2.1691 -0.4210
  353MOL0     H48687   8.168  12.148   3.522  0.0708  1.2373 -0.3500
  353MOL0     H48688   8.344  12.186   3.276 -1.4436  1.2595 -0.5843
  353MOL0     H48689   8.406  12.155   3.444 -0.2468 -0.7356 -0.4245
  353MOL0     H48690   8.220  12.389   3.439  0.0750  0.9097 -0.9863
  353MOL0     H48691   8.348  12.407   3.320  1.1650 -0.4934  0.1315
  353MOL0     H48692   8.427  12.498   3.543  4.2940 -0.2210 -1.4107
  353MOL0     H48693   8.525  12.362   3.509  0.0097 -0.4288 -0.8723
  353MOL0     H48694   7.796  11.670   3.055 -0.9373  0.1134  0.1666
  353MOL0     H48695   7.607  11.531   2.970 -0.1600  2.8735 -0.4088
  353MOL0     H48696   7.303  11.200   3.215 -1.7177 -1.4446  2.0988
  353MOL0     H48697   7.109  11.051   3.227 -0.0109 -0.1072  0.3532
  353MOL0     H48698   5.554  10.196   2.485 -0.4583 -2.2718 -2.1232
  353MOL0     H48699   5.353  10.059   2.417  1.4168  0.1820  0.0676
  353MOL0     H48700   4.914  10.168   2.173 -0.5535  1.9313  3.0694
  353MOL0     H48701   4.681  10.097   2.110 -1.4373  1.2610  1.0651
  353MOL0     H48702   4.552   9.734   2.209 -1.3383  1.8120 -1.0187
  353MOL0     H48703   4.483   9.792   2.374 -4.2138  1.7610  1.4220
  353MOL0     H48704   4.351   9.795   2.096  2.5336  0.0159  1.0554
  353MOL0     H48705   4.283   9.881   2.245  1.4305  1.6579 -0.8886
  353MOL0     H48706   4.358   9.593   2.257 -0.8630 -0.9716 -1.7044
  353MOL0     H48707   4.231   9.684   2.335  1.1192 -0.7467  0.6997
  353MOL0     H48708   4.224   9.594   2.038  0.4576  2.7351  0.0542
  353MOL0     H48709   4.100   9.698   2.123  0.0205 -0.1455 -0.3550
  353MOL0     H48710   3.920   9.381   2.241 -1.3555  3.1225  1.8277
  353MOL0     H48711   4.671   9.817   2.435  1.8306  0.0570  1.7156
  353MOL0     H48712   5.029   9.843   2.500  1.4429  1.6627  0.5006
  353MOL0     H48713   4.900   9.896   2.606  0.0716 -0.5638  0.6796
  353MOL0     H48714   4.880   9.743   2.512  0.1302  1.2171 -2.4311
  354MOL0     O48715   5.948   3.761   8.835 -0.0998 -0.4693 -0.5840
  354MOL0     C48716   5.877   3.770   8.938  0.0898  0.1235 -0.3205
  354MOL0     O48717   5.914   3.748   9.063  0.4586 -0.6472 -0.5241
  354MOL0     C48718   6.007   3.654   9.085 -0.2935 -0.2509 -0.5086
  354MOL0     C48719   6.016   3.529   9.022 -0.1297  0.8346  0.0357
  354MOL0     C48720   6.102   3.427   9.064 -0.1422  0.2385 -0.3989
  354MOL0     C48721   6.200   3.449   9.169  0.2048 -0.5574 -0.3630
  354MOL0     O48722   6.284   3.353   9.196  0.4776 -0.6469 -0.2605
  354MOL0     C48723   6.388   3.387   9.284  0.1002  0.2204  0.5139
  354MOL0     C48724   6.467   3.262   9.302 -0.0669 -0.0970  0.3912
  354MOL0     C48725   6.579   3.267   9.407  0.5619  0.5776  0.4070
  354MOL0     C48726   6.641   3.126   9.432 -0.4371 -0.8145 -0.1413
  354MOL0     C48727   6.531   3.029   9.456  0.8499 -0.1379 -0.6503
  354MOL0     C48728   6.578   2.909   9.532  0.5740  0.3242 -0.1240
  354MOL0     C48729   6.694   2.827   9.458 -0.6399 -0.1870 -0.2210
  354MOL0     C48730   6.723   2.687   9.514 -0.6575  0.4322 -0.5366
  354MOL0     N48731   6.847   2.628   9.471 -0.2251 -0.4911 -0.1989
  354MOL0     C48732   6.914   2.621   9.345  0.0206  0.2590  0.3917
  354MOL0     C48733   7.028   2.556   9.370  0.3376  0.6823  0.7863
  354MOL0     C48734   7.120   2.500   9.261 -0.6435 -0.3275 -0.0691
  354MOL0     C48735   7.274   2.517   9.296 -0.1643 -0.7022  0.1700
  354MOL0     C48736   7.379   2.471   9.192  0.4355 -0.3766 -0.2018
  354MOL0     C48737   7.511   2.432   9.268  0.9227 -0.5433 -0.3625
  354MOL0     O48738   7.585   2.365   9.168  0.3601  0.1707  1.5406
  354MOL0     C48739   7.714   2.329   9.197 -1.3361 -0.0670 -0.4285
  354MOL0     C48740   7.784   2.360   9.315 -0.5718 -0.8339  0.4274
  354MOL0     C48741   7.917   2.317   9.332 -0.2639 -0.6629  0.6740
  354MOL0     C48742   7.982   2.363   9.460 -0.6888  0.0682  0.3011
  354MOL0     C48743   7.985   2.241   9.230  0.0510 -0.8137  0.3845
  354MOL0     C48744   8.118   2.189   9.258 -0.2084  0.0389 -0.2475
  354MOL0     O48745   8.192   2.150   9.153  0.0115 -0.8193 -0.5228
  354MOL0     C48746   8.320   2.105   9.161  0.0973  0.2530  0.6096
  354MOL0     C48747   8.397   2.089   9.272  0.0342  0.3564 -0.0146
  354MOL0     C48748   8.524   2.040   9.247  0.4534 -0.1130 -0.9765
  354MOL0     C48749   8.580   2.009   9.124  0.4644 -0.2499  0.4051
  354MOL0     O48750   8.705   1.942   9.093 -0.2206 -0.4512 -0.5955
  354MOL0     C48751   8.805   1.930   9.201 -0.0589  0.1054 -0.1657
  354MOL0     C48752   8.941   1.901   9.147 -0.5415  0.2374  0.1912
  354MOL0     C48753   9.035   1.873   9.271  0.0271 -0.4140  0.4788
  354MOL0     C48754   9.184   1.842   9.229 -0.0028 -0.1306 -0.1436
  354MOL0     C48755   9.255   1.816   9.358 -0.2563 -0.7010 -0.1552
  354MOL0     C48756   9.408   1.812   9.359 -0.1857  0.1426 -0.2051
  354MOL0     C48757   9.469   1.696   9.274  0.4473 -0.6123 -0.9759
  354MOL0     C48758   9.612   1.684   9.293 -0.2517 -0.8334 -0.8159
  354MOL0    Cl48759   9.693   1.819   9.236  0.1742 -0.1055  0.3459
  354MOL0     C48760   8.501   2.033   9.016 -0.5242 -0.9677  0.4912
  354MOL0     C48761   8.376   2.076   9.031  0.4031 -0.2990 -0.0634
  354MOL0     O48762   8.140   2.150   9.374  0.4683 -0.2329  0.5394
  354MOL0     C48763   7.911   2.208   9.119 -0.1324 -0.4266 -0.0382
  354MOL0     C48764   7.783   2.257   9.100  0.4162  0.9427  0.1632
  354MOL0     N48765   7.045   2.545   9.509  0.3243  0.4131  0.0870
  354MOL0     N48766   6.937   2.584   9.565  0.3554  0.4858  0.0807
  354MOL0     C48767   6.205   3.582   9.223  0.0804 -0.6665 -0.7238
  354MOL0     C48768   6.108   3.683   9.184  0.8932  0.3801  0.0201
  354MOL0     C48769   5.736   3.823   8.925 -0.2049  0.2431  0.5550
  354MOL0     C48770   5.648   3.808   9.033  0.2830 -1.0753 -0.3130
  354MOL0     C48771   5.518   3.867   9.024 -0.1128  0.0011 -0.3803
  354MOL0     C48772   5.473   3.937   8.916 -0.1625 -0.8444 -0.2024
  354MOL0     O48773   5.351   4.001   8.919  0.5955  0.1791 -0.7227
  354MOL0     C48774   5.228   3.944   8.863  1.2508 -0.2818 -0.8577
  354MOL0     C48775   5.207   3.986   8.721 -0.2379 -0.2150 -0.3683
  354MOL0     C48776   5.091   3.911   8.664 -0.5121 -0.2171  0.3335
  354MOL0     C48777   4.964   3.996   8.660 -1.0201 -1.1268 -0.6477
  354MOL0     C48778   4.867   3.928   8.575  0.7537  0.4354  0.1232
  354MOL0     C48779   4.773   3.872   8.516 -0.5440 -0.0125 -0.4990
  354MOL0     C48780   5.568   3.969   8.813  0.8590  0.2799  0.2281
  354MOL0     C48781   5.688   3.899   8.815 -0.4577  0.1542  0.2653
  354MOL0     C48782   5.767   3.917   8.684 -0.1318 -0.6128  0.1881
  354MOL0     H48783   5.948   3.510   8.939 -0.6171  1.0736  0.3785
  354MOL0     H48784   6.097   3.328   9.020 -1.9758  0.0389  0.1621
  354MOL0     H48785   6.351   3.414   9.383  0.2466 -1.3849  1.0271
  354MOL0     H48786   6.440   3.473   9.240  1.0982 -0.8245 -0.3854
  354MOL0     H48787   6.391   3.189   9.331  1.5050 -0.8224  3.0798
  354MOL0     H48788   6.519   3.224   9.214  0.4503 -2.4833  1.6395
  354MOL0     H48789   6.653   3.345   9.389  0.8818  1.2915  4.1695
  354MOL0     H48790   6.533   3.297   9.501 -0.0865 -2.2348  1.0817
  354MOL0     H48791   6.710   3.090   9.355 -0.3645  0.1832 -0.5571
  354MOL0     H48792   6.697   3.142   9.525 -0.9921 -0.7072  0.1822
  354MOL0     H48793   6.480   3.003   9.363 -3.9852 -0.1266  1.6907
  354MOL0     H48794   6.454   3.077   9.518  0.4713  0.2615 -1.4152
  354MOL0     H48795   6.608   2.931   9.635 -2.3918  1.3391  0.6394
  354MOL0     H48796   6.494   2.838   9.534  0.3299  0.6093 -0.1850
  354MOL0     H48797   6.789   2.881   9.464  0.3064 -1.9221  1.2362
  354MOL0     H48798   6.668   2.807   9.354 -0.1195  1.5623 -0.7283
  354MOL0     H48799   6.734   2.682   9.622  0.7635  0.4788 -0.6586
  354MOL0     H48800   6.640   2.620   9.491 -1.7451  0.5626  2.6547
  354MOL0     H48801   6.881   2.653   9.247  0.7020  1.1579  0.4534
  354MOL0     H48802   7.124   2.547   9.162  0.6303 -0.2351  0.0059
  354MOL0     H48803   7.089   2.396   9.245  0.7439 -0.7220 -0.3088
  354MOL0     H48804   7.292   2.624   9.309 -2.8300 -0.2708  0.9921
  354MOL0     H48805   7.296   2.477   9.396 -1.2522  1.2523  1.2373
  354MOL0     H48806   7.341   2.383   9.139 -4.0175  2.1795 -1.8048
  354MOL0     H48807   7.386   2.551   9.118 -0.6326 -1.0922 -1.1007
  354MOL0     H48808   7.560   2.526   9.296 -0.6176 -0.0286  0.7340
  354MOL0     H48809   7.490   2.371   9.356 -1.9768  0.1872 -0.4374
  354MOL0     H48810   7.744   2.426   9.392  1.3761  1.6169 -0.5269
  354MOL0     H48811   8.070   2.416   9.422 -0.4342 -1.3679 -1.2194
  354MOL0     H48812   8.012   2.280   9.525 -0.5807 -0.2936 -0.2082
  354MOL0     H48813   7.923   2.428   9.525  2.7026 -0.3702  4.3083
  354MOL0     H48814   8.377   2.100   9.378 -2.2752 -0.6085 -0.2947
  354MOL0     H48815   8.591   2.026   9.331  1.9512  4.1936 -1.1804
  354MOL0     H48816   8.803   2.022   9.260 -4.5073 -1.5403  2.8052
  354MOL0     H48817   8.776   1.843   9.260 -0.6308  0.8511  0.6920
  354MOL0     H48818   8.937   1.819   9.074  2.3414 -1.3149  1.5802
  354MOL0     H48819   8.974   1.994   9.100  0.0074  0.0676  0.2337
  354MOL0     H48820   8.995   1.783   9.319  2.4136 -0.8425  1.8542
  354MOL0     H48821   9.037   1.958   9.339 -2.1709 -0.4186  0.5992
  354MOL0     H48822   9.227   1.926   9.173  1.2095  0.0186  0.9426
  354MOL0     H48823   9.184   1.753   9.164 -1.5587  1.1862 -2.0615
  354MOL0     H48824   9.236   1.904   9.420  3.8280 -0.7558  1.4855
  354MOL0     H48825   9.210   1.737   9.419 -0.1028  1.1166  2.5082
  354MOL0     H48826   9.434   1.804   9.465 -1.0735 -2.3395 -0.0937
  354MOL0     H48827   9.446   1.903   9.313 -2.1216  1.8633  1.3892
  354MOL0     H48828   9.460   1.703   9.166  3.1632  1.6212 -1.1707
  354MOL0     H48829   9.430   1.602   9.313 -1.9804  1.3813  1.8732
  354MOL0     H48830   9.659   1.597   9.247  1.9013 -0.5181  0.6944
  354MOL0     H48831   9.626   1.688   9.401 -0.0694  1.6488 -0.8802
  354MOL0     H48832   8.539   2.009   8.917 -1.8810 -3.3478  0.4738
  354MOL0     H48833   8.308   2.084   8.946 -1.3573 -0.8522  1.2401
  354MOL0     H48834   7.962   2.146   9.047  0.1831 -1.1789  0.8170
  354MOL0     H48835   7.734   2.234   9.006  1.4105 -0.4942 -0.0231
  354MOL0     H48836   6.268   3.604   9.308 -1.3597 -1.3327  0.5600
  354MOL0     H48837   6.091   3.786   9.211 -3.0544 -0.3871  1.0706
  354MOL0     H48838   5.666   3.755   9.126 -1.8873 -0.6622  0.4081
  354MOL0     H48839   5.450   3.833   9.101  0.2419 -2.1823 -0.9785
  354MOL0     H48840   5.234   3.837   8.883  1.0246  0.1198  1.6882
  354MOL0     H48841   5.144   3.972   8.926  2.8426  0.7411  0.9121
  354MOL0     H48842   5.295   3.950   8.668  0.6783  1.1721  0.1559
  354MOL0     H48843   5.197   4.095   8.724 -2.0496 -0.2695  4.6837
  354MOL0     H48844   5.122   3.897   8.560  2.8754  1.4535  0.9862
  354MOL0     H48845   5.087   3.813   8.712 -0.7065 -1.7134 -2.4991
  354MOL0     H48846   4.986   4.094   8.618 -0.6266 -1.2064 -0.6326
  354MOL0     H48847   4.913   4.001   8.757 -4.0140  0.1553 -2.1478
  354MOL0     H48848   4.705   3.809   8.461 -0.7373 -0.1686 -0.0854
  354MOL0     H48849   5.532   4.023   8.726  0.7266 -1.3426 -0.7611
  354MOL0     H48850   5.781   3.825   8.627 -1.4828 -0.5163 -0.3225
  354MOL0     H48851   5.711   3.987   8.622 -1.5806 -1.5851  0.3560
  354MOL0     H48852   5.864   3.965   8.701 -0.3231 -0.0920 -0.1499
  355MOL0     O48853  11.357  10.356  11.328  0.3650  0.4912  0.1896
  355MOL0     C48854  11.263  10.399  11.272 -0.3034 -0.0718  0.6563
  355MOL0     O48855  11.254  10.515  11.200 -0.8357 -0.3130  0.8402
  355MOL0     C48856  11.380  10.569  11.161  0.3321  0.3496  0.8495
  355MOL0     C48857  11.388  10.704  11.177  0.1596  0.1452  0.4337
  355MOL0     C48858  11.509  10.773  11.143 -0.2353  0.1450 -0.5702
  355MOL0     C48859  11.618  10.698  11.112  0.1688  0.1367  0.1332
  355MOL0     O48860  11.733  10.770  11.102  0.8514 -1.0819  0.1166
  355MOL0     C48861  11.749  10.839  10.973 -0.2999 -0.0491  0.2540
  355MOL0     C48862  11.797  10.748  10.853  0.0012  0.2409  0.4245
  355MOL0     C48863  11.923  10.673  10.902  0.3356 -0.5446 -0.1825
  355MOL0     C48864  12.049  10.757  10.906  0.6362  0.4552  0.1765
  355MOL0     C48865  12.179  10.683  10.930 -0.6530  0.3343  0.5050
  355MOL0     C48866  12.216  10.590  10.812  0.4967  0.1972 -0.5486
  355MOL0     C48867  12.357  10.530  10.828 -1.1212 -0.4810 -0.4869
  355MOL0     C48868  12.374  10.400  10.900 -0.2025 -1.0869  0.1468
  355MOL0     N48869  12.515  10.352  10.910  0.3195  0.1322  1.0587
  355MOL0     C48870  12.612  10.408  10.982 -0.0481 -0.3945  0.2008
  355MOL0     C48871  12.721  10.332  10.963  0.2283 -0.0534  0.8291
  355MOL0     C48872  12.852  10.359  11.039  1.3387 -0.0564  0.9132
  355MOL0     C48873  12.933  10.236  11.037  0.4387  0.1011 -0.0458
  355MOL0     C48874  13.071  10.247  11.105  0.2661  0.1358  0.8292
  355MOL0     C48875  13.171  10.123  11.106 -0.8022 -0.2079  0.3142
  355MOL0     O48876  13.153  10.041  11.225 -0.0249  0.5841  0.1812
  355MOL0     C48877  13.248   9.949  11.245  0.0721 -0.5370 -0.5071
  355MOL0     C48878  13.243   9.883  11.370 -0.4505 -0.1737  0.5649
  355MOL0     C48879  13.330   9.777  11.400  0.6422  0.7337 -0.4136
  355MOL0     C48880  13.302   9.694  11.522 -0.2149 -0.4049 -0.0889
  355MOL0     C48881  13.427   9.728  11.310  0.9345  0.1539  0.3914
  355MOL0     C48882  13.526   9.618  11.336 -0.6171 -0.5419 -0.1385
  355MOL0     O48883  13.550   9.536  11.233  0.8383 -0.6755 -0.3031
  355MOL0     C48884  13.603   9.411  11.252  0.5119 -0.2481 -0.2551
  355MOL0     C48885  13.578   9.330  11.365  0.6083  0.5381 -0.1606
  355MOL0     C48886  13.631   9.210  11.381  0.7201  0.2307 -0.2726
  355MOL0     C48887  13.722   9.163  11.286 -0.1491 -0.7600  0.4003
  355MOL0     O48888  13.789   9.039  11.308  0.0959 -0.1014 -0.8599
  355MOL0     C48889  13.799   8.993  11.449  0.2865 -0.0705 -0.1437
  355MOL0     C48890  13.920   8.907  11.461 -0.3956 -0.5648  0.7299
  355MOL0     C48891  14.052   8.987  11.466 -0.5656 -0.9320  0.3188
  355MOL0     C48892  14.184   8.896  11.481 -0.0536  0.2319 -0.0305
  355MOL0     C48893  14.321   8.960  11.529  0.1537  0.1035 -0.7479
  355MOL0     C48894  14.366   9.075  11.446  0.2041  0.8269 -0.9746
  355MOL0     C48895  14.359   9.061  11.295  0.2780  0.1220  0.1376
  355MOL0     C48896  14.457   8.963  11.233 -0.7018  0.1553  0.7263
  355MOL0    Cl48897  14.442   8.969  11.052  0.4884 -0.0362  0.2320
  355MOL0     C48898  13.752   9.235  11.176 -0.2032 -0.2774  0.5165
  355MOL0     C48899  13.688   9.361  11.160 -0.7807 -0.3224 -0.2212
  355MOL0     O48900  13.590   9.620  11.441 -0.1993  0.4653 -0.2354
  355MOL0     C48901  13.440   9.806  11.189  0.3049 -0.4642  1.0085
  355MOL0     C48902  13.362   9.921  11.156  0.7496 -0.2458  0.5762
  355MOL0     N48903  12.690  10.236  10.857 -0.2903  0.5705 -0.8526
  355MOL0     N48904  12.564  10.249  10.837 -0.1502  0.4270  0.0901
  355MOL0     C48905  11.611  10.561  11.089  0.2835  1.1467  0.3483
  355MOL0     C48906  11.491  10.496  11.112 -0.1203 -0.5017 -0.1940
  355MOL0     C48907  11.133  10.336  11.298  0.4638 -0.2805  0.0011
  355MOL0     C48908  11.025  10.431  11.327 -0.1556  0.3308 -0.4146
  355MOL0     C48909  10.896  10.390  11.355 -0.2829  0.0146  0.3278
  355MOL0     C48910  10.870  10.255  11.356 -0.5930  0.4543  0.2904
  355MOL0     O48911  10.737  10.216  11.373  0.2453  0.0318 -0.2882
  355MOL0     C48912  10.643  10.278  11.280 -0.3304 -0.0043  0.7669
  355MOL0     C48913  10.613  10.186  11.155  0.5066 -0.1519 -0.3345
  355MOL0     C48914  10.741  10.166  11.069 -0.1618  0.3951 -0.9449
  355MOL0     C48915  10.690  10.094  10.944  0.0734 -0.5873 -0.1557
  355MOL0     C48916  10.603  10.185  10.864  0.4500  0.2827 -0.0386
  355MOL0     C48917  10.533  10.249  10.791 -0.1361  0.4899  0.2351
  355MOL0     C48918  10.969  10.153  11.334  0.4840 -0.5895  0.5567
  355MOL0     C48919  11.098  10.200  11.307 -0.6168 -0.5092 -0.0466
  355MOL0     C48920  11.202  10.097  11.297  0.3414 -0.0329 -0.4832
  355MOL0     H48921  11.301  10.757  11.214 -0.6740  0.6574 -2.0372
  355MOL0     H48922  11.517  10.881  11.148 -2.6399  0.3275  1.0450
  355MOL0     H48923  11.836  10.905  10.979 -0.8786  1.0363 -1.9433
  355MOL0     H48924  11.662  10.898  10.942 -0.4997 -0.1429  0.6366
  355MOL0     H48925  11.724  10.678  10.812 -1.8500  2.5072 -0.3895
  355MOL0     H48926  11.823  10.804  10.763 -1.5271 -0.7871 -0.7249
  355MOL0     H48927  11.911  10.650  11.009 -0.1725  2.2600  0.4481
  355MOL0     H48928  11.941  10.591  10.832  0.0256 -0.2975 -0.5509
  355MOL0     H48929  12.067  10.807  10.811  0.7296  1.1141  0.5354
  355MOL0     H48930  12.050  10.836  10.982  0.9067  1.7273 -1.1188
  355MOL0     H48931  12.166  10.630  11.025 -1.4884 -0.7882 -0.2164
  355MOL0     H48932  12.256  10.757  10.953 -1.6404  0.8754  2.2975
  355MOL0     H48933  12.154  10.500  10.802  3.7219 -2.2328 -0.4594
  355MOL0     H48934  12.212  10.651  10.722 -0.7821  1.3039  0.2259
  355MOL0     H48935  12.426  10.598  10.879  0.7117  0.8185 -4.3029
  355MOL0     H48936  12.398  10.516  10.727  1.2725 -1.5637  0.5449
  355MOL0     H48937  12.341  10.426  11.001 -1.9529  1.3350 -0.9432
  355MOL0     H48938  12.303  10.335  10.848 -0.0343 -1.5287  0.4711
  355MOL0     H48939  12.611  10.490  11.053 -0.2212 -0.5584  0.3861
  355MOL0     H48940  12.832  10.390  11.142 -3.4862  1.4079 -0.2100
  355MOL0     H48941  12.900  10.446  10.994  3.2934  0.0746  3.0773
  355MOL0     H48942  12.878  10.168  11.103  1.5210 -0.1240  0.6585
  355MOL0     H48943  12.947  10.196  10.936 -1.9767  1.0272 -0.8203
  355MOL0     H48944  13.128  10.314  11.040  1.6079 -2.2430 -0.5673
  355MOL0     H48945  13.058  10.284  11.207  0.4594 -0.6284  1.1383
  355MOL0     H48946  13.168  10.065  11.013 -2.2674  2.6531 -1.6165
  355MOL0     H48947  13.272  10.164  11.110 -1.0697  0.5191 -0.0983
  355MOL0     H48948  13.155   9.906  11.429 -0.7159  1.8291 -0.5144
  355MOL0     H48949  13.270   9.593  11.496  1.7683 -1.1215  0.1137
  355MOL0     H48950  13.209   9.733  11.564 -1.7792 -1.9975 -1.9004
  355MOL0     H48951  13.390   9.695  11.586 -0.1764  2.5169 -0.0256
  355MOL0     H48952  13.513   9.373  11.440 -0.8994  1.1090 -1.7301
  355MOL0     H48953  13.615   9.159  11.476  3.4855 -1.9847 -0.8637
  355MOL0     H48954  13.825   9.075  11.517  0.0538 -0.5221  0.5049
  355MOL0     H48955  13.708   8.940  11.479  1.1133 -0.5256  1.7117
  355MOL0     H48956  13.913   8.853  11.556 -1.6873  1.2232  1.7117
  355MOL0     H48957  13.930   8.840  11.375  1.8533  1.4214 -0.6976
  355MOL0     H48958  14.052   9.057  11.550  0.9075  0.8184 -1.0599
  355MOL0     H48959  14.069   9.046  11.375  1.9478  1.2605  2.0605
  355MOL0     H48960  14.203   8.861  11.379  2.1888  1.5657 -0.1486
  355MOL0     H48961  14.160   8.807  11.539  1.3314  0.3147  0.7138
  355MOL0     H48962  14.312   8.995  11.632  1.9506 -3.0646  0.6225
  355MOL0     H48963  14.398   8.882  11.527 -1.0883 -1.4455  3.1998
  355MOL0     H48964  14.464   9.114  11.473 -0.8450  2.7695  0.2533
  355MOL0     H48965  14.299   9.158  11.471 -2.1814 -0.5570 -2.3181
  355MOL0     H48966  14.381   9.160  11.254  1.3092  0.4993  1.5217
  355MOL0     H48967  14.258   9.032  11.265  0.2266 -1.1756  1.4618
  355MOL0     H48968  14.425   8.866  11.272  0.7797 -1.3823 -1.6237
  355MOL0     H48969  14.558   8.993  11.262 -0.0990 -0.2287 -0.8606
  355MOL0     H48970  13.827   9.196  11.108  0.5062  0.6017  0.7708
  355MOL0     H48971  13.706   9.417  11.069  1.7290 -0.5715  0.0540
  355MOL0     H48972  13.520   9.775  11.122 -1.9045 -2.0832 -1.0416
  355MOL0     H48973  13.391   9.982  11.071  1.4959 -0.9930  0.2865
  355MOL0     H48974  11.701  10.506  11.064  0.2716  0.9736  0.6846
  355MOL0     H48975  11.481  10.389  11.093 -2.4789 -0.3679 -0.0038
  355MOL0     H48976  11.045  10.538  11.317  1.7834 -0.0215 -0.7864
  355MOL0     H48977  10.821  10.465  11.377  1.7037  1.7801  1.4878
  355MOL0     H48978  10.545  10.299  11.324 -1.0838  1.1904 -1.3527
  355MOL0     H48979  10.680  10.373  11.241 -1.7752  0.1640 -0.2433
  355MOL0     H48980  10.527  10.238  11.111  0.1667 -1.1388 -0.8521
  355MOL0     H48981  10.581  10.086  11.186  3.3125 -0.9885  0.1373
  355MOL0     H48982  10.779  10.264  11.037  3.0822 -0.4835 -0.1475
  355MOL0     H48983  10.824  10.113  11.116 -0.0108 -0.3513 -2.0177
  355MOL0     H48984  10.638  10.003  10.975  0.2481 -0.0046  2.0404
  355MOL0     H48985  10.770  10.055  10.880  1.7294  0.4449  1.1925
  355MOL0     H48986  10.470  10.304  10.725  1.8602  2.2131 -0.3415
  355MOL0     H48987  10.944  10.048  11.331  0.7927 -0.6893 -3.2944
  355MOL0     H48988  11.272  10.115  11.379 -0.3977  2.5098 -0.3091
  355MOL0     H48989  11.160   9.997  11.304  0.9727 -0.3990 -1.6973
  355MOL0     H48990  11.243  10.101  11.196  0.3545 -0.2312 -0.4853
  356MOL0     O48991   6.793  10.002   7.184 -0.2441  0.5847 -0.2165
  356MOL0     C48992   6.714   9.935   7.120  0.0790 -0.1254 -0.0972
  356MOL0     O48993   6.743   9.845   7.020  0.6724  0.2420 -0.5281
  356MOL0     C48994   6.867   9.813   6.976  0.1932  0.5422 -0.6870
  356MOL0     C48995   6.943   9.901   6.910  0.0109  0.5799 -0.2209
  356MOL0     C48996   7.071   9.870   6.861 -0.1710  0.5150 -0.0917
  356MOL0     C48997   7.122   9.734   6.878  0.0983  0.9654  0.1836
  356MOL0     O48998   7.242   9.714   6.810  0.5098 -0.8434  0.5289
  356MOL0     C48999   7.295   9.580   6.801 -0.1816 -0.2118 -0.0253
  356MOL0     C49000   7.427   9.584   6.733  0.0439  0.5053  0.7681
  356MOL0     C49001   7.536   9.618   6.835 -1.4695  0.4459 -0.1215
  356MOL0     C49002   7.687   9.582   6.779 -0.1795  0.1359  0.8494
  356MOL0     C49003   7.791   9.623   6.887  0.9983 -0.2851 -0.7545
  356MOL0     C49004   7.787   9.531   7.017 -0.1722 -1.0144  1.0661
  356MOL0     C49005   7.928   9.470   7.045 -0.3813 -0.2847  0.6312
  356MOL0     C49006   7.954   9.359   6.943 -0.9929 -1.1667  0.0383
  356MOL0     N49007   8.057   9.269   7.008  0.2314 -0.1284 -0.0245
  356MOL0     C49008   8.189   9.298   7.006  1.1721 -0.0614  0.1059
  356MOL0     C49009   8.248   9.181   7.054 -0.8809 -0.6167 -0.5978
  356MOL0     C49010   8.393   9.162   7.089 -0.2258 -0.1538 -0.1468
  356MOL0     C49011   8.470   9.054   7.012 -0.7627 -0.0149  0.1390
  356MOL0     C49012   8.622   9.044   7.057  0.0301  0.2034 -0.4845
  356MOL0     C49013   8.721   9.160   7.027 -0.6957  0.6599  0.2316
  356MOL0     O49014   8.774   9.204   7.149  0.4406 -0.4882  0.4647
  356MOL0     C49015   8.871   9.295   7.166  0.6478  0.1098 -1.2363
  356MOL0     C49016   8.909   9.390   7.072 -0.1645 -1.0379 -0.1921
  356MOL0     C49017   9.018   9.475   7.092  1.3380  0.5361  0.2916
  356MOL0     C49018   9.055   9.571   6.985 -0.3793 -0.2618  0.4586
  356MOL0     C49019   9.090   9.464   7.207 -0.8780  0.0705 -0.6080
  356MOL0     C49020   9.213   9.547   7.242  1.4970 -0.3829  0.2692
  356MOL0     O49021   9.196   9.641   7.335 -0.4899 -1.0252 -0.6014
  356MOL0     C49022   9.307   9.725   7.370  0.8039 -0.1390 -0.5217
  356MOL0     C49023   9.380   9.716   7.487  0.4765  0.4454 -0.0668
  356MOL0     C49024   9.475   9.807   7.509 -0.0792  0.1708 -0.2614
  356MOL0     C49025   9.505   9.915   7.428  0.4665 -0.3972  0.3495
  356MOL0     O49026   9.602  10.008   7.450  0.0936  0.5245  0.3897
  356MOL0     C49027   9.536  10.129   7.489 -0.4925 -0.7628  0.2401
  356MOL0     C49028   9.645  10.199   7.563  0.1328  0.3919 -0.4736
  356MOL0     C49029   9.720  10.291   7.468  0.3732  0.2251 -0.5480
  356MOL0     C49030   9.828  10.370   7.552 -0.1209 -0.3905  0.2449
  356MOL0     C49031   9.890  10.496   7.491 -0.3059 -0.1644 -0.9292
  356MOL0     C49032   9.954  10.594   7.595  0.0740 -0.1465 -0.1907
  356MOL0     C49033  10.030  10.729   7.537 -0.3157  0.8335 -0.7588
  356MOL0     C49034   9.940  10.827   7.462 -0.0447 -0.2750  0.2825
  356MOL0    Cl49035  10.030  10.957   7.376 -0.2234 -0.1791  0.2625
  356MOL0     C49036   9.431   9.927   7.305 -0.0683  0.6612  0.4770
  356MOL0     C49037   9.331   9.832   7.283  0.9081 -0.4309  1.4711
  356MOL0     O49038   9.311   9.539   7.176 -0.0969  0.4675 -0.2455
  356MOL0     C49039   9.049   9.375   7.303  0.5607 -0.4943  0.3787
  356MOL0     C49040   8.931   9.294   7.285 -0.1355  0.4504 -0.1377
  356MOL0     N49041   8.155   9.083   7.067  0.3413 -0.9902 -0.2918
  356MOL0     N49042   8.046   9.132   7.037 -0.0848 -0.5078 -0.1643
  356MOL0     C49043   7.034   9.640   6.925 -0.0033  0.4605  0.3706
  356MOL0     C49044   6.911   9.682   6.979 -0.1065 -0.1477  0.3194
  356MOL0     C49045   6.569   9.939   7.158  0.6770 -0.0971  0.6153
  356MOL0     C49046   6.492   9.822   7.133  0.2117 -0.0313  0.1568
  356MOL0     C49047   6.350   9.816   7.148 -0.7755 -0.6141 -0.2850
  356MOL0     C49048   6.286   9.937   7.192 -0.6262 -0.2598 -0.2268
  356MOL0     O49049   6.152   9.947   7.220 -0.3229 -0.3038  0.3371
  356MOL0     C49050   6.077   9.826   7.256 -1.2212  0.6596  0.8568
  356MOL0     C49051   5.959   9.873   7.338  0.1024  0.1287  0.5868
  356MOL0     C49052   5.840   9.888   7.244  0.0537 -0.1971  0.0963
  356MOL0     C49053   5.705   9.932   7.306  0.8793 -0.1568  0.6040
  356MOL0     C49054   5.607   9.955   7.202 -0.6906  0.2737 -0.6652
  356MOL0     C49055   5.527   9.993   7.118 -0.5667  0.7500  0.1572
  356MOL0     C49056   6.359  10.056   7.207 -0.6695 -0.5455  0.2724
  356MOL0     C49057   6.500  10.058   7.192  0.2707  0.3772  0.2499
  356MOL0     C49058   6.578  10.183   7.211  0.1828 -0.1110  0.4940
  356MOL0     H49059   6.905  10.002   6.898 -2.5398 -0.0543  1.5693
  356MOL0     H49060   7.125   9.949   6.808 -0.7742  1.3827  0.5533
  356MOL0     H49061   7.229   9.508   6.752 -1.0023  1.7863 -2.0136
  356MOL0     H49062   7.310   9.542   6.903 -1.3962 -0.8836 -0.0828
  356MOL0     H49063   7.458   9.488   6.691  1.4829  2.4843 -3.2204
  356MOL0     H49064   7.423   9.655   6.649 -4.2328 -0.7029 -0.3068
  356MOL0     H49065   7.530   9.723   6.865 -2.1070 -0.7123  4.5237
  356MOL0     H49066   7.523   9.556   6.924 -1.3354 -1.2298 -1.2223
  356MOL0     H49067   7.701   9.476   6.757  1.9076  0.0728  2.2733
  356MOL0     H49068   7.701   9.639   6.687 -1.5734  1.9870  1.7050
  356MOL0     H49069   7.798   9.730   6.905 -0.1668 -0.2755 -0.3068
  356MOL0     H49070   7.892   9.608   6.848  0.1350 -1.7516 -2.5807
  356MOL0     H49071   7.752   9.591   7.102 -0.8433  0.0839  0.0359
  356MOL0     H49072   7.707   9.459   6.997 -1.1722  0.5540 -0.8147
  356MOL0     H49073   7.925   9.424   7.144  0.3103  0.7972  1.1823
  356MOL0     H49074   8.020   9.530   7.051  0.1478 -1.0283  0.0806
  356MOL0     H49075   7.871   9.290   6.922 -0.2513 -2.8106  2.1654
  356MOL0     H49076   7.981   9.392   6.843 -3.5776  2.2169  0.2578
  356MOL0     H49077   8.225   9.396   6.975  0.3306  0.7302  1.5380
  356MOL0     H49078   8.384   9.138   7.195  0.9385  1.3918  0.3443
  356MOL0     H49079   8.439   9.261   7.079 -1.0682  0.0158 -4.1191
  356MOL0     H49080   8.418   8.960   7.033 -2.5698  0.4403 -1.9019
  356MOL0     H49081   8.479   9.075   6.905 -0.3447  0.9805  0.3610
  356MOL0     H49082   8.627   9.016   7.163 -0.2449 -1.6054 -0.9174
  356MOL0     H49083   8.660   8.962   6.996  0.1696  0.6289 -0.9789
  356MOL0     H49084   8.804   9.118   6.970 -0.5764  1.6383 -0.3280
  356MOL0     H49085   8.670   9.239   6.971  0.1675  1.1756  0.1493
  356MOL0     H49086   8.849   9.396   6.982 -0.6876 -2.2773  0.0441
  356MOL0     H49087   9.147   9.535   6.936 -2.1516 -3.7120 -0.7025
  356MOL0     H49088   9.081   9.661   7.040 -1.8617  1.6975 -1.8636
  356MOL0     H49089   8.981   9.600   6.911  2.1334 -1.4934 -2.7720
  356MOL0     H49090   9.358   9.638   7.560  1.1144 -1.7142 -2.0847
  356MOL0     H49091   9.530   9.808   7.603 -1.8790 -1.3215  0.8941
  356MOL0     H49092   9.507  10.187   7.400  3.8819  1.8258  0.1849
  356MOL0     H49093   9.446  10.119   7.551 -1.1150  2.9785  0.1927
  356MOL0     H49094   9.601  10.268   7.635  3.2215  3.7938 -1.5531
  356MOL0     H49095   9.705  10.134   7.627 -0.3099  0.8515  0.4280
  356MOL0     H49096   9.657  10.357   7.408  0.8135  0.9505 -0.2276
  356MOL0     H49097   9.770  10.229   7.394 -2.8948 -2.5948 -0.6586
  356MOL0     H49098   9.917  10.310   7.574  1.2861  1.7911  0.8529
  356MOL0     H49099   9.777  10.408   7.642  0.5240 -2.4423  1.5411
  356MOL0     H49100   9.965  10.458   7.421  2.1134 -0.2960  1.5766
  356MOL0     H49101   9.808  10.550   7.443 -0.5893  0.8051  0.5672
  356MOL0     H49102  10.024  10.538   7.658  3.8303  0.7675 -3.1728
  356MOL0     H49103   9.873  10.641   7.651  0.2484  0.9277 -0.8033
  356MOL0     H49104  10.092  10.696   7.453  0.8945  0.7662  0.1382
  356MOL0     H49105  10.097  10.761   7.617  0.6365 -0.3551 -1.0573
  356MOL0     H49106   9.870  10.871   7.534  0.7297  4.6895 -1.6388
  356MOL0     H49107   9.896  10.763   7.384  1.6243  1.3223 -2.1188
  356MOL0     H49108   9.451  10.008   7.236 -1.0919 -0.2909 -1.0008
  356MOL0     H49109   9.255   9.830   7.206 -0.9159 -2.0363  3.1842
  356MOL0     H49110   9.118   9.363   7.385  0.5407 -0.5734  0.3831
  356MOL0     H49111   8.904   9.212   7.351  0.8751  0.2222  0.0133
  356MOL0     H49112   7.066   9.536   6.923  0.0584  0.4835 -1.5495
  356MOL0     H49113   6.846   9.604   7.018  0.3981 -0.2151  1.0338
  356MOL0     H49114   6.540   9.730   7.101 -0.7689 -0.7789  0.7429
  356MOL0     H49115   6.291   9.736   7.106 -0.1220 -0.8424 -0.7798
  356MOL0     H49116   6.059   9.764   7.167  1.7233  1.1177 -0.1774
  356MOL0     H49117   6.133   9.763   7.326 -0.8995 -0.0862 -0.0531
  356MOL0     H49118   5.988   9.960   7.398 -1.1807  0.3636  0.8926
  356MOL0     H49119   5.934   9.798   7.414 -0.8360  1.3379  1.5067
  356MOL0     H49120   5.870   9.956   7.164 -0.3671  1.4990  1.3160
  356MOL0     H49121   5.826   9.795   7.188  1.5980  0.2481 -1.0825
  356MOL0     H49122   5.721  10.027   7.358  0.3478  1.8665 -2.6930
  356MOL0     H49123   5.680   9.852   7.376  0.6659  0.1581  0.8947
  356MOL0     H49124   5.464  10.026   7.038  1.3551  0.4367 -1.5337
  356MOL0     H49125   6.309  10.151   7.220  0.9452  0.3279  0.3317
  356MOL0     H49126   6.649  10.177   7.294  0.1390 -2.1154  0.4439
  356MOL0     H49127   6.652  10.204   7.133  0.3996  2.2755  1.2742
  356MOL0     H49128   6.505  10.263   7.217 -0.5057 -0.5090 -1.7175
  357MOL0     O49129   3.219   4.952   3.482  0.7956  0.1794  0.8736
  357MOL0     C49130   3.206   4.957   3.606 -1.4135  0.7097  0.3513
  357MOL0     O49131   3.314   4.953   3.696 -0.2643 -0.2780 -0.2090
  357MOL0     C49132   3.439   4.980   3.641 -0.2061 -0.6487  0.4116
  357MOL0     C49133   3.546   4.923   3.709 -0.0758 -0.7285  0.6339
  357MOL0     C49134   3.676   4.942   3.674  0.1149 -0.1300  0.0595
  357MOL0     C49135   3.707   5.027   3.572  0.0851  1.2101 -0.3316
  357MOL0     O49136   3.829   5.048   3.523 -0.7458  0.3941  0.6056
  357MOL0     C49137   3.951   5.034   3.610  0.4766  0.0333  0.1286
  357MOL0     C49138   4.068   5.075   3.520 -0.2807  0.2751 -0.1982
  357MOL0     C49139   4.057   5.217   3.478  0.2305  0.4155  0.4422
  357MOL0     C49140   4.171   5.262   3.380  0.7183 -0.1837  0.1801
  357MOL0     C49141   4.304   5.280   3.442 -0.3057  0.4254 -0.5263
  357MOL0     C49142   4.390   5.379   3.367 -0.3087  0.8778  0.2274
  357MOL0     C49143   4.514   5.429   3.436  0.1709 -0.1493  0.1961
  357MOL0     C49144   4.477   5.551   3.529 -0.2239  0.4595  0.7414
  357MOL0     N49145   4.582   5.571   3.638  0.2166  0.0472 -0.4906
  357MOL0     C49146   4.632   5.468   3.712 -0.4867  1.1225  0.7865
  357MOL0     C49147   4.736   5.526   3.782  0.0697  0.5594 -0.0832
  357MOL0     C49148   4.835   5.469   3.878 -0.0162  0.0683  1.0555
  357MOL0     C49149   4.962   5.545   3.912  0.3767 -0.4723  0.2114
  357MOL0     C49150   4.947   5.681   3.976  0.4275  0.3252 -0.0996
  357MOL0     C49151   5.088   5.733   4.032 -0.2536 -0.8750  0.4094
  357MOL0     O49152   5.080   5.879   4.028 -0.1800  0.5870 -0.0223
  357MOL0     C49153   5.154   5.953   4.117 -0.0326  0.6753  0.1592
  357MOL0     C49154   5.177   6.088   4.087 -0.2867  0.4027  0.4170
  357MOL0     C49155   5.261   6.175   4.156  0.2242 -0.4417 -0.3160
  357MOL0     C49156   5.267   6.310   4.093 -0.1451  0.0831 -0.6096
  357MOL0     C49157   5.334   6.121   4.265  0.1251 -0.5267  0.0065
  357MOL0     C49158   5.440   6.204   4.327 -0.4900 -0.7488 -0.7622
  357MOL0     O49159   5.494   6.321   4.263 -0.4089 -0.0914 -0.4111
  357MOL0     C49160   5.588   6.393   4.330  0.2982 -0.0271 -0.8175
  357MOL0     C49161   5.709   6.345   4.382  0.5668  0.9834 -0.3050
  357MOL0     C49162   5.796   6.418   4.455  0.4446 -0.5100  0.2398
  357MOL0     C49163   5.770   6.561   4.468  0.6709 -0.5690  0.1843
  357MOL0     O49164   5.861   6.637   4.543 -0.0845 -0.0697 -0.3041
  357MOL0     C49165   5.881   6.778   4.513  0.9964  0.1681 -0.0375
  357MOL0     C49166   5.974   6.793   4.396  0.5616  0.4422 -0.4420
  357MOL0     C49167   6.127   6.764   4.410  0.2207  0.2562 -0.1660
  357MOL0     C49168   6.207   6.878   4.346 -0.1846  0.0070 -0.1802
  357MOL0     C49169   6.354   6.847   4.347  0.4118  0.3534 -0.6960
  357MOL0     C49170   6.441   6.956   4.295 -0.2894 -0.2370  0.0921
  357MOL0     C49171   6.596   6.930   4.302 -0.2120 -0.3350 -0.4771
  357MOL0     C49172   6.662   7.047   4.225 -0.0962  0.1845  0.6627
  357MOL0    Cl49173   6.832   7.030   4.207 -0.5633 -0.2953  0.5201
  357MOL0     C49174   5.654   6.621   4.399 -0.3885  0.5055  0.4709
  357MOL0     C49175   5.566   6.533   4.332  0.0940 -0.3197  0.0272
  357MOL0     O49176   5.481   6.157   4.438  0.5758  0.0864  0.8170
  357MOL0     C49177   5.315   5.986   4.303  0.2842 -0.3968  0.0325
  357MOL0     C49178   5.233   5.898   4.222  1.2150  1.0398 -0.7689
  357MOL0     N49179   4.730   5.664   3.760  0.0979  0.4340  0.0588
  357MOL0     N49180   4.654   5.685   3.656 -0.0991 -0.1673 -0.7765
  357MOL0     C49181   3.599   5.109   3.509 -1.0670 -0.7937 -1.0641
  357MOL0     C49182   3.466   5.076   3.542 -0.7739 -0.0576 -0.1435
  357MOL0     C49183   3.072   4.977   3.663  0.4268 -0.2557  0.5025
  357MOL0     C49184   2.972   4.918   3.583  0.4258 -0.1826 -0.1316
  357MOL0     C49185   2.841   4.920   3.613  0.1029  0.2803 -0.4892
  357MOL0     C49186   2.796   4.983   3.726 -1.0145  0.4517 -0.2388
  357MOL0     O49187   2.670   5.002   3.766 -0.3317 -0.0344 -0.1232
  357MOL0     C49188   2.564   4.923   3.709 -0.2442  0.0101 -0.2932
  357MOL0     C49189   2.427   4.993   3.723  0.0780  0.1498  0.4890
  357MOL0     C49190   2.421   5.133   3.664 -0.3850  0.0161 -1.0679
  357MOL0     C49191   2.411   5.144   3.509  0.5529 -0.3149 -0.1393
  357MOL0     C49192   2.304   5.064   3.448  0.6272  0.0821  0.4500
  357MOL0     C49193   2.210   5.000   3.410  0.3820  1.7003 -0.0055
  357MOL0     C49194   2.895   5.049   3.799 -0.1096  0.6545  0.5753
  357MOL0     C49195   3.029   5.052   3.772 -0.5078  0.5777  0.2014
  357MOL0     C49196   3.117   5.137   3.862  0.2539 -0.2599 -0.1251
  357MOL0     H49197   3.532   4.870   3.803  0.0066 -1.2278  0.3719
  357MOL0     H49198   3.752   4.894   3.736 -1.9039 -1.1560  1.9004
  357MOL0     H49199   3.955   4.934   3.654 -1.0407  0.0455  0.3414
  357MOL0     H49200   3.948   5.109   3.690  0.2854  0.3542 -0.1756
  357MOL0     H49201   4.162   5.059   3.574 -1.6561 -0.3392  2.2068
  357MOL0     H49202   4.068   5.012   3.431  1.6042  0.5062 -0.3993
  357MOL0     H49203   3.959   5.234   3.431  1.7633  1.1293 -2.7644
  357MOL0     H49204   4.054   5.281   3.566 -0.4951  0.2396  0.5556
  357MOL0     H49205   4.192   5.204   3.290 -0.3916 -0.0867 -0.1466
  357MOL0     H49206   4.137   5.360   3.344  3.5528  1.7288  2.1812
  357MOL0     H49207   4.356   5.184   3.435  1.1568  1.1812 -0.4557
  357MOL0     H49208   4.304   5.314   3.546  1.7094 -0.2993 -0.2455
  357MOL0     H49209   4.436   5.330   3.281  0.5270  0.0765  1.0993
  357MOL0     H49210   4.319   5.458   3.340 -2.7195 -1.2047  0.1257
  357MOL0     H49211   4.595   5.462   3.370  0.0614 -1.1367 -0.4490
  357MOL0     H49212   4.552   5.346   3.495 -0.9683 -0.7613  0.1039
  357MOL0     H49213   4.459   5.639   3.467 -2.8142 -1.0707 -0.8647
  357MOL0     H49214   4.388   5.529   3.589  0.7784  2.2725  3.0313
  357MOL0     H49215   4.601   5.364   3.714 -2.4333  1.6562  3.2293
  357MOL0     H49216   4.876   5.379   3.833 -0.1116  0.9516 -0.8902
  357MOL0     H49217   4.782   5.441   3.970  0.2071  0.2893  1.2542
  357MOL0     H49218   5.019   5.474   3.971  1.3601 -1.1207 -1.4388
  357MOL0     H49219   5.016   5.567   3.819 -0.6864 -1.6902 -0.7286
  357MOL0     H49220   4.908   5.752   3.903  2.2099  1.1700 -0.2859
  357MOL0     H49221   4.878   5.674   4.061 -0.5655 -1.4969 -1.0113
  357MOL0     H49222   5.093   5.704   4.137  0.2187 -1.8373  0.1285
  357MOL0     H49223   5.177   5.691   3.986 -0.2344 -1.1983  0.7372
  357MOL0     H49224   5.128   6.128   3.999  1.1140  1.2714 -0.0068
  357MOL0     H49225   5.197   6.327   4.011 -1.1452  1.3494  0.4599
  357MOL0     H49226   5.369   6.331   4.058  0.9147 -4.6579 -1.0736
  357MOL0     H49227   5.244   6.388   4.167  0.4226  1.0635 -1.4351
  357MOL0     H49228   5.734   6.239   4.380 -1.5700  0.4413 -2.1536
  357MOL0     H49229   5.876   6.369   4.509  1.9238  1.5966  0.0518
  357MOL0     H49230   5.785   6.824   4.486  1.0617 -0.9669 -2.4575
  357MOL0     H49231   5.922   6.831   4.599 -2.1972  2.9999 -0.0566
  357MOL0     H49232   5.935   6.724   4.321  0.3117 -0.9160  0.8979
  357MOL0     H49233   5.965   6.896   4.360  4.6516  0.5144 -1.7884
  357MOL0     H49234   6.151   6.668   4.365  3.7385  0.3753  1.1646
  357MOL0     H49235   6.149   6.775   4.517 -2.2417  0.8864  0.3503
  357MOL0     H49236   6.193   6.969   4.406  2.9210  0.9810 -0.7486
  357MOL0     H49237   6.172   6.891   4.243  0.9979 -0.5862 -0.6641
  357MOL0     H49238   6.376   6.839   4.454  0.0617  3.6147 -0.2717
  357MOL0     H49239   6.368   6.749   4.301 -1.2669  0.3423 -1.2502
  357MOL0     H49240   6.427   7.041   4.362  4.5638 -0.4597  1.7555
  357MOL0     H49241   6.411   6.979   4.192 -0.9909  1.4092  0.6397
  357MOL0     H49242   6.622   6.834   4.257 -1.2823 -0.5425 -0.6620
  357MOL0     H49243   6.631   6.921   4.405  3.1128 -1.1232 -1.5336
  357MOL0     H49244   6.647   7.142   4.276  1.2730  2.0661 -2.1705
  357MOL0     H49245   6.633   7.055   4.119  1.6121 -2.2159 -0.0862
  357MOL0     H49246   5.634   6.728   4.405  1.2518  0.8387  0.3794
  357MOL0     H49247   5.480   6.579   4.285 -0.0518 -0.5487  0.0651
  357MOL0     H49248   5.360   5.946   4.393  1.6302  1.1807  0.1246
  357MOL0     H49249   5.233   5.796   4.258 -1.2443  1.1852 -0.1440
  357MOL0     H49250   3.627   5.185   3.437 -0.6454 -3.2157 -3.6112
  357MOL0     H49251   3.387   5.135   3.497 -0.1443  1.0690  0.1727
  357MOL0     H49252   3.001   4.870   3.490  0.2898 -0.5946  0.0385
  357MOL0     H49253   2.783   4.871   3.535  3.8143 -1.9262 -2.0949
  357MOL0     H49254   2.585   4.906   3.603 -0.7129 -2.6810 -0.0198
  357MOL0     H49255   2.557   4.831   3.767  0.1696  1.2249  1.7842
  357MOL0     H49256   2.410   5.004   3.830  1.7029  2.0057  0.6130
  357MOL0     H49257   2.344   4.941   3.674 -0.0604  1.7058 -1.0646
  357MOL0     H49258   2.327   5.170   3.707  0.7118  0.2074  1.3058
  357MOL0     H49259   2.503   5.199   3.695  0.7872 -1.3218 -1.2217
  357MOL0     H49260   2.505   5.110   3.464  0.0714 -2.3888  0.3658
  357MOL0     H49261   2.391   5.245   3.471 -2.3363 -0.7309  0.0733
  357MOL0     H49262   2.130   4.939   3.373 -0.5268  3.0302 -0.2976
  357MOL0     H49263   2.856   5.097   3.888 -0.8696  1.5893 -0.2440
  357MOL0     H49264   3.151   5.225   3.807 -0.4547 -1.1583 -2.0897
  357MOL0     H49265   3.056   5.164   3.949  1.1004  1.2427  0.0286
  357MOL0     H49266   3.206   5.085   3.898 -1.2894 -1.2078  2.6594
  358MOL0     O49267   3.230   4.953   8.537 -0.7537 -0.2666  0.6493
  358MOL0     C49268   3.139   5.000   8.475 -0.0388 -0.1079  0.4149
  358MOL0     O49269   3.137   5.126   8.421 -0.1445  1.2846 -0.2295
  358MOL0     C49270   3.248   5.206   8.421  0.5462 -0.5353 -0.1740
  358MOL0     C49271   3.255   5.317   8.502 -0.0792  0.2295  0.1944
  358MOL0     C49272   3.368   5.402   8.495 -0.1039  0.1713  0.3957
  358MOL0     C49273   3.472   5.375   8.402  0.0352 -0.2413  1.4655
  358MOL0     O49274   3.588   5.448   8.383 -0.6409 -0.7300 -0.1018
  358MOL0     C49275   3.636   5.522   8.493 -0.2491 -1.2232 -0.1076
  358MOL0     C49276   3.758   5.598   8.444  0.0677  0.9436 -0.6137
  358MOL0     C49277   3.881   5.508   8.458 -0.3860  0.2070 -0.4918
  358MOL0     C49278   4.007   5.603   8.467 -0.0536 -0.6050 -0.4662
  358MOL0     C49279   4.128   5.510   8.435 -0.0469  0.2918 -0.3957
  358MOL0     C49280   4.255   5.598   8.415  0.1809  0.7149 -0.2802
  358MOL0     C49281   4.389   5.528   8.437 -0.6456  0.7598  0.6838
  358MOL0     C49282   4.499   5.605   8.360 -0.4317 -0.2992 -0.7675
  358MOL0     N49283   4.534   5.733   8.427 -0.5072 -0.4133  0.4371
  358MOL0     C49284   4.581   5.751   8.552 -0.3515 -0.2826  0.8769
  358MOL0     C49285   4.627   5.875   8.560 -0.3788 -0.5532  0.4642
  358MOL0     C49286   4.682   5.935   8.691 -0.2683 -0.6770 -0.0563
  358MOL0     C49287   4.770   5.845   8.767 -0.3501 -0.2770 -0.3643
  358MOL0     C49288   4.851   5.919   8.877 -0.0533  0.6924 -0.2666
  358MOL0     C49289   4.941   5.816   8.932 -0.6277 -0.5262 -0.1261
  358MOL0     O49290   5.036   5.875   9.023 -0.8812 -0.3096 -0.1195
  358MOL0     C49291   5.128   5.786   9.078 -0.7058 -0.1748  1.2774
  358MOL0     C49292   5.095   5.676   9.144  0.2329 -0.1400  0.6844
  358MOL0     C49293   5.187   5.586   9.191  0.3142  0.2787  0.7396
  358MOL0     C49294   5.145   5.464   9.271  0.3684  0.6880  0.0470
  358MOL0     C49295   5.328   5.622   9.190 -0.0300  0.4126 -1.0956
  358MOL0     C49296   5.441   5.549   9.249 -1.3147  0.5017 -0.0604
  358MOL0     O49297   5.539   5.615   9.317  0.6660 -0.8078  0.3732
  358MOL0     C49298   5.630   5.548   9.389  0.0018 -0.1228  0.0390
  358MOL0     C49299   5.605   5.514   9.520  0.5444  0.0846 -0.1830
  358MOL0     C49300   5.692   5.431   9.584 -0.3844  0.6315 -0.3538
  358MOL0     C49301   5.819   5.391   9.525  0.6727  0.0365 -0.0205
  358MOL0     O49302   5.920   5.320   9.579  0.2176  0.0165  0.4268
  358MOL0     C49303   5.912   5.292   9.718  0.0440 -1.0709  0.0218
  358MOL0     C49304   6.037   5.205   9.748 -0.1726  0.3962 -0.1027
  358MOL0     C49305   6.167   5.282   9.763 -0.2984 -0.7874  0.0283
  358MOL0     C49306   6.282   5.184   9.782 -0.2179  0.2366 -0.2666
  358MOL0     C49307   6.417   5.257   9.782  1.0378 -0.2926 -0.1777
  358MOL0     C49308   6.515   5.177   9.867  0.3458  0.0021  0.0965
  358MOL0     C49309   6.636   5.265   9.892 -0.3205 -0.2579 -0.5332
  358MOL0     C49310   6.741   5.191   9.968  0.1887  0.4200 -0.3227
  358MOL0    Cl49311   6.821   5.053   9.876  0.0865  0.1641 -0.3021
  358MOL0     C49312   5.846   5.445   9.396  0.6659  0.2636 -0.0291
  358MOL0     C49313   5.752   5.522   9.326 -0.1216 -1.2908 -0.9566
  358MOL0     O49314   5.439   5.427   9.231 -0.2276  0.8760 -0.4888
  358MOL0     C49315   5.359   5.743   9.134  0.1228  0.1591 -0.9174
  358MOL0     C49316   5.263   5.821   9.075 -0.4269 -0.3532 -0.5191
  358MOL0     N49317   4.605   5.933   8.441  0.0852 -0.6947 -0.4750
  358MOL0     N49318   4.550   5.845   8.364 -0.9685  0.5936  0.3059
  358MOL0     C49319   3.450   5.277   8.306 -0.6139 -0.0370  0.1529
  358MOL0     C49320   3.346   5.189   8.316  0.0870 -0.1041 -0.3828
  358MOL0     C49321   3.006   4.934   8.481 -0.1866  0.2157 -0.0443
  358MOL0     C49322   2.903   4.973   8.394  0.1700  0.5865  0.3360
  358MOL0     C49323   2.776   4.913   8.398 -0.3200 -0.3353  0.4195
  358MOL0     C49324   2.756   4.785   8.457  0.1386  0.4798 -0.0390
  358MOL0     O49325   2.648   4.704   8.452  0.0813  0.7462 -0.3256
  358MOL0     C49326   2.522   4.767   8.422  0.9895  0.6952 -0.4298
  358MOL0     C49327   2.430   4.647   8.425 -0.2999  0.1570 -0.3729
  358MOL0     C49328   2.417   4.585   8.571  0.6721 -0.1321 -0.1554
  358MOL0     C49329   2.372   4.690   8.678  0.1573  0.9788  0.3065
  358MOL0     C49330   2.361   4.630   8.808  0.3659 -0.5286 -0.3619
  358MOL0     C49331   2.378   4.575   8.921  0.4438  0.4706  0.4706
  358MOL0     C49332   2.863   4.743   8.531 -0.2642  0.5328  0.6304
  358MOL0     C49333   2.988   4.812   8.548 -0.5374  0.4604 -0.8873
  358MOL0     C49334   3.081   4.739   8.642  0.3022 -0.7076 -0.2286
  358MOL0     H49335   3.175   5.340   8.571 -0.3550 -0.2399  0.0365
  358MOL0     H49336   3.380   5.488   8.560  0.9687  1.3854 -1.3387
  358MOL0     H49337   3.652   5.461   8.582  1.6461 -1.8973 -0.8411
  358MOL0     H49338   3.553   5.589   8.516 -1.6940 -3.5439  1.8088
  358MOL0     H49339   3.755   5.632   8.340 -2.3191  0.6827 -0.6916
  358MOL0     H49340   3.767   5.684   8.511  3.5937 -0.2542  0.6939
  358MOL0     H49341   3.884   5.444   8.546  3.1239  1.4600  0.4413
  358MOL0     H49342   3.896   5.446   8.369  3.0503 -1.8397  1.3302
  358MOL0     H49343   3.982   5.686   8.400 -0.2357  0.2057  0.5728
  358MOL0     H49344   4.021   5.643   8.568 -0.9609 -0.8935 -0.2158
  358MOL0     H49345   4.101   5.461   8.340 -0.5677 -3.5523  1.5134
  358MOL0     H49346   4.145   5.438   8.516 -2.2842 -0.3143 -0.3800
  358MOL0     H49347   4.245   5.635   8.312  0.0799  1.1835 -0.1031
  358MOL0     H49348   4.242   5.691   8.472  2.3821  1.3451 -0.7190
  358MOL0     H49349   4.391   5.427   8.396  0.0564  2.0027 -2.6386
  358MOL0     H49350   4.418   5.530   8.543  0.9760 -0.8292  0.3221
  358MOL0     H49351   4.596   5.556   8.352 -0.4618 -0.6002  0.4929
  358MOL0     H49352   4.470   5.629   8.257  0.9223 -0.0181 -1.0956
  358MOL0     H49353   4.571   5.678   8.632 -2.8976 -2.1356 -0.9899
  358MOL0     H49354   4.591   5.959   8.747 -1.8024 -2.6892 -1.5590
  358MOL0     H49355   4.739   6.027   8.675 -0.1314 -0.9476 -1.1909
  358MOL0     H49356   4.710   5.761   8.803 -1.5544  0.3200 -0.9182
  358MOL0     H49357   4.845   5.812   8.695 -0.9823 -1.7560 -0.3731
  358MOL0     H49358   4.901   6.007   8.836 -0.4926  0.7616 -0.6659
  358MOL0     H49359   4.789   5.953   8.961 -0.0403  1.8684 -0.7263
  358MOL0     H49360   4.885   5.738   8.984  0.7628 -2.0962 -0.8643
  358MOL0     H49361   5.001   5.766   8.856  1.3845 -0.8514  1.5752
  358MOL0     H49362   4.990   5.658   9.163 -0.6093  3.6881  0.5260
  358MOL0     H49363   5.207   5.462   9.361  0.9121 -0.3167 -0.3291
  358MOL0     H49364   5.171   5.369   9.223 -1.0631  0.1278  0.3145
  358MOL0     H49365   5.043   5.465   9.311 -0.3694  1.6062 -1.7611
  358MOL0     H49366   5.515   5.544   9.572  0.4749  0.5947 -0.5866
  358MOL0     H49367   5.668   5.384   9.679 -0.3317  1.1368 -0.0865
  358MOL0     H49368   5.900   5.377   9.785  0.4769 -2.9121  2.5970
  358MOL0     H49369   5.828   5.223   9.729 -0.8169 -0.2888 -1.3753
  358MOL0     H49370   6.020   5.159   9.846 -1.1066  0.7165 -0.1007
  358MOL0     H49371   6.050   5.129   9.671  0.7357  0.2237  0.2075
  358MOL0     H49372   6.172   5.366   9.833 -0.1424  2.6879 -3.7781
  358MOL0     H49373   6.187   5.325   9.664  1.4311  1.1798  1.1357
  358MOL0     H49374   6.285   5.102   9.710  2.5943 -0.6771  0.7727
  358MOL0     H49375   6.267   5.130   9.875  1.6875 -0.7433 -0.4805
  358MOL0     H49376   6.452   5.258   9.678 -1.7282  0.6461 -1.1967
  358MOL0     H49377   6.397   5.355   9.825  3.1258  0.3233 -0.5360
  358MOL0     H49378   6.549   5.096   9.801 -1.2610  0.5435 -1.4827
  358MOL0     H49379   6.468   5.152   9.962  1.4366  0.8704  0.8833
  358MOL0     H49380   6.605   5.349   9.955 -2.0313  0.0904 -1.7845
  358MOL0     H49381   6.681   5.314   9.805 -0.6171  1.6449  0.3229
  358MOL0     H49382   6.694   5.149  10.058  0.7310  1.3518  0.4127
  358MOL0     H49383   6.824   5.252  10.005  1.0762  0.0325 -1.6326
  358MOL0     H49384   5.936   5.426   9.338 -0.5429 -1.1413 -1.5395
  358MOL0     H49385   5.771   5.569   9.231 -0.2922 -0.6688 -0.6894
  358MOL0     H49386   5.464   5.773   9.134  0.2930 -0.3982 -1.6803
  358MOL0     H49387   5.295   5.904   9.013  2.4556 -0.3376  0.8299
  358MOL0     H49388   3.524   5.257   8.230 -0.3135  0.4074  0.3225
  358MOL0     H49389   3.319   5.105   8.251 -2.6281 -1.2872  2.0148
  358MOL0     H49390   2.913   5.055   8.323 -0.1322  1.7433  1.5881
  358MOL0     H49391   2.704   4.968   8.338  0.2975  0.6017  0.5099
  358MOL0     H49392   2.497   4.855   8.481 -0.0679  1.2669 -1.6561
  358MOL0     H49393   2.517   4.809   8.321  0.9788  0.0987 -0.6819
  358MOL0     H49394   2.457   4.575   8.347 -0.1729  0.4417 -0.5931
  358MOL0     H49395   2.328   4.675   8.398  0.3095  0.6445 -2.2925
  358MOL0     H49396   2.337   4.513   8.555 -0.3646  0.9375  0.0787
  358MOL0     H49397   2.509   4.538   8.607  0.1879 -2.5076 -1.7938
  358MOL0     H49398   2.275   4.730   8.647 -0.3892  0.3517  1.1290
  358MOL0     H49399   2.441   4.773   8.691  1.6534 -0.5179  2.6603
  358MOL0     H49400   2.395   4.532   9.018 -0.6120  1.2588  1.0194
  358MOL0     H49401   2.856   4.650   8.586 -0.1973 -1.0384 -1.8570
  358MOL0     H49402   3.066   4.776   8.744 -1.6136  1.6236 -1.2746
  358MOL0     H49403   3.070   4.630   8.646  1.7932 -0.8430  1.7262
  358MOL0     H49404   3.188   4.745   8.620  0.9396 -0.1737  2.6221
  359MOL0     O49405   8.272   6.107   0.265 -0.3660 -0.1113 -0.2444
  359MOL0     C49406   8.167   6.158   0.236  0.4529  0.3288  0.2491
  359MOL0     O49407   8.131   6.196   0.114 -0.0688  0.5944  0.1698
  359MOL0     C49408   8.219   6.206   0.007 -0.1951  0.0365 -0.4936
  359MOL0     C49409   8.353   6.194   0.011 -0.8116  0.6605  1.0956
  359MOL0     C49410   8.423   6.206  -0.106 -0.7879 -0.1511  0.4953
  359MOL0     C49411   8.369   6.203  -0.231  1.0868  0.1814 -0.3186
  359MOL0     O49412   8.452   6.190  -0.341 -0.5087 -0.4656  0.3456
  359MOL0     C49413   8.426   6.081  -0.431  0.2441 -1.0257  0.2931
  359MOL0     C49414   8.542   6.077  -0.535  0.7528  0.3265  1.0542
  359MOL0     C49415   8.678   6.051  -0.479 -0.1149  0.3619 -0.3973
  359MOL0     C49416   8.772   6.077  -0.599  0.2151 -0.5748 -0.3694
  359MOL0     C49417   8.923   6.065  -0.561  0.5891  0.1600  0.2937
  359MOL0     C49418   9.000   6.087  -0.687  0.2351  0.4651 -1.0149
  359MOL0     C49419   9.021   5.955  -0.774 -0.2355 -0.7149 -0.1385
  359MOL0     C49420   9.035   5.984  -0.926  0.2221  0.0751  0.2052
  359MOL0     N49421   9.178   6.004  -0.949  0.1755 -0.7717  0.9429
  359MOL0     C49422   9.263   5.905  -0.995 -0.0982 -0.4464 -0.0334
  359MOL0     C49423   9.387   5.955  -1.006 -0.0684  0.7497 -0.5516
  359MOL0     C49424   9.506   5.892  -1.083  0.7426 -0.0138 -0.1144
  359MOL0     C49425   9.623   5.981  -1.087  0.3046 -0.1158 -0.1725
  359MOL0     C49426   9.747   5.910  -1.151  0.0286 -1.2954  0.0254
  359MOL0     C49427   9.862   6.012  -1.148 -0.2877 -0.3613  0.0723
  359MOL0     O49428   9.982   5.952  -1.200  0.5448  0.3406 -0.0992
  359MOL0     C49429  10.073   5.937  -1.102  0.1976  0.0635  0.3952
  359MOL0     C49430  10.167   6.042  -1.076  0.3506  0.2939  0.1069
  359MOL0     C49431  10.271   6.022  -0.976 -0.3710  0.2289 -0.0535
  359MOL0     C49432  10.360   6.140  -0.957  0.2280 -0.4444  0.0949
  359MOL0     C49433  10.285   5.902  -0.903  1.0276 -0.1886  0.0136
  359MOL0     C49434  10.384   5.877  -0.792 -0.2302 -0.6749  0.3450
  359MOL0     O49435  10.346   5.803  -0.691 -0.2149 -0.2260 -0.0806
  359MOL0     C49436  10.447   5.743  -0.616  1.0905 -0.5534  0.0747
  359MOL0     C49437  10.544   5.659  -0.665  1.2270  0.6328  0.4099
  359MOL0     C49438  10.663   5.624  -0.596 -0.0486 -0.5092 -0.3838
  359MOL0     C49439  10.675   5.668  -0.463  0.9529 -0.9532  0.0572
  359MOL0     O49440  10.793   5.651  -0.394 -0.3840  0.4839  0.5630
  359MOL0     C49441  10.777   5.631  -0.249 -0.0003 -0.5024  0.2928
  359MOL0     C49442  10.911   5.588  -0.190 -0.2756  0.2396  0.3326
  359MOL0     C49443  11.013   5.698  -0.214  0.0517  0.3501 -0.3427
  359MOL0     C49444  11.150   5.647  -0.168 -0.2164 -0.1234 -0.2330
  359MOL0     C49445  11.153   5.596  -0.023 -0.7878 -0.2505  0.1743
  359MOL0     C49446  11.294   5.569   0.017  0.5073 -0.8161  0.0523
  359MOL0     C49447  11.294   5.528   0.163 -0.6855  0.0254 -0.4608
  359MOL0     C49448  11.436   5.504   0.219  0.7730  0.3607  0.2903
  359MOL0    Cl49449  11.535   5.407   0.109 -0.2960  0.6357  0.0801
  359MOL0     C49450  10.581   5.755  -0.408  0.7165  0.5117 -0.4477
  359MOL0     C49451  10.461   5.787  -0.484 -0.6237 -0.4725 -0.3108
  359MOL0     O49452  10.499   5.925  -0.804 -0.8665 -0.7231 -0.2806
  359MOL0     C49453  10.193   5.797  -0.938 -0.2370 -0.0292  0.8370
  359MOL0     C49454  10.084   5.811  -1.031 -0.2223 -0.1356  0.3861
  359MOL0     N49455   9.377   6.083  -0.956  0.2605 -0.4788  0.6001
  359MOL0     N49456   9.253   6.111  -0.929  0.3029 -0.0742 -0.1910
  359MOL0     C49457   8.226   6.217  -0.235 -0.0160 -0.0573  0.3753
  359MOL0     C49458   8.151   6.219  -0.118 -0.0069  0.3172  0.1129
  359MOL0     C49459   8.057   6.164   0.341  0.2848  0.8762  0.1410
  359MOL0     C49460   8.020   6.048   0.416  0.4369  0.1677 -0.2506
  359MOL0     C49461   7.930   6.072   0.518  0.3401 -0.8474  0.5599
  359MOL0     C49462   7.870   6.189   0.545 -0.4459 -0.5388  0.4920
  359MOL0     O49463   7.797   6.203   0.662  0.9673  0.7501  0.4737
  359MOL0     C49464   7.723   6.088   0.708  0.0951 -0.9899  0.0360
  359MOL0     C49465   7.617   6.132   0.811  0.1877 -0.7493 -0.1151
  359MOL0     C49466   7.518   6.017   0.840  0.4284 -0.1262 -0.8429
  359MOL0     C49467   7.403   6.049   0.934  0.4720  0.3518  1.0628
  359MOL0     C49468   7.449   6.078   1.061 -1.1317 -0.7937 -0.8598
  359MOL0     C49469   7.486   6.100   1.168  0.6187 -0.6211 -0.4914
  359MOL0     C49470   7.911   6.301   0.481 -1.1904 -0.2514  0.1140
  359MOL0     C49471   8.004   6.287   0.376  0.0733 -0.0443 -0.7016
  359MOL0     C49472   8.043   6.410   0.308  0.1632 -0.7158 -0.9003
  359MOL0     H49473   8.424   6.183   0.092  1.8292  1.8376 -0.9103
  359MOL0     H49474   8.528   6.185  -0.095 -1.0439 -1.1021  1.2811
  359MOL0     H49475   8.332   6.084  -0.488  1.4352  0.0732 -1.7243
  359MOL0     H49476   8.434   5.989  -0.373  0.2924 -0.7914  0.6568
  359MOL0     H49477   8.512   5.993  -0.599 -0.1094  1.5679 -0.2420
  359MOL0     H49478   8.547   6.168  -0.596  1.3264 -0.7356 -0.5584
  359MOL0     H49479   8.705   6.118  -0.397  1.7653 -0.4166 -0.3476
  359MOL0     H49480   8.693   5.948  -0.446  1.8528  1.0780  1.1570
  359MOL0     H49481   8.744   6.001  -0.673 -0.6898 -1.4092  0.7931
  359MOL0     H49482   8.744   6.170  -0.648 -0.6499  0.0941  1.3219
  359MOL0     H49483   8.948   5.970  -0.513  2.6372  1.3015  1.6453
  359MOL0     H49484   8.938   6.144  -0.486  1.2031  0.2334  0.0961
  359MOL0     H49485   8.950   6.148  -0.763  0.1132 -1.2315 -2.3647
  359MOL0     H49486   9.098   6.129  -0.665  0.1497 -0.0971  0.5418
  359MOL0     H49487   8.927   5.898  -0.765 -0.8203  0.0682 -1.0625
  359MOL0     H49488   9.099   5.893  -0.728 -1.5072  1.5021  5.9059
  359MOL0     H49489   8.991   5.916  -1.000 -2.7735  2.6233 -0.6086
  359MOL0     H49490   8.975   6.073  -0.949 -0.8384  0.0513  2.5809
  359MOL0     H49491   9.230   5.807  -1.029 -0.7076  0.0118 -0.7987
  359MOL0     H49492   9.471   5.896  -1.187 -1.4299  2.7382  0.5827
  359MOL0     H49493   9.521   5.791  -1.045 -1.2343 -0.5285 -0.5810
  359MOL0     H49494   9.599   6.074  -1.139 -0.9236 -0.0440  0.4807
  359MOL0     H49495   9.652   6.006  -0.985  0.6329 -1.4172  0.0771
  359MOL0     H49496   9.767   5.815  -1.101 -0.1646 -3.3900 -3.5686
  359MOL0     H49497   9.730   5.890  -1.257  1.5289  3.0235 -1.2567
  359MOL0     H49498   9.835   6.081  -1.229  1.4073 -0.4729 -0.6165
  359MOL0     H49499   9.878   6.066  -1.054  2.2802  0.5004 -0.7801
  359MOL0     H49500  10.159   6.138  -1.127 -1.9854 -1.1888 -2.6231
  359MOL0     H49501  10.442   6.127  -1.028  1.9970  0.2976  1.8935
  359MOL0     H49502  10.410   6.134  -0.860  0.6956  1.3307 -0.0020
  359MOL0     H49503  10.312   6.238  -0.968  1.2215 -0.1325 -2.0446
  359MOL0     H49504  10.524   5.629  -0.767  1.5475  1.1970  0.1769
  359MOL0     H49505  10.749   5.568  -0.630 -0.0507 -0.0979 -1.0934
  359MOL0     H49506  10.750   5.730  -0.210  0.8831  1.1224 -2.8882
  359MOL0     H49507  10.710   5.549  -0.222 -0.2726 -0.0980  0.8833
  359MOL0     H49508  10.895   5.574  -0.083 -0.8542  2.4910  0.5998
  359MOL0     H49509  10.935   5.491  -0.235 -0.0554  2.2392 -4.4690
  359MOL0     H49510  10.986   5.793  -0.168 -1.4589  0.0258 -0.5021
  359MOL0     H49511  11.011   5.712  -0.322 -0.5986 -0.8434 -0.5107
  359MOL0     H49512  11.222   5.729  -0.171  2.4329 -2.2673  0.6190
  359MOL0     H49513  11.182   5.580  -0.249  1.2415 -1.6675  1.5283
  359MOL0     H49514  11.107   5.653   0.059  0.2338 -2.9430  2.7917
  359MOL0     H49515  11.098   5.503  -0.014 -1.6683  0.2838  0.4960
  359MOL0     H49516  11.357   5.658   0.007  0.8635 -0.8711  1.5663
  359MOL0     H49517  11.342   5.492  -0.043  1.0164  0.5185 -1.3284
  359MOL0     H49518  11.252   5.427   0.163 -1.0287  0.1671 -0.6750
  359MOL0     H49519  11.236   5.601   0.219 -1.7528  0.9247 -2.6222
  359MOL0     H49520  11.449   5.478   0.325  2.5014 -0.1157 -0.0049
  359MOL0     H49521  11.494   5.596   0.206 -0.8034  1.2420 -0.7432
  359MOL0     H49522  10.580   5.784  -0.303 -2.3438  1.5673 -0.6752
  359MOL0     H49523  10.400   5.862  -0.436 -0.6896 -0.8788  0.2494
  359MOL0     H49524  10.220   5.702  -0.894 -2.0163 -1.8008 -1.5654
  359MOL0     H49525  10.019   5.730  -1.064 -1.1194  0.9910 -0.6939
  359MOL0     H49526   8.157   6.221  -0.319 -0.6907 -2.1373  0.7507
  359MOL0     H49527   8.043   6.230  -0.123  0.2148  1.9519 -3.3900
  359MOL0     H49528   8.077   5.957   0.402 -0.8869 -0.9564  1.3137
  359MOL0     H49529   7.912   5.992   0.589  1.5000 -1.8320 -0.2014
  359MOL0     H49530   7.683   6.027   0.627 -1.6639 -0.0297  0.1260
  359MOL0     H49531   7.797   6.032   0.765  2.5034  1.2811 -0.6170
  359MOL0     H49532   7.557   6.208   0.759  1.6902 -0.9027 -2.2066
  359MOL0     H49533   7.668   6.184   0.892 -0.0677 -0.0764 -0.3808
  359MOL0     H49534   7.473   5.971   0.751 -0.2215 -2.6137  0.6568
  359MOL0     H49535   7.576   5.938   0.888  0.1985 -1.5148 -2.7344
  359MOL0     H49536   7.324   5.974   0.946 -1.8578  2.4018 -0.4981
  359MOL0     H49537   7.356   6.138   0.891  0.2117 -0.5486 -0.5728
  359MOL0     H49538   7.514   6.131   1.267 -1.6630  1.4141 -0.3763
  359MOL0     H49539   7.865   6.394   0.515 -2.4220 -1.1420  0.9579
  359MOL0     H49540   8.012   6.505   0.354 -1.2423  0.0719 -3.3142
  359MOL0     H49541   8.152   6.414   0.299  0.7787  2.7415  3.9826
  359MOL0     H49542   7.994   6.417   0.211  0.5011 -4.5975 -1.5147
  360MOL0     O49543   7.761   9.478   1.244 -0.1698 -0.2382 -0.6396
  360MOL0     C49544   7.758   9.444   1.125  0.2372  0.7701 -0.2985
  360MOL0     O49545   7.858   9.449   1.030  0.1183 -0.9851 -0.1181
  360MOL0     C49546   7.955   9.539   1.069 -0.5565 -0.2004 -0.3904
  360MOL0     C49547   7.945   9.672   1.038  0.8898  0.7747 -0.0889
  360MOL0     C49548   8.054   9.763   1.063  0.3426  0.8029 -0.3644
  360MOL0     C49549   8.169   9.714   1.130  0.1501 -0.2782 -0.0430
  360MOL0     O49550   8.286   9.790   1.161  0.2646  0.5017  0.2805
  360MOL0     C49551   8.289   9.928   1.118 -0.0855  0.4499 -0.0185
  360MOL0     C49552   8.428   9.975   1.090 -0.2860 -0.0053 -0.0557
  360MOL0     C49553   8.514   9.983   1.219 -0.0760  1.1389 -0.3868
  360MOL0     C49554   8.662   9.955   1.184  0.1363  0.2025  0.2436
  360MOL0     C49555   8.767   9.971   1.296  0.3488  0.2531  0.5428
  360MOL0     C49556   8.910   9.997   1.243  0.3861 -0.6502  0.9666
  360MOL0     C49557   9.004  10.004   1.362 -0.5497 -1.0907 -0.4715
  360MOL0     C49558   9.146  10.045   1.335 -0.1591 -0.0274 -0.1642
  360MOL0     N49559   9.232  10.063   1.454 -0.5327  0.3596 -1.2665
  360MOL0     C49560   9.283   9.964   1.531 -0.0907 -0.0110 -0.1780
  360MOL0     C49561   9.359  10.027   1.630 -0.8916  0.4634  0.2773
  360MOL0     C49562   9.452   9.975   1.741 -0.4653 -0.8506 -0.5374
  360MOL0     C49563   9.594  10.044   1.750  0.3716 -0.3323 -0.3824
  360MOL0     C49564   9.672   9.996   1.634  0.1054  0.3292 -0.2018
  360MOL0     C49565   9.810  10.044   1.619 -0.4979 -0.2480  0.2267
  360MOL0     O49566   9.834  10.173   1.678 -0.1294  0.2844  0.6417
  360MOL0     C49567   9.938  10.247   1.643 -0.4275 -0.0326  0.3289
  360MOL0     C49568  10.068  10.194   1.608  0.5936 -0.2749 -0.7139
  360MOL0     C49569  10.169  10.270   1.562 -0.1434 -0.5400  0.4175
  360MOL0     C49570  10.295  10.208   1.508  0.4624 -0.4436 -0.1999
  360MOL0     C49571  10.147  10.413   1.567 -0.3805  0.5761 -0.0176
  360MOL0     C49572  10.254  10.514   1.542 -0.3866 -0.4715 -0.2624
  360MOL0     O49573  10.211  10.645   1.506  0.0763  0.4424 -0.0676
  360MOL0     C49574  10.313  10.736   1.512  0.4193 -0.4755  0.2505
  360MOL0     C49575  10.299  10.845   1.595 -0.4645 -0.9483 -0.2656
  360MOL0     C49576  10.394  10.948   1.601 -0.3045  0.6740  0.2476
  360MOL0     C49577  10.503  10.935   1.514 -0.0653 -0.4415 -0.6933
  360MOL0     O49578  10.601  11.029   1.518 -0.2469 -0.1060 -0.1183
  360MOL0     C49579  10.727  10.973   1.540  0.6818  0.2988  0.3131
  360MOL0     C49580  10.827  10.993   1.435 -0.2753 -0.1695 -0.4206
  360MOL0     C49581  10.963  10.925   1.474 -0.2347 -0.1739 -0.2068
  360MOL0     C49582  11.075  10.984   1.381  0.2031  0.2338 -0.0652
  360MOL0     C49583  11.206  10.910   1.419 -0.5530 -0.2825 -0.2261
  360MOL0     C49584  11.326  10.951   1.325 -0.3283 -0.0435  0.8025
  360MOL0     C49585  11.446  10.862   1.359  0.3460 -0.2585  0.0552
  360MOL0     C49586  11.576  10.914   1.293  0.6254  0.3212 -0.3900
  360MOL0    Cl49587  11.721  10.852   1.381 -0.0682 -0.1909  0.3791
  360MOL0     C49588  10.513  10.836   1.424 -0.1665  0.1466  0.5706
  360MOL0     C49589  10.416  10.731   1.419  0.4139 -0.7303 -0.2119
  360MOL0     O49590  10.376  10.484   1.551 -0.0328  0.0372  0.0512
  360MOL0     C49591  10.021  10.466   1.599 -0.0494 -0.2695  0.3271
  360MOL0     C49592   9.915  10.380   1.621 -0.6863  0.3832 -0.7112
  360MOL0     N49593   9.339  10.165   1.608 -0.2687  0.6251 -0.3511
  360MOL0     N49594   9.276  10.181   1.502  0.7540 -0.0032 -0.7087
  360MOL0     C49595   8.165   9.578   1.158 -0.4805 -0.0344 -0.5025
  360MOL0     C49596   8.068   9.487   1.124 -0.5164 -0.5466 -0.3178
  360MOL0     C49597   7.624   9.404   1.067 -0.0863  0.2835 -0.2392
  360MOL0     C49598   7.505   9.459   1.127  0.9252  0.1960  0.0348
  360MOL0     C49599   7.374   9.435   1.072 -1.0119  0.1868 -0.1920
  360MOL0     C49600   7.360   9.374   0.952  0.5602 -0.2190 -0.3982
  360MOL0     O49601   7.242   9.349   0.878 -0.5180  0.0830  0.4607
  360MOL0     C49602   7.119   9.384   0.938 -1.0409 -0.0935  0.0902
  360MOL0     C49603   7.096   9.539   0.914  0.4507  0.4605  0.2014
  360MOL0     C49604   6.962   9.605   0.968 -0.5057 -0.1818 -0.0386
  360MOL0     C49605   6.961   9.609   1.118  0.1609  0.1989  0.1453
  360MOL0     C49606   6.822   9.642   1.157 -1.3238 -0.0602 -0.6887
  360MOL0     C49607   6.707   9.654   1.194  0.5341  0.6517 -0.0634
  360MOL0     C49608   7.475   9.318   0.890  0.0238  0.4010 -0.3497
  360MOL0     C49609   7.602   9.326   0.945  0.7500 -0.0890  0.6929
  360MOL0     C49610   7.698   9.271   0.849 -0.3703  1.0051  0.0061
  360MOL0     H49611   7.856   9.719   0.999  0.8007  0.7408  0.0732
  360MOL0     H49612   8.052   9.871   1.048  1.5173  1.4652  3.2900
  360MOL0     H49613   8.248   9.980   1.205 -2.0264  0.4568 -0.8837
  360MOL0     H49614   8.225   9.942   1.030  0.1016 -1.8034 -0.5820
  360MOL0     H49615   8.466   9.908   1.012 -1.3429 -0.9187  0.1944
  360MOL0     H49616   8.429  10.072   1.040  3.3266 -0.4721 -1.1966
  360MOL0     H49617   8.504  10.078   1.272 -2.4295  0.4945  0.4785
  360MOL0     H49618   8.484   9.907   1.291  0.2704  1.3813  0.0188
  360MOL0     H49619   8.673   9.855   1.142 -0.3193 -0.8142  2.3792
  360MOL0     H49620   8.691  10.030   1.110  0.8334 -0.9815 -0.7066
  360MOL0     H49621   8.776   9.875   1.348 -0.4634 -0.1177  0.0288
  360MOL0     H49622   8.728  10.044   1.367 -0.3924  1.3448 -0.9250
  360MOL0     H49623   8.947   9.924   1.170  1.6091  0.2141  0.6858
  360MOL0     H49624   8.918  10.096   1.196  0.8589  0.0736  2.5154
  360MOL0     H49625   8.996   9.909   1.416 -3.4574 -0.3294  0.6304
  360MOL0     H49626   8.962  10.083   1.425  0.7788  0.0185 -0.9403
  360MOL0     H49627   9.184   9.966   1.269  0.4860  0.6559 -0.6239
  360MOL0     H49628   9.149  10.142   1.285  0.9336  1.3581  2.3873
  360MOL0     H49629   9.257   9.859   1.521 -1.0387  0.0863  0.9881
  360MOL0     H49630   9.462   9.867   1.750  0.3759 -0.6875  0.7662
  360MOL0     H49631   9.393  10.009   1.826 -1.9557 -0.2003 -1.7765
  360MOL0     H49632   9.586  10.153   1.743 -2.7104 -0.3665  0.8732
  360MOL0     H49633   9.637  10.018   1.848  1.3827 -0.1548 -0.7670
  360MOL0     H49634   9.672   9.886   1.636  0.8355  0.3036  2.2861
  360MOL0     H49635   9.619  10.028   1.544 -0.1082 -0.3766 -0.3346
  360MOL0     H49636   9.876   9.968   1.660 -2.3200 -0.8900  2.1400
  360MOL0     H49637   9.842  10.048   1.515  1.1839  0.7769  0.7513
  360MOL0     H49638  10.075  10.086   1.613 -2.2275 -0.4913  0.0132
  360MOL0     H49639  10.331  10.273   1.428  1.8049 -1.0823 -0.1314
  360MOL0     H49640  10.263  10.112   1.465 -0.7218 -1.0327  1.8283
  360MOL0     H49641  10.363  10.192   1.592 -0.0039  1.0021  0.4778
  360MOL0     H49642  10.212  10.842   1.660 -0.2178 -0.2458  0.1064
  360MOL0     H49643  10.387  11.034   1.667  0.4678  2.1196 -1.4609
  360MOL0     H49644  10.772  11.000   1.636  0.7697  2.3736 -0.2527
  360MOL0     H49645  10.718  10.864   1.539 -2.8899  0.4722  1.4276
  360MOL0     H49646  10.801  10.963   1.333 -0.2539  2.1887 -1.1931
  360MOL0     H49647  10.832  11.102   1.420 -0.9326  0.2120  1.7470
  360MOL0     H49648  10.966  10.816   1.466  1.6089 -0.1202 -0.8074
  360MOL0     H49649  11.003  10.953   1.572  2.5202 -0.7539 -1.0886
  360MOL0     H49650  11.093  11.091   1.396  0.9887 -0.1403  2.0026
  360MOL0     H49651  11.048  10.969   1.276  0.2351  2.5233 -0.4569
  360MOL0     H49652  11.220  10.938   1.524  1.0667  0.4230 -0.6126
  360MOL0     H49653  11.185  10.802   1.411  1.0577 -0.5378 -1.1995
  360MOL0     H49654  11.342  11.059   1.330  1.5854 -0.3223  1.3351
  360MOL0     H49655  11.304  10.930   1.220 -0.1084 -0.9718  0.9334
  360MOL0     H49656  11.429  10.762   1.319  0.4357 -0.8461  1.4288
  360MOL0     H49657  11.460  10.854   1.468  2.2634  2.0559  0.0827
  360MOL0     H49658  11.575  11.023   1.280  3.1238  0.2412 -1.9438
  360MOL0     H49659  11.591  10.894   1.186  2.0867  1.7370 -0.4956
  360MOL0     H49660  10.592  10.836   1.349  0.9392  2.5901  1.6054
  360MOL0     H49661  10.427  10.655   1.343  2.3725  1.9338 -2.7996
  360MOL0     H49662  10.000  10.572   1.614 -3.0918 -0.6518 -0.6023
  360MOL0     H49663   9.820  10.425   1.650 -1.0409 -0.5084 -0.4605
  360MOL0     H49664   8.252   9.547   1.216  0.6383  1.9571 -1.0133
  360MOL0     H49665   8.078   9.380   1.137 -0.5782 -0.7698 -1.9123
  360MOL0     H49666   7.500   9.503   1.226  2.7056 -2.9197  1.6748
  360MOL0     H49667   7.286   9.480   1.115 -0.7337  0.3163  0.2449
  360MOL0     H49668   7.029   9.344   0.891 -0.6580 -1.0668  0.1641
  360MOL0     H49669   7.111   9.351   1.042 -0.8603 -0.0167  0.1283
  360MOL0     H49670   7.101   9.556   0.806  2.6306 -2.5950 -0.3119
  360MOL0     H49671   7.181   9.590   0.961  1.1373 -1.0103  0.6149
  360MOL0     H49672   6.946   9.704   0.926 -1.0737  0.3497  1.3913
  360MOL0     H49673   6.881   9.543   0.929 -1.1134  1.5692 -1.7254
  360MOL0     H49674   7.026   9.686   1.159  0.1454  0.6511 -0.6631
  360MOL0     H49675   6.980   9.510   1.160  0.9264  0.7759  1.1875
  360MOL0     H49676   6.606   9.672   1.223  0.8469  0.0122  1.4916
  360MOL0     H49677   7.460   9.283   0.788 -0.7336 -1.0977  0.2528
  360MOL0     H49678   7.767   9.350   0.819  2.6213 -1.4048  0.0445
  360MOL0     H49679   7.760   9.203   0.908  0.4322  1.9385  0.2514
  360MOL0     H49680   7.649   9.215   0.769 -3.5544  1.3261  1.5259
  361MOL0     O49681   4.945   4.552   7.416  1.1458 -0.5527 -0.7700
  361MOL0     C49682   4.907   4.653   7.472  0.5413  0.0284  0.5775
  361MOL0     O49683   4.978   4.711   7.575  1.2993 -0.1250  0.3777
  361MOL0     C49684   5.100   4.661   7.592 -0.3542 -0.5746 -0.8515
  361MOL0     C49685   5.206   4.726   7.534  0.3535  0.4549 -0.5319
  361MOL0     C49686   5.337   4.673   7.552 -0.4059 -0.4219 -0.3339
  361MOL0     C49687   5.364   4.577   7.651  0.1232  0.3716 -0.2740
  361MOL0     O49688   5.490   4.534   7.686 -0.2947  0.6879 -0.3212
  361MOL0     C49689   5.606   4.614   7.654 -0.1166 -0.0043 -0.4043
  361MOL0     C49690   5.735   4.540   7.658  0.2279  0.1226  0.1662
  361MOL0     C49691   5.854   4.628   7.619 -0.0402  0.5448  0.1870
  361MOL0     C49692   5.981   4.545   7.583  0.0393 -0.0652 -0.5805
  361MOL0     C49693   6.127   4.609   7.586  0.7162  0.3546  0.3933
  361MOL0     C49694   6.243   4.529   7.511  0.1442  0.2698  0.0170
  361MOL0     C49695   6.390   4.597   7.519  0.1087  0.3635  0.6248
  361MOL0     C49696   6.434   4.640   7.657  0.9683 -0.5588 -0.3310
  361MOL0     N49697   6.457   4.510   7.731  0.2467 -1.3271  0.4073
  361MOL0     C49698   6.364   4.431   7.789 -0.2554 -0.2545 -0.2624
  361MOL0     C49699   6.435   4.320   7.824  0.8192  0.5973 -0.7104
  361MOL0     C49700   6.378   4.193   7.887 -0.5810 -0.9693 -1.1692
  361MOL0     C49701   6.318   4.093   7.797  0.5330 -0.1560  0.9213
  361MOL0     C49702   6.223   4.154   7.683 -1.2057  0.0228  0.5940
  361MOL0     C49703   6.138   4.048   7.612 -0.5004 -1.1374 -0.2045
  361MOL0     O49704   6.032   4.113   7.533  0.4235 -0.5313 -1.1119
  361MOL0     C49705   5.922   4.039   7.502 -0.3041 -1.2004 -0.5945
  361MOL0     C49706   5.812   4.120   7.464  1.1927  0.2446 -0.1712
  361MOL0     C49707   5.690   4.053   7.432 -0.1819 -0.2510  0.1043
  361MOL0     C49708   5.592   4.149   7.376 -0.5958 -0.7405 -0.1111
  361MOL0     C49709   5.673   3.910   7.450  0.3893 -0.0442 -0.1440
  361MOL0     C49710   5.550   3.836   7.414  0.3069 -0.1913  0.3784
  361MOL0     O49711   5.541   3.691   7.423 -0.2024 -0.5107  0.4279
  361MOL0     C49712   5.418   3.622   7.412  0.6651  0.0340  0.9822
  361MOL0     C49713   5.420   3.486   7.377  0.3047 -1.2387  0.5848
  361MOL0     C49714   5.309   3.414   7.373 -0.1215  0.1883  0.2861
  361MOL0     C49715   5.188   3.465   7.423  0.6710 -0.0450 -0.6077
  361MOL0     O49716   5.068   3.389   7.419 -0.0637  0.2364 -0.5059
  361MOL0     C49717   4.939   3.447   7.393  0.0114  0.0440 -0.3701
  361MOL0     C49718   4.851   3.340   7.332  0.5028 -0.3291 -0.0373
  361MOL0     C49719   4.711   3.408   7.319 -0.5184  0.0703  0.6639
  361MOL0     C49720   4.629   3.380   7.448 -0.7236 -0.9086  1.0279
  361MOL0     C49721   4.495   3.456   7.455  0.2464  0.1458  0.1412
  361MOL0     C49722   4.392   3.376   7.378 -0.7163 -0.1181  0.1847
  361MOL0     C49723   4.245   3.443   7.399 -0.5956  0.4283  0.2409
  361MOL0     C49724   4.130   3.359   7.345 -0.0415  0.3428 -0.4944
  361MOL0    Cl49725   4.129   3.361   7.176 -0.3894 -0.1331  0.3441
  361MOL0     C49726   5.180   3.605   7.458  0.7046 -0.0070 -0.1945
  361MOL0     C49727   5.299   3.672   7.455  0.3458 -0.0390 -0.4551
  361MOL0     O49728   5.461   3.908   7.374  0.2386 -0.1964 -0.2075
  361MOL0     C49729   5.790   3.839   7.497  0.6247 -0.1867  0.2019
  361MOL0     C49730   5.911   3.901   7.522 -0.6738  0.2013 -0.5880
  361MOL0     N49731   6.569   4.344   7.811  0.5946  0.7068  0.4910
  361MOL0     N49732   6.576   4.456   7.758 -0.1232  0.2024 -0.5434
  361MOL0     C49733   5.253   4.520   7.722  0.1226 -0.1059 -0.3455
  361MOL0     C49734   5.121   4.557   7.683 -0.2449  0.0153 -0.0403
  361MOL0     C49735   4.774   4.709   7.440  0.6982  0.1324  0.7168
  361MOL0     C49736   4.718   4.795   7.530 -0.0017  0.4612 -0.1916
  361MOL0     C49737   4.598   4.863   7.522  0.7865  0.2386 -0.0941
  361MOL0     C49738   4.519   4.841   7.409  0.2613 -0.0273  0.9513
  361MOL0     O49739   4.399   4.895   7.389  0.1736  0.6863  0.2749
  361MOL0     C49740   4.356   5.007   7.473  0.2439  0.1950 -0.1077
  361MOL0     C49741   4.427   5.132   7.414  0.3806 -0.0056 -0.2622
  361MOL0     C49742   4.343   5.255   7.443  0.3034  0.2171  0.1511
  361MOL0     C49743   4.404   5.391   7.397  0.5142  0.1423  0.0979
  361MOL0     C49744   4.501   5.435   7.490 -0.4711 -0.5517 -0.2819
  361MOL0     C49745   4.587   5.485   7.557 -0.6383 -0.1327 -0.3458
  361MOL0     C49746   4.565   4.752   7.317 -0.2886  0.4146  0.1964
  361MOL0     C49747   4.685   4.690   7.327 -0.6290 -0.4393  0.0371
  361MOL0     C49748   4.730   4.586   7.226 -0.3848 -0.4480  0.3928
  361MOL0     H49749   5.181   4.800   7.459  3.1774 -0.8405 -2.9377
  361MOL0     H49750   5.419   4.715   7.495  0.6032  0.8605  1.9749
  361MOL0     H49751   5.614   4.693   7.729 -1.0419  0.4859 -0.8055
  361MOL0     H49752   5.607   4.644   7.549  2.4153 -4.8924 -2.0790
  361MOL0     H49753   5.748   4.500   7.759  0.2813  3.6982  1.7187
  361MOL0     H49754   5.719   4.456   7.590  2.1438  1.1002 -1.5896
  361MOL0     H49755   5.836   4.690   7.530 -2.2183  0.8846  0.7891
  361MOL0     H49756   5.872   4.698   7.701 -4.2814  1.7092  0.3795
  361MOL0     H49757   5.992   4.460   7.650 -2.2809 -1.3319 -1.6906
  361MOL0     H49758   5.964   4.488   7.491 -1.1758 -1.2682  0.3609
  361MOL0     H49759   6.150   4.630   7.691 -0.0382  0.0291  0.6267
  361MOL0     H49760   6.107   4.706   7.541 -2.9753  0.0353  1.0775
  361MOL0     H49761   6.247   4.423   7.534 -0.8954  0.7885  3.0198
  361MOL0     H49762   6.200   4.527   7.410 -3.9292 -1.0477  1.6085
  361MOL0     H49763   6.397   4.688   7.458  0.3390  0.2087  0.4229
  361MOL0     H49764   6.460   4.525   7.477  0.8322 -1.1760  4.1349
  361MOL0     H49765   6.529   4.694   7.656  1.1344 -0.8034  0.6848
  361MOL0     H49766   6.362   4.709   7.700  1.3968  1.3930 -2.5467
  361MOL0     H49767   6.256   4.439   7.787 -0.3985 -1.7406  0.4533
  361MOL0     H49768   6.309   4.233   7.962  0.9885 -1.1568  0.4389
  361MOL0     H49769   6.452   4.145   7.951 -0.4741  1.5033  0.7157
  361MOL0     H49770   6.397   4.046   7.738 -1.8874 -1.0085 -1.9095
  361MOL0     H49771   6.261   4.014   7.848 -1.2009 -0.3874 -1.2125
  361MOL0     H49772   6.153   4.220   7.735 -2.7193  0.0477 -1.3699
  361MOL0     H49773   6.293   4.203   7.616 -0.2904 -1.2672  0.5719
  361MOL0     H49774   6.206   3.992   7.547  0.3596  0.3112 -0.5835
  361MOL0     H49775   6.093   3.974   7.679 -3.3761 -1.2860 -2.0914
  361MOL0     H49776   5.816   4.228   7.464  2.3614  0.2151 -0.9383
  361MOL0     H49777   5.505   4.183   7.434  0.1596 -0.2863  0.7972
  361MOL0     H49778   5.555   4.112   7.280 -0.1569  0.7506 -0.8975
  361MOL0     H49779   5.638   4.246   7.353 -1.7061 -0.0838  0.3663
  361MOL0     H49780   5.511   3.443   7.337 -0.0621 -1.0799 -0.4436
  361MOL0     H49781   5.299   3.318   7.323 -0.1541 -0.5439  1.6534
  361MOL0     H49782   4.893   3.506   7.474 -0.1610 -2.5260  1.5372
  361MOL0     H49783   4.951   3.520   7.313 -2.5147  2.2541  1.0578
  361MOL0     H49784   4.893   3.318   7.233 -1.5751  2.2201 -1.6476
  361MOL0     H49785   4.834   3.249   7.389 -1.7911  0.1235  0.1295
  361MOL0     H49786   4.656   3.366   7.235  0.2024 -1.2978  0.8361
  361MOL0     H49787   4.715   3.514   7.294 -2.7870 -0.6935 -3.8983
  361MOL0     H49788   4.690   3.403   7.535  0.9669 -1.2958 -0.0102
  361MOL0     H49789   4.618   3.272   7.460  0.6540 -1.0424  1.2466
  361MOL0     H49790   4.451   3.458   7.555  1.0609 -3.2556  0.6850
  361MOL0     H49791   4.509   3.557   7.416  2.3303 -0.9748 -2.2905
  361MOL0     H49792   4.377   3.273   7.411 -0.3621  0.4930  2.4113
  361MOL0     H49793   4.425   3.357   7.275  0.7270 -0.6553  0.7261
  361MOL0     H49794   4.241   3.535   7.339  1.7117 -1.0157 -2.3279
  361MOL0     H49795   4.227   3.458   7.506  1.3796 -2.8048  1.1351
  361MOL0     H49796   4.043   3.413   7.384  2.2602  2.3984  2.2034
  361MOL0     H49797   4.139   3.258   7.386 -1.3745  1.0003  1.5451
  361MOL0     H49798   5.094   3.658   7.496  1.0800 -0.6155  1.6096
  361MOL0     H49799   5.310   3.772   7.495  1.1418 -0.1128 -0.4830
  361MOL0     H49800   5.780   3.732   7.512  1.7202 -0.3134  0.1718
  361MOL0     H49801   5.993   3.843   7.562  0.3618  1.1952 -1.2242
  361MOL0     H49802   5.269   4.444   7.798  0.7307 -0.3542 -0.7121
  361MOL0     H49803   5.029   4.517   7.723  0.1698  0.5250  1.4921
  361MOL0     H49804   4.778   4.820   7.617  1.3062 -0.9092 -0.6600
  361MOL0     H49805   4.577   4.932   7.603  0.9531 -0.3376  0.4495
  361MOL0     H49806   4.248   5.016   7.462 -0.2513 -2.7514  1.2084
  361MOL0     H49807   4.375   4.992   7.580 -2.6946  0.4356  0.5376
  361MOL0     H49808   4.456   5.120   7.309 -1.0048 -2.1223 -0.4670
  361MOL0     H49809   4.514   5.149   7.477  0.4402  1.9949 -0.8138
  361MOL0     H49810   4.253   5.258   7.381 -0.6736  2.2654  1.5375
  361MOL0     H49811   4.306   5.246   7.545  0.0422 -0.7270 -0.0199
  361MOL0     H49812   4.323   5.463   7.385  2.4698  2.3483 -0.5153
  361MOL0     H49813   4.454   5.383   7.300  1.3405  2.3108  0.3056
  361MOL0     H49814   4.651   5.539   7.625  0.7934 -1.1304 -0.8604
  361MOL0     H49815   4.503   4.723   7.233 -1.8410 -1.5692  1.9192
  361MOL0     H49816   4.731   4.490   7.279 -3.1679  0.4173  2.2266
  361MOL0     H49817   4.660   4.579   7.143 -0.0491  2.4000 -0.2262
  361MOL0     H49818   4.833   4.598   7.191 -0.0956 -3.6764 -0.1834
  362MOL0     O49819   4.894   2.992   0.179  0.4757  0.2704 -0.0113
  362MOL0     C49820   4.838   2.890   0.207  1.1276  0.2028  0.7524
  362MOL0     O49821   4.903   2.781   0.254 -0.2815 -0.6037 -0.1832
  362MOL0     C49822   5.014   2.804   0.333  0.0000 -0.3730 -0.1309
  362MOL0     C49823   5.143   2.760   0.293  0.5893 -0.0626 -0.2043
  362MOL0     C49824   5.257   2.754   0.380  0.0513 -0.2123  0.3446
  362MOL0     C49825   5.242   2.791   0.511 -0.0118 -0.3148 -0.1739
  362MOL0     O49826   5.340   2.765   0.601 -0.1839 -0.3516  0.8816
  362MOL0     C49827   5.309   2.676   0.710 -0.5743  0.1963 -0.1197
  362MOL0     C49828   5.433   2.649   0.793  0.6087 -0.3259  0.8242
  362MOL0     C49829   5.556   2.616   0.705  0.6561 -0.4383 -0.1312
  362MOL0     C49830   5.677   2.601   0.799 -0.1467 -0.9201 -0.3846
  362MOL0     C49831   5.806   2.560   0.726  0.1726  0.1313  0.2820
  362MOL0     C49832   5.866   2.680   0.650  0.0253 -0.9124  0.3206
  362MOL0     C49833   6.003   2.650   0.586 -0.3361 -0.1868  0.2105
  362MOL0     C49834   6.015   2.516   0.519 -0.5716  0.1937  0.5229
  362MOL0     N49835   6.122   2.529   0.415 -0.1290  1.1569 -0.0013
  362MOL0     C49836   6.259   2.508   0.444  0.6336 -0.3393  0.0804
  362MOL0     C49837   6.323   2.550   0.331 -0.0784  0.7973 -0.1767
  362MOL0     C49838   6.472   2.543   0.306  0.3949  0.3682  0.6051
  362MOL0     C49839   6.515   2.440   0.206  0.1634 -0.1720  0.2323
  362MOL0     C49840   6.476   2.468   0.059  0.9959  0.0249  0.6719
  362MOL0     C49841   6.539   2.584  -0.016  0.4902 -0.3175  0.3512
  362MOL0     O49842   6.675   2.555  -0.052 -0.2357  0.8755 -0.1577
  362MOL0     C49843   6.751   2.662  -0.100 -0.0927  0.4876  0.3926
  362MOL0     C49844   6.703   2.775  -0.162  0.1544 -0.2491  0.0322
  362MOL0     C49845   6.779   2.874  -0.223  0.2773 -0.9442  0.3065
  362MOL0     C49846   6.705   2.992  -0.289  0.6573 -0.0435 -0.2028
  362MOL0     C49847   6.916   2.861  -0.228 -0.4290  0.5291 -0.0317
  362MOL0     C49848   7.009   2.956  -0.278 -0.1789  0.5689  0.5551
  362MOL0     O49849   6.977   3.020  -0.396 -0.4392  0.0274 -0.2213
  362MOL0     C49850   7.079   3.081  -0.477  0.5694  0.2861 -0.7840
  362MOL0     C49851   7.221   3.061  -0.475  0.0593 -0.4522  0.2061
  362MOL0     C49852   7.299   3.118  -0.570 -0.1432  0.0689 -0.2770
  362MOL0     C49853   7.239   3.189  -0.672  0.3000  0.2259  0.0354
  362MOL0     O49854   7.312   3.258  -0.762  0.4899  0.1385 -0.3463
  362MOL0     C49855   7.404   3.344  -0.698 -0.5157  0.4554  0.7110
  362MOL0     C49856   7.350   3.479  -0.645 -0.0483  0.5339  0.4888
  362MOL0     C49857   7.450   3.559  -0.558 -0.8376  0.4819  0.0345
  362MOL0     C49858   7.384   3.694  -0.529  0.1716  0.6844  0.7274
  362MOL0     C49859   7.477   3.791  -0.459 -0.1700  0.0639  1.1669
  362MOL0     C49860   7.618   3.794  -0.512  0.5128 -0.5981  0.3664
  362MOL0     C49861   7.695   3.899  -0.433  0.0227 -0.8510  0.1428
  362MOL0     C49862   7.730   3.864  -0.289 -0.5774  0.2367 -0.1402
  362MOL0    Cl49863   7.839   3.727  -0.265  0.4143 -0.3394 -0.0927
  362MOL0     C49864   7.098   3.210  -0.680  0.5728 -0.1775  0.1170
  362MOL0     C49865   7.022   3.161  -0.577  0.3858 -0.0273 -0.6941
  362MOL0     O49866   7.120   2.955  -0.219 -0.5197 -0.0584  0.5029
  362MOL0     C49867   6.966   2.740  -0.169 -0.0041 -0.1565  0.0068
  362MOL0     C49868   6.891   2.646  -0.103  0.3429  0.3309  0.7917
  362MOL0     N49869   6.227   2.611   0.252 -0.3765  0.5083 -0.6409
  362MOL0     N49870   6.109   2.590   0.301 -0.4404  0.3922 -0.4056
  362MOL0     C49871   5.112   2.830   0.559  0.2669  0.6274 -0.6700
  362MOL0     C49872   5.000   2.831   0.471  0.6080 -0.3497  0.2781
  362MOL0     C49873   4.696   2.880   0.160  0.5923 -0.1782 -0.9134
  362MOL0     C49874   4.661   2.765   0.101 -0.8174  0.5043 -0.2464
  362MOL0     C49875   4.531   2.742   0.056 -0.1994  0.0601 -0.0905
  362MOL0     C49876   4.438   2.847   0.057  0.3787 -0.2573  1.3529
  362MOL0     O49877   4.307   2.835   0.011  0.3320 -0.1344 -0.5319
  362MOL0     C49878   4.260   2.711  -0.038 -0.0799 -0.6465  0.0569
  362MOL0     C49879   4.103   2.737  -0.060 -1.3997 -0.6292 -0.5208
  362MOL0     C49880   4.051   2.658  -0.170  0.0415 -0.4044 -0.5324
  362MOL0     C49881   3.905   2.657  -0.153  0.9085  0.5657 -0.5855
  362MOL0     C49882   3.848   2.593  -0.273  0.4004 -0.4066  0.0154
  362MOL0     C49883   3.789   2.539  -0.365 -0.7320  1.2115 -0.5305
  362MOL0     C49884   4.473   2.964   0.116  0.4104  0.4227 -0.4506
  362MOL0     C49885   4.598   2.980   0.174  0.7284  0.2552  0.3714
  362MOL0     C49886   4.629   3.124   0.221 -0.1028  0.8323  1.3748
  362MOL0     H49887   5.167   2.733   0.190  1.0188  2.2896 -0.7815
  362MOL0     H49888   5.353   2.724   0.340  0.1207 -0.0883  0.4144
  362MOL0     H49889   5.283   2.582   0.659 -2.7321  0.7137 -0.0371
  362MOL0     H49890   5.226   2.720   0.766  0.0797 -0.2801  1.2718
  362MOL0     H49891   5.442   2.741   0.851 -1.9485 -0.4979  1.6129
  362MOL0     H49892   5.399   2.562   0.851 -1.5780 -0.6069 -0.7710
  362MOL0     H49893   5.543   2.522   0.652  1.6960  0.6066 -2.3479
  362MOL0     H49894   5.566   2.695   0.630 -2.2075  1.3204  1.1679
  362MOL0     H49895   5.701   2.692   0.854  0.9270 -0.6858 -1.2143
  362MOL0     H49896   5.663   2.523   0.874  3.2252 -0.9153  0.4270
  362MOL0     H49897   5.775   2.491   0.647  0.9710  1.5285 -1.3166
  362MOL0     H49898   5.877   2.509   0.792 -1.1684 -1.3410  0.6320
  362MOL0     H49899   5.795   2.713   0.573 -0.7261 -0.9400  0.9879
  362MOL0     H49900   5.878   2.769   0.712  2.8819 -0.8416 -0.2032
  362MOL0     H49901   6.082   2.661   0.659  1.0949  2.6983 -1.6001
  362MOL0     H49902   6.030   2.722   0.508 -1.5758 -2.1582 -2.2107
  362MOL0     H49903   6.046   2.439   0.590 -0.4784 -1.7891 -1.5470
  362MOL0     H49904   5.923   2.486   0.466  0.7545  2.5640 -3.6040
  362MOL0     H49905   6.298   2.474   0.540 -0.2984  1.4087  1.1331
  362MOL0     H49906   6.517   2.511   0.401 -1.8273  3.6025  2.9537
  362MOL0     H49907   6.511   2.636   0.263  1.2744 -0.3137 -0.1155
  362MOL0     H49908   6.622   2.420   0.200  0.1084 -0.0232 -3.9315
  362MOL0     H49909   6.473   2.340   0.224  1.5732 -1.0622 -1.2619
  362MOL0     H49910   6.499   2.375   0.007  2.9053 -0.8409  2.8811
  362MOL0     H49911   6.370   2.490   0.045  1.4914  2.0556 -0.2318
  362MOL0     H49912   6.480   2.604  -0.105  3.6763  1.9638 -1.4455
  362MOL0     H49913   6.529   2.672   0.049  2.3914  1.5602 -1.7262
  362MOL0     H49914   6.598   2.794  -0.178  0.7903  1.5605 -2.5520
  362MOL0     H49915   6.598   2.975  -0.302  0.4806 -0.3984  1.5784
  362MOL0     H49916   6.758   3.022  -0.380  2.1466 -0.2831  0.5678
  362MOL0     H49917   6.713   3.085  -0.232  0.4883  0.5333 -1.0846
  362MOL0     H49918   7.267   2.998  -0.399 -1.0209  0.2034  1.4356
  362MOL0     H49919   7.406   3.102  -0.571 -0.4155 -1.9489 -0.9910
  362MOL0     H49920   7.464   3.297  -0.620 -1.1819  0.4704  1.2492
  362MOL0     H49921   7.473   3.362  -0.780 -1.9811 -0.2886 -0.7416
  362MOL0     H49922   7.322   3.538  -0.733  2.7934  0.4852 -0.5548
  362MOL0     H49923   7.260   3.460  -0.586 -1.0452 -0.5132 -1.2850
  362MOL0     H49924   7.542   3.572  -0.614 -0.1634 -1.5989  0.5647
  362MOL0     H49925   7.480   3.518  -0.461  3.8234  2.8298 -0.1501
  362MOL0     H49926   7.299   3.684  -0.461  0.8837 -0.6081  1.4889
  362MOL0     H49927   7.340   3.731  -0.622 -2.8015 -1.6552  1.0340
  362MOL0     H49928   7.437   3.889  -0.486  2.2299  1.0632  1.0006
  362MOL0     H49929   7.484   3.770  -0.352  1.1108  3.2836  1.8162
  362MOL0     H49930   7.622   3.822  -0.618 -1.9621 -2.5141 -0.3278
  362MOL0     H49931   7.659   3.693  -0.506 -0.2994 -1.1619 -2.2445
  362MOL0     H49932   7.638   3.991  -0.445 -1.6733 -2.0445 -1.6374
  362MOL0     H49933   7.796   3.915  -0.470  0.3761 -0.3554  1.2796
  362MOL0     H49934   7.644   3.843  -0.224  0.9360 -0.4829  1.7480
  362MOL0     H49935   7.786   3.949  -0.249  1.0256 -0.7951 -0.1243
  362MOL0     H49936   7.067   3.280  -0.757 -0.9170 -1.2466 -0.2897
  362MOL0     H49937   6.915   3.177  -0.573  0.3686 -0.1060 -0.8383
  362MOL0     H49938   7.071   2.712  -0.180  0.2784  0.0050  1.9284
  362MOL0     H49939   6.938   2.552  -0.073 -0.6610 -0.9163 -1.3247
  362MOL0     H49940   5.096   2.868   0.659 -2.4853 -3.0405  0.5165
  362MOL0     H49941   4.901   2.859   0.506 -0.7872 -2.7359 -1.5300
  362MOL0     H49942   4.726   2.680   0.086  0.4504  1.6290 -1.4437
  362MOL0     H49943   4.499   2.643   0.025  0.1224 -0.0317 -0.1287
  362MOL0     H49944   4.294   2.681  -0.137  0.1295 -0.1081 -0.0349
  362MOL0     H49945   4.279   2.626   0.029  2.0560 -1.0980 -1.0410
  362MOL0     H49946   4.088   2.845  -0.069  1.7941  0.0075  0.6036
  362MOL0     H49947   4.059   2.718   0.039  2.2031  0.1699  1.4230
  362MOL0     H49948   4.086   2.716  -0.256  1.8767 -0.8701 -0.1365
  362MOL0     H49949   4.086   2.554  -0.171 -1.7121 -1.0283 -0.4884
  362MOL0     H49950   3.855   2.753  -0.137  1.0768  0.2292  2.3842
  362MOL0     H49951   3.877   2.592  -0.070 -1.0213 -2.0679 -3.0787
  362MOL0     H49952   3.726   2.484  -0.431 -1.7625  1.4020  0.2644
  362MOL0     H49953   4.414   3.055   0.114  0.5752  0.5617  0.5736
  362MOL0     H49954   4.539   3.160   0.270 -1.3497 -0.5693  0.1906
  362MOL0     H49955   4.710   3.131   0.294 -0.0540 -0.0600  1.4145
  362MOL0     H49956   4.657   3.177   0.129 -1.2449 -2.7662 -1.2452
  363MOL0     O49957   9.937  10.572   4.817 -0.4575 -0.1023  0.2775
  363MOL0     C49958  10.024  10.497   4.870  0.9138  0.2111  0.0093
  363MOL0     O49959  10.150  10.539   4.908  0.7635 -0.6142  0.4081
  363MOL0     C49960  10.197  10.663   4.864  0.3232  0.1516 -0.1296
  363MOL0     C49961  10.237  10.675   4.736 -0.2319 -0.1210 -0.5516
  363MOL0     C49962  10.277  10.801   4.688  0.1879 -0.4968 -0.2933
  363MOL0     C49963  10.275  10.914   4.770 -0.4859 -0.5194  0.2202
  363MOL0     O49964  10.315  11.037   4.732  0.0849  0.0731 -0.3654
  363MOL0     C49965  10.286  11.075   4.597 -0.0461 -0.0511 -0.4707
  363MOL0     C49966  10.280  11.223   4.585  0.0642  0.7029 -0.8052
  363MOL0     C49967  10.405  11.282   4.533 -0.0686 -0.1525 -0.6775
  363MOL0     C49968  10.492  11.311   4.658  0.1290 -0.8057  0.1871
  363MOL0     C49969  10.631  11.361   4.597  0.1346 -0.4630  0.3369
  363MOL0     C49970  10.725  11.380   4.710  0.5028 -0.6976 -0.4861
  363MOL0     C49971  10.845  11.464   4.672  0.3997  0.0509  0.8153
  363MOL0     C49972  10.941  11.403   4.569  0.4841 -0.4036 -0.0198
  363MOL0     N49973  11.031  11.303   4.628  0.7659 -0.0107 -0.4982
  363MOL0     C49974  11.138  11.330   4.710 -0.2294 -0.4093 -0.4914
  363MOL0     C49975  11.185  11.206   4.734  0.7223  0.0061 -0.6681
  363MOL0     C49976  11.313  11.177   4.800  0.1897 -0.4718  0.7922
  363MOL0     C49977  11.426  11.210   4.702  0.3086  1.0307  0.5869
  363MOL0     C49978  11.549  11.262   4.782 -0.0096  0.5033  0.3065
  363MOL0     C49979  11.624  11.154   4.856  0.3260  0.0952  0.3065
  363MOL0     O49980  11.737  11.224   4.912 -0.4092 -0.1227  0.4319
  363MOL0     C49981  11.835  11.143   4.958 -0.1256  0.0021 -0.0832
  363MOL0     C49982  11.809  11.018   5.023 -0.5471 -0.4353  0.3836
  363MOL0     C49983  11.910  10.934   5.072  0.5812 -0.2829  0.0606
  363MOL0     C49984  11.872  10.802   5.122  0.2876  1.0591 -0.5068
  363MOL0     C49985  12.046  10.982   5.071  0.3606  0.8542 -0.9389
  363MOL0     C49986  12.170  10.897   5.102  0.0890 -0.2605  0.0095
  363MOL0     O49987  12.296  10.958   5.079  0.4232  0.4154 -0.2618
  363MOL0     C49988  12.411  10.886   5.086 -0.2877  0.7316  0.3700
  363MOL0     C49989  12.417  10.762   5.022  0.1101 -0.0150  0.1164
  363MOL0     C49990  12.543  10.703   4.995  0.2930 -0.0465  0.2457
  363MOL0     C49991  12.662  10.761   5.040  0.7982 -0.5563 -0.8684
  363MOL0     O49992  12.783  10.697   5.009  0.3149 -0.4780 -0.3991
  363MOL0     C49993  12.900  10.783   4.998 -0.2716 -0.1967  0.6554
  363MOL0     C49994  13.002  10.717   4.900 -0.0200 -0.0798 -0.1559
  363MOL0     C49995  12.979  10.750   4.750  0.0502 -0.0042  0.6136
  363MOL0     C49996  13.015  10.893   4.702  0.0188  0.1744 -0.4199
  363MOL0     C49997  13.170  10.906   4.683  0.0323  0.3533 -0.4791
  363MOL0     C49998  13.224  10.862   4.546 -0.3427  0.2213  0.1501
  363MOL0     C49999  13.375  10.856   4.566 -0.1592  0.3572  0.2378
  363MOL0     C50000  13.456  10.899   4.452 -0.3940  0.4080 -0.3076
  363MOL0    Cl50001  13.632  10.895   4.502 -0.2160  0.4776 -0.3629
  363MOL0     C50002  12.658  10.880   5.113 -0.1163  0.3094 -0.0460
  363MOL0     C50003  12.530  10.941   5.139  0.5393  0.1343  0.2693
  363MOL0     O50004  12.149  10.785   5.158  0.7415 -0.3248  0.4298
  363MOL0     C50005  12.068  11.111   5.025 -1.1793 -0.4176  0.0895
  363MOL0     C50006  11.968  11.190   4.965  0.6378  0.3622  0.7845
  363MOL0     N50007  11.114  11.109   4.667 -0.7198 -0.1564 -0.1856
  363MOL0     N50008  11.026  11.164   4.594  0.6296 -0.0621  0.2470
  363MOL0     C50009  10.244  10.895   4.906 -0.6178 -0.0222  0.2615
  363MOL0     C50010  10.200  10.771   4.949 -0.0093  0.3381  0.6510
  363MOL0     C50011   9.976  10.354   4.907  0.7174 -0.4561 -0.1240
  363MOL0     C50012   9.839  10.333   4.935 -0.1578  0.5037  0.0899
  363MOL0     C50013   9.794  10.203   4.965 -0.2368 -0.2161 -0.3978
  363MOL0     C50014   9.885  10.096   4.969  0.0636 -0.5942  0.1679
  363MOL0     O50015   9.847   9.972   4.986 -0.0057 -0.1868 -0.4316
  363MOL0     C50016   9.854   9.881   4.882  0.3484 -0.3968  0.4172
  363MOL0     C50017   9.715   9.850   4.817  0.5715  1.0986  0.1640
  363MOL0     C50018   9.618   9.788   4.915 -0.5604 -0.1396  0.2039
  363MOL0     C50019   9.636   9.635   4.936 -0.5167  0.3830 -0.2904
  363MOL0     C50020   9.554   9.581   5.047 -0.5195  0.3405  0.0136
  363MOL0     C50021   9.478   9.538   5.138 -0.1913 -0.5355 -0.0144
  363MOL0     C50022  10.019  10.125   4.939  0.0501  0.3181  0.1092
  363MOL0     C50023  10.076  10.249   4.913 -0.4923  0.4685 -0.1699
  363MOL0     C50024  10.225  10.261   4.900 -0.7210 -0.6654  0.3084
  363MOL0     H50025  10.237  10.588   4.671  2.6317 -0.5631 -0.0769
  363MOL0     H50026  10.308  10.808   4.584  4.4822  0.2382  0.8236
  363MOL0     H50027  10.199  11.023   4.558 -0.4677  0.2857  0.0067
  363MOL0     H50028  10.364  11.040   4.529  0.7715  0.5672  0.1205
  363MOL0     H50029  10.204  11.236   4.508  0.6879 -1.3933 -1.8472
  363MOL0     H50030  10.245  11.264   4.680 -1.9630  1.7383 -1.9303
  363MOL0     H50031  10.458  11.216   4.464  2.1663 -0.0888  0.9033
  363MOL0     H50032  10.394  11.376   4.478  0.2698 -0.2499 -0.9117
  363MOL0     H50033  10.444  11.390   4.716 -1.2901 -1.0514 -0.6258
  363MOL0     H50034  10.514  11.220   4.715  3.4876  1.5021  2.9833
  363MOL0     H50035  10.617  11.457   4.548 -1.8124 -0.9776 -0.2192
  363MOL0     H50036  10.675  11.301   4.517  2.3294  0.2570  0.9451
  363MOL0     H50037  10.663  11.428   4.787 -1.0168 -3.0584 -0.1340
  363MOL0     H50038  10.761  11.283   4.746  4.0972 -0.5866 -3.2724
  363MOL0     H50039  10.898  11.476   4.767 -1.7213  0.1507  2.0289
  363MOL0     H50040  10.819  11.567   4.644  0.6058  0.8868  3.4419
  363MOL0     H50041  10.897  11.370   4.475  1.2361 -0.4888 -0.3545
  363MOL0     H50042  11.005  11.487   4.538 -2.5145  1.1604 -2.4736
  363MOL0     H50043  11.186  11.417   4.753  2.3517 -1.9713  0.0515
  363MOL0     H50044  11.314  11.069   4.815 -0.8935 -0.2059  3.2075
  363MOL0     H50045  11.319  11.228   4.897  0.9077 -0.8006  0.9281
  363MOL0     H50046  11.448  11.121   4.643 -0.7482  0.6346  0.7596
  363MOL0     H50047  11.395  11.288   4.631  1.9421 -1.6376 -3.3884
  363MOL0     H50048  11.622  11.294   4.706 -1.8793  0.8889 -1.4106
  363MOL0     H50049  11.520  11.346   4.846  3.0633  0.7848  1.5312
  363MOL0     H50050  11.563  11.120   4.940  2.4122 -2.9559  0.7538
  363MOL0     H50051  11.642  11.070   4.789  0.3074 -0.6774  1.2402
  363MOL0     H50052  11.709  10.982   5.049 -0.0754 -1.9131  0.2185
  363MOL0     H50053  11.765  10.783   5.106  0.8334 -1.3098 -1.9603
  363MOL0     H50054  11.896  10.778   5.225  1.1284 -2.9417 -1.4682
  363MOL0     H50055  11.922  10.722   5.067  0.8348 -0.0639  1.5390
  363MOL0     H50056  12.329  10.717   4.977 -2.2436  1.0255  3.3387
  363MOL0     H50057  12.538  10.610   4.939 -0.0350 -1.9966  3.2861
  363MOL0     H50058  12.868  10.879   4.956 -0.4721 -0.6061 -0.1546
  363MOL0     H50059  12.953  10.783   5.093  0.0124 -2.0707  0.5376
  363MOL0     H50060  13.108  10.736   4.919  0.6309 -2.9938 -0.4745
  363MOL0     H50061  13.011  10.610   4.922  0.7498  0.6602  4.0293
  363MOL0     H50062  12.873  10.736   4.725  0.2185  0.0188 -0.1365
  363MOL0     H50063  13.031  10.677   4.688 -0.0779  1.1102 -0.8421
  363MOL0     H50064  12.980  10.959   4.782  0.3576 -0.3773  0.1971
  363MOL0     H50065  12.965  10.901   4.605  2.5629 -0.3528 -1.8427
  363MOL0     H50066  13.207  11.008   4.699  1.2296 -0.2785  1.0582
  363MOL0     H50067  13.222  10.846   4.759  1.0395  0.2156 -1.2643
  363MOL0     H50068  13.200  10.942   4.476  2.9572  0.4359 -0.9001
  363MOL0     H50069  13.189  10.761   4.522  1.5240 -0.8142  1.4642
  363MOL0     H50070  13.405  10.752   4.581 -2.6682 -0.4233  0.4484
  363MOL0     H50071  13.416  10.914   4.649 -0.1975  0.0353  0.4811
  363MOL0     H50072  13.430  11.003   4.432  0.3978  1.0481  1.7928
  363MOL0     H50073  13.439  10.835   4.364  2.1557 -0.5519 -0.1830
  363MOL0     H50074  12.755  10.924   5.134 -0.6723  2.6988 -2.0367
  363MOL0     H50075  12.527  11.029   5.203 -2.0859  1.6392 -1.6922
  363MOL0     H50076  12.169  11.149   5.035 -0.5700 -2.1514  0.8973
  363MOL0     H50077  11.981  11.291   4.927  0.5709  0.0375 -0.1101
  363MOL0     H50078  10.256  10.966   4.987 -1.4648 -1.4731  1.7200
  363MOL0     H50079  10.186  10.753   5.055  5.1395 -0.4309  1.4501
  363MOL0     H50080   9.762  10.410   4.931 -0.4973  0.2027  0.7098
  363MOL0     H50081   9.689  10.186   4.988 -0.0417 -1.5790 -0.4094
  363MOL0     H50082   9.915   9.923   4.802  1.8002 -1.3197  0.9978
  363MOL0     H50083   9.910   9.795   4.920  1.6400  0.2607  0.0479
  363MOL0     H50084   9.721   9.783   4.731  1.7021  2.6463 -1.0233
  363MOL0     H50085   9.685   9.949   4.780  0.1563  0.3509 -1.6220
  363MOL0     H50086   9.621   9.835   5.014 -0.2279  0.4154 -0.0674
  363MOL0     H50087   9.514   9.803   4.884 -0.9095  0.3851  1.5536
  363MOL0     H50088   9.743   9.617   4.952 -0.2518  0.8788 -1.3968
  363MOL0     H50089   9.609   9.584   4.843 -0.6838 -1.5530  0.7804
  363MOL0     H50090   9.420   9.485   5.211  1.3297 -1.2289  0.7279
  363MOL0     H50091  10.085  10.039   4.930  0.3203  0.7168 -2.2040
  363MOL0     H50092  10.272  10.163   4.888 -1.6489 -1.3627  1.9700
  363MOL0     H50093  10.234  10.323   4.810 -2.2116 -0.0302  0.5593
  363MOL0     H50094  10.269  10.312   4.986  2.7441 -0.0514 -1.6600
  364MOL0     O50095   5.756   5.298   7.676  0.3893  0.3777 -0.5218
  364MOL0     C50096   5.686   5.256   7.769  0.4081 -0.0402 -0.0362
  364MOL0     O50097   5.728   5.223   7.895  0.2361 -0.0358 -0.4246
  364MOL0     C50098   5.855   5.268   7.922 -1.0985 -0.4500 -0.4477
  364MOL0     C50099   5.972   5.195   7.932 -0.2146 -0.1394  0.0095
  364MOL0     C50100   6.091   5.260   7.953  0.0335  0.1578 -0.2891
  364MOL0     C50101   6.104   5.398   7.973  0.3365 -0.1636  0.9522
  364MOL0     O50102   6.232   5.459   7.985 -0.5751  0.3037 -0.3290
  364MOL0     C50103   6.247   5.585   8.054  0.2375  0.2893  0.1529
  364MOL0     C50104   6.389   5.586   8.103  0.6908 -0.9081  0.4814
  364MOL0     C50105   6.441   5.726   8.170  0.3570  0.2051  0.3931
  364MOL0     C50106   6.560   5.695   8.263  0.9993 -0.3094 -0.3148
  364MOL0     C50107   6.623   5.822   8.310 -0.2846 -0.7931  0.5716
  364MOL0     C50108   6.777   5.807   8.285  0.6783  0.6774 -0.0207
  364MOL0     C50109   6.841   5.931   8.336  0.9349  0.5603  0.8791
  364MOL0     C50110   6.988   5.917   8.309  0.3304  0.3356 -0.1768
  364MOL0     N50111   7.053   6.033   8.371  0.4269 -0.7484  0.0157
  364MOL0     C50112   7.165   6.014   8.454  0.8867  0.1515  0.5415
  364MOL0     C50113   7.225   6.135   8.439 -0.4996  0.1278  0.4608
  364MOL0     C50114   7.369   6.168   8.501  0.6127 -0.5543 -0.2706
  364MOL0     C50115   7.340   6.269   8.612 -0.5996  0.2164  0.6474
  364MOL0     C50116   7.471   6.335   8.655  0.3189  0.4724  0.5481
  364MOL0     C50117   7.584   6.246   8.696 -1.7858  0.9405 -0.5615
  364MOL0     O50118   7.688   6.331   8.735  0.9473  0.5746 -0.5362
  364MOL0     C50119   7.812   6.269   8.747 -0.1913 -0.2124  0.2071
  364MOL0     C50120   7.846   6.137   8.762  0.1281 -0.9010  0.9171
  364MOL0     C50121   7.980   6.092   8.779 -0.6269  0.7788  0.7764
  364MOL0     C50122   8.021   5.938   8.796  0.0830  0.1142  0.3028
  364MOL0     C50123   8.081   6.181   8.748  0.1758 -1.0674  0.0846
  364MOL0     C50124   8.227   6.165   8.767 -0.2339  0.2883  0.1774
  364MOL0     O50125   8.257   6.074   8.865 -0.5215  0.0364 -0.4670
  364MOL0     C50126   8.387   6.037   8.876 -0.2735 -0.5524  0.5849
  364MOL0     C50127   8.464   5.987   8.769 -0.5771  0.7536  0.0859
  364MOL0     C50128   8.593   5.955   8.794 -0.6878  0.1277 -0.9127
  364MOL0     C50129   8.649   5.946   8.924 -0.2400  0.3702  0.1104
  364MOL0     O50130   8.770   5.884   8.946  0.3059 -0.2797 -0.1861
  364MOL0     C50131   8.860   5.828   8.850  0.5981  0.2744  1.0837
  364MOL0     C50132   8.937   5.726   8.921  0.4531 -0.8589 -0.3781
  364MOL0     C50133   9.051   5.656   8.845 -0.0833 -0.7411 -0.1227
  364MOL0     C50134   9.102   5.542   8.929 -0.5399  0.9369  0.7895
  364MOL0     C50135   9.237   5.492   8.870 -0.2791 -0.3715 -0.2000
  364MOL0     C50136   9.291   5.362   8.941 -0.5444  0.6429  0.6122
  364MOL0     C50137   9.430   5.317   8.880 -0.2198 -0.6410  0.4358
  364MOL0     C50138   9.544   5.423   8.899 -0.6758 -0.5994 -0.3227
  364MOL0    Cl50139   9.536   5.490   9.065  0.4875  0.2934 -0.3931
  364MOL0     C50140   8.575   5.987   9.031  0.4151  0.0361  0.2437
  364MOL0     C50141   8.439   6.034   9.003  0.7830 -0.5246  0.0895
  364MOL0     O50142   8.303   6.227   8.701 -0.2872 -0.2516  0.1220
  364MOL0     C50143   8.052   6.316   8.702  0.0512  0.1999  1.2763
  364MOL0     C50144   7.917   6.353   8.704 -0.5413  0.1380 -0.2384
  364MOL0     N50145   7.153   6.216   8.356 -0.3499  0.0805  1.0971
  364MOL0     N50146   7.049   6.161   8.321  0.2817 -0.0453 -0.5233
  364MOL0     C50147   5.984   5.476   7.978  0.0942  0.4999  0.5214
  364MOL0     C50148   5.864   5.406   7.947 -0.5685 -0.9370 -0.2663
  364MOL0     C50149   5.541   5.242   7.756 -0.4728  0.3613 -0.5844
  364MOL0     C50150   5.462   5.262   7.875  0.4034 -0.1457  0.1446
  364MOL0     C50151   5.321   5.255   7.878  0.5492 -0.3052 -0.1335
  364MOL0     C50152   5.250   5.230   7.758 -0.0667 -0.4696 -1.6343
  364MOL0     O50153   5.114   5.243   7.749 -1.1792  0.0993  0.1830
  364MOL0     C50154   5.042   5.115   7.742 -0.1288 -0.0612 -0.5180
  364MOL0     C50155   4.916   5.109   7.657  0.8531  0.2850 -0.5250
  364MOL0     C50156   4.936   5.160   7.511  0.3207 -0.4293 -0.0717
  364MOL0     C50157   4.823   5.117   7.419  0.0425  0.4719 -0.2614
  364MOL0     C50158   4.790   5.220   7.318 -0.0611  0.0352  0.0880
  364MOL0     C50159   4.752   5.298   7.238 -0.2043  0.0835  0.5606
  364MOL0     C50160   5.328   5.210   7.643 -0.1832 -0.8801 -0.3945
  364MOL0     C50161   5.470   5.215   7.634  0.6106  0.0762 -1.2505
  364MOL0     C50162   5.531   5.185   7.502  0.4063  0.4131  0.2543
  364MOL0     H50163   5.963   5.094   7.893  1.2280  0.6607 -2.6847
  364MOL0     H50164   6.184   5.203   7.957 -1.5253 -2.4966  0.5363
  364MOL0     H50165   6.171   5.591   8.132  0.0075 -3.6307  0.4008
  364MOL0     H50166   6.231   5.661   7.976 -0.6099 -1.0958 -1.0691
  364MOL0     H50167   6.391   5.517   8.188 -0.1923 -0.3207  0.9977
  364MOL0     H50168   6.464   5.553   8.031 -1.1534 -2.0591 -0.9897
  364MOL0     H50169   6.476   5.799   8.097 -1.2352 -0.3089 -0.9362
  364MOL0     H50170   6.352   5.752   8.230  0.8486 -2.7171  2.6467
  364MOL0     H50171   6.531   5.633   8.349  2.8377 -1.4354 -0.4588
  364MOL0     H50172   6.627   5.626   8.211  0.8916 -0.3201 -0.4414
  364MOL0     H50173   6.587   5.834   8.413 -1.4904  0.7230  0.0094
  364MOL0     H50174   6.586   5.908   8.253  0.6783 -1.2292 -0.7440
  364MOL0     H50175   6.813   5.721   8.342  3.2584  1.9104  0.3458
  364MOL0     H50176   6.801   5.790   8.180 -0.2962  1.8947 -0.4627
  364MOL0     H50177   6.814   5.953   8.440 -0.0341  0.1000  0.7315
  364MOL0     H50178   6.805   6.013   8.274  0.0937 -0.1826  0.3576
  364MOL0     H50179   7.022   5.819   8.344 -2.8256 -1.1301 -0.8530
  364MOL0     H50180   7.001   5.924   8.200 -0.3829  0.7344 -0.2450
  364MOL0     H50181   7.210   5.924   8.495 -1.3168 -1.2813  0.0389
  364MOL0     H50182   7.419   6.222   8.420 -0.1819  0.4561 -0.1079
  364MOL0     H50183   7.425   6.082   8.539 -0.1740 -0.3421  1.5071
  364MOL0     H50184   7.260   6.340   8.587 -0.9346  0.3918  2.1146
  364MOL0     H50185   7.311   6.208   8.698 -2.3615  0.2670  0.1356
  364MOL0     H50186   7.502   6.397   8.570  1.7648  0.6399  1.1628
  364MOL0     H50187   7.454   6.405   8.738  0.1576 -0.5904  1.4256
  364MOL0     H50188   7.554   6.185   8.782 -0.9413  0.0228 -0.8960
  364MOL0     H50189   7.624   6.176   8.622  1.5090  2.0046  0.0482
  364MOL0     H50190   7.776   6.055   8.774  0.0673 -1.1977 -1.1235
  364MOL0     H50191   7.931   5.885   8.764 -2.9846  5.6782 -1.4387
  364MOL0     H50192   8.057   5.909   8.896  1.1571 -2.5034 -0.7335
  364MOL0     H50193   8.109   5.908   8.738  0.3183  0.8759  0.2521
  364MOL0     H50194   8.419   5.977   8.671 -1.5536  2.6257  0.3083
  364MOL0     H50195   8.657   5.924   8.712 -0.5846  1.3980 -1.3384
  364MOL0     H50196   8.808   5.774   8.771  2.2432 -0.6476  0.5764
  364MOL0     H50197   8.928   5.898   8.798  0.8790 -2.1308 -2.1090
  364MOL0     H50198   8.983   5.773   9.009  0.2926  0.1553 -0.8147
  364MOL0     H50199   8.859   5.661   8.961 -2.1677  2.3845  0.2881
  364MOL0     H50200   9.126   5.732   8.825  0.5023 -2.0207 -3.4625
  364MOL0     H50201   9.018   5.626   8.745 -2.4246 -1.1512  0.7090
  364MOL0     H50202   9.032   5.459   8.915 -2.2885  2.4711 -0.0288
  364MOL0     H50203   9.121   5.582   9.029  1.1581  2.0568  0.0617
  364MOL0     H50204   9.225   5.479   8.763 -1.3120  2.6112 -0.5335
  364MOL0     H50205   9.313   5.568   8.896  1.9657 -2.4167 -0.4360
  364MOL0     H50206   9.224   5.277   8.923  1.2675 -0.1897 -3.3671
  364MOL0     H50207   9.298   5.374   9.049 -0.7700  1.1724  0.5702
  364MOL0     H50208   9.417   5.290   8.775 -2.2198 -0.3244  0.5587
  364MOL0     H50209   9.459   5.223   8.928 -4.7456 -3.1262 -1.0731
  364MOL0     H50210   9.522   5.514   8.843  2.6386 -0.5120 -1.7491
  364MOL0     H50211   9.642   5.385   8.868  0.3181 -0.0712  1.9461
  364MOL0     H50212   8.610   5.979   9.133 -1.8437 -2.8006  0.9472
  364MOL0     H50213   8.374   6.070   9.082 -2.6871 -2.9002 -1.4684
  364MOL0     H50214   8.126   6.392   8.678 -0.5450 -0.0513 -1.7204
  364MOL0     H50215   7.890   6.451   8.667  1.4897  1.0709  0.6020
  364MOL0     H50216   5.981   5.584   7.992 -2.2638  0.6815 -0.9087
  364MOL0     H50217   5.770   5.461   7.941 -0.0770 -0.0954 -0.4905
  364MOL0     H50218   5.503   5.278   7.974 -0.5012 -2.7142  1.0264
  364MOL0     H50219   5.258   5.295   7.957 -2.2230  0.9631 -2.7790
  364MOL0     H50220   5.113   5.045   7.698 -0.0332 -0.2316 -0.0992
  364MOL0     H50221   5.020   5.082   7.844 -1.1357 -1.3068 -1.1059
  364MOL0     H50222   4.839   5.170   7.706 -0.3880 -0.1168 -1.8987
  364MOL0     H50223   4.871   5.009   7.651 -0.1090  0.7694 -1.9006
  364MOL0     H50224   4.949   5.269   7.503 -2.8253  0.0694  0.4059
  364MOL0     H50225   5.028   5.118   7.468 -0.0862 -0.2187 -1.1946
  364MOL0     H50226   4.743   5.079   7.483 -0.3098 -0.0690 -1.0219
  364MOL0     H50227   4.863   5.039   7.354 -2.1602  0.1815 -1.3604
  364MOL0     H50228   4.702   5.368   7.174 -0.2301 -0.3706  0.0764
  364MOL0     H50229   5.275   5.208   7.549  0.4241  2.0609 -0.9116
  364MOL0     H50230   5.579   5.087   7.503  1.2347  0.7906 -0.5920
  364MOL0     H50231   5.456   5.188   7.423  0.3165 -0.7369  0.2735
  364MOL0     H50232   5.610   5.260   7.491 -0.8659  1.8200  0.4920
  365MOL0     O50233   8.042   0.187   9.984  0.3745 -0.0183  0.2867
  365MOL0     C50234   7.961   0.234  10.063 -0.1483 -1.0477  0.0529
  365MOL0     O50235   8.004   0.277  10.184  0.3476  0.2526  0.0719
  365MOL0     C50236   8.134   0.301  10.210  0.2906  1.1080  0.2894
  365MOL0     C50237   8.197   0.408  10.149  0.4742 -0.4357  0.1314
  365MOL0     C50238   8.323   0.449  10.195  0.2670 -0.2835 -0.5891
  365MOL0     C50239   8.394   0.384  10.289 -0.0718 -0.5737 -0.2821
  365MOL0     O50240   8.507   0.441  10.340  0.2243 -0.3339 -0.2937
  365MOL0     C50241   8.604   0.358  10.395 -0.4526  0.0669  0.0933
  365MOL0     C50242   8.734   0.440  10.408  0.5559  0.0552 -0.3371
  365MOL0     C50243   8.831   0.378  10.515  0.7064 -0.0138  0.0839
  365MOL0     C50244   8.956   0.467  10.534  0.3572  0.5458  0.0955
  365MOL0     C50245   9.044   0.386  10.635  0.5644 -0.8829  0.7055
  365MOL0     C50246   9.159   0.483  10.679 -0.2004 -0.5969  0.7667
  365MOL0     C50247   9.240   0.431  10.800  0.8832  0.2245 -0.1019
  365MOL0     C50248   9.336   0.314  10.771  0.4921 -0.2541  0.6829
  365MOL0     N50249   9.413   0.286  10.892  0.0923  0.8834  0.8073
  365MOL0     C50250   9.380   0.213  11.000 -0.0742  0.2836  0.3311
  365MOL0     C50251   9.493   0.210  11.074 -0.1769  0.5277  0.4529
  365MOL0     C50252   9.513   0.122  11.193 -0.0746  0.3062  0.5410
  365MOL0     C50253   9.639   0.048  11.182 -0.4775  0.7205  0.1785
  365MOL0     C50254   9.673  -0.043  11.305 -0.0871  0.1647  0.3040
  365MOL0     C50255   9.806  -0.122  11.284  0.4698  0.3761 -0.5339
  365MOL0     O50256   9.848  -0.188  11.395  0.6769 -0.3467  0.1396
  365MOL0     C50257   9.973  -0.255  11.395  0.1716  0.5410  0.4304
  365MOL0     C50258   9.998  -0.346  11.498  0.2568 -0.3696 -0.3462
  365MOL0     C50259  10.119  -0.416  11.512 -0.4027  0.8696 -0.0650
  365MOL0     C50260  10.131  -0.511  11.633 -0.0202  0.1406 -0.3714
  365MOL0     C50261  10.220  -0.402  11.405 -0.1975  0.3840 -0.5986
  365MOL0     C50262  10.345  -0.474  11.408  0.7940  0.4598  0.0484
  365MOL0     O50263  10.414  -0.487  11.525 -0.3922  0.0565 -1.0573
  365MOL0     C50264  10.526  -0.562  11.532  0.4369 -0.2664  0.0033
  365MOL0     C50265  10.517  -0.696  11.558 -0.2522 -0.2462 -0.1841
  365MOL0     C50266  10.641  -0.773  11.577  0.6803  0.3346 -0.3075
  365MOL0     C50267  10.768  -0.712  11.558 -0.0204 -0.1092  0.7804
  365MOL0     O50268  10.889  -0.769  11.561  0.3238  0.3640  0.3913
  365MOL0     C50269  10.910  -0.876  11.660 -0.1290  0.1620 -0.0446
  365MOL0     C50270  11.053  -0.864  11.706  0.1916 -0.0991 -0.4446
  365MOL0     C50271  11.158  -0.854  11.596 -0.0176  0.2836 -0.3109
  365MOL0     C50272  11.290  -0.796  11.656 -0.1813  0.8279  0.0328
  365MOL0     C50273  11.408  -0.790  11.560 -0.5835 -0.2445 -0.1589
  365MOL0     C50274  11.540  -0.798  11.641 -0.1235  1.1882 -0.6330
  365MOL0     C50275  11.653  -0.779  11.542 -0.3058 -1.0431  0.6129
  365MOL0     C50276  11.670  -0.887  11.434 -0.0427 -0.1265  0.3861
  365MOL0    Cl50277  11.711  -1.034  11.529  0.3521 -0.0339 -0.4296
  365MOL0     C50278  10.769  -0.576  11.520  0.3183  0.4123  0.4831
  365MOL0     C50279  10.649  -0.503  11.508  0.0974 -0.1051 -0.0154
  365MOL0     O50280  10.375  -0.525  11.302  0.3289  0.1671  0.2329
  365MOL0     C50281  10.188  -0.315  11.297  0.3599  0.8068 -0.5014
  365MOL0     C50282  10.063  -0.248  11.288 -0.7745  0.4954  0.2386
  365MOL0     N50283   9.589   0.301  11.027  0.1621  0.6387  0.6784
  365MOL0     N50284   9.539   0.347  10.916 -0.6880  1.6676  0.0639
  365MOL0     C50285   8.341   0.266  10.334 -0.2946  0.4311  0.8827
  365MOL0     C50286   8.209   0.223  10.299 -0.1655 -0.3861 -0.7914
  365MOL0     C50287   7.817   0.249  10.025 -1.2291  0.3093  0.6332
  365MOL0     C50288   7.721   0.298  10.114  0.8136  0.1380  0.8794
  365MOL0     C50289   7.595   0.336  10.077 -0.4593  0.1313  0.3531
  365MOL0     C50290   7.547   0.297   9.946  0.1354 -0.3682 -1.3231
  365MOL0     O50291   7.415   0.329   9.905 -0.3811 -0.4118  0.1270
  365MOL0     C50292   7.371   0.324   9.768  0.6661  0.0768 -0.6179
  365MOL0     C50293   7.225   0.365   9.762  0.3822  0.4480 -1.5823
  365MOL0     C50294   7.205   0.499   9.820  0.6640 -0.4061 -1.7284
  365MOL0     C50295   7.246   0.617   9.733 -0.0581 -1.0481 -0.6901
  365MOL0     C50296   7.385   0.647   9.758 -0.3504  0.1800 -1.0804
  365MOL0     C50297   7.508   0.666   9.776  0.2153 -1.2303  0.7103
  365MOL0     C50298   7.634   0.231   9.865 -0.3386 -0.4180 -0.2046
  365MOL0     C50299   7.761   0.197   9.899 -1.0492 -0.5637 -0.4002
  365MOL0     C50300   7.835   0.103   9.809 -0.1505 -0.1727 -0.5381
  365MOL0     H50301   8.153   0.470  10.071  1.3863 -1.0812 -0.9304
  365MOL0     H50302   8.367   0.537  10.151 -4.4327  1.7509 -1.9058
  365MOL0     H50303   8.630   0.267  10.340  2.0499  0.4574  0.5128
  365MOL0     H50304   8.581   0.323  10.496  0.0771 -0.1948  0.1313
  365MOL0     H50305   8.789   0.459  10.316 -0.7048 -1.5302 -1.4831
  365MOL0     H50306   8.700   0.535  10.450 -0.1719 -0.7479  0.9826
  365MOL0     H50307   8.776   0.365  10.609 -2.6248  1.0126 -1.6101
  365MOL0     H50308   8.859   0.279  10.478 -2.3413 -0.6011 -0.9125
  365MOL0     H50309   9.002   0.484  10.436  0.5138 -0.1542  0.0425
  365MOL0     H50310   8.932   0.568  10.568 -1.0979  0.3629 -0.2902
  365MOL0     H50311   9.084   0.292  10.597 -0.7178 -1.1109 -0.1321
  365MOL0     H50312   8.988   0.357  10.725  1.6265  0.2005  1.7571
  365MOL0     H50313   9.223   0.482  10.591 -0.4504 -2.1960  0.5701
  365MOL0     H50314   9.120   0.581  10.706  1.7297 -0.3496  2.9345
  365MOL0     H50315   9.164   0.407  10.876 -0.4413 -1.4200 -1.8623
  365MOL0     H50316   9.301   0.510  10.844 -1.0826  1.1936  1.0554
  365MOL0     H50317   9.268   0.235  10.738 -0.1020  1.6756 -3.2154
  365MOL0     H50318   9.406   0.336  10.689  2.1772 -2.1025  1.5274
  365MOL0     H50319   9.292   0.151  11.010  1.4951 -2.1011  0.1549
  365MOL0     H50320   9.426   0.058  11.209  0.1035  0.2686  1.3937
  365MOL0     H50321   9.511   0.188  11.280 -2.0681  1.0032  0.0217
  365MOL0     H50322   9.641  -0.021  11.097  2.0572 -4.9725  4.1877
  365MOL0     H50323   9.715   0.126  11.188  0.4449 -0.2518  3.4111
  365MOL0     H50324   9.672   0.018  11.396 -1.0374  0.6892 -0.0385
  365MOL0     H50325   9.587  -0.108  11.324  1.2979 -1.9995 -0.5502
  365MOL0     H50326   9.787  -0.198  11.208  1.3344 -1.4431  0.9632
  365MOL0     H50327   9.884  -0.052  11.253 -0.6148  2.5491  1.3177
  365MOL0     H50328   9.925  -0.371  11.574  1.0953 -3.7828 -0.4777
  365MOL0     H50329  10.207  -0.471  11.701  1.1547  0.6432 -1.8922
  365MOL0     H50330  10.169  -0.609  11.604  2.4272  1.0849 -0.6221
  365MOL0     H50331  10.036  -0.531  11.683  0.9989 -1.2696  1.0947
  365MOL0     H50332  10.416  -0.731  11.578 -1.1029  1.7077 -0.8040
  365MOL0     H50333  10.624  -0.871  11.621 -3.0455  1.9376  2.4122
  365MOL0     H50334  10.846  -0.867  11.748 -0.6102 -2.2038 -0.0861
  365MOL0     H50335  10.898  -0.972  11.609  0.6985  0.5388 -0.9823
  365MOL0     H50336  11.064  -0.795  11.790 -2.6563 -2.6934  2.3014
  365MOL0     H50337  11.084  -0.958  11.753  0.0503  0.3362  0.5510
  365MOL0     H50338  11.137  -0.784  11.514 -2.1004 -0.3431 -0.3632
  365MOL0     H50339  11.183  -0.948  11.545 -0.2699  1.7004 -3.2714
  365MOL0     H50340  11.309  -0.857  11.744  0.1328  0.3725 -0.3428
  365MOL0     H50341  11.255  -0.697  11.687  0.2949  2.2194 -3.4051
  365MOL0     H50342  11.398  -0.876  11.493  0.6054 -2.6254  2.5295
  365MOL0     H50343  11.390  -0.712  11.486 -3.1981 -1.4272 -0.8653
  365MOL0     H50344  11.548  -0.885  11.706 -0.8522  1.3517 -0.3081
  365MOL0     H50345  11.553  -0.717  11.714  0.1054  0.5039  0.1076
  365MOL0     H50346  11.749  -0.773  11.595 -0.8689 -1.8371  1.7755
  365MOL0     H50347  11.632  -0.693  11.479 -0.6076 -1.5944 -0.0428
  365MOL0     H50348  11.755  -0.870  11.367 -0.4037  1.3094  0.2516
  365MOL0     H50349  11.574  -0.896  11.380  0.3774  1.3409 -0.6814
  365MOL0     H50350  10.860  -0.523  11.495  0.8323 -1.4483 -1.8218
  365MOL0     H50351  10.651  -0.397  11.484 -1.7823  0.5550  2.4632
  365MOL0     H50352  10.260  -0.311  11.216  0.8805 -0.3632 -0.1204
  365MOL0     H50353  10.049  -0.179  11.205 -0.2216  0.0822 -0.2099
  365MOL0     H50354   8.395   0.211  10.410 -0.5007 -4.4766 -2.0795
  365MOL0     H50355   8.161   0.137  10.344 -0.7354  0.3804  0.1294
  365MOL0     H50356   7.748   0.325  10.216  3.4030 -0.3699  0.4139
  365MOL0     H50357   7.536   0.383  10.156 -2.9645 -2.9964  0.5530
  365MOL0     H50358   7.431   0.396   9.711 -0.0632  2.3013  1.3044
  365MOL0     H50359   7.389   0.222   9.732 -0.1807  0.3574 -1.8859
  365MOL0     H50360   7.170   0.295   9.825  0.6687 -1.3746 -3.2649
  365MOL0     H50361   7.176   0.341   9.667 -0.5463 -3.3951 -0.3042
  365MOL0     H50362   7.096   0.505   9.829  0.7669 -0.6979  0.1677
  365MOL0     H50363   7.245   0.507   9.922 -0.8492  0.1276 -1.1542
  365MOL0     H50364   7.185   0.704   9.758  0.7375 -0.9489  1.0742
  365MOL0     H50365   7.229   0.597   9.627 -0.0690  1.0872 -1.1289
  365MOL0     H50366   7.614   0.678   9.786  0.0554  2.5992 -0.6459
  365MOL0     H50367   7.592   0.190   9.774 -0.1350  0.3998 -0.6837
  365MOL0     H50368   7.898   0.166   9.746  0.3355  1.3497  1.3634
  365MOL0     H50369   7.896   0.035   9.870 -2.2828 -1.8119 -0.1226
  365MOL0     H50370   7.767   0.045   9.746 -0.9602 -0.1269  0.2809
  366MOL0     O50371   4.236   9.837   8.958  0.3179  0.0609 -0.3560
  366MOL0     C50372   4.239   9.964   8.964 -0.1363 -0.0086  0.7795
  366MOL0     O50373   4.128  10.046   8.972 -0.0204  0.3028 -0.3931
  366MOL0     C50374   4.006   9.994   8.988  0.1005  0.0688 -0.2167
  366MOL0     C50375   3.933  10.008   9.109 -0.1104  0.4987 -0.9205
  366MOL0     C50376   3.809   9.952   9.139  0.2010 -1.3685 -0.3312
  366MOL0     C50377   3.742   9.887   9.034 -0.3963 -0.4707  0.2109
  366MOL0     O50378   3.611   9.857   9.051  0.3717  0.4029 -0.2859
  366MOL0     C50379   3.600   9.719   9.097 -0.2091  0.1387  0.1567
  366MOL0     C50380   3.452   9.676   9.114  0.4556  0.3434  0.2250
  366MOL0     C50381   3.419   9.624   9.258 -0.5972  0.3152  0.5038
  366MOL0     C50382   3.433   9.741   9.364  0.5448  0.0215  0.2883
  366MOL0     C50383   3.472   9.690   9.505  1.4224  0.3683  0.0325
  366MOL0     C50384   3.620   9.655   9.504 -0.2655 -0.5193  1.1155
  366MOL0     C50385   3.680   9.627   9.640  0.1502  0.0372 -0.3441
  366MOL0     C50386   3.620   9.501   9.713 -0.0012  0.8586 -0.0836
  366MOL0     N50387   3.488   9.525   9.773 -0.3569  1.1377 -0.1635
  366MOL0     C50388   3.460   9.628   9.850 -0.8503  0.2153 -0.6253
  366MOL0     C50389   3.332   9.613   9.875 -0.1906  0.0081  0.1168
  366MOL0     C50390   3.234   9.711   9.939  0.3605 -0.5551 -0.2245
  366MOL0     C50391   3.117   9.741   9.844  0.1922  0.1310  0.3546
  366MOL0     C50392   3.043   9.865   9.889  0.2861 -0.2126  0.4050
  366MOL0     C50393   2.898   9.870   9.843 -0.5874 -0.1538 -0.2003
  366MOL0     O50394   2.871   9.826   9.705  0.2482  0.0772 -0.1976
  366MOL0     C50395   2.935   9.902   9.602  0.5088 -0.3730 -0.3488
  366MOL0     C50396   2.956  10.037   9.610 -0.6462 -0.2675 -0.8301
  366MOL0     C50397   3.034  10.099   9.517 -0.0738 -0.2590 -0.2336
  366MOL0     C50398   3.069  10.248   9.534  0.0572  0.2610  0.5785
  366MOL0     C50399   3.080  10.018   9.401  0.4310 -1.5265  0.2192
  366MOL0     C50400   3.165  10.081   9.285  0.4883  0.5941 -0.5498
  366MOL0     O50401   3.253  10.188   9.307 -0.0814  0.1698  0.4645
  366MOL0     C50402   3.335  10.227   9.206  0.8018  0.8783  0.5814
  366MOL0     C50403   3.416  10.134   9.137 -0.8088 -0.3929  0.1194
  366MOL0     C50404   3.516  10.178   9.051 -0.3419  0.2289 -0.5537
  366MOL0     C50405   3.542  10.316   9.044  0.0128  0.0438 -0.0560
  366MOL0     O50406   3.641  10.374   8.972  0.7099  0.0894  0.1137
  366MOL0     C50407   3.710  10.282   8.876 -0.3952 -0.0679 -0.2542
  366MOL0     C50408   3.801  10.347   8.768  0.4179  0.2042 -0.3147
  366MOL0     C50409   3.919  10.262   8.737 -0.0560  0.9529  0.3990
  366MOL0     C50410   3.993  10.326   8.619  0.0639  0.4712  0.0463
  366MOL0     C50411   4.139  10.286   8.614 -0.0980  0.5381 -0.4883
  366MOL0     C50412   4.206  10.311   8.479  0.7087  0.3204 -0.4062
  366MOL0     C50413   4.358  10.279   8.491  0.1337  0.4335 -0.2318
  366MOL0     C50414   4.428  10.296   8.358  0.2959  0.1690 -0.8364
  366MOL0    Cl50415   4.580  10.205   8.372  0.0989  0.5161  0.2961
  366MOL0     C50416   3.459  10.406   9.098  0.3135  0.8399 -0.3787
  366MOL0     C50417   3.357  10.359   9.190  0.2243 -0.0461  1.4570
  366MOL0     O50418   3.163  10.008   9.184  0.5454  0.9434  0.2470
  366MOL0     C50419   3.065   9.884   9.407  0.2436  0.1516 -0.6428
  366MOL0     C50420   2.992   9.822   9.509  0.7247  0.3951 -0.5358
  366MOL0     N50421   3.289   9.486   9.828  0.2111 -0.9968  0.0613
  366MOL0     N50422   3.390   9.429   9.774  0.0619 -0.3528  0.5534
  366MOL0     C50423   3.803   9.888   8.912 -0.6683  0.0036 -0.2849
  366MOL0     C50424   3.937   9.925   8.885  0.6847 -0.5645  0.2626
  366MOL0     C50425   4.373  10.023   8.919  0.4036  0.9775  0.3259
  366MOL0     C50426   4.368  10.157   8.876 -0.0433  0.0395  0.3571
  366MOL0     C50427   4.482  10.216   8.819 -0.3918 -0.7269 -0.5084
  366MOL0     C50428   4.601  10.148   8.819  0.0029  0.3404  0.2852
  366MOL0     O50429   4.731  10.193   8.779 -0.8690  0.8936 -0.4459
  366MOL0     C50430   4.742  10.331   8.749 -0.0171  0.5134 -0.1707
  366MOL0     C50431   4.886  10.359   8.737  0.1943 -0.0417  0.0020
  366MOL0     C50432   4.938  10.322   8.598 -0.8569  0.7669 -0.0801
  366MOL0     C50433   5.097  10.322   8.587 -0.0185  0.2948  0.3566
  366MOL0     C50434   5.138  10.301   8.445  0.1053 -0.1233  1.1457
  366MOL0     C50435   5.186  10.278   8.338  0.8112  0.8918  0.5263
  366MOL0     C50436   4.613  10.016   8.884 -0.6728 -0.9414  0.9598
  366MOL0     C50437   4.498   9.949   8.921  0.0278  0.9727  0.1633
  366MOL0     C50438   4.519   9.798   8.955  1.1655 -0.3430 -0.4404
  366MOL0     H50439   3.998  10.061   9.178 -3.4350  1.7189  1.6093
  366MOL0     H50440   3.784   9.961   9.244  1.4802  0.7301 -0.1424
  366MOL0     H50441   3.649   9.716   9.196 -0.3384  2.1061  0.3268
  366MOL0     H50442   3.656   9.650   9.033  1.2035  1.0736  0.3288
  366MOL0     H50443   3.381   9.757   9.098 -0.4486 -0.3403  0.7278
  366MOL0     H50444   3.439   9.606   9.031  1.1546  0.4901 -0.0262
  366MOL0     H50445   3.326   9.567   9.268  0.4345 -1.1429  2.4161
  366MOL0     H50446   3.489   9.548   9.293 -0.1915  1.7048  2.9061
  366MOL0     H50447   3.492   9.821   9.320 -1.3557  1.0692 -0.4960
  366MOL0     H50448   3.332   9.783   9.367  0.2366 -0.7279  1.0890
  366MOL0     H50449   3.417   9.598   9.526  0.4975 -0.0060 -3.4076
  366MOL0     H50450   3.444   9.768   9.576 -4.6464 -0.7145 -0.6669
  366MOL0     H50451   3.642   9.574   9.435  1.7568 -0.4017  1.5724
  366MOL0     H50452   3.677   9.742   9.471  2.5472 -3.4305 -2.5843
  366MOL0     H50453   3.690   9.708   9.713  0.8741 -0.6595  0.3671
  366MOL0     H50454   3.785   9.602   9.624  0.1300  0.7041 -1.5283
  366MOL0     H50455   3.604   9.422   9.639  0.5078  0.1668  0.5260
  366MOL0     H50456   3.682   9.459   9.793 -1.5799  0.9805  1.2501
  366MOL0     H50457   3.525   9.709   9.883  1.5928 -1.6917 -0.3817
  366MOL0     H50458   3.283   9.805   9.965  2.7773 -2.2788  1.9365
  366MOL0     H50459   3.202   9.669  10.034 -1.4433 -0.4536 -0.7403
  366MOL0     H50460   3.159   9.745   9.743 -2.5804  0.3192 -0.8979
  366MOL0     H50461   3.050   9.655   9.845 -1.3056  1.1493 -2.0368
  366MOL0     H50462   3.035   9.872   9.998  0.3276  1.2135  0.3273
  366MOL0     H50463   3.095   9.949   9.845 -0.4365  0.5718  1.0111
  366MOL0     H50464   2.844   9.799   9.906  0.7524 -0.2917  0.8372
  366MOL0     H50465   2.850   9.967   9.863 -0.8491 -0.5648  1.3299
  366MOL0     H50466   2.908  10.096   9.688  2.9783 -0.1281  1.5760
  366MOL0     H50467   3.034  10.272   9.635  1.0706 -0.7984  1.2217
  366MOL0     H50468   3.005  10.304   9.466 -2.6976 -3.5565 -0.3135
  366MOL0     H50469   3.178  10.247   9.517 -0.1351 -1.0229 -0.8125
  366MOL0     H50470   3.405  10.026   9.151 -0.3157 -0.9138 -2.8806
  366MOL0     H50471   3.578  10.101   9.006 -0.8250  1.0273 -2.6492
  366MOL0     H50472   3.766  10.216   8.944 -3.5160 -2.4418  0.2234
  366MOL0     H50473   3.636  10.228   8.817  0.0134 -2.3118  1.1250
  366MOL0     H50474   3.742  10.369   8.678 -1.1630 -0.3702  0.5626
  366MOL0     H50475   3.833  10.440   8.816  1.3635 -0.9178  1.3161
  366MOL0     H50476   3.909  10.154   8.721  2.1294  0.8573 -0.5996
  366MOL0     H50477   3.986  10.266   8.823  0.0283 -0.9244  0.4708
  366MOL0     H50478   3.996  10.435   8.634 -1.7130  0.8170 -1.6497
  366MOL0     H50479   3.949  10.312   8.520  0.2515  0.5326 -0.0441
  366MOL0     H50480   4.178  10.351   8.694  0.0252  0.6407 -0.6300
  366MOL0     H50481   4.156  10.180   8.633 -2.9802  0.2639  1.1143
  366MOL0     H50482   4.187  10.410   8.437  0.4116 -0.1574 -1.4435
  366MOL0     H50483   4.158  10.240   8.410 -1.6354  0.6345  0.7860
  366MOL0     H50484   4.370  10.177   8.528  0.1418  0.2613 -0.7065
  366MOL0     H50485   4.413  10.346   8.558  1.1973 -0.3565 -0.2902
  366MOL0     H50486   4.438  10.403   8.338  1.9128  0.2732  0.3059
  366MOL0     H50487   4.380  10.251   8.271 -1.4086 -1.5481  0.8706
  366MOL0     H50488   3.470  10.510   9.069  2.7453  0.7489  0.0126
  366MOL0     H50489   3.291  10.434   9.232  0.4027  1.0160 -0.0614
  366MOL0     H50490   3.110   9.818   9.333 -0.8590 -0.4462 -0.7921
  366MOL0     H50491   2.974   9.715   9.518 -4.5728  1.0423  0.0183
  366MOL0     H50492   3.744   9.851   8.829 -0.2777  0.3861 -0.7396
  366MOL0     H50493   3.968   9.912   8.782 -0.1138  1.4685 -0.2728
  366MOL0     H50494   4.274  10.212   8.878 -0.0899  0.0572 -1.2390
  366MOL0     H50495   4.479  10.317   8.781 -1.8215 -0.7548 -0.5311
  366MOL0     H50496   4.686  10.355   8.658 -1.8214  0.4687  0.8811
  366MOL0     H50497   4.696  10.395   8.826 -1.0057  0.8302 -0.9914
  366MOL0     H50498   4.945  10.315   8.818 -0.4092 -0.3244  0.2889
  366MOL0     H50499   4.904  10.466   8.752  1.0295 -0.1577 -0.1200
  366MOL0     H50500   4.901  10.222   8.575  2.4125 -0.1427 -2.0372
  366MOL0     H50501   4.901  10.394   8.525 -2.4728 -2.6541 -2.9545
  366MOL0     H50502   5.142  10.255   8.661 -0.4897 -0.9690 -0.4720
  366MOL0     H50503   5.133  10.422   8.612  2.4085 -0.0726 -1.3083
  366MOL0     H50504   5.228  10.257   8.241  0.1264  0.5710  0.2943
  366MOL0     H50505   4.709   9.965   8.881  0.9430  1.9461 -0.5784
  366MOL0     H50506   4.466   9.739   8.880 -1.9023  1.2325  0.3090
  366MOL0     H50507   4.623   9.767   8.972  0.4012 -2.7351  0.3059
  366MOL0     H50508   4.477   9.776   9.054  0.6834  4.6466  0.7385
  367MOL0     O50509   2.915   3.552   9.335 -0.1500  0.0874  0.5955
  367MOL0     C50510   2.991   3.489   9.258 -0.1081 -0.3177 -0.5123
  367MOL0     O50511   3.022   3.351   9.261 -0.2296 -0.6550 -0.7334
  367MOL0     C50512   2.958   3.279   9.360 -0.1786 -0.1558 -0.0526
  367MOL0     C50513   2.821   3.252   9.364 -0.1442 -0.3866 -0.3411
  367MOL0     C50514   2.764   3.186   9.473 -0.0508  0.1047 -0.8657
  367MOL0     C50515   2.847   3.139   9.583  0.0559 -0.5058  0.4625
  367MOL0     O50516   2.807   3.064   9.699  0.6458 -0.0844 -0.4535
  367MOL0     C50517   2.694   3.126   9.776  0.2923 -0.1372 -0.2287
  367MOL0     C50518   2.672   3.031   9.899  0.8584  0.4039  0.0950
  367MOL0     C50519   2.790   3.038  10.005  0.4173  0.0411  0.4357
  367MOL0     C50520   2.844   3.181  10.041 -0.0101 -0.3535  0.2580
  367MOL0     C50521   2.954   3.175  10.145 -0.5265 -1.0186 -0.2027
  367MOL0     C50522   3.076   3.096  10.090 -0.7653  0.3840 -0.0588
  367MOL0     C50523   3.212   3.152  10.129 -0.1193 -0.5690 -0.6075
  367MOL0     C50524   3.239   3.189  10.281  1.0084 -0.5271 -0.5397
  367MOL0     N50525   3.375   3.227  10.303 -0.2059 -0.0962 -0.9282
  367MOL0     C50526   3.428   3.230  10.425  0.5113 -0.0346 -0.7123
  367MOL0     C50527   3.547   3.271  10.409 -0.1730  0.0492  0.5131
  367MOL0     C50528   3.641   3.299  10.523  0.0076  0.3722  0.5457
  367MOL0     C50529   3.753   3.193  10.510 -0.1509 -0.2256  0.2288
  367MOL0     C50530   3.851   3.192  10.631 -0.4690 -0.1137 -0.3066
  367MOL0     C50531   3.991   3.142  10.609  0.2163  0.7353 -0.5283
  367MOL0     O50532   4.057   3.203  10.494  0.1350  0.0697  0.2827
  367MOL0     C50533   4.193   3.181  10.480 -0.5623 -0.4680  1.3664
  367MOL0     C50534   4.269   3.077  10.535 -0.9896 -0.0170  0.5406
  367MOL0     C50535   4.407   3.063  10.530 -0.3414 -0.3795 -0.1721
  367MOL0     C50536   4.469   2.935  10.586 -0.3163  0.2741  0.4638
  367MOL0     C50537   4.466   3.157  10.445 -0.7570  0.8507  0.0591
  367MOL0     C50538   4.612   3.164  10.430  0.2603  0.5868 -0.5429
  367MOL0     O50539   4.685   3.148  10.540 -0.1609  0.1838  0.6596
  367MOL0     C50540   4.819   3.121  10.545  0.1006 -0.1304  0.6848
  367MOL0     C50541   4.887   3.029  10.462 -0.2380  0.1401  1.0948
  367MOL0     C50542   5.019   2.986  10.495  0.1827 -0.0139 -0.7148
  367MOL0     C50543   5.087   3.056  10.594 -1.1198  0.9772  0.3913
  367MOL0     O50544   5.222   3.029  10.619 -0.3294  0.0941  0.5000
  367MOL0     C50545   5.298   2.977  10.517 -0.3557  0.4164 -0.0455
  367MOL0     C50546   5.440   2.971  10.572 -0.3043  0.2091 -0.0625
  367MOL0     C50547   5.520   3.101  10.544 -0.0791  0.6995 -0.3009
  367MOL0     C50548   5.669   3.077  10.574 -0.6005  0.0109 -0.5959
  367MOL0     C50549   5.738   3.215  10.583  0.6673 -1.4447 -0.1677
  367MOL0     C50550   5.888   3.232  10.555  0.5870  0.2318 -0.6950
  367MOL0     C50551   5.971   3.145  10.661  0.5560 -0.3611  0.7048
  367MOL0     C50552   6.127   3.165  10.660 -0.0656 -0.6684  0.0215
  367MOL0    Cl50553   6.167   3.337  10.687  0.3539  0.0105  0.4357
  367MOL0     C50554   5.029   3.155  10.675 -0.1180 -0.0855 -0.4132
  367MOL0     C50555   4.887   3.180  10.649 -0.1758  0.5159 -0.2661
  367MOL0     O50556   4.651   3.195  10.314 -0.1713 -0.1831  0.0633
  367MOL0     C50557   4.389   3.252  10.371 -0.5141  0.3110  0.0183
  367MOL0     C50558   4.253   3.265  10.390 -0.7692  0.0210  0.4747
  367MOL0     N50559   3.581   3.292  10.282  0.5887 -1.4387 -0.5995
  367MOL0     N50560   3.471   3.273  10.218 -0.0623  0.3823  0.4024
  367MOL0     C50561   2.989   3.169   9.573 -0.6752 -0.9226  0.2550
  367MOL0     C50562   3.041   3.233   9.461  0.3826  0.0631 -0.7864
  367MOL0     C50563   3.042   3.553   9.140 -0.3625 -0.5254 -0.0619
  367MOL0     C50564   3.061   3.482   9.019 -0.2004  1.0252 -0.1181
  367MOL0     C50565   3.108   3.540   8.906  0.0655 -0.3437 -0.5515
  367MOL0     C50566   3.120   3.682   8.902  0.2004  0.1343  0.7135
  367MOL0     O50567   3.161   3.759   8.792 -0.4495  0.5270 -0.6356
  367MOL0     C50568   3.110   3.724   8.659 -0.3323 -0.2888 -0.0292
  367MOL0     C50569   3.227   3.758   8.569  0.4085  0.9575  0.0494
  367MOL0     C50570   3.220   3.888   8.487  0.3951  0.5142 -0.4162
  367MOL0     C50571   3.360   3.922   8.418 -0.1020  0.0119 -0.9346
  367MOL0     C50572   3.331   3.995   8.298 -0.2737 -0.0144  0.5580
  367MOL0     C50573   3.297   4.059   8.195 -0.0781  0.9791 -0.4811
  367MOL0     C50574   3.101   3.752   9.016  0.1385  0.0226 -0.1854
  367MOL0     C50575   3.072   3.695   9.134  1.0655 -0.2868 -0.2935
  367MOL0     C50576   3.065   3.801   9.247  0.8222 -0.2020  0.4382
  367MOL0     H50577   2.760   3.295   9.286  0.3437  1.1489  0.0787
  367MOL0     H50578   2.657   3.166   9.482 -0.0363  0.5937  0.6149
  367MOL0     H50579   2.599   3.128   9.722 -0.5662  0.5215  1.2157
  367MOL0     H50580   2.726   3.230   9.782  1.1723 -0.4129  0.0802
  367MOL0     H50581   2.577   3.064   9.943  0.3250 -0.7862 -0.1247
  367MOL0     H50582   2.648   2.937   9.849  0.8533  2.0267 -3.1757
  367MOL0     H50583   2.743   2.996  10.094 -1.1614 -1.6883 -1.1188
  367MOL0     H50584   2.866   2.967   9.970 -1.0515 -2.2272  1.5740
  367MOL0     H50585   2.897   3.227   9.957  2.1019  0.1998  1.8111
  367MOL0     H50586   2.763   3.244  10.080  1.1721  1.2749  0.1912
  367MOL0     H50587   2.915   3.146  10.243 -0.9170  0.3806  0.0880
  367MOL0     H50588   2.988   3.275  10.175  1.5597 -1.9480  0.7105
  367MOL0     H50589   3.070   2.990  10.115 -0.7890  0.4964  0.4347
  367MOL0     H50590   3.069   3.095   9.981 -0.7098 -0.5881 -0.0573
  367MOL0     H50591   3.226   3.242  10.068 -3.6710 -0.4817 -1.5495
  367MOL0     H50592   3.291   3.079  10.111 -0.2837 -0.8122 -0.3488
  367MOL0     H50593   3.176   3.274  10.310  2.2129  0.8493 -1.8047
  367MOL0     H50594   3.224   3.104  10.347  2.2062 -0.0232  0.4424
  367MOL0     H50595   3.375   3.211  10.518  2.9930  0.7245  0.9528
  367MOL0     H50596   3.579   3.288  10.613 -1.2061 -0.1398 -0.3271
  367MOL0     H50597   3.691   3.396  10.518 -0.7796  0.8946  2.0954
  367MOL0     H50598   3.707   3.095  10.497 -0.2548 -0.4560  2.0539
  367MOL0     H50599   3.803   3.211  10.414 -0.7818 -3.2032 -0.7492
  367MOL0     H50600   3.873   3.296  10.654  1.4642 -0.4057 -0.6506
  367MOL0     H50601   3.810   3.146  10.721  1.6809  2.7837  2.3724
  367MOL0     H50602   4.054   3.158  10.697  2.1526  0.3895 -1.7969
  367MOL0     H50603   3.987   3.033  10.601  1.4118  0.6728 -0.4972
  367MOL0     H50604   4.224   3.006  10.604  1.1590 -0.0684  2.0033
  367MOL0     H50605   4.430   2.850  10.529 -0.7550 -0.2000  1.4598
  367MOL0     H50606   4.456   2.929  10.694  0.5058 -0.9121  0.5180
  367MOL0     H50607   4.576   2.939  10.566 -0.3677  0.8436  0.3054
  367MOL0     H50608   4.846   2.979  10.375 -0.3521  0.2854  1.0648
  367MOL0     H50609   5.047   2.899  10.436 -1.6386 -0.6244 -0.7613
  367MOL0     H50610   5.261   2.875  10.506  1.4851 -0.7073  2.9621
  367MOL0     H50611   5.302   3.027  10.420  0.4216 -1.8284 -1.2416
  367MOL0     H50612   5.441   2.933  10.674 -1.1910 -0.2743 -0.2230
  367MOL0     H50613   5.484   2.890  10.513  0.3149  0.1865  0.4188
  367MOL0     H50614   5.477   3.184  10.601 -1.9654  0.1508 -0.8650
  367MOL0     H50615   5.504   3.130  10.440 -1.7795 -2.0732 -0.9167
  367MOL0     H50616   5.707   3.011  10.495 -1.1461 -0.1815 -0.6964
  367MOL0     H50617   5.684   3.028  10.670 -1.5057  1.0631  0.0965
  367MOL0     H50618   5.689   3.273  10.504  0.8044 -0.4673  0.4405
  367MOL0     H50619   5.712   3.267  10.676  2.6089 -0.7106  0.0082
  367MOL0     H50620   5.918   3.337  10.559 -0.0890  0.4044  0.0672
  367MOL0     H50621   5.917   3.195  10.456 -1.1062 -0.6750 -0.8849
  367MOL0     H50622   5.953   3.038  10.642  1.8137 -0.5911  0.6806
  367MOL0     H50623   5.937   3.154  10.764  0.1549  0.1257  0.5312
  367MOL0     H50624   6.177   3.141  10.566 -0.5048  0.6491 -0.5785
  367MOL0     H50625   6.164   3.103  10.742 -0.1924 -0.2293  0.4148
  367MOL0     H50626   5.094   3.217  10.735 -1.3989 -0.5438  1.5617
  367MOL0     H50627   4.837   3.252  10.713 -1.9940  0.3217 -1.3970
  367MOL0     H50628   4.430   3.324  10.301  2.8032 -1.7335 -0.3515
  367MOL0     H50629   4.206   3.352  10.344  3.1095  2.2979  0.3896
  367MOL0     H50630   3.059   3.131   9.647 -1.2098  1.2195  1.9764
  367MOL0     H50631   3.148   3.246   9.447  1.0004 -2.8540  0.5773
  367MOL0     H50632   3.049   3.374   9.029  2.7629  0.4862 -1.2442
  367MOL0     H50633   3.131   3.480   8.819  2.7155  0.2585 -0.3528
  367MOL0     H50634   3.079   3.621   8.641 -2.8843  0.0436  1.8605
  367MOL0     H50635   3.027   3.793   8.642  0.4934  0.5204 -0.8966
  367MOL0     H50636   3.250   3.673   8.504  0.5741  0.7656  0.3582
  367MOL0     H50637   3.311   3.777   8.636  1.1400 -0.5127 -0.4039
  367MOL0     H50638   3.143   3.880   8.409 -1.4645  0.0014  1.3699
  367MOL0     H50639   3.190   3.970   8.554  0.8841 -0.4975  1.0954
  367MOL0     H50640   3.404   3.826   8.390 -2.1267 -1.4089  0.4804
  367MOL0     H50641   3.426   3.978   8.485  2.2339 -0.3276 -2.8050
  367MOL0     H50642   3.250   4.112   8.115 -1.0483  2.6012  1.0782
  367MOL0     H50643   3.136   3.855   9.016  0.1725  0.0105 -0.1112
  367MOL0     H50644   3.000   3.885   9.219  0.5754 -0.6501 -0.3781
  367MOL0     H50645   3.027   3.756   9.339 -1.1769  2.5377  1.0694
  367MOL0     H50646   3.165   3.840   9.268  1.1510 -0.5462 -0.4054
  368MOL0     O50647   0.809   2.330   9.669 -0.1763  0.5430  0.7181
  368MOL0     C50648   0.851   2.236   9.737  0.5537 -0.0499  0.8158
  368MOL0     O50649   0.927   2.253   9.847  0.4356  0.3694  0.6291
  368MOL0     C50650   0.972   2.382   9.876  0.4359  0.2062 -0.2229
  368MOL0     C50651   0.905   2.442   9.983  0.0902 -0.3814  0.1378
  368MOL0     C50652   0.935   2.571  10.024  0.5508  0.5443 -0.3317
  368MOL0     C50653   1.052   2.627   9.978 -0.2369 -1.2134  0.3406
  368MOL0     O50654   1.105   2.747  10.031  0.0359  0.3404  0.0507
  368MOL0     C50655   1.106   2.768  10.168 -1.0264  0.7164 -0.4956
  368MOL0     C50656   1.179   2.892  10.195  0.1541 -0.2258  0.2435
  368MOL0     C50657   1.328   2.862  10.173 -1.0164 -0.5118 -0.7604
  368MOL0     C50658   1.409   2.989  10.206  0.2182  0.1642 -0.5691
  368MOL0     C50659   1.563   2.967  10.183 -0.1298  0.3299  0.2420
  368MOL0     C50660   1.652   3.051  10.259 -0.1761 -0.3773 -0.4701
  368MOL0     C50661   1.652   3.000  10.396  0.6396 -0.6569 -0.1554
  368MOL0     C50662   1.755   3.080  10.477  0.3488 -0.3556  0.0409
  368MOL0     N50663   1.887   3.020  10.454 -0.4174 -0.6376 -0.4873
  368MOL0     C50664   1.964   2.953  10.547  0.0759 -0.0925  0.2475
  368MOL0     C50665   2.090   2.960  10.505  0.4825 -0.2805 -0.2755
  368MOL0     C50666   2.204   2.896  10.575  0.0960  0.1752 -0.0441
  368MOL0     C50667   2.197   2.749  10.591  0.7793  0.1160 -0.1007
  368MOL0     C50668   2.327   2.689  10.653 -0.4764 -0.2691  0.7023
  368MOL0     C50669   2.319   2.535  10.660  0.3247  0.1643 -0.7995
  368MOL0     O50670   2.243   2.484  10.778 -0.2090  0.0316  0.1143
  368MOL0     C50671   2.116   2.435  10.773  0.4670 -0.2535 -0.7642
  368MOL0     C50672   2.073   2.385  10.889 -0.1094 -0.2078  1.4515
  368MOL0     C50673   1.944   2.340  10.910  0.5908  0.1812 -0.0818
  368MOL0     C50674   1.907   2.309  11.057 -1.1441 -0.3511  0.0843
  368MOL0     C50675   1.856   2.325  10.794 -0.7642  0.4437  0.1290
  368MOL0     C50676   1.720   2.264  10.795 -0.3219  0.4358  0.0594
  368MOL0     O50677   1.667   2.258  10.674  0.3334  0.7472 -0.8891
  368MOL0     C50678   1.542   2.192  10.661  0.6659  0.6316 -1.4748
  368MOL0     C50679   1.422   2.267  10.655  0.1676 -0.1102  0.7079
  368MOL0     C50680   1.304   2.206  10.651  0.0905 -0.6377 -0.1099
  368MOL0     C50681   1.298   2.063  10.671  0.9713 -0.0222 -0.3030
  368MOL0     O50682   1.170   2.013  10.683  0.0036  0.7249 -0.2845
  368MOL0     C50683   1.154   1.934  10.799  0.5803  0.1580 -0.8265
  368MOL0     C50684   1.003   1.920  10.841  0.6490 -0.2394 -0.3094
  368MOL0     C50685   0.994   1.844  10.976  0.4853 -0.5531 -0.0868
  368MOL0     C50686   0.940   1.704  10.952  0.4108  0.9087  0.4000
  368MOL0     C50687   0.970   1.616  11.074 -0.4807 -0.9002  0.7266
  368MOL0     C50688   0.926   1.474  11.062  0.7842 -0.2123 -0.0905
  368MOL0     C50689   0.979   1.395  11.179  0.4278  0.3252  0.1503
  368MOL0     C50690   0.983   1.237  11.143  0.0399  0.3457  0.7519
  368MOL0    Cl50691   0.836   1.188  11.071  0.0331 -0.4090  0.0012
  368MOL0     C50692   1.408   1.988  10.672  0.2579 -0.0182  0.2249
  368MOL0     C50693   1.530   2.052  10.666 -0.6746  0.3476  0.4219
  368MOL0     O50694   1.672   2.221  10.897  0.1296 -1.1963 -1.1782
  368MOL0     C50695   1.903   2.388  10.678 -0.0121  0.0374  1.1900
  368MOL0     C50696   2.027   2.447  10.663 -0.7316 -0.1772  0.4944
  368MOL0     N50697   2.094   3.052  10.403 -0.6486  0.7791  0.7709
  368MOL0     N50698   1.973   3.076  10.367 -0.5186 -0.3382  0.7396
  368MOL0     C50699   1.126   2.561   9.886 -0.3121 -0.8487  0.4596
  368MOL0     C50700   1.085   2.443   9.828  0.1834  0.1486  0.2399
  368MOL0     C50701   0.785   2.105   9.712 -0.1003 -0.0038 -0.2039
  368MOL0     C50702   0.871   1.993   9.677 -0.2529  0.2163  0.2482
  368MOL0     C50703   0.813   1.877   9.620 -0.0642 -0.3709  0.1681
  368MOL0     C50704   0.680   1.868   9.595  0.0606  0.1748  1.2364
  368MOL0     O50705   0.642   1.758   9.516  0.3383 -0.4255  0.3304
  368MOL0     C50706   0.495   1.733   9.502 -0.5877  0.9488  0.9263
  368MOL0     C50707   0.477   1.587   9.461  0.0435  0.7649 -0.0250
  368MOL0     C50708   0.524   1.479   9.563 -0.2302  0.0619 -0.1723
  368MOL0     C50709   0.466   1.339   9.539 -0.0908  0.2328 -0.9669
  368MOL0     C50710   0.513   1.252   9.640 -0.0784  0.5083 -0.5470
  368MOL0     C50711   0.544   1.192   9.739 -0.3191 -0.5326 -0.6777
  368MOL0     C50712   0.602   1.984   9.622  0.4717  1.2605  0.7781
  368MOL0     C50713   0.646   2.094   9.692  0.1886 -1.5014 -0.4498
  368MOL0     C50714   0.550   2.196   9.729  0.9809 -1.0126  0.3765
  368MOL0     H50715   0.824   2.386  10.030 -1.8868  1.8383 -0.4109
  368MOL0     H50716   0.873   2.610  10.104 -1.8990 -0.6456 -1.5524
  368MOL0     H50717   1.156   2.687  10.222  0.8822  0.3695 -2.6408
  368MOL0     H50718   1.004   2.774  10.207 -0.8260 -2.6638  0.9150
  368MOL0     H50719   1.148   2.976  10.132  1.0005  0.2399  0.4312
  368MOL0     H50720   1.157   2.916  10.299  0.7167 -1.9854  0.8159
  368MOL0     H50721   1.368   2.787  10.243 -1.0202 -0.5217 -0.7688
  368MOL0     H50722   1.349   2.822  10.073  1.7048 -1.0238 -0.0503
  368MOL0     H50723   1.375   3.074  10.147 -0.5310  1.5384  1.7091
  368MOL0     H50724   1.391   3.010  10.312 -2.6069 -3.1438 -0.1919
  368MOL0     H50725   1.573   2.981  10.075 -2.4241 -0.8289 -0.1684
  368MOL0     H50726   1.590   2.864  10.205  0.3103 -0.0472 -1.8194
  368MOL0     H50727   1.747   3.037  10.206  1.9099  1.0275  2.5644
  368MOL0     H50728   1.613   3.153  10.251  3.1514  1.0709  0.1675
  368MOL0     H50729   1.676   2.894  10.410  0.5730 -0.3571  3.1677
  368MOL0     H50730   1.554   2.998  10.444  0.8885 -2.2984  0.3668
  368MOL0     H50731   1.759   3.186  10.453 -0.3429 -0.2062  0.5636
  368MOL0     H50732   1.717   3.070  10.579 -0.3146  3.5146  0.3074
  368MOL0     H50733   1.912   2.889  10.617  2.0949 -1.6500  0.4016
  368MOL0     H50734   2.195   2.938  10.676  0.2730 -1.0444  0.4956
  368MOL0     H50735   2.300   2.919  10.529  0.9909  0.1241  1.6932
  368MOL0     H50736   2.112   2.718  10.651  2.3112 -3.8389  0.3273
  368MOL0     H50737   2.177   2.705  10.492  2.4575 -1.1393  0.0713
  368MOL0     H50738   2.410   2.724  10.592 -1.1448  0.6109  0.2713
  368MOL0     H50739   2.338   2.721  10.757 -1.7592  2.8437 -0.0170
  368MOL0     H50740   2.279   2.485  10.571  0.2206 -1.8207  0.2901
  368MOL0     H50741   2.415   2.483  10.667 -1.1451 -2.4710  1.8582
  368MOL0     H50742   2.152   2.389  10.963  2.1553  0.7078 -0.8263
  368MOL0     H50743   1.823   2.243  11.079 -1.0772 -0.2812  0.5655
  368MOL0     H50744   1.884   2.397  11.118 -2.2931 -0.9622  0.5754
  368MOL0     H50745   1.999   2.273  11.104 -0.0009  1.1789 -0.8805
  368MOL0     H50746   1.432   2.374  10.665 -0.8848  0.1301 -0.5868
  368MOL0     H50747   1.217   2.270  10.664  1.8576  2.1495 -1.2004
  368MOL0     H50748   1.189   1.834  10.772 -1.6564 -0.6413 -0.9781
  368MOL0     H50749   1.204   1.981  10.884 -1.6695  0.6905  0.2819
  368MOL0     H50750   0.967   2.022  10.853 -1.0853 -0.6560 -1.5577
  368MOL0     H50751   0.953   1.873  10.756 -1.7579  2.5763 -0.5908
  368MOL0     H50752   0.942   1.896  11.057  1.8027 -2.0332  1.8356
  368MOL0     H50753   1.090   1.828  11.026 -1.5359  0.4319  4.6481
  368MOL0     H50754   0.980   1.651  10.866 -2.4679 -4.4869  1.9304
  368MOL0     H50755   0.830   1.706  10.947  0.3465 -0.1031  1.1443
  368MOL0     H50756   1.072   1.634  11.111 -0.4054  2.1196 -0.6761
  368MOL0     H50757   0.914   1.659  11.157 -0.0349 -0.4443  0.7959
  368MOL0     H50758   0.986   1.442  10.977  1.4920  1.9335 -0.4662
  368MOL0     H50759   0.817   1.468  11.062  0.7275  0.1776  1.7720
  368MOL0     H50760   0.905   1.409  11.259 -1.4840 -0.7028 -1.3679
  368MOL0     H50761   1.074   1.433  11.218  0.8106  0.8361 -1.2373
  368MOL0     H50762   1.007   1.174  11.229  0.5960 -1.4339 -0.6395
  368MOL0     H50763   1.059   1.222  11.066 -1.2749  0.1048 -0.5506
  368MOL0     H50764   1.395   1.880  10.673 -0.9407  0.1177  1.3325
  368MOL0     H50765   1.619   1.989  10.664 -1.4271 -0.7185 -0.6330
  368MOL0     H50766   1.848   2.372  10.585  0.1404  0.2739  1.0570
  368MOL0     H50767   2.059   2.489  10.568 -1.5053 -2.4400 -0.8540
  368MOL0     H50768   1.214   2.615   9.854 -1.9121  2.7388  1.5224
  368MOL0     H50769   1.132   2.387   9.747  2.1126 -0.6606  1.8454
  368MOL0     H50770   0.975   1.992   9.705 -0.2828  1.2907  0.4324
  368MOL0     H50771   0.888   1.807   9.585  0.0472  0.6130 -1.6768
  368MOL0     H50772   0.463   1.744   9.606  1.0473  0.6566  1.4950
  368MOL0     H50773   0.441   1.803   9.439  2.6547  1.2522 -1.7810
  368MOL0     H50774   0.521   1.574   9.362  1.4727  0.5516  0.6043
  368MOL0     H50775   0.370   1.569   9.451  0.3152 -1.5753  0.6571
  368MOL0     H50776   0.633   1.484   9.570 -0.2562  2.8969 -0.5452
  368MOL0     H50777   0.498   1.513   9.663 -0.7254  1.7374 -0.8389
  368MOL0     H50778   0.496   1.305   9.440  0.6676 -1.3038 -0.2462
  368MOL0     H50779   0.357   1.341   9.538 -0.1348  0.6443  0.9558
  368MOL0     H50780   0.572   1.156   9.835 -1.3016  3.3450  1.2510
  368MOL0     H50781   0.496   1.989   9.598  0.7835 -1.4646 -1.7166
  368MOL0     H50782   0.492   2.228   9.642  0.4775  0.8388  1.3562
  368MOL0     H50783   0.470   2.151   9.789 -1.7029  1.4976 -1.0781
  368MOL0     H50784   0.592   2.285   9.777 -3.2995  2.2867 -1.3747
  369MOL0     O50785   6.942   7.824   6.938 -0.0980 -0.2300  0.4410
  369MOL0     C50786   6.905   7.767   7.036  0.2164  0.0952 -0.0583
  369MOL0     O50787   6.964   7.777   7.163  0.7560 -0.1574  0.3640
  369MOL0     C50788   7.082   7.849   7.156  0.0419  0.1234 -0.8395
  369MOL0     C50789   7.095   7.984   7.182  0.0964  0.1505  0.3080
  369MOL0     C50790   7.223   8.045   7.169 -0.6476  0.3700  0.1445
  369MOL0     C50791   7.333   7.966   7.133  0.1070 -0.5230 -0.1327
  369MOL0     O50792   7.461   8.018   7.116  0.3307 -0.1070 -0.6714
  369MOL0     C50793   7.498   8.122   7.211 -0.4290  0.4021  0.8429
  369MOL0     C50794   7.650   8.099   7.213 -0.0729 -0.5408 -0.7447
  369MOL0     C50795   7.711   8.189   7.323 -0.3322  0.4379  0.7856
  369MOL0     C50796   7.845   8.143   7.355 -0.3385 -0.2105 -0.4985
  369MOL0     C50797   7.922   8.235   7.449 -0.6898 -0.3093 -0.5419
  369MOL0     C50798   8.074   8.202   7.440  0.8042 -0.2532 -0.1072
  369MOL0     C50799   8.110   8.053   7.437 -0.2109  0.2014 -0.3501
  369MOL0     C50800   8.091   8.007   7.576  0.4148 -0.0419 -0.5064
  369MOL0     N50801   8.069   7.864   7.585 -0.3610 -0.6806 -0.3597
  369MOL0     C50802   7.957   7.795   7.541 -0.4909 -0.0035  0.1678
  369MOL0     C50803   7.971   7.667   7.574  0.1512  0.5572  0.5835
  369MOL0     C50804   7.871   7.560   7.555 -0.0261 -0.5432  0.2529
  369MOL0     C50805   7.752   7.593   7.649  0.9139  0.8855  0.1285
  369MOL0     C50806   7.631   7.487   7.634  0.2582 -0.1655 -0.1492
  369MOL0     C50807   7.508   7.532   7.705 -0.1728 -0.1228  0.0383
  369MOL0     O50808   7.418   7.417   7.707 -0.1135 -0.1048  0.0020
  369MOL0     C50809   7.292   7.447   7.753  0.5986 -0.5613 -0.5497
  369MOL0     C50810   7.193   7.358   7.723 -0.5040  0.3186 -0.1935
  369MOL0     C50811   7.057   7.380   7.752 -0.2883  0.4412 -0.2217
  369MOL0     C50812   6.959   7.269   7.707  0.3738  0.2757 -0.6487
  369MOL0     C50813   7.014   7.484   7.821 -0.2506  0.4176  0.0622
  369MOL0     C50814   6.874   7.491   7.870  0.4862  0.1890 -1.1143
  369MOL0     O50815   6.843   7.615   7.911 -0.1028  0.6255 -1.4091
  369MOL0     C50816   6.710   7.651   7.921  0.3548  0.3781 -0.0320
  369MOL0     C50817   6.655   7.699   7.805 -0.1754  0.0074 -0.6970
  369MOL0     C50818   6.523   7.742   7.804  0.2994  0.6487  0.1415
  369MOL0     C50819   6.446   7.737   7.923 -0.0970 -0.2008 -0.3524
  369MOL0     O50820   6.310   7.769   7.915  0.1365 -0.1884 -0.1520
  369MOL0     C50821   6.225   7.743   8.027 -0.5874  0.5868 -0.0612
  369MOL0     C50822   6.073   7.756   7.991  0.0043 -0.5617 -0.0965
  369MOL0     C50823   6.022   7.899   7.942  0.9896  0.3664 -0.0425
  369MOL0     C50824   5.873   7.881   7.911  0.5689  0.9119  0.5942
  369MOL0     C50825   5.807   7.998   7.844  0.5221 -0.1710  0.4976
  369MOL0     C50826   5.653   7.970   7.815  0.3595 -0.1305  0.1099
  369MOL0     C50827   5.621   7.876   7.700  0.3151  0.3642  0.2186
  369MOL0     C50828   5.468   7.855   7.668  0.5649  0.6287 -0.4638
  369MOL0    Cl50829   5.411   8.012   7.608  0.1849 -0.3045 -0.1040
  369MOL0     C50830   6.500   7.676   8.036  0.0270 -0.2135  1.2479
  369MOL0     C50831   6.634   7.636   8.036 -0.0116 -0.6005  0.1909
  369MOL0     O50832   6.787   7.396   7.872 -0.3818  0.0845 -0.3947
  369MOL0     C50833   7.106   7.580   7.848  0.6598 -0.3624 -0.2839
  369MOL0     C50834   7.243   7.566   7.816  0.4536 -0.3556  0.5836
  369MOL0     N50835   8.096   7.651   7.625  0.1712  0.4675  0.5294
  369MOL0     N50836   8.150   7.771   7.640 -0.0432 -0.0719  0.8767
  369MOL0     C50837   7.313   7.830   7.105 -0.6738 -0.0871  0.3735
  369MOL0     C50838   7.187   7.770   7.121 -0.3679  0.1463  0.2881
  369MOL0     C50839   6.783   7.681   7.023  0.0507 -0.1374 -0.1176
  369MOL0     C50840   6.801   7.547   7.060  0.5711 -0.4340  0.5732
  369MOL0     C50841   6.695   7.455   7.048 -0.4077 -1.4722  0.7712
  369MOL0     C50842   6.568   7.501   7.003 -0.7379  0.3294  0.0863
  369MOL0     O50843   6.467   7.405   7.019 -0.5636  0.1772  0.0824
  369MOL0     C50844   6.337   7.459   7.058 -0.1274  0.3551  0.1019
  369MOL0     C50845   6.264   7.363   7.150  1.0334  0.6536 -0.3398
  369MOL0     C50846   6.234   7.227   7.092  0.5851  0.3346  0.0964
  369MOL0     C50847   6.144   7.140   7.185 -0.3219 -0.2630 -0.2178
  369MOL0     C50848   6.014   7.199   7.231  0.0801 -0.9419  0.9749
  369MOL0     C50849   5.914   7.234   7.287 -0.0635 -0.5938 -0.0365
  369MOL0     C50850   6.551   7.640   6.980 -0.1748  0.3052 -0.3045
  369MOL0     C50851   6.656   7.734   6.979  0.0149  0.2395  0.3417
  369MOL0     C50852   6.632   7.870   6.928  0.4818  0.1179 -1.0759
  369MOL0     H50853   7.005   8.040   7.204 -0.2797 -0.4873  0.4184
  369MOL0     H50854   7.231   8.151   7.191  1.9536  0.2289  0.2244
  369MOL0     H50855   7.453   8.107   7.309 -0.9242 -2.6817  0.2396
  369MOL0     H50856   7.472   8.222   7.175 -1.8547  0.3904  1.7705
  369MOL0     H50857   7.674   7.993   7.229  5.1753  0.4839 -0.0695
  369MOL0     H50858   7.690   8.129   7.116  0.6969 -2.0617 -0.9306
  369MOL0     H50859   7.714   8.293   7.287 -0.2411  0.3719  0.6004
  369MOL0     H50860   7.649   8.183   7.413 -1.7221  0.2431 -0.1526
  369MOL0     H50861   7.829   8.047   7.405  1.2976  0.8446  2.2978
  369MOL0     H50862   7.899   8.129   7.261  0.8344 -1.7343  0.3478
  369MOL0     H50863   7.877   8.234   7.548 -1.6742 -0.6329 -0.9817
  369MOL0     H50864   7.914   8.335   7.406  0.9089 -0.3877 -1.1001
  369MOL0     H50865   8.111   8.243   7.346  0.1212  0.5390 -0.0364
  369MOL0     H50866   8.129   8.249   7.521  1.8711  2.3988 -2.2339
  369MOL0     H50867   8.215   8.035   7.411  0.7600  2.7150  1.4208
  369MOL0     H50868   8.063   7.986   7.364  2.2645 -1.7727 -0.2548
  369MOL0     H50869   8.179   8.044   7.630  0.1473 -1.2111  0.7766
  369MOL0     H50870   8.009   8.059   7.626  0.7346  0.9301 -0.9597
  369MOL0     H50871   7.866   7.833   7.497 -0.0588  0.1756 -0.5934
  369MOL0     H50872   7.918   7.463   7.573 -1.4460 -1.3917 -0.4379
  369MOL0     H50873   7.831   7.564   7.453 -1.1380  3.1158  0.7075
  369MOL0     H50874   7.790   7.597   7.751 -0.1941  1.0722  0.5483
  369MOL0     H50875   7.709   7.688   7.616  0.0814 -0.1293 -1.9375
  369MOL0     H50876   7.593   7.483   7.531 -3.2088  2.2627  0.8607
  369MOL0     H50877   7.665   7.392   7.675 -0.0160  0.3876  1.4398
  369MOL0     H50878   7.531   7.545   7.811 -3.1941 -1.1262  0.9091
  369MOL0     H50879   7.471   7.631   7.676  0.8679  0.6480  1.2471
  369MOL0     H50880   7.219   7.267   7.670 -1.4171  0.5064 -0.9879
  369MOL0     H50881   6.887   7.314   7.638  0.0179 -0.2002 -0.5979
  369MOL0     H50882   6.910   7.211   7.786 -0.9396  0.6453 -1.1595
  369MOL0     H50883   7.017   7.200   7.645 -0.6684  0.0894 -1.4519
  369MOL0     H50884   6.706   7.708   7.709 -2.9372  1.0672 -2.1816
  369MOL0     H50885   6.472   7.789   7.720 -1.2359 -3.8127 -1.7821
  369MOL0     H50886   6.241   7.637   8.049  2.0026  1.0103  0.3216
  369MOL0     H50887   6.252   7.814   8.105  1.7457 -1.8699  1.5599
  369MOL0     H50888   6.057   7.688   7.907  3.4443  1.3194 -2.5516
  369MOL0     H50889   6.017   7.736   8.083 -1.6186 -0.1231 -0.9568
  369MOL0     H50890   6.070   7.919   7.846 -2.8206  2.3926 -1.7457
  369MOL0     H50891   6.022   7.980   8.016 -2.7120  0.9832 -0.5100
  369MOL0     H50892   5.806   7.853   7.993 -0.3310 -0.4186 -0.5616
  369MOL0     H50893   5.859   7.792   7.850 -0.0498  0.0398  1.9771
  369MOL0     H50894   5.827   8.095   7.891 -0.1152  0.7056 -0.9832
  369MOL0     H50895   5.855   8.005   7.746 -1.8315  1.9392 -0.6316
  369MOL0     H50896   5.609   8.065   7.784 -1.0088 -1.5021 -2.4692
  369MOL0     H50897   5.611   7.953   7.915  2.6393  0.5391  1.2635
  369MOL0     H50898   5.663   7.776   7.719  0.7876  0.4119 -0.5305
  369MOL0     H50899   5.673   7.906   7.609 -2.5951  2.7865 -0.8193
  369MOL0     H50900   5.415   7.825   7.759  2.6309  0.2654  0.6876
  369MOL0     H50901   5.462   7.773   7.597 -0.0322 -0.7279  1.0899
  369MOL0     H50902   6.437   7.658   8.122 -1.1380 -0.0447  0.4587
  369MOL0     H50903   6.691   7.594   8.119 -2.0506 -2.1275  0.9052
  369MOL0     H50904   7.067   7.670   7.895 -0.3234 -0.7865 -0.2546
  369MOL0     H50905   7.307   7.650   7.840  0.5864 -0.0443 -0.7619
  369MOL0     H50906   7.401   7.771   7.081 -0.2040  1.8462 -3.4839
  369MOL0     H50907   7.174   7.664   7.105 -2.1212  0.4363 -0.4476
  369MOL0     H50908   6.893   7.512   7.105  0.3204 -1.4563  0.3198
  369MOL0     H50909   6.693   7.349   7.072  2.6834 -1.2796  2.4287
  369MOL0     H50910   6.341   7.551   7.117  3.0434 -0.8612  2.0518
  369MOL0     H50911   6.274   7.477   6.970  0.3340  0.6583 -0.1731
  369MOL0     H50912   6.174   7.416   7.184  0.7144 -0.1069  0.0530
  369MOL0     H50913   6.325   7.355   7.241 -0.0099  0.8158  0.3975
  369MOL0     H50914   6.173   7.228   7.001 -0.5060  3.7016  0.7143
  369MOL0     H50915   6.332   7.185   7.067  0.5691 -0.8964  1.8966
  369MOL0     H50916   6.201   7.119   7.276  0.1718  0.8844 -0.2509
  369MOL0     H50917   6.117   7.044   7.138  0.8495 -1.3077  1.1671
  369MOL0     H50918   5.833   7.268   7.348  0.7421 -0.9411  1.2623
  369MOL0     H50919   6.454   7.682   6.952  0.0186  1.0879  0.1557
  369MOL0     H50920   6.638   7.948   7.004  1.0639 -0.0748 -0.9131
  369MOL0     H50921   6.709   7.898   6.856  3.0700 -1.3180  0.9437
  369MOL0     H50922   6.535   7.876   6.878 -0.5515 -1.0979  0.7003
  370MOL0     O50923   1.344   7.296  10.456  0.1443 -0.2313  0.4956
  370MOL0     C50924   1.352   7.398  10.516  0.0989  0.1594  0.4937
  370MOL0     O50925   1.472   7.467  10.550 -0.4714  0.9342  0.6322
  370MOL0     C50926   1.592   7.392  10.531  0.9648  0.2298  0.8846
  370MOL0     C50927   1.683   7.389  10.634  0.6526  0.0535 -0.1747
  370MOL0     C50928   1.814   7.345  10.616  0.1491 -0.0912 -0.3972
  370MOL0     C50929   1.861   7.313  10.491  0.4130  0.2833  0.4201
  370MOL0     O50930   1.998   7.298  10.465 -0.0512 -0.3014 -0.2600
  370MOL0     C50931   2.088   7.319  10.578 -0.1991  0.4763 -1.1581
  370MOL0     C50932   2.230   7.262  10.557 -0.0614 -0.6628  0.4107
  370MOL0     C50933   2.318   7.266  10.680 -0.3059  0.9012 -0.2677
  370MOL0     C50934   2.399   7.393  10.682 -0.0535 -0.1717  0.5916
  370MOL0     C50935   2.497   7.411  10.801  0.0699 -0.0577 -0.5931
  370MOL0     C50936   2.601   7.312  10.824 -0.5370  0.8405  0.5071
  370MOL0     C50937   2.697   7.306  10.707 -0.2333  0.4028 -0.2206
  370MOL0     C50938   2.834   7.228  10.732 -0.4817  0.3236  0.4524
  370MOL0     N50939   2.823   7.090  10.786 -0.5938  1.0972  0.2726
  370MOL0     C50940   2.770   6.984  10.715  1.1397 -0.7997  0.5178
  370MOL0     C50941   2.773   6.883  10.801  0.2879 -0.1915  0.4373
  370MOL0     C50942   2.712   6.742  10.789  0.4136  1.0882  0.4668
  370MOL0     C50943   2.557   6.745  10.803 -0.2524 -0.0631 -1.1880
  370MOL0     C50944   2.493   6.627  10.746  0.6328  0.4097  0.0217
  370MOL0     C50945   2.339   6.625  10.779 -0.1213 -0.7086  0.5120
  370MOL0     O50946   2.269   6.506  10.737 -0.1223 -0.1439 -0.4684
  370MOL0     C50947   2.131   6.505  10.748 -1.5939  0.1017 -0.7633
  370MOL0     C50948   2.052   6.537  10.862 -0.7144  0.4891  1.0065
  370MOL0     C50949   1.908   6.537  10.847  0.1057 -0.5940 -0.1697
  370MOL0     C50950   1.838   6.604  10.966  0.6085 -1.0172  0.0729
  370MOL0     C50951   1.849   6.498  10.727 -0.3296  0.6515  0.1189
  370MOL0     C50952   1.706   6.516  10.684 -0.2907  0.6693  0.6557
  370MOL0     O50953   1.661   6.439  10.583  0.2099  0.4735  0.8261
  370MOL0     C50954   1.526   6.457  10.547  0.3650  0.6578 -0.3851
  370MOL0     C50955   1.499   6.555  10.458 -0.1235  1.2746  0.9445
  370MOL0     C50956   1.374   6.573  10.412 -0.4454 -0.3235 -0.7487
  370MOL0     C50957   1.270   6.490  10.464  0.6943 -0.0086  0.6094
  370MOL0     O50958   1.135   6.511  10.425 -0.1690 -0.0193  0.0726
  370MOL0     C50959   1.105   6.591  10.307  0.1478  0.0691 -0.5457
  370MOL0     C50960   0.972   6.545  10.266  0.1158 -0.1918  0.0906
  370MOL0     C50961   0.938   6.593  10.128  0.2233  0.7981  0.0249
  370MOL0     C50962   0.798   6.542  10.081  0.0216 -0.2476  0.0380
  370MOL0     C50963   0.744   6.595   9.946 -0.1552 -0.0695  0.6339
  370MOL0     C50964   0.589   6.576   9.937 -0.6295  0.1703 -0.4193
  370MOL0     C50965   0.552   6.435   9.902 -0.4951  0.5002  0.5573
  370MOL0     C50966   0.453   6.436   9.777 -0.5835 -0.4349 -1.2080
  370MOL0    Cl50967   0.313   6.538   9.825  0.0525 -0.1023  0.4936
  370MOL0     C50968   1.296   6.389  10.558 -0.6990 -0.6021  1.0756
  370MOL0     C50969   1.429   6.364  10.591 -0.2081  0.2137 -0.5394
  370MOL0     O50970   1.646   6.609  10.732 -0.2675 -0.0637  0.2889
  370MOL0     C50971   1.936   6.454  10.622  1.7110  0.4266 -0.2309
  370MOL0     C50972   2.075   6.445  10.638  0.4541 -0.5590  0.3661
  370MOL0     N50973   2.834   6.918  10.922 -0.7644 -0.4826  0.6034
  370MOL0     N50974   2.861   7.045  10.906 -0.3992  0.3324  0.0935
  370MOL0     C50975   1.768   7.308  10.382 -0.5521  0.7286  0.1778
  370MOL0     C50976   1.632   7.343  10.404 -0.0781  0.3006 -0.5021
  370MOL0     C50977   1.226   7.465  10.538  0.2798  0.9089  0.8443
  370MOL0     C50978   1.228   7.607  10.508  0.2491 -1.0903 -1.2421
  370MOL0     C50979   1.118   7.676  10.487 -0.2812 -0.5871  0.8739
  370MOL0     C50980   0.996   7.615  10.500 -0.0981  0.5451  0.5645
  370MOL0     O50981   0.889   7.702  10.461  0.2413  0.3040  0.3530
  370MOL0     C50982   0.758   7.641  10.454 -0.5477  0.3160  0.2001
  370MOL0     C50983   0.653   7.754  10.428  0.6648 -0.0895  0.2738
  370MOL0     C50984   0.651   7.794  10.280 -0.3189  0.0259  0.9691
  370MOL0     C50985   0.579   7.921  10.247  0.2746 -0.3513  0.7179
  370MOL0     C50986   0.448   7.929  10.309 -0.0314  0.8454 -0.5995
  370MOL0     C50987   0.341   7.931  10.364  0.4808 -0.2351 -0.1409
  370MOL0     C50988   0.985   7.475  10.525 -0.6284  0.2769 -0.7808
  370MOL0     C50989   1.097   7.405  10.546  0.3740  0.9209 -0.2171
  370MOL0     C50990   1.071   7.255  10.566 -0.1225  0.4938  0.5553
  370MOL0     H50991   1.655   7.419  10.734 -3.6774  1.0891 -1.4539
  370MOL0     H50992   1.868   7.341  10.710 -0.9965 -3.2811  0.2554
  370MOL0     H50993   2.041   7.271  10.664 -0.5522 -0.7714 -2.0156
  370MOL0     H50994   2.087   7.426  10.600  1.8183 -0.0043  2.0391
  370MOL0     H50995   2.230   7.163  10.512 -2.8774 -0.1650 -0.9073
  370MOL0     H50996   2.271   7.322  10.475  0.8062 -1.9233 -0.0894
  370MOL0     H50997   2.271   7.277  10.778  0.8736  4.5807  0.0156
  370MOL0     H50998   2.373   7.171  10.677 -3.1724 -1.0455  2.5141
  370MOL0     H50999   2.450   7.407  10.586 -4.4300  0.9809 -1.8712
  370MOL0     H51000   2.323   7.473  10.681 -0.1552 -0.0781 -3.6319
  370MOL0     H51001   2.434   7.409  10.891  0.5857 -0.4811 -0.2351
  370MOL0     H51002   2.543   7.509  10.791 -1.8692  0.9979  0.3039
  370MOL0     H51003   2.653   7.347  10.914 -2.0124  2.7504  0.6810
  370MOL0     H51004   2.552   7.214  10.829  1.1652 -0.2475 -1.9839
  370MOL0     H51005   2.723   7.407  10.674 -1.5453  0.8125 -0.0434
  370MOL0     H51006   2.644   7.258  10.625 -2.8798  0.9345  1.0557
  370MOL0     H51007   2.877   7.216  10.632 -2.1462  1.1377 -0.3996
  370MOL0     H51008   2.884   7.291  10.807  0.4479 -0.7367  0.7524
  370MOL0     H51009   2.729   6.972  10.615 -2.2725 -4.1636  2.0827
  370MOL0     H51010   2.754   6.672  10.861 -0.5215  0.9651  0.9043
  370MOL0     H51011   2.725   6.700  10.689  1.5716  0.1644  0.9819
  370MOL0     H51012   2.533   6.748  10.910  0.0684  0.1451 -1.1204
  370MOL0     H51013   2.525   6.837  10.751 -0.7694 -1.2472 -3.0646
  370MOL0     H51014   2.501   6.641  10.637 -1.6315  3.8136  0.1539
  370MOL0     H51015   2.547   6.535  10.772 -0.5948  0.0859  1.5504
  370MOL0     H51016   2.332   6.636  10.887  0.6031  0.7432  0.4395
  370MOL0     H51017   2.307   6.719  10.732 -0.4922  0.4902  3.0015
  370MOL0     H51018   2.115   6.587  10.934  1.0064  1.4135 -1.0157
  370MOL0     H51019   1.868   6.590  11.070  0.3664  1.2081  0.4835
  370MOL0     H51020   1.736   6.564  10.970 -0.3422  1.3134  0.5043
  370MOL0     H51021   1.839   6.712  10.953 -2.5509 -0.7963  1.0417
  370MOL0     H51022   1.586   6.614  10.429  0.0457  0.2713 -0.7436
  370MOL0     H51023   1.350   6.642  10.331 -0.2244 -0.6635 -1.1110
  370MOL0     H51024   1.097   6.699  10.319 -1.7522  0.2898 -3.0613
  370MOL0     H51025   1.180   6.583  10.227  3.0360  1.0353  1.8561
  370MOL0     H51026   0.978   6.436  10.267 -1.1482 -0.2712  0.8062
  370MOL0     H51027   0.894   6.580  10.334  0.7554  1.3977  0.0457
  370MOL0     H51028   1.008   6.559  10.051 -1.2501  0.2962 -1.1299
  370MOL0     H51029   0.939   6.702  10.142 -0.6574  0.6537  1.3812
  370MOL0     H51030   0.731   6.574  10.161  1.4524 -0.1987  1.2789
  370MOL0     H51031   0.794   6.433  10.082  0.9812 -0.2933 -0.2257
  370MOL0     H51032   0.772   6.701   9.938 -0.0641  0.0739  2.3732
  370MOL0     H51033   0.789   6.552   9.856  0.2115  0.2039  0.6805
  370MOL0     H51034   0.551   6.646   9.863 -1.3962  0.0934 -0.1020
  370MOL0     H51035   0.538   6.595  10.032 -1.4009  2.3048 -1.2175
  370MOL0     H51036   0.520   6.383   9.993  1.2697  1.1959  1.6291
  370MOL0     H51037   0.642   6.383   9.866  0.0837  1.5298  0.4872
  370MOL0     H51038   0.430   6.331   9.754  1.1236 -1.4109  1.1725
  370MOL0     H51039   0.510   6.463   9.687  0.1552 -2.9178 -1.5776
  370MOL0     H51040   1.207   6.344  10.600 -0.1388 -2.9907 -0.1257
  370MOL0     H51041   1.439   6.282  10.661  0.5499  0.5016 -0.2927
  370MOL0     H51042   1.890   6.412  10.533  1.4084 -2.9132  1.3533
  370MOL0     H51043   2.147   6.426  10.559  1.2790 -3.0938  1.6104
  370MOL0     H51044   1.814   7.297  10.285  2.3548 -3.8351  1.7630
  370MOL0     H51045   1.555   7.361  10.330 -0.1544  2.4622  0.0462
  370MOL0     H51046   1.315   7.671  10.524 -0.7711  0.0639 -0.1161
  370MOL0     H51047   1.114   7.781  10.461  0.6088 -0.5571  0.8227
  370MOL0     H51048   0.756   7.563  10.378  1.1957  1.5452 -1.1818
  370MOL0     H51049   0.730   7.595  10.549  0.4488  2.8104  1.7933
  370MOL0     H51050   0.674   7.839  10.492  0.4826  0.7442 -0.7455
  370MOL0     H51051   0.552   7.715  10.447 -0.8606  1.5472 -3.4274
  370MOL0     H51052   0.751   7.803  10.237 -0.4405  0.7407  0.8255
  370MOL0     H51053   0.610   7.709  10.224  1.0166 -0.3577  0.5528
  370MOL0     H51054   0.563   7.933  10.139  1.0750  2.2980  0.8045
  370MOL0     H51055   0.654   7.997  10.271  2.2907 -1.5674 -1.3228
  370MOL0     H51056   0.252   7.933  10.423  0.4747  0.3613 -0.1704
  370MOL0     H51057   0.886   7.433  10.530 -0.1304 -0.8474 -0.0136
  370MOL0     H51058   1.053   7.216  10.465 -0.2980  0.4563  0.6017
  370MOL0     H51059   1.164   7.213  10.606 -0.5570  0.1265  1.1928
  370MOL0     H51060   0.985   7.234  10.629  1.3092 -2.2842  1.7894
  371MOL0     O51061   7.433   2.393   1.430  0.1753 -0.1146 -0.7276
  371MOL0     C51062   7.459   2.499   1.377  0.0594 -0.3239 -0.2673
  371MOL0     O51063   7.388   2.612   1.375 -0.1235  0.3117 -0.6304
  371MOL0     C51064   7.263   2.608   1.435 -0.4975  0.1987 -1.0133
  371MOL0     C51065   7.258   2.581   1.572  0.1123  0.3927 -0.5164
  371MOL0     C51066   7.138   2.593   1.634  0.3202  1.2338  0.2207
  371MOL0     C51067   7.021   2.612   1.557  0.1668 -0.1187 -0.3728
  371MOL0     O51068   6.905   2.609   1.622  0.9092  1.2778 -0.2352
  371MOL0     C51069   6.800   2.529   1.562  0.0743 -0.1096 -0.4855
  371MOL0     C51070   6.804   2.385   1.624  0.4832 -0.4768  0.9223
  371MOL0     C51071   6.663   2.317   1.596  0.7649  0.3979  0.0284
  371MOL0     C51072   6.552   2.345   1.707 -0.8152  0.1469 -0.3566
  371MOL0     C51073   6.421   2.274   1.680 -0.2199  0.4182 -0.1773
  371MOL0     C51074   6.304   2.366   1.714 -0.0298 -0.2374  0.8303
  371MOL0     C51075   6.282   2.492   1.618 -0.1407 -0.2228 -0.5748
  371MOL0     C51076   6.281   2.631   1.678 -0.5128 -0.1873 -0.0205
  371MOL0     N51077   6.402   2.681   1.750 -0.2689 -0.4494  0.0555
  371MOL0     C51078   6.460   2.653   1.879 -0.3244  0.4511  0.1358
  371MOL0     C51079   6.570   2.733   1.892  0.2633  0.4695 -0.2608
  371MOL0     C51080   6.657   2.717   2.018  0.2677 -0.2567 -0.1408
  371MOL0     C51081   6.693   2.565   2.032  0.7592  0.0971  0.2578
  371MOL0     C51082   6.790   2.532   2.149  0.0788 -0.2747  0.1154
  371MOL0     C51083   6.923   2.612   2.149 -0.6938  0.5003  0.1718
  371MOL0     O51084   6.899   2.724   2.230  0.0759 -0.1376 -0.3974
  371MOL0     C51085   6.990   2.827   2.219 -0.1077  0.6374  0.1645
  371MOL0     C51086   6.949   2.959   2.221  0.3824 -0.0482 -0.2552
  371MOL0     C51087   7.036   3.070   2.206  0.7670 -0.9923 -0.5435
  371MOL0     C51088   6.974   3.211   2.211 -0.0363  0.4260 -0.4068
  371MOL0     C51089   7.178   3.040   2.205  0.0606  0.5956 -0.6705
  371MOL0     C51090   7.283   3.150   2.185  0.5326 -0.0852 -1.1640
  371MOL0     O51091   7.413   3.114   2.203 -0.0515 -0.3001  0.3366
  371MOL0     C51092   7.509   3.202   2.158  0.3033 -0.2928 -0.7384
  371MOL0     C51093   7.527   3.331   2.217  0.4240  0.1592 -0.0086
  371MOL0     C51094   7.627   3.416   2.178  0.4510 -0.1784  0.5335
  371MOL0     C51095   7.712   3.379   2.069  0.4570  0.1148 -0.2245
  371MOL0     O51096   7.833   3.436   2.046  0.0759 -0.0124  0.3900
  371MOL0     C51097   7.826   3.555   1.951  1.0839  0.5241  0.3775
  371MOL0     C51098   7.935   3.546   1.841 -0.1331 -0.2970  0.7724
  371MOL0     C51099   8.079   3.582   1.878  1.0496 -0.1388  0.5345
  371MOL0     C51100   8.183   3.558   1.763  0.6716 -0.0114 -0.3506
  371MOL0     C51101   8.320   3.551   1.839  0.0041  0.1007 -0.0208
  371MOL0     C51102   8.431   3.546   1.738  0.2034  0.2359 -0.0020
  371MOL0     C51103   8.553   3.510   1.822  0.1215  0.2400 -0.1576
  371MOL0     C51104   8.672   3.570   1.752 -0.7819 -0.6486  0.3277
  371MOL0    Cl51105   8.818   3.527   1.853  0.2401  0.0637  0.4372
  371MOL0     C51106   7.679   3.259   2.000 -0.0409  0.8504  0.2462
  371MOL0     C51107   7.587   3.168   2.056  0.3695  0.2304  0.9534
  371MOL0     O51108   7.241   3.264   2.162 -0.1193 -0.3846 -0.2140
  371MOL0     C51109   7.229   2.908   2.211 -0.5132 -0.4077 -0.9975
  371MOL0     C51110   7.130   2.802   2.211 -0.8465 -0.0061 -0.2088
  371MOL0     N51111   6.575   2.816   1.778 -0.0010  0.0671 -0.9007
  371MOL0     N51112   6.478   2.779   1.690 -0.5700 -0.0441 -0.7141
  371MOL0     C51113   7.025   2.645   1.418 -0.0937  0.2440  0.5881
  371MOL0     C51114   7.149   2.645   1.357 -0.2991 -0.0288  0.0524
  371MOL0     C51115   7.583   2.510   1.289 -0.3247 -0.0447  0.4525
  371MOL0     C51116   7.662   2.389   1.277 -0.0575  0.6592 -0.1870
  371MOL0     C51117   7.778   2.374   1.194 -0.0065  0.3791  0.5158
  371MOL0     C51118   7.816   2.481   1.111  0.1995 -0.5065 -0.3219
  371MOL0     O51119   7.924   2.459   1.023  0.3160  0.3813  0.6888
  371MOL0     C51120   7.998   2.558   0.949  0.9881 -0.4275  0.4178
  371MOL0     C51121   8.061   2.665   1.037 -0.0937 -0.2009  0.0443
  371MOL0     C51122   8.102   2.787   0.945  0.7427 -0.4904  1.2416
  371MOL0     C51123   8.213   2.767   0.840  0.2737  0.1408  0.6400
  371MOL0     C51124   8.268   2.895   0.791 -0.0048 -0.3574 -0.0686
  371MOL0     C51125   8.326   2.988   0.731 -0.1028  0.6385  0.3614
  371MOL0     C51126   7.738   2.602   1.121 -0.5914  0.2236  0.0475
  371MOL0     C51127   7.633   2.619   1.207  0.6524 -1.5841  0.1171
  371MOL0     C51128   7.571   2.755   1.209 -0.0865  0.2161 -0.3669
  371MOL0     H51129   7.348   2.553   1.627 -1.0047 -2.1822  0.1651
  371MOL0     H51130   7.114   2.582   1.739 -1.7028 -1.0875 -0.3756
  371MOL0     H51131   6.810   2.516   1.453  0.9039  0.9048 -0.5496
  371MOL0     H51132   6.708   2.583   1.586 -0.3016 -1.3607  1.0538
  371MOL0     H51133   6.891   2.326   1.594  2.1568  2.1280  0.2760
  371MOL0     H51134   6.818   2.389   1.732  0.6340 -0.6587  0.9094
  371MOL0     H51135   6.621   2.346   1.500  0.8971  2.9887  0.6647
  371MOL0     H51136   6.679   2.209   1.592  1.0704  0.4615 -3.8772
  371MOL0     H51137   6.589   2.344   1.810  2.2163 -2.5057 -1.2876
  371MOL0     H51138   6.540   2.450   1.682  1.1602  0.3483 -0.6379
  371MOL0     H51139   6.404   2.184   1.740 -0.5301  0.2174 -0.5604
  371MOL0     H51140   6.420   2.234   1.578 -2.5982 -2.1033  0.7114
  371MOL0     H51141   6.220   2.300   1.691  1.2198 -0.6392 -3.5212
  371MOL0     H51142   6.299   2.387   1.821 -0.7497  0.8601  0.5924
  371MOL0     H51143   6.193   2.470   1.558 -4.1091  2.5303  3.5392
  371MOL0     H51144   6.364   2.488   1.547 -0.4400  1.4544 -1.0450
  371MOL0     H51145   6.242   2.706   1.607 -0.6971 -0.8539 -0.6334
  371MOL0     H51146   6.215   2.622   1.765 -2.8369  0.2757 -1.6262
  371MOL0     H51147   6.410   2.590   1.953  0.1513  0.4917  0.4999
  371MOL0     H51148   6.614   2.761   2.109  0.3329  1.4224 -0.8756
  371MOL0     H51149   6.747   2.778   2.003  0.0818  0.4237  1.3050
  371MOL0     H51150   6.603   2.504   2.051  1.2924 -0.9044 -0.3512
  371MOL0     H51151   6.728   2.540   1.932 -0.4901  0.1966 -0.2221
  371MOL0     H51152   6.752   2.525   2.252 -0.8825 -3.4223 -0.3479
  371MOL0     H51153   6.821   2.429   2.133  1.7446 -0.5383  4.0545
  371MOL0     H51154   7.011   2.560   2.189 -1.9113 -2.0205 -0.1761
  371MOL0     H51155   6.954   2.625   2.045  1.4721  1.2121  0.8518
  371MOL0     H51156   6.841   2.967   2.229  0.2930  3.7655 -2.6947
  371MOL0     H51157   6.865   3.202   2.219  0.1803 -1.3959  1.3011
  371MOL0     H51158   6.997   3.260   2.116 -0.5419 -0.9680 -1.2816
  371MOL0     H51159   7.016   3.279   2.285 -2.6367  0.8314  0.8063
  371MOL0     H51160   7.460   3.366   2.296 -0.0378 -2.1040  0.6718
  371MOL0     H51161   7.632   3.511   2.230 -3.7184  2.1333 -2.6937
  371MOL0     H51162   7.730   3.559   1.899  2.2295  1.1578 -1.8417
  371MOL0     H51163   7.843   3.652   1.998 -1.0164  0.2395  1.8598
  371MOL0     H51164   7.922   3.451   1.789 -0.2801  0.5215 -0.7188
  371MOL0     H51165   7.910   3.624   1.770  2.2442 -0.0843  0.0841
  371MOL0     H51166   8.092   3.515   1.963 -1.1665  0.3405  1.3092
  371MOL0     H51167   8.078   3.686   1.911 -0.4965  0.6514 -1.7356
  371MOL0     H51168   8.167   3.642   1.696  0.3493  2.0803  2.2062
  371MOL0     H51169   8.167   3.465   1.707 -1.0732 -1.9500  2.9644
  371MOL0     H51170   8.330   3.649   1.886  1.0013  1.9353 -3.6471
  371MOL0     H51171   8.331   3.466   1.907 -1.0828  0.8008  1.0825
  371MOL0     H51172   8.427   3.638   1.680 -1.3935 -0.8962 -1.7865
  371MOL0     H51173   8.415   3.460   1.673 -1.9188 -1.6929  2.8075
  371MOL0     H51174   8.568   3.402   1.833  0.2104  0.2787  0.1262
  371MOL0     H51175   8.548   3.553   1.923  0.9598  4.5072 -1.6963
  371MOL0     H51176   8.658   3.678   1.739 -0.7765 -0.4115  2.1238
  371MOL0     H51177   8.678   3.536   1.648 -1.4056 -1.7982  0.6651
  371MOL0     H51178   7.741   3.231   1.916 -0.2010  3.7779 -0.9845
  371MOL0     H51179   7.580   3.071   2.008  1.3139  0.7480 -0.3153
  371MOL0     H51180   7.334   2.883   2.223 -0.1487  1.5731  0.4386
  371MOL0     H51181   7.180   2.706   2.203 -1.0015  0.0345 -2.0081
  371MOL0     H51182   6.933   2.663   1.364 -0.2096  0.7765  0.9523
  371MOL0     H51183   7.139   2.652   1.249 -4.9834  0.3848  0.3253
  371MOL0     H51184   7.626   2.303   1.333  0.8297  0.8030  0.6395
  371MOL0     H51185   7.845   2.290   1.209  0.7482  0.8901  0.0719
  371MOL0     H51186   8.063   2.505   0.880  1.1406  1.7548 -1.2023
  371MOL0     H51187   7.924   2.613   0.890 -1.7193 -2.4108  1.7347
  371MOL0     H51188   8.145   2.637   1.102 -1.2751  0.1688  1.7859
  371MOL0     H51189   7.980   2.702   1.100 -0.5574  1.1471 -1.2781
  371MOL0     H51190   8.015   2.828   0.893  1.6581 -0.7323 -0.5771
  371MOL0     H51191   8.138   2.864   1.014  0.5600  0.0591  0.7312
  371MOL0     H51192   8.174   2.703   0.760 -0.1840 -1.5286  2.1413
  371MOL0     H51193   8.295   2.708   0.882  0.5627 -0.9718 -1.3172
  371MOL0     H51194   8.376   3.067   0.679  2.6890 -1.8904 -1.1180
  371MOL0     H51195   7.772   2.677   1.051 -2.9516  0.6628 -0.7071
  371MOL0     H51196   7.478   2.748   1.152 -0.3901  0.7775  0.0413
  371MOL0     H51197   7.554   2.793   1.310 -1.5857 -0.1576 -0.4523
  371MOL0     H51198   7.645   2.830   1.181  2.2651 -1.4127  1.1325
  372MOL0     O51199   9.060   1.840  11.235  0.1982 -0.0626 -0.2636
  372MOL0     C51200   8.953   1.817  11.294  0.8022  1.0219 -0.6983
  372MOL0     O51201   8.926   1.695  11.359  0.0414  0.6141 -0.2436
  372MOL0     C51202   9.045   1.627  11.371 -0.1785 -0.5810 -0.0827
  372MOL0     C51203   9.081   1.535  11.273 -0.2417 -0.1924  0.0923
  372MOL0     C51204   9.194   1.455  11.295  0.7452 -0.9998 -0.5106
  372MOL0     C51205   9.282   1.483  11.399 -0.2205  0.7501 -0.8564
  372MOL0     O51206   9.390   1.401  11.400 -0.4625  0.0764  0.0088
  372MOL0     C51207   9.499   1.452  11.461  0.5135 -0.3209 -0.1888
  372MOL0     C51208   9.610   1.355  11.452  1.0535  0.6530  0.2502
  372MOL0     C51209   9.737   1.413  11.502  0.3499  0.3057  0.3071
  372MOL0     C51210   9.812   1.305  11.575 -1.1728  0.0214 -0.6325
  372MOL0     C51211   9.966   1.339  11.582 -0.4402 -0.3359  0.0264
  372MOL0     C51212  10.043   1.217  11.631  0.1373 -0.3618  0.4327
  372MOL0     C51213  10.187   1.251  11.668  0.2839  0.2523  0.5500
  372MOL0     C51214  10.272   1.260  11.549  0.2091 -0.1222 -0.3452
  372MOL0     N51215  10.416   1.277  11.585  0.1852  0.0144 -0.2791
  372MOL0     C51216  10.488   1.191  11.666 -0.3159 -0.2356  0.5540
  372MOL0     C51217  10.593   1.267  11.707  0.5803 -0.3271 -0.0994
  372MOL0     C51218  10.696   1.214  11.800 -0.8309 -0.4546 -0.2702
  372MOL0     C51219  10.829   1.195  11.724 -0.0142  0.7061  0.4191
  372MOL0     C51220  10.921   1.088  11.798  0.0716  0.0161  0.5626
  372MOL0     C51221  11.048   1.069  11.713 -0.0109  0.2357  0.7672
  372MOL0     O51222  11.144   1.172  11.728 -0.0564  1.3679  0.3111
  372MOL0     C51223  11.238   1.157  11.823  0.5875  0.7710  0.1343
  372MOL0     C51224  11.260   1.050  11.918  0.6910 -0.5119  0.0579
  372MOL0     C51225  11.373   1.052  12.000  0.0001 -0.6488 -0.0407
  372MOL0     C51226  11.392   0.933  12.094  0.1641 -1.1681  0.1594
  372MOL0     C51227  11.467   1.158  12.005  0.4773  0.0287  0.4069
  372MOL0     C51228  11.583   1.184  12.095  0.9236 -0.1856 -0.1537
  372MOL0     O51229  11.636   1.304  12.088  0.1319  0.2961 -1.2750
  372MOL0     C51230  11.752   1.347  12.150  0.1218 -0.0812 -0.7995
  372MOL0     C51231  11.776   1.485  12.148  0.2747 -0.5492  0.4200
  372MOL0     C51232  11.904   1.529  12.200  0.2506  0.2294 -0.6454
  372MOL0     C51233  12.011   1.444  12.244  0.0639 -0.6580  1.0290
  372MOL0     O51234  12.130   1.501  12.267 -0.2513 -0.4311  0.0321
  372MOL0     C51235  12.250   1.422  12.279  0.5072 -0.2604 -0.0795
  372MOL0     C51236  12.369   1.513  12.280 -0.1792  0.4370 -0.5308
  372MOL0     C51237  12.492   1.455  12.352  0.1537  0.2820 -0.8707
  372MOL0     C51238  12.583   1.359  12.274  0.0201  0.0918  0.5785
  372MOL0     C51239  12.674   1.278  12.364 -0.1480  1.2550  0.4448
  372MOL0     C51240  12.790   1.374  12.407  0.0816  0.7702  0.0036
  372MOL0     C51241  12.894   1.389  12.298  0.2024  0.1157  0.1725
  372MOL0     C51242  13.003   1.492  12.342 -0.9050 -0.6385 -0.5181
  372MOL0    Cl51243  13.052   1.494  12.516  0.2102  0.0339  0.1488
  372MOL0     C51244  11.980   1.306  12.243 -0.0109  0.3828 -0.7609
  372MOL0     C51245  11.851   1.256  12.209  0.0604  1.0969 -0.0480
  372MOL0     O51246  11.608   1.101  12.181 -0.0324 -0.2978 -0.7593
  372MOL0     C51247  11.439   1.260  11.907 -1.2898 -0.2168  0.0956
  372MOL0     C51248  11.323   1.261  11.831 -0.1617 -0.4516  0.6224
  372MOL0     N51249  10.589   1.387  11.645 -1.0754 -0.2375 -0.3059
  372MOL0     N51250  10.488   1.397  11.569  0.2311 -0.5105  0.8679
  372MOL0     C51251   9.246   1.586  11.500 -0.7213  0.8017  1.1122
  372MOL0     C51252   9.134   1.660  11.472 -0.4317  0.5424 -0.5167
  372MOL0     C51253   8.841   1.909  11.317 -0.1485  0.0156  0.5521
  372MOL0     C51254   8.714   1.845  11.303 -0.8003  0.0247 -0.4148
  372MOL0     C51255   8.596   1.911  11.319  0.4072  0.1206  0.1359
  372MOL0     C51256   8.603   2.049  11.334 -0.1872  0.3817 -0.4840
  372MOL0     O51257   8.488   2.109  11.377  0.1672  1.1015 -0.2676
  372MOL0     C51258   8.363   2.079  11.323 -0.0701 -0.9813  0.0952
  372MOL0     C51259   8.279   1.985  11.409 -0.2023  0.1272  0.4230
  372MOL0     C51260   8.198   2.047  11.522 -0.1968 -0.7134 -0.8435
  372MOL0     C51261   8.290   2.103  11.632  0.0024  0.2179 -0.2597
  372MOL0     C51262   8.339   1.997  11.724 -0.9790 -1.0737  0.3379
  372MOL0     C51263   8.400   1.928  11.801  0.2101  0.3671 -0.3579
  372MOL0     C51264   8.725   2.118  11.335  0.3182 -0.2639  0.2377
  372MOL0     C51265   8.842   2.048  11.340 -0.6202  0.7606 -0.6736
  372MOL0     C51266   8.972   2.119  11.359  0.0194 -0.1915 -0.4154
  372MOL0     H51267   9.020   1.503  11.189  0.5294 -1.3269 -0.0565
  372MOL0     H51268   9.219   1.371  11.230 -0.0695  1.0399 -3.6794
  372MOL0     H51269   9.489   1.469  11.569  2.9471 -0.3220  0.0957
  372MOL0     H51270   9.521   1.547  11.413 -3.6309  1.3492  0.7832
  372MOL0     H51271   9.577   1.265  11.505 -0.4021 -0.3201 -2.1531
  372MOL0     H51272   9.617   1.352  11.343 -2.8005 -0.1913 -0.1298
  372MOL0     H51273   9.797   1.467  11.429 -1.1844  2.5495  0.6260
  372MOL0     H51274   9.719   1.489  11.579  0.8170  1.9534 -1.1413
  372MOL0     H51275   9.772   1.286  11.676  3.7192 -2.8555  1.0840
  372MOL0     H51276   9.802   1.215  11.514  1.5983 -0.9663  0.2202
  372MOL0     H51277   9.982   1.424  11.649 -1.1211 -0.8319  0.8370
  372MOL0     H51278  10.000   1.375  11.484  0.9185 -3.2450 -0.6665
  372MOL0     H51279   9.985   1.165  11.708  0.5992 -0.4578  0.7276
  372MOL0     H51280  10.044   1.144  11.550 -4.3172 -2.0666  1.6330
  372MOL0     H51281  10.221   1.156  11.710 -0.7787 -1.1334 -1.5616
  372MOL0     H51282  10.203   1.338  11.732  3.4681  1.4138 -1.5922
  372MOL0     H51283  10.267   1.165  11.495  2.8948  1.7590 -4.4419
  372MOL0     H51284  10.242   1.341  11.482  1.1565  0.4143 -0.1400
  372MOL0     H51285  10.468   1.093  11.710 -2.6561 -1.3914 -2.7077
  372MOL0     H51286  10.667   1.117  11.840  0.8457  0.0377  2.4558
  372MOL0     H51287  10.720   1.282  11.883 -0.5046  2.4865 -2.6246
  372MOL0     H51288  10.803   1.147  11.630  1.5340  1.3263 -0.3532
  372MOL0     H51289  10.869   1.296  11.716  0.0910  0.8079  1.8836
  372MOL0     H51290  10.947   1.112  11.901 -0.6666  1.6208  0.4069
  372MOL0     H51291  10.864   0.998  11.822  0.6499 -0.2028  1.1391
  372MOL0     H51292  11.098   0.976  11.742 -3.0494 -1.7812 -0.0360
  372MOL0     H51293  11.025   1.074  11.607  1.2383  1.2762  0.5086
  372MOL0     H51294  11.204   0.957  11.922 -0.6216  0.0361 -2.7344
  372MOL0     H51295  11.491   0.887  12.095  0.5709 -0.3250  0.2213
  372MOL0     H51296  11.319   0.856  12.070 -1.2829 -0.1891  1.2255
  372MOL0     H51297  11.356   0.968  12.191 -1.0812  2.4939 -1.4259
  372MOL0     H51298  11.705   1.543  12.090  1.4169 -1.1838 -1.7176
  372MOL0     H51299  11.931   1.634  12.192  2.1695  0.0827  2.2964
  372MOL0     H51300  12.242   1.359  12.368 -1.4463 -0.6851 -0.5109
  372MOL0     H51301  12.258   1.360  12.189 -0.1435 -2.6596  1.4249
  372MOL0     H51302  12.393   1.528  12.174 -0.5618 -0.9436 -0.8363
  372MOL0     H51303  12.336   1.596  12.343  1.1079  0.5905 -0.0375
  372MOL0     H51304  12.456   1.412  12.446 -0.2613  1.4907 -0.4506
  372MOL0     H51305  12.548   1.544  12.384 -2.7579  1.1277  2.5531
  372MOL0     H51306  12.623   1.409  12.185 -2.5108 -0.8579 -1.2011
  372MOL0     H51307  12.513   1.285  12.233 -1.8253  0.6527  2.5486
  372MOL0     H51308  12.614   1.237  12.446  0.5533 -1.7738 -0.4308
  372MOL0     H51309  12.718   1.191  12.315  0.5514  0.8735  1.7089
  372MOL0     H51310  12.833   1.318  12.491 -4.5229 -3.4441  0.0652
  372MOL0     H51311  12.759   1.475  12.437  1.0771  2.1836 -3.2614
  372MOL0     H51312  12.856   1.421  12.201 -0.6917 -1.3488  0.0067
  372MOL0     H51313  12.941   1.291  12.286  1.2287  0.7964 -1.6047
  372MOL0     H51314  12.965   1.592  12.318  1.2896  0.0877 -1.2164
  372MOL0     H51315  13.093   1.469  12.286 -1.3369 -4.5708  0.1546
  372MOL0     H51316  12.065   1.244  12.270  1.0874  2.4693  0.8617
  372MOL0     H51317  11.852   1.150  12.188  0.4998  0.9185  0.8033
  372MOL0     H51318  11.499   1.349  11.890 -1.7608  0.1319  0.2636
  372MOL0     H51319  11.290   1.344  11.768 -0.9591 -1.7612 -0.7677
  372MOL0     H51320   9.316   1.612  11.578  0.0774  0.0994  0.6446
  372MOL0     H51321   9.100   1.722  11.554 -1.6645 -0.5555 -0.1608
  372MOL0     H51322   8.715   1.737  11.290 -1.1506  0.0184 -0.3983
  372MOL0     H51323   8.506   1.850  11.327 -1.2286  2.2425 -0.9189
  372MOL0     H51324   8.316   2.178  11.323  1.4766 -0.0437  4.1052
  372MOL0     H51325   8.379   2.045  11.220  0.8442  1.1371 -0.5255
  372MOL0     H51326   8.348   1.909  11.447 -1.5949  0.2446  3.5460
  372MOL0     H51327   8.211   1.927  11.346 -1.4442  0.3678  1.4792
  372MOL0     H51328   8.154   2.139  11.481  0.3040  0.0960  0.3924
  372MOL0     H51329   8.121   1.978  11.558 -1.7673  0.7275 -1.3365
  372MOL0     H51330   8.223   2.168  11.689 -0.6165 -0.0048 -0.7256
  372MOL0     H51331   8.373   2.163  11.592 -0.8311  2.8019  1.6024
  372MOL0     H51332   8.476   1.871  11.851  3.0184  3.2748 -0.9312
  372MOL0     H51333   8.732   2.226  11.340 -0.8647 -0.1611 -0.0062
  372MOL0     H51334   9.013   2.118  11.460  0.3676  0.6129 -0.5387
  372MOL0     H51335   9.052   2.079  11.294  1.3108  0.1566  0.9039
  372MOL0     H51336   8.959   2.221  11.322  1.3865 -0.5940 -2.1779
  373MOL0     O51337  11.245   1.189   1.524  0.2622  0.9415 -0.7486
  373MOL0     C51338  11.258   1.066   1.531  0.8385  0.3394  0.3869
  373MOL0     O51339  11.375   0.998   1.550  0.6231  0.4937  0.2797
  373MOL0     C51340  11.490   1.056   1.586  0.0378 -0.3413 -0.6122
  373MOL0     C51341  11.506   1.167   1.663 -0.6121 -0.0839 -0.4430
  373MOL0     C51342  11.638   1.203   1.705 -0.3782  0.5088  0.0655
  373MOL0     C51343  11.749   1.143   1.666 -0.4592  0.5824  0.6914
  373MOL0     O51344  11.861   1.174   1.729 -0.3423 -0.6498 -0.1961
  373MOL0     C51345  11.986   1.150   1.665  0.0223 -0.7215 -0.2266
  373MOL0     C51346  12.092   1.113   1.775 -0.3415 -0.5201 -0.3569
  373MOL0     C51347  12.151   1.245   1.843  0.2220 -0.9739 -0.0861
  373MOL0     C51348  12.285   1.232   1.906  0.3622 -0.4414 -0.2562
  373MOL0     C51349  12.390   1.149   1.828  0.9120  0.0975 -1.1468
  373MOL0     C51350  12.530   1.163   1.893 -0.0167 -0.2669  0.2544
  373MOL0     C51351  12.623   1.091   1.794  0.0079  0.0155 -0.5571
  373MOL0     C51352  12.767   1.145   1.806 -0.1959  0.0533  1.3121
  373MOL0     N51353  12.792   1.279   1.740  0.0338  0.3666  0.0154
  373MOL0     C51354  12.787   1.298   1.609  0.4906 -0.4203  0.9707
  373MOL0     C51355  12.858   1.419   1.582  0.2818  0.7538 -0.2166
  373MOL0     C51356  12.899   1.469   1.443  0.4078  0.4208  0.8314
  373MOL0     C51357  12.776   1.516   1.353  0.2175  0.7249  0.2433
  373MOL0     C51358  12.715   1.639   1.424 -0.3220  0.1727  0.1609
  373MOL0     C51359  12.794   1.759   1.391  0.5539  0.0019  0.6208
  373MOL0     O51360  12.796   1.776   1.249  0.8495  0.1958  0.2093
  373MOL0     C51361  12.878   1.877   1.196  0.0726 -0.1562  0.5486
  373MOL0     C51362  12.974   1.947   1.263 -0.5877 -1.0600  0.7298
  373MOL0     C51363  13.051   2.048   1.199 -0.0565 -0.2579 -0.5576
  373MOL0     C51364  13.159   2.126   1.275  0.4150  0.4453  0.2434
  373MOL0     C51365  13.029   2.086   1.064  0.6939  0.5331  0.2605
  373MOL0     C51366  13.088   2.190   0.981 -0.2369 -0.3410  0.5778
  373MOL0     O51367  13.083   2.183   0.842  0.3327 -0.0081  0.0675
  373MOL0     C51368  13.166   2.257   0.756  0.1182  0.5005  0.2971
  373MOL0     C51369  13.235   2.372   0.791 -0.1447  0.0042 -0.5644
  373MOL0     C51370  13.327   2.420   0.702  0.0001  0.6323 -0.7498
  373MOL0     C51371  13.335   2.373   0.575 -0.1257  0.4273 -0.1917
  373MOL0     O51372  13.419   2.423   0.483 -0.6555  0.4505 -0.3556
  373MOL0     C51373  13.561   2.454   0.520 -0.0827 -0.5087  0.4334
  373MOL0     C51374  13.636   2.320   0.521  0.8568  0.0038  0.1016
  373MOL0     C51375  13.641   2.256   0.371  0.0406 -0.2727 -0.1423
  373MOL0     C51376  13.782   2.200   0.358 -0.1004  0.6273 -0.5854
  373MOL0     C51377  13.886   2.305   0.315 -0.4163 -0.7781  0.9033
  373MOL0     C51378  14.025   2.258   0.297 -0.3045  0.0568  0.4406
  373MOL0     C51379  14.115   2.386   0.269 -0.5678  0.5239  0.7135
  373MOL0     C51380  14.260   2.342   0.266 -0.8353  0.1566  0.1850
  373MOL0    Cl51381  14.360   2.501   0.237  0.0781 -0.0118  0.2998
  373MOL0     C51382  13.256   2.266   0.533 -0.0156 -0.0849  0.4500
  373MOL0     C51383  13.161   2.216   0.617  0.2533 -0.2780 -0.3644
  373MOL0     O51384  13.132   2.286   1.039 -0.4211  0.9484  0.5290
  373MOL0     C51385  12.941   2.002   0.994  0.0089  0.4656  0.1975
  373MOL0     C51386  12.867   1.907   1.059  0.0754  0.1101 -0.5332
  373MOL0     N51387  12.898   1.473   1.703 -0.8736 -0.7205  0.1861
  373MOL0     N51388  12.853   1.386   1.791  0.0199 -0.1603 -0.8916
  373MOL0     C51389  11.729   1.034   1.576  0.0415 -0.5771 -0.7808
  373MOL0     C51390  11.605   0.989   1.537 -0.4458  0.4567 -0.6407
  373MOL0     C51391  11.135   0.986   1.531 -0.3666  1.0653  1.1272
  373MOL0     C51392  11.133   0.865   1.609 -0.3325 -0.3981 -0.4855
  373MOL0     C51393  11.019   0.780   1.611 -0.8512 -0.6507 -0.6231
  373MOL0     C51394  10.912   0.812   1.536  0.2641  0.6177 -0.2260
  373MOL0     O51395  10.812   0.711   1.557  0.6808 -0.3509  0.6121
  373MOL0     C51396  10.684   0.732   1.484 -0.2367  0.6973 -0.5895
  373MOL0     C51397  10.602   0.609   1.484 -0.0932  0.2725  0.5593
  373MOL0     C51398  10.482   0.622   1.391 -0.5352 -0.8514 -0.2817
  373MOL0     C51399  10.426   0.485   1.354 -0.2604 -0.0935 -0.0271
  373MOL0     C51400  10.311   0.514   1.265  1.3558  0.5769  0.3746
  373MOL0     C51401  10.225   0.548   1.191  0.3896  0.1508 -0.0648
  373MOL0     C51402  10.911   0.931   1.456 -0.5062 -0.0360 -1.1187
  373MOL0     C51403  11.023   1.019   1.454  0.4669  1.0715  0.0904
  373MOL0     C51404  11.007   1.134   1.354  0.2339  0.4817  0.0156
  373MOL0     H51405  11.422   1.215   1.712 -0.0265  0.4351  0.0766
  373MOL0     H51406  11.655   1.288   1.770 -1.2742 -0.2486  1.3373
  373MOL0     H51407  12.013   1.238   1.606 -1.4261 -0.6480 -0.8017
  373MOL0     H51408  11.983   1.068   1.593 -0.9777 -1.3300  0.4901
  373MOL0     H51409  12.054   1.045   1.851  0.5489  0.3314  0.8945
  373MOL0     H51410  12.177   1.075   1.717 -0.3111 -0.2217 -0.5105
  373MOL0     H51411  12.159   1.324   1.768 -2.4571 -0.5914 -0.0607
  373MOL0     H51412  12.088   1.286   1.923  0.4560  0.4242 -0.5986
  373MOL0     H51413  12.331   1.328   1.933 -0.9959  0.8651 -2.3338
  373MOL0     H51414  12.265   1.180   2.000 -1.1168  0.8376  0.1719
  373MOL0     H51415  12.389   1.196   1.729  2.0324 -0.0375 -1.2363
  373MOL0     H51416  12.367   1.043   1.844  3.9757 -0.4352  0.6129
  373MOL0     H51417  12.558   1.269   1.900  0.2520 -0.2153 -1.3123
  373MOL0     H51418  12.534   1.115   1.991  1.8237 -0.3782  0.1647
  373MOL0     H51419  12.598   1.112   1.690  0.8527 -0.0524 -0.7860
  373MOL0     H51420  12.621   0.983   1.808 -1.8880 -0.1280 -1.6348
  373MOL0     H51421  12.791   1.137   1.913  0.4001  0.9374  1.2600
  373MOL0     H51422  12.833   1.080   1.748  1.1773  2.0839  0.4839
  373MOL0     H51423  12.744   1.230   1.536 -2.3535  1.2714  0.9295
  373MOL0     H51424  12.963   1.389   1.403 -1.4651 -0.3067 -0.8203
  373MOL0     H51425  12.966   1.555   1.450 -0.1849  1.0827 -1.1991
  373MOL0     H51426  12.818   1.542   1.256 -4.0463 -0.6149 -2.2176
  373MOL0     H51427  12.708   1.431   1.343  1.7374 -0.8880  2.5814
  373MOL0     H51428  12.609   1.653   1.399  0.0640 -0.2584 -1.9670
  373MOL0     H51429  12.724   1.644   1.533 -1.0839  1.3211  0.1913
  373MOL0     H51430  12.735   1.841   1.433  1.6435  1.2092 -0.1310
  373MOL0     H51431  12.897   1.753   1.425  1.4924  0.6006 -1.8827
  373MOL0     H51432  13.004   1.921   1.364 -0.9529 -0.0503  1.1056
  373MOL0     H51433  13.113   2.206   1.334 -2.4588  0.2464 -1.5254
  373MOL0     H51434  13.242   2.162   1.214  2.0009  1.2666  2.7253
  373MOL0     H51435  13.204   2.050   1.340  1.8595 -0.2762 -1.5361
  373MOL0     H51436  13.237   2.428   0.884  1.1897  0.5587 -0.9119
  373MOL0     H51437  13.381   2.512   0.725 -0.5063  1.0115 -1.0352
  373MOL0     H51438  13.607   2.517   0.444  1.0177 -0.6405  0.9792
  373MOL0     H51439  13.565   2.503   0.618  0.3879  1.3988 -0.5022
  373MOL0     H51440  13.735   2.355   0.547  1.3157  0.7281 -2.3390
  373MOL0     H51441  13.585   2.250   0.588 -0.0730  0.6551  0.0867
  373MOL0     H51442  13.604   2.319   0.290  0.2680 -0.0423 -0.0646
  373MOL0     H51443  13.587   2.160   0.366  3.9847 -2.6616 -1.3995
  373MOL0     H51444  13.770   2.112   0.294  0.5555  0.0070  0.1216
  373MOL0     H51445  13.821   2.155   0.450  1.3117 -2.1057 -2.3791
  373MOL0     H51446  13.852   2.336   0.216 -0.0320 -2.4179  0.2137
  373MOL0     H51447  13.881   2.393   0.379  1.3435  1.2718 -1.5594
  373MOL0     H51448  14.030   2.188   0.213  0.9896  1.9787 -1.1749
  373MOL0     H51449  14.056   2.193   0.380  2.2662  2.8897  1.8885
  373MOL0     H51450  14.096   2.475   0.331 -1.0994  1.2675 -0.4786
  373MOL0     H51451  14.097   2.421   0.167  2.7693 -2.0512 -0.9342
  373MOL0     H51452  14.265   2.272   0.183  1.1189 -0.0329  0.4258
  373MOL0     H51453  14.289   2.289   0.357 -0.1770  2.2695  1.2828
  373MOL0     H51454  13.260   2.228   0.431  0.9847 -0.6297  0.6836
  373MOL0     H51455  13.086   2.140   0.599 -0.3080  0.1732  0.0005
  373MOL0     H51456  12.925   2.006   0.886  1.4992 -4.1962 -0.4182
  373MOL0     H51457  12.804   1.849   0.993 -0.3776  1.5908 -1.4268
  373MOL0     H51458  11.814   0.988   1.527  0.5692  0.5427 -0.9479
  373MOL0     H51459  11.590   0.911   1.463 -0.3549 -0.7225  0.5451
  373MOL0     H51460  11.218   0.832   1.668 -0.4754 -1.7700 -1.0085
  373MOL0     H51461  11.019   0.689   1.670 -0.7000  1.0920  2.2237
  373MOL0     H51462  10.621   0.804   1.537 -0.8246 -1.6855  2.1672
  373MOL0     H51463  10.699   0.770   1.382 -2.9392  1.0771 -0.9257
  373MOL0     H51464  10.558   0.594   1.583 -1.1515  0.9614  0.2204
  373MOL0     H51465  10.669   0.534   1.441  0.5082  0.6621  0.8052
  373MOL0     H51466  10.413   0.691   1.441  1.2780 -0.0093  1.1745
  373MOL0     H51467  10.513   0.659   1.293 -1.2597 -1.5584 -0.7836
  373MOL0     H51468  10.388   0.442   1.447  0.9557 -2.2954 -0.4705
  373MOL0     H51469  10.491   0.409   1.309  0.0077  1.9913 -3.4450
  373MOL0     H51470  10.143   0.570   1.126  0.6796 -1.1274 -0.8988
  373MOL0     H51471  10.824   0.952   1.395  0.8267  4.0320 -1.8998
  373MOL0     H51472  11.104   1.177   1.327  1.4430 -1.7812  0.4980
  373MOL0     H51473  10.962   1.095   1.262  3.7221  0.6343 -1.9324
  373MOL0     H51474  10.945   1.217   1.387 -1.9382  0.5321 -3.6571
  374MOL0     O51475   1.271   2.548   3.312  0.2804  1.1615  0.3456
  374MOL0     C51476   1.274   2.497   3.199 -0.5088 -0.0571 -0.3588
  374MOL0     O51477   1.384   2.491   3.120  0.2471  0.1493 -0.4940
  374MOL0     C51478   1.515   2.533   3.149  0.0761 -0.1388 -0.8608
  374MOL0     C51479   1.566   2.532   3.280 -0.0659 -0.1734  0.1355
  374MOL0     C51480   1.701   2.568   3.303  0.0915 -0.0439 -0.8094
  374MOL0     C51481   1.790   2.586   3.199  0.2386  0.4306  0.5226
  374MOL0     O51482   1.924   2.613   3.220  0.1353  0.2397  0.3298
  374MOL0     C51483   1.980   2.618   3.350 -0.4579 -0.9817 -0.1993
  374MOL0     C51484   2.133   2.614   3.341  0.2907  1.0519  0.0130
  374MOL0     C51485   2.200   2.710   3.240  0.2689 -0.1837 -0.8093
  374MOL0     C51486   2.190   2.845   3.310 -0.7855  0.0137 -0.1030
  374MOL0     C51487   2.288   2.950   3.232  0.3914 -1.1821  0.7385
  374MOL0     C51488   2.291   3.099   3.292  0.2028 -0.3588  0.6176
  374MOL0     C51489   2.383   3.106   3.408 -0.5453  0.3947  0.3916
  374MOL0     C51490   2.418   3.243   3.475  0.3847  0.3416 -0.1751
  374MOL0     N51491   2.537   3.233   3.551  0.9060  0.4725 -0.6431
  374MOL0     C51492   2.662   3.270   3.511  0.2765 -0.1964 -0.3661
  374MOL0     C51493   2.749   3.243   3.608  0.5260  0.5445 -0.0149
  374MOL0     C51494   2.897   3.265   3.599 -1.0050 -0.1331  0.2443
  374MOL0     C51495   2.967   3.147   3.533 -0.1321 -0.3364  0.9217
  374MOL0     C51496   3.110   3.133   3.586 -0.6075  0.6538  0.1752
  374MOL0     C51497   3.204   3.054   3.500 -0.5201 -0.1706  0.1132
  374MOL0     O51498   3.221   3.123   3.376 -0.1024 -0.1412  0.2688
  374MOL0     C51499   3.331   3.210   3.356 -1.0507 -0.0061 -1.0928
  374MOL0     C51500   3.361   3.258   3.224  0.3085 -0.7053  0.0650
  374MOL0     C51501   3.481   3.333   3.198  1.0293  0.0542 -0.8678
  374MOL0     C51502   3.518   3.383   3.062 -1.0704 -0.2013 -0.8923
  374MOL0     C51503   3.561   3.353   3.312  0.8188  0.4882 -0.0465
  374MOL0     C51504   3.679   3.433   3.306  0.2708 -0.1295 -0.4689
  374MOL0     O51505   3.795   3.385   3.365  0.1244 -0.2013  0.4092
  374MOL0     C51506   3.917   3.436   3.325 -0.4413  0.9720 -0.1615
  374MOL0     C51507   3.990   3.508   3.418  0.3636 -0.0009 -0.1943
  374MOL0     C51508   4.115   3.568   3.391  0.2496 -0.4381 -0.1592
  374MOL0     C51509   4.172   3.543   3.269 -0.5463  0.4882 -0.5578
  374MOL0     O51510   4.298   3.585   3.251  0.2408 -0.3995  0.4541
  374MOL0     C51511   4.312   3.659   3.128 -0.8513 -0.1511 -0.6621
  374MOL0     C51512   4.460   3.675   3.101  0.5037 -0.1325  0.3659
  374MOL0     C51513   4.482   3.722   2.961  0.5593  0.0401  0.3313
  374MOL0     C51514   4.615   3.787   2.932 -0.3397 -0.1185 -0.5425
  374MOL0     C51515   4.618   3.841   2.788 -0.3846 -0.1881  0.1813
  374MOL0     C51516   4.750   3.912   2.753  0.0769 -0.3857 -0.1157
  374MOL0     C51517   4.770   3.968   2.611  0.6307 -0.0754  0.0378
  374MOL0     C51518   4.728   4.124   2.600 -0.9060  1.0232  0.5386
  374MOL0    Cl51519   4.699   4.171   2.432  0.3875 -0.1130 -0.0387
  374MOL0     C51520   4.099   3.472   3.166  0.0416  0.5335 -0.0286
  374MOL0     C51521   3.969   3.416   3.199  0.6562 -0.6077  0.7261
  374MOL0     O51522   3.678   3.538   3.240 -0.5139  0.4997 -0.2575
  374MOL0     C51523   3.530   3.307   3.436  0.6026  0.3246 -0.4483
  374MOL0     C51524   3.415   3.242   3.460 -0.0128  0.4470  0.2726
  374MOL0     N51525   2.680   3.193   3.713 -0.3028  0.2895  0.1321
  374MOL0     N51526   2.555   3.180   3.673  0.1529 -0.8194 -0.1370
  374MOL0     C51527   1.742   2.572   3.074  0.0439  0.2419  0.3452
  374MOL0     C51528   1.606   2.550   3.045 -0.9172  1.1057 -0.8404
  374MOL0     C51529   1.149   2.436   3.153 -0.5355  0.1880 -0.4897
  374MOL0     C51530   1.057   2.387   3.261 -0.7959 -0.6672  0.4116
  374MOL0     C51531   0.930   2.340   3.234  0.1520  1.3667  0.6370
  374MOL0     C51532   0.889   2.331   3.101 -0.3082 -0.5218  0.3890
  374MOL0     O51533   0.774   2.262   3.062 -0.1523  0.0711  0.6950
  374MOL0     C51534   0.737   2.144   3.136 -0.4402 -0.2432 -0.4820
  374MOL0     C51535   0.589   2.144   3.139 -0.2112 -0.7952  0.0066
  374MOL0     C51536   0.537   2.250   3.229 -0.0555 -0.2157 -0.4431
  374MOL0     C51537   0.388   2.270   3.222 -0.0031 -1.0039 -0.0224
  374MOL0     C51538   0.343   2.333   3.340  0.6061 -0.2608 -0.5590
  374MOL0     C51539   0.293   2.415   3.422  0.1311 -0.1777  0.3815
  374MOL0     C51540   0.970   2.389   2.999 -0.4879  1.1555  0.1444
  374MOL0     C51541   1.098   2.446   3.018  0.4555 -0.5230 -0.7992
  374MOL0     C51542   1.168   2.520   2.907  0.6844 -0.6472  0.0624
  374MOL0     H51543   1.506   2.499   3.364 -2.1572  0.9739 -0.8529
  374MOL0     H51544   1.740   2.575   3.404 -4.0242 -0.3243  0.9954
  374MOL0     H51545   1.949   2.533   3.412  0.5227 -0.2283  1.4061
  374MOL0     H51546   1.946   2.713   3.394 -0.1367 -2.4428  3.5753
  374MOL0     H51547   2.185   2.608   3.437 -0.6220 -3.2333  0.4430
  374MOL0     H51548   2.144   2.511   3.305  2.0437  1.2803 -0.2142
  374MOL0     H51549   2.305   2.681   3.227  0.2531 -1.4531  1.4561
  374MOL0     H51550   2.156   2.713   3.139  1.7853  1.9774 -1.4931
  374MOL0     H51551   2.085   2.875   3.304 -1.4477 -2.3154 -1.1595
  374MOL0     H51552   2.223   2.838   3.414  2.1558  1.8847 -0.8027
  374MOL0     H51553   2.255   2.949   3.127 -2.2905  0.7203  1.4356
  374MOL0     H51554   2.391   2.917   3.218  1.2396  1.6067 -0.3698
  374MOL0     H51555   2.330   3.167   3.216  0.5388 -0.8703  0.3303
  374MOL0     H51556   2.193   3.142   3.312  0.5560  1.1368 -0.7259
  374MOL0     H51557   2.476   3.062   3.369 -1.5203  1.6530 -3.8432
  374MOL0     H51558   2.339   3.037   3.479 -0.5759  0.1926  0.1755
  374MOL0     H51559   2.433   3.315   3.394  0.8226 -0.0876 -0.4800
  374MOL0     H51560   2.333   3.268   3.539  1.7938  1.4417  1.3410
  374MOL0     H51561   2.693   3.311   3.415  1.8400  1.5199  0.8084
  374MOL0     H51562   2.940   3.265   3.699  1.0317 -0.2076 -0.5790
  374MOL0     H51563   2.922   3.352   3.537  0.3309 -1.0986 -0.6306
  374MOL0     H51564   2.902   3.059   3.535  0.3120 -0.7092 -0.5269
  374MOL0     H51565   2.960   3.181   3.430  1.9241  1.9203  1.4270
  374MOL0     H51566   3.143   3.235   3.608 -1.4520  1.1151 -0.6337
  374MOL0     H51567   3.108   3.084   3.684  0.1547  0.2401 -0.0045
  374MOL0     H51568   3.305   3.029   3.533 -1.0000 -0.4562  1.4158
  374MOL0     H51569   3.163   2.959   3.466 -1.6501  0.0752  0.7388
  374MOL0     H51570   3.299   3.225   3.140  0.0393 -2.2730  0.8408
  374MOL0     H51571   3.464   3.323   2.989  1.0089 -1.5043 -1.4390
  374MOL0     H51572   3.624   3.360   3.049 -1.0620  0.6510 -2.5278
  374MOL0     H51573   3.495   3.490   3.056 -1.1863  0.0522  2.2166
  374MOL0     H51574   3.942   3.522   3.515  1.0429  0.3247  0.1002
  374MOL0     H51575   4.166   3.627   3.466 -2.8165 -1.8217  3.3413
  374MOL0     H51576   4.262   3.615   3.041 -1.2240 -3.0934  0.9269
  374MOL0     H51577   4.271   3.760   3.137 -1.7937 -0.6657  1.2803
  374MOL0     H51578   4.507   3.741   3.175  1.4570 -0.9796  0.5337
  374MOL0     H51579   4.505   3.577   3.114  2.8389  1.0408  1.9314
  374MOL0     H51580   4.402   3.793   2.939 -0.5524 -1.4728 -0.7353
  374MOL0     H51581   4.455   3.631   2.907 -1.5622  0.2038  1.0257
  374MOL0     H51582   4.701   3.723   2.955  0.1581  0.9256  0.6247
  374MOL0     H51583   4.623   3.875   2.996 -1.5878 -0.3568 -0.0268
  374MOL0     H51584   4.599   3.762   2.716  0.6872 -0.0488 -0.2751
  374MOL0     H51585   4.539   3.914   2.770  0.1075  0.1380 -0.7166
  374MOL0     H51586   4.824   3.834   2.774 -0.5601 -1.2678 -1.0591
  374MOL0     H51587   4.771   3.992   2.825 -3.4056  0.2957  0.2968
  374MOL0     H51588   4.696   3.919   2.547  2.0358  0.5235 -2.1637
  374MOL0     H51589   4.868   3.944   2.567  2.1789  3.5222  1.1451
  374MOL0     H51590   4.802   4.184   2.653 -0.8076 -1.6054  3.6825
  374MOL0     H51591   4.635   4.148   2.653 -0.0546  2.1522  1.5697
  374MOL0     H51592   4.141   3.465   3.067  0.6562 -1.5514  0.3243
  374MOL0     H51593   3.899   3.382   3.124  0.0460  4.1628 -1.2062
  374MOL0     H51594   3.595   3.330   3.520  0.0264 -0.4171  0.2107
  374MOL0     H51595   3.387   3.224   3.563 -0.8582 -0.0731 -0.0311
  374MOL0     H51596   1.813   2.592   2.994  1.9433  0.6763  2.0684
  374MOL0     H51597   1.570   2.548   2.943  0.1347 -1.3743 -1.2419
  374MOL0     H51598   1.090   2.398   3.364  1.8075  2.3591 -0.5687
  374MOL0     H51599   0.871   2.298   3.316  1.8503  0.0937  1.2583
  374MOL0     H51600   0.767   2.057   3.077 -1.4535 -2.3381  1.8944
  374MOL0     H51601   0.789   2.129   3.231  0.2288 -1.2077 -0.9850
  374MOL0     H51602   0.534   2.055   3.170 -0.5323 -0.6792 -0.2247
  374MOL0     H51603   0.566   2.173   3.036  1.4785  2.5698  0.4435
  374MOL0     H51604   0.563   2.220   3.331 -0.2953 -2.5711 -1.0187
  374MOL0     H51605   0.586   2.345   3.207  3.7916 -2.4085 -2.6047
  374MOL0     H51606   0.331   2.178   3.206 -4.6127  1.6603 -0.9098
  374MOL0     H51607   0.351   2.326   3.135  0.8793  3.1159  2.0105
  374MOL0     H51608   0.249   2.489   3.486  2.6889 -0.8130  3.0924
  374MOL0     H51609   0.919   2.389   2.903 -1.8687 -0.9877  0.7931
  374MOL0     H51610   1.104   2.519   2.818 -2.6381 -0.3280  2.2300
  374MOL0     H51611   1.178   2.626   2.930  0.4876 -0.5158 -0.4463
  374MOL0     H51612   1.266   2.474   2.895  0.1440 -1.8510  0.0455
  375MOL0     O51613   4.962   7.812   9.169 -0.7637 -0.9597 -0.2370
  375MOL0     C51614   4.897   7.736   9.241  0.0772  0.2192 -0.2487
  375MOL0     O51615   4.926   7.604   9.269  0.0758  1.0293  0.4339
  375MOL0     C51616   5.023   7.542   9.200 -0.3127 -0.6804  0.2949
  375MOL0     C51617   5.141   7.485   9.259  0.2041 -0.6556  0.2146
  375MOL0     C51618   5.218   7.400   9.185  0.1758 -0.0655  0.6599
  375MOL0     C51619   5.195   7.371   9.054  0.3918  0.1842 -0.0934
  375MOL0     O51620   5.280   7.273   9.013 -0.1776 -0.0828 -0.3461
  375MOL0     C51621   5.295   7.247   8.875 -0.5330 -0.9896 -0.3022
  375MOL0     C51622   5.438   7.189   8.847  0.2009 -1.1158 -0.1741
  375MOL0     C51623   5.535   7.314   8.848 -0.0440  0.5140  0.2858
  375MOL0     C51624   5.574   7.371   8.989 -0.3104 -0.5460  0.6044
  375MOL0     C51625   5.699   7.465   8.979 -0.0973  0.3743  0.4175
  375MOL0     C51626   5.836   7.388   8.964  0.7379  0.0067 -0.0148
  375MOL0     C51627   5.941   7.500   8.965  0.1161 -0.5254 -0.1724
  375MOL0     C51628   6.079   7.436   8.944  0.3137 -0.6434  0.0753
  375MOL0     N51629   6.178   7.547   8.918 -0.6624  0.1161 -0.0924
  375MOL0     C51630   6.249   7.619   9.011  0.3282 -0.0033  0.3710
  375MOL0     C51631   6.319   7.711   8.943 -0.1285 -0.0690  0.3730
  375MOL0     C51632   6.413   7.822   8.999  0.4613 -0.8344  0.3791
  375MOL0     C51633   6.572   7.795   8.990  0.4655 -0.6557 -0.0239
  375MOL0     C51634   6.608   7.696   9.102 -0.1079 -0.4843  0.2435
  375MOL0     C51635   6.754   7.670   9.089 -0.5154  0.3087  0.0503
  375MOL0     O51636   6.815   7.804   9.114  0.7864  0.7435  0.2967
  375MOL0     C51637   6.921   7.802   9.196 -0.6854 -0.2978  0.5716
  375MOL0     C51638   7.023   7.707   9.205 -0.1841 -0.9983  0.0395
  375MOL0     C51639   7.132   7.718   9.288  1.0605 -0.2458 -0.7214
  375MOL0     C51640   7.224   7.597   9.296 -0.2165 -0.1252 -0.1214
  375MOL0     C51641   7.149   7.827   9.368 -0.5313  0.2674 -0.2653
  375MOL0     C51642   7.260   7.843   9.460  0.0010  0.0529  0.3755
  375MOL0     O51643   7.292   7.759   9.566  0.1169 -0.2928  0.1238
  375MOL0     C51644   7.392   7.798   9.645 -0.5874  0.5489  0.1417
  375MOL0     C51645   7.352   7.828   9.774  0.4070  0.1607 -0.4530
  375MOL0     C51646   7.444   7.850   9.872 -0.8572 -0.2782 -0.4715
  375MOL0     C51647   7.578   7.849   9.839  0.6848 -0.3420  0.5180
  375MOL0     O51648   7.664   7.886   9.939 -0.2641  0.3549  0.0223
  375MOL0     C51649   7.807   7.839   9.934  0.0366  0.1677 -0.6048
  375MOL0     C51650   7.883   7.868  10.066  0.1057 -0.4418  0.1750
  375MOL0     C51651   7.844   7.792  10.194  0.5280  0.5352  0.1060
  375MOL0     C51652   7.961   7.804  10.296  0.8499  0.0985  0.3865
  375MOL0     C51653   7.928   7.757  10.434  0.2705 -0.0262  0.1347
  375MOL0     C51654   7.903   7.605  10.444  0.6546 -0.0522  0.6347
  375MOL0     C51655   7.930   7.545  10.580 -0.2815 -0.3076 -0.7671
  375MOL0     C51656   8.058   7.454  10.593 -1.0819 -0.6126  0.3832
  375MOL0    Cl51657   8.089   7.409  10.758 -0.5799  0.2168 -0.0167
  375MOL0     C51658   7.620   7.803   9.712  0.6897  0.1299  0.2652
  375MOL0     C51659   7.525   7.772   9.622 -0.4190  0.3737  0.8327
  375MOL0     O51660   7.320   7.945   9.437  0.7184  0.4657  0.8427
  375MOL0     C51661   7.053   7.925   9.368  0.5027 -0.2670 -0.3826
  375MOL0     C51662   6.945   7.916   9.280 -0.4688  0.8831 -0.1757
  375MOL0     N51663   6.293   7.695   8.811  0.0676 -0.2972  0.1629
  375MOL0     N51664   6.200   7.601   8.799  0.1823  0.4061  0.2787
  375MOL0     C51665   5.085   7.430   8.989 -0.4263  0.1886  0.2675
  375MOL0     C51666   4.993   7.509   9.064 -0.1205  0.1080 -0.1183
  375MOL0     C51667   4.788   7.779   9.321 -0.5269 -0.4651  0.0598
  375MOL0     C51668   4.779   7.727   9.454  0.5864  0.0576  0.3028
  375MOL0     C51669   4.673   7.758   9.532 -0.2498  0.2735  0.7383
  375MOL0     C51670   4.576   7.857   9.489  0.5577  1.0014  0.0616
  375MOL0     O51671   4.472   7.901   9.565 -0.2449 -0.0026 -0.1807
  375MOL0     C51672   4.471   7.869   9.703 -0.4895  0.2820  0.1478
  375MOL0     C51673   4.379   7.974   9.766 -0.9889  0.5486 -0.3720
  375MOL0     C51674   4.235   7.969   9.707 -0.2337  0.1974 -0.7344
  375MOL0     C51675   4.133   8.042   9.796  0.4933  0.4860  0.0797
  375MOL0     C51676   4.008   8.058   9.715 -0.8662 -0.3549  0.5097
  375MOL0     C51677   3.926   8.077   9.632 -0.7195 -0.6360 -0.6358
  375MOL0     C51678   4.587   7.919   9.364  0.4595  0.3800 -0.1264
  375MOL0     C51679   4.688   7.868   9.272 -0.5041 -0.7375  0.4223
  375MOL0     C51680   4.669   7.910   9.133  0.4063  0.4439 -0.8148
  375MOL0     H51681   5.157   7.500   9.365 -0.6347 -2.4125  0.6400
  375MOL0     H51682   5.306   7.361   9.235  0.4120  1.3773  1.4147
  375MOL0     H51683   5.268   7.333   8.812 -0.6072 -0.7535  0.0501
  375MOL0     H51684   5.227   7.162   8.862 -2.4544  0.0943  1.7726
  375MOL0     H51685   5.469   7.116   8.922  1.8620  0.5660  0.8683
  375MOL0     H51686   5.441   7.140   8.749  2.5099  0.7995 -1.1659
  375MOL0     H51687   5.629   7.286   8.801 -1.5885 -0.0995 -2.7115
  375MOL0     H51688   5.487   7.392   8.789  0.1224  0.1865 -0.2875
  375MOL0     H51689   5.495   7.435   9.029  0.7231  0.5536  0.9509
  375MOL0     H51690   5.609   7.289   9.052 -1.5039 -1.6754 -0.1451
  375MOL0     H51691   5.694   7.527   9.068 -2.0314 -0.8893  1.2545
  375MOL0     H51692   5.687   7.533   8.894 -1.2845 -0.3938 -0.0709
  375MOL0     H51693   5.848   7.310   9.039 -0.5906 -0.9390 -0.7399
  375MOL0     H51694   5.849   7.331   8.871  0.0946  2.0577 -1.4276
  375MOL0     H51695   5.939   7.561   9.056 -1.2935 -1.1394  0.2499
  375MOL0     H51696   5.919   7.566   8.881 -2.0748 -0.9339  0.0099
  375MOL0     H51697   6.102   7.381   9.036 -0.6786 -1.3066 -0.0560
  375MOL0     H51698   6.078   7.361   8.863 -1.8315 -1.2633  0.5950
  375MOL0     H51699   6.243   7.600   9.118  0.2480  1.4090  0.6393
  375MOL0     H51700   6.393   7.839   9.105  2.3848 -0.6749  0.7571
  375MOL0     H51701   6.394   7.914   8.944  0.4440 -0.5120  0.9213
  375MOL0     H51702   6.583   7.750   8.891  1.4233 -0.8794  0.1724
  375MOL0     H51703   6.630   7.887   8.996 -1.1024  0.3164  4.0988
  375MOL0     H51704   6.592   7.746   9.197 -0.8421 -2.5600  1.2776
  375MOL0     H51705   6.555   7.600   9.097 -0.4463 -0.3037  0.3166
  375MOL0     H51706   6.772   7.594   9.167 -0.3490  0.1667 -0.1252
  375MOL0     H51707   6.772   7.625   8.991 -0.7226  1.6600 -0.6246
  375MOL0     H51708   7.013   7.609   9.159  0.8741 -1.4817  0.7873
  375MOL0     H51709   7.315   7.626   9.349  0.5206 -1.2513 -0.7197
  375MOL0     H51710   7.255   7.567   9.195 -4.1980 -4.7843 -0.3123
  375MOL0     H51711   7.167   7.514   9.339 -1.2143  1.3271  1.4789
  375MOL0     H51712   7.246   7.830   9.793  0.1556  0.4952 -1.7758
  375MOL0     H51713   7.413   7.879   9.972 -3.0173  0.4501 -1.2927
  375MOL0     H51714   7.812   7.733   9.909  1.5583  0.1949 -0.5529
  375MOL0     H51715   7.866   7.889   9.856  0.2886  0.0610 -0.4858
  375MOL0     H51716   7.988   7.847  10.043  1.0700  2.0421  1.8378
  375MOL0     H51717   7.889   7.977  10.078  0.2645 -0.3791 -0.4249
  375MOL0     H51718   7.815   7.688  10.182 -0.6165  0.9462 -0.8839
  375MOL0     H51719   7.756   7.843  10.236  0.2054 -1.3810  1.9290
  375MOL0     H51720   7.995   7.908  10.306  1.2547 -0.2606  4.2174
  375MOL0     H51721   8.039   7.737  10.259 -0.4503 -1.0002 -0.4431
  375MOL0     H51722   8.016   7.787  10.492  0.9925 -1.8795  0.0971
  375MOL0     H51723   7.837   7.800  10.476 -1.5981 -3.2626 -0.2807
  375MOL0     H51724   7.974   7.560  10.374  2.1638  1.8203  0.8647
  375MOL0     H51725   7.803   7.576  10.410  0.6048 -0.3709  1.0596
  375MOL0     H51726   7.851   7.481  10.620  1.4582 -2.9140 -1.2643
  375MOL0     H51727   7.965   7.622  10.651  1.2312 -1.1552 -0.5420
  375MOL0     H51728   8.141   7.504  10.543 -1.8130 -1.0666 -1.3454
  375MOL0     H51729   8.039   7.362  10.537 -3.3923  0.7816 -1.3154
  375MOL0     H51730   7.725   7.794   9.688  1.2613  0.5927  2.4086
  375MOL0     H51731   7.571   7.733   9.531  1.0581 -2.2748  2.5728
  375MOL0     H51732   7.059   8.008   9.438  1.3219  0.7545 -1.6068
  375MOL0     H51733   6.875   7.999   9.282  0.0631  1.3322 -0.3110
  375MOL0     H51734   5.066   7.408   8.884 -1.9629  1.5989  0.2163
  375MOL0     H51735   4.900   7.531   9.012 -0.5835  0.9458  1.0073
  375MOL0     H51736   4.840   7.644   9.487  0.8864 -1.9742 -4.4707
  375MOL0     H51737   4.669   7.712   9.630  2.3326 -1.3313  0.1649
  375MOL0     H51738   4.431   7.767   9.709 -3.2156  1.0982 -2.0199
  375MOL0     H51739   4.570   7.868   9.751 -0.3447 -1.0343 -0.1464
  375MOL0     H51740   4.421   8.074   9.757 -0.9590  0.4928 -0.8630
  375MOL0     H51741   4.373   7.955   9.874  1.8460 -0.4379 -0.3086
  375MOL0     H51742   4.230   8.019   9.609  1.7911  0.1764 -0.9038
  375MOL0     H51743   4.205   7.865   9.697 -0.6616  0.2676 -0.1948
  375MOL0     H51744   4.167   8.144   9.820  0.5248  0.6995 -0.8340
  375MOL0     H51745   4.109   7.984   9.886  0.6922  0.3289  0.0302
  375MOL0     H51746   3.847   8.092   9.561 -0.0412 -0.2649 -1.3279
  375MOL0     H51747   4.517   7.994   9.330  0.0234 -0.6260 -1.5380
  375MOL0     H51748   4.755   7.972   9.106  0.5508 -0.0098 -1.4107
  375MOL0     H51749   4.665   7.822   9.068 -2.8249 -0.5691  0.5195
  375MOL0     H51750   4.581   7.973   9.112 -0.4093 -0.1004  0.8009
  376MOL0     O51751   9.295   1.058  11.228 -0.1033  1.1173 -0.3573
  376MOL0     C51752   9.175   1.067  11.261  0.4544  0.4815 -0.0212
  376MOL0     O51753   9.136   1.058  11.394 -0.1760  0.8983  0.2954
  376MOL0     C51754   9.235   1.018  11.487 -0.5021 -0.3052 -0.5160
  376MOL0     C51755   9.294   1.108  11.573  0.5303  0.0313  0.2949
  376MOL0     C51756   9.387   1.075  11.664 -0.9458  0.3683 -0.1678
  376MOL0     C51757   9.416   0.937  11.687 -0.0289  0.3896  0.0568
  376MOL0     O51758   9.501   0.912  11.792 -0.3578  0.7983 -0.7378
  376MOL0     C51759   9.507   0.775  11.847 -1.1336 -0.8143  0.0992
  376MOL0     C51760   9.591   0.770  11.984 -0.4245  0.3472 -0.6661
  376MOL0     C51761   9.733   0.818  11.964 -1.1188  0.2701 -0.4667
  376MOL0     C51762   9.800   0.844  12.099  0.3420 -0.0419  1.1300
  376MOL0     C51763   9.890   0.970  12.103  0.3988  0.1178  0.5432
  376MOL0     C51764  10.020   0.960  12.014  1.2996 -0.4497  0.0441
  376MOL0     C51765  10.112   1.064  12.060  0.1878  0.6666 -0.4005
  376MOL0     C51766  10.203   1.013  12.174 -0.0302 -0.5081 -0.3726
  376MOL0     N51767  10.296   0.903  12.135  0.4142  0.3450  0.4292
  376MOL0     C51768  10.272   0.774  12.143  0.7560  1.2181 -0.1239
  376MOL0     C51769  10.393   0.718  12.115  0.0703 -0.2074 -1.1330
  376MOL0     C51770  10.428   0.571  12.106 -0.2931 -0.1295 -0.1419
  376MOL0     C51771  10.481   0.520  12.244  0.1930  0.4937 -1.0480
  376MOL0     C51772  10.585   0.599  12.327  0.3396 -0.9572  0.2862
  376MOL0     C51773  10.655   0.527  12.447 -0.1251  0.2998 -0.7007
  376MOL0     O51774  10.758   0.612  12.513 -0.1028 -0.3093  0.0546
  376MOL0     C51775  10.845   0.547  12.595 -0.1151 -0.2628  0.0802
  376MOL0     C51776  10.969   0.610  12.620 -0.0737 -0.3463  0.4741
  376MOL0     C51777  11.063   0.550  12.700 -0.1130  0.3532 -0.1494
  376MOL0     C51778  11.195   0.622  12.720 -0.2595 -1.0820 -0.0838
  376MOL0     C51779  11.034   0.426  12.763 -0.2707 -0.5563  0.2593
  376MOL0     C51780  11.125   0.367  12.865  0.2926  0.6637  0.6420
  376MOL0     O51781  11.193   0.449  12.950 -0.1854  0.2240 -0.3086
  376MOL0     C51782  11.292   0.400  13.026 -0.4572  0.0121 -0.0025
  376MOL0     C51783  11.399   0.329  12.983  0.1381  0.4386 -0.7236
  376MOL0     C51784  11.497   0.284  13.079  0.0803 -0.2360 -0.1427
  376MOL0     C51785  11.484   0.325  13.213  0.0241 -1.2953  0.0000
  376MOL0     O51786  11.584   0.291  13.298  0.2152  0.1480  0.0486
  376MOL0     C51787  11.634   0.394  13.385  0.2953  0.2686 -0.3602
  376MOL0     C51788  11.778   0.341  13.419  0.3844  0.7039  0.3704
  376MOL0     C51789  11.857   0.322  13.289 -0.5294  0.8016 -0.7168
  376MOL0     C51790  12.013   0.330  13.326  0.3172 -0.0490 -0.3554
  376MOL0     C51791  12.099   0.343  13.195  0.0833  0.6723  0.2757
  376MOL0     C51792  12.257   0.349  13.211  0.1629  0.3870 -1.4189
  376MOL0     C51793  12.307   0.242  13.305 -0.5928  0.5617  0.3550
  376MOL0     C51794  12.450   0.258  13.344 -0.8192  0.2465  0.2511
  376MOL0    Cl51795  12.491   0.154  13.480  0.3270 -0.1377 -0.1402
  376MOL0     C51796  11.376   0.404  13.252 -0.4353 -0.4425 -0.1158
  376MOL0     C51797  11.282   0.442  13.162 -0.5437  1.6435 -0.6589
  376MOL0     O51798  11.138   0.242  12.867 -0.4734  0.1212  0.1080
  376MOL0     C51799  10.917   0.354  12.733 -0.0958 -0.6451  1.0422
  376MOL0     C51800  10.822   0.424  12.663 -0.2314  0.0741 -0.0802
  376MOL0     N51801  10.491   0.822  12.090  0.5018  0.2514 -0.0062
  376MOL0     N51802  10.424   0.935  12.102 -0.7512 -0.0126  0.0813
  376MOL0     C51803   9.357   0.841  11.601  0.7263  0.0218 -0.3227
  376MOL0     C51804   9.270   0.885  11.500  0.0974 -0.7161 -0.8205
  376MOL0     C51805   9.080   1.079  11.154  0.0606  0.2495  0.0468
  376MOL0     C51806   9.117   1.152  11.042 -0.6546 -0.5409 -0.0441
  376MOL0     C51807   9.026   1.197  10.944 -0.6407 -0.1080  0.3618
  376MOL0     C51808   8.886   1.161  10.959 -0.2075  0.7929 -1.2752
  376MOL0     O51809   8.793   1.215  10.872  0.4971 -0.4286 -0.1434
  376MOL0     C51810   8.723   1.339  10.905 -0.8756 -0.4559 -0.4526
  376MOL0     C51811   8.663   1.405  10.783 -0.6467  0.1869  0.0107
  376MOL0     C51812   8.566   1.310  10.704 -0.0400 -0.1911 -0.1052
  376MOL0     C51813   8.632   1.198  10.625 -0.0291  0.1251 -0.5499
  376MOL0     C51814   8.545   1.173  10.507 -0.3725 -0.3709  0.2829
  376MOL0     C51815   8.456   1.138  10.430  0.0442  0.9138  0.3163
  376MOL0     C51816   8.854   1.090  11.077  0.9228 -0.0970  1.0198
  376MOL0     C51817   8.944   1.050  11.171 -0.2965  0.2363  0.7166
  376MOL0     C51818   8.889   0.964  11.281 -0.0595  0.0801 -0.1644
  376MOL0     H51819   9.268   1.213  11.557 -1.6259 -0.5004 -0.0439
  376MOL0     H51820   9.433   1.147  11.732 -0.9189 -0.0148  0.2226
  376MOL0     H51821   9.566   0.712  11.780  2.2193 -0.5258  2.5547
  376MOL0     H51822   9.411   0.725  11.863 -1.9438 -0.2883 -2.6168
  376MOL0     H51823   9.537   0.839  12.050  0.6985  1.9280 -1.3381
  376MOL0     H51824   9.590   0.670  12.028  2.0434 -0.6909 -2.6954
  376MOL0     H51825   9.793   0.751  11.901 -0.6540  0.7706 -0.5655
  376MOL0     H51826   9.728   0.913  11.910  0.3601 -0.1258 -1.3534
  376MOL0     H51827   9.720   0.853  12.172  0.3468  0.0362  1.1272
  376MOL0     H51828   9.852   0.749  12.115  1.3620 -0.4698 -3.3995
  376MOL0     H51829   9.916   0.989  12.207 -2.7585 -0.8670  1.6289
  376MOL0     H51830   9.831   1.057  12.074 -0.7363  0.2566  3.0253
  376MOL0     H51831  10.072   0.864  12.018 -0.9766 -1.8012 -1.0951
  376MOL0     H51832  10.003   0.984  11.908 -1.4814 -3.0192 -0.2189
  376MOL0     H51833  10.055   1.153  12.090 -0.2507  0.3780 -0.3601
  376MOL0     H51834  10.171   1.096  11.974  0.5069  0.0938 -0.3976
  376MOL0     H51835  10.259   1.095  12.220 -1.3715  0.2946 -0.1133
  376MOL0     H51836  10.143   0.981  12.260  0.6190  0.1154  0.3303
  376MOL0     H51837  10.181   0.719  12.168  0.7905  0.3839 -1.6581
  376MOL0     H51838  10.509   0.551  12.035 -0.8397 -2.4983 -0.1931
  376MOL0     H51839  10.342   0.515  12.069 -1.7188  1.3824  0.7424
  376MOL0     H51840  10.395   0.513  12.311  2.1096  3.1836  2.0013
  376MOL0     H51841  10.521   0.421  12.221  2.5579  1.3610 -1.0169
  376MOL0     H51842  10.667   0.640  12.267 -1.5093  2.4631 -0.1305
  376MOL0     H51843  10.539   0.691  12.365  2.4813  1.8731 -3.3031
  376MOL0     H51844  10.587   0.497  12.527  3.3811 -0.9083  2.1195
  376MOL0     H51845  10.705   0.437  12.411 -0.0708 -0.5022  1.2907
  376MOL0     H51846  11.005   0.696  12.564  2.0808 -0.0309  2.1993
  376MOL0     H51847  11.201   0.691  12.805  3.1531 -0.6334 -0.5246
  376MOL0     H51848  11.225   0.690  12.641 -1.1420  0.4196  0.8238
  376MOL0     H51849  11.276   0.548  12.722  1.0129  0.1690 -1.9937
  376MOL0     H51850  11.407   0.310  12.876  5.3775 -2.0377 -0.1745
  376MOL0     H51851  11.582   0.237  13.030  1.3958  0.1550  1.6676
  376MOL0     H51852  11.646   0.485  13.326  0.0186  0.2508 -0.4469
  376MOL0     H51853  11.569   0.410  13.471 -1.6186 -3.4685 -0.9073
  376MOL0     H51854  11.820   0.411  13.491 -0.6451  0.0830  1.6106
  376MOL0     H51855  11.771   0.243  13.467 -1.7645  0.6923  0.1260
  376MOL0     H51856  11.833   0.404  13.221  1.0478  1.3236 -0.6752
  376MOL0     H51857  11.851   0.221  13.246  2.1466 -0.2786  1.1632
  376MOL0     H51858  12.038   0.240  13.382  0.5481 -0.0328 -0.4327
  376MOL0     H51859  12.036   0.419  13.384  3.5942 -0.8899 -0.1546
  376MOL0     H51860  12.076   0.251  13.141 -0.2701 -1.9541  4.4605
  376MOL0     H51861  12.069   0.431  13.137 -2.3385  1.8897  3.1270
  376MOL0     H51862  12.299   0.440  13.255  0.3878 -0.3190 -0.1235
  376MOL0     H51863  12.294   0.329  13.110  1.4815  0.9346 -1.0582
  376MOL0     H51864  12.306   0.140  13.265  3.2208  0.1329  0.9693
  376MOL0     H51865  12.256   0.239  13.402  1.4068 -0.8402  1.4438
  376MOL0     H51866  12.467   0.363  13.372  2.7991 -0.1349 -0.0755
  376MOL0     H51867  12.523   0.247  13.263  0.4007 -0.1782  1.3688
  376MOL0     H51868  11.359   0.425  13.357 -1.9448  0.4661 -0.5112
  376MOL0     H51869  11.202   0.500  13.206  0.7514  0.2649  4.0637
  376MOL0     H51870  10.896   0.262  12.786 -0.2468 -0.6118  1.0418
  376MOL0     H51871  10.724   0.378  12.658 -0.2781  0.2676 -1.6075
  376MOL0     H51872   9.370   0.734  11.596  0.5959  0.0483 -1.7818
  376MOL0     H51873   9.221   0.814  11.434  4.3538 -1.6039 -3.4344
  376MOL0     H51874   9.224   1.168  11.028 -0.4720  0.2466  1.8840
  376MOL0     H51875   9.060   1.245  10.852  0.1635 -3.3999 -1.2272
  376MOL0     H51876   8.633   1.305  10.959 -0.4518 -0.0768  0.5058
  376MOL0     H51877   8.782   1.412  10.961  0.1694 -2.4990  1.2832
  376MOL0     H51878   8.748   1.445  10.727  0.5601  0.0887  1.6830
  376MOL0     H51879   8.608   1.495  10.812 -0.1778  1.6706 -3.3053
  376MOL0     H51880   8.479   1.279  10.763 -0.9339  1.7061 -0.3572
  376MOL0     H51881   8.518   1.382  10.637  1.4572  2.3548  1.3621
  376MOL0     H51882   8.633   1.108  10.686  0.3841  2.0779  2.5585
  376MOL0     H51883   8.734   1.231  10.600  0.8243 -0.6804  1.6682
  376MOL0     H51884   8.382   1.091  10.368  1.6590 -2.6275  0.8466
  376MOL0     H51885   8.749   1.060  11.072  0.9733 -0.1060 -1.5770
  376MOL0     H51886   8.867   1.011  11.378  0.6165 -0.4541  0.2624
  376MOL0     H51887   8.801   0.916  11.240 -0.0349 -0.6278  0.5858
  376MOL0     H51888   8.959   0.882  11.301 -1.4707 -1.1212  0.0309
  377MOL0     O51889  10.787   6.134   9.747 -0.4076  0.0665  0.0825
  377MOL0     C51890  10.768   6.092   9.857 -0.4125  0.2771  0.4791
  377MOL0     O51891  10.679   6.009   9.889 -0.1015  0.0729  0.3285
  377MOL0     C51892  10.607   5.950   9.784  0.2598  0.4167 -0.6131
  377MOL0     C51893  10.640   5.824   9.736  0.3630 -0.7085  0.1492
  377MOL0     C51894  10.583   5.774   9.620 -0.4849  0.2411  0.1665
  377MOL0     C51895  10.477   5.841   9.563  1.2845 -0.7560 -0.5139
  377MOL0     O51896  10.422   5.796   9.442 -0.2734  0.0179 -0.5515
  377MOL0     C51897  10.314   5.866   9.388  0.0588  0.9986  0.2377
  377MOL0     C51898  10.260   5.794   9.263  0.4739  0.0667  1.0225
  377MOL0     C51899  10.111   5.822   9.215 -0.1055 -0.0717  1.1327
  377MOL0     C51900  10.009   5.733   9.293 -0.2903  0.6185 -0.7804
  377MOL0     C51901  10.020   5.587   9.226  0.1352 -0.0395 -0.6452
  377MOL0     C51902   9.912   5.501   9.293  0.5306  0.3667  0.0743
  377MOL0     C51903   9.962   5.387   9.381  0.5580 -0.4395  0.2138
  377MOL0     C51904   9.849   5.331   9.470 -0.7713  0.0499 -0.7780
  377MOL0     N51905   9.905   5.308   9.606 -0.4740 -0.4362 -0.4955
  377MOL0     C51906   9.866   5.385   9.707 -0.9007 -0.2411  0.7727
  377MOL0     C51907   9.931   5.339   9.814 -0.5790 -0.1618  0.4873
  377MOL0     C51908   9.916   5.387   9.951 -0.5346  0.4320  0.9559
  377MOL0     C51909   9.788   5.336  10.010 -0.0995  0.2559  0.6528
  377MOL0     C51910   9.773   5.377  10.154  0.3851 -0.1741 -0.0464
  377MOL0     C51911   9.777   5.529  10.192  0.3037 -0.5156 -0.5429
  377MOL0     O51912   9.693   5.613  10.117  0.0702 -0.0664  0.1297
  377MOL0     C51913   9.559   5.601  10.148 -0.2287 -0.3238 -0.3212
  377MOL0     C51914   9.496   5.544  10.260 -0.1332 -0.2149 -0.0687
  377MOL0     C51915   9.364   5.547  10.283 -0.1444 -1.1767 -0.2572
  377MOL0     C51916   9.308   5.476  10.407 -0.2343 -0.3000 -0.6211
  377MOL0     C51917   9.279   5.608  10.190 -0.6328  0.3612 -1.3762
  377MOL0     C51918   9.129   5.621  10.209  0.4792  0.7735 -0.4042
  377MOL0     O51919   9.058   5.509  10.258  0.9723 -0.0214 -0.0980
  377MOL0     C51920   8.926   5.495  10.262  0.4824  0.5749  0.8166
  377MOL0     C51921   8.852   5.515  10.382 -0.0123 -0.3687 -0.9957
  377MOL0     C51922   8.717   5.488  10.386  0.0454 -0.6396 -0.3906
  377MOL0     C51923   8.647   5.455  10.265 -0.2166 -0.3792 -1.1919
  377MOL0     O51924   8.512   5.429  10.274 -1.4359 -0.4701  0.0626
  377MOL0     C51925   8.429   5.420  10.155 -1.1181 -0.1637  0.0293
  377MOL0     C51926   8.288   5.381  10.200  0.4812  0.8245 -0.1641
  377MOL0     C51927   8.213   5.316  10.087  0.3894  0.1429  0.5985
  377MOL0     C51928   8.213   5.164  10.104  0.2107  0.2327  0.8384
  377MOL0     C51929   8.135   5.096   9.984 -0.1518 -0.3933  0.0391
  377MOL0     C51930   8.180   5.134   9.842  0.8507  0.7911  0.5548
  377MOL0     C51931   8.082   5.071   9.745 -0.7772 -0.2484 -0.2046
  377MOL0     C51932   8.013   5.173   9.650 -0.8882  0.4006 -0.0348
  377MOL0    Cl51933   7.924   5.301   9.748 -0.1748 -0.2742  0.2609
  377MOL0     C51934   8.719   5.449  10.145 -0.4534  0.2699  0.1641
  377MOL0     C51935   8.856   5.461  10.143  0.2609  0.3606  0.9991
  377MOL0     O51936   9.076   5.722  10.169  0.3841  0.7347 -0.3278
  377MOL0     C51937   9.338   5.662  10.079  0.2090  0.9318 -0.1671
  377MOL0     C51938   9.477   5.665  10.058 -0.1078  1.0262  0.3384
  377MOL0     N51939  10.007   5.230   9.775  0.1882 -1.1898 -0.1033
  377MOL0     N51940   9.996   5.214   9.648  0.3718 -0.3243  0.7042
  377MOL0     C51941  10.434   5.966   9.618 -0.0832 -1.2273 -0.1382
  377MOL0     C51942  10.502   6.022   9.728 -1.2373 -0.0325 -0.1016
  377MOL0     C51943  10.844   6.160   9.971  0.2514  1.1022  0.0026
  377MOL0     C51944  10.947   6.252   9.949 -0.8182  0.6346  0.1487
  377MOL0     C51945  11.027   6.307  10.048 -0.3175  0.4089 -0.4933
  377MOL0     C51946  10.996   6.284  10.180 -0.4534 -0.8932 -0.0145
  377MOL0     O51947  11.067   6.342  10.285 -0.1251  0.4563  0.8568
  377MOL0     C51948  11.214   6.330  10.285 -0.5565 -0.0709 -0.1954
  377MOL0     C51949  11.259   6.288  10.425  0.3105 -0.7372 -0.8480
  377MOL0     C51950  11.232   6.141  10.451 -1.0394 -0.1488  0.5288
  377MOL0     C51951  11.294   6.085  10.579 -0.6796  0.0696  0.5573
  377MOL0     C51952  11.440   6.105  10.601  0.2114 -0.1699 -0.1701
  377MOL0     C51953  11.559   6.120  10.611  0.0411  0.7005 -0.1139
  377MOL0     C51954  10.896   6.200  10.199 -0.2056  0.2874  0.5062
  377MOL0     C51955  10.813   6.140  10.102  0.7830  0.2565  0.0619
  377MOL0     C51956  10.706   6.048  10.161 -0.6279  0.1041 -0.4890
  377MOL0     H51957  10.722   5.768   9.782 -0.2774 -2.0017 -0.2287
  377MOL0     H51958  10.619   5.679   9.581 -2.2481 -0.4761  0.1551
  377MOL0     H51959  10.339   5.970   9.365 -0.6103  0.8387 -1.3453
  377MOL0     H51960  10.238   5.854   9.466  3.1025  0.0992  3.2751
  377MOL0     H51961  10.330   5.829   9.187 -0.2897 -2.3106 -0.8851
  377MOL0     H51962  10.286   5.688   9.273  1.5049  0.4880  3.3153
  377MOL0     H51963  10.080   5.923   9.243 -3.6948 -0.3404 -1.2209
  377MOL0     H51964  10.102   5.808   9.107 -0.4588  1.1258  0.9923
  377MOL0     H51965  10.036   5.740   9.399 -0.1217 -0.6043 -0.7283
  377MOL0     H51966   9.906   5.770   9.295  0.0513  1.7681  2.4234
  377MOL0     H51967  10.120   5.544   9.237 -0.8123 -2.1778 -0.0117
  377MOL0     H51968   9.999   5.605   9.120  2.7516  1.3315 -1.0054
  377MOL0     H51969   9.838   5.567   9.338  1.5277  0.9625  0.8749
  377MOL0     H51970   9.851   5.450   9.217 -1.5588  1.0311  1.2116
  377MOL0     H51971  10.046   5.420   9.444 -0.3144  0.3262  1.0025
  377MOL0     H51972  10.001   5.303   9.322 -1.5328 -1.9782  0.8990
  377MOL0     H51973   9.767   5.403   9.480 -1.2136 -0.2091 -2.2541
  377MOL0     H51974   9.806   5.238   9.431 -1.8237  0.0401  0.3535
  377MOL0     H51975   9.794   5.465   9.693 -1.4626 -0.8597 -0.0346
  377MOL0     H51976   9.913   5.496   9.947  1.9504  0.6154  1.8897
  377MOL0     H51977  10.005   5.359  10.009  1.3859  0.6311 -1.6784
  377MOL0     H51978   9.702   5.371   9.953  1.4856 -0.2643 -2.2796
  377MOL0     H51979   9.785   5.228   9.993 -6.3768  0.6022 -3.4588
  377MOL0     H51980   9.679   5.341  10.198 -0.0443 -0.4610 -1.1548
  377MOL0     H51981   9.864   5.331  10.193  1.6243 -1.2781 -3.8032
  377MOL0     H51982   9.755   5.542  10.298  1.1527 -1.5932 -0.2108
  377MOL0     H51983   9.878   5.572  10.187  0.2564  0.6087  3.9294
  377MOL0     H51984   9.562   5.492  10.329 -0.2678 -0.1639  0.0977
  377MOL0     H51985   9.222   5.518  10.459  2.2459  2.8672  1.2307
  377MOL0     H51986   9.385   5.457  10.482 -2.4190  0.4345  1.9238
  377MOL0     H51987   9.279   5.377  10.369 -2.0049  0.1572 -0.5305
  377MOL0     H51988   8.909   5.546  10.469 -0.5849 -0.7807 -0.4625
  377MOL0     H51989   8.674   5.487  10.486 -1.8771 -0.0991 -1.1612
  377MOL0     H51990   8.435   5.517  10.105  0.0879 -0.5496 -0.6451
  377MOL0     H51991   8.468   5.343  10.087 -0.6228  0.3291 -0.2526
  377MOL0     H51992   8.280   5.307  10.280 -5.4513  0.8614 -0.2752
  377MOL0     H51993   8.236   5.471  10.234 -0.5866 -0.2173  1.0448
  377MOL0     H51994   8.261   5.344   9.993 -2.9669  0.2269 -1.2483
  377MOL0     H51995   8.111   5.356  10.087  0.7596  1.6160 -3.6614
  377MOL0     H51996   8.174   5.126  10.199  0.6019 -0.4007  0.7558
  377MOL0     H51997   8.313   5.120  10.094  0.1948  0.4842 -0.5892
  377MOL0     H51998   8.139   4.987   9.992 -1.8517 -0.3564  2.4518
  377MOL0     H51999   8.033   5.129  10.004  0.2282  0.5936  0.4335
  377MOL0     H52000   8.282   5.100   9.822 -0.7675 -3.8671 -0.9383
  377MOL0     H52001   8.177   5.243   9.827 -0.4021  0.8077  0.8567
  377MOL0     H52002   8.008   5.005   9.791  0.0195 -2.9038 -2.5091
  377MOL0     H52003   8.141   5.008   9.678  1.4584  1.2186  0.2660
  377MOL0     H52004   7.936   5.118   9.596 -0.3061 -1.1490  0.6373
  377MOL0     H52005   8.087   5.212   9.579  0.2853  0.1759  1.0113
  377MOL0     H52006   8.677   5.416  10.050  1.1877 -1.0910 -0.1478
  377MOL0     H52007   8.903   5.457  10.046 -0.6741 -0.6479  0.5679
  377MOL0     H52008   9.277   5.705  10.001  0.5871  2.1085  0.1657
  377MOL0     H52009   9.529   5.708   9.973  2.1486  4.6826  3.2740
  377MOL0     H52010  10.359   6.028   9.569  1.6002  2.1171  1.2209
  377MOL0     H52011  10.472   6.115   9.774  1.4180  1.8960 -1.9392
  377MOL0     H52012  10.978   6.269   9.846 -2.3957  1.7915 -0.1604
  377MOL0     H52013  11.109   6.376  10.028 -1.5330  2.4513  1.1704
  377MOL0     H52014  11.247   6.249  10.219  0.3300  1.3386 -1.5831
  377MOL0     H52015  11.266   6.422  10.256 -1.8712  1.2146  1.3346
  377MOL0     H52016  11.191   6.339  10.493  0.5178  3.3353 -3.3396
  377MOL0     H52017  11.363   6.317  10.442  0.3643 -0.8061 -1.0519
  377MOL0     H52018  11.125   6.123  10.447 -1.0274 -0.1011 -0.2587
  377MOL0     H52019  11.273   6.086  10.365 -2.1018  0.0738 -0.1324
  377MOL0     H52020  11.266   5.979  10.588 -0.5950  0.1884  2.4491
  377MOL0     H52021  11.234   6.136  10.655  0.0613 -0.1200  1.2743
  377MOL0     H52022  11.664   6.142  10.612 -0.2789  2.4300 -0.5781
  377MOL0     H52023  10.877   6.176  10.304  2.8359  1.8461  1.5363
  377MOL0     H52024  10.707   6.049  10.270 -0.6998  0.1098 -0.4881
  377MOL0     H52025  10.609   6.081  10.123 -0.7664 -0.1134 -0.3231
  377MOL0     H52026  10.727   5.945  10.132  1.6751 -0.0311  1.3728
  378MOL0     O52027   6.836   7.856   3.687  0.2042 -0.5342  0.6351
  378MOL0     C52028   6.808   7.738   3.669 -0.1538 -0.0172 -0.6061
  378MOL0     O52029   6.891   7.652   3.605  0.3963  0.0348 -0.9332
  378MOL0     C52030   7.021   7.685   3.585  0.2262  0.5156  0.2715
  378MOL0     C52031   7.063   7.660   3.457 -0.1119  0.0537  0.2587
  378MOL0     C52032   7.205   7.651   3.425  0.5898  0.4784 -0.6184
  378MOL0     C52033   7.301   7.679   3.525  0.2923  0.1104  0.8092
  378MOL0     O52034   7.436   7.676   3.508 -0.3610 -0.3022 -0.3764
  378MOL0     C52035   7.466   7.699   3.372  0.3889  0.3036  0.1088
  378MOL0     C52036   7.598   7.769   3.364 -0.6569 -0.5285 -0.4631
  378MOL0     C52037   7.655   7.769   3.218 -0.3288 -0.6543 -1.2245
  378MOL0     C52038   7.786   7.845   3.221 -0.2411 -0.8861 -0.6059
  378MOL0     C52039   7.880   7.808   3.105 -0.1159 -0.0881 -0.9561
  378MOL0     C52040   7.845   7.886   2.974 -0.6339  0.8786 -0.0639
  378MOL0     C52041   7.956   7.850   2.861 -0.1547 -0.5797 -1.2900
  378MOL0     C52042   8.104   7.870   2.917 -0.5169 -0.2152  0.6226
  378MOL0     N52043   8.209   7.856   2.814  0.4313  0.0099 -0.4686
  378MOL0     C52044   8.291   7.748   2.807 -1.0285 -0.6167  0.2353
  378MOL0     C52045   8.378   7.766   2.703 -0.4553  0.4416 -0.2683
  378MOL0     C52046   8.492   7.673   2.661 -0.5718 -0.6623  0.1051
  378MOL0     C52047   8.582   7.641   2.785  0.0361  0.6948  0.6275
  378MOL0     C52048   8.684   7.533   2.751 -0.0325 -0.7333 -0.2653
  378MOL0     C52049   8.774   7.512   2.868 -0.6638 -0.0687  0.2255
  378MOL0     O52050   8.899   7.443   2.847  0.6666 -0.6409  0.1685
  378MOL0     C52051   8.980   7.414   2.958  0.2315 -0.7817  0.3521
  378MOL0     C52052   8.976   7.497   3.074  0.0676  0.2264 -1.0033
  378MOL0     C52053   9.064   7.462   3.184  0.1507  0.3742  0.3425
  378MOL0     C52054   9.046   7.541   3.311  0.5844  0.6076  0.6468
  378MOL0     C52055   9.159   7.351   3.169  0.6851  0.7165  0.3210
  378MOL0     C52056   9.261   7.318   3.270  0.1395 -1.3734  0.4919
  378MOL0     O52057   9.321   7.197   3.261  0.2479  0.3272 -0.0997
  378MOL0     C52058   9.418   7.160   3.355  0.3313 -0.2621  0.2913
  378MOL0     C52059   9.550   7.158   3.314  0.9936  0.2139  0.6713
  378MOL0     C52060   9.662   7.116   3.382 -0.5926 -0.4113 -0.1628
  378MOL0     C52061   9.639   7.043   3.497  0.3985 -0.3970  0.4763
  378MOL0     O52062   9.746   6.990   3.560  0.0644  0.1407  0.2886
  378MOL0     C52063   9.727   6.876   3.649 -0.1292 -0.2085  0.2876
  378MOL0     C52064   9.861   6.853   3.712  0.1464 -0.4246 -0.8313
  378MOL0     C52065   9.847   6.755   3.837 -0.6710  0.2283  0.8599
  378MOL0     C52066   9.835   6.607   3.791 -0.9245 -0.7079 -0.5464
  378MOL0     C52067   9.846   6.522   3.916 -0.6894  0.8455 -0.3331
  378MOL0     C52068   9.808   6.375   3.887 -0.1693  0.2025  0.6784
  378MOL0     C52069   9.789   6.280   4.009  0.4439  0.5954  0.4734
  378MOL0     C52070   9.915   6.272   4.090  1.2075 -0.2897 -0.5612
  378MOL0    Cl52071   9.900   6.163   4.243  0.2029 -0.1629  0.4405
  378MOL0     C52072   9.505   7.035   3.539  0.1240  0.3494 -0.3630
  378MOL0     C52073   9.402   7.094   3.473 -0.4240  1.1748  0.3741
  378MOL0     O52074   9.304   7.407   3.341 -0.0278 -0.5499  0.8485
  378MOL0     C52075   9.158   7.280   3.051  0.0933 -0.2317 -1.1752
  378MOL0     C52076   9.073   7.309   2.950  0.2420 -0.2034  0.0181
  378MOL0     N52077   8.349   7.887   2.646 -0.4889 -0.6957  0.6074
  378MOL0     N52078   8.257   7.944   2.721  0.1887 -0.1891 -0.0134
  378MOL0     C52079   7.246   7.720   3.648  0.4137  0.3702  0.0418
  378MOL0     C52080   7.109   7.720   3.686 -0.0422  0.4496  0.1682
  378MOL0     C52081   6.673   7.685   3.700  0.2470  0.4430 -0.4727
  378MOL0     C52082   6.649   7.545   3.680 -1.0781 -0.0328  1.2670
  378MOL0     C52083   6.525   7.492   3.712  0.0860 -0.1240  0.3834
  378MOL0     C52084   6.422   7.565   3.769 -0.4949 -0.2000 -0.3559
  378MOL0     O52085   6.292   7.520   3.789  0.8163 -0.5196 -0.3747
  378MOL0     C52086   6.257   7.520   3.928  0.3246  0.6099  0.2918
  378MOL0     C52087   6.147   7.428   3.961  0.2583 -0.2635  0.1924
  378MOL0     C52088   6.082   7.454   4.095  0.3159 -0.4285  0.6234
  378MOL0     C52089   5.959   7.353   4.097 -0.0833  0.9430 -0.1325
  378MOL0     C52090   5.955   7.299   4.234  0.1218 -0.2846  0.5092
  378MOL0     C52091   5.961   7.269   4.351 -1.1498  0.1131 -0.0363
  378MOL0     C52092   6.448   7.700   3.783  0.2047 -0.5191 -0.0717
  378MOL0     C52093   6.568   7.763   3.749 -0.3486  0.9559 -0.6066
  378MOL0     C52094   6.578   7.913   3.767  0.3035  0.0733  0.9078
  378MOL0     H52095   6.992   7.640   3.378  1.3555  2.9519 -1.9780
  378MOL0     H52096   7.228   7.613   3.326  1.2939  0.8004 -0.5835
  378MOL0     H52097   7.400   7.768   3.319  1.0998  2.2642  1.6547
  378MOL0     H52098   7.474   7.604   3.318  5.5867  1.0313 -0.9259
  378MOL0     H52099   7.580   7.873   3.394 -3.4234 -0.7337 -1.0791
  378MOL0     H52100   7.660   7.711   3.432 -0.1754 -0.0023 -0.4453
  378MOL0     H52101   7.677   7.664   3.197  1.4518 -0.6921  0.5331
  378MOL0     H52102   7.584   7.806   3.143 -1.6496 -2.9064 -1.1830
  378MOL0     H52103   7.781   7.954   3.227  0.6213 -0.8074 -1.0061
  378MOL0     H52104   7.838   7.820   3.314  0.6277 -0.1201 -0.8718
  378MOL0     H52105   7.897   7.703   3.078  1.4356 -1.0512  3.0420
  378MOL0     H52106   7.982   7.832   3.136  0.1223 -1.8676 -0.2089
  378MOL0     H52107   7.746   7.862   2.933  0.3066 -0.2142 -1.8229
  378MOL0     H52108   7.849   7.994   2.987 -0.0523  0.7617  0.8249
  378MOL0     H52109   7.946   7.920   2.777 -3.0038  0.0518 -0.5342
  378MOL0     H52110   7.939   7.748   2.825 -3.1487 -0.5346 -0.3108
  378MOL0     H52111   8.113   7.959   2.980  1.3807  2.1713 -2.7194
  378MOL0     H52112   8.132   7.784   2.980  0.3030 -1.4191 -1.2926
  378MOL0     H52113   8.312   7.666   2.875  0.5445 -0.2504  0.2097
  378MOL0     H52114   8.555   7.729   2.591  0.6887 -2.7879 -0.5810
  378MOL0     H52115   8.452   7.586   2.608 -2.2726 -0.0596  0.3597
  378MOL0     H52116   8.629   7.735   2.815 -0.6346  1.3625 -0.3310
  378MOL0     H52117   8.514   7.612   2.865  0.6918 -0.3821  0.8108
  378MOL0     H52118   8.636   7.438   2.726 -1.3195  0.2841 -1.8529
  378MOL0     H52119   8.739   7.558   2.659  0.3508  0.0266  0.1610
  378MOL0     H52120   8.781   7.601   2.931  1.6505 -1.7667  2.6352
  378MOL0     H52121   8.712   7.446   2.930 -0.1071 -1.9065 -1.0733
  378MOL0     H52122   8.914   7.585   3.083 -0.8374 -0.4812 -0.0647
  378MOL0     H52123   8.942   7.575   3.314  0.6031  0.6061  1.8391
  378MOL0     H52124   9.108   7.631   3.304  0.0074  0.8711 -4.3227
  378MOL0     H52125   9.078   7.484   3.399 -0.6714 -0.0545  0.6894
  378MOL0     H52126   9.569   7.206   3.219  2.4174  1.7277  1.6501
  378MOL0     H52127   9.758   7.126   3.332 -0.9807 -0.8837 -1.0221
  378MOL0     H52128   9.654   6.905   3.725 -1.5140  2.5785 -1.9090
  378MOL0     H52129   9.683   6.789   3.601 -4.6304  0.7997  2.0806
  378MOL0     H52130   9.941   6.824   3.643  0.6345  0.2819 -0.5678
  378MOL0     H52131   9.892   6.942   3.767  1.1099  0.6145 -2.9401
  378MOL0     H52132   9.758   6.782   3.895 -0.4082 -0.0460  1.3974
  378MOL0     H52133   9.937   6.749   3.899  0.2294 -2.0937 -0.5515
  378MOL0     H52134   9.913   6.571   3.722 -0.9616  1.7371 -1.9636
  378MOL0     H52135   9.734   6.603   3.751 -2.2338 -0.3973  2.4645
  378MOL0     H52136   9.941   6.534   3.969 -2.3725  1.7483  2.7091
  378MOL0     H52137   9.785   6.560   3.998 -0.8163 -1.7149  0.8386
  378MOL0     H52138   9.883   6.338   3.817 -0.4862  0.2185  0.3297
  378MOL0     H52139   9.714   6.376   3.831  1.2128  1.4620 -1.7912
  378MOL0     H52140   9.769   6.177   3.982  2.3792 -0.3398  2.3054
  378MOL0     H52141   9.705   6.323   4.064 -0.3139 -2.0484  1.5121
  378MOL0     H52142   9.950   6.371   4.120  1.1758 -1.1034  2.4213
  378MOL0     H52143   9.992   6.224   4.029  0.0482 -0.8860 -1.6223
  378MOL0     H52144   9.484   6.981   3.630  0.6924 -1.9027 -1.4783
  378MOL0     H52145   9.300   7.092   3.508 -0.2563  1.4206  0.8849
  378MOL0     H52146   9.227   7.198   3.033 -0.9431 -1.1011 -1.3032
  378MOL0     H52147   9.069   7.260   2.853  0.1373  1.0136 -0.6064
  378MOL0     H52148   7.314   7.736   3.731  1.0078 -1.4447 -0.0484
  378MOL0     H52149   7.071   7.735   3.787 -1.3971 -0.3642 -0.1855
  378MOL0     H52150   6.715   7.467   3.646 -3.0035 -1.1470 -0.1539
  378MOL0     H52151   6.505   7.385   3.711  0.8668 -0.4105  3.4159
  378MOL0     H52152   6.345   7.487   3.984 -0.7768 -3.4044 -0.0223
  378MOL0     H52153   6.234   7.623   3.959  2.1422  0.7665  1.2584
  378MOL0     H52154   6.188   7.327   3.952  0.6097 -0.1052  0.0370
  378MOL0     H52155   6.070   7.448   3.886  0.2887  0.8441  0.4408
  378MOL0     H52156   6.159   7.423   4.166 -0.1653  0.0988  1.3827
  378MOL0     H52157   6.050   7.557   4.108  1.2941 -0.1146  0.5575
  378MOL0     H52158   5.976   7.263   4.037 -1.2282 -0.0504  0.9626
  378MOL0     H52159   5.863   7.398   4.071 -0.1447  0.5917 -0.5323
  378MOL0     H52160   5.972   7.252   4.457 -0.4170  0.9914  0.0408
  378MOL0     H52161   6.374   7.764   3.831 -0.9900 -0.8070 -1.4839
  378MOL0     H52162   6.486   7.963   3.797  0.6122  0.8621  0.5773
  378MOL0     H52163   6.662   7.948   3.828 -0.7706  0.5974  2.1357
  378MOL0     H52164   6.596   7.952   3.666  2.9124 -1.3812  0.7115
  379MOL0     O52165   6.143   8.392  11.075  0.3677 -0.5380  0.1540
  379MOL0     C52166   6.160   8.275  11.038  0.1836  0.2236 -0.7262
  379MOL0     O52167   6.269   8.232  10.958 -0.4700 -0.1318  0.7222
  379MOL0     C52168   6.319   8.325  10.872  0.3381  0.1143 -0.0335
  379MOL0     C52169   6.323   8.297  10.738 -0.2865 -0.0448 -0.4228
  379MOL0     C52170   6.392   8.384  10.645 -0.2970  0.1680 -0.1104
  379MOL0     C52171   6.449   8.500  10.697  0.1671 -0.9828  0.6055
  379MOL0     O52172   6.492   8.601  10.621  1.2546  0.2772 -0.1803
  379MOL0     C52173   6.577   8.568  10.515 -0.2552  0.6961 -0.2534
  379MOL0     C52174   6.592   8.681  10.409  0.3340 -0.0049 -0.2697
  379MOL0     C52175   6.647   8.619  10.288  1.1457  1.1314  0.0355
  379MOL0     C52176   6.699   8.717  10.176  0.5716  0.7254  0.0614
  379MOL0     C52177   6.781   8.646  10.066 -0.0185  0.8241 -0.1215
  379MOL0     C52178   6.826   8.755   9.967 -0.3695 -0.5544 -0.3737
  379MOL0     C52179   6.874   8.695   9.830  0.4120 -0.0640 -0.1980
  379MOL0     C52180   6.939   8.557   9.844 -0.0188 -0.0663  0.2642
  379MOL0     N52181   7.071   8.578   9.910 -0.0061 -0.0863  0.6100
  379MOL0     C52182   7.191   8.625   9.856 -0.2449 -0.3418 -0.1021
  379MOL0     C52183   7.276   8.632   9.965 -0.2209 -0.0405  0.2178
  379MOL0     C52184   7.410   8.687   9.961  0.2071 -0.7000 -0.7994
  379MOL0     C52185   7.421   8.826   9.893  0.6351 -0.2808 -1.0872
  379MOL0     C52186   7.554   8.891   9.912  0.6008 -0.4713 -0.6335
  379MOL0     C52187   7.659   8.843  10.020  0.3846 -1.1888 -0.2411
  379MOL0     O52188   7.771   8.944  10.025  0.1969  0.3322  0.4138
  379MOL0     C52189   7.873   8.914  10.109  0.2329 -0.5579  0.2198
  379MOL0     C52190   7.897   8.793  10.179  0.0739 -0.0311  0.1576
  379MOL0     C52191   8.021   8.762  10.248  0.5936 -0.1854 -0.4733
  379MOL0     C52192   8.033   8.626  10.307 -0.0397  0.4409 -0.2370
  379MOL0     C52193   8.125   8.863  10.254 -0.0130 -0.4981 -0.2847
  379MOL0     C52194   8.258   8.843  10.300  0.9955  0.3913 -0.6813
  379MOL0     O52195   8.315   8.727  10.280 -0.1046  1.1081  0.3447
  379MOL0     C52196   8.450   8.716  10.311 -0.8466 -0.7914  0.2565
  379MOL0     C52197   8.513   8.769  10.429  0.6046  0.2537 -0.1642
  379MOL0     C52198   8.652   8.752  10.453 -0.1001  0.5944 -0.1348
  379MOL0     C52199   8.735   8.659  10.378  1.1353 -0.7765 -0.1534
  379MOL0     O52200   8.868   8.622  10.383  0.0843  0.0850 -0.8046
  379MOL0     C52201   8.936   8.694  10.490  0.3928 -0.3117 -0.7310
  379MOL0     C52202   9.083   8.649  10.477  0.0423 -0.2022  0.0237
  379MOL0     C52203   9.149   8.689  10.340  0.1208 -0.3915 -0.4293
  379MOL0     C52204   9.298   8.649  10.347 -0.0408  0.0900  0.1491
  379MOL0     C52205   9.365   8.641  10.214 -0.1016  0.0468 -1.0316
  379MOL0     C52206   9.314   8.543  10.120  0.1143 -0.1353  0.3846
  379MOL0     C52207   9.401   8.543   9.992 -0.8304 -0.4466  0.4265
  379MOL0     C52208   9.407   8.407   9.925 -0.2598 -0.3427  0.5317
  379MOL0    Cl52209   9.483   8.290  10.037 -0.0124 -0.1658  0.0595
  379MOL0     C52210   8.671   8.602  10.274 -0.0669 -0.6655  0.6311
  379MOL0     C52211   8.536   8.633  10.240  0.4408  0.9954  0.6832
  379MOL0     O52212   8.321   8.946  10.332 -0.1787  0.7046  0.2990
  379MOL0     C52213   8.089   8.987  10.191 -0.0717  0.6163  0.8036
  379MOL0     C52214   7.972   9.017  10.119  0.0330  0.2760 -0.4191
  379MOL0     N52215   7.211   8.592  10.073  0.0146  0.9729  0.8263
  379MOL0     N52216   7.090   8.556  10.035 -0.6900  0.3971  0.4703
  379MOL0     C52217   6.446   8.526  10.835  0.0480 -0.4919  0.2572
  379MOL0     C52218   6.380   8.434  10.920 -0.9431 -0.4273 -0.3089
  379MOL0     C52219   6.072   8.162  11.082 -0.5842  0.1847 -0.0670
  379MOL0     C52220   6.069   8.047  11.002  1.3307 -1.0579 -0.3745
  379MOL0     C52221   5.973   7.944  11.022  0.2537  0.3558  1.0581
  379MOL0     C52222   5.885   7.957  11.126  0.0962 -0.3185  0.0801
  379MOL0     O52223   5.798   7.850  11.136  0.4578 -0.1725 -0.1897
  379MOL0     C52224   5.705   7.829  11.245  0.2583 -0.3645 -0.8395
  379MOL0     C52225   5.569   7.879  11.205 -0.1318 -0.3442  0.0757
  379MOL0     C52226   5.462   7.873  11.323  0.8913  0.0301  0.0997
  379MOL0     C52227   5.405   7.735  11.332  0.7229  0.2998 -0.4334
  379MOL0     C52228   5.312   7.714  11.442 -0.5723 -0.4072  0.7211
  379MOL0     C52229   5.231   7.702  11.524  0.4966 -0.1812  0.3516
  379MOL0     C52230   5.893   8.064  11.213 -0.3420 -0.7419 -0.4352
  379MOL0     C52231   5.980   8.172  11.190  0.4212 -0.1673  0.4879
  379MOL0     C52232   5.978   8.287  11.284 -0.4016  0.2849 -0.9150
  379MOL0     H52233   6.280   8.200  10.714 -1.0181  0.0686  0.3795
  379MOL0     H52234   6.409   8.365  10.540  2.1206  2.7382 -0.3023
  379MOL0     H52235   6.538   8.482  10.459  1.3796 -0.5812  0.4580
  379MOL0     H52236   6.669   8.531  10.562 -0.0235 -0.8202 -1.7965
  379MOL0     H52237   6.496   8.728  10.389  0.5055 -0.6481 -3.0335
  379MOL0     H52238   6.665   8.753  10.446 -0.7354 -0.7037  3.6330
  379MOL0     H52239   6.730   8.558  10.323  0.1773  0.3266  0.9892
  379MOL0     H52240   6.579   8.542  10.252 -0.7729  2.2348  1.1087
  379MOL0     H52241   6.615   8.754  10.116  1.1293  1.1376 -0.4730
  379MOL0     H52242   6.764   8.791  10.224  1.3065  0.5981 -0.7123
  379MOL0     H52243   6.732   8.566  10.011 -0.6319  0.5402  0.8161
  379MOL0     H52244   6.861   8.598  10.124 -1.6064 -1.1790  0.5131
  379MOL0     H52245   6.739   8.819   9.950 -1.2173 -1.6687 -0.3109
  379MOL0     H52246   6.901   8.818  10.015  2.3155 -1.9843 -2.3788
  379MOL0     H52247   6.938   8.761   9.771 -2.9792  1.4457 -2.4730
  379MOL0     H52248   6.784   8.681   9.770 -2.5356  0.3207  3.7441
  379MOL0     H52249   6.880   8.481   9.895 -0.4612 -0.7921 -1.2672
  379MOL0     H52250   6.957   8.510   9.746  1.3945  1.1438 -0.0981
  379MOL0     H52251   7.212   8.655   9.754  2.3257 -3.7915 -0.7545
  379MOL0     H52252   7.481   8.620   9.912  3.8982 -1.2366  4.3803
  379MOL0     H52253   7.441   8.698  10.066 -1.0465  1.0051 -0.5612
  379MOL0     H52254   7.401   8.802   9.788 -1.5997  0.2918 -0.8616
  379MOL0     H52255   7.349   8.898   9.935 -0.4534 -0.1967 -3.0077
  379MOL0     H52256   7.595   8.883   9.811  0.2082 -2.5047 -0.6613
  379MOL0     H52257   7.541   8.998   9.931  1.3874 -0.6967  1.5257
  379MOL0     H52258   7.600   8.841  10.112  0.7240  0.9845  0.0732
  379MOL0     H52259   7.700   8.743  10.003  0.6259 -1.5028  1.9739
  379MOL0     H52260   7.835   8.708  10.152  2.0196 -1.5802  0.3612
  379MOL0     H52261   8.102   8.573  10.240 -0.0958  1.3464 -1.0263
  379MOL0     H52262   7.947   8.565  10.335  0.9515  0.1980  2.6490
  379MOL0     H52263   8.085   8.629  10.404 -0.5471 -2.6891  0.2230
  379MOL0     H52264   8.451   8.834  10.491  1.6459  0.4920  0.6592
  379MOL0     H52265   8.694   8.816  10.530 -0.3958  0.5158  0.0923
  379MOL0     H52266   8.931   8.802  10.476 -0.0382 -0.0170  1.3867
  379MOL0     H52267   8.900   8.670  10.590  0.9116 -0.3671 -0.5507
  379MOL0     H52268   9.137   8.701  10.556  0.0298 -0.0857 -0.0433
  379MOL0     H52269   9.090   8.543  10.502  0.9949 -0.1159  0.1527
  379MOL0     H52270   9.147   8.794  10.310 -1.4616 -0.6590 -1.3585
  379MOL0     H52271   9.092   8.646  10.257 -1.6007  1.5860 -0.3674
  379MOL0     H52272   9.308   8.547  10.385  2.1151 -0.2063 -1.0322
  379MOL0     H52273   9.340   8.727  10.412 -1.7413  0.8027  0.4494
  379MOL0     H52274   9.370   8.740  10.168 -0.5008 -0.0683 -1.3292
  379MOL0     H52275   9.469   8.618  10.238 -0.5420  0.1653  1.2445
  379MOL0     H52276   9.209   8.557  10.095 -0.3772 -4.1578 -0.3245
  379MOL0     H52277   9.309   8.454  10.183 -0.6062  0.9783  1.9907
  379MOL0     H52278   9.505   8.565  10.020  0.4510  1.5643 -4.7600
  379MOL0     H52279   9.370   8.620   9.921  0.8741 -0.6280 -0.5542
  379MOL0     H52280   9.460   8.412   9.829 -3.1887 -0.9435 -1.2181
  379MOL0     H52281   9.308   8.376   9.892  0.0617  0.0162 -0.8589
  379MOL0     H52282   8.716   8.519  10.221 -0.7175 -1.7862  1.7831
  379MOL0     H52283   8.502   8.604  10.141  1.4924  1.8920  0.0393
  379MOL0     H52284   8.170   9.058  10.176  0.1007  0.6633  1.8572
  379MOL0     H52285   7.964   9.105  10.055  2.6567  0.1936 -0.9671
  379MOL0     H52286   6.479   8.624  10.867 -1.5092  0.8592 -2.0515
  379MOL0     H52287   6.372   8.445  11.028 -1.5361 -0.3468 -0.3559
  379MOL0     H52288   6.139   8.040  10.920 -0.1928 -1.9353 -1.6454
  379MOL0     H52289   5.966   7.864  10.949 -1.5022 -1.1293  2.7446
  379MOL0     H52290   5.693   7.722  11.263 -1.1581 -0.2033 -0.7647
  379MOL0     H52291   5.724   7.884  11.338 -4.5977  1.0768 -0.4769
  379MOL0     H52292   5.539   7.825  11.115  0.6053 -0.5534 -0.0429
  379MOL0     H52293   5.574   7.986  11.182 -3.0868 -0.2140 -0.4494
  379MOL0     H52294   5.500   7.911  11.419  1.7068 -1.5263  0.4269
  379MOL0     H52295   5.370   7.928  11.303  0.5861  0.0505  1.4656
  379MOL0     H52296   5.483   7.659  11.324  0.5302  0.1205 -0.6055
  379MOL0     H52297   5.336   7.723  11.248 -0.3552 -3.2751  0.7919
  379MOL0     H52298   5.146   7.696  11.589  0.7034 -1.3368  0.5409
  379MOL0     H52299   5.825   8.068  11.298 -1.0706 -0.0729 -1.0448
  379MOL0     H52300   5.920   8.372  11.248 -0.0008  1.4341  1.0164
  379MOL0     H52301   5.931   8.263  11.380 -2.1632  1.5287 -1.4319
  379MOL0     H52302   6.081   8.316  11.307 -0.9416 -0.4517  3.2180
  380MOL0     O52303   5.341   7.275   6.199 -0.1619  0.5088 -0.4445
  380MOL0     C52304   5.351   7.206   6.297  0.1344 -0.2871 -0.4368
  380MOL0     O52305   5.440   7.217   6.387 -0.1409 -0.4578  0.2477
  380MOL0     C52306   5.572   7.250   6.366  1.2217 -0.8990  0.1299
  380MOL0     C52307   5.635   7.250   6.242  0.9653 -0.0904 -0.4633
  380MOL0     C52308   5.769   7.287   6.232  0.3260 -0.2761  0.2771
  380MOL0     C52309   5.842   7.338   6.341  0.2466  0.2968  0.3541
  380MOL0     O52310   5.972   7.382   6.351  0.1486 -0.7061  0.2641
  380MOL0     C52311   6.057   7.326   6.248 -0.1325  0.2342 -0.2556
  380MOL0     C52312   6.193   7.372   6.296 -0.1512  0.1839  0.4548
  380MOL0     C52313   6.218   7.524   6.287 -0.4681 -0.6285 -0.0698
  380MOL0     C52314   6.207   7.581   6.143  1.0660 -0.2754  0.6273
  380MOL0     C52315   6.254   7.728   6.153  0.4478  0.4647  0.1133
  380MOL0     C52316   6.223   7.791   6.017 -0.5297 -0.3503  0.1849
  380MOL0     C52317   6.286   7.935   6.004 -0.3859 -0.9532 -0.0335
  380MOL0     C52318   6.258   8.014   5.880 -0.4796  0.0585  0.4743
  380MOL0     N52319   6.354   8.132   5.888  0.6212 -0.0009 -0.5496
  380MOL0     C52320   6.487   8.132   5.855 -0.0719  0.2935 -0.5403
  380MOL0     C52321   6.525   8.267   5.853  0.1573 -0.0617  0.4766
  380MOL0     C52322   6.654   8.336   5.814  0.1851 -0.1046 -0.1158
  380MOL0     C52323   6.673   8.315   5.662  0.2961 -0.1231  0.3706
  380MOL0     C52324   6.792   8.404   5.621 -1.1045  0.2040  0.6367
  380MOL0     C52325   6.859   8.365   5.486  0.3979 -0.9003 -0.0799
  380MOL0     O52326   6.935   8.253   5.518  0.7360 -0.5125 -0.3290
  380MOL0     C52327   7.018   8.201   5.422  0.6379 -0.2733  0.3132
  380MOL0     C52328   7.083   8.084   5.462 -0.2263 -0.0973 -0.2347
  380MOL0     C52329   7.176   8.023   5.388 -0.7868  0.9080  0.2472
  380MOL0     C52330   7.230   7.891   5.445  0.0293  0.2795 -0.6418
  380MOL0     C52331   7.204   8.074   5.254  0.3493  0.2683 -0.2382
  380MOL0     C52332   7.276   7.996   5.151  0.2876  1.3337 -0.5734
  380MOL0     O52333   7.262   8.036   5.019 -0.4035  0.3151 -0.6687
  380MOL0     C52334   7.365   8.013   4.927 -0.1081  0.1813  0.1851
  380MOL0     C52335   7.339   8.042   4.792  0.9670  0.1738  0.1133
  380MOL0     C52336   7.436   8.046   4.693  1.0791  0.0650 -0.1488
  380MOL0     C52337   7.562   8.001   4.722  0.3649 -0.2690 -0.5019
  380MOL0     O52338   7.661   8.012   4.632  0.9417  0.3455  0.8482
  380MOL0     C52339   7.657   7.910   4.541  0.7513 -0.8240 -0.3571
  380MOL0     C52340   7.703   7.974   4.403  0.3157 -0.6887  0.1601
  380MOL0     C52341   7.595   8.064   4.342  0.6084 -1.1318  0.5040
  380MOL0     C52342   7.652   8.132   4.214  0.4780 -0.1126 -0.0754
  380MOL0     C52343   7.530   8.166   4.126  0.3694  0.4939  0.1431
  380MOL0     C52344   7.556   8.187   3.980 -0.5341 -0.0437 -0.6283
  380MOL0     C52345   7.632   8.071   3.923  0.0829  0.0306 -0.8313
  380MOL0     C52346   7.658   8.101   3.774  0.8696 -0.1372 -0.4159
  380MOL0    Cl52347   7.787   7.997   3.728  0.4722 -0.3176  0.0900
  380MOL0     C52348   7.587   7.962   4.850 -0.7739  0.0115  0.0791
  380MOL0     C52349   7.498   7.970   4.951  0.1486 -0.4599 -0.2536
  380MOL0     O52350   7.356   7.913   5.191 -1.1212 -0.1724 -0.8854
  380MOL0     C52351   7.136   8.193   5.218  0.1460  0.3446  0.9224
  380MOL0     C52352   7.037   8.259   5.296 -0.2726  0.3378 -0.3640
  380MOL0     N52353   6.415   8.340   5.897  0.3725 -0.2320 -0.0872
  380MOL0     N52354   6.309   8.263   5.915 -0.4601  0.1171 -1.1968
  380MOL0     C52355   5.767   7.347   6.460  0.1843 -0.1048 -0.4408
  380MOL0     C52356   5.638   7.301   6.473 -0.5143 -0.3963 -0.2227
  380MOL0     C52357   5.237   7.120   6.332  0.6804  0.2257  0.0532
  380MOL0     C52358   5.209   7.092   6.468 -0.9956  0.2160  0.2432
  380MOL0     C52359   5.097   7.031   6.513  0.0575  0.2394  0.9065
  380MOL0     C52360   4.996   6.993   6.426  0.0278 -0.0150  0.4893
  380MOL0     O52361   4.869   6.955   6.460 -0.3358  0.0912 -0.5627
  380MOL0     C52362   4.830   6.982   6.597 -0.3808 -0.3779 -0.1921
  380MOL0     C52363   4.717   6.882   6.636 -0.3479  0.1333  0.1177
  380MOL0     C52364   4.776   6.750   6.660 -0.4837  0.6301 -0.2522
  380MOL0     C52365   4.675   6.658   6.727 -0.2000  0.5729  0.3462
  380MOL0     C52366   4.690   6.512   6.715 -0.2166 -0.0811 -0.3493
  380MOL0     C52367   4.716   6.391   6.709 -0.1089 -0.9632  1.1103
  380MOL0     C52368   5.025   7.005   6.286 -0.5115  0.2412 -0.3033
  380MOL0     C52369   5.142   7.068   6.242  0.2450  0.8071  0.4519
  380MOL0     C52370   5.145   7.102   6.093  1.0108 -0.0212 -0.2536
  380MOL0     H52371   5.587   7.221   6.149  0.4027  0.3610 -0.3171
  380MOL0     H52372   5.810   7.294   6.132 -3.2101 -5.3349 -1.9695
  380MOL0     H52373   6.040   7.352   6.143  0.5298 -1.0448 -0.7008
  380MOL0     H52374   6.055   7.217   6.253  0.2685  0.1503 -1.5753
  380MOL0     H52375   6.206   7.339   6.400 -1.2940 -2.7086 -0.2231
  380MOL0     H52376   6.270   7.319   6.238  0.5549 -1.5346  2.8051
  380MOL0     H52377   6.136   7.571   6.341  0.0377  0.8945 -0.5589
  380MOL0     H52378   6.315   7.544   6.335 -0.1539  2.2662 -1.6598
  380MOL0     H52379   6.268   7.534   6.066  1.0312  2.2947 -1.0996
  380MOL0     H52380   6.104   7.584   6.107  1.7253  0.9568 -1.3524
  380MOL0     H52381   6.361   7.715   6.173  0.2482  0.5253  1.3391
  380MOL0     H52382   6.206   7.786   6.232  0.7001 -0.0719  0.6718
  380MOL0     H52383   6.256   7.723   5.937  0.1330 -0.0731  0.2146
  380MOL0     H52384   6.114   7.793   6.008 -0.4395  2.7906 -1.4441
  380MOL0     H52385   6.394   7.919   6.002  0.1710  1.5995 -4.7256
  380MOL0     H52386   6.260   8.007   6.082 -1.1115 -1.7074  0.4345
  380MOL0     H52387   6.280   7.962   5.787  0.2263  0.0395  0.6444
  380MOL0     H52388   6.157   8.054   5.878 -0.3221  0.4735 -2.0717
  380MOL0     H52389   6.536   8.038   5.831 -1.1285 -0.7531  1.1814
  380MOL0     H52390   6.727   8.269   5.860  0.2997 -1.9574 -2.7807
  380MOL0     H52391   6.673   8.439   5.845  0.6865 -0.1729 -0.1864
  380MOL0     H52392   6.687   8.212   5.628  1.3712  0.3683 -0.8199
  380MOL0     H52393   6.586   8.361   5.615  0.9617  1.4611  0.6177
  380MOL0     H52394   6.758   8.508   5.609  1.7699  1.2586  0.8886
  380MOL0     H52395   6.865   8.401   5.702  1.8601 -2.4091 -1.8725
  380MOL0     H52396   6.783   8.338   5.412  0.6777 -1.9526  0.0051
  380MOL0     H52397   6.914   8.453   5.451 -1.3403  0.9146  1.4763
  380MOL0     H52398   7.050   8.040   5.555  1.8719  0.0302  0.6170
  380MOL0     H52399   7.338   7.893   5.460  0.0523 -1.8380 -0.2077
  380MOL0     H52400   7.200   7.807   5.382  0.7236 -0.9972  0.6703
  380MOL0     H52401   7.197   7.880   5.549  0.6977 -0.8181 -0.5371
  380MOL0     H52402   7.242   8.088   4.773  0.1870 -1.0183  1.0694
  380MOL0     H52403   7.408   8.089   4.598  2.8593  2.0857  0.1709
  380MOL0     H52404   7.727   7.837   4.581  2.8818  1.6160  0.6463
  380MOL0     H52405   7.560   7.860   4.532 -0.7112  1.5926  0.8870
  380MOL0     H52406   7.796   8.032   4.411 -0.4032  0.2596  2.6413
  380MOL0     H52407   7.725   7.896   4.330  0.8909  2.2493 -3.0444
  380MOL0     H52408   7.571   8.143   4.414  0.3446  0.6124 -1.4035
  380MOL0     H52409   7.502   8.015   4.312 -0.8403  1.3289  0.7454
  380MOL0     H52410   7.721   8.063   4.163 -0.3933  1.1200 -3.1440
  380MOL0     H52411   7.708   8.223   4.236  2.2282 -0.6484 -1.9324
  380MOL0     H52412   7.454   8.087   4.131  2.3302 -1.7589 -2.2313
  380MOL0     H52413   7.485   8.262   4.152  1.7898  2.4504 -3.7661
  380MOL0     H52414   7.616   8.276   3.957 -1.2838 -0.0618 -2.9404
  380MOL0     H52415   7.464   8.214   3.926 -0.2275 -0.6394 -1.4621
  380MOL0     H52416   7.576   7.980   3.944 -0.4293  0.6546  0.6494
  380MOL0     H52417   7.731   8.070   3.969  0.0050 -1.7077 -0.6486
  380MOL0     H52418   7.686   8.205   3.757  0.0022 -0.0564 -1.4518
  380MOL0     H52419   7.576   8.089   3.703 -0.1074 -0.6627  0.7599
  380MOL0     H52420   7.690   7.936   4.875 -1.1199 -0.8417  0.6973
  380MOL0     H52421   7.542   7.957   5.049  1.7216 -2.4623 -1.1529
  380MOL0     H52422   7.149   8.234   5.118 -0.7713  1.7694  1.3636
  380MOL0     H52423   6.984   8.352   5.278 -1.4740  0.0022  1.2012
  380MOL0     H52424   5.816   7.390   6.546 -1.4562  2.1700 -0.5719
  380MOL0     H52425   5.586   7.313   6.567 -2.0283 -0.3850 -1.0284
  380MOL0     H52426   5.277   7.130   6.543  0.0211  0.2369 -0.6607
  380MOL0     H52427   5.086   7.011   6.619 -0.1118  0.5319  0.9443
  380MOL0     H52428   4.914   6.970   6.666 -0.8507 -0.6189  0.3500
  380MOL0     H52429   4.806   7.089   6.605  1.3360 -0.0147  0.5083
  380MOL0     H52430   4.637   6.877   6.561 -1.3722  1.5323  1.0810
  380MOL0     H52431   4.668   6.914   6.728  0.8044 -1.8966  1.5173
  380MOL0     H52432   4.784   6.703   6.561 -1.0698 -0.0000 -0.0105
  380MOL0     H52433   4.873   6.760   6.709  0.7335 -1.0020 -2.1345
  380MOL0     H52434   4.575   6.686   6.694 -0.5651 -1.9103 -0.8488
  380MOL0     H52435   4.694   6.667   6.835  0.2914 -2.7681  0.6560
  380MOL0     H52436   4.746   6.289   6.700  1.5054 -0.3639 -1.2766
  380MOL0     H52437   4.949   6.981   6.212  0.8500  2.0683 -2.4384
  380MOL0     H52438   5.089   7.031   6.032 -1.5337  1.7001 -0.0613
  380MOL0     H52439   5.097   7.200   6.084 -1.4241 -1.1243  0.0009
  380MOL0     H52440   5.248   7.099   6.056 -0.1078 -0.7926 -3.6460
  381MOL0     O52441   6.368   0.055   6.072  0.7051  0.0164 -0.4353
  381MOL0     C52442   6.278   0.099   5.998 -0.4582  0.2767 -0.2668
  381MOL0     O52443   6.255   0.054   5.875 -0.4917 -0.2373  0.4004
  381MOL0     C52444   6.336  -0.032   5.795 -0.0666  0.0748 -1.0940
  381MOL0     C52445   6.271  -0.135   5.725 -0.0669 -0.2910  0.2825
  381MOL0     C52446   6.331  -0.224   5.638  0.7712  0.2518  0.8842
  381MOL0     C52447   6.476  -0.217   5.631 -0.3273  0.4308  0.4430
  381MOL0     O52448   6.542  -0.281   5.528  0.0182 -0.1168 -0.2749
  381MOL0     C52449   6.686  -0.303   5.516  0.6447 -0.0658  0.5517
  381MOL0     C52450   6.750  -0.411   5.602 -0.3374 -0.5152 -0.5337
  381MOL0     C52451   6.692  -0.550   5.569  0.0164 -0.2885  0.6180
  381MOL0     C52452   6.777  -0.660   5.632 -0.2091 -0.7473 -0.5589
  381MOL0     C52453   6.705  -0.789   5.607  0.3641  0.4719  0.0250
  381MOL0     C52454   6.773  -0.903   5.687 -0.1509  0.7151  0.4713
  381MOL0     C52455   6.766  -0.877   5.839 -0.1747 -0.4736 -0.4049
  381MOL0     C52456   6.782  -1.009   5.912  0.3518  1.2622 -0.9964
  381MOL0     N52457   6.806  -0.979   6.051 -0.0593 -0.6592 -0.2810
  381MOL0     C52458   6.723  -0.909   6.132 -0.0906 -0.0545 -0.5650
  381MOL0     C52459   6.795  -0.897   6.247 -0.5364 -0.0347  0.1802
  381MOL0     C52460   6.764  -0.820   6.368 -0.4298  0.4215  1.2556
  381MOL0     C52461   6.808  -0.674   6.376 -0.5875  0.6767  0.7046
  381MOL0     C52462   6.961  -0.664   6.399  0.0593  0.5227  0.6255
  381MOL0     C52463   7.000  -0.723   6.535 -0.0056  0.2970 -0.1715
  381MOL0     O52464   7.078  -0.629   6.609  0.1772 -0.0631 -0.1411
  381MOL0     C52465   7.147  -0.660   6.716 -0.1374 -0.0814 -0.5037
  381MOL0     C52466   7.235  -0.566   6.778 -0.9727  0.0033  0.3628
  381MOL0     C52467   7.327  -0.598   6.880  0.0048 -0.1971  0.0758
  381MOL0     C52468   7.421  -0.479   6.915  0.4013  0.1836  0.2465
  381MOL0     C52469   7.334  -0.727   6.926  0.0026  0.3875 -0.6456
  381MOL0     C52470   7.421  -0.763   7.033 -0.0746  0.3279 -0.1954
  381MOL0     O52471   7.538  -0.689   7.048  0.2142 -0.0202 -0.3636
  381MOL0     C52472   7.629  -0.714   7.154  0.0156  0.3904  0.2701
  381MOL0     C52473   7.613  -0.789   7.268  0.0330  0.7757 -0.7198
  381MOL0     C52474   7.718  -0.808   7.360 -0.3229  0.2157  0.5474
  381MOL0     C52475   7.842  -0.740   7.339  0.7877  0.2118  0.1489
  381MOL0     O52476   7.953  -0.753   7.409 -0.9661 -0.3283  0.2799
  381MOL0     C52477   7.946  -0.856   7.516 -1.7702 -0.7681 -1.2824
  381MOL0     C52478   8.076  -0.860   7.594 -0.1040 -0.0303 -0.0675
  381MOL0     C52479   8.098  -1.004   7.653 -0.4095  0.4901  0.2601
  381MOL0     C52480   8.229  -1.027   7.713 -0.2728 -0.2514 -0.2126
  381MOL0     C52481   8.252  -1.171   7.756  1.0415  0.7730  0.2860
  381MOL0     C52482   8.396  -1.188   7.775  0.1452 -0.0793 -0.3236
  381MOL0     C52483   8.435  -1.326   7.832  0.3101  0.5976  0.5184
  381MOL0     C52484   8.590  -1.340   7.847 -0.7116  0.1514  0.0123
  381MOL0    Cl52485   8.633  -1.511   7.895 -0.0232 -0.2358  0.3339
  381MOL0     C52486   7.851  -0.647   7.234 -0.4776 -0.9233 -1.1058
  381MOL0     C52487   7.742  -0.638   7.146 -0.5949 -0.4330  0.4367
  381MOL0     O52488   7.385  -0.858   7.097 -0.1739 -0.1181 -0.0402
  381MOL0     C52489   7.249  -0.824   6.873 -0.2392  0.0352  1.4027
  381MOL0     C52490   7.167  -0.792   6.761  0.4298 -0.4682  0.1482
  381MOL0     N52491   6.914  -0.963   6.232 -0.3160  0.1247 -0.9038
  381MOL0     N52492   6.917  -1.014   6.116  0.1818  0.0769  0.4933
  381MOL0     C52493   6.539  -0.119   5.718  0.2092  0.6534  0.0130
  381MOL0     C52494   6.471  -0.025   5.789  0.5215 -0.1417  0.5063
  381MOL0     C52495   6.184   0.192   6.059 -0.1829  0.4074 -0.4240
  381MOL0     C52496   6.091   0.258   5.982  0.8107 -0.4382 -0.2345
  381MOL0     C52497   6.018   0.364   6.020 -0.4847  0.1231 -0.1517
  381MOL0     C52498   6.029   0.414   6.146 -0.7951 -0.3082 -0.6525
  381MOL0     O52499   5.961   0.531   6.181  0.7713 -0.7523 -1.0226
  381MOL0     C52500   5.989   0.605   6.305 -0.0875  1.5417 -0.3666
  381MOL0     C52501   5.912   0.728   6.298  0.1525 -0.2098  0.4436
  381MOL0     C52502   5.944   0.818   6.416 -0.2001 -0.3198  1.0505
  381MOL0     C52503   5.848   0.914   6.457 -0.7127  0.4832 -0.2694
  381MOL0     C52504   5.801   0.979   6.334  0.3211  0.1691 -0.7065
  381MOL0     C52505   5.767   1.037   6.231  0.0895 -0.7858  0.6416
  381MOL0     C52506   6.121   0.359   6.231  0.9777  1.1090 -0.6229
  381MOL0     C52507   6.199   0.246   6.192 -0.0233 -0.1648  0.5954
  381MOL0     C52508   6.310   0.199   6.285  0.0601  0.3738 -0.3057
  381MOL0     H52509   6.164  -0.136   5.743 -0.4155 -1.8648 -1.5645
  381MOL0     H52510   6.284  -0.293   5.568  4.2616  1.9138 -3.6398
  381MOL0     H52511   6.732  -0.207   5.538 -0.1286  0.5603 -0.4983
  381MOL0     H52512   6.707  -0.331   5.412 -3.4512  0.1746 -0.5160
  381MOL0     H52513   6.854  -0.419   5.567 -0.8666  0.1763 -2.4144
  381MOL0     H52514   6.760  -0.385   5.708 -0.4803  1.6448 -1.0044
  381MOL0     H52515   6.593  -0.553   5.616 -1.2030  1.4902 -1.6684
  381MOL0     H52516   6.685  -0.565   5.461 -0.2848  1.7773  0.3120
  381MOL0     H52517   6.880  -0.670   5.596  0.6032 -0.8967  1.6385
  381MOL0     H52518   6.776  -0.657   5.741 -1.8547 -2.9869 -0.4428
  381MOL0     H52519   6.713  -0.811   5.500  1.2657 -0.4172  0.2627
  381MOL0     H52520   6.601  -0.772   5.635  0.6111 -0.3011  1.4989
  381MOL0     H52521   6.705  -0.984   5.657  2.1777  0.0409 -3.7044
  381MOL0     H52522   6.873  -0.934   5.654  0.3555  0.6048  2.0260
  381MOL0     H52523   6.674  -0.823   5.864 -0.1200 -0.8481  0.6496
  381MOL0     H52524   6.849  -0.810   5.863 -1.2865  1.2202 -1.1082
  381MOL0     H52525   6.700  -1.079   5.895  0.4871  1.0565 -0.8002
  381MOL0     H52526   6.870  -1.060   5.872 -0.2554 -1.3110  0.7061
  381MOL0     H52527   6.622  -0.871   6.127  0.8800  2.5481 -1.7430
  381MOL0     H52528   6.808  -0.868   6.456 -2.2185 -0.1521  1.8877
  381MOL0     H52529   6.655  -0.832   6.368 -0.4718  0.3785 -0.9521
  381MOL0     H52530   6.787  -0.627   6.280  1.7367 -1.8022 -1.1602
  381MOL0     H52531   6.745  -0.627   6.452 -2.7101  1.7680 -1.6102
  381MOL0     H52532   7.012  -0.713   6.315 -2.9288 -0.4103 -0.7753
  381MOL0     H52533   6.991  -0.559   6.397  0.4151  0.4176 -0.7709
  381MOL0     H52534   6.916  -0.734   6.605 -0.0010  0.1728 -0.1851
  381MOL0     H52535   7.052  -0.818   6.517  0.4561 -0.1557  2.9132
  381MOL0     H52536   7.228  -0.469   6.728 -3.0919  0.5479  1.5998
  381MOL0     H52537   7.528  -0.497   6.897 -0.0021 -1.6962 -0.5273
  381MOL0     H52538   7.404  -0.449   7.019 -1.0350 -1.1052  0.4133
  381MOL0     H52539   7.389  -0.391   6.858  0.7352 -0.3547 -0.8146
  381MOL0     H52540   7.514  -0.829   7.285 -0.8864  2.8688 -0.8860
  381MOL0     H52541   7.715  -0.881   7.441  2.9517 -0.2890  0.3404
  381MOL0     H52542   7.869  -0.836   7.591  2.1765  1.9201  2.5719
  381MOL0     H52543   7.927  -0.952   7.467  3.0889 -3.6901  1.7944
  381MOL0     H52544   8.162  -0.825   7.536  1.4877 -2.4034  0.7214
  381MOL0     H52545   8.080  -0.795   7.682 -2.4923 -1.0038  0.8480
  381MOL0     H52546   8.096  -1.069   7.565 -1.0562 -2.4209  2.2846
  381MOL0     H52547   8.030  -1.035   7.733 -0.9492  2.3652  0.5615
  381MOL0     H52548   8.226  -0.961   7.800 -2.1497  0.2503 -0.6064
  381MOL0     H52549   8.304  -0.996   7.640 -1.2925  1.8388 -0.4374
  381MOL0     H52550   8.192  -1.170   7.848 -1.4068  4.0762 -1.1251
  381MOL0     H52551   8.213  -1.247   7.687  1.7387 -1.4543  2.2213
  381MOL0     H52552   8.422  -1.106   7.842 -0.2267  0.0058 -0.2823
  381MOL0     H52553   8.457  -1.173   7.685 -0.4614  2.0176 -0.4283
  381MOL0     H52554   8.400  -1.396   7.756  1.3484  0.6316 -0.0095
  381MOL0     H52555   8.388  -1.333   7.930 -0.7338  2.1727  0.1776
  381MOL0     H52556   8.611  -1.272   7.930  1.7308  1.0584 -1.2516
  381MOL0     H52557   8.632  -1.318   7.748  1.9316 -0.8406  0.8386
  381MOL0     H52558   7.935  -0.581   7.218 -0.9942 -0.6133 -2.6758
  381MOL0     H52559   7.767  -0.573   7.063  1.2811 -3.5342 -1.5884
  381MOL0     H52560   7.242  -0.928   6.901 -2.4181 -0.3366 -0.2109
  381MOL0     H52561   7.114  -0.879   6.722  0.7608 -0.1746 -0.9956
  381MOL0     H52562   6.647  -0.122   5.734  0.2003  0.9369  0.1327
  381MOL0     H52563   6.527   0.051   5.843 -0.7493  0.3342  1.1884
  381MOL0     H52564   6.086   0.239   5.875 -0.7713  0.0670 -0.2800
  381MOL0     H52565   5.947   0.410   5.952 -1.2481 -0.8278 -0.0324
  381MOL0     H52566   5.955   0.546   6.391  1.5256  1.8711  0.5359
  381MOL0     H52567   6.096   0.627   6.310  0.0273  0.8585  4.0814
  381MOL0     H52568   5.806   0.699   6.294  0.6204 -2.0382  0.1100
  381MOL0     H52569   5.939   0.768   6.200 -0.9661 -2.4580 -0.8557
  381MOL0     H52570   5.980   0.763   6.503  1.6802  1.9688  1.8443
  381MOL0     H52571   6.027   0.879   6.380 -0.2245  1.4132  3.6550
  381MOL0     H52572   5.886   0.968   6.543  0.7702 -1.8167  0.6065
  381MOL0     H52573   5.760   0.863   6.496 -1.4285  0.4657 -1.8047
  381MOL0     H52574   5.717   1.093   6.154 -1.0497 -2.5490  0.0356
  381MOL0     H52575   6.135   0.405   6.328  3.5089 -0.5834 -0.0929
  381MOL0     H52576   6.403   0.233   6.239 -0.4143  0.3552 -1.3127
  381MOL0     H52577   6.298   0.251   6.380 -0.2093  0.6174 -0.4718
  381MOL0     H52578   6.304   0.091   6.302  1.8952 -0.1069 -2.2439
  382MOL0     O52579   2.538   5.362   1.868  0.1696  0.0670 -0.2277
  382MOL0     C52580   2.465   5.307   1.950 -0.0266 -0.5512 -0.0307
  382MOL0     O52581   2.343   5.259   1.934 -0.4403 -0.0448  0.2583
  382MOL0     C52582   2.256   5.306   1.836 -0.3618 -0.0637 -0.7584
  382MOL0     C52583   2.131   5.245   1.841  0.5947 -0.7060 -1.1425
  382MOL0     C52584   2.035   5.268   1.743 -0.7183  1.5522 -0.0489
  382MOL0     C52585   2.055   5.360   1.637 -0.2792  0.5708 -0.9854
  382MOL0     O52586   1.961   5.400   1.547  0.3743  0.0938  0.7370
  382MOL0     C52587   1.831   5.334   1.562 -0.1011  0.6228 -0.3092
  382MOL0     C52588   1.723   5.396   1.473 -0.4748  0.1239 -0.0258
  382MOL0     C52589   1.573   5.375   1.504  0.1895  0.0012  0.4086
  382MOL0     C52590   1.487   5.468   1.419 -0.8323  0.0215 -0.7373
  382MOL0     C52591   1.459   5.408   1.290  0.9833  1.1011  0.1373
  382MOL0     C52592   1.388   5.510   1.209  0.3141 -0.2308  0.3021
  382MOL0     C52593   1.345   5.439   1.075  0.4027  0.4958 -0.2858
  382MOL0     C52594   1.263   5.540   1.001 -0.5928 -0.8084 -0.2099
  382MOL0     N52595   1.250   5.500   0.863  1.0308 -0.8222  0.1951
  382MOL0     C52596   1.355   5.447   0.788 -0.6362  0.1257  0.2249
  382MOL0     C52597   1.296   5.429   0.666 -0.1925  0.4284  0.0277
  382MOL0     C52598   1.364   5.344   0.560  0.6236  0.8745 -0.0389
  382MOL0     C52599   1.331   5.202   0.590  0.2756 -0.2141  0.9185
  382MOL0     C52600   1.425   5.147   0.692 -0.9575  1.0265 -0.1726
  382MOL0     C52601   1.439   4.994   0.681  0.5045  0.5640  0.3254
  382MOL0     O52602   1.557   4.948   0.751 -0.2202 -0.1346 -0.2187
  382MOL0     C52603   1.668   4.929   0.674  0.5457  0.5232  0.2250
  382MOL0     C52604   1.682   4.815   0.589  0.0884  0.0710  1.1522
  382MOL0     C52605   1.800   4.791   0.525  0.2407 -1.4826 -0.1207
  382MOL0     C52606   1.817   4.671   0.439 -0.1945  0.0317 -0.1253
  382MOL0     C52607   1.909   4.874   0.555  0.7609  0.1919 -0.6792
  382MOL0     C52608   2.041   4.865   0.489 -0.3363  0.2637  0.7942
  382MOL0     O52609   2.139   4.934   0.560  0.8760 -0.2276  0.1331
  382MOL0     C52610   2.257   4.947   0.496  0.4070 -0.3828 -0.1863
  382MOL0     C52611   2.274   5.056   0.409 -0.0115 -0.1676  1.1354
  382MOL0     C52612   2.385   5.073   0.320  0.6322  0.6199  0.8554
  382MOL0     C52613   2.489   4.983   0.327 -0.2158 -0.3652 -0.0954
  382MOL0     O52614   2.597   4.974   0.241 -0.8229 -0.1802 -0.2531
  382MOL0     C52615   2.645   5.098   0.185 -0.3006  0.0716 -0.6248
  382MOL0     C52616   2.797   5.089   0.161  1.0992 -0.3538  0.5142
  382MOL0     C52617   2.840   4.954   0.096 -0.2078  0.0633 -0.2145
  382MOL0     C52618   3.000   4.939   0.093  0.1728 -0.9321 -0.0701
  382MOL0     C52619   3.044   4.798   0.046 -0.4898 -0.8875 -0.6615
  382MOL0     C52620   3.186   4.783   0.076  0.2121 -0.8961  0.1418
  382MOL0     C52621   3.275   4.855  -0.028  0.1050  0.3155  0.4651
  382MOL0     C52622   3.427   4.820  -0.023  0.1436 -0.5338  0.5095
  382MOL0    Cl52623   3.444   4.693  -0.145 -0.1191  0.0863  0.1747
  382MOL0     C52624   2.484   4.872   0.424 -0.4236  0.4881  0.4498
  382MOL0     C52625   2.362   4.854   0.491  0.8969  0.3631  0.3140
  382MOL0     O52626   2.059   4.816   0.374  0.1831 -0.2782 -0.6723
  382MOL0     C52627   1.891   4.992   0.640  0.2327 -1.3406 -0.5000
  382MOL0     C52628   1.770   5.023   0.697  0.5984  0.1559  0.7713
  382MOL0     N52629   1.168   5.476   0.671 -0.3327  0.2493 -0.2089
  382MOL0     N52630   1.135   5.525   0.781 -0.1330 -0.1742  0.1184
  382MOL0     C52631   2.179   5.426   1.641  0.0831 -0.3903  0.0069
  382MOL0     C52632   2.276   5.398   1.733 -0.3867  0.6341 -0.1138
  382MOL0     C52633   2.532   5.276   2.075 -0.0971  0.6237  0.4852
  382MOL0     C52634   2.594   5.387   2.133 -0.1927  0.0009  0.0646
  382MOL0     C52635   2.670   5.383   2.250 -0.6289  0.4895 -0.1962
  382MOL0     C52636   2.670   5.253   2.313 -0.4819  0.3005 -0.2477
  382MOL0     O52637   2.744   5.233   2.426 -0.2558 -0.1880  0.2685
  382MOL0     C52638   2.747   5.339   2.526 -0.3729  0.2772  0.1160
  382MOL0     C52639   2.754   5.272   2.670  0.2714  0.7027 -0.2651
  382MOL0     C52640   2.747   5.370   2.791 -0.3104 -0.0154 -0.5684
  382MOL0     C52641   2.886   5.420   2.820  0.0788  0.6331 -0.6296
  382MOL0     C52642   2.882   5.544   2.892 -0.1211  0.1515  0.8976
  382MOL0     C52643   2.883   5.646   2.956 -0.1280 -0.2033  0.5672
  382MOL0     C52644   2.615   5.136   2.256 -0.0076 -0.5374 -0.4959
  382MOL0     C52645   2.553   5.148   2.128  0.4087 -1.2766 -0.1548
  382MOL0     C52646   2.485   5.027   2.074  0.7290  0.8265  0.1502
  382MOL0     H52647   2.107   5.166   1.912  1.6970 -2.6501 -2.8021
  382MOL0     H52648   1.943   5.213   1.759  1.1930 -1.1782  2.6208
  382MOL0     H52649   1.799   5.362   1.663  0.8333  1.5395 -0.2431
  382MOL0     H52650   1.833   5.227   1.538  1.1517  0.7346 -0.7893
  382MOL0     H52651   1.733   5.504   1.487 -3.2006  0.1732  2.6253
  382MOL0     H52652   1.754   5.384   1.369  3.8378  1.0010  0.9594
  382MOL0     H52653   1.551   5.270   1.483 -0.9814  0.2314  0.4511
  382MOL0     H52654   1.557   5.391   1.611  0.5874  0.2413  0.4357
  382MOL0     H52655   1.391   5.488   1.468  0.2540  1.9701  0.7131
  382MOL0     H52656   1.524   5.571   1.421 -0.2994 -0.0259  4.1176
  382MOL0     H52657   1.401   5.317   1.308  0.7113  1.3361  0.4749
  382MOL0     H52658   1.555   5.388   1.242 -1.0325 -1.3181 -3.3520
  382MOL0     H52659   1.299   5.551   1.258 -0.0014  2.3799 -2.1901
  382MOL0     H52660   1.451   5.595   1.183  1.8733 -1.3856  0.1523
  382MOL0     H52661   1.282   5.358   1.111  2.5520 -1.6859 -1.1534
  382MOL0     H52662   1.433   5.405   1.019  1.8837 -0.9542  2.7019
  382MOL0     H52663   1.172   5.549   1.060 -0.5065 -2.0940  0.1578
  382MOL0     H52664   1.324   5.630   1.006  0.5461 -1.6054  1.3733
  382MOL0     H52665   1.458   5.421   0.811 -0.2718  0.0489 -1.3616
  382MOL0     H52666   1.473   5.357   0.564  0.5593  1.3565  0.3212
  382MOL0     H52667   1.320   5.372   0.464  1.0144  2.1825  0.1294
  382MOL0     H52668   1.227   5.193   0.622 -0.7939  0.2117 -2.1203
  382MOL0     H52669   1.348   5.141   0.501  2.5041 -0.3389  1.3860
  382MOL0     H52670   1.525   5.191   0.678 -0.9361  0.6640 -1.2609
  382MOL0     H52671   1.376   5.169   0.787  0.6838  2.7579  0.3343
  382MOL0     H52672   1.355   4.942   0.726  2.5461  0.6946  4.8054
  382MOL0     H52673   1.458   4.967   0.576 -0.0544 -3.0992  1.0120
  382MOL0     H52674   1.595   4.752   0.576  0.0191  0.4773 -0.5943
  382MOL0     H52675   1.909   4.614   0.457 -0.9991 -1.5529 -0.8252
  382MOL0     H52676   1.813   4.712   0.338 -1.6130  1.2506  0.3994
  382MOL0     H52677   1.735   4.602   0.463  0.5036 -0.5019  0.8382
  382MOL0     H52678   2.196   5.129   0.392 -0.0107 -0.7330 -1.9901
  382MOL0     H52679   2.377   5.153   0.246 -2.5014  2.0825  2.5782
  382MOL0     H52680   2.597   5.121   0.090 -2.6401 -1.1550  0.1744
  382MOL0     H52681   2.628   5.182   0.253 -0.6857  0.6791 -1.4563
  382MOL0     H52682   2.827   5.171   0.095  0.6715 -1.9540 -1.7991
  382MOL0     H52683   2.852   5.104   0.254  0.9499  1.2149  0.3796
  382MOL0     H52684   2.810   4.933  -0.006 -1.2281  2.0667 -0.3690
  382MOL0     H52685   2.800   4.872   0.157  0.3259 -0.0046  0.0553
  382MOL0     H52686   3.036   4.963   0.194 -0.3043  0.1050 -0.1368
  382MOL0     H52687   3.042   5.014   0.026 -0.0995 -1.0714 -0.4023
  382MOL0     H52688   2.988   4.726   0.106 -0.1938 -0.8940 -0.3915
  382MOL0     H52689   3.027   4.774  -0.059  2.3100 -1.4531 -1.0602
  382MOL0     H52690   3.213   4.679   0.053  0.6810 -1.1019  1.5329
  382MOL0     H52691   3.215   4.804   0.179 -0.6396 -1.3742  0.4963
  382MOL0     H52692   3.273   4.958   0.010  1.9775  0.7048 -0.4006
  382MOL0     H52693   3.241   4.868  -0.131 -1.2235  0.1888  0.8645
  382MOL0     H52694   3.454   4.793   0.080 -1.2757  1.0725  1.3488
  382MOL0     H52695   3.480   4.910  -0.055  0.7900 -0.3560  2.0149
  382MOL0     H52696   2.558   4.792   0.429  0.8264  1.6598  1.5201
  382MOL0     H52697   2.344   4.765   0.551 -1.3692 -0.2618 -1.1348
  382MOL0     H52698   1.975   5.056   0.663 -0.1189 -1.1900  0.4180
  382MOL0     H52699   1.745   5.108   0.760 -2.6653 -0.7140  0.8554
  382MOL0     H52700   2.191   5.504   1.566  0.2805  0.1104  0.5435
  382MOL0     H52701   2.367   5.455   1.726  0.4176 -0.5662  0.2218
  382MOL0     H52702   2.575   5.484   2.088 -0.3172  0.8811  1.9194
  382MOL0     H52703   2.723   5.475   2.271 -0.7567  1.2776 -2.9859
  382MOL0     H52704   2.835   5.401   2.508  0.9600 -1.0304  1.7991
  382MOL0     H52705   2.657   5.400   2.516 -0.1391  0.4451 -1.1901
  382MOL0     H52706   2.843   5.210   2.685 -0.0748  0.3170  0.2370
  382MOL0     H52707   2.659   5.219   2.677  1.2342 -1.0054  0.6455
  382MOL0     H52708   2.671   5.449   2.780 -2.3955 -1.7744  0.4119
  382MOL0     H52709   2.710   5.316   2.879 -0.5109  1.3537  0.2150
  382MOL0     H52710   2.942   5.439   2.727  1.3415  0.6263  0.1004
  382MOL0     H52711   2.937   5.343   2.879 -1.1907 -0.4115 -0.8674
  382MOL0     H52712   2.870   5.734   3.015 -0.1041  0.5272 -0.4792
  382MOL0     H52713   2.630   5.038   2.300  0.4959 -0.1756  0.1446
  382MOL0     H52714   2.488   4.945   2.146  2.3643  1.3533  0.7342
  382MOL0     H52715   2.380   5.049   2.056  0.5704  0.3253  0.4546
  382MOL0     H52716   2.528   4.991   1.980  0.3279  0.3827  0.1361
  383MOL0     O52717   0.511   6.351   7.421 -0.0427 -0.1298 -0.4879
  383MOL0     C52718   0.431   6.393   7.339  0.0616 -0.3741 -0.1009
  383MOL0     O52719   0.457   6.438   7.215 -0.2466  0.6434 -0.2991
  383MOL0     C52720   0.589   6.436   7.162  0.5716 -0.2122  0.1106
  383MOL0     C52721   0.605   6.380   7.034 -0.6199  0.3886 -0.6531
  383MOL0     C52722   0.738   6.376   6.978 -0.2514  0.2220  0.2390
  383MOL0     C52723   0.847   6.451   7.038 -0.4594  0.1756  0.7966
  383MOL0     O52724   0.974   6.450   6.986 -0.1520 -0.3837  0.1200
  383MOL0     C52725   0.985   6.433   6.844  0.0319  0.1224  0.2562
  383MOL0     C52726   1.106   6.504   6.793  0.2520 -0.1830  0.2207
  383MOL0     C52727   1.226   6.465   6.875 -0.5937  0.2867 -0.4896
  383MOL0     C52728   1.352   6.510   6.809  0.3270  0.3229  0.5055
  383MOL0     C52729   1.471   6.464   6.880 -0.7145  0.3397  0.0572
  383MOL0     C52730   1.596   6.511   6.809 -0.0068 -0.4315 -0.6444
  383MOL0     C52731   1.732   6.448   6.848  0.5606 -0.5826 -0.1636
  383MOL0     C52732   1.832   6.435   6.741  0.7969  0.2920 -0.4305
  383MOL0     N52733   1.861   6.564   6.676  0.3913 -0.2535  0.7567
  383MOL0     C52734   1.910   6.673   6.748 -0.1160  0.2579  0.0212
  383MOL0     C52735   1.920   6.777   6.658  0.8787  0.3738 -0.1187
  383MOL0     C52736   1.946   6.927   6.671 -0.0074 -0.6353 -0.9065
  383MOL0     C52737   2.088   6.936   6.744  0.1960 -0.5437 -0.0011
  383MOL0     C52738   2.126   7.084   6.786 -0.7146 -0.5324 -0.5242
  383MOL0     C52739   2.233   7.069   6.895 -0.6597 -0.2028  0.4937
  383MOL0     O52740   2.352   7.025   6.829  0.1465 -0.0242 -0.3046
  383MOL0     C52741   2.456   6.966   6.905 -0.8912  0.0152  0.1336
  383MOL0     C52742   2.560   6.910   6.837  0.0157  0.3070  0.5306
  383MOL0     C52743   2.677   6.874   6.906 -0.5037  0.1139 -0.1020
  383MOL0     C52744   2.776   6.810   6.817 -0.3298 -0.3919  0.1667
  383MOL0     C52745   2.686   6.894   7.044  0.3466  0.7668 -0.0294
  383MOL0     C52746   2.811   6.872   7.116 -0.9546 -0.4992 -0.2629
  383MOL0     O52747   2.893   6.776   7.060  0.1534 -0.4721  0.0454
  383MOL0     C52748   3.012   6.763   7.117  0.3414 -0.6571 -0.3605
  383MOL0     C52749   3.111   6.776   7.020 -0.1805 -0.0817  0.1458
  383MOL0     C52750   3.244   6.746   7.059  0.9137  0.2286  0.0917
  383MOL0     C52751   3.278   6.708   7.188  0.4756 -1.0003 -0.1262
  383MOL0     O52752   3.412   6.687   7.212  0.6193 -0.6664  0.6491
  383MOL0     C52753   3.443   6.595   7.319  0.3210 -0.2233 -0.1668
  383MOL0     C52754   3.593   6.573   7.338 -0.3483 -0.1774 -0.2081
  383MOL0     C52755   3.662   6.517   7.217 -0.5728  0.1837  0.2180
  383MOL0     C52756   3.817   6.512   7.233 -0.2647  0.2697 -0.2566
  383MOL0     C52757   3.893   6.389   7.184 -0.0083  0.9023 -0.4037
  383MOL0     C52758   3.866   6.372   7.039 -0.0213 -0.0132 -0.1417
  383MOL0     C52759   3.973   6.285   6.985 -0.1950 -0.0474  0.2992
  383MOL0     C52760   3.971   6.137   7.030 -0.3949  0.8681  0.0264
  383MOL0    Cl52761   4.076   6.032   6.938 -0.3534 -0.6802  0.1573
  383MOL0     C52762   3.176   6.698   7.281 -0.2551 -0.7030 -0.3665
  383MOL0     C52763   3.040   6.729   7.246 -0.2813  0.2791  0.3437
  383MOL0     O52764   2.835   6.924   7.222  0.5556  0.9703  0.0774
  383MOL0     C52765   2.578   6.940   7.113  0.3346  0.2420 -1.1279
  383MOL0     C52766   2.460   6.965   7.047  0.2389  0.3743  0.6451
  383MOL0     N52767   1.879   6.724   6.538  0.3367  0.1204  0.0692
  383MOL0     N52768   1.838   6.604   6.550  0.4123  0.5156 -0.7564
  383MOL0     C52769   0.830   6.506   7.165 -0.1194  0.2040 -0.3025
  383MOL0     C52770   0.700   6.503   7.221 -0.1492 -0.2890 -0.5608
  383MOL0     C52771   0.287   6.381   7.370 -0.2249  0.1870 -0.2292
  383MOL0     C52772   0.206   6.481   7.333 -0.6809  0.1106  0.0916
  383MOL0     C52773   0.065   6.482   7.360  0.4433  0.8996  0.5824
  383MOL0     C52774   0.013   6.372   7.422 -0.1102  0.5262 -0.0275
  383MOL0     O52775  -0.122   6.367   7.464 -1.1224 -0.4578 -0.1008
  383MOL0     C52776  -0.212   6.471   7.411  0.0291 -0.1659  0.2669
  383MOL0     C52777  -0.361   6.447   7.453  0.3670  0.3697  0.1399
  383MOL0     C52778  -0.422   6.318   7.385 -1.0176 -0.0107 -0.9663
  383MOL0     C52779  -0.564   6.290   7.411 -0.1885  0.9275 -0.2762
  383MOL0     C52780  -0.676   6.386   7.385  0.4497 -0.2018 -0.0263
  383MOL0     C52781  -0.767   6.470   7.372 -0.1468 -0.0420  0.0518
  383MOL0     C52782   0.096   6.269   7.474 -0.9939 -0.3871 -0.1907
  383MOL0     C52783   0.229   6.274   7.442  0.1284 -0.7643 -0.4445
  383MOL0     C52784   0.319   6.158   7.488  0.4894 -0.4130  0.6940
  383MOL0     H52785   0.517   6.337   6.987  0.2883  0.1601 -2.1986
  383MOL0     H52786   0.750   6.320   6.886 -4.9445 -0.1669 -0.4235
  383MOL0     H52787   0.905   6.478   6.785 -0.6130  0.4854  1.3652
  383MOL0     H52788   0.979   6.328   6.815 -2.6829 -0.5314  2.7409
  383MOL0     H52789   1.130   6.477   6.689  0.6855  1.5517 -0.1569
  383MOL0     H52790   1.101   6.613   6.786  3.0702  0.0999  1.3054
  383MOL0     H52791   1.221   6.512   6.973 -0.0592  0.3008 -0.4630
  383MOL0     H52792   1.229   6.357   6.890  0.8347  0.5345  1.4331
  383MOL0     H52793   1.353   6.471   6.707 -0.6749  1.0488  0.1962
  383MOL0     H52794   1.357   6.619   6.814  1.6862  0.2763  0.3240
  383MOL0     H52795   1.469   6.355   6.873 -2.5177  0.4778 -3.9237
  383MOL0     H52796   1.469   6.506   6.981  2.0751  2.2013 -0.5299
  383MOL0     H52797   1.578   6.485   6.705 -3.0662 -0.7914 -0.0954
  383MOL0     H52798   1.599   6.621   6.812  0.5819 -0.4628  0.6161
  383MOL0     H52799   1.713   6.346   6.883 -1.3352 -0.8417 -1.7642
  383MOL0     H52800   1.772   6.507   6.931 -3.0581  0.4255  1.0620
  383MOL0     H52801   1.929   6.401   6.779  1.1502  1.0658 -0.6159
  383MOL0     H52802   1.786   6.369   6.667 -1.5329  1.5120 -0.1814
  383MOL0     H52803   1.928   6.674   6.855  0.8697  0.5514 -0.1300
  383MOL0     H52804   1.868   6.985   6.721 -0.9240 -4.3929  2.5254
  383MOL0     H52805   1.962   6.969   6.571 -1.1315 -0.7914 -1.1604
  383MOL0     H52806   2.074   6.877   6.834 -1.8249  1.1120  0.8376
  383MOL0     H52807   2.168   6.892   6.683  0.6200  1.3732 -0.8916
  383MOL0     H52808   2.152   7.145   6.699 -0.7076  1.1277  0.5881
  383MOL0     H52809   2.038   7.134   6.828  0.8362  4.2070 -2.2666
  383MOL0     H52810   2.256   7.162   6.948  1.2759 -0.5171  0.2728
  383MOL0     H52811   2.206   6.995   6.971  2.8414 -2.3577 -0.1288
  383MOL0     H52812   2.553   6.903   6.728  0.1391 -1.3511  0.6043
  383MOL0     H52813   2.769   6.702   6.826  2.4668 -0.5024  3.0059
  383MOL0     H52814   2.879   6.848   6.823  0.4702 -1.5332 -3.7594
  383MOL0     H52815   2.753   6.833   6.713 -0.4298 -1.4684 -0.0542
  383MOL0     H52816   3.087   6.799   6.917 -1.6181 -3.2328 -0.3171
  383MOL0     H52817   3.326   6.747   6.988 -0.2203  0.2167 -1.2407
  383MOL0     H52818   3.405   6.633   7.415  1.6144  2.1388 -0.5134
  383MOL0     H52819   3.400   6.498   7.291  2.6950 -1.1815 -0.7999
  383MOL0     H52820   3.626   6.672   7.371 -1.5104  0.3968 -0.6894
  383MOL0     H52821   3.609   6.502   7.419  1.5960  1.3820  0.8478
  383MOL0     H52822   3.646   6.586   7.133  1.6561  1.6415  0.9109
  383MOL0     H52823   3.617   6.421   7.190 -0.6387  0.4660 -0.7157
  383MOL0     H52824   3.836   6.521   7.340 -2.5668 -1.7996  0.4317
  383MOL0     H52825   3.867   6.596   7.183 -2.0211  1.5069 -0.0471
  383MOL0     H52826   3.998   6.388   7.213 -0.2121 -3.4724  0.9647
  383MOL0     H52827   3.866   6.299   7.240  1.3916 -1.7584 -3.6571
  383MOL0     H52828   3.877   6.474   7.000  1.3261  0.1804  0.6862
  383MOL0     H52829   3.765   6.338   7.013 -0.6287  0.0195  1.9597
  383MOL0     H52830   4.073   6.328   6.999  0.0401 -0.5646  0.2180
  383MOL0     H52831   3.957   6.286   6.877 -1.4347 -0.1201  0.4665
  383MOL0     H52832   3.865   6.111   7.024 -0.9120  3.0836 -2.0309
  383MOL0     H52833   4.005   6.126   7.134  3.3787  0.8866 -1.0492
  383MOL0     H52834   3.195   6.671   7.384 -1.3722  0.0411  0.0534
  383MOL0     H52835   2.972   6.720   7.330  2.2567 -1.8250  2.3534
  383MOL0     H52836   2.578   6.953   7.221  0.5153 -0.1492 -1.0805
  383MOL0     H52837   2.374   7.008   7.099 -0.3514 -0.8975  0.7581
  383MOL0     H52838   0.911   6.562   7.212  0.7505  3.0575 -4.5748
  383MOL0     H52839   0.681   6.557   7.313  1.8716 -1.6547  0.7454
  383MOL0     H52840   0.251   6.567   7.284  0.5837  1.9642  4.0782
  383MOL0     H52841   0.008   6.572   7.337  0.8385  0.7312 -1.2417
  383MOL0     H52842  -0.198   6.572   7.450  2.5600 -0.2066 -0.4059
  383MOL0     H52843  -0.188   6.470   7.304  3.5646 -1.3483  0.9480
  383MOL0     H52844  -0.419   6.535   7.422 -2.5492 -1.2072  0.8015
  383MOL0     H52845  -0.369   6.444   7.562 -1.1160 -1.0143  0.0371
  383MOL0     H52846  -0.407   6.332   7.278  0.4338  3.1833 -0.4783
  383MOL0     H52847  -0.365   6.232   7.419  1.8208  1.3048 -2.0836
  383MOL0     H52848  -0.586   6.273   7.517  0.6947  0.1455 -0.2035
  383MOL0     H52849  -0.607   6.211   7.350 -1.6063 -1.1812  3.1339
  383MOL0     H52850  -0.849   6.538   7.359 -0.9620 -1.0677 -0.3500
  383MOL0     H52851   0.056   6.195   7.541 -0.7787 -0.9578 -0.6804
  383MOL0     H52852   0.399   6.139   7.416 -0.6779  0.7232 -0.9812
  383MOL0     H52853   0.367   6.176   7.585  2.0635 -0.7362 -0.0009
  383MOL0     H52854   0.248   6.076   7.502 -0.5161  0.2442 -0.3412
  384MOL0     O52855   5.557   1.641   3.349  0.0793 -0.2701 -0.7260
  384MOL0     C52856   5.513   1.646   3.468  1.0425  0.2162 -0.4122
  384MOL0     O52857   5.591   1.620   3.581 -0.1865  0.9353 -0.0747
  384MOL0     C52858   5.720   1.589   3.562 -0.5640  0.4822  0.1335
  384MOL0     C52859   5.813   1.665   3.484 -0.4136  0.5497  0.0673
  384MOL0     C52860   5.946   1.622   3.472 -0.0038  0.6972  0.3526
  384MOL0     C52861   5.990   1.499   3.524  0.4249  0.0488  0.2274
  384MOL0     O52862   6.107   1.452   3.477 -0.0438  0.1903  0.2152
  384MOL0     C52863   6.179   1.358   3.562  0.1723 -0.2361  0.6985
  384MOL0     C52864   6.324   1.340   3.509  0.3679  0.2506  0.4915
  384MOL0     C52865   6.416   1.249   3.584 -0.1590 -0.0930  0.3248
  384MOL0     C52866   6.554   1.237   3.516  0.5744 -0.5587 -0.0391
  384MOL0     C52867   6.655   1.177   3.611 -0.1413 -0.4312  0.2040
  384MOL0     C52868   6.791   1.171   3.551  0.5823  0.0987 -0.3457
  384MOL0     C52869   6.896   1.093   3.622  0.0248  0.4176 -0.4720
  384MOL0     C52870   7.033   1.100   3.542  0.2909  0.4002  0.0205
  384MOL0     N52871   7.098   1.226   3.571  0.3093 -0.0020  0.1364
  384MOL0     C52872   7.173   1.253   3.680  0.4939  1.0333 -0.5139
  384MOL0     C52873   7.202   1.388   3.681  0.0529 -0.3085 -0.4650
  384MOL0     C52874   7.268   1.477   3.780 -0.7401 -0.1741  0.9895
  384MOL0     C52875   7.415   1.454   3.762  0.6273 -0.0016 -0.3981
  384MOL0     C52876   7.490   1.506   3.884 -1.4588  0.9843  0.5037
  384MOL0     C52877   7.639   1.491   3.861 -0.2008 -0.0858  0.2592
  384MOL0     O52878   7.695   1.539   3.982  0.5055  0.0443 -0.3108
  384MOL0     C52879   7.825   1.576   3.973  0.1206  0.3466  0.2049
  384MOL0     C52880   7.862   1.678   4.059 -0.8225 -0.6549  0.5372
  384MOL0     C52881   7.985   1.735   4.062 -0.1668 -1.0234  0.3802
  384MOL0     C52882   8.014   1.854   4.155  0.1443  0.7844 -0.6322
  384MOL0     C52883   8.093   1.669   3.991  0.4077  0.0820 -0.1209
  384MOL0     C52884   8.234   1.712   3.999 -0.0781 -0.4389 -0.2069
  384MOL0     O52885   8.308   1.676   3.890  0.7068  0.5708 -0.4572
  384MOL0     C52886   8.440   1.726   3.883 -0.5645 -0.2530 -0.2479
  384MOL0     C52887   8.546   1.635   3.869 -0.7542  0.1230  0.1255
  384MOL0     C52888   8.682   1.687   3.883  0.4840 -0.4987  0.7249
  384MOL0     C52889   8.709   1.822   3.871  0.5857 -0.2024 -0.2061
  384MOL0     O52890   8.827   1.878   3.861 -0.0234 -1.0004  0.2361
  384MOL0     C52891   8.941   1.795   3.877  0.2125 -0.6847 -0.1357
  384MOL0     C52892   9.057   1.889   3.896 -0.9977  0.1549 -0.4015
  384MOL0     C52893   9.172   1.819   3.965  0.1637  0.1792  0.0754
  384MOL0     C52894   9.289   1.909   4.012 -0.6195  0.5683 -0.1115
  384MOL0     C52895   9.399   1.819   4.059 -0.1910 -0.1839  0.6270
  384MOL0     C52896   9.491   1.898   4.153  0.9487  0.3446  0.0606
  384MOL0     C52897   9.622   1.827   4.175  0.4781 -0.6979 -0.1308
  384MOL0     C52898   9.728   1.909   4.226 -0.0562 -0.0798  0.0867
  384MOL0    Cl52899   9.882   1.832   4.185 -0.0642 -0.0207  0.2990
  384MOL0     C52900   8.593   1.905   3.864  0.1123  0.2853  1.1202
  384MOL0     C52901   8.463   1.867   3.869  0.0937 -0.0291 -0.0441
  384MOL0     O52902   8.277   1.776   4.092 -0.1357  0.4033  0.3063
  384MOL0     C52903   8.058   1.562   3.906  0.5502  0.6448 -0.8421
  384MOL0     C52904   7.925   1.518   3.892 -0.8061  0.3681  0.1174
  384MOL0     N52905   7.140   1.433   3.566  0.2268  0.0328  0.3250
  384MOL0     N52906   7.092   1.339   3.493  0.6297  0.0881 -0.1471
  384MOL0     C52907   5.906   1.424   3.600  0.3657  0.4497 -0.2812
  384MOL0     C52908   5.773   1.467   3.625  0.1372  0.1426  0.6947
  384MOL0     C52909   5.368   1.677   3.484 -0.4782 -0.2756 -0.0287
  384MOL0     C52910   5.338   1.713   3.612  0.6131  1.0289  0.2011
  384MOL0     C52911   5.208   1.744   3.650  0.4170  0.3830  0.1377
  384MOL0     C52912   5.103   1.748   3.552 -0.4231  0.2726 -0.2263
  384MOL0     O52913   4.980   1.783   3.570  0.7478  0.7084  0.0977
  384MOL0     C52914   4.938   1.819   3.698  0.0187 -0.5612 -0.0774
  384MOL0     C52915   4.789   1.851   3.705 -0.4670 -0.4543 -0.7738
  384MOL0     C52916   4.745   1.933   3.823 -0.6177 -0.1173 -0.0283
  384MOL0     C52917   4.608   1.966   3.826  0.4257 -0.3149 -1.0174
  384MOL0     C52918   4.573   2.038   3.952 -0.0914  0.1030  0.2598
  384MOL0     C52919   4.537   2.095   4.050  0.3124 -0.2397  0.2005
  384MOL0     C52920   5.134   1.723   3.417 -0.0039 -0.2124 -0.0441
  384MOL0     C52921   5.266   1.680   3.388  0.4975  0.4473  0.0830
  384MOL0     C52922   5.290   1.631   3.247  0.6464  0.1568  0.0540
  384MOL0     H52923   5.780   1.750   3.424  0.7149  0.3743 -0.8461
  384MOL0     H52924   6.010   1.678   3.405 -1.3809 -0.6797 -2.2433
  384MOL0     H52925   6.135   1.257   3.562 -1.1975  0.2535 -2.0364
  384MOL0     H52926   6.190   1.395   3.664 -1.2947 -0.0324  0.8075
  384MOL0     H52927   6.326   1.308   3.404  1.5770  0.5377  0.4143
  384MOL0     H52928   6.363   1.442   3.509  0.3801  0.2542 -0.0604
  384MOL0     H52929   6.433   1.293   3.682 -1.2840 -0.3110  0.6360
  384MOL0     H52930   6.365   1.153   3.591  0.2947 -0.2259  2.5243
  384MOL0     H52931   6.537   1.171   3.431 -1.9604 -1.8925  1.3830
  384MOL0     H52932   6.605   1.330   3.487 -0.8375  0.7517  1.4393
  384MOL0     H52933   6.615   1.081   3.645 -4.1554  1.3379  1.1704
  384MOL0     H52934   6.665   1.249   3.692  0.5504  2.5451 -2.3448
  384MOL0     H52935   6.771   1.136   3.450  0.7928  0.9485 -0.6919
  384MOL0     H52936   6.834   1.271   3.536  0.8437  0.4937  2.4033
  384MOL0     H52937   6.870   0.986   3.617  0.8193  0.2007 -0.1726
  384MOL0     H52938   6.896   1.129   3.725  1.0554  0.8040 -0.5944
  384MOL0     H52939   7.088   1.010   3.570  0.1011 -0.2939 -1.6998
  384MOL0     H52940   7.021   1.101   3.433 -2.7216  0.0204  0.2600
  384MOL0     H52941   7.197   1.169   3.744 -1.1995 -0.0022 -1.1608
  384MOL0     H52942   7.246   1.451   3.884  3.3360 -2.3483  1.5114
  384MOL0     H52943   7.244   1.582   3.758 -2.4436 -0.4402  1.4200
  384MOL0     H52944   7.429   1.346   3.749 -2.5642 -0.8774  2.0951
  384MOL0     H52945   7.457   1.510   3.678  2.5754 -1.2103 -0.2965
  384MOL0     H52946   7.470   1.614   3.887 -0.8548  1.0699  2.8972
  384MOL0     H52947   7.454   1.456   3.974  0.9817 -2.0177 -0.0480
  384MOL0     H52948   7.661   1.385   3.841 -2.0384 -0.1282 -2.0143
  384MOL0     H52949   7.662   1.553   3.774 -0.5074  0.1098  0.3185
  384MOL0     H52950   7.780   1.727   4.110 -1.8126 -0.0685 -1.4810
  384MOL0     H52951   8.086   1.834   4.234  0.1186  1.9319 -0.3043
  384MOL0     H52952   7.927   1.895   4.207  0.3977 -1.3079  1.5977
  384MOL0     H52953   8.051   1.928   4.083 -2.2210 -0.1197 -2.9744
  384MOL0     H52954   8.526   1.530   3.853 -1.1849  0.1433  0.5037
  384MOL0     H52955   8.762   1.614   3.892  0.7081 -0.2295  0.8881
  384MOL0     H52956   8.931   1.742   3.972  1.3478  0.3781  0.6251
  384MOL0     H52957   8.950   1.733   3.788  1.9738 -0.9833  0.1954
  384MOL0     H52958   9.093   1.919   3.797 -1.0271  0.6118 -0.2769
  384MOL0     H52959   9.025   1.980   3.949  1.4622 -0.2569  2.0179
  384MOL0     H52960   9.212   1.740   3.901 -1.0360 -1.6877  1.5332
  384MOL0     H52961   9.130   1.770   4.054  0.2722  1.0304  0.6069
  384MOL0     H52962   9.260   1.973   4.096  0.2152  3.5890 -1.9529
  384MOL0     H52963   9.320   1.975   3.930  0.5435 -0.7491 -0.7699
  384MOL0     H52964   9.360   1.733   4.114  1.4241 -1.6287 -0.3867
  384MOL0     H52965   9.467   1.780   3.983  0.0440 -0.4691  0.9768
  384MOL0     H52966   9.441   1.915   4.249  0.2055 -0.1298 -0.2322
  384MOL0     H52967   9.506   1.998   4.112 -0.7887  0.4852 -0.3444
  384MOL0     H52968   9.654   1.796   4.075 -2.0851 -0.7110 -1.0324
  384MOL0     H52969   9.611   1.734   4.231  0.3593 -2.6697 -3.1872
  384MOL0     H52970   9.718   1.904   4.335 -0.5861  0.8689  0.0911
  384MOL0     H52971   9.717   2.015   4.203  0.9559  0.4292  1.8049
  384MOL0     H52972   8.600   2.013   3.867 -3.9213  0.6971  3.1422
  384MOL0     H52973   8.383   1.938   3.850 -0.0441 -0.5930 -1.6632
  384MOL0     H52974   8.122   1.500   3.844  1.4396  0.5257  0.1705
  384MOL0     H52975   7.905   1.448   3.812  0.4252  1.6991 -1.4021
  384MOL0     H52976   5.944   1.336   3.651  2.3938  2.5131  2.0515
  384MOL0     H52977   5.713   1.401   3.687  2.5875 -1.4735  1.5145
  384MOL0     H52978   5.412   1.701   3.692  1.7316 -1.6707 -1.1048
  384MOL0     H52979   5.184   1.769   3.753  2.9715  1.1716  0.6225
  384MOL0     H52980   4.969   1.744   3.772  2.3243 -0.2317 -0.6198
  384MOL0     H52981   5.002   1.901   3.733  2.7370 -2.9499  0.9544
  384MOL0     H52982   4.738   1.754   3.702  0.1854 -0.7879 -1.1413
  384MOL0     H52983   4.753   1.908   3.618 -2.0848 -1.9393 -1.1380
  384MOL0     H52984   4.784   1.884   3.913 -2.0095 -0.4536  0.4196
  384MOL0     H52985   4.792   2.032   3.820  0.3446 -0.4633  1.9430
  384MOL0     H52986   4.538   1.882   3.825 -0.6011  0.5138 -1.2124
  384MOL0     H52987   4.572   2.027   3.743 -0.3974  1.0075  0.2555
  384MOL0     H52988   4.498   2.154   4.130  0.3363  3.5676 -2.3322
  384MOL0     H52989   5.060   1.728   3.337  1.2596 -1.7759 -1.3767
  384MOL0     H52990   5.335   1.532   3.243 -0.9988 -0.5828 -2.6271
  384MOL0     H52991   5.193   1.615   3.199  0.1388 -2.7673  1.8259
  384MOL0     H52992   5.354   1.707   3.201 -0.1486  0.6991 -0.1719
  385MOL0     O52993   3.178  11.232   8.668 -0.2180  0.6887 -0.3523
  385MOL0     C52994   3.179  11.190   8.552 -0.3494 -0.4777 -0.2194
  385MOL0     O52995   3.255  11.079   8.508  0.7883 -0.1161 -0.1620
  385MOL0     C52996   3.322  11.011   8.604  0.1711  0.6736 -0.4225
  385MOL0     C52997   3.281  10.964   8.733 -0.2143  0.9856 -0.0588
  385MOL0     C52998   3.368  10.880   8.817 -0.5091 -0.0646  0.2318
  385MOL0     C52999   3.491  10.835   8.765 -0.4178 -0.3575  0.7460
  385MOL0     O53000   3.572  10.745   8.831  0.1030  0.1713 -0.7388
  385MOL0     C53001   3.710  10.770   8.837  0.4028  0.7879  0.1907
  385MOL0     C53002   3.735  10.847   8.964  0.4114  0.4515 -0.9313
  385MOL0     C53003   3.680  10.780   9.092  0.5603 -0.0258 -0.4085
  385MOL0     C53004   3.769  10.655   9.140  0.0031 -0.3681  0.5966
  385MOL0     C53005   3.912  10.680   9.179  0.6203 -0.4443 -0.1025
  385MOL0     C53006   3.925  10.791   9.284  0.5566 -0.0862 -0.0040
  385MOL0     C53007   4.073  10.784   9.343  0.2683 -0.1762 -0.4570
  385MOL0     C53008   4.195  10.769   9.249 -0.0599  0.0585 -0.2058
  385MOL0     N53009   4.199  10.897   9.178 -0.5696  0.3983 -0.1457
  385MOL0     C53010   4.264  11.004   9.229  0.4484 -0.2287  0.7553
  385MOL0     C53011   4.231  11.106   9.146 -0.0267 -0.0894  0.1515
  385MOL0     C53012   4.234  11.253   9.151  0.5233 -0.2954 -0.4456
  385MOL0     C53013   4.376  11.314   9.179 -1.2256  0.1291 -0.2258
  385MOL0     C53014   4.386  11.463   9.207  0.2324  0.1866  0.1705
  385MOL0     C53015   4.539  11.509   9.214  0.3006  0.4094 -1.2885
  385MOL0     O53016   4.584  11.555   9.093 -0.3655  0.0345 -0.2096
  385MOL0     C53017   4.710  11.605   9.093  1.0824  1.0373 -0.2968
  385MOL0     C53018   4.804  11.602   9.197  0.1743 -0.1843  0.1924
  385MOL0     C53019   4.925  11.677   9.187 -0.7410  0.1379  0.0068
  385MOL0     C53020   5.004  11.679   9.309 -0.5840 -0.3374 -0.2284
  385MOL0     C53021   4.963  11.745   9.075  0.0867 -1.1850 -0.4495
  385MOL0     C53022   5.087  11.834   9.049 -0.2310  0.5677  0.4461
  385MOL0     O53023   5.110  11.868   8.920  0.2371 -0.2138  0.0138
  385MOL0     C53024   5.222  11.934   8.872 -0.2480 -0.9288  0.2377
  385MOL0     C53025   5.227  11.960   8.731  0.6148 -0.3815 -0.1041
  385MOL0     C53026   5.343  12.003   8.666 -0.1310  0.3392  0.2558
  385MOL0     C53027   5.465  12.028   8.730  0.1008  0.4168  0.1742
  385MOL0     O53028   5.568  12.088   8.663 -0.2049  0.5745  0.6358
  385MOL0     C53029   5.656  12.156   8.741  0.0963 -0.6921  0.4770
  385MOL0     C53030   5.750  12.237   8.663  0.0740  0.1143 -1.1640
  385MOL0     C53031   5.842  12.147   8.570  0.8512 -0.0990 -0.6616
  385MOL0     C53032   5.905  12.227   8.455  0.3731 -0.3055 -0.8481
  385MOL0     C53033   5.943  12.142   8.334  0.4795 -0.9910 -0.6914
  385MOL0     C53034   6.089  12.090   8.365  0.4403 -0.6240  0.3771
  385MOL0     C53035   6.127  11.971   8.279  0.8370  0.4175 -0.5379
  385MOL0     C53036   6.277  11.950   8.276  1.1836 -0.3084  0.3080
  385MOL0    Cl53037   6.353  12.069   8.152  0.0074  0.1845  0.3774
  385MOL0     C53038   5.457  12.004   8.874  0.4190 -0.1939  0.2868
  385MOL0     C53039   5.337  11.962   8.944 -0.0942 -0.1819 -0.3220
  385MOL0     O53040   5.160  11.866   9.147 -0.5579  0.4123 -0.8060
  385MOL0     C53041   4.866  11.746   8.967  0.3287 -0.9082 -0.4186
  385MOL0     C53042   4.744  11.683   8.980 -0.8382 -0.2143  0.3915
  385MOL0     N53043   4.139  11.057   9.058  0.3972  0.4072  0.0840
  385MOL0     N53044   4.117  10.937   9.079  0.6177  0.2023 -0.0031
  385MOL0     C53045   3.531  10.877   8.639  0.2457  0.7269 -0.5667
  385MOL0     C53046   3.448  10.963   8.565  0.5678  0.5160 -0.5499
  385MOL0     C53047   3.077  11.267   8.461  0.0389 -0.5946  0.3358
  385MOL0     C53048   2.988  11.356   8.523 -0.7353 -0.0947  0.7332
  385MOL0     C53049   2.900  11.432   8.445 -0.3185  0.8390  0.6957
  385MOL0     C53050   2.886  11.412   8.312  1.0448  0.0914  0.3013
  385MOL0     O53051   2.801  11.472   8.227  0.0061  0.4417 -0.3231
  385MOL0     C53052   2.691  11.555   8.274 -1.4627  0.5631  0.1737
  385MOL0     C53053   2.595  11.597   8.162  0.1921  0.4719  0.7131
  385MOL0     C53054   2.524  11.484   8.093 -0.0216  0.3628 -0.0233
  385MOL0     C53055   2.424  11.428   8.191  0.5110 -0.4589 -0.4173
  385MOL0     C53056   2.308  11.359   8.120  0.9517  0.3502 -0.2820
  385MOL0     C53057   2.213  11.317   8.057 -0.6308  0.3355 -0.0239
  385MOL0     C53058   2.956  11.308   8.254  0.3682  0.2274 -0.3462
  385MOL0     C53059   3.053  11.227   8.325  0.6219 -0.3400 -0.2193
  385MOL0     C53060   3.117  11.121   8.244 -0.3628  0.2096 -0.5108
  385MOL0     H53061   3.183  10.990   8.773 -0.4045  1.3767 -0.7704
  385MOL0     H53062   3.340  10.835   8.912  2.0321 -0.7245  0.7362
  385MOL0     H53063   3.755  10.819   8.750  2.0932  0.8194  1.0358
  385MOL0     H53064   3.764  10.675   8.831 -0.9363  0.1225 -2.2668
  385MOL0     H53065   3.835  10.884   8.986  0.8199  0.6579 -2.9796
  385MOL0     H53066   3.674  10.938   8.955 -0.9005 -0.3620 -0.6583
  385MOL0     H53067   3.690  10.853   9.173  1.1196  0.9922 -1.3714
  385MOL0     H53068   3.574  10.758   9.079  1.1601 -4.9949  0.7806
  385MOL0     H53069   3.718  10.609   9.225 -1.6644  0.7690  0.2756
  385MOL0     H53070   3.765  10.575   9.066  0.0152 -1.5306  1.8262
  385MOL0     H53071   3.967  10.695   9.085  2.2455  2.4538  1.1704
  385MOL0     H53072   3.956  10.587   9.216  1.9136  0.7637  1.5914
  385MOL0     H53073   3.904  10.890   9.242  0.1052 -0.5258 -0.8181
  385MOL0     H53074   3.859  10.787   9.371 -0.1354  2.4268 -0.3265
  385MOL0     H53075   4.075  10.703   9.417  0.2949  0.3153  0.0923
  385MOL0     H53076   4.082  10.873   9.406 -2.8237 -0.8441  1.1777
  385MOL0     H53077   4.289  10.758   9.304 -0.5983  0.4906  0.8405
  385MOL0     H53078   4.183  10.682   9.184 -1.2157 -0.0375  0.1146
  385MOL0     H53079   4.315  11.010   9.324  2.7691  0.7435 -0.4677
  385MOL0     H53080   4.179  11.282   9.241 -1.1485 -0.0224 -1.5142
  385MOL0     H53081   4.186  11.302   9.066 -1.7431 -0.2209  0.7941
  385MOL0     H53082   4.423  11.268   9.267  1.5859  4.8438  1.1157
  385MOL0     H53083   4.437  11.299   9.089  0.2732 -0.1253  0.7842
  385MOL0     H53084   4.343  11.529   9.130  1.8395  3.5961  1.9832
  385MOL0     H53085   4.343  11.488   9.304  2.6745  1.3612  1.0283
  385MOL0     H53086   4.559  11.578   9.296 -1.0960 -1.1668  0.4987
  385MOL0     H53087   4.590  11.418   9.246 -0.1102  0.4252 -0.5643
  385MOL0     H53088   4.777  11.554   9.290  1.5897 -1.3373  0.0428
  385MOL0     H53089   5.103  11.632   9.302 -0.3481  0.3153 -1.5072
  385MOL0     H53090   4.951  11.623   9.387  0.3673  0.9068  1.3647
  385MOL0     H53091   5.030  11.782   9.334  2.0109 -0.8242 -0.6008
  385MOL0     H53092   5.134  11.950   8.675  0.6829  1.6859 -0.6647
  385MOL0     H53093   5.337  12.034   8.562 -0.8216  1.5245  0.6280
  385MOL0     H53094   5.601  12.223   8.808 -1.6877 -1.0066 -0.6249
  385MOL0     H53095   5.707  12.088   8.810 -1.2066 -1.3988  0.7646
  385MOL0     H53096   5.694  12.312   8.606  0.4431  0.8821 -0.5419
  385MOL0     H53097   5.814  12.298   8.727  1.6696 -1.8479 -0.7792
  385MOL0     H53098   5.783  12.062   8.533 -0.4610  1.5747 -2.6224
  385MOL0     H53099   5.926  12.109   8.629 -0.5680 -1.6475  0.5027
  385MOL0     H53100   5.986  12.282   8.504  0.2553 -0.0518 -0.9351
  385MOL0     H53101   5.846  12.312   8.423  2.2947  1.4712  0.0640
  385MOL0     H53102   5.873  12.059   8.327 -2.1847  1.1090 -0.6764
  385MOL0     H53103   5.929  12.202   8.244 -0.2929 -0.1188 -0.0124
  385MOL0     H53104   6.081  12.055   8.468 -1.3121 -0.3977  0.3447
  385MOL0     H53105   6.157  12.176   8.358 -0.4475  0.1396  1.0071
  385MOL0     H53106   6.100  11.980   8.174  0.4802 -2.8720 -0.8340
  385MOL0     H53107   6.075  11.883   8.319 -1.1079  1.1816 -1.2446
  385MOL0     H53108   6.297  11.846   8.249 -3.2686 -1.2530 -0.1882
  385MOL0     H53109   6.312  11.969   8.378 -0.2441  1.9199  0.4491
  385MOL0     H53110   5.538  12.041   8.935  1.8334  4.0535 -3.6396
  385MOL0     H53111   5.337  11.961   9.053 -1.5586 -0.2915 -0.3032
  385MOL0     H53112   4.891  11.793   8.872 -0.2081  0.7032  0.1982
  385MOL0     H53113   4.663  11.700   8.910 -0.7253 -0.8748  0.0963
  385MOL0     H53114   3.616  10.837   8.585  0.8581 -0.5309  1.2151
  385MOL0     H53115   3.476  10.983   8.462  0.8561  1.7901 -0.2368
  385MOL0     H53116   2.999  11.377   8.629 -2.8346  0.1732  0.9347
  385MOL0     H53117   2.838  11.507   8.493 -0.6931  0.1952  1.2330
  385MOL0     H53118   2.636  11.499   8.350 -1.3953  3.4094  2.4785
  385MOL0     H53119   2.739  11.641   8.321  0.7500 -1.5365  2.0703
  385MOL0     H53120   2.653  11.635   8.078 -3.4837  1.4580 -1.6333
  385MOL0     H53121   2.522  11.677   8.180 -1.3055  0.1297 -2.9662
  385MOL0     H53122   2.480  11.524   8.001 -1.7576 -0.5280  0.3695
  385MOL0     H53123   2.597  11.407   8.067  0.3188  1.2660 -1.9123
  385MOL0     H53124   2.366  11.501   8.248 -2.8376 -0.4995 -3.3844
  385MOL0     H53125   2.474  11.354   8.253  0.5336  1.2707  1.7461
  385MOL0     H53126   2.132  11.286   7.994  0.8658 -0.3765 -1.6653
  385MOL0     H53127   2.948  11.288   8.148  2.7297 -1.7512 -0.2498
  385MOL0     H53128   3.041  11.086   8.175 -0.9552  1.5255 -0.5566
  385MOL0     H53129   3.195  11.163   8.179  2.1054 -1.0761  1.4011
  385MOL0     H53130   3.152  11.033   8.300 -1.3143  0.5352  0.6476
  386MOL0     O53131   8.567   6.726   9.753  1.4221 -0.1777 -0.2114
  386MOL0     C53132   8.579   6.695   9.636 -0.3976 -0.6711 -0.5069
  386MOL0     O53133   8.683   6.634   9.582 -0.0837  0.0263 -0.5425
  386MOL0     C53134   8.804   6.604   9.652  0.1764  0.2424  0.2544
  386MOL0     C53135   8.820   6.593   9.793 -0.2489 -0.2107 -0.2332
  386MOL0     C53136   8.947   6.561   9.840 -0.4356 -1.1401 -0.0284
  386MOL0     C53137   9.055   6.536   9.760  0.6783  0.2984  0.0053
  386MOL0     O53138   9.177   6.495   9.798  0.1538 -0.3319  0.8248
  386MOL0     C53139   9.221   6.512   9.938  0.2957  0.3334  0.7861
  386MOL0     C53140   9.238   6.659   9.985  0.0493  0.2837 -0.3360
  386MOL0     C53141   9.370   6.716   9.938 -0.5120 -0.2471 -0.0068
  386MOL0     C53142   9.420   6.848   9.996  0.0297  0.2668  1.3434
  386MOL0     C53143   9.581   6.862   9.999 -0.5589 -0.2714 -0.3661
  386MOL0     C53144   9.619   7.002  10.057 -1.0765 -0.2735  0.0314
  386MOL0     C53145   9.767   6.992  10.086 -0.4327 -0.1591  0.1018
  386MOL0     C53146   9.820   7.127  10.153  0.3637  0.3245  0.5337
  386MOL0     N53147   9.950   7.116  10.214 -0.2992  0.8162 -0.2069
  386MOL0     C53148  10.026   7.219  10.243  0.5434 -0.3832 -0.0988
  386MOL0     C53149  10.151   7.177  10.285  0.1270 -0.2293 -0.1345
  386MOL0     C53150  10.280   7.245  10.309  0.2319  0.1114 -0.5607
  386MOL0     C53151  10.410   7.160  10.324  0.6214 -1.1355 -0.8120
  386MOL0     C53152  10.447   7.087  10.193 -0.7270  0.4294 -0.0064
  386MOL0     C53153  10.569   6.986  10.204 -0.0209 -0.3157 -0.2030
  386MOL0     O53154  10.689   7.047  10.255 -0.1596 -0.3337 -0.0468
  386MOL0     C53155  10.808   6.975  10.261  0.2087  0.3836  0.0533
  386MOL0     C53156  10.824   6.841  10.217  0.2155 -0.4282 -0.5949
  386MOL0     C53157  10.943   6.767  10.238 -0.0979 -0.4689  0.2324
  386MOL0     C53158  10.944   6.628  10.181 -0.5933 -0.0781 -1.4095
  386MOL0     C53159  11.039   6.830  10.319  0.0665  0.1398 -0.1721
  386MOL0     C53160  11.165   6.759  10.359  0.4126 -0.0633  0.5855
  386MOL0     O53161  11.266   6.846  10.387  0.3970 -0.2433  0.5417
  386MOL0     C53162  11.390   6.787  10.363 -0.6371 -0.1169  1.1271
  386MOL0     C53163  11.487   6.805  10.460 -0.6535 -0.3759 -0.1842
  386MOL0     C53164  11.612   6.740  10.440 -0.3988 -0.5758  0.4913
  386MOL0     C53165  11.646   6.664  10.333  1.0129  0.8250 -0.2135
  386MOL0     O53166  11.771   6.617  10.319  0.1792 -0.0611 -0.0792
  386MOL0     C53167  11.784   6.492  10.386 -0.0601  0.9823  0.3940
  386MOL0     C53168  11.908   6.426  10.331 -0.0060 -0.3656 -0.0981
  386MOL0     C53169  11.964   6.321  10.426 -0.3232 -0.0792 -0.3368
  386MOL0     C53170  12.115   6.304  10.404 -0.4212  0.7370 -0.1234
  386MOL0     C53171  12.193   6.221  10.506  0.8179 -0.1814  0.0684
  386MOL0     C53172  12.300   6.134  10.453  0.5554 -0.9982  0.5172
  386MOL0     C53173  12.380   6.084  10.565 -1.0092  0.6009  0.7619
  386MOL0     C53174  12.505   6.003  10.518  0.1091  0.5292 -0.0878
  386MOL0    Cl53175  12.615   6.112  10.432 -0.2525  0.2916  0.0093
  386MOL0     C53176  11.552   6.645  10.236  0.1022 -0.4302  0.3982
  386MOL0     C53177  11.425   6.713  10.250 -0.4456  0.4312  0.1775
  386MOL0     O53178  11.157   6.642  10.382 -0.8672  0.9907 -0.4984
  386MOL0     C53179  11.024   6.962  10.364 -0.0046  0.0010  0.7009
  386MOL0     C53180  10.908   7.035  10.332  0.0314  0.0547  0.5765
  386MOL0     N53181  10.130   7.036  10.294 -0.1626  0.1209  0.2651
  386MOL0     N53182  10.016   6.994  10.258  0.7134 -0.0963  0.8019
  386MOL0     C53183   9.037   6.547   9.621  0.5471 -0.2149  0.0055
  386MOL0     C53184   8.914   6.583   9.566  0.0409  0.7098  0.0659
  386MOL0     C53185   8.462   6.724   9.550 -0.6802  0.0939 -0.1881
  386MOL0     C53186   8.387   6.612   9.519 -0.7645  0.2171  0.3527
  386MOL0     C53187   8.268   6.630   9.450  0.2641  0.3087  0.5118
  386MOL0     C53188   8.237   6.749   9.396  0.2485 -0.3721  0.5815
  386MOL0     O53189   8.125   6.783   9.326  0.6978 -0.3432  0.4633
  386MOL0     C53190   8.012   6.692   9.322 -1.4234 -0.8087 -0.0908
  386MOL0     C53191   7.891   6.770   9.289 -0.3662  0.5875 -0.2023
  386MOL0     C53192   7.836   6.861   9.399 -0.7861 -0.2412 -0.0862
  386MOL0     C53193   7.737   6.966   9.344 -0.2166 -0.2626 -0.4674
  386MOL0     C53194   7.604   6.903   9.327 -0.7007  0.8024  0.4394
  386MOL0     C53195   7.501   6.847   9.305  0.1535 -0.5834  1.2304
  386MOL0     C53196   8.308   6.868   9.423 -0.3884  0.4262  0.6862
  386MOL0     C53197   8.418   6.854   9.508 -0.0369  0.2678  0.1070
  386MOL0     C53198   8.490   6.978   9.550 -0.5601  0.3475 -0.4747
  386MOL0     H53199   8.741   6.607   9.866 -2.0419 -2.4575 -1.6099
  386MOL0     H53200   8.949   6.545   9.947  1.7697 -0.1497  0.1368
  386MOL0     H53201   9.315   6.456   9.937 -0.3843 -0.9004 -1.5285
  386MOL0     H53202   9.146   6.455   9.993  1.0349 -1.1843  0.2590
  386MOL0     H53203   9.156   6.728   9.962  1.7808  2.0282 -1.5306
  386MOL0     H53204   9.237   6.658  10.095 -0.4181  2.8253 -0.2487
  386MOL0     H53205   9.453   6.647   9.955 -0.3900  0.7115  5.0521
  386MOL0     H53206   9.371   6.733   9.830 -2.1132  2.3900  0.2914
  386MOL0     H53207   9.385   6.930   9.933 -2.1863 -1.4963  0.1385
  386MOL0     H53208   9.378   6.866  10.096 -1.2814  3.3294  0.3870
  386MOL0     H53209   9.625   6.851   9.899  0.6469 -0.3698  0.1612
  386MOL0     H53210   9.618   6.779  10.060 -0.3698 -1.1991 -1.7029
  386MOL0     H53211   9.591   7.084   9.991  2.0371  2.8919  2.2276
  386MOL0     H53212   9.573   7.029  10.153  0.1645  4.2574 -0.3883
  386MOL0     H53213   9.840   6.963  10.011  1.6187 -0.3398  2.0496
  386MOL0     H53214   9.770   6.921  10.169 -2.9595  1.3249  1.5940
  386MOL0     H53215   9.819   7.190  10.063 -1.5969 -0.2600  0.1044
  386MOL0     H53216   9.749   7.176  10.219  1.0077 -0.1460  1.6143
  386MOL0     H53217   9.998   7.318  10.209  2.9566  1.0870  1.8415
  386MOL0     H53218  10.270   7.300  10.403 -1.0007 -0.8338 -0.1113
  386MOL0     H53219  10.299   7.318  10.229 -2.2985 -0.9929 -2.2914
  386MOL0     H53220  10.489   7.231  10.353  1.1351 -2.6929  2.0212
  386MOL0     H53221  10.409   7.092  10.410  1.7314  1.8123  1.7388
  386MOL0     H53222  10.355   7.033  10.168 -0.6986  0.3015  0.1619
  386MOL0     H53223  10.460   7.162  10.114 -0.4491  0.6830  0.2722
  386MOL0     H53224  10.537   6.913  10.279  0.6945 -1.8891 -1.3730
  386MOL0     H53225  10.578   6.925  10.114 -0.8898  2.7474 -2.4963
  386MOL0     H53226  10.750   6.795  10.153 -1.0950  0.6014  0.1265
  386MOL0     H53227  10.883   6.630  10.090 -0.7798 -1.0952 -1.3137
  386MOL0     H53228  10.898   6.558  10.251  0.8132  0.6164  0.2929
  386MOL0     H53229  11.043   6.585  10.163 -0.8339 -1.0741 -0.3658
  386MOL0     H53230  11.453   6.857  10.549  3.3423  3.3405 -0.4469
  386MOL0     H53231  11.695   6.751  10.508 -1.2583 -0.3259  1.5286
  386MOL0     H53232  11.794   6.513  10.493 -0.5625 -0.4452  0.7327
  386MOL0     H53233  11.697   6.427  10.375  0.0955  0.6790  0.8952
  386MOL0     H53234  11.889   6.374  10.237 -4.4214  0.9205 -0.1920
  386MOL0     H53235  11.992   6.491  10.306  0.8538 -2.0413 -1.7585
  386MOL0     H53236  11.902   6.230  10.420 -3.4778  1.8426  0.6288
  386MOL0     H53237  11.956   6.359  10.528 -0.9459 -0.4675 -0.2295
  386MOL0     H53238  12.169   6.397  10.387  0.0959  0.1015 -2.3244
  386MOL0     H53239  12.133   6.259  10.305  0.4955 -0.3306  0.4968
  386MOL0     H53240  12.222   6.288  10.588 -1.6336 -0.2080  1.0425
  386MOL0     H53241  12.122   6.151  10.551  0.7501 -1.1852 -1.5274
  386MOL0     H53242  12.366   6.183  10.381 -1.4196 -0.8158 -1.2778
  386MOL0     H53243  12.253   6.047  10.406  0.3548 -0.8609  0.4649
  386MOL0     H53244  12.323   6.017  10.629  0.5238 -1.7310 -0.2077
  386MOL0     H53245  12.420   6.170  10.620  0.3050  0.5388 -0.0590
  386MOL0     H53246  12.473   5.916  10.460  1.5042  0.1999 -0.4091
  386MOL0     H53247  12.563   5.968  10.605  1.7106  0.3216 -1.2010
  386MOL0     H53248  11.578   6.587  10.148 -3.0709  3.4458 -3.5495
  386MOL0     H53249  11.365   6.704  10.160 -0.0897  2.6592 -0.3442
  386MOL0     H53250  11.098   7.015  10.423  0.7654  0.9923 -1.0883
  386MOL0     H53251  10.894   7.140  10.353  0.3128  0.8658 -2.7785
  386MOL0     H53252   9.123   6.538   9.556 -0.6598 -1.2061 -1.5380
  386MOL0     H53253   8.896   6.586   9.459 -1.9817 -4.5615 -0.0076
  386MOL0     H53254   8.421   6.523   9.571 -0.0722  0.1600 -0.1797
  386MOL0     H53255   8.213   6.539   9.430 -0.1593  0.2811  1.7095
  386MOL0     H53256   8.019   6.603   9.259  0.7458 -0.3897 -0.5156
  386MOL0     H53257   7.992   6.649   9.420 -0.4897 -1.8129 -0.3207
  386MOL0     H53258   7.812   6.704   9.253  1.3181 -2.8018  1.8134
  386MOL0     H53259   7.928   6.829   9.205 -0.3747  1.4439  0.3793
  386MOL0     H53260   7.785   6.802   9.475  0.2879 -1.7880 -0.5260
  386MOL0     H53261   7.911   6.918   9.455 -2.2335  1.3315  0.3256
  386MOL0     H53262   7.788   7.008   9.257  0.7707  1.9099  1.0811
  386MOL0     H53263   7.724   7.050   9.413  1.2438 -2.6139  2.9203
  386MOL0     H53264   7.410   6.789   9.305 -0.1503 -0.4207 -2.9328
  386MOL0     H53265   8.277   6.967   9.389 -1.1464  0.6066  1.8314
  386MOL0     H53266   8.431   7.067   9.527 -0.4972  0.2080 -1.2267
  386MOL0     H53267   8.510   6.972   9.657  0.8225  1.4675 -0.6292
  386MOL0     H53268   8.581   6.987   9.490 -0.0572  1.5898  0.4315
  387MOL0     O53269   5.690   9.004   6.483 -0.3880 -0.3869  0.6904
  387MOL0     C53270   5.763   9.087   6.533 -0.8908 -0.0464 -0.3742
  387MOL0     O53271   5.720   9.176   6.633  0.0436  0.0670  0.7993
  387MOL0     C53272   5.585   9.176   6.670 -0.7744 -0.3701 -0.5841
  387MOL0     C53273   5.554   9.168   6.809  0.2035 -0.0554  0.5727
  387MOL0     C53274   5.420   9.175   6.852 -0.8842 -0.0431  0.5989
  387MOL0     C53275   5.319   9.199   6.758  0.2719  0.4078 -0.0793
  387MOL0     O53276   5.190   9.204   6.811 -0.6153 -0.6444  0.5351
  387MOL0     C53277   5.077   9.216   6.725  0.1126 -0.1655 -0.5956
  387MOL0     C53278   4.960   9.142   6.795 -0.3682  0.4108  0.3071
  387MOL0     C53279   4.839   9.122   6.702 -0.0060 -0.7628  0.4754
  387MOL0     C53280   4.746   9.011   6.751  0.2006 -0.6989 -0.0218
  387MOL0     C53281   4.600   9.028   6.694  0.0265  0.3158  0.4045
  387MOL0     C53282   4.512   8.904   6.715 -0.0966 -0.0579 -0.3630
  387MOL0     C53283   4.381   8.921   6.647  0.5683 -0.1082  1.0067
  387MOL0     C53284   4.285   8.807   6.666  0.8663  0.9146 -0.3443
  387MOL0     N53285   4.245   8.795   6.807 -0.1497 -0.9431  1.0239
  387MOL0     C53286   4.119   8.849   6.842  0.0133 -0.0793  0.8030
  387MOL0     C53287   4.124   8.842   6.979 -0.4952 -0.8194  0.4324
  387MOL0     C53288   4.028   8.897   7.083  0.1643 -0.3871  0.8188
  387MOL0     C53289   3.894   8.833   7.081  0.1881 -0.0863 -0.7654
  387MOL0     C53290   3.875   8.697   7.128  1.1031 -0.4673  0.7981
  387MOL0     C53291   3.739   8.638   7.091 -0.1828 -0.5900 -0.3892
  387MOL0     O53292   3.730   8.584   6.956  0.3274  0.2202 -0.8374
  387MOL0     C53293   3.639   8.635   6.868  0.0933  0.1477  0.7558
  387MOL0     C53294   3.680   8.717   6.765 -0.1188  0.4342 -0.7724
  387MOL0     C53295   3.601   8.770   6.671  0.8707 -0.5032 -1.1269
  387MOL0     C53296   3.663   8.860   6.567 -0.4752  0.3968  0.5672
  387MOL0     C53297   3.461   8.726   6.668 -0.1616  0.4176  0.7605
  387MOL0     C53298   3.365   8.763   6.556 -0.4157  0.4131  0.8444
  387MOL0     O53299   3.261   8.686   6.552  0.6046  0.0543 -0.4980
  387MOL0     C53300   3.166   8.696   6.452  0.1409 -0.6382 -1.2943
  387MOL0     C53301   3.197   8.695   6.315  0.6941 -0.3746 -0.3797
  387MOL0     C53302   3.094   8.675   6.222  0.0685 -0.1482 -0.6147
  387MOL0     C53303   2.961   8.669   6.252  0.8898  0.5139  0.8700
  387MOL0     O53304   2.867   8.665   6.150 -0.4640  0.4541 -0.2353
  387MOL0     C53305   2.850   8.789   6.080  0.2360 -0.0127  0.1080
  387MOL0     C53306   2.745   8.776   5.975 -0.2388 -0.0065  0.0624
  387MOL0     C53307   2.601   8.741   6.019 -0.1944  0.1494 -0.1707
  387MOL0     C53308   2.520   8.670   5.913  0.2714  0.9032 -0.0603
  387MOL0     C53309   2.378   8.632   5.954  0.1193  0.5783  0.0012
  387MOL0     C53310   2.272   8.748   5.967 -0.3651 -0.3533  0.4715
  387MOL0     C53311   2.128   8.690   5.972  0.2141 -0.5632  0.0488
  387MOL0     C53312   2.011   8.794   5.966  0.0767 -0.1174  0.8387
  387MOL0    Cl53313   2.022   8.899   5.825  0.4218  0.0980  0.0338
  387MOL0     C53314   2.924   8.675   6.389 -0.0485  0.0821 -0.4097
  387MOL0     C53315   3.026   8.691   6.487  0.1807  0.4391  0.1926
  387MOL0     O53316   3.400   8.836   6.462  0.2892  0.8806 -0.3461
  387MOL0     C53317   3.414   8.644   6.772 -0.3962 -0.5971  0.3920
  387MOL0     C53318   3.506   8.594   6.867  0.5545 -0.3448  0.9473
  387MOL0     N53319   4.244   8.789   7.022 -0.4487 -0.5245 -0.2971
  387MOL0     N53320   4.310   8.748   6.916  0.8361  0.8938 -0.9411
  387MOL0     C53321   5.350   9.218   6.620  0.2322  0.6708 -0.1818
  387MOL0     C53322   5.484   9.204   6.584  0.5224  0.3322 -0.6698
  387MOL0     C53323   5.908   9.086   6.495 -0.6536  0.8475 -0.0067
  387MOL0     C53324   5.935   9.038   6.361  1.0629 -0.0634 -0.0125
  387MOL0     C53325   6.069   9.054   6.324  0.6392  0.4400  0.1688
  387MOL0     C53326   6.172   9.106   6.400  0.6938 -0.4500 -0.6318
  387MOL0     O53327   6.302   9.101   6.359  0.8705 -0.1465 -0.2800
  387MOL0     C53328   6.328   9.037   6.231  0.6361  0.8035  0.0704
  387MOL0     C53329   6.482   9.048   6.202 -0.1348 -0.4944  0.9010
  387MOL0     C53330   6.519   8.921   6.114 -0.6190 -0.3660  0.4835
  387MOL0     C53331   6.674   8.899   6.100  0.2366 -0.3904 -0.4541
  387MOL0     C53332   6.710   8.763   6.063 -0.3704 -0.4368  1.0569
  387MOL0     C53333   6.737   8.648   6.044  0.5922  0.7607  0.9028
  387MOL0     C53334   6.141   9.154   6.526 -0.4128 -0.1952 -0.2816
  387MOL0     C53335   6.010   9.153   6.576  0.0788  0.4618 -0.2834
  387MOL0     C53336   5.988   9.206   6.722  0.2301 -0.3598  0.2329
  387MOL0     H53337   5.631   9.173   6.886 -0.3576  0.3197  1.1167
  387MOL0     H53338   5.392   9.163   6.956  0.8637  3.1542  1.5786
  387MOL0     H53339   5.101   9.162   6.632  1.7496  0.0464 -0.3230
  387MOL0     H53340   5.047   9.319   6.705 -0.0018 -0.0252  0.2900
  387MOL0     H53341   4.994   9.046   6.836  0.4121  0.9612  0.9648
  387MOL0     H53342   4.930   9.203   6.881  0.7459  0.1401  0.9035
  387MOL0     H53343   4.785   9.217   6.692 -0.3634 -1.2200 -4.3268
  387MOL0     H53344   4.885   9.105   6.605  1.9300  0.2799  1.1561
  387MOL0     H53345   4.789   8.919   6.711  1.4232 -0.1307 -0.0516
  387MOL0     H53346   4.749   9.007   6.860  0.2907  0.0447  0.0064
  387MOL0     H53347   4.612   9.038   6.586  2.0456  0.8949  0.6442
  387MOL0     H53348   4.550   9.121   6.724 -0.8559 -0.3266  0.9925
  387MOL0     H53349   4.559   8.818   6.668  1.4622 -0.1797  1.3019
  387MOL0     H53350   4.497   8.885   6.822  0.1350  1.3877 -0.0494
  387MOL0     H53351   4.404   8.925   6.540  1.7263  1.6915  1.2699
  387MOL0     H53352   4.335   9.015   6.678  3.6330  1.3925  1.4383
  387MOL0     H53353   4.199   8.818   6.599 -0.5266  1.6824  1.4788
  387MOL0     H53354   4.335   8.712   6.646 -0.5034 -0.6361  2.8339
  387MOL0     H53355   4.033   8.885   6.787 -0.5172  0.2519  1.8171
  387MOL0     H53356   4.015   9.005   7.076 -1.8620 -0.3671  3.3102
  387MOL0     H53357   4.077   8.898   7.181  1.2346 -1.9754  0.3361
  387MOL0     H53358   3.829   8.900   7.138 -0.7255 -0.6517 -1.1235
  387MOL0     H53359   3.866   8.849   6.977  1.0675 -0.3414 -1.0524
  387MOL0     H53360   3.943   8.624   7.084 -1.4887 -1.4239 -2.0654
  387MOL0     H53361   3.879   8.695   7.237 -0.7851  0.5583  0.9391
  387MOL0     H53362   3.724   8.551   7.156 -5.4947 -1.9252 -2.8927
  387MOL0     H53363   3.657   8.710   7.100  0.5005  0.3562 -1.5747
  387MOL0     H53364   3.782   8.753   6.770 -0.6431  1.7811  1.9371
  387MOL0     H53365   3.627   8.963   6.560 -2.9797 -0.4896 -1.3826
  387MOL0     H53366   3.619   8.822   6.474 -1.8724 -0.5249  1.5665
  387MOL0     H53367   3.770   8.843   6.559 -0.6309 -1.3603  1.7537
  387MOL0     H53368   3.298   8.703   6.276  0.5247  1.0129 -0.5584
  387MOL0     H53369   3.119   8.683   6.117  1.4024  2.8508 -0.1891
  387MOL0     H53370   2.841   8.872   6.152  0.5517  0.9925 -0.9802
  387MOL0     H53371   2.942   8.806   6.024  0.6981 -1.4418  0.3987
  387MOL0     H53372   2.739   8.868   5.916 -1.7414 -1.1102 -1.6189
  387MOL0     H53373   2.776   8.694   5.909  0.6353  0.0487  0.3869
  387MOL0     H53374   2.551   8.835   6.046 -0.5624 -0.1356  0.1511
  387MOL0     H53375   2.606   8.671   6.103  0.8836  0.2503 -0.1288
  387MOL0     H53376   2.572   8.579   5.880  1.4959  1.0190  1.4278
  387MOL0     H53377   2.512   8.731   5.823 -0.0289 -1.3628 -1.6837
  387MOL0     H53378   2.340   8.558   5.883  3.9218 -1.5219 -0.1076
  387MOL0     H53379   2.377   8.582   6.051 -2.7138 -1.1397 -0.7827
  387MOL0     H53380   2.294   8.815   5.883  3.2320 -3.2554 -1.1491
  387MOL0     H53381   2.286   8.810   6.057  0.2736 -1.6247  1.2737
  387MOL0     H53382   2.114   8.623   6.058 -1.4397  0.4697  0.6197
  387MOL0     H53383   2.116   8.627   5.883 -2.2839  2.6310 -2.0978
  387MOL0     H53384   1.994   8.844   6.062  0.1570  1.1410  0.2227
  387MOL0     H53385   1.920   8.734   5.955  1.7035 -2.9407  1.6587
  387MOL0     H53386   2.821   8.664   6.420 -0.0011  1.1437  0.1384
  387MOL0     H53387   3.008   8.695   6.594  1.5869  1.4429  0.4175
  387MOL0     H53388   3.307   8.631   6.778 -0.8151  1.6710 -0.8916
  387MOL0     H53389   3.465   8.532   6.946  0.5720 -0.8246  0.5874
  387MOL0     H53390   5.266   9.247   6.557 -3.1612  1.6934  4.2812
  387MOL0     H53391   5.505   9.213   6.477 -1.4093  5.7283 -0.9061
  387MOL0     H53392   5.862   9.007   6.287 -1.1548  0.4567  1.8352
  387MOL0     H53393   6.089   9.019   6.223  1.2417  0.8488  0.1410
  387MOL0     H53394   6.303   8.931   6.221  0.8762  0.7862 -0.3806
  387MOL0     H53395   6.281   9.094   6.150 -1.0684 -0.4704  0.0985
  387MOL0     H53396   6.544   9.043   6.292 -0.1040  0.2213  0.9247
  387MOL0     H53397   6.489   9.139   6.142 -0.2369  0.1309  1.8156
  387MOL0     H53398   6.477   8.829   6.156  0.0289 -2.3605 -2.9060
  387MOL0     H53399   6.476   8.935   6.015  1.3907 -1.1587 -0.5568
  387MOL0     H53400   6.723   8.916   6.196 -1.0433 -0.8624  0.3133
  387MOL0     H53401   6.727   8.972   6.038  2.8644 -2.0381 -0.2754
  387MOL0     H53402   6.758   8.544   6.026  1.9058  1.3947 -1.7030
  387MOL0     H53403   6.225   9.195   6.582 -1.1404  0.1318  0.6052
  387MOL0     H53404   5.934   9.129   6.777  1.2301 -0.9961  0.3567
  387MOL0     H53405   6.074   9.232   6.785 -0.6942  2.3235  0.5265
  387MOL0     H53406   5.937   9.303   6.716 -1.3510 -0.9570  2.6812
  388MOL0     O53407   3.159   6.009   1.297 -0.0531  0.0850 -0.1876
  388MOL0     C53408   3.093   5.975   1.391 -0.4389  0.3093  0.5538
  388MOL0     O53409   3.021   6.041   1.486 -0.5183 -0.2489  0.9647
  388MOL0     C53410   3.036   6.179   1.508 -0.4745  0.4122 -0.1274
  388MOL0     C53411   3.081   6.272   1.415  0.6007  0.5180  0.2252
  388MOL0     C53412   3.077   6.408   1.455 -0.5493  0.7243  0.8623
  388MOL0     C53413   3.035   6.447   1.579  0.4652 -0.1091 -0.8249
  388MOL0     O53414   3.038   6.589   1.599  0.1456  0.4629  0.2834
  388MOL0     C53415   2.965   6.638   1.711 -0.4515 -0.4232 -0.0070
  388MOL0     C53416   2.943   6.788   1.693 -0.4459  0.3279 -0.0244
  388MOL0     C53417   3.073   6.872   1.672 -0.5941  0.5895  0.5124
  388MOL0     C53418   3.055   7.025   1.653 -0.1738 -0.2516 -0.0420
  388MOL0     C53419   3.189   7.098   1.638  0.4441 -0.8557 -0.9923
  388MOL0     C53420   3.261   7.073   1.500  0.0462 -0.0868 -0.0879
  388MOL0     C53421   3.203   7.177   1.399 -0.5410  0.1411 -0.4280
  388MOL0     C53422   3.277   7.172   1.261 -0.3516 -0.3576  1.2212
  388MOL0     N53423   3.421   7.182   1.261  0.3990 -0.0146  0.1326
  388MOL0     C53424   3.488   7.306   1.244  0.8458 -0.1163  0.8195
  388MOL0     C53425   3.616   7.281   1.278  1.2126 -0.7350 -0.6449
  388MOL0     C53426   3.734   7.380   1.258  0.0817  0.5453 -0.4213
  388MOL0     C53427   3.851   7.305   1.203  0.0622  0.3066 -0.3957
  388MOL0     C53428   3.974   7.397   1.215  1.1732  0.3621 -0.1555
  388MOL0     C53429   4.094   7.322   1.157 -0.1558 -0.3247  0.4034
  388MOL0     O53430   4.211   7.406   1.172 -0.0775  0.6337 -0.1755
  388MOL0     C53431   4.336   7.359   1.124 -0.1728  0.0687  0.8225
  388MOL0     C53432   4.354   7.240   1.048  0.0813 -1.0364 -0.1050
  388MOL0     C53433   4.478   7.210   1.003  0.0405 -0.7814  0.1984
  388MOL0     C53434   4.481   7.098   0.901 -0.2499  0.0169  1.2353
  388MOL0     C53435   4.588   7.287   1.038 -0.7057 -0.2010 -0.1991
  388MOL0     C53436   4.719   7.263   0.977  0.6321  0.0878  0.1547
  388MOL0     O53437   4.805   7.372   0.975  0.1989  0.3642  0.5108
  388MOL0     C53438   4.933   7.345   0.948 -0.6835  0.8069 -0.1054
  388MOL0     C53439   5.027   7.320   1.056 -0.3474  0.1800 -0.1074
  388MOL0     C53440   5.161   7.282   1.030 -0.0822 -0.5591 -0.1057
  388MOL0     C53441   5.196   7.271   0.892  0.4341 -0.2284  0.1590
  388MOL0     O53442   5.327   7.232   0.870  0.3637  0.0334 -0.1515
  388MOL0     C53443   5.344   7.143   0.759  0.0998  0.0860 -0.1261
  388MOL0     C53444   5.488   7.098   0.779 -0.3832 -0.2133 -0.8615
  388MOL0     C53445   5.513   6.995   0.891 -0.6067  0.4854 -0.5371
  388MOL0     C53446   5.657   6.941   0.888 -0.1396 -0.5737 -0.3600
  388MOL0     C53447   5.698   6.867   1.024  0.4354 -0.0565  0.5678
  388MOL0     C53448   5.831   6.795   1.026  1.0336 -0.6141  0.1284
  388MOL0     C53449   5.955   6.888   1.014 -0.7797  0.3171  0.3918
  388MOL0     C53450   6.076   6.807   0.973  0.2588  0.1880  0.0803
  388MOL0    Cl53451   6.110   6.685   1.089 -0.3096 -0.1688  0.2340
  388MOL0     C53452   5.108   7.301   0.794  0.0094  0.0800 -0.2888
  388MOL0     C53453   4.974   7.327   0.820  0.5426  0.0105  0.2571
  388MOL0     O53454   4.753   7.149   0.946  0.2141 -1.0660 -0.3429
  388MOL0     C53455   4.572   7.398   1.118  0.2196 -0.2218 -0.0200
  388MOL0     C53456   4.444   7.429   1.170  0.0198  0.4375  0.3175
  388MOL0     N53457   3.616   7.153   1.332 -0.5008 -0.3258  0.1868
  388MOL0     N53458   3.506   7.087   1.300 -0.5218  0.1587  0.1429
  388MOL0     C53459   2.997   6.355   1.676 -0.4889  0.4849 -0.2269
  388MOL0     C53460   2.997   6.216   1.638 -0.1233  0.1158 -0.4600
  388MOL0     C53461   3.057   5.833   1.391  0.7112  0.0243 -0.3923
  388MOL0     C53462   3.062   5.768   1.518  0.1190  0.0979 -0.5794
  388MOL0     C53463   3.034   5.636   1.541 -0.2673 -0.4011 -0.0676
  388MOL0     C53464   3.000   5.558   1.427  0.5746 -0.7459 -0.0071
  388MOL0     O53465   2.981   5.431   1.445 -0.1134  0.4495 -0.5204
  388MOL0     C53466   2.984   5.344   1.332  0.5196  1.1139  0.1156
  388MOL0     C53467   3.003   5.207   1.382  0.1970 -0.0956 -0.4158
  388MOL0     C53468   3.002   5.099   1.278  0.5888 -0.3394  0.1696
  388MOL0     C53469   2.980   4.962   1.335 -0.2571 -0.6484 -0.3142
  388MOL0     C53470   2.957   4.859   1.233  0.3182  0.9523 -0.5962
  388MOL0     C53471   2.956   4.772   1.142 -0.6293 -1.0487 -0.1781
  388MOL0     C53472   3.002   5.620   1.300 -0.0726 -0.5004 -0.2990
  388MOL0     C53473   3.025   5.755   1.287  0.2828  0.5203  1.0315
  388MOL0     C53474   3.035   5.805   1.146  0.5781  0.2378  0.2183
  388MOL0     H53475   3.102   6.239   1.314 -1.1721  2.8857 -1.0386
  388MOL0     H53476   3.120   6.481   1.386  0.2907 -0.4361  0.1257
  388MOL0     H53477   3.022   6.630   1.804  3.7393 -0.6048 -2.3176
  388MOL0     H53478   2.871   6.582   1.713 -0.7724  0.0943 -0.4336
  388MOL0     H53479   2.871   6.818   1.616 -0.8213 -1.4635 -0.3962
  388MOL0     H53480   2.893   6.823   1.785 -0.2866 -0.7741  0.4977
  388MOL0     H53481   3.143   6.843   1.751  2.0323  0.9349 -1.5655
  388MOL0     H53482   3.110   6.826   1.580 -5.1650 -1.1670 -0.7405
  388MOL0     H53483   2.995   7.041   1.562  0.2879 -1.1318 -0.5070
  388MOL0     H53484   3.001   7.063   1.740 -0.4660 -1.9409  0.5406
  388MOL0     H53485   3.252   7.056   1.717  1.4974  0.2094 -1.2320
  388MOL0     H53486   3.171   7.205   1.649  0.2864 -0.9974  0.3369
  388MOL0     H53487   3.365   7.104   1.509 -0.0646 -0.3037  2.9149
  388MOL0     H53488   3.247   6.970   1.467 -2.4255 -0.1340  0.8616
  388MOL0     H53489   3.220   7.279   1.436 -2.1294 -0.6780  2.8657
  388MOL0     H53490   3.098   7.148   1.393 -0.5647 -0.6880  2.5971
  388MOL0     H53491   3.250   7.081   1.207  1.1305  0.8665 -1.8159
  388MOL0     H53492   3.234   7.255   1.203  0.3776 -0.4026  0.6114
  388MOL0     H53493   3.454   7.404   1.211 -1.3209 -0.6873  1.1974
  388MOL0     H53494   3.755   7.422   1.357 -0.7248  0.4174 -0.1878
  388MOL0     H53495   3.705   7.461   1.190 -0.2105 -2.0416 -3.6089
  388MOL0     H53496   3.875   7.217   1.264 -2.1918  0.1787  0.3987
  388MOL0     H53497   3.822   7.262   1.107 -0.3258  3.2491 -1.6896
  388MOL0     H53498   3.955   7.491   1.162  2.2055  0.6632 -0.0053
  388MOL0     H53499   3.987   7.428   1.320  1.4579  0.3941 -0.2002
  388MOL0     H53500   4.110   7.224   1.202 -1.7042 -0.6244  0.3414
  388MOL0     H53501   4.076   7.304   1.051 -1.0873 -0.3718  0.5595
  388MOL0     H53502   4.265   7.190   1.011  0.4452  1.0391 -4.4021
  388MOL0     H53503   4.395   7.107   0.834  2.4399 -1.9498 -2.9237
  388MOL0     H53504   4.480   6.998   0.945 -0.6242 -1.3880 -1.7107
  388MOL0     H53505   4.562   7.115   0.830  0.9761 -0.0390  2.5781
  388MOL0     H53506   4.997   7.352   1.156  1.1802  1.8064 -0.1166
  388MOL0     H53507   5.241   7.269   1.102  1.2289  0.8172 -1.2323
  388MOL0     H53508   5.267   7.066   0.766 -1.6921  1.9480  2.0113
  388MOL0     H53509   5.332   7.196   0.663 -1.3903  0.6539  0.3413
  388MOL0     H53510   5.509   7.065   0.677 -1.1816 -1.2758 -0.6930
  388MOL0     H53511   5.552   7.181   0.809 -2.2415  0.6183  1.1008
  388MOL0     H53512   5.446   6.910   0.877 -3.9814  2.7126  0.5859
  388MOL0     H53513   5.480   7.034   0.988  1.7634 -0.9018  0.9028
  388MOL0     H53514   5.724   7.024   0.862  2.8145 -2.0895  1.8150
  388MOL0     H53515   5.671   6.862   0.813  2.4619 -1.8709  1.3481
  388MOL0     H53516   5.704   6.942   1.104  1.0190  0.0057  0.4768
  388MOL0     H53517   5.617   6.798   1.048  0.9949 -0.7433  0.5292
  388MOL0     H53518   5.834   6.725   0.942  2.3046  3.3943 -3.5544
  388MOL0     H53519   5.838   6.743   1.122  1.9123  0.3426  0.6109
  388MOL0     H53520   5.989   6.937   1.105 -1.4347 -0.4022  1.0467
  388MOL0     H53521   5.941   6.967   0.939  0.6660  1.9471  1.7851
  388MOL0     H53522   6.161   6.875   0.989  0.4830 -0.0660 -0.0320
  388MOL0     H53523   6.064   6.766   0.873  2.3630 -0.7071  0.1370
  388MOL0     H53524   5.128   7.281   0.689  2.2104 -2.0245  0.4450
  388MOL0     H53525   4.895   7.336   0.746  0.0192  0.1353  0.8218
  388MOL0     H53526   4.657   7.458   1.149  0.8239 -1.5647  1.0587
  388MOL0     H53527   4.442   7.516   1.235  3.0214  1.7553 -1.1858
  388MOL0     H53528   2.971   6.381   1.778  1.9018 -2.3482  1.2534
  388MOL0     H53529   2.951   6.149   1.710 -0.1394 -0.4371 -0.9732
  388MOL0     H53530   3.076   5.835   1.602  0.7472  1.4945 -1.7479
  388MOL0     H53531   3.031   5.592   1.640 -0.5139  0.4431  0.3104
  388MOL0     H53532   2.890   5.344   1.277  1.3450 -1.0538 -1.4379
  388MOL0     H53533   3.067   5.369   1.266  1.6733 -0.3326  0.9506
  388MOL0     H53534   2.926   5.182   1.455 -0.2231  1.3407 -0.3289
  388MOL0     H53535   3.097   5.204   1.439 -0.2921 -1.6506  0.3486
  388MOL0     H53536   2.912   5.112   1.218  0.9684  0.0145 -0.3306
  388MOL0     H53537   3.091   5.103   1.215  0.4393 -0.0144 -0.0216
  388MOL0     H53538   2.904   4.963   1.414  2.3515 -1.1503  2.4001
  388MOL0     H53539   3.069   4.925   1.386 -1.4441 -0.8059  1.7693
  388MOL0     H53540   2.958   4.704   1.060 -0.7177  0.9505 -1.9268
  388MOL0     H53541   2.977   5.554   1.218 -0.5512 -1.0288  0.2621
  388MOL0     H53542   2.984   5.732   1.083 -1.6133  2.9361 -1.3452
  388MOL0     H53543   2.980   5.899   1.151 -2.9379 -1.5862 -0.6312
  388MOL0     H53544   3.136   5.818   1.108  0.8965 -1.2973  0.4605
  389MOL0     O53545   1.428   0.712   3.680  0.2532 -0.9372 -0.1562
  389MOL0     C53546   1.455   0.612   3.748 -0.6552  0.5645 -0.3254
  389MOL0     O53547   1.582   0.554   3.751  0.2607  0.7163 -0.2254
  389MOL0     C53548   1.672   0.620   3.673 -0.9327 -0.5497  0.1343
  389MOL0     C53549   1.714   0.562   3.548  0.0845  0.0187  0.6210
  389MOL0     C53550   1.816   0.628   3.474 -0.6540 -1.0057 -0.8508
  389MOL0     C53551   1.865   0.753   3.512 -0.8568  0.2989  0.1573
  389MOL0     O53552   1.974   0.800   3.446 -0.1357  0.1963 -0.0210
  389MOL0     C53553   2.018   0.936   3.454  1.3878  0.2752 -0.3108
  389MOL0     C53554   2.122   0.955   3.344  0.6041 -0.4091  0.0225
  389MOL0     C53555   2.249   0.864   3.360  0.5142 -0.2943 -0.2933
  389MOL0     C53556   2.327   0.877   3.226  0.1238  0.0121 -0.0087
  389MOL0     C53557   2.470   0.862   3.262  0.4081  0.1980 -0.0734
  389MOL0     C53558   2.557   0.880   3.136  0.1794 -0.7126 -0.8880
  389MOL0     C53559   2.696   0.841   3.168 -1.6625  0.4488 -0.8180
  389MOL0     C53560   2.799   0.888   3.067  0.6162  0.3078  0.2992
  389MOL0     N53561   2.932   0.843   3.104  0.4371  0.1282 -0.4749
  389MOL0     C53562   2.998   0.887   3.209  0.2297  0.3908 -0.0758
  389MOL0     C53563   3.108   0.814   3.220  0.0363 -0.7276  0.2359
  389MOL0     C53564   3.222   0.845   3.313 -0.0652  0.6684 -0.3899
  389MOL0     C53565   3.301   0.730   3.372  0.6188  0.0583 -0.0035
  389MOL0     C53566   3.433   0.767   3.445  0.3329  0.2705 -0.7531
  389MOL0     C53567   3.524   0.648   3.463 -0.5266 -1.6968 -0.9066
  389MOL0     O53568   3.662   0.686   3.462  0.1506 -0.0790 -0.0153
  389MOL0     C53569   3.753   0.584   3.479  0.7820 -0.5156  0.4135
  389MOL0     C53570   3.718   0.452   3.505 -0.3569  1.4582 -0.6439
  389MOL0     C53571   3.813   0.349   3.522 -0.6325  0.2818 -0.2619
  389MOL0     C53572   3.772   0.210   3.551 -0.3124 -0.1370 -0.0351
  389MOL0     C53573   3.947   0.383   3.510 -2.0805 -0.4662 -0.4014
  389MOL0     C53574   4.059   0.283   3.517  0.2111 -0.0597  0.4587
  389MOL0     O53575   4.141   0.315   3.626  0.3103 -0.9000 -0.2455
  389MOL0     C53576   4.266   0.256   3.626  0.1182  0.4691 -0.1905
  389MOL0     C53577   4.283   0.119   3.658 -0.0014 -0.2543 -0.6180
  389MOL0     C53578   4.413   0.062   3.658 -0.4049  0.5607 -0.1186
  389MOL0     C53579   4.525   0.133   3.621 -0.1275 -0.7985  0.2798
  389MOL0     O53580   4.659   0.098   3.627  0.0205  0.6025  0.2039
  389MOL0     C53581   4.689  -0.038   3.658 -1.1053 -0.1705 -0.6374
  389MOL0     C53582   4.819  -0.081   3.592 -0.1833  0.2789 -0.4227
  389MOL0     C53583   4.928   0.028   3.601  0.2235 -0.1554  0.2821
  389MOL0     C53584   5.056  -0.011   3.541 -0.2342 -0.2220 -0.1642
  389MOL0     C53585   5.177   0.076   3.572 -0.4254  0.4309 -0.2086
  389MOL0     C53586   5.301   0.050   3.494 -0.3181  0.2497 -0.3351
  389MOL0     C53587   5.360  -0.092   3.502  0.1691  0.6704  0.6023
  389MOL0     C53588   5.505  -0.101   3.440 -0.0261 -1.7158 -0.3130
  389MOL0    Cl53589   5.515  -0.029   3.272 -0.0797  0.3073 -0.0304
  389MOL0     C53590   4.510   0.271   3.598 -0.2100  0.1895  0.4027
  389MOL0     C53591   4.381   0.327   3.590  0.0353  0.4771  0.2776
  389MOL0     O53592   4.075   0.196   3.427  0.0291  0.2155  0.5644
  389MOL0     C53593   3.987   0.518   3.496  0.1280 -0.7465 -0.0293
  389MOL0     C53594   3.883   0.614   3.476  0.4710 -0.0290  0.4083
  389MOL0     N53595   3.106   0.716   3.124  0.2955  0.6452 -0.2728
  389MOL0     N53596   2.996   0.734   3.064  0.4159  0.8000 -0.4385
  389MOL0     C53597   1.810   0.825   3.620  1.0754  0.1412  0.6156
  389MOL0     C53598   1.716   0.751   3.702  1.1487 -0.8557  0.1237
  389MOL0     C53599   1.346   0.524   3.808 -0.4044  0.1752 -0.1165
  389MOL0     C53600   1.377   0.409   3.882  0.7120  1.0899 -0.7118
  389MOL0     C53601   1.278   0.338   3.950  0.1011  1.3035  0.2932
  389MOL0     C53602   1.145   0.370   3.936  0.1465 -0.4165  0.8078
  389MOL0     O53603   1.038   0.296   3.978  0.5954  0.2580  0.2040
  389MOL0     C53604   1.055   0.179   4.058  0.2386  0.4997  0.4609
  389MOL0     C53605   1.101   0.066   3.970  0.0138  0.1153  0.4013
  389MOL0     C53606   1.016   0.047   3.846  0.1818 -0.7534 -0.1185
  389MOL0     C53607   1.078  -0.060   3.759 -0.0549 -0.7071  0.3534
  389MOL0     C53608   1.198  -0.021   3.696 -0.0961 -0.6212 -0.9555
  389MOL0     C53609   1.291   0.028   3.641  0.1584  0.6062 -0.4376
  389MOL0     C53610   1.113   0.483   3.859  0.7728 -0.6726  0.0718
  389MOL0     C53611   1.207   0.565   3.802 -0.3467 -0.2238 -0.1933
  389MOL0     C53612   1.164   0.698   3.745  0.0650 -0.3413  0.1268
  389MOL0     H53613   1.674   0.469   3.509 -2.8054  1.8283 -1.0788
  389MOL0     H53614   1.862   0.583   3.387  2.7734  0.0766  0.2570
  389MOL0     H53615   2.049   0.962   3.556  0.3954  1.8040 -0.3718
  389MOL0     H53616   1.934   1.005   3.437 -0.8166 -1.7982  1.5417
  389MOL0     H53617   2.079   0.908   3.255  1.0797  1.4163 -1.2453
  389MOL0     H53618   2.134   1.058   3.309  1.0441 -0.1577  0.9037
  389MOL0     H53619   2.303   0.900   3.448 -3.0457 -0.1550  2.0195
  389MOL0     H53620   2.227   0.757   3.372 -0.6526 -0.1917 -1.3450
  389MOL0     H53621   2.298   0.807   3.147  3.2540  0.2616 -1.5324
  389MOL0     H53622   2.308   0.975   3.184 -1.8460 -1.3152 -2.4371
  389MOL0     H53623   2.481   0.761   3.304 -2.6192 -0.3638 -0.4008
  389MOL0     H53624   2.504   0.931   3.339  1.5916  0.6386 -0.9567
  389MOL0     H53625   2.517   0.814   3.059 -3.0927 -1.6001  1.3516
  389MOL0     H53626   2.560   0.985   3.106  2.4587 -1.7183 -4.9050
  389MOL0     H53627   2.696   0.732   3.173 -2.1134  0.4478 -0.8012
  389MOL0     H53628   2.717   0.867   3.272 -1.2604 -0.4077 -0.6766
  389MOL0     H53629   2.761   0.875   2.965  1.0013  1.7576 -0.0453
  389MOL0     H53630   2.805   0.997   3.069 -0.0078  0.3715 -0.6956
  389MOL0     H53631   2.969   0.973   3.269  0.1299 -1.3831  2.6064
  389MOL0     H53632   3.181   0.888   3.406  0.3091 -2.7216  1.4914
  389MOL0     H53633   3.285   0.917   3.260 -0.0034 -0.6250 -2.1670
  389MOL0     H53634   3.242   0.666   3.438  1.2166 -1.1077 -0.5658
  389MOL0     H53635   3.328   0.676   3.281  0.0270  2.1182 -1.4683
  389MOL0     H53636   3.491   0.844   3.395 -1.6219  1.1505 -1.7823
  389MOL0     H53637   3.395   0.807   3.539  0.7825 -1.0629  0.0287
  389MOL0     H53638   3.496   0.617   3.564 -2.9376  1.5490 -0.3981
  389MOL0     H53639   3.495   0.581   3.382 -0.8521 -1.4798 -0.9725
  389MOL0     H53640   3.616   0.420   3.521  0.0487  0.0346 -0.7945
  389MOL0     H53641   3.666   0.199   3.527  0.0702 -0.8873 -1.4437
  389MOL0     H53642   3.781   0.188   3.658 -0.6976 -0.5773 -0.0891
  389MOL0     H53643   3.832   0.136   3.497 -0.0806 -1.1020  1.4737
  389MOL0     H53644   4.202   0.047   3.672  0.3670 -0.3824  1.0443
  389MOL0     H53645   4.415  -0.045   3.678  0.5254  0.7948  1.1971
  389MOL0     H53646   4.704  -0.043   3.766  1.0783  0.0761 -0.8906
  389MOL0     H53647   4.625  -0.110   3.607  1.7788 -3.3942  0.0034
  389MOL0     H53648   4.862  -0.175   3.631 -0.2207  0.2938 -0.3455
  389MOL0     H53649   4.797  -0.099   3.487  1.9721  0.8593 -1.0122
  389MOL0     H53650   4.940   0.063   3.704  0.1382  0.6395  0.0240
  389MOL0     H53651   4.892   0.110   3.539 -1.1548 -1.2421 -0.4278
  389MOL0     H53652   5.039  -0.016   3.433 -0.2188 -1.8350 -0.1249
  389MOL0     H53653   5.071  -0.114   3.575  0.9612  0.3841  1.2502
  389MOL0     H53654   5.142   0.179   3.568 -1.4545  0.1468  0.8520
  389MOL0     H53655   5.201   0.065   3.678  0.8653  0.5606 -0.4666
  389MOL0     H53656   5.380   0.119   3.526 -0.3884 -0.6834  2.0845
  389MOL0     H53657   5.281   0.072   3.389 -0.5871 -0.2814 -0.3969
  389MOL0     H53658   5.299  -0.170   3.455 -0.0416 -1.1009  3.5449
  389MOL0     H53659   5.359  -0.123   3.607 -1.2333  2.9899  1.3465
  389MOL0     H53660   5.531  -0.206   3.426 -1.5010 -1.8349 -2.8766
  389MOL0     H53661   5.572  -0.056   3.514  1.1397 -4.2161  0.2774
  389MOL0     H53662   4.598   0.322   3.560  0.5718 -2.0446 -0.9704
  389MOL0     H53663   4.369   0.425   3.545  0.9034 -0.1440 -1.3846
  389MOL0     H53664   4.089   0.552   3.484 -0.4098  2.6594  3.2109
  389MOL0     H53665   3.903   0.719   3.453 -2.4155  0.5156  0.0120
  389MOL0     H53666   1.844   0.924   3.647  0.9570  0.9093 -1.7918
  389MOL0     H53667   1.678   0.805   3.788 -1.1788 -0.5983 -1.0010
  389MOL0     H53668   1.480   0.375   3.883  0.3822  0.0816 -0.5128
  389MOL0     H53669   1.319   0.253   4.004 -0.0675 -0.5047 -2.2320
  389MOL0     H53670   1.121   0.187   4.146  2.1996 -1.8400 -0.6929
  389MOL0     H53671   0.958   0.163   4.105  1.0232 -0.0155  1.9783
  389MOL0     H53672   1.087  -0.029   4.022 -1.3979 -0.3403 -0.7426
  389MOL0     H53673   1.204   0.078   3.936 -0.0123  1.6803  0.8174
  389MOL0     H53674   0.914   0.028   3.880  0.5558 -2.4943  0.1582
  389MOL0     H53675   1.015   0.139   3.787  4.3946  0.7517  1.7140
  389MOL0     H53676   1.007  -0.089   3.681 -1.9345  1.4315  1.1323
  389MOL0     H53677   1.093  -0.146   3.824  0.9895  1.0996  2.6671
  389MOL0     H53678   1.383   0.059   3.596  1.9984  1.4779  3.4849
  389MOL0     H53679   1.006   0.503   3.852  0.6650 -0.0723  2.5670
  389MOL0     H53680   1.059   0.711   3.773  0.0317 -5.3234  3.6355
  389MOL0     H53681   1.224   0.781   3.783  1.9329  0.4516 -3.9582
  389MOL0     H53682   1.179   0.710   3.637 -0.9925 -0.8869 -0.0915
  390MOL0     O53683  11.035   5.391  10.397  0.4526  0.2746 -0.8092
  390MOL0     C53684  11.109   5.302  10.429 -0.4102  1.2577 -0.1850
  390MOL0     O53685  11.231   5.273  10.374  1.2129  0.1910  0.7318
  390MOL0     C53686  11.250   5.307  10.239  0.8553 -0.4455 -0.5514
  390MOL0     C53687  11.365   5.358  10.182  0.2890 -0.9535  0.2843
  390MOL0     C53688  11.366   5.386  10.046  0.1554 -0.8109  0.1153
  390MOL0     C53689  11.263   5.356   9.965  0.1653 -0.0362 -0.0480
  390MOL0     O53690  11.276   5.379   9.837 -0.0637  0.1206 -0.0773
  390MOL0     C53691  11.336   5.505   9.796 -0.8541 -0.5483  0.0977
  390MOL0     C53692  11.307   5.514   9.643 -0.1627  0.2146  0.1117
  390MOL0     C53693  11.171   5.573   9.613 -1.0497  0.2977 -0.2447
  390MOL0     C53694  11.138   5.528   9.474  0.8306  0.4317  0.0063
  390MOL0     C53695  10.994   5.556   9.433  0.7673  0.0130  1.0576
  390MOL0     C53696  10.970   5.712   9.416 -0.3117  0.2552 -1.0346
  390MOL0     C53697  10.828   5.738   9.356 -0.4172 -1.3173 -0.1694
  390MOL0     C53698  10.839   5.749   9.196 -0.0451 -0.1309  0.1684
  390MOL0     N53699  10.871   5.621   9.133 -0.2599  0.7806 -0.1112
  390MOL0     C53700  10.994   5.583   9.082  0.5080  0.2240 -0.2669
  390MOL0     C53701  10.972   5.466   9.021 -0.0594  0.3407  0.1334
  390MOL0     C53702  11.074   5.370   8.954  0.5243 -0.7604  0.9829
  390MOL0     C53703  11.148   5.443   8.839 -0.3647 -0.0919 -0.1626
  390MOL0     C53704  11.200   5.339   8.741 -0.5709 -0.2928  0.1151
  390MOL0     C53705  11.295   5.240   8.809 -0.2129  0.5371 -0.2454
  390MOL0     O53706  11.404   5.310   8.867  0.3200  0.1488  0.4478
  390MOL0     C53707  11.534   5.320   8.814  1.1958 -0.8352  0.1327
  390MOL0     C53708  11.540   5.322   8.675 -0.1617 -0.1608  1.3139
  390MOL0     C53709  11.664   5.339   8.607  0.1087  0.0207 -0.1020
  390MOL0     C53710  11.661   5.344   8.456 -0.9051  0.1561  0.3542
  390MOL0     C53711  11.779   5.336   8.692  0.2954  0.2939  0.0271
  390MOL0     C53712  11.916   5.319   8.639  0.3784  0.1539 -0.4106
  390MOL0     O53713  12.002   5.247   8.719  0.7193 -0.3209 -0.1680
  390MOL0     C53714  12.136   5.263   8.701  0.3070 -0.4418 -0.1600
  390MOL0     C53715  12.192   5.167   8.618  0.0503  0.3163  0.2384
  390MOL0     C53716  12.328   5.180   8.594 -0.3335  0.8558  0.8033
  390MOL0     C53717  12.402   5.277   8.648 -0.3256 -0.8318  0.7227
  390MOL0     O53718  12.537   5.264   8.623  0.4002 -0.3624  0.0624
  390MOL0     C53719  12.612   5.381   8.589  0.4628  0.2439  0.1138
  390MOL0     C53720  12.758   5.341   8.562 -0.1392 -0.2470 -0.6650
  390MOL0     C53721  12.829   5.476   8.538 -0.0112  0.3234 -0.4097
  390MOL0     C53722  12.969   5.446   8.487  0.1901  0.8582 -0.0440
  390MOL0     C53723  13.068   5.550   8.487  0.5420  0.7287  0.6633
  390MOL0     C53724  13.189   5.516   8.400  0.0637 -0.2024 -0.3922
  390MOL0     C53725  13.278   5.633   8.388  1.0143 -0.5602 -0.2209
  390MOL0     C53726  13.371   5.659   8.504 -0.7487 -1.5021 -0.4148
  390MOL0    Cl53727  13.519   5.740   8.458 -0.2071 -0.2704  0.2616
  390MOL0     C53728  12.346   5.382   8.718  0.2597  0.6182 -0.7145
  390MOL0     C53729  12.213   5.371   8.745 -0.4942 -0.3515 -0.6418
  390MOL0     O53730  11.950   5.391   8.548 -0.2911 -0.7297  0.1303
  390MOL0     C53731  11.775   5.339   8.832  0.3002 -0.0121 -0.2040
  390MOL0     C53732  11.648   5.332   8.893  0.2566 -1.1438  0.3560
  390MOL0     N53733  10.842   5.432   9.028  0.9942 -1.2335 -0.1767
  390MOL0     N53734  10.775   5.531   9.097 -0.4359  0.4170  0.3706
  390MOL0     C53735  11.145   5.300  10.016  0.0969  0.2760 -0.7697
  390MOL0     C53736  11.146   5.266  10.151  0.4469 -0.4050 -0.1646
  390MOL0     C53737  11.086   5.219  10.551 -0.1834  0.2987  0.8354
  390MOL0     C53738  11.200   5.162  10.623  0.1245 -0.8806  1.3250
  390MOL0     C53739  11.187   5.096  10.744 -0.2888  0.3991  0.9585
  390MOL0     C53740  11.059   5.070  10.797 -0.6430  0.0943 -0.6341
  390MOL0     O53741  11.057   5.012  10.922  0.2873 -0.1199 -0.0341
  390MOL0     C53742  10.934   4.984  10.992 -0.0226 -0.2784 -0.4130
  390MOL0     C53743  10.932   5.038  11.134  0.4894  0.7934 -0.6879
  390MOL0     C53744  11.061   5.030  11.221 -0.2500 -0.2163 -0.2921
  390MOL0     C53745  11.037   5.101  11.354  0.4325  0.4510  0.4394
  390MOL0     C53746  11.167   5.118  11.423  0.8588  0.1089  0.2605
  390MOL0     C53747  11.278   5.134  11.471  1.0072 -0.7140 -0.4300
  390MOL0     C53748  10.952   5.118  10.725 -0.0735 -0.4315  0.0673
  390MOL0     C53749  10.959   5.187  10.603  0.0714 -0.2804 -1.0344
  390MOL0     C53750  10.828   5.228  10.546 -0.3798  0.6353  0.3726
  390MOL0     H53751  11.456   5.370  10.241  0.4601  3.4243 -0.5471
  390MOL0     H53752  11.449   5.438   9.998  0.4344 -2.4814 -1.2865
  390MOL0     H53753  11.444   5.519   9.812 -0.4835 -2.4618 -0.4188
  390MOL0     H53754  11.296   5.595   9.843  1.5269  0.6783 -0.0461
  390MOL0     H53755  11.383   5.574   9.592 -0.9550  0.2378 -1.0994
  390MOL0     H53756  11.301   5.414   9.600 -1.7681 -0.6195  2.1201
  390MOL0     H53757  11.104   5.527   9.686 -0.0885  0.5621  0.8289
  390MOL0     H53758  11.175   5.681   9.632 -0.4297  0.6847 -2.2855
  390MOL0     H53759  11.207   5.579   9.406  1.5824 -0.0797  0.3574
  390MOL0     H53760  11.159   5.422   9.455  1.1822  0.3959  0.5796
  390MOL0     H53761  10.930   5.516   9.512 -0.7037 -1.4769 -0.7853
  390MOL0     H53762  10.969   5.510   9.337  1.0509 -1.7406  1.7962
  390MOL0     H53763  10.975   5.757   9.515  1.3084  2.7406 -2.1408
  390MOL0     H53764  11.052   5.758   9.360  0.3112 -0.8764 -1.0886
  390MOL0     H53765  10.785   5.833   9.387  1.7510 -0.5148  0.6157
  390MOL0     H53766  10.762   5.664   9.402 -0.1570  0.5675  3.5470
  390MOL0     H53767  10.748   5.786   9.150  0.3683  0.5454 -0.1270
  390MOL0     H53768  10.910   5.829   9.173 -0.7828  0.9085  1.4154
  390MOL0     H53769  11.095   5.618   9.101  1.4369 -3.3380  2.3457
  390MOL0     H53770  11.024   5.286   8.904  1.6795 -0.9285  0.0641
  390MOL0     H53771  11.153   5.337   9.022  1.1402  0.8404  1.0691
  390MOL0     H53772  11.072   5.504   8.789 -2.0930 -1.2528  0.9589
  390MOL0     H53773  11.223   5.511   8.880 -0.0725 -0.0644 -0.7320
  390MOL0     H53774  11.116   5.283   8.699  0.2989  0.0286 -2.1957
  390MOL0     H53775  11.244   5.394   8.658 -1.9476 -1.3746 -1.4069
  390MOL0     H53776  11.244   5.182   8.888  2.3902 -2.8144 -0.8123
  390MOL0     H53777  11.331   5.164   8.739  2.8153  0.7829  0.8952
  390MOL0     H53778  11.448   5.312   8.618  0.8869 -2.3027 -0.1450
  390MOL0     H53779  11.660   5.448   8.423  0.1792 -0.3516 -1.4793
  390MOL0     H53780  11.581   5.285   8.409 -1.0311 -1.1133  2.0850
  390MOL0     H53781  11.750   5.290   8.420  0.4640  2.0063  0.8541
  390MOL0     H53782  12.130   5.088   8.577 -1.2754  2.0051 -1.2045
  390MOL0     H53783  12.372   5.111   8.524 -0.9320 -1.1301  2.2854
  390MOL0     H53784  12.573   5.413   8.492  1.7349 -1.2564 -0.9576
  390MOL0     H53785  12.591   5.451   8.670 -2.4438 -0.3759 -0.0098
  390MOL0     H53786  12.793   5.298   8.656  0.1517  1.4357  0.0262
  390MOL0     H53787  12.768   5.261   8.487  1.1008 -0.0335 -0.7576
  390MOL0     H53788  12.835   5.523   8.637  3.7754  0.8464 -0.7367
  390MOL0     H53789  12.777   5.548   8.473  0.0290  1.2852  0.5995
  390MOL0     H53790  12.949   5.403   8.389 -1.6061  0.4560  0.4620
  390MOL0     H53791  13.012   5.370   8.553 -0.1196  0.7569  0.0405
  390MOL0     H53792  13.017   5.641   8.455  3.2193  1.3318 -2.4375
  390MOL0     H53793  13.110   5.554   8.588  0.0951 -2.5107  1.0782
  390MOL0     H53794  13.153   5.502   8.298 -4.0684  2.4500  0.4581
  390MOL0     H53795  13.245   5.426   8.426 -1.4434 -1.2616 -0.6586
  390MOL0     H53796  13.220   5.724   8.369 -0.2670 -1.5587 -1.3114
  390MOL0     H53797  13.343   5.622   8.301  1.6228 -2.9296  0.4604
  390MOL0     H53798  13.408   5.564   8.545  2.1735 -0.2123  0.1386
  390MOL0     H53799  13.311   5.710   8.580 -1.2950 -2.1273 -0.4092
  390MOL0     H53800  12.407   5.465   8.752 -1.1698  0.8815  1.4273
  390MOL0     H53801  12.166   5.447   8.807  1.7062 -0.2216  1.0265
  390MOL0     H53802  11.863   5.340   8.895 -0.1713 -0.1839  0.4687
  390MOL0     H53803  11.640   5.329   9.001  0.1253  0.1650  0.4045
  390MOL0     H53804  11.068   5.280   9.942  1.0922 -1.8668 -1.2984
  390MOL0     H53805  11.053   5.223  10.187 -0.9006  1.2960 -1.4142
  390MOL0     H53806  11.304   5.167  10.593  0.3486 -1.1115  2.0527
  390MOL0     H53807  11.275   5.067  10.801  0.7201 -0.7519 -1.0979
  390MOL0     H53808  10.846   5.026  10.944  1.0982  0.2081 -2.1340
  390MOL0     H53809  10.924   4.875  10.999  0.2515 -0.3130 -0.5526
  390MOL0     H53810  10.849   4.994  11.191  0.3337 -0.5319 -1.8864
  390MOL0     H53811  10.915   5.145  11.123 -1.2738  0.9570  2.3979
  390MOL0     H53812  11.094   4.928  11.242  1.5251  0.8168  2.5918
  390MOL0     H53813  11.137   5.077  11.158 -1.4144 -0.0482 -1.6317
  390MOL0     H53814  10.969   5.037  11.410 -0.2040 -1.1330 -1.9696
  390MOL0     H53815  10.994   5.200  11.337  1.5654  0.9399  0.3177
  390MOL0     H53816  11.378   5.126  11.510 -0.4422 -2.3276  3.4473
  390MOL0     H53817  10.851   5.088  10.751 -1.0424  1.1150 -1.6674
  390MOL0     H53818  10.828   5.209  10.438  3.2178  1.5261  0.0865
  390MOL0     H53819  10.749   5.182  10.605  1.1096  1.2395  2.9774
  390MOL0     H53820  10.818   5.337  10.553  0.4158  0.6997  0.5589
  391MOL0     O53821   7.059   4.180   1.893 -0.3942 -0.1022  0.4379
  391MOL0     C53822   7.099   4.295   1.917 -0.3120  0.3059 -0.3288
  391MOL0     O53823   7.017   4.394   1.963  0.0847  0.2303  0.6074
  391MOL0     C53824   6.883   4.390   1.924 -0.4076  0.0556  0.5520
  391MOL0     C53825   6.780   4.421   2.015  0.5254  0.7717 -0.6060
  391MOL0     C53826   6.651   4.447   1.962 -1.1051 -0.1929  0.4304
  391MOL0     C53827   6.615   4.432   1.828  0.4277  1.0019  0.3313
  391MOL0     O53828   6.486   4.437   1.780  0.5565  0.3220 -1.1338
  391MOL0     C53829   6.467   4.484   1.650  0.1837  0.5157 -0.0027
  391MOL0     C53830   6.322   4.518   1.613 -0.2771 -0.4189 -0.1091
  391MOL0     C53831   6.220   4.413   1.633 -0.2095  0.3411 -0.2256
  391MOL0     C53832   6.079   4.465   1.603 -0.0739  0.8164 -0.6801
  391MOL0     C53833   5.992   4.344   1.629  0.3119 -0.0579 -0.1169
  391MOL0     C53834   5.848   4.398   1.629 -0.1783  0.4513  0.6700
  391MOL0     C53835   5.752   4.291   1.673 -0.8371 -0.2563 -0.3535
  391MOL0     C53836   5.625   4.347   1.722  0.2977  0.1524 -0.2917
  391MOL0     N53837   5.569   4.459   1.653  0.3850  0.0858 -0.3047
  391MOL0     C53838   5.549   4.461   1.512 -0.6063  0.6710  0.2524
  391MOL0     C53839   5.534   4.592   1.494 -0.1561  0.1755 -0.0019
  391MOL0     C53840   5.536   4.653   1.357  0.1940  0.0459  0.3316
  391MOL0     C53841   5.631   4.777   1.351 -0.3311 -0.9379 -1.3025
  391MOL0     C53842   5.776   4.747   1.395 -0.8324  0.1167 -0.3971
  391MOL0     C53843   5.869   4.864   1.348  0.2812 -0.0561 -0.4584
  391MOL0     O53844   5.974   4.881   1.441  0.4787 -0.4338  0.3494
  391MOL0     C53845   6.103   4.846   1.409 -0.0764 -0.8824  0.0280
  391MOL0     C53846   6.198   4.882   1.508 -0.1425  0.3866 -0.0999
  391MOL0     C53847   6.336   4.848   1.497 -0.3367 -0.0189  0.0987
  391MOL0     C53848   6.429   4.902   1.607  0.3867  0.4545 -0.0996
  391MOL0     C53849   6.389   4.783   1.376  0.5118 -0.3894 -0.1515
  391MOL0     C53850   6.532   4.745   1.358 -0.8555 -0.1600  0.3177
  391MOL0     O53851   6.563   4.689   1.233 -0.3149 -0.8355 -0.3752
  391MOL0     C53852   6.674   4.613   1.228 -0.4745 -0.2531  0.5949
  391MOL0     C53853   6.795   4.670   1.180  0.1981 -0.1154 -0.3692
  391MOL0     C53854   6.908   4.593   1.186  1.5063 -0.2519  0.9681
  391MOL0     C53855   6.908   4.461   1.235 -0.2421 -0.0241 -0.6645
  391MOL0     O53856   7.018   4.375   1.247 -0.6678  0.4123  0.0777
  391MOL0     C53857   7.153   4.411   1.202  1.1539 -0.7075  0.4188
  391MOL0     C53858   7.178   4.350   1.063 -0.2681  0.8992 -0.1608
  391MOL0     C53859   7.331   4.343   1.031 -0.5478 -0.5923  0.0705
  391MOL0     C53860   7.380   4.471   0.962 -1.6377 -0.3820  0.1936
  391MOL0     C53861   7.533   4.485   0.979 -0.1557 -0.2098  0.2785
  391MOL0     C53862   7.609   4.386   0.897 -0.0707  0.4666 -0.1470
  391MOL0     C53863   7.763   4.407   0.907 -1.0500 -0.1846  1.0554
  391MOL0     C53864   7.839   4.334   0.794  0.4828 -0.2000  0.6688
  391MOL0    Cl53865   7.776   4.173   0.766 -0.5069 -0.0224  0.1317
  391MOL0     C53866   6.791   4.400   1.275  0.0207 -0.2064 -0.6303
  391MOL0     C53867   6.669   4.476   1.267 -0.4293  0.4567 -0.4133
  391MOL0     O53868   6.606   4.747   1.457 -0.6977 -0.2749 -0.8475
  391MOL0     C53869   6.298   4.759   1.274 -0.0089 -0.2059  0.5010
  391MOL0     C53870   6.154   4.779   1.293 -0.9238  0.4838 -0.4920
  391MOL0     N53871   5.537   4.653   1.615 -0.2135  0.0544  0.4100
  391MOL0     N53872   5.568   4.583   1.713 -0.0590  0.3349 -0.1910
  391MOL0     C53873   6.717   4.393   1.742 -0.4057  0.1937  0.5929
  391MOL0     C53874   6.851   4.375   1.789 -0.6133 -0.8500 -0.5711
  391MOL0     C53875   7.246   4.327   1.909  0.3844  0.7725  0.2447
  391MOL0     C53876   7.278   4.461   1.905 -0.2318  0.3672 -0.1844
  391MOL0     C53877   7.409   4.502   1.888 -0.2431  0.2186  0.0518
  391MOL0     C53878   7.522   4.405   1.872 -0.3981 -0.0866  0.5839
  391MOL0     O53879   7.658   4.450   1.856  0.1168 -0.4373  0.1559
  391MOL0     C53880   7.756   4.375   1.920 -0.6941  0.6198  0.4298
  391MOL0     C53881   7.824   4.292   1.816  0.2372  0.3416  0.5001
  391MOL0     C53882   7.893   4.369   1.699  0.3871  0.2611 -0.0076
  391MOL0     C53883   7.816   4.465   1.612  0.5879 -0.9150 -0.2010
  391MOL0     C53884   7.893   4.512   1.494 -0.4693  0.8442 -0.0500
  391MOL0     C53885   7.956   4.550   1.398  0.0933  0.7938 -0.1624
  391MOL0     C53886   7.487   4.271   1.885  0.2700  0.0670  0.0866
  391MOL0     C53887   7.351   4.233   1.905 -0.4394  0.8392 -0.6882
  391MOL0     C53888   7.323   4.081   1.916  0.2889  0.9670 -0.5475
  391MOL0     H53889   6.817   4.431   2.116  2.3210  1.3091 -1.2714
  391MOL0     H53890   6.587   4.486   2.041  1.7480  0.6930  2.4596
  391MOL0     H53891   6.508   4.418   1.573  0.5733 -0.2762  0.8704
  391MOL0     H53892   6.518   4.581   1.652 -2.6518  2.3161 -3.1961
  391MOL0     H53893   6.292   4.601   1.678  1.8926 -0.1437  0.6433
  391MOL0     H53894   6.313   4.558   1.512 -1.2103 -0.6787 -0.1350
  391MOL0     H53895   6.250   4.331   1.567  2.2793 -0.0747  1.3020
  391MOL0     H53896   6.223   4.387   1.739 -1.2688  1.6403  0.1561
  391MOL0     H53897   6.055   4.553   1.663 -1.0234  0.5950 -0.7150
  391MOL0     H53898   6.077   4.493   1.498 -2.2383  0.7074 -0.7244
  391MOL0     H53899   6.015   4.288   1.720 -2.6214 -2.3904 -0.6598
  391MOL0     H53900   6.010   4.270   1.551  2.5357 -1.2941  1.4600
  391MOL0     H53901   5.852   4.473   1.708 -0.9342  1.5398 -0.2899
  391MOL0     H53902   5.828   4.432   1.527 -2.5656  1.7769  1.5050
  391MOL0     H53903   5.799   4.249   1.763 -0.3563 -0.1258 -0.5389
  391MOL0     H53904   5.739   4.210   1.600 -1.6449 -0.0043 -0.4903
  391MOL0     H53905   5.549   4.270   1.738 -0.4235  1.3851  2.6740
  391MOL0     H53906   5.642   4.381   1.824  0.5928 -1.3691  0.1914
  391MOL0     H53907   5.534   4.391   1.430 -0.6747  2.3960 -1.2589
  391MOL0     H53908   5.436   4.687   1.331  1.5837  3.3078 -1.3454
  391MOL0     H53909   5.570   4.584   1.278  0.3358  1.4852 -0.9132
  391MOL0     H53910   5.633   4.827   1.253  0.6382  2.8604  0.4825
  391MOL0     H53911   5.594   4.857   1.415  4.7150  1.5909 -1.0665
  391MOL0     H53912   5.788   4.740   1.503  2.3879 -3.0513 -0.7699
  391MOL0     H53913   5.796   4.645   1.362 -3.3031 -1.2431  1.9089
  391MOL0     H53914   5.906   4.865   1.245  1.8511 -1.1480  0.0546
  391MOL0     H53915   5.801   4.949   1.363 -2.2308 -2.0563  0.1940
  391MOL0     H53916   6.159   4.935   1.594  3.0530  0.5544  1.3706
  391MOL0     H53917   6.375   4.953   1.687  1.2736  1.9663 -0.4167
  391MOL0     H53918   6.490   4.976   1.554 -1.7465  1.3891 -1.4001
  391MOL0     H53919   6.479   4.821   1.659 -0.1621  2.7571  4.4777
  391MOL0     H53920   6.799   4.770   1.139 -1.4181  0.0465 -0.1945
  391MOL0     H53921   6.993   4.638   1.134 -0.3430 -1.3820 -3.5288
  391MOL0     H53922   7.166   4.519   1.214 -1.1199 -0.5479  2.2214
  391MOL0     H53923   7.226   4.375   1.274  1.8509 -0.1280  0.0187
  391MOL0     H53924   7.140   4.248   1.072 -1.2658  1.1634 -1.1207
  391MOL0     H53925   7.117   4.402   0.989 -0.8482  0.9614  0.3614
  391MOL0     H53926   7.348   4.259   0.963  0.5438  0.2526 -0.7392
  391MOL0     H53927   7.399   4.322   1.114  1.4875 -1.4383 -1.6956
  391MOL0     H53928   7.332   4.557   1.008  1.1742  0.4542  1.8296
  391MOL0     H53929   7.356   4.464   0.856 -1.2631 -3.0121  0.2097
  391MOL0     H53930   7.557   4.579   0.929 -0.4331 -1.8561 -3.2629
  391MOL0     H53931   7.554   4.472   1.086 -2.3825  0.1389  0.7972
  391MOL0     H53932   7.579   4.396   0.792  0.1697 -1.2684 -0.4087
  391MOL0     H53933   7.577   4.286   0.926 -1.4934  0.6828 -0.8666
  391MOL0     H53934   7.793   4.364   1.004  0.4361 -1.4677  0.0772
  391MOL0     H53935   7.795   4.511   0.902 -0.2182 -0.4665  0.1103
  391MOL0     H53936   7.946   4.327   0.814  0.4889  1.1061  1.1696
  391MOL0     H53937   7.819   4.389   0.702 -0.4506 -0.4255  0.7222
  391MOL0     H53938   6.774   4.296   1.302  0.4259  0.0544  0.7065
  391MOL0     H53939   6.573   4.435   1.297 -1.6749  2.3380 -1.6744
  391MOL0     H53940   6.333   4.723   1.178  0.5678 -0.3146  0.7486
  391MOL0     H53941   6.083   4.756   1.215 -2.0118 -1.4900  0.9961
  391MOL0     H53942   6.699   4.364   1.639  1.9955  1.8297 -0.3908
  391MOL0     H53943   6.920   4.332   1.718  3.5012  0.0257  2.4900
  391MOL0     H53944   7.203   4.537   1.926 -0.2571 -0.2349  2.3075
  391MOL0     H53945   7.428   4.609   1.889 -2.3113  0.6397 -0.6314
  391MOL0     H53946   7.838   4.439   1.953  1.5847 -1.4694 -0.8289
  391MOL0     H53947   7.722   4.313   2.004  1.9627 -1.3383  0.2071
  391MOL0     H53948   7.752   4.226   1.767 -2.9999  5.7596 -3.1058
  391MOL0     H53949   7.907   4.235   1.859 -0.3933 -1.4734 -0.5749
  391MOL0     H53950   7.978   4.423   1.744  0.4009  1.5041 -1.4503
  391MOL0     H53951   7.936   4.294   1.633 -1.3611 -1.0522  0.2665
  391MOL0     H53952   7.808   4.552   1.678  2.2450  0.0800 -1.2350
  391MOL0     H53953   7.721   4.423   1.578  0.3021  0.1404 -0.7605
  391MOL0     H53954   8.009   4.571   1.308  2.3309 -0.7655  0.6963
  391MOL0     H53955   7.567   4.198   1.884 -0.1928 -0.4652  0.8325
  391MOL0     H53956   7.422   4.034   1.924  0.2420  1.1642  1.7342
  391MOL0     H53957   7.260   4.066   2.004 -0.6675  2.9156 -0.8567
  391MOL0     H53958   7.274   4.047   1.824 -0.6037  0.7363  0.0075
  392MOL0     O53959   5.500   0.774   7.711  0.2142 -0.5779 -0.3132
  392MOL0     C53960   5.583   0.745   7.806  1.0589 -0.5657 -0.3362
  392MOL0     O53961   5.543   0.715   7.934 -0.2954 -0.3426  0.0522
  392MOL0     C53962   5.409   0.694   7.957 -0.2101  0.7117 -0.1786
  392MOL0     C53963   5.377   0.561   7.985  0.4306  0.2860 -0.6008
  392MOL0     C53964   5.247   0.519   7.998 -0.5570  0.1741 -0.8163
  392MOL0     C53965   5.143   0.614   7.969  0.1874  0.0748 -0.3712
  392MOL0     O53966   5.014   0.574   7.959 -0.0604 -0.0769  0.4169
  392MOL0     C53967   4.962   0.479   8.052 -0.2615  0.4557 -0.7186
  392MOL0     C53968   4.815   0.466   8.046  0.2830  0.8234  0.3489
  392MOL0     C53969   4.737   0.574   8.115  0.6926  0.1146  0.1459
  392MOL0     C53970   4.588   0.559   8.080  0.7464  0.9785 -0.3315
  392MOL0     C53971   4.500   0.601   8.196 -0.5037  0.5593 -0.6856
  392MOL0     C53972   4.497   0.753   8.192 -0.1857 -0.0865  0.4729
  392MOL0     C53973   4.428   0.809   8.317  0.1101  0.3143 -0.3990
  392MOL0     C53974   4.441   0.963   8.312 -0.0273 -0.6852 -0.8376
  392MOL0     N53975   4.566   1.021   8.368 -0.0904  0.2394  0.1842
  392MOL0     C53976   4.621   1.146   8.332  0.4368 -0.6244 -0.0175
  392MOL0     C53977   4.712   1.168   8.431 -0.6921  0.7025 -0.1631
  392MOL0     C53978   4.814   1.286   8.444  0.4989  0.0021 -0.5421
  392MOL0     C53979   4.762   1.431   8.396 -0.3773 -0.0255 -0.5762
  392MOL0     C53980   4.851   1.546   8.460 -0.9759  0.1024  0.6887
  392MOL0     C53981   5.005   1.548   8.412  0.0559 -0.7165 -0.4319
  392MOL0     O53982   5.073   1.445   8.485 -0.0834 -0.0613  0.1140
  392MOL0     C53983   5.205   1.411   8.456 -0.7929 -0.0683  1.5289
  392MOL0     C53984   5.269   1.456   8.344  0.1734 -0.1301  0.9077
  392MOL0     C53985   5.401   1.411   8.322 -0.0638 -0.7100 -0.1904
  392MOL0     C53986   5.460   1.445   8.186 -0.4149 -0.3988  0.1973
  392MOL0     C53987   5.480   1.360   8.428 -0.2329 -0.1475  0.2773
  392MOL0     C53988   5.630   1.341   8.424  0.0252 -0.4459  0.1876
  392MOL0     O53989   5.693   1.287   8.539  0.0025  0.5651  0.0614
  392MOL0     C53990   5.833   1.285   8.540  0.1244  0.8374  0.0825
  392MOL0     C53991   5.906   1.163   8.541 -0.4128  0.1037  0.3301
  392MOL0     C53992   6.039   1.156   8.568 -0.0694 -1.5062  0.9078
  392MOL0     C53993   6.106   1.279   8.601  0.2199  0.2858  0.3132
  392MOL0     O53994   6.239   1.289   8.631  0.1823  0.3236  0.7292
  392MOL0     C53995   6.246   1.262   8.768 -0.5564  0.1567  0.0954
  392MOL0     C53996   6.392   1.239   8.825 -0.5838 -0.2090 -0.1119
  392MOL0     C53997   6.454   1.121   8.765  0.3906 -0.1490  0.7102
  392MOL0     C53998   6.598   1.099   8.797 -0.5100  0.3302 -0.7529
  392MOL0     C53999   6.628   0.952   8.785 -0.4939  0.7683  0.1673
  392MOL0     C54000   6.775   0.916   8.825  0.5441  0.7273  0.2777
  392MOL0     C54001   6.787   0.904   8.973  0.5332  0.0461 -0.3754
  392MOL0     C54002   6.932   0.900   9.016  0.4187  0.3224  0.4937
  392MOL0    Cl54003   6.918   0.877   9.188 -0.2255  0.7050 -0.5024
  392MOL0     C54004   6.036   1.399   8.613  0.4775  0.1870 -0.4140
  392MOL0     C54005   5.905   1.402   8.578  0.9419  0.6269  0.2851
  392MOL0     O54006   5.687   1.370   8.322 -0.3142  0.5816  0.4091
  392MOL0     C54007   5.411   1.337   8.549 -0.1780 -0.4181 -0.1379
  392MOL0     C54008   5.270   1.353   8.557  0.1704  0.3325  0.2587
  392MOL0     N54009   4.711   1.059   8.515 -0.0054  0.1370  0.3188
  392MOL0     N54010   4.617   0.974   8.483  0.0325 -1.0873 -0.2907
  392MOL0     C54011   5.171   0.745   7.934 -0.6089  0.4828  0.1618
  392MOL0     C54012   5.303   0.789   7.931  0.4308 -0.2903 -0.0060
  392MOL0     C54013   5.733   0.756   7.788 -0.1810  0.6570 -0.1539
  392MOL0     C54014   5.821   0.713   7.892 -0.1424 -0.7463 -0.1521
  392MOL0     C54015   5.962   0.701   7.867 -0.1209  0.1180 -0.7035
  392MOL0     C54016   6.024   0.735   7.743 -0.6199  0.0685 -0.2004
  392MOL0     O54017   6.161   0.728   7.733  0.0136  0.9947 -0.0420
  392MOL0     C54018   6.218   0.803   7.624 -0.5507 -0.0970  0.2217
  392MOL0     C54019   6.363   0.827   7.645 -0.5635 -0.7450  0.3899
  392MOL0     C54020   6.388   0.905   7.775 -0.1671  0.1907  0.7729
  392MOL0     C54021   6.537   0.920   7.799 -0.3949  0.4690 -0.8518
  392MOL0     C54022   6.633   0.974   7.707  0.0190 -0.4611 -0.3439
  392MOL0     C54023   6.707   1.026   7.626 -0.1261 -0.1059 -0.6463
  392MOL0     C54024   5.939   0.795   7.648  0.3798 -1.2365  0.3546
  392MOL0     C54025   5.797   0.807   7.669 -0.6028 -0.2085 -0.6971
  392MOL0     C54026   5.715   0.877   7.563 -0.1651 -0.0384  0.5658
  392MOL0     H54027   5.452   0.485   8.004  0.0137  0.0401  0.0705
  392MOL0     H54028   5.224   0.418   8.030 -0.8307  1.2166  2.7433
  392MOL0     H54029   4.987   0.500   8.157  1.1172 -3.9126  0.0158
  392MOL0     H54030   5.010   0.383   8.030 -1.1297 -0.1103 -0.2022
  392MOL0     H54031   4.783   0.452   7.943  2.7275 -1.0503 -0.2574
  392MOL0     H54032   4.790   0.374   8.099  2.0139 -0.5711 -1.1180
  392MOL0     H54033   4.754   0.559   8.221  1.9907  2.6662  0.3871
  392MOL0     H54034   4.781   0.670   8.084  1.9188 -0.4603  0.0448
  392MOL0     H54035   4.557   0.592   7.980  0.4035  0.7705 -0.2983
  392MOL0     H54036   4.561   0.453   8.073  0.6717  1.0944 -3.0490
  392MOL0     H54037   4.534   0.548   8.285  0.8884 -0.3374 -1.7051
  392MOL0     H54038   4.399   0.562   8.175  0.5030 -2.6009 -0.1977
  392MOL0     H54039   4.602   0.783   8.197 -0.1340 -0.3430  0.9746
  392MOL0     H54040   4.443   0.798   8.108 -0.7588  0.5331  1.1525
  392MOL0     H54041   4.468   0.757   8.404 -1.4852 -2.1639 -1.0451
  392MOL0     H54042   4.320   0.792   8.325 -0.2502  1.4144 -2.2627
  392MOL0     H54043   4.423   1.003   8.212  5.2369  3.2099 -0.6927
  392MOL0     H54044   4.357   0.990   8.377  0.2023  0.2137 -0.8948
  392MOL0     H54045   4.596   1.215   8.253 -0.0579  0.2385  0.8685
  392MOL0     H54046   4.903   1.250   8.391 -2.0459 -3.9044 -2.6638
  392MOL0     H54047   4.842   1.287   8.549  2.4966  0.2375 -1.0405
  392MOL0     H54048   4.772   1.433   8.287  0.3676  0.5854 -0.5043
  392MOL0     H54049   4.659   1.456   8.425  1.0381  1.5506  3.9137
  392MOL0     H54050   4.803   1.640   8.431  0.7178  0.6020 -0.6830
  392MOL0     H54051   4.852   1.538   8.569 -2.1600 -0.2011  0.6880
  392MOL0     H54052   4.999   1.528   8.305 -0.4913  2.7519 -1.1441
  392MOL0     H54053   5.050   1.645   8.434 -0.1130 -0.6459 -0.3949
  392MOL0     H54054   5.226   1.503   8.257 -0.1634 -1.6092  0.2414
  392MOL0     H54055   5.522   1.535   8.189 -2.9264  1.4026  1.1328
  392MOL0     H54056   5.391   1.455   8.103 -1.2806 -1.3956  0.7734
  392MOL0     H54057   5.526   1.362   8.157 -1.3306  0.0966 -3.9219
  392MOL0     H54058   5.841   1.077   8.530 -1.5215  0.8879  0.5528
  392MOL0     H54059   6.087   1.059   8.561  0.7975 -0.9776 -1.7590
  392MOL0     H54060   6.202   1.345   8.824  1.9703  2.1677 -0.7188
  392MOL0     H54061   6.176   1.179   8.784 -3.8673  2.7252 -0.0009
  392MOL0     H54062   6.451   1.331   8.815  0.8050 -0.9453  0.9087
  392MOL0     H54063   6.374   1.210   8.928 -2.1210 -1.7706 -0.7726
  392MOL0     H54064   6.446   1.125   8.656  1.1526 -0.6434  0.6268
  392MOL0     H54065   6.393   1.037   8.799 -1.6568  1.1996  0.5530
  392MOL0     H54066   6.628   1.120   8.900 -1.0580 -4.3941  0.6051
  392MOL0     H54067   6.672   1.149   8.734  0.3417 -0.7830 -0.6632
  392MOL0     H54068   6.548   0.900   8.838 -1.0227 -1.3606 -2.5104
  392MOL0     H54069   6.615   0.930   8.678 -0.0103  0.7473  0.1110
  392MOL0     H54070   6.833   1.003   8.794 -2.0459  2.9294  1.2696
  392MOL0     H54071   6.805   0.824   8.774  0.5407  0.8687  0.0221
  392MOL0     H54072   6.719   0.827   9.009  0.8071  0.6092  1.4958
  392MOL0     H54073   6.749   0.999   9.012  0.5671  0.4599 -1.3286
  392MOL0     H54074   6.994   0.985   8.987 -1.3012  0.7409 -2.2427
  392MOL0     H54075   6.976   0.808   8.977  2.3711  0.6373  1.8004
  392MOL0     H54076   6.086   1.494   8.630  1.4464 -0.6759  2.0416
  392MOL0     H54077   5.836   1.484   8.593 -2.1742 -1.8926  0.7011
  392MOL0     H54078   5.464   1.295   8.634  1.2917  0.2422 -0.6906
  392MOL0     H54079   5.218   1.315   8.644 -0.4136 -0.6620 -0.4971
  392MOL0     H54080   5.090   0.815   7.916 -2.6312 -1.7916 -0.1303
  392MOL0     H54081   5.323   0.889   7.894 -1.3464 -0.2351 -0.9419
  392MOL0     H54082   5.774   0.695   7.988  0.0208 -2.0828 -0.3055
  392MOL0     H54083   6.024   0.662   7.947  1.0966  1.7363 -0.8337
  392MOL0     H54084   6.199   0.758   7.526 -1.1178 -0.4451  0.4868
  392MOL0     H54085   6.169   0.902   7.622  1.4997  1.0950  2.9463
  392MOL0     H54086   6.400   0.898   7.570 -0.9465  0.0130  0.9027
  392MOL0     H54087   6.422   0.736   7.640  0.0140 -0.3461 -0.3890
  392MOL0     H54088   6.333   0.999   7.774  0.8754  0.8516  2.1677
  392MOL0     H54089   6.338   0.845   7.852 -5.3860  4.0074  0.8831
  392MOL0     H54090   6.566   0.816   7.817 -1.4936  0.3020  0.0409
  392MOL0     H54091   6.548   0.975   7.894  0.0227 -1.2002  0.1087
  392MOL0     H54092   6.776   1.072   7.558  1.7132  0.3424  1.4072
  392MOL0     H54093   5.971   0.841   7.555 -2.2720  0.5449  0.2201
  392MOL0     H54094   5.679   0.809   7.485  0.9462  1.3743 -1.2724
  392MOL0     H54095   5.631   0.933   7.605 -0.7437  0.8975 -1.6829
  392MOL0     H54096   5.768   0.957   7.510  1.9555 -0.3758  2.0570
  393MOL0     O54097  11.011   7.984   3.740 -0.0661  0.2448  0.5020
  393MOL0     C54098  10.981   8.087   3.792  0.4561  0.8883 -0.4175
  393MOL0     O54099  11.063   8.159   3.877  0.8838  0.5256 -0.4458
  393MOL0     C54100  11.191   8.109   3.901  0.0878 -0.2531 -0.1543
  393MOL0     C54101  11.224   7.978   3.936  0.1797  0.1602  0.0215
  393MOL0     C54102  11.360   7.940   3.941  0.1943 -0.1918  0.0035
  393MOL0     C54103  11.461   8.040   3.927  0.4627 -0.2332 -0.8058
  393MOL0     O54104  11.591   8.009   3.937  0.1040 -0.1281 -0.1806
  393MOL0     C54105  11.636   7.947   4.057  1.1985 -0.7804 -0.7264
  393MOL0     C54106  11.784   7.942   4.048  0.0582  0.8044 -0.2832
  393MOL0     C54107  11.860   8.072   4.061 -0.1452  0.2903 -0.1091
  393MOL0     C54108  12.022   8.065   4.046  0.4724  0.1757 -0.1708
  393MOL0     C54109  12.071   8.206   4.067  0.1521  0.4136  0.0483
  393MOL0     C54110  12.065   8.267   4.202  0.8699 -0.8356 -0.3157
  393MOL0     C54111  12.162   8.380   4.233  0.0443  0.1438 -0.5451
  393MOL0     C54112  12.174   8.487   4.131  0.0395  0.2290 -0.0133
  393MOL0     N54113  12.043   8.541   4.096  0.3609 -0.7945 -0.3790
  393MOL0     C54114  11.985   8.544   3.968  0.3272  0.2716  0.1843
  393MOL0     C54115  11.869   8.613   3.978  0.1577 -0.3444  0.1828
  393MOL0     C54116  11.769   8.665   3.874 -0.0986  0.4735  0.2819
  393MOL0     C54117  11.688   8.540   3.818 -0.3884  0.4236 -0.1826
  393MOL0     C54118  11.773   8.462   3.732  0.7076  0.6404  0.1270
  393MOL0     C54119  11.687   8.365   3.647 -0.2475  0.2856  0.2116
  393MOL0     O54120  11.564   8.413   3.596  0.2816  0.4537  0.2856
  393MOL0     C54121  11.495   8.321   3.523  0.6598 -0.4815 -0.2283
  393MOL0     C54122  11.357   8.315   3.551 -0.6984 -0.3196  0.2207
  393MOL0     C54123  11.270   8.231   3.484  0.5072 -0.5093 -0.2136
  393MOL0     C54124  11.126   8.251   3.515 -0.0491 -0.4120 -0.6485
  393MOL0     C54125  11.321   8.134   3.399 -0.3405 -0.0227  0.3486
  393MOL0     C54126  11.243   8.030   3.326  0.5154  0.6498 -0.0040
  393MOL0     O54127  11.306   7.942   3.231 -0.7229 -0.5793 -0.4671
  393MOL0     C54128  11.226   7.843   3.177  0.0519 -0.3294  0.1939
  393MOL0     C54129  11.254   7.708   3.200  0.6330 -0.5785  0.0353
  393MOL0     C54130  11.172   7.604   3.150  0.3468  0.0974 -0.1873
  393MOL0     C54131  11.066   7.634   3.065  0.3313  0.3641  1.4197
  393MOL0     O54132  10.982   7.527   3.021  0.2803  0.1859  0.6598
  393MOL0     C54133  10.855   7.566   2.962 -0.4089 -0.4297  0.3878
  393MOL0     C54134  10.773   7.443   2.920  0.6094 -0.3698 -0.1352
  393MOL0     C54135  10.660   7.480   2.824 -0.0919 -0.3730 -0.6914
  393MOL0     C54136  10.705   7.508   2.683 -0.4550 -0.1566 -0.2876
  393MOL0     C54137  10.579   7.520   2.599 -0.0780  0.2930  0.1463
  393MOL0     C54138  10.623   7.532   2.457 -0.1067 -0.2598 -0.2451
  393MOL0     C54139  10.496   7.538   2.374 -1.0844  0.0512 -0.0958
  393MOL0     C54140  10.521   7.523   2.219 -0.5922  0.1531 -0.4203
  393MOL0    Cl54141  10.375   7.576   2.134  0.1504  0.0011  0.3623
  393MOL0     C54142  11.041   7.771   3.030  0.0035  0.3743  0.4866
  393MOL0     C54143  11.122   7.879   3.088  0.8464  0.3420 -0.9085
  393MOL0     O54144  11.124   8.021   3.345 -0.1394 -0.2884  0.1024
  393MOL0     C54145  11.462   8.143   3.360  0.1799 -0.8702 -0.7554
  393MOL0     C54146  11.542   8.244   3.417 -0.0716 -0.0796 -0.8506
  393MOL0     N54147  11.858   8.644   4.112 -0.6362 -0.3968  0.2281
  393MOL0     N54148  11.957   8.607   4.182 -0.2409  0.7789  0.9770
  393MOL0     C54149  11.415   8.175   3.900 -0.7250 -0.0183  0.0223
  393MOL0     C54150  11.279   8.205   3.882 -0.4578  0.0092 -0.1239
  393MOL0     C54151  10.835   8.128   3.788  0.3616 -0.1373  0.8191
  393MOL0     C54152  10.778   8.205   3.893 -1.0764 -0.5273  0.4187
  393MOL0     C54153  10.638   8.227   3.900  0.0512  0.3685 -0.2157
  393MOL0     C54154  10.553   8.185   3.801 -0.0374 -0.0689  0.6854
  393MOL0     O54155  10.422   8.216   3.827  0.1595  0.7008  0.5403
  393MOL0     C54156  10.339   8.103   3.823 -0.0581  0.2607 -0.0911
  393MOL0     C54157  10.204   8.125   3.897 -0.1137 -0.8101 -0.1107
  393MOL0     C54158  10.222   8.161   4.047 -0.5623  0.3713 -0.1977
  393MOL0     C54159  10.099   8.214   4.120 -0.5454  0.2538 -0.2843
  393MOL0     C54160  10.143   8.271   4.248  0.4431  0.6991 -0.3195
  393MOL0     C54161  10.180   8.346   4.340 -0.4816 -0.7475 -0.2238
  393MOL0     C54162  10.605   8.111   3.694 -0.0795 -0.3099 -0.3316
  393MOL0     C54163  10.741   8.076   3.689  0.4881  0.4133  0.7773
  393MOL0     C54164  10.780   7.989   3.571 -0.1164 -0.5735 -0.3067
  393MOL0     H54165  11.144   7.906   3.951 -0.1555  0.6004  0.3939
  393MOL0     H54166  11.379   7.836   3.967  0.4656 -0.6571 -1.9354
  393MOL0     H54167  11.598   7.845   4.069 -1.2571  0.3751  3.2370
  393MOL0     H54168  11.607   8.002   4.147  0.3820 -3.9960  1.1705
  393MOL0     H54169  11.833   7.871   4.114 -1.0863 -1.7579 -2.0285
  393MOL0     H54170  11.810   7.907   3.948  2.5341 -1.1014  0.9390
  393MOL0     H54171  11.823   8.148   3.992  2.7302  1.2910 -0.7073
  393MOL0     H54172  11.855   8.111   4.163 -1.6038 -4.2788  1.8222
  393MOL0     H54173  12.058   7.999   4.125 -0.5833 -0.3961 -0.1453
  393MOL0     H54174  12.053   8.018   3.952  1.2899 -2.1538  1.1847
  393MOL0     H54175  12.009   8.271   4.004  0.1475  0.2193 -0.1493
  393MOL0     H54176  12.176   8.209   4.038 -0.3910  1.0614 -2.1009
  393MOL0     H54177  11.962   8.304   4.211 -0.8066 -4.7234 -0.9717
  393MOL0     H54178  12.082   8.186   4.274 -0.5805 -0.4551  0.4875
  393MOL0     H54179  12.258   8.329   4.239  0.2687  0.6227 -0.0334
  393MOL0     H54180  12.125   8.424   4.326  0.1304  0.6791 -0.7600
  393MOL0     H54181  12.243   8.562   4.170  0.5472  0.3986 -1.2230
  393MOL0     H54182  12.216   8.441   4.042  0.4180 -1.0193  0.7919
  393MOL0     H54183  12.027   8.505   3.876  2.2920 -1.1528  1.6159
  393MOL0     H54184  11.820   8.711   3.789 -1.0414 -2.9352 -2.3641
  393MOL0     H54185  11.693   8.729   3.920 -0.4679 -1.2458  2.1800
  393MOL0     H54186  11.649   8.484   3.903  1.0096 -0.0387  0.1765
  393MOL0     H54187  11.606   8.584   3.760 -0.9575  0.8806  0.9304
  393MOL0     H54188  11.827   8.529   3.665 -3.1008  1.3278 -2.5778
  393MOL0     H54189  11.842   8.418   3.804  1.9771  1.4031 -0.5963
  393MOL0     H54190  11.751   8.334   3.564  0.3319  0.2734  0.6542
  393MOL0     H54191  11.667   8.275   3.707  1.7617  1.3547  2.6997
  393MOL0     H54192  11.323   8.395   3.617 -1.0206 -3.0113  3.5840
  393MOL0     H54193  11.116   8.323   3.596  0.4747 -3.5706  2.4505
  393MOL0     H54194  11.074   8.161   3.549 -0.1494 -0.0077  0.2882
  393MOL0     H54195  11.073   8.291   3.428  3.7300  0.8504 -2.6021
  393MOL0     H54196  11.341   7.699   3.263 -0.4078 -1.7404  1.3640
  393MOL0     H54197  11.200   7.501   3.168  1.9346  0.9337  2.7765
  393MOL0     H54198  10.787   7.630   3.018 -0.8167  0.5054 -1.1184
  393MOL0     H54199  10.876   7.619   2.869 -2.4588 -0.8882 -0.3704
  393MOL0     H54200  10.842   7.376   2.868  0.7340  0.7201 -1.4297
  393MOL0     H54201  10.730   7.401   3.011 -1.3766  1.0179 -0.3598
  393MOL0     H54202  10.596   7.557   2.868  0.4279  0.7035 -1.7585
  393MOL0     H54203  10.600   7.388   2.825  1.2712 -1.4477  3.4965
  393MOL0     H54204  10.758   7.423   2.641  0.8459  0.9644 -0.9918
  393MOL0     H54205  10.763   7.601   2.685 -0.7587  0.0368  1.6264
  393MOL0     H54206  10.519   7.433   2.626  0.6263  0.1895  1.4680
  393MOL0     H54207  10.524   7.611   2.626  1.3487  1.6205 -1.2278
  393MOL0     H54208  10.692   7.451   2.432  1.2049  0.7635 -0.0004
  393MOL0     H54209  10.676   7.627   2.447 -1.7277  0.7756  0.5533
  393MOL0     H54210  10.446   7.635   2.389  0.9396  1.1800 -0.2514
  393MOL0     H54211  10.433   7.457   2.410 -0.8928  0.0048  0.1364
  393MOL0     H54212  10.556   7.420   2.205  0.8440 -0.1123  3.7931
  393MOL0     H54213  10.594   7.598   2.188 -0.0474  1.0737  2.7158
  393MOL0     H54214  10.953   7.801   2.975 -0.9108 -2.9732 -0.0877
  393MOL0     H54215  11.098   7.984   3.077 -0.7256  0.4231  2.1723
  393MOL0     H54216  11.499   8.072   3.287 -2.3953 -0.8005 -2.2251
  393MOL0     H54217  11.647   8.252   3.390  0.0319  2.0008 -0.0246
  393MOL0     H54218  11.491   8.251   3.883 -1.8123  0.7860 -1.4291
  393MOL0     H54219  11.251   8.302   3.842 -0.3793  0.2295  0.3581
  393MOL0     H54220  10.845   8.240   3.971 -1.6749  1.0409  0.2647
  393MOL0     H54221  10.594   8.262   3.993 -2.0220 -2.3713 -0.0369
  393MOL0     H54222  10.309   8.064   3.726  1.0124  2.1998 -1.2571
  393MOL0     H54223  10.391   8.022   3.875 -0.6917  0.5760  1.0811
  393MOL0     H54224  10.137   8.040   3.880 -0.3667 -0.5834 -0.2439
  393MOL0     H54225  10.159   8.209   3.845  0.0316 -1.9472 -2.1923
  393MOL0     H54226  10.259   8.073   4.100 -0.0640  1.2513  0.9573
  393MOL0     H54227  10.301   8.236   4.054  0.2858 -0.5677  0.5629
  393MOL0     H54228  10.022   8.138   4.134 -1.5530  1.2149 -0.4360
  393MOL0     H54229  10.041   8.285   4.060 -1.4163 -2.3149 -2.7051
  393MOL0     H54230  10.214   8.418   4.411 -1.5242  0.6261 -1.0490
  393MOL0     H54231  10.530   8.060   3.634 -0.2624 -1.0960  0.5402
  393MOL0     H54232  10.690   7.967   3.513  0.1687  3.7878 -2.9029
  393MOL0     H54233  10.855   8.040   3.510 -0.1821 -1.2364 -0.9508
  393MOL0     H54234  10.816   7.901   3.625  0.8509 -0.3111 -0.5001
  394MOL0     O54235   7.371   8.677   6.042 -0.0429 -0.4049  0.5532
  394MOL0     C54236   7.340   8.620   6.150  0.0062  1.2313 -0.1117
  394MOL0     O54237   7.408   8.640   6.265 -0.1227 -0.1222 -0.9195
  394MOL0     C54238   7.508   8.734   6.263  0.5297 -0.0836 -0.2243
  394MOL0     C54239   7.484   8.851   6.334 -0.4511  0.7524  0.0113
  394MOL0     C54240   7.567   8.960   6.329  0.0890  0.1257 -0.2216
  394MOL0     C54241   7.689   8.959   6.253  0.7539 -0.3621  1.2742
  394MOL0     O54242   7.753   9.083   6.243 -0.2205  0.4024 -0.5812
  394MOL0     C54243   7.885   9.088   6.183 -0.1928  0.4844  0.1219
  394MOL0     C54244   7.911   9.229   6.124 -0.2975  0.3874  0.1484
  394MOL0     C54245   7.832   9.239   5.985  0.3004  0.8671 -0.6902
  394MOL0     C54246   7.888   9.365   5.905  0.6551  0.0736 -0.4052
  394MOL0     C54247   7.791   9.428   5.799  0.6851 -0.4177 -0.7830
  394MOL0     C54248   7.853   9.557   5.720 -0.4456  0.4269  0.0116
  394MOL0     C54249   7.885   9.669   5.815  0.4964 -1.6746  0.0729
  394MOL0     C54250   7.749   9.742   5.840  0.4428  0.4247  0.6073
  394MOL0     N54251   7.775   9.881   5.864  0.3766 -0.6633  0.3337
  394MOL0     C54252   7.787   9.975   5.765  0.1157  0.7852  0.2287
  394MOL0     C54253   7.802  10.093   5.830 -0.0063 -0.8451 -0.2181
  394MOL0     C54254   7.844  10.228   5.773 -0.0280 -1.1857 -0.5820
  394MOL0     C54255   7.997  10.237   5.788 -0.2457  0.0290  0.6356
  394MOL0     C54256   8.059  10.382   5.778 -0.2431 -0.4660 -0.1082
  394MOL0     C54257   8.194  10.389   5.853 -0.2238  1.1298  0.4073
  394MOL0     O54258   8.193  10.354   5.991  0.8279  0.1800 -0.5555
  394MOL0     C54259   8.310  10.312   6.046 -0.3327 -0.2718  0.0140
  394MOL0     C54260   8.371  10.200   5.991  0.4818  0.2185  0.5470
  394MOL0     C54261   8.485  10.143   6.049  0.1337  0.0538 -0.5737
  394MOL0     C54262   8.541  10.020   5.975  0.4939 -0.2299  0.0161
  394MOL0     C54263   8.547  10.206   6.159  0.3247  0.2941 -1.0656
  394MOL0     C54264   8.684  10.172   6.220  0.1097 -0.3330  0.0792
  394MOL0     O54265   8.762  10.078   6.149  0.0401  0.8205 -0.4858
  394MOL0     C54266   8.886  10.048   6.208 -0.0650  0.4580 -0.1067
  394MOL0     C54267   9.002  10.071   6.132 -0.4004  0.5038  0.3289
  394MOL0     C54268   9.136  10.058   6.173  0.9042 -0.0389 -0.3856
  394MOL0     C54269   9.154  10.002   6.300 -0.3168  0.4310  0.5431
  394MOL0     O54270   9.287  10.001   6.343  0.0336 -0.2359 -0.1048
  394MOL0     C54271   9.332   9.920   6.454 -0.4120  0.1281 -0.1439
  394MOL0     C54272   9.483   9.919   6.455  0.3368  0.8684  0.7777
  394MOL0     C54273   9.553  10.061   6.447  1.2478  0.1269  0.1811
  394MOL0     C54274   9.707  10.056   6.482 -0.6299  0.3711  0.6936
  394MOL0     C54275   9.785  10.176   6.426 -0.3572 -0.3293  0.0363
  394MOL0     C54276   9.933  10.141   6.425 -0.2071 -0.0029  0.0165
  394MOL0     C54277  10.021  10.270   6.397  0.2153 -0.4584 -0.4939
  394MOL0     C54278  10.038  10.304   6.252  0.2208  0.5123  0.3718
  394MOL0    Cl54279  10.135  10.166   6.176  0.0991  0.2548  0.3602
  394MOL0     C54280   9.048   9.954   6.374  0.5885  0.2726  0.2963
  394MOL0     C54281   8.913   9.971   6.325 -0.7187 -0.4138 -0.1378
  394MOL0     O54282   8.713  10.224   6.329 -0.5903 -0.0715  0.0821
  394MOL0     C54283   8.489  10.322   6.210  0.1849 -0.0641  0.0673
  394MOL0     C54284   8.364  10.370   6.161  0.4575  0.1368  0.2338
  394MOL0     N54285   7.789  10.069   5.967  0.3723 -0.3095  0.6411
  394MOL0     N54286   7.760   9.943   5.983  0.4209  0.5294  0.6426
  394MOL0     C54287   7.725   8.829   6.193 -0.4932  0.2887  0.9130
  394MOL0     C54288   7.636   8.722   6.201 -0.6745 -0.2994  0.0615
  394MOL0     C54289   7.231   8.507   6.163 -0.3577  0.4711  0.5007
  394MOL0     C54290   7.211   8.440   6.291  0.1583 -0.5601  0.7654
  394MOL0     C54291   7.107   8.350   6.306 -0.7950 -0.3369 -0.1818
  394MOL0     C54292   7.011   8.325   6.205  0.2337  0.2099 -0.1817
  394MOL0     O54293   6.913   8.235   6.246  0.2057 -0.5395  0.2925
  394MOL0     C54294   6.786   8.245   6.176 -0.8650 -0.0228  0.4321
  394MOL0     C54295   6.688   8.168   6.262 -0.0479  1.4890  0.0546
  394MOL0     C54296   6.546   8.196   6.213  0.6361  0.0447 -0.7045
  394MOL0     C54297   6.423   8.150   6.305 -1.0539  0.2916  0.4163
  394MOL0     C54298   6.427   8.006   6.339  0.9215  0.2160  0.6409
  394MOL0     C54299   6.425   7.895   6.389  0.0486  0.3560  0.7637
  394MOL0     C54300   7.024   8.393   6.085  0.8770  0.2754  0.6852
  394MOL0     C54301   7.134   8.483   6.064 -0.5856  0.4616  0.0340
  394MOL0     C54302   7.155   8.534   5.924 -0.7512  0.1089  0.4268
  394MOL0     H54303   7.389   8.858   6.385 -2.2528 -0.4801 -2.9475
  394MOL0     H54304   7.536   9.055   6.371 -0.8130 -0.6591  0.9452
  394MOL0     H54305   7.895   9.028   6.092 -0.1768 -1.5593  1.3942
  394MOL0     H54306   7.961   9.063   6.257 -0.8958 -3.2542 -0.2085
  394MOL0     H54307   7.883   9.307   6.195 -0.3988  1.2929 -0.8492
  394MOL0     H54308   8.016   9.247   6.101 -0.7145 -0.0250 -2.3784
  394MOL0     H54309   7.840   9.155   5.915  0.0376  2.2199 -2.4032
  394MOL0     H54310   7.726   9.246   6.011  0.7381 -0.1059  1.6119
  394MOL0     H54311   7.913   9.439   5.980 -2.3723 -0.0423  0.8409
  394MOL0     H54312   7.986   9.338   5.863 -0.3938 -1.0957 -2.3132
  394MOL0     H54313   7.719   9.468   5.871  0.0991 -0.6902 -1.2056
  394MOL0     H54314   7.749   9.347   5.738  1.5895  0.5767 -2.8139
  394MOL0     H54315   7.936   9.525   5.656 -2.0985 -3.2451 -0.5692
  394MOL0     H54316   7.785   9.596   5.644 -0.9992 -1.0075 -0.2715
  394MOL0     H54317   7.959   9.736   5.772  1.1612  0.5895  4.1932
  394MOL0     H54318   7.929   9.641   5.911 -2.0412  0.9823  2.2151
  394MOL0     H54319   7.675   9.735   5.760  0.4286 -1.3076  0.7267
  394MOL0     H54320   7.705   9.705   5.933  2.0863  0.6132  1.5124
  394MOL0     H54321   7.793   9.960   5.658 -1.7309  1.5286 -0.0147
  394MOL0     H54322   7.792  10.305   5.831  1.1103 -1.3214  0.6680
  394MOL0     H54323   7.812  10.234   5.668 -2.3736  0.7048  0.1737
  394MOL0     H54324   8.014  10.200   5.889  0.9879  2.5419  1.4320
  394MOL0     H54325   8.047  10.168   5.719  2.1653  2.6198 -0.4529
  394MOL0     H54326   8.071  10.412   5.674 -2.0360 -0.8061 -0.4396
  394MOL0     H54327   8.002  10.458   5.833  0.5561 -2.0142  3.1242
  394MOL0     H54328   8.275  10.338   5.799 -0.5119  0.1839  0.8381
  394MOL0     H54329   8.219  10.495   5.843 -1.1285  1.1747 -2.4138
  394MOL0     H54330   8.318  10.149   5.911  1.1437  0.3781 -0.0077
  394MOL0     H54331   8.464   9.978   5.911  1.2237  0.2212 -1.1912
  394MOL0     H54332   8.581   9.944   6.042  0.7378 -0.8924 -0.8664
  394MOL0     H54333   8.621  10.050   5.906  1.1186 -1.3970  0.2024
  394MOL0     H54334   8.977  10.108   6.033 -1.4498 -2.4109 -0.5919
  394MOL0     H54335   9.218  10.070   6.103  1.0243 -3.1029 -0.8813
  394MOL0     H54336   9.305   9.951   6.555  3.7524 -1.1780  1.5877
  394MOL0     H54337   9.291   9.820   6.438  2.6427 -1.4845  1.3192
  394MOL0     H54338   9.515   9.888   6.555 -0.8831  0.1545  0.9578
  394MOL0     H54339   9.525   9.851   6.380  1.1482  1.0369  1.0622
  394MOL0     H54340   9.495  10.120   6.518 -0.2798 -1.2051  0.0848
  394MOL0     H54341   9.537  10.090   6.343 -3.4921 -0.8327  0.4274
  394MOL0     H54342   9.738   9.969   6.425 -1.6018  1.3202 -1.3825
  394MOL0     H54343   9.736  10.041   6.587 -2.0841 -4.1701  0.6373
  394MOL0     H54344   9.751  10.208   6.327 -0.2302  0.2604  0.1780
  394MOL0     H54345   9.759  10.266   6.482 -0.4233 -1.5436  2.0353
  394MOL0     H54346   9.955  10.069   6.346 -0.5760 -1.0468  0.8427
  394MOL0     H54347   9.954  10.086   6.518 -3.0384 -0.4232  0.4944
  394MOL0     H54348  10.118  10.259   6.446 -0.8197 -0.6843  1.6278
  394MOL0     H54349   9.969  10.358   6.436  1.0798 -0.1990  0.1044
  394MOL0     H54350  10.073  10.406   6.235 -0.9599  0.8955  0.1693
  394MOL0     H54351   9.945  10.314   6.196 -0.0651  1.5985  1.0104
  394MOL0     H54352   9.065   9.897   6.465 -2.0466  1.2872  1.5247
  394MOL0     H54353   8.832   9.937   6.389 -0.0706  0.0517  0.9566
  394MOL0     H54354   8.541  10.382   6.285  1.9163 -2.9990  1.3968
  394MOL0     H54355   8.325  10.463   6.200  2.6316  1.0477  0.3359
  394MOL0     H54356   7.814   8.823   6.132 -1.8097  0.8478 -1.1895
  394MOL0     H54357   7.662   8.628   6.153  0.4072  1.3094 -2.7774
  394MOL0     H54358   7.263   8.458   6.384 -0.6559 -1.5427  1.4356
  394MOL0     H54359   7.106   8.300   6.402 -0.3947 -1.0252 -0.5302
  394MOL0     H54360   6.747   8.343   6.144  1.0123  0.7034  0.2281
  394MOL0     H54361   6.793   8.197   6.078 -4.4874  1.3461 -0.7069
  394MOL0     H54362   6.699   8.196   6.367 -0.0864 -0.2900  0.5653
  394MOL0     H54363   6.708   8.061   6.251 -0.1276  1.5032 -0.2633
  394MOL0     H54364   6.534   8.305   6.213  0.6560  0.1669  3.1271
  394MOL0     H54365   6.530   8.158   6.112 -3.6898  0.1915 -0.2821
  394MOL0     H54366   6.335   8.168   6.243 -0.2024  0.7467 -0.6879
  394MOL0     H54367   6.425   8.197   6.404  0.1550 -3.8541  2.6259
  394MOL0     H54368   6.436   7.797   6.430  0.2372 -0.9046 -2.0421
  394MOL0     H54369   6.956   8.380   6.001 -0.7994 -0.3307  2.0640
  394MOL0     H54370   7.095   8.626   5.927 -1.3595 -0.2422 -0.6272
  394MOL0     H54371   7.253   8.561   5.884  0.6616  0.3081  3.6925
  394MOL0     H54372   7.110   8.458   5.860 -3.8243 -0.1202  2.6105
  395MOL0     O54373   9.768   2.262   9.452 -0.4569 -0.5138  0.5796
  395MOL0     C54374   9.759   2.142   9.476  0.5996  0.7197 -0.9073
  395MOL0     O54375   9.651   2.095   9.548  0.2458  0.3082  0.3285
  395MOL0     C54376   9.576   2.160   9.632  0.1794  0.4761 -0.3369
  395MOL0     C54377   9.440   2.144   9.640 -0.3559  0.4971 -0.2206
  395MOL0     C54378   9.365   2.221   9.726 -0.4510 -0.5294  0.1355
  395MOL0     C54379   9.417   2.321   9.813 -0.8491  0.4212  0.2597
  395MOL0     O54380   9.345   2.391   9.910  0.3979 -0.0055 -0.0781
  395MOL0     C54381   9.204   2.411   9.902 -0.9422  0.2385 -0.5663
  395MOL0     C54382   9.161   2.510  10.015 -0.4609  0.6593 -0.2136
  395MOL0     C54383   9.204   2.474  10.161 -0.0904 -0.4861  0.6336
  395MOL0     C54384   9.307   2.564  10.213 -0.2340 -0.6607 -0.5150
  395MOL0     C54385   9.453   2.536  10.162  0.6850  0.1771  0.1180
  395MOL0     C54386   9.563   2.616  10.223  0.7603  0.7740 -0.4887
  395MOL0     C54387   9.695   2.585  10.168 -0.9365 -0.0052  0.3518
  395MOL0     C54388   9.753   2.440  10.196  0.7458  0.1197 -0.6096
  395MOL0     N54389   9.892   2.445  10.148 -0.0617  0.7843  0.0689
  395MOL0     C54390   9.993   2.454  10.234 -0.6035  0.0220 -1.0834
  395MOL0     C54391  10.107   2.465  10.162 -0.2947 -0.8209 -0.5042
  395MOL0     C54392  10.252   2.471  10.214 -0.0277  0.2535  0.2504
  395MOL0     C54393  10.338   2.343  10.172  0.2878  0.6663 -0.3492
  395MOL0     C54394  10.482   2.374  10.137  1.0139 -0.8691 -0.5657
  395MOL0     C54395  10.486   2.447  10.007 -0.9347  0.3626 -0.5051
  395MOL0     O54396  10.618   2.430   9.951 -0.4405  0.1172 -0.0336
  395MOL0     C54397  10.728   2.486  10.010  0.5097  0.3383  0.3699
  395MOL0     C54398  10.845   2.419   9.977 -0.1783 -0.2114  0.3133
  395MOL0     C54399  10.963   2.463  10.040 -0.2632  0.3669  0.0496
  395MOL0     C54400  11.085   2.392  10.002  0.5323  0.1440  0.5866
  395MOL0     C54401  10.955   2.577  10.127 -0.1477 -0.1805  0.6753
  395MOL0     C54402  11.081   2.632  10.192 -0.7855  0.0601  0.4909
  395MOL0     O54403  11.072   2.716  10.307 -0.0410 -0.2759  0.1925
  395MOL0     C54404  11.186   2.764  10.371  0.1348  0.6095 -0.3328
  395MOL0     C54405  11.258   2.853  10.301  0.6683 -1.2996 -0.1074
  395MOL0     C54406  11.364   2.924  10.363 -0.0676 -0.5751 -0.8803
  395MOL0     C54407  11.387   2.902  10.502  0.0458 -0.6799 -0.0214
  395MOL0     O54408  11.487   2.986  10.557 -0.2140 -0.0770  0.0846
  395MOL0     C54409  11.495   3.002  10.699  0.1301 -0.2620  0.0331
  395MOL0     C54410  11.570   2.881  10.760  0.1717 -0.4948 -0.4261
  395MOL0     C54411  11.721   2.890  10.750  0.1886 -0.0422  0.3127
  395MOL0     C54412  11.786   2.756  10.771  0.7370  1.0452  0.0195
  395MOL0     C54413  11.932   2.745  10.792 -0.7318  0.5119  0.6009
  395MOL0     C54414  11.986   2.608  10.749 -0.3570  0.1933  0.3302
  395MOL0     C54415  12.123   2.588  10.812  0.1109 -0.4236  0.1420
  395MOL0     C54416  12.116   2.482  10.920  0.4876 -0.1705  0.4941
  395MOL0    Cl54417  12.105   2.326  10.833  0.4865 -0.0101  0.3645
  395MOL0     C54418  11.306   2.814  10.572 -0.0146  0.1126 -0.2747
  395MOL0     C54419  11.212   2.736  10.504 -0.4274  0.0703 -0.3474
  395MOL0     O54420  11.186   2.608  10.132 -0.4992  0.0227 -0.7292
  395MOL0     C54421  10.835   2.637  10.156  0.5780 -0.1343  0.2766
  395MOL0     C54422  10.723   2.595  10.091  0.2183  0.7589 -0.6077
  395MOL0     N54423  10.062   2.450  10.031 -0.5437  0.3899  0.4419
  395MOL0     N54424   9.935   2.445  10.018  0.6919  0.3370 -0.3978
  395MOL0     C54425   9.552   2.341   9.795  0.4289 -0.1597 -0.3277
  395MOL0     C54426   9.630   2.266   9.706  0.4183  0.8667  0.6810
  395MOL0     C54427   9.878   2.047   9.459 -0.8964 -0.2437  0.7359
  395MOL0     C54428   9.985   2.076   9.375 -1.3625 -0.1305  1.4815
  395MOL0     C54429  10.099   1.998   9.354 -0.2264  0.6632  0.1953
  395MOL0     C54430  10.111   1.876   9.424 -0.6787 -0.1485 -0.3780
  395MOL0     O54431  10.216   1.785   9.411 -0.4123 -0.5008  0.2582
  395MOL0     C54432  10.332   1.838   9.354 -1.2915 -0.0202 -0.7015
  395MOL0     C54433  10.444   1.737   9.386  0.0128 -0.2131  0.3035
  395MOL0     C54434  10.460   1.697   9.533 -0.6016 -0.2965 -0.1753
  395MOL0     C54435  10.576   1.594   9.541 -0.3231  0.1228  0.7615
  395MOL0     C54436  10.707   1.651   9.540 -0.6778  0.2144  0.0230
  395MOL0     C54437  10.819   1.682   9.569  0.0495 -0.0546 -0.0329
  395MOL0     C54438  10.005   1.835   9.507  0.2490 -0.1923  0.9484
  395MOL0     C54439   9.891   1.926   9.529 -0.3479  0.6618  0.1176
  395MOL0     C54440   9.787   1.858   9.618 -1.5340  0.3010  0.2737
  395MOL0     H54441   9.389   2.066   9.585 -1.2760  0.3823  0.7700
  395MOL0     H54442   9.267   2.179   9.744  0.6028 -2.4904  1.8264
  395MOL0     H54443   9.158   2.317   9.936 -0.8568  0.0855 -0.8709
  395MOL0     H54444   9.169   2.451   9.807 -1.7550  0.1899 -0.2941
  395MOL0     H54445   9.203   2.610   9.994 -2.0425  2.2633  3.4461
  395MOL0     H54446   9.052   2.522  10.017 -0.7581 -1.5907 -0.6123
  395MOL0     H54447   9.108   2.475  10.215 -2.4736 -0.9677 -3.1849
  395MOL0     H54448   9.227   2.367  10.168 -1.3523 -0.9233 -1.1138
  395MOL0     H54449   9.283   2.670  10.203 -0.3735 -0.6868 -0.4535
  395MOL0     H54450   9.320   2.550  10.321  0.5503  2.1868 -0.1404
  395MOL0     H54451   9.464   2.547  10.054  1.4582 -0.6253  0.0966
  395MOL0     H54452   9.467   2.429  10.179  1.9648  0.3287  0.1402
  395MOL0     H54453   9.544   2.724  10.221 -3.5340  0.2042 -0.1525
  395MOL0     H54454   9.565   2.601  10.331 -1.5470  0.9487 -0.3694
  395MOL0     H54455   9.769   2.654  10.209 -0.2213 -1.8511  2.3673
  395MOL0     H54456   9.702   2.592  10.059 -0.3111  0.4658  0.4171
  395MOL0     H54457   9.760   2.424  10.304  3.7129  2.2751 -0.3538
  395MOL0     H54458   9.684   2.371  10.148 -0.9135  2.0309 -1.1186
  395MOL0     H54459   9.965   2.449  10.339 -3.0430 -0.1308 -1.6700
  395MOL0     H54460  10.267   2.487  10.321 -1.0979  3.1933  0.0441
  395MOL0     H54461  10.297   2.563  10.175  0.6026  0.7784  2.0916
  395MOL0     H54462  10.347   2.282  10.263 -0.8350  2.7052  1.2152
  395MOL0     H54463  10.288   2.281  10.098 -1.2191 -0.2635  1.3574
  395MOL0     H54464  10.530   2.425  10.221  1.5585 -0.6886 -0.9885
  395MOL0     H54465  10.527   2.278  10.111  1.3582 -1.0897  0.7433
  395MOL0     H54466  10.427   2.395   9.932 -0.8579 -2.1714  1.0603
  395MOL0     H54467  10.453   2.551  10.005 -0.4616  0.6227 -5.0080
  395MOL0     H54468  10.841   2.334   9.910  2.6846 -0.4895  0.3651
  395MOL0     H54469  11.063   2.303   9.941 -0.4661  1.9815 -1.8939
  395MOL0     H54470  11.139   2.360  10.092  0.1907  0.0171  0.7471
  395MOL0     H54471  11.148   2.450   9.934 -0.7908 -0.8396 -1.6237
  395MOL0     H54472  11.236   2.872  10.196  0.7125  2.1895  0.3968
  395MOL0     H54473  11.424   3.005  10.323 -3.2418  2.6737  0.4219
  395MOL0     H54474  11.555   3.092  10.715  0.1695 -0.3956  0.6288
  395MOL0     H54475  11.397   3.022  10.744  0.6003  0.6579  0.6712
  395MOL0     H54476  11.542   2.872  10.865  0.3975 -0.7946 -0.3911
  395MOL0     H54477  11.548   2.787  10.708  0.1664 -0.7967  0.1182
  395MOL0     H54478  11.766   2.958  10.824  0.8038 -1.7383  1.5741
  395MOL0     H54479  11.744   2.928  10.650 -1.6111  1.5713  0.4734
  395MOL0     H54480  11.745   2.696  10.688  0.9603  1.0396 -0.0866
  395MOL0     H54481  11.736   2.704  10.854 -0.7446 -0.9445 -1.9775
  395MOL0     H54482  11.981   2.828  10.741 -1.9616  0.7099 -0.3003
  395MOL0     H54483  11.954   2.748  10.899  1.6081 -1.4697  0.2691
  395MOL0     H54484  11.986   2.602  10.639 -1.7108 -1.1903  0.3830
  395MOL0     H54485  11.920   2.528  10.783 -0.7124 -0.8126 -2.4290
  395MOL0     H54486  12.161   2.683  10.850  0.1495 -1.4806  3.0162
  395MOL0     H54487  12.196   2.543  10.745  2.0098 -2.1697  3.1525
  395MOL0     H54488  12.027   2.490  10.984 -1.3286 -2.4888 -1.5404
  395MOL0     H54489  12.207   2.492  10.980  1.9166  1.4569 -1.7988
  395MOL0     H54490  11.336   2.798  10.675  2.2941  2.9161 -0.3843
  395MOL0     H54491  11.134   2.682  10.557  1.2740  1.5504  4.1778
  395MOL0     H54492  10.824   2.722  10.222 -0.2463 -1.0918  1.4116
  395MOL0     H54493  10.622   2.630  10.108 -1.5714 -3.0983 -1.9219
  395MOL0     H54494   9.603   2.420   9.848 -0.8218  0.5147 -0.0807
  395MOL0     H54495   9.731   2.305   9.697 -0.1086  1.8706 -2.4595
  395MOL0     H54496   9.973   2.158   9.304 -0.0884 -1.1921 -0.0278
  395MOL0     H54497  10.176   2.025   9.283  1.5677  0.8772  2.1489
  395MOL0     H54498  10.324   1.845   9.245 -1.9114  2.6017 -0.5329
  395MOL0     H54499  10.355   1.937   9.393  2.9643 -0.5017 -1.4046
  395MOL0     H54500  10.540   1.765   9.340 -1.1267  2.6984 -0.5049
  395MOL0     H54501  10.426   1.646   9.329 -0.7319  1.3823 -2.1649
  395MOL0     H54502  10.482   1.789   9.587  2.5110 -0.7038 -0.5454
  395MOL0     H54503  10.364   1.653   9.561  0.0533 -0.3822  2.0881
  395MOL0     H54504  10.578   1.533   9.450  2.1179  1.0902  0.0977
  395MOL0     H54505  10.566   1.532   9.631 -1.6692  0.9012  1.1824
  395MOL0     H54506  10.911   1.725   9.605 -0.2118 -0.9815  1.8537
  395MOL0     H54507  10.021   1.734   9.544  1.0466 -0.3644  0.1746
  395MOL0     H54508   9.823   1.760   9.650  1.6085  1.7898  1.7941
  395MOL0     H54509   9.779   1.910   9.714  3.2715 -1.3143  1.8641
  395MOL0     H54510   9.695   1.843   9.561 -0.9398 -0.0699 -0.6215
  396MOL0     O54511   9.501   9.166   0.169  0.6261  0.2994 -0.2155
  396MOL0     C54512   9.416   9.076   0.188  0.3003  0.3161  0.8765
  396MOL0     O54513   9.440   8.948   0.228 -0.3523  0.1182 -0.0449
  396MOL0     C54514   9.557   8.913   0.289 -0.3845 -0.0308 -0.4047
  396MOL0     C54515   9.628   8.802   0.245 -0.1922  0.3812  0.6384
  396MOL0     C54516   9.738   8.767   0.322  0.4393  0.3001  0.3621
  396MOL0     C54517   9.787   8.838   0.426  0.6595  0.3338 -0.6547
  396MOL0     O54518   9.897   8.782   0.491  0.1201  0.7301 -0.1668
  396MOL0     C54519   9.994   8.871   0.551 -0.0984 -0.1794  0.4680
  396MOL0     C54520   9.999   8.878   0.715 -0.3100  0.1124  0.0377
  396MOL0     C54521  10.058   8.755   0.765  0.4155  0.5730 -0.7824
  396MOL0     C54522  10.201   8.729   0.737 -0.0783  0.7935  0.1760
  396MOL0     C54523  10.236   8.580   0.777  0.3488 -0.0519 -0.3686
  396MOL0     C54524  10.387   8.564   0.771  0.0531  0.2897 -0.0675
  396MOL0     C54525  10.457   8.603   0.908  0.1292 -0.1903  0.5059
  396MOL0     C54526  10.418   8.522   1.030 -1.0298 -0.4407 -0.5607
  396MOL0     N54527  10.511   8.545   1.135 -0.1018  0.3379 -0.6157
  396MOL0     C54528  10.611   8.457   1.173 -0.3785  0.6358 -0.6075
  396MOL0     C54529  10.672   8.521   1.271 -0.9367  0.0149  0.5111
  396MOL0     C54530  10.780   8.475   1.357  0.6103 -0.3928  0.7683
  396MOL0     C54531  10.913   8.482   1.288  0.0254 -0.2434  0.0786
  396MOL0     C54532  11.040   8.411   1.357  0.5417  0.6397 -0.5854
  396MOL0     C54533  11.092   8.490   1.487 -0.1415 -0.0692  0.1148
  396MOL0     O54534  11.141   8.620   1.447 -0.6320  0.2791 -0.2626
  396MOL0     C54535  11.227   8.682   1.532 -0.4299 -0.7450  0.6169
  396MOL0     C54536  11.272   8.806   1.485 -0.0360  0.1467  0.3175
  396MOL0     C54537  11.367   8.877   1.554 -0.6121 -0.0856  0.3642
  396MOL0     C54538  11.395   9.016   1.507  0.5335  0.4052  0.3738
  396MOL0     C54539  11.419   8.826   1.673 -0.1665  0.7695  0.6758
  396MOL0     C54540  11.531   8.890   1.745 -0.0351 -0.2080 -0.1961
  396MOL0     O54541  11.627   8.954   1.667 -0.6208  0.6349  0.1365
  396MOL0     C54542  11.704   9.034   1.737 -0.1446 -0.4275 -0.4590
  396MOL0     C54543  11.844   9.035   1.708  0.2213 -0.5406 -1.2667
  396MOL0     C54544  11.923   9.124   1.787  1.0654 -0.9829  0.7003
  396MOL0     C54545  11.870   9.218   1.878 -0.2236  0.2032 -0.7182
  396MOL0     O54546  11.949   9.301   1.954  0.4495  0.7815 -0.0852
  396MOL0     C54547  12.083   9.329   1.913 -0.5457 -0.0023  0.8591
  396MOL0     C54548  12.136   9.451   1.990  1.1824 -0.0795 -0.4995
  396MOL0     C54549  12.290   9.460   1.992  0.1238  0.1188 -0.1342
  396MOL0     C54550  12.332   9.577   2.092 -0.5540  0.9762 -0.1854
  396MOL0     C54551  12.483   9.577   2.111  0.0505  0.7478 -0.1529
  396MOL0     C54552  12.540   9.448   2.168  0.1103  0.5480  0.1719
  396MOL0     C54553  12.676   9.478   2.228  0.5321  0.1279 -0.2016
  396MOL0     C54554  12.763   9.358   2.246 -0.5995  0.1300  0.6623
  396MOL0    Cl54555  12.919   9.403   2.314 -0.2072  0.6691  0.3147
  396MOL0     C54556  11.734   9.224   1.892 -0.0621  0.6219 -0.0923
  396MOL0     C54557  11.652   9.143   1.818 -0.2995 -0.1877  0.8440
  396MOL0     O54558  11.531   8.873   1.866  0.2410  0.0765 -0.2052
  396MOL0     C54559  11.367   8.706   1.720 -0.2701  0.5587  0.2535
  396MOL0     C54560  11.274   8.625   1.652 -0.2651 -0.8327 -0.9266
  396MOL0     N54561  10.627   8.649   1.282  0.6183 -0.8105 -0.6087
  396MOL0     N54562  10.524   8.657   1.209 -0.5435  0.4096 -0.3365
  396MOL0     C54563   9.717   8.952   0.468  0.2369 -0.5631  0.4924
  396MOL0     C54564   9.602   8.987   0.404 -0.4268  0.4341 -0.0387
  396MOL0     C54565   9.278   9.114   0.141 -0.4060  0.0276 -0.6841
  396MOL0     C54566   9.206   9.010   0.081 -0.6772  0.0975 -0.4380
  396MOL0     C54567   9.087   9.037   0.023  1.0124 -0.4416 -0.1595
  396MOL0     C54568   9.029   9.164   0.030  0.4109 -0.4966  0.1803
  396MOL0     O54569   8.903   9.186  -0.018  0.2253 -0.7648 -0.3289
  396MOL0     C54570   8.814   9.228   0.085 -0.4804 -0.4164  0.9262
  396MOL0     C54571   8.738   9.101   0.140 -0.6087 -0.1016  0.4173
  396MOL0     C54572   8.681   9.024   0.027 -0.1802  1.1038  0.0899
  396MOL0     C54573   8.541   8.965   0.054 -0.0715 -0.4336  0.1990
  396MOL0     C54574   8.486   8.908  -0.068  0.1011  0.3702  0.4041
  396MOL0     C54575   8.438   8.862  -0.170  0.4558 -0.2611  0.7767
  396MOL0     C54576   9.102   9.275   0.086  0.6921 -0.3774  0.3361
  396MOL0     C54577   9.224   9.248   0.135  0.3637 -0.5796 -0.2611
  396MOL0     C54578   9.289   9.366   0.203  0.1337 -0.4119 -0.1398
  396MOL0     H54579   9.606   8.739   0.159  0.4346  0.4169  0.4428
  396MOL0     H54580   9.795   8.681   0.289 -0.0599  0.0714  0.0765
  396MOL0     H54581   9.980   8.971   0.510  2.7567  1.5522  3.2606
  396MOL0     H54582  10.089   8.828   0.517 -1.9908 -3.3060 -1.3668
  396MOL0     H54583  10.071   8.952   0.749  2.4895 -2.8028  0.9020
  396MOL0     H54584   9.896   8.881   0.754 -0.4500 -1.1328 -0.2034
  396MOL0     H54585  10.051   8.756   0.874 -0.5147 -3.1462 -0.6501
  396MOL0     H54586  10.000   8.668   0.732 -0.1966  0.6979 -0.0651
  396MOL0     H54587  10.228   8.742   0.632  2.5413  3.2809  1.0411
  396MOL0     H54588  10.255   8.800   0.799 -2.3200  0.8952  2.1478
  396MOL0     H54589  10.192   8.510   0.705 -3.1213  1.7477 -0.2063
  396MOL0     H54590  10.204   8.552   0.878  3.1277 -0.5761  0.4554
  396MOL0     H54591  10.417   8.465   0.734 -1.3008 -0.4812  0.8140
  396MOL0     H54592  10.428   8.638   0.702 -0.2506  1.2560  0.7626
  396MOL0     H54593  10.430   8.708   0.922 -3.3834 -0.6550 -1.4919
  396MOL0     H54594  10.562   8.585   0.882 -0.7532 -2.6315 -1.9465
  396MOL0     H54595  10.324   8.554   1.076 -0.5889 -0.4578  0.3799
  396MOL0     H54596  10.425   8.416   1.002  0.6689  0.0179 -2.0150
  396MOL0     H54597  10.641   8.365   1.123 -1.7639  0.3884 -1.0317
  396MOL0     H54598  10.762   8.370   1.383 -0.9814 -1.5466 -3.9437
  396MOL0     H54599  10.777   8.539   1.445  0.9325  0.8403 -0.0912
  396MOL0     H54600  10.905   8.434   1.190  0.3981  2.3357 -1.3026
  396MOL0     H54601  10.935   8.587   1.268  1.7520 -0.7105 -0.6349
  396MOL0     H54602  11.017   8.311   1.394 -0.1675  1.0833  0.2170
  396MOL0     H54603  11.116   8.401   1.279  1.8175  1.1057  0.5571
  396MOL0     H54604  11.010   8.510   1.557 -0.4833  0.3086 -0.3889
  396MOL0     H54605  11.163   8.422   1.535 -2.3079 -1.1004  2.0340
  396MOL0     H54606  11.245   8.822   1.381  2.7652 -0.2822 -0.5641
  396MOL0     H54607  11.487   9.014   1.447  0.0257  0.7985 -0.4404
  396MOL0     H54608  11.396   9.086   1.592 -0.8474  1.5880 -0.5220
  396MOL0     H54609  11.320   9.060   1.441  0.5155  2.6768  1.8023
  396MOL0     H54610  11.883   8.956   1.645 -0.0609 -0.2734 -1.7811
  396MOL0     H54611  12.032   9.117   1.787  1.2444  1.0642  1.6598
  396MOL0     H54612  12.144   9.240   1.928  1.0551  0.9951  0.4606
  396MOL0     H54613  12.077   9.361   1.809 -4.1842  1.1162  1.2589
  396MOL0     H54614  12.096   9.547   1.957  2.8483  1.3977  1.5607
  396MOL0     H54615  12.098   9.437   2.092 -1.7161 -4.9823 -1.8995
  396MOL0     H54616  12.330   9.495   1.897 -0.1330 -1.2935 -0.7815
  396MOL0     H54617  12.331   9.363   2.021 -1.3840 -0.3096  0.6673
  396MOL0     H54618  12.283   9.574   2.190  1.5904 -2.2711  0.9382
  396MOL0     H54619  12.321   9.673   2.041 -1.0729  0.1206 -1.7585
  396MOL0     H54620  12.520   9.586   2.008 -1.7762 -0.7711 -1.0031
  396MOL0     H54621  12.516   9.666   2.166 -0.5132  1.3462 -0.7795
  396MOL0     H54622  12.537   9.374   2.088 -4.2590  0.9453 -0.2540
  396MOL0     H54623  12.478   9.399   2.243  1.4704 -2.6424 -0.6478
  396MOL0     H54624  12.668   9.526   2.326  0.9519  1.2536 -0.6971
  396MOL0     H54625  12.739   9.548   2.173  1.8372 -0.9664 -0.1560
  396MOL0     H54626  12.765   9.317   2.145 -0.7407  2.7637 -0.5054
  396MOL0     H54627  12.709   9.291   2.313 -1.8252 -1.9559 -2.1888
  396MOL0     H54628  11.685   9.294   1.959 -2.3488 -0.0323 -0.9942
  396MOL0     H54629  11.552   9.182   1.802  0.4263  0.9373 -1.4519
  396MOL0     H54630  11.415   8.659   1.806 -0.6499  2.3945  1.5267
  396MOL0     H54631  11.234   8.539   1.704  0.4183  0.5426  2.0979
  396MOL0     H54632   9.730   9.011   0.558  2.7312 -0.3143  0.0419
  396MOL0     H54633   9.534   9.065   0.438 -2.0082 -1.1731  0.6615
  396MOL0     H54634   9.253   8.912   0.077  1.7922  0.9623  2.9896
  396MOL0     H54635   9.026   8.958  -0.020  1.7874 -0.0285 -2.1053
  396MOL0     H54636   8.864   9.271   0.172  2.5938  0.6929 -1.2345
  396MOL0     H54637   8.743   9.302   0.047  0.4826  1.1144  2.0001
  396MOL0     H54638   8.660   9.132   0.209  0.5166  0.7938  1.3312
  396MOL0     H54639   8.806   9.034   0.194  1.8020  2.3412  0.5846
  396MOL0     H54640   8.671   9.092  -0.058  0.4480 -0.0210 -0.8960
  396MOL0     H54641   8.747   8.941   0.000 -0.0010  0.5766  1.9811
  396MOL0     H54642   8.463   9.034   0.089 -0.1823  0.2421 -1.3213
  396MOL0     H54643   8.555   8.889   0.132 -2.0834  1.2008  2.3105
  396MOL0     H54644   8.404   8.836  -0.268  1.6781 -3.0126  0.9885
  396MOL0     H54645   9.059   9.375   0.082 -0.6973 -0.9375  0.3955
  396MOL0     H54646   9.368   9.407   0.139  0.7866  0.0450  0.9445
  396MOL0     H54647   9.221   9.450   0.220 -0.1525 -0.6249 -0.2263
  396MOL0     H54648   9.336   9.329   0.295  0.3417  2.8352  1.1837
  397MOL0     O54649   2.532   5.506   6.047 -0.2926  0.3981  0.1704
  397MOL0     C54650   2.412   5.526   6.050  0.2223 -1.1547  0.0734
  397MOL0     O54651   2.331   5.522   5.942 -0.4685  0.4490  0.5423
  397MOL0     C54652   2.396   5.501   5.817  0.3362  0.5207 -0.0634
  397MOL0     C54653   2.502   5.572   5.758  0.6875  0.4285 -0.0586
  397MOL0     C54654   2.549   5.559   5.627 -0.1694  0.5599 -0.1311
  397MOL0     C54655   2.482   5.477   5.530 -0.1547  0.0490 -0.3769
  397MOL0     O54656   2.529   5.469   5.402 -0.6305 -0.4063  0.4714
  397MOL0     C54657   2.581   5.337   5.364  0.1213  0.6083  0.0169
  397MOL0     C54658   2.697   5.271   5.434 -0.0382 -0.0478  0.4235
  397MOL0     C54659   2.816   5.370   5.442 -0.4570 -0.9059  0.2958
  397MOL0     C54660   2.927   5.296   5.522  0.1318 -0.2006 -0.2847
  397MOL0     C54661   3.049   5.372   5.569  0.4604 -0.8797 -0.3184
  397MOL0     C54662   3.020   5.487   5.673  0.1378 -0.1269  0.8730
  397MOL0     C54663   3.154   5.529   5.750  0.1542 -0.5856 -0.3668
  397MOL0     C54664   3.247   5.621   5.678 -0.3431 -0.7927 -0.3469
  397MOL0     N54665   3.316   5.712   5.764  0.1932 -0.3526 -0.3615
  397MOL0     C54666   3.373   5.694   5.884 -1.2844  0.9027 -0.0070
  397MOL0     C54667   3.420   5.810   5.931  0.4837 -1.7189  1.1051
  397MOL0     C54668   3.466   5.843   6.068  0.4111 -0.6030  0.4912
  397MOL0     C54669   3.615   5.808   6.105  0.4691  0.0730 -0.5333
  397MOL0     C54670   3.723   5.891   6.030 -0.4418  0.2146 -0.7249
  397MOL0     C54671   3.866   5.852   6.069  0.0311  0.2300  0.1112
  397MOL0     O54672   3.891   5.878   6.206  0.2044 -0.3260  0.4514
  397MOL0     C54673   3.890   6.011   6.256  0.3455  0.3645  0.9838
  397MOL0     C54674   3.883   6.036   6.394 -0.0330 -0.8886  0.3121
  397MOL0     C54675   3.902   6.158   6.449  0.5007  0.1224  0.1975
  397MOL0     C54676   3.884   6.176   6.599 -0.9087  0.6823 -0.2470
  397MOL0     C54677   3.918   6.272   6.373 -0.9285 -0.3363 -0.2023
  397MOL0     C54678   3.948   6.403   6.416  0.4483  0.4290 -0.3878
  397MOL0     O54679   4.034   6.426   6.521  0.1419  0.6081  0.1370
  397MOL0     C54680   4.038   6.549   6.573  0.1566  0.4522  0.1661
  397MOL0     C54681   3.996   6.567   6.702  0.3587  0.0899  0.3932
  397MOL0     C54682   4.014   6.693   6.766  0.3095  0.2393 -0.5737
  397MOL0     C54683   4.075   6.799   6.698  0.7001  0.0752 -0.1500
  397MOL0     O54684   4.104   6.912   6.767 -0.1473 -0.1416  0.7839
  397MOL0     C54685   4.232   6.976   6.742 -0.8180 -0.4227 -0.1659
  397MOL0     C54686   4.280   7.033   6.875 -0.4128 -0.4948  1.2626
  397MOL0     C54687   4.187   7.142   6.923  0.4095  0.1879  0.0841
  397MOL0     C54688   4.230   7.197   7.059  0.3948  0.4586 -0.5109
  397MOL0     C54689   4.139   7.321   7.094 -0.1617 -0.2560 -0.5427
  397MOL0     C54690   4.127   7.342   7.239  0.5845  0.2907  0.8071
  397MOL0     C54691   4.056   7.476   7.291  0.3127 -0.0725 -0.0922
  397MOL0     C54692   4.031   7.469   7.439  0.1980  0.5064 -0.1974
  397MOL0    Cl54693   4.191   7.448   7.525 -0.3803  0.2320  0.0047
  397MOL0     C54694   4.127   6.772   6.567  0.4862 -0.5431  0.6424
  397MOL0     C54695   4.103   6.649   6.501  0.3866 -0.3977 -0.0651
  397MOL0     O54696   3.883   6.493   6.366  0.0748  0.2214 -0.3786
  397MOL0     C54697   3.911   6.256   6.230  0.1019  0.7394 -0.8948
  397MOL0     C54698   3.904   6.126   6.176  0.4747  0.4047  0.8919
  397MOL0     N54699   3.395   5.899   5.826 -0.0936  0.3036  0.4288
  397MOL0     N54700   3.331   5.839   5.735  0.1880  0.5697 -0.0563
  397MOL0     C54701   2.367   5.414   5.581  0.2408  0.8106 -0.4645
  397MOL0     C54702   2.330   5.415   5.720  0.7537 -0.0730 -0.2197
  397MOL0     C54703   2.339   5.552   6.186 -0.8299  0.4141  0.3400
  397MOL0     C54704   2.201   5.535   6.189  0.9533  0.7473 -0.8262
  397MOL0     C54705   2.136   5.538   6.310 -0.5284  0.0648  0.1950
  397MOL0     C54706   2.208   5.574   6.427 -0.7169 -0.4840 -0.4206
  397MOL0     O54707   2.149   5.574   6.550  0.0272  0.1947 -0.0891
  397MOL0     C54708   2.008   5.615   6.562 -0.6374 -0.3082  0.2209
  397MOL0     C54709   1.907   5.510   6.578 -0.3250  0.4113  0.0820
  397MOL0     C54710   1.921   5.411   6.695 -0.4078  0.3181 -0.3520
  397MOL0     C54711   1.803   5.325   6.716  0.3714  0.2026  0.0845
  397MOL0     C54712   1.747   5.269   6.588  1.0535  0.1622 -0.2993
  397MOL0     C54713   1.703   5.221   6.485 -0.4481  1.0518 -0.8246
  397MOL0     C54714   2.345   5.596   6.423  0.2599  0.0242 -0.4999
  397MOL0     C54715   2.417   5.596   6.305  0.5292  0.6764  0.0555
  397MOL0     C54716   2.563   5.624   6.297 -0.1887 -0.4355  0.5179
  397MOL0     H54717   2.547   5.634   5.835  1.9459 -1.0828  0.4778
  397MOL0     H54718   2.637   5.619   5.606 -0.2323  1.4937  1.9517
  397MOL0     H54719   2.611   5.341   5.258  1.3573 -0.6191  0.2900
  397MOL0     H54720   2.502   5.261   5.369 -2.4881  3.2524  2.2565
  397MOL0     H54721   2.660   5.253   5.535 -0.3342  0.9860  0.5095
  397MOL0     H54722   2.742   5.181   5.391  0.4361 -1.1700  3.0705
  397MOL0     H54723   2.845   5.405   5.342  0.4825 -0.7702  0.6033
  397MOL0     H54724   2.775   5.459   5.490 -1.0431 -0.6550 -0.6315
  397MOL0     H54725   2.889   5.250   5.613  4.0754 -0.4497  1.4046
  397MOL0     H54726   2.970   5.218   5.458  2.1881 -0.2975  1.1188
  397MOL0     H54727   3.101   5.415   5.483  0.0885  0.3063  0.0208
  397MOL0     H54728   3.116   5.299   5.616  1.4603  0.0270 -0.2973
  397MOL0     H54729   2.978   5.577   5.627  2.5613  0.3014 -0.6927
  397MOL0     H54730   2.945   5.450   5.743  0.7465 -1.8339  0.6835
  397MOL0     H54731   3.212   5.446   5.792 -1.4805 -1.3894  0.4028
  397MOL0     H54732   3.118   5.586   5.836 -2.0486  0.2400 -1.7363
  397MOL0     H54733   3.320   5.562   5.621  1.9852  0.9280  0.6847
  397MOL0     H54734   3.189   5.681   5.608 -2.6727 -0.6145  1.6100
  397MOL0     H54735   3.371   5.599   5.937 -2.0092  0.3585 -0.9907
  397MOL0     H54736   3.394   5.799   6.137  1.6038  0.5790  2.5977
  397MOL0     H54737   3.454   5.952   6.074 -1.8205 -0.4575 -3.2040
  397MOL0     H54738   3.635   5.830   6.210 -0.9604  0.0860 -0.2438
  397MOL0     H54739   3.635   5.702   6.083  2.8144  0.5170 -0.8333
  397MOL0     H54740   3.712   5.878   5.922 -2.4381  1.1049 -0.6773
  397MOL0     H54741   3.702   5.995   6.058 -2.2529 -1.0271  3.2935
  397MOL0     H54742   3.866   5.742   6.062  0.7424  0.1881  0.7099
  397MOL0     H54743   3.947   5.886   6.004  0.9897 -2.2786 -0.1408
  397MOL0     H54744   3.874   5.948   6.456 -5.6756 -1.1250 -0.2459
  397MOL0     H54745   3.849   6.093   6.661  0.6832 -0.6721 -1.1102
  397MOL0     H54746   3.817   6.260   6.621 -1.2492  0.7813 -1.6147
  397MOL0     H54747   3.984   6.199   6.637 -0.6820  0.9700 -1.0102
  397MOL0     H54748   3.932   6.497   6.755  1.0327  0.0883  1.2209
  397MOL0     H54749   3.984   6.712   6.868  0.3485  1.9768 -0.8504
  397MOL0     H54750   4.313   6.926   6.688  0.0113  2.9060 -2.2964
  397MOL0     H54751   4.199   7.056   6.676  1.3458 -0.0322 -0.8516
  397MOL0     H54752   4.280   6.950   6.947 -5.0314 -1.3321  0.6048
  397MOL0     H54753   4.379   7.074   6.855 -1.8788  1.5667 -3.0514
  397MOL0     H54754   4.087   7.099   6.933  1.0330 -1.8733 -1.9115
  397MOL0     H54755   4.196   7.225   6.852  0.7603 -0.8288 -1.0942
  397MOL0     H54756   4.334   7.228   7.062  0.9833 -1.3940 -0.0229
  397MOL0     H54757   4.206   7.122   7.135 -0.8962  1.2549 -0.0958
  397MOL0     H54758   4.182   7.406   7.041  0.7238  0.5717  1.4157
  397MOL0     H54759   4.040   7.307   7.049 -0.4961 -0.1802  0.1560
  397MOL0     H54760   4.228   7.335   7.280  1.3914  0.2675 -1.0850
  397MOL0     H54761   4.071   7.258   7.281 -1.8630  0.8061 -1.1926
  397MOL0     H54762   3.958   7.481   7.243  2.5526  1.0712 -5.1200
  397MOL0     H54763   4.123   7.558   7.267  0.0161 -0.1131 -1.0902
  397MOL0     H54764   3.952   7.399   7.465  0.9949  0.4257  2.2806
  397MOL0     H54765   3.992   7.568   7.467  0.8259  0.5668  0.5158
  397MOL0     H54766   4.181   6.853   6.519 -2.9983  1.3700 -0.4187
  397MOL0     H54767   4.138   6.620   6.402 -1.1494  0.5445 -0.9204
  397MOL0     H54768   3.938   6.343   6.171  1.0765  0.9210 -0.2101
  397MOL0     H54769   3.915   6.113   6.069 -0.3357  0.0150  0.8475
  397MOL0     H54770   2.312   5.346   5.516 -0.2193 -0.0451  0.7680
  397MOL0     H54771   2.237   5.368   5.752  0.4592 -0.2167 -1.2396
  397MOL0     H54772   2.146   5.507   6.099 -2.2715 -1.9481  1.6662
  397MOL0     H54773   2.033   5.506   6.315  0.2420 -2.9765 -1.1456
  397MOL0     H54774   1.996   5.671   6.655  1.0248  5.9485 -2.7813
  397MOL0     H54775   1.984   5.680   6.477 -0.5029  0.5186  0.8036
  397MOL0     H54776   1.904   5.451   6.485 -0.4065  0.4063  0.0880
  397MOL0     H54777   1.804   5.544   6.589 -2.3777 -4.3172 -1.6729
  397MOL0     H54778   2.002   5.342   6.671 -1.0695 -0.3333 -0.7410
  397MOL0     H54779   1.933   5.461   6.792  0.0675 -0.0389 -0.2241
  397MOL0     H54780   1.720   5.377   6.763 -0.2462 -1.9401  1.5345
  397MOL0     H54781   1.829   5.241   6.781 -0.8612  0.7068  1.2455
  397MOL0     H54782   1.677   5.162   6.399  1.5737 -2.9069  1.0281
  397MOL0     H54783   2.402   5.615   6.514 -0.0483  1.5148 -0.5847
  397MOL0     H54784   2.616   5.528   6.290 -0.0343 -0.5603  2.8528
  397MOL0     H54785   2.598   5.682   6.211 -1.8185  0.4937  0.4427
  397MOL0     H54786   2.608   5.675   6.383  1.2130  0.1889 -0.5411
  398MOL0     O54787   0.602   2.819   1.277 -0.5860  0.2392  0.1862
  398MOL0     C54788   0.572   2.718   1.338 -0.3730  0.1741 -0.0481
  398MOL0     O54789   0.660   2.662   1.428 -0.3035  0.9023  0.8383
  398MOL0     C54790   0.793   2.699   1.458  1.2318  0.9244 -0.4482
  398MOL0     C54791   0.857   2.817   1.427  0.8859 -0.0165  0.2912
  398MOL0     C54792   0.987   2.844   1.471 -0.4689 -0.4143 -0.2139
  398MOL0     C54793   1.050   2.764   1.555 -0.2863  0.1993 -0.0535
  398MOL0     O54794   1.175   2.810   1.604  0.2169  0.6530 -0.0032
  398MOL0     C54795   1.237   2.746   1.722 -0.9479  0.7006  0.0177
  398MOL0     C54796   1.331   2.835   1.785 -0.6526  0.2668 -0.2511
  398MOL0     C54797   1.441   2.881   1.692 -0.0576  0.0577  0.7036
  398MOL0     C54798   1.558   2.940   1.772  0.4071 -0.5308 -0.2989
  398MOL0     C54799   1.678   3.007   1.694 -0.4750 -0.3022 -0.2695
  398MOL0     C54800   1.751   2.903   1.605 -0.1960 -0.3568  0.6740
  398MOL0     C54801   1.870   2.947   1.526 -1.6368 -0.1498  1.1037
  398MOL0     C54802   1.997   2.992   1.617 -0.2681 -0.1555  0.9668
  398MOL0     N54803   2.117   2.994   1.537 -0.1258  0.5462 -0.0860
  398MOL0     C54804   2.236   2.933   1.564 -0.5133  0.2981  0.3529
  398MOL0     C54805   2.334   3.010   1.518 -0.7958  0.3245  0.8500
  398MOL0     C54806   2.486   2.975   1.529  0.0280  0.1047 -0.0667
  398MOL0     C54807   2.550   3.002   1.396  0.2506 -0.2583 -0.0380
  398MOL0     C54808   2.709   3.024   1.387  1.1026 -0.2164 -0.4185
  398MOL0     C54809   2.799   2.895   1.385 -0.6970 -1.0343  0.7259
  398MOL0     O54810   2.915   2.932   1.306  0.0734  0.4127 -0.5073
  398MOL0     C54811   3.012   2.833   1.310 -0.7707 -0.0703  0.1697
  398MOL0     C54812   3.003   2.700   1.361  0.3088  0.3428  0.2493
  398MOL0     C54813   3.102   2.602   1.337  0.2632 -0.9811  0.0059
  398MOL0     C54814   3.074   2.457   1.387  0.2772 -0.6469  0.3223
  398MOL0     C54815   3.208   2.636   1.250 -0.9075  0.4959 -0.2411
  398MOL0     C54816   3.324   2.545   1.213  0.8508  0.1505 -0.7728
  398MOL0     O54817   3.443   2.616   1.199  0.5112  0.9742 -0.4037
  398MOL0     C54818   3.560   2.540   1.181 -0.1385  0.2279 -0.0959
  398MOL0     C54819   3.593   2.454   1.285  0.9006 -0.0468  0.2303
  398MOL0     C54820   3.722   2.404   1.285 -0.2484 -0.2251  1.0782
  398MOL0     C54821   3.816   2.427   1.183  0.3211 -0.2669  0.9675
  398MOL0     O54822   3.940   2.373   1.205  0.0767  0.3296 -0.1391
  398MOL0     C54823   4.009   2.326   1.091  0.7287  1.0031 -0.0186
  398MOL0     C54824   4.150   2.287   1.106 -0.0166  0.3854  0.2972
  398MOL0     C54825   4.225   2.298   0.968  0.0515 -0.0002  0.3788
  398MOL0     C54826   4.376   2.283   0.964  0.0655 -0.3450 -0.1672
  398MOL0     C54827   4.418   2.173   0.878  0.4417  0.2398  0.9083
  398MOL0     C54828   4.562   2.142   0.899  0.2289  0.2393  0.2034
  398MOL0     C54829   4.613   2.029   0.798 -0.2919  0.5079  0.0587
  398MOL0     C54830   4.743   1.966   0.825 -0.3820  0.7315  0.3186
  398MOL0    Cl54831   4.876   2.088   0.790  0.2858  0.0992  0.5726
  398MOL0     C54832   3.774   2.509   1.069  0.2588 -0.8814  0.1064
  398MOL0     C54833   3.652   2.564   1.074 -1.1787 -0.9138  0.2485
  398MOL0     O54834   3.309   2.430   1.212  0.1147  0.0340 -0.2334
  398MOL0     C54835   3.221   2.778   1.210  0.0411  1.1629  0.7884
  398MOL0     C54836   3.127   2.866   1.239  0.2098 -0.5668  0.0460
  398MOL0     N54837   2.271   3.116   1.451 -0.4811  0.3031 -0.0758
  398MOL0     N54838   2.143   3.110   1.462  0.0058  0.2555 -0.1123
  398MOL0     C54839   0.992   2.638   1.593  0.3546 -0.6891 -0.1127
  398MOL0     C54840   0.856   2.616   1.551 -0.9179  0.2433  0.4527
  398MOL0     C54841   0.453   2.647   1.307  0.0402 -0.4374  0.5723
  398MOL0     C54842   0.413   2.557   1.404  0.1071  1.0072  0.1135
  398MOL0     C54843   0.299   2.473   1.395  0.4470 -0.3177 -0.1864
  398MOL0     C54844   0.217   2.481   1.284 -0.3581  0.6498  0.6391
  398MOL0     O54845   0.088   2.427   1.290  0.3119  0.4192 -0.3691
  398MOL0     C54846  -0.004   2.441   1.184 -0.3669  0.2398 -0.5204
  398MOL0     C54847  -0.091   2.314   1.183 -0.1419  0.1526 -0.3722
  398MOL0     C54848  -0.182   2.303   1.058 -0.4967  0.1385 -0.2542
  398MOL0     C54849  -0.277   2.424   1.032 -0.0597 -0.7143 -0.6679
  398MOL0     C54850  -0.378   2.380   0.929  0.1766 -0.1100 -0.4927
  398MOL0     C54851  -0.448   2.334   0.842  0.0602  0.1913 -0.1157
  398MOL0     C54852   0.262   2.570   1.183  0.1123 -0.2744  0.8043
  398MOL0     C54853   0.381   2.651   1.189  0.3321 -0.0124  0.2273
  398MOL0     C54854   0.421   2.719   1.062  0.6846 -0.4914 -0.5270
  398MOL0     H54855   0.805   2.891   1.368 -0.4273  0.1526  1.6242
  398MOL0     H54856   1.041   2.934   1.443 -2.8954  0.9601 -0.7668
  398MOL0     H54857   1.280   2.655   1.678 -5.0780 -1.9153  0.7577
  398MOL0     H54858   1.164   2.708   1.794  0.0966  0.9815  1.2536
  398MOL0     H54859   1.274   2.922   1.819  0.7285  0.8338  0.7173
  398MOL0     H54860   1.382   2.790   1.870  0.1682  3.8758  1.3715
  398MOL0     H54861   1.477   2.794   1.636  0.9747 -0.4700  2.1196
  398MOL0     H54862   1.396   2.948   1.619  1.6790  0.1099 -0.3717
  398MOL0     H54863   1.515   3.017   1.838  0.4927 -0.5374 -0.2343
  398MOL0     H54864   1.600   2.865   1.839 -1.3141 -1.8277 -0.6296
  398MOL0     H54865   1.733   3.047   1.779  0.0916  2.4346 -1.8387
  398MOL0     H54866   1.657   3.094   1.631  0.6162  0.0386 -0.1806
  398MOL0     H54867   1.784   2.816   1.663  1.6927 -0.0732  0.0834
  398MOL0     H54868   1.681   2.876   1.526 -0.6837  3.0707 -0.2340
  398MOL0     H54869   1.836   3.015   1.448  0.0358  1.0778  1.3845
  398MOL0     H54870   1.900   2.855   1.474  1.9828  0.7495  1.3449
  398MOL0     H54871   1.958   3.088   1.652 -1.0426  0.3979 -1.2012
  398MOL0     H54872   2.012   2.910   1.686  0.2853  0.5829  1.7386
  398MOL0     H54873   2.251   2.836   1.610  1.4198 -0.6455 -2.0694
  398MOL0     H54874   2.491   2.875   1.573 -2.0700  0.5637  1.3520
  398MOL0     H54875   2.536   3.042   1.600  0.5440  0.5518 -0.8392
  398MOL0     H54876   2.524   2.927   1.320  0.9147  0.4602 -0.9940
  398MOL0     H54877   2.510   3.088   1.342  1.8969  0.3973 -0.2711
  398MOL0     H54878   2.715   3.084   1.296 -1.5058  3.0263  1.2998
  398MOL0     H54879   2.744   3.089   1.468 -0.1497  1.1017 -0.8833
  398MOL0     H54880   2.831   2.873   1.487 -1.8790 -1.6489  0.9788
  398MOL0     H54881   2.741   2.816   1.338 -1.1176  1.4213 -3.4063
  398MOL0     H54882   2.920   2.656   1.415  0.0948  0.4073 -0.0276
  398MOL0     H54883   3.041   2.405   1.297 -0.3707 -1.2332  0.8917
  398MOL0     H54884   2.995   2.461   1.462 -0.0283  1.0293 -0.0464
  398MOL0     H54885   3.159   2.406   1.435  0.2512 -0.4186  0.6099
  398MOL0     H54886   3.516   2.449   1.362 -1.8024 -2.3026 -2.3726
  398MOL0     H54887   3.748   2.354   1.377  0.5367  1.6107  1.9047
  398MOL0     H54888   3.956   2.244   1.042  1.1448  0.5246  0.3236
  398MOL0     H54889   4.016   2.413   1.025  0.1786  0.2071 -1.1609
  398MOL0     H54890   4.195   2.362   1.172 -0.6149 -1.1122  2.5705
  398MOL0     H54891   4.165   2.198   1.168  2.0227  1.7730  1.9684
  398MOL0     H54892   4.214   2.399   0.928 -3.7569 -1.2210 -2.2017
  398MOL0     H54893   4.183   2.228   0.896 -2.5206  0.7372  1.0725
  398MOL0     H54894   4.401   2.256   1.067 -2.4549 -2.6814 -0.0586
  398MOL0     H54895   4.429   2.370   0.923 -0.2078  0.5475  1.3207
  398MOL0     H54896   4.370   2.079   0.907  0.2789  1.0733  3.6121
  398MOL0     H54897   4.391   2.190   0.773  0.8292 -3.9470 -0.0336
  398MOL0     H54898   4.588   2.106   0.999  0.4607  1.0257  0.4297
  398MOL0     H54899   4.606   2.242   0.902  1.1180 -0.1218 -0.3998
  398MOL0     H54900   4.622   2.083   0.703  1.0754  2.5021  1.2473
  398MOL0     H54901   4.531   1.957   0.786  0.1633 -0.1847  0.9597
  398MOL0     H54902   4.758   1.877   0.763 -2.1615 -1.2204  2.4900
  398MOL0     H54903   4.743   1.938   0.930  0.3367  0.1336  0.1734
  398MOL0     H54904   3.847   2.515   0.989 -2.4666 -2.4127 -2.7187
  398MOL0     H54905   3.631   2.624   0.986  1.1580 -0.2998  0.0343
  398MOL0     H54906   3.303   2.815   1.150  1.1490  0.0590  1.5771
  398MOL0     H54907   3.148   2.963   1.195  2.8013 -0.2623  1.7700
  398MOL0     H54908   1.044   2.574   1.664  0.8710  0.8100  0.9352
  398MOL0     H54909   0.802   2.525   1.577 -2.7524  1.3017  0.4872
  398MOL0     H54910   0.454   2.555   1.504  1.5384  0.0325 -0.4708
  398MOL0     H54911   0.252   2.434   1.484 -0.1333  0.9633  0.0866
  398MOL0     H54912  -0.070   2.528   1.190 -0.3328  0.2672 -0.5448
  398MOL0     H54913   0.050   2.456   1.090 -0.6574 -1.5347 -1.0182
  398MOL0     H54914  -0.148   2.307   1.275 -0.8507 -3.5358 -0.9358
  398MOL0     H54915  -0.018   2.233   1.176 -0.3650 -0.3772  2.4052
  398MOL0     H54916  -0.114   2.276   0.976  0.5030  0.9087  0.2869
  398MOL0     H54917  -0.241   2.212   1.071  0.2231 -0.4396 -0.9194
  398MOL0     H54918  -0.219   2.507   0.990 -0.2203 -1.1063 -1.6718
  398MOL0     H54919  -0.323   2.461   1.124  3.6339  0.5767  0.8793
  398MOL0     H54920  -0.512   2.288   0.769  1.6569 -0.5017 -1.1545
  398MOL0     H54921   0.215   2.580   1.086  3.9066  2.1691 -1.0040
  398MOL0     H54922   0.430   2.826   1.080 -3.3057 -0.2211  0.9043
  398MOL0     H54923   0.512   2.681   1.014  2.4457 -2.7183  4.0378
  398MOL0     H54924   0.341   2.711   0.987  0.7642 -0.4758 -0.6143
  399MOL0     O54925   2.018   6.244  10.276 -0.4879 -0.1036 -0.2859
  399MOL0     C54926   1.967   6.173  10.185 -1.0277 -0.4959  0.6244
  399MOL0     O54927   2.043   6.105  10.096  0.0320 -0.1870 -0.6167
  399MOL0     C54928   2.185   6.075  10.116  0.7916 -0.1178 -0.2999
  399MOL0     C54929   2.257   6.081  10.235  0.5429  0.0142  0.4358
  399MOL0     C54930   2.388   6.054  10.254 -0.7009 -0.3044 -0.5956
  399MOL0     C54931   2.457   6.026  10.134  0.1004  0.1858  0.7194
  399MOL0     O54932   2.589   6.026  10.149 -0.4120  0.3566 -0.5397
  399MOL0     C54933   2.668   6.055  10.034  0.8132  0.4972 -0.1016
  399MOL0     C54934   2.816   6.052  10.065  0.3106  0.4573 -0.0932
  399MOL0     C54935   2.850   6.190  10.109 -0.0779 -0.7420  1.1292
  399MOL0     C54936   2.979   6.201  10.186 -0.6196 -1.1434 -0.2775
  399MOL0     C54937   3.096   6.124  10.126  0.1347 -0.0876 -0.1236
  399MOL0     C54938   3.227   6.170  10.195  0.0828 -0.2338  0.2979
  399MOL0     C54939   3.348   6.123  10.116 -0.5643 -0.5007  0.1865
  399MOL0     C54940   3.469   6.157  10.189 -0.8014 -0.5354 -0.7598
  399MOL0     N54941   3.597   6.092  10.139  0.2960  0.2142 -0.3691
  399MOL0     C54942   3.626   5.957  10.146 -0.4247 -0.6456 -0.1270
  399MOL0     C54943   3.744   5.938  10.083  0.2320  0.0456 -0.6607
  399MOL0     C54944   3.803   5.813  10.050  0.4292 -0.1722  0.8193
  399MOL0     C54945   3.822   5.733  10.180  0.6468 -0.7220  0.0808
  399MOL0     C54946   3.906   5.611  10.133  0.2283  0.2041  0.3117
  399MOL0     C54947   3.970   5.547  10.250 -0.2531 -0.3647 -0.3138
  399MOL0     O54948   4.044   5.636  10.332 -0.0015 -0.0556 -0.9134
  399MOL0     C54949   4.164   5.691  10.278 -0.2783 -0.3470  0.0019
  399MOL0     C54950   4.180   5.832  10.263  0.4034 -0.1179  0.3028
  399MOL0     C54951   4.293   5.883  10.200 -0.0588 -0.8605  0.0834
  399MOL0     C54952   4.298   6.030  10.180 -0.1600 -0.4642  0.1332
  399MOL0     C54953   4.399   5.795  10.154 -0.0580 -0.0807  0.3503
  399MOL0     C54954   4.531   5.850  10.096  0.3597 -0.4687 -0.2701
  399MOL0     O54955   4.604   5.758  10.029 -0.0502 -0.1778  0.3613
  399MOL0     C54956   4.730   5.791   9.985  0.0141 -0.0563 -0.0916
  399MOL0     C54957   4.748   5.884   9.884 -0.4907 -0.2094  0.5038
  399MOL0     C54958   4.875   5.915   9.835  0.0136 -0.2016  0.1483
  399MOL0     C54959   4.994   5.869   9.895  0.1401 -0.1407  0.4512
  399MOL0     O54960   5.122   5.905   9.849  0.4333  0.7029  0.8380
  399MOL0     C54961   5.230   5.826   9.903  0.4098 -0.1463 -0.5467
  399MOL0     C54962   5.360   5.861   9.827 -0.4509 -0.5748 -0.9682
  399MOL0     C54963   5.489   5.813   9.896  0.1297  1.2054 -0.8153
  399MOL0     C54964   5.505   5.659   9.887 -0.3791  0.4848  0.6637
  399MOL0     C54965   5.638   5.615   9.943  0.9316  0.8731 -1.0160
  399MOL0     C54966   5.647   5.605  10.098 -0.9134  0.6445  0.3774
  399MOL0     C54967   5.797   5.577  10.136 -0.1773 -0.7773 -0.7546
  399MOL0     C54968   5.816   5.612  10.283  1.3343  0.0345  0.4383
  399MOL0    Cl54969   5.991   5.593  10.313  0.0873 -0.4201  0.4565
  399MOL0     C54970   4.974   5.774   9.999  0.6804 -0.0191 -0.2402
  399MOL0     C54971   4.845   5.735  10.029 -0.3415 -0.0262 -0.8777
  399MOL0     O54972   4.561   5.969  10.104  0.2540 -0.9415  0.0488
  399MOL0     C54973   4.383   5.657  10.181 -0.2083  0.5603 -0.3151
  399MOL0     C54974   4.262   5.609  10.231 -0.0913  1.1146 -0.0693
  399MOL0     N54975   3.802   6.061  10.042 -0.2217 -0.7532 -0.4969
  399MOL0     N54976   3.701   6.150  10.072 -0.7605  0.1215 -0.2998
  399MOL0     C54977   2.390   6.006  10.008 -0.3033 -0.2060 -0.5511
  399MOL0     C54978   2.257   6.045   9.997  0.1377 -0.3522  0.0424
  399MOL0     C54979   1.823   6.185  10.150  0.3189 -0.1874 -0.3224
  399MOL0     C54980   1.743   6.264  10.228  0.0198 -0.2695 -0.7196
  399MOL0     C54981   1.606   6.290  10.202  0.4280  0.1914  0.4014
  399MOL0     C54982   1.545   6.234  10.090 -0.5053  0.9544  0.3278
  399MOL0     O54983   1.423   6.248  10.039  0.2752  0.3652 -0.8182
  399MOL0     C54984   1.325   6.293  10.135 -0.2171 -0.2697 -0.0857
  399MOL0     C54985   1.185   6.227  10.116 -0.5488 -0.8059 -0.1209
  399MOL0     C54986   1.132   6.253   9.979  0.7572 -0.0799 -0.2615
  399MOL0     C54987   1.001   6.176   9.942  0.6682  0.3959  0.8815
  399MOL0     C54988   0.938   6.232   9.823  0.3046 -0.4089 -0.5613
  399MOL0     C54989   0.875   6.267   9.727 -0.0009 -0.3532 -0.1225
  399MOL0     C54990   1.625   6.149  10.012  0.5972  0.4292  0.0288
  399MOL0     C54991   1.756   6.122  10.040 -0.9760 -0.1527  0.4180
  399MOL0     C54992   1.822   6.037   9.932  0.4394 -1.4771 -0.3842
  399MOL0     H54993   2.210   6.119  10.325  0.9025 -0.4783  0.8421
  399MOL0     H54994   2.453   6.056  10.341 -0.3343  1.7103 -0.8655
  399MOL0     H54995   2.645   6.152   9.988 -0.6695  0.8424  1.2951
  399MOL0     H54996   2.649   5.980   9.957  0.7475 -1.3315  1.5945
  399MOL0     H54997   2.844   5.978  10.140  0.2810  0.5692  0.0274
  399MOL0     H54998   2.875   6.027   9.976  1.7607  0.4411  0.8375
  399MOL0     H54999   2.857   6.256  10.022  0.4724 -1.3059  0.7394
  399MOL0     H55000   2.773   6.213  10.183 -3.4704 -3.1327 -1.3301
  399MOL0     H55001   2.990   6.310  10.188 -4.1460 -0.6454 -1.0240
  399MOL0     H55002   2.966   6.161  10.286 -0.0687 -1.9054 -0.5004
  399MOL0     H55003   3.097   6.141  10.018 -2.2625 -1.1598 -0.3971
  399MOL0     H55004   3.075   6.017  10.134 -1.9622  0.2246 -0.8203
  399MOL0     H55005   3.224   6.279  10.187 -0.1537 -0.2407  0.2832
  399MOL0     H55006   3.236   6.139  10.299  0.5800 -1.0694  0.0164
  399MOL0     H55007   3.355   6.163  10.014  1.2285 -0.1836  0.4023
  399MOL0     H55008   3.356   6.015  10.101  0.1424 -0.2530 -1.4399
  399MOL0     H55009   3.484   6.265  10.192 -0.0590 -0.6446  0.3297
  399MOL0     H55010   3.456   6.118  10.291 -0.2020 -0.8182 -0.7891
  399MOL0     H55011   3.551   5.887  10.182 -1.1050  1.2719  2.4360
  399MOL0     H55012   3.893   5.835   9.992 -0.4562  0.6205 -0.3215
  399MOL0     H55013   3.741   5.756   9.979  2.4716 -1.7846  0.2470
  399MOL0     H55014   3.881   5.799  10.244  1.3220  1.8246 -2.9177
  399MOL0     H55015   3.726   5.703  10.224  0.8183 -4.3223 -1.6388
  399MOL0     H55016   3.840   5.536  10.089  0.9041 -1.0956  1.4022
  399MOL0     H55017   3.972   5.643  10.053 -0.1183  1.6785  0.5886
  399MOL0     H55018   3.891   5.509  10.316 -1.5990 -1.5083 -2.4526
  399MOL0     H55019   4.032   5.461  10.223  0.5883  0.6928 -1.8828
  399MOL0     H55020   4.093   5.890  10.292  1.3510  0.4507  2.1817
  399MOL0     H55021   4.205   6.079  10.212 -0.2844 -1.1369  0.8049
  399MOL0     H55022   4.307   6.050  10.072  0.2048 -1.4532 -0.0244
  399MOL0     H55023   4.380   6.073  10.238  0.7680  1.2125 -2.2566
  399MOL0     H55024   4.665   5.938   9.840 -0.1983  0.8842  1.2578
  399MOL0     H55025   4.881   5.997   9.765 -0.3043  0.5385  0.9647
  399MOL0     H55026   5.251   5.870  10.001 -4.6633  0.8266  0.3480
  399MOL0     H55027   5.203   5.720   9.911  1.3059 -0.2307  3.0240
  399MOL0     H55028   5.349   5.820   9.726  1.3650 -4.0883  0.1063
  399MOL0     H55029   5.380   5.968   9.825  1.5547 -0.5668  4.3355
  399MOL0     H55030   5.508   5.845   9.998 -1.3648 -0.9809  0.2442
  399MOL0     H55031   5.567   5.860   9.835  1.1173  0.6300 -0.0189
  399MOL0     H55032   5.492   5.630   9.783 -0.8342 -1.6433  1.2493
  399MOL0     H55033   5.432   5.596   9.940  0.2907 -1.0321 -0.1591
  399MOL0     H55034   5.668   5.521   9.895 -0.7109  1.3885 -3.2231
  399MOL0     H55035   5.715   5.682   9.903  1.6100  0.9463  0.3703
  399MOL0     H55036   5.588   5.522  10.138  2.7265 -2.9048 -1.0069
  399MOL0     H55037   5.617   5.704  10.134  2.5145  1.9090  0.1291
  399MOL0     H55038   5.870   5.639  10.083 -2.1977  1.3424 -1.2321
  399MOL0     H55039   5.823   5.478  10.099 -1.6475 -0.8332 -1.7239
  399MOL0     H55040   5.746   5.555  10.346 -0.4131  0.5304 -0.9957
  399MOL0     H55041   5.786   5.717  10.292 -2.2618 -0.7724 -0.9281
  399MOL0     H55042   5.055   5.724  10.051  0.8564  2.3548  1.9813
  399MOL0     H55043   4.826   5.659  10.105 -2.8103  2.7719  1.6090
  399MOL0     H55044   4.463   5.589  10.152 -0.0778  1.2977 -1.7780
  399MOL0     H55045   4.249   5.502  10.213  1.9320  0.7380  0.4175
  399MOL0     H55046   2.442   5.991   9.913  1.1823 -1.0469  0.3540
  399MOL0     H55047   2.202   6.042   9.903 -3.1688 -0.8563  1.8174
  399MOL0     H55048   1.779   6.310  10.319  1.9927 -0.1545 -1.5235
  399MOL0     H55049   1.549   6.363  10.258  2.7077  1.2628  1.4587
  399MOL0     H55050   1.349   6.265  10.238 -3.1198 -1.1722  0.4322
  399MOL0     H55051   1.320   6.401  10.147 -0.2169 -0.3536  0.7457
  399MOL0     H55052   1.118   6.265  10.194  0.5198 -1.6467  1.2590
  399MOL0     H55053   1.197   6.122  10.145 -2.5430 -0.5840  1.8523
  399MOL0     H55054   1.119   6.359   9.956  1.1162  1.3041  4.7677
  399MOL0     H55055   1.212   6.226   9.909  1.1772  0.7840 -0.1329
  399MOL0     H55056   0.925   6.185  10.020 -1.7839  0.2356 -1.3434
  399MOL0     H55057   1.019   6.068   9.934 -1.6224  0.0873 -3.5854
  399MOL0     H55058   0.835   6.311   9.638  3.9407  0.5278 -1.6800
  399MOL0     H55059   1.579   6.109   9.922 -0.6624  0.8005  0.4905
  399MOL0     H55060   1.755   6.019   9.848 -0.5786  1.3957 -0.3095
  399MOL0     H55061   1.912   6.081   9.888  1.2683 -2.9002 -0.1712
  399MOL0     H55062   1.837   5.938   9.975 -1.6943 -1.4325  0.5648
  400MOL0     O55063   5.356   7.294   8.530  0.3356 -0.0296 -0.0801
  400MOL0     C55064   5.360   7.382   8.439  0.7345  0.4041  0.8816
  400MOL0     O55065   5.462   7.397   8.352  0.3713 -0.2815 -0.3458
  400MOL0     C55066   5.581   7.369   8.401  0.0250 -0.7309 -0.6189
  400MOL0     C55067   5.632   7.428   8.515 -0.7333  0.8974  0.6712
  400MOL0     C55068   5.762   7.389   8.560  0.1267 -0.1002 -0.0597
  400MOL0     C55069   5.838   7.294   8.490 -0.0255  0.3023 -0.4359
  400MOL0     O55070   5.956   7.248   8.529 -0.5919 -0.3571 -0.8852
  400MOL0     C55071   6.060   7.348   8.504  0.2413 -1.3809 -0.1742
  400MOL0     C55072   6.184   7.279   8.549 -0.6019 -0.4574  0.0031
  400MOL0     C55073   6.252   7.181   8.445  0.2164 -0.1605  0.2805
  400MOL0     C55074   6.355   7.251   8.361 -0.4753 -0.4489  0.4543
  400MOL0     C55075   6.385   7.185   8.224  0.5578  0.5946  0.2362
  400MOL0     C55076   6.389   7.292   8.111  0.1641 -0.3569  0.5363
  400MOL0     C55077   6.412   7.229   7.967 -0.1422 -0.8718 -0.1517
  400MOL0     C55078   6.424   7.346   7.870 -0.3322  0.6613  0.0125
  400MOL0     N55079   6.437   7.307   7.737  0.5031 -0.4446  0.1993
  400MOL0     C55080   6.549   7.269   7.666 -0.3696  0.0632 -0.9569
  400MOL0     C55081   6.501   7.246   7.540  0.1034  1.1212  0.2517
  400MOL0     C55082   6.571   7.179   7.422 -0.7919  1.1683 -0.0797
  400MOL0     C55083   6.677   7.270   7.358 -0.1619 -0.5302  0.9794
  400MOL0     C55084   6.806   7.197   7.351  0.4085 -0.3878 -0.7409
  400MOL0     C55085   6.921   7.265   7.279  0.3332 -0.2437  0.2756
  400MOL0     O55086   6.970   7.385   7.344  0.6178  0.0722 -0.0469
  400MOL0     C55087   7.096   7.431   7.309  1.0935  0.2804 -0.2326
  400MOL0     C55088   7.163   7.403   7.189 -0.7425 -0.8280  0.1525
  400MOL0     C55089   7.297   7.448   7.164 -0.0148 -0.7177 -0.4219
  400MOL0     C55090   7.356   7.426   7.030  0.4418  0.1289  0.8709
  400MOL0     C55091   7.356   7.519   7.272  0.7677  0.7699 -0.0090
  400MOL0     C55092   7.492   7.571   7.270 -0.5027 -0.6749 -0.0108
  400MOL0     O55093   7.576   7.509   7.192 -0.0249  0.1119  0.1876
  400MOL0     C55094   7.705   7.542   7.183 -0.5749  0.3955  0.0665
  400MOL0     C55095   7.744   7.674   7.159  0.0480 -0.6821  0.2224
  400MOL0     C55096   7.879   7.705   7.141  0.4232  0.1598 -1.0693
  400MOL0     C55097   7.977   7.602   7.144 -0.1407  0.7032  0.3982
  400MOL0     O55098   8.106   7.643   7.120  0.4986 -0.5851 -1.2186
  400MOL0     C55099   8.218   7.550   7.139  0.4343 -0.2640 -0.5988
  400MOL0     C55100   8.248   7.533   7.295  0.5551 -0.2729  0.4078
  400MOL0     C55101   8.325   7.643   7.344  0.5275 -0.4804 -0.1738
  400MOL0     C55102   8.480   7.638   7.322 -0.2375  0.0056  0.6223
  400MOL0     C55103   8.543   7.772   7.382 -0.5259 -0.6944  0.2025
  400MOL0     C55104   8.690   7.786   7.346  0.0879  0.3710  0.0506
  400MOL0     C55105   8.740   7.898   7.436 -0.1443  0.4450 -0.2604
  400MOL0     C55106   8.842   7.992   7.359  0.3133  0.0965  0.8573
  400MOL0    Cl55107   8.980   7.889   7.305 -0.1031 -0.1253 -0.1058
  400MOL0     C55108   7.934   7.467   7.170  0.4378  0.3537  0.3843
  400MOL0     C55109   7.804   7.441   7.194  1.2277  0.2178 -1.0253
  400MOL0     O55110   7.517   7.664   7.340 -0.0790  0.0959 -0.4446
  400MOL0     C55111   7.279   7.543   7.388 -0.3437  0.1799  0.6511
  400MOL0     C55112   7.151   7.506   7.406 -0.7290 -0.3132  1.0378
  400MOL0     N55113   6.366   7.287   7.539 -0.3258  0.5295  0.3934
  400MOL0     N55114   6.326   7.314   7.660  0.2939  0.6610  0.2366
  400MOL0     C55115   5.781   7.240   8.376 -0.0792  0.9025 -0.4640
  400MOL0     C55116   5.659   7.282   8.326  0.4571  0.0414 -0.6424
  400MOL0     C55117   5.233   7.444   8.389 -0.3205  0.3360 -1.2093
  400MOL0     C55118   5.213   7.445   8.250  0.4850 -0.6440  0.5808
  400MOL0     C55119   5.103   7.511   8.187  0.5999 -0.1361 -0.5351
  400MOL0     C55120   5.016   7.579   8.270 -0.0332 -0.7348 -0.9055
  400MOL0     O55121   4.923   7.656   8.209  0.4891  0.3415 -0.2869
  400MOL0     C55122   4.817   7.728   8.286  0.2800 -0.3124 -0.6660
  400MOL0     C55123   4.699   7.654   8.350 -0.4090 -0.0935 -1.0306
  400MOL0     C55124   4.632   7.549   8.260  0.0048 -0.7768 -0.6914
  400MOL0     C55125   4.554   7.625   8.145 -0.2095  0.0015  0.3721
  400MOL0     C55126   4.428   7.678   8.200 -0.6243  0.5692  0.2452
  400MOL0     C55127   4.321   7.728   8.232 -0.8171  0.3135 -0.5434
  400MOL0     C55128   5.033   7.575   8.409 -0.6001  1.3589 -0.8839
  400MOL0     C55129   5.140   7.502   8.479  0.1230 -0.1255  0.4296
  400MOL0     C55130   5.149   7.498   8.630 -0.0677  0.2802 -0.2567
  400MOL0     H55131   5.577   7.504   8.570 -2.6030 -0.7688  1.2060
  400MOL0     H55132   5.806   7.445   8.642  1.5860  1.7818 -2.0054
  400MOL0     H55133   6.056   7.436   8.569  1.7267 -0.5261 -1.1968
  400MOL0     H55134   6.058   7.404   8.410  0.3213  1.8001  1.5997
  400MOL0     H55135   6.263   7.347   8.584  1.5306 -0.3993 -4.3403
  400MOL0     H55136   6.147   7.223   8.636 -0.4599 -1.2757 -0.4473
  400MOL0     H55137   6.308   7.106   8.502  1.1263 -0.5903 -1.1264
  400MOL0     H55138   6.173   7.144   8.380  2.2161 -1.1614 -1.7047
  400MOL0     H55139   6.318   7.353   8.343  2.5676  0.3239 -2.4746
  400MOL0     H55140   6.450   7.262   8.413  0.5428  2.6111 -1.7819
  400MOL0     H55141   6.308   7.114   8.192  0.1449  1.4129 -0.6555
  400MOL0     H55142   6.477   7.126   8.225  0.3555  0.2621 -0.1803
  400MOL0     H55143   6.294   7.347   8.110 -0.4595 -1.3733  1.3428
  400MOL0     H55144   6.464   7.367   8.133 -0.5566  0.5309  0.0387
  400MOL0     H55145   6.330   7.166   7.930  0.4426 -2.6438  1.3921
  400MOL0     H55146   6.507   7.176   7.963  0.3129  0.0090 -3.1849
  400MOL0     H55147   6.335   7.409   7.876 -1.5868 -0.7093 -2.7514
  400MOL0     H55148   6.514   7.408   7.881 -0.6813  1.5960 -1.9763
  400MOL0     H55149   6.645   7.256   7.716 -1.7729 -1.1654  1.6514
  400MOL0     H55150   6.493   7.161   7.347  0.5216 -1.0333 -1.0297
  400MOL0     H55151   6.610   7.081   7.450  2.1991  2.1422 -0.5102
  400MOL0     H55152   6.635   7.308   7.264 -3.5806 -0.2813  2.4477
  400MOL0     H55153   6.693   7.355   7.426  2.7220  0.8449 -1.2169
  400MOL0     H55154   6.838   7.168   7.452 -0.2399 -1.5304 -0.8496
  400MOL0     H55155   6.802   7.102   7.297  2.5180 -1.1720  0.3506
  400MOL0     H55156   6.994   7.190   7.249 -1.1395 -1.2253 -1.0422
  400MOL0     H55157   6.890   7.282   7.176  0.2050 -2.3442 -0.0681
  400MOL0     H55158   7.120   7.346   7.106 -1.5837  0.5216 -0.3729
  400MOL0     H55159   7.286   7.436   6.947  1.9328  3.2709 -0.1602
  400MOL0     H55160   7.412   7.332   7.029  0.2964  0.0347 -0.7723
  400MOL0     H55161   7.424   7.507   7.000  0.3708 -0.1679 -0.1180
  400MOL0     H55162   7.668   7.751   7.162 -0.5764 -0.8414 -4.4282
  400MOL0     H55163   7.909   7.809   7.135 -0.4085  0.3915 -1.2292
  400MOL0     H55164   8.201   7.455   7.088 -0.7594 -1.6945  2.2403
  400MOL0     H55165   8.304   7.596   7.089  0.2174 -0.2223 -0.9313
  400MOL0     H55166   8.151   7.524   7.345  0.2506  1.8684  0.3153
  400MOL0     H55167   8.304   7.440   7.306  0.8742 -0.0334  0.8744
  400MOL0     H55168   8.310   7.647   7.452 -0.6327  0.6666 -0.3461
  400MOL0     H55169   8.277   7.732   7.301 -1.4770 -0.0022  2.7716
  400MOL0     H55170   8.510   7.621   7.218 -3.6856  0.6147 -0.5948
  400MOL0     H55171   8.531   7.553   7.370  1.5633 -0.1484 -1.4008
  400MOL0     H55172   8.487   7.856   7.337 -0.3872 -0.8950 -0.3540
  400MOL0     H55173   8.523   7.771   7.489 -2.6207 -0.1682 -0.1219
  400MOL0     H55174   8.702   7.807   7.239 -3.0634 -1.1702 -0.7388
  400MOL0     H55175   8.739   7.694   7.378  1.8490  1.4444  0.5913
  400MOL0     H55176   8.794   7.848   7.517 -2.6362 -0.1728  1.1184
  400MOL0     H55177   8.659   7.956   7.481 -1.3541 -0.8324 -0.7136
  400MOL0     H55178   8.881   8.066   7.430  0.6393 -0.1153  0.9039
  400MOL0     H55179   8.805   8.046   7.271  0.4669 -2.8945 -1.2008
  400MOL0     H55180   8.006   7.388   7.153  0.6779  0.5641  0.4167
  400MOL0     H55181   7.765   7.340   7.207  0.6999  0.6315  0.9135
  400MOL0     H55182   7.333   7.590   7.470 -0.1221 -1.3801  1.4380
  400MOL0     H55183   7.113   7.528   7.505 -0.4451 -1.8612  1.5192
  400MOL0     H55184   5.828   7.161   8.318  2.6649  0.7885  1.7373
  400MOL0     H55185   5.609   7.224   8.250 -0.1417  1.3390 -1.2649
  400MOL0     H55186   5.285   7.389   8.191  0.2463  1.6813 -2.1453
  400MOL0     H55187   5.099   7.521   8.080 -0.3264 -1.5780 -0.6595
  400MOL0     H55188   4.867   7.786   8.364 -1.5957  1.4222 -0.6672
  400MOL0     H55189   4.784   7.810   8.222  0.3252 -1.6146 -2.4326
  400MOL0     H55190   4.619   7.725   8.372  1.1281  1.4135 -0.1079
  400MOL0     H55191   4.742   7.601   8.435 -0.2546  0.8697 -0.5011
  400MOL0     H55192   4.704   7.475   8.225  1.6429  1.5045 -2.4345
  400MOL0     H55193   4.561   7.500   8.327  2.3564 -0.8394  1.9394
  400MOL0     H55194   4.532   7.555   8.064 -3.0446  0.5619  0.5838
  400MOL0     H55195   4.607   7.699   8.084 -3.8177  1.0294 -1.7829
  400MOL0     H55196   4.223   7.769   8.247 -1.8783 -1.5780 -1.7441
  400MOL0     H55197   4.960   7.626   8.472 -0.4394 -2.4732  2.7995
  400MOL0     H55198   5.251   7.513   8.665 -0.0326  1.0549 -0.6666
  400MOL0     H55199   5.085   7.572   8.680  1.9046  2.2381 -0.4843
  400MOL0     H55200   5.130   7.398   8.671 -1.4603 -0.2331 -2.0213
  401MOL0     O55201   9.623  11.204   1.553 -0.0434  0.4144  0.1822
  401MOL0     C55202   9.524  11.240   1.625  0.3760  0.1873  0.0019
  401MOL0     O55203   9.532  11.312   1.736  0.3595 -0.4810 -0.3015
  401MOL0     C55204   9.658  11.370   1.766 -0.3223 -0.5352  0.1547
  401MOL0     C55205   9.769  11.294   1.817 -0.0152  0.0143  0.1472
  401MOL0     C55206   9.896  11.351   1.844  0.3104  1.4288 -0.3267
  401MOL0     C55207   9.906  11.488   1.824  0.0411  0.8279 -0.1954
  401MOL0     O55208  10.032  11.536   1.845 -0.9899  0.3426 -0.3950
  401MOL0     C55209  10.046  11.676   1.881  0.1723  0.4106  0.0623
  401MOL0     C55210  10.178  11.707   1.939 -0.6721 -0.4737  0.6876
  401MOL0     C55211  10.287  11.653   1.843  0.4504 -0.7220 -0.1215
  401MOL0     C55212  10.418  11.715   1.883 -1.2162  0.4195  0.5651
  401MOL0     C55213  10.526  11.684   1.778  0.5823  0.1659  0.1401
  401MOL0     C55214  10.667  11.737   1.813 -0.3146 -0.6110  0.1400
  401MOL0     C55215  10.760  11.710   1.699 -0.2655 -0.1001 -0.5892
  401MOL0     C55216  10.890  11.784   1.688 -0.3811  0.1489 -0.4503
  401MOL0     N55217  10.974  11.763   1.798 -0.7700  0.0852  0.0770
  401MOL0     C55218  11.031  11.643   1.823 -0.3058 -1.2075  0.1788
  401MOL0     C55219  11.081  11.652   1.953  0.5827 -0.6466  0.6451
  401MOL0     C55220  11.145  11.539   2.030 -0.3639 -0.1543  0.5166
  401MOL0     C55221  11.298  11.555   2.028 -0.1877 -0.7993  0.5031
  401MOL0     C55222  11.363  11.431   2.073  0.5917 -0.3411 -0.4586
  401MOL0     C55223  11.517  11.431   2.063  0.0844 -0.9041 -0.6848
  401MOL0     O55224  11.568  11.307   2.106 -0.2077  0.0257  0.1669
  401MOL0     C55225  11.710  11.299   2.096  0.3418  1.4581 -0.5018
  401MOL0     C55226  11.798  11.404   2.137 -0.4416 -0.1311  0.0282
  401MOL0     C55227  11.936  11.384   2.144  0.6195 -0.1034 -0.0671
  401MOL0     C55228  12.006  11.495   2.209 -0.2008 -0.3676 -0.3328
  401MOL0     C55229  11.989  11.265   2.091  0.3806  0.1844 -0.2416
  401MOL0     C55230  12.125  11.227   2.083 -0.7645 -0.9907  0.7168
  401MOL0     O55231  12.194  11.186   2.191 -0.2458 -0.2051 -0.4489
  401MOL0     C55232  12.327  11.158   2.192 -0.2276 -0.3452  0.0678
  401MOL0     C55233  12.370  11.063   2.284  0.7012 -0.3002  0.5373
  401MOL0     C55234  12.506  11.041   2.293 -0.6690 -0.7730  0.1699
  401MOL0     C55235  12.608  11.096   2.208 -0.3352  0.1190  0.0821
  401MOL0     O55236  12.740  11.076   2.212  0.2307 -0.2729 -1.3489
  401MOL0     C55237  12.778  10.966   2.297  0.2293 -0.0595  0.0477
  401MOL0     C55238  12.930  10.951   2.297  0.0966  0.8160  0.0496
  401MOL0     C55239  13.001  11.069   2.350  0.4660 -0.3140  0.0669
  401MOL0     C55240  13.152  11.052   2.364  0.0195 -0.7745  0.5499
  401MOL0     C55241  13.199  11.184   2.433  0.1531  0.3226  0.4041
  401MOL0     C55242  13.343  11.188   2.478  0.5084 -0.4572  0.0348
  401MOL0     C55243  13.384  11.097   2.592  0.5913 -0.1564  0.4894
  401MOL0     C55244  13.534  11.066   2.596 -0.4538  0.0591  0.8112
  401MOL0    Cl55245  13.622  11.220   2.614  0.4645 -0.6409  0.0616
  401MOL0     C55246  12.566  11.193   2.115  0.4710  0.2452  0.3901
  401MOL0     C55247  12.428  11.217   2.109  0.5142 -0.4428  0.1763
  401MOL0     O55248  12.167  11.236   1.971  0.7605  0.0539 -0.5890
  401MOL0     C55249  11.901  11.160   2.055 -0.3062 -0.8808 -0.2606
  401MOL0     C55250  11.760  11.177   2.058  1.0336 -0.0672 -0.9258
  401MOL0     N55251  11.043  11.774   2.002 -0.0289 -0.2396  0.2211
  401MOL0     N55252  10.976  11.847   1.909 -0.4185  0.0736 -0.1363
  401MOL0     C55253   9.799  11.561   1.780 -0.8683  0.4701  1.1816
  401MOL0     C55254   9.676  11.503   1.750 -0.6346 -0.3461  0.0412
  401MOL0     C55255   9.388  11.198   1.589  0.1456  0.0138 -0.9233
  401MOL0     C55256   9.292  11.294   1.583 -0.2343  0.1210  0.6852
  401MOL0     C55257   9.165  11.270   1.532 -0.1212  0.7612  0.5061
  401MOL0     C55258   9.131  11.132   1.508 -0.2624 -0.3071  0.2816
  401MOL0     O55259   9.007  11.102   1.473  0.7569  0.1471  0.5064
  401MOL0     C55260   8.960  10.974   1.426  0.0523 -0.0819 -0.5923
  401MOL0     C55261   8.823  10.996   1.362  0.1310  0.0306 -0.0463
  401MOL0     C55262   8.828  11.058   1.230  0.3668  0.0530  0.6048
  401MOL0     C55263   8.683  11.079   1.167  0.1736 -0.5971 -0.7319
  401MOL0     C55264   8.690  11.171   1.052 -0.0812  0.2167 -0.0533
  401MOL0     C55265   8.697  11.259   0.966 -0.4839 -0.3867  0.3589
  401MOL0     C55266   9.232  11.035   1.520  0.7445  0.5296  0.4038
  401MOL0     C55267   9.352  11.066   1.561 -0.2618 -0.4705  1.1399
  401MOL0     C55268   9.450  10.949   1.567  0.2418 -0.1087  0.2410
  401MOL0     H55269   9.771  11.187   1.830 -0.6413  0.2676  2.9059
  401MOL0     H55270   9.976  11.289   1.883 -2.2679 -1.2377  1.0823
  401MOL0     H55271   9.970  11.709   1.954  1.0397 -0.4320  1.3876
  401MOL0     H55272  10.037  11.730   1.787  0.9814 -1.0016 -0.8527
  401MOL0     H55273  10.180  11.816   1.928 -1.7283 -0.7225 -4.8386
  401MOL0     H55274  10.194  11.676   2.042 -1.2604 -0.6540  0.7258
  401MOL0     H55275  10.298  11.545   1.849 -1.2308 -0.8563  1.2893
  401MOL0     H55276  10.271  11.666   1.736  0.6133  1.1750  0.0458
  401MOL0     H55277  10.413  11.824   1.889  0.6525  0.6843 -1.5949
  401MOL0     H55278  10.454  11.683   1.982  0.8583  0.4756 -0.1235
  401MOL0     H55279  10.499  11.732   1.684  1.0112 -0.5844 -0.3762
  401MOL0     H55280  10.528  11.576   1.759 -3.2822 -0.0992  0.3708
  401MOL0     H55281  10.673  11.846   1.819  2.7805 -0.6283 -0.8175
  401MOL0     H55282  10.702  11.694   1.908 -1.3716  1.3615  1.4990
  401MOL0     H55283  10.710  11.730   1.603  0.6912  2.6939 -0.6110
  401MOL0     H55284  10.781  11.603   1.697  2.3773  0.3649 -1.9066
  401MOL0     H55285  10.953  11.745   1.608  0.9626  0.1292  0.5771
  401MOL0     H55286  10.874  11.892   1.677  0.0304  0.8932  4.1134
  401MOL0     H55287  11.042  11.553   1.764 -2.1975 -0.5978 -1.2307
  401MOL0     H55288  11.115  11.446   1.981 -0.7007 -1.4852  3.0986
  401MOL0     H55289  11.118  11.532   2.136  0.1888  1.8242  0.8406
  401MOL0     H55290  11.330  11.588   1.928 -4.6062  1.1958 -0.4828
  401MOL0     H55291  11.316  11.631   2.105 -1.0021 -1.1799  1.0690
  401MOL0     H55292  11.338  11.403   2.176  2.3912  1.9730  0.6867
  401MOL0     H55293  11.329  11.359   1.997 -0.3188  1.7376 -2.1057
  401MOL0     H55294  11.547  11.441   1.958 -0.1709  1.5056 -0.6009
  401MOL0     H55295  11.563  11.518   2.112 -1.2239 -0.7126  0.2694
  401MOL0     H55296  11.760  11.500   2.171 -0.2667 -0.5200  1.3480
  401MOL0     H55297  12.114  11.496   2.190  0.1331  2.1406  1.1681
  401MOL0     H55298  11.995  11.497   2.317  2.7344  1.1271  0.0636
  401MOL0     H55299  11.963  11.588   2.169  0.1186  0.8637  2.0065
  401MOL0     H55300  12.300  11.030   2.360 -1.6808 -2.3043 -2.3168
  401MOL0     H55301  12.527  10.978   2.379 -0.1902 -2.5603 -1.1972
  401MOL0     H55302  12.741  10.985   2.398 -1.9863  1.8529 -1.0489
  401MOL0     H55303  12.722  10.878   2.264  0.6023 -1.3327  2.5884
  401MOL0     H55304  12.945  10.873   2.372 -2.8410 -2.6682 -2.5849
  401MOL0     H55305  12.960  10.915   2.198 -1.4816 -1.1481  0.2120
  401MOL0     H55306  12.973  11.075   2.456  1.8952 -2.0700  0.5894
  401MOL0     H55307  12.975  11.165   2.304  1.9546  0.5110  0.9051
  401MOL0     H55308  13.204  11.051   2.268 -0.2024 -0.5432  0.4264
  401MOL0     H55309  13.178  10.958   2.414  0.7269  0.1927  2.0826
  401MOL0     H55310  13.188  11.264   2.358  1.7126 -0.4087 -0.6623
  401MOL0     H55311  13.126  11.203   2.512 -0.3159 -2.2127  0.6609
  401MOL0     H55312  13.368  11.290   2.509 -1.1536  0.2574 -0.8201
  401MOL0     H55313  13.388  11.155   2.384 -4.0085 -1.3217 -2.0987
  401MOL0     H55314  13.331  11.001   2.587 -0.6519  0.5323 -0.1199
  401MOL0     H55315  13.357  11.143   2.688  0.0821 -1.4580  0.9975
  401MOL0     H55316  13.566  11.025   2.500 -0.7213  2.2624 -0.3059
  401MOL0     H55317  13.548  10.997   2.679 -1.1554 -0.2590  0.6695
  401MOL0     H55318  12.637  11.244   2.051 -1.6761  1.4444 -1.1944
  401MOL0     H55319  12.384  11.271   2.025 -2.3072 -0.2036  1.6764
  401MOL0     H55320  11.945  11.070   2.015  0.2718 -0.4079 -0.7052
  401MOL0     H55321  11.698  11.088   2.053  0.0505  0.4984  0.4815
  401MOL0     H55322   9.817  11.665   1.756 -0.7597 -0.0485 -1.2852
  401MOL0     H55323   9.599  11.568   1.711  0.9214  1.7200  0.2557
  401MOL0     H55324   9.310  11.396   1.617 -0.1873  0.3509 -0.0090
  401MOL0     H55325   9.089  11.347   1.523 -2.3279 -1.2861  0.7779
  401MOL0     H55326   9.029  10.928   1.355 -1.3041 -1.2708 -1.1929
  401MOL0     H55327   8.955  10.904   1.509 -2.0140 -1.0519 -1.4568
  401MOL0     H55328   8.770  11.055   1.437  2.3474  0.7511  1.0447
  401MOL0     H55329   8.772  10.901   1.344  0.6302  0.0901 -2.0400
  401MOL0     H55330   8.867  11.160   1.233  4.0769 -1.2242  0.8818
  401MOL0     H55331   8.887  10.990   1.169  2.5937  1.0027  1.6022
  401MOL0     H55332   8.620  11.129   1.241 -2.6634 -0.2186 -3.2236
  401MOL0     H55333   8.641  10.982   1.138  0.3235 -1.0711  0.5853
  401MOL0     H55334   8.701  11.337   0.893  1.7463 -2.3313 -1.8044
  401MOL0     H55335   9.220  10.930   1.498 -0.6399  0.7857 -0.1563
  401MOL0     H55336   9.509  10.962   1.659  0.9885  1.7296 -0.4618
  401MOL0     H55337   9.396  10.854   1.565 -0.8697  0.5104  0.0134
  401MOL0     H55338   9.528  10.960   1.492  1.0325 -0.9060  0.9177
  402MOL0     O55339   8.859   2.997  11.373  0.3087 -0.1387 -0.5137
  402MOL0     C55340   8.921   2.957  11.271 -0.4264 -0.2963 -1.0871
  402MOL0     O55341   8.918   2.828  11.219  0.4338  0.3667  0.2239
  402MOL0     C55342   8.882   2.735  11.313 -0.6614 -0.5739 -0.0156
  402MOL0     C55343   8.748   2.700  11.346 -0.1403 -0.2151 -0.8576
  402MOL0     C55344   8.728   2.585  11.423  0.4438  0.1172  0.2458
  402MOL0     C55345   8.833   2.506  11.468  0.2890  0.4075  0.1232
  402MOL0     O55346   8.813   2.399  11.553 -0.4834 -0.2291 -0.0614
  402MOL0     C55347   8.673   2.367  11.590 -0.3593 -0.2559  0.5548
  402MOL0     C55348   8.674   2.239  11.664  0.5529  0.0818 -0.2622
  402MOL0     C55349   8.752   2.238  11.794 -0.4793  0.6635  0.6852
  402MOL0     C55350   8.713   2.118  11.869  0.0666 -0.1104 -0.1105
  402MOL0     C55351   8.711   2.134  12.018  1.0934  0.1604  0.1300
  402MOL0     C55352   8.838   2.161  12.085 -0.0499 -0.6743  0.3293
  402MOL0     C55353   8.813   2.203  12.227  0.4849  0.1409  0.0526
  402MOL0     C55354   8.928   2.179  12.318  0.0819  0.2654  0.4439
  402MOL0     N55355   9.045   2.265  12.300 -0.0117  0.2496  0.7521
  402MOL0     C55356   9.061   2.374  12.375  0.2743 -0.4372 -0.9366
  402MOL0     C55357   9.167   2.440  12.309 -0.2844  0.5234 -0.0276
  402MOL0     C55358   9.221   2.580  12.339  0.6589  0.2233 -0.2658
  402MOL0     C55359   9.307   2.581  12.460 -0.1537 -0.3906  0.4832
  402MOL0     C55360   9.447   2.521  12.436  0.3708  0.1248  0.6049
  402MOL0     C55361   9.528   2.528  12.565  0.2865  0.4215 -0.6772
  402MOL0     O55362   9.574   2.660  12.588  0.5744 -0.2959 -0.2654
  402MOL0     C55363   9.665   2.659  12.688 -0.0079 -0.3847 -0.0723
  402MOL0     C55364   9.626   2.694  12.822  0.9534  0.3261 -0.0456
  402MOL0     C55365   9.709   2.715  12.923 -0.3793  0.0121 -0.8399
  402MOL0     C55366   9.659   2.762  13.058 -0.3974 -0.6460 -1.1832
  402MOL0     C55367   9.846   2.691  12.896 -0.1246 -0.0404 -0.1158
  402MOL0     C55368   9.957   2.719  12.994 -0.2314  0.6671 -0.1640
  402MOL0     O55369  10.053   2.628  13.008 -0.4545  0.0991 -0.3954
  402MOL0     C55370  10.160   2.652  13.096 -0.4018  0.4372 -0.9664
  402MOL0     C55371  10.287   2.615  13.056  0.0400  0.6507  0.0013
  402MOL0     C55372  10.393   2.628  13.152 -0.1617 -0.5429  0.4172
  402MOL0     C55373  10.364   2.675  13.287  1.0811  0.1448  0.2306
  402MOL0     O55374  10.460   2.702  13.382  0.6804  0.0730  0.3782
  402MOL0     C55375  10.582   2.630  13.366  1.0188 -0.4311 -0.6447
  402MOL0     C55376  10.666   2.659  13.489 -0.1117  0.3121  0.2704
  402MOL0     C55377  10.756   2.788  13.494 -0.1516 -0.1021 -0.1505
  402MOL0     C55378  10.817   2.822  13.632  0.3150 -0.5041 -0.5282
  402MOL0     C55379  10.942   2.908  13.647 -0.5747  0.4687  0.4445
  402MOL0     C55380  10.906   3.036  13.592  0.7420 -0.2411  0.2054
  402MOL0     C55381  11.022   3.129  13.607 -0.1653 -0.2286  0.7347
  402MOL0     C55382  11.052   3.190  13.745  1.3362 -0.0582  0.4098
  402MOL0    Cl55383  11.158   3.330  13.758  0.0693 -0.2594  0.7086
  402MOL0     C55384  10.236   2.694  13.326 -0.2671 -0.0900 -0.5401
  402MOL0     C55385  10.135   2.672  13.239  0.4933  0.3518  0.1321
  402MOL0     O55386   9.957   2.827  13.049  0.2361 -0.3636  0.0484
  402MOL0     C55387   9.891   2.658  12.762 -0.0423 -1.0843 -0.1209
  402MOL0     C55388   9.795   2.637  12.663  0.0701  0.2275 -0.7233
  402MOL0     N55389   9.202   2.367  12.203 -1.4413 -0.0902  0.0051
  402MOL0     N55390   9.136   2.259  12.194  0.4039 -0.1756  0.2792
  402MOL0     C55391   8.956   2.544  11.443  0.6301  0.3522 -0.8911
  402MOL0     C55392   8.984   2.664  11.372 -0.2187  0.2911  0.0298
  402MOL0     C55393   8.968   3.060  11.175  0.1112 -0.2415 -0.4581
  402MOL0     C55394   8.968   3.033  11.037  0.2993 -0.4884  0.3757
  402MOL0     C55395   9.010   3.133  10.940  0.2144  0.0183  0.2592
  402MOL0     C55396   9.059   3.258  10.980 -0.0658 -0.7330 -0.2493
  402MOL0     O55397   9.091   3.364  10.897  0.1247  0.3506  0.2386
  402MOL0     C55398   9.101   3.328  10.754 -0.7147  0.0655 -0.4723
  402MOL0     C55399   9.195   3.424  10.680 -0.8410 -0.2619  0.1081
  402MOL0     C55400   9.212   3.385  10.534 -0.1254 -0.9770  0.0486
  402MOL0     C55401   9.344   3.440  10.478 -0.0352 -0.0533 -0.2248
  402MOL0     C55402   9.357   3.423  10.331 -0.2179  0.3205 -0.3654
  402MOL0     C55403   9.363   3.396  10.212  0.0371 -0.3343 -0.1842
  402MOL0     C55404   9.067   3.282  11.118 -0.0802  0.1370 -0.2077
  402MOL0     C55405   9.015   3.192  11.213 -0.4741  0.0872  0.1405
  402MOL0     C55406   9.025   3.235  11.362  0.2179  0.7989  0.9361
  402MOL0     H55407   8.651   2.742  11.321 -0.5925  0.0346  1.1167
  402MOL0     H55408   8.624   2.557  11.436  0.4660 -1.6492 -2.5341
  402MOL0     H55409   8.610   2.355  11.501  0.3584 -0.0409  0.0087
  402MOL0     H55410   8.633   2.448  11.651  1.0387  0.6071  0.3645
  402MOL0     H55411   8.571   2.216  11.690  1.8902 -1.6577  4.4836
  402MOL0     H55412   8.706   2.161  11.594 -1.6547  0.3537 -1.6753
  402MOL0     H55413   8.854   2.233  11.756 -1.2897 -1.6284 -1.4418
  402MOL0     H55414   8.737   2.333  11.846  0.8723  1.6837 -0.7048
  402MOL0     H55415   8.617   2.072  11.842 -0.4378  1.0825 -0.3846
  402MOL0     H55416   8.791   2.045  11.844  2.3314  2.4318 -0.9824
  402MOL0     H55417   8.668   2.041  12.058  0.4400  0.0910 -0.6851
  402MOL0     H55418   8.650   2.223  12.037  4.7040  2.6688  0.8849
  402MOL0     H55419   8.906   2.075  12.074 -0.8498 -1.0368 -2.4822
  402MOL0     H55420   8.889   2.245  12.037  0.3330 -0.9820  0.1905
  402MOL0     H55421   8.730   2.145  12.269 -0.9194  3.3953  2.2146
  402MOL0     H55422   8.778   2.307  12.226 -0.7779 -0.1984 -3.4093
  402MOL0     H55423   8.892   2.164  12.420  0.5281 -1.0464  0.4239
  402MOL0     H55424   8.971   2.086  12.281  1.2962  2.2580 -3.7444
  402MOL0     H55425   9.006   2.405  12.464 -1.6111 -1.1500 -1.8033
  402MOL0     H55426   9.135   2.647  12.346  1.3905  1.1462  0.2182
  402MOL0     H55427   9.282   2.611  12.254  1.2045 -3.5066 -1.4152
  402MOL0     H55428   9.326   2.687  12.479 -1.0635 -0.3343  1.1433
  402MOL0     H55429   9.248   2.542  12.543  0.8567 -1.7527  0.5974
  402MOL0     H55430   9.440   2.416  12.407  1.8209  0.6579 -2.0522
  402MOL0     H55431   9.498   2.571  12.352  0.2740  1.6243  1.4033
  402MOL0     H55432   9.474   2.480  12.648  2.8149 -0.2866  0.6707
  402MOL0     H55433   9.622   2.471  12.558  0.7659  0.7834  1.7902
  402MOL0     H55434   9.520   2.720  12.826  0.9061  0.5294 -1.7115
  402MOL0     H55435   9.551   2.768  13.075 -0.3482  2.3640 -1.2723
  402MOL0     H55436   9.705   2.854  13.096  0.1817 -1.9258  1.3709
  402MOL0     H55437   9.683   2.684  13.130 -0.5316  0.3862  0.0016
  402MOL0     H55438  10.312   2.580  12.957 -1.0785  3.5590 -1.4427
  402MOL0     H55439  10.490   2.592  13.119 -1.0142 -1.2263 -1.4798
  402MOL0     H55440  10.550   2.526  13.376  2.9838 -0.9550  0.9739
  402MOL0     H55441  10.630   2.656  13.271  0.6075 -1.0390 -1.0260
  402MOL0     H55442  10.608   2.647  13.581  0.9393 -3.9051  0.5773
  402MOL0     H55443  10.732   2.572  13.488 -1.2816 -0.6390 -1.6635
  402MOL0     H55444  10.705   2.869  13.441 -1.6034 -1.6613 -1.2505
  402MOL0     H55445  10.836   2.766  13.424 -0.8297  2.2361 -1.7516
  402MOL0     H55446  10.840   2.727  13.681 -1.5710 -0.0570  1.3457
  402MOL0     H55447  10.739   2.870  13.692  3.4929  2.0658  1.9129
  402MOL0     H55448  10.970   2.917  13.753 -0.1526 -0.8551  0.4733
  402MOL0     H55449  11.023   2.850  13.601 -1.9382 -0.2100 -1.2055
  402MOL0     H55450  10.814   3.073  13.637  0.2079  0.7765 -1.6264
  402MOL0     H55451  10.893   3.025  13.484  2.3897  0.1962 -0.0637
  402MOL0     H55452  10.998   3.208  13.536  2.0177 -2.5732 -2.9958
  402MOL0     H55453  11.113   3.081  13.570 -0.3221  1.6066 -2.3364
  402MOL0     H55454  11.101   3.107  13.797  0.5690 -0.8146 -0.0433
  402MOL0     H55455  10.954   3.211  13.787  0.2641 -0.0942 -1.8897
  402MOL0     H55456  10.206   2.706  13.430 -0.7727 -3.3424 -0.2239
  402MOL0     H55457  10.031   2.684  13.270  0.3271  1.5846 -0.8609
  402MOL0     H55458   9.995   2.642  12.739 -0.4229 -1.2780 -1.8146
  402MOL0     H55459   9.837   2.614  12.566  0.4334  3.4162 -1.4503
  402MOL0     H55460   9.040   2.493  11.491 -0.0243 -0.0098 -0.1095
  402MOL0     H55461   9.084   2.701  11.350  0.6738 -1.9497 -0.0685
  402MOL0     H55462   8.939   2.931  11.016 -2.8943 -0.4660  3.6192
  402MOL0     H55463   9.007   3.101  10.837 -0.5074  0.3744  0.1613
  402MOL0     H55464   9.150   3.230  10.751  1.9214  1.1673  2.2664
  402MOL0     H55465   9.003   3.328  10.705 -0.3874 -0.4856 -1.1509
  402MOL0     H55466   9.290   3.430  10.734 -0.2669 -2.4372 -0.5446
  402MOL0     H55467   9.161   3.528  10.677 -0.2713 -0.0878 -0.5608
  402MOL0     H55468   9.214   3.277  10.514  0.1798 -0.9833  0.1139
  402MOL0     H55469   9.130   3.435  10.481  0.1715 -2.0663 -1.5222
  402MOL0     H55470   9.420   3.387  10.535 -0.6128 -0.0303  0.5765
  402MOL0     H55471   9.358   3.547  10.498  1.5755 -0.6393  2.2691
  402MOL0     H55472   9.387   3.364  10.112  0.1686  0.0023 -0.2656
  402MOL0     H55473   9.108   3.379  11.147 -0.4173 -0.2652  1.7401
  402MOL0     H55474   9.078   3.153  11.412 -1.1155 -1.4051 -1.0421
  402MOL0     H55475   9.074   3.332  11.374 -1.8683  1.8348  1.5897
  402MOL0     H55476   8.927   3.245  11.409  0.6642  3.4696  1.4428
  403MOL0     O55477   9.339   3.486  11.417 -0.0080  0.3937 -0.5289
  403MOL0     C55478   9.328   3.456  11.535 -0.6019  0.9107 -0.2507
  403MOL0     O55479   9.418   3.378  11.605  0.8553 -0.3632 -0.8153
  403MOL0     C55480   9.534   3.348  11.542 -0.3016 -0.6688 -0.3317
  403MOL0     C55481   9.656   3.394  11.589  0.1783 -0.5317 -0.0436
  403MOL0     C55482   9.779   3.349  11.536 -0.6260 -0.2839  0.1245
  403MOL0     C55483   9.773   3.252  11.434  0.0592  0.2967 -0.5154
  403MOL0     O55484   9.899   3.209  11.391  0.6465  0.5772  0.1618
  403MOL0     C55485   9.903   3.107  11.290 -0.0148  1.0067 -0.7340
  403MOL0     C55486  10.036   3.053  11.271  0.2993  0.6235  0.4895
  403MOL0     C55487  10.059   2.955  11.154 -0.0659  0.1832 -0.8360
  403MOL0     C55488  10.197   2.895  11.180 -0.6068 -0.4313 -0.0084
  403MOL0     C55489  10.224   2.788  11.077  0.1464 -0.7477  0.8308
  403MOL0     C55490  10.373   2.761  11.074 -0.6680 -0.3407  0.4315
  403MOL0     C55491  10.388   2.654  10.978  0.2094 -0.4126  0.0805
  403MOL0     C55492  10.537   2.624  10.947 -0.9637 -0.9210  0.0637
  403MOL0     N55493  10.599   2.584  11.072 -0.1820 -0.2254  0.1075
  403MOL0     C55494  10.661   2.668  11.167 -0.8081 -0.1214  0.9450
  403MOL0     C55495  10.705   2.586  11.262 -0.1979 -0.3273 -0.4191
  403MOL0     C55496  10.791   2.615  11.383 -0.8257 -0.0292 -0.0432
  403MOL0     C55497  10.934   2.561  11.380 -0.2620 -1.0417 -0.6943
  403MOL0     C55498  11.024   2.632  11.278 -0.1771 -0.9915  0.1844
  403MOL0     C55499  11.166   2.616  11.308  0.5502  0.3636 -0.5684
  403MOL0     O55500  11.233   2.704  11.219  0.2123  0.0219  0.7037
  403MOL0     C55501  11.370   2.721  11.218  0.2077 -0.2701  0.3270
  403MOL0     C55502  11.461   2.647  11.297  0.1265  0.5861 -0.2513
  403MOL0     C55503  11.603   2.668  11.294 -0.2289 -0.0880  0.9368
  403MOL0     C55504  11.686   2.574  11.368  0.5047  0.2608 -0.0725
  403MOL0     C55505  11.652   2.770  11.212 -0.7922  0.3195  0.0360
  403MOL0     C55506  11.801   2.801  11.198 -0.6935  0.2124 -0.2027
  403MOL0     O55507  11.894   2.703  11.223 -0.2412 -0.1549  0.0972
  403MOL0     C55508  12.025   2.711  11.216 -0.1699 -0.0548 -0.3173
  403MOL0     C55509  12.096   2.610  11.292  0.7092 -0.3365 -0.2237
  403MOL0     C55510  12.234   2.602  11.304  0.0150  0.8591  0.0164
  403MOL0     C55511  12.307   2.692  11.230 -0.2383 -0.2084 -0.2881
  403MOL0     O55512  12.438   2.675  11.248  0.4999 -0.5494  0.6475
  403MOL0     C55513  12.517   2.773  11.327  0.5333 -0.0685  0.6706
  403MOL0     C55514  12.626   2.693  11.404  0.2661 -0.5193  0.0544
  403MOL0     C55515  12.771   2.727  11.348 -1.0233  0.9959  0.8008
  403MOL0     C55516  12.791   2.653  11.208  0.2412  1.1671 -0.4899
  403MOL0     C55517  12.942   2.650  11.169  0.2665 -0.2419  0.7648
  403MOL0     C55518  12.939   2.578  11.026  1.0963  1.0880 -0.0886
  403MOL0     C55519  13.082   2.546  10.977 -0.9484  0.0654  0.5176
  403MOL0     C55520  13.191   2.651  10.987  0.3582 -0.6451  0.1443
  403MOL0    Cl55521  13.252   2.659  11.149  0.4111  0.0026  0.3354
  403MOL0     C55522  12.244   2.781  11.142  0.5419  0.8517 -0.2437
  403MOL0     C55523  12.105   2.796  11.140  0.2819 -0.0524  0.5145
  403MOL0     O55524  11.831   2.917  11.165  0.1348  0.2193  0.3446
  403MOL0     C55525  11.561   2.845  11.138 -0.4037  0.1787  0.0600
  403MOL0     C55526  11.418   2.828  11.142 -0.0789  0.6963 -0.2080
  403MOL0     N55527  10.650   2.461  11.234 -0.2577  0.5833 -1.2037
  403MOL0     N55528  10.601   2.453  11.119  0.9202  0.4328 -0.1355
  403MOL0     C55529   9.650   3.203  11.387 -0.1458 -1.2404 -0.1364
  403MOL0     C55530   9.531   3.251  11.444  0.0782  0.7120  0.7530
  403MOL0     C55531   9.214   3.497  11.620  0.7692 -0.4559  0.4507
  403MOL0     C55532   9.208   3.461  11.755 -0.7896  0.0613  0.5569
  403MOL0     C55533   9.095   3.477  11.829  0.9181  0.2310  0.6541
  403MOL0     C55534   8.983   3.544  11.771 -0.5657 -0.9510  0.3595
  403MOL0     O55535   8.860   3.555  11.828 -0.3047  0.0398 -0.0399
  403MOL0     C55536   8.868   3.587  11.975 -0.4823  0.7557  0.2300
  403MOL0     C55537   8.773   3.698  12.005 -0.0602  0.3380 -0.0013
  403MOL0     C55538   8.722   3.694  12.153 -0.2614  0.5169 -0.8915
  403MOL0     C55539   8.608   3.787  12.190 -0.9954 -0.1490 -0.2532
  403MOL0     C55540   8.605   3.903  12.119 -0.4254 -0.0416 -0.0260
  403MOL0     C55541   8.593   4.013  12.075  0.8514 -0.0402 -0.2310
  403MOL0     C55542   8.992   3.588  11.641 -0.2667 -0.2821  0.0655
  403MOL0     C55543   9.099   3.567  11.558 -0.4189  0.0399  0.1369
  403MOL0     C55544   9.077   3.627  11.417 -0.3776  0.4804 -0.7076
  403MOL0     H55545   9.653   3.480  11.655  0.1864  0.6859 -1.5645
  403MOL0     H55546   9.870   3.388  11.581 -0.5893 -1.8194  1.4853
  403MOL0     H55547   9.867   3.141  11.192  1.1102  0.0700 -1.4981
  403MOL0     H55548   9.845   3.024  11.333  1.8095  0.5746  1.0426
  403MOL0     H55549  10.099   3.137  11.238  1.9858 -0.1212  1.6768
  403MOL0     H55550  10.073   3.021  11.369 -1.0497 -0.3633  0.7091
  403MOL0     H55551   9.973   2.888  11.157 -0.1261  0.3012  0.8483
  403MOL0     H55552  10.054   3.010  11.059  2.2156  2.4369  0.2116
  403MOL0     H55553  10.275   2.971  11.183 -0.8489 -0.2048  2.2433
  403MOL0     H55554  10.214   2.858  11.281  0.8630  1.2696  0.4140
  403MOL0     H55555  10.202   2.826  10.977  0.0633  1.1248  1.5219
  403MOL0     H55556  10.170   2.698  11.108  0.2682 -1.2757 -0.4027
  403MOL0     H55557  10.426   2.855  11.058  0.1356 -0.1996  3.3492
  403MOL0     H55558  10.409   2.730  11.173  1.6176  0.5520 -0.0543
  403MOL0     H55559  10.346   2.690  10.884  1.0395 -1.0865 -0.5675
  403MOL0     H55560  10.324   2.574  11.017 -1.4986  0.9355  0.1765
  403MOL0     H55561  10.551   2.546  10.873  2.9274  1.0509 -1.5457
  403MOL0     H55562  10.583   2.713  10.903 -0.4648  0.0110  2.3103
  403MOL0     H55563  10.675   2.776  11.160 -2.2296  0.2593  2.9677
  403MOL0     H55564  10.751   2.561  11.469 -2.0319  3.9983  2.2039
  403MOL0     H55565  10.785   2.721  11.409 -1.4033 -0.6620  2.6497
  403MOL0     H55566  10.985   2.575  11.476  1.1759  0.3499 -1.6115
  403MOL0     H55567  10.924   2.453  11.370 -2.9149 -1.0455  1.0523
  403MOL0     H55568  11.015   2.595  11.175  1.3663 -0.3316 -0.2176
  403MOL0     H55569  11.011   2.740  11.286 -0.4130 -1.0727  0.9874
  403MOL0     H55570  11.194   2.638  11.411 -0.4943  2.7512 -0.7300
  403MOL0     H55571  11.190   2.509  11.310 -2.4500 -0.4144  2.0974
  403MOL0     H55572  11.428   2.561  11.354  1.6067  1.4712  2.0690
  403MOL0     H55573  11.756   2.627  11.432 -0.4861  2.4488 -0.7282
  403MOL0     H55574  11.739   2.512  11.294 -0.1927 -1.7520  1.0442
  403MOL0     H55575  11.630   2.495  11.419  1.2927 -2.4510 -3.0119
  403MOL0     H55576  12.035   2.536  11.343 -0.2934 -2.0413 -3.5770
  403MOL0     H55577  12.280   2.528  11.369 -2.6025 -0.5540  0.3964
  403MOL0     H55578  12.565   2.845  11.260 -2.9304  0.2705 -1.7209
  403MOL0     H55579  12.448   2.822  11.396 -2.9522  0.0173 -2.5421
  403MOL0     H55580  12.616   2.719  11.509  0.9839 -0.5150  0.1230
  403MOL0     H55581  12.609   2.585  11.392  2.3989 -0.8364 -0.3777
  403MOL0     H55582  12.850   2.692  11.415 -0.5056 -0.0351 -0.3205
  403MOL0     H55583  12.786   2.832  11.318  0.1585  1.2009  2.0139
  403MOL0     H55584  12.735   2.700  11.127  0.7610 -0.8151 -2.0689
  403MOL0     H55585  12.762   2.548  11.214  1.7763  0.7884  1.7435
  403MOL0     H55586  12.973   2.754  11.165 -0.8417  0.0803 -1.0409
  403MOL0     H55587  13.001   2.590  11.238 -0.6675 -1.2423  0.7235
  403MOL0     H55588  12.895   2.647  10.953 -2.1438 -0.1145  0.5594
  403MOL0     H55589  12.882   2.485  11.019  1.5717  0.9231 -2.8752
  403MOL0     H55590  13.081   2.516  10.872  3.4121  0.7179  0.0863
  403MOL0     H55591  13.122   2.464  11.037  2.4159  0.3076 -1.1748
  403MOL0     H55592  13.152   2.747  10.953  4.8087  1.0834 -0.8041
  403MOL0     H55593  13.279   2.639  10.923  1.5556 -0.1529  1.6475
  403MOL0     H55594  12.295   2.843  11.069  0.1043  0.4502 -0.8993
  403MOL0     H55595  12.066   2.878  11.080 -0.7021 -1.2695 -0.5612
  403MOL0     H55596  11.601   2.924  11.075 -1.3477  2.2649  1.9385
  403MOL0     H55597  11.350   2.891  11.087  0.6876  1.0962 -0.7225
  403MOL0     H55598   9.637   3.135  11.304 -0.4146  1.1382 -2.1389
  403MOL0     H55599   9.435   3.213  11.409  0.3721 -1.4958  2.1436
  403MOL0     H55600   9.284   3.406  11.810  0.0908  1.8863  1.2377
  403MOL0     H55601   9.092   3.438  11.930 -2.2263 -1.1027  0.1412
  403MOL0     H55602   8.847   3.499  12.037  2.9698  0.2711  0.9262
  403MOL0     H55603   8.969   3.615  12.005 -0.5533 -0.5262  1.7943
  403MOL0     H55604   8.686   3.682  11.940  0.5127  1.8137 -1.1975
  403MOL0     H55605   8.821   3.793  11.981 -1.2723  0.6490 -1.3133
  403MOL0     H55606   8.689   3.594  12.183  1.2181  0.2177 -0.1852
  403MOL0     H55607   8.810   3.715  12.215 -2.0156 -1.0345  2.3753
  403MOL0     H55608   8.598   3.817  12.295  0.4576  1.4295 -0.5267
  403MOL0     H55609   8.517   3.731  12.165 -1.6351  0.9064 -0.3241
  403MOL0     H55610   8.609   4.117  12.057 -0.9434  0.6696  1.8599
  403MOL0     H55611   8.907   3.644  11.605  1.3002  1.0598 -1.8059
  403MOL0     H55612   8.988   3.690  11.423  0.3670  1.4731  0.4917
  403MOL0     H55613   9.165   3.688  11.395 -1.1592  1.4481 -1.2259
  403MOL0     H55614   9.067   3.543  11.349  2.3106 -0.6588  0.1542
  404MOL0     O55615   5.432   1.289   2.743 -0.5477  0.1796  0.7056
  404MOL0     C55616   5.402   1.407   2.754 -0.5074 -0.0429  0.4221
  404MOL0     O55617   5.469   1.505   2.819 -0.7651 -0.3156  0.0831
  404MOL0     C55618   5.592   1.472   2.867 -0.1711  0.1825 -0.3220
  404MOL0     C55619   5.690   1.449   2.766  0.2626  0.1244  0.9969
  404MOL0     C55620   5.818   1.422   2.803  0.2474  0.0204 -0.2340
  404MOL0     C55621   5.853   1.409   2.944  0.7265  0.7460 -0.2574
  404MOL0     O55622   5.985   1.376   2.967  0.1381  0.4426 -0.2215
  404MOL0     C55623   6.041   1.425   3.100  1.1471  0.6005 -0.1448
  404MOL0     C55624   6.179   1.482   3.056 -0.7352  0.4798 -0.0206
  404MOL0     C55625   6.233   1.600   3.151  0.2851  0.3484  0.7975
  404MOL0     C55626   6.376   1.635   3.121 -0.6075  0.6796  1.0041
  404MOL0     C55627   6.429   1.756   3.199 -0.2534  0.2559  0.2603
  404MOL0     C55628   6.480   1.716   3.331 -0.6025 -0.3262 -0.6775
  404MOL0     C55629   6.477   1.839   3.428  0.6188  0.8971  0.6202
  404MOL0     C55630   6.547   1.962   3.374  0.0966  0.9573 -0.6485
  404MOL0     N55631   6.590   2.053   3.481 -0.0348 -0.2697 -0.0910
  404MOL0     C55632   6.683   2.011   3.572 -0.5430  0.5087  0.4904
  404MOL0     C55633   6.715   2.118   3.643 -0.3339  0.0649 -0.0457
  404MOL0     C55634   6.816   2.121   3.749  0.0777 -0.2137  0.2299
  404MOL0     C55635   6.863   2.266   3.796 -0.1533 -0.5412 -0.5987
  404MOL0     C55636   6.964   2.257   3.923  0.5421 -0.5218  0.7819
  404MOL0     C55637   6.997   2.391   3.984  0.9888  0.3752 -0.1680
  404MOL0     O55638   7.077   2.472   3.896  0.0374  0.1199  0.6801
  404MOL0     C55639   7.217   2.489   3.922 -0.4152 -0.2121  0.7333
  404MOL0     C55640   7.285   2.602   3.869 -0.0034 -0.0950 -0.4648
  404MOL0     C55641   7.425   2.621   3.897 -0.0173 -0.6676 -0.2682
  404MOL0     C55642   7.499   2.733   3.827  0.4406 -0.1687  0.0076
  404MOL0     C55643   7.499   2.538   3.990 -0.0530 -0.6379  0.4709
  404MOL0     C55644   7.628   2.571   4.061  0.2972 -0.4006  0.1935
  404MOL0     O55645   7.658   2.503   4.169  0.0665  0.6804 -0.1633
  404MOL0     C55646   7.777   2.513   4.228 -0.4527 -0.6758  0.2426
  404MOL0     C55647   7.859   2.400   4.252 -0.3745  0.1675 -0.1545
  404MOL0     C55648   7.973   2.425   4.326 -0.0390  1.0252  0.1519
  404MOL0     C55649   8.015   2.549   4.364  0.2301 -0.9586 -0.3595
  404MOL0     O55650   8.131   2.583   4.426 -0.2333  0.3611 -0.6187
  404MOL0     C55651   8.247   2.490   4.437  0.0775  0.8764  0.3298
  404MOL0     C55652   8.378   2.568   4.432 -0.2560 -0.3066  0.6507
  404MOL0     C55653   8.489   2.547   4.529  0.0172 -0.0477 -0.3067
  404MOL0     C55654   8.557   2.415   4.499  1.1317  1.3367  0.0747
  404MOL0     C55655   8.641   2.359   4.619 -0.2799  0.0950  0.0483
  404MOL0     C55656   8.767   2.451   4.645  0.3883 -0.0605 -0.1680
  404MOL0     C55657   8.882   2.429   4.534 -0.0378 -0.0615 -0.2058
  404MOL0     C55658   9.018   2.400   4.613  0.8449  0.5229 -0.5529
  404MOL0    Cl55659   9.046   2.546   4.720  0.0809  0.0231  0.4865
  404MOL0     C55660   7.938   2.655   4.339 -0.3557 -0.8416 -0.1458
  404MOL0     C55661   7.819   2.645   4.273 -0.6547 -0.0973  0.0311
  404MOL0     O55662   7.708   2.644   4.005  0.7429 -0.1576 -0.6261
  404MOL0     C55663   7.436   2.421   4.033  0.5869 -0.2183 -0.4609
  404MOL0     C55664   7.300   2.396   3.998  0.2966 -0.5317  0.0672
  404MOL0     N55665   6.639   2.231   3.595  0.3126  0.6890 -0.0905
  404MOL0     N55666   6.559   2.182   3.504 -0.1875 -0.5299  0.2553
  404MOL0     C55667   5.753   1.438   3.040 -0.2316  0.2753 -0.4778
  404MOL0     C55668   5.624   1.473   3.000 -0.5649 -0.7975 -0.0596
  404MOL0     C55669   5.292   1.456   2.684  0.1161  0.5014  0.0686
  404MOL0     C55670   5.176   1.374   2.686  0.8437  0.2645 -0.2286
  404MOL0     C55671   5.064   1.407   2.606 -0.3529  0.0055 -0.1166
  404MOL0     C55672   5.066   1.526   2.522 -0.4228 -0.0297  0.0410
  404MOL0     O55673   4.981   1.580   2.431 -0.0405 -0.7006 -0.4591
  404MOL0     C55674   4.847   1.534   2.410 -0.5610  0.9079 -0.1985
  404MOL0     C55675   4.821   1.429   2.297 -0.5748  0.0438 -0.3116
  404MOL0     C55676   4.866   1.488   2.159 -0.6009  0.3510 -0.3431
  404MOL0     C55677   4.781   1.420   2.053  0.3870 -0.4272 -0.2651
  404MOL0     C55678   4.805   1.274   2.068 -0.1985 -0.3130  0.1141
  404MOL0     C55679   4.833   1.153   2.075 -0.4631 -0.2001 -0.3734
  404MOL0     C55680   5.176   1.605   2.532 -0.1105 -0.1989 -0.1827
  404MOL0     C55681   5.295   1.568   2.597 -0.2986  0.8231 -0.6853
  404MOL0     C55682   5.415   1.653   2.572 -0.0019 -0.3923 -0.6311
  404MOL0     H55683   5.680   1.451   2.658  1.6452 -1.5653  0.7953
  404MOL0     H55684   5.890   1.422   2.722  1.3664 -0.3942  0.7176
  404MOL0     H55685   6.037   1.341   3.169  0.4486  0.9921  0.2994
  404MOL0     H55686   5.993   1.513   3.142  1.1166  2.0171 -2.8974
  404MOL0     H55687   6.245   1.396   3.069 -1.3559  0.0753  0.5450
  404MOL0     H55688   6.168   1.506   2.950  2.7559 -2.9028 -1.3554
  404MOL0     H55689   6.174   1.692   3.140  0.3726  0.4126  0.8675
  404MOL0     H55690   6.227   1.568   3.255  2.1281 -1.8787  0.3113
  404MOL0     H55691   6.441   1.548   3.135 -1.0043 -0.2672 -2.2348
  404MOL0     H55692   6.386   1.658   3.015 -0.6214 -1.1451  0.5784
  404MOL0     H55693   6.348   1.830   3.200 -0.3590  0.1448 -0.1720
  404MOL0     H55694   6.510   1.797   3.140 -0.6234 -1.3971 -1.4893
  404MOL0     H55695   6.410   1.641   3.369 -2.0440  0.6933 -1.2100
  404MOL0     H55696   6.585   1.687   3.330 -0.3384 -0.0165  2.8939
  404MOL0     H55697   6.503   1.803   3.527 -1.2263 -1.5495  0.3219
  404MOL0     H55698   6.373   1.855   3.457  0.2414 -2.9129  1.8975
  404MOL0     H55699   6.642   1.941   3.324 -0.2309 -0.6570 -0.6579
  404MOL0     H55700   6.482   2.024   3.311 -0.1392  0.6645 -0.6959
  404MOL0     H55701   6.728   1.913   3.563 -0.1313  0.8260 -1.3620
  404MOL0     H55702   6.907   2.066   3.721  0.9477  1.2017  0.1678
  404MOL0     H55703   6.764   2.077   3.835  1.1286 -1.4317  0.2680
  404MOL0     H55704   6.910   2.326   3.718  0.4319  1.2067  1.0253
  404MOL0     H55705   6.775   2.327   3.821  1.0035  0.6322  0.7782
  404MOL0     H55706   6.911   2.200   4.000 -1.5600  0.0269 -0.1925
  404MOL0     H55707   7.053   2.202   3.892  0.3322 -0.0876 -0.6663
  404MOL0     H55708   6.908   2.453   4.000  0.4351 -0.5861  0.6044
  404MOL0     H55709   7.034   2.363   4.083 -0.6172  2.1753  1.0461
  404MOL0     H55710   7.225   2.670   3.808  0.4636  0.9615  0.2363
  404MOL0     H55711   7.424   2.769   3.756  1.4974  0.9864 -0.5518
  404MOL0     H55712   7.590   2.706   3.773  0.3515 -2.1688  0.7822
  404MOL0     H55713   7.517   2.823   3.888 -1.8945 -0.0161  0.5817
  404MOL0     H55714   7.835   2.305   4.205  2.0215 -0.0606 -1.0250
  404MOL0     H55715   8.034   2.336   4.338  0.7573  1.5100 -0.2600
  404MOL0     H55716   8.229   2.439   4.532 -3.0779 -2.1457 -1.6370
  404MOL0     H55717   8.243   2.415   4.357 -1.2459  1.0913  0.1634
  404MOL0     H55718   8.407   2.559   4.327 -1.5028  1.5112  0.1079
  404MOL0     H55719   8.359   2.675   4.445  0.8739 -0.0245  0.1297
  404MOL0     H55720   8.439   2.553   4.627 -1.6346  0.4415 -1.1451
  404MOL0     H55721   8.555   2.634   4.525  0.3415 -0.2119  0.9298
  404MOL0     H55722   8.608   2.436   4.405  2.2631 -0.7210  0.1691
  404MOL0     H55723   8.486   2.333   4.481  2.8399 -0.3097  0.5436
  404MOL0     H55724   8.579   2.354   4.708 -1.2549  0.6163 -0.5909
  404MOL0     H55725   8.671   2.255   4.601 -1.1315 -0.4535  1.6244
  404MOL0     H55726   8.801   2.436   4.749 -0.5707 -3.0559 -0.1805
  404MOL0     H55727   8.736   2.555   4.637 -2.6808 -0.7437  1.2752
  404MOL0     H55728   8.892   2.524   4.481 -1.0819  1.5231  2.2146
  404MOL0     H55729   8.852   2.345   4.471 -0.4152  0.0896 -0.2306
  404MOL0     H55730   9.104   2.384   4.547 -0.1206 -1.2225 -1.4666
  404MOL0     H55731   8.999   2.310   4.672 -2.0760  1.0603 -0.4885
  404MOL0     H55732   7.989   2.745   4.373 -0.6416 -0.4879 -0.6420
  404MOL0     H55733   7.757   2.734   4.270  1.8143  1.6887 -2.5856
  404MOL0     H55734   7.490   2.344   4.088  2.3562  0.8200 -0.6725
  404MOL0     H55735   7.257   2.301   4.030  1.5218 -2.2608 -3.0015
  404MOL0     H55736   5.757   1.430   3.148 -0.7343 -3.1740 -0.5897
  404MOL0     H55737   5.550   1.512   3.069  0.1825  3.7058 -1.4261
  404MOL0     H55738   5.172   1.284   2.747  1.7126 -0.4569 -1.1997
  404MOL0     H55739   4.972   1.350   2.609 -1.6103  1.9503  0.3747
  404MOL0     H55740   4.806   1.492   2.502  2.1614  2.1009  1.6926
  404MOL0     H55741   4.786   1.624   2.397  0.5758  2.0545  1.8694
  404MOL0     H55742   4.714   1.408   2.306 -0.6540 -0.0791 -1.4592
  404MOL0     H55743   4.878   1.339   2.321  2.8074  2.4919  1.6989
  404MOL0     H55744   4.850   1.597   2.160 -2.1073  0.2510  3.5615
  404MOL0     H55745   4.973   1.472   2.146 -0.5294  1.2190 -0.9800
  404MOL0     H55746   4.815   1.454   1.955 -0.4560 -0.0716 -0.4415
  404MOL0     H55747   4.673   1.439   2.064  0.3023 -1.3462  0.6715
  404MOL0     H55748   4.870   1.053   2.068 -1.8007 -0.7165 -0.2492
  404MOL0     H55749   5.174   1.686   2.460  1.5631 -1.4655 -1.7661
  404MOL0     H55750   5.403   1.686   2.468 -1.8117  0.3244 -0.2368
  404MOL0     H55751   5.420   1.736   2.643  0.2511 -0.3579 -0.6880
  404MOL0     H55752   5.506   1.593   2.581 -0.8093 -1.2883  4.6121
  405MOL0     O55753   0.924   8.771  10.636 -0.6001  0.1827  0.2696
  405MOL0     C55754   0.916   8.672  10.704  0.7774  0.3931  0.8613
  405MOL0     O55755   1.017   8.576  10.724  0.4487  0.1749  0.5670
  405MOL0     C55756   1.131   8.601  10.656 -0.1222 -0.1964  0.4578
  405MOL0     C55757   1.140   8.598  10.515  0.4138 -0.4211  0.3092
  405MOL0     C55758   1.263   8.627  10.459  0.1891 -0.1779 -0.3296
  405MOL0     C55759   1.383   8.624  10.533 -0.6967 -0.2496 -0.0186
  405MOL0     O55760   1.501   8.629  10.458  0.1447  0.7203 -0.0544
  405MOL0     C55761   1.623   8.637  10.539  0.7432 -0.1126 -0.1483
  405MOL0     C55762   1.752   8.651  10.454 -0.1838  0.2786  0.0910
  405MOL0     C55763   1.878   8.671  10.554 -0.6359  0.0824 -0.3069
  405MOL0     C55764   2.014   8.678  10.469  0.1621  0.6138  0.2721
  405MOL0     C55765   2.134   8.696  10.559 -0.2146  0.6635  1.2317
  405MOL0     C55766   2.271   8.670  10.473  0.2171 -0.6476 -0.2122
  405MOL0     C55767   2.388   8.649  10.572  0.2638  1.1873  0.4022
  405MOL0     C55768   2.516   8.637  10.484  1.1683 -0.5638  0.6515
  405MOL0     N55769   2.623   8.683  10.567  0.0678 -0.4220  0.5875
  405MOL0     C55770   2.744   8.719  10.516  0.3829  0.4401  0.2403
  405MOL0     C55771   2.834   8.720  10.613 -0.4058 -0.4786 -0.0403
  405MOL0     C55772   2.977   8.784  10.592 -0.0608  0.9800 -0.0494
  405MOL0     C55773   3.045   8.815  10.727  0.3915  0.5483 -0.2922
  405MOL0     C55774   3.176   8.894  10.719 -0.1445 -0.1636 -0.0340
  405MOL0     C55775   3.171   9.033  10.667 -0.0918  0.9523  0.3757
  405MOL0     O55776   3.176   9.020  10.524  0.1490 -0.5081 -0.0660
  405MOL0     C55777   3.272   9.091  10.460 -0.2282  0.3199 -0.7134
  405MOL0     C55778   3.237   9.158  10.343  0.0192  0.3259  0.5281
  405MOL0     C55779   3.325   9.240  10.277  0.2374 -0.2564  1.1224
  405MOL0     C55780   3.267   9.303  10.141  0.4280 -0.2456 -0.4361
  405MOL0     C55781   3.449   9.275  10.333  0.4806  0.3942  0.0134
  405MOL0     C55782   3.529   9.398  10.284  0.3050 -0.0672  0.3907
  405MOL0     O55783   3.475   9.495  10.210 -0.1499 -0.1831  0.0388
  405MOL0     C55784   3.545   9.598  10.175 -0.2354  0.4854 -0.1802
  405MOL0     C55785   3.676   9.596  10.124 -0.8833  0.0242  0.2326
  405MOL0     C55786   3.736   9.720  10.100 -0.3813  0.0733 -0.3218
  405MOL0     C55787   3.678   9.846  10.121 -0.0899  0.8618 -0.5655
  405MOL0     O55788   3.746   9.965  10.105  0.2954  1.0643  0.0378
  405MOL0     C55789   3.667  10.077  10.084  0.6269 -0.9246  0.5430
  405MOL0     C55790   3.760  10.200  10.097  0.5918  0.8002  0.2759
  405MOL0     C55791   3.838  10.200  10.237 -0.1347  0.6519  0.7112
  405MOL0     C55792   3.895  10.339  10.252  0.2654  0.5001  1.0965
  405MOL0     C55793   3.964  10.354  10.381 -0.8520  0.0688  0.6877
  405MOL0     C55794   4.099  10.263  10.402  0.0330 -0.1470  0.1780
  405MOL0     C55795   4.198  10.317  10.506 -0.1345  0.5943  0.7466
  405MOL0     C55796   4.273  10.443  10.473  0.1504  0.5692  0.4893
  405MOL0    Cl55797   4.409  10.378  10.364 -0.1692  0.0840 -0.0155
  405MOL0     C55798   3.541   9.833  10.147 -0.2051 -0.0183  0.1999
  405MOL0     C55799   3.480   9.714  10.180 -0.1825 -0.5336  0.4115
  405MOL0     O55800   3.637   9.397  10.338 -0.1076 -0.0791 -0.8246
  405MOL0     C55801   3.493   9.191  10.445  0.1780 -0.1594  0.0294
  405MOL0     C55802   3.401   9.105  10.507 -0.6534 -0.7630 -1.0380
  405MOL0     N55803   2.776   8.673  10.723 -0.8140  0.6784 -0.0525
  405MOL0     N55804   2.653   8.658  10.693  0.4375  0.3825 -0.4355
  405MOL0     C55805   1.376   8.610  10.669  0.3489  0.0067  0.1685
  405MOL0     C55806   1.251   8.604  10.727 -0.1587  0.1743 -0.1564
  405MOL0     C55807   0.794   8.634  10.787  0.0215 -0.2218 -0.0769
  405MOL0     C55808   0.802   8.535  10.888 -0.5336 -0.2604  0.6175
  405MOL0     C55809   0.693   8.505  10.975 -0.9316  0.8535 -0.7388
  405MOL0     C55810   0.575   8.574  10.972  0.8932  0.4788  1.2163
  405MOL0     O55811   0.456   8.567  11.042  0.6533 -0.3568 -0.1558
  405MOL0     C55812   0.432   8.464  11.140 -0.2141  0.0896 -0.4713
  405MOL0     C55813   0.493   8.523  11.267  0.2902  0.3379 -0.2990
  405MOL0     C55814   0.515   8.396  11.360  0.3524  0.3726 -0.3946
  405MOL0     C55815   0.585   8.429  11.492  0.3479 -0.2998 -0.9397
  405MOL0     C55816   0.720   8.476  11.480 -0.5726  0.8363 -0.1839
  405MOL0     C55817   0.843   8.500  11.482 -0.0182 -0.0238  0.2399
  405MOL0     C55818   0.568   8.661  10.864 -0.0807  0.5368  0.1117
  405MOL0     C55819   0.663   8.695  10.775  0.3600 -0.2628  1.0651
  405MOL0     C55820   0.613   8.766  10.646 -0.2081 -0.0012  0.0391
  405MOL0     H55821   1.049   8.589  10.456  0.5289  2.3263 -0.4420
  405MOL0     H55822   1.270   8.639  10.351 -0.1802 -0.7660 -0.4220
  405MOL0     H55823   1.633   8.543  10.595 -1.8020 -1.2699 -1.5145
  405MOL0     H55824   1.614   8.726  10.602  2.2448  0.7605 -1.1029
  405MOL0     H55825   1.764   8.568  10.383  0.1313  0.4979 -0.1145
  405MOL0     H55826   1.751   8.739  10.389  0.6651 -1.7075 -2.8073
  405MOL0     H55827   1.864   8.753  10.625 -1.7124 -1.6173  1.5396
  405MOL0     H55828   1.886   8.583  10.618  2.0537  1.6017  1.6678
  405MOL0     H55829   2.029   8.578  10.425 -4.2477 -1.0956  2.0773
  405MOL0     H55830   2.019   8.759  10.396  1.7044  0.0036 -0.3434
  405MOL0     H55831   2.119   8.618  10.634 -2.5078  1.3770  1.5748
  405MOL0     H55832   2.126   8.794  10.608  0.2078  0.4575  1.7201
  405MOL0     H55833   2.266   8.583  10.406  2.0852 -0.6513 -0.4016
  405MOL0     H55834   2.292   8.758  10.412 -0.0049  0.1920  0.9002
  405MOL0     H55835   2.368   8.556  10.625  3.5072  0.2183  0.1340
  405MOL0     H55836   2.399   8.725  10.649  0.4664  0.8978  0.6589
  405MOL0     H55837   2.535   8.534  10.454  0.2094 -0.3695 -0.6941
  405MOL0     H55838   2.511   8.692  10.390 -0.7200  1.2404  1.7059
  405MOL0     H55839   2.760   8.755  10.415  0.3050  0.9777  0.4178
  405MOL0     H55840   2.972   8.875  10.532  0.2627  0.3190 -1.1261
  405MOL0     H55841   3.029   8.707  10.533 -1.6605 -0.4740  0.3880
  405MOL0     H55842   2.972   8.873  10.784 -0.8430  0.4065 -1.6740
  405MOL0     H55843   3.066   8.724  10.785 -2.0140 -0.4938 -0.9266
  405MOL0     H55844   3.213   8.906  10.821  2.3899 -0.5238 -0.8516
  405MOL0     H55845   3.250   8.834  10.666 -1.6859 -1.6266 -0.6270
  405MOL0     H55846   3.079   9.087  10.688 -2.6777 -2.0441 -2.1467
  405MOL0     H55847   3.258   9.089  10.703  1.1192  0.2025 -1.2429
  405MOL0     H55848   3.140   9.127  10.305 -1.2093  1.4794  2.5299
  405MOL0     H55849   3.236   9.407  10.154 -1.5964 -0.8915  0.3047
  405MOL0     H55850   3.175   9.255  10.106 -0.3639  0.4966  0.5817
  405MOL0     H55851   3.344   9.298  10.064 -1.3483 -0.3153 -2.2911
  405MOL0     H55852   3.740   9.511  10.101  1.8480  1.7285  1.1014
  405MOL0     H55853   3.838   9.728  10.064 -0.1901  1.4934  0.4964
  405MOL0     H55854   3.616  10.072   9.987  0.8427 -1.2964  0.4466
  405MOL0     H55855   3.597  10.085  10.167  0.8084 -1.1439  0.7165
  405MOL0     H55856   3.833  10.193  10.016  0.6596 -2.4324  0.4856
  405MOL0     H55857   3.693  10.285  10.086 -2.1423 -1.5392 -3.3193
  405MOL0     H55858   3.917  10.125  10.233 -1.7466 -1.1236  0.6175
  405MOL0     H55859   3.771  10.172  10.318 -0.8728 -1.6654 -0.5906
  405MOL0     H55860   3.807  10.404  10.251  0.1636  0.3936 -0.7332
  405MOL0     H55861   3.956  10.373  10.168 -1.9672  0.3081 -0.6860
  405MOL0     H55862   3.984  10.461  10.392  1.2375 -0.1612 -0.2767
  405MOL0     H55863   3.908  10.325  10.470  0.4836 -1.7771  1.0013
  405MOL0     H55864   4.153  10.246  10.308  0.4149 -1.6129  0.6380
  405MOL0     H55865   4.076  10.157  10.419 -1.6852  0.4567  1.9729
  405MOL0     H55866   4.268  10.234  10.514 -1.4303 -0.6742 -0.4247
  405MOL0     H55867   4.148  10.334  10.602  1.1486  0.3015  1.4906
  405MOL0     H55868   4.315  10.495  10.559 -0.4027  2.8351 -0.5300
  405MOL0     H55869   4.209  10.516  10.422 -1.5862  0.2466  2.0663
  405MOL0     H55870   3.477   9.919  10.160  0.8248  0.9442 -0.8793
  405MOL0     H55871   3.375   9.710  10.206 -0.0851 -2.5560  0.6700
  405MOL0     H55872   3.597   9.198  10.475 -0.0713 -1.0126  1.1386
  405MOL0     H55873   3.425   9.049  10.597 -2.2381 -0.7839 -0.5940
  405MOL0     H55874   1.448   8.592  10.748 -1.2737 -2.9181  1.1255
  405MOL0     H55875   1.249   8.594  10.835 -1.6273 -0.1005 -0.1900
  405MOL0     H55876   0.897   8.483  10.893  0.9030  2.0753 -0.5840
  405MOL0     H55877   0.712   8.437  11.058 -2.2456  0.7635 -0.4787
  405MOL0     H55878   0.329   8.435  11.164  0.5174 -0.8885  1.7864
  405MOL0     H55879   0.498   8.378  11.128  1.2847  1.0691  0.4064
  405MOL0     H55880   0.435   8.607  11.307  1.0870  0.2264  1.1382
  405MOL0     H55881   0.588   8.572  11.246  1.2125 -1.6062 -0.9173
  405MOL0     H55882   0.419   8.346  11.374  0.2548  0.9075  0.9510
  405MOL0     H55883   0.575   8.319  11.312 -1.4178  0.5203 -3.1140
  405MOL0     H55884   0.581   8.336  11.551 -0.2368 -0.8006 -1.7386
  405MOL0     H55885   0.533   8.504  11.551  2.2283  1.0931 -0.9626
  405MOL0     H55886   0.943   8.529  11.507  0.0890  1.0553 -1.3144
  405MOL0     H55887   0.476   8.718  10.866  0.9662  2.2774  2.3022
  405MOL0     H55888   0.573   8.863  10.677 -3.2631 -1.3100  0.4991
  405MOL0     H55889   0.685   8.789  10.567 -3.1734  0.3459 -2.8112
  405MOL0     H55890   0.531   8.710  10.599 -0.0823  0.5176 -0.8344
  406MOL0     O55891   4.880  10.258   0.983  0.2557 -0.6214 -0.6665
  406MOL0     C55892   4.773  10.254   0.931 -0.2483 -0.5582 -0.3810
  406MOL0     O55893   4.744  10.223   0.804  0.5993 -0.1376  0.0585
  406MOL0     C55894   4.846  10.213   0.713 -0.3316  1.2839  0.3003
  406MOL0     C55895   4.934  10.110   0.719  0.1776 -0.6393 -0.4927
  406MOL0     C55896   5.056  10.107   0.657  0.4595  0.5437  0.0547
  406MOL0     C55897   5.100  10.218   0.585  0.0169 -0.1994  0.9773
  406MOL0     O55898   5.225  10.218   0.517 -0.2488  0.1069 -0.3956
  406MOL0     C55899   5.336  10.130   0.562 -0.6612 -1.2294  0.4249
  406MOL0     C55900   5.402  10.201   0.675  0.2797 -0.2446  0.2937
  406MOL0     C55901   5.539  10.136   0.712  0.3629  0.5257  0.7014
  406MOL0     C55902   5.650  10.199   0.618 -0.4795  0.0048  0.1200
  406MOL0     C55903   5.797  10.157   0.623 -0.7870  0.2354 -1.2487
  406MOL0     C55904   5.803  10.003   0.619  0.1100 -0.5125 -0.1927
  406MOL0     C55905   5.936   9.965   0.566 -0.3385 -0.2586  0.2301
  406MOL0     C55906   6.034   9.941   0.680 -0.4947  0.4844 -0.3332
  406MOL0     N55907   6.149   9.875   0.632 -0.2362  0.1942  1.3462
  406MOL0     C55908   6.251   9.929   0.557 -0.1526 -0.2415 -0.0079
  406MOL0     C55909   6.343   9.829   0.553 -0.9260 -0.6683 -0.2048
  406MOL0     C55910   6.479   9.838   0.480 -0.0277 -0.0164  0.3896
  406MOL0     C55911   6.583   9.890   0.588  0.6234 -0.1194 -0.2955
  406MOL0     C55912   6.722   9.904   0.542  0.2718  0.3532  0.5438
  406MOL0     C55913   6.776   9.768   0.487 -0.0435 -0.1971  0.1346
  406MOL0     O55914   6.914   9.787   0.482 -0.0499  0.8554 -0.1294
  406MOL0     C55915   6.991   9.675   0.477  0.1370 -0.0206  0.3484
  406MOL0     C55916   6.952   9.550   0.432 -0.0136 -0.6446 -0.1457
  406MOL0     C55917   7.046   9.447   0.413 -0.1014  0.0874 -0.3581
  406MOL0     C55918   6.991   9.309   0.383  0.4469  0.2431 -0.0980
  406MOL0     C55919   7.182   9.461   0.444 -0.3814 -0.3515  0.1382
  406MOL0     C55920   7.286   9.356   0.432  0.7892  0.3423  0.0425
  406MOL0     O55921   7.399   9.385   0.503 -0.6855 -0.1599  0.4668
  406MOL0     C55922   7.488   9.284   0.493  0.3001 -0.2493  0.1105
  406MOL0     C55923   7.476   9.164   0.561  0.4169  0.2391 -0.1415
  406MOL0     C55924   7.551   9.050   0.533 -0.1509  0.7816  0.2497
  406MOL0     C55925   7.643   9.047   0.428 -0.3798  0.4266 -0.0881
  406MOL0     O55926   7.699   8.927   0.393  0.5928  1.1821 -0.1404
  406MOL0     C55927   7.833   8.926   0.347 -0.6020 -0.0390 -0.1140
  406MOL0     C55928   7.868   8.787   0.294 -0.0231 -0.7432  0.2758
  406MOL0     C55929   8.005   8.772   0.238 -0.0233  0.7231  0.2661
  406MOL0     C55930   8.127   8.844   0.301  0.0204  0.1208 -0.8079
  406MOL0     C55931   8.146   8.800   0.443 -0.5434  0.2098 -1.1178
  406MOL0     C55932   8.277   8.826   0.502 -0.7367  0.2990  0.5577
  406MOL0     C55933   8.306   8.983   0.531  0.4325 -0.1761  0.6262
  406MOL0     C55934   8.453   9.012   0.562 -0.3217 -0.2060  0.2906
  406MOL0    Cl55935   8.494   8.897   0.696 -0.0999  0.4485  0.1187
  406MOL0     C55936   7.665   9.179   0.367 -0.0198  0.2069 -0.0534
  406MOL0     C55937   7.586   9.295   0.399 -0.3419 -0.2559 -0.8327
  406MOL0     O55938   7.268   9.262   0.356  0.0424 -0.8128  0.1670
  406MOL0     C55939   7.221   9.592   0.482 -0.1386 -0.0657 -0.0748
  406MOL0     C55940   7.131   9.691   0.503 -0.5456 -0.2843 -0.4006
  406MOL0     N55941   6.297   9.718   0.623 -0.1994  0.7215 -0.8358
  406MOL0     N55942   6.175   9.748   0.672  0.1347 -0.7348 -0.2512
  406MOL0     C55943   5.009  10.326   0.573  0.1222  0.0301  0.1322
  406MOL0     C55944   4.882  10.320   0.634 -0.0390  0.0345  0.0583
  406MOL0     C55945   4.650  10.286   1.018  0.2585 -0.3778  0.4860
  406MOL0     C55946   4.553  10.186   1.043  0.5585  0.1699  0.8435
  406MOL0     C55947   4.445  10.201   1.129  0.6584  0.0691  0.1938
  406MOL0     C55948   4.440  10.309   1.216  0.1653 -0.3729  0.7193
  406MOL0     O55949   4.335  10.338   1.302 -0.1892 -0.1475 -0.0333
  406MOL0     C55950   4.227  10.242   1.320 -0.9854 -0.9830  0.4080
  406MOL0     C55951   4.254  10.160   1.443 -0.5481  0.7233  0.0806
  406MOL0     C55952   4.137  10.063   1.464 -0.0094  0.2008 -0.8644
  406MOL0     C55953   4.057  10.113   1.580 -0.5678 -0.8444  0.7921
  406MOL0     C55954   3.933  10.034   1.581 -0.1407 -0.2943 -0.3825
  406MOL0     C55955   3.831   9.970   1.559 -0.7449 -0.1599  0.4294
  406MOL0     C55956   4.548  10.399   1.215  0.3788  0.0028 -0.8929
  406MOL0     C55957   4.649  10.389   1.117 -0.4662  0.5765 -0.6025
  406MOL0     C55958   4.750  10.499   1.100 -0.2756 -0.7387 -0.5706
  406MOL0     H55959   4.902  10.018   0.767 -1.9520  0.1990 -0.1589
  406MOL0     H55960   5.108  10.012   0.669  3.6148  2.0167 -0.9116
  406MOL0     H55961   5.398  10.119   0.473  1.5479 -0.4583  1.7820
  406MOL0     H55962   5.296  10.037   0.604 -2.6793  0.1875  1.8266
  406MOL0     H55963   5.411  10.310   0.665  4.3207 -0.4468 -0.0938
  406MOL0     H55964   5.333  10.197   0.759  1.0018 -0.0240  0.9070
  406MOL0     H55965   5.569  10.156   0.815  0.1529 -1.3574  1.1610
  406MOL0     H55966   5.531  10.027   0.710 -0.4467  0.5828 -0.9504
  406MOL0     H55967   5.614  10.158   0.523  0.1653 -0.5796  0.1184
  406MOL0     H55968   5.635  10.307   0.626  1.6124  0.4151 -0.7442
  406MOL0     H55969   5.854  10.186   0.711 -1.5127  0.6651 -0.9137
  406MOL0     H55970   5.853  10.189   0.534  1.5388 -0.1051  0.0017
  406MOL0     H55971   5.793   9.958   0.719  0.9519  0.9571  0.5744
  406MOL0     H55972   5.729   9.968   0.546 -1.1973  1.4680  0.0968
  406MOL0     H55973   5.976  10.026   0.484  1.6022 -1.7781 -0.0139
  406MOL0     H55974   5.920   9.867   0.520 -0.4295  0.2981 -0.9686
  406MOL0     H55975   6.062  10.030   0.735 -1.8199 -0.2540  1.6415
  406MOL0     H55976   6.000   9.873   0.759  1.6686 -1.1850 -0.7337
  406MOL0     H55977   6.249  10.024   0.506  0.2500  0.1150  0.6334
  406MOL0     H55978   6.469   9.902   0.392 -2.0977  0.2833  0.8049
  406MOL0     H55979   6.518   9.738   0.458 -0.2158  0.6731 -3.9628
  406MOL0     H55980   6.540   9.987   0.617 -0.2541 -0.7766  0.7005
  406MOL0     H55981   6.576   9.823   0.675  1.2441 -2.4565 -1.9586
  406MOL0     H55982   6.733   9.980   0.464  3.3952 -0.3354  0.1611
  406MOL0     H55983   6.785   9.926   0.629  0.4498 -0.4888  0.6378
  406MOL0     H55984   6.751   9.681   0.548 -0.0849  0.5291  1.1977
  406MOL0     H55985   6.728   9.751   0.390  0.6450  1.3740 -0.5171
  406MOL0     H55986   6.850   9.524   0.405  0.0589 -0.1085 -0.9542
  406MOL0     H55987   6.888   9.284   0.411  0.6458  0.5914  1.0029
  406MOL0     H55988   7.042   9.238   0.449 -2.5826 -3.5407 -1.3924
  406MOL0     H55989   7.001   9.283   0.277 -2.5597 -0.8800 -0.2042
  406MOL0     H55990   7.393   9.151   0.629  0.6741  0.7191  0.2708
  406MOL0     H55991   7.524   8.955   0.579 -2.3424 -0.1542 -2.6063
  406MOL0     H55992   7.844   9.004   0.270 -3.1608  0.5204 -0.0056
  406MOL0     H55993   7.897   8.947   0.433 -2.6893 -0.1488  1.5507
  406MOL0     H55994   7.850   8.705   0.365 -3.1112 -2.6540 -2.3938
  406MOL0     H55995   7.801   8.756   0.212  2.6433 -0.2043 -2.2657
  406MOL0     H55996   8.010   8.800   0.132 -1.2348 -1.2635 -0.3880
  406MOL0     H55997   8.020   8.665   0.257 -1.3895  0.2008 -1.2493
  406MOL0     H55998   8.098   8.950   0.298 -0.8160 -0.1239 -1.6269
  406MOL0     H55999   8.213   8.839   0.234  0.4507 -2.0723 -0.1716
  406MOL0     H56000   8.069   8.827   0.516 -1.2478 -3.2689 -0.4165
  406MOL0     H56001   8.131   8.692   0.447 -0.8673  0.2335  2.8806
  406MOL0     H56002   8.349   8.786   0.430 -1.3632  1.5376 -0.8323
  406MOL0     H56003   8.274   8.779   0.600 -3.1950 -1.1974 -0.1362
  406MOL0     H56004   8.246   9.012   0.617  2.4037  4.5194  0.7585
  406MOL0     H56005   8.279   9.042   0.443  0.8743  0.4086  0.8723
  406MOL0     H56006   8.469   9.119   0.583 -0.7509  0.1211 -0.9809
  406MOL0     H56007   8.503   8.994   0.467 -0.3436  2.1088 -0.2339
  406MOL0     H56008   7.743   9.195   0.292 -2.1655 -1.5980 -2.9030
  406MOL0     H56009   7.606   9.384   0.341 -0.0888 -0.8484 -1.6792
  406MOL0     H56010   7.317   9.624   0.522 -0.2108  1.2001 -0.8378
  406MOL0     H56011   7.173   9.784   0.541  0.2996 -1.2860  1.1984
  406MOL0     H56012   5.025  10.421   0.524 -2.4734  0.4421 -0.0087
  406MOL0     H56013   4.823  10.410   0.618  1.4727  0.6518 -2.7602
  406MOL0     H56014   4.566  10.094   0.985  1.4144  0.6183  0.2968
  406MOL0     H56015   4.368  10.125   1.126  1.2740 -0.5417 -0.6547
  406MOL0     H56016   4.134  10.301   1.325 -0.5698 -0.0347 -1.7969
  406MOL0     H56017   4.202  10.185   1.231  1.7706  0.6087 -1.5356
  406MOL0     H56018   4.265  10.230   1.526 -2.4317  2.3127 -0.9303
  406MOL0     H56019   4.346  10.104   1.423 -2.0328 -1.7275 -0.3391
  406MOL0     H56020   4.081  10.058   1.371 -1.1537  1.2607 -0.2489
  406MOL0     H56021   4.184   9.968   1.493 -0.7446  0.1637  0.2486
  406MOL0     H56022   4.037  10.220   1.574 -0.7670 -0.9098  0.2750
  406MOL0     H56023   4.116  10.115   1.673 -1.0364  2.0322  1.1178
  406MOL0     H56024   3.743   9.909   1.561 -1.5163  0.7151  5.5784
  406MOL0     H56025   4.565  10.473   1.293  1.0063 -1.8603  0.8215
  406MOL0     H56026   4.712  10.586   1.156  0.6485 -0.1448 -0.8514
  406MOL0     H56027   4.835  10.453   1.150 -1.7434 -1.4381  1.4274
  406MOL0     H56028   4.767  10.524   0.995 -2.6709 -1.6376 -1.2481
  407MOL0     O56029   1.261   7.796   1.362 -0.7097  0.4752  0.0954
  407MOL0     C56030   1.195   7.859   1.282 -0.0679  0.3297  1.1983
  407MOL0     O56031   1.222   7.988   1.235  0.2679  0.0791 -0.7395
  407MOL0     C56032   1.349   8.041   1.256 -0.0783  0.6697 -0.5252
  407MOL0     C56033   1.389   8.086   1.379 -0.4816 -0.1690 -0.3672
  407MOL0     C56034   1.523   8.138   1.387 -1.2280 -0.2088 -0.1728
  407MOL0     C56035   1.607   8.149   1.270  0.1528 -0.6425  0.2711
  407MOL0     O56036   1.736   8.194   1.290  0.0581 -0.2447  0.2929
  407MOL0     C56037   1.785   8.209   1.419 -0.2431 -0.1071 -0.8146
  407MOL0     C56038   1.926   8.267   1.410 -0.4376 -0.2053 -0.4590
  407MOL0     C56039   2.015   8.266   1.531 -0.0645  0.4553  0.0249
  407MOL0     C56040   1.960   8.337   1.649  0.4388  0.2867 -0.1429
  407MOL0     C56041   1.989   8.255   1.787  0.1276  0.2302 -0.0747
  407MOL0     C56042   2.129   8.260   1.834 -0.0977  0.7100  0.9843
  407MOL0     C56043   2.188   8.390   1.892 -0.0247 -0.8444  0.4256
  407MOL0     C56044   2.347   8.413   1.889  0.2498  0.5281 -0.3545
  407MOL0     N56045   2.386   8.444   1.753  0.8788 -0.6551  0.0293
  407MOL0     C56046   2.414   8.351   1.662 -0.3796  0.4425  0.6682
  407MOL0     C56047   2.422   8.410   1.543  0.1448 -0.6564 -0.7895
  407MOL0     C56048   2.450   8.345   1.410  0.7246  0.1249 -0.0691
  407MOL0     C56049   2.584   8.282   1.382 -0.3297 -0.3428  0.0843
  407MOL0     C56050   2.695   8.386   1.370  0.3506  0.1899 -0.4806
  407MOL0     C56051   2.803   8.322   1.286 -0.3356 -0.3902 -0.4450
  407MOL0     O56052   2.893   8.429   1.264 -0.4253 -0.3584 -0.0055
  407MOL0     C56053   2.992   8.412   1.175 -0.7637  0.3232 -0.2600
  407MOL0     C56054   3.019   8.284   1.116 -0.5271  0.2580  0.3347
  407MOL0     C56055   3.127   8.263   1.035 -0.4907 -0.6935  0.1145
  407MOL0     C56056   3.150   8.120   0.979 -0.4561  0.3382  0.1789
  407MOL0     C56057   3.213   8.376   1.003 -0.2452  0.4105 -0.0766
  407MOL0     C56058   3.334   8.370   0.922  0.1708 -0.0373 -0.5389
  407MOL0     O56059   3.391   8.247   0.910  0.1180  0.4173 -0.1826
  407MOL0     C56060   3.500   8.226   0.825  1.0526 -0.5839  0.0481
  407MOL0     C56061   3.610   8.310   0.809  1.0014 -0.4008 -0.4675
  407MOL0     C56062   3.720   8.282   0.725  0.2888  0.7991 -0.3636
  407MOL0     C56063   3.724   8.159   0.652 -0.1145 -0.1677 -0.1215
  407MOL0     O56064   3.829   8.135   0.571 -0.8659 -0.3203 -0.0969
  407MOL0     C56065   3.865   7.997   0.538  0.6341  0.1220 -0.6807
  407MOL0     C56066   3.798   7.952   0.408  0.1596 -0.2051  0.1942
  407MOL0     C56067   3.811   7.800   0.375  0.8756  0.1398 -0.2599
  407MOL0     C56068   3.943   7.771   0.302  0.2605  0.2054  0.4897
  407MOL0     C56069   3.939   7.627   0.275  0.0089  0.0868 -0.4262
  407MOL0     C56070   3.960   7.539   0.401  0.1190  0.1548 -0.5246
  407MOL0     C56071   3.963   7.398   0.361  0.4385  0.2695  0.4205
  407MOL0     C56072   4.025   7.303   0.466  0.4487  0.4080 -0.3210
  407MOL0    Cl56073   4.195   7.311   0.469  0.0237  0.2135 -0.2351
  407MOL0     C56074   3.618   8.073   0.675  0.3716  0.1199 -0.9082
  407MOL0     C56075   3.509   8.109   0.754 -0.2310  0.3144  0.0835
  407MOL0     O56076   3.363   8.463   0.853 -0.2871  0.2055 -0.0602
  407MOL0     C56077   3.184   8.507   1.057  0.4212  0.3254  0.2347
  407MOL0     C56078   3.073   8.520   1.142 -0.1773  0.4285  0.3706
  407MOL0     N56079   2.428   8.545   1.577 -0.1268  0.5193  0.3361
  407MOL0     N56080   2.391   8.569   1.701 -0.8157  0.0152  0.3185
  407MOL0     C56081   1.563   8.100   1.150  0.5147  0.1015 -0.3152
  407MOL0     C56082   1.431   8.049   1.143  0.2532  0.4569 -0.6987
  407MOL0     C56083   1.066   7.803   1.204 -0.2652  0.8533  0.4820
  407MOL0     C56084   0.999   7.889   1.112  0.7322 -0.6078  0.0789
  407MOL0     C56085   0.883   7.855   1.047  0.9140  0.2937  0.7367
  407MOL0     C56086   0.821   7.738   1.089 -0.1698  0.4980  0.1423
  407MOL0     O56087   0.725   7.687   1.015  0.0882  0.6257 -0.2948
  407MOL0     C56088   0.592   7.739   1.044 -0.9962  0.1656  0.7068
  407MOL0     C56089   0.494   7.626   1.022  0.6187 -0.9262 -1.4224
  407MOL0     C56090   0.345   7.682   1.050  0.1576  0.3114 -0.5989
  407MOL0     C56091   0.309   7.653   1.202  0.6802  0.4398  0.5325
  407MOL0     C56092   0.182   7.716   1.227  0.0442 -0.1211  0.7301
  407MOL0     C56093   0.078   7.779   1.247 -0.4602  0.6874  0.3176
  407MOL0     C56094   0.875   7.649   1.176 -0.0777 -0.1887  0.1100
  407MOL0     C56095   1.007   7.678   1.227 -0.2294  0.4871 -0.3324
  407MOL0     C56096   1.076   7.565   1.298 -0.3256 -0.4472 -0.8559
  407MOL0     H56097   1.328   8.067   1.467  1.6344 -0.8116  1.0460
  407MOL0     H56098   1.553   8.180   1.483 -2.9265  0.3404  0.1556
  407MOL0     H56099   1.791   8.116   1.475  3.1209  0.6558  0.3456
  407MOL0     H56100   1.725   8.283   1.474  3.1537  2.2337  0.0355
  407MOL0     H56101   1.973   8.209   1.330  0.2726  1.1010 -1.0206
  407MOL0     H56102   1.917   8.372   1.381 -1.4744 -0.0490  0.3734
  407MOL0     H56103   2.043   8.165   1.565  0.7510  1.0096  1.0397
  407MOL0     H56104   2.107   8.315   1.497  1.7041  0.3402  4.0385
  407MOL0     H56105   2.017   8.431   1.657  2.1210 -0.7847  1.2884
  407MOL0     H56106   1.854   8.360   1.640 -0.2892 -2.5478  0.4498
  407MOL0     H56107   1.961   8.150   1.787  0.9098 -0.0058  1.8231
  407MOL0     H56108   1.926   8.303   1.862 -1.2791 -2.3250  0.4926
  407MOL0     H56109   2.164   8.181   1.901  1.1506 -0.1422 -0.6002
  407MOL0     H56110   2.177   8.232   1.740  0.1154  1.7902  0.7614
  407MOL0     H56111   2.157   8.402   1.996 -1.3874  1.6796 -0.2058
  407MOL0     H56112   2.147   8.479   1.844 -0.6239 -1.3111  0.0667
  407MOL0     H56113   2.376   8.496   1.954 -0.0129  1.3493 -1.2535
  407MOL0     H56114   2.392   8.321   1.926  2.7790  1.2497 -1.4267
  407MOL0     H56115   2.435   8.245   1.667 -2.5376 -0.0441  0.3606
  407MOL0     H56116   2.421   8.422   1.337  2.5714  0.6224 -0.3388
  407MOL0     H56117   2.383   8.259   1.408  0.2013  0.5257 -0.0169
  407MOL0     H56118   2.603   8.211   1.463 -0.3580  0.1677  0.5370
  407MOL0     H56119   2.571   8.217   1.294 -0.7350 -0.9372  0.5737
  407MOL0     H56120   2.655   8.477   1.325 -0.1174  0.5991  0.7263
  407MOL0     H56121   2.732   8.400   1.472  1.7213 -0.6985 -0.8297
  407MOL0     H56122   2.859   8.239   1.331  0.4850  0.1156 -0.4988
  407MOL0     H56123   2.750   8.290   1.196 -0.1891 -1.1352 -0.2775
  407MOL0     H56124   2.957   8.198   1.137  2.3113 -1.4352  2.5030
  407MOL0     H56125   3.171   8.133   0.872  0.9016 -1.7601  0.1305
  407MOL0     H56126   3.059   8.060   0.986 -1.3043  1.6260  0.5549
  407MOL0     H56127   3.228   8.070   1.037 -0.2182 -0.4139 -0.7572
  407MOL0     H56128   3.611   8.411   0.849  2.0001  0.4109 -2.3991
  407MOL0     H56129   3.802   8.349   0.699 -0.0329 -0.3426 -5.4128
  407MOL0     H56130   3.973   7.978   0.543  0.3551 -1.2832  1.2801
  407MOL0     H56131   3.834   7.926   0.615  0.1269 -1.4347 -2.2630
  407MOL0     H56132   3.693   7.978   0.425  0.3818  0.3809  0.7255
  407MOL0     H56133   3.837   8.021   0.333 -0.1093  0.9692  1.0865
  407MOL0     H56134   3.730   7.765   0.310  2.2181  1.2144 -2.6859
  407MOL0     H56135   3.806   7.747   0.470  0.8266  1.1522  0.3184
  407MOL0     H56136   4.031   7.792   0.363 -0.0950  0.3126  0.9787
  407MOL0     H56137   3.937   7.831   0.211 -1.9957  1.1295  1.1779
  407MOL0     H56138   3.849   7.610   0.215 -0.3164  2.0100 -0.5357
  407MOL0     H56139   4.027   7.598   0.218  2.1929  0.9101  2.3073
  407MOL0     H56140   3.896   7.565   0.486  1.3259  0.6507  0.2624
  407MOL0     H56141   4.055   7.565   0.450 -1.0183  2.9764  0.3623
  407MOL0     H56142   4.035   7.393   0.279 -0.5438 -0.6972 -0.4163
  407MOL0     H56143   3.863   7.379   0.321  0.2696  1.7028  0.1101
  407MOL0     H56144   3.997   7.202   0.434  0.4113  0.4374 -0.3829
  407MOL0     H56145   3.969   7.330   0.557  2.6189 -0.4788  1.3543
  407MOL0     H56146   3.610   7.984   0.613  1.8639 -0.7081  0.0455
  407MOL0     H56147   3.432   8.034   0.772 -0.2079  0.3180  0.1979
  407MOL0     H56148   3.243   8.595   1.033  0.2250  0.1824 -0.8542
  407MOL0     H56149   3.060   8.623   1.174 -1.4373  1.1043 -2.0913
  407MOL0     H56150   1.634   8.092   1.068 -0.8138  1.2523 -1.6385
  407MOL0     H56151   1.393   8.020   1.045  0.7628 -0.7974 -0.5418
  407MOL0     H56152   1.043   7.979   1.069  0.0881 -0.4682 -0.3016
  407MOL0     H56153   0.846   7.912   0.962 -1.5134  1.1171  2.2353
  407MOL0     H56154   0.596   7.767   1.149  1.2913  1.2852  0.3823
  407MOL0     H56155   0.568   7.830   0.988 -0.4380 -0.8148 -1.2417
  407MOL0     H56156   0.535   7.546   1.085  2.2617 -0.7016 -2.1547
  407MOL0     H56157   0.492   7.597   0.917 -1.6845  0.6140 -1.8883
  407MOL0     H56158   0.335   7.790   1.033 -0.5670  0.2706 -0.4437
  407MOL0     H56159   0.280   7.620   0.987  0.0867 -1.7454  1.3840
  407MOL0     H56160   0.371   7.704   1.276 -1.1311  3.7835 -0.0210
  407MOL0     H56161   0.290   7.546   1.214 -0.4417  0.6388  0.6268
  407MOL0     H56162  -0.011   7.840   1.242 -0.5264  0.5564 -0.2381
  407MOL0     H56163   0.828   7.552   1.186  0.5436 -0.5842 -0.6810
  407MOL0     H56164   1.058   7.468   1.251  0.7189 -1.8080  1.3735
  407MOL0     H56165   1.184   7.579   1.290 -0.1481 -1.7122 -0.8068
  407MOL0     H56166   1.041   7.545   1.399 -0.6636  0.6467 -0.7357
  408MOL0     O56167   4.799   8.614   2.849 -0.5894  0.8395 -0.0062
  408MOL0     C56168   4.796   8.528   2.932  0.1248  0.1425 -0.5920
  408MOL0     O56169   4.900   8.454   2.983 -0.3776  0.1200  0.0131
  408MOL0     C56170   5.027   8.498   2.951  0.1412 -0.1096  0.3635
  408MOL0     C56171   5.099   8.589   3.017  1.2892 -0.4884  0.7629
  408MOL0     C56172   5.224   8.632   2.966 -0.1159  0.1055 -0.5537
  408MOL0     C56173   5.283   8.576   2.855  0.2505 -0.8175 -0.0234
  408MOL0     O56174   5.399   8.638   2.803  0.1417  0.5140  1.0438
  408MOL0     C56175   5.444   8.592   2.674  0.3978  0.6341 -0.0456
  408MOL0     C56176   5.557   8.666   2.604 -0.1769  1.2611 -0.3359
  408MOL0     C56177   5.686   8.670   2.680  0.4429 -0.1665  0.5413
  408MOL0     C56178   5.720   8.817   2.716  0.3128 -0.4084 -0.6911
  408MOL0     C56179   5.839   8.842   2.810  0.4986 -0.4912 -0.0237
  408MOL0     C56180   5.844   8.756   2.927  0.4650  0.3895 -1.8372
  408MOL0     C56181   5.951   8.798   3.023 -0.0151  0.5764 -0.0922
  408MOL0     C56182   5.971   8.708   3.155  0.3411 -0.5346  0.1232
  408MOL0     N56183   6.096   8.755   3.222  0.5079 -0.4712 -0.9990
  408MOL0     C56184   6.101   8.858   3.314  0.5000  0.0774  0.0924
  408MOL0     C56185   6.239   8.875   3.334  1.0338  0.0559 -0.7038
  408MOL0     C56186   6.289   8.997   3.408  0.2346  0.2808 -1.2129
  408MOL0     C56187   6.406   9.072   3.334  0.5964  0.2901  0.1563
  408MOL0     C56188   6.445   9.207   3.401 -0.1129 -0.3683 -0.5330
  408MOL0     C56189   6.510   9.195   3.537  0.8917  0.0379  0.5131
  408MOL0     O56190   6.620   9.110   3.534  0.3978 -0.7456 -0.2068
  408MOL0     C56191   6.732   9.174   3.492 -0.8540 -0.3284  0.3039
  408MOL0     C56192   6.833   9.210   3.585  0.4260  0.0378 -0.3141
  408MOL0     C56193   6.947   9.278   3.543 -0.5979 -0.4020  0.6844
  408MOL0     C56194   7.062   9.291   3.638  0.6943 -0.0851 -0.6812
  408MOL0     C56195   6.974   9.294   3.400 -0.8037  0.3651 -0.6029
  408MOL0     C56196   7.103   9.342   3.337 -0.1027  0.5772  0.3991
  408MOL0     O56197   7.115   9.321   3.202 -0.1832  0.5110  0.4134
  408MOL0     C56198   7.238   9.349   3.141  0.2974 -0.0827  0.1004
  408MOL0     C56199   7.255   9.471   3.072 -1.0703 -1.3864  0.2268
  408MOL0     C56200   7.382   9.502   3.017  1.7501  1.0006  1.3867
  408MOL0     C56201   7.482   9.403   3.018 -0.5355 -1.2963 -0.2577
  408MOL0     O56202   7.598   9.444   2.955  0.8968 -0.4653  0.0930
  408MOL0     C56203   7.706   9.355   2.963 -0.4711 -0.1226 -0.6221
  408MOL0     C56204   7.826   9.434   2.910  0.2983  0.0076 -0.5101
  408MOL0     C56205   7.915   9.328   2.855 -0.0856  0.6435  0.0054
  408MOL0     C56206   8.067   9.343   2.883  0.6813  0.9208 -0.6008
  408MOL0     C56207   8.132   9.218   2.833 -1.0067 -0.3237  0.0064
  408MOL0     C56208   8.146   9.206   2.682  0.3455 -0.6725  0.0977
  408MOL0     C56209   8.237   9.092   2.637 -0.3496 -0.3158  0.3111
  408MOL0     C56210   8.168   8.959   2.617 -0.0225  0.6850  0.1107
  408MOL0    Cl56211   8.126   8.867   2.772 -0.3089 -0.0814 -0.1662
  408MOL0     C56212   7.460   9.278   3.073 -0.1238  0.3820 -0.7586
  408MOL0     C56213   7.342   9.262   3.143  0.3058  0.8921  0.3533
  408MOL0     O56214   7.182   9.402   3.405  0.0792 -0.2916  0.3764
  408MOL0     C56215   6.868   9.257   3.313 -0.3289  0.1283 -0.0445
  408MOL0     C56216   6.751   9.199   3.356  0.0237  0.5060 -0.3873
  408MOL0     N56217   6.313   8.782   3.252  1.1765 -0.5131  0.1398
  408MOL0     N56218   6.221   8.715   3.186  0.3126 -0.5227 -0.2647
  408MOL0     C56219   5.216   8.471   2.793 -0.5300 -0.6348 -0.3231
  408MOL0     C56220   5.084   8.438   2.829  0.6241  0.5229 -0.4332
  408MOL0     C56221   4.659   8.513   2.999 -0.8213  0.1739 -0.2428
  408MOL0     C56222   4.654   8.441   3.123  0.2307 -0.6012 -0.5102
  408MOL0     C56223   4.529   8.411   3.177 -0.4063  0.0928  0.0447
  408MOL0     C56224   4.407   8.445   3.111 -0.7342 -0.2186  0.2075
  408MOL0     O56225   4.283   8.399   3.155  0.9318  0.0495 -0.3099
  408MOL0     C56226   4.252   8.363   3.285 -0.0851  0.0975 -0.1207
  408MOL0     C56227   4.247   8.216   3.302  0.3436  0.8000  0.0743
  408MOL0     C56228   4.200   8.174   3.438  0.7034  0.2381  0.0203
  408MOL0     C56229   4.185   8.016   3.465  0.3493  0.2358  0.0954
  408MOL0     C56230   4.059   7.965   3.417 -0.6225 -0.2852 -0.5319
  408MOL0     C56231   3.947   7.918   3.394  0.0523  0.1724 -0.0522
  408MOL0     C56232   4.416   8.530   3.000  0.4703  1.0735  0.6839
  408MOL0     C56233   4.536   8.554   2.937 -0.8949 -0.0413  0.1216
  408MOL0     C56234   4.520   8.636   2.807  0.0363  0.4072  0.0281
  408MOL0     H56235   5.052   8.644   3.098  2.5060 -0.1184  1.2340
  408MOL0     H56236   5.278   8.715   3.011 -0.4579  1.8407 -3.0976
  408MOL0     H56237   5.357   8.599   2.608  0.3972 -0.5585 -0.1873
  408MOL0     H56238   5.467   8.486   2.682  0.6562  0.7962  1.7844
  408MOL0     H56239   5.574   8.619   2.506  1.9125  0.7623  0.2201
  408MOL0     H56240   5.527   8.768   2.579 -1.2862  0.7294 -1.2637
  408MOL0     H56241   5.671   8.599   2.763 -0.9670 -1.2672 -0.6035
  408MOL0     H56242   5.769   8.630   2.621  3.1265  3.7992  1.2089
  408MOL0     H56243   5.726   8.869   2.619 -0.9398  0.1429 -0.4934
  408MOL0     H56244   5.631   8.853   2.769  0.9429  1.4195 -0.7984
  408MOL0     H56245   5.832   8.948   2.837 -2.0435 -0.4103 -0.7809
  408MOL0     H56246   5.934   8.823   2.759  0.3069  1.0847 -1.0294
  408MOL0     H56247   5.748   8.769   2.978  0.1241 -0.0313 -2.3512
  408MOL0     H56248   5.856   8.652   2.893 -0.6966 -0.8329  1.1168
  408MOL0     H56249   5.933   8.901   3.054 -0.3154  0.4548  0.1309
  408MOL0     H56250   6.042   8.787   2.963 -1.0252  0.6777 -1.6838
  408MOL0     H56251   5.881   8.718   3.217 -2.2726 -2.4722 -2.9993
  408MOL0     H56252   5.986   8.603   3.129 -1.5290 -1.1819  1.4983
  408MOL0     H56253   6.021   8.915   3.360  0.7296  0.2408  0.2963
  408MOL0     H56254   6.331   8.979   3.507 -0.5029  1.3179 -0.6859
  408MOL0     H56255   6.211   9.066   3.443 -0.0755 -1.5883  2.1678
  408MOL0     H56256   6.493   9.006   3.338  0.2946 -0.1546 -0.4627
  408MOL0     H56257   6.374   9.087   3.231 -0.0802 -0.5416  0.2318
  408MOL0     H56258   6.507   9.264   3.331 -1.2463  0.9548 -0.4939
  408MOL0     H56259   6.353   9.265   3.412 -0.6198 -1.2206 -0.2298
  408MOL0     H56260   6.544   9.293   3.572 -1.1167  0.7774  0.5248
  408MOL0     H56261   6.435   9.159   3.608  0.5284  0.0314  0.1262
  408MOL0     H56262   6.818   9.166   3.683  2.3131  1.3372  0.6240
  408MOL0     H56263   7.071   9.392   3.678 -3.1550  1.0236 -2.1979
  408MOL0     H56264   7.150   9.251   3.586 -0.4298 -3.1413 -0.4235
  408MOL0     H56265   7.049   9.216   3.717  0.9837  0.2081 -0.3542
  408MOL0     H56266   7.175   9.543   3.063  0.4678  0.2285 -1.2935
  408MOL0     H56267   7.410   9.597   2.973  3.2798 -1.1121 -2.8054
  408MOL0     H56268   7.739   9.312   3.058 -0.2106  0.1627 -0.5835
  408MOL0     H56269   7.681   9.277   2.891 -0.4687  2.2840 -3.4199
  408MOL0     H56270   7.789   9.498   2.829 -1.7055 -2.3975 -1.6180
  408MOL0     H56271   7.874   9.484   2.995 -0.0600 -0.2212 -0.1729
  408MOL0     H56272   7.900   9.327   2.747  0.9292  1.7783 -0.1613
  408MOL0     H56273   7.887   9.227   2.889  0.9032  0.2648 -0.2787
  408MOL0     H56274   8.089   9.354   2.990 -1.2597 -1.4869  0.1486
  408MOL0     H56275   8.102   9.432   2.830  1.5075  1.7667  1.2702
  408MOL0     H56276   8.236   9.207   2.865 -0.0700 -1.1808 -2.9698
  408MOL0     H56277   8.098   9.122   2.873  0.0957 -0.0087  1.8322
  408MOL0     H56278   8.185   9.299   2.640  1.0407 -2.0509 -2.5426
  408MOL0     H56279   8.047   9.198   2.638 -1.1156  0.2364  2.9690
  408MOL0     H56280   8.319   9.083   2.709 -0.1542 -1.8608 -0.0761
  408MOL0     H56281   8.280   9.120   2.540  0.0404 -4.4418 -0.9089
  408MOL0     H56282   8.232   8.890   2.560 -0.4279  0.1293  0.3163
  408MOL0     H56283   8.072   8.971   2.565  0.6206 -0.2966 -1.3696
  408MOL0     H56284   7.540   9.204   3.073  1.3675  1.8708  1.3609
  408MOL0     H56285   7.316   9.175   3.203 -1.3038  1.6918  0.8743
  408MOL0     H56286   6.877   9.253   3.205 -0.8475  0.0597 -0.0869
  408MOL0     H56287   6.687   9.159   3.277 -0.7112  1.3914 -0.2543
  408MOL0     H56288   5.245   8.402   2.714 -0.6013 -0.6170 -0.3640
  408MOL0     H56289   5.026   8.362   2.777  0.6841 -1.2170  1.9027
  408MOL0     H56290   4.749   8.401   3.158  1.5645  0.0827 -3.0762
  408MOL0     H56291   4.533   8.349   3.266  1.2424  1.7052  1.1630
  408MOL0     H56292   4.315   8.404   3.365 -1.7081  1.2160  0.6434
  408MOL0     H56293   4.153   8.399   3.315  0.1229  1.0560 -0.5660
  408MOL0     H56294   4.347   8.175   3.284  0.9574  1.1942  2.2660
  408MOL0     H56295   4.177   8.181   3.226  0.7053 -0.6945  0.4078
  408MOL0     H56296   4.244   8.222   3.526 -2.6173 -1.2748  2.7256
  408MOL0     H56297   4.096   8.207   3.442  0.9852  1.1998 -0.4602
  408MOL0     H56298   4.197   8.004   3.573  0.4616  1.5690  0.2385
  408MOL0     H56299   4.269   7.962   3.421  0.0795  0.6396 -0.9292
  408MOL0     H56300   3.853   7.881   3.358  1.5919 -5.8572  1.0112
  408MOL0     H56301   4.321   8.548   2.951 -0.2318  3.1380  2.5954
  408MOL0     H56302   4.425   8.681   2.837 -0.3706 -1.4983  1.8580
  408MOL0     H56303   4.596   8.713   2.791 -1.5055  2.0245  0.1848
  408MOL0     H56304   4.517   8.575   2.716  0.5878  1.0295 -0.4128
  409MOL0     O56305   8.456  11.145   6.830 -0.9849 -0.1317 -0.1144
  409MOL0     C56306   8.508  11.055   6.757  0.1323 -0.8577 -0.0128
  409MOL0     O56307   8.635  11.051   6.710 -0.0908  0.2209 -0.1006
  409MOL0     C56308   8.738  11.129   6.751 -0.4171 -0.6416  0.5626
  409MOL0     C56309   8.857  11.112   6.668 -0.6259 -0.2864 -0.2053
  409MOL0     C56310   8.970  11.190   6.687 -0.0259 -0.1642 -0.2006
  409MOL0     C56311   8.974  11.275   6.797  0.6808  0.3228  0.5467
  409MOL0     O56312   9.097  11.328   6.828 -0.3382 -0.4432 -0.1802
  409MOL0     C56313   9.110  11.424   6.931 -0.0519  0.2894 -0.2167
  409MOL0     C56314   9.265  11.457   6.936  1.0493 -0.3636  0.8279
  409MOL0     C56315   9.320  11.509   6.804  0.1168 -1.1197 -0.3913
  409MOL0     C56316   9.464  11.559   6.826  0.2424 -0.3521  0.1198
  409MOL0     C56317   9.562  11.480   6.734 -0.5784  0.2064  1.0722
  409MOL0     C56318   9.546  11.540   6.586  0.1397  0.3783  0.3882
  409MOL0     C56319   9.639  11.470   6.480  0.9070 -0.4773 -1.3727
  409MOL0     C56320   9.775  11.531   6.484 -0.4856  0.1740 -0.0509
  409MOL0     N56321   9.873  11.450   6.414 -0.7067  0.1390 -0.6047
  409MOL0     C56322   9.980  11.507   6.346  0.7571  0.5422  0.1748
  409MOL0     C56323  10.053  11.400   6.306 -0.1981  0.5046  0.1215
  409MOL0     C56324  10.187  11.409   6.251 -0.3318 -0.1607 -0.2692
  409MOL0     C56325  10.290  11.475   6.341 -0.6999  0.4879  0.4125
  409MOL0     C56326  10.433  11.424   6.313 -0.7068 -0.3489  0.1430
  409MOL0     C56327  10.543  11.511   6.396  0.2643 -0.1791  0.0068
  409MOL0     O56328  10.611  11.588   6.293 -0.4194  0.4163  0.0055
  409MOL0     C56329  10.720  11.660   6.331 -0.0697  0.2033 -0.1327
  409MOL0     C56330  10.762  11.683   6.459 -0.0647  0.1528  0.0866
  409MOL0     C56331  10.867  11.764   6.491 -0.6581 -0.2089 -0.1768
  409MOL0     C56332  10.915  11.767   6.632 -0.8933  0.1912 -0.4082
  409MOL0     C56333  10.934  11.835   6.386 -0.3069 -0.7676  0.1993
  409MOL0     C56334  11.056  11.914   6.409 -0.1724  0.7226 -0.2860
  409MOL0     O56335  11.137  11.914   6.301 -0.3925  0.2053 -0.0449
  409MOL0     C56336  11.270  11.967   6.309 -0.3148 -0.3054  0.2911
  409MOL0     C56337  11.312  12.024   6.188  0.0121  0.3661  0.2349
  409MOL0     C56338  11.445  12.058   6.170 -0.8923  0.3337  0.1967
  409MOL0     C56339  11.535  12.026   6.281  0.5802  0.8973  0.9675
  409MOL0     O56340  11.666  12.051   6.256 -0.6166 -0.7696 -0.0135
  409MOL0     C56341  11.767  11.981   6.337  0.9781 -0.8930  0.7390
  409MOL0     C56342  11.880  11.981   6.234 -0.5816 -0.6425 -0.3856
  409MOL0     C56343  11.960  12.118   6.229 -0.5420  0.2124 -0.3359
  409MOL0     C56344  12.080  12.104   6.147  0.3248  0.3189  0.7897
  409MOL0     C56345  12.155  12.248   6.125  0.0084  0.7147 -0.5037
  409MOL0     C56346  12.240  12.302   6.248  0.1018  0.1806  0.9638
  409MOL0     C56347  12.287  12.445   6.193 -0.0311 -0.1480 -0.4088
  409MOL0     C56348  12.418  12.483   6.257 -0.6538  0.2335  0.0495
  409MOL0    Cl56349  12.424  12.665   6.234  0.2942 -0.2915  0.1538
  409MOL0     C56350  11.484  11.974   6.396 -0.1103 -0.3691 -0.4152
  409MOL0     C56351  11.357  11.948   6.418  1.1028 -0.1051  0.3564
  409MOL0     O56352  11.086  11.966   6.514  0.2636  0.1513  0.4327
  409MOL0     C56353  10.893  11.802   6.258 -0.5670  0.4840  0.7258
  409MOL0     C56354  10.791  11.721   6.226  0.0344 -0.7583 -0.0013
  409MOL0     N56355   9.989  11.284   6.347  0.3137  0.3697 -1.0256
  409MOL0     N56356   9.889  11.315   6.419  0.2765 -0.0159 -0.1905
  409MOL0     C56357   8.863  11.289   6.874 -0.2967  0.1407 -0.0179
  409MOL0     C56358   8.748  11.212   6.856 -0.3132 -0.4076 -0.9563
  409MOL0     C56359   8.412  10.964   6.700 -0.4382  0.3852 -0.7376
  409MOL0     C56360   8.457  10.899   6.584 -0.0342 -0.1887 -0.3014
  409MOL0     C56361   8.378  10.797   6.528  0.0863 -0.1355  0.1782
  409MOL0     C56362   8.263  10.754   6.587 -0.0365  0.8088  0.8764
  409MOL0     O56363   8.220  10.637   6.521  0.2274  0.0464  0.2003
  409MOL0     C56364   8.100  10.576   6.572  0.1954 -0.4857 -0.6920
  409MOL0     C56365   8.047  10.459   6.487 -0.3339 -0.2288  0.4741
  409MOL0     C56366   7.959  10.515   6.372  0.3337  0.8656 -0.7677
  409MOL0     C56367   8.028  10.502   6.238  0.3628 -0.8128 -0.6469
  409MOL0     C56368   7.933  10.563   6.139 -0.1454  0.4778 -0.1078
  409MOL0     C56369   7.884  10.614   6.047 -0.0029 -0.2665 -0.0893
  409MOL0     C56370   8.220  10.811   6.703  0.8813 -0.1973 -0.6668
  409MOL0     C56371   8.286  10.915   6.762 -1.8124 -0.3891 -0.4351
  409MOL0     C56372   8.259  10.966   6.900 -0.9210 -0.1812  0.2934
  409MOL0     H56373   8.855  11.049   6.580 -0.2721  0.4945 -0.7917
  409MOL0     H56374   9.067  11.168   6.644 -0.3322 -1.1696 -0.4110
  409MOL0     H56375   9.083  11.390   7.032 -1.9299 -1.1857 -1.1659
  409MOL0     H56376   9.056  11.519   6.924 -1.0512 -0.0730  1.7569
  409MOL0     H56377   9.292  11.529   7.013  2.6811 -0.3724  0.2917
  409MOL0     H56378   9.311  11.360   6.953  2.7043  0.2648  0.1062
  409MOL0     H56379   9.313  11.425   6.735  0.0930 -2.1455  0.8054
  409MOL0     H56380   9.260  11.589   6.761  1.5987 -0.0550 -0.5386
  409MOL0     H56381   9.468  11.665   6.800 -1.1734 -0.2938  0.0511
  409MOL0     H56382   9.499  11.552   6.929 -2.1066 -0.7999  0.9361
  409MOL0     H56383   9.540  11.373   6.744 -1.0172  0.2946  1.0815
  409MOL0     H56384   9.665  11.490   6.770  0.0075  0.2662 -0.5355
  409MOL0     H56385   9.440  11.541   6.558 -0.3021 -0.6853  1.9160
  409MOL0     H56386   9.571  11.647   6.589 -0.3794  0.7337 -3.3049
  409MOL0     H56387   9.600  11.482   6.379  0.2990 -0.5062 -1.1422
  409MOL0     H56388   9.647  11.364   6.508 -1.1119  0.2467  2.7289
  409MOL0     H56389   9.767  11.629   6.438  1.5111  1.8190  2.7399
  409MOL0     H56390   9.806  11.550   6.588 -1.0750 -2.1842  0.6270
  409MOL0     H56391  10.003  11.613   6.344 -1.0799  1.0466  2.2284
  409MOL0     H56392  10.172  11.468   6.161 -0.0495  0.9177  0.3801
  409MOL0     H56393  10.221  11.306   6.234 -0.3427 -0.2602  0.2898
  409MOL0     H56394  10.290  11.584   6.336  1.0532  0.4601 -1.8661
  409MOL0     H56395  10.270  11.449   6.445 -0.6242  2.7259  1.0361
  409MOL0     H56396  10.422  11.319   6.342 -1.1755 -1.4587 -3.4304
  409MOL0     H56397  10.454  11.431   6.206 -0.9515  0.6698  0.1588
  409MOL0     H56398  10.499  11.574   6.473  3.9367  1.1055  1.2829
  409MOL0     H56399  10.620  11.455   6.450  0.3262  0.9974  1.1832
  409MOL0     H56400  10.717  11.631   6.543  0.0236  3.5171  2.4510
  409MOL0     H56401  10.833  11.741   6.699  0.7862 -2.9191  0.6244
  409MOL0     H56402  10.947  11.863   6.673  1.4002 -1.1190  1.0925
  409MOL0     H56403  11.001  11.703   6.653  0.9819  1.7246 -2.7467
  409MOL0     H56404  11.238  12.032   6.110 -1.2454 -0.2677  1.3171
  409MOL0     H56405  11.480  12.094   6.073  2.1191  0.1337  1.0906
  409MOL0     H56406  11.799  12.039   6.424  0.6495  0.0063  0.2714
  409MOL0     H56407  11.740  11.877   6.355 -1.4371 -0.3109  0.7839
  409MOL0     H56408  11.952  11.909   6.274 -1.0564 -0.8501  0.1137
  409MOL0     H56409  11.846  11.949   6.135 -0.6143 -2.9639  0.3122
  409MOL0     H56410  11.984  12.152   6.331  2.9876  1.6349 -1.4908
  409MOL0     H56411  11.906  12.198   6.178  0.7158  2.3271  1.4407
  409MOL0     H56412  12.061  12.081   6.042 -1.3136  3.3953  0.3030
  409MOL0     H56413  12.139  12.026   6.196  0.3815 -0.7706 -0.9453
  409MOL0     H56414  12.221  12.225   6.041  1.3208  0.6329  0.5170
  409MOL0     H56415  12.084  12.324   6.092  1.2789  1.5973 -1.2995
  409MOL0     H56416  12.329  12.241   6.265  0.5177  1.3725  3.3924
  409MOL0     H56417  12.186  12.314   6.342 -0.7027  3.6359  0.2011
  409MOL0     H56418  12.207  12.511   6.228 -1.6503 -2.2921  0.1791
  409MOL0     H56419  12.294  12.442   6.083  0.9953 -2.2758 -0.3373
  409MOL0     H56420  12.500  12.431   6.208 -1.6159 -1.4110  0.1037
  409MOL0     H56421  12.428  12.454   6.361  2.2555 -0.3931 -0.3212
  409MOL0     H56422  11.547  11.960   6.483 -1.7415  4.3803  1.9005
  409MOL0     H56423  11.313  11.906   6.508  1.1134 -1.3742 -0.2138
  409MOL0     H56424  10.948  11.845   6.175 -1.6782 -0.8767 -0.7779
  409MOL0     H56425  10.761  11.699   6.124  0.0663  0.0622 -0.1953
  409MOL0     H56426   8.865  11.359   6.957 -3.3958 -0.5469  0.7715
  409MOL0     H56427   8.665  11.236   6.923  2.2579 -0.1402  2.4287
  409MOL0     H56428   8.540  10.934   6.525  0.1276 -0.9934 -0.5640
  409MOL0     H56429   8.409  10.755   6.433  0.7800 -3.0423  1.5713
  409MOL0     H56430   8.126  10.530   6.667  2.1022  1.1330 -0.3500
  409MOL0     H56431   8.028  10.656   6.595  2.5800  0.9844  2.4923
  409MOL0     H56432   7.992  10.394   6.556 -0.4874 -0.5463  0.0525
  409MOL0     H56433   8.133  10.411   6.440 -1.1021 -0.4316 -0.7515
  409MOL0     H56434   7.870  10.452   6.383  1.3317 -0.7996 -1.7307
  409MOL0     H56435   7.926  10.618   6.386 -2.7743 -0.2504  1.5397
  409MOL0     H56436   8.042  10.400   6.202  0.7672 -1.5675  1.4848
  409MOL0     H56437   8.121  10.560   6.245  0.3526 -0.7668 -0.8907
  409MOL0     H56438   7.837  10.658   5.960  0.9749  3.8714  1.2352
  409MOL0     H56439   8.133  10.769   6.753  0.3294 -0.2183 -1.6065
  409MOL0     H56440   8.177  10.908   6.943  0.1629 -1.4163  0.7422
  409MOL0     H56441   8.351  10.957   6.959  2.4973 -1.5714 -4.6519
  409MOL0     H56442   8.220  11.069   6.902 -0.3795  0.0268  0.3957
  410MOL0     O56443   0.530   2.345   5.409  0.0667 -0.4503  0.2347
  410MOL0     C56444   0.552   2.465   5.425  0.4310  0.0217 -0.1767
  410MOL0     O56445   0.678   2.524   5.435 -1.2097 -0.0717  0.3857
  410MOL0     C56446   0.786   2.430   5.425  0.0605  0.3163 -0.9078
  410MOL0     C56447   0.883   2.467   5.329 -0.0499  0.3365  0.9526
  410MOL0     C56448   0.996   2.388   5.304 -0.6104  0.1910  0.1663
  410MOL0     C56449   1.019   2.282   5.391  0.0614  0.4822  0.6143
  410MOL0     O56450   1.133   2.201   5.385 -0.5322  1.1455  0.2148
  410MOL0     C56451   1.206   2.193   5.260  0.0981 -0.0284  0.4350
  410MOL0     C56452   1.331   2.106   5.256 -0.1801  0.5400  0.7178
  410MOL0     C56453   1.428   2.109   5.377 -0.1973  0.3870 -0.1530
  410MOL0     C56454   1.548   2.019   5.349 -0.3918  0.3403 -0.6884
  410MOL0     C56455   1.606   1.967   5.480 -0.6510 -0.1126  0.4087
  410MOL0     C56456   1.695   2.074   5.545  0.2869 -1.1348  0.1167
  410MOL0     C56457   1.773   2.022   5.665  0.3772  0.0189  0.0521
  410MOL0     C56458   1.846   2.142   5.730  0.1824  0.1772 -0.4007
  410MOL0     N56459   1.887   2.110   5.868 -0.5477 -0.2244 -0.3894
  410MOL0     C56460   1.936   1.991   5.912 -0.7715  0.5843  0.0381
  410MOL0     C56461   1.919   2.005   6.049  0.1417 -0.0244  0.1177
  410MOL0     C56462   1.967   1.913   6.159 -0.1278 -1.0844 -0.4971
  410MOL0     C56463   2.120   1.920   6.153 -0.1282  0.2275 -0.6867
  410MOL0     C56464   2.177   1.848   6.277 -0.1675 -0.6366 -0.1622
  410MOL0     C56465   2.216   1.960   6.382  0.1459 -0.2013 -0.2651
  410MOL0     O56466   2.336   2.011   6.329 -0.4056 -0.4404  0.0369
  410MOL0     C56467   2.416   2.082   6.415  0.9235 -0.2087  0.8239
  410MOL0     C56468   2.371   2.150   6.525  0.7646  0.0412  0.3163
  410MOL0     C56469   2.459   2.193   6.624 -0.5550  0.5413 -0.8550
  410MOL0     C56470   2.402   2.243   6.755  0.5460  0.2495  0.5689
  410MOL0     C56471   2.590   2.213   6.584  0.2581 -0.5702 -0.5649
  410MOL0     C56472   2.696   2.273   6.665 -0.1242 -0.0615  1.2464
  410MOL0     O56473   2.826   2.265   6.611 -0.5643 -0.4424 -0.7803
  410MOL0     C56474   2.938   2.342   6.642 -0.5045 -0.1728  0.1986
  410MOL0     C56475   3.052   2.299   6.577  0.2069 -0.0275  0.3683
  410MOL0     C56476   3.179   2.358   6.603 -0.3909  0.5606 -0.2191
  410MOL0     C56477   3.194   2.459   6.696  0.3749  0.9651  0.0955
  410MOL0     O56478   3.307   2.521   6.738  0.7024  0.1400  0.6701
  410MOL0     C56479   3.412   2.532   6.641 -0.6156 -0.7305 -0.4839
  410MOL0     C56480   3.539   2.578   6.715  1.0107 -1.0064  0.0611
  410MOL0     C56481   3.646   2.607   6.624 -0.6705 -1.3429 -0.5596
  410MOL0     C56482   3.671   2.760   6.602 -0.1833  0.2956 -0.3507
  410MOL0     C56483   3.773   2.789   6.487  0.2161 -0.1961  0.0294
  410MOL0     C56484   3.753   2.925   6.430 -0.3958 -0.1934 -0.5296
  410MOL0     C56485   3.799   3.026   6.523 -0.5276  0.3648  0.8399
  410MOL0     C56486   3.843   3.168   6.477  0.2279 -0.5739  0.4054
  410MOL0    Cl56487   3.870   3.258   6.622 -0.0906  0.3727  0.1175
  410MOL0     C56488   3.073   2.510   6.752 -0.4250 -0.6126  0.4081
  410MOL0     C56489   2.945   2.453   6.721  0.9156 -0.0593  0.3139
  410MOL0     O56490   2.663   2.329   6.765  0.5102 -0.3477 -0.1897
  410MOL0     C56491   2.635   2.161   6.462 -0.0523 -0.1610 -0.6155
  410MOL0     C56492   2.547   2.097   6.383 -0.0511  0.5823  0.4804
  410MOL0     N56493   1.879   2.132   6.086  0.4957  0.0839  0.5350
  410MOL0     N56494   1.870   2.196   5.978 -0.4576 -0.4692 -0.2690
  410MOL0     C56495   0.933   2.253   5.501  0.3241 -0.9026  0.1279
  410MOL0     C56496   0.813   2.330   5.523  0.2777  0.1256 -0.1990
  410MOL0     C56497   0.434   2.563   5.430 -0.1299  0.4946 -0.0910
  410MOL0     C56498   0.461   2.701   5.467 -0.2326  0.6801 -0.0242
  410MOL0     C56499   0.359   2.794   5.450 -0.4013  0.3050 -0.3717
  410MOL0     C56500   0.228   2.764   5.421  0.8088  0.8203 -1.0123
  410MOL0     O56501   0.138   2.867   5.412 -0.0276  0.1404 -0.1187
  410MOL0     C56502   0.004   2.858   5.358 -0.4624  0.2185 -0.1202
  410MOL0     C56503  -0.078   2.989   5.389 -0.1506  0.4436 -1.2536
  410MOL0     C56504  -0.089   3.040   5.533 -1.0510 -0.1483  0.2382
  410MOL0     C56505  -0.014   3.178   5.543  1.0923  0.4877  0.1078
  410MOL0     C56506  -0.081   3.293   5.503 -0.0352  0.2196  0.0989
  410MOL0     C56507  -0.136   3.401   5.482 -0.8866  0.0821  0.1146
  410MOL0     C56508   0.199   2.630   5.409  0.8886  0.0788 -0.0544
  410MOL0     C56509   0.295   2.529   5.409 -0.1557  1.0057 -1.5487
  410MOL0     C56510   0.252   2.382   5.406 -0.0288 -0.1451  0.1039
  410MOL0     H56511   0.853   2.551   5.268  0.9783  1.2240  1.6205
  410MOL0     H56512   1.057   2.412   5.218  0.0179  1.8347  1.0274
  410MOL0     H56513   1.240   2.296   5.244 -0.1813 -0.1504 -1.0841
  410MOL0     H56514   1.145   2.170   5.172 -1.5022  4.3271  0.1717
  410MOL0     H56515   1.299   2.002   5.249 -0.5861  0.6486  0.9112
  410MOL0     H56516   1.381   2.122   5.160 -3.3085  1.1477 -0.9131
  410MOL0     H56517   1.455   2.214   5.389  1.1904  0.1674 -1.1734
  410MOL0     H56518   1.379   2.070   5.467  2.2668  2.0684  2.0524
  410MOL0     H56519   1.524   1.933   5.287 -0.4660 -0.4742  0.4459
  410MOL0     H56520   1.626   2.076   5.297  0.3527  0.4181  0.4590
  410MOL0     H56521   1.670   1.881   5.459 -2.3568 -0.7402 -2.8775
  410MOL0     H56522   1.530   1.933   5.552 -3.9633  1.7315 -1.9289
  410MOL0     H56523   1.762   2.127   5.477 -1.6110 -2.9599 -3.4584
  410MOL0     H56524   1.621   2.147   5.580  3.8085  1.2007  3.4637
  410MOL0     H56525   1.852   1.961   5.621  1.5107  1.1696  0.4496
  410MOL0     H56526   1.709   1.956   5.726  3.5196 -0.9272  2.6279
  410MOL0     H56527   1.931   2.164   5.665 -2.0878  0.3982 -3.5369
  410MOL0     H56528   1.773   2.222   5.736 -2.2910 -1.9726 -0.0671
  410MOL0     H56529   1.979   1.900   5.870  1.4486  1.2156  0.8182
  410MOL0     H56530   1.934   1.809   6.146 -1.1140 -1.1865  2.3121
  410MOL0     H56531   1.925   1.938   6.257 -0.1769  1.7878 -1.1562
  410MOL0     H56532   2.174   1.872   6.071  0.0699  2.5484 -2.0029
  410MOL0     H56533   2.161   2.021   6.165  0.9477 -0.4102  1.7832
  410MOL0     H56534   2.114   1.772   6.323 -0.1758 -0.5684 -0.0615
  410MOL0     H56535   2.269   1.799   6.243 -0.3287 -1.9129  1.1719
  410MOL0     H56536   2.137   2.034   6.390 -2.6655 -2.4199 -4.1783
  410MOL0     H56537   2.240   1.912   6.478  3.2582 -1.7030 -1.6223
  410MOL0     H56538   2.264   2.158   6.541  0.5411  0.8166 -1.3007
  410MOL0     H56539   2.299   2.210   6.774  0.5617  0.5119  1.1281
  410MOL0     H56540   2.410   2.352   6.745  2.4276  0.1807  1.0065
  410MOL0     H56541   2.445   2.198   6.845 -1.7227 -1.9919  0.6559
  410MOL0     H56542   3.047   2.214   6.510 -0.1113  2.1645 -2.5778
  410MOL0     H56543   3.263   2.314   6.550  0.6638 -1.0321  2.5712
  410MOL0     H56544   3.443   2.433   6.607  0.8202 -0.9480  1.3124
  410MOL0     H56545   3.383   2.597   6.558 -1.8165 -1.8048 -0.9399
  410MOL0     H56546   3.512   2.658   6.785  0.8131 -0.2914 -0.8083
  410MOL0     H56547   3.581   2.498   6.775  2.1831 -1.2221 -1.0191
  410MOL0     H56548   3.629   2.559   6.527 -2.2601  0.1371 -1.0586
  410MOL0     H56549   3.742   2.568   6.662 -1.5288 -2.4007  0.6186
  410MOL0     H56550   3.712   2.807   6.692  1.8863 -0.1943 -0.9723
  410MOL0     H56551   3.573   2.798   6.573 -0.7039 -0.7001  0.0422
  410MOL0     H56552   3.875   2.786   6.526 -0.3613  0.8830  1.7271
  410MOL0     H56553   3.756   2.715   6.409 -0.8337  1.5796 -1.5018
  410MOL0     H56554   3.649   2.943   6.399 -0.6473 -0.6097  0.0633
  410MOL0     H56555   3.811   2.927   6.337 -0.3374 -1.6814 -0.5496
  410MOL0     H56556   3.884   2.981   6.575 -1.5897 -2.5031  0.3000
  410MOL0     H56557   3.719   3.037   6.597 -0.2225 -0.3191  1.2805
  410MOL0     H56558   3.771   3.230   6.423  2.0126  1.9207  0.7158
  410MOL0     H56559   3.932   3.169   6.414 -1.2979  1.0015 -1.8975
  410MOL0     H56560   3.082   2.601   6.811  1.5500 -0.0993 -0.6211
  410MOL0     H56561   2.855   2.487   6.771  0.8340 -0.7313  0.6332
  410MOL0     H56562   2.740   2.159   6.433  0.7647  2.5468  1.7411
  410MOL0     H56563   2.585   2.047   6.295 -2.8419  0.0760 -0.5563
  410MOL0     H56564   0.960   2.193   5.587 -2.4017 -0.6265  1.2641
  410MOL0     H56565   0.740   2.304   5.598 -0.6890  1.8528 -0.4840
  410MOL0     H56566   0.558   2.732   5.505 -0.2465  0.7574 -0.0517
  410MOL0     H56567   0.381   2.898   5.472  2.9524 -0.4400  0.3963
  410MOL0     H56568   0.014   2.844   5.250  1.0928  1.9607 -0.2493
  410MOL0     H56569  -0.047   2.772   5.402 -0.2138 -1.0224 -2.1491
  410MOL0     H56570  -0.178   2.967   5.352  0.1385 -1.1098 -1.2001
  410MOL0     H56571  -0.037   3.069   5.327  0.1798  0.0162 -1.5962
  410MOL0     H56572  -0.194   3.050   5.564 -0.8237 -0.3909  1.0958
  410MOL0     H56573  -0.043   2.966   5.599  1.5316  1.7160  0.6525
  410MOL0     H56574   0.069   3.162   5.474  0.9092  1.6099 -0.4044
  410MOL0     H56575   0.038   3.193   5.638  0.3914 -2.8778  1.1431
  410MOL0     H56576  -0.204   3.484   5.480 -1.3991 -0.3094  1.0219
  410MOL0     H56577   0.101   2.584   5.403  1.6277 -1.4571 -1.0568
  410MOL0     H56578   0.287   2.322   5.321  2.0579 -2.8969  2.6807
  410MOL0     H56579   0.272   2.320   5.494 -2.5924 -1.6772 -0.2994
  410MOL0     H56580   0.143   2.383   5.403 -0.0775 -1.8682  0.3497
  411MOL0     O56581   0.667   5.049   2.612 -0.4080  0.0619 -0.4334
  411MOL0     C56582   0.638   5.104   2.718  0.6646  0.2395  0.0563
  411MOL0     O56583   0.505   5.115   2.760 -0.2548  0.0067  0.7170
  411MOL0     C56584   0.402   5.042   2.701 -0.4375 -0.5328 -0.3732
  411MOL0     C56585   0.275   5.098   2.703  1.0686 -0.4802  0.7887
  411MOL0     C56586   0.171   5.031   2.638 -0.9410  0.0092 -0.2536
  411MOL0     C56587   0.192   4.908   2.579 -0.4747  0.7052 -0.0625
  411MOL0     O56588   0.086   4.841   2.521 -0.0344  0.0662 -0.6261
  411MOL0     C56589   0.103   4.699   2.498 -0.6008 -0.1261  0.3954
  411MOL0     C56590  -0.020   4.626   2.430 -0.4953  0.4763 -0.3511
  411MOL0     C56591  -0.142   4.619   2.525 -0.5978  0.2376 -0.3862
  411MOL0     C56592  -0.251   4.532   2.470 -0.3494  0.2543 -0.1774
  411MOL0     C56593  -0.304   4.599   2.334 -0.1412 -0.0839 -0.2646
  411MOL0     C56594  -0.426   4.516   2.294  1.2323  0.1582  0.5377
  411MOL0     C56595  -0.498   4.571   2.174  0.2466 -1.2242  0.0938
  411MOL0     C56596  -0.486   4.721   2.146 -0.3660  0.0001  0.6936
  411MOL0     N56597  -0.568   4.766   2.033 -0.9642 -0.4543 -0.2217
  411MOL0     C56598  -0.584   4.704   1.915  0.5364  0.7851 -0.0683
  411MOL0     C56599  -0.673   4.777   1.860  0.3399  0.2738 -1.2305
  411MOL0     C56600  -0.719   4.750   1.714 -0.6720 -0.6622 -0.5349
  411MOL0     C56601  -0.738   4.883   1.645  1.0306  0.5030  0.1407
  411MOL0     C56602  -0.606   4.950   1.602  0.0366  0.6391 -0.6418
  411MOL0     C56603  -0.504   4.988   1.714  0.6251 -0.1820  0.0778
  411MOL0     O56604  -0.401   5.056   1.647 -0.1817  0.0429  0.0134
  411MOL0     C56605  -0.302   5.123   1.710  0.0011 -0.6996 -1.2106
  411MOL0     C56606  -0.230   5.226   1.654  0.6984 -0.3927 -0.2790
  411MOL0     C56607  -0.120   5.298   1.715  0.0265  0.0200  0.2413
  411MOL0     C56608  -0.050   5.393   1.626  0.0476  0.2639  1.0658
  411MOL0     C56609  -0.083   5.272   1.846  0.0807 -1.1742 -0.0298
  411MOL0     C56610   0.023   5.342   1.920  0.5844 -1.4594  0.7649
  411MOL0     O56611   0.054   5.285   2.034  0.3542  0.1013  0.4892
  411MOL0     C56612   0.169   5.319   2.107  0.7206 -0.1414  1.0865
  411MOL0     C56613   0.275   5.408   2.073  0.2237  0.5981  0.3959
  411MOL0     C56614   0.386   5.422   2.158 -0.3172  0.0095  0.0087
  411MOL0     C56615   0.391   5.354   2.278  0.1975  0.7519 -0.1210
  411MOL0     O56616   0.495   5.372   2.365 -0.2098 -0.0184  0.7858
  411MOL0     C56617   0.474   5.348   2.507  0.9301  0.3796  0.9914
  411MOL0     C56618   0.589   5.402   2.595 -0.0151 -0.5123  0.2477
  411MOL0     C56619   0.612   5.552   2.574 -0.4383 -0.0835 -0.6454
  411MOL0     C56620   0.694   5.628   2.682 -0.5188 -0.6742  0.5229
  411MOL0     C56621   0.846   5.628   2.650 -0.2492  0.2847 -1.2279
  411MOL0     C56622   0.924   5.677   2.781 -0.3312  0.6282 -0.7835
  411MOL0     C56623   1.072   5.685   2.743 -0.4413  0.4595  0.4680
  411MOL0     C56624   1.161   5.705   2.857 -0.3204  0.1090  0.9298
  411MOL0    Cl56625   1.154   5.864   2.934  0.3294  0.0190 -0.2448
  411MOL0     C56626   0.288   5.264   2.309 -0.3968 -0.2308 -0.0574
  411MOL0     C56627   0.176   5.248   2.226  0.2012 -0.5482  0.3549
  411MOL0     O56628   0.063   5.455   1.883  0.9615  0.1941 -0.8526
  411MOL0     C56629  -0.159   5.167   1.910  1.1853 -0.5313  1.0211
  411MOL0     C56630  -0.270   5.107   1.847  0.4275  1.1000 -0.3671
  411MOL0     N56631  -0.724   4.875   1.943 -0.1100  0.3674 -0.4514
  411MOL0     N56632  -0.653   4.867   2.054  0.2194  0.0321  0.1233
  411MOL0     C56633   0.322   4.858   2.575 -0.4411  0.0293 -1.5631
  411MOL0     C56634   0.424   4.918   2.643  0.7211 -0.6516 -0.3217
  411MOL0     C56635   0.741   5.175   2.806 -0.6598 -0.0269 -0.5111
  411MOL0     C56636   0.685   5.219   2.926 -0.2149  0.2073 -0.3842
  411MOL0     C56637   0.771   5.268   3.027  1.0684 -0.2629 -0.6206
  411MOL0     C56638   0.907   5.278   3.011  0.3273 -0.0428  0.1424
  411MOL0     O56639   1.003   5.315   3.099  0.1511  0.7910 -0.5957
  411MOL0     C56640   0.968   5.383   3.212 -0.4252 -0.1459 -0.2046
  411MOL0     C56641   1.087   5.428   3.286  0.3691 -0.5235  0.1830
  411MOL0     C56642   1.042   5.453   3.432  0.0735  0.3706  0.7222
  411MOL0     C56643   1.161   5.494   3.524 -0.2721 -0.6324 -0.1431
  411MOL0     C56644   1.116   5.573   3.633  0.1437  0.0883  0.1400
  411MOL0     C56645   1.084   5.647   3.731 -0.5261  1.1309  0.0145
  411MOL0     C56646   0.954   5.246   2.885  0.0450 -0.9235 -0.2482
  411MOL0     C56647   0.878   5.200   2.780 -0.8320 -0.1877 -0.6994
  411MOL0     C56648   0.944   5.161   2.652  0.2730 -0.0259  0.8051
  411MOL0     H56649   0.249   5.188   2.758 -1.0058 -1.4353  1.4973
  411MOL0     H56650   0.066   5.057   2.641 -0.8874  0.2341 -0.2722
  411MOL0     H56651   0.123   4.656   2.597  1.0482 -0.1576  0.0831
  411MOL0     H56652   0.186   4.682   2.429 -2.0748  0.3442 -1.5753
  411MOL0     H56653  -0.046   4.691   2.347 -1.8218  1.2558  0.6261
  411MOL0     H56654   0.017   4.525   2.409  0.7379  0.6398  0.8995
  411MOL0     H56655  -0.108   4.581   2.621 -2.3166 -0.0015  0.1590
  411MOL0     H56656  -0.175   4.721   2.548  0.2951 -0.0082  2.3250
  411MOL0     H56657  -0.219   4.432   2.441  0.6863  0.8761 -1.2809
  411MOL0     H56658  -0.328   4.529   2.549  0.8648  1.5688  1.1270
  411MOL0     H56659  -0.233   4.596   2.251  1.1486  3.1102  0.5733
  411MOL0     H56660  -0.323   4.705   2.355  1.2837  0.1405 -0.0013
  411MOL0     H56661  -0.393   4.414   2.274 -3.3842 -1.4074 -0.1397
  411MOL0     H56662  -0.497   4.523   2.376 -1.3781  1.5262 -1.6590
  411MOL0     H56663  -0.603   4.564   2.203 -0.2044  0.7015 -0.9079
  411MOL0     H56664  -0.463   4.518   2.085  4.4778  3.2655 -1.3811
  411MOL0     H56665  -0.497   4.776   2.239 -1.1272 -1.5022  1.5336
  411MOL0     H56666  -0.381   4.743   2.121  0.6080 -0.6517  3.7372
  411MOL0     H56667  -0.531   4.619   1.874 -0.1070 -0.7423  2.0870
  411MOL0     H56668  -0.798   4.675   1.703 -1.1408 -0.2599 -0.0121
  411MOL0     H56669  -0.640   4.709   1.651  0.1823  1.4522 -0.9508
  411MOL0     H56670  -0.781   4.850   1.550 -1.7740 -3.1072  2.4034
  411MOL0     H56671  -0.816   4.944   1.692  0.9590 -0.5184  1.4199
  411MOL0     H56672  -0.553   4.886   1.531  0.4726  1.2903 -0.9149
  411MOL0     H56673  -0.628   5.037   1.540 -0.6852 -0.5325 -2.0859
  411MOL0     H56674  -0.555   5.056   1.784  0.4910 -1.2264  1.0358
  411MOL0     H56675  -0.465   4.906   1.775  2.6117  2.1204  2.0830
  411MOL0     H56676  -0.260   5.249   1.552 -0.8782  0.5556  0.3511
  411MOL0     H56677  -0.082   5.497   1.619 -0.5504 -0.0040 -0.8252
  411MOL0     H56678  -0.058   5.358   1.523 -2.4499  2.7284  0.3125
  411MOL0     H56679   0.057   5.386   1.651  0.3076 -0.9027 -0.2667
  411MOL0     H56680   0.268   5.466   1.981  1.9567 -1.1993 -0.9645
  411MOL0     H56681   0.460   5.499   2.136 -2.8131  2.2432 -1.2701
  411MOL0     H56682   0.376   5.391   2.531 -0.2187 -1.0376 -0.8709
  411MOL0     H56683   0.467   5.239   2.516 -0.1460  0.2775 -0.6140
  411MOL0     H56684   0.562   5.376   2.698 -1.2455 -0.2185  0.0169
  411MOL0     H56685   0.684   5.349   2.580  1.3362  2.2271 -1.7992
  411MOL0     H56686   0.515   5.599   2.555 -2.0701 -3.2312 -0.8015
  411MOL0     H56687   0.672   5.564   2.483  1.2811  0.1499  0.4656
  411MOL0     H56688   0.671   5.590   2.782  0.6375  1.8017  1.7991
  411MOL0     H56689   0.672   5.735   2.683  1.0635 -0.3168  0.0388
  411MOL0     H56690   0.883   5.526   2.636 -2.0281 -0.6861  0.5558
  411MOL0     H56691   0.875   5.695   2.569  2.4941 -0.1319 -0.6754
  411MOL0     H56692   0.904   5.612   2.867 -0.9021 -1.7801 -2.6493
  411MOL0     H56693   0.890   5.777   2.809 -4.1433 -0.3937 -1.2388
  411MOL0     H56694   1.097   5.766   2.675  0.4669  0.8622  1.2587
  411MOL0     H56695   1.100   5.591   2.695  1.3996  0.5796  1.2164
  411MOL0     H56696   1.258   5.701   2.807  0.0052 -1.4944  1.6244
  411MOL0     H56697   1.152   5.622   2.929 -0.2966 -2.9629 -2.3106
  411MOL0     H56698   0.292   5.193   2.391  4.9178  1.5089  1.6238
  411MOL0     H56699   0.098   5.177   2.251 -0.6788  0.5571  0.8437
  411MOL0     H56700  -0.144   5.147   2.016 -2.5843 -3.4695  1.2280
  411MOL0     H56701  -0.322   5.039   1.913  1.3723  2.7145  2.1889
  411MOL0     H56702   0.349   4.764   2.528 -1.7300 -2.1779  1.7270
  411MOL0     H56703   0.522   4.877   2.620  1.4743  1.7473 -1.7263
  411MOL0     H56704   0.588   5.182   2.956  0.6870  0.5464  3.4482
  411MOL0     H56705   0.738   5.281   3.130  2.0546  1.8834 -0.5126
  411MOL0     H56706   0.915   5.474   3.181  1.5107  0.9664 -0.3809
  411MOL0     H56707   0.908   5.317   3.276  0.7840 -0.3068  0.8120
  411MOL0     H56708   1.124   5.514   3.230  2.2042 -2.2803 -1.4825
  411MOL0     H56709   1.170   5.357   3.278 -0.3923 -2.0310  3.5544
  411MOL0     H56710   0.972   5.536   3.424 -1.5157 -1.0298 -0.9447
  411MOL0     H56711   0.990   5.367   3.475 -0.1151  1.6797  3.2602
  411MOL0     H56712   1.223   5.561   3.464 -0.7215  1.1596  1.3043
  411MOL0     H56713   1.224   5.410   3.555  0.5768  0.7577  2.1409
  411MOL0     H56714   1.063   5.706   3.818  1.7383 -0.3040  1.6640
  411MOL0     H56715   1.054   5.280   2.859 -0.3770  0.3566 -0.2684
  411MOL0     H56716   0.948   5.052   2.648  1.6896  0.0228 -2.4496
  411MOL0     H56717   0.905   5.200   2.557  0.0320  2.6615  1.9064
  411MOL0     H56718   1.049   5.193   2.649  0.5986 -1.1194 -0.7949
  412MOL0     O56719   5.977   3.099   8.829 -0.6042 -0.2926  0.1743
  412MOL0     C56720   5.916   2.993   8.838  0.4818  0.2996 -1.0876
  412MOL0     O56721   5.960   2.874   8.776 -0.0374 -0.4988 -0.3479
  412MOL0     C56722   6.080   2.875   8.704 -1.2237  0.6097 -0.2805
  412MOL0     C56723   6.121   2.971   8.608  0.5547  0.1938  0.0092
  412MOL0     C56724   6.244   2.949   8.541  0.8083 -1.0806  0.1874
  412MOL0     C56725   6.319   2.832   8.552 -0.0808 -0.1860 -0.1204
  412MOL0     O56726   6.432   2.812   8.474 -0.0386  0.1865 -0.6048
  412MOL0     C56727   6.519   2.920   8.432  0.2986 -1.0476  0.0447
  412MOL0     C56728   6.640   2.857   8.361 -0.3064  0.3636 -0.1035
  412MOL0     C56729   6.758   2.821   8.450 -0.2065  1.2477  0.3345
  412MOL0     C56730   6.871   2.750   8.360 -0.3091  0.0005 -0.3203
  412MOL0     C56731   6.987   2.710   8.451  0.4661  0.4126 -0.4829
  412MOL0     C56732   7.106   2.673   8.361  0.5454  0.1851 -0.2401
  412MOL0     C56733   7.235   2.641   8.433 -0.6472  0.3239 -0.7694
  412MOL0     C56734   7.338   2.614   8.327  0.3730  1.3627 -0.0121
  412MOL0     N56735   7.479   2.628   8.371 -0.0110 -0.4289 -0.4988
  412MOL0     C56736   7.548   2.745   8.369  0.3017  0.1911 -0.7385
  412MOL0     C56737   7.672   2.712   8.403 -0.6619 -0.0313 -0.0699
  412MOL0     C56738   7.780   2.821   8.408 -0.4306 -0.5868 -0.1925
  412MOL0     C56739   7.903   2.794   8.495 -0.2362  0.2278  0.2772
  412MOL0     C56740   8.015   2.890   8.462  0.4504 -0.6301  0.1408
  412MOL0     C56741   8.135   2.873   8.545 -0.2872 -0.1684  0.2339
  412MOL0     O56742   8.220   2.765   8.494  0.2885 -0.4679  0.0399
  412MOL0     C56743   8.340   2.737   8.555  0.0624 -0.5022 -0.1032
  412MOL0     C56744   8.393   2.812   8.658  0.8622 -0.5141  0.4375
  412MOL0     C56745   8.510   2.781   8.715 -0.2289 -0.0913  0.2429
  412MOL0     C56746   8.553   2.868   8.827 -0.5082  0.3141  0.0821
  412MOL0     C56747   8.590   2.683   8.645 -0.3121 -0.7548  0.1554
  412MOL0     C56748   8.732   2.650   8.687  0.0212 -0.0529  0.1744
  412MOL0     O56749   8.803   2.553   8.620  0.5308 -0.0101 -0.0870
  412MOL0     C56750   8.936   2.543   8.639 -0.0051  0.2266  0.9363
  412MOL0     C56751   9.007   2.535   8.759 -0.4939  0.5131 -0.1541
  412MOL0     C56752   9.142   2.497   8.760 -0.4174 -0.0956 -0.8559
  412MOL0     C56753   9.217   2.492   8.641  0.7006  0.5716  0.4805
  412MOL0     O56754   9.350   2.473   8.633  0.0906  0.4843 -0.2422
  412MOL0     C56755   9.420   2.419   8.748 -0.8966 -0.2655 -0.4812
  412MOL0     C56756   9.490   2.526   8.848 -0.1753 -0.2875  0.2715
  412MOL0     C56757   9.601   2.607   8.774  0.5178  0.5213 -0.5812
  412MOL0     C56758   9.728   2.533   8.734 -0.8023  0.6165 -0.8688
  412MOL0     C56759   9.841   2.640   8.711 -0.2082  0.5008  0.9259
  412MOL0     C56760   9.803   2.750   8.616 -0.5046  0.4461 -0.0711
  412MOL0     C56761   9.931   2.837   8.589  1.0002 -1.1101 -0.0067
  412MOL0     C56762   9.881   2.955   8.506 -0.2423 -0.1764  0.0926
  412MOL0    Cl56763   9.807   2.898   8.350 -0.1550  0.1138 -0.0207
  412MOL0     C56764   9.142   2.515   8.523 -0.1244  0.8180  0.0625
  412MOL0     C56765   9.004   2.532   8.525 -0.1240 -1.1173 -0.0702
  412MOL0     O56766   8.783   2.727   8.766  1.0022  0.4077 -0.3206
  412MOL0     C56767   8.539   2.609   8.538  0.7576 -0.1940 -0.6834
  412MOL0     C56768   8.413   2.636   8.492 -0.0483  0.0048 -0.2342
  412MOL0     N56769   7.674   2.573   8.415 -0.4158  0.5034  0.5834
  412MOL0     N56770   7.557   2.526   8.404  0.2519  0.3343  0.5067
  412MOL0     C56771   6.272   2.733   8.624 -0.2829  1.1474  0.6754
  412MOL0     C56772   6.157   2.757   8.702 -0.3756  0.7780 -0.2931
  412MOL0     C56773   5.805   2.988   8.929  0.2058 -0.2215  0.4224
  412MOL0     C56774   5.805   2.885   9.031  1.4958  0.9554 -0.5269
  412MOL0     C56775   5.694   2.867   9.120 -0.3330 -1.0403 -0.1889
  412MOL0     C56776   5.586   2.948   9.108  0.0588  0.4673 -0.7502
  412MOL0     O56777   5.478   2.917   9.193 -0.3848 -0.1845  0.1536
  412MOL0     C56778   5.415   3.016   9.272 -0.5649 -0.2220  0.5941
  412MOL0     C56779   5.267   3.057   9.224  0.3673  0.3491  0.0587
  412MOL0     C56780   5.208   3.176   9.314 -0.0016 -0.3558 -0.2852
  412MOL0     C56781   5.203   3.139   9.462 -0.7669 -0.8525 -0.6222
  412MOL0     C56782   5.123   3.015   9.471 -0.8120  0.1401  0.0444
  412MOL0     C56783   5.057   2.920   9.476  1.1471 -0.5632  0.6340
  412MOL0     C56784   5.584   3.049   9.017  0.7194 -0.7390 -0.7288
  412MOL0     C56785   5.690   3.070   8.928  0.2165  0.5698  0.5160
  412MOL0     C56786   5.670   3.179   8.825  0.3906 -0.0255 -0.2721
  412MOL0     H56787   6.063   3.062   8.605 -2.6600 -1.7064  0.4607
  412MOL0     H56788   6.270   3.035   8.481 -2.9164 -0.9623 -1.5858
  412MOL0     H56789   6.547   2.980   8.519 -1.1600  2.2663 -1.5820
  412MOL0     H56790   6.462   2.981   8.362  1.5971  0.0650 -0.0933
  412MOL0     H56791   6.602   2.778   8.297 -0.6288  1.2185 -0.9922
  412MOL0     H56792   6.671   2.943   8.301 -2.2699  1.1597 -0.0525
  412MOL0     H56793   6.796   2.912   8.498 -0.0534 -0.0790  2.9222
  412MOL0     H56794   6.731   2.750   8.528 -3.9828  0.1803 -1.7204
  412MOL0     H56795   6.823   2.670   8.303 -1.2295 -2.0490  3.0337
  412MOL0     H56796   6.916   2.824   8.293 -0.7629 -2.2001 -3.2653
  412MOL0     H56797   6.952   2.638   8.527  1.4522  0.5199  0.0966
  412MOL0     H56798   7.020   2.797   8.509  2.2246  0.7203 -1.8393
  412MOL0     H56799   7.070   2.584   8.309 -0.2620 -0.5309  1.4872
  412MOL0     H56800   7.129   2.753   8.289 -0.9020  3.4585  2.6266
  412MOL0     H56801   7.234   2.551   8.495  0.9919  0.4533 -0.5029
  412MOL0     H56802   7.265   2.717   8.507  1.0615 -0.3639 -0.6916
  412MOL0     H56803   7.324   2.507   8.308  3.2196  1.2845 -2.3957
  412MOL0     H56804   7.324   2.678   8.240  0.1481  1.0922 -0.1762
  412MOL0     H56805   7.512   2.845   8.346  0.8543  1.2134  2.3912
  412MOL0     H56806   7.737   2.915   8.442 -0.2159  0.0583 -1.6557
  412MOL0     H56807   7.817   2.833   8.306  1.6562  1.4432  0.7258
  412MOL0     H56808   7.870   2.799   8.599 -1.4506 -0.1708 -0.0689
  412MOL0     H56809   7.937   2.691   8.488 -3.0685 -0.7301 -1.0514
  412MOL0     H56810   8.030   2.879   8.354 -1.6730  1.8078 -0.5386
  412MOL0     H56811   7.979   2.994   8.468  0.3833 -0.5816 -0.9240
  412MOL0     H56812   8.186   2.970   8.539 -1.1754  0.3533  0.9126
  412MOL0     H56813   8.111   2.856   8.650 -0.1970  0.6489  0.3940
  412MOL0     H56814   8.346   2.900   8.701  4.6045  1.6820  0.4825
  412MOL0     H56815   8.608   2.956   8.792  0.2601  0.0961  0.7164
  412MOL0     H56816   8.603   2.810   8.905 -0.7860 -1.3091 -0.9020
  412MOL0     H56817   8.467   2.918   8.874  0.2935 -0.2462  2.2738
  412MOL0     H56818   8.963   2.543   8.858  1.2053 -1.0247  0.7855
  412MOL0     H56819   9.194   2.501   8.855  0.0124  0.0099 -1.0972
  412MOL0     H56820   9.360   2.348   8.805  4.0274 -2.5525  2.5544
  412MOL0     H56821   9.504   2.362   8.709  1.1516  0.9933  1.7986
  412MOL0     H56822   9.414   2.597   8.882  0.7635  0.4733  0.8166
  412MOL0     H56823   9.528   2.474   8.936 -2.0464 -0.5477  0.9764
  412MOL0     H56824   9.632   2.682   8.847  2.7400  0.5079 -1.4420
  412MOL0     H56825   9.556   2.651   8.684 -1.8463  0.1302  0.3291
  412MOL0     H56826   9.718   2.467   8.647 -0.3824  1.5318 -1.6203
  412MOL0     H56827   9.766   2.488   8.827 -3.4856  2.5011  1.3141
  412MOL0     H56828   9.881   2.675   8.806 -1.4327  2.7885  0.6652
  412MOL0     H56829   9.914   2.589   8.647 -2.6759  1.5813 -3.2000
  412MOL0     H56830   9.733   2.814   8.669  0.6129  0.4915  1.4234
  412MOL0     H56831   9.749   2.702   8.534  0.8586  0.0706 -0.7820
  412MOL0     H56832  10.005   2.777   8.535 -0.5885 -4.3329  1.0865
  412MOL0     H56833   9.970   2.866   8.687 -1.0554 -2.1466  1.1881
  412MOL0     H56834   9.965   3.023   8.487  0.1334 -0.2575  1.3273
  412MOL0     H56835   9.804   3.012   8.558 -0.3861 -0.5866  0.3307
  412MOL0     H56836   9.195   2.515   8.428  0.3334 -1.4888  0.2726
  412MOL0     H56837   8.944   2.545   8.436 -1.3273  0.8233  0.9616
  412MOL0     H56838   8.587   2.524   8.489  0.5343 -0.2819 -0.7485
  412MOL0     H56839   8.374   2.595   8.400 -0.1908  1.6745 -0.9506
  412MOL0     H56840   6.310   2.633   8.607 -1.1044  0.7426  1.1417
  412MOL0     H56841   6.124   2.677   8.768  0.3959  0.7406  0.0550
  412MOL0     H56842   5.888   2.814   9.033 -0.0646 -0.9655  1.6740
  412MOL0     H56843   5.693   2.778   9.181 -4.0182  0.0426  1.5788
  412MOL0     H56844   5.416   2.986   9.377  1.2946 -0.9752  0.4040
  412MOL0     H56845   5.467   3.112   9.268  0.6851 -0.8858  0.4323
  412MOL0     H56846   5.197   2.973   9.223  1.4363 -0.5815 -2.2849
  412MOL0     H56847   5.268   3.104   9.126 -2.0918  0.5258  0.0505
  412MOL0     H56848   5.270   3.265   9.301  0.7000 -0.8798 -0.5472
  412MOL0     H56849   5.105   3.188   9.277 -0.3549  0.1377  0.8123
  412MOL0     H56850   5.149   3.218   9.515  0.9692  0.8686 -1.3099
  412MOL0     H56851   5.301   3.123   9.507 -0.7431  1.6335  0.3199
  412MOL0     H56852   5.001   2.829   9.462 -0.6764  0.8982 -2.9724
  412MOL0     H56853   5.496   3.113   9.014  0.4824 -0.8698  1.4356
  412MOL0     H56854   5.567   3.211   8.809  0.6173  1.1745  0.5977
  412MOL0     H56855   5.718   3.273   8.853 -2.7606  1.3297  1.0598
  412MOL0     H56856   5.716   3.145   8.732 -0.4288  2.0673 -1.5134
  413MOL0     O56857   6.008   6.981   6.070 -0.3110 -0.2432 -0.1755
  413MOL0     C56858   5.929   7.011   5.981 -0.7688  0.1154 -0.1646
  413MOL0     O56859   5.963   7.057   5.862 -0.0792 -0.2128  0.3243
  413MOL0     C56860   6.095   7.067   5.823  0.3389 -0.2918  0.6683
  413MOL0     C56861   6.130   7.180   5.752 -0.1300 -0.3619 -0.6234
  413MOL0     C56862   6.260   7.192   5.698  0.5858 -0.0193 -0.6011
  413MOL0     C56863   6.348   7.075   5.702 -0.0750 -1.3541 -0.9193
  413MOL0     O56864   6.466   7.081   5.633 -1.2970 -0.0931  0.4042
  413MOL0     C56865   6.577   6.992   5.664 -0.5406 -0.1892  0.1732
  413MOL0     C56866   6.711   7.066   5.664  0.1436 -0.6901  0.1318
  413MOL0     C56867   6.816   6.964   5.695  1.1195  0.6976  0.4308
  413MOL0     C56868   6.948   7.031   5.721  0.4369 -0.2762 -0.1880
  413MOL0     C56869   6.945   7.125   5.841  0.7779  0.7693 -0.2980
  413MOL0     C56870   7.080   7.147   5.890 -0.1313  0.4984  0.8437
  413MOL0     C56871   7.179   7.227   5.807  0.8362  0.1496  0.0216
  413MOL0     C56872   7.322   7.225   5.869 -0.3626  0.1788 -0.0595
  413MOL0     N56873   7.377   7.089   5.869 -0.4001 -0.1055 -0.4213
  413MOL0     C56874   7.395   7.012   5.756  1.5170  0.7065  0.2925
  413MOL0     C56875   7.451   6.897   5.801 -0.5001  0.1152 -0.5941
  413MOL0     C56876   7.489   6.780   5.720 -0.2397  0.3511  0.5762
  413MOL0     C56877   7.642   6.757   5.742 -0.5730  0.4056 -0.0344
  413MOL0     C56878   7.698   6.645   5.652 -0.2836 -0.3569 -0.0414
  413MOL0     C56879   7.854   6.637   5.660 -0.3240 -0.2205 -0.0342
  413MOL0     O56880   7.908   6.562   5.544 -0.8261 -0.2617 -0.0341
  413MOL0     C56881   7.991   6.450   5.566  0.8119 -1.1199  1.2906
  413MOL0     C56882   8.035   6.394   5.681  0.1278  0.7496  0.8504
  413MOL0     C56883   8.137   6.289   5.675  0.0137 -1.1899  0.3836
  413MOL0     C56884   8.177   6.230   5.805  0.3074 -0.0362 -0.8568
  413MOL0     C56885   8.192   6.254   5.550 -0.2952  0.2880 -0.9448
  413MOL0     C56886   8.304   6.151   5.530  0.0631 -0.2127  0.0782
  413MOL0     O56887   8.362   6.092   5.640  0.6318 -0.3460 -0.2153
  413MOL0     C56888   8.472   6.020   5.615 -0.0856  0.2579  0.2471
  413MOL0     C56889   8.592   6.065   5.559  0.3766 -0.1868  0.2797
  413MOL0     C56890   8.696   5.980   5.525 -0.4309  0.7168 -0.2902
  413MOL0     C56891   8.681   5.841   5.548  0.2627 -0.1426  0.0396
  413MOL0     O56892   8.779   5.752   5.513 -0.4248  0.0745 -0.2243
  413MOL0     C56893   8.748   5.621   5.470 -0.3392 -0.2140  0.1295
  413MOL0     C56894   8.883   5.557   5.444  0.6851 -0.7838  0.2136
  413MOL0     C56895   8.862   5.414   5.400 -0.4519 -0.5844  0.2270
  413MOL0     C56896   8.991   5.358   5.350  0.0031  0.6063 -0.7587
  413MOL0     C56897   8.965   5.220   5.284  0.0550 -0.0785 -0.4009
  413MOL0     C56898   8.961   5.108   5.394 -0.1762 -0.4198  0.1906
  413MOL0     C56899   8.927   4.963   5.339  0.2732 -0.0726 -0.4318
  413MOL0     C56900   9.044   4.881   5.376 -0.8345  0.2740  0.6624
  413MOL0    Cl56901   9.055   4.736   5.273  0.0614  0.0064  0.2426
  413MOL0     C56902   8.573   5.802   5.627  0.1382  0.4498 -0.6377
  413MOL0     C56903   8.461   5.890   5.658 -0.1172  0.6350  0.9992
  413MOL0     O56904   8.347   6.148   5.418  0.1645 -0.3980  0.1328
  413MOL0     C56905   8.135   6.306   5.429 -0.2785 -0.1101 -0.4794
  413MOL0     C56906   8.041   6.409   5.443  0.6305  0.3611 -0.0842
  413MOL0     N56907   7.468   6.908   5.940  0.3590 -0.7345 -0.5379
  413MOL0     N56908   7.437   7.030   5.972  0.5138  0.3961 -0.2777
  413MOL0     C56909   6.301   6.961   5.754  0.3967 -0.1259  0.1028
  413MOL0     C56910   6.181   6.957   5.820 -0.2390  0.1696  0.0663
  413MOL0     C56911   5.783   6.989   6.005  0.1103 -0.4849 -0.3997
  413MOL0     C56912   5.746   6.886   6.089 -0.0504 -0.7483 -0.1884
  413MOL0     C56913   5.618   6.859   6.119 -0.2304  0.0970 -0.3839
  413MOL0     C56914   5.512   6.920   6.060 -0.5028 -0.1132 -0.1841
  413MOL0     O56915   5.381   6.887   6.081 -0.3217  0.3081  0.8551
  413MOL0     C56916   5.334   6.792   6.175  0.2468 -0.0706 -0.3568
  413MOL0     C56917   5.209   6.726   6.118 -0.4180 -0.3699  0.5386
  413MOL0     C56918   5.141   6.643   6.227  1.3161  0.4540 -0.7224
  413MOL0     C56919   4.988   6.620   6.209  0.8049  0.1539 -0.3518
  413MOL0     C56920   4.933   6.536   6.309 -0.9745  0.2048  1.1696
  413MOL0     C56921   4.886   6.457   6.383  0.8882  0.4117  0.2390
  413MOL0     C56922   5.544   7.028   5.977 -0.6592  0.2884  0.4026
  413MOL0     C56923   5.678   7.073   5.955 -0.4004 -0.0000 -0.5872
  413MOL0     C56924   5.702   7.184   5.867  0.7144 -0.6538 -0.8151
  413MOL0     H56925   6.059   7.262   5.747  0.7143  0.6640  2.2869
  413MOL0     H56926   6.294   7.282   5.647  1.1562 -0.2530 -0.6299
  413MOL0     H56927   6.587   6.915   5.587  0.6164 -0.2771  0.3939
  413MOL0     H56928   6.566   6.951   5.765 -0.1190 -2.6029 -0.7056
  413MOL0     H56929   6.721   7.127   5.574 -2.4942  2.0876  1.5350
  413MOL0     H56930   6.714   7.146   5.738  2.5532  0.5059 -1.1676
  413MOL0     H56931   6.798   6.908   5.787 -3.6344  1.5570  0.2709
  413MOL0     H56932   6.818   6.896   5.610 -0.8217  1.5718 -0.3709
  413MOL0     H56933   7.023   6.953   5.737 -0.6381 -1.2162  0.3280
  413MOL0     H56934   6.983   7.082   5.630 -0.5403 -0.5476 -0.7217
  413MOL0     H56935   6.887   7.088   5.927  1.0041  5.5061  2.2172
  413MOL0     H56936   6.893   7.218   5.818 -0.9161  0.1364  0.7563
  413MOL0     H56937   7.069   7.207   5.981  0.1500 -0.2572  1.3818
  413MOL0     H56938   7.116   7.050   5.925 -0.2508 -1.2335 -3.3361
  413MOL0     H56939   7.127   7.324   5.807  0.8390  0.1666  1.3019
  413MOL0     H56940   7.183   7.188   5.705 -1.3649  0.6224 -0.2958
  413MOL0     H56941   7.385   7.287   5.805  0.0645 -1.5203 -1.3619
  413MOL0     H56942   7.324   7.266   5.971 -3.8166 -0.3316  0.3304
  413MOL0     H56943   7.362   7.037   5.656 -0.0267  1.0629  0.8583
  413MOL0     H56944   7.477   6.786   5.611  0.0410  1.3695  0.5914
  413MOL0     H56945   7.434   6.692   5.754  0.3288 -0.0299  0.5238
  413MOL0     H56946   7.695   6.851   5.723 -0.7186  0.1715 -1.7767
  413MOL0     H56947   7.670   6.739   5.846 -0.7811  0.7148  0.0770
  413MOL0     H56948   7.666   6.543   5.670 -2.4178  0.3212  0.2268
  413MOL0     H56949   7.673   6.672   5.549  0.3970  0.3980 -0.0232
  413MOL0     H56950   7.888   6.739   5.674 -0.4531 -0.5543  3.5120
  413MOL0     H56951   7.878   6.584   5.752 -1.0194 -1.3711 -0.4834
  413MOL0     H56952   8.003   6.426   5.780 -2.1286  0.9795  0.0987
  413MOL0     H56953   8.257   6.287   5.853  0.1738  0.9546 -1.7746
  413MOL0     H56954   8.208   6.125   5.804 -0.4702 -0.2688 -1.5154
  413MOL0     H56955   8.095   6.226   5.877  1.0211 -3.9796 -0.0728
  413MOL0     H56956   8.603   6.172   5.543 -1.6634 -0.0557 -0.4769
  413MOL0     H56957   8.789   6.013   5.481  0.2952 -1.3348 -0.3797
  413MOL0     H56958   8.695   5.567   5.549 -0.1910 -0.6390 -0.0591
  413MOL0     H56959   8.686   5.633   5.381  0.7133 -0.6992 -0.6882
  413MOL0     H56960   8.945   5.621   5.380 -2.8535  0.8937 -1.8022
  413MOL0     H56961   8.932   5.549   5.541  1.3358  0.9456  0.0623
  413MOL0     H56962   8.783   5.415   5.324 -1.1003  0.0791  0.8973
  413MOL0     H56963   8.813   5.361   5.482  2.5327  0.6664  2.9893
  413MOL0     H56964   9.057   5.356   5.437  0.0645  3.8321 -0.6270
  413MOL0     H56965   9.038   5.430   5.283 -0.1545  1.6864  0.2510
  413MOL0     H56966   8.876   5.237   5.223  0.2170  0.1606 -0.5726
  413MOL0     H56967   9.050   5.206   5.216 -1.3709  2.5163 -2.9692
  413MOL0     H56968   8.891   5.141   5.472  1.3647  2.6734  0.3844
  413MOL0     H56969   9.057   5.106   5.447 -0.7213 -0.7790  1.2106
  413MOL0     H56970   8.910   4.971   5.231 -0.0914 -2.0375 -0.5700
  413MOL0     H56971   8.833   4.925   5.381 -0.4337  0.9932 -1.0021
  413MOL0     H56972   9.040   4.869   5.485 -1.7636 -0.4028  0.5669
  413MOL0     H56973   9.132   4.937   5.343 -2.2661  1.3970 -1.4819
  413MOL0     H56974   8.575   5.700   5.666 -0.1926  1.2613  1.6555
  413MOL0     H56975   8.369   5.856   5.705 -0.4006 -2.6542 -1.5591
  413MOL0     H56976   8.169   6.278   5.329 -0.4680 -2.4547  0.0349
  413MOL0     H56977   8.019   6.463   5.352  0.4802 -0.9050 -0.8226
  413MOL0     H56978   6.348   6.864   5.743  2.0406  0.6001  0.3694
  413MOL0     H56979   6.144   6.865   5.864  1.1447 -0.2426  0.4271
  413MOL0     H56980   5.829   6.828   6.128  0.3136 -1.2324 -1.6010
  413MOL0     H56981   5.613   6.773   6.185 -2.0038  0.3175 -0.1985
  413MOL0     H56982   5.410   6.721   6.209 -0.3121 -0.4029  0.2157
  413MOL0     H56983   5.292   6.849   6.259  0.2041 -0.6341  0.0105
  413MOL0     H56984   5.228   6.656   6.036 -2.1648 -3.1611  2.3332
  413MOL0     H56985   5.145   6.809   6.085  1.4881  1.1647  0.5355
  413MOL0     H56986   5.200   6.552   6.244  0.1870  0.1213  1.8770
  413MOL0     H56987   5.155   6.700   6.319 -0.3753  0.2874 -0.3292
  413MOL0     H56988   4.964   6.573   6.113  2.6840 -0.7672 -0.4203
  413MOL0     H56989   4.933   6.714   6.218 -0.1119 -0.5204  1.9759
  413MOL0     H56990   4.826   6.395   6.446 -2.2056  1.3399 -1.5782
  413MOL0     H56991   5.469   7.078   5.917  0.2979 -0.3975 -1.4727
  413MOL0     H56992   5.739   7.152   5.769 -0.3246  2.9740 -2.5708
  413MOL0     H56993   5.609   7.235   5.840 -0.0693  0.0055  2.6389
  413MOL0     H56994   5.773   7.255   5.910 -2.0293  2.5662 -1.1483
  414MOL0     O56995   0.832  10.439   7.632 -0.0249 -0.4910 -0.6485
  414MOL0     C56996   0.880  10.449   7.746  0.8282  0.0729  0.8886
  414MOL0     O56997   0.807  10.462   7.861  0.8353 -0.0753 -0.1395
  414MOL0     C56998   0.670  10.467   7.855 -0.2430 -0.6405 -0.3699
  414MOL0     C56999   0.600  10.369   7.793  0.2545  0.1555 -0.2592
  414MOL0     C57000   0.459  10.374   7.792  0.0554 -0.0859  0.6774
  414MOL0     C57001   0.381  10.472   7.862  0.1483 -0.0724  0.1864
  414MOL0     O57002   0.250  10.464   7.852 -0.2089 -0.7290  0.2770
  414MOL0     C57003   0.177  10.483   7.978  0.3644  0.4396  0.2111
  414MOL0     C57004   0.087  10.610   7.969 -0.0889 -0.0795 -0.3295
  414MOL0     C57005  -0.004  10.634   7.852 -0.0107  0.3154 -0.1990
  414MOL0     C57006  -0.108  10.526   7.869  0.2709 -0.3489 -0.0258
  414MOL0     C57007  -0.227  10.563   7.780  0.0732  0.1877 -0.3108
  414MOL0     C57008  -0.322  10.449   7.763  0.0026 -0.1633 -0.5046
  414MOL0     C57009  -0.416  10.458   7.640 -0.3561  0.4492  0.0100
  414MOL0     C57010  -0.489  10.586   7.640  0.1152 -0.2658  0.2425
  414MOL0     N57011  -0.594  10.599   7.540  0.2422 -0.3286 -0.7188
  414MOL0     C57012  -0.716  10.544   7.541  0.0561  0.4672 -0.7144
  414MOL0     C57013  -0.789  10.605   7.445 -0.0241  0.0085  0.3817
  414MOL0     C57014  -0.927  10.578   7.432  0.8532 -0.7120  0.4347
  414MOL0     C57015  -0.947  10.435   7.383 -0.6936  0.4171  0.4995
  414MOL0     C57016  -0.893  10.402   7.241 -0.0682  0.9507  0.0062
  414MOL0     C57017  -0.864  10.252   7.217 -0.1597  0.1305  0.4719
  414MOL0     O57018  -0.814  10.192   7.330 -0.2040 -0.2748 -0.7180
  414MOL0     C57019  -0.684  10.169   7.342 -0.0257  0.5930  0.2057
  414MOL0     C57020  -0.641  10.055   7.408  0.8698 -0.2384  0.5413
  414MOL0     C57021  -0.508  10.038   7.436 -0.0079  0.0429 -1.3752
  414MOL0     C57022  -0.471   9.915   7.517 -0.4264  0.8893 -0.2474
  414MOL0     C57023  -0.412  10.126   7.390  0.1625  0.5030  0.1455
  414MOL0     C57024  -0.265  10.115   7.423 -0.1779  0.3143 -0.1292
  414MOL0     O57025  -0.242  10.116   7.557  0.0343  0.1849 -0.2702
  414MOL0     C57026  -0.123  10.062   7.602 -0.5344 -0.1753  0.8100
  414MOL0     C57027  -0.046  10.130   7.689  0.4629  0.4775  0.6701
  414MOL0     C57028   0.069  10.076   7.743  0.0249  0.0705  0.3864
  414MOL0     C57029   0.116   9.958   7.702 -0.6347  1.1453 -0.6352
  414MOL0     O57030   0.242   9.908   7.744  0.0764 -0.1309 -0.0968
  414MOL0     C57031   0.331   9.850   7.644 -0.2316  0.5754  0.5223
  414MOL0     C57032   0.432   9.954   7.586 -0.0556 -0.3337 -0.3272
  414MOL0     C57033   0.512  10.006   7.700  0.2819  0.5150 -0.6769
  414MOL0     C57034   0.626   9.911   7.732 -1.1217 -0.8081 -0.5259
  414MOL0     C57035   0.707   9.957   7.859 -0.2420  0.4277  0.5486
  414MOL0     C57036   0.847   9.885   7.876 -0.5855  0.3085 -0.4763
  414MOL0     C57037   0.829   9.739   7.934 -0.5325 -0.2730  0.9884
  414MOL0     C57038   0.966   9.658   7.948 -0.0239 -0.7857  0.3198
  414MOL0    Cl57039   0.960   9.496   8.038 -0.3917 -0.3542 -0.0754
  414MOL0     C57040   0.037   9.886   7.614  0.2464  0.0939  0.8843
  414MOL0     C57041  -0.077   9.938   7.557 -0.1179  1.2260 -1.4112
  414MOL0     O57042  -0.182  10.129   7.338  0.1828  0.0088 -0.3469
  414MOL0     C57043  -0.452  10.230   7.311 -0.1942  0.2054  1.1603
  414MOL0     C57044  -0.582  10.254   7.286 -0.0827  0.0890 -0.3282
  414MOL0     N57045  -0.705  10.699   7.382  0.4642  0.2838 -0.0176
  414MOL0     N57046  -0.590  10.692   7.442 -0.3604  0.3644  1.1917
  414MOL0     C57047   0.456  10.572   7.922 -0.9641  0.0314  0.1456
  414MOL0     C57048   0.603  10.566   7.925 -0.0713 -0.1496  0.1801
  414MOL0     C57049   1.034  10.472   7.761  0.5763 -0.1950  0.6899
  414MOL0     C57050   1.106  10.508   7.647  0.4717  0.0226  0.5251
  414MOL0     C57051   1.239  10.521   7.640 -0.8823 -1.0000  0.1351
  414MOL0     C57052   1.302  10.492   7.761 -0.4163 -0.2284  0.5886
  414MOL0     O57053   1.441  10.513   7.764 -0.6280 -0.4241 -0.1043
  414MOL0     C57054   1.478  10.636   7.837  0.0376  0.5215 -0.6867
  414MOL0     C57055   1.567  10.594   7.960 -1.0614 -0.5808  0.2404
  414MOL0     C57056   1.679  10.496   7.927  0.0890  0.8943 -0.1851
  414MOL0     C57057   1.648  10.349   7.965 -0.6086  0.4064  0.0383
  414MOL0     C57058   1.643  10.324   8.114 -0.3610 -0.0458  1.0156
  414MOL0     C57059   1.642  10.299   8.237  0.5028 -0.8357  0.3737
  414MOL0     C57060   1.239  10.447   7.876 -0.3036  0.1390 -0.7568
  414MOL0     C57061   1.102  10.443   7.882  0.0710  0.7454  0.1899
  414MOL0     C57062   1.040  10.406   8.005  1.4901  0.4959  0.3518
  414MOL0     H57063   0.652  10.282   7.755  0.3931  0.2937 -0.3938
  414MOL0     H57064   0.421  10.288   7.739 -0.9843  1.6919 -1.6210
  414MOL0     H57065   0.244  10.492   8.065 -2.1394  3.0793  2.0490
  414MOL0     H57066   0.105  10.405   8.003 -1.3038  1.5178 -1.0129
  414MOL0     H57067   0.026  10.631   8.057 -0.7196  0.4229 -0.8760
  414MOL0     H57068   0.164  10.688   7.971 -0.8672  0.6928  0.4690
  414MOL0     H57069  -0.046  10.734   7.864  2.6384  1.4222  0.7639
  414MOL0     H57070   0.039  10.623   7.751 -1.0371 -4.1630 -0.3459
  414MOL0     H57071  -0.079  10.425   7.840 -4.1516 -1.2389 -2.2546
  414MOL0     H57072  -0.140  10.522   7.973  1.4633  0.9167  0.4188
  414MOL0     H57073  -0.184  10.576   7.680  2.4087  0.4576  0.6780
  414MOL0     H57074  -0.277  10.655   7.810  1.5547  1.6948 -2.2001
  414MOL0     H57075  -0.265  10.356   7.752  1.2218  0.5920 -0.7845
  414MOL0     H57076  -0.387  10.450   7.851 -1.6075 -0.7041 -1.6284
  414MOL0     H57077  -0.483  10.373   7.625 -0.6743  0.8532 -0.8934
  414MOL0     H57078  -0.345  10.442   7.558 -0.2062 -3.9275  0.7344
  414MOL0     H57079  -0.538  10.605   7.736  1.2738  2.0042  0.4552
  414MOL0     H57080  -0.411  10.663   7.637 -0.5604  0.3878 -1.4769
  414MOL0     H57081  -0.755  10.468   7.609 -0.5589  1.9082  0.6060
  414MOL0     H57082  -0.987  10.648   7.374 -2.1822 -1.0236  2.9219
  414MOL0     H57083  -0.976  10.591   7.529 -1.0191 -0.9217 -0.4444
  414MOL0     H57084  -0.897  10.361   7.447 -2.3192 -3.7791 -2.6256
  414MOL0     H57085  -1.054  10.414   7.387 -1.0304  2.1489  1.6370
  414MOL0     H57086  -0.969  10.449   7.178 -2.7410 -0.3569  2.0436
  414MOL0     H57087  -0.795  10.451   7.237  0.5502 -0.2036  0.6939
  414MOL0     H57088  -0.961  10.215   7.184 -0.8039  0.7563  1.5711
  414MOL0     H57089  -0.795  10.244   7.132  0.4210  2.5530  0.6314
  414MOL0     H57090  -0.731   9.996   7.420  0.4461  0.5784  1.4763
  414MOL0     H57091  -0.483   9.934   7.624 -1.5873  2.7471 -0.6703
  414MOL0     H57092  -0.365   9.894   7.501 -0.6417 -0.6199  0.0916
  414MOL0     H57093  -0.529   9.824   7.497  0.2811  0.4479 -0.3482
  414MOL0     H57094  -0.081  10.225   7.731  0.1056  0.0207  1.4290
  414MOL0     H57095   0.131  10.136   7.809  1.1987 -0.5012 -0.1652
  414MOL0     H57096   0.376   9.767   7.699 -1.3982  0.2216  0.9925
  414MOL0     H57097   0.275   9.812   7.558 -0.8825  1.1531  0.6751
  414MOL0     H57098   0.501   9.918   7.510  0.5139  1.7711 -0.8959
  414MOL0     H57099   0.375  10.030   7.530 -0.0935 -1.5343 -1.9736
  414MOL0     H57100   0.455  10.025   7.791  0.3939 -0.9172 -0.2826
  414MOL0     H57101   0.561  10.101   7.677  2.0843  0.0492  0.9835
  414MOL0     H57102   0.696   9.927   7.650 -2.4701  2.6555 -1.1685
  414MOL0     H57103   0.600   9.805   7.736  1.3408 -1.5894 -2.7393
  414MOL0     H57104   0.719  10.065   7.861  1.5707  0.2380  0.8123
  414MOL0     H57105   0.634   9.921   7.933 -2.1228  0.2132 -1.3005
  414MOL0     H57106   0.900   9.941   7.953 -2.8548  1.5015  0.3047
  414MOL0     H57107   0.902   9.880   7.782  1.5740 -3.1223  0.7492
  414MOL0     H57108   0.759   9.683   7.870 -1.4986  2.1208 -0.1826
  414MOL0     H57109   0.786   9.756   8.033  0.8079 -1.4492  1.8168
  414MOL0     H57110   1.053   9.709   7.990 -0.5484 -0.8755  1.5468
  414MOL0     H57111   0.990   9.632   7.844  1.2812 -0.5167  0.5337
  414MOL0     H57112   0.062   9.781   7.604 -0.7994 -0.0165 -0.8726
  414MOL0     H57113  -0.132   9.875   7.487 -0.4302  0.0560 -0.1652
  414MOL0     H57114  -0.387  10.300   7.260 -2.0708 -1.3084 -4.0259
  414MOL0     H57115  -0.610  10.340   7.226 -0.5741 -0.3663 -0.7603
  414MOL0     H57116   0.418  10.659   7.975 -1.6555  0.0426 -0.3592
  414MOL0     H57117   0.671  10.637   7.972 -0.5273 -0.4052  1.2512
  414MOL0     H57118   1.055  10.538   7.556  0.6190 -1.6842 -0.1575
  414MOL0     H57119   1.296  10.549   7.552 -2.1284 -3.1089 -1.4326
  414MOL0     H57120   1.540  10.700   7.775  0.5741  1.7210  1.0142
  414MOL0     H57121   1.394  10.692   7.879  0.0279 -0.1823  0.2840
  414MOL0     H57122   1.501  10.552   8.037  1.4241 -1.5192  1.9969
  414MOL0     H57123   1.609  10.684   8.005  0.0831 -0.3665 -1.1756
  414MOL0     H57124   1.702  10.504   7.820 -1.1754  2.5393 -0.3645
  414MOL0     H57125   1.766  10.526   7.986 -0.9657  2.8869  0.4266
  414MOL0     H57126   1.729  10.288   7.924  0.3583 -0.0152  2.4177
  414MOL0     H57127   1.555  10.314   7.918 -0.9361 -0.1646  1.0844
  414MOL0     H57128   1.642  10.285   8.343 -3.0951  1.6052  0.8796
  414MOL0     H57129   1.299  10.430   7.965 -2.6113  0.3383  0.9074
  414MOL0     H57130   1.106  10.359   8.079 -1.0930 -2.3266  1.0848
  414MOL0     H57131   1.006  10.497   8.055 -0.4769  1.1968 -2.0616
  414MOL0     H57132   0.955  10.339   7.990 -0.2005  2.5770  0.3037
  415MOL0     O57133   6.039   5.351  10.763 -0.3252 -0.1144 -0.0068
  415MOL0     C57134   6.014   5.243  10.706 -0.9685 -0.6753  0.3444
  415MOL0     O57135   6.112   5.145  10.689 -0.0263 -0.4781 -0.4511
  415MOL0     C57136   6.239   5.170  10.737  0.1082 -0.4296 -0.2103
  415MOL0     C57137   6.327   5.216  10.651  1.3320  0.4982  1.1155
  415MOL0     C57138   6.452   5.246  10.690  0.3702 -0.4237  0.1229
  415MOL0     C57139   6.486   5.226  10.822  0.0875 -0.3122  0.2646
  415MOL0     O57140   6.619   5.237  10.863  0.4237 -0.9070  0.0926
  415MOL0     C57141   6.675   5.372  10.852  0.3309 -0.6215 -0.6382
  415MOL0     C57142   6.609   5.469  10.968  0.1050  0.3219  0.5817
  415MOL0     C57143   6.703   5.585  11.001 -0.6226 -0.1179  0.1991
  415MOL0     C57144   6.827   5.529  11.079  0.3463 -0.2121  0.8878
  415MOL0     C57145   6.877   5.626  11.187  0.2482 -0.4547 -0.3481
  415MOL0     C57146   6.968   5.561  11.297 -0.2632  0.5249  0.0270
  415MOL0     C57147   7.005   5.667  11.406  1.2938 -0.4672  0.2868
  415MOL0     C57148   7.105   5.771  11.367  0.3073  0.8131  0.1948
  415MOL0     N57149   7.141   5.889  11.454  0.5081  0.0044  0.0979
  415MOL0     C57150   7.250   5.892  11.537 -0.2875  0.0059  0.6708
  415MOL0     C57151   7.255   6.021  11.580 -0.0310  0.7107 -0.1676
  415MOL0     C57152   7.370   6.077  11.661 -0.3456  0.0800 -0.3561
  415MOL0     C57153   7.330   6.146  11.792  1.2300 -0.0685 -0.0189
  415MOL0     C57154   7.271   6.042  11.880  0.4429 -0.1272 -0.0535
  415MOL0     C57155   7.271   6.081  12.016 -0.6138  0.4711 -1.3907
  415MOL0     O57156   7.233   5.973  12.106  0.6014  0.2001 -0.4098
  415MOL0     C57157   7.104   5.934  12.114  0.1531  0.0810  0.1112
  415MOL0     C57158   7.056   5.812  12.055 -1.2416 -0.9288 -0.5283
  415MOL0     C57159   6.924   5.776  12.061 -0.2074 -0.2130  0.8880
  415MOL0     C57160   6.891   5.648  11.986  0.2133 -0.4241 -0.4227
  415MOL0     C57161   6.829   5.862  12.112  0.2956 -1.0286  0.8319
  415MOL0     C57162   6.679   5.848  12.105  0.1383 -0.4615  0.0753
  415MOL0     O57163   6.608   5.941  12.027 -0.0507  0.3400  0.3533
  415MOL0     C57164   6.474   5.943  12.022 -0.4659 -0.0082 -0.9920
  415MOL0     C57165   6.412   6.004  11.907  0.2726  0.5341 -0.2083
  415MOL0     C57166   6.270   6.016  11.905 -0.9273 -0.0943  0.6639
  415MOL0     C57167   6.197   5.990  12.017 -0.4577 -0.2033 -0.4675
  415MOL0     O57168   6.062   6.013  12.041 -0.6519  0.4489 -0.0982
  415MOL0     C57169   5.971   6.009  11.930  0.2193  0.8577 -0.1825
  415MOL0     C57170   5.823   5.988  11.966  0.0746 -0.3486  0.1348
  415MOL0     C57171   5.779   5.838  11.987  0.3064  0.9240 -0.5433
  415MOL0     C57172   5.853   5.770  12.108 -0.4788 -0.7690 -0.3755
  415MOL0     C57173   5.797   5.813  12.244  0.2481  0.2621  0.5911
  415MOL0     C57174   5.870   5.746  12.365  0.1839  0.5976 -0.0090
  415MOL0     C57175   5.820   5.794  12.498 -0.5528  0.2949  0.5723
  415MOL0     C57176   5.890   5.716  12.603  0.6178 -0.3129  0.8376
  415MOL0    Cl57177   6.066   5.761  12.603  0.2776 -0.4642  0.0831
  415MOL0     C57178   6.265   5.955  12.132 -0.3639  0.7632 -0.7297
  415MOL0     C57179   6.401   5.930  12.136  0.0162 -0.1532 -0.2595
  415MOL0     O57180   6.626   5.747  12.153  0.2507  0.0017 -0.4213
  415MOL0     C57181   6.876   5.976  12.176  0.7393 -0.2533  0.7653
  415MOL0     C57182   7.004   6.018  12.170 -0.9898  0.3738 -0.3663
  415MOL0     N57183   7.157   6.096  11.521 -0.1073  0.8501  0.1297
  415MOL0     N57184   7.091   6.017  11.436  0.1177 -0.2875  0.4991
  415MOL0     C57185   6.391   5.196  10.921 -0.0120  0.7914  0.5848
  415MOL0     C57186   6.267   5.167  10.869 -0.0862 -0.0083  0.2523
  415MOL0     C57187   5.875   5.221  10.665  1.0709 -0.2883 -0.6523
  415MOL0     C57188   5.774   5.319  10.697 -0.0890 -0.2172  0.3363
  415MOL0     C57189   5.636   5.305  10.669 -1.0337  0.7271  0.5449
  415MOL0     C57190   5.596   5.200  10.598 -0.6260  0.4987 -0.1684
  415MOL0     O57191   5.460   5.188  10.583  0.0141 -0.5538 -0.0086
  415MOL0     C57192   5.400   5.058  10.564 -0.6834  0.5307 -0.1498
  415MOL0     C57193   5.261   5.090  10.510  1.1761 -0.6414  0.1667
  415MOL0     C57194   5.194   4.955  10.435  0.3552 -0.0010 -0.0610
  415MOL0     C57195   5.165   4.845  10.531 -0.3701  0.7596  0.2091
  415MOL0     C57196   5.085   4.741  10.475  0.0161  0.1888  0.4093
  415MOL0     C57197   5.004   4.651  10.449 -1.0770  0.6729  0.5960
  415MOL0     C57198   5.698   5.098  10.570  0.2938  0.0095  0.2261
  415MOL0     C57199   5.833   5.105  10.594  0.1702  0.2080 -0.0399
  415MOL0     C57200   5.920   4.988  10.558 -0.4952  0.0744 -0.1044
  415MOL0     H57201   6.300   5.227  10.546  1.2133  0.2136  1.1160
  415MOL0     H57202   6.531   5.273  10.621 -1.8466  1.9901 -1.6700
  415MOL0     H57203   6.661   5.412  10.751  0.8752  0.0496 -0.4612
  415MOL0     H57204   6.783   5.357  10.862  0.3354 -0.0026  0.4882
  415MOL0     H57205   6.508   5.505  10.945  0.3743 -0.4249 -2.1630
  415MOL0     H57206   6.598   5.407  11.057 -0.6518  0.2520  0.4496
  415MOL0     H57207   6.714   5.646  10.911 -1.2677  0.9807  0.8544
  415MOL0     H57208   6.651   5.645  11.075  0.8640  1.1955  0.2207
  415MOL0     H57209   6.789   5.446  11.139  0.2333  0.1056  1.2591
  415MOL0     H57210   6.904   5.505  11.005 -1.2074  3.9174 -2.5175
  415MOL0     H57211   6.792   5.661  11.247 -0.2272 -0.3094 -1.0928
  415MOL0     H57212   6.931   5.714  11.150 -1.7541  0.4405 -1.3109
  415MOL0     H57213   6.910   5.478  11.338 -0.6656  0.0206 -1.5062
  415MOL0     H57214   7.057   5.515  11.254 -2.0074 -0.6158 -2.5733
  415MOL0     H57215   7.030   5.604  11.491 -0.4867 -1.9008 -0.1897
  415MOL0     H57216   6.923   5.735  11.429  0.8622 -1.6748  2.5799
  415MOL0     H57217   7.194   5.710  11.352  0.8372  1.7364 -0.4832
  415MOL0     H57218   7.076   5.812  11.270  0.8069 -1.6502 -1.0735
  415MOL0     H57219   7.319   5.815  11.572 -1.8049 -0.4697  2.7879
  415MOL0     H57220   7.419   6.156  11.603 -1.6426  1.5471  0.4730
  415MOL0     H57221   7.436   5.993  11.687  0.6898  0.7611 -0.7478
  415MOL0     H57222   7.413   6.201  11.838  0.6845  0.0421  0.8674
  415MOL0     H57223   7.249   6.219  11.779  0.4754 -0.7443  0.7842
  415MOL0     H57224   7.170   6.018  11.846  0.1089  2.3853 -1.0555
  415MOL0     H57225   7.332   5.952  11.868  1.5105  0.5831 -0.0554
  415MOL0     H57226   7.370   6.119  12.040 -1.1442  1.1717 -0.1823
  415MOL0     H57227   7.216   6.176  12.029  0.2705  1.0957 -2.0940
  415MOL0     H57228   7.130   5.753  12.001 -0.8902  1.4148 -2.8400
  415MOL0     H57229   6.785   5.625  12.000 -0.4566  1.8683 -1.2828
  415MOL0     H57230   6.948   5.566  12.030  1.6030  1.3840  1.3286
  415MOL0     H57231   6.904   5.662  11.878  0.3666  1.2751 -0.2189
  415MOL0     H57232   6.474   6.032  11.822 -1.3944  0.3090 -1.5427
  415MOL0     H57233   6.230   6.065  11.817 -0.5542  0.3776  0.7522
  415MOL0     H57234   5.978   6.108  11.884 -1.2655  0.2926 -1.7249
  415MOL0     H57235   6.005   5.931  11.862 -2.4868 -1.0911  0.5533
  415MOL0     H57236   5.794   6.054  12.048 -3.9379 -2.9495  1.0982
  415MOL0     H57237   5.774   6.034  11.879  0.6274  2.2808  1.1194
  415MOL0     H57238   5.811   5.780  11.900  1.2015  0.6113 -0.0179
  415MOL0     H57239   5.671   5.838  11.998  0.4427  2.3116  1.3589
  415MOL0     H57240   5.955   5.807  12.096 -1.4239  1.2390 -3.5539
  415MOL0     H57241   5.848   5.664  12.081  0.1714 -0.2630 -2.6581
  415MOL0     H57242   5.824   5.918  12.258  4.0995 -0.4183 -0.4421
  415MOL0     H57243   5.691   5.786  12.251  0.9906 -3.0565  0.7433
  415MOL0     H57244   5.979   5.754  12.354  0.1605 -0.5484 -1.3214
  415MOL0     H57245   5.848   5.639  12.354  0.4790  0.5582 -0.2501
  415MOL0     H57246   5.712   5.775  12.494 -1.0155  2.7668 -0.1459
  415MOL0     H57247   5.845   5.900  12.504  2.6222 -0.1801 -1.8263
  415MOL0     H57248   5.896   5.609  12.582  2.2888  0.2085 -1.8151
  415MOL0     H57249   5.847   5.730  12.703  0.3062 -0.9660  0.8000
  415MOL0     H57250   6.216   5.935  12.226 -1.7412 -2.4635 -1.9807
  415MOL0     H57251   6.449   5.895  12.226  2.7018  3.6968  0.0461
  415MOL0     H57252   6.811   6.049  12.223  0.9030  0.5421 -0.2100
  415MOL0     H57253   7.027   6.116  12.211  1.6230  0.0761 -0.9832
  415MOL0     H57254   6.426   5.176  11.022 -1.3536  0.2124  0.9689
  415MOL0     H57255   6.191   5.131  10.938 -0.3301  3.4417  1.9764
  415MOL0     H57256   5.799   5.417  10.738 -0.0224  0.6395 -1.6417
  415MOL0     H57257   5.570   5.385  10.701 -3.3346 -2.3476  4.4227
  415MOL0     H57258   5.440   4.995  10.484 -0.9081  0.2859 -0.0689
  415MOL0     H57259   5.400   5.010  10.662 -2.1048 -0.2263 -0.5023
  415MOL0     H57260   5.280   5.169  10.436  2.3850 -1.9548 -0.9820
  415MOL0     H57261   5.198   5.143  10.582  1.3561 -3.7202  2.8109
  415MOL0     H57262   5.094   4.978  10.398  0.2400 -0.9523 -0.3689
  415MOL0     H57263   5.258   4.917  10.354 -0.8982 -0.5379 -0.8256
  415MOL0     H57264   5.116   4.889  10.619 -0.1826 -0.5481  0.9832
  415MOL0     H57265   5.268   4.816  10.554 -0.2483  1.5338  0.6761
  415MOL0     H57266   4.934   4.570  10.446 -0.3041 -0.2345  3.4497
  415MOL0     H57267   5.664   5.004  10.528 -0.7489  0.5810 -0.2372
  415MOL0     H57268   5.943   4.938  10.652  0.5408  1.9694  0.6871
  415MOL0     H57269   5.871   4.918  10.489 -2.9384 -2.1969  3.5975
  415MOL0     H57270   6.018   5.023  10.525  0.4178 -2.5406 -0.4402
  416MOL0     O57271  11.179   6.535   6.577 -0.6553  0.3677  0.4342
  416MOL0     C57272  11.170   6.645   6.637  0.1893  0.1069  0.0707
  416MOL0     O57273  11.051   6.709   6.664 -0.2313  0.7067 -0.3241
  416MOL0     C57274  10.928   6.639   6.654  0.5667  0.3971 -0.2060
  416MOL0     C57275  10.815   6.729   6.683  0.4252  0.4590 -0.3275
  416MOL0     C57276  10.683   6.682   6.677 -0.4507  0.8433 -0.4867
  416MOL0     C57277  10.663   6.549   6.640  0.4822  0.1437 -0.2044
  416MOL0     O57278  10.546   6.490   6.619 -0.0041  0.5123  0.1878
  416MOL0     C57279  10.467   6.477   6.747 -0.1384 -0.0147  0.3101
  416MOL0     C57280  10.321   6.426   6.729 -0.1440 -0.4103 -0.0726
  416MOL0     C57281  10.314   6.276   6.727 -0.1127 -0.4412  0.4361
  416MOL0     C57282  10.341   6.220   6.577  0.0826 -0.6052  0.1923
  416MOL0     C57283  10.263   6.085   6.560 -0.6780 -0.3101  0.2704
  416MOL0     C57284  10.310   6.001   6.440  0.1263 -0.4756  0.0494
  416MOL0     C57285  10.451   5.938   6.440 -0.7592 -0.0741  0.8435
  416MOL0     C57286  10.477   5.852   6.317  0.3179  0.2731  1.0040
  416MOL0     N57287  10.379   5.747   6.299 -0.0282  0.3720  0.1659
  416MOL0     C57288  10.375   5.631   6.370  1.3094 -0.2114  0.1468
  416MOL0     C57289  10.282   5.553   6.307  0.1487  0.7472  0.1552
  416MOL0     C57290  10.233   5.416   6.347  0.2138  0.0985 -0.0594
  416MOL0     C57291  10.347   5.303   6.329 -0.0906 -0.4846  0.0588
  416MOL0     C57292  10.379   5.288   6.180 -0.3160  0.4078  0.6826
  416MOL0     C57293  10.488   5.370   6.123 -0.1347  0.2334 -0.8383
  416MOL0     O57294  10.603   5.359   6.200  0.1012 -1.4504  0.0246
  416MOL0     C57295  10.706   5.281   6.153 -0.7137  0.7263 -0.5237
  416MOL0     C57296  10.743   5.255   6.021 -1.1294 -0.3973  0.0491
  416MOL0     C57297  10.864   5.179   5.991 -0.1076 -0.6931  0.1566
  416MOL0     C57298  10.907   5.157   5.847  0.3714  0.5170 -0.8059
  416MOL0     C57299  10.950   5.145   6.102  0.0535  0.4957 -0.1486
  416MOL0     C57300  11.080   5.064   6.094  0.3794 -0.9842 -0.0036
  416MOL0     O57301  11.130   5.003   6.211 -0.0441 -0.0661 -0.2070
  416MOL0     C57302  11.189   4.887   6.196 -0.3189  0.9867 -0.6929
  416MOL0     C57303  11.177   4.804   6.078 -0.3848  0.2217 -0.6062
  416MOL0     C57304  11.242   4.680   6.068  0.1812  0.1547  0.0667
  416MOL0     C57305  11.316   4.631   6.179 -0.0200  0.3334 -0.4488
  416MOL0     O57306  11.390   4.516   6.178  0.1792  0.0409  0.1647
  416MOL0     C57307  11.532   4.528   6.184  0.3907  0.3270  0.7894
  416MOL0     C57308  11.591   4.616   6.069  0.7465 -0.7494  0.1384
  416MOL0     C57309  11.749   4.624   6.055 -0.5383 -0.0217 -0.4655
  416MOL0     C57310  11.806   4.511   5.969 -0.6559  0.1525  0.1124
  416MOL0     C57311  11.962   4.519   5.952 -0.0411 -0.2908  0.2418
  416MOL0     C57312  12.028   4.403   5.883  0.6321  0.1723  0.0625
  416MOL0     C57313  11.981   4.268   5.943 -0.8409  0.1948  0.6562
  416MOL0     C57314  12.058   4.141   5.880  1.1488 -0.2158 -0.2127
  416MOL0    Cl57315  12.008   3.997   5.968 -0.1052 -0.0573 -0.1946
  416MOL0     C57316  11.314   4.708   6.298 -0.3379 -1.5229  0.0047
  416MOL0     C57317  11.262   4.836   6.299 -0.2949 -0.3047  0.4203
  416MOL0     O57318  11.145   5.076   5.990 -0.0181  1.0144 -0.5986
  416MOL0     C57319  10.914   5.187   6.229  0.2269 -0.6056 -0.1095
  416MOL0     C57320  10.795   5.247   6.250 -0.1896 -0.1506  0.3127
  416MOL0     N57321  10.223   5.629   6.207  0.3147 -1.0442  0.2486
  416MOL0     N57322  10.286   5.745   6.206 -0.0475 -0.3946  0.1500
  416MOL0     C57323  10.768   6.461   6.614 -0.4948  0.0500 -0.8421
  416MOL0     C57324  10.901   6.505   6.620 -0.0782  0.5106  0.7012
  416MOL0     C57325  11.293   6.734   6.652  0.4982  0.3545  1.3263
  416MOL0     C57326  11.265   6.863   6.698 -0.1979 -0.1155 -0.0413
  416MOL0     C57327  11.369   6.957   6.728  0.9415  0.4015  1.1248
  416MOL0     C57328  11.501   6.920   6.695 -0.2012  0.7119  1.0646
  416MOL0     O57329  11.611   6.998   6.714  0.3006 -0.1387  0.2289
  416MOL0     C57330  11.600   7.118   6.792 -0.0268  0.1602 -0.0632
  416MOL0     C57331  11.740   7.192   6.783 -0.5120  0.3950  0.1503
  416MOL0     C57332  11.852   7.083   6.825  0.1926 -0.5167  0.8848
  416MOL0     C57333  11.996   7.140   6.795 -0.6863  0.3780 -0.2143
  416MOL0     C57334  12.032   7.251   6.886 -0.7268  0.7805  0.7048
  416MOL0     C57335  12.053   7.343   6.963  0.4350 -0.0983 -0.2792
  416MOL0     C57336  11.531   6.788   6.647 -0.3603 -0.3360  0.7504
  416MOL0     C57337  11.433   6.691   6.640 -0.5381 -0.0797  0.4480
  416MOL0     C57338  11.484   6.554   6.599  0.2610 -0.1992  0.5958
  416MOL0     H57339  10.837   6.833   6.703 -0.1083  0.5260 -0.0808
  416MOL0     H57340  10.602   6.753   6.696  0.6983  2.3446 -0.9964
  416MOL0     H57341  10.474   6.579   6.787 -0.1218 -0.4007  1.3195
  416MOL0     H57342  10.527   6.416   6.815  1.7711  0.0444 -1.1996
  416MOL0     H57343  10.267   6.456   6.819 -0.6669 -1.2071 -0.1069
  416MOL0     H57344  10.266   6.470   6.646 -1.7856 -0.5941  0.8836
  416MOL0     H57345  10.367   6.223   6.807  0.3481 -3.2612 -1.6111
  416MOL0     H57346  10.210   6.257   6.756  0.1685 -2.5561  0.2394
  416MOL0     H57347  10.307   6.296   6.506 -1.1250  0.1081  1.4839
  416MOL0     H57348  10.448   6.203   6.561  0.1192 -2.1971  1.8949
  416MOL0     H57349  10.157   6.112   6.555 -0.6981 -0.6024 -2.5106
  416MOL0     H57350  10.278   6.017   6.644  2.0798  1.8691  1.6752
  416MOL0     H57351  10.242   5.916   6.429 -0.2257 -0.6332  2.7044
  416MOL0     H57352  10.305   6.076   6.361  1.0083 -0.5370 -0.0740
  416MOL0     H57353  10.449   5.871   6.527 -4.6727 -1.6725 -0.2618
  416MOL0     H57354  10.533   6.010   6.435  2.2600 -3.2606  0.2428
  416MOL0     H57355  10.481   5.912   6.225 -0.3533 -1.4258 -0.2006
  416MOL0     H57356  10.570   5.795   6.316 -0.2138 -0.6360  1.9847
  416MOL0     H57357  10.453   5.612   6.443 -0.1690 -0.2622  1.7824
  416MOL0     H57358  10.144   5.393   6.288 -0.8851 -0.1651  1.6290
  416MOL0     H57359  10.210   5.408   6.453  0.4965 -0.3408 -0.0257
  416MOL0     H57360  10.440   5.317   6.386  0.3755  1.3233 -1.0407
  416MOL0     H57361  10.306   5.208   6.364 -1.4119 -0.3754 -1.1243
  416MOL0     H57362  10.424   5.189   6.169  0.0749  0.7220 -0.7034
  416MOL0     H57363  10.291   5.302   6.116 -1.1268 -1.4406  1.3240
  416MOL0     H57364  10.500   5.340   6.018  4.4077 -2.7976  0.2490
  416MOL0     H57365  10.456   5.473   6.108 -1.2844 -0.1599 -1.2673
  416MOL0     H57366  10.703   5.312   5.938  3.4216  2.6947 -0.4545
  416MOL0     H57367  10.946   5.057   5.826  0.0042 -0.0873  1.1669
  416MOL0     H57368  10.990   5.222   5.820  0.5680  0.6619  0.1163
  416MOL0     H57369  10.828   5.173   5.773  1.1765  2.8975 -1.2400
  416MOL0     H57370  11.127   4.841   5.990 -0.2988 -0.1719 -0.8206
  416MOL0     H57371  11.238   4.631   5.971  1.4193 -0.3743  0.2691
  416MOL0     H57372  11.578   4.561   6.277 -0.4937 -1.6715  1.9968
  416MOL0     H57373  11.580   4.431   6.167  1.5525  1.0127  0.0603
  416MOL0     H57374  11.555   4.580   5.972 -0.8600 -0.8285  0.7353
  416MOL0     H57375  11.549   4.716   6.083 -0.2907 -0.9600 -1.2265
  416MOL0     H57376  11.797   4.628   6.153 -0.7627  0.1570 -0.3627
  416MOL0     H57377  11.787   4.720   6.019 -0.8270 -0.3126 -1.5700
  416MOL0     H57378  11.755   4.524   5.873 -1.7987  1.3426  0.8406
  416MOL0     H57379  11.770   4.416   6.009 -0.8148  0.8540  1.7166
  416MOL0     H57380  11.990   4.612   5.902 -1.2878  1.6392  2.8614
  416MOL0     H57381  12.010   4.527   6.050  4.4841 -0.7787 -1.7176
  416MOL0     H57382  12.137   4.420   5.882  0.5724  0.6408 -0.9847
  416MOL0     H57383  11.997   4.409   5.778  2.5850  2.6409 -0.4864
  416MOL0     H57384  11.875   4.257   5.921 -0.6137 -0.9176  0.0055
  416MOL0     H57385  11.984   4.282   6.051  1.0050  0.3735  0.6223
  416MOL0     H57386  12.164   4.146   5.908  0.3473 -1.5325  3.8211
  416MOL0     H57387  12.039   4.110   5.777 -0.5101 -2.8030  0.7724
  416MOL0     H57388  11.378   4.680   6.381  2.3225 -2.1029 -2.0746
  416MOL0     H57389  11.284   4.885   6.393 -0.1146  1.3470 -0.4345
  416MOL0     H57390  10.967   5.153   6.318 -0.3179 -3.4923 -0.7810
  416MOL0     H57391  10.761   5.268   6.351 -0.0986  0.5835  0.2002
  416MOL0     H57392  10.749   6.356   6.591 -0.7677  0.1947 -1.2888
  416MOL0     H57393  10.980   6.434   6.600  0.4276  1.4054 -0.5906
  416MOL0     H57394  11.169   6.908   6.718 -0.1480  0.1919 -0.4905
  416MOL0     H57395  11.345   7.061   6.751 -0.3015 -0.1255  2.3409
  416MOL0     H57396  11.522   7.189   6.759  1.2627  1.3484 -0.6563
  416MOL0     H57397  11.572   7.083   6.892 -0.4055 -2.2745 -0.9714
  416MOL0     H57398  11.742   7.281   6.847 -0.7027  0.6520 -0.1938
  416MOL0     H57399  11.751   7.221   6.678 -1.3334 -1.6909 -0.5788
  416MOL0     H57400  11.833   7.070   6.932 -1.4322  0.8583  0.8113
  416MOL0     H57401  11.835   6.993   6.766 -1.3245 -0.2656  0.8898
  416MOL0     H57402  12.005   7.167   6.690  0.9210  0.4200 -0.1023
  416MOL0     H57403  12.074   7.065   6.812  0.0365  1.1089 -0.2471
  416MOL0     H57404  12.062   7.416   7.041 -5.0073  0.5023  0.2176
  416MOL0     H57405  11.636   6.778   6.623 -0.1533  1.6242  0.6425
  416MOL0     H57406  11.469   6.532   6.493 -1.1598  3.9669 -0.2617
  416MOL0     H57407  11.592   6.547   6.613  0.7472  2.8493 -0.8369
  416MOL0     H57408  11.440   6.479   6.664  1.4684  0.0347  1.7200
  417MOL0     O57409   5.779   4.670   2.611 -0.2610  0.0472  0.0934
  417MOL0     C57410   5.830   4.736   2.520  0.5819 -0.1324  0.9232
  417MOL0     O57411   5.967   4.732   2.486 -0.3961 -0.7488 -0.0917
  417MOL0     C57412   6.051   4.633   2.532 -0.1623  0.7210  0.3603
  417MOL0     C57413   6.107   4.553   2.425  0.4234  0.2367 -0.2497
  417MOL0     C57414   6.205   4.469   2.448  0.2357 -0.3151  0.6837
  417MOL0     C57415   6.255   4.457   2.573 -0.0207  0.2653  0.2250
  417MOL0     O57416   6.374   4.401   2.601 -0.3555  1.2441 -0.6529
  417MOL0     C57417   6.425   4.286   2.531 -0.3893 -0.1697 -0.4249
  417MOL0     C57418   6.555   4.256   2.599 -0.7994 -0.2226  0.6379
  417MOL0     C57419   6.558   4.212   2.744  0.1726 -0.6054  0.2338
  417MOL0     C57420   6.486   4.082   2.769  0.1671  0.3578 -0.7412
  417MOL0     C57421   6.562   3.945   2.755  0.4015 -0.0279  0.0430
  417MOL0     C57422   6.497   3.820   2.709 -0.6582  1.1986 -0.2030
  417MOL0     C57423   6.353   3.797   2.769  0.5985 -0.6355  0.0351
  417MOL0     C57424   6.315   3.649   2.753  0.1158 -0.1380 -0.8509
  417MOL0     N57425   6.331   3.605   2.615 -0.6605 -0.5859  0.7310
  417MOL0     C57426   6.251   3.639   2.511 -0.3751  0.3589 -0.3903
  417MOL0     C57427   6.295   3.565   2.404 -0.2699 -0.1686  0.0627
  417MOL0     C57428   6.242   3.542   2.267 -0.4743 -0.0161 -0.3700
  417MOL0     C57429   6.243   3.671   2.179 -0.1336  0.1400 -0.1487
  417MOL0     C57430   6.374   3.734   2.154  0.0502  0.0554  0.4001
  417MOL0     C57431   6.476   3.640   2.113 -0.7423  0.3876 -0.0230
  417MOL0     O57432   6.583   3.721   2.068 -0.5318 -0.0443  0.5600
  417MOL0     C57433   6.702   3.670   2.036  0.4570 -0.2311 -0.5673
  417MOL0     C57434   6.802   3.762   2.010 -0.2995 -0.1237 -0.2388
  417MOL0     C57435   6.929   3.725   1.968  0.5868  0.6101  0.5378
  417MOL0     C57436   7.011   3.837   1.929 -0.3872 -1.2554 -0.4517
  417MOL0     C57437   6.965   3.589   1.958 -0.4129 -0.2193  0.3712
  417MOL0     C57438   7.086   3.537   1.907 -0.7484 -0.9251  0.2255
  417MOL0     O57439   7.192   3.621   1.908  1.0063  0.0220  0.3868
  417MOL0     C57440   7.302   3.581   1.834 -1.0517 -0.4905 -0.1706
  417MOL0     C57441   7.347   3.676   1.742  0.3023  0.0537 -0.0905
  417MOL0     C57442   7.451   3.654   1.652 -0.0077  0.6431 -0.2614
  417MOL0     C57443   7.520   3.525   1.657  1.1188 -0.3632  0.9753
  417MOL0     O57444   7.612   3.495   1.564 -0.0224  0.0854 -0.3434
  417MOL0     C57445   7.696   3.603   1.507 -0.4929  0.0364 -0.7928
  417MOL0     C57446   7.810   3.522   1.443  0.0028 -0.2430 -0.8731
  417MOL0     C57447   7.914   3.613   1.389 -0.1221  0.4183  0.9331
  417MOL0     C57448   8.053   3.553   1.408  0.4814  0.2534 -0.2424
  417MOL0     C57449   8.158   3.660   1.395 -0.1404 -0.7821 -0.1601
  417MOL0     C57450   8.295   3.587   1.385  0.3665 -0.3176 -0.8187
  417MOL0     C57451   8.412   3.693   1.344 -0.0945  0.1625 -0.4456
  417MOL0     C57452   8.549   3.625   1.345 -0.1221  0.4607 -0.2070
  417MOL0    Cl57453   8.682   3.745   1.283  0.0102  0.3341 -0.2533
  417MOL0     C57454   7.471   3.431   1.753  0.0451  0.6771 -0.4534
  417MOL0     C57455   7.366   3.461   1.843 -0.0125  0.1794 -0.2539
  417MOL0     O57456   7.079   3.429   1.851 -0.9225  0.3689 -0.1583
  417MOL0     C57457   6.867   3.497   2.004  0.1548 -0.1528 -0.3139
  417MOL0     C57458   6.728   3.538   2.039 -1.5241  0.7091 -0.6422
  417MOL0     N57459   6.416   3.504   2.433  0.4788 -0.3292  0.1323
  417MOL0     N57460   6.430   3.525   2.559 -0.1953  0.1432 -0.7279
  417MOL0     C57461   6.208   4.532   2.679  0.0574 -0.1093 -0.4044
  417MOL0     C57462   6.108   4.633   2.658  0.3472  0.3677 -0.4763
  417MOL0     C57463   5.742   4.822   2.424  0.3791  0.3759  0.1615
  417MOL0     C57464   5.806   4.897   2.319 -0.2836 -0.0164 -0.0064
  417MOL0     C57465   5.728   4.970   2.234 -0.3405 -0.1299 -0.5851
  417MOL0     C57466   5.589   4.988   2.247  0.8070  0.5900 -0.2022
  417MOL0     O57467   5.531   5.073   2.160  0.5294  0.2582  0.9986
  417MOL0     C57468   5.395   5.114   2.183 -0.7059 -0.2748 -0.3624
  417MOL0     C57469   5.344   5.169   2.043  0.6229  0.3695 -0.4153
  417MOL0     C57470   5.230   5.265   2.075  0.2890 -0.1550  0.3340
  417MOL0     C57471   5.114   5.261   1.969  0.3375 -0.7380  0.2370
  417MOL0     C57472   5.009   5.357   2.014 -0.0162  0.3085  1.0803
  417MOL0     C57473   4.904   5.419   2.032  0.0677  0.4259  0.0393
  417MOL0     C57474   5.536   4.922   2.364 -0.5111 -0.3236  0.0064
  417MOL0     C57475   5.602   4.827   2.436 -0.4990 -0.3496  0.5302
  417MOL0     C57476   5.523   4.755   2.550  0.2045  0.1168 -0.2555
  417MOL0     H57477   6.066   4.573   2.326  0.8980  2.9563  0.0090
  417MOL0     H57478   6.245   4.413   2.364 -2.1991  0.9328 -1.4312
  417MOL0     H57479   6.440   4.314   2.427 -1.7553 -0.2794 -0.6709
  417MOL0     H57480   6.359   4.199   2.536 -3.5026  2.0834  0.5226
  417MOL0     H57481   6.611   4.185   2.538  0.2203  0.1171  1.1519
  417MOL0     H57482   6.605   4.353   2.596 -2.5507  0.8943  3.5204
  417MOL0     H57483   6.662   4.205   2.777  0.2380  0.7837  0.3483
  417MOL0     H57484   6.510   4.291   2.802 -0.0982 -1.0441  0.6217
  417MOL0     H57485   6.468   4.079   2.877 -1.3926  1.3728 -0.9417
  417MOL0     H57486   6.396   4.088   2.708  0.0320 -1.9567 -0.8647
  417MOL0     H57487   6.598   3.922   2.856 -2.0180  1.3530  1.3278
  417MOL0     H57488   6.638   3.968   2.679 -1.6528  0.9385 -1.8244
  417MOL0     H57489   6.491   3.835   2.600 -3.3354 -2.7367 -0.8220
  417MOL0     H57490   6.568   3.738   2.722 -0.2770  1.7077  1.0963
  417MOL0     H57491   6.283   3.850   2.703 -0.2939 -0.7199  0.8915
  417MOL0     H57492   6.345   3.821   2.875 -3.2388 -0.9298 -0.0521
  417MOL0     H57493   6.386   3.588   2.811  2.2170  1.2633 -1.7936
  417MOL0     H57494   6.211   3.629   2.780 -0.2247  2.1327 -0.2960
  417MOL0     H57495   6.165   3.704   2.508 -0.3190  0.4853  0.6702
  417MOL0     H57496   6.141   3.501   2.272 -0.3423 -0.4603 -1.1803
  417MOL0     H57497   6.309   3.468   2.221  0.0807  0.9381 -1.1421
  417MOL0     H57498   6.188   3.661   2.085  2.8049 -0.5985 -1.9180
  417MOL0     H57499   6.185   3.741   2.241  0.2357  1.1142 -0.8703
  417MOL0     H57500   6.353   3.811   2.079 -0.7470 -1.0220 -0.5020
  417MOL0     H57501   6.411   3.765   2.252 -1.2418 -1.7694  1.5238
  417MOL0     H57502   6.512   3.590   2.204  1.3791  2.1349  0.1858
  417MOL0     H57503   6.444   3.569   2.037 -0.6687  0.2544  0.0707
  417MOL0     H57504   6.771   3.867   2.011  1.0435  0.3407 -2.0077
  417MOL0     H57505   7.018   3.835   1.820  0.6278  1.1798 -0.5030
  417MOL0     H57506   7.108   3.835   1.980 -0.0440 -1.1422 -1.0934
  417MOL0     H57507   6.963   3.930   1.959 -0.5246 -1.4759  0.0128
  417MOL0     H57508   7.304   3.775   1.731  1.7831  0.5277 -2.3059
  417MOL0     H57509   7.483   3.731   1.583 -0.9061  1.6014  0.3685
  417MOL0     H57510   7.644   3.665   1.433 -2.6151 -1.8757 -0.9882
  417MOL0     H57511   7.747   3.657   1.588 -2.2713  1.7336 -0.7278
  417MOL0     H57512   7.845   3.455   1.522 -0.5358 -0.4265 -0.7823
  417MOL0     H57513   7.760   3.457   1.371 -0.3446 -0.6123 -0.3058
  417MOL0     H57514   7.908   3.715   1.429  0.9277  0.9197 -0.1158
  417MOL0     H57515   7.891   3.635   1.284  2.6556  1.1085  0.3887
  417MOL0     H57516   8.072   3.481   1.328  1.4624  2.2125 -1.8662
  417MOL0     H57517   8.058   3.510   1.509 -3.1123  2.5345  1.1018
  417MOL0     H57518   8.133   3.713   1.303 -0.0111 -3.5730 -1.9295
  417MOL0     H57519   8.149   3.731   1.478 -1.4125  1.0859 -1.8086
  417MOL0     H57520   8.296   3.494   1.326  2.0136 -1.1865  0.4996
  417MOL0     H57521   8.314   3.559   1.488 -3.0666  3.3885  1.0988
  417MOL0     H57522   8.412   3.777   1.413  1.6490 -0.3765  0.2561
  417MOL0     H57523   8.390   3.718   1.240  1.8335 -0.8260 -1.1437
  417MOL0     H57524   8.553   3.535   1.283  2.4847 -1.1824  2.1150
  417MOL0     H57525   8.577   3.598   1.447  0.5480  0.5987 -0.3524
  417MOL0     H57526   7.523   3.336   1.758 -1.4354 -0.1564 -0.3322
  417MOL0     H57527   7.351   3.381   1.915  0.0299  0.2566 -0.1611
  417MOL0     H57528   6.891   3.391   2.005  0.8870 -0.0422  2.5697
  417MOL0     H57529   6.660   3.461   2.074 -0.6557  1.2324  2.5595
  417MOL0     H57530   6.267   4.523   2.769  1.4866 -1.7248 -1.4211
  417MOL0     H57531   6.076   4.701   2.736 -0.7861 -1.0174  0.3178
  417MOL0     H57532   5.908   4.886   2.283 -1.4100 -0.5438 -3.4197
  417MOL0     H57533   5.769   5.021   2.147  0.7708  0.4796  0.2759
  417MOL0     H57534   5.330   5.031   2.213  2.6202 -3.1794 -0.4449
  417MOL0     H57535   5.400   5.182   2.268  0.1853 -2.6749  1.6283
  417MOL0     H57536   5.312   5.088   1.976  0.3368 -0.4113  0.6477
  417MOL0     H57537   5.429   5.223   2.001  1.3199  0.5878  1.1960
  417MOL0     H57538   5.187   5.236   2.171  0.7772  0.2427  0.6779
  417MOL0     H57539   5.272   5.365   2.089  2.0466 -1.0947  2.2001
  417MOL0     H57540   5.085   5.156   1.973  1.5851 -1.1784 -1.2617
  417MOL0     H57541   5.149   5.287   1.868 -0.6467 -0.7882 -0.1287
  417MOL0     H57542   4.814   5.473   2.053  1.1866  2.9312 -1.1623
  417MOL0     H57543   5.430   4.927   2.386 -0.4761 -0.2988  0.1749
  417MOL0     H57544   5.527   4.810   2.644 -1.5733  1.4469 -0.9135
  417MOL0     H57545   5.416   4.744   2.529  0.2873  1.3555 -1.4573
  417MOL0     H57546   5.550   4.649   2.550 -2.3902 -0.6326 -1.1587
  418MOL0     O57547   4.214   1.663   5.607 -0.4336 -0.6026  0.8755
  418MOL0     C57548   4.302   1.681   5.524 -0.2838  0.2964  0.2311
  418MOL0     O57549   4.414   1.753   5.552  0.4622 -0.0672  0.3825
  418MOL0     C57550   4.428   1.812   5.673  0.5372 -0.0898  0.2183
  418MOL0     C57551   4.479   1.751   5.785  0.1743  0.5710  0.4581
  418MOL0     C57552   4.489   1.820   5.905 -0.2340 -0.6624  0.1792
  418MOL0     C57553   4.453   1.958   5.923 -0.1823  0.3343  0.4037
  418MOL0     O57554   4.459   2.030   6.040 -0.3193  0.1375 -0.5288
  418MOL0     C57555   4.554   1.991   6.143 -0.1251  0.2794  0.8762
  418MOL0     C57556   4.685   2.072   6.136  0.2841 -0.5211 -0.0060
  418MOL0     C57557   4.776   2.033   6.019  0.2810  0.3017  0.7190
  418MOL0     C57558   4.888   2.136   6.013 -0.3730 -0.2126 -0.2833
  418MOL0     C57559   4.971   2.108   5.893 -0.0089  0.6422 -0.2352
  418MOL0     C57560   5.113   2.173   5.900  0.4123  0.2203 -0.0463
  418MOL0     C57561   5.185   2.159   5.771  0.3494  0.1611 -0.6428
  418MOL0     C57562   5.332   2.186   5.791 -0.4378  0.1318  0.4735
  418MOL0     N57563   5.415   2.208   5.671 -0.0844 -0.4838 -0.4389
  418MOL0     C57564   5.393   2.315   5.586  0.7140  0.0771 -0.3189
  418MOL0     C57565   5.467   2.289   5.482 -0.7085 -1.2324 -0.0416
  418MOL0     C57566   5.500   2.389   5.374  0.0369  0.3682  0.9130
  418MOL0     C57567   5.364   2.453   5.322 -0.1975  0.0394 -0.4340
  418MOL0     C57568   5.389   2.577   5.229  0.1495 -0.3052  0.5736
  418MOL0     C57569   5.415   2.524   5.092  0.2107  0.4864  0.1045
  418MOL0     O57570   5.290   2.488   5.036 -0.2329 -0.1960 -0.9602
  418MOL0     C57571   5.291   2.406   4.930  0.1569  1.1434  0.4017
  418MOL0     C57572   5.397   2.377   4.843 -0.1126  0.3198  0.2700
  418MOL0     C57573   5.392   2.284   4.735  0.3289  0.0104 -0.9763
  418MOL0     C57574   5.515   2.251   4.662  0.0400 -0.2693  0.1282
  418MOL0     C57575   5.276   2.213   4.717  1.1260 -0.4778 -0.2501
  418MOL0     C57576   5.268   2.100   4.621  0.1119  0.3273  0.6907
  418MOL0     O57577   5.328   2.101   4.499 -0.4973  0.7087  0.2532
  418MOL0     C57578   5.351   1.983   4.434  0.7301 -1.0921  0.0408
  418MOL0     C57579   5.242   1.927   4.363  0.2694  0.4951  0.4284
  418MOL0     C57580   5.261   1.796   4.307  0.1075  0.5217 -0.3466
  418MOL0     C57581   5.378   1.726   4.316 -0.5386  0.0616 -0.1036
  418MOL0     O57582   5.393   1.609   4.250  0.7186  0.5632 -0.0882
  418MOL0     C57583   5.511   1.534   4.260 -0.3764  0.3310  0.4800
  418MOL0     C57584   5.488   1.408   4.178  0.2675 -0.6634 -0.5208
  418MOL0     C57585   5.612   1.323   4.193 -0.8239 -0.6596 -1.2900
  418MOL0     C57586   5.638   1.255   4.065 -0.1351 -0.9325 -0.7104
  418MOL0     C57587   5.776   1.193   4.071  0.3892 -0.3513 -0.0516
  418MOL0     C57588   5.791   1.124   3.943 -0.2911 -0.1745  0.3447
  418MOL0     C57589   5.936   1.100   3.905  0.6798  0.6550  0.2126
  418MOL0     C57590   5.949   1.045   3.757 -0.0240  0.5479 -0.6956
  418MOL0    Cl57591   6.117   1.025   3.722  0.4965 -0.2564 -0.1977
  418MOL0     C57592   5.485   1.796   4.376  0.2980  0.4068  0.7121
  418MOL0     C57593   5.469   1.917   4.442 -0.5147 -0.9690  0.1824
  418MOL0     O57594   5.209   2.004   4.673 -0.4830 -0.7539 -0.0510
  418MOL0     C57595   5.169   2.230   4.802  0.2597 -0.1385 -1.1479
  418MOL0     C57596   5.179   2.319   4.909 -0.5333  0.4345 -0.2659
  418MOL0     N57597   5.529   2.174   5.495  0.6651 -0.1384 -0.0952
  418MOL0     N57598   5.501   2.117   5.609  0.3345 -0.0120  0.7326
  418MOL0     C57599   4.402   2.018   5.805  0.0438  0.1830  0.4399
  418MOL0     C57600   4.386   1.946   5.690  0.6347  0.7858  0.6801
  418MOL0     C57601   4.304   1.609   5.390 -0.4432 -0.7145 -0.2432
  418MOL0     C57602   4.431   1.616   5.324  0.7976  1.0157 -0.3450
  418MOL0     C57603   4.452   1.555   5.198 -0.3066 -0.4972 -1.1365
  418MOL0     C57604   4.351   1.483   5.138 -0.2929 -0.3710  0.1478
  418MOL0     O57605   4.388   1.431   5.013 -0.5854 -0.2710 -0.4122
  418MOL0     C57606   4.290   1.347   4.945 -0.1841 -0.4857 -0.1893
  418MOL0     C57607   4.185   1.428   4.867 -0.2197  0.6814 -0.4327
  418MOL0     C57608   4.127   1.368   4.742 -0.5353  0.1110 -0.0907
  418MOL0     C57609   4.063   1.233   4.762 -0.1632  0.4585  0.2683
  418MOL0     C57610   3.948   1.215   4.859 -0.3705  0.0439 -0.0795
  418MOL0     C57611   3.856   1.196   4.938  0.0735 -1.3662  0.7803
  418MOL0     C57612   4.228   1.480   5.200 -0.0501 -0.3595  0.2718
  418MOL0     C57613   4.201   1.539   5.325  0.8883  0.0236 -0.1390
  418MOL0     C57614   4.056   1.548   5.374  1.0569 -0.4134  0.1072
  418MOL0     H57615   4.500   1.645   5.778  0.5698  0.5349  1.8011
  418MOL0     H57616   4.523   1.763   5.991 -0.0024 -1.4208 -0.4091
  418MOL0     H57617   4.571   1.883   6.149 -4.4674 -0.5266  5.5117
  418MOL0     H57618   4.508   2.005   6.241 -4.5995 -0.4121 -0.8859
  418MOL0     H57619   4.660   2.178   6.143  1.3868 -0.3497  2.0162
  418MOL0     H57620   4.745   2.041   6.222  0.8987  0.3364 -0.1184
  418MOL0     H57621   4.813   1.931   6.032 -1.7159 -0.7133 -0.8668
  418MOL0     H57622   4.711   2.036   5.931 -1.1697  3.8882  1.6983
  418MOL0     H57623   4.847   2.236   6.003 -0.1449 -0.0241  0.5936
  418MOL0     H57624   4.938   2.126   6.110 -3.6521  1.1947  1.7037
  418MOL0     H57625   4.912   2.136   5.805  0.7910  1.1587 -0.6184
  418MOL0     H57626   4.993   2.001   5.887  0.8778  0.8518 -1.1059
  418MOL0     H57627   5.095   2.278   5.921  1.1054  0.1683  0.8864
  418MOL0     H57628   5.167   2.133   5.986  2.1354  2.6428  0.0871
  418MOL0     H57629   5.148   2.232   5.699  1.7387  4.2073  2.3915
  418MOL0     H57630   5.176   2.055   5.737  1.3797  0.0247 -0.5321
  418MOL0     H57631   5.344   2.275   5.853 -0.9514  0.7060 -0.2282
  418MOL0     H57632   5.370   2.098   5.844  0.8246  1.6506  2.2089
  418MOL0     H57633   5.333   2.402   5.613 -0.4731 -0.1924 -1.9462
  418MOL0     H57634   5.538   2.324   5.294 -0.3025 -0.4176  1.3786
  418MOL0     H57635   5.588   2.452   5.389  2.6536 -2.4922 -0.9188
  418MOL0     H57636   5.302   2.376   5.276 -0.5096 -0.6088  1.0033
  418MOL0     H57637   5.304   2.496   5.402  0.2325  1.3050 -0.7823
  418MOL0     H57638   5.302   2.644   5.231  1.1664  1.3349  5.3829
  418MOL0     H57639   5.473   2.632   5.274 -0.1448 -2.0732  3.5398
  418MOL0     H57640   5.470   2.600   5.036  1.3126 -0.9638 -0.8610
  418MOL0     H57641   5.480   2.435   5.091 -0.9247 -0.4049  1.7807
  418MOL0     H57642   5.483   2.443   4.850 -0.3538  0.5998  0.6154
  418MOL0     H57643   5.499   2.265   4.554 -0.7807 -3.1456 -0.2002
  418MOL0     H57644   5.542   2.147   4.683 -1.3563 -0.0483  3.6317
  418MOL0     H57645   5.603   2.309   4.693 -0.6071  2.2657 -2.2745
  418MOL0     H57646   5.149   1.978   4.340 -0.5341 -2.3271 -3.7367
  418MOL0     H57647   5.181   1.754   4.246  0.6338 -1.0503  0.0062
  418MOL0     H57648   5.591   1.595   4.217  0.8629 -0.2570  1.8846
  418MOL0     H57649   5.534   1.518   4.366 -2.1697 -0.1626  0.8299
  418MOL0     H57650   5.407   1.348   4.221 -0.4235  0.2261 -0.5491
  418MOL0     H57651   5.477   1.429   4.071  2.4777 -1.5983 -0.9801
  418MOL0     H57652   5.597   1.248   4.271  0.4457 -0.6290 -0.9911
  418MOL0     H57653   5.699   1.386   4.212 -1.6031  1.2582 -3.4512
  418MOL0     H57654   5.619   1.311   3.973 -0.4346 -0.7669 -0.5540
  418MOL0     H57655   5.568   1.172   4.053 -1.0544 -0.8474  2.9056
  418MOL0     H57656   5.854   1.268   4.087  1.4237 -1.6987  1.5523
  418MOL0     H57657   5.781   1.116   4.148 -0.5867  0.7724  1.1888
  418MOL0     H57658   5.754   1.186   3.860  0.3333  0.8724  0.8237
  418MOL0     H57659   5.732   1.033   3.947  1.0603 -1.0662  0.8272
  418MOL0     H57660   5.978   1.039   3.986  2.8954  0.9338 -0.6729
  418MOL0     H57661   5.993   1.193   3.905  1.5943  0.1287  1.3103
  418MOL0     H57662   5.902   1.112   3.685  1.0768 -1.1142 -3.1120
  418MOL0     H57663   5.894   0.950   3.750 -0.4495  0.7497 -0.1909
  418MOL0     H57664   5.586   1.758   4.370  0.8768  2.1419 -2.1050
  418MOL0     H57665   5.543   1.975   4.497 -0.6038  0.0128 -0.7043
  418MOL0     H57666   5.084   2.164   4.809  0.5273 -0.6405 -2.5064
  418MOL0     H57667   5.099   2.324   4.982  1.3464 -2.5200  2.2266
  418MOL0     H57668   4.376   2.123   5.819 -1.4009 -0.0332 -0.3862
  418MOL0     H57669   4.352   1.995   5.599 -0.1703 -2.9297 -1.1860
  418MOL0     H57670   4.520   1.651   5.375  1.9319 -4.4001  2.0563
  418MOL0     H57671   4.554   1.546   5.163 -0.0265  0.3023 -0.5717
  418MOL0     H57672   4.342   1.288   4.868  0.4541 -0.6885  0.3818
  418MOL0     H57673   4.245   1.271   5.010  0.0729 -2.5742 -2.2908
  418MOL0     H57674   4.216   1.529   4.837 -1.1017  0.9598 -0.4493
  418MOL0     H57675   4.105   1.448   4.939 -0.4170  2.9397 -1.1867
  418MOL0     H57676   4.038   1.428   4.720  0.2950  1.3687 -0.0966
  418MOL0     H57677   4.191   1.369   4.653 -0.3480  0.7326  0.0492
  418MOL0     H57678   4.135   1.156   4.793  1.5554  0.9339 -2.2741
  418MOL0     H57679   4.033   1.206   4.661  0.8360  0.7701 -0.1235
  418MOL0     H57680   3.773   1.181   5.004 -0.7688 -3.6478 -0.6875
  418MOL0     H57681   4.140   1.432   5.159 -1.2510  0.8193  1.3968
  418MOL0     H57682   4.015   1.645   5.403  0.7112 -1.6437  4.4964
  418MOL0     H57683   3.988   1.529   5.290 -0.9318 -0.5187  1.6586
  418MOL0     H57684   4.037   1.478   5.456 -1.8925  0.0635 -0.0643
  419MOL0     O57685  10.423  10.051   6.884  0.0386  0.0950 -0.1390
  419MOL0     C57686  10.356  10.155   6.876 -0.4058 -0.2544  0.3026
  419MOL0     O57687  10.403  10.288   6.865 -0.1931  0.0409  0.5052
  419MOL0     C57688  10.535  10.330   6.872 -1.1957 -1.1119  0.4119
  419MOL0     C57689  10.650  10.251   6.855  0.0309  0.5773 -0.5176
  419MOL0     C57690  10.770  10.306   6.900  0.5073 -0.4603 -0.0439
  419MOL0     C57691  10.787  10.440   6.950 -0.2558  0.0937  0.0566
  419MOL0     O57692  10.912  10.463   7.001  0.3857  0.2460 -0.8643
  419MOL0     C57693  10.916  10.570   7.097 -0.5908  0.0442 -0.7414
  419MOL0     C57694  11.039  10.578   7.184 -0.0231 -0.0945  0.1841
  419MOL0     C57695  11.160  10.567   7.102 -0.8342 -0.2254 -0.1047
  419MOL0     C57696  11.288  10.606   7.183 -0.4044 -0.2698 -1.0865
  419MOL0     C57697  11.333  10.489   7.271  0.3425  0.2120 -0.1384
  419MOL0     C57698  11.438  10.537   7.358  0.0623  0.6164 -1.3389
  419MOL0     C57699  11.475  10.449   7.479  0.0033  0.1118  0.1650
  419MOL0     C57700  11.540  10.321   7.431 -0.6096 -0.4374 -1.1777
  419MOL0     N57701  11.663  10.341   7.359  0.0914 -0.2286 -0.4804
  419MOL0     C57702  11.786  10.355   7.413 -0.4309  0.2087  0.0577
  419MOL0     C57703  11.872  10.382   7.314  0.0262 -0.1026 -0.5154
  419MOL0     C57704  12.015  10.421   7.321  0.1570 -0.5568 -0.4652
  419MOL0     C57705  12.058  10.498   7.196  0.0577  0.7457 -0.2319
  419MOL0     C57706  12.190  10.573   7.215  0.3272 -0.0109  0.2286
  419MOL0     C57707  12.307  10.497   7.278 -0.0727  0.0026  0.5981
  419MOL0     O57708  12.400  10.609   7.278  0.0485 -0.0486  0.6142
  419MOL0     C57709  12.535  10.587   7.276 -0.2052  0.8775 -0.5582
  419MOL0     C57710  12.597  10.463   7.305 -0.2113 -0.4723  0.4107
  419MOL0     C57711  12.736  10.444   7.296  0.2422 -0.8135  0.4910
  419MOL0     C57712  12.780  10.300   7.305 -0.3861  0.5972 -0.2313
  419MOL0     C57713  12.819  10.563   7.274  0.0254  0.9939  0.4091
  419MOL0     C57714  12.963  10.561   7.297 -0.0501  0.6784  0.3483
  419MOL0     O57715  13.033  10.661   7.236  0.3195 -0.0418  0.2495
  419MOL0     C57716  13.169  10.647   7.249 -0.2059  0.1537 -0.8592
  419MOL0     C57717  13.250  10.741   7.315  1.0169 -0.1247  1.1876
  419MOL0     C57718  13.388  10.731   7.316 -0.3884  1.3314  0.0084
  419MOL0     C57719  13.448  10.608   7.278 -0.4726  0.3852 -0.5206
  419MOL0     O57720  13.586  10.584   7.282 -0.2162  0.1088 -0.3236
  419MOL0     C57721  13.652  10.648   7.387  0.5652 -0.2861  0.1043
  419MOL0     C57722  13.797  10.602   7.374  0.2894  0.0764 -0.6952
  419MOL0     C57723  13.893  10.687   7.465  0.4342 -0.4680  0.0623
  419MOL0     C57724  14.050  10.684   7.445  0.1494 -0.1324 -0.0865
  419MOL0     C57725  14.109  10.548   7.497 -0.5297 -0.3595 -0.0633
  419MOL0     C57726  14.257  10.558   7.532  0.0279  0.6360  1.0110
  419MOL0     C57727  14.318  10.435   7.587  0.9544  0.7486 -0.2207
  419MOL0     C57728  14.474  10.443   7.600 -0.2206  0.8209 -0.3107
  419MOL0    Cl57729  14.529  10.561   7.708 -0.1507  0.0340 -0.0568
  419MOL0     C57730  13.373  10.508   7.214  0.4821  0.5220 -0.4888
  419MOL0     C57731  13.235  10.537   7.199 -0.3922 -0.7388 -0.2035
  419MOL0     O57732  13.009  10.466   7.358 -0.3639 -0.2378  0.9780
  419MOL0     C57733  12.753  10.684   7.244  0.1131 -0.0845  0.0638
  419MOL0     C57734  12.612  10.696   7.235 -0.7625  0.7021 -0.6097
  419MOL0     N57735  11.804  10.366   7.200 -0.1449  0.4329 -0.1549
  419MOL0     N57736  11.685  10.343   7.230  0.1717  0.0918 -0.1095
  419MOL0     C57737  10.677  10.523   6.939 -1.2294  0.1684  0.4296
  419MOL0     C57738  10.546  10.462   6.913  0.3036 -0.4212 -0.8904
  419MOL0     C57739  10.208  10.138   6.866 -0.0773 -0.0106  0.2020
  419MOL0     C57740  10.131  10.240   6.809 -0.6342 -0.2767 -0.9904
  419MOL0     C57741   9.992  10.239   6.802 -0.1186 -0.1419 -0.0777
  419MOL0     C57742   9.918  10.129   6.847 -0.2747 -0.1344 -0.4036
  419MOL0     O57743   9.780  10.112   6.846  0.4846  0.0541  0.0793
  419MOL0     C57744   9.702  10.234   6.850  0.8000  0.0279  0.4679
  419MOL0     C57745   9.573  10.200   6.923 -0.4944  0.3024  0.6322
  419MOL0     C57746   9.477  10.097   6.854 -0.3253 -0.4372 -0.1179
  419MOL0     C57747   9.410  10.024   6.965 -0.3453 -0.3190 -0.0617
  419MOL0     C57748   9.317   9.939   6.883 -0.3916  0.3975  0.0142
  419MOL0     C57749   9.251   9.868   6.806 -0.1509  0.4341 -0.7516
  419MOL0     C57750   9.991  10.023   6.909  0.5047 -0.5523  0.8181
  419MOL0     C57751  10.132  10.018   6.916 -0.0608  0.0145 -0.7084
  419MOL0     C57752  10.200   9.896   6.973  0.0652  0.4492 -0.3985
  419MOL0     H57753  10.647  10.145   6.833  1.8090  0.3163  0.2860
  419MOL0     H57754  10.853  10.237   6.903 -0.6020 -1.8335  0.2772
  419MOL0     H57755  10.834  10.571   7.170  0.0083 -0.0596 -0.0636
  419MOL0     H57756  10.926  10.660   7.035  0.8297  0.6427  0.3161
  419MOL0     H57757  11.041  10.677   7.231 -0.5855  0.5769 -1.1507
  419MOL0     H57758  11.037  10.505   7.266 -2.9450  2.4540  2.6228
  419MOL0     H57759  11.169  10.467   7.060  0.4991  0.1862 -0.8641
  419MOL0     H57760  11.157  10.640   7.021 -1.3696 -0.9353 -0.7347
  419MOL0     H57761  11.362  10.631   7.106 -3.4260  1.6370 -3.6377
  419MOL0     H57762  11.280  10.699   7.240 -0.8127 -1.1890  0.4009
  419MOL0     H57763  11.362  10.409   7.201  0.6186  0.8055 -0.7072
  419MOL0     H57764  11.251  10.456   7.335 -2.8039  3.9834 -1.8066
  419MOL0     H57765  11.524  10.560   7.295  3.2333 -1.1840  1.9570
  419MOL0     H57766  11.399  10.625   7.411 -0.3493 -1.1096  1.4294
  419MOL0     H57767  11.382  10.426   7.532 -0.6468  1.8876 -0.1174
  419MOL0     H57768  11.547  10.496   7.547  0.1100 -1.9230  1.5493
  419MOL0     H57769  11.566  10.254   7.514  0.4990  2.3266  0.8222
  419MOL0     H57770  11.464  10.265   7.374  0.4587 -2.6346 -0.5629
  419MOL0     H57771  11.814  10.365   7.517 -0.6852  0.9193  0.0618
  419MOL0     H57772  12.076  10.330   7.327  1.6109  0.3992 -0.3374
  419MOL0     H57773  12.029  10.486   7.408  0.1122 -2.2161  0.8324
  419MOL0     H57774  12.083  10.424   7.119  1.4484  0.7155  0.2253
  419MOL0     H57775  11.978  10.565   7.164 -0.7382  0.3617  0.8666
  419MOL0     H57776  12.209  10.623   7.119 -0.2522  0.8244  0.5362
  419MOL0     H57777  12.175  10.656   7.285 -0.5286 -0.5625  0.7102
  419MOL0     H57778  12.288  10.455   7.378 -1.9024 -1.1290 -0.1795
  419MOL0     H57779  12.339  10.413   7.216  0.1950 -1.4910  2.6256
  419MOL0     H57780  12.529  10.379   7.316 -1.8754  0.7962  0.3035
  419MOL0     H57781  12.803  10.274   7.409 -1.9341  1.4694  0.3624
  419MOL0     H57782  12.854  10.272   7.230  0.6514  1.7313  0.3476
  419MOL0     H57783  12.699  10.235   7.269 -0.9327  1.3258 -0.3339
  419MOL0     H57784  13.201  10.835   7.339 -0.9788  0.5752 -4.2513
  419MOL0     H57785  13.445  10.814   7.355  0.3144  0.5114  0.7871
  419MOL0     H57786  13.652  10.757   7.379  0.4466 -0.4034 -1.7820
  419MOL0     H57787  13.619  10.620   7.488  1.6999 -0.6418  0.3961
  419MOL0     H57788  13.807  10.497   7.402 -1.0140  0.0240 -0.3985
  419MOL0     H57789  13.827  10.616   7.270 -0.1529 -2.2433 -1.1913
  419MOL0     H57790  13.861  10.671   7.568  0.2428  2.8839  0.6239
  419MOL0     H57791  13.881  10.791   7.433 -0.7267  0.3396  2.8883
  419MOL0     H57792  14.093  10.773   7.492  0.4874 -0.8593  0.9985
  419MOL0     H57793  14.080  10.695   7.340  2.9367 -1.6613  0.4400
  419MOL0     H57794  14.056  10.522   7.590 -1.8573  0.6299 -0.5110
  419MOL0     H57795  14.097  10.470   7.421 -2.5523 -1.1359  0.9574
  419MOL0     H57796  14.270  10.646   7.595  2.9775  0.8782  0.1878
  419MOL0     H57797  14.303  10.581   7.435 -2.6536 -1.7891 -1.0332
  419MOL0     H57798  14.301  10.344   7.529  1.3027 -0.6625  1.7616
  419MOL0     H57799  14.276  10.406   7.684 -1.1009 -2.1434 -1.8359
  419MOL0     H57800  14.520  10.464   7.503 -1.9241  0.9370 -1.1447
  419MOL0     H57801  14.506  10.346   7.637  0.2033  0.3893 -1.7626
  419MOL0     H57802  13.406  10.414   7.171 -0.0538 -0.1913  0.6071
  419MOL0     H57803  13.174  10.465   7.146 -0.8999  0.3640 -1.1567
  419MOL0     H57804  12.811  10.774   7.225  1.9077 -1.3849 -0.9490
  419MOL0     H57805  12.571  10.793   7.206  0.2007  1.0144 -0.9633
  419MOL0     H57806  10.676  10.625   6.977  0.3526  0.1145  0.6984
  419MOL0     H57807  10.462  10.516   6.955  0.8506 -0.0557 -0.2482
  419MOL0     H57808  10.189  10.321   6.765 -0.4111 -0.5209 -1.1494
  419MOL0     H57809   9.936  10.323   6.761  0.7846 -0.1575 -1.4027
  419MOL0     H57810   9.748  10.321   6.898 -0.9042  0.1191  2.0721
  419MOL0     H57811   9.665  10.272   6.754 -0.0614  1.1966  1.2410
  419MOL0     H57812   9.532  10.300   6.942  2.4983  1.6298  0.7374
  419MOL0     H57813   9.608  10.157   7.017 -2.2366 -2.2800  0.2042
  419MOL0     H57814   9.407  10.154   6.792  0.1825 -0.6538 -0.9061
  419MOL0     H57815   9.523  10.027   6.783  0.9465  2.0325 -1.8920
  419MOL0     H57816   9.363  10.090   7.038 -0.8833 -0.8087  0.0382
  419MOL0     H57817   9.479   9.958   7.019 -1.3167 -1.7793 -0.5354
  419MOL0     H57818   9.181   9.810   6.750 -1.8863 -0.4590  2.1376
  419MOL0     H57819   9.930   9.937   6.934  0.1550  0.2385  2.8696
  419MOL0     H57820  10.253   9.833   6.900  1.9668 -1.4000  2.3656
  419MOL0     H57821  10.264   9.932   7.054  0.1630  1.4957 -0.9286
  419MOL0     H57822  10.125   9.837   7.027  0.8037 -0.6184 -0.4947
  420MOL0     O57823   6.845   8.941   0.869  0.2960 -0.4026 -0.0322
  420MOL0     C57824   6.919   9.000   0.798 -0.0657  0.3892  0.0421
  420MOL0     O57825   6.914   9.130   0.786  0.4540  0.0012 -0.2474
  420MOL0     C57826   6.814   9.195   0.862 -0.3628 -0.8173 -0.3080
  420MOL0     C57827   6.816   9.220   0.996  0.8812  0.1127 -0.1392
  420MOL0     C57828   6.716   9.291   1.061 -0.2934  0.3267 -0.4733
  420MOL0     C57829   6.604   9.341   0.993  0.1576  0.0422  0.7784
  420MOL0     O57830   6.504   9.391   1.074 -0.2594 -0.1266  0.2288
  420MOL0     C57831   6.372   9.411   1.021  0.3312 -0.1577 -0.6163
  420MOL0     C57832   6.278   9.451   1.132 -0.0744  0.3800  0.9126
  420MOL0     C57833   6.145   9.509   1.083  0.3566 -0.2158 -0.5486
  420MOL0     C57834   6.077   9.605   1.188 -0.7119  0.9191  0.6813
  420MOL0     C57835   6.059   9.557   1.333 -0.2492 -0.7203 -0.0377
  420MOL0     C57836   6.027   9.409   1.356 -0.1011 -0.3508  0.5077
  420MOL0     C57837   6.087   9.366   1.494  0.0188  1.0336  0.1794
  420MOL0     C57838   5.990   9.388   1.614  0.2554 -0.1110 -0.0474
  420MOL0     N57839   5.999   9.529   1.657 -0.0861  0.2637  0.3766
  420MOL0     C57840   6.107   9.580   1.723 -0.2547  0.4994 -0.1675
  420MOL0     C57841   6.073   9.708   1.750 -0.1094  1.2905 -0.0370
  420MOL0     C57842   6.163   9.812   1.809 -0.6242  1.4554 -0.0904
  420MOL0     C57843   6.175   9.779   1.969  0.0188 -0.4956  0.0824
  420MOL0     C57844   6.225   9.891   2.048 -0.1042 -0.2928  0.3481
  420MOL0     C57845   6.233   9.846   2.186 -0.7666  0.8755  0.4407
  420MOL0     O57846   6.292   9.935   2.288 -0.1362 -0.1997  0.0550
  420MOL0     C57847   6.431   9.915   2.299 -0.3644 -0.8973  0.0105
  420MOL0     C57848   6.479  10.022   2.376 -0.0691  0.3116  0.5781
  420MOL0     C57849   6.617  10.020   2.419  0.3159 -0.2127 -0.1924
  420MOL0     C57850   6.645  10.124   2.520 -0.0924 -0.2212  0.4866
  420MOL0     C57851   6.702   9.909   2.381 -0.5487 -0.0692 -0.0089
  420MOL0     C57852   6.840   9.892   2.434 -0.2935 -0.5658  1.0142
  420MOL0     O57853   6.895   9.766   2.425 -0.0604 -0.9562 -0.1068
  420MOL0     C57854   7.027   9.758   2.449 -0.5972  0.4962 -0.0759
  420MOL0     C57855   7.077   9.775   2.578  0.1238  0.1282 -0.6342
  420MOL0     C57856   7.207   9.746   2.598 -0.6077 -0.3787  0.0685
  420MOL0     C57857   7.288   9.699   2.500  0.0940 -0.6718  0.9139
  420MOL0     O57858   7.408   9.645   2.516 -1.2230  0.4045  0.4836
  420MOL0     C57859   7.475   9.676   2.640  0.7046 -0.2724  0.1882
  420MOL0     C57860   7.619   9.631   2.662 -0.7835 -0.4328  0.4561
  420MOL0     C57861   7.712   9.674   2.544  0.0011  0.6751 -0.1139
  420MOL0     C57862   7.849   9.627   2.562 -0.0750  0.3710  0.4268
  420MOL0     C57863   7.948   9.665   2.454 -0.2514 -0.2016 -0.3141
  420MOL0     C57864   8.079   9.602   2.496 -0.0572  0.4370  0.0924
  420MOL0     C57865   8.198   9.629   2.403  0.6612  0.5164  0.5522
  420MOL0     C57866   8.308   9.528   2.421  0.1883  0.5460 -0.4163
  420MOL0    Cl57867   8.279   9.378   2.316  0.2084  0.2865 -0.0137
  420MOL0     C57868   7.238   9.693   2.369  0.4713 -0.2361  0.9536
  420MOL0     C57869   7.111   9.718   2.343  0.4068  0.1102  0.2291
  420MOL0     O57870   6.889   9.992   2.486  0.2905  0.4227  0.4994
  420MOL0     C57871   6.647   9.815   2.294  0.1200  0.2090 -0.2094
  420MOL0     C57872   6.517   9.823   2.251 -0.7823  0.3150 -0.2541
  420MOL0     N57873   5.947   9.734   1.700 -0.7827 -0.7053 -0.9507
  420MOL0     N57874   5.904   9.631   1.635  0.0482 -0.2280 -0.0821
  420MOL0     C57875   6.601   9.316   0.854 -0.3121  0.6874  0.0845
  420MOL0     C57876   6.704   9.249   0.790  0.2684  1.2706  0.4240
  420MOL0     C57877   7.008   8.927   0.706  0.3849 -0.4139 -0.0933
  420MOL0     C57878   7.089   9.005   0.612  0.5872 -0.5799 -0.3409
  420MOL0     C57879   7.155   8.956   0.505 -1.7688 -0.0824 -0.2439
  420MOL0     C57880   7.159   8.819   0.485 -0.8514 -0.2311 -0.3176
  420MOL0     O57881   7.235   8.760   0.388 -0.5369  0.4762 -0.2394
  420MOL0     C57882   7.262   8.837   0.272 -0.5167 -0.2737  0.1836
  420MOL0     C57883   7.260   8.738   0.154 -0.2102 -0.8632  0.3075
  420MOL0     C57884   7.351   8.615   0.159  0.2838 -0.4540 -1.4219
  420MOL0     C57885   7.504   8.637   0.159 -0.2858  0.5658 -1.0553
  420MOL0     C57886   7.557   8.691   0.031  0.3221 -0.0236  0.0626
  420MOL0     C57887   7.600   8.736  -0.075 -0.0570  0.7012 -0.0013
  420MOL0     C57888   7.086   8.738   0.573 -0.0016  0.5437 -0.1077
  420MOL0     C57889   7.011   8.788   0.683  0.5527 -0.2672 -0.4097
  420MOL0     C57890   6.937   8.681   0.776 -0.8322  0.0925  0.0359
  420MOL0     H57891   6.900   9.178   1.050 -1.7416 -3.3944  1.5919
  420MOL0     H57892   6.731   9.312   1.167  2.4480  0.7654 -0.8740
  420MOL0     H57893   6.334   9.313   0.992 -2.1761  0.2540  0.9555
  420MOL0     H57894   6.370   9.483   0.938 -0.0661 -0.1680 -0.6194
  420MOL0     H57895   6.271   9.363   1.196  1.8803 -0.9735 -0.5995
  420MOL0     H57896   6.340   9.527   1.181  3.1605 -1.2866 -0.2498
  420MOL0     H57897   6.155   9.557   0.986 -0.8695 -1.4958 -1.3312
  420MOL0     H57898   6.078   9.425   1.064  1.7619 -1.3808 -0.4988
  420MOL0     H57899   6.131   9.700   1.201  0.4095  0.6898 -1.7724
  420MOL0     H57900   5.982   9.643   1.150 -0.2858  2.3380  0.9594
  420MOL0     H57901   5.984   9.616   1.387  0.4337 -1.3017  1.5825
  420MOL0     H57902   6.159   9.574   1.374  0.7229  0.3504 -2.6226
  420MOL0     H57903   5.918   9.404   1.361 -0.0952  0.4838  3.4644
  420MOL0     H57904   6.069   9.347   1.277  0.0962  0.5123 -0.0724
  420MOL0     H57905   6.183   9.410   1.524 -0.2389  0.2845  2.2493
  420MOL0     H57906   6.100   9.258   1.483  0.7130  1.1852 -0.6597
  420MOL0     H57907   5.885   9.374   1.589  0.3499  0.6183 -0.9052
  420MOL0     H57908   6.017   9.321   1.697 -0.5543  0.6119  0.8267
  420MOL0     H57909   6.202   9.532   1.744 -0.3799  0.0666 -0.5715
  420MOL0     H57910   6.137   9.917   1.797  2.2125  2.2783  0.1785
  420MOL0     H57911   6.263   9.798   1.767  0.0878 -1.5928  2.2342
  420MOL0     H57912   6.071   9.769   2.003 -0.1240  0.9427  0.1080
  420MOL0     H57913   6.215   9.678   1.987 -0.7469 -0.8553 -0.1853
  420MOL0     H57914   6.328   9.905   2.014  0.1544 -1.2088  0.7256
  420MOL0     H57915   6.176   9.988   2.037  2.1752  0.9383  0.4106
  420MOL0     H57916   6.130   9.828   2.220 -0.8229 -1.2742 -0.6939
  420MOL0     H57917   6.272   9.744   2.182 -5.0469 -1.0410 -4.6635
  420MOL0     H57918   6.407  10.097   2.405  0.7962 -0.0249  4.0499
  420MOL0     H57919   6.563  10.192   2.544  0.5834  1.2026 -1.0762
  420MOL0     H57920   6.721  10.193   2.484 -0.6568 -0.8241 -2.0047
  420MOL0     H57921   6.677  10.075   2.613 -0.1827 -1.8860 -0.3287
  420MOL0     H57922   7.017   9.819   2.657 -1.0090 -1.7275 -0.3803
  420MOL0     H57923   7.242   9.768   2.699 -3.0483  0.5923  0.7723
  420MOL0     H57924   7.462   9.784   2.644  1.3154  0.0776 -3.4208
  420MOL0     H57925   7.422   9.642   2.729  2.6150 -2.5528  0.5721
  420MOL0     H57926   7.656   9.687   2.748 -0.8138 -0.0805  0.2415
  420MOL0     H57927   7.618   9.523   2.676 -5.3401 -0.8881 -1.6046
  420MOL0     H57928   7.704   9.783   2.539 -0.7700  0.5802 -1.4751
  420MOL0     H57929   7.663   9.627   2.458 -0.2328 -0.9372  0.8592
  420MOL0     H57930   7.848   9.517   2.560 -1.6844  0.3312  1.4902
  420MOL0     H57931   7.880   9.663   2.661  1.7814 -0.1143  0.0685
  420MOL0     H57932   7.909   9.626   2.359 -2.0796  0.2380  0.1994
  420MOL0     H57933   7.949   9.774   2.445 -0.4986 -0.0641  1.0366
  420MOL0     H57934   8.068   9.494   2.488  0.6985  0.4767 -2.8558
  420MOL0     H57935   8.103   9.632   2.598 -1.4418 -3.6847  1.8467
  420MOL0     H57936   8.239   9.728   2.428  3.0100  0.4481 -2.4889
  420MOL0     H57937   8.172   9.635   2.297 -1.0729 -1.3494  0.8025
  420MOL0     H57938   8.328   9.490   2.521 -1.3646  0.1933 -0.2132
  420MOL0     H57939   8.403   9.576   2.395  2.2909 -3.3486 -0.7505
  420MOL0     H57940   7.308   9.645   2.300 -0.4569 -0.1966 -0.0394
  420MOL0     H57941   7.071   9.721   2.242  1.4664 -0.5612 -0.2266
  420MOL0     H57942   6.708   9.737   2.250 -3.1299 -2.3844 -0.5002
  420MOL0     H57943   6.484   9.746   2.182  0.6269  0.0231 -0.6186
  420MOL0     H57944   6.523   9.360   0.792  0.7430  0.5861 -1.3523
  420MOL0     H57945   6.707   9.233   0.683  4.6467 -0.0620  0.5699
  420MOL0     H57946   7.095   9.112   0.623  2.0776 -0.4675 -1.9467
  420MOL0     H57947   7.216   9.011   0.434 -1.4535 -3.1644 -2.5583
  420MOL0     H57948   7.178   8.906   0.260 -0.6011  0.2500  2.9391
  420MOL0     H57949   7.361   8.885   0.280  0.9883 -3.2992  1.1491
  420MOL0     H57950   7.293   8.791   0.064 -2.8283  0.2819 -0.0751
  420MOL0     H57951   7.156   8.715   0.131  0.1505 -1.6622 -0.6214
  420MOL0     H57952   7.336   8.574   0.260  1.9858  1.2208 -0.4417
  420MOL0     H57953   7.329   8.539   0.083  1.6004 -0.8475 -1.4343
  420MOL0     H57954   7.556   8.546   0.190  0.8111  1.6423  0.4066
  420MOL0     H57955   7.532   8.707   0.238  1.7526 -0.8726 -0.4291
  420MOL0     H57956   7.650   8.784  -0.156  1.5656  3.6237  2.5368
  420MOL0     H57957   7.090   8.632   0.549 -1.1028  0.5820 -0.5166
  420MOL0     H57958   6.973   8.685   0.879  1.9145  1.1408 -0.8905
  420MOL0     H57959   6.829   8.699   0.765 -0.8105  0.5414  0.4920
  420MOL0     H57960   6.969   8.583   0.741 -0.7064 -1.2035  3.3606
  421MOL0     O57961   6.690   5.468   7.380  0.3739  0.4462  1.5294
  421MOL0     C57962   6.641   5.467   7.489  1.3696 -0.1504 -0.3542
  421MOL0     O57963   6.706   5.496   7.600 -0.2033 -0.4589 -0.7926
  421MOL0     C57964   6.820   5.570   7.596  0.7090  0.1806 -0.5849
  421MOL0     C57965   6.814   5.707   7.566 -0.1148  0.2882 -0.1487
  421MOL0     C57966   6.930   5.785   7.577 -0.7734 -0.9184  0.4644
  421MOL0     C57967   7.052   5.724   7.613  0.0729 -0.4487 -0.5682
  421MOL0     O57968   7.159   5.802   7.636  0.0965  0.9532  0.0777
  421MOL0     C57969   7.276   5.753   7.694  0.0284  0.2985  0.1501
  421MOL0     C57970   7.380   5.868   7.730 -0.2103  0.3279  0.1906
  421MOL0     C57971   7.462   5.836   7.848  0.3086  0.7589 -0.1291
  421MOL0     C57972   7.537   5.701   7.831  0.0739  0.0595  0.1050
  421MOL0     C57973   7.644   5.666   7.937 -0.9713 -0.0723  0.1810
  421MOL0     C57974   7.779   5.732   7.900 -0.1013 -0.5877  0.3431
  421MOL0     C57975   7.872   5.709   8.019 -0.3178  0.0757  0.3453
  421MOL0     C57976   8.016   5.750   7.974 -1.1657 -0.6182 -0.9132
  421MOL0     N57977   8.123   5.723   8.077  0.5370  0.0739 -0.9870
  421MOL0     C57978   8.121   5.616   8.166  0.2554  0.1392  0.1586
  421MOL0     C57979   8.249   5.596   8.207  0.2379  0.0508 -0.1372
  421MOL0     C57980   8.287   5.482   8.297  0.5990  0.2406 -0.0188
  421MOL0     C57981   8.390   5.391   8.221 -0.5598 -0.1813 -0.1965
  421MOL0     C57982   8.444   5.271   8.304  0.4501  1.1964  0.1476
  421MOL0     C57983   8.588   5.272   8.334 -0.1838 -0.6585  0.0790
  421MOL0     O57984   8.681   5.272   8.222  0.0717  0.5549 -0.1463
  421MOL0     C57985   8.814   5.284   8.251  0.4330  0.1933  0.6187
  421MOL0     C57986   8.859   5.318   8.386 -0.5247  0.7519  0.2947
  421MOL0     C57987   8.992   5.352   8.404 -0.0320 -0.2827 -0.2036
  421MOL0     C57988   9.035   5.401   8.541  0.9354  0.4055  0.6474
  421MOL0     C57989   9.081   5.353   8.294 -0.0911  1.1885  0.4137
  421MOL0     C57990   9.221   5.383   8.305 -0.0087 -0.1104 -0.2446
  421MOL0     O57991   9.303   5.360   8.196  0.3535 -0.1608  0.3382
  421MOL0     C57992   9.437   5.392   8.210 -1.0603  0.1967 -0.0857
  421MOL0     C57993   9.525   5.289   8.197  0.3263 -1.4541 -0.3807
  421MOL0     C57994   9.662   5.327   8.196 -0.4202 -0.1426  0.5641
  421MOL0     C57995   9.713   5.452   8.228  0.1450 -0.9581  0.9489
  421MOL0     O57996   9.844   5.470   8.237 -0.5167  0.1351 -0.0538
  421MOL0     C57997   9.888   5.609   8.254 -0.1015  0.0655 -0.3392
  421MOL0     C57998  10.033   5.619   8.224 -0.0683  0.4555 -0.0909
  421MOL0     C57999  10.123   5.607   8.346 -0.0645 -1.2712  0.0839
  421MOL0     C58000  10.093   5.474   8.420  0.2317  0.3406 -0.0338
  421MOL0     C58001  10.207   5.424   8.512 -0.3923 -0.2567 -0.1273
  421MOL0     C58002  10.180   5.478   8.651 -0.5216 -0.2664 -0.5577
  421MOL0     C58003  10.307   5.462   8.735  0.4173 -0.7167 -0.5483
  421MOL0     C58004  10.264   5.534   8.869  0.2863  0.3432  0.5347
  421MOL0    Cl58005  10.386   5.546   9.001  0.1173  0.2627 -0.0088
  421MOL0     C58006   9.618   5.552   8.246 -0.3797 -0.4479  0.2605
  421MOL0     C58007   9.485   5.520   8.236 -0.6536 -1.4039  0.3899
  421MOL0     O58008   9.257   5.447   8.406 -0.3359 -0.1595 -0.1399
  421MOL0     C58009   9.032   5.319   8.169  0.0861 -0.0684  0.7315
  421MOL0     C58010   8.902   5.282   8.144 -0.1857 -0.5683 -0.5643
  421MOL0     N58011   8.324   5.691   8.137 -0.1394 -0.4300  0.9247
  421MOL0     N58012   8.247   5.765   8.070  1.1217 -0.4384  0.7683
  421MOL0     C58013   7.054   5.586   7.634 -0.4122 -0.2815 -0.0780
  421MOL0     C58014   6.936   5.509   7.626 -0.1949 -0.3791 -0.8486
  421MOL0     C58015   6.488   5.459   7.478  0.5923  0.3364 -0.1438
  421MOL0     C58016   6.418   5.493   7.363  0.2318 -0.2372 -0.3758
  421MOL0     C58017   6.281   5.489   7.345  0.3007  1.6939 -0.7660
  421MOL0     C58018   6.206   5.444   7.458 -0.5079 -0.7480 -0.0003
  421MOL0     O58019   6.069   5.429   7.454 -0.3239  0.0084 -0.4829
  421MOL0     C58020   5.992   5.442   7.337 -0.3242  0.7728  0.2479
  421MOL0     C58021   5.837   5.435   7.353 -0.6887 -0.2185 -0.1340
  421MOL0     C58022   5.748   5.405   7.226 -0.7913  0.4675 -0.2222
  421MOL0     C58023   5.602   5.448   7.249 -0.6368  0.1634  0.3087
  421MOL0     C58024   5.532   5.416   7.126 -0.1464  0.6331 -0.5489
  421MOL0     C58025   5.495   5.388   7.011  0.9280  0.6178  0.8107
  421MOL0     C58026   6.267   5.394   7.576 -0.2797 -0.3836 -0.5839
  421MOL0     C58027   6.405   5.418   7.588  0.0191 -0.3622  0.9303
  421MOL0     C58028   6.465   5.372   7.719  0.1219 -0.2886  0.1329
  421MOL0     H58029   6.719   5.754   7.547 -0.6872 -1.7402 -3.1003
  421MOL0     H58030   6.920   5.893   7.576 -0.0044 -0.7335 -3.8986
  421MOL0     H58031   7.331   5.688   7.625  0.8554 -0.5842  1.5928
  421MOL0     H58032   7.253   5.693   7.782  1.4485 -1.8725 -0.8739
  421MOL0     H58033   7.444   5.887   7.643  0.7159  0.5682  0.9118
  421MOL0     H58034   7.331   5.960   7.763  0.8967  1.1842 -0.4305
  421MOL0     H58035   7.533   5.915   7.875 -0.6298  1.5217  0.1666
  421MOL0     H58036   7.398   5.838   7.937 -0.5127  0.8851 -0.7099
  421MOL0     H58037   7.463   5.623   7.850  1.1536 -0.5944  1.8285
  421MOL0     H58038   7.565   5.698   7.725 -3.2975 -1.0919 -0.8850
  421MOL0     H58039   7.663   5.559   7.935  2.0676  0.3846  0.2662
  421MOL0     H58040   7.607   5.685   8.039  1.2364  0.6826  0.9067
  421MOL0     H58041   7.818   5.695   7.804  1.1363 -0.9550  0.9745
  421MOL0     H58042   7.748   5.836   7.888 -1.4431 -1.2044 -2.4973
  421MOL0     H58043   7.882   5.601   8.039 -2.3417 -0.9142 -3.1126
  421MOL0     H58044   7.833   5.767   8.102  1.0895  0.2499  0.9123
  421MOL0     H58045   8.032   5.686   7.887 -1.3290 -1.8014 -0.0975
  421MOL0     H58046   8.023   5.855   7.945  0.7778 -0.6805 -0.7771
  421MOL0     H58047   8.041   5.544   8.178 -1.1561  1.4021 -1.2381
  421MOL0     H58048   8.198   5.423   8.323  1.9779 -1.1212  1.9484
  421MOL0     H58049   8.343   5.511   8.386  2.5804  0.4831 -1.2903
  421MOL0     H58050   8.353   5.358   8.123  0.2545  0.3919 -0.7076
  421MOL0     H58051   8.472   5.460   8.199  0.5841 -0.5119  2.7253
  421MOL0     H58052   8.384   5.263   8.395 -2.7346 -2.8966 -1.9784
  421MOL0     H58053   8.423   5.179   8.250  0.7271  2.7671 -2.8302
  421MOL0     H58054   8.596   5.369   8.384 -0.4489 -0.6860  0.1761
  421MOL0     H58055   8.611   5.190   8.404 -0.3425  0.4280  1.4469
  421MOL0     H58056   8.786   5.332   8.465  0.3743 -0.1359  1.3126
  421MOL0     H58057   9.059   5.507   8.551 -0.6956  0.7668  0.9747
  421MOL0     H58058   9.123   5.341   8.565 -0.7988 -3.2511 -1.2765
  421MOL0     H58059   8.947   5.385   8.603 -0.2381 -0.4402 -1.1584
  421MOL0     H58060   9.484   5.190   8.176  1.4167 -1.9206 -0.3600
  421MOL0     H58061   9.732   5.246   8.180  0.1193  0.1038  1.5986
  421MOL0     H58062   9.840   5.672   8.178  0.7102  1.1962  0.0579
  421MOL0     H58063   9.851   5.652   8.348 -1.9269 -0.1646 -0.9042
  421MOL0     H58064  10.069   5.557   8.141 -0.1033  0.7399 -0.3229
  421MOL0     H58065  10.050   5.723   8.194  0.1675  0.2787 -0.5882
  421MOL0     H58066  10.094   5.692   8.409 -0.4239 -0.7281 -0.7913
  421MOL0     H58067  10.224   5.611   8.304 -0.1647 -1.0646 -0.1370
  421MOL0     H58068  10.080   5.398   8.343  1.2938 -1.9793  1.9457
  421MOL0     H58069   9.998   5.473   8.475 -0.2579  0.8546 -0.8438
  421MOL0     H58070  10.214   5.315   8.516 -0.1223 -0.6379 -4.8194
  421MOL0     H58071  10.307   5.449   8.475  1.1594 -4.6166  0.4262
  421MOL0     H58072  10.093   5.424   8.689 -0.2792 -0.7606 -0.6959
  421MOL0     H58073  10.145   5.581   8.642 -0.3791  0.0223  1.5898
  421MOL0     H58074  10.389   5.515   8.685  0.5912 -0.8983 -0.4574
  421MOL0     H58075  10.334   5.360   8.761  0.7125 -0.5619 -0.2352
  421MOL0     H58076  10.184   5.472   8.910  0.5641  0.5144  1.3591
  421MOL0     H58077  10.220   5.633   8.852  1.8792  0.9638 -0.1754
  421MOL0     H58078   9.653   5.653   8.262  3.0118 -1.5885  0.9573
  421MOL0     H58079   9.415   5.603   8.237  3.1144  2.0453  1.0656
  421MOL0     H58080   9.094   5.293   8.085 -1.6605 -2.3688  0.0413
  421MOL0     H58081   8.876   5.255   8.042  0.1070  3.2793 -1.8211
  421MOL0     H58082   7.142   5.532   7.665 -0.2752  0.3246  0.6114
  421MOL0     H58083   6.942   5.403   7.647  2.6937 -0.3917 -1.3603
  421MOL0     H58084   6.479   5.532   7.283 -1.1149  1.7513 -0.5015
  421MOL0     H58085   6.235   5.522   7.252  0.5502 -0.2145 -1.5989
  421MOL0     H58086   6.014   5.534   7.281  1.1030 -0.1815 -0.8334
  421MOL0     H58087   6.022   5.369   7.261 -1.2970  0.5846  0.0328
  421MOL0     H58088   5.796   5.521   7.407  1.1817 -0.4746  1.7831
  421MOL0     H58089   5.825   5.352   7.422  0.1483 -0.8207 -0.6950
  421MOL0     H58090   5.790   5.468   7.147 -1.1882  1.1693  0.1135
  421MOL0     H58091   5.765   5.304   7.190  2.4560  0.0628  1.9892
  421MOL0     H58092   5.606   5.556   7.265  1.5842  0.1071  0.3016
  421MOL0     H58093   5.564   5.395   7.338 -0.2327 -0.6718 -0.0011
  421MOL0     H58094   5.456   5.360   6.916  0.9398 -0.8037  1.2075
  421MOL0     H58095   6.207   5.358   7.659 -0.6905 -0.6506 -0.9956
  421MOL0     H58096   6.384   5.361   7.792  0.1661  0.0885  0.2391
  421MOL0     H58097   6.515   5.275   7.709  0.4179 -0.6095  3.4100
  421MOL0     H58098   6.538   5.447   7.751 -0.0870  0.9684 -2.1180
  422MOL0     O58099   4.493   1.912   3.495  0.2890  0.1119  1.2021
  422MOL0     C58100   4.528   1.812   3.434 -0.6101  1.2912 -1.3181
  422MOL0     O58101   4.561   1.803   3.300  0.7108  0.1799  0.1479
  422MOL0     C58102   4.573   1.917   3.229  0.2527  0.1458  0.3835
  422MOL0     C58103   4.467   1.996   3.193  0.6130  0.2928 -0.0876
  422MOL0     C58104   4.487   2.104   3.105  0.0596 -0.3376 -0.2071
  422MOL0     C58105   4.612   2.146   3.068  0.3426 -0.1939 -0.5344
  422MOL0     O58106   4.629   2.263   3.004  0.4987  0.0369  0.0117
  422MOL0     C58107   4.756   2.321   3.000 -1.1570  0.9243  0.0350
  422MOL0     C58108   4.754   2.457   2.938 -0.2037  0.0662  0.7746
  422MOL0     C58109   4.653   2.545   3.007 -0.2620 -0.3253 -0.2447
  422MOL0     C58110   4.673   2.697   2.959 -0.2331 -0.6062  1.0912
  422MOL0     C58111   4.575   2.806   3.009 -0.2824  0.5470  0.9522
  422MOL0     C58112   4.442   2.796   2.927  0.2379  0.1046 -0.2288
  422MOL0     C58113   4.345   2.889   2.988 -0.6042 -0.4128 -0.1185
  422MOL0     C58114   4.198   2.872   2.937 -0.3387 -0.3170  0.1559
  422MOL0     N58115   4.116   2.968   3.004 -0.0458 -0.1962  0.0439
  422MOL0     C58116   4.013   2.936   3.084  0.3555  0.6309 -0.2757
  422MOL0     C58117   3.950   3.056   3.114 -0.4545 -0.4838  0.2396
  422MOL0     C58118   3.828   3.078   3.196 -0.7538 -0.0153  0.6220
  422MOL0     C58119   3.695   3.022   3.147  0.2195  0.2342  0.4604
  422MOL0     C58120   3.655   3.056   3.005  0.0798  0.0972  0.9021
  422MOL0     C58121   3.509   3.030   2.972 -0.1837 -0.2745 -0.6384
  422MOL0     O58122   3.477   3.059   2.836  0.2196 -0.7768  0.6153
  422MOL0     C58123   3.352   3.032   2.799  1.3274 -0.1323  0.2931
  422MOL0     C58124   3.260   2.962   2.882  0.8507  0.3059 -0.2851
  422MOL0     C58125   3.137   2.938   2.838  0.7432  0.2994  0.3176
  422MOL0     C58126   3.055   2.891   2.952  0.4181  0.0398 -0.9190
  422MOL0     C58127   3.090   2.967   2.710 -0.4135 -1.0992  0.3405
  422MOL0     C58128   2.956   2.940   2.647  0.1623 -0.2649 -0.2332
  422MOL0     O58129   2.923   2.993   2.514  0.7186 -0.3185 -0.7054
  422MOL0     C58130   2.794   2.959   2.475 -0.1980  0.1321 -0.4732
  422MOL0     C58131   2.765   2.855   2.388  0.5011  0.5038  0.0204
  422MOL0     C58132   2.630   2.839   2.358  0.5098 -0.0914  0.3756
  422MOL0     C58133   2.528   2.927   2.410  0.1681 -0.3771 -0.3652
  422MOL0     O58134   2.403   2.925   2.358 -0.8635 -0.3660 -0.0932
  422MOL0     C58135   2.334   3.048   2.331  0.0607  0.6186  0.1334
  422MOL0     C58136   2.205   3.019   2.255  0.7881  0.3184 -0.7529
  422MOL0     C58137   2.080   3.007   2.343  0.0947  0.0630  0.1379
  422MOL0     C58138   2.024   3.148   2.373 -0.0643 -0.2432  0.4110
  422MOL0     C58139   1.929   3.160   2.493 -0.1574 -0.6658 -0.1627
  422MOL0     C58140   1.807   3.070   2.468  0.1266 -0.4194  0.5011
  422MOL0     C58141   1.697   3.077   2.572 -0.2433 -0.5909  0.6813
  422MOL0     C58142   1.655   3.210   2.624 -0.3507 -0.1942 -0.5601
  422MOL0    Cl58143   1.476   3.217   2.660 -0.0052  0.1610  0.2742
  422MOL0     C58144   2.569   3.019   2.505 -0.2118 -0.3922 -0.7155
  422MOL0     C58145   2.691   3.029   2.542 -0.1133 -0.2077 -0.1905
  422MOL0     O58146   2.888   2.860   2.709  0.0075  0.0431  0.1428
  422MOL0     C58147   3.185   3.036   2.628 -0.0573  0.1597  0.4182
  422MOL0     C58148   3.306   3.075   2.675 -0.6775  0.1715  1.2677
  422MOL0     N58149   4.031   3.153   3.048  0.3751  1.1805  0.1782
  422MOL0     N58150   4.123   3.098   2.985  0.4670  0.1917  0.3150
  422MOL0     C58151   4.721   2.068   3.117  0.6885 -0.5510  0.7749
  422MOL0     C58152   4.696   1.953   3.193  0.1918  0.6814  0.5439
  422MOL0     C58153   4.533   1.686   3.525 -1.5851 -0.4812 -0.0423
  422MOL0     C58154   4.452   1.674   3.636 -0.7607 -0.0149 -1.3155
  422MOL0     C58155   4.456   1.559   3.719 -0.3573 -0.4351  0.5807
  422MOL0     C58156   4.545   1.459   3.689  0.1724 -0.2947 -0.7422
  422MOL0     O58157   4.562   1.351   3.777 -0.7770  0.1430 -0.4163
  422MOL0     C58158   4.465   1.324   3.884  0.1300  0.0183 -0.5053
  422MOL0     C58159   4.320   1.289   3.837 -0.4695 -0.3095  0.2649
  422MOL0     C58160   4.334   1.199   3.719  0.6473 -0.3743  0.4473
  422MOL0     C58161   4.194   1.135   3.689  0.2934  0.2924  0.0584
  422MOL0     C58162   4.097   1.224   3.625 -0.0882  0.5817 -0.2446
  422MOL0     C58163   4.011   1.275   3.557  0.6756  0.6231 -0.0590
  422MOL0     C58164   4.634   1.471   3.583 -0.2797  0.1258 -0.4799
  422MOL0     C58165   4.627   1.582   3.503  0.4777  0.5513 -0.4137
  422MOL0     C58166   4.742   1.595   3.408 -0.5128  0.5660  0.0916
  422MOL0     H58167   4.372   1.958   3.228  0.6981  0.0095 -0.1646
  422MOL0     H58168   4.407   2.161   3.057  0.7553 -1.7040 -3.2378
  422MOL0     H58169   4.835   2.256   2.962 -1.6598 -1.3208  2.4951
  422MOL0     H58170   4.793   2.335   3.102 -3.6821 -3.5093  1.8650
  422MOL0     H58171   4.855   2.498   2.946 -0.3593  0.6151  0.0896
  422MOL0     H58172   4.721   2.452   2.834 -0.7143  0.8971  0.8842
  422MOL0     H58173   4.554   2.520   2.968 -0.0897  0.3060 -1.1218
  422MOL0     H58174   4.661   2.539   3.116 -5.0784  2.3071  0.5404
  422MOL0     H58175   4.770   2.735   2.992 -1.0134  0.8362  1.8045
  422MOL0     H58176   4.681   2.690   2.850  2.5613 -2.3887  1.2996
  422MOL0     H58177   4.610   2.907   2.985  0.5238  0.0042 -0.2939
  422MOL0     H58178   4.570   2.806   3.118  4.9506  0.3426  1.4711
  422MOL0     H58179   4.464   2.825   2.824  0.4434  2.0715  0.3436
  422MOL0     H58180   4.405   2.696   2.953  1.9079 -0.0679  1.8095
  422MOL0     H58181   4.391   2.982   2.953  1.1982 -0.8412  0.9633
  422MOL0     H58182   4.350   2.868   3.095 -1.7001 -0.3277 -0.0439
  422MOL0     H58183   4.207   2.905   2.833  1.0831 -1.8638 -0.2584
  422MOL0     H58184   4.157   2.770   2.935  0.5824 -0.6897 -0.1283
  422MOL0     H58185   3.983   2.837   3.114  1.0428  0.8905  1.3663
  422MOL0     H58186   3.820   3.186   3.205  0.1983 -0.0879  3.3726
  422MOL0     H58187   3.855   3.035   3.293 -0.1271  0.1735  0.5352
  422MOL0     H58188   3.699   2.914   3.165 -0.6881 -0.3974 -2.5790
  422MOL0     H58189   3.614   3.064   3.208 -0.7965  0.4227 -0.9818
  422MOL0     H58190   3.682   3.157   2.974  4.0384 -1.2433 -0.5934
  422MOL0     H58191   3.715   2.990   2.942 -0.9286  1.0205 -1.1335
  422MOL0     H58192   3.491   2.924   2.995  0.1157 -0.0528  0.6817
  422MOL0     H58193   3.453   3.095   3.040  1.2768 -0.9979  1.3506
  422MOL0     H58194   3.273   2.929   2.984  1.7622 -2.7276 -1.2731
  422MOL0     H58195   2.946   2.886   2.936  0.3961 -0.5981 -0.6019
  422MOL0     H58196   3.068   2.955   3.039  1.4894  0.3324 -1.2806
  422MOL0     H58197   3.083   2.790   2.982 -0.3458  0.1828  0.3357
  422MOL0     H58198   2.849   2.799   2.348  0.8570 -0.5739  2.1590
  422MOL0     H58199   2.596   2.766   2.285 -0.1038  1.4154 -0.9034
  422MOL0     H58200   2.312   3.085   2.432  0.9364 -1.8818  1.3242
  422MOL0     H58201   2.401   3.114   2.275 -0.7822  1.3702 -0.0226
  422MOL0     H58202   2.190   3.103   2.186 -2.2262 -0.0499 -0.6869
  422MOL0     H58203   2.210   2.927   2.197  1.7462  0.5467 -1.0523
  422MOL0     H58204   2.117   2.964   2.437 -1.4766 -1.5177  0.0662
  422MOL0     H58205   2.003   2.948   2.293 -0.2933 -0.1791  1.0024
  422MOL0     H58206   1.977   3.189   2.283  0.9038 -1.4639 -0.6663
  422MOL0     H58207   2.114   3.206   2.397  0.7462 -0.7966 -1.1681
  422MOL0     H58208   1.991   3.145   2.582 -0.0710  1.5521  0.2080
  422MOL0     H58209   1.901   3.266   2.497 -1.8205 -0.9698 -2.2219
  422MOL0     H58210   1.833   2.964   2.471 -4.5228 -1.8173  3.1913
  422MOL0     H58211   1.758   3.098   2.374  0.6771  1.4434  0.7332
  422MOL0     H58212   1.720   3.018   2.661  1.4388 -2.8244 -1.1014
  422MOL0     H58213   1.603   3.036   2.532 -0.3344  1.1892 -1.0787
  422MOL0     H58214   1.672   3.288   2.549 -2.9200  0.6182 -0.4354
  422MOL0     H58215   1.711   3.250   2.709 -1.4954  2.3545 -0.9082
  422MOL0     H58216   2.489   3.079   2.546 -1.7428 -2.3591 -0.6630
  422MOL0     H58217   2.715   3.103   2.617  1.2720  0.5446 -1.3211
  422MOL0     H58218   3.178   3.069   2.525 -0.9264  2.4895  1.1612
  422MOL0     H58219   3.376   3.127   2.610 -0.4731  1.0507  2.1633
  422MOL0     H58220   4.823   2.102   3.101  0.2120  1.6578  2.1391
  422MOL0     H58221   4.764   1.877   3.229 -1.4649 -0.8304  0.6644
  422MOL0     H58222   4.381   1.752   3.662  1.5343  1.5633  0.6785
  422MOL0     H58223   4.399   1.555   3.811 -0.7218 -2.5637  0.3290
  422MOL0     H58224   4.511   1.234   3.926  2.3599  0.3881 -1.9388
  422MOL0     H58225   4.467   1.398   3.965  0.6326  0.0703 -0.5574
  422MOL0     H58226   4.272   1.386   3.819  0.0441  0.1624  1.3189
  422MOL0     H58227   4.269   1.240   3.921  2.1039  1.2318  2.9224
  422MOL0     H58228   4.366   1.256   3.632  0.7178 -0.4413  0.4291
  422MOL0     H58229   4.404   1.120   3.748  0.8993  0.5335  2.4267
  422MOL0     H58230   4.148   1.100   3.782  0.9492 -2.3255 -0.5023
  422MOL0     H58231   4.212   1.049   3.623 -0.1036  2.1749 -2.6374
  422MOL0     H58232   3.935   1.302   3.486  1.2418 -0.9130 -1.3108
  422MOL0     H58233   4.709   1.395   3.565  0.5577  0.8940 -0.3292
  422MOL0     H58234   4.802   1.682   3.435 -1.0896  1.6512 -1.9411
  422MOL0     H58235   4.805   1.506   3.418 -1.3996  0.0262  1.1811
  422MOL0     H58236   4.714   1.598   3.303  0.8309  0.4854 -0.2900
  423MOL0     O58237   7.086   1.614   7.544  0.2373  0.1434  0.8010
  423MOL0     C58238   6.981   1.571   7.578  0.2976 -0.2620 -0.1007
  423MOL0     O58239   6.946   1.435   7.572  0.6462 -0.6107  0.3231
  423MOL0     C58240   7.033   1.340   7.516  0.9561 -0.2470  0.6850
  423MOL0     C58241   6.974   1.241   7.445 -0.3990 -0.0214  0.0898
  423MOL0     C58242   7.064   1.135   7.393 -0.1581  0.2488  0.6340
  423MOL0     C58243   7.206   1.132   7.413  0.0764 -0.5216 -0.2839
  423MOL0     O58244   7.274   1.030   7.356 -0.3972  0.1916 -0.5283
  423MOL0     C58245   7.414   1.008   7.399 -0.1636 -0.3656  0.0879
  423MOL0     C58246   7.465   0.872   7.359  0.2416 -0.3873  1.0165
  423MOL0     C58247   7.606   0.831   7.396 -0.7227  0.6406 -0.5560
  423MOL0     C58248   7.639   0.690   7.347 -0.1102  0.2019 -0.6664
  423MOL0     C58249   7.780   0.649   7.381  0.1657 -0.3669  0.3846
  423MOL0     C58250   7.812   0.509   7.343  0.1997  0.1777  0.3546
  423MOL0     C58251   7.967   0.466   7.322  0.0757  0.4391 -0.2126
  423MOL0     C58252   8.037   0.551   7.218 -0.2917 -0.9122 -0.5864
  423MOL0     N58253   8.163   0.494   7.168 -0.1853  0.0224  0.0147
  423MOL0     C58254   8.233   0.397   7.226 -0.5415  0.2394  0.5453
  423MOL0     C58255   8.337   0.367   7.138 -0.3206 -1.3819 -0.5669
  423MOL0     C58256   8.442   0.263   7.166  0.1381  0.5942  0.5400
  423MOL0     C58257   8.408   0.143   7.073  0.1805  0.7206  0.8813
  423MOL0     C58258   8.497   0.023   7.082 -0.2668  0.0751 -0.1500
  423MOL0     C58259   8.464  -0.068   7.201  0.3433 -0.2413  0.6763
  423MOL0     O58260   8.560  -0.181   7.200 -0.4727 -0.4504 -0.3049
  423MOL0     C58261   8.685  -0.157   7.249 -0.7710 -0.3287  0.2609
  423MOL0     C58262   8.788  -0.240   7.211 -0.0654 -0.3838 -1.2769
  423MOL0     C58263   8.923  -0.222   7.263  0.5305 -0.2232 -0.1073
  423MOL0     C58264   9.035  -0.301   7.208 -0.8857 -0.2968  0.6602
  423MOL0     C58265   8.943  -0.110   7.346 -0.5370  0.2156 -0.2872
  423MOL0     C58266   9.088  -0.066   7.393  0.1620 -0.4098  0.6953
  423MOL0     O58267   9.095   0.060   7.431 -0.0620 -0.0113 -0.0894
  423MOL0     C58268   9.216   0.112   7.469 -0.4358 -0.4658 -0.4425
  423MOL0     C58269   9.216   0.191   7.584  0.4228  0.4608 -0.2640
  423MOL0     C58270   9.329   0.253   7.636  0.2102 -0.8820  0.2670
  423MOL0     C58271   9.445   0.245   7.560 -0.3508  0.8160 -0.4847
  423MOL0     O58272   9.552   0.311   7.612 -0.0693  0.0866  0.0583
  423MOL0     C58273   9.681   0.250   7.586 -0.3837 -0.1137  0.1762
  423MOL0     C58274   9.755   0.339   7.481  0.2447  0.2478 -0.2209
  423MOL0     C58275   9.908   0.332   7.478 -0.0011  0.0450 -0.3530
  423MOL0     C58276   9.969   0.375   7.611  0.6813  0.4960 -0.4355
  423MOL0     C58277  10.105   0.443   7.600  0.4363  1.1554 -0.9622
  423MOL0     C58278  10.143   0.472   7.744  0.5226 -0.6233 -0.6924
  423MOL0     C58279  10.287   0.533   7.764 -0.3615 -0.8874  0.0681
  423MOL0     C58280  10.404   0.459   7.692 -0.1603  0.2001 -0.5886
  423MOL0    Cl58281  10.466   0.309   7.775  0.0120 -0.0000 -0.1086
  423MOL0     C58282   9.440   0.181   7.433 -0.7422  0.4013 -1.0184
  423MOL0     C58283   9.334   0.103   7.393  0.3200 -0.8341 -0.2730
  423MOL0     O58284   9.192  -0.135   7.382  0.0168 -0.0134 -0.0679
  423MOL0     C58285   8.839  -0.027   7.380  0.1541 -0.5357 -0.0683
  423MOL0     C58286   8.712  -0.047   7.333  0.0640 -0.0638  0.1868
  423MOL0     N58287   8.336   0.453   7.038  0.2816 -0.5646  0.2819
  423MOL0     N58288   8.228   0.524   7.056  0.3318  0.3163  0.2511
  423MOL0     C58289   7.256   1.237   7.485 -0.9113 -0.0726  0.6377
  423MOL0     C58290   7.170   1.331   7.541  0.8594  0.6942 -0.6212
  423MOL0     C58291   6.874   1.666   7.615 -0.6393 -0.0023 -0.5566
  423MOL0     C58292   6.898   1.797   7.577 -0.9717 -0.7296 -0.1558
  423MOL0     C58293   6.807   1.897   7.620  0.4097 -0.1027 -0.4260
  423MOL0     C58294   6.687   1.873   7.687 -0.2301 -0.5996  0.1617
  423MOL0     O58295   6.615   1.978   7.723  0.3600  0.0719  0.3257
  423MOL0     C58296   6.478   1.964   7.761 -0.1849 -0.7581 -0.2089
  423MOL0     C58297   6.389   1.976   7.630 -0.6559 -0.4382 -0.2717
  423MOL0     C58298   6.243   1.971   7.634  1.5231  0.0367  0.1906
  423MOL0     C58299   6.182   1.830   7.641  0.1434 -0.2245 -0.4223
  423MOL0     C58300   6.235   1.757   7.750 -0.3208  0.2175 -0.2339
  423MOL0     C58301   6.273   1.691   7.849  0.5841 -0.0380  0.5519
  423MOL0     C58302   6.656   1.733   7.703  0.0174 -0.3507 -0.4367
  423MOL0     C58303   6.745   1.628   7.670 -0.3513  0.0927  0.8056
  423MOL0     C58304   6.708   1.485   7.710  0.4892  0.5004  0.2124
  423MOL0     H58305   6.869   1.259   7.425 -0.4975  1.4783  1.7723
  423MOL0     H58306   7.036   1.056   7.324  2.9432  0.0457 -0.5291
  423MOL0     H58307   7.423   1.014   7.507  0.0822 -1.8712  0.1609
  423MOL0     H58308   7.482   1.084   7.359 -1.4589  1.2827  0.8633
  423MOL0     H58309   7.405   0.793   7.406  1.0096 -1.4769  0.2368
  423MOL0     H58310   7.461   0.855   7.251 -0.9833 -0.2538  1.0284
  423MOL0     H58311   7.689   0.894   7.362  0.4760  0.9171  2.5674
  423MOL0     H58312   7.611   0.820   7.505  0.1854 -3.0556 -0.8396
  423MOL0     H58313   7.571   0.623   7.399 -2.0173  0.2305 -2.9924
  423MOL0     H58314   7.618   0.675   7.241  2.5164  0.1486 -1.2504
  423MOL0     H58315   7.802   0.663   7.487 -0.9946 -0.2047  0.6210
  423MOL0     H58316   7.853   0.713   7.329 -1.9054  1.8840  0.0779
  423MOL0     H58317   7.762   0.443   7.414 -2.3103 -0.9238 -2.2626
  423MOL0     H58318   7.765   0.499   7.245 -0.1163  0.0536  0.5193
  423MOL0     H58319   7.959   0.361   7.292  2.3934  0.1831 -0.1104
  423MOL0     H58320   8.022   0.456   7.416 -0.1102 -1.7720 -0.2823
  423MOL0     H58321   7.978   0.565   7.127 -0.8025 -1.1736 -0.2971
  423MOL0     H58322   8.057   0.651   7.259 -2.4201 -0.1389 -1.2667
  423MOL0     H58323   8.217   0.348   7.322  1.6765 -0.8386  0.4442
  423MOL0     H58324   8.442   0.244   7.274  4.2868 -1.4649  0.4025
  423MOL0     H58325   8.537   0.307   7.136 -0.0892  1.8440  1.5801
  423MOL0     H58326   8.303   0.117   7.086 -0.7586  1.3005 -3.8080
  423MOL0     H58327   8.428   0.182   6.973  3.9465  0.6793  1.4660
  423MOL0     H58328   8.481  -0.040   6.993  2.2529  1.8344 -1.9900
  423MOL0     H58329   8.604   0.046   7.079 -0.3615  0.4289 -1.4641
  423MOL0     H58330   8.458  -0.004   7.289 -2.5696 -1.2735  1.3299
  423MOL0     H58331   8.365  -0.113   7.186  1.4338 -1.7844 -3.1748
  423MOL0     H58332   8.771  -0.318   7.138 -2.6154 -0.6765 -0.4577
  423MOL0     H58333   8.995  -0.382   7.145  0.0332 -0.4710  0.2909
  423MOL0     H58334   9.099  -0.338   7.288 -1.4864 -0.2860  1.1472
  423MOL0     H58335   9.096  -0.231   7.151  0.7581 -0.0405  2.6269
  423MOL0     H58336   9.124   0.199   7.640  0.7194  1.6493  0.0788
  423MOL0     H58337   9.320   0.312   7.726 -2.3751 -1.9842  0.8166
  423MOL0     H58338   9.745   0.264   7.675 -0.9351  0.4298  0.4978
  423MOL0     H58339   9.677   0.145   7.558  0.8225 -0.4671  1.2026
  423MOL0     H58340   9.719   0.313   7.381 -2.1986  1.5948  0.2217
  423MOL0     H58341   9.731   0.444   7.500  0.1287  0.8779 -3.4085
  423MOL0     H58342   9.936   0.404   7.400  1.0202 -2.3049 -2.2854
  423MOL0     H58343   9.954   0.240   7.441 -1.2744 -0.0377 -1.8047
  423MOL0     H58344   9.965   0.284   7.672  2.8139  0.1904 -0.6883
  423MOL0     H58345   9.902   0.445   7.662 -0.4699  0.9269 -2.4436
  423MOL0     H58346  10.176   0.388   7.538 -1.1379 -1.3977 -0.6342
  423MOL0     H58347  10.085   0.537   7.546  1.1730  2.4140  0.8493
  423MOL0     H58348  10.129   0.374   7.789 -2.4595  0.6994  1.5629
  423MOL0     H58349  10.065   0.534   7.788  2.4789  1.9685 -0.5920
  423MOL0     H58350  10.306   0.519   7.871 -1.0054 -3.6227 -0.0923
  423MOL0     H58351  10.294   0.640   7.747 -0.7456 -0.4499  2.3662
  423MOL0     H58352  10.484   0.534   7.698 -1.5636  1.8361 -1.3252
  423MOL0     H58353  10.375   0.446   7.588 -0.0286 -0.1435 -0.5829
  423MOL0     H58354   9.532   0.186   7.376 -0.7362 -3.7136 -1.6724
  423MOL0     H58355   9.346   0.048   7.300  1.4153  1.9606 -1.9163
  423MOL0     H58356   8.856   0.048   7.455  5.1281 -0.3350 -1.0555
  423MOL0     H58357   8.640   0.025   7.371  0.4953  1.1831 -1.2561
  423MOL0     H58358   7.365   1.234   7.491 -0.8794 -1.1216 -0.1481
  423MOL0     H58359   7.222   1.394   7.613  1.5749  1.4405 -1.7755
  423MOL0     H58360   6.978   1.844   7.520 -2.0234  1.4216  0.0380
  423MOL0     H58361   6.826   1.998   7.587 -0.3333  0.5881  1.1853
  423MOL0     H58362   6.462   1.867   7.808  1.0430 -0.6681  0.4458
  423MOL0     H58363   6.462   2.042   7.836  0.2455 -0.6455 -0.2275
  423MOL0     H58364   6.422   1.895   7.563 -1.3273  0.2568 -1.4844
  423MOL0     H58365   6.421   2.063   7.572  0.4834  0.3536  1.4749
  423MOL0     H58366   6.202   2.020   7.723 -0.9697 -0.1741 -0.7680
  423MOL0     H58367   6.200   2.030   7.553  0.3547  1.3159  1.6722
  423MOL0     H58368   6.191   1.772   7.549 -1.0378 -0.4158 -0.4318
  423MOL0     H58369   6.074   1.839   7.657  0.3665 -0.5642  1.4698
  423MOL0     H58370   6.307   1.635   7.933  0.1605 -0.6780  0.2987
  423MOL0     H58371   6.561   1.707   7.749  1.3813  0.4847  3.2398
  423MOL0     H58372   6.783   1.441   7.777 -0.8302 -1.1224  0.6640
  423MOL0     H58373   6.620   1.470   7.772  1.2166 -0.4596  1.0583
  423MOL0     H58374   6.696   1.425   7.619  2.8859  0.4228 -0.1186
  424MOL0     O58375   3.520   5.342   2.332  0.4380  0.3754 -0.0683
  424MOL0     C58376   3.512   5.252   2.243 -0.5094  0.6684  0.5625
  424MOL0     O58377   3.606   5.217   2.152 -0.2287 -0.6587  0.1376
  424MOL0     C58378   3.734   5.268   2.167  0.4882 -0.4437  0.3953
  424MOL0     C58379   3.830   5.185   2.222 -0.2468  0.6911  0.0262
  424MOL0     C58380   3.963   5.233   2.240 -0.4089  0.4038 -0.6684
  424MOL0     C58381   3.997   5.363   2.192  0.3813  0.5295  0.0071
  424MOL0     O58382   4.114   5.423   2.205  1.1870 -0.0515  0.5812
  424MOL0     C58383   4.214   5.352   2.269 -0.7360  0.4882 -0.2540
  424MOL0     C58384   4.343   5.445   2.248  0.3578  0.2533 -0.8586
  424MOL0     C58385   4.464   5.385   2.337  0.0879  1.2836 -0.0032
  424MOL0     C58386   4.603   5.453   2.314  0.0838  1.0267  0.0763
  424MOL0     C58387   4.711   5.367   2.385  0.3151 -0.5418  0.3577
  424MOL0     C58388   4.848   5.439   2.386  0.2716  0.6935 -0.1417
  424MOL0     C58389   4.952   5.381   2.490 -0.5378 -0.1163 -0.4880
  424MOL0     C58390   5.007   5.257   2.431 -0.0163 -0.0782 -0.4917
  424MOL0     N58391   5.117   5.193   2.505 -0.0722 -0.1275  0.0595
  424MOL0     C58392   5.150   5.206   2.640  0.5807  0.5047  0.7880
  424MOL0     C58393   5.261   5.133   2.650  0.5183  0.5981  1.2710
  424MOL0     C58394   5.336   5.099   2.770  0.3762 -0.3543  0.2451
  424MOL0     C58395   5.485   5.142   2.752 -0.3727  0.8095 -0.0673
  424MOL0     C58396   5.555   5.135   2.889 -0.0154 -0.3016 -0.1533
  424MOL0     C58397   5.591   4.996   2.942 -0.8591  0.4807 -0.5314
  424MOL0     O58398   5.654   5.002   3.073 -0.4143  0.2370 -0.2574
  424MOL0     C58399   5.734   4.898   3.118 -0.2982  0.3770  0.3987
  424MOL0     C58400   5.759   4.777   3.053  0.5580 -0.0658  0.5193
  424MOL0     C58401   5.837   4.669   3.106 -0.0706 -0.1741  0.2935
  424MOL0     C58402   5.849   4.539   3.028  0.3708  0.3484  0.2808
  424MOL0     C58403   5.906   4.686   3.234  1.1296  0.2375 -0.2838
  424MOL0     C58404   5.990   4.591   3.305  0.9072 -0.6562 -0.0205
  424MOL0     O58405   6.005   4.600   3.442 -0.1409 -0.4625 -0.1378
  424MOL0     C58406   6.118   4.539   3.491  0.3039 -0.4787 -0.8716
  424MOL0     C58407   6.095   4.433   3.574 -0.6816  0.0694 -0.3135
  424MOL0     C58408   6.203   4.358   3.618  0.0683  0.5453  0.3847
  424MOL0     C58409   6.336   4.386   3.586  0.1693  0.2087  0.5312
  424MOL0     O58410   6.458   4.328   3.627 -0.5772  0.9115  0.1690
  424MOL0     C58411   6.450   4.209   3.711 -0.6533  0.1759 -0.2340
  424MOL0     C58412   6.583   4.132   3.689  0.5804 -0.6713  0.5789
  424MOL0     C58413   6.574   4.041   3.563 -0.2100 -0.2042  1.2926
  424MOL0     C58414   6.716   4.010   3.503  0.6694  0.8498  0.6019
  424MOL0     C58415   6.790   3.897   3.579 -0.0264 -0.1240  0.1557
  424MOL0     C58416   6.926   3.874   3.503  0.6905 -0.1681 -0.1454
  424MOL0     C58417   7.013   3.763   3.557 -0.2698 -0.1879  0.1806
  424MOL0     C58418   6.940   3.627   3.552  0.0084  0.3850  1.5273
  424MOL0    Cl58419   6.880   3.589   3.712  0.2624 -0.5074 -0.0880
  424MOL0     C58420   6.355   4.499   3.509 -0.1263 -0.0311 -0.1268
  424MOL0     C58421   6.250   4.584   3.466 -0.1175 -0.6567  0.3327
  424MOL0     O58422   6.043   4.505   3.238 -0.5446  0.8769 -0.0388
  424MOL0     C58423   5.865   4.805   3.306  0.2614 -0.2929 -0.2887
  424MOL0     C58424   5.788   4.909   3.244  0.0682  0.4554  0.6091
  424MOL0     N58425   5.304   5.084   2.526 -0.0684  0.6209  0.3765
  424MOL0     N58426   5.210   5.123   2.444  0.0315 -0.6417 -0.3850
  424MOL0     C58427   3.905   5.435   2.126  0.0349 -0.1725 -0.0871
  424MOL0     C58428   3.772   5.395   2.128 -0.2625 -1.0023  0.0299
  424MOL0     C58429   3.386   5.168   2.242 -0.3791  0.0135  0.6172
  424MOL0     C58430   3.400   5.045   2.168 -0.4072 -0.2133 -0.9742
  424MOL0     C58431   3.289   4.967   2.147 -0.3823 -0.4385  0.2854
  424MOL0     C58432   3.168   4.997   2.205 -0.4540  0.4336  0.8576
  424MOL0     O58433   3.065   4.908   2.180 -0.7865  0.1990  0.2549
  424MOL0     C58434   2.955   4.913   2.272 -0.2941 -0.5641  0.5275
  424MOL0     C58435   2.880   4.782   2.263 -1.0504 -0.2335  0.3649
  424MOL0     C58436   2.790   4.799   2.135  0.1914  0.5109  0.3501
  424MOL0     C58437   2.700   4.672   2.121  0.2997 -0.2213 -0.3018
  424MOL0     C58438   2.588   4.668   2.216 -0.3301  0.1298  0.3053
  424MOL0     C58439   2.493   4.654   2.292  0.2245 -0.0535 -0.9857
  424MOL0     C58440   3.157   5.112   2.285 -0.0251 -0.8548 -0.0513
  424MOL0     C58441   3.259   5.203   2.296 -0.0953 -0.2582 -0.8275
  424MOL0     C58442   3.222   5.336   2.360  0.8567 -0.6012  0.1413
  424MOL0     H58443   3.794   5.090   2.259  1.8079 -0.2229 -0.2068
  424MOL0     H58444   4.030   5.166   2.293 -2.9535  0.1228  2.5200
  424MOL0     H58445   4.230   5.254   2.223 -2.1940 -1.2293  2.5825
  424MOL0     H58446   4.196   5.340   2.376 -1.4887  0.4030 -0.3866
  424MOL0     H58447   4.375   5.431   2.145 -0.3522  1.2449 -1.2240
  424MOL0     H58448   4.328   5.551   2.269  0.0477  0.1747 -0.6787
  424MOL0     H58449   4.431   5.400   2.440  2.0680  0.1793  0.8472
  424MOL0     H58450   4.473   5.278   2.317 -3.4241  1.1062 -1.2628
  424MOL0     H58451   4.617   5.444   2.206 -0.8128 -0.1121  0.0371
  424MOL0     H58452   4.600   5.558   2.344 -2.8829  0.9234  0.3648
  424MOL0     H58453   4.727   5.270   2.338 -0.1643 -0.5957  0.3028
  424MOL0     H58454   4.680   5.344   2.487  0.6070 -0.4720  0.4634
  424MOL0     H58455   4.896   5.453   2.289 -3.5697 -0.1536 -2.3537
  424MOL0     H58456   4.821   5.539   2.423 -1.3110 -0.8014  3.1866
  424MOL0     H58457   4.906   5.367   2.588  0.5219  0.0682  0.0571
  424MOL0     H58458   5.032   5.455   2.500  0.1875 -0.5709 -2.5625
  424MOL0     H58459   4.933   5.178   2.417  1.1599 -0.8682 -2.7558
  424MOL0     H58460   5.041   5.257   2.327  0.5614  0.8599 -0.3107
  424MOL0     H58461   5.094   5.244   2.725 -0.0293 -0.0159  0.6278
  424MOL0     H58462   5.332   4.991   2.786  1.8493 -0.6554 -1.1946
  424MOL0     H58463   5.287   5.142   2.858 -0.4793 -0.5201 -0.1438
  424MOL0     H58464   5.524   5.081   2.671 -0.5848 -1.5430  1.5085
  424MOL0     H58465   5.486   5.245   2.715 -0.7466  0.6910 -0.4050
  424MOL0     H58466   5.650   5.184   2.866 -1.0275  0.8631 -2.0462
  424MOL0     H58467   5.510   5.196   2.968  1.7785  1.3894 -0.3673
  424MOL0     H58468   5.507   4.931   2.965  1.5226 -2.0409  1.6853
  424MOL0     H58469   5.662   4.940   2.880 -1.5894  0.4522 -1.3703
  424MOL0     H58470   5.703   4.754   2.963 -1.4130  2.0654  1.0906
  424MOL0     H58471   5.836   4.447   3.085  0.7033 -0.2545 -0.5849
  424MOL0     H58472   5.949   4.557   2.987 -0.1114  3.6855  0.2607
  424MOL0     H58473   5.776   4.548   2.946 -0.1496  0.2298  0.7287
  424MOL0     H58474   5.995   4.403   3.606 -1.8098  1.0648 -2.7125
  424MOL0     H58475   6.179   4.274   3.682  0.0545 -2.2219 -2.9472
  424MOL0     H58476   6.448   4.228   3.819 -1.4878 -1.5283  0.0823
  424MOL0     H58477   6.364   4.144   3.694 -0.3875  0.1004 -1.3782
  424MOL0     H58478   6.669   4.199   3.681 -1.0738  2.0899  3.2824
  424MOL0     H58479   6.605   4.075   3.780  1.4303  0.1652  0.9108
  424MOL0     H58480   6.526   4.092   3.479  0.3482 -0.8151  0.5776
  424MOL0     H58481   6.509   3.954   3.579 -1.1811 -0.6107 -3.3738
  424MOL0     H58482   6.776   4.101   3.497  0.5044  0.9562  0.5537
  424MOL0     H58483   6.690   3.976   3.402  1.9196  0.6506  0.3334
  424MOL0     H58484   6.813   3.909   3.686  1.3925 -1.6092  0.0463
  424MOL0     H58485   6.723   3.812   3.564 -0.5192  0.0541  1.2621
  424MOL0     H58486   6.988   3.965   3.496  1.1003 -0.4606 -0.3719
  424MOL0     H58487   6.897   3.846   3.401  0.3608 -2.1459  0.4595
  424MOL0     H58488   7.044   3.782   3.660  0.5246  3.3113 -0.5959
  424MOL0     H58489   7.103   3.759   3.495 -2.3816  2.7693 -3.4440
  424MOL0     H58490   7.009   3.553   3.511  1.0624  0.4209  3.1472
  424MOL0     H58491   6.849   3.639   3.494  0.6796  0.8784  0.5408
  424MOL0     H58492   6.457   4.526   3.487 -0.6827  0.5622 -2.1785
  424MOL0     H58493   6.269   4.662   3.393  0.5615 -0.2234  0.9524
  424MOL0     H58494   5.902   4.823   3.406  1.6110  1.1905 -1.0063
  424MOL0     H58495   5.763   5.001   3.295  1.9354 -0.1236  2.7344
  424MOL0     H58496   3.932   5.537   2.099 -2.0015  1.1304  2.3898
  424MOL0     H58497   3.702   5.472   2.095  1.1733 -0.5747 -2.1937
  424MOL0     H58498   3.500   5.023   2.132  0.0609 -0.6520  0.5133
  424MOL0     H58499   3.290   4.881   2.082 -1.7893 -0.7345  0.6027
  424MOL0     H58500   3.004   4.925   2.369  0.1931  2.0707  0.0454
  424MOL0     H58501   2.893   5.003   2.266  0.4416  0.0299  1.5113
  424MOL0     H58502   2.819   4.774   2.353 -3.6476 -0.9953 -1.3558
  424MOL0     H58503   2.948   4.698   2.249  2.4320  2.7002 -2.4039
  424MOL0     H58504   2.735   4.893   2.141  1.1975  1.2403 -1.3272
  424MOL0     H58505   2.852   4.794   2.045 -0.8562 -2.2981 -0.3426
  424MOL0     H58506   2.768   4.588   2.131  1.9647  0.6345 -3.1881
  424MOL0     H58507   2.664   4.670   2.017 -1.2272 -2.6863  0.2002
  424MOL0     H58508   2.411   4.638   2.360  0.3345 -0.1195 -0.8694
  424MOL0     H58509   3.065   5.133   2.336  0.1141 -1.3624  0.4203
  424MOL0     H58510   3.114   5.347   2.354  0.5016 -2.6604  1.5565
  424MOL0     H58511   3.255   5.340   2.464  1.3727  0.3111 -0.0541
  424MOL0     H58512   3.254   5.415   2.292  1.7424 -1.7561 -0.8410
  425MOL0     O58513  10.603   9.881   1.672 -0.0624  0.2177  0.1067
  425MOL0     C58514  10.526   9.940   1.744  1.6251 -0.9773  0.2047
  425MOL0     O58515  10.542  10.059   1.808  0.1229  0.8754  0.1533
  425MOL0     C58516  10.662  10.118   1.785  0.1204  0.2761 -0.0701
  425MOL0     C58517  10.694  10.199   1.673  0.1013 -0.3084 -0.0272
  425MOL0     C58518  10.812  10.255   1.661 -0.7464 -0.8331  0.3350
  425MOL0     C58519  10.905  10.244   1.768 -0.8039 -0.8025 -0.2730
  425MOL0     O58520  11.027  10.306   1.749  0.5844  0.7447  0.2600
  425MOL0     C58521  11.136  10.280   1.834 -0.0003 -0.3707 -0.2155
  425MOL0     C58522  11.230  10.393   1.814  0.2628  0.7525  0.3184
  425MOL0     C58523  11.293  10.400   1.670 -0.1317 -0.3014 -0.2540
  425MOL0     C58524  11.419  10.481   1.661  0.1714  0.6525  0.1958
  425MOL0     C58525  11.463  10.512   1.518 -0.3022 -0.3300  0.4041
  425MOL0     C58526  11.502  10.394   1.428  0.0499  0.0472 -0.8776
  425MOL0     C58527  11.659  10.365   1.456 -0.4260 -0.3575  0.6696
  425MOL0     C58528  11.765  10.468   1.399  0.3515  0.6493  0.1754
  425MOL0     N58529  11.774  10.489   1.254  0.2369 -0.1628 -0.2937
  425MOL0     C58530  11.743  10.406   1.149  0.5118 -0.2065  0.0734
  425MOL0     C58531  11.768  10.472   1.040 -0.5415 -0.3903  0.6235
  425MOL0     C58532  11.738  10.418   0.899 -0.0771  0.5470 -0.2274
  425MOL0     C58533  11.848  10.442   0.790 -0.0174 -0.5856  0.3914
  425MOL0     C58534  11.819  10.349   0.665  0.3478 -0.0012  0.1987
  425MOL0     C58535  11.909  10.404   0.547  1.1316  0.3986  0.2073
  425MOL0     O58536  11.921  10.307   0.434 -0.5037 -0.4034 -0.0728
  425MOL0     C58537  12.001  10.197   0.462 -0.2093  0.1538 -0.4450
  425MOL0     C58538  11.946  10.072   0.472  0.6191  0.5051  0.0150
  425MOL0     C58539  12.031   9.963   0.477  1.2375  0.9207 -0.2382
  425MOL0     C58540  11.966   9.825   0.475  0.2878 -0.1570  0.7102
  425MOL0     C58541  12.173   9.985   0.474 -0.3984  0.2957  0.1076
  425MOL0     C58542  12.270   9.876   0.466  0.1939  0.3433 -0.0942
  425MOL0     O58543  12.231   9.760   0.513  0.0986 -0.1588 -0.4703
  425MOL0     C58544  12.310   9.653   0.477 -0.1499  0.5787  0.0549
  425MOL0     C58545  12.328   9.550   0.571  0.6325 -0.0134  0.6148
  425MOL0     C58546  12.392   9.431   0.535 -0.4666 -0.2691  0.2615
  425MOL0     C58547  12.452   9.419   0.409 -0.7464  0.1282 -0.2892
  425MOL0     O58548  12.527   9.322   0.352  0.9746  0.7096  0.3275
  425MOL0     C58549  12.587   9.228   0.449  0.9640 -0.5199 -0.0822
  425MOL0     C58550  12.487   9.119   0.481 -0.0516 -0.0400 -0.1524
  425MOL0     C58551  12.559   9.012   0.577  0.0989 -0.0146  0.3776
  425MOL0     C58552  12.461   8.904   0.606  0.2501 -1.1396  0.7222
  425MOL0     C58553  12.426   8.819   0.483 -0.0481 -0.0883 -0.0159
  425MOL0     C58554  12.383   8.675   0.516 -0.2570 -0.7961  0.2921
  425MOL0     C58555  12.349   8.594   0.387  0.2372  0.3156 -0.7044
  425MOL0     C58556  12.311   8.453   0.434  0.2911  0.7426 -0.9873
  425MOL0    Cl58557  12.150   8.432   0.499  0.3582  0.2300  0.1360
  425MOL0     C58558  12.436   9.522   0.316 -0.8349 -0.1394 -0.5095
  425MOL0     C58559  12.360   9.637   0.352  0.2181  0.6185  0.8863
  425MOL0     O58560  12.386   9.900   0.444 -0.6305  0.3966  0.3727
  425MOL0     C58561  12.226  10.116   0.470 -0.4457 -0.8790 -0.1563
  425MOL0     C58562  12.143  10.222   0.470 -0.0499 -0.0812  1.0704
  425MOL0     N58563  11.816  10.598   1.076  0.0958  0.2360 -0.4634
  425MOL0     N58564  11.815  10.608   1.207  0.3734 -0.4814 -0.7233
  425MOL0     C58565  10.874  10.164   1.875  0.5919  1.5383  0.7496
  425MOL0     C58566  10.752  10.103   1.887 -0.7461  0.3573  0.1648
  425MOL0     C58567  10.383   9.884   1.757  0.1705 -0.2877  0.2560
  425MOL0     C58568  10.274   9.961   1.819 -0.5702 -0.4539 -0.2407
  425MOL0     C58569  10.153   9.906   1.850  0.2599  0.3981  0.0475
  425MOL0     C58570  10.118   9.778   1.814 -0.8351 -0.0182 -0.0496
  425MOL0     O58571  10.005   9.713   1.844  0.1102 -0.3754  0.4107
  425MOL0     C58572   9.901   9.791   1.909  0.0390  0.3955 -0.0124
  425MOL0     C58573   9.772   9.718   1.887 -0.1317  0.4333 -0.0478
  425MOL0     C58574   9.749   9.587   1.961  0.2202  0.2493 -0.1457
  425MOL0     C58575   9.606   9.562   2.011 -0.3094  0.3220  0.6581
  425MOL0     C58576   9.610   9.446   2.102 -1.1480 -1.0391 -0.6615
  425MOL0     C58577   9.595   9.353   2.176 -0.5223  0.7265  0.3307
  425MOL0     C58578  10.217   9.704   1.754  0.4901  0.1193  0.1174
  425MOL0     C58579  10.340   9.754   1.712 -0.7867 -0.0723  0.3909
  425MOL0     C58580  10.424   9.663   1.623  0.2696  0.0865 -0.4307
  425MOL0     H58581  10.622  10.204   1.592  1.0562  1.8687 -0.8258
  425MOL0     H58582  10.828  10.297   1.562  1.5022 -0.1111  0.9334
  425MOL0     H58583  11.186  10.186   1.814 -1.7473 -1.7872  1.6203
  425MOL0     H58584  11.101  10.294   1.937 -0.1723 -1.0894 -0.1745
  425MOL0     H58585  11.194  10.492   1.842  0.0560  1.3344 -1.8266
  425MOL0     H58586  11.314  10.382   1.883 -0.1493  1.0953  0.8830
  425MOL0     H58587  11.311  10.300   1.632 -2.7616  0.1075 -2.9564
  425MOL0     H58588  11.218  10.448   1.606 -1.4274 -1.2188  0.5216
  425MOL0     H58589  11.396  10.581   1.700  2.2633  1.1885  0.1685
  425MOL0     H58590  11.497  10.439   1.724  1.0542  0.9647 -0.6579
  425MOL0     H58591  11.547  10.582   1.512 -1.1844  1.0728  2.7088
  425MOL0     H58592  11.379  10.556   1.463 -0.9478 -1.3063  0.5888
  425MOL0     H58593  11.446  10.302   1.446  1.5645 -1.1260 -1.9624
  425MOL0     H58594  11.483  10.418   1.322 -1.8675 -1.0908 -0.8535
  425MOL0     H58595  11.691  10.272   1.408  1.0260  0.1038  0.6900
  425MOL0     H58596  11.692  10.360   1.560  2.2363  0.5384 -0.0476
  425MOL0     H58597  11.749  10.562   1.452  0.0389 -0.5656  2.3832
  425MOL0     H58598  11.866  10.440   1.430  0.1216 -0.9887 -0.4336
  425MOL0     H58599  11.714  10.302   1.139  2.6197 -0.6331 -2.8221
  425MOL0     H58600  11.643  10.459   0.863 -0.7954  1.6923  2.6259
  425MOL0     H58601  11.737  10.309   0.908  1.6436  0.6321  2.0292
  425MOL0     H58602  11.832  10.548   0.765 -0.2247 -0.1373  2.2690
  425MOL0     H58603  11.946  10.416   0.833 -0.3786 -1.5749  0.6330
  425MOL0     H58604  11.854  10.247   0.680  1.5190  0.2373 -0.8072
  425MOL0     H58605  11.713  10.349   0.641  0.5077  0.8750 -0.5350
  425MOL0     H58606  11.867  10.496   0.507  2.4299  0.8050 -0.2920
  425MOL0     H58607  12.003  10.427   0.599 -1.0793  2.1316  3.8236
  425MOL0     H58608  11.839  10.068   0.455  0.5023 -0.4222  0.8548
  425MOL0     H58609  11.996   9.772   0.384  0.7230  3.7096 -1.6437
  425MOL0     H58610  11.859   9.844   0.467  0.1892 -0.8412  0.3613
  425MOL0     H58611  11.980   9.773   0.570 -1.1483  4.0748  3.5375
  425MOL0     H58612  12.274   9.567   0.664 -1.5273  0.8392 -0.7154
  425MOL0     H58613  12.398   9.351   0.609  1.6354 -1.2805 -0.8826
  425MOL0     H58614  12.675   9.175   0.411  0.9939  0.5598 -1.6306
  425MOL0     H58615  12.614   9.288   0.536  0.6546 -0.1723 -0.2245
  425MOL0     H58616  12.399   9.167   0.526  0.7781  1.4910 -0.0695
  425MOL0     H58617  12.458   9.069   0.388 -0.8715  2.7276 -1.5042
  425MOL0     H58618  12.592   9.056   0.671 -0.1326  1.2365 -0.1020
  425MOL0     H58619  12.646   8.974   0.523 -1.2491 -0.3915 -1.6748
  425MOL0     H58620  12.371   8.944   0.655  0.2623 -2.4988  1.9352
  425MOL0     H58621  12.511   8.840   0.679  1.0294 -1.0488  0.2713
  425MOL0     H58622  12.345   8.861   0.421  1.6919  3.4478 -0.1328
  425MOL0     H58623  12.513   8.820   0.417 -0.4793  0.0173 -0.6027
  425MOL0     H58624  12.293   8.687   0.577 -0.6353  4.8373 -0.8045
  425MOL0     H58625  12.473   8.629   0.556  3.3366  2.6969 -2.7828
  425MOL0     H58626  12.442   8.590   0.329  0.3939 -1.8242 -0.3811
  425MOL0     H58627  12.269   8.634   0.323  0.4820 -0.4892 -1.5474
  425MOL0     H58628  12.388   8.417   0.502 -1.0550  0.5641  0.4831
  425MOL0     H58629  12.325   8.392   0.344 -1.7303  3.5097 -3.3614
  425MOL0     H58630  12.474   9.509   0.215 -1.9400  0.1480 -0.9771
  425MOL0     H58631  12.328   9.710   0.278 -0.3061  0.7080  1.1968
  425MOL0     H58632  12.332  10.140   0.473 -0.2204 -1.4720 -1.9313
  425MOL0     H58633  12.195  10.317   0.465  0.8250 -0.5201  1.4504
  425MOL0     H58634  10.944  10.136   1.953  0.2813  0.2653  0.5855
  425MOL0     H58635  10.735  10.034   1.968 -2.8644 -1.0584 -1.3667
  425MOL0     H58636  10.296  10.065   1.843 -1.0550 -0.2860 -0.4966
  425MOL0     H58637  10.078   9.972   1.893 -2.0153 -3.6192  3.0147
  425MOL0     H58638   9.910   9.810   2.017 -0.5357  2.9383 -0.3407
  425MOL0     H58639   9.903   9.890   1.862  1.1326  1.4173  2.0417
  425MOL0     H58640   9.763   9.706   1.779  4.7824  0.7535 -0.6923
  425MOL0     H58641   9.694   9.786   1.923 -1.6420 -0.7090 -1.0323
  425MOL0     H58642   9.779   9.508   1.892  0.8313 -1.1811  1.6483
  425MOL0     H58643   9.820   9.591   2.044  0.5043  1.1803 -0.4313
  425MOL0     H58644   9.538   9.543   1.927  0.4511  1.0858 -0.1584
  425MOL0     H58645   9.566   9.649   2.065 -2.2745 -0.5387  0.6812
  425MOL0     H58646   9.592   9.271   2.244 -3.4431  0.8092  0.4180
  425MOL0     H58647  10.189   9.599   1.742 -1.7597  0.7014 -0.3205
  425MOL0     H58648  10.498   9.615   1.688 -1.2720 -0.3396  1.0939
  425MOL0     H58649  10.368   9.584   1.572  0.7878 -0.5254 -0.0769
  425MOL0     H58650  10.473   9.723   1.545 -3.6591  1.3344 -2.1935
  426MOL0     O58651   2.286   7.284   7.224  0.0861 -0.3488 -0.2050
  426MOL0     C58652   2.315   7.396   7.191  0.6300 -0.0658  0.4151
  426MOL0     O58653   2.226   7.480   7.141  0.0476  0.1051 -0.2162
  426MOL0     C58654   2.091   7.446   7.105 -0.0805  0.4210  0.0235
  426MOL0     C58655   2.027   7.322   7.105 -0.2384 -0.4955 -1.1471
  426MOL0     C58656   1.895   7.301   7.055  0.2065 -0.0774  0.2976
  426MOL0     C58657   1.825   7.405   6.998 -0.4961 -0.3967  1.0852
  426MOL0     O58658   1.699   7.380   6.948  0.0313 -0.7248  0.2106
  426MOL0     C58659   1.658   7.477   6.851  0.2827 -0.2714  0.1340
  426MOL0     C58660   1.560   7.435   6.746 -0.1002 -0.5093 -0.1777
  426MOL0     C58661   1.429   7.387   6.807  0.1915 -1.1499  0.5508
  426MOL0     C58662   1.353   7.308   6.702  0.6099  0.2842 -0.8079
  426MOL0     C58663   1.202   7.303   6.733  0.0669 -0.1213 -0.0601
  426MOL0     C58664   1.138   7.223   6.615  1.0146  0.5542 -0.9575
  426MOL0     C58665   0.996   7.181   6.634 -0.7849 -1.0002 -0.0011
  426MOL0     C58666   0.886   7.285   6.668 -0.0221  0.6590 -0.5754
  426MOL0     N58667   0.887   7.421   6.598  0.4079  0.6250 -0.3169
  426MOL0     C58668   0.916   7.538   6.660 -0.0574 -0.3625  0.6917
  426MOL0     C58669   0.935   7.618   6.552  0.2613 -0.8796  0.6200
  426MOL0     C58670   0.975   7.761   6.542 -0.1817 -0.1147  0.3603
  426MOL0     C58671   1.130   7.773   6.518 -0.3131  0.5105 -0.0447
  426MOL0     C58672   1.205   7.726   6.651 -0.4032 -0.3318  0.1027
  426MOL0     C58673   1.350   7.766   6.650 -0.6252 -0.2703  0.6904
  426MOL0     O58674   1.418   7.757   6.777  0.6233 -0.1875  0.4878
  426MOL0     C58675   1.545   7.803   6.800 -0.5760  0.9705  0.5718
  426MOL0     C58676   1.568   7.835   6.933 -0.0582  0.0911 -0.4300
  426MOL0     C58677   1.698   7.879   6.971 -0.4652  0.0838 -0.2072
  426MOL0     C58678   1.724   7.907   7.113  0.2614  0.0192  0.5351
  426MOL0     C58679   1.806   7.885   6.874  0.9652  0.9558 -0.2419
  426MOL0     C58680   1.955   7.899   6.904  0.3253 -0.1231  0.8754
  426MOL0     O58681   2.039   7.949   6.809 -0.1158 -1.0852 -0.3446
  426MOL0     C58682   2.172   7.985   6.831  0.4558 -0.1629  0.0585
  426MOL0     C58683   2.253   7.927   6.929  0.4226 -0.3820  0.3883
  426MOL0     C58684   2.384   7.974   6.951  0.3496  0.2553  0.5033
  426MOL0     C58685   2.439   8.080   6.869  0.4413  0.7755  0.1401
  426MOL0     O58686   2.570   8.121   6.863 -0.1189 -0.7070 -0.2782
  426MOL0     C58687   2.661   8.070   6.959  0.0568 -0.9087 -0.3360
  426MOL0     C58688   2.783   8.167   6.964 -0.6482 -0.4125  0.4246
  426MOL0     C58689   2.905   8.088   7.006 -1.2623  0.1868  0.0606
  426MOL0     C58690   2.980   8.006   6.905  0.7872 -0.0976  0.3419
  426MOL0     C58691   3.075   7.907   6.973 -0.2513  0.2193  0.9489
  426MOL0     C58692   3.189   7.969   7.039  0.5071  0.9353 -0.2932
  426MOL0     C58693   3.260   7.851   7.108  0.3527 -0.4472  0.2043
  426MOL0     C58694   3.348   7.910   7.223  0.9516 -0.2268 -1.1436
  426MOL0    Cl58695   3.251   7.921   7.375 -0.3982  0.4403 -0.3433
  426MOL0     C58696   2.358   8.137   6.772  0.4481  0.0178 -0.6143
  426MOL0     C58697   2.225   8.092   6.758 -0.4404  0.4524  0.6571
  426MOL0     O58698   1.981   7.875   7.020 -0.5519 -0.0998  0.7092
  426MOL0     C58699   1.776   7.850   6.747  0.1693  0.0881 -0.1117
  426MOL0     C58700   1.646   7.812   6.710  0.4271  0.2318  0.0899
  426MOL0     N58701   0.914   7.558   6.431  0.0747 -0.0039  0.6637
  426MOL0     N58702   0.888   7.432   6.462  0.1857  0.3861  0.8797
  426MOL0     C58703   1.888   7.527   6.983  0.6316  0.0014 -0.4394
  426MOL0     C58704   2.014   7.543   7.044  0.1805 -0.1094  0.7712
  426MOL0     C58705   2.448   7.450   7.214  0.3616  1.0146 -0.0674
  426MOL0     C58706   2.493   7.569   7.149  0.9336  0.5143  0.1667
  426MOL0     C58707   2.619   7.623   7.164  0.2945 -0.8373 -0.1472
  426MOL0     C58708   2.712   7.571   7.249 -0.4219  0.9853 -0.5066
  426MOL0     O58709   2.836   7.627   7.248  0.1000 -0.2881  0.2237
  426MOL0     C58710   2.953   7.572   7.315 -0.2423  0.5840 -0.5906
  426MOL0     C58711   2.941   7.585   7.468 -0.1354  0.1643  0.5092
  426MOL0     C58712   3.052   7.507   7.551 -0.0075  0.0671  0.3504
  426MOL0     C58713   3.197   7.571   7.545  0.9062 -0.2876 -0.4070
  426MOL0     C58714   3.262   7.528   7.421  0.0875 -0.3733 -0.2134
  426MOL0     C58715   3.321   7.503   7.320 -0.3007 -0.0153 -0.1046
  426MOL0     C58716   2.671   7.453   7.320 -0.4236  0.3065  0.2794
  426MOL0     C58717   2.545   7.392   7.300  0.0707 -0.0707 -0.6996
  426MOL0     C58718   2.509   7.287   7.400  0.3030  0.3176 -0.5706
  426MOL0     H58719   2.086   7.243   7.149  0.4047  1.8051  2.5253
  426MOL0     H58720   1.841   7.207   7.042  0.5132 -0.1395 -0.5757
  426MOL0     H58721   1.745   7.498   6.787  0.1778 -3.2795 -1.2000
  426MOL0     H58722   1.619   7.564   6.904  3.1459  1.0111  0.3136
  426MOL0     H58723   1.545   7.519   6.677 -0.0433 -0.0538  0.3600
  426MOL0     H58724   1.596   7.353   6.683 -0.4905 -2.4980  2.0353
  426MOL0     H58725   1.454   7.328   6.895 -0.6741  2.3732  3.3704
  426MOL0     H58726   1.372   7.479   6.819 -1.2557 -1.0863 -4.3140
  426MOL0     H58727   1.363   7.363   6.608 -2.7918  2.4250 -0.0796
  426MOL0     H58728   1.387   7.204   6.695  1.9632  0.5988  0.3477
  426MOL0     H58729   1.162   7.404   6.743 -1.7064 -0.3280 -3.4554
  426MOL0     H58730   1.187   7.250   6.828 -1.4984 -0.5910 -0.5327
  426MOL0     H58731   1.138   7.280   6.522  3.6917 -1.6778 -2.4960
  426MOL0     H58732   1.197   7.131   6.608  2.0178  0.7031  2.8248
  426MOL0     H58733   1.001   7.110   6.716 -0.0449 -0.9941 -0.0329
  426MOL0     H58734   0.968   7.139   6.537 -1.1551  0.1783 -0.4339
  426MOL0     H58735   0.791   7.237   6.644 -0.4130 -0.2768  2.3827
  426MOL0     H58736   0.887   7.303   6.776 -2.8072 -0.9763 -0.1856
  426MOL0     H58737   0.922   7.554   6.768 -0.4263 -4.7039  1.5207
  426MOL0     H58738   0.928   7.815   6.625 -1.2162 -1.3563  0.6210
  426MOL0     H58739   0.932   7.802   6.450  1.7800 -0.9925 -1.0151
  426MOL0     H58740   1.154   7.712   6.431 -1.4176 -1.0102  0.6795
  426MOL0     H58741   1.155   7.875   6.488 -1.3152  1.1160  1.1027
  426MOL0     H58742   1.159   7.779   6.736  0.1966  1.2694 -0.5345
  426MOL0     H58743   1.192   7.618   6.655 -5.0172  0.0514  1.0838
  426MOL0     H58744   1.400   7.708   6.572  0.8569  1.3158  0.3824
  426MOL0     H58745   1.355   7.870   6.615 -0.5872 -0.4159  0.2538
  426MOL0     H58746   1.481   7.839   6.997  0.9091  1.6407  0.8693
  426MOL0     H58747   1.765   7.812   7.149 -1.2614 -0.1346  1.9788
  426MOL0     H58748   1.629   7.913   7.166 -0.1351 -2.2528  0.2097
  426MOL0     H58749   1.791   7.992   7.130 -0.2044  0.4044  0.4733
  426MOL0     H58750   2.217   7.840   6.983  2.4317 -0.7188  1.2484
  426MOL0     H58751   2.434   7.923   7.032 -0.6815  2.1918  2.4423
  426MOL0     H58752   2.615   8.054   7.057  0.5979  2.8193  0.6829
  426MOL0     H58753   2.687   7.973   6.916 -0.9781 -1.6508  0.6625
  426MOL0     H58754   2.809   8.235   6.883 -0.8855 -0.2313  0.5005
  426MOL0     H58755   2.767   8.243   7.041  0.1368  1.5916 -1.2875
  426MOL0     H58756   2.874   8.022   7.088  1.6756 -0.5729  0.6900
  426MOL0     H58757   2.969   8.162   7.057 -1.5461  2.0190 -2.0620
  426MOL0     H58758   3.036   8.078   6.844 -0.4827 -0.6579 -1.5801
  426MOL0     H58759   2.914   7.946   6.841  0.5022  0.0598  0.4842
  426MOL0     H58760   3.022   7.847   7.047  0.4293 -0.5494  0.8299
  426MOL0     H58761   3.117   7.839   6.898 -1.6688 -0.2466  0.5564
  426MOL0     H58762   3.152   8.031   7.121 -1.2619 -1.4517  0.8227
  426MOL0     H58763   3.253   8.027   6.972  2.1361 -1.0921 -0.6034
  426MOL0     H58764   3.325   7.804   7.033  0.0597 -0.4351 -0.0613
  426MOL0     H58765   3.201   7.770   7.153  0.1330 -1.1508 -1.2807
  426MOL0     H58766   3.395   8.006   7.200  0.0773  0.5908  0.3388
  426MOL0     H58767   3.428   7.840   7.248  1.4622  0.6519 -0.2346
  426MOL0     H58768   2.406   8.209   6.707 -0.4266  1.1722 -0.0326
  426MOL0     H58769   2.164   8.140   6.682  0.7178 -0.0656 -0.6622
  426MOL0     H58770   1.857   7.843   6.675  0.6953  3.4497  0.0024
  426MOL0     H58771   1.634   7.780   6.607  2.9631 -0.2264 -0.1339
  426MOL0     H58772   1.853   7.618   6.936 -0.4408 -0.1962 -0.0500
  426MOL0     H58773   2.055   7.643   7.040 -1.9317  0.8023  0.6946
  426MOL0     H58774   2.421   7.621   7.086 -0.9771 -2.8333 -0.6452
  426MOL0     H58775   2.642   7.711   7.104 -1.7154 -0.5209 -0.5241
  426MOL0     H58776   2.974   7.467   7.293 -2.4854  0.0397 -0.3795
  426MOL0     H58777   3.035   7.637   7.284  1.7171 -1.0982  0.7575
  426MOL0     H58778   2.846   7.541   7.498 -2.2735  2.2865 -2.5490
  426MOL0     H58779   2.947   7.692   7.492  0.0679  0.4048 -0.5449
  426MOL0     H58780   3.025   7.503   7.657  0.1309  3.4301  0.6329
  426MOL0     H58781   3.058   7.404   7.515  2.3228  0.1416  0.3530
  426MOL0     H58782   3.260   7.547   7.631  0.7230  1.0261  0.1164
  426MOL0     H58783   3.182   7.680   7.551  1.5680 -0.2548  4.0153
  426MOL0     H58784   3.379   7.494   7.230 -3.1271  1.2383 -2.1915
  426MOL0     H58785   2.746   7.401   7.379  2.7697  1.9546 -2.0453
  426MOL0     H58786   2.496   7.187   7.358 -0.0542  1.4686 -3.3912
  426MOL0     H58787   2.583   7.283   7.481 -0.9354  2.9070  0.8240
  426MOL0     H58788   2.413   7.319   7.441  0.4108  1.9926 -1.5400
  427MOL0     O58789   5.080   8.958   8.495  1.4104 -0.5814 -0.3776
  427MOL0     C58790   5.113   9.073   8.529  0.1644  0.7525 -0.9246
  427MOL0     O58791   5.240   9.121   8.544 -0.2184 -0.3423  0.2203
  427MOL0     C58792   5.336   9.035   8.594  0.0109 -0.9576 -0.1977
  427MOL0     C58793   5.312   8.965   8.708 -0.3712  0.8864 -1.1048
  427MOL0     C58794   5.406   8.873   8.769  0.2131 -0.7825  0.3292
  427MOL0     C58795   5.530   8.843   8.709 -0.3697  0.0194  0.8481
  427MOL0     O58796   5.623   8.746   8.751 -0.3441 -0.7031 -0.4522
  427MOL0     C58797   5.575   8.672   8.860  0.5528  0.7679 -0.8243
  427MOL0     C58798   5.696   8.579   8.906  1.0038 -0.4924  0.3531
  427MOL0     C58799   5.821   8.677   8.942 -0.5398 -0.3964 -0.4026
  427MOL0     C58800   5.928   8.631   9.036  0.9360  0.5013  1.0140
  427MOL0     C58801   5.993   8.747   9.112 -0.0696 -0.1741  0.4221
  427MOL0     C58802   6.107   8.717   9.210 -0.7429 -0.3914 -0.0708
  427MOL0     C58803   6.238   8.686   9.134  0.3002 -0.2779  0.4022
  427MOL0     C58804   6.349   8.618   9.216  0.2885  0.1757  0.0498
  427MOL0     N58805   6.478   8.608   9.144  0.3980  0.0006 -0.1443
  427MOL0     C58806   6.600   8.642   9.193  0.6298  0.7293  0.6482
  427MOL0     C58807   6.690   8.600   9.103 -0.6028 -0.1476  0.8978
  427MOL0     C58808   6.839   8.603   9.118  0.2217 -0.3408  0.0398
  427MOL0     C58809   6.911   8.552   8.997  0.2756  0.0938  0.5572
  427MOL0     C58810   6.870   8.609   8.860  0.2518 -0.9969  0.1508
  427MOL0     C58811   6.884   8.764   8.848 -0.2992 -0.0489  0.2410
  427MOL0     O58812   7.013   8.807   8.887 -0.3986 -0.3667 -0.8232
  427MOL0     C58813   7.133   8.804   8.812 -0.1698  0.4196  0.4409
  427MOL0     C58814   7.158   8.734   8.689  0.1184  0.1687 -0.1110
  427MOL0     C58815   7.278   8.733   8.630 -0.6426  0.2420  0.7608
  427MOL0     C58816   7.305   8.629   8.529 -0.1906  0.3451 -0.3414
  427MOL0     C58817   7.384   8.813   8.677 -0.0285 -0.5416 -0.4212
  427MOL0     C58818   7.526   8.817   8.616  0.3827  0.1313  0.2834
  427MOL0     O58819   7.610   8.894   8.691 -0.1542  0.3091 -0.4249
  427MOL0     C58820   7.737   8.929   8.637 -0.4641 -0.0120  0.1079
  427MOL0     C58821   7.777   8.959   8.505 -0.2230  0.1823 -0.0696
  427MOL0     C58822   7.903   9.012   8.477 -0.3987  0.0551  0.2803
  427MOL0     C58823   8.002   9.026   8.574  0.1454 -0.0047  0.7868
  427MOL0     O58824   8.126   9.073   8.557  0.9086 -0.1375  0.0346
  427MOL0     C58825   8.127   9.214   8.527 -0.4728 -1.2185 -0.1521
  427MOL0     C58826   8.271   9.255   8.504  0.3138  0.8730 -0.0608
  427MOL0     C58827   8.314   9.209   8.364 -0.4381  0.3167  0.5309
  427MOL0     C58828   8.454   9.241   8.320 -0.5563  0.6128 -0.5337
  427MOL0     C58829   8.477   9.198   8.180 -0.4365  0.5909  0.3451
  427MOL0     C58830   8.610   9.238   8.135 -0.5879 -0.0302 -0.2790
  427MOL0     C58831   8.634   9.229   7.983 -0.0829 -0.1856  0.0313
  427MOL0     C58832   8.778   9.236   7.950 -0.0466  0.3303  0.2064
  427MOL0    Cl58833   8.844   9.073   7.984 -0.2563 -0.2755  0.0500
  427MOL0     C58834   7.964   8.997   8.705  0.3106  0.3298 -0.2001
  427MOL0     C58835   7.834   8.954   8.734 -0.5203  0.8467 -0.7609
  427MOL0     O58836   7.554   8.759   8.512  0.1626  0.2285  0.5533
  427MOL0     C58837   7.361   8.876   8.794 -0.1826  0.9056 -0.1083
  427MOL0     C58838   7.239   8.868   8.864  0.3537  0.3845 -0.0119
  427MOL0     N58839   6.618   8.528   9.007 -0.1699 -0.0551  0.4922
  427MOL0     N58840   6.492   8.530   9.028 -0.7200 -0.2604  0.1196
  427MOL0     C58841   5.553   8.914   8.579 -0.8118  0.8365 -0.7873
  427MOL0     C58842   5.458   9.011   8.527 -0.4466  1.1365  0.0204
  427MOL0     C58843   5.013   9.172   8.534  0.2237  0.0972  0.8714
  427MOL0     C58844   4.882   9.130   8.495 -0.7023  0.4355 -0.2796
  427MOL0     C58845   4.769   9.212   8.499 -0.0082  0.4623  0.1432
  427MOL0     C58846   4.780   9.344   8.544 -0.0317 -0.2082 -0.4831
  427MOL0     O58847   4.686   9.439   8.550  1.1734 -0.2770  0.5045
  427MOL0     C58848   4.550   9.399   8.523 -0.1394 -0.0955 -0.0457
  427MOL0     C58849   4.465   9.481   8.623 -0.8676  0.1905  0.6626
  427MOL0     C58850   4.319   9.451   8.586 -0.0031 -0.5842  0.7858
  427MOL0     C58851   4.220   9.507   8.690  0.6969  1.1128  0.1263
  427MOL0     C58852   4.085   9.436   8.691  0.3338 -0.2300 -0.3743
  427MOL0     C58853   3.980   9.374   8.679 -0.1166 -0.2034 -1.2467
  427MOL0     C58854   4.909   9.394   8.570 -0.8263  0.3974  0.1091
  427MOL0     C58855   5.018   9.311   8.560  0.1720  0.4061  0.4262
  427MOL0     C58856   5.159   9.376   8.568  0.3433  0.0071  0.0789
  427MOL0     H58857   5.228   8.972   8.777  1.3610 -0.7879  1.3722
  427MOL0     H58858   5.372   8.823   8.859 -0.6055 -0.0502  0.4373
  427MOL0     H58859   5.490   8.613   8.823 -0.0420  1.5559 -0.7337
  427MOL0     H58860   5.542   8.729   8.947 -1.5776 -2.6236  0.8196
  427MOL0     H58861   5.668   8.523   8.996 -2.1913  0.1310 -0.1569
  427MOL0     H58862   5.722   8.507   8.827 -0.9979  1.1492 -1.9390
  427MOL0     H58863   5.856   8.712   8.845  1.3160  0.1154  0.4155
  427MOL0     H58864   5.770   8.755   9.000 -2.2772 -2.2010  0.6256
  427MOL0     H58865   5.899   8.551   9.105 -1.0112 -1.9415 -2.3072
  427MOL0     H58866   5.999   8.592   8.963 -1.2982  0.3303 -1.1770
  427MOL0     H58867   5.919   8.810   9.163 -0.0352  1.2613 -1.1993
  427MOL0     H58868   6.031   8.820   9.039 -0.6765  2.0815  2.2173
  427MOL0     H58869   6.129   8.805   9.272 -1.1789 -1.2274  1.3143
  427MOL0     H58870   6.089   8.638   9.283  0.2919 -2.4592 -1.9389
  427MOL0     H58871   6.283   8.776   9.090 -0.2402 -0.3588 -0.3372
  427MOL0     H58872   6.228   8.618   9.049  2.5825 -1.9878  1.3946
  427MOL0     H58873   6.359   8.671   9.311 -1.0249 -0.8345  0.7807
  427MOL0     H58874   6.307   8.518   9.225 -0.9625  0.5305 -1.3348
  427MOL0     H58875   6.621   8.689   9.288  3.2847 -0.6886  0.8616
  427MOL0     H58876   6.870   8.540   9.202 -0.4170 -0.9995 -0.2109
  427MOL0     H58877   6.867   8.705   9.147 -1.9115  0.4290 -0.3789
  427MOL0     H58878   7.016   8.576   9.014  0.0086  1.4875  0.3533
  427MOL0     H58879   6.895   8.444   8.989 -0.4221  0.2988 -5.4404
  427MOL0     H58880   6.938   8.564   8.787  1.1619 -0.4671  0.6568
  427MOL0     H58881   6.768   8.585   8.828 -0.9895  1.7781  1.6419
  427MOL0     H58882   6.862   8.792   8.745 -1.4335 -0.5506  0.3283
  427MOL0     H58883   6.808   8.818   8.905  0.8410  1.0388  0.7786
  427MOL0     H58884   7.077   8.672   8.653  0.3301 -0.7391  0.9045
  427MOL0     H58885   7.323   8.663   8.427 -1.1727  0.6239 -0.4301
  427MOL0     H58886   7.225   8.554   8.521  0.7353 -0.8407  0.9026
  427MOL0     H58887   7.391   8.568   8.560 -0.7678 -0.7360 -0.8284
  427MOL0     H58888   7.717   8.951   8.414 -1.4291  2.6691  0.4193
  427MOL0     H58889   7.929   9.035   8.373  3.3180 -1.0702  0.7897
  427MOL0     H58890   8.064   9.234   8.440  2.4555 -0.2805 -2.2521
  427MOL0     H58891   8.083   9.273   8.608  1.1695 -0.9983  0.6275
  427MOL0     H58892   8.293   9.361   8.516 -0.5161  1.5244 -3.3541
  427MOL0     H58893   8.331   9.198   8.576 -0.8466 -2.2935 -1.4092
  427MOL0     H58894   8.237   9.246   8.295 -1.9977 -0.7004  1.6476
  427MOL0     H58895   8.322   9.100   8.364  1.6708  0.4343 -0.1829
  427MOL0     H58896   8.518   9.192   8.394 -3.1035  0.3958  1.6788
  427MOL0     H58897   8.470   9.349   8.328 -0.7193  0.5354  0.9464
  427MOL0     H58898   8.487   9.089   8.177 -0.0211  0.6104  0.9368
  427MOL0     H58899   8.404   9.231   8.105 -0.2637 -0.3601 -0.2652
  427MOL0     H58900   8.683   9.182   8.195  0.0996  2.2759  1.2078
  427MOL0     H58901   8.609   9.342   8.171  0.5286 -0.2109  0.3326
  427MOL0     H58902   8.579   9.303   7.924  0.5304 -0.1199 -0.4749
  427MOL0     H58903   8.590   9.135   7.950  1.0217 -1.8443  2.9197
  427MOL0     H58904   8.829   9.309   8.014 -0.4045 -0.2314  1.1508
  427MOL0     H58905   8.794   9.270   7.847 -0.0168  2.9558  0.9927
  427MOL0     H58906   8.033   9.016   8.787  0.3095  0.4667 -0.2304
  427MOL0     H58907   7.803   8.948   8.837 -0.6232  1.9818 -0.7172
  427MOL0     H58908   7.438   8.925   8.853 -2.7119  2.2207  2.3437
  427MOL0     H58909   7.225   8.920   8.959 -1.7825  1.9260 -1.0678
  427MOL0     H58910   5.651   8.899   8.537 -0.7824  2.0863 -1.2253
  427MOL0     H58911   5.481   9.057   8.431 -0.4216  1.1663  0.0412
  427MOL0     H58912   4.861   9.031   8.456 -0.1964 -0.7891  2.3085
  427MOL0     H58913   4.677   9.177   8.453 -1.7967  4.9053 -0.1699
  427MOL0     H58914   4.523   9.424   8.420 -1.8479 -1.9718 -0.0964
  427MOL0     H58915   4.524   9.299   8.559 -1.1139 -0.0754 -0.6762
  427MOL0     H58916   4.491   9.586   8.605 -0.1027 -0.4960 -2.7583
  427MOL0     H58917   4.485   9.444   8.724  0.1686  1.6252  1.0245
  427MOL0     H58918   4.303   9.494   8.486  0.4667 -3.2706 -0.5470
  427MOL0     H58919   4.305   9.343   8.580 -1.8076 -0.3344 -0.2575
  427MOL0     H58920   4.214   9.616   8.683  1.8031  1.3602  2.1607
  427MOL0     H58921   4.271   9.485   8.784  1.3824 -2.0252 -0.8586
  427MOL0     H58922   3.899   9.304   8.686 -0.4263  0.2599 -0.0878
  427MOL0     H58923   4.909   9.502   8.580 -1.4107  0.1711  3.4070
  427MOL0     H58924   5.212   9.359   8.473 -0.8571 -2.2787 -0.2707
  427MOL0     H58925   5.151   9.485   8.570 -1.2887 -0.0506 -0.9500
  427MOL0     H58926   5.220   9.335   8.649  1.4073  2.2171  0.4586
  428MOL0     O58927   8.177   3.040   1.367  0.2291 -0.0529  0.2731
  428MOL0     C58928   8.125   3.120   1.444  0.6204 -0.2045  0.3697
  428MOL0     O58929   8.197   3.209   1.513  0.3352 -0.4084  0.2811
  428MOL0     C58930   8.335   3.209   1.500  0.1008  0.3420 -1.4818
  428MOL0     C58931   8.402   3.235   1.381  0.2498  1.0945  0.3247
  428MOL0     C58932   8.543   3.243   1.378  0.0062  0.2596 -0.1188
  428MOL0     C58933   8.622   3.218   1.481 -0.1205  0.0337 -0.0458
  428MOL0     O58934   8.759   3.230   1.465 -0.1284  0.5372 -0.1351
  428MOL0     C58935   8.844   3.249   1.585  0.6678  0.0117  0.3229
  428MOL0     C58936   8.972   3.320   1.569 -0.5876 -0.3283 -0.2253
  428MOL0     C58937   8.979   3.437   1.460  0.2415  0.6428 -0.0695
  428MOL0     C58938   9.113   3.466   1.397 -0.3123  0.2066  0.9725
  428MOL0     C58939   9.210   3.502   1.507  0.0329 -0.5971 -0.1079
  428MOL0     C58940   9.344   3.556   1.440  0.3148  0.1926 -0.4320
  428MOL0     C58941   9.426   3.642   1.541  0.2429 -0.5973  0.3113
  428MOL0     C58942   9.540   3.722   1.453  0.0655 -0.3986 -1.0069
  428MOL0     N58943   9.619   3.813   1.536  0.5230 -0.6121 -0.1495
  428MOL0     C58944   9.567   3.900   1.637 -0.2793  0.0810 -0.2350
  428MOL0     C58945   9.671   3.980   1.679 -0.5816 -0.4811  0.3917
  428MOL0     C58946   9.678   4.100   1.769 -0.3555 -0.2109  0.0985
  428MOL0     C58947   9.657   4.085   1.909 -0.2887  0.9159 -0.5035
  428MOL0     C58948   9.515   4.022   1.959 -0.1562 -0.1636 -0.5523
  428MOL0     C58949   9.515   4.019   2.115 -0.1030  0.1321  0.1954
  428MOL0     O58950   9.537   4.153   2.164 -0.3948  0.1732  0.7213
  428MOL0     C58951   9.538   4.164   2.297  0.0752  1.0483  0.2625
  428MOL0     C58952   9.602   4.270   2.357 -0.5027 -0.7034  0.1671
  428MOL0     C58953   9.601   4.301   2.492 -0.7422 -0.0580 -0.1485
  428MOL0     C58954   9.677   4.423   2.540 -0.2726 -0.5465  0.4463
  428MOL0     C58955   9.524   4.218   2.576 -1.0196  0.3203  0.2153
  428MOL0     C58956   9.526   4.225   2.720 -0.6145 -0.9538 -0.8695
  428MOL0     O58957   9.418   4.161   2.779  0.2664  0.1560  0.0050
  428MOL0     C58958   9.412   4.179   2.915 -0.5089  0.3606 -0.1820
  428MOL0     C58959   9.331   4.278   2.966 -0.8509 -0.0752  0.0919
  428MOL0     C58960   9.305   4.290   3.100  0.5845  0.8701  0.1111
  428MOL0     C58961   9.364   4.207   3.190  0.0973  0.8337 -0.6016
  428MOL0     O58962   9.345   4.207   3.327 -0.2576  1.4065 -0.5583
  428MOL0     C58963   9.220   4.147   3.371 -0.0572  0.3649 -0.1651
  428MOL0     C58964   9.167   4.225   3.489 -0.0713  0.2137  0.2085
  428MOL0     C58965   9.024   4.181   3.536 -0.3246  1.0117 -0.5296
  428MOL0     C58966   8.959   4.281   3.632 -0.4135  0.0769  0.1477
  428MOL0     C58967   8.830   4.227   3.661 -0.5418 -0.0534  0.1841
  428MOL0     C58968   8.765   4.309   3.777 -0.2129  0.8127  0.5759
  428MOL0     C58969   8.699   4.440   3.730 -1.2061 -0.0308  0.4121
  428MOL0     C58970   8.626   4.520   3.840 -0.0065 -0.4443  0.3824
  428MOL0    Cl58971   8.747   4.600   3.943  0.0565 -0.3970  0.3338
  428MOL0     C58972   9.453   4.111   3.148  0.2822 -0.0760  0.6502
  428MOL0     C58973   9.471   4.095   3.010  0.1446 -0.6864  0.7400
  428MOL0     O58974   9.621   4.270   2.780 -0.0294 -0.0964  0.0235
  428MOL0     C58975   9.450   4.113   2.513 -0.4494  0.0103 -0.3282
  428MOL0     C58976   9.454   4.088   2.374  0.5116 -0.2176 -0.0123
  428MOL0     N58977   9.789   3.924   1.620 -0.3188 -0.8773  0.7194
  428MOL0     N58978   9.753   3.840   1.532 -0.5860  0.8952  0.4030
  428MOL0     C58979   8.557   3.185   1.606  0.2411  0.7855  0.4463
  428MOL0     C58980   8.413   3.186   1.610  0.0225  0.4977  0.6645
  428MOL0     C58981   7.979   3.118   1.456 -0.5728 -0.3732  0.7701
  428MOL0     C58982   7.927   3.193   1.566 -0.5174  0.7160  1.1697
  428MOL0     C58983   7.790   3.183   1.603  0.0474 -0.7074  0.1649
  428MOL0     C58984   7.699   3.096   1.537 -0.3479 -0.9885 -0.1087
  428MOL0     O58985   7.571   3.098   1.591 -0.1040  0.2070  0.0074
  428MOL0     C58986   7.481   3.002   1.548  0.0817 -0.2068  0.8656
  428MOL0     C58987   7.483   2.872   1.627  0.3399  0.5471  0.2644
  428MOL0     C58988   7.511   2.873   1.776 -0.1021  0.3536  0.0664
  428MOL0     C58989   7.472   2.737   1.838  0.0506  0.2977 -1.1681
  428MOL0     C58990   7.336   2.744   1.873  0.2411 -0.7349 -0.1931
  428MOL0     C58991   7.226   2.786   1.903 -0.2644  0.6679 -1.0376
  428MOL0     C58992   7.747   3.014   1.435 -0.6059 -0.0731 -0.3789
  428MOL0     C58993   7.882   3.024   1.397 -0.6508 -0.7660  0.4470
  428MOL0     C58994   7.918   2.920   1.294  0.2776  0.0606 -0.3403
  428MOL0     H58995   8.347   3.261   1.292  2.2085  2.3055 -0.6042
  428MOL0     H58996   8.593   3.280   1.288  0.6020  1.1706  0.5593
  428MOL0     H58997   8.860   3.153   1.634  1.8608 -0.4809 -0.9878
  428MOL0     H58998   8.792   3.307   1.662 -1.3326  1.1346 -1.7255
  428MOL0     H58999   9.006   3.354   1.667  2.0365 -1.5754 -0.6197
  428MOL0     H59000   9.043   3.242   1.540 -1.3775 -1.2403  0.2377
  428MOL0     H59001   8.909   3.412   1.380  1.6922 -0.0154 -1.1672
  428MOL0     H59002   8.943   3.531   1.503 -2.1912 -0.2618  0.0410
  428MOL0     H59003   9.154   3.386   1.333 -2.4505 -0.0815 -0.1181
  428MOL0     H59004   9.102   3.546   1.324 -0.2532 -2.2514 -1.9579
  428MOL0     H59005   9.236   3.416   1.570  3.3022  0.5870  0.2968
  428MOL0     H59006   9.171   3.588   1.561 -0.4238 -0.4719 -0.6174
  428MOL0     H59007   9.407   3.468   1.421 -0.4545 -1.7591  4.5835
  428MOL0     H59008   9.318   3.602   1.344 -3.5581 -2.6016 -0.9569
  428MOL0     H59009   9.474   3.590   1.625  1.7406 -0.8842 -0.6809
  428MOL0     H59010   9.361   3.718   1.585 -0.8923 -2.7671  2.6437
  428MOL0     H59011   9.618   3.661   1.407 -1.1184 -1.3333 -1.8386
  428MOL0     H59012   9.491   3.775   1.370  0.4331  1.1643 -0.2733
  428MOL0     H59013   9.467   3.906   1.679  0.9175  1.5286  2.7911
  428MOL0     H59014   9.625   4.187   1.730  3.5834  1.7203 -1.5414
  428MOL0     H59015   9.780   4.136   1.754 -1.5189  3.5227  0.1962
  428MOL0     H59016   9.730   4.014   1.947 -2.1720 -0.2997  1.0463
  428MOL0     H59017   9.664   4.183   1.957  1.1292 -0.4026  2.2238
  428MOL0     H59018   9.431   4.087   1.933 -0.9141 -0.5425  0.8229
  428MOL0     H59019   9.510   3.919   1.923  1.7338 -0.0636 -1.2118
  428MOL0     H59020   9.419   3.976   2.146  0.4584 -0.4359  1.1936
  428MOL0     H59021   9.596   3.955   2.150 -1.2817 -1.4285  0.1624
  428MOL0     H59022   9.648   4.337   2.284 -2.0281 -1.4735 -1.5832
  428MOL0     H59023   9.678   4.497   2.459  2.9501  0.2625  1.0843
  428MOL0     H59024   9.779   4.402   2.574 -0.3402  0.3304  1.2497
  428MOL0     H59025   9.629   4.474   2.624 -0.0053  0.6023 -0.0758
  428MOL0     H59026   9.274   4.344   2.901 -1.9193 -2.8493 -1.9901
  428MOL0     H59027   9.233   4.366   3.128 -0.1338  0.3472 -0.2934
  428MOL0     H59028   9.136   4.164   3.302 -1.5193 -0.6363  1.2747
  428MOL0     H59029   9.231   4.044   3.406  1.1410  0.7178  0.5336
  428MOL0     H59030   9.228   4.200   3.577 -0.9767  0.4975  0.9286
  428MOL0     H59031   9.163   4.332   3.467  0.9452 -0.0244 -1.2730
  428MOL0     H59032   9.046   4.083   3.578 -3.0365 -1.5764 -4.4022
  428MOL0     H59033   8.957   4.159   3.451 -1.0068 -0.2071  0.2948
  428MOL0     H59034   8.939   4.375   3.580  0.5567 -1.0618 -2.4633
  428MOL0     H59035   9.024   4.295   3.719  1.1439 -1.9731 -0.5860
  428MOL0     H59036   8.769   4.249   3.572  1.1087  2.8816 -0.3624
  428MOL0     H59037   8.846   4.129   3.705 -1.7785  0.8718  2.9281
  428MOL0     H59038   8.837   4.323   3.859 -0.6924 -0.7020  1.2997
  428MOL0     H59039   8.689   4.253   3.831 -1.6115 -1.0072 -2.9913
  428MOL0     H59040   8.632   4.409   3.650 -1.7242  2.0539 -0.0153
  428MOL0     H59041   8.773   4.499   3.675  0.4915 -2.5506 -0.2009
  428MOL0     H59042   8.585   4.443   3.906  1.2883 -2.6758 -1.2836
  428MOL0     H59043   8.549   4.586   3.798  0.6188  0.4100  0.5605
  428MOL0     H59044   9.510   4.048   3.216  1.0286 -1.0703 -0.8387
  428MOL0     H59045   9.532   4.011   2.976  0.8610 -0.1370  0.6572
  428MOL0     H59046   9.384   4.051   2.573  1.9256  1.1029  3.7944
  428MOL0     H59047   9.381   4.018   2.334 -1.2247 -0.2948  2.9563
  428MOL0     H59048   8.610   3.163   1.698  0.2782  0.9133  0.4570
  428MOL0     H59049   8.361   3.180   1.705 -1.3787  0.7574 -0.0605
  428MOL0     H59050   7.986   3.259   1.629  0.4293  1.4728 -0.4748
  428MOL0     H59051   7.749   3.247   1.681 -1.7039 -0.6539 -0.7460
  428MOL0     H59052   7.380   3.041   1.564  0.3392  0.5577  0.6974
  428MOL0     H59053   7.484   2.986   1.440  1.0794  0.1488  0.8236
  428MOL0     H59054   7.554   2.801   1.583  0.7100  1.7651 -1.1711
  428MOL0     H59055   7.382   2.833   1.611 -0.2925  2.2334 -0.0521
  428MOL0     H59056   7.621   2.874   1.778 -0.1051 -0.3224  0.6434
  428MOL0     H59057   7.465   2.961   1.823  0.0897  1.4180 -1.6236
  428MOL0     H59058   7.528   2.729   1.932 -1.4814  1.7627 -0.0707
  428MOL0     H59059   7.489   2.644   1.783 -1.1507 -0.9608  0.4657
  428MOL0     H59060   7.137   2.840   1.930 -0.1690  0.4833 -0.3174
  428MOL0     H59061   7.684   2.942   1.385 -0.6764 -1.3582  1.4731
  428MOL0     H59062   8.021   2.883   1.293 -0.7049 -2.9566 -0.6227
  428MOL0     H59063   7.853   2.835   1.314 -0.2192  0.2908 -0.9496
  428MOL0     H59064   7.893   2.959   1.194 -2.2399 -1.7602 -0.4965
  429MOL0     O59065   1.703   5.526  11.426  0.5233  0.5520 -0.0408
  429MOL0     C59066   1.659   5.452  11.333 -1.1319 -0.4867 -0.3934
  429MOL0     O59067   1.733   5.350  11.270  0.2492  0.2158  0.2931
  429MOL0     C59068   1.861   5.327  11.315 -1.0498 -0.9549 -0.0365
  429MOL0     C59069   1.964   5.414  11.278  0.5259  0.2048 -0.6054
  429MOL0     C59070   2.095   5.393  11.330 -0.1519 -0.9667  0.8451
  429MOL0     C59071   2.127   5.280  11.402 -1.2656  1.2507 -0.9634
  429MOL0     O59072   2.258   5.247  11.434  0.0692  0.3560  0.6194
  429MOL0     C59073   2.370   5.334  11.429 -0.0051  1.1201  0.6128
  429MOL0     C59074   2.449   5.328  11.293  0.7071  0.5267  0.3178
  429MOL0     C59075   2.462   5.183  11.246 -1.6265  0.0304  0.8218
  429MOL0     C59076   2.564   5.165  11.129  0.3690  0.6603 -0.2245
  429MOL0     C59077   2.704   5.151  11.181 -0.1978  0.2516 -0.5717
  429MOL0     C59078   2.808   5.174  11.072  0.0363 -0.4152 -0.3514
  429MOL0     C59079   2.949   5.146  11.130 -0.0231 -0.2031  0.2712
  429MOL0     C59080   3.049   5.140  11.016  0.0814  0.5434 -0.6176
  429MOL0     N59081   3.181   5.135  11.071 -0.2887  0.3568 -0.4708
  429MOL0     C59082   3.251   5.249  11.110  1.0955 -0.1941  0.1767
  429MOL0     C59083   3.368   5.191  11.153 -0.7832  0.3851  0.5321
  429MOL0     C59084   3.487   5.272  11.177  0.8914 -0.9280 -0.3924
  429MOL0     C59085   3.620   5.197  11.164  0.0498 -0.0713 -0.0060
  429MOL0     C59086   3.731   5.292  11.222 -0.2071  0.3769 -0.3429
  429MOL0     C59087   3.870   5.243  11.190 -0.3413 -0.3827 -0.1067
  429MOL0     O59088   3.955   5.355  11.215  0.0630  0.3133 -0.2402
  429MOL0     C59089   4.087   5.338  11.185  0.1684 -0.5609  0.7271
  429MOL0     C59090   4.142   5.465  11.147 -0.4847  0.3755 -0.9173
  429MOL0     C59091   4.284   5.468  11.123  0.6837  0.1492  0.1668
  429MOL0     C59092   4.346   5.597  11.077  0.2075  0.7617 -0.4454
  429MOL0     C59093   4.363   5.351  11.130 -0.1381 -0.1340  0.6413
  429MOL0     C59094   4.506   5.351  11.105 -0.1834 -0.1153 -0.5112
  429MOL0     O59095   4.553   5.233  11.076 -0.0030  0.3504 -0.0237
  429MOL0     C59096   4.679   5.218  11.044 -1.0969 -0.4374  0.0083
  429MOL0     C59097   4.708   5.213  10.901 -0.2812  0.4176 -0.3611
  429MOL0     C59098   4.838   5.221  10.858 -0.7897 -0.6955  0.4790
  429MOL0     C59099   4.945   5.226  10.951 -0.5320 -0.5170  0.6100
  429MOL0     O59100   5.072   5.241  10.903  0.5147  0.3971  0.4750
  429MOL0     C59101   5.160   5.141  10.952 -0.3075 -0.3071  0.1916
  429MOL0     C59102   5.301   5.185  10.911  0.1630 -0.1789 -0.3718
  429MOL0     C59103   5.343   5.296  11.008  0.3361  0.2251 -0.0854
  429MOL0     C59104   5.474   5.365  10.967  0.2732 -0.1909 -0.0821
  429MOL0     C59105   5.532   5.453  11.072  0.2113 -0.5225  0.4854
  429MOL0     C59106   5.607   5.380  11.190  0.2311  1.6481  0.0426
  429MOL0     C59107   5.737   5.315  11.148  0.6707 -0.1140  0.7870
  429MOL0     C59108   5.796   5.228  11.253 -0.6943  0.2450  0.0542
  429MOL0    Cl59109   5.946   5.160  11.201 -0.0306  0.6133  0.3029
  429MOL0     C59110   4.925   5.224  11.087  0.8829  1.0797 -0.2075
  429MOL0     C59111   4.791   5.223  11.132 -0.6035  0.0726  0.2416
  429MOL0     O59112   4.577   5.451  11.127  0.6706 -0.0132 -0.0082
  429MOL0     C59113   4.300   5.225  11.153 -0.6592 -0.1532 -0.0092
  429MOL0     C59114   4.165   5.217  11.184  0.1042 -0.0386 -0.0366
  429MOL0     N59115   3.367   5.054  11.142  0.2780 -0.2150 -0.1511
  429MOL0     N59116   3.249   5.025  11.098  0.1382  0.6437  0.2619
  429MOL0     C59117   2.025   5.182  11.421 -0.0654  0.2468 -0.0616
  429MOL0     C59118   1.893   5.210  11.377 -0.3162  0.5001  0.4211
  429MOL0     C59119   1.521   5.481  11.288 -0.3834  0.2331  0.7262
  429MOL0     C59120   1.492   5.446  11.151 -0.4113 -0.4102 -0.2535
  429MOL0     C59121   1.372   5.471  11.101  0.5327 -0.0289 -0.2995
  429MOL0     C59122   1.271   5.537  11.173 -0.0487 -0.5057 -0.0950
  429MOL0     O59123   1.150   5.577  11.122 -0.1467 -0.4592  0.3087
  429MOL0     C59124   1.121   5.582  10.982  0.6390 -0.2615  0.3496
  429MOL0     C59125   0.998   5.678  10.956 -0.2911  0.9136 -0.2858
  429MOL0     C59126   0.964   5.668  10.807 -0.0536 -0.0404 -0.2467
  429MOL0     C59127   0.835   5.746  10.786 -0.3018  0.2103 -0.2618
  429MOL0     C59128   0.811   5.747  10.641 -0.4244 -0.0957  0.3944
  429MOL0     C59129   0.800   5.736  10.522 -0.3577  0.9518 -1.4582
  429MOL0     C59130   1.298   5.571  11.304 -0.7139  0.3867  0.3741
  429MOL0     C59131   1.421   5.553  11.369 -0.0932 -0.0877 -0.3554
  429MOL0     C59132   1.434   5.587  11.519 -0.7287 -0.1823  0.4191
  429MOL0     H59133   1.958   5.500  11.213  2.9314  2.7348  2.2501
  429MOL0     H59134   2.180   5.452  11.298  0.3943 -0.9789  2.1983
  429MOL0     H59135   2.437   5.282  11.499 -1.7795 -2.2196  0.0404
  429MOL0     H59136   2.355   5.434  11.471 -0.2802  1.3233  0.0405
  429MOL0     H59137   2.403   5.387  11.214  0.3555 -0.9896 -0.6487
  429MOL0     H59138   2.549   5.366  11.317  0.7601  1.5206 -1.3478
  429MOL0     H59139   2.493   5.122  11.331  0.0485  1.9919  1.6886
  429MOL0     H59140   2.366   5.146  11.208 -1.0409  0.0532 -0.7628
  429MOL0     H59141   2.541   5.076  11.069  1.9166  0.0296  0.0836
  429MOL0     H59142   2.555   5.243  11.053 -1.6233 -1.0545 -1.8889
  429MOL0     H59143   2.719   5.051  11.223 -2.2482 -0.5361 -1.6153
  429MOL0     H59144   2.721   5.228  11.256  0.7427 -0.0194 -0.4933
  429MOL0     H59145   2.785   5.106  10.989  0.4185  1.8598 -2.4449
  429MOL0     H59146   2.805   5.276  11.033  0.3796 -0.3880 -0.3141
  429MOL0     H59147   2.940   5.047  11.176 -0.1394 -0.5692 -0.5211
  429MOL0     H59148   2.976   5.221  11.205  0.7254  2.0500 -2.0734
  429MOL0     H59149   3.034   5.046  10.963  0.2761 -0.5399  1.1491
  429MOL0     H59150   3.038   5.214  10.937 -0.9620  0.4819 -0.5355
  429MOL0     H59151   3.222   5.353  11.114 -0.1284 -0.5557  1.4765
  429MOL0     H59152   3.480   5.306  11.281 -1.9789  0.4785 -0.9538
  429MOL0     H59153   3.492   5.351  11.101  1.1851 -1.8201 -1.3186
  429MOL0     H59154   3.620   5.100  11.214 -0.8525 -1.3227 -2.2790
  429MOL0     H59155   3.625   5.184  11.056  0.6364  1.1450 -0.1448
  429MOL0     H59156   3.725   5.389  11.172  0.4416  1.1928  1.0948
  429MOL0     H59157   3.721   5.303  11.331 -1.4012  0.0643 -0.4110
  429MOL0     H59158   3.901   5.160  11.255 -0.0161 -1.3394 -1.4476
  429MOL0     H59159   3.885   5.200  11.091 -0.5431 -1.4990  0.3319
  429MOL0     H59160   4.083   5.555  11.137 -3.0700 -0.9777  1.1475
  429MOL0     H59161   4.391   5.636  11.169  3.1046 -1.3600 -0.8055
  429MOL0     H59162   4.272   5.667  11.036  1.4816  3.9623  2.2107
  429MOL0     H59163   4.427   5.586  11.003 -1.0096  0.7606 -1.8286
  429MOL0     H59164   4.623   5.221  10.833  1.6429  1.0639 -2.8439
  429MOL0     H59165   4.858   5.229  10.751 -0.0433 -2.4371  0.4572
  429MOL0     H59166   5.158   5.118  11.059 -1.5695  0.8653  0.4484
  429MOL0     H59167   5.131   5.052  10.897 -3.3900  0.7318 -0.0242
  429MOL0     H59168   5.372   5.102  10.918 -1.1761 -1.5897 -2.4693
  429MOL0     H59169   5.289   5.209  10.805  0.0471  0.5913 -0.1886
  429MOL0     H59170   5.343   5.248  11.106 -2.5952  0.7596  0.2707
  429MOL0     H59171   5.257   5.364  11.017 -0.9335 -0.7262 -3.4099
  429MOL0     H59172   5.447   5.432  10.885 -0.6285 -0.8616 -0.3376
  429MOL0     H59173   5.552   5.301  10.926  0.2437  0.0220 -0.4730
  429MOL0     H59174   5.594   5.529  11.023 -2.9964  0.4717 -2.4776
  429MOL0     H59175   5.448   5.511  11.112 -1.1395 -0.3291 -2.3778
  429MOL0     H59176   5.543   5.309  11.244  4.1214 -2.0450  0.2680
  429MOL0     H59177   5.642   5.463  11.252 -0.5164  1.2528  1.0201
  429MOL0     H59178   5.801   5.402  11.130  2.5479 -0.9619  2.8460
  429MOL0     H59179   5.722   5.254  11.058 -0.0259 -1.1712  1.5838
  429MOL0     H59180   5.715   5.159  11.279  0.3852 -0.6895  1.0405
  429MOL0     H59181   5.840   5.282  11.337  3.5144 -1.1831 -0.9484
  429MOL0     H59182   5.011   5.227  11.153  1.6520  1.5882 -1.2045
  429MOL0     H59183   4.787   5.230  11.240 -0.9330 -0.1234  0.2452
  429MOL0     H59184   4.356   5.132  11.156 -0.7098 -0.2075 -0.7299
  429MOL0     H59185   4.111   5.129  11.216 -0.9402  0.0920 -1.3775
  429MOL0     H59186   2.061   5.082  11.443  3.6641  1.2902 -0.8065
  429MOL0     H59187   1.812   5.138  11.388  1.2032 -1.1813  0.9914
  429MOL0     H59188   1.568   5.416  11.080  0.6637  2.0552 -0.2757
  429MOL0     H59189   1.348   5.444  10.998 -2.8079  1.6713 -0.1154
  429MOL0     H59190   1.211   5.619  10.933  0.9432  0.7613  1.6288
  429MOL0     H59191   1.102   5.476  10.961  0.2706 -0.6643  2.4334
  429MOL0     H59192   1.028   5.781  10.974  1.0922  0.5361 -0.3411
  429MOL0     H59193   0.911   5.651  11.017 -0.1552 -2.1677 -1.2582
  429MOL0     H59194   1.051   5.704  10.752  1.4213 -2.7223  0.1817
  429MOL0     H59195   0.953   5.562  10.781  3.6149 -0.3652 -1.0532
  429MOL0     H59196   0.844   5.847  10.826  0.3147 -0.0626  0.3129
  429MOL0     H59197   0.747   5.702  10.834 -0.7386  0.6148 -0.6806
  429MOL0     H59198   0.787   5.729  10.416 -1.3519 -0.3677 -1.2799
  429MOL0     H59199   1.221   5.598  11.375  0.8531 -0.8451  2.6790
  429MOL0     H59200   1.438   5.494  11.576  1.9748  0.1354  0.8941
  429MOL0     H59201   1.515   5.656  11.547 -1.0378  0.8775 -1.1325
  429MOL0     H59202   1.354   5.650  11.560  2.0727  1.6521  3.6187
  430MOL0     O59203   0.645   9.493   4.681 -0.4979 -0.4262 -0.6431
  430MOL0     C59204   0.581   9.499   4.583  0.0807 -0.0481 -0.0223
  430MOL0     O59205   0.630   9.480   4.456 -0.3989 -0.3371  0.6333
  430MOL0     C59206   0.766   9.480   4.427 -0.1422 -0.4416  0.2543
  430MOL0     C59207   0.854   9.582   4.472 -0.2253  0.1652 -0.1272
  430MOL0     C59208   0.989   9.569   4.446 -0.4555 -0.4272  0.1753
  430MOL0     C59209   1.033   9.456   4.379  0.1470 -0.4001 -0.2986
  430MOL0     O59210   1.157   9.428   4.353 -0.3570 -0.4964  0.3334
  430MOL0     C59211   1.264   9.508   4.400  0.0911  0.1123 -0.0937
  430MOL0     C59212   1.391   9.437   4.387  0.5411  0.6747 -0.3160
  430MOL0     C59213   1.496   9.500   4.482 -0.2322 -0.9277 -0.1979
  430MOL0     C59214   1.630   9.428   4.456 -0.1756 -0.4592  0.1505
  430MOL0     C59215   1.765   9.464   4.522 -0.2049 -0.4462 -0.0598
  430MOL0     C59216   1.877   9.369   4.473  0.5060 -0.5004 -0.5370
  430MOL0     C59217   2.020   9.419   4.505 -0.0768 -0.2612 -0.1630
  430MOL0     C59218   2.117   9.349   4.409 -0.5259  0.7377 -0.2867
  430MOL0     N59219   2.156   9.222   4.455 -0.3251  0.8463  0.0227
  430MOL0     C59220   2.115   9.099   4.409 -0.1467  0.8302 -0.0836
  430MOL0     C59221   2.174   9.006   4.494  0.2184  0.0101  0.8518
  430MOL0     C59222   2.124   8.864   4.517  0.1983  0.5049  0.2320
  430MOL0     C59223   2.218   8.775   4.599 -0.9234  1.1223  0.2631
  430MOL0     C59224   2.161   8.629   4.634 -0.3337 -0.6341  0.0953
  430MOL0     C59225   2.146   8.525   4.522 -0.3575 -0.5814  0.6066
  430MOL0     O59226   2.266   8.528   4.444 -0.1487  0.2172 -0.0167
  430MOL0     C59227   2.383   8.490   4.503 -0.4707 -0.0651 -0.1764
  430MOL0     C59228   2.506   8.534   4.465  0.5188 -0.2394  0.6403
  430MOL0     C59229   2.627   8.509   4.527  0.9493 -0.3685  0.6431
  430MOL0     C59230   2.740   8.576   4.461  0.9744  0.2400  0.1453
  430MOL0     C59231   2.627   8.421   4.636 -0.0980 -0.4678  0.3431
  430MOL0     C59232   2.756   8.382   4.710 -0.1414 -0.2726 -0.9399
  430MOL0     O59233   2.736   8.333   4.845  0.5423 -0.7975 -0.1737
  430MOL0     C59234   2.837   8.340   4.938 -0.0177  0.3911 -0.6200
  430MOL0     C59235   2.801   8.384   5.074  0.3828  0.0014  0.1697
  430MOL0     C59236   2.908   8.414   5.162 -0.4216 -0.6100 -0.6565
  430MOL0     C59237   3.043   8.396   5.124  0.5279 -0.3530 -0.4852
  430MOL0     O59238   3.153   8.389   5.212  0.4860 -0.6140 -0.0197
  430MOL0     C59239   3.133   8.402   5.352 -0.4395  0.2794 -0.0703
  430MOL0     C59240   3.272   8.371   5.419  1.3835 -0.9247 -0.8164
  430MOL0     C59241   3.404   8.401   5.330  0.5015  0.9789  0.4213
  430MOL0     C59242   3.521   8.460   5.407  0.6819  0.4255 -0.2234
  430MOL0     C59243   3.581   8.360   5.510 -0.0198  0.2222 -0.1153
  430MOL0     C59244   3.669   8.413   5.616 -0.8736  0.3396 -0.5439
  430MOL0     C59245   3.746   8.304   5.693 -0.0763 -0.2310  0.5220
  430MOL0     C59246   3.813   8.375   5.810  0.2904 -0.1077 -0.2070
  430MOL0    Cl59247   3.877   8.270   5.939  0.0513 -0.0677 -0.0448
  430MOL0     C59248   3.069   8.336   5.004  0.0403 -0.3271 -0.4484
  430MOL0     C59249   2.971   8.312   4.909 -0.2051  0.3594  0.1286
  430MOL0     O59250   2.863   8.398   4.649 -0.3057 -0.3312  0.4693
  430MOL0     C59251   2.506   8.372   4.681 -0.6283  1.1076 -0.5344
  430MOL0     C59252   2.395   8.398   4.614 -0.3802 -0.8531 -0.6368
  430MOL0     N59253   2.268   9.073   4.573  0.4824  0.4845  0.1195
  430MOL0     N59254   2.254   9.201   4.553 -0.5486 -0.3243  0.3774
  430MOL0     C59255   0.946   9.359   4.339  0.3032 -0.0667 -0.2847
  430MOL0     C59256   0.812   9.366   4.360  0.3967  0.3174 -0.0103
  430MOL0     C59257   0.442   9.457   4.612  0.1236 -0.9212  0.1206
  430MOL0     C59258   0.381   9.383   4.503  0.2375 -0.7749 -0.3520
  430MOL0     C59259   0.255   9.336   4.515 -0.6557  0.7502  0.7609
  430MOL0     C59260   0.174   9.369   4.625 -0.8880  0.3062 -0.1152
  430MOL0     O59261   0.046   9.324   4.620 -0.6231  0.5325  0.0033
  430MOL0     C59262   0.005   9.257   4.739 -0.0025 -0.1163  0.0551
  430MOL0     C59263  -0.151   9.242   4.735 -0.5589 -0.3499 -0.7515
  430MOL0     C59264  -0.178   9.143   4.623  0.5420 -0.0374 -0.4662
  430MOL0     C59265  -0.330   9.121   4.599  0.8271  0.6530  0.1077
  430MOL0     C59266  -0.396   9.043   4.705 -0.3249 -0.2636  0.7068
  430MOL0     C59267  -0.447   8.987   4.802  0.1354 -0.5152  0.0578
  430MOL0     C59268   0.234   9.447   4.728  0.1729  0.1717  0.5806
  430MOL0     C59269   0.363   9.493   4.729  0.3030  0.1985  0.1439
  430MOL0     C59270   0.409   9.575   4.847 -0.0987 -0.0990  0.2296
  430MOL0     H59271   0.822   9.657   4.544 -0.0412 -0.0230  0.1497
  430MOL0     H59272   1.056   9.643   4.490 -1.1835  0.1226  0.3881
  430MOL0     H59273   1.252   9.539   4.504 -1.1204  1.0782 -0.4813
  430MOL0     H59274   1.263   9.595   4.333 -3.2355 -0.3539 -0.8419
  430MOL0     H59275   1.378   9.333   4.421  0.8693 -0.1451 -2.5220
  430MOL0     H59276   1.420   9.430   4.282 -0.8998 -2.7618 -0.6371
  430MOL0     H59277   1.502   9.607   4.457  0.1200 -0.7694  0.5228
  430MOL0     H59278   1.461   9.486   4.585  1.4611 -0.5698  0.4746
  430MOL0     H59279   1.600   9.325   4.477 -0.3302  0.0056  2.5282
  430MOL0     H59280   1.640   9.432   4.348 -2.0352  4.2850 -0.0806
  430MOL0     H59281   1.743   9.450   4.628 -1.3198 -3.9551 -0.6262
  430MOL0     H59282   1.800   9.565   4.498 -0.8056 -0.2133  0.0302
  430MOL0     H59283   1.869   9.267   4.511  1.5654  0.3394  2.1709
  430MOL0     H59284   1.865   9.372   4.364 -0.9701  3.2850 -0.4190
  430MOL0     H59285   2.027   9.385   4.609 -1.7174 -1.8276 -0.5125
  430MOL0     H59286   2.030   9.528   4.501  1.6663 -0.4454 -2.9583
  430MOL0     H59287   2.090   9.334   4.305  0.0514  3.5508 -0.9342
  430MOL0     H59288   2.207   9.411   4.421  1.5141 -2.2985  1.5622
  430MOL0     H59289   2.033   9.097   4.337  0.1352  1.8596 -0.4584
  430MOL0     H59290   2.117   8.823   4.416  0.4296  0.6650  0.1527
  430MOL0     H59291   2.024   8.863   4.562 -0.2614 -4.3031 -0.3307
  430MOL0     H59292   2.309   8.769   4.539 -0.7939 -0.5604  0.5775
  430MOL0     H59293   2.240   8.824   4.694  0.0416 -1.1333  1.2653
  430MOL0     H59294   2.204   8.584   4.724 -1.3249 -2.4858 -0.2995
  430MOL0     H59295   2.059   8.655   4.666  0.0589  2.5762 -0.9168
  430MOL0     H59296   2.124   8.422   4.552  1.5398 -1.3389 -0.4075
  430MOL0     H59297   2.060   8.554   4.461  0.0770  1.1391  0.7430
  430MOL0     H59298   2.500   8.600   4.379  1.6336  0.2993  0.9569
  430MOL0     H59299   2.706   8.644   4.383  1.7678  1.7439  1.0783
  430MOL0     H59300   2.813   8.509   4.414  2.4329  1.0884  1.1317
  430MOL0     H59301   2.784   8.650   4.529  0.1746 -0.3429  1.3499
  430MOL0     H59302   2.695   8.391   5.093 -0.1096  0.6428 -2.5046
  430MOL0     H59303   2.884   8.454   5.260 -1.0321 -1.9215 -0.2518
  430MOL0     H59304   3.105   8.506   5.371 -0.6110  0.3654 -0.7747
  430MOL0     H59305   3.054   8.333   5.384  1.5551 -2.1151  0.0149
  430MOL0     H59306   3.276   8.428   5.513  1.7307 -3.2460  0.6628
  430MOL0     H59307   3.282   8.266   5.448 -0.6228 -0.8243  0.4888
  430MOL0     H59308   3.387   8.471   5.247 -1.8314  1.4106  1.1709
  430MOL0     H59309   3.424   8.303   5.286  1.3806  1.5816 -0.5717
  430MOL0     H59310   3.471   8.541   5.462  0.5921  1.3828 -1.6773
  430MOL0     H59311   3.599   8.504   5.346  1.7531  1.4983  1.8113
  430MOL0     H59312   3.507   8.293   5.556  0.0216  1.4487  1.8667
  430MOL0     H59313   3.655   8.305   5.451  4.7188  3.2448  2.3467
  430MOL0     H59314   3.610   8.477   5.683 -2.9196 -0.8631 -1.1067
  430MOL0     H59315   3.745   8.479   5.574 -0.6737 -0.3177 -1.2311
  430MOL0     H59316   3.805   8.244   5.624  1.5194 -0.7264  2.2332
  430MOL0     H59317   3.674   8.234   5.736  0.7866 -1.0856  0.6028
  430MOL0     H59318   3.733   8.437   5.853  0.1796 -1.8434  2.3528
  430MOL0     H59319   3.900   8.428   5.772  0.9859  0.9603  2.6079
  430MOL0     H59320   3.175   8.317   4.989  0.4081  1.6307 -0.5673
  430MOL0     H59321   3.008   8.282   4.811  1.4098  2.0190  0.1492
  430MOL0     H59322   2.510   8.296   4.759 -1.5160  1.3027 -0.2935
  430MOL0     H59323   2.305   8.351   4.651  0.3069 -0.9797  0.9315
  430MOL0     H59324   0.979   9.266   4.295 -1.0173 -1.8515  2.2313
  430MOL0     H59325   0.743   9.293   4.320  0.0340  1.0375 -0.7509
  430MOL0     H59326   0.432   9.365   4.409  1.8699  3.0781 -0.3886
  430MOL0     H59327   0.214   9.289   4.426  2.9531  1.5354 -1.4906
  430MOL0     H59328   0.058   9.165   4.763 -1.4693 -0.4525  2.3733
  430MOL0     H59329   0.019   9.336   4.813  2.9638 -0.9131  0.4647
  430MOL0     H59330  -0.190   9.337   4.697  0.8502 -0.6910 -3.2603
  430MOL0     H59331  -0.200   9.214   4.829 -0.7576 -0.0282 -0.7557
  430MOL0     H59332  -0.139   9.183   4.529 -0.4878 -2.3810 -1.9926
  430MOL0     H59333  -0.119   9.052   4.635 -0.1751 -0.5379 -0.6486
  430MOL0     H59334  -0.351   9.072   4.503 -0.6180 -2.5720  1.9199
  430MOL0     H59335  -0.370   9.223   4.593 -1.7853 -0.3647 -2.9557
  430MOL0     H59336  -0.475   8.934   4.890  1.0571 -4.5688 -1.8536
  430MOL0     H59337   0.171   9.473   4.812 -1.0948 -1.7420  0.2900
  430MOL0     H59338   0.337   9.567   4.929 -1.2352  1.9461 -0.4971
  430MOL0     H59339   0.510   9.549   4.878 -0.4405 -0.8224  0.7776
  430MOL0     H59340   0.409   9.680   4.815  0.4381 -0.1134  0.1727
  431MOL0     O59341   4.600   1.489   0.281  0.3461  0.2616 -0.5404
  431MOL0     C59342   4.590   1.371   0.247  0.1982  0.8585 -0.2269
  431MOL0     O59343   4.477   1.290   0.264 -0.6295  0.2011  0.3151
  431MOL0     C59344   4.395   1.333   0.360 -1.4839 -1.5172 -0.0048
  431MOL0     C59345   4.374   1.262   0.478 -0.6302 -0.1931  0.0935
  431MOL0     C59346   4.297   1.313   0.581  0.4158  0.9611 -0.4664
  431MOL0     C59347   4.225   1.433   0.564  0.6466  0.0135  1.0171
  431MOL0     O59348   4.147   1.489   0.662  0.3233  0.8625  0.3184
  431MOL0     C59349   4.050   1.401   0.736  0.3005  0.2258  0.5600
  431MOL0     C59350   3.945   1.482   0.818  0.1492 -0.4439  0.2407
  431MOL0     C59351   3.853   1.393   0.895  0.4225  0.3606 -0.3365
  431MOL0     C59352   3.746   1.322   0.820 -0.6650 -0.5215  0.0631
  431MOL0     C59353   3.645   1.270   0.915  0.1428  0.8261  0.1178
  431MOL0     C59354   3.534   1.192   0.832 -0.0081 -0.9284 -0.9147
  431MOL0     C59355   3.438   1.142   0.930  1.0034  0.4645  0.7402
  431MOL0     C59356   3.356   1.254   0.995 -0.3651 -0.2462 -0.1678
  431MOL0     N59357   3.263   1.324   0.899 -0.1862 -0.1097 -0.7367
  431MOL0     C59358   3.163   1.268   0.821  0.1273  0.0384 -0.7530
  431MOL0     C59359   3.101   1.380   0.774  0.7139 -0.8922  0.4972
  431MOL0     C59360   2.975   1.379   0.687 -0.0815 -0.2462 -0.1611
  431MOL0     C59361   2.853   1.287   0.745  0.1525 -0.7739  0.5285
  431MOL0     C59362   2.770   1.366   0.850 -0.3767  0.0695 -0.6568
  431MOL0     C59363   2.853   1.412   0.967  0.4460 -0.1790 -1.1413
  431MOL0     O59364   2.911   1.313   1.053  0.3670  0.8875 -0.0933
  431MOL0     C59365   2.871   1.293   1.180  0.3311 -0.4337 -0.4214
  431MOL0     C59366   2.979   1.240   1.257 -0.4068  0.7818 -0.2318
  431MOL0     C59367   2.951   1.194   1.386 -0.2717 -0.2749  0.0826
  431MOL0     C59368   3.066   1.119   1.467 -0.2654 -0.9953 -0.7106
  431MOL0     C59369   2.815   1.209   1.435  0.2732 -0.6841  0.3967
  431MOL0     C59370   2.770   1.165   1.565  0.0436 -0.3588  0.9617
  431MOL0     O59371   2.656   1.229   1.620 -0.0840  0.6733  0.5314
  431MOL0     C59372   2.624   1.249   1.753 -0.7785 -0.3361  1.2303
  431MOL0     C59373   2.717   1.236   1.859  0.8798 -0.0928  0.0498
  431MOL0     C59374   2.697   1.293   1.982  0.9047 -0.1405 -0.3163
  431MOL0     C59375   2.575   1.364   2.011 -0.4780  1.0034  0.4567
  431MOL0     O59376   2.559   1.423   2.134 -0.0453  0.2769  1.0705
  431MOL0     C59377   2.669   1.463   2.219  0.2234  0.8287 -0.3387
  431MOL0     C59378   2.626   1.557   2.337  0.3305 -1.1314  0.2612
  431MOL0     C59379   2.744   1.577   2.431  0.5003  0.3186 -0.1225
  431MOL0     C59380   2.718   1.660   2.553  0.5683  0.5774 -0.1437
  431MOL0     C59381   2.841   1.694   2.633 -0.1683  0.4013  0.1473
  431MOL0     C59382   2.904   1.576   2.717  0.5475  0.5970  0.1857
  431MOL0     C59383   3.032   1.622   2.791  0.7404  0.4574  0.7475
  431MOL0     C59384   3.080   1.520   2.888 -0.2131  0.1386  0.3525
  431MOL0    Cl59385   3.253   1.563   2.946  0.1573 -0.1000 -0.3101
  431MOL0     C59386   2.482   1.373   1.908 -0.4750  0.2186  0.3928
  431MOL0     C59387   2.500   1.312   1.779  0.1850 -0.8812 -0.3682
  431MOL0     O59388   2.830   1.072   1.614  0.1783 -0.1435 -0.0220
  431MOL0     C59389   2.716   1.267   1.354 -0.2209  0.4717  0.1669
  431MOL0     C59390   2.743   1.308   1.223  0.0207  0.5392  0.5926
  431MOL0     N59391   3.150   1.492   0.831  0.3304 -0.2010  0.3828
  431MOL0     N59392   3.253   1.457   0.898  1.1549 -0.6938 -0.0916
  431MOL0     C59393   4.240   1.505   0.446 -0.2158 -0.8974 -0.6315
  431MOL0     C59394   4.318   1.454   0.340  0.6043 -0.3211 -0.4579
  431MOL0     C59395   4.709   1.304   0.178  0.4087  0.7900 -0.3834
  431MOL0     C59396   4.676   1.181   0.111 -0.1417 -1.1559 -0.2277
  431MOL0     C59397   4.778   1.113   0.047  0.8341 -0.8053  0.0470
  431MOL0     C59398   4.902   1.165   0.027  0.2054 -0.8553 -0.1867
  431MOL0     O59399   4.990   1.108  -0.056  0.7938 -1.2957 -0.3055
  431MOL0     C59400   5.120   1.090  -0.013 -0.2329 -0.4874  0.2489
  431MOL0     C59401   5.199   0.999  -0.112  0.5702 -0.0042  0.1047
  431MOL0     C59402   5.148   0.854  -0.120 -0.2007  0.5279 -0.3694
  431MOL0     C59403   5.155   0.769   0.005  0.2243 -0.5293 -0.9033
  431MOL0     C59404   5.279   0.807   0.075 -0.9526 -0.2081  0.3886
  431MOL0     C59405   5.375   0.836   0.144 -0.1994 -0.1161 -0.5139
  431MOL0     C59406   4.936   1.279   0.099  0.5024 -0.7320  1.1497
  431MOL0     C59407   4.838   1.347   0.180 -1.0219  0.9284  0.2446
  431MOL0     C59408   4.882   1.463   0.257  0.3894  0.3355 -0.3530
  431MOL0     H59409   4.429   1.172   0.505  1.2413  1.6314  2.9037
  431MOL0     H59410   4.296   1.262   0.677 -0.7567 -0.2322 -1.0899
  431MOL0     H59411   4.109   1.345   0.809  2.6892 -0.3650 -1.6775
  431MOL0     H59412   4.006   1.323   0.673  2.3272 -1.3738  1.0078
  431MOL0     H59413   4.001   1.549   0.883  0.1147  2.1297 -2.1709
  431MOL0     H59414   3.884   1.543   0.750 -0.8668 -1.7985 -0.0968
  431MOL0     H59415   3.912   1.335   0.966  0.5757  0.5022 -0.3466
  431MOL0     H59416   3.803   1.461   0.966 -0.0748 -0.9109  0.5743
  431MOL0     H59417   3.704   1.392   0.747 -2.2163 -1.8514 -0.3590
  431MOL0     H59418   3.785   1.234   0.769  2.7617  0.0386  1.4777
  431MOL0     H59419   3.615   1.356   0.976  0.3916  2.9036 -2.4904
  431MOL0     H59420   3.689   1.201   0.987  1.6154 -0.5017 -1.9446
  431MOL0     H59421   3.489   1.259   0.758  1.1824 -0.3768 -1.1606
  431MOL0     H59422   3.574   1.109   0.773  1.6668 -0.0143 -1.1266
  431MOL0     H59423   3.491   1.083   1.006 -0.6677 -1.0493  0.7687
  431MOL0     H59424   3.373   1.066   0.886  0.1828  2.7268 -2.2686
  431MOL0     H59425   3.289   1.218   1.073 -0.6273  0.2905 -0.1368
  431MOL0     H59426   3.418   1.330   1.044 -1.9065  2.7643 -2.4886
  431MOL0     H59427   3.131   1.166   0.807 -4.1807  0.3594  3.9094
  431MOL0     H59428   3.008   1.337   0.591  3.5654 -0.7704  1.1672
  431MOL0     H59429   2.937   1.479   0.661  1.2806  0.4251  0.3466
  431MOL0     H59430   2.784   1.264   0.663 -0.9705 -0.5730  1.3942
  431MOL0     H59431   2.890   1.192   0.785  1.9126  0.6016  2.3628
  431MOL0     H59432   2.720   1.450   0.802  1.9230  0.6757 -2.1528
  431MOL0     H59433   2.698   1.298   0.896 -3.1577  2.2984 -1.4710
  431MOL0     H59434   2.932   1.484   0.940 -0.5110  1.5298  0.3752
  431MOL0     H59435   2.802   1.482   1.034  1.3800 -1.3690  0.8945
  431MOL0     H59436   3.076   1.230   1.209 -1.4290  0.3268 -2.3496
  431MOL0     H59437   3.164   1.140   1.424 -0.3204  0.0739 -0.3490
  431MOL0     H59438   3.044   1.013   1.477  0.6065 -1.0572  0.7246
  431MOL0     H59439   3.067   1.175   1.561  4.5679 -1.8533 -0.0170
  431MOL0     H59440   2.812   1.185   1.852  0.2673 -1.6976  2.3174
  431MOL0     H59441   2.767   1.282   2.064 -0.8811  1.0386  1.4557
  431MOL0     H59442   2.713   1.377   2.270  2.8645  2.1842 -0.1416
  431MOL0     H59443   2.758   1.489   2.162  0.9819 -2.0653 -0.6348
  431MOL0     H59444   2.586   1.650   2.295 -0.0925 -2.1622 -1.7763
  431MOL0     H59445   2.542   1.512   2.390 -1.4811  0.1620 -1.3285
  431MOL0     H59446   2.829   1.622   2.378  1.8371 -1.1806  0.6732
  431MOL0     H59447   2.777   1.484   2.478  0.5133  0.2065 -0.3497
  431MOL0     H59448   2.644   1.616   2.620  0.5150 -2.2835 -1.9059
  431MOL0     H59449   2.671   1.753   2.518 -1.2626 -0.9891 -2.1540
  431MOL0     H59450   2.906   1.741   2.559 -0.0620  0.9270  0.5639
  431MOL0     H59451   2.818   1.764   2.714 -2.7342 -0.8353  0.5976
  431MOL0     H59452   2.918   1.488   2.655  0.3534  1.5250 -1.2105
  431MOL0     H59453   2.832   1.539   2.790  0.3547 -3.1485 -1.7040
  431MOL0     H59454   3.037   1.711   2.855 -0.5749 -1.0402  3.0898
  431MOL0     H59455   3.118   1.623   2.722  1.7079 -1.4874  1.8479
  431MOL0     H59456   3.087   1.424   2.837 -0.3962 -0.0947  0.7654
  431MOL0     H59457   3.022   1.509   2.980 -0.7596  0.4779  0.0532
  431MOL0     H59458   2.391   1.424   1.937 -2.2586 -1.9033 -1.1457
  431MOL0     H59459   2.417   1.322   1.709 -1.0230 -2.1458  0.8267
  431MOL0     H59460   2.611   1.279   1.377 -0.5122 -1.1547 -0.2220
  431MOL0     H59461   2.665   1.342   1.155  0.6368  0.2407 -0.2908
  431MOL0     H59462   4.200   1.605   0.433 -4.5791 -2.0450  1.9657
  431MOL0     H59463   4.308   1.517   0.253 -1.1206 -2.4180 -1.8946
  431MOL0     H59464   4.578   1.144   0.083  0.3633 -0.5528 -3.0814
  431MOL0     H59465   4.760   1.020  -0.006 -0.0241 -0.8929  0.4742
  431MOL0     H59466   5.174   1.184  -0.030  0.5772 -1.3823 -2.8192
  431MOL0     H59467   5.135   1.061   0.091  1.1475  1.0342  0.5272
  431MOL0     H59468   5.308   1.000  -0.103  0.6369  3.0692 -0.0117
  431MOL0     H59469   5.184   1.037  -0.213 -1.0803 -1.5823 -0.3071
  431MOL0     H59470   5.042   0.853  -0.146 -0.5338 -0.4441  0.9131
  431MOL0     H59471   5.208   0.796  -0.190 -3.1480 -1.6900 -1.2524
  431MOL0     H59472   5.159   0.665  -0.028 -0.9160  0.0833 -3.1555
  431MOL0     H59473   5.063   0.766   0.063  0.8346  0.8082  0.1833
  431MOL0     H59474   5.447   0.878   0.211 -1.5240  0.8176  0.3842
  431MOL0     H59475   5.031   1.329   0.083 -0.5649  0.2395 -3.6852
  431MOL0     H59476   4.872   1.440   0.364  2.3394  0.9516  0.0079
  431MOL0     H59477   4.983   1.497   0.230  1.1278 -1.3426  0.1501
  431MOL0     H59478   4.829   1.552   0.223  2.4254  2.5006  1.7989
  432MOL0     O59479   6.169   0.969   2.654 -0.2606  0.3773 -0.1894
  432MOL0     C59480   6.108   1.066   2.609  0.0438  0.0167  0.2023
  432MOL0     O59481   6.143   1.199   2.616 -0.0232  0.8694 -0.2076
  432MOL0     C59482   6.274   1.224   2.641  0.8547  0.0218 -0.1617
  432MOL0     C59483   6.299   1.314   2.745 -0.1294  0.6564  0.5042
  432MOL0     C59484   6.428   1.359   2.768 -0.6319  0.1851  0.0952
  432MOL0     C59485   6.541   1.306   2.698  0.0702  0.0001 -0.6749
  432MOL0     O59486   6.665   1.363   2.725 -0.2877 -0.5820  0.6172
  432MOL0     C59487   6.785   1.328   2.658 -0.8643  0.5056 -0.3612
  432MOL0     C59488   6.891   1.395   2.747 -0.2365 -0.1532  0.4121
  432MOL0     C59489   7.026   1.418   2.677  0.5246  0.3259  1.1480
  432MOL0     C59490   7.144   1.455   2.767  0.2720 -1.0523  0.5099
  432MOL0     C59491   7.292   1.459   2.706  1.0193 -0.4603 -0.7025
  432MOL0     C59492   7.316   1.591   2.633 -0.4892 -0.1747 -0.8077
  432MOL0     C59493   7.461   1.634   2.627 -0.9158 -0.5285 -0.1712
  432MOL0     C59494   7.503   1.721   2.752 -0.4188  1.5322  0.3006
  432MOL0     N59495   7.632   1.788   2.736 -0.8285  0.0842 -0.3886
  432MOL0     C59496   7.680   1.874   2.835  0.5296  0.4027 -0.0872
  432MOL0     C59497   7.784   1.937   2.778 -0.2009  0.1649 -0.4497
  432MOL0     C59498   7.873   1.994   2.888  0.5747 -0.3403  0.0436
  432MOL0     C59499   7.963   1.895   2.957  0.2006 -0.1619 -0.6327
  432MOL0     C59500   8.029   1.962   3.082  0.7956 -0.8508  0.1491
  432MOL0     C59501   8.088   2.106   3.067 -0.7359  0.4626  0.0335
  432MOL0     O59502   8.167   2.125   2.949  0.5662  0.2113 -0.2222
  432MOL0     C59503   8.296   2.082   2.934  0.9937  0.1924  0.7333
  432MOL0     C59504   8.375   2.015   3.036  0.4657 -0.2748 -0.0907
  432MOL0     C59505   8.500   1.956   3.015  0.7361 -0.2114  0.9013
  432MOL0     C59506   8.560   1.870   3.121  0.4895  0.8511  0.6074
  432MOL0     C59507   8.571   1.996   2.899 -0.0216  0.1198  0.5203
  432MOL0     C59508   8.721   1.969   2.881 -0.4936  0.1857  0.2783
  432MOL0     O59509   8.779   2.014   2.760  0.5507  0.6539  0.3877
  432MOL0     C59510   8.912   2.032   2.776  0.3709 -0.0791  0.5642
  432MOL0     C59511   8.968   2.141   2.846 -0.1399  0.3681  0.6250
  432MOL0     C59512   9.108   2.167   2.839  1.1241  0.4232  0.2758
  432MOL0     C59513   9.189   2.070   2.782 -0.2012 -0.7418 -0.3982
  432MOL0     O59514   9.327   2.076   2.803 -0.0970  0.0299  0.5604
  432MOL0     C59515   9.405   2.169   2.729 -0.2923 -0.6258  0.3578
  432MOL0     C59516   9.478   2.094   2.622 -0.4825  0.3237  0.8027
  432MOL0     C59517   9.575   1.979   2.652  0.0211 -0.8623 -0.5362
  432MOL0     C59518   9.716   2.032   2.670  0.0976  0.2145  0.5962
  432MOL0     C59519   9.808   1.919   2.711  0.0116 -1.1473 -0.3940
  432MOL0     C59520   9.953   1.948   2.759  0.3721 -0.0908 -0.0950
  432MOL0     C59521   9.964   2.037   2.888  0.0179  0.4147  0.2683
  432MOL0     C59522  10.103   2.035   2.958  0.9537 -0.1524  0.4932
  432MOL0    Cl59523  10.098   2.109   3.109  0.0942 -0.1057 -0.4298
  432MOL0     C59524   9.135   1.958   2.722 -0.0352 -0.5358  0.0531
  432MOL0     C59525   8.997   1.945   2.712  0.9338 -0.4696 -1.0292
  432MOL0     O59526   8.783   1.916   2.977 -0.3747 -0.6642 -0.1523
  432MOL0     C59527   8.502   2.082   2.801 -0.0040  0.0530  0.1388
  432MOL0     C59528   8.364   2.112   2.818 -0.6719  0.0343 -0.4512
  432MOL0     N59529   7.794   1.894   2.648 -0.3910 -0.2903  0.4446
  432MOL0     N59530   7.705   1.806   2.616  0.1841 -0.3585 -0.6803
  432MOL0     C59531   6.518   1.214   2.602  0.7463 -0.0023 -0.5865
  432MOL0     C59532   6.381   1.175   2.567  0.1412 -0.6645  1.0408
  432MOL0     C59533   5.972   1.048   2.550 -1.1275 -0.4409  0.4633
  432MOL0     C59534   5.872   1.138   2.592 -0.1252  0.7843  0.3007
  432MOL0     C59535   5.744   1.122   2.546 -0.7243  0.4466  0.2518
  432MOL0     C59536   5.711   1.025   2.445 -0.1364 -0.6521  0.3632
  432MOL0     O59537   5.584   1.010   2.387 -0.5000  0.4091  0.5249
  432MOL0     C59538   5.485   1.111   2.406  1.0019 -0.5351  0.1016
  432MOL0     C59539   5.425   1.136   2.268 -0.0929 -0.1759  0.4908
  432MOL0     C59540   5.313   1.245   2.274 -0.6828 -0.7463 -0.1215
  432MOL0     C59541   5.189   1.226   2.361  0.4271  0.4175 -0.5881
  432MOL0     C59542   5.134   1.096   2.322  1.1180 -0.7977  0.5878
  432MOL0     C59543   5.080   0.995   2.273  0.2012 -0.1611  0.2706
  432MOL0     C59544   5.814   0.938   2.397  0.6697 -0.3653 -0.8001
  432MOL0     C59545   5.944   0.953   2.449  0.0262 -0.0432 -0.1334
  432MOL0     C59546   6.042   0.857   2.391  0.2518 -0.3802 -0.7270
  432MOL0     H59547   6.211   1.352   2.794  0.1730  0.2470  1.3876
  432MOL0     H59548   6.447   1.433   2.845 -1.2615  2.5346 -1.8753
  432MOL0     H59549   6.781   1.369   2.556 -0.9600  0.4102 -0.3961
  432MOL0     H59550   6.814   1.223   2.651 -0.1249  0.7894 -2.0747
  432MOL0     H59551   6.860   1.496   2.774 -0.1428  0.1434 -0.5442
  432MOL0     H59552   6.901   1.340   2.841 -0.6124 -1.6302 -0.3848
  432MOL0     H59553   7.043   1.320   2.632 -2.7781 -0.8886  2.2341
  432MOL0     H59554   7.011   1.490   2.597 -1.3039 -1.4516 -0.2402
  432MOL0     H59555   7.126   1.551   2.815 -0.5656  0.4184 -2.5239
  432MOL0     H59556   7.155   1.381   2.848  0.7172 -1.3073  0.2217
  432MOL0     H59557   7.311   1.369   2.647  0.4936 -2.9900  2.7482
  432MOL0     H59558   7.360   1.452   2.791 -1.2082  1.9218  1.4483
  432MOL0     H59559   7.269   1.608   2.536  1.3859 -0.7558 -1.8576
  432MOL0     H59560   7.264   1.666   2.693 -1.7601 -2.2359  0.8139
  432MOL0     H59561   7.485   1.697   2.541  0.7950  1.8485  1.8858
  432MOL0     H59562   7.524   1.545   2.630 -0.9949 -0.7122 -2.4822
  432MOL0     H59563   7.425   1.797   2.767  0.4137  2.4478  0.0584
  432MOL0     H59564   7.498   1.670   2.849  0.7693  2.3938  0.8425
  432MOL0     H59565   7.656   1.872   2.941 -0.8955  0.3638 -0.4009
  432MOL0     H59566   7.815   2.040   2.968 -1.0020 -0.4114 -1.0231
  432MOL0     H59567   7.935   2.070   2.840 -1.1721  1.3073  0.3210
  432MOL0     H59568   7.913   1.805   2.993 -0.8298  1.4091  2.1740
  432MOL0     H59569   8.046   1.871   2.890  0.8908  0.1353  0.0800
  432MOL0     H59570   7.944   1.963   3.151 -1.8644  0.5363 -2.8554
  432MOL0     H59571   8.107   1.897   3.122 -1.2530 -2.1542  2.2694
  432MOL0     H59572   8.009   2.181   3.054 -2.9895 -2.0449 -2.2396
  432MOL0     H59573   8.152   2.133   3.151 -0.4858  1.3187 -0.4226
  432MOL0     H59574   8.326   1.973   3.124 -0.6772  0.5978 -0.2861
  432MOL0     H59575   8.648   1.909   3.174  1.1110 -0.4301  0.5594
  432MOL0     H59576   8.596   1.775   3.081 -1.1318 -1.5227  4.2473
  432MOL0     H59577   8.486   1.838   3.195  0.1619 -3.2699 -1.2216
  432MOL0     H59578   8.901   2.214   2.891 -2.2844 -1.9203  1.4046
  432MOL0     H59579   9.141   2.259   2.887  1.3525  1.0694 -1.0705
  432MOL0     H59580   9.340   2.241   2.678  0.5612  0.3433  0.6182
  432MOL0     H59581   9.479   2.219   2.792  0.7583  1.3454 -2.2630
  432MOL0     H59582   9.403   2.044   2.560 -0.2567  0.9219  0.0299
  432MOL0     H59583   9.519   2.171   2.557  0.6190 -0.8785  0.0068
  432MOL0     H59584   9.567   1.903   2.574  1.1784 -0.8454 -0.6837
  432MOL0     H59585   9.552   1.935   2.750  2.0349  1.6580  1.2284
  432MOL0     H59586   9.719   2.115   2.741  2.7948  1.0035 -0.3371
  432MOL0     H59587   9.755   2.066   2.574  1.6213 -1.0732  0.7187
  432MOL0     H59588   9.768   1.851   2.788  0.9895 -3.0994 -1.5401
  432MOL0     H59589   9.814   1.855   2.623 -1.9473  2.2301 -3.2646
  432MOL0     H59590   9.995   2.011   2.680 -1.9585  1.3781 -0.2555
  432MOL0     H59591  10.010   1.855   2.764  0.6261 -0.1646 -2.7838
  432MOL0     H59592   9.896   1.993   2.962 -0.4805 -0.1529 -0.5103
  432MOL0     H59593   9.921   2.136   2.871  1.4022  0.6753 -2.1689
  432MOL0     H59594  10.179   2.092   2.903  1.5051 -1.7599 -0.4924
  432MOL0     H59595  10.146   1.935   2.971  1.1193 -0.1553 -0.0438
  432MOL0     H59596   9.195   1.881   2.675  2.5165  2.7583 -2.6158
  432MOL0     H59597   8.948   1.865   2.657 -2.5091  0.3550  0.5682
  432MOL0     H59598   8.555   2.114   2.712  2.4847 -1.7646  0.8383
  432MOL0     H59599   8.300   2.162   2.746 -1.5454 -0.0463  0.2504
  432MOL0     H59600   6.602   1.173   2.548  1.2437  2.9556 -2.3042
  432MOL0     H59601   6.370   1.099   2.490  0.1496 -0.2952  0.6711
  432MOL0     H59602   5.907   1.220   2.653  4.2243  1.0251 -2.0731
  432MOL0     H59603   5.671   1.192   2.586 -1.0674 -0.2926  0.9545
  432MOL0     H59604   5.408   1.059   2.464  1.0317 -0.7332 -0.0336
  432MOL0     H59605   5.516   1.207   2.448 -0.2318  1.3617 -2.9637
  432MOL0     H59606   5.385   1.043   2.226  3.4721 -0.6771 -2.3164
  432MOL0     H59607   5.512   1.166   2.208 -0.1646  0.3591  0.6568
  432MOL0     H59608   5.366   1.334   2.309 -2.1017  0.2633 -0.4453
  432MOL0     H59609   5.285   1.267   2.170 -0.0825 -1.4477 -0.4400
  432MOL0     H59610   5.112   1.302   2.342  1.4680  1.2662 -1.5263
  432MOL0     H59611   5.214   1.199   2.464  3.2425 -3.1309 -1.9894
  432MOL0     H59612   5.042   0.906   2.228  2.5752 -1.2647  0.3250
  432MOL0     H59613   5.787   0.865   2.321  0.3865  0.0397 -1.0891
  432MOL0     H59614   6.075   0.864   2.287  2.3488 -1.3009 -0.1764
  432MOL0     H59615   6.138   0.856   2.444 -1.0281  0.1681  1.7833
  432MOL0     H59616   5.987   0.763   2.402  1.7285 -1.5642 -2.8656
  433MOL0     O59617  10.491   1.989  10.456 -0.5796 -0.1524  0.1900
  433MOL0     C59618  10.473   1.982  10.574  0.6011  0.9550 -0.4502
  433MOL0     O59619  10.517   1.876  10.645  0.4987 -0.2052  0.5858
  433MOL0     C59620  10.620   1.805  10.592  0.8397  0.1154 -0.5200
  433MOL0     C59621  10.742   1.872  10.565  0.5230  0.0397 -0.0430
  433MOL0     C59622  10.846   1.801  10.509 -0.4421  0.4502 -0.1349
  433MOL0     C59623  10.839   1.670  10.479  0.1715 -0.0579 -0.3051
  433MOL0     O59624  10.948   1.618  10.413 -0.1721  0.1093  0.1886
  433MOL0     C59625  10.942   1.475  10.390 -0.3949 -0.1386 -0.8216
  433MOL0     C59626  11.081   1.422  10.329 -0.3397 -0.1045  0.1318
  433MOL0     C59627  11.118   1.297  10.386  0.2992  0.3606 -0.1746
  433MOL0     C59628  11.252   1.238  10.338  0.3509 -0.0810  0.2863
  433MOL0     C59629  11.302   1.134  10.438  0.4962 -0.1641  0.4106
  433MOL0     C59630  11.430   1.064  10.372 -0.0702 -0.6306 -0.7639
  433MOL0     C59631  11.500   0.964  10.468 -0.3879  0.0928  0.6005
  433MOL0     C59632  11.626   0.891  10.410 -1.1090 -0.0198 -0.9349
  433MOL0     N59633  11.756   0.922  10.490  0.5378 -0.1814 -0.0855
  433MOL0     C59634  11.804   1.049  10.517  0.5222  0.2305  0.7987
  433MOL0     C59635  11.915   1.032  10.589  0.0887  0.0605  0.0717
  433MOL0     C59636  12.004   1.137  10.652  0.3810 -0.2658  0.2750
  433MOL0     C59637  12.087   1.106  10.785  0.0801  1.0813 -0.0630
  433MOL0     C59638  12.177   0.980  10.775 -0.3218  0.5262  0.4859
  433MOL0     C59639  12.264   0.971  10.652  1.0307 -0.9001 -0.3731
  433MOL0     O59640  12.310   1.102  10.627  0.0316 -0.5262  0.0168
  433MOL0     C59641  12.441   1.134  10.665  0.1577 -0.4630 -0.9629
  433MOL0     C59642  12.530   1.056  10.738  0.9880  0.6704  0.2653
  433MOL0     C59643  12.645   1.108  10.789 -0.6434 -0.3588 -0.3003
  433MOL0     C59644  12.738   1.019  10.870 -0.0969  0.2991 -0.2092
  433MOL0     C59645  12.672   1.245  10.770  0.0683 -1.0303 -0.2363
  433MOL0     C59646  12.774   1.325  10.839 -0.0988 -0.6046  0.4986
  433MOL0     O59647  12.771   1.462  10.825  0.3659  0.9911  0.3119
  433MOL0     C59648  12.824   1.548  10.912  0.0227 -0.1949  0.4181
  433MOL0     C59649  12.787   1.533  11.052 -0.1813  0.1490  0.4114
  433MOL0     C59650  12.826   1.632  11.136 -0.1188  1.0789 -0.5865
  433MOL0     C59651  12.898   1.746  11.096  0.0532  0.0917  0.4349
  433MOL0     O59652  12.929   1.832  11.203 -0.0824 -0.6153  0.5065
  433MOL0     C59653  13.007   1.958  11.176  0.1582  0.3303 -0.2148
  433MOL0     C59654  12.991   2.042  11.294  0.2642  0.1940  0.5111
  433MOL0     C59655  13.070   1.988  11.414 -0.1840  0.3539  0.6647
  433MOL0     C59656  13.223   2.009  11.410 -0.0334 -0.3182  0.1258
  433MOL0     C59657  13.287   2.009  11.548  0.4223  0.7563  0.1155
  433MOL0     C59658  13.293   1.870  11.615 -0.2849  0.0119  1.1224
  433MOL0     C59659  13.341   1.884  11.760 -0.2818  0.0453  0.7853
  433MOL0     C59660  13.397   1.756  11.812 -0.0704 -0.3731  0.4165
  433MOL0    Cl59661  13.402   1.764  11.992 -0.3222  0.2999 -0.1923
  433MOL0     C59662  12.943   1.758  10.964 -1.0919  0.2129 -0.1633
  433MOL0     C59663  12.912   1.656  10.878 -0.1053  0.5628  0.0428
  433MOL0     O59664  12.869   1.271  10.893  0.3742  0.3842 -0.0886
  433MOL0     C59665  12.583   1.323  10.686  0.1866  0.2516  0.1629
  433MOL0     C59666  12.464   1.270  10.648  0.3697  0.4928  0.9429
  433MOL0     N59667  11.937   0.899  10.595 -0.5166  0.3550 -0.7614
  433MOL0     N59668  11.844   0.833  10.543  0.1793 -0.4223  1.0649
  433MOL0     C59669  10.716   1.604  10.512  0.1886  0.3919  0.9473
  433MOL0     C59670  10.610   1.666  10.569  0.4029 -0.4010 -0.1299
  433MOL0     C59671  10.382   2.083  10.633 -0.3397  0.1727 -0.0852
  433MOL0     C59672  10.277   2.137  10.555 -0.4178 -0.2672  1.0100
  433MOL0     C59673  10.194   2.244  10.599 -0.1221  0.0356 -0.4609
  433MOL0     C59674  10.227   2.302  10.722  0.5173  0.1680  0.7842
  433MOL0     O59675  10.180   2.420  10.773 -0.1429  0.6780  0.4958
  433MOL0     C59676  10.047   2.464  10.727 -0.5471 -0.4427  0.9072
  433MOL0     C59677   9.995   2.565  10.825 -0.2208  0.1478 -0.8454
  433MOL0     C59678   9.874   2.635  10.765  0.1185 -0.0093 -0.1509
  433MOL0     C59679   9.914   2.765  10.704 -0.4030  0.1900  0.0331
  433MOL0     C59680   9.977   2.752  10.571  1.2041  0.9002  0.4777
  433MOL0     C59681  10.029   2.734  10.464  0.1442 -0.4639 -0.7328
  433MOL0     C59682  10.336   2.258  10.797  0.2285  0.0259  0.5645
  433MOL0     C59683  10.406   2.140  10.758 -0.2007  0.5409  0.6798
  433MOL0     C59684  10.516   2.078  10.846 -0.3467  0.8779 -0.2340
  433MOL0     H59685  10.749   1.975  10.598 -0.9288 -0.3873  1.7838
  433MOL0     H59686  10.941   1.854  10.510 -0.0775  0.1176  4.6290
  433MOL0     H59687  10.855   1.458  10.326 -0.3900  3.5219 -2.0424
  433MOL0     H59688  10.920   1.435  10.489 -3.9285 -0.3809 -1.5552
  433MOL0     H59689  11.072   1.419  10.220 -1.6897 -0.0853  0.2189
  433MOL0     H59690  11.161   1.491  10.359  0.7340 -1.4415  0.4139
  433MOL0     H59691  11.125   1.309  10.495  1.3445  3.5662 -0.4968
  433MOL0     H59692  11.040   1.226  10.357  0.6285 -0.7793  1.5400
  433MOL0     H59693  11.236   1.200  10.237  0.4765  1.0301 -0.1724
  433MOL0     H59694  11.323   1.322  10.332  0.3719 -0.1651 -0.9209
  433MOL0     H59695  11.227   1.060  10.468 -0.2155 -0.4214 -1.7885
  433MOL0     H59696  11.324   1.179  10.535 -2.5947  0.3846  0.9602
  433MOL0     H59697  11.402   1.010  10.281  3.1250  1.5355 -3.2658
  433MOL0     H59698  11.502   1.144  10.352 -3.5475  2.4937 -1.8674
  433MOL0     H59699  11.420   0.890  10.476 -1.3573  0.7935 -1.7911
  433MOL0     H59700  11.517   1.006  10.568 -1.7375 -3.3971  2.4637
  433MOL0     H59701  11.610   0.783  10.417 -1.0245  0.0768  1.3874
  433MOL0     H59702  11.637   0.929  10.308 -0.2515  0.0822 -0.8131
  433MOL0     H59703  11.764   1.137  10.466  0.9102 -0.1005 -0.1059
  433MOL0     H59704  11.941   1.222  10.678  1.5659  0.8605 -0.3876
  433MOL0     H59705  12.068   1.168  10.569 -0.2589 -0.1542 -0.1794
  433MOL0     H59706  12.158   1.188  10.801  2.2436 -0.6965 -0.0183
  433MOL0     H59707  12.016   1.098  10.868 -2.5802  1.2519 -2.1743
  433MOL0     H59708  12.248   0.989  10.858  2.1924 -2.2143 -1.1763
  433MOL0     H59709  12.110   0.893  10.775 -1.9898  1.6665 -2.4100
  433MOL0     H59710  12.340   0.893  10.653  0.9509 -1.0258 -1.7576
  433MOL0     H59711  12.210   0.944  10.561  2.3957  1.1493 -1.8964
  433MOL0     H59712  12.504   0.955  10.769 -0.0891  1.4716  2.1314
  433MOL0     H59713  12.685   0.925  10.884  0.3276  0.1451  0.4317
  433MOL0     H59714  12.750   1.063  10.970 -0.2707 -1.2428  0.5151
  433MOL0     H59715  12.830   0.996  10.815  0.7042 -3.7151  2.3805
  433MOL0     H59716  12.723   1.453  11.087 -1.4588  1.1472  0.4354
  433MOL0     H59717  12.785   1.609  11.234  2.3824 -1.1262  0.0597
  433MOL0     H59718  13.106   1.921  11.146 -0.4404 -1.7319  0.1526
  433MOL0     H59719  12.963   2.003  11.087 -1.4238 -2.6184 -1.0714
  433MOL0     H59720  13.010   2.147  11.271 -0.5578  0.9004  2.8030
  433MOL0     H59721  12.883   2.031  11.306  0.2548 -1.9273 -0.9505
  433MOL0     H59722  13.057   1.883  11.442 -0.2545  0.8069  2.4875
  433MOL0     H59723  13.032   2.044  11.500 -0.6959 -3.6909  3.3743
  433MOL0     H59724  13.233   2.105  11.359 -0.2334 -0.6476 -0.5514
  433MOL0     H59725  13.275   1.935  11.347  0.1690 -0.3316  0.3054
  433MOL0     H59726  13.385   2.058  11.550  1.4160 -1.1017 -0.5860
  433MOL0     H59727  13.232   2.072  11.618  4.7669  1.9594  2.8384
  433MOL0     H59728  13.370   1.808  11.567  0.7088  0.5947  1.9153
  433MOL0     H59729  13.200   1.816  11.597  0.3460 -0.3077 -1.5866
  433MOL0     H59730  13.258   1.922  11.819 -0.5432 -0.2901  0.6368
  433MOL0     H59731  13.416   1.964  11.753 -1.3175  0.9298 -0.8479
  433MOL0     H59732  13.499   1.742  11.777 -0.2125 -0.3353 -0.0236
  433MOL0     H59733  13.332   1.678  11.772  0.0852 -0.4285  0.2682
  433MOL0     H59734  13.008   1.841  10.937 -0.6240  0.5843  1.9204
  433MOL0     H59735  12.952   1.654  10.778  1.9586  1.4096  0.8023
  433MOL0     H59736  12.607   1.428  10.673 -2.4752  1.2543  2.3584
  433MOL0     H59737  12.391   1.345  10.618  1.2172  0.8395 -0.3431
  433MOL0     H59738  10.714   1.495  10.506  3.3293  0.2886  0.0056
  433MOL0     H59739  10.528   1.608  10.609  0.7522  0.5838  2.1389
  433MOL0     H59740  10.250   2.093  10.460  1.6371 -0.3281  0.3956
  433MOL0     H59741  10.120   2.279  10.528  1.3442  3.0356 -0.6346
  433MOL0     H59742  10.072   2.510  10.631  0.0366 -1.6751  0.4404
  433MOL0     H59743   9.975   2.382  10.717  1.2121 -2.0584  1.0328
  433MOL0     H59744  10.082   2.626  10.849  0.0622 -0.4238 -0.4004
  433MOL0     H59745   9.959   2.512  10.913  0.9247  0.5891 -0.1006
  433MOL0     H59746   9.822   2.567  10.698  1.5580 -0.8455 -0.4565
  433MOL0     H59747   9.804   2.671  10.841 -0.1456  0.3619 -0.5648
  433MOL0     H59748   9.988   2.817  10.766 -0.1799 -0.1868  0.0858
  433MOL0     H59749   9.823   2.824  10.690 -0.4917  0.2262  0.6919
  433MOL0     H59750  10.087   2.710  10.378  0.5565 -1.8955 -0.1006
  433MOL0     H59751  10.362   2.295  10.896 -0.8734  1.9700  0.1736
  433MOL0     H59752  10.612   2.069  10.795 -1.1872 -0.3939 -1.6817
  433MOL0     H59753  10.541   2.147  10.928  1.4340  0.6261 -0.5370
  433MOL0     H59754  10.499   1.976  10.882  1.9105  0.4424 -0.3039
  434MOL0     O59755   7.722   7.240  10.319  0.0505  0.2689  1.2217
  434MOL0     C59756   7.610   7.228  10.364  0.7969 -0.0283 -0.2762
  434MOL0     O59757   7.571   7.126  10.451 -0.3498  0.3460 -0.1768
  434MOL0     C59758   7.667   7.056  10.522  0.2607  0.5820  1.1105
  434MOL0     C59759   7.767   7.122  10.593  0.6221 -1.3258 -0.5978
  434MOL0     C59760   7.860   7.044  10.661 -0.5953 -0.5097 -0.8912
  434MOL0     C59761   7.860   6.905  10.663  0.2445 -0.0347 -0.5762
  434MOL0     O59762   7.964   6.847  10.721 -0.3600 -0.0023 -0.0721
  434MOL0     C59763   7.952   6.721  10.776  0.7651 -0.0490  1.3897
  434MOL0     C59764   8.078   6.699  10.855 -0.9987  0.0595  0.0767
  434MOL0     C59765   8.072   6.564  10.916 -0.4521 -0.0058 -1.4214
  434MOL0     C59766   8.171   6.531  11.033 -0.0586 -0.3633  0.5277
  434MOL0     C59767   8.132   6.575  11.171 -0.1055  0.1824  0.8044
  434MOL0     C59768   8.252   6.579  11.261  0.0509 -0.2386  0.5949
  434MOL0     C59769   8.214   6.620  11.404  0.0894 -0.3553 -0.7418
  434MOL0     C59770   8.332   6.588  11.494  0.1834  0.0017 -0.3568
  434MOL0     N59771   8.458   6.645  11.473  0.0374 -0.2613  0.1721
  434MOL0     C59772   8.551   6.602  11.388  0.4984 -0.9922  0.0750
  434MOL0     C59773   8.642   6.704  11.384 -0.7990 -0.8896 -0.5491
  434MOL0     C59774   8.749   6.699  11.280 -1.2528  0.3246  0.7567
  434MOL0     C59775   8.844   6.582  11.306  0.1077  0.5955  0.4037
  434MOL0     C59776   8.950   6.553  11.196  0.1498  0.1129  0.5703
  434MOL0     C59777   9.040   6.442  11.241 -0.3115 -0.6517  0.1784
  434MOL0     O59778   9.095   6.469  11.369  0.2569 -0.3000 -0.0436
  434MOL0     C59779   9.193   6.564  11.391 -0.0290  0.3391 -0.3186
  434MOL0     C59780   9.204   6.631  11.513 -0.1619 -0.4852  0.6161
  434MOL0     C59781   9.289   6.736  11.541  0.2932 -0.0028 -0.5340
  434MOL0     C59782   9.276   6.803  11.681 -1.0806  0.5113 -0.1395
  434MOL0     C59783   9.365   6.783  11.438 -0.1882 -0.3231 -0.2171
  434MOL0     C59784   9.462   6.899  11.462  0.1534  0.6930  0.1144
  434MOL0     O59785   9.588   6.879  11.418 -0.1396 -0.3795  0.3807
  434MOL0     C59786   9.690   6.972  11.444 -0.9843  0.5403 -1.4844
  434MOL0     C59787   9.697   7.061  11.548  0.1356 -0.0025 -0.3729
  434MOL0     C59788   9.814   7.140  11.574 -0.0769  0.1625 -0.1467
  434MOL0     C59789   9.913   7.138  11.479 -0.4388 -0.0227 -0.4158
  434MOL0     O59790  10.035   7.204  11.503 -0.0331 -0.1158 -0.4032
  434MOL0     C59791  10.163   7.152  11.465  0.0433  0.4427 -0.0607
  434MOL0     C59792  10.206   7.034  11.551 -0.1726  0.4731 -0.2169
  434MOL0     C59793  10.311   6.946  11.492 -0.6441 -0.8698  0.4302
  434MOL0     C59794  10.389   6.865  11.600 -0.5648 -0.7096 -0.8173
  434MOL0     C59795  10.514   6.937  11.641 -0.6948  0.3028 -0.4486
  434MOL0     C59796  10.569   6.881  11.768 -0.3120  0.1648 -0.7949
  434MOL0     C59797  10.678   6.978  11.822 -0.3049 -0.0492 -0.8846
  434MOL0     C59798  10.734   6.915  11.956 -0.3234 -0.0480  0.9596
  434MOL0    Cl59799  10.649   6.976  12.102  0.0392  0.1662 -0.4354
  434MOL0     C59800   9.901   7.057  11.358 -0.5034  1.0968  0.2697
  434MOL0     C59801   9.792   6.968  11.353  0.1552  0.4122  0.2828
  434MOL0     O59802   9.413   6.996  11.527  0.1136  0.6686  0.8366
  434MOL0     C59803   9.364   6.716  11.316  1.0829  0.3133  0.2815
  434MOL0     C59804   9.281   6.604  11.289  0.3883 -0.1251 -0.1971
  434MOL0     N59805   8.610   6.800  11.484  0.4431 -0.5190  0.3754
  434MOL0     N59806   8.503   6.761  11.536  0.2858  0.8177  0.4251
  434MOL0     C59807   7.755   6.840  10.598 -0.3668  0.6191  0.5719
  434MOL0     C59808   7.662   6.924  10.530 -0.3710  0.2071 -0.2199
  434MOL0     C59809   7.490   7.317  10.325 -0.3081 -0.6297  0.6443
  434MOL0     C59810   7.359   7.313  10.390  0.0890 -0.3952 -0.1226
  434MOL0     C59811   7.259   7.412  10.354  0.5190  0.0890  0.4935
  434MOL0     C59812   7.286   7.511  10.262 -0.3813  0.3309 -0.0621
  434MOL0     O59813   7.183   7.600  10.242  0.1985 -0.4642  0.2303
  434MOL0     C59814   7.214   7.724  10.167  0.5141 -0.4021  0.3399
  434MOL0     C59815   7.313   7.816  10.239 -0.1503  1.0922 -0.3236
  434MOL0     C59816   7.286   7.968  10.218  0.1461 -0.3772  0.0848
  434MOL0     C59817   7.413   8.069  10.224  0.2855  0.5023 -0.3356
  434MOL0     C59818   7.513   8.041  10.330  0.2404 -0.7564  0.0965
  434MOL0     C59819   7.595   8.021  10.414 -0.3751  0.0271 -0.4404
  434MOL0     C59820   7.415   7.509  10.198 -0.0622 -0.3037 -0.5064
  434MOL0     C59821   7.512   7.417  10.225  0.4588 -0.1094 -0.4805
  434MOL0     C59822   7.632   7.437  10.142 -0.2687 -0.4306 -0.7750
  434MOL0     H59823   7.765   7.230  10.578 -0.3549 -0.7624  2.6627
  434MOL0     H59824   7.945   7.094  10.704 -0.3366 -0.2490 -1.6893
  434MOL0     H59825   7.945   6.651  10.692  2.5565  1.4125 -0.0541
  434MOL0     H59826   7.871   6.714  10.849  1.7382 -1.0531  2.4275
  434MOL0     H59827   8.165   6.695  10.789 -0.3715 -4.0274  0.8776
  434MOL0     H59828   8.087   6.785  10.923  1.5363 -0.0584 -0.0112
  434MOL0     H59829   7.972   6.555  10.959 -0.1133 -1.5299 -0.8976
  434MOL0     H59830   8.092   6.494  10.834  2.4145  1.0085 -1.6946
  434MOL0     H59831   8.175   6.421  11.031 -2.6687 -0.5184  0.3663
  434MOL0     H59832   8.269   6.573  11.007 -1.9913  3.6385 -0.9176
  434MOL0     H59833   8.059   6.508  11.217 -1.0491  0.6109 -0.0092
  434MOL0     H59834   8.078   6.670  11.167 -2.2207 -0.9943 -0.6484
  434MOL0     H59835   8.299   6.481  11.266 -3.0064 -2.0395 -2.3902
  434MOL0     H59836   8.326   6.649  11.221  1.0989 -1.8274 -0.3445
  434MOL0     H59837   8.125   6.579  11.453  0.6502  0.5599  1.1134
  434MOL0     H59838   8.186   6.725  11.396 -2.4031 -1.0809 -3.8848
  434MOL0     H59839   8.313   6.613  11.599  0.8106  4.0683 -1.0337
  434MOL0     H59840   8.342   6.480  11.483  0.6484 -0.0772  0.7442
  434MOL0     H59841   8.535   6.520  11.319 -1.9424  0.5629 -1.3333
  434MOL0     H59842   8.804   6.794  11.284 -0.9787  0.1566  1.0495
  434MOL0     H59843   8.687   6.695  11.190 -0.1500 -0.8671  0.0195
  434MOL0     H59844   8.894   6.591  11.403  3.4004 -1.9636 -0.8432
  434MOL0     H59845   8.796   6.484  11.298  1.6008 -0.2188  0.9106
  434MOL0     H59846   8.901   6.530  11.101 -0.6142  2.3909  0.3447
  434MOL0     H59847   9.005   6.644  11.171  0.2038 -0.1127 -0.1331
  434MOL0     H59848   8.972   6.356  11.247 -1.0541 -0.2345 -1.6125
  434MOL0     H59849   9.114   6.433  11.161  1.3940 -0.1470  1.6469
  434MOL0     H59850   9.133   6.598  11.588 -0.2298  1.8455  1.6699
  434MOL0     H59851   9.192   6.872  11.669  1.0418  3.3663  0.2780
  434MOL0     H59852   9.358   6.862  11.723 -0.3540  0.7916 -1.8426
  434MOL0     H59853   9.264   6.731  11.762  2.7349 -1.7550 -1.3102
  434MOL0     H59854   9.613   7.059  11.617  0.1117  1.2975 -0.3274
  434MOL0     H59855   9.830   7.197  11.665  1.1101 -0.0889 -0.1794
  434MOL0     H59856  10.180   7.129  11.359  1.3807  0.1492  0.2033
  434MOL0     H59857  10.230   7.231  11.497  1.3141 -0.2368 -0.9707
  434MOL0     H59858  10.259   7.066  11.642  2.0096  1.6084 -1.7840
  434MOL0     H59859  10.120   6.969  11.570  1.3126 -1.2555  0.9855
  434MOL0     H59860  10.387   7.001  11.435 -1.3260 -2.1670 -1.8559
  434MOL0     H59861  10.261   6.880  11.421 -0.3688  1.5376 -2.1787
  434MOL0     H59862  10.408   6.764  11.562  0.3153 -0.8091 -0.1459
  434MOL0     H59863  10.320   6.848  11.684  1.3441 -0.0954  0.9594
  434MOL0     H59864  10.584   6.932  11.557 -1.1224 -1.0320 -0.7564
  434MOL0     H59865  10.485   7.042  11.654  0.9851  0.6416  0.9703
  434MOL0     H59866  10.622   6.787  11.752  0.8641  0.2070  2.1211
  434MOL0     H59867  10.494   6.872  11.848  0.8515  1.1221  0.4591
  434MOL0     H59868  10.641   7.080  11.837 -1.3244 -0.4706 -0.3882
  434MOL0     H59869  10.769   6.986  11.762  1.9741 -1.6612  2.0705
  434MOL0     H59870  10.834   6.956  11.967 -0.5932  0.9426 -0.0881
  434MOL0     H59871  10.752   6.807  11.947 -0.4000  0.0660 -0.9875
  434MOL0     H59872   9.965   7.066  11.271  0.1754  0.7175  0.7237
  434MOL0     H59873   9.786   6.896  11.272  1.0269 -0.3080  0.8454
  434MOL0     H59874   9.431   6.745  11.235  1.1173 -3.8387 -1.3792
  434MOL0     H59875   9.275   6.564  11.188 -2.0782  3.5755 -1.7082
  434MOL0     H59876   7.734   6.733  10.601 -0.1088  0.5270 -0.5326
  434MOL0     H59877   7.572   6.878  10.492 -1.9365  1.8802  1.2804
  434MOL0     H59878   7.340   7.245  10.472 -0.0988  1.6907  1.6641
  434MOL0     H59879   7.166   7.411  10.410 -1.0242 -0.3762 -1.8901
  434MOL0     H59880   7.236   7.691  10.065 -1.4036  1.0030 -0.5833
  434MOL0     H59881   7.124   7.784  10.152  2.4712  2.3649 -1.1543
  434MOL0     H59882   7.413   7.793  10.201 -0.4603 -1.4944  0.2242
  434MOL0     H59883   7.311   7.791  10.346  0.1802  1.6407 -0.1879
  434MOL0     H59884   7.253   7.984  10.115 -0.2887 -1.8571 -0.0220
  434MOL0     H59885   7.206   8.009  10.280 -0.3452  1.4731 -1.6778
  434MOL0     H59886   7.370   8.168  10.239  0.4780  0.6493 -0.7466
  434MOL0     H59887   7.463   8.075  10.126  0.7635 -2.3515 -0.3540
  434MOL0     H59888   7.671   8.011  10.488 -0.9232 -4.0584 -0.2086
  434MOL0     H59889   7.430   7.586  10.122  2.2447 -0.1822  0.0100
  434MOL0     H59890   7.612   7.505  10.059 -1.6108 -0.2669 -0.3265
  434MOL0     H59891   7.715   7.483  10.196  0.3424 -0.1908 -1.8747
  434MOL0     H59892   7.668   7.345  10.093  1.0306 -0.7218  0.6469
  435MOL0     O59893  10.809   7.454   6.480 -0.3382 -0.5423 -0.2293
  435MOL0     C59894  10.745   7.475   6.579  0.3892 -0.2666 -0.0766
  435MOL0     O59895  10.796   7.504   6.707  0.1600  0.1691  0.5157
  435MOL0     C59896  10.925   7.544   6.716  0.6650 -0.9901 -0.2312
  435MOL0     C59897  10.988   7.638   6.627  0.5633  0.6974  0.9274
  435MOL0     C59898  11.124   7.680   6.640  0.3679  0.0347  0.0090
  435MOL0     C59899  11.200   7.624   6.747 -0.1804 -0.7598  0.8113
  435MOL0     O59900  11.333   7.669   6.752  0.0284  0.1437 -1.3099
  435MOL0     C59901  11.415   7.628   6.861 -0.5284  0.8051  0.0849
  435MOL0     C59902  11.552   7.631   6.804 -0.7669  0.4872  0.5810
  435MOL0     C59903  11.660   7.595   6.911 -0.5226 -0.8851  0.1003
  435MOL0     C59904  11.749   7.718   6.942  0.6570 -0.0069 -0.2191
  435MOL0     C59905  11.851   7.696   7.045 -0.9471 -0.7343  0.4215
  435MOL0     C59906  11.932   7.821   7.064 -0.2445 -1.2953  0.5991
  435MOL0     C59907  12.035   7.849   6.944 -0.1388  0.7641 -0.1430
  435MOL0     C59908  12.121   7.740   6.883  0.3955 -0.4740 -0.3367
  435MOL0     N59909  12.243   7.722   6.964  0.6923 -0.7629  0.3146
  435MOL0     C59910  12.345   7.823   6.984 -0.1888  0.6007  0.4450
  435MOL0     C59911  12.447   7.750   7.026  0.5440  0.3897 -0.0142
  435MOL0     C59912  12.591   7.794   7.066 -0.1399  0.1455 -0.3003
  435MOL0     C59913  12.593   7.874   7.194 -0.4734  0.1577  0.6803
  435MOL0     C59914  12.714   7.968   7.188  0.9048 -0.1168  0.0197
  435MOL0     C59915  12.708   8.077   7.299 -0.3201  0.2378  0.3500
  435MOL0     O59916  12.797   8.178   7.250 -0.1245  0.6204 -0.6929
  435MOL0     C59917  12.804   8.280   7.333  0.2099  0.0451  0.2600
  435MOL0     C59918  12.716   8.393   7.334  0.3767 -0.1051  0.2847
  435MOL0     C59919  12.744   8.511   7.407 -0.1771  0.2929  0.2427
  435MOL0     C59920  12.655   8.630   7.395  0.7635 -0.6733 -0.2358
  435MOL0     C59921  12.855   8.517   7.491 -0.3794  0.1073 -0.4020
  435MOL0     C59922  12.912   8.638   7.564 -0.7684  0.2497  0.4334
  435MOL0     O59923  12.968   8.614   7.691  0.5800 -0.5020  0.1264
  435MOL0     C59924  13.090   8.671   7.733 -0.1997  0.4165  0.3355
  435MOL0     C59925  13.110   8.702   7.868 -0.0532 -1.1722  0.5442
  435MOL0     C59926  13.224   8.760   7.918 -0.6275  0.8106  0.3415
  435MOL0     C59927  13.339   8.785   7.829  0.1437 -0.1949  0.0797
  435MOL0     O59928  13.455   8.841   7.882  0.1903  0.4429  0.1191
  435MOL0     C59929  13.487   8.825   8.022 -1.0434 -0.7511  0.1186
  435MOL0     C59930  13.620   8.897   8.068  0.1005  0.5857  0.0355
  435MOL0     C59931  13.717   8.899   7.953 -0.9947  0.9650  0.1243
  435MOL0     C59932  13.768   8.755   7.925 -0.1215  0.4804  0.3119
  435MOL0     C59933  13.874   8.742   7.812  0.5120 -0.2955 -0.7249
  435MOL0     C59934  13.860   8.814   7.671  0.2970  0.4460 -0.6352
  435MOL0     C59935  13.748   8.744   7.600 -0.4481 -0.3825 -0.0143
  435MOL0     C59936  13.740   8.806   7.454  0.3329  0.1420  0.0200
  435MOL0    Cl59937  13.872   8.740   7.354 -0.1337  0.2958  0.1049
  435MOL0     C59938  13.318   8.756   7.690 -1.0291  0.1438 -0.1568
  435MOL0     C59939  13.195   8.703   7.637 -0.3464 -0.0470 -0.4582
  435MOL0     O59940  12.910   8.747   7.507  0.6782  0.3279  0.0047
  435MOL0     C59941  12.932   8.392   7.497  0.6885 -0.5307  0.0541
  435MOL0     C59942  12.902   8.277   7.426 -0.2172 -0.9548  0.3134
  435MOL0     N59943  12.410   7.617   7.034  0.7503 -0.0808 -0.2703
  435MOL0     N59944  12.289   7.600   7.004  0.6147  0.0077  0.2322
  435MOL0     C59945  11.136   7.538   6.839  0.2105 -0.0240  0.7209
  435MOL0     C59946  11.002   7.493   6.827 -0.9267 -0.2973  0.4509
  435MOL0     C59947  10.598   7.462   6.584  0.7267 -0.3652  0.4445
  435MOL0     C59948  10.536   7.413   6.700 -0.7113  0.5665  0.2919
  435MOL0     C59949  10.406   7.369   6.709  0.0045 -0.8316 -0.6375
  435MOL0     C59950  10.321   7.387   6.597  0.0460 -0.0693  0.1755
  435MOL0     O59951  10.189   7.339   6.596 -0.5985 -0.5232  0.3838
  435MOL0     C59952  10.108   7.342   6.712 -0.0423  0.4250  0.4129
  435MOL0     C59953   9.961   7.342   6.664 -0.0749 -0.5561  0.5110
  435MOL0     C59954   9.898   7.474   6.614 -0.5683 -1.0651  0.0511
  435MOL0     C59955   9.956   7.521   6.483  0.0353 -0.2906 -0.4714
  435MOL0     C59956   9.914   7.427   6.379  0.3834  0.5575 -0.1063
  435MOL0     C59957   9.885   7.344   6.293 -0.0009 -0.4748  0.5843
  435MOL0     C59958  10.379   7.449   6.482  0.2348 -0.2237 -0.3001
  435MOL0     C59959  10.510   7.474   6.470  0.4949 -0.9092  0.0281
  435MOL0     C59960  10.563   7.510   6.336 -0.3342 -0.4649  1.1094
  435MOL0     H59961  10.935   7.686   6.546  0.6267 -1.1482 -0.2530
  435MOL0     H59962  11.170   7.749   6.570 -0.2403 -0.2828 -0.7240
  435MOL0     H59963  11.389   7.531   6.903  0.8464  0.9075  1.2364
  435MOL0     H59964  11.409   7.703   6.941  1.1672 -1.3104  2.3162
  435MOL0     H59965  11.563   7.558   6.723 -1.3710 -2.0783  2.6736
  435MOL0     H59966  11.572   7.731   6.765  2.7607 -1.7162 -4.2816
  435MOL0     H59967  11.626   7.559   7.009  1.8491  0.1861  1.4043
  435MOL0     H59968  11.721   7.510   6.881  0.8378  0.0535  0.1330
  435MOL0     H59969  11.797   7.753   6.850 -0.2165 -1.6610 -1.3592
  435MOL0     H59970  11.684   7.800   6.974  1.9308  2.1825 -2.7695
  435MOL0     H59971  11.911   7.611   7.012  1.5683  0.4616  1.6324
  435MOL0     H59972  11.800   7.661   7.136 -2.4450  2.0539  0.7728
  435MOL0     H59973  11.861   7.903   7.080  0.5224 -0.8356  1.7357
  435MOL0     H59974  11.984   7.808   7.159  1.1652 -1.7422 -0.2108
  435MOL0     H59975  12.099   7.936   6.965  1.7259 -1.4191  4.4644
  435MOL0     H59976  11.970   7.882   6.862  1.3247  0.7205 -1.3674
  435MOL0     H59977  12.073   7.642   6.873 -3.2340  1.1433 -0.2837
  435MOL0     H59978  12.154   7.774   6.785 -0.8392 -0.0915 -0.6290
  435MOL0     H59979  12.348   7.931   6.972 -0.2671  0.8578  2.4659
  435MOL0     H59980  12.629   7.859   6.987  0.2071  1.7429  1.1265
  435MOL0     H59981  12.657   7.707   7.077  3.7348  2.8778  0.1950
  435MOL0     H59982  12.500   7.928   7.210 -0.1321  2.2053 -3.0077
  435MOL0     H59983  12.613   7.796   7.268  2.0046 -1.8522 -1.8746
  435MOL0     H59984  12.809   7.912   7.192  0.0185 -1.6348  0.8559
  435MOL0     H59985  12.717   8.012   7.088  0.3623  1.4828  0.6890
  435MOL0     H59986  12.611   8.128   7.307 -0.9654 -0.8215 -0.4521
  435MOL0     H59987  12.735   8.039   7.397  0.1610 -0.4561 -0.0472
  435MOL0     H59988  12.622   8.386   7.279 -1.0026  0.5950  2.4418
  435MOL0     H59989  12.553   8.591   7.394  0.1970  0.7647 -0.7907
  435MOL0     H59990  12.673   8.687   7.303 -1.0907 -2.4925 -1.8236
  435MOL0     H59991  12.670   8.700   7.478 -0.3775  1.7264 -1.9269
  435MOL0     H59992  13.029   8.688   7.939  0.9580  1.2908  2.3314
  435MOL0     H59993  13.219   8.785   8.024  0.0785  0.5738  0.4413
  435MOL0     H59994  13.403   8.864   8.081 -0.4076  0.2804  0.3678
  435MOL0     H59995  13.498   8.718   8.047 -1.5682 -0.7962  0.1608
  435MOL0     H59996  13.603   9.003   8.089 -0.8790  0.4549 -0.0484
  435MOL0     H59997  13.652   8.860   8.165 -2.5100  0.6405  1.0019
  435MOL0     H59998  13.802   8.954   7.994 -2.2436  1.9371  1.4785
  435MOL0     H59999  13.687   8.958   7.866  0.9715  1.7283 -0.0809
  435MOL0     H60000  13.679   8.694   7.908 -0.6648  1.5084 -0.6956
  435MOL0     H60001  13.813   8.715   8.016  1.4844  3.7869  1.1324
  435MOL0     H60002  13.958   8.792   7.862  0.8366  0.2000 -1.7407
  435MOL0     H60003  13.903   8.639   7.794 -0.9898 -0.5972 -1.6095
  435MOL0     H60004  13.947   8.818   7.605  0.0364  1.9715 -0.9146
  435MOL0     H60005  13.832   8.916   7.696  3.8377  1.8502 -1.6790
  435MOL0     H60006  13.652   8.764   7.650 -1.2280 -3.2219 -0.1899
  435MOL0     H60007  13.775   8.638   7.601  2.8304  0.2725  3.5160
  435MOL0     H60008  13.741   8.915   7.454  1.1876  0.1664  1.9360
  435MOL0     H60009  13.641   8.777   7.417  0.6185  1.5318 -1.9784
  435MOL0     H60010  13.385   8.772   7.606  0.0441  0.6087  0.7620
  435MOL0     H60011  13.176   8.684   7.532 -0.9220  0.2259 -0.4049
  435MOL0     H60012  13.019   8.387   7.561  1.5544  2.1487 -0.7377
  435MOL0     H60013  12.974   8.196   7.429  3.2145  1.7794 -1.1516
  435MOL0     H60014  11.191   7.513   6.929 -0.4273  0.0426  1.1324
  435MOL0     H60015  10.964   7.432   6.908  3.2162 -0.3215  2.6370
  435MOL0     H60016  10.588   7.391   6.793 -1.1052 -1.6361  0.0388
  435MOL0     H60017  10.368   7.321   6.798 -0.5680 -4.0123 -2.4534
  435MOL0     H60018  10.134   7.248   6.763  2.8211  0.9979  0.1565
  435MOL0     H60019  10.126   7.424   6.782  1.1115  2.0317 -1.6784
  435MOL0     H60020   9.902   7.316   6.753  2.6312  1.5793  3.1475
  435MOL0     H60021   9.950   7.276   6.577 -2.5279  2.1737 -1.4417
  435MOL0     H60022   9.789   7.466   6.612 -0.8525  0.8412  2.4783
  435MOL0     H60023   9.916   7.557   6.683 -0.8708 -0.8772 -0.0945
  435MOL0     H60024  10.066   7.521   6.483  0.1428 -3.3422 -2.2580
  435MOL0     H60025   9.932   7.625   6.459  0.4427  0.4814  2.1849
  435MOL0     H60026   9.847   7.291   6.208  0.3176 -0.9193  0.7152
  435MOL0     H60027  10.307   7.475   6.405 -1.3915 -0.2555  1.1621
  435MOL0     H60028  10.608   7.417   6.301  2.4852  2.0878 -2.9899
  435MOL0     H60029  10.491   7.554   6.267  0.6152  0.1193  0.4617
  435MOL0     H60030  10.640   7.588   6.337 -0.7542 -0.0141  3.3967
  436MOL0     O60031   6.583   1.783  10.574  0.0618  0.5566 -0.4195
  436MOL0     C60032   6.666   1.693  10.557  0.4706 -0.8518 -0.4966
  436MOL0     O60033   6.724   1.665  10.434  0.6838  0.4873  0.1815
  436MOL0     C60034   6.663   1.722  10.324  0.7012  0.2399 -0.4924
  436MOL0     C60035   6.550   1.656  10.270 -0.5214 -0.1090  0.4524
  436MOL0     C60036   6.471   1.715  10.172 -0.6720 -0.2445  0.1001
  436MOL0     C60037   6.510   1.834  10.119 -0.1358 -0.1989  0.3894
  436MOL0     O60038   6.404   1.882  10.041 -0.2624  0.6414 -0.1637
  436MOL0     C60039   6.409   2.007   9.984  0.2360 -0.3252  0.0297
  436MOL0     C60040   6.286   2.098  10.014  0.0373  0.6358  0.0890
  436MOL0     C60041   6.159   2.027   9.969 -0.6751 -0.0323  0.7383
  436MOL0     C60042   6.035   2.114   9.994 -0.1870 -0.5650  0.2067
  436MOL0     C60043   5.993   2.193   9.864  0.0860 -0.5904 -0.1454
  436MOL0     C60044   6.040   2.337   9.856 -0.2379 -0.1650  0.6390
  436MOL0     C60045   6.068   2.376   9.717 -0.2015  0.2967 -0.3817
  436MOL0     C60046   6.188   2.289   9.654  0.3770 -0.2660 -0.2442
  436MOL0     N60047   6.221   2.353   9.525 -0.6670 -0.2492  0.5022
  436MOL0     C60048   6.167   2.331   9.396 -0.9194 -0.1702  0.3308
  436MOL0     C60049   6.230   2.417   9.310  0.4667 -0.1169 -0.4349
  436MOL0     C60050   6.223   2.410   9.162  0.1199 -0.1823 -0.3727
  436MOL0     C60051   6.348   2.340   9.108 -0.8359 -0.2648 -0.1055
  436MOL0     C60052   6.340   2.338   8.957 -0.5494 -0.1521  0.4488
  436MOL0     C60053   6.348   2.461   8.871  1.0648 -0.0290  0.1233
  436MOL0     O60054   6.468   2.531   8.917 -0.2571 -0.0737  1.0392
  436MOL0     C60055   6.585   2.483   8.876 -0.4136 -0.4590  0.2462
  436MOL0     C60056   6.609   2.471   8.738 -0.2106 -0.1994 -0.5925
  436MOL0     C60057   6.723   2.409   8.682  0.0993 -0.1509  0.5220
  436MOL0     C60058   6.736   2.393   8.535 -0.2078  0.2474 -0.3787
  436MOL0     C60059   6.827   2.370   8.774 -0.1464 -0.6589  0.4533
  436MOL0     C60060   6.962   2.320   8.736 -0.4949 -0.6944  0.0120
  436MOL0     O60061   7.064   2.323   8.830  0.2747 -0.0656 -0.1880
  436MOL0     C60062   7.202   2.309   8.818 -0.2347  0.3988  0.3409
  436MOL0     C60063   7.269   2.258   8.928  0.6263 -0.1924  0.5436
  436MOL0     C60064   7.406   2.233   8.914 -0.0256  0.3492  0.6398
  436MOL0     C60065   7.480   2.255   8.797 -0.3644 -0.8045  0.4148
  436MOL0     O60066   7.609   2.210   8.805 -0.4996  0.2122 -0.0838
  436MOL0     C60067   7.680   2.203   8.683  0.0590  0.8678  0.4680
  436MOL0     C60068   7.754   2.330   8.640  0.0143  0.3876 -0.1435
  436MOL0     C60069   7.878   2.355   8.715  0.0196 -0.1983 -0.3997
  436MOL0     C60070   7.993   2.294   8.636 -0.1621 -0.4607 -0.3960
  436MOL0     C60071   8.127   2.349   8.676  1.0269  0.0792 -1.7821
  436MOL0     C60072   8.235   2.264   8.613 -0.0896 -0.0308 -0.2293
  436MOL0     C60073   8.371   2.303   8.673  0.2444  1.1948 -0.9004
  436MOL0     C60074   8.483   2.264   8.571 -0.0947  0.0057  0.1638
  436MOL0    Cl60075   8.498   2.084   8.526  0.1093 -0.2791 -0.0492
  436MOL0     C60076   7.411   2.314   8.684  0.2230  0.2420 -0.4546
  436MOL0     C60077   7.265   2.326   8.691  0.6567  0.1820 -0.1868
  436MOL0     O60078   6.970   2.279   8.620  0.1770 -0.6643 -1.1571
  436MOL0     C60079   6.807   2.401   8.912  0.1900  1.0460  0.6691
  436MOL0     C60080   6.690   2.462   8.957 -0.7202  0.0252 -1.4244
  436MOL0     N60081   6.328   2.488   9.388 -0.1253  1.1151  0.0837
  436MOL0     N60082   6.314   2.450   9.510 -0.1938  0.2456  0.4171
  436MOL0     C60083   6.630   1.898  10.166  0.8941  0.2414  0.5563
  436MOL0     C60084   6.701   1.845  10.273 -0.3139 -0.1788 -0.0391
  436MOL0     C60085   6.707   1.630  10.679 -0.6276 -0.2801  0.3669
  436MOL0     C60086   6.846   1.601  10.702 -0.3663 -0.9131  0.3084
  436MOL0     C60087   6.895   1.541  10.817 -0.6545  0.5317  0.3185
  436MOL0     C60088   6.809   1.504  10.909  1.1117  0.5817  0.4657
  436MOL0     O60089   6.831   1.431  11.023  0.0459 -0.1287 -0.2108
  436MOL0     C60090   6.970   1.402  11.060  0.1036 -0.1726 -0.1196
  436MOL0     C60091   7.043   1.515  11.131 -0.3346 -0.5868  0.5577
  436MOL0     C60092   7.194   1.477  11.169 -0.3630 -0.3727  0.2388
  436MOL0     C60093   7.268   1.586  11.254  0.4262 -0.2842 -0.4514
  436MOL0     C60094   7.404   1.564  11.301  0.1916  0.8335  0.3844
  436MOL0     C60095   7.521   1.525  11.307  0.0109  0.3550 -1.2173
  436MOL0     C60096   6.671   1.533  10.895  0.1450  0.2782 -0.5104
  436MOL0     C60097   6.619   1.594  10.781  0.3525  0.7951 -0.1714
  436MOL0     C60098   6.466   1.602  10.760  0.1003  0.6737  0.3053
  436MOL0     H60099   6.522   1.557  10.304  0.5908 -0.3830  0.6101
  436MOL0     H60100   6.389   1.664  10.121  0.7774 -1.9331 -0.6554
  436MOL0     H60101   6.407   1.995   9.875  1.7556 -0.2102 -0.0319
  436MOL0     H60102   6.493   2.070  10.013 -0.7046  0.6268  0.7521
  436MOL0     H60103   6.282   2.121  10.121 -1.3978  4.5047 -0.6338
  436MOL0     H60104   6.295   2.202   9.982 -0.0126  0.7403  0.4044
  436MOL0     H60105   6.170   1.994   9.866 -0.0265  1.6799  0.2173
  436MOL0     H60106   6.156   1.933  10.024  2.1923 -2.9288 -3.4895
  436MOL0     H60107   5.950   2.055  10.028 -0.1790  0.2504  1.7374
  436MOL0     H60108   6.052   2.188  10.073  1.2691 -0.9876  0.3244
  436MOL0     H60109   5.884   2.202   9.875  0.0710 -0.1633 -0.6052
  436MOL0     H60110   6.019   2.129   9.780 -0.9955 -1.0664 -0.1323
  436MOL0     H60111   5.964   2.409   9.889  1.7340  1.0381  2.7655
  436MOL0     H60112   6.131   2.344   9.916 -0.7035 -4.0618  2.0956
  436MOL0     H60113   6.094   2.482   9.707 -1.1585  0.6325  0.5340
  436MOL0     H60114   5.979   2.366   9.656 -0.9188  0.1919  0.6481
  436MOL0     H60115   6.277   2.280   9.717  1.4785  1.4783 -1.4444
  436MOL0     H60116   6.152   2.194   9.615  0.2533  0.6766 -2.5576
  436MOL0     H60117   6.103   2.248   9.367 -0.5202 -0.5456  0.5073
  436MOL0     H60118   6.222   2.512   9.124 -2.6649  0.4059  1.0410
  436MOL0     H60119   6.135   2.351   9.136 -2.1900  2.0338  1.8987
  436MOL0     H60120   6.440   2.388   9.142  0.0294 -1.6662 -0.3993
  436MOL0     H60121   6.347   2.242   9.157 -0.3748  0.2413  0.9478
  436MOL0     H60122   6.428   2.279   8.927  0.0722  0.1141  1.7063
  436MOL0     H60123   6.251   2.280   8.929 -1.9270  1.0236  2.1914
  436MOL0     H60124   6.359   2.438   8.765 -1.6350  2.3498 -0.7843
  436MOL0     H60125   6.257   2.517   8.889  1.6163  1.0346 -0.3345
  436MOL0     H60126   6.527   2.509   8.678  0.5299  3.4785  0.4622
  436MOL0     H60127   6.829   2.445   8.510  0.2332 -0.3564 -0.0444
  436MOL0     H60128   6.647   2.431   8.485 -0.6666  0.3705  0.5118
  436MOL0     H60129   6.729   2.285   8.522 -0.7586  0.2238  0.0731
  436MOL0     H60130   7.225   2.226   9.022 -2.7090 -2.1642 -1.4882
  436MOL0     H60131   7.468   2.182   8.987  1.3017  0.0351 -0.6659
  436MOL0     H60132   7.762   2.131   8.695 -1.1032 -1.5613 -3.9471
  436MOL0     H60133   7.620   2.164   8.601 -0.4503  2.6277 -0.0494
  436MOL0     H60134   7.770   2.330   8.532 -3.0259 -0.8370 -0.7030
  436MOL0     H60135   7.684   2.413   8.647  2.5336  2.7467 -1.1520
  436MOL0     H60136   7.875   2.309   8.814  1.6378 -1.7745 -1.0080
  436MOL0     H60137   7.895   2.462   8.726 -2.6316  0.2629 -0.1142
  436MOL0     H60138   7.982   2.285   8.528 -3.0470 -2.5332 -0.0462
  436MOL0     H60139   8.001   2.187   8.654  1.0400 -0.5012 -1.0862
  436MOL0     H60140   8.138   2.450   8.636  1.6884  0.6085 -0.3418
  436MOL0     H60141   8.135   2.352   8.785  1.7251  1.6605 -1.8415
  436MOL0     H60142   8.234   2.270   8.504  1.4104  1.4784 -0.2060
  436MOL0     H60143   8.215   2.160   8.641 -3.7980 -0.2153 -2.9209
  436MOL0     H60144   8.378   2.244   8.764 -2.1421  1.4234 -0.5107
  436MOL0     H60145   8.380   2.410   8.697 -2.2514  1.3568 -0.3747
  436MOL0     H60146   8.575   2.294   8.622  0.3148  0.3353 -0.7369
  436MOL0     H60147   8.480   2.319   8.476  0.8377  0.3492  0.3170
  436MOL0     H60148   7.463   2.327   8.590 -0.4516  2.7850 -0.5392
  436MOL0     H60149   7.204   2.326   8.601  1.4332 -1.2125 -0.7359
  436MOL0     H60150   6.872   2.359   8.988 -1.1963  0.2251  1.4320
  436MOL0     H60151   6.677   2.499   9.058  1.8460  4.2343 -2.3788
  436MOL0     H60152   6.658   1.989  10.116  0.3339 -0.5511 -1.3012
  436MOL0     H60153   6.780   1.896  10.328 -2.4792  1.7191  1.4603
  436MOL0     H60154   6.910   1.626  10.619 -0.8967  0.9335  0.4211
  436MOL0     H60155   7.002   1.525  10.829 -0.4183  1.7102 -0.0940
  436MOL0     H60156   6.959   1.312  11.122  1.6245 -0.2804  0.0308
  436MOL0     H60157   7.030   1.377  10.972 -0.1353  2.4597 -1.1260
  436MOL0     H60158   6.999   1.530  11.231  1.8945  1.1954  1.3584
  436MOL0     H60159   7.046   1.608  11.073  3.1650 -0.4060  0.8092
  436MOL0     H60160   7.202   1.383  11.224  5.1257  0.0157  0.7077
  436MOL0     H60161   7.252   1.462  11.077 -0.0226 -1.7715  0.6581
  436MOL0     H60162   7.203   1.599  11.341  0.3602  2.1007 -0.7750
  436MOL0     H60163   7.260   1.681  11.199 -2.6151 -0.2677 -0.1695
  436MOL0     H60164   7.623   1.497  11.325  0.0607  0.4704 -1.3177
  436MOL0     H60165   6.604   1.510  10.978 -0.5727 -2.5223 -1.7526
  436MOL0     H60166   6.421   1.543  10.840  2.6481 -3.2880 -0.8886
  436MOL0     H60167   6.434   1.706  10.772 -2.6055  0.0188 -0.6808
  436MOL0     H60168   6.446   1.571  10.657  1.1317 -0.8026  0.5273
  437MOL0     O60169   7.231  10.059   1.492 -0.1126  0.2508 -0.3347
  437MOL0     C60170   7.185   9.942   1.516 -1.1536 -0.2917  0.4584
  437MOL0     O60171   7.258   9.830   1.532  0.2860  0.7721  0.5350
  437MOL0     C60172   7.391   9.845   1.511 -0.3682  0.1009  0.0240
  437MOL0     C60173   7.474   9.872   1.618  0.0781 -0.6208 -0.0748
  437MOL0     C60174   7.615   9.875   1.587  0.5739  0.2200  0.1429
  437MOL0     C60175   7.666   9.832   1.469 -0.4502 -0.7734 -0.3563
  437MOL0     O60176   7.802   9.854   1.454  0.2721 -0.4399  0.1801
  437MOL0     C60177   7.888   9.736   1.448 -0.6343  0.5505 -0.7531
  437MOL0     C60178   7.878   9.642   1.566  0.3181  0.1504 -0.2792
  437MOL0     C60179   7.997   9.537   1.567  0.1687 -0.0253 -0.0677
  437MOL0     C60180   8.024   9.466   1.697  1.0337  0.4804  0.3447
  437MOL0     C60181   8.121   9.532   1.800 -0.1737 -0.0421 -0.5687
  437MOL0     C60182   8.089   9.671   1.833  0.1125 -0.4761  0.2752
  437MOL0     C60183   8.182   9.727   1.948 -0.0527  0.0526 -0.4409
  437MOL0     C60184   8.333   9.729   1.912 -0.0399 -0.1635  0.0060
  437MOL0     N60185   8.420   9.805   2.002  0.2468 -0.0508  0.2998
  437MOL0     C60186   8.454   9.940   1.986  0.8046  0.9675 -0.9766
  437MOL0     C60187   8.542   9.953   2.084 -0.1390 -0.9932  0.1554
  437MOL0     C60188   8.612  10.087   2.095  0.1885 -0.6038 -0.7737
  437MOL0     C60189   8.754  10.054   2.051 -0.3509  0.2087  0.1075
  437MOL0     C60190   8.842  10.175   2.092  0.2678  0.2707 -0.2024
  437MOL0     C60191   8.991  10.174   2.050 -0.4264  0.3326  1.1663
  437MOL0     O60192   9.054  10.290   2.101 -0.0487  0.4255  0.0417
  437MOL0     C60193   9.182  10.329   2.067 -0.1799  0.5639 -0.0048
  437MOL0     C60194   9.217  10.467   2.082 -0.1257  0.0060  0.1091
  437MOL0     C60195   9.348  10.513   2.047  0.1825  0.7501 -0.4041
  437MOL0     C60196   9.364  10.657   2.078  1.0263  0.1616  0.9731
  437MOL0     C60197   9.437  10.424   1.981 -0.4388  0.2451  0.5843
  437MOL0     C60198   9.567  10.466   1.931  0.3816 -0.9142  0.5339
  437MOL0     O60199   9.592  10.595   1.933 -0.5087 -0.7805 -0.1801
  437MOL0     C60200   9.714  10.658   1.926  0.1743  0.0099 -0.1032
  437MOL0     C60201   9.717  10.799   1.906  0.1236  0.1551 -0.4080
  437MOL0     C60202   9.838  10.874   1.901 -0.4005 -0.3438 -0.4586
  437MOL0     C60203   9.958  10.808   1.924 -0.0098  0.1715 -0.6496
  437MOL0     O60204  10.081  10.860   1.935 -0.3088 -0.0160 -0.3779
  437MOL0     C60205  10.086  10.999   1.955  0.7223  1.0117 -0.0679
  437MOL0     C60206  10.234  11.032   1.982  0.2794  0.0216 -0.0712
  437MOL0     C60207  10.251  11.169   2.025 -0.6352 -0.4331  0.7520
  437MOL0     C60208  10.405  11.202   2.037  0.3539  0.0196  0.4274
  437MOL0     C60209  10.424  11.323   2.125 -1.4729  1.0655  0.0386
  437MOL0     C60210  10.565  11.353   2.144  0.0960  0.7416  0.2545
  437MOL0     C60211  10.637  11.392   2.021  0.6988  0.3154  0.2163
  437MOL0     C60212  10.759  11.478   2.048 -0.2369 -0.0135 -0.2904
  437MOL0    Cl60213  10.884  11.374   2.130 -0.2007 -0.5793 -0.1648
  437MOL0     C60214   9.959  10.669   1.949 -0.4093  0.4081 -0.5934
  437MOL0     C60215   9.837  10.595   1.939 -0.1548  0.3482 -0.1480
  437MOL0     O60216   9.644  10.376   1.884  0.2370 -0.8439 -0.1689
  437MOL0     C60217   9.396  10.290   1.963 -0.1553  0.5328  1.3140
  437MOL0     C60218   9.270  10.245   1.999 -0.0537 -0.2098 -0.1255
  437MOL0     N60219   8.567   9.842   2.150  0.1589 -0.4169 -1.2356
  437MOL0     N60220   8.489   9.749   2.107 -0.0884 -0.5162 -0.1098
  437MOL0     C60221   7.574   9.796   1.365  0.0949  0.6215  0.3826
  437MOL0     C60222   7.435   9.803   1.383  0.1357 -0.2947 -0.6933
  437MOL0     C60223   7.038   9.933   1.517  0.2745 -0.2275  0.3197
  437MOL0     C60224   6.959  10.057   1.530 -0.5356 -0.4078  0.8383
  437MOL0     C60225   6.825  10.069   1.526 -0.4702 -0.0696  0.4942
  437MOL0     C60226   6.759   9.946   1.508 -0.0972  0.3151  0.2058
  437MOL0     O60227   6.620   9.937   1.508 -0.3816 -0.0910  0.2126
  437MOL0     C60228   6.546  10.056   1.480  0.7010  0.3772  0.1502
  437MOL0     C60229   6.411  10.003   1.460 -0.5330 -0.3717 -0.8465
  437MOL0     C60230   6.394   9.913   1.330  0.0621 -0.1895 -1.5768
  437MOL0     C60231   6.269   9.938   1.244 -0.5952  0.6129 -0.6869
  437MOL0     C60232   6.281   9.882   1.111 -0.0006 -0.1706 -0.0607
  437MOL0     C60233   6.284   9.845   0.998  0.7187  0.7380 -0.3521
  437MOL0     C60234   6.824   9.825   1.508  0.3163 -0.4208 -0.9792
  437MOL0     C60235   6.965   9.812   1.510  0.1522  0.6167  0.2689
  437MOL0     C60236   7.023   9.676   1.505  0.2110 -0.2296  0.2135
  437MOL0     H60237   7.434   9.900   1.715 -0.2918  0.2370 -0.4714
  437MOL0     H60238   7.681   9.913   1.663  2.8503 -2.6433 -0.2282
  437MOL0     H60239   7.988   9.771   1.422  0.7268 -2.8751 -0.6510
  437MOL0     H60240   7.860   9.668   1.366  2.7409 -1.2358 -0.6109
  437MOL0     H60241   7.880   9.698   1.660  1.6057 -0.3093 -0.0017
  437MOL0     H60242   7.781   9.594   1.559 -0.3147  1.3100  0.2234
  437MOL0     H60243   7.995   9.465   1.485  3.2913 -1.7700  1.2313
  437MOL0     H60244   8.090   9.587   1.538 -0.1992  0.5413 -0.3054
  437MOL0     H60245   7.927   9.429   1.732  0.6282 -2.5570 -3.3149
  437MOL0     H60246   8.078   9.374   1.674 -1.0968 -0.9434  0.6891
  437MOL0     H60247   8.222   9.538   1.758  1.3008 -2.0654  2.3595
  437MOL0     H60248   8.127   9.483   1.898  1.3736 -0.8609 -1.0393
  437MOL0     H60249   8.113   9.726   1.741  3.0517 -1.7706  0.1692
  437MOL0     H60250   7.981   9.687   1.845 -0.3749  0.9997 -4.1299
  437MOL0     H60251   8.165   9.667   2.038  0.9107  0.8485  0.2964
  437MOL0     H60252   8.161   9.832   1.971 -1.9489 -0.5383  0.8294
  437MOL0     H60253   8.364   9.624   1.907  1.2996  0.1341  1.1873
  437MOL0     H60254   8.348   9.779   1.816 -1.5487  1.7944  0.7248
  437MOL0     H60255   8.420  10.018   1.918 -1.7331  0.2065 -0.6785
  437MOL0     H60256   8.595  10.112   2.200 -0.5265  1.1773 -1.2745
  437MOL0     H60257   8.572  10.168   2.033  0.7061 -0.8639 -1.4682
  437MOL0     H60258   8.788   9.964   2.104 -0.4895  0.2036  0.1889
  437MOL0     H60259   8.759  10.027   1.945  2.0343 -0.5206  0.3417
  437MOL0     H60260   8.787  10.267   2.068 -2.2696 -0.4914  2.1630
  437MOL0     H60261   8.849  10.164   2.200  0.3464 -0.2804 -0.2569
  437MOL0     H60262   9.036  10.080   2.085  0.9804 -1.0362 -3.5338
  437MOL0     H60263   9.013  10.173   1.943  2.2973  1.8637  1.6216
  437MOL0     H60264   9.149  10.545   2.115 -0.0376  1.0238 -1.9584
  437MOL0     H60265   9.304  10.689   2.164 -1.0413  1.5163 -0.8540
  437MOL0     H60266   9.336  10.725   1.996  1.2664  0.8739  1.4672
  437MOL0     H60267   9.464  10.670   2.119  1.6975 -5.1044  1.6327
  437MOL0     H60268   9.622  10.853   1.908 -0.0348 -0.0546  2.2631
  437MOL0     H60269   9.842  10.982   1.899 -0.3568 -0.3268  0.3396
  437MOL0     H60270  10.055  11.049   1.862 -1.6255  0.3656  0.2979
  437MOL0     H60271  10.018  11.036   2.032 -2.3138 -1.9562 -1.0879
  437MOL0     H60272  10.273  10.975   2.067  0.5954 -1.0513 -0.9205
  437MOL0     H60273  10.284  11.000   1.891 -1.0298 -1.9197 -0.1700
  437MOL0     H60274  10.202  11.186   2.122 -2.4289 -0.1379 -0.1732
  437MOL0     H60275  10.199  11.233   1.953 -0.8965 -0.8506  0.5626
  437MOL0     H60276  10.441  11.225   1.936  0.5727  1.9536  0.9082
  437MOL0     H60277  10.463  11.117   2.074  1.6902  0.3130 -0.8803
  437MOL0     H60278  10.366  11.403   2.079 -1.6460  0.0475 -1.5869
  437MOL0     H60279  10.381  11.301   2.224  0.0188  1.2186  0.7435
  437MOL0     H60280  10.614  11.266   2.190 -3.5831 -0.6232  1.9613
  437MOL0     H60281  10.563  11.442   2.208 -0.1067  1.1124 -0.2598
  437MOL0     H60282  10.560  11.453   1.971 -2.1832 -2.1645  1.3302
  437MOL0     H60283  10.666  11.298   1.974  1.9572  1.6421 -1.8368
  437MOL0     H60284  10.735  11.556   2.121  1.2464 -0.7608  1.0587
  437MOL0     H60285  10.796  11.518   1.953 -0.9248  0.6948 -0.2765
  437MOL0     H60286  10.049  10.623   1.989 -1.9128 -0.6481  1.8165
  437MOL0     H60287   9.835  10.487   1.948 -2.8328  0.2742 -0.9618
  437MOL0     H60288   9.469  10.222   1.919  1.5226  3.1624 -0.2770
  437MOL0     H60289   9.245  10.140   1.983  1.9828 -0.6854 -0.5134
  437MOL0     H60290   7.598   9.774   1.262 -2.3557  0.6791 -0.2816
  437MOL0     H60291   7.361   9.782   1.306 -2.4224 -2.1787  2.0454
  437MOL0     H60292   7.010  10.152   1.546 -2.6250  0.9745 -0.1693
  437MOL0     H60293   6.776  10.165   1.543 -1.5177 -0.3724 -0.7088
  437MOL0     H60294   6.574  10.123   1.561  2.5128  0.3466 -0.3928
  437MOL0     H60295   6.563  10.109   1.386  0.3701  1.0626  0.4755
  437MOL0     H60296   6.339  10.085   1.457 -0.8287 -0.5510  0.5311
  437MOL0     H60297   6.383   9.933   1.540 -0.3033  0.0271 -0.4125
  437MOL0     H60298   6.474   9.945   1.263  2.5783  0.3934  1.4548
  437MOL0     H60299   6.408   9.808   1.358  0.9906 -0.2024 -2.0438
  437MOL0     H60300   6.263  10.046   1.226  1.2492  0.5788 -1.6793
  437MOL0     H60301   6.184   9.900   1.302  2.1739 -0.0897  3.2836
  437MOL0     H60302   6.269   9.806   0.899  1.8128  0.6297 -0.4926
  437MOL0     H60303   6.768   9.733   1.496 -0.8235  0.1685 -0.3432
  437MOL0     H60304   6.948   9.597   1.498 -0.8811  0.9475 -3.0274
  437MOL0     H60305   7.083   9.670   1.414  1.3705  3.0408  0.6147
  437MOL0     H60306   7.086   9.663   1.594  2.1026 -0.4057 -1.0857
  438MOL0     O60307   6.394   1.872   0.826 -0.4808  0.3780 -0.7580
  438MOL0     C60308   6.410   1.748   0.835 -0.6403 -0.8738 -0.2666
  438MOL0     O60309   6.316   1.658   0.873 -0.2942 -0.1909 -0.3466
  438MOL0     C60310   6.197   1.702   0.925 -0.1234 -0.4866  0.3594
  438MOL0     C60311   6.187   1.776   1.048 -0.3174 -0.1896  0.4264
  438MOL0     C60312   6.060   1.803   1.095 -0.2477 -0.6716 -0.8501
  438MOL0     C60313   5.946   1.761   1.027  0.4104  0.2647 -0.0222
  438MOL0     O60314   5.821   1.768   1.083 -0.7542 -0.2826 -0.1012
  438MOL0     C60315   5.789   1.867   1.185  0.4117  0.1340 -0.4722
  438MOL0     C60316   5.638   1.903   1.187 -0.2132 -0.0482 -0.1669
  438MOL0     C60317   5.590   2.029   1.272  0.8607  0.5622 -0.3143
  438MOL0     C60318   5.440   2.059   1.248  0.4160 -0.5911 -0.5610
  438MOL0     C60319   5.390   2.193   1.309  0.6083  0.1219 -0.8035
  438MOL0     C60320   5.233   2.204   1.320 -1.0054 -0.3368 -0.1804
  438MOL0     C60321   5.198   2.342   1.379 -0.5175  1.1350  0.3450
  438MOL0     C60322   5.049   2.373   1.358  0.4403  0.3410  0.2891
  438MOL0     N60323   5.004   2.474   1.460 -1.4989  0.0709  0.5176
  438MOL0     C60324   4.890   2.545   1.439 -0.1030 -0.0277 -0.2196
  438MOL0     C60325   4.876   2.619   1.552 -0.1943 -0.2890 -0.1231
  438MOL0     C60326   4.771   2.726   1.568  0.2444 -0.3520  0.6518
  438MOL0     C60327   4.819   2.876   1.560 -0.1379 -0.3888  0.8349
  438MOL0     C60328   4.948   2.914   1.646  0.9492 -0.8399  0.8055
  438MOL0     C60329   4.982   3.062   1.648  0.4313  0.4789 -0.4244
  438MOL0     O60330   5.023   3.108   1.517  0.1243  0.0984 -0.0401
  438MOL0     C60331   5.043   3.236   1.489  0.6906  0.1230 -0.8799
  438MOL0     C60332   5.027   3.344   1.580 -1.1714  0.2194  0.0284
  438MOL0     C60333   5.054   3.473   1.538  0.0786 -0.0070 -0.5270
  438MOL0     C60334   5.056   3.578   1.646  0.4824 -0.4609 -0.7283
  438MOL0     C60335   5.103   3.500   1.405  0.0860 -0.0764  0.0392
  438MOL0     C60336   5.121   3.634   1.348 -0.3916 -1.1285 -1.0441
  438MOL0     O60337   5.055   3.738   1.410  0.1675 -0.5959  1.3244
  438MOL0     C60338   5.029   3.848   1.332  0.0462  0.6380  0.4266
  438MOL0     C60339   5.136   3.933   1.302  0.3401  0.0165 -0.1136
  438MOL0     C60340   5.113   4.033   1.211 -0.1306 -0.8268  0.0356
  438MOL0     C60341   4.997   4.059   1.146  0.0105  0.2745  0.4626
  438MOL0     O60342   4.975   4.150   1.045 -0.1787  0.1534  0.2476
  438MOL0     C60343   5.047   4.274   1.046  0.4330 -0.5651 -0.3096
  438MOL0     C60344   5.006   4.370   0.929 -0.2425 -0.6993  0.1633
  438MOL0     C60345   4.853   4.401   0.952 -0.1215  0.2641  0.0085
  438MOL0     C60346   4.806   4.515   0.849  0.5469  0.1301 -0.4281
  438MOL0     C60347   4.667   4.588   0.870  0.4582  0.4832 -0.1846
  438MOL0     C60348   4.543   4.490   0.857  0.1707 -0.5489 -0.1290
  438MOL0     C60349   4.399   4.530   0.894 -1.3808  0.0183  0.2430
  438MOL0     C60350   4.377   4.560   1.038 -0.4633 -0.0386 -0.5033
  438MOL0    Cl60351   4.207   4.629   1.062  0.7813  0.5098  0.0747
  438MOL0     C60352   4.887   3.976   1.179 -0.0897 -0.0352 -0.1322
  438MOL0     C60353   4.911   3.861   1.266  0.2834  0.2048 -0.1931
  438MOL0     O60354   5.188   3.643   1.248 -0.6125 -0.4506  0.0886
  438MOL0     C60355   5.112   3.385   1.317  0.3209 -0.7692  0.7776
  438MOL0     C60356   5.092   3.257   1.361  0.8231 -0.7414  1.1826
  438MOL0     N60357   4.983   2.597   1.639  0.9356  0.2452  0.0320
  438MOL0     N60358   5.062   2.509   1.577  0.6317 -0.0689  0.2398
  438MOL0     C60359   5.951   1.690   0.913  0.2635  0.2208 -0.1529
  438MOL0     C60360   6.078   1.652   0.867 -0.2723 -1.0843 -0.1895
  438MOL0     C60361   6.539   1.692   0.798 -0.2797 -0.5312  1.1229
  438MOL0     C60362   6.538   1.559   0.753  0.0798 -0.0472 -0.1861
  438MOL0     C60363   6.643   1.484   0.704 -0.3784 -0.2941 -0.8059
  438MOL0     C60364   6.767   1.551   0.723 -0.0887 -0.1939 -0.3773
  438MOL0     O60365   6.869   1.491   0.661 -0.1935  0.3794 -0.6043
  438MOL0     C60366   6.912   1.360   0.713 -0.0814  0.4915  0.6010
  438MOL0     C60367   7.036   1.370   0.802 -0.2908  0.2694  0.1631
  438MOL0     C60368   7.154   1.423   0.719 -0.2661  0.1901  0.0458
  438MOL0     C60369   7.280   1.418   0.807 -0.0732  0.3860  0.1895
  438MOL0     C60370   7.333   1.287   0.853 -0.0616  0.7140  0.1299
  438MOL0     C60371   7.363   1.173   0.885  0.0092 -0.2816  0.6185
  438MOL0     C60372   6.779   1.678   0.771 -0.0851  0.8528  0.1653
  438MOL0     C60373   6.664   1.750   0.815 -0.7562  0.4800 -0.4644
  438MOL0     C60374   6.678   1.883   0.884  0.3018  0.0267 -0.5755
  438MOL0     H60375   6.277   1.810   1.097  0.1060  1.0888 -1.1210
  438MOL0     H60376   6.062   1.845   1.194  1.6238 -2.3169 -0.1263
  438MOL0     H60377   5.831   1.962   1.151  0.2004 -0.7642 -3.5479
  438MOL0     H60378   5.834   1.829   1.278  0.9588 -1.5940 -1.3981
  438MOL0     H60379   5.591   1.902   1.089 -0.5363  2.0914 -0.0712
  438MOL0     H60380   5.593   1.820   1.242  1.3974 -0.6524  0.3101
  438MOL0     H60381   5.611   2.013   1.378  1.1762  2.1800 -0.1186
  438MOL0     H60382   5.654   2.115   1.253 -1.5051  2.2569 -0.9708
  438MOL0     H60383   5.429   2.056   1.140  0.2852 -0.4367 -0.5521
  438MOL0     H60384   5.371   1.985   1.291 -0.9419  0.3669 -1.0372
  438MOL0     H60385   5.422   2.276   1.247 -1.7550  2.2354  0.6124
  438MOL0     H60386   5.432   2.198   1.410  0.7801 -1.2291 -0.7807
  438MOL0     H60387   5.200   2.202   1.215  1.8091  0.5612 -1.1799
  438MOL0     H60388   5.195   2.129   1.390 -1.8402  0.2107 -0.0273
  438MOL0     H60389   5.263   2.418   1.335 -1.4629  1.2190 -0.9720
  438MOL0     H60390   5.219   2.337   1.486  0.0873  0.0459  0.1872
  438MOL0     H60391   5.024   2.413   1.260 -0.4021  1.6350  1.0021
  438MOL0     H60392   4.998   2.278   1.376  2.6565 -0.5810  2.2049
  438MOL0     H60393   4.828   2.548   1.350  0.7862  3.4698 -0.8807
  438MOL0     H60394   4.725   2.712   1.667  3.1921 -3.8307  1.7354
  438MOL0     H60395   4.688   2.711   1.498  2.1560  0.0571 -1.8413
  438MOL0     H60396   4.851   2.904   1.459 -0.3955  0.0949  0.8854
  438MOL0     H60397   4.733   2.941   1.577  0.8267  1.8603 -1.9488
  438MOL0     H60398   4.919   2.876   1.744  1.0174  0.0202  1.1627
  438MOL0     H60399   5.035   2.867   1.600 -0.2172 -0.8686 -1.5584
  438MOL0     H60400   4.898   3.123   1.683  0.9168  0.2763  1.1784
  438MOL0     H60401   5.057   3.066   1.727  3.3913 -0.7253 -2.9968
  438MOL0     H60402   4.997   3.332   1.683 -0.3987 -1.6413  0.0742
  438MOL0     H60403   5.156   3.615   1.668 -0.5392  1.3999  1.2316
  438MOL0     H60404   5.012   3.532   1.735  1.4871 -1.5443 -0.7566
  438MOL0     H60405   4.986   3.659   1.622 -0.0933 -1.0556 -1.0984
  438MOL0     H60406   5.235   3.920   1.344  1.7649  0.9763 -2.9008
  438MOL0     H60407   5.192   4.104   1.191 -1.0183  0.6404  1.5091
  438MOL0     H60408   5.035   4.329   1.139 -2.7510 -2.1078  0.3130
  438MOL0     H60409   5.156   4.263   1.043  0.9018  2.9887 -3.0991
  438MOL0     H60410   5.065   4.462   0.922  1.2433 -1.5777  0.5886
  438MOL0     H60411   5.015   4.332   0.826  0.6115  0.1441 -0.0861
  438MOL0     H60412   4.829   4.439   1.051 -0.5348  1.8518 -0.6632
  438MOL0     H60413   4.799   4.307   0.940  0.9050 -0.3444 -0.0214
  438MOL0     H60414   4.799   4.469   0.750 -2.2849  0.6242 -0.5320
  438MOL0     H60415   4.882   4.593   0.846  2.2620 -1.4464 -3.3716
  438MOL0     H60416   4.659   4.632   0.970 -0.2840  2.8973 -1.2228
  438MOL0     H60417   4.649   4.669   0.799 -0.2468 -1.6689 -2.5770
  438MOL0     H60418   4.570   4.404   0.918 -0.7159 -1.1874 -0.6190
  438MOL0     H60419   4.540   4.455   0.753 -0.9693  1.6239 -0.9049
  438MOL0     H60420   4.347   4.438   0.866  1.5297 -1.5656 -0.3119
  438MOL0     H60421   4.392   4.622   0.835  0.8860  1.8213  2.6040
  438MOL0     H60422   4.458   4.626   1.071  0.2489  0.0790 -2.3922
  438MOL0     H60423   4.390   4.467   1.095  2.0167  1.3231  1.4003
  438MOL0     H60424   4.789   4.000   1.140 -0.5315 -1.5644 -0.0215
  438MOL0     H60425   4.828   3.795   1.290 -1.0244  1.7386 -0.2612
  438MOL0     H60426   5.146   3.409   1.216 -1.6433 -0.2154  0.2034
  438MOL0     H60427   5.117   3.185   1.284 -0.4065  0.9031 -0.8600
  438MOL0     H60428   5.860   1.660   0.862  1.3875  1.4540 -3.0988
  438MOL0     H60429   6.102   1.600   0.775  3.4383 -0.7706  0.4473
  438MOL0     H60430   6.437   1.519   0.753 -0.3281  0.9269 -1.0334
  438MOL0     H60431   6.641   1.385   0.661  2.4871 -0.7723 -0.0564
  438MOL0     H60432   6.827   1.314   0.763 -1.1926  2.8280  1.0354
  438MOL0     H60433   6.936   1.289   0.634 -1.3116 -0.3594  0.9717
  438MOL0     H60434   7.059   1.267   0.830  1.7314  0.0866 -1.8233
  438MOL0     H60435   7.012   1.439   0.883 -2.0347  0.3177 -0.3546
  438MOL0     H60436   7.177   1.359   0.633  2.2222  0.8248  0.1292
  438MOL0     H60437   7.148   1.526   0.682  0.2746  1.1740  2.5082
  438MOL0     H60438   7.266   1.476   0.899 -0.5105 -1.1504  1.1380
  438MOL0     H60439   7.359   1.472   0.754 -1.2687  0.7316 -1.2947
  438MOL0     H60440   7.394   1.072   0.900  0.7970 -0.2176 -0.4818
  438MOL0     H60441   6.876   1.724   0.759 -1.0007  2.3702 -2.0752
  438MOL0     H60442   6.748   1.940   0.823 -1.1284  0.2814 -2.0303
  438MOL0     H60443   6.588   1.944   0.899  1.3070  1.0442  1.9396
  438MOL0     H60444   6.731   1.869   0.979  1.5105  1.8929 -0.9398
  439MOL0     O60445   9.005   8.988   9.838 -0.0378 -0.8323  0.2277
  439MOL0     C60446   8.977   9.043   9.942  0.1993 -0.8978  0.2961
  439MOL0     O60447   9.063   9.086  10.041 -0.3372  0.3394 -0.1846
  439MOL0     C60448   9.188   9.109  10.001 -0.5228  0.8826 -0.2276
  439MOL0     C60449   9.213   9.239   9.959  0.0496 -0.1987  0.8178
  439MOL0     C60450   9.340   9.280   9.907 -0.3088  0.3573 -0.0005
  439MOL0     C60451   9.446   9.185   9.910  0.5066 -0.1665 -0.5288
  439MOL0     O60452   9.576   9.211   9.861  0.2006  0.0824 -0.0375
  439MOL0     C60453   9.594   9.317   9.773 -0.6636  0.0848 -0.8384
  439MOL0     C60454   9.745   9.330   9.752  0.7340 -0.7840  0.6295
  439MOL0     C60455   9.810   9.376   9.882 -0.1726 -0.4399  1.0287
  439MOL0     C60456   9.949   9.449   9.862  0.3400 -0.7398  0.6132
  439MOL0     C60457  10.012   9.479  10.002 -0.8952  1.1942  0.0452
  439MOL0     C60458  10.149   9.558   9.999 -0.0498 -0.5554 -0.0697
  439MOL0     C60459  10.246   9.511   9.886 -0.7279  0.5417 -0.0353
  439MOL0     C60460  10.278   9.358   9.890  0.2581 -0.4830 -0.1866
  439MOL0     N60461  10.353   9.318  10.017 -1.1496 -0.8724 -0.5394
  439MOL0     C60462  10.480   9.353  10.051 -0.8712  1.0068 -0.5942
  439MOL0     C60463  10.504   9.277  10.160  0.0402 -0.6058  0.2900
  439MOL0     C60464  10.617   9.259  10.253 -0.1013  0.1081  0.0040
  439MOL0     C60465  10.699   9.388  10.260  0.5194 -0.3119 -0.0287
  439MOL0     C60466  10.652   9.485  10.365 -0.4246  0.0719 -0.3911
  439MOL0     C60467  10.512   9.542  10.355 -0.1826 -0.7743 -0.4084
  439MOL0     O60468  10.520   9.640  10.240  0.3745  0.1577 -0.5497
  439MOL0     C60469  10.421   9.733  10.216  0.5901  0.1232 -0.5783
  439MOL0     C60470  10.422   9.815  10.097 -0.8707  0.5052 -0.5606
  439MOL0     C60471  10.334   9.914  10.054  0.1603  0.6226 -0.1382
  439MOL0     C60472  10.362   9.979   9.918 -1.1092 -0.0784  0.3826
  439MOL0     C60473  10.232   9.943  10.152  0.7849  0.5249 -0.7151
  439MOL0     C60474  10.130  10.051  10.134  0.2231  0.0451  1.0089
  439MOL0     O60475  10.041  10.069  10.230  0.5464 -0.2716 -0.8898
  439MOL0     C60476   9.939  10.156  10.244 -0.2679  0.4967  0.3542
  439MOL0     C60477   9.878  10.133  10.361  0.2644 -0.9503  0.4072
  439MOL0     C60478   9.760  10.208  10.391 -0.0872  0.1971 -0.1621
  439MOL0     C60479   9.713  10.305  10.302 -0.0952  0.1259 -0.0917
  439MOL0     O60480   9.584  10.345  10.326  0.2496 -0.2774  0.1827
  439MOL0     C60481   9.512  10.404  10.217  0.1491 -0.5727  0.0774
  439MOL0     C60482   9.364  10.414  10.253  0.2612  0.1359  0.4833
  439MOL0     C60483   9.347  10.476  10.396  0.8996 -0.0001 -0.4927
  439MOL0     C60484   9.210  10.550  10.402  0.0832  0.0202  0.8746
  439MOL0     C60485   9.163  10.556  10.543  0.4090  0.0071  0.2489
  439MOL0     C60486   9.065  10.434  10.567 -0.8160 -0.4090  0.7083
  439MOL0     C60487   9.034  10.443  10.716 -0.3425 -0.1510  0.0608
  439MOL0     C60488   8.935  10.344  10.774  0.1433 -0.2242 -0.3601
  439MOL0    Cl60489   8.957  10.183  10.712 -0.0418 -0.2891 -0.2924
  439MOL0     C60490   9.786  10.328  10.188  0.0531 -0.0270  0.1377
  439MOL0     C60491   9.902  10.256  10.157  0.3405  0.2218  0.2869
  439MOL0     O60492  10.156  10.134  10.037  0.7338  0.9566 -0.0603
  439MOL0     C60493  10.232   9.878  10.277  0.1824 -0.6609  0.6039
  439MOL0     C60494  10.316   9.767  10.307  0.3107  1.0937  0.8629
  439MOL0     N60495  10.387   9.218  10.205  0.0778 -0.7750  0.2699
  439MOL0     N60496  10.297   9.252  10.121  0.7666 -0.0575 -0.0878
  439MOL0     C60497   9.424   9.052   9.969 -0.3345 -0.1602 -0.3435
  439MOL0     C60498   9.292   9.018  10.004  0.1377  0.0733  0.6108
  439MOL0     C60499   8.835   9.069   9.954 -0.7190 -0.2523 -0.6695
  439MOL0     C60500   8.763   8.995  10.054 -0.6332 -0.2078  0.8050
  439MOL0     C60501   8.629   9.004  10.071 -0.5536  0.8870  0.9414
  439MOL0     C60502   8.556   9.080   9.985 -0.1666  0.2180  0.3582
  439MOL0     O60503   8.423   9.071  10.005  0.1613 -0.2744 -0.5133
  439MOL0     C60504   8.334   9.132   9.910  0.9763  0.7302  0.0489
  439MOL0     C60505   8.315   9.037   9.789  0.0305  1.2965  0.7600
  439MOL0     C60506   8.167   9.021   9.740 -0.7949  0.6120 -0.1952
  439MOL0     C60507   8.176   8.909   9.634 -0.0226 -0.2423 -0.1886
  439MOL0     C60508   8.042   8.906   9.570 -0.4195  0.2874 -0.8676
  439MOL0     C60509   7.931   8.905   9.516 -0.3766 -1.2246 -0.1754
  439MOL0     C60510   8.622   9.157   9.889 -0.1013 -0.6276 -0.6625
  439MOL0     C60511   8.761   9.152   9.868  0.2773  0.3850 -0.1748
  439MOL0     C60512   8.818   9.222   9.742 -0.6659 -0.5744  0.3478
  439MOL0     H60513   9.137   9.314   9.973 -0.3313 -0.4237  0.0147
  439MOL0     H60514   9.355   9.386   9.887  0.2314  0.8181  2.5068
  439MOL0     H60515   9.569   9.416   9.811  0.9043  0.2226 -0.1197
  439MOL0     H60516   9.548   9.306   9.674 -1.5970  2.2999 -0.7038
  439MOL0     H60517   9.781   9.231   9.723  3.0373 -0.4182  1.9981
  439MOL0     H60518   9.767   9.402   9.672 -0.9997 -0.9530 -0.0388
  439MOL0     H60519   9.736   9.446   9.921 -1.8457 -3.1580  3.0302
  439MOL0     H60520   9.810   9.285   9.942 -2.0826 -1.4399 -0.4214
  439MOL0     H60521  10.010   9.383   9.800  0.1829 -0.0413 -0.3110
  439MOL0     H60522   9.928   9.545   9.815  3.4097  0.8724  2.1420
  439MOL0     H60523  10.031   9.386  10.057  1.9188  1.2377 -0.6903
  439MOL0     H60524   9.940   9.529  10.067 -1.3417 -2.5548  2.7688
  439MOL0     H60525  10.116   9.661   9.982  0.0234 -0.8105 -2.0288
  439MOL0     H60526  10.198   9.557  10.097 -1.7501 -0.6761  0.8063
  439MOL0     H60527  10.338   9.570   9.894 -1.9484  2.9225 -2.1375
  439MOL0     H60528  10.212   9.547   9.788  0.3574  1.0141 -0.2497
  439MOL0     H60529  10.180   9.310   9.882 -1.0209  1.9168  0.0646
  439MOL0     H60530  10.341   9.351   9.802  1.8671  2.3699  0.6220
  439MOL0     H60531  10.540   9.414   9.984 -0.6601 -0.0564 -1.4125
  439MOL0     H60532  10.684   9.182  10.214  1.0587  2.0976 -2.2015
  439MOL0     H60533  10.591   9.228  10.355 -1.7559 -4.4141 -1.5749
  439MOL0     H60534  10.804   9.360  10.277 -0.0159 -1.1949  2.1329
  439MOL0     H60535  10.704   9.443  10.165  1.8593  0.2625  0.3425
  439MOL0     H60536  10.668   9.427  10.456  2.4882 -0.9410 -1.4332
  439MOL0     H60537  10.719   9.569  10.379 -1.6661  1.0391 -0.0574
  439MOL0     H60538  10.442   9.459  10.343  0.4440 -1.0514 -2.4792
  439MOL0     H60539  10.482   9.596  10.446  1.3991 -3.3921  1.8080
  439MOL0     H60540  10.505   9.790  10.031 -0.2668 -0.2351  0.4508
  439MOL0     H60541  10.436  10.060   9.927  2.4034 -3.2369  2.5569
  439MOL0     H60542  10.273  10.025   9.872 -0.1294  1.7031  0.1565
  439MOL0     H60543  10.408   9.912   9.845  0.0604  2.4153 -1.3532
  439MOL0     H60544   9.906  10.054  10.430  2.1565 -0.3961  0.3412
  439MOL0     H60545   9.698  10.203  10.480  1.4732  2.2511  1.1208
  439MOL0     H60546   9.557  10.497  10.182 -0.0062 -0.2736  0.6460
  439MOL0     H60547   9.527  10.340  10.130  1.5646 -1.0855  0.6883
  439MOL0     H60548   9.305  10.466  10.177 -0.4711  0.7035  1.4151
  439MOL0     H60549   9.329  10.311  10.245 -2.0966  0.9204 -0.0321
  439MOL0     H60550   9.423  10.548  10.428 -0.1155  1.5286 -1.3781
  439MOL0     H60551   9.353  10.396  10.471 -0.1531  0.8427  0.5365
  439MOL0     H60552   9.137  10.504  10.334  2.0659  1.0179 -2.1102
  439MOL0     H60553   9.226  10.648  10.356 -3.4023  0.8190  1.0654
  439MOL0     H60554   9.243  10.558  10.617 -0.7091  1.6958  1.4758
  439MOL0     H60555   9.111  10.650  10.563  1.2452  0.1203  2.0205
  439MOL0     H60556   9.104  10.338  10.533 -1.2631 -0.3257 -0.0706
  439MOL0     H60557   8.967  10.442  10.519 -1.5754  3.0086  2.5022
  439MOL0     H60558   8.997  10.543  10.739 -1.6527 -0.1558 -1.7795
  439MOL0     H60559   9.127  10.437  10.772  0.3588  2.7459 -0.6326
  439MOL0     H60560   8.831  10.372  10.753  0.0329  1.1039  1.5912
  439MOL0     H60561   8.949  10.339  10.882  0.9549  0.4627 -0.4247
  439MOL0     H60562   9.747  10.403  10.120 -2.2064  0.9183  2.3177
  439MOL0     H60563   9.957  10.272  10.065  2.3113  2.4844  1.7475
  439MOL0     H60564  10.157   9.900  10.353  0.7180 -1.6666  1.4429
  439MOL0     H60565  10.298   9.707  10.395 -3.2478 -0.0937 -0.5115
  439MOL0     H60566   9.502   8.977   9.965 -0.8948 -0.7150 -1.1943
  439MOL0     H60567   9.288   8.912  10.030  2.3253 -0.0856  0.4795
  439MOL0     H60568   8.823   8.923  10.108  0.1688 -1.2942 -1.4059
  439MOL0     H60569   8.584   8.948  10.153 -1.0451 -0.4521 -0.2054
  439MOL0     H60570   8.239   9.136   9.963  0.2264 -0.6861 -1.1140
  439MOL0     H60571   8.354   9.234   9.874  0.9778  0.2934 -1.2375
  439MOL0     H60572   8.347   8.933   9.801 -1.1227  0.9052  0.5726
  439MOL0     H60573   8.373   9.079   9.707 -0.5574  2.5040  0.9403
  439MOL0     H60574   8.098   8.990   9.819 -2.2839 -2.0665 -2.3809
  439MOL0     H60575   8.129   9.117   9.702  1.0499  1.3506 -0.2834
  439MOL0     H60576   8.189   8.808   9.674 -0.2510  0.5726  2.0684
  439MOL0     H60577   8.256   8.928   9.562  0.4246 -1.7858 -0.1271
  439MOL0     H60578   7.836   8.927   9.471 -0.5257 -0.8775  0.2947
  439MOL0     H60579   8.569   9.215   9.813  0.8477  0.9354 -0.1870
  439MOL0     H60580   8.912   9.270   9.773 -0.6497 -1.8502  2.3903
  439MOL0     H60581   8.845   9.152   9.662  2.4565  1.8331 -0.9511
  439MOL0     H60582   8.743   9.295   9.708 -1.8560 -0.9419  2.0976
  440MOL0     O60583   2.942   1.382   4.183  0.3163 -0.5229  0.4151
  440MOL0     C60584   3.044   1.320   4.170  0.0335 -0.0171 -0.4399
  440MOL0     O60585   3.079   1.263   4.053 -0.3558 -0.7538 -0.7619
  440MOL0     C60586   2.977   1.210   3.983 -0.5974 -0.0811  0.0021
  440MOL0     C60587   2.881   1.280   3.904 -0.1663  0.5645 -0.2620
  440MOL0     C60588   2.777   1.198   3.846  0.2870 -0.6006 -0.0321
  440MOL0     C60589   2.776   1.053   3.848 -0.7033  0.0952  0.9901
  440MOL0     O60590   2.660   0.986   3.809 -0.2087 -0.7549 -0.4712
  440MOL0     C60591   2.673   0.849   3.785  0.5957  0.2617  0.2495
  440MOL0     C60592   2.772   0.822   3.671 -0.0879 -0.1335 -0.1319
  440MOL0     C60593   2.770   0.678   3.623  0.8903  0.2303 -0.0303
  440MOL0     C60594   2.869   0.663   3.504 -0.7410  0.5679 -0.0167
  440MOL0     C60595   2.859   0.523   3.444 -0.1199  0.2369  0.3939
  440MOL0     C60596   2.965   0.496   3.334 -0.2670 -0.6493 -1.0833
  440MOL0     C60597   2.965   0.345   3.309 -0.1124  1.1221  0.8610
  440MOL0     C60598   3.064   0.288   3.195 -0.3265  0.5391 -0.4006
  440MOL0     N60599   3.212   0.306   3.231 -0.6212  0.2020  0.4532
  440MOL0     C60600   3.323   0.298   3.152 -0.6160 -0.6256  0.0215
  440MOL0     C60601   3.424   0.337   3.234  0.7614 -0.1845 -0.0082
  440MOL0     C60602   3.564   0.353   3.183 -0.3583  0.6750 -0.0497
  440MOL0     C60603   3.631   0.217   3.178 -0.1523 -0.7577 -0.5497
  440MOL0     C60604   3.785   0.236   3.165  0.9033  0.5089  0.5433
  440MOL0     C60605   3.854   0.104   3.149  0.3454  0.1629 -0.4164
  440MOL0     O60606   3.832   0.050   3.017 -0.4789  0.1295 -0.7310
  440MOL0     C60607   3.856  -0.089   3.007  0.2600 -0.0684 -0.9023
  440MOL0     C60608   3.812  -0.153   2.885 -0.5622  0.6073 -0.4955
  440MOL0     C60609   3.835  -0.285   2.861 -0.0312  0.0563 -0.5961
  440MOL0     C60610   3.777  -0.353   2.736  0.8001  0.2228 -0.4101
  440MOL0     C60611   3.909  -0.361   2.962  0.1558 -0.0641 -0.8763
  440MOL0     C60612   3.936  -0.510   2.963  0.5204  0.9709 -1.3612
  440MOL0     O60613   3.885  -0.579   2.868  0.2359  0.4184 -0.0178
  440MOL0     C60614   3.907  -0.710   2.843  0.5320 -0.8780  0.3106
  440MOL0     C60615   4.028  -0.773   2.855 -0.0086 -0.2031  0.1938
  440MOL0     C60616   4.047  -0.907   2.830  0.0058 -0.0797  0.2615
  440MOL0     C60617   3.942  -0.987   2.785  1.1740 -0.5950  1.4804
  440MOL0     O60618   3.963  -1.123   2.774 -0.2963 -0.6104  0.8997
  440MOL0     C60619   3.962  -1.196   2.900 -0.7606 -0.5942  1.1246
  440MOL0     C60620   4.099  -1.225   2.947  0.6989 -0.3169 -0.2770
  440MOL0     C60621   4.094  -1.301   3.084 -0.1760  0.1261 -0.1138
  440MOL0     C60622   4.052  -1.456   3.065  0.8189 -0.0889 -0.0307
  440MOL0     C60623   4.011  -1.518   3.204 -0.0702 -0.3540  0.7002
  440MOL0     C60624   4.133  -1.516   3.296 -0.2530 -0.2761 -0.4327
  440MOL0     C60625   4.242  -1.624   3.258 -0.3233 -0.0706  0.5711
  440MOL0     C60626   4.334  -1.647   3.380 -0.3256  0.2280  0.2508
  440MOL0    Cl60627   4.439  -1.501   3.383  0.2335 -0.1853  0.1225
  440MOL0     C60628   3.813  -0.923   2.762 -0.0726  0.1975  0.1059
  440MOL0     C60629   3.800  -0.789   2.800 -0.1173  0.5450  0.3440
  440MOL0     O60630   4.003  -0.564   3.052  0.2456  0.0090  1.1654
  440MOL0     C60631   3.955  -0.296   3.082 -1.3823  0.7644 -0.4593
  440MOL0     C60632   3.925  -0.167   3.100 -0.0927  0.5646 -0.5755
  440MOL0     N60633   3.378   0.358   3.365 -0.0039 -0.0588 -0.4948
  440MOL0     N60634   3.256   0.332   3.359 -0.0265  0.3257 -0.0448
  440MOL0     C60635   2.878   0.999   3.927  0.0769 -0.7566  0.0892
  440MOL0     C60636   2.966   1.071   3.994  0.2221 -0.5592 -0.3469
  440MOL0     C60637   3.151   1.324   4.276  0.0072 -0.0551 -0.0770
  440MOL0     C60638   3.259   1.409   4.257 -0.2923 -0.1742  0.0004
  440MOL0     C60639   3.363   1.411   4.354  0.0843  0.3598 -0.2361
  440MOL0     C60640   3.357   1.331   4.471 -0.2222 -0.1427  0.3978
  440MOL0     O60641   3.457   1.334   4.560  0.6960 -0.3057 -0.3397
  440MOL0     C60642   3.591   1.286   4.514  0.0687  0.6991  1.2360
  440MOL0     C60643   3.698   1.332   4.611 -0.9059  0.5191 -0.1229
  440MOL0     C60644   3.721   1.479   4.614  0.3700  0.2054 -0.5345
  440MOL0     C60645   3.757   1.529   4.472 -0.5430  0.1066 -1.3789
  440MOL0     C60646   3.819   1.662   4.461 -0.9533 -0.3121  0.2961
  440MOL0     C60647   3.874   1.768   4.457 -0.0220 -0.2349 -0.2255
  440MOL0     C60648   3.241   1.250   4.495  0.3891 -0.7153 -0.6294
  440MOL0     C60649   3.145   1.243   4.390 -0.1033  0.2624 -0.7794
  440MOL0     C60650   3.024   1.158   4.412  0.3803 -0.4183  0.1533
  440MOL0     H60651   2.873   1.386   3.878  0.8985  0.1993 -2.3389
  440MOL0     H60652   2.694   1.247   3.796  1.4581 -1.5650 -3.1559
  440MOL0     H60653   2.574   0.812   3.758  1.0202  0.9879 -2.5939
  440MOL0     H60654   2.705   0.784   3.867  1.7465 -0.9502 -1.1064
  440MOL0     H60655   2.753   0.892   3.589  2.5051  2.1030  1.0108
  440MOL0     H60656   2.874   0.839   3.706 -0.5013  0.3329  0.8770
  440MOL0     H60657   2.774   0.596   3.695 -3.7808 -1.8810 -1.7424
  440MOL0     H60658   2.666   0.679   3.589  1.2272  2.6224 -1.1601
  440MOL0     H60659   2.849   0.736   3.425  0.1120 -0.9169 -1.6858
  440MOL0     H60660   2.967   0.687   3.547 -0.4810  1.3083 -0.9896
  440MOL0     H60661   2.761   0.518   3.397  1.9056 -2.7284 -4.3612
  440MOL0     H60662   2.868   0.442   3.517  1.6781  0.0468  0.0210
  440MOL0     H60663   2.940   0.544   3.240 -3.3385  0.5000  0.2084
  440MOL0     H60664   3.060   0.537   3.371  0.4081  0.5872 -3.9248
  440MOL0     H60665   2.861   0.326   3.279 -0.4366  3.0098  0.7002
  440MOL0     H60666   2.982   0.278   3.394  4.3035  2.3447  1.1567
  440MOL0     H60667   3.051   0.180   3.183 -1.5684  0.7844 -1.4889
  440MOL0     H60668   3.043   0.344   3.104  0.5034  2.6484  0.6479
  440MOL0     H60669   3.321   0.267   3.048  1.8769  2.0699 -0.9530
  440MOL0     H60670   3.607   0.428   3.250 -2.0610  0.9629  0.7842
  440MOL0     H60671   3.562   0.399   3.083  0.4119  4.3815  1.4689
  440MOL0     H60672   3.606   0.164   3.270  0.2743  2.7879  1.8101
  440MOL0     H60673   3.581   0.162   3.098 -4.3892  3.3849 -1.2025
  440MOL0     H60674   3.808   0.285   3.070 -1.0734  2.2792  0.9054
  440MOL0     H60675   3.820   0.297   3.248 -2.6505 -0.2026  2.7962
  440MOL0     H60676   3.960   0.120   3.171  0.3272 -1.6890  1.4075
  440MOL0     H60677   3.826   0.024   3.219 -0.6946 -0.1150 -1.1346
  440MOL0     H60678   3.762  -0.098   2.806 -2.4315 -2.6051 -1.7335
  440MOL0     H60679   3.864  -0.408   2.698 -0.9922 -2.7496 -0.4923
  440MOL0     H60680   3.738  -0.284   2.661  1.2158 -0.1620 -0.9907
  440MOL0     H60681   3.699  -0.426   2.758  2.5052 -1.1287  1.6743
  440MOL0     H60682   4.115  -0.711   2.876 -0.4407  0.5890 -0.3004
  440MOL0     H60683   4.140  -0.957   2.854 -0.7974 -1.1106  1.3429
  440MOL0     H60684   3.893  -1.144   2.967 -1.3186 -0.6738  0.6235
  440MOL0     H60685   3.918  -1.293   2.873 -1.6345  0.2196 -0.5000
  440MOL0     H60686   4.156  -1.292   2.882  0.6258 -1.4841  0.8405
  440MOL0     H60687   4.147  -1.127   2.955  1.7804 -0.7992 -0.6603
  440MOL0     H60688   4.018  -1.268   3.155 -3.4641 -2.8293 -1.9203
  440MOL0     H60689   4.190  -1.292   3.135 -0.6193 -2.9034  1.4984
  440MOL0     H60690   4.124  -1.512   3.004 -0.7037 -1.4121 -0.6747
  440MOL0     H60691   3.960  -1.453   3.005 -0.5589  3.7065  1.9470
  440MOL0     H60692   3.934  -1.451   3.243 -0.2709 -0.2679  0.1654
  440MOL0     H60693   3.960  -1.614   3.196  0.9183 -1.0117  2.0376
  440MOL0     H60694   4.096  -1.539   3.396 -0.7171 -3.5337 -1.2408
  440MOL0     H60695   4.184  -1.420   3.310 -0.3153 -0.3841  0.6429
  440MOL0     H60696   4.298  -1.581   3.174 -1.0209  0.8208  0.5435
  440MOL0     H60697   4.198  -1.718   3.224  0.6940 -0.1621 -0.5546
  440MOL0     H60698   4.397  -1.736   3.369  2.2929  1.6176  2.7578
  440MOL0     H60699   4.280  -1.652   3.475  0.7352  0.3606  0.8781
  440MOL0     H60700   3.726  -0.975   2.723  1.2442 -0.5340 -2.0784
  440MOL0     H60701   3.699  -0.750   2.792 -0.4521 -0.5302 -1.0746
  440MOL0     H60702   4.003  -0.345   3.166  0.5998  1.9019 -0.8838
  440MOL0     H60703   3.965  -0.126   3.193  0.5751 -1.5701  0.1464
  440MOL0     H60704   2.889   0.892   3.940  1.1687 -0.8787 -1.4714
  440MOL0     H60705   3.042   1.014   4.047  1.2302  1.9310  1.0548
  440MOL0     H60706   3.261   1.468   4.166  2.6794  1.7441  1.1663
  440MOL0     H60707   3.447   1.479   4.349 -2.1154  3.1567 -2.2318
  440MOL0     H60708   3.604   1.177   4.509  1.4120  0.8995 -2.7813
  440MOL0     H60709   3.612   1.314   4.411 -0.5922 -1.8902  0.3294
  440MOL0     H60710   3.794   1.289   4.581  0.1377  1.0439  2.2281
  440MOL0     H60711   3.671   1.304   4.713  0.3468 -2.5540 -0.5300
  440MOL0     H60712   3.639   1.533   4.660 -0.3756 -1.5771  0.3205
  440MOL0     H60713   3.808   1.491   4.680  0.2230  3.7320 -0.8031
  440MOL0     H60714   3.669   1.545   4.408 -3.1089  0.2302  1.9128
  440MOL0     H60715   3.825   1.453   4.432  2.6386  1.4383  1.1345
  440MOL0     H60716   3.924   1.863   4.459 -1.1065  0.3787  2.8183
  440MOL0     H60717   3.229   1.191   4.586 -2.7449 -2.2758 -1.9268
  440MOL0     H60718   3.018   1.094   4.323  1.6844  1.1566 -1.1339
  440MOL0     H60719   3.033   1.083   4.492 -3.6138  0.0726  1.2726
  440MOL0     H60720   2.929   1.207   4.433  0.8141 -0.0646  1.3703
  441MOL0     O60721   5.449   1.404   3.772 -0.1859 -0.6369 -0.2839
  441MOL0     C60722   5.338   1.359   3.725  0.5690 -0.4036 -0.3423
  441MOL0     O60723   5.327   1.269   3.619 -0.0835  0.2033  0.5457
  441MOL0     C60724   5.442   1.206   3.586  0.3350 -0.6540 -0.5705
  441MOL0     C60725   5.453   1.076   3.637 -0.8601  0.9673 -0.2288
  441MOL0     C60726   5.555   0.993   3.604 -0.4310  0.2245 -0.1739
  441MOL0     C60727   5.665   1.037   3.529  1.1678 -0.0580  0.2410
  441MOL0     O60728   5.774   0.961   3.500  0.4067 -0.6083  0.2070
  441MOL0     C60729   5.768   0.828   3.543  0.5449  0.2381  0.1956
  441MOL0     C60730   5.900   0.750   3.516  0.2132 -0.9157  0.2339
  441MOL0     C60731   5.916   0.687   3.372 -0.9562  0.4487  0.0661
  441MOL0     C60732   6.062   0.644   3.352 -0.9334  0.0905 -0.3547
  441MOL0     C60733   6.087   0.614   3.207 -0.0055  0.8578 -0.4345
  441MOL0     C60734   6.239   0.589   3.190 -0.6993 -0.4009  0.2809
  441MOL0     C60735   6.273   0.572   3.037  0.3511  0.7570 -0.9566
  441MOL0     C60736   6.420   0.552   3.011  0.3241 -0.0500  0.8141
  441MOL0     N60737   6.474   0.427   3.061 -0.4977 -0.1725 -0.1267
  441MOL0     C60738   6.534   0.422   3.182 -0.0867 -0.9190  0.1853
  441MOL0     C60739   6.538   0.294   3.215  0.1906 -0.1323  0.1848
  441MOL0     C60740   6.577   0.256   3.356  1.1052  0.2682 -0.3299
  441MOL0     C60741   6.477   0.297   3.468 -0.1795  0.0408  0.6469
  441MOL0     C60742   6.372   0.188   3.458  0.1516 -0.1996  0.9803
  441MOL0     C60743   6.258   0.209   3.555  0.0283 -0.0576  0.1398
  441MOL0     O60744   6.308   0.227   3.687 -0.8100  0.4581 -0.1512
  441MOL0     C60745   6.257   0.136   3.775 -0.2197 -0.7282  0.5371
  441MOL0     C60746   6.146   0.182   3.846 -0.3669  0.5353 -0.9991
  441MOL0     C60747   6.110   0.115   3.967  0.0377 -0.2724  0.6286
  441MOL0     C60748   6.000   0.182   4.051  0.4870  0.1461  0.4251
  441MOL0     C60749   6.169  -0.010   4.002 -0.0374 -0.2603 -0.3547
  441MOL0     C60750   6.127  -0.087   4.128 -0.2550  1.5770 -0.0282
  441MOL0     O60751   5.994  -0.100   4.133  0.5504 -0.0983 -0.3335
  441MOL0     C60752   5.951  -0.140   4.256 -0.3245 -0.3157 -0.1928
  441MOL0     C60753   5.964  -0.271   4.304 -0.7893  0.9938 -0.7449
  441MOL0     C60754   5.915  -0.301   4.430  0.8266 -0.0811  0.0266
  441MOL0     C60755   5.843  -0.206   4.504 -0.1247  0.5267  0.0641
  441MOL0     O60756   5.774  -0.257   4.609 -0.7835  0.2898 -0.4905
  441MOL0     C60757   5.692  -0.164   4.682  0.3218 -0.2624 -1.0508
  441MOL0     C60758   5.622  -0.246   4.777  1.0035  0.0736 -0.6677
  441MOL0     C60759   5.715  -0.281   4.898  0.5960 -0.1903  0.0386
  441MOL0     C60760   5.662  -0.403   4.966  0.4940 -0.5695  0.5423
  441MOL0     C60761   5.517  -0.389   5.024 -0.4167 -0.2676 -0.3462
  441MOL0     C60762   5.464  -0.530   5.066 -0.7632  0.1452 -0.8338
  441MOL0     C60763   5.328  -0.524   5.138  0.0756  0.3296  0.9906
  441MOL0     C60764   5.282  -0.665   5.145 -0.2948 -0.5974 -0.1627
  441MOL0    Cl60765   5.360  -0.743   5.287 -0.1852 -0.1071 -0.4829
  441MOL0     C60766   5.853  -0.074   4.465  0.1534 -0.4683 -0.2981
  441MOL0     C60767   5.908  -0.042   4.344  0.4480 -0.9264 -0.6860
  441MOL0     O60768   6.208  -0.140   4.198 -0.6485 -0.0833  0.1672
  441MOL0     C60769   6.286  -0.050   3.926  0.4711  0.0498 -0.6107
  441MOL0     C60770   6.324   0.020   3.812 -0.2891 -0.9590  0.0399
  441MOL0     N60771   6.493   0.216   3.110  0.4433 -0.2246  0.2526
  441MOL0     N60772   6.451   0.299   3.014 -0.0209  0.2720 -0.0719
  441MOL0     C60773   5.659   1.171   3.479  0.9966  0.4565  0.1358
  441MOL0     C60774   5.540   1.254   3.503 -0.2341  0.5532  0.3845
  441MOL0     C60775   5.214   1.426   3.795 -0.1092  0.2465 -0.7594
  441MOL0     C60776   5.243   1.502   3.908 -0.0076 -0.3728  0.3983
  441MOL0     C60777   5.139   1.564   3.984 -0.4065 -0.2340  0.2826
  441MOL0     C60778   5.008   1.525   3.959 -0.5126 -0.1288  0.2751
  441MOL0     O60779   4.914   1.584   4.042  0.0544  0.4410  0.3534
  441MOL0     C60780   4.775   1.557   4.006 -0.0498  0.3546 -0.9109
  441MOL0     C60781   4.671   1.612   4.110  0.0755 -0.2213 -0.4189
  441MOL0     C60782   4.716   1.739   4.180  0.6044 -0.1526  0.9628
  441MOL0     C60783   4.620   1.775   4.290  0.7729 -0.7821  0.6507
  441MOL0     C60784   4.678   1.892   4.359  0.3113 -0.5301 -0.3513
  441MOL0     C60785   4.711   1.992   4.422 -0.4385  0.0694 -0.1651
  441MOL0     C60786   4.974   1.458   3.838  0.0738 -0.4707  0.7326
  441MOL0     C60787   5.082   1.408   3.753 -0.0764 -0.4145 -0.6174
  441MOL0     C60788   5.057   1.349   3.615  0.5570  0.1935 -0.1248
  441MOL0     H60789   5.373   1.038   3.701 -1.7173  0.3345 -1.6273
  441MOL0     H60790   5.538   0.892   3.640 -2.9096  0.8706  0.6459
  441MOL0     H60791   5.690   0.782   3.482 -0.7978  1.5326  0.8739
  441MOL0     H60792   5.753   0.818   3.651  1.7053 -0.6763  0.2979
  441MOL0     H60793   5.979   0.823   3.538  1.1304 -0.5183 -3.6302
  441MOL0     H60794   5.914   0.668   3.586  0.6207  0.2597  1.5849
  441MOL0     H60795   5.840   0.611   3.354 -0.5370 -0.2636  1.1322
  441MOL0     H60796   5.894   0.769   3.305  1.6043  0.7955 -0.4757
  441MOL0     H60797   6.130   0.720   3.392 -3.5486  0.7432  3.4027
  441MOL0     H60798   6.078   0.553   3.411 -1.0310  0.0924 -0.3252
  441MOL0     H60799   6.058   0.693   3.138  1.9342  1.4414 -0.6485
  441MOL0     H60800   6.042   0.525   3.162  1.2258  0.1421 -0.2924
  441MOL0     H60801   6.292   0.676   3.231 -2.8980  1.8138 -1.2866
  441MOL0     H60802   6.277   0.502   3.244 -2.1977  0.3959  2.7834
  441MOL0     H60803   6.246   0.658   2.976 -0.2218  0.3994 -1.2088
  441MOL0     H60804   6.214   0.483   3.014 -1.0648  0.4314  3.0795
  441MOL0     H60805   6.417   0.541   2.902 -5.0312  0.3827  0.6229
  441MOL0     H60806   6.486   0.631   3.047 -0.8143  0.6792  1.3758
  441MOL0     H60807   6.557   0.505   3.248  0.1759  0.1782 -1.2273
  441MOL0     H60808   6.677   0.292   3.384  0.8770 -2.0240  4.4851
  441MOL0     H60809   6.597   0.148   3.357  0.3386  0.0658 -2.2286
  441MOL0     H60810   6.527   0.286   3.565  0.2186 -2.1161  0.2514
  441MOL0     H60811   6.434   0.396   3.455  2.4569  1.2312  0.3800
  441MOL0     H60812   6.334   0.191   3.355 -0.8584 -0.0881  1.3482
  441MOL0     H60813   6.416   0.089   3.474  1.9768  0.6952  1.7419
  441MOL0     H60814   6.202   0.298   3.524  0.2413 -0.0395 -0.1975
  441MOL0     H60815   6.189   0.125   3.544 -1.1131  1.1372 -2.8741
  441MOL0     H60816   6.090   0.271   3.818  0.1096  0.8492 -0.9664
  441MOL0     H60817   6.025   0.187   4.158 -2.0884 -0.6372  1.1402
  441MOL0     H60818   5.902   0.134   4.046 -0.3009  1.7644 -4.5795
  441MOL0     H60819   5.978   0.276   4.000  0.3992 -0.3981 -0.5627
  441MOL0     H60820   6.009  -0.344   4.237 -0.4252  0.6992 -0.1853
  441MOL0     H60821   5.917  -0.404   4.466 -1.0555  0.3917  1.6335
  441MOL0     H60822   5.747  -0.079   4.723 -2.5144  1.4612 -0.5607
  441MOL0     H60823   5.620  -0.125   4.609  0.6235  2.4642 -0.0340
  441MOL0     H60824   5.551  -0.176   4.821 -0.4202 -1.8908  0.3193
  441MOL0     H60825   5.571  -0.330   4.727  2.1530  0.9685 -3.5586
  441MOL0     H60826   5.715  -0.185   4.951 -1.5132  0.7438 -1.4717
  441MOL0     H60827   5.818  -0.308   4.872  0.1055 -2.8663  0.6007
  441MOL0     H60828   5.733  -0.409   5.049  3.5810  1.8269 -1.7223
  441MOL0     H60829   5.672  -0.492   4.903  3.8314 -0.7211  1.1173
  441MOL0     H60830   5.519  -0.325   5.112  3.3201 -0.2298 -0.2673
  441MOL0     H60831   5.443  -0.347   4.955  1.6471  1.3442 -1.7076
  441MOL0     H60832   5.544  -0.569   5.131 -1.6225 -1.1482 -0.5149
  441MOL0     H60833   5.463  -0.602   4.984  2.9641 -1.8977  0.6304
  441MOL0     H60834   5.258  -0.457   5.088  1.8735  0.3696 -1.6537
  441MOL0     H60835   5.342  -0.485   5.239 -1.2783 -0.1525  1.3863
  441MOL0     H60836   5.319  -0.727   5.062 -0.1423 -1.0665  0.2529
  441MOL0     H60837   5.173  -0.673   5.150 -0.3543 -0.9520 -1.5430
  441MOL0     H60838   5.814   0.003   4.531  0.1031 -0.3783 -0.4331
  441MOL0     H60839   5.911   0.063   4.315 -0.4158 -0.1617  1.7415
  441MOL0     H60840   6.336  -0.139   3.962  1.2893 -1.0951 -4.0964
  441MOL0     H60841   6.416  -0.018   3.770  1.5793 -0.2164  3.1663
  441MOL0     H60842   5.744   1.208   3.422  0.2015  0.7358 -0.8943
  441MOL0     H60843   5.533   1.352   3.457 -1.1440 -0.8760 -2.7889
  441MOL0     H60844   5.344   1.535   3.931  1.4672 -4.0737  0.0423
  441MOL0     H60845   5.151   1.633   4.066 -1.0491 -0.1717  0.3322
  441MOL0     H60846   4.750   1.595   3.906 -0.0416  3.9026  0.3210
  441MOL0     H60847   4.768   1.447   4.008 -0.0318  0.3620  0.1111
  441MOL0     H60848   4.655   1.532   4.183 -2.7911 -0.4639 -1.2118
  441MOL0     H60849   4.578   1.622   4.053  0.6943  4.2796 -0.9641
  441MOL0     H60850   4.804   1.724   4.243 -1.0135  0.5298  3.6019
  441MOL0     H60851   4.735   1.830   4.122  3.0364  0.5473  2.6662
  441MOL0     H60852   4.614   1.687   4.354  0.8986 -1.6897 -0.5689
  441MOL0     H60853   4.522   1.785   4.242  0.8409 -1.5691  0.3359
  441MOL0     H60854   4.738   2.088   4.461 -0.5446  0.7387 -1.6737
  441MOL0     H60855   4.870   1.455   3.806 -0.6225  2.3224  2.4464
  441MOL0     H60856   4.954   1.374   3.587  0.5604  2.3629  1.5770
  441MOL0     H60857   5.123   1.395   3.541 -0.0934 -1.1354 -1.5732
  441MOL0     H60858   5.073   1.240   3.615 -0.4062  0.0405 -0.6580
  442MOL0     O60859  11.334   6.444   2.839  0.0264  0.2413  0.2746
  442MOL0     C60860  11.451   6.474   2.854 -0.4512 -1.0098 -0.2018
  442MOL0     O60861  11.527   6.442   2.970  0.5475  0.3963  0.0184
  442MOL0     C60862  11.483   6.347   3.055 -1.3851  0.5006  0.7553
  442MOL0     C60863  11.532   6.357   3.192 -0.8018 -0.5599  0.0067
  442MOL0     C60864  11.489   6.273   3.295 -0.0781 -0.4438  0.0461
  442MOL0     C60865  11.405   6.159   3.265 -0.0783  0.1539 -0.4270
  442MOL0     O60866  11.351   6.068   3.356  0.6473 -0.3188  0.1658
  442MOL0     C60867  11.406   6.061   3.492  0.0216 -0.1474  0.1054
  442MOL0     C60868  11.343   6.150   3.604 -0.2501  0.3381  0.3305
  442MOL0     C60869  11.193   6.110   3.628  0.9930  0.7459 -0.2881
  442MOL0     C60870  11.137   6.146   3.759  0.4203  0.1506  0.6235
  442MOL0     C60871  10.991   6.120   3.783 -0.0349  1.0106  0.2635
  442MOL0     C60872  10.961   6.117   3.935  0.2575 -0.2405  0.3457
  442MOL0     C60873  10.949   6.262   3.994  0.8285 -0.1838  0.0120
  442MOL0     C60874  10.873   6.270   4.123 -0.0142 -0.0998  0.4749
  442MOL0     N60875  10.902   6.167   4.222  0.9208 -0.0715  0.3727
  442MOL0     C60876  10.810   6.084   4.281 -0.8152  0.7230  0.3022
  442MOL0     C60877  10.883   6.021   4.384 -1.0163 -1.4046  0.0912
  442MOL0     C60878  10.828   5.923   4.478 -0.0758  0.4549 -0.5125
  442MOL0     C60879  10.729   5.977   4.589 -0.0384  0.4705  0.2595
  442MOL0     C60880  10.789   6.094   4.667 -0.4927  0.3176  0.3369
  442MOL0     C60881  10.716   6.115   4.798  0.2778 -0.5846 -0.5834
  442MOL0     O60882  10.582   6.132   4.761  0.2487 -0.2004 -0.1202
  442MOL0     C60883  10.483   6.149   4.851  0.7780 -0.8750  0.2860
  442MOL0     C60884  10.506   6.178   4.988  0.1284  0.2724  0.5246
  442MOL0     C60885  10.408   6.183   5.084 -0.4692  0.0769 -0.4537
  442MOL0     C60886  10.452   6.215   5.224  0.1556 -0.4936 -0.8431
  442MOL0     C60887  10.267   6.191   5.036  0.2899  0.8549 -0.2747
  442MOL0     C60888  10.153   6.215   5.124  0.6039  0.1635  0.7856
  442MOL0     O60889  10.176   6.254   5.248  0.8156  0.1815  1.1128
  442MOL0     C60890  10.078   6.292   5.340 -0.0971  0.2141  0.5793
  442MOL0     C60891  10.121   6.295   5.472 -0.9046 -0.0138  0.6528
  442MOL0     C60892  10.037   6.338   5.576 -0.2768 -0.2667 -0.6741
  442MOL0     C60893   9.898   6.358   5.550 -0.1245 -0.5392  0.1125
  442MOL0     O60894   9.805   6.375   5.653 -0.0772  0.3482 -0.3531
  442MOL0     C60895   9.850   6.335   5.782  0.1403  0.9044  0.2144
  442MOL0     C60896   9.724   6.296   5.859  0.5298 -0.2197  0.5443
  442MOL0     C60897   9.631   6.412   5.891  0.9418  0.3977 -0.1358
  442MOL0     C60898   9.553   6.371   6.014  0.1694 -0.1867 -0.2534
  442MOL0     C60899   9.425   6.450   6.027  0.9096  0.7750 -0.5699
  442MOL0     C60900   9.435   6.594   6.065  0.1276  0.8610  0.3887
  442MOL0     C60901   9.291   6.654   6.056  0.7849  0.3130  0.5769
  442MOL0     C60902   9.254   6.676   5.914  0.7763  0.3118 -0.0748
  442MOL0    Cl60903   9.092   6.771   5.918 -0.3483  0.6403 -0.2536
  442MOL0     C60904   9.856   6.349   5.412  0.4321 -0.2931 -0.0273
  442MOL0     C60905   9.945   6.325   5.309 -0.8826  0.5734  0.0175
  442MOL0     O60906  10.041   6.176   5.077  0.6542  0.0004 -0.0003
  442MOL0     C60907  10.251   6.179   4.895  0.7749  0.5424 -0.4770
  442MOL0     C60908  10.355   6.167   4.808 -0.3234 -0.1407  0.1037
  442MOL0     N60909  11.007   6.085   4.391 -0.7588 -0.1183 -0.7948
  442MOL0     N60910  11.014   6.171   4.291 -0.4824 -0.3874 -1.0848
  442MOL0     C60911  11.373   6.138   3.132  0.4073 -0.6762 -0.8601
  442MOL0     C60912  11.402   6.229   3.021  0.0257 -0.5200 -0.1965
  442MOL0     C60913  11.514   6.561   2.761  0.5427  0.1315 -1.3550
  442MOL0     C60914  11.445   6.677   2.728  1.1708 -0.6361 -0.5473
  442MOL0     C60915  11.496   6.780   2.660 -0.5469  0.4186  0.5578
  442MOL0     C60916  11.628   6.769   2.606 -0.6212 -0.5429 -0.1712
  442MOL0     O60917  11.691   6.858   2.521 -0.2231 -0.3545 -0.0277
  442MOL0     C60918  11.828   6.898   2.550  0.2487  0.0794  0.0224
  442MOL0     C60919  11.852   6.963   2.684 -0.0194  0.9319 -0.6196
  442MOL0     C60920  11.757   7.079   2.733  0.2167 -0.1606  0.6814
  442MOL0     C60921  11.757   7.110   2.886 -0.2192 -0.1595 -0.2043
  442MOL0     C60922  11.900   7.127   2.923  1.2780  0.8588  0.4783
  442MOL0     C60923  12.017   7.139   2.945 -0.0684 -0.2211  0.2806
  442MOL0     C60924  11.693   6.650   2.630  1.0354  0.5753  1.1676
  442MOL0     C60925  11.639   6.544   2.715  0.6275  0.2463  0.1347
  442MOL0     C60926  11.722   6.418   2.739 -0.5062  1.0978  0.1631
  442MOL0     H60927  11.602   6.434   3.221 -0.5689 -0.8145  0.1349
  442MOL0     H60928  11.524   6.291   3.396 -0.7801  2.1765 -0.1057
  442MOL0     H60929  11.510   6.092   3.486 -0.4689  1.7587  0.6748
  442MOL0     H60930  11.408   5.959   3.532  1.1696 -0.5612 -0.9667
  442MOL0     H60931  11.405   6.142   3.694  0.7429  0.0032 -0.3657
  442MOL0     H60932  11.337   6.255   3.573 -2.5843  0.0687 -0.3694
  442MOL0     H60933  11.130   6.157   3.552  0.9216  0.5040 -0.3789
  442MOL0     H60934  11.187   6.003   3.608  0.9040  0.9218 -1.2534
  442MOL0     H60935  11.190   6.084   3.832 -0.5040 -1.1108  0.2583
  442MOL0     H60936  11.150   6.252   3.785  0.4885  0.4804 -0.6846
  442MOL0     H60937  10.982   6.018   3.743 -0.3070 -0.2949  3.3735
  442MOL0     H60938  10.924   6.184   3.725 -1.4676 -0.7441 -0.1448
  442MOL0     H60939  10.870   6.058   3.955 -0.6796  1.9699  3.3553
  442MOL0     H60940  11.039   6.066   3.992  0.6961 -1.3517 -1.1711
  442MOL0     H60941  10.888   6.316   3.921 -0.3096 -0.4608  0.7337
  442MOL0     H60942  11.046   6.311   4.007  2.1893 -2.8960  0.8412
  442MOL0     H60943  10.894   6.365   4.174  1.0204  1.1016 -2.0424
  442MOL0     H60944  10.768   6.274   4.094  0.9139  2.6757 -3.3530
  442MOL0     H60945  10.711   6.067   4.240  0.2160 -0.3849 -1.8655
  442MOL0     H60946  10.911   5.878   4.533  0.9533 -0.6000 -2.7713
  442MOL0     H60947  10.782   5.845   4.417  1.2343 -1.6286  1.0405
  442MOL0     H60948  10.632   6.010   4.550 -0.7632  1.6403  2.7861
  442MOL0     H60949  10.701   5.898   4.659  1.1007 -0.1652  0.0065
  442MOL0     H60950  10.893   6.071   4.688 -0.1167 -1.4075 -2.7917
  442MOL0     H60951  10.777   6.182   4.603  1.6067  0.8383  0.5866
  442MOL0     H60952  10.725   6.031   4.867  2.7737  1.4476  1.8224
  442MOL0     H60953  10.752   6.203   4.854 -0.3666 -1.9563  2.1662
  442MOL0     H60954  10.609   6.180   5.022  1.2122 -0.1003 -2.3866
  442MOL0     H60955  10.423   6.317   5.251  2.1370 -0.1019  0.0278
  442MOL0     H60956  10.561   6.215   5.232  0.4557  0.5025 -3.5851
  442MOL0     H60957  10.413   6.135   5.287  1.7643 -1.2147 -0.7011
  442MOL0     H60958  10.225   6.279   5.500 -0.5668 -1.1149 -1.0648
  442MOL0     H60959  10.077   6.341   5.677  0.6671 -1.8862 -0.9828
  442MOL0     H60960   9.912   6.245   5.786 -1.2828 -0.1291 -0.0025
  442MOL0     H60961   9.907   6.415   5.829  3.7333 -1.0145 -0.5592
  442MOL0     H60962   9.677   6.213   5.806  6.4728 -3.0812 -1.2367
  442MOL0     H60963   9.760   6.256   5.954 -2.0806 -2.7807  0.5680
  442MOL0     H60964   9.569   6.431   5.803  1.7450 -0.5222 -0.9187
  442MOL0     H60965   9.686   6.502   5.920  0.3972  0.2459  1.4614
  442MOL0     H60966   9.613   6.386   6.104 -1.7709 -0.4199  1.1562
  442MOL0     H60967   9.519   6.268   5.998  0.4201 -0.3806  0.4193
  442MOL0     H60968   9.364   6.436   5.938 -1.0674 -2.1152  1.0663
  442MOL0     H60969   9.367   6.409   6.111  1.3123  0.7364 -0.3079
  442MOL0     H60970   9.495   6.648   5.992 -1.1906  0.3491 -1.1461
  442MOL0     H60971   9.483   6.603   6.162  1.1477  0.1397 -0.0330
  442MOL0     H60972   9.286   6.745   6.117  0.9220  0.4519  0.3820
  442MOL0     H60973   9.225   6.582   6.106  3.2860  0.4033  4.5422
  442MOL0     H60974   9.241   6.580   5.863 -0.5692 -0.4647  1.6156
  442MOL0     H60975   9.331   6.727   5.856  0.1181  1.8595  0.3639
  442MOL0     H60976   9.751   6.360   5.390  0.1426  2.9330  2.2412
  442MOL0     H60977   9.923   6.328   5.203 -0.6506 -2.8362 -0.2413
  442MOL0     H60978  10.148   6.176   4.863  0.3240  0.8084  0.9009
  442MOL0     H60979  10.329   6.161   4.703 -2.0317  0.8852  0.4178
  442MOL0     H60980  11.322   6.047   3.100  2.2813 -1.2300 -2.4824
  442MOL0     H60981  11.366   6.219   2.919  0.5604 -3.3281 -0.1949
  442MOL0     H60982  11.351   6.698   2.778  0.9066 -0.3472 -1.1562
  442MOL0     H60983  11.436   6.870   2.648  0.3729  1.0232  0.3508
  442MOL0     H60984  11.894   6.815   2.524 -2.6816 -2.0263 -1.2032
  442MOL0     H60985  11.849   6.975   2.476  0.6446  1.5304  1.5672
  442MOL0     H60986  11.957   6.992   2.696  0.4956 -1.1614  0.3544
  442MOL0     H60987  11.836   6.886   2.760 -0.5702  4.2216  2.9297
  442MOL0     H60988  11.790   7.167   2.678  0.9031 -0.3904  0.7169
  442MOL0     H60989  11.652   7.067   2.702  0.0958 -0.2046  1.1003
  442MOL0     H60990  11.714   7.029   2.945  1.6784 -2.8276 -2.2168
  442MOL0     H60991  11.704   7.202   2.913  0.1866 -0.2695  1.0416
  442MOL0     H60992  12.122   7.151   2.960 -0.0177 -2.0213  1.7521
  442MOL0     H60993  11.789   6.630   2.584 -0.2327  1.3694 -2.1495
  442MOL0     H60994  11.666   6.323   2.735  0.5306  0.4492  0.6069
  442MOL0     H60995  11.792   6.410   2.656 -0.8295  1.6273 -0.1665
  442MOL0     H60996  11.789   6.426   2.825  2.4724  0.1172 -1.9325
  443MOL0     O60997   5.345  10.301   9.963  0.1288 -0.2952  1.0058
  443MOL0     C60998   5.320  10.416   9.926 -0.1484 -0.5743  0.1843
  443MOL0     O60999   5.198  10.463   9.937 -0.3377  0.2788  0.3389
  443MOL0     C61000   5.153  10.563   9.852 -0.4353 -0.0449 -0.3065
  443MOL0     C61001   5.113  10.677   9.918 -0.9138 -1.3276 -0.9035
  443MOL0     C61002   5.080  10.793   9.845 -0.0695  0.1765 -0.3756
  443MOL0     C61003   5.054  10.783   9.708 -0.2568  0.0144  0.0192
  443MOL0     O61004   5.026  10.890   9.616  0.4415  0.2519 -0.3018
  443MOL0     C61005   4.935  10.990   9.668  0.0194  0.6177  0.8983
  443MOL0     C61006   5.003  11.129   9.691 -0.0652  1.2504  0.1226
  443MOL0     C61007   5.118  11.117   9.801  0.2941 -0.6952 -1.0826
  443MOL0     C61008   5.196  11.249   9.808  0.4064 -0.1705 -0.2995
  443MOL0     C61009   5.324  11.242   9.893  0.5091  0.0854  0.4575
  443MOL0     C61010   5.370  11.383   9.941  0.2746  0.1765 -0.1174
  443MOL0     C61011   5.502  11.391  10.026  0.4428  0.8793 -1.4672
  443MOL0     C61012   5.528  11.547  10.059 -0.2641  0.7446  0.4654
  443MOL0     N61013   5.665  11.568  10.110 -1.2254  0.4721 -0.7384
  443MOL0     C61014   5.722  11.692  10.114  0.0498  0.0980 -0.3495
  443MOL0     C61015   5.832  11.671  10.194  0.9224 -0.0118  0.7811
  443MOL0     C61016   5.923  11.781  10.258 -0.2698  0.0311  0.0477
  443MOL0     C61017   6.052  11.809  10.186 -0.0450 -0.5055  0.6977
  443MOL0     C61018   6.111  11.943  10.235 -0.4937  0.2323 -0.7390
  443MOL0     C61019   6.252  11.973  10.181  0.4084 -0.5599  0.4207
  443MOL0     O61020   6.260  11.980  10.040 -0.2032 -0.6637 -1.4197
  443MOL0     C61021   6.389  11.987   9.986  0.0959  0.8231 -1.2362
  443MOL0     C61022   6.512  12.001  10.057 -0.6508 -0.6467 -0.0927
  443MOL0     C61023   6.633  12.002   9.994  0.5375  0.0129 -0.4728
  443MOL0     C61024   6.750  12.003  10.091 -0.3306 -0.5569  0.3907
  443MOL0     C61025   6.630  11.983   9.853 -0.3599  0.2255  0.3192
  443MOL0     C61026   6.759  11.976   9.775 -0.2107 -0.6313  0.5419
  443MOL0     O61027   6.745  12.016   9.640  0.4066  0.3893  0.6799
  443MOL0     C61028   6.840  11.981   9.555  0.3325 -0.1052  0.0109
  443MOL0     C61029   6.878  11.852   9.530 -0.3495  0.9522 -0.3087
  443MOL0     C61030   6.991  11.825   9.447  0.6391 -0.1154 -0.1366
  443MOL0     C61031   7.063  11.927   9.379 -0.1722 -0.6770 -1.1555
  443MOL0     O61032   7.178  11.907   9.309  0.1210  0.1172 -0.1295
  443MOL0     C61033   7.248  11.778   9.311  0.7344 -0.9145 -0.9595
  443MOL0     C61034   7.390  11.792   9.254  0.3954 -0.5653 -0.6340
  443MOL0     C61035   7.371  11.822   9.105 -0.2576  0.1807  1.2257
  443MOL0     C61036   7.506  11.848   9.036  0.3404 -0.2540 -0.4155
  443MOL0     C61037   7.590  11.968   9.101 -0.0689 -0.3388  0.4143
  443MOL0     C61038   7.690  12.018   8.995  0.2365  0.0968  0.8090
  443MOL0     C61039   7.676  12.172   8.970  0.1231  0.3478  0.1009
  443MOL0     C61040   7.679  12.253   9.104 -0.4823  0.2114  0.5346
  443MOL0    Cl61041   7.846  12.244   9.183  0.1166 -0.0558  0.0083
  443MOL0     C61042   7.020  12.060   9.397  0.6330 -0.1131 -0.1891
  443MOL0     C61043   6.904  12.085   9.487 -0.5234 -0.7052 -0.0219
  443MOL0     O61044   6.854  11.923   9.818  0.3924 -0.2286 -0.9530
  443MOL0     C61045   6.511  11.973   9.780 -0.2448 -0.1596  0.7079
  443MOL0     C61046   6.395  11.975   9.847  0.0357  0.1571  0.6513
  443MOL0     N61047   5.841  11.534  10.225  0.1110 -0.3263 -1.0904
  443MOL0     N61048   5.738  11.482  10.185  0.2367 -0.4587 -0.0504
  443MOL0     C61049   5.090  10.661   9.647 -0.2072  0.0697  0.9524
  443MOL0     C61050   5.133  10.553   9.720 -0.0994 -0.6237  0.1064
  443MOL0     C61051   5.432  10.502   9.871  1.2787 -0.5320 -0.0207
  443MOL0     C61052   5.472  10.611   9.944 -0.5805 -0.3418 -0.3188
  443MOL0     C61053   5.570  10.698   9.896 -0.7591 -0.2414 -0.0133
  443MOL0     C61054   5.627  10.662   9.775  0.0953  0.5710 -0.1991
  443MOL0     O61055   5.715  10.742   9.713  0.1497  0.0248 -0.0224
  443MOL0     C61056   5.851  10.707   9.717  0.0658  1.2390  0.3218
  443MOL0     C61057   5.941  10.835   9.715 -0.0762 -0.0005 -0.3008
  443MOL0     C61058   5.957  10.898   9.580 -0.3340 -0.1042  0.3617
  443MOL0     C61059   6.049  11.021   9.584  0.1798  0.0255  0.3875
  443MOL0     C61060   6.189  11.005   9.643 -0.0282 -0.1222 -0.2017
  443MOL0     C61061   6.304  11.002   9.687  0.0352 -0.4431  0.3986
  443MOL0     C61062   5.586  10.551   9.697 -0.1862  0.1722 -0.2732
  443MOL0     C61063   5.491  10.464   9.747 -1.1418 -0.6819  0.2733
  443MOL0     C61064   5.455  10.337   9.673 -0.6389 -0.4849 -0.8624
  443MOL0     H61065   5.111  10.678  10.027  2.8678 -4.5377 -0.5920
  443MOL0     H61066   5.064  10.886   9.897  1.6570  0.2918 -0.0075
  443MOL0     H61067   4.886  10.960   9.761 -3.3771  0.0714 -0.9157
  443MOL0     H61068   4.854  10.997   9.595  0.2485 -1.3510  0.4134
  443MOL0     H61069   5.037  11.175   9.598  0.0610  1.7854  0.4233
  443MOL0     H61070   4.927  11.197   9.731 -2.1173 -0.5685 -0.5256
  443MOL0     H61071   5.079  11.097   9.901  1.7204  1.9495  0.0889
  443MOL0     H61072   5.192  11.042   9.772 -0.8529 -1.9900 -0.7742
  443MOL0     H61073   5.215  11.281   9.705  0.4904  1.6405  0.2395
  443MOL0     H61074   5.128  11.321   9.855 -0.8787 -2.0219  0.7780
  443MOL0     H61075   5.403  11.191   9.836 -0.8178  1.5981 -3.0185
  443MOL0     H61076   5.297  11.180   9.979  2.6149 -1.7128 -0.0582
  443MOL0     H61077   5.373  11.448   9.854  2.2886  1.1912  0.6579
  443MOL0     H61078   5.288  11.425  10.000 -0.1220  0.6621 -0.9989
  443MOL0     H61079   5.578  11.345   9.962 -0.0778 -0.9631 -0.8083
  443MOL0     H61080   5.486  11.334  10.117  0.3689 -1.0982 -2.6630
  443MOL0     H61081   5.538  11.597   9.962 -2.7326  3.4828  1.4608
  443MOL0     H61082   5.454  11.595  10.123 -1.3035  1.6176 -1.3017
  443MOL0     H61083   5.672  11.785  10.088 -0.9904 -0.1975  0.5067
  443MOL0     H61084   5.941  11.757  10.363  0.7675 -0.4312 -0.2174
  443MOL0     H61085   5.867  11.874  10.265  1.7851  1.2759  0.9748
  443MOL0     H61086   6.120  11.724  10.191 -0.4335 -0.9654 -1.0597
  443MOL0     H61087   6.019  11.817  10.082 -3.5447 -3.5823  1.3683
  443MOL0     H61088   6.050  12.030  10.209 -1.6992 -0.3539  0.0278
  443MOL0     H61089   6.114  11.947  10.344 -1.8185  1.1586 -0.7140
  443MOL0     H61090   6.285  12.063  10.233 -0.1570 -1.0405  1.6532
  443MOL0     H61091   6.317  11.891  10.214  0.7753 -0.5658 -0.2944
  443MOL0     H61092   6.518  11.992  10.165 -1.6693 -1.5972 -0.0979
  443MOL0     H61093   6.845  12.035  10.047  0.0814  0.7782  2.1514
  443MOL0     H61094   6.761  11.906  10.141 -0.0117 -0.3158  0.7916
  443MOL0     H61095   6.724  12.073  10.170  0.5932 -0.3896  0.5527
  443MOL0     H61096   6.816  11.771   9.567  0.8604 -1.2097 -2.6671
  443MOL0     H61097   7.019  11.726   9.413  0.4551 -0.2459  0.0894
  443MOL0     H61098   7.250  11.749   9.416  0.7291 -4.5181 -1.8193
  443MOL0     H61099   7.182  11.710   9.256 -3.6443  2.7140 -0.6797
  443MOL0     H61100   7.445  11.870   9.308  4.2125 -4.5506  1.9129
  443MOL0     H61101   7.456  11.704   9.255  0.6894 -0.4975 -3.8548
  443MOL0     H61102   7.312  11.913   9.088 -0.8123 -0.7343 -2.8199
  443MOL0     H61103   7.327  11.740   9.048  4.6259 -0.7269 -1.7866
  443MOL0     H61104   7.505  11.848   8.926  2.4646 -1.4731 -0.4834
  443MOL0     H61105   7.564  11.760   9.063 -0.1655 -0.0215  1.5884
  443MOL0     H61106   7.528  12.052   9.132  0.1847  0.4631 -1.1276
  443MOL0     H61107   7.656  11.932   9.181  1.7111  1.8666  0.0632
  443MOL0     H61108   7.678  11.970   8.898 -1.3168  0.8326  0.6023
  443MOL0     H61109   7.794  12.008   9.027 -0.6795  0.4807  4.3018
  443MOL0     H61110   7.580  12.196   8.923 -0.6133  1.7117  2.1524
  443MOL0     H61111   7.755  12.201   8.900 -1.0603  3.4979 -0.0556
  443MOL0     H61112   7.607  12.224   9.180  0.4191  0.4410  1.4981
  443MOL0     H61113   7.654  12.356   9.077 -3.3918 -0.3895  0.6476
  443MOL0     H61114   7.070  12.137   9.339  0.2378 -0.0392 -0.4390
  443MOL0     H61115   6.869  12.187   9.495 -2.2789 -1.1735 -1.1772
  443MOL0     H61116   6.503  11.958   9.673  1.2543  1.0811  0.3782
  443MOL0     H61117   6.298  11.983   9.800  0.3231  1.1606  0.2001
  443MOL0     H61118   5.068  10.640   9.543  1.1027 -1.6060  0.9859
  443MOL0     H61119   5.150  10.452   9.681  0.0459 -1.0907  1.3275
  443MOL0     H61120   5.422  10.632  10.038  0.6210 -0.4281  0.3603
  443MOL0     H61121   5.603  10.788   9.947 -1.4062 -0.3313  0.5911
  443MOL0     H61122   5.861  10.644   9.805  1.0380  0.7700 -0.1013
  443MOL0     H61123   5.871  10.650   9.625 -0.1074  1.8550 -0.1008
  443MOL0     H61124   6.036  10.800   9.756  0.8712  1.8799 -0.8022
  443MOL0     H61125   5.894  10.900   9.790 -1.1437 -0.2632 -0.7191
  443MOL0     H61126   6.019  10.836   9.516 -1.9189 -0.1914 -1.1543
  443MOL0     H61127   5.860  10.920   9.535 -1.3795  1.7582  3.1909
  443MOL0     H61128   5.989  11.096   9.637  3.2117  0.5561  3.4317
  443MOL0     H61129   6.070  11.060   9.484 -4.0342 -0.9724 -1.0950
  443MOL0     H61130   6.409  10.995   9.707  0.5077  0.7034 -1.3884
  443MOL0     H61131   5.634  10.521   9.604 -2.1026 -1.2622 -0.8596
  443MOL0     H61132   5.481  10.347   9.568 -0.7788 -1.0265 -0.9541
  443MOL0     H61133   5.501  10.247   9.714  1.2328 -0.2828 -2.3848
  443MOL0     H61134   5.346  10.324   9.677 -0.6085 -1.5187 -2.5159
  444MOL0     O61135   1.187   6.849   9.067 -0.6254  0.1274 -0.3347
  444MOL0     C61136   1.216   6.966   9.045 -1.2217 -0.6518 -1.1044
  444MOL0     O61137   1.342   7.014   9.037 -0.1773 -0.6327  0.3827
  444MOL0     C61138   1.444   6.926   8.999  0.2513 -1.0584 -0.0505
  444MOL0     C61139   1.441   6.861   8.875 -0.0655  0.4243  0.7925
  444MOL0     C61140   1.564   6.796   8.831 -1.1039 -0.0467 -0.0656
  444MOL0     C61141   1.679   6.799   8.914  0.3707 -0.2346  1.9188
  444MOL0     O61142   1.796   6.735   8.873  0.6670  0.1191 -0.6430
  444MOL0     C61143   1.816   6.612   8.947  0.5712 -0.8207 -0.6970
  444MOL0     C61144   1.951   6.551   8.908 -0.1824 -0.6141 -0.2793
  444MOL0     C61145   2.066   6.636   8.968  1.0557  0.2129 -0.6697
  444MOL0     C61146   2.197   6.570   8.921 -0.1204 -0.3244  0.1087
  444MOL0     C61147   2.310   6.634   9.005 -0.7054 -0.4317 -0.3116
  444MOL0     C61148   2.330   6.782   8.959 -0.2930  0.3060  0.2358
  444MOL0     C61149   2.467   6.839   9.004 -0.2568  0.2774  0.2129
  444MOL0     C61150   2.519   6.926   8.897  0.1979  0.4843  0.0856
  444MOL0     N61151   2.614   7.013   8.969 -0.4257 -0.0855  0.3970
  444MOL0     C61152   2.569   7.120   9.038  0.3517  0.1552 -0.1383
  444MOL0     C61153   2.685   7.188   9.078  0.7885  0.6062  0.9029
  444MOL0     C61154   2.693   7.317   9.157  0.7684  0.1421  0.3571
  444MOL0     C61155   2.759   7.436   9.085  0.3793 -0.2329  0.5877
  444MOL0     C61156   2.906   7.460   9.115  1.0965  0.4452  0.3047
  444MOL0     C61157   2.996   7.355   9.046  0.8238 -0.3100  0.4832
  444MOL0     O61158   3.133   7.396   9.072  0.3005 -0.1142  0.3099
  444MOL0     C61159   3.202   7.478   8.984  0.4109  0.9338  0.2870
  444MOL0     C61160   3.146   7.547   8.879 -0.1061  0.8083  0.9268
  444MOL0     C61161   3.225   7.635   8.799  0.1439 -0.7639  0.2534
  444MOL0     C61162   3.149   7.723   8.710 -0.1129 -1.3414 -0.6348
  444MOL0     C61163   3.365   7.655   8.831  0.0062  0.1219 -0.1048
  444MOL0     C61164   3.457   7.741   8.772 -0.5160  0.3136  0.7942
  444MOL0     O61165   3.564   7.788   8.843  0.6810 -0.0346  0.2364
  444MOL0     C61166   3.648   7.888   8.803  0.4874 -0.0452 -0.7633
  444MOL0     C61167   3.735   7.923   8.898 -0.2356 -0.0821 -0.3614
  444MOL0     C61168   3.839   8.010   8.871 -0.8566 -0.1462 -0.1171
  444MOL0     C61169   3.860   8.061   8.742  0.5053 -0.2859 -0.3238
  444MOL0     O61170   3.974   8.132   8.709  0.1388  0.2413 -0.4386
  444MOL0     C61171   4.009   8.240   8.798 -0.3756  0.0131  0.4154
  444MOL0     C61172   3.908   8.356   8.808  0.6408 -0.2361 -0.3844
  444MOL0     C61173   3.974   8.448   8.909  0.3216 -0.7167 -0.1932
  444MOL0     C61174   3.912   8.582   8.914  0.9184 -0.4040  0.5672
  444MOL0     C61175   3.927   8.663   9.040 -0.0236  0.1725 -0.8127
  444MOL0     C61176   3.838   8.778   9.045  0.0098 -0.2059 -1.1082
  444MOL0     C61177   3.828   8.849   9.185  0.3385 -1.0569  0.4796
  444MOL0     C61178   3.760   8.986   9.188 -0.6029 -1.3936  0.0599
  444MOL0    Cl61179   3.759   9.063   9.358  0.2383  0.0076 -0.3385
  444MOL0     C61180   3.773   8.027   8.646 -0.3844  0.0008  0.8722
  444MOL0     C61181   3.659   7.957   8.679 -0.2819 -0.6799 -0.6518
  444MOL0     O61182   3.434   7.764   8.653 -0.4512  0.1025  0.2405
  444MOL0     C61183   3.420   7.570   8.930 -0.4825 -0.7944  0.1553
  444MOL0     C61184   3.335   7.484   8.999 -0.1854 -0.2695  0.5749
  444MOL0     N61185   2.786   7.107   9.031 -0.2045  0.9077  0.2513
  444MOL0     N61186   2.754   7.006   8.958  0.0505 -0.4062 -0.0208
  444MOL0     C61187   1.664   6.853   9.043 -0.4729  0.7852 -0.2673
  444MOL0     C61188   1.558   6.920   9.078  0.9272 -0.5460 -0.5672
  444MOL0     C61189   1.112   7.070   9.042  0.1132 -0.5771  0.5759
  444MOL0     C61190   1.143   7.191   8.975  0.2457 -0.6939  0.1213
  444MOL0     C61191   1.056   7.295   8.963  0.0935  0.1183 -0.9699
  444MOL0     C61192   0.924   7.278   9.010  0.2027 -0.5678  0.3683
  444MOL0     O61193   0.825   7.366   9.005  0.3376  0.0683 -1.1020
  444MOL0     C61194   0.833   7.498   8.947  0.8282  0.1805 -0.4630
  444MOL0     C61195   0.696   7.573   8.961  0.2961  0.6995 -0.0114
  444MOL0     C61196   0.573   7.515   8.881 -0.0473 -0.8123 -0.0298
  444MOL0     C61197   0.492   7.410   8.959 -0.6295  0.3121  1.0709
  444MOL0     C61198   0.425   7.475   9.074 -0.3923  0.8104 -0.2994
  444MOL0     C61199   0.364   7.519   9.162  0.4170 -0.7008  0.6382
  444MOL0     C61200   0.885   7.158   9.075 -0.3683 -0.1094 -0.6150
  444MOL0     C61201   0.977   7.054   9.093 -1.1389  0.6930  0.4568
  444MOL0     C61202   0.909   6.924   9.142 -0.3358  0.7478 -0.0375
  444MOL0     H61203   1.365   6.870   8.799  0.7651  0.4391 -0.0505
  444MOL0     H61204   1.559   6.750   8.733 -3.4340 -1.9288  0.8198
  444MOL0     H61205   1.752   6.530   8.912  1.2518 -1.5039 -0.3632
  444MOL0     H61206   1.812   6.630   9.055  1.9538 -0.5072 -0.6832
  444MOL0     H61207   1.944   6.454   8.958 -0.9765 -0.6539 -0.4570
  444MOL0     H61208   1.961   6.549   8.799 -0.3699  0.2395 -0.3189
  444MOL0     H61209   2.056   6.737   8.928 -2.0856  0.6921  0.9953
  444MOL0     H61210   2.067   6.641   9.077  1.9189 -1.5794 -0.5641
  444MOL0     H61211   2.183   6.462   8.916  1.4313 -0.6991  2.2545
  444MOL0     H61212   2.214   6.607   8.819  0.9954 -1.2165 -0.0450
  444MOL0     H61213   2.396   6.571   8.982 -0.9305 -0.1166 -2.2065
  444MOL0     H61214   2.294   6.619   9.112 -1.0654  0.2686 -0.2556
  444MOL0     H61215   2.324   6.786   8.849  1.6674  0.9602  0.1224
  444MOL0     H61216   2.260   6.857   8.996 -2.7348 -1.2473 -0.9561
  444MOL0     H61217   2.541   6.762   9.027 -1.1555 -1.0325 -1.0793
  444MOL0     H61218   2.439   6.885   9.099 -1.8324 -1.3140  0.5740
  444MOL0     H61219   2.570   6.868   8.819  1.1353  0.2145  0.8794
  444MOL0     H61220   2.442   6.993   8.858 -0.5699 -0.0433  0.6875
  444MOL0     H61221   2.465   7.142   9.062  0.8112 -0.8379  3.4060
  444MOL0     H61222   2.735   7.300   9.256  0.8308 -0.4581  0.2307
  444MOL0     H61223   2.586   7.337   9.163  0.6274 -0.4530 -0.1162
  444MOL0     H61224   2.746   7.431   8.977 -3.3760  2.0235  0.7615
  444MOL0     H61225   2.712   7.528   9.119 -0.0500 -0.8812  1.8043
  444MOL0     H61226   2.930   7.560   9.077 -1.6754  1.1804  0.2436
  444MOL0     H61227   2.923   7.463   9.223 -0.1460  0.5389  0.5171
  444MOL0     H61228   2.980   7.262   9.101  1.3581 -1.1903 -0.7962
  444MOL0     H61229   2.979   7.334   8.940 -0.3051  1.9191  0.1653
  444MOL0     H61230   3.040   7.543   8.858  0.0180 -0.3321  0.4065
  444MOL0     H61231   3.141   7.830   8.731 -2.9851 -1.4016 -1.0316
  444MOL0     H61232   3.041   7.707   8.712 -0.1782 -0.9445  1.8394
  444MOL0     H61233   3.193   7.714   8.610  0.0535  1.5814 -0.9022
  444MOL0     H61234   3.727   7.889   9.001 -2.9936 -0.0564 -0.5156
  444MOL0     H61235   3.902   8.030   8.957 -1.6236 -1.2739  0.7349
  444MOL0     H61236   4.025   8.208   8.901  3.4406  5.2724  1.8572
  444MOL0     H61237   4.106   8.275   8.762 -0.0907 -1.9105 -0.8575
  444MOL0     H61238   3.899   8.397   8.707 -2.1973 -2.3545 -1.1212
  444MOL0     H61239   3.810   8.319   8.839  0.9224 -1.6456 -1.1080
  444MOL0     H61240   4.077   8.476   8.886 -0.5655  1.3091 -2.0697
  444MOL0     H61241   3.960   8.389   9.000 -2.3306 -2.2069 -1.4426
  444MOL0     H61242   3.805   8.581   8.894  0.4792 -0.5395  2.6793
  444MOL0     H61243   3.950   8.637   8.827 -1.2171 -0.3594 -0.3889
  444MOL0     H61244   3.902   8.601   9.127 -0.4214  0.7170 -0.5356
  444MOL0     H61245   4.031   8.697   9.048  0.0959 -0.1638 -0.9111
  444MOL0     H61246   3.739   8.751   9.006  0.7110 -0.8577 -2.5285
  444MOL0     H61247   3.878   8.856   8.980 -1.7315  0.2025 -1.7652
  444MOL0     H61248   3.928   8.860   9.229  0.8964  0.8542 -1.0948
  444MOL0     H61249   3.771   8.779   9.246 -1.4129  2.4644  3.2551
  444MOL0     H61250   3.655   8.982   9.160 -0.2607  0.5928 -1.8104
  444MOL0     H61251   3.812   9.061   9.127 -2.0256  0.9581  1.5466
  444MOL0     H61252   3.804   8.057   8.547  0.9127 -0.8388  1.0005
  444MOL0     H61253   3.580   7.947   8.606 -1.0382  1.8332 -0.2529
  444MOL0     H61254   3.527   7.570   8.943 -0.4344 -1.3918 -0.2046
  444MOL0     H61255   3.390   7.421   9.069  3.0268  2.2175  0.5338
  444MOL0     H61256   1.746   6.851   9.114  0.3879 -1.4849 -1.2391
  444MOL0     H61257   1.548   6.963   9.177  1.8030 -2.0922  0.2486
  444MOL0     H61258   1.247   7.216   8.955  1.0022 -1.5554  2.6455
  444MOL0     H61259   1.083   7.388   8.914  1.9768  0.0402 -0.1811
  444MOL0     H61260   0.913   7.552   8.999  1.3856 -2.5278  1.7954
  444MOL0     H61261   0.849   7.486   8.840  1.4569 -1.1782 -0.2410
  444MOL0     H61262   0.702   7.678   8.929  2.4230  0.8000  0.5661
  444MOL0     H61263   0.673   7.574   9.068 -0.0624  0.7895 -0.0875
  444MOL0     H61264   0.504   7.594   8.850  0.3930 -0.7158 -0.7918
  444MOL0     H61265   0.613   7.471   8.789  2.1273 -0.8195  0.8666
  444MOL0     H61266   0.559   7.334   8.999  1.2060  0.6158 -1.2530
  444MOL0     H61267   0.412   7.371   8.896 -0.8492  2.5681 -0.1565
  444MOL0     H61268   0.296   7.552   9.238  0.3793 -1.3448  0.8899
  444MOL0     H61269   0.783   7.159   9.111 -0.3928  2.5239 -0.5439
  444MOL0     H61270   0.821   6.941   9.205 -0.1412  0.6830  0.2504
  444MOL0     H61271   0.880   6.851   9.065  0.2859 -0.0896  0.4990
  444MOL0     H61272   0.972   6.858   9.202 -1.6837 -2.5706 -1.9595
  445MOL0     O61273   8.836   5.542   0.168 -0.5380  0.3278  0.7952
  445MOL0     C61274   8.784   5.656   0.185 -0.2954  1.2457 -0.7897
  445MOL0     O61275   8.856   5.777   0.218  0.5917 -0.5123  0.9020
  445MOL0     C61276   8.990   5.769   0.215 -0.2995 -0.2654 -0.3308
  445MOL0     C61277   9.071   5.710   0.114 -0.2525 -1.4202  0.5098
  445MOL0     C61278   9.214   5.707   0.133  0.2222 -0.2604  0.4007
  445MOL0     C61279   9.274   5.776   0.239  0.2150  0.3420  0.1763
  445MOL0     O61280   9.410   5.792   0.251 -0.2497  0.4348 -0.1030
  445MOL0     C61281   9.461   5.675   0.316  0.8423  0.5229 -0.0158
  445MOL0     C61282   9.591   5.641   0.246 -0.0857  0.7121 -0.2898
  445MOL0     C61283   9.659   5.517   0.311 -0.1751 -0.0276 -0.1383
  445MOL0     C61284   9.768   5.461   0.219  0.1874 -0.2394  0.3464
  445MOL0     C61285   9.849   5.361   0.287 -0.9346  1.0202 -0.1612
  445MOL0     C61286   9.956   5.307   0.206  0.3389  0.0364  0.8625
  445MOL0     C61287  10.058   5.416   0.179 -0.0494 -0.8256  0.3443
  445MOL0     C61288  10.181   5.359   0.114  0.1512  0.4125 -0.8214
  445MOL0     N61289  10.264   5.265   0.203 -0.8978  0.0175 -0.6319
  445MOL0     C61290  10.255   5.132   0.254  0.3855  0.3004  0.1753
  445MOL0     C61291  10.345   5.114   0.357  0.0148  0.1117 -0.0930
  445MOL0     C61292  10.388   4.987   0.438 -0.5136 -1.0272  0.2447
  445MOL0     C61293  10.538   4.987   0.460 -0.0400 -0.7028  0.7671
  445MOL0     C61294  10.578   4.863   0.538  0.3932  0.2727  0.8852
  445MOL0     C61295  10.721   4.890   0.575  0.1172  0.8012 -1.3279
  445MOL0     O61296  10.768   4.774   0.644  1.2203  0.4604  0.3078
  445MOL0     C61297  10.881   4.780   0.717 -0.0867  0.4257 -0.6867
  445MOL0     C61298  10.982   4.882   0.714  0.1308  0.1525 -0.2029
  445MOL0     C61299  11.104   4.868   0.779 -0.2943 -0.1747 -1.2875
  445MOL0     C61300  11.184   4.998   0.794 -0.4129 -1.0777  0.1515
  445MOL0     C61301  11.135   4.747   0.857  0.1241  0.6306  0.3649
  445MOL0     C61302  11.258   4.716   0.931 -0.8467 -0.6477 -0.8510
  445MOL0     O61303  11.250   4.636   1.037 -0.1354 -0.7384 -0.2865
  445MOL0     C61304  11.353   4.618   1.132  0.0116 -0.6663  0.9508
  445MOL0     C61305  11.412   4.717   1.207 -0.3830  0.7501  0.8687
  445MOL0     C61306  11.492   4.690   1.317  0.1152  0.6774 -0.1751
  445MOL0     C61307  11.507   4.559   1.364 -0.1164 -0.1540  1.1291
  445MOL0     O61308  11.590   4.524   1.470 -0.0508 -0.0988  0.1199
  445MOL0     C61309  11.650   4.614   1.564 -0.1935 -0.2295 -0.4377
  445MOL0     C61310  11.728   4.518   1.647  0.2026 -0.7170 -0.2223
  445MOL0     C61311  11.811   4.588   1.753 -0.0363 -0.1501 -0.6684
  445MOL0     C61312  11.908   4.702   1.707  0.6732  1.0104 -0.0665
  445MOL0     C61313  12.014   4.734   1.810  0.0450 -1.2348 -0.2119
  445MOL0     C61314  12.141   4.786   1.740  0.3136 -0.4789  0.1551
  445MOL0     C61315  12.235   4.860   1.838 -0.6391 -0.0130  0.4233
  445MOL0     C61316  12.362   4.914   1.757 -0.7986 -0.2713 -0.3164
  445MOL0    Cl61317  12.475   5.013   1.867 -0.2941  0.3227  0.2394
  445MOL0     C61318  11.441   4.459   1.289 -0.5335  0.2484  0.3329
  445MOL0     C61319  11.365   4.490   1.180 -0.1740 -0.6841 -0.6188
  445MOL0     O61320  11.352   4.785   0.902  0.2398  0.9236 -0.3392
  445MOL0     C61321  11.031   4.652   0.858 -0.9544  0.2304 -0.8146
  445MOL0     C61322  10.914   4.662   0.783  0.1671 -0.2669  0.1034
  445MOL0     N61323  10.399   5.239   0.377 -0.5550 -0.6613 -0.2182
  445MOL0     N61324  10.345   5.328   0.294 -0.4438 -0.5207  0.2991
  445MOL0     C61325   9.196   5.841   0.332 -0.3007  0.3802  0.2325
  445MOL0     C61326   9.057   5.831   0.323 -0.0872 -0.0766  0.1137
  445MOL0     C61327   8.635   5.666   0.156 -0.2223 -0.0253 -0.1386
  445MOL0     C61328   8.589   5.796   0.147 -0.0029  0.3920 -0.3493
  445MOL0     C61329   8.443   5.823   0.137 -0.5975 -0.6415 -0.1414
  445MOL0     C61330   8.357   5.717   0.134  0.5237  0.6330 -0.8684
  445MOL0     O61331   8.223   5.723   0.113 -0.4065  0.4647 -0.3431
  445MOL0     C61332   8.191   5.787  -0.013 -0.1450  0.0637 -0.8609
  445MOL0     C61333   8.063   5.725  -0.069  0.8974 -0.4595  0.0853
  445MOL0     C61334   8.041   5.751  -0.223 -0.9696  0.6851 -0.1805
  445MOL0     C61335   7.933   5.860  -0.230  0.4950 -0.1728  0.1678
  445MOL0     C61336   7.910   5.909  -0.368  0.0619  0.0408 -0.0872
  445MOL0     C61337   7.881   5.939  -0.479 -0.1813  0.1837 -0.5379
  445MOL0     C61338   8.407   5.588   0.152  0.5953 -0.2317  0.4345
  445MOL0     C61339   8.539   5.561   0.176 -0.3640 -0.0177  0.3887
  445MOL0     C61340   8.576   5.412   0.206 -0.5366  0.1458 -0.8583
  445MOL0     H61341   9.013   5.664   0.035 -1.9305 -3.7207  2.9083
  445MOL0     H61342   9.283   5.651   0.070 -0.4732 -1.6290  0.8193
  445MOL0     H61343   9.390   5.592   0.305 -0.1372  1.3875 -0.4261
  445MOL0     H61344   9.477   5.701   0.421 -3.3954 -1.2405  1.2898
  445MOL0     H61345   9.584   5.617   0.140 -0.5107 -1.3041  0.1464
  445MOL0     H61346   9.660   5.724   0.262  2.0791 -0.6809 -1.8806
  445MOL0     H61347   9.706   5.555   0.403  1.3694  2.5101 -1.8642
  445MOL0     H61348   9.583   5.446   0.346  0.2499  0.5204  2.0589
  445MOL0     H61349   9.726   5.418   0.127  0.6809  1.2422 -0.6181
  445MOL0     H61350   9.822   5.547   0.179 -2.1371 -0.1366 -3.0006
  445MOL0     H61351   9.782   5.279   0.316  1.8103 -1.0108  0.8376
  445MOL0     H61352   9.890   5.403   0.380  2.2166  2.4929 -2.0829
  445MOL0     H61353  10.009   5.232   0.265  0.7977 -0.4718 -0.1701
  445MOL0     H61354   9.916   5.265   0.113  0.8123  2.0089 -0.2885
  445MOL0     H61355  10.093   5.462   0.272  0.0585  0.3861 -0.2625
  445MOL0     H61356  10.022   5.496   0.113 -1.7759 -1.1281  0.8599
  445MOL0     H61357  10.150   5.303   0.025 -2.0797  0.4068 -0.0903
  445MOL0     H61358  10.246   5.442   0.085  0.7546 -0.1532 -1.1207
  445MOL0     H61359  10.197   5.050   0.211 -0.7329  1.5426 -0.7610
  445MOL0     H61360  10.365   4.897   0.380 -0.5649 -0.3768 -0.7713
  445MOL0     H61361  10.336   4.999   0.534  0.7601 -1.9349  1.0744
  445MOL0     H61362  10.590   5.004   0.365 -1.9545  1.2452 -0.0161
  445MOL0     H61363  10.554   5.072   0.527  2.4475  0.0379 -0.6288
  445MOL0     H61364  10.510   4.844   0.621 -3.2507 -1.1482 -2.1060
  445MOL0     H61365  10.563   4.775   0.475 -0.6681  1.1499 -0.1472
  445MOL0     H61366  10.766   4.893   0.475 -2.8665 -3.4240 -3.1355
  445MOL0     H61367  10.735   4.981   0.634  1.4990  0.0565 -0.4567
  445MOL0     H61368  10.970   4.977   0.662 -1.7430  1.6992  2.7848
  445MOL0     H61369  11.275   4.970   0.739 -0.9364 -1.5953 -0.4718
  445MOL0     H61370  11.218   5.015   0.897  1.5909  1.5088 -0.7989
  445MOL0     H61371  11.132   5.083   0.747 -1.1772 -2.5289 -1.7634
  445MOL0     H61372  11.395   4.817   1.167 -0.3830  0.6575  0.6383
  445MOL0     H61373  11.544   4.772   1.365  0.0987  1.0662 -0.8089
  445MOL0     H61374  11.710   4.696   1.523  0.8537  0.1692  1.7607
  445MOL0     H61375  11.568   4.668   1.612 -0.6479 -0.9920 -0.3383
  445MOL0     H61376  11.651   4.458   1.696  0.2168 -0.9423 -0.4739
  445MOL0     H61377  11.779   4.450   1.578  0.5471 -0.1498 -0.5312
  445MOL0     H61378  11.873   4.508   1.793 -1.2075 -0.1860  1.2198
  445MOL0     H61379  11.743   4.624   1.831  1.0370 -2.7930  1.6480
  445MOL0     H61380  11.848   4.789   1.676  2.4413  1.8714 -1.2469
  445MOL0     H61381  11.947   4.653   1.617  2.0105 -1.3497  1.6897
  445MOL0     H61382  11.978   4.814   1.875 -0.3620  0.1330 -2.0217
  445MOL0     H61383  12.049   4.651   1.872  0.0317  0.0960  1.6403
  445MOL0     H61384  12.117   4.854   1.658 -2.4199  0.9624  2.0125
  445MOL0     H61385  12.186   4.696   1.697  0.0209 -0.3739 -0.3661
  445MOL0     H61386  12.275   4.791   1.914 -0.9141  0.1350  0.7072
  445MOL0     H61387  12.182   4.945   1.883  0.0359 -0.0801  1.3812
  445MOL0     H61388  12.319   4.980   1.682  0.1808 -0.2078 -0.8401
  445MOL0     H61389  12.423   4.842   1.702 -0.9648 -0.7800  0.1462
  445MOL0     H61390  11.452   4.355   1.319 -1.2514 -0.7435 -2.5717
  445MOL0     H61391  11.320   4.410   1.122 -0.0021  0.2182 -2.0433
  445MOL0     H61392  11.063   4.558   0.903  2.4826  2.0512  0.9157
  445MOL0     H61393  10.846   4.580   0.767  0.4261 -0.6449  0.8962
  445MOL0     H61394   9.239   5.897   0.415 -1.3902  2.4182 -0.4997
  445MOL0     H61395   9.000   5.882   0.399  0.0807 -0.2334  0.3447
  445MOL0     H61396   8.660   5.877   0.141  2.2341 -1.1401  2.7404
  445MOL0     H61397   8.419   5.928   0.119  1.9461  0.0946  0.3682
  445MOL0     H61398   8.178   5.894   0.006 -2.0857 -0.4259  1.0832
  445MOL0     H61399   8.271   5.769  -0.085  0.5313 -0.0885 -0.0934
  445MOL0     H61400   7.976   5.759  -0.012  0.6518  0.4697 -0.8201
  445MOL0     H61401   8.051   5.617  -0.057  2.9808 -0.6929  0.5198
  445MOL0     H61402   8.139   5.787  -0.256  0.1695 -0.6227  1.5935
  445MOL0     H61403   8.020   5.664  -0.287  2.5095 -0.6166  0.2545
  445MOL0     H61404   7.961   5.953  -0.178 -0.1177  0.0600  0.0881
  445MOL0     H61405   7.843   5.820  -0.183  0.5255 -0.9673 -0.4378
  445MOL0     H61406   7.851   5.959  -0.580 -1.6630 -2.6918 -0.7675
  445MOL0     H61407   8.337   5.506   0.166  0.0033  0.0768 -0.6252
  445MOL0     H61408   8.673   5.408   0.258 -1.3266  1.0919  0.7705
  445MOL0     H61409   8.500   5.359   0.264  0.2056  0.4508  0.4394
  445MOL0     H61410   8.587   5.363   0.109  1.7667 -2.0759  0.3961
  446MOL0     O61411   2.470   9.187   8.924  0.1357  0.0244 -0.3023
  446MOL0     C61412   2.421   9.197   8.815  0.5659  0.7343  0.1329
  446MOL0     O61413   2.465   9.283   8.715  0.7652  0.4912  0.2724
  446MOL0     C61414   2.576   9.360   8.731 -0.1555  0.1856 -0.2910
  446MOL0     C61415   2.574   9.486   8.801  0.3421 -0.5244 -0.4752
  446MOL0     C61416   2.694   9.558   8.823  0.1291  0.4065 -1.0219
  446MOL0     C61417   2.817   9.509   8.787  0.6178  0.0888 -0.4982
  446MOL0     O61418   2.937   9.580   8.818  0.4467  0.5064 -0.3536
  446MOL0     C61419   2.934   9.687   8.912  0.2681 -0.7119 -0.2834
  446MOL0     C61420   3.061   9.762   8.926 -0.7956 -0.2575  0.7050
  446MOL0     C61421   3.122   9.804   8.788 -0.6197 -0.0449 -0.9472
  446MOL0     C61422   3.254   9.872   8.830 -0.5291 -0.5453  0.3685
  446MOL0     C61423   3.326   9.908   8.701 -0.0267  0.7374 -0.3271
  446MOL0     C61424   3.420  10.017   8.731 -0.2878 -1.6215  0.2756
  446MOL0     C61425   3.492  10.061   8.602 -0.3515 -0.0225  0.0731
  446MOL0     C61426   3.575   9.957   8.533  0.0099 -0.7226 -0.6757
  446MOL0     N61427   3.646  10.015   8.417 -0.0650 -0.0552  0.1437
  446MOL0     C61428   3.611  10.028   8.282 -0.0180  0.2810 -0.1322
  446MOL0     C61429   3.707  10.099   8.220  0.7001  0.0581 -0.1174
  446MOL0     C61430   3.712  10.120   8.076 -0.4640  0.3863 -0.2094
  446MOL0     C61431   3.801  10.247   8.044 -0.0067  0.1383  0.0050
  446MOL0     C61432   3.771  10.312   7.905  0.7724 -0.4057  0.0158
  446MOL0     C61433   3.805  10.225   7.791  0.2038  0.1593  0.6886
  446MOL0     O61434   3.942  10.189   7.793  0.2477 -0.2153 -0.2382
  446MOL0     C61435   3.990  10.100   7.698 -0.0634 -0.1177 -0.8647
  446MOL0     C61436   3.911  10.019   7.611 -0.1824  0.9238 -1.2439
  446MOL0     C61437   3.972   9.944   7.507 -0.0314 -0.2854 -0.6655
  446MOL0     C61438   3.887   9.858   7.422  0.9991  0.9145  0.0535
  446MOL0     C61439   4.119   9.952   7.492  0.6210  0.0272 -0.3264
  446MOL0     C61440   4.193   9.874   7.398  1.1742 -0.1781  0.2224
  446MOL0     O61441   4.317   9.830   7.435 -0.0322 -0.2634 -0.6480
  446MOL0     C61442   4.407   9.787   7.330  0.9664 -0.3806  0.1183
  446MOL0     C61443   4.427   9.860   7.208  0.0515  0.5295 -0.7663
  446MOL0     C61444   4.514   9.802   7.108 -0.0564 -0.1642 -0.4634
  446MOL0     C61445   4.596   9.693   7.147 -0.7473  0.2220  1.4841
  446MOL0     O61446   4.696   9.649   7.067  0.2669 -0.3555 -0.0915
  446MOL0     C61447   4.746   9.724   6.945  0.5353  0.1539 -0.8586
  446MOL0     C61448   4.885   9.659   6.911  0.3098  0.0039 -0.2128
  446MOL0     C61449   4.976   9.624   7.038 -0.1652 -0.1555 -0.7981
  446MOL0     C61450   5.126   9.592   6.995  0.8839 -0.0753 -0.0497
  446MOL0     C61451   5.208   9.589   7.126  0.4221 -0.1637  0.3978
  446MOL0     C61452   5.352   9.575   7.087  0.4156  0.2933 -0.5148
  446MOL0     C61453   5.450   9.582   7.204  0.6312 -1.1162 -0.1785
  446MOL0     C61454   5.593   9.591   7.149 -0.2668 -0.6373 -0.0679
  446MOL0    Cl61455   5.710   9.568   7.288  0.0119  0.0099 -0.1251
  446MOL0     C61456   4.577   9.628   7.270 -0.5008 -0.1329 -0.4995
  446MOL0     C61457   4.482   9.672   7.360 -0.8004  0.3427  0.0891
  446MOL0     O61458   4.142   9.856   7.289  0.4877  0.5707  0.0849
  446MOL0     C61459   4.194  10.034   7.577  1.1246  0.0121  0.2213
  446MOL0     C61460   4.126  10.111   7.677  1.0001 -0.3962  0.3141
  446MOL0     N61461   3.804  10.123   8.325 -0.5489 -0.9410  0.7153
  446MOL0     N61462   3.767  10.064   8.427 -0.1504  0.0482  0.7283
  446MOL0     C61463   2.824   9.377   8.731 -0.2309 -0.6931  0.1725
  446MOL0     C61464   2.701   9.307   8.709  0.6713 -0.0516 -0.3021
  446MOL0     C61465   2.302   9.111   8.783  0.2265  0.0610 -0.1860
  446MOL0     C61466   2.254   9.136   8.654  0.4393 -0.1754 -0.1601
  446MOL0     C61467   2.165   9.058   8.594 -0.8838  0.3972  0.0355
  446MOL0     C61468   2.109   8.948   8.650  0.3140 -0.1521 -0.6068
  446MOL0     O61469   2.028   8.865   8.570 -0.0742 -0.5160 -0.2055
  446MOL0     C61470   1.981   8.743   8.623  0.6258  0.2399 -0.3935
  446MOL0     C61471   1.922   8.642   8.525  0.2515  0.2979 -0.6003
  446MOL0     C61472   2.021   8.614   8.405 -0.7315 -0.0368 -0.3858
  446MOL0     C61473   1.957   8.525   8.297 -0.3085  0.4035 -0.0669
  446MOL0     C61474   2.049   8.479   8.195  0.1164  1.2580  0.9846
  446MOL0     C61475   2.122   8.439   8.107  0.1032 -0.5080  0.1302
  446MOL0     C61476   2.133   8.931   8.789 -0.6101 -1.0420  0.2673
  446MOL0     C61477   2.239   9.005   8.855 -1.1553 -1.2937  0.0004
  446MOL0     C61478   2.253   8.989   9.000  0.3938  0.0485  0.1130
  446MOL0     H61479   2.481   9.534   8.831  1.6638  1.7713  0.1684
  446MOL0     H61480   2.670   9.655   8.866 -2.1479 -0.1897 -0.8332
  446MOL0     H61481   2.907   9.661   9.015  1.3567 -1.6824 -0.2210
  446MOL0     H61482   2.860   9.756   8.871  0.2827 -1.1750 -1.1143
  446MOL0     H61483   3.050   9.854   8.985 -1.9367  0.3651 -0.4433
  446MOL0     H61484   3.135   9.695   8.971 -0.0913  0.6181  0.8866
  446MOL0     H61485   3.137   9.716   8.726 -1.5575 -1.1116  0.2688
  446MOL0     H61486   3.058   9.868   8.726 -1.0212 -0.7080 -1.2330
  446MOL0     H61487   3.241   9.965   8.886  2.0820 -1.3460  2.5012
  446MOL0     H61488   3.322   9.816   8.894  0.2155  0.5668  0.5897
  446MOL0     H61489   3.251   9.943   8.630 -0.9256  3.4002  1.7274
  446MOL0     H61490   3.377   9.820   8.662 -0.4785  0.0635  0.5605
  446MOL0     H61491   3.354  10.099   8.762  0.5296  0.1226 -2.2599
  446MOL0     H61492   3.495   9.993   8.807  1.6685 -0.6918 -1.2522
  446MOL0     H61493   3.571  10.130   8.633 -0.0129 -1.2357  2.1372
  446MOL0     H61494   3.423  10.106   8.531  1.8725  0.8269 -1.6551
  446MOL0     H61495   3.640   9.912   8.608  1.0615  1.8107  0.0338
  446MOL0     H61496   3.495   9.895   8.490 -1.0698  0.5661 -0.6111
  446MOL0     H61497   3.527   9.975   8.236  1.4015 -1.7608 -0.5100
  446MOL0     H61498   3.612  10.147   8.043 -2.3591 -1.2774  3.5948
  446MOL0     H61499   3.737  10.032   8.017 -3.7704  0.2851 -1.6676
  446MOL0     H61500   3.786  10.327   8.117  0.8416  0.4792 -0.1859
  446MOL0     H61501   3.906  10.217   8.048  0.1724  0.8289  3.4021
  446MOL0     H61502   3.666  10.340   7.899  1.1857  1.4421  0.7265
  446MOL0     H61503   3.820  10.409   7.897 -0.9963  0.6254  1.1672
  446MOL0     H61504   3.740  10.137   7.788 -1.3860  1.3070 -1.7389
  446MOL0     H61505   3.785  10.276   7.697  1.2093 -4.7786 -2.5651
  446MOL0     H61506   3.804  10.009   7.627  0.2253  0.1885  1.6526
  446MOL0     H61507   3.904   9.884   7.317 -2.2949 -0.9975 -1.1102
  446MOL0     H61508   3.788   9.889   7.458  2.6433  4.5795  1.9574
  446MOL0     H61509   3.889   9.749   7.428 -2.3020  0.7878  1.0188
  446MOL0     H61510   4.370   9.947   7.176  1.2346  1.3036 -0.8586
  446MOL0     H61511   4.508   9.848   7.009 -1.5050  2.1229  0.5951
  446MOL0     H61512   4.675   9.717   6.862  0.3685 -1.3640 -0.6189
  446MOL0     H61513   4.764   9.830   6.966 -1.1219  0.5992 -1.5661
  446MOL0     H61514   4.874   9.566   6.854  0.9389 -0.3822  0.2703
  446MOL0     H61515   4.935   9.723   6.839 -0.0483  1.6549  0.9469
  446MOL0     H61516   4.930   9.532   7.074 -2.1971  0.2850 -2.1211
  446MOL0     H61517   4.965   9.708   7.107  1.1822 -1.5934  1.2782
  446MOL0     H61518   5.158   9.678   6.936  0.8022 -0.2636 -0.3652
  446MOL0     H61519   5.147   9.505   6.932 -0.6202 -1.5139  1.3379
  446MOL0     H61520   5.189   9.683   7.179  0.2941 -0.0388  0.1316
  446MOL0     H61521   5.168   9.513   7.194 -0.7823 -1.1116 -1.3011
  446MOL0     H61522   5.375   9.652   7.013 -2.1471  0.9926 -0.6709
  446MOL0     H61523   5.367   9.474   7.048  1.0152 -0.0402  0.5268
  446MOL0     H61524   5.432   9.491   7.261 -0.6187 -0.4257  0.5870
  446MOL0     H61525   5.430   9.663   7.275 -0.5436 -2.7750  1.4678
  446MOL0     H61526   5.626   9.685   7.104  2.1789 -0.7931  1.2177
  446MOL0     H61527   5.609   9.509   7.078 -1.2276 -1.1841  0.3243
  446MOL0     H61528   4.637   9.539   7.287 -1.6237 -1.0818 -1.3575
  446MOL0     H61529   4.475   9.618   7.453 -3.7529  1.7777  0.8166
  446MOL0     H61530   4.301  10.053   7.575  1.3358 -0.5904  2.7378
  446MOL0     H61531   4.187  10.178   7.737  1.8826  0.5182 -1.5377
  446MOL0     H61532   2.913   9.325   8.699 -1.0255 -2.6956  1.0452
  446MOL0     H61533   2.711   9.209   8.662 -1.4343 -0.5405  0.1671
  446MOL0     H61534   2.281   9.221   8.592  1.0135  0.5035  0.9864
  446MOL0     H61535   2.143   9.087   8.492  0.0523 -0.0535 -0.3009
  446MOL0     H61536   2.068   8.695   8.669  2.4628  1.0755 -2.7495
  446MOL0     H61537   1.917   8.777   8.704  1.1830 -1.7150  0.9390
  446MOL0     H61538   1.829   8.691   8.494  1.4042  2.5398 -0.7738
  446MOL0     H61539   1.902   8.549   8.577 -1.4868  0.7114 -0.4509
  446MOL0     H61540   2.053   8.708   8.358 -0.5459  0.8635  1.4535
  446MOL0     H61541   2.106   8.559   8.447 -2.0279 -2.6262 -0.9321
  446MOL0     H61542   1.878   8.586   8.252  0.1139  1.3260  0.4140
  446MOL0     H61543   1.910   8.439   8.345 -1.3609  0.8139 -0.3437
  446MOL0     H61544   2.190   8.421   8.026 -1.5772 -1.8646 -1.0453
  446MOL0     H61545   2.082   8.858   8.852 -0.8871  1.6677  3.4416
  446MOL0     H61546   2.327   8.911   9.019  0.3413  0.4287  2.1732
  446MOL0     H61547   2.294   9.076   9.053  2.4287 -0.0287 -1.2241
  446MOL0     H61548   2.159   8.947   9.039  0.8813 -2.4072 -1.1779
  447MOL0     O61549   5.808   3.929   6.610 -0.0556  0.4572  0.1742
  447MOL0     C61550   5.832   3.943   6.490  0.9613  0.1679 -0.0786
  447MOL0     O61551   5.954   3.972   6.443 -0.5238 -0.0674 -0.2433
  447MOL0     C61552   6.052   4.019   6.519 -1.4914  0.8983 -0.0953
  447MOL0     C61553   6.026   4.123   6.612  0.7084 -0.9678 -0.8098
  447MOL0     C61554   6.130   4.174   6.697 -0.0071  0.3292 -0.2080
  447MOL0     C61555   6.249   4.101   6.710 -0.7135  0.1192  0.1296
  447MOL0     O61556   6.324   4.135   6.818  0.2594 -0.4887  0.3561
  447MOL0     C61557   6.437   4.048   6.862  0.5604 -0.9763  1.4806
  447MOL0     C61558   6.507   4.129   6.970 -0.1077  0.1331  0.4566
  447MOL0     C61559   6.631   4.042   7.011 -0.5043  0.3602  0.7480
  447MOL0     C61560   6.706   4.120   7.128  0.7840  0.2317 -0.3289
  447MOL0     C61561   6.828   4.043   7.184 -0.8543 -0.1243 -0.3992
  447MOL0     C61562   6.917   4.133   7.269  0.1418 -0.1252 -0.2718
  447MOL0     C61563   7.027   4.053   7.347  0.5127  0.7313  0.2537
  447MOL0     C61564   7.129   4.149   7.398 -0.2793 -0.1882  0.4926
  447MOL0     N61565   7.236   4.094   7.489 -0.3689  0.0693  1.0675
  447MOL0     C61566   7.276   4.151   7.607 -0.0654  0.1670 -0.7426
  447MOL0     C61567   7.372   4.072   7.664  0.1065  0.3102  0.3173
  447MOL0     C61568   7.444   4.091   7.793 -0.5944 -0.1554  0.5570
  447MOL0     C61569   7.601   4.118   7.763  0.2019 -0.9757  0.3651
  447MOL0     C61570   7.668   4.129   7.899  0.4495 -0.1996  0.3916
  447MOL0     C61571   7.810   4.173   7.891 -1.0307  0.1242  0.2908
  447MOL0     O61572   7.878   4.160   8.014  0.1397  0.2355 -0.1123
  447MOL0     C61573   8.012   4.167   8.044 -0.1285 -0.1890  0.6076
  447MOL0     C61574   8.045   4.139   8.172 -0.6269 -0.7313 -0.5586
  447MOL0     C61575   8.174   4.154   8.226  0.1527 -0.1677 -0.1726
  447MOL0     C61576   8.195   4.107   8.369  0.1543 -0.5321  0.5841
  447MOL0     C61577   8.282   4.209   8.142 -0.0323  0.1095  0.2588
  447MOL0     C61578   8.429   4.214   8.176 -0.6090  0.4549  0.8084
  447MOL0     O61579   8.528   4.220   8.076  0.6743  0.3564 -0.5104
  447MOL0     C61580   8.654   4.267   8.112 -0.3805  0.2643  0.2002
  447MOL0     C61581   8.768   4.218   8.056 -0.7690 -0.1877  0.0985
  447MOL0     C61582   8.895   4.270   8.099  0.0296 -0.0135  0.0556
  447MOL0     C61583   8.911   4.386   8.169  0.6901 -0.2282 -0.0454
  447MOL0     O61584   9.031   4.451   8.194  0.6770  0.4113  0.3707
  447MOL0     C61585   9.153   4.381   8.188 -0.4697  0.5197 -0.4636
  447MOL0     C61586   9.260   4.478   8.244  0.5682  0.2142 -0.0091
  447MOL0     C61587   9.245   4.520   8.384  0.3448 -0.8370  0.5366
  447MOL0     C61588   9.140   4.622   8.398  0.1511 -0.0136 -0.5540
  447MOL0     C61589   9.168   4.694   8.536  0.1357 -0.0690  1.0829
  447MOL0     C61590   9.047   4.772   8.590 -0.4519 -0.3855  0.1058
  447MOL0     C61591   9.005   4.891   8.507 -0.8819  0.6063 -0.6105
  447MOL0     C61592   8.905   4.969   8.585  0.6586 -0.0980  0.0801
  447MOL0    Cl61593   8.968   5.067   8.719  0.0280  0.4185  0.2029
  447MOL0     C61594   8.797   4.450   8.218  0.0835  0.7089 -0.5916
  447MOL0     C61595   8.670   4.395   8.188 -0.0258  0.8487  0.5895
  447MOL0     O61596   8.446   4.217   8.297 -0.8255 -0.0749 -0.5730
  447MOL0     C61597   8.239   4.233   8.009 -0.6979  0.5275  0.1870
  447MOL0     C61598   8.108   4.210   7.957 -0.4545 -0.2069  0.7881
  447MOL0     N61599   7.380   3.961   7.589  0.6634  0.1745 -0.2983
  447MOL0     N61600   7.308   3.978   7.480 -0.7392  0.2842 -0.0394
  447MOL0     C61601   6.272   4.001   6.611  0.0887 -0.3820 -0.0267
  447MOL0     C61602   6.178   3.964   6.512 -0.1934  0.1570 -0.3064
  447MOL0     C61603   5.730   3.913   6.376  0.6062 -0.0011  0.0141
  447MOL0     C61604   5.746   3.955   6.242 -0.4490 -0.8869  0.2152
  447MOL0     C61605   5.659   3.930   6.134 -0.0246 -0.1421 -0.7038
  447MOL0     C61606   5.542   3.866   6.164 -0.0183 -0.0372  0.0031
  447MOL0     O61607   5.456   3.839   6.059 -0.1514 -0.4735  0.3993
  447MOL0     C61608   5.323   3.782   6.077  0.3277 -0.0308 -0.0704
  447MOL0     C61609   5.332   3.629   6.101  0.0975  0.0183  0.3430
  447MOL0     C61610   5.320   3.539   5.976 -0.9230  0.2052  0.4513
  447MOL0     C61611   5.454   3.548   5.889 -0.7753 -0.6388  0.1207
  447MOL0     C61612   5.443   3.460   5.773 -0.2012 -0.1255  0.5532
  447MOL0     C61613   5.431   3.377   5.692 -0.1962  0.7786  0.0833
  447MOL0     C61614   5.521   3.822   6.298  0.2453  0.1380 -0.4450
  447MOL0     C61615   5.606   3.843   6.403 -0.4832 -1.0417 -0.0025
  447MOL0     C61616   5.566   3.803   6.536 -0.4302  0.2701 -0.1916
  447MOL0     H61617   5.926   4.160   6.630  0.6418 -1.5001 -0.0121
  447MOL0     H61618   6.099   4.258   6.758  0.3827 -2.1085  3.7613
  447MOL0     H61619   6.497   4.023   6.774 -0.2917  1.3770  0.1434
  447MOL0     H61620   6.409   3.955   6.913  0.8259 -0.5984  2.3433
  447MOL0     H61621   6.537   4.225   6.928 -0.8062  0.4530  0.6682
  447MOL0     H61622   6.444   4.149   7.057  0.3611  0.6289  0.6848
  447MOL0     H61623   6.609   3.939   7.042 -4.6985  1.3377  1.5806
  447MOL0     H61624   6.712   4.033   6.938 -0.7435 -3.7132  0.7695
  447MOL0     H61625   6.746   4.217   7.096 -1.5107  0.7262 -1.9819
  447MOL0     H61626   6.629   4.127   7.206 -0.8008 -1.2020 -1.6826
  447MOL0     H61627   6.892   4.002   7.104  1.4311  1.5233  0.4821
  447MOL0     H61628   6.787   3.966   7.249 -2.7157  0.5927 -0.6781
  447MOL0     H61629   6.961   4.203   7.198  0.1592 -1.1069 -1.2636
  447MOL0     H61630   6.859   4.190   7.342  0.0318  0.1263 -0.5510
  447MOL0     H61631   7.063   3.976   7.279  0.8815  0.7860  0.3841
  447MOL0     H61632   6.978   4.009   7.435  0.6156  2.4405  1.2127
  447MOL0     H61633   7.188   4.190   7.315  3.0513 -0.9906  2.2758
  447MOL0     H61634   7.073   4.226   7.451  0.3761  0.9487 -0.4171
  447MOL0     H61635   7.224   4.241   7.636  0.3603  0.4217 -0.7670
  447MOL0     H61636   7.435   3.998   7.851 -1.7196  0.9432  2.2163
  447MOL0     H61637   7.401   4.171   7.853  0.0816 -0.0913  0.9677
  447MOL0     H61638   7.631   4.030   7.704  1.8270  1.0986 -2.0965
  447MOL0     H61639   7.609   4.210   7.706  1.7250 -1.2436  0.1078
  447MOL0     H61640   7.608   4.202   7.955 -0.3395  0.4688 -1.2520
  447MOL0     H61641   7.668   4.025   7.933 -0.1468 -0.2180  0.3555
  447MOL0     H61642   7.864   4.126   7.808 -1.5998  0.7396 -0.4513
  447MOL0     H61643   7.812   4.279   7.863 -0.4026 -0.0120 -0.2212
  447MOL0     H61644   7.969   4.100   8.239 -0.6476 -0.1016 -0.2067
  447MOL0     H61645   8.286   4.054   8.395 -1.0852 -1.9667  2.2228
  447MOL0     H61646   8.119   4.036   8.403 -0.4894 -0.1048  0.0868
  447MOL0     H61647   8.188   4.197   8.431  0.9285  0.7967 -1.1630
  447MOL0     H61648   8.775   4.123   8.004 -2.4943 -0.8464  0.9848
  447MOL0     H61649   8.982   4.218   8.060 -1.0352 -1.7321 -0.1271
  447MOL0     H61650   9.149   4.290   8.248  0.5549 -0.2686 -1.5593
  447MOL0     H61651   9.184   4.352   8.088  0.3203 -3.0408  0.6893
  447MOL0     H61652   9.349   4.414   8.240  2.0907  2.2158  0.1029
  447MOL0     H61653   9.289   4.555   8.172  0.9503 -2.2754 -2.7118
  447MOL0     H61654   9.340   4.568   8.409  0.8111 -1.0138 -0.8125
  447MOL0     H61655   9.217   4.439   8.453  0.2582 -0.8822  0.4473
  447MOL0     H61656   9.046   4.567   8.397  0.3284 -0.3184 -0.6680
  447MOL0     H61657   9.134   4.697   8.319 -1.5161 -1.5749 -1.9977
  447MOL0     H61658   9.183   4.618   8.613 -2.3763 -0.8256  0.9089
  447MOL0     H61659   9.253   4.761   8.523 -1.8418  2.7218  1.6639
  447MOL0     H61660   9.071   4.806   8.691 -4.1862  1.5614  0.4931
  447MOL0     H61661   8.963   4.703   8.602  0.7863 -2.1423 -0.9151
  447MOL0     H61662   8.960   4.863   8.411  0.7815  1.0897 -1.5679
  447MOL0     H61663   9.098   4.944   8.486 -0.3542 -0.3881 -0.8598
  447MOL0     H61664   8.816   4.906   8.601  0.4224  0.1262 -0.3332
  447MOL0     H61665   8.862   5.046   8.521 -1.3817  1.8029  3.4088
  447MOL0     H61666   8.814   4.544   8.271 -1.3422  1.0263 -0.6550
  447MOL0     H61667   8.580   4.438   8.231  0.4949  1.1752  1.3631
  447MOL0     H61668   8.307   4.276   7.936 -0.9724  0.1947 -0.2651
  447MOL0     H61669   8.087   4.213   7.851  1.4819 -1.2521  0.3203
  447MOL0     H61670   6.368   3.951   6.608 -0.2017 -0.9471  0.0375
  447MOL0     H61671   6.200   3.886   6.440  0.4358 -0.2316  0.2926
  447MOL0     H61672   5.833   4.019   6.230  0.0016 -1.5647 -0.2157
  447MOL0     H61673   5.695   3.943   6.033  0.1082 -2.0519 -0.9297
  447MOL0     H61674   5.279   3.831   6.164 -1.8397  0.0761 -1.1477
  447MOL0     H61675   5.256   3.796   5.992 -0.4021 -4.2379 -0.3979
  447MOL0     H61676   5.248   3.597   6.163  1.7532 -2.2669  1.5744
  447MOL0     H61677   5.424   3.606   6.156 -0.2615 -0.7024  0.6565
  447MOL0     H61678   5.306   3.436   6.010  0.5375  0.6320  2.5709
  447MOL0     H61679   5.232   3.570   5.919 -0.2405  1.1332 -0.1252
  447MOL0     H61680   5.540   3.507   5.943 -0.4542 -0.4534 -0.2505
  447MOL0     H61681   5.474   3.651   5.859 -0.6956 -0.8750 -0.6428
  447MOL0     H61682   5.415   3.288   5.635 -0.2243  0.0228  1.2511
  447MOL0     H61683   5.439   3.757   6.328  1.6191 -0.5970  2.0229
  447MOL0     H61684   5.646   3.739   6.574 -1.2829 -3.8228 -4.3496
  447MOL0     H61685   5.549   3.891   6.600  0.0792  0.2283  0.0071
  447MOL0     H61686   5.481   3.734   6.538  2.0137 -2.9707  0.3814
  448MOL0     O61687   2.331   7.041   2.754  0.2281 -0.1388 -0.1174
  448MOL0     C61688   2.410   7.116   2.813 -0.5640 -0.1151  0.4512
  448MOL0     O61689   2.538   7.076   2.848 -0.0616  0.1761 -0.2310
  448MOL0     C61690   2.564   6.940   2.872  0.6750  0.1146  0.6446
  448MOL0     C61691   2.697   6.895   2.872  0.3697 -0.1660 -1.3753
  448MOL0     C61692   2.728   6.756   2.885  0.4027 -0.3946  0.0503
  448MOL0     C61693   2.621   6.669   2.894 -0.2537 -0.8491  0.5104
  448MOL0     O61694   2.665   6.542   2.904 -0.7934 -0.9108  0.2694
  448MOL0     C61695   2.584   6.423   2.885 -0.1181 -0.4149  0.0990
  448MOL0     C61696   2.637   6.326   2.995  0.2750 -0.2232 -0.9923
  448MOL0     C61697   2.574   6.180   2.983  0.0025  0.4536  0.0508
  448MOL0     C61698   2.643   6.091   2.878 -0.1166 -0.7933  0.5510
  448MOL0     C61699   2.590   5.942   2.870 -0.4046 -0.5865  0.2766
  448MOL0     C61700   2.591   5.899   2.715  0.2928 -0.2783  0.4633
  448MOL0     C61701   2.566   5.759   2.679  0.1537  0.6360  0.1381
  448MOL0     C61702   2.433   5.702   2.710  0.0997 -0.0300 -0.2577
  448MOL0     N61703   2.414   5.559   2.677  0.2626  0.7409  0.1406
  448MOL0     C61704   2.372   5.526   2.546  0.6147  0.1736 -0.0223
  448MOL0     C61705   2.351   5.391   2.555  0.2383 -0.2351  0.3030
  448MOL0     C61706   2.302   5.315   2.440  0.6600 -0.3252  0.6577
  448MOL0     C61707   2.170   5.250   2.486  0.1751 -0.5181  0.2210
  448MOL0     C61708   2.128   5.152   2.380 -0.7934  0.1681 -0.0260
  448MOL0     C61709   2.023   5.053   2.449 -0.6146  0.1370 -0.3773
  448MOL0     O61710   1.968   4.971   2.342  0.1868  0.2108  0.6281
  448MOL0     C61711   1.860   4.885   2.358 -0.2828 -0.1582 -0.5090
  448MOL0     C61712   1.826   4.807   2.251  0.2402  0.0874  0.1996
  448MOL0     C61713   1.729   4.708   2.261 -0.7522  0.1274  0.6380
  448MOL0     C61714   1.717   4.625   2.141 -0.2804  1.0740  0.2276
  448MOL0     C61715   1.658   4.690   2.382 -0.2468 -0.5131  0.8132
  448MOL0     C61716   1.541   4.596   2.399 -0.0610  0.7082  0.1051
  448MOL0     O61717   1.497   4.589   2.530 -0.4390  0.2960 -0.3092
  448MOL0     C61718   1.376   4.523   2.554  0.9685  0.1838 -0.6411
  448MOL0     C61719   1.264   4.560   2.469  0.4053 -0.1989 -0.9354
  448MOL0     C61720   1.139   4.505   2.507  0.3411 -0.6678 -0.3972
  448MOL0     C61721   1.120   4.424   2.618 -0.9087  0.1491 -1.0967
  448MOL0     O61722   1.004   4.364   2.656 -0.5449  0.1264  0.5983
  448MOL0     C61723   0.898   4.349   2.569  0.4452  0.3576  0.5471
  448MOL0     C61724   0.797   4.264   2.633 -0.3005 -0.1027 -0.3725
  448MOL0     C61725   0.678   4.229   2.547 -0.2430 -0.0257  0.5377
  448MOL0     C61726   0.682   4.099   2.465 -0.2140  0.1661 -0.3120
  448MOL0     C61727   0.548   4.064   2.410  0.8814 -0.8439  0.0090
  448MOL0     C61728   0.563   3.943   2.321 -0.5101  0.4723 -0.1928
  448MOL0     C61729   0.463   3.939   2.197 -0.7269 -0.1148  0.8628
  448MOL0     C61730   0.325   3.915   2.240 -0.1928  0.3194 -0.5211
  448MOL0    Cl61731   0.214   3.941   2.101 -0.1168  0.2578  0.2726
  448MOL0     C61732   1.233   4.405   2.702  1.1520 -0.1129 -0.4673
  448MOL0     C61733   1.364   4.449   2.666  0.0368 -0.0607  0.3454
  448MOL0     O61734   1.493   4.525   2.302  0.8686 -0.6302  0.4385
  448MOL0     C61735   1.698   4.775   2.490 -0.8002  0.0677  0.2198
  448MOL0     C61736   1.798   4.875   2.485  0.7385  0.3863  0.2830
  448MOL0     N61737   2.382   5.347   2.682 -0.2837  0.3032  0.3921
  448MOL0     N61738   2.410   5.445   2.756  0.0013 -0.7755  0.0312
  448MOL0     C61739   2.489   6.699   2.894 -0.6084 -0.3876 -0.4300
  448MOL0     C61740   2.463   6.839   2.892  0.5275  0.2922 -0.7449
  448MOL0     C61741   2.372   7.256   2.825  1.0128 -1.1683  0.2700
  448MOL0     C61742   2.271   7.318   2.746 -0.0776 -0.3079  0.1912
  448MOL0     C61743   2.221   7.446   2.776 -0.0721  0.1041  0.0930
  448MOL0     C61744   2.289   7.526   2.874  0.0342  0.2794  0.2540
  448MOL0     O61745   2.256   7.658   2.903  0.2805  0.4033 -0.3222
  448MOL0     C61746   2.135   7.714   2.840 -0.5169  0.1224 -0.9726
  448MOL0     C61747   2.011   7.639   2.903 -0.0913 -0.3290 -0.5382
  448MOL0     C61748   1.884   7.661   2.829 -0.3315  0.0843  0.7351
  448MOL0     C61749   1.762   7.611   2.905 -0.3034 -0.3846  0.5788
  448MOL0     C61750   1.657   7.568   2.809 -0.2125 -0.3940 -0.2983
  448MOL0     C61751   1.562   7.542   2.729 -0.6528 -0.7617 -0.0894
  448MOL0     C61752   2.389   7.471   2.949 -0.5552 -0.2625 -0.6782
  448MOL0     C61753   2.425   7.335   2.935 -0.8028 -0.0161  0.3237
  448MOL0     C61754   2.540   7.294   3.026  0.3718  0.6717  0.2658
  448MOL0     H61755   2.780   6.964   2.863 -0.3507  1.1367  0.9536
  448MOL0     H61756   2.834   6.732   2.880  0.6921  0.4307  1.4553
  448MOL0     H61757   2.608   6.380   2.787 -0.8561 -1.8793  0.5276
  448MOL0     H61758   2.476   6.436   2.893 -0.1618 -1.0597  0.6589
  448MOL0     H61759   2.746   6.327   2.994  0.3353 -1.4863  0.9083
  448MOL0     H61760   2.617   6.372   3.092  0.6803 -3.3169  0.6523
  448MOL0     H61761   2.592   6.143   3.084  0.7866  3.7962  1.2725
  448MOL0     H61762   2.467   6.184   2.961  0.3172 -0.9478 -2.0469
  448MOL0     H61763   2.633   6.147   2.785 -1.6211 -1.0604  0.5397
  448MOL0     H61764   2.752   6.088   2.894 -0.0794  1.6876  1.2936
  448MOL0     H61765   2.492   5.936   2.918  1.1276 -0.9783  3.6378
  448MOL0     H61766   2.649   5.868   2.926 -3.4622 -0.7927  3.6123
  448MOL0     H61767   2.515   5.952   2.658 -0.9361 -2.7276 -0.3148
  448MOL0     H61768   2.692   5.921   2.679  0.1709 -2.3325 -1.3694
  448MOL0     H61769   2.642   5.692   2.721  0.1280 -0.1389 -1.0015
  448MOL0     H61770   2.585   5.758   2.571  0.5132  0.6674  0.1988
  448MOL0     H61771   2.421   5.716   2.818 -0.8832 -0.3222 -0.3280
  448MOL0     H61772   2.356   5.750   2.650  0.2122 -1.2796 -1.4359
  448MOL0     H61773   2.346   5.592   2.463  0.3593  0.7962  0.5442
  448MOL0     H61774   2.365   5.238   2.394 -0.9354 -0.8244 -0.8188
  448MOL0     H61775   2.291   5.383   2.355  2.2123 -0.7096  0.1176
  448MOL0     H61776   2.184   5.205   2.585  0.1064  0.9497  0.9433
  448MOL0     H61777   2.085   5.318   2.500 -0.8869 -2.0401  1.5983
  448MOL0     H61778   2.085   5.204   2.294  0.5856  0.6629 -0.4421
  448MOL0     H61779   2.211   5.098   2.334  1.1689  0.6270  2.7347
  448MOL0     H61780   2.077   4.985   2.516 -0.8005 -0.3492 -0.7191
  448MOL0     H61781   1.953   5.098   2.521  1.7665  0.2960  2.0142
  448MOL0     H61782   1.889   4.802   2.162 -0.9627 -2.4602 -0.6042
  448MOL0     H61783   1.778   4.662   2.058 -0.6452  1.9355  0.3235
  448MOL0     H61784   1.613   4.629   2.109  0.4713 -0.4256 -2.6990
  448MOL0     H61785   1.743   4.523   2.169 -0.8517  0.9394  0.2838
  448MOL0     H61786   1.272   4.634   2.390  0.3941 -2.0922 -2.7830
  448MOL0     H61787   1.053   4.533   2.447 -0.4773 -0.6630  0.7362
  448MOL0     H61788   0.864   4.443   2.526  0.5891  0.0311 -0.3078
  448MOL0     H61789   0.928   4.284   2.486 -1.2727 -0.3732  0.4597
  448MOL0     H61790   0.844   4.173   2.671  1.3614  0.8166 -0.1283
  448MOL0     H61791   0.763   4.328   2.715 -1.5561  0.5882 -1.4076
  448MOL0     H61792   0.656   4.307   2.474  1.2149  0.4635  0.5959
  448MOL0     H61793   0.593   4.219   2.615  0.8847  0.3094  2.0460
  448MOL0     H61794   0.711   4.025   2.539 -1.3874 -0.4931 -0.4788
  448MOL0     H61795   0.766   4.100   2.395  0.4403  0.7898  0.4679
  448MOL0     H61796   0.479   4.042   2.492  1.0909  2.2655  1.1370
  448MOL0     H61797   0.510   4.144   2.345  0.7271 -1.1028 -0.2216
  448MOL0     H61798   0.551   3.851   2.378  1.7850 -0.5496 -1.2637
  448MOL0     H61799   0.662   3.941   2.275 -0.8834 -0.8177 -0.9942
  448MOL0     H61800   0.494   3.864   2.123 -0.0223  0.6393  0.3767
  448MOL0     H61801   0.471   4.035   2.146 -1.4894  0.1350  1.2035
  448MOL0     H61802   0.303   3.978   2.326  4.0115  0.6690  0.4932
  448MOL0     H61803   0.328   3.810   2.272 -1.5542  0.6397  0.7576
  448MOL0     H61804   1.229   4.347   2.794  1.4176  1.2598  0.4334
  448MOL0     H61805   1.455   4.438   2.725  1.7876  1.0682 -1.9954
  448MOL0     H61806   1.651   4.778   2.587  0.3192 -2.4537  0.9454
  448MOL0     H61807   1.829   4.924   2.576  1.3360  0.6775 -0.0760
  448MOL0     H61808   2.414   6.622   2.909  0.7046 -1.4815  0.8768
  448MOL0     H61809   2.360   6.865   2.912  0.7648 -0.0170  1.0561
  448MOL0     H61810   2.227   7.262   2.664  2.3403  0.7302 -2.0030
  448MOL0     H61811   2.143   7.494   2.718 -0.3616  1.1420  1.2790
  448MOL0     H61812   2.130   7.822   2.856 -0.0755 -0.0599  0.6652
  448MOL0     H61813   2.135   7.704   2.731  1.3796  0.4194 -1.0319
  448MOL0     H61814   2.012   7.678   3.006  1.0106 -0.2038 -0.5870
  448MOL0     H61815   2.019   7.530   2.914 -2.5051 -0.5008  0.0581
  448MOL0     H61816   1.874   7.770   2.826  1.3200  0.3166  2.1429
  448MOL0     H61817   1.893   7.626   2.726  3.6006  1.0065  0.6087
  448MOL0     H61818   1.726   7.692   2.970 -0.2006 -0.1064  0.2904
  448MOL0     H61819   1.782   7.530   2.975  2.2827  2.1282  3.0252
  448MOL0     H61820   1.484   7.528   2.657  1.8985  0.1240 -3.2874
  448MOL0     H61821   2.446   7.532   3.018  0.6713  0.3309 -2.1311
  448MOL0     H61822   2.512   7.200   3.075 -3.1125  1.1752 -0.4968
  448MOL0     H61823   2.635   7.287   2.973 -0.6815 -1.0094 -1.5437
  448MOL0     H61824   2.548   7.373   3.101 -0.3471  1.8641 -0.8665
  449MOL0     O61825   4.588   4.097   3.678 -0.3603  0.4328  0.2461
  449MOL0     C61826   4.630   4.207   3.680 -0.1728 -0.5342 -0.1354
  449MOL0     O61827   4.762   4.232   3.652 -0.0379 -0.3036 -0.1805
  449MOL0     C61828   4.862   4.137   3.642  0.4560 -0.9643 -0.5262
  449MOL0     C61829   4.906   4.118   3.510 -0.1161  0.5092  0.7633
  449MOL0     C61830   5.000   4.021   3.475  0.7673 -0.2102  0.3627
  449MOL0     C61831   5.041   3.935   3.570 -0.9610  0.0618  0.0558
  449MOL0     O61832   5.119   3.820   3.545 -0.4180 -0.9406  0.1979
  449MOL0     C61833   5.123   3.772   3.406 -0.6206 -0.1456 -0.5089
  449MOL0     C61834   5.160   3.628   3.411 -0.8221  0.3654  0.2283
  449MOL0     C61835   5.278   3.593   3.510  0.4986 -0.3908  0.1843
  449MOL0     C61836   5.280   3.451   3.559 -0.5669 -0.0075 -0.2294
  449MOL0     C61837   5.418   3.402   3.609  0.3958 -0.2470 -0.0168
  449MOL0     C61838   5.422   3.250   3.623  0.9472  0.0813  0.1405
  449MOL0     C61839   5.556   3.199   3.682  0.0107 -0.0069  0.3561
  449MOL0     C61840   5.558   3.047   3.719 -0.3874  0.2831 -0.3319
  449MOL0     N61841   5.683   3.001   3.780  0.9637  0.4626  0.2915
  449MOL0     C61842   5.758   2.886   3.749  0.5417 -0.0256 -0.4031
  449MOL0     C61843   5.849   2.882   3.849 -0.0122  0.8207  0.1975
  449MOL0     C61844   5.955   2.764   3.870  0.4375 -0.1118 -0.0087
  449MOL0     C61845   5.894   2.629   3.921 -0.4622 -0.0009 -0.3810
  449MOL0     C61846   5.983   2.579   4.041 -0.4274  0.7197 -0.3361
  449MOL0     C61847   6.118   2.514   3.987  0.1892 -0.2291 -0.3198
  449MOL0     O61848   6.212   2.621   3.952 -0.3320 -0.0257  0.3591
  449MOL0     C61849   6.340   2.620   4.004  0.5543 -0.0260  0.2784
  449MOL0     C61850   6.441   2.673   3.925 -0.3376 -0.3617 -0.5269
  449MOL0     C61851   6.577   2.674   3.980  0.9808  0.1906 -0.0638
  449MOL0     C61852   6.689   2.722   3.892  0.2805  0.4349 -0.0604
  449MOL0     C61853   6.599   2.636   4.118 -0.0562  0.1217  0.7788
  449MOL0     C61854   6.734   2.629   4.176 -0.7128 -0.5413 -0.9442
  449MOL0     O61855   6.826   2.711   4.127 -0.5018  0.5343  0.4231
  449MOL0     C61856   6.950   2.724   4.186  0.2408 -0.3602 -0.0500
  449MOL0     C61857   7.068   2.733   4.112 -0.0629 -0.8978  0.6942
  449MOL0     C61858   7.191   2.752   4.182  0.2047 -0.4305  0.8525
  449MOL0     C61859   7.200   2.762   4.323 -0.1523  0.7394  1.5266
  449MOL0     O61860   7.324   2.784   4.382 -0.0006 -0.1500 -0.4828
  449MOL0     C61861   7.352   2.733   4.514  0.5109  0.4275 -0.6785
  449MOL0     C61862   7.353   2.580   4.521  1.0460 -0.9186 -0.0064
  449MOL0     C61863   7.481   2.530   4.445 -0.6946  0.1856 -1.4097
  449MOL0     C61864   7.607   2.526   4.545 -0.3221 -0.2184  0.6431
  449MOL0     C61865   7.575   2.469   4.687 -1.3370  0.3768  0.0397
  449MOL0     C61866   7.712   2.427   4.768  0.1557 -0.3223 -0.0326
  449MOL0     C61867   7.663   2.339   4.881  0.4006  0.6963  0.7027
  449MOL0     C61868   7.781   2.265   4.939 -0.6285  0.3442  0.0585
  449MOL0    Cl61869   7.834   2.137   4.820  0.0867 -0.2181 -0.5090
  449MOL0     C61870   7.084   2.755   4.393  0.1222 -0.0280  0.1154
  449MOL0     C61871   6.962   2.742   4.323  0.7138  0.5291  0.1510
  449MOL0     O61872   6.747   2.554   4.272 -0.1956  0.1312 -0.4479
  449MOL0     C61873   6.486   2.586   4.192 -0.3104 -0.8843 -0.0960
  449MOL0     C61874   6.358   2.579   4.133  0.4495  0.5370 -1.2004
  449MOL0     N61875   5.832   2.977   3.926 -1.0032  0.0056 -0.0764
  449MOL0     N61876   5.734   3.055   3.884  0.4150 -0.8680  0.0668
  449MOL0     C61877   4.998   3.955   3.709 -0.0927  0.4298  0.4003
  449MOL0     C61878   4.902   4.045   3.742 -0.0876 -1.2503  0.3955
  449MOL0     C61879   4.540   4.323   3.685  0.3476 -0.3315 -0.4800
  449MOL0     C61880   4.591   4.449   3.650 -1.3730 -0.7136  0.2193
  449MOL0     C61881   4.531   4.566   3.683 -0.1288 -0.0314 -0.1267
  449MOL0     C61882   4.404   4.565   3.730 -0.7165 -0.2863  0.2901
  449MOL0     O61883   4.348   4.693   3.721  0.4971 -1.0250  0.1756
  449MOL0     C61884   4.211   4.702   3.739 -0.2456  0.3086  0.6759
  449MOL0     C61885   4.171   4.724   3.882  0.1045 -0.0213 -0.4640
  449MOL0     C61886   4.030   4.766   3.903  1.2108  0.0462  0.3014
  449MOL0     C61887   3.937   4.657   3.846  0.5585  0.4175  0.0452
  449MOL0     C61888   3.801   4.678   3.900  0.7293  0.2074 -0.2780
  449MOL0     C61889   3.683   4.689   3.938 -0.3844 -0.7871  0.7578
  449MOL0     C61890   4.346   4.445   3.768  0.9693 -0.1741 -0.0830
  449MOL0     C61891   4.405   4.320   3.734  1.1547  1.0404 -0.3098
  449MOL0     C61892   4.329   4.197   3.777 -0.5068 -0.0383 -0.1224
  449MOL0     H61893   4.865   4.176   3.428  1.9694  0.5511 -0.3418
  449MOL0     H61894   5.038   4.013   3.374 -0.5366  1.3876 -0.2935
  449MOL0     H61895   5.192   3.834   3.348 -0.4026  0.7507  0.6713
  449MOL0     H61896   5.023   3.784   3.363 -0.0033  1.5765 -1.5780
  449MOL0     H61897   5.075   3.563   3.435 -0.5278 -0.8378 -1.7914
  449MOL0     H61898   5.182   3.591   3.311 -2.0745 -1.8458  0.7025
  449MOL0     H61899   5.374   3.630   3.473  0.2580 -0.7204 -0.7817
  449MOL0     H61900   5.277   3.663   3.594 -0.9672  2.9007 -2.3689
  449MOL0     H61901   5.213   3.447   3.645  2.7060  1.0117  2.5777
  449MOL0     H61902   5.241   3.379   3.486 -0.3967 -0.4426  0.1081
  449MOL0     H61903   5.458   3.448   3.700  0.1824  0.9815 -0.5204
  449MOL0     H61904   5.493   3.414   3.529 -0.0142  0.7191 -0.2710
  449MOL0     H61905   5.340   3.204   3.678  2.7173 -1.0076  2.0350
  449MOL0     H61906   5.409   3.202   3.526  1.1319  2.2118 -0.9917
  449MOL0     H61907   5.585   3.257   3.770  1.1949  1.3831 -0.9016
  449MOL0     H61908   5.635   3.213   3.608  0.3733  2.2975  1.0973
  449MOL0     H61909   5.475   3.012   3.781 -1.0865  0.2628 -1.2548
  449MOL0     H61910   5.551   2.975   3.637 -0.7839 -3.0970  2.4351
  449MOL0     H61911   5.742   2.820   3.665  0.5805  0.7852 -1.0570
  449MOL0     H61912   6.042   2.798   3.929 -0.0951  0.4182  0.4864
  449MOL0     H61913   6.004   2.753   3.773  0.2954 -1.2247  0.0412
  449MOL0     H61914   5.798   2.655   3.967 -0.5135  2.0125 -1.5111
  449MOL0     H61915   5.882   2.561   3.837  2.1181  0.3161 -1.0876
  449MOL0     H61916   5.999   2.660   4.112  1.8678  1.0487 -1.1460
  449MOL0     H61917   5.937   2.487   4.079 -1.9236  0.6188 -2.2103
  449MOL0     H61918   6.165   2.451   4.063  2.4392  0.7822 -0.7849
  449MOL0     H61919   6.087   2.451   3.903 -0.8947  1.5493 -1.3107
  449MOL0     H61920   6.422   2.711   3.825 -0.1492  2.9148  0.5401
  449MOL0     H61921   6.724   2.821   3.922  0.4194  0.2631  0.3599
  449MOL0     H61922   6.661   2.730   3.787 -1.2354 -1.9970  0.0822
  449MOL0     H61923   6.770   2.648   3.900 -0.6543 -0.5350  0.7205
  449MOL0     H61924   7.075   2.733   4.003  0.6550  2.3043  0.6327
  449MOL0     H61925   7.285   2.753   4.127 -0.7087  1.1494 -0.8099
  449MOL0     H61926   7.443   2.779   4.553 -0.2973  2.2270 -0.7985
  449MOL0     H61927   7.276   2.780   4.577  3.2407  4.6650 -0.0907
  449MOL0     H61928   7.341   2.555   4.627 -0.0033  1.1652  0.4103
  449MOL0     H61929   7.266   2.544   4.466  0.5056  3.3395 -2.3963
  449MOL0     H61930   7.509   2.598   4.364  3.3788  0.6751  0.1879
  449MOL0     H61931   7.473   2.434   4.392  3.9342 -1.1037 -0.1984
  449MOL0     H61932   7.647   2.625   4.565  0.2726 -0.4643  0.6926
  449MOL0     H61933   7.692   2.475   4.499  1.1288 -0.0532  2.9574
  449MOL0     H61934   7.514   2.540   4.743  1.5026  2.0668  1.2471
  449MOL0     H61935   7.520   2.378   4.662  0.5694 -0.7696 -0.2305
  449MOL0     H61936   7.757   2.519   4.804  3.4429 -0.6309 -2.8512
  449MOL0     H61937   7.786   2.383   4.701 -1.2044 -2.5504 -0.1773
  449MOL0     H61938   7.585   2.275   4.840  0.8994  0.3051  0.3497
  449MOL0     H61939   7.615   2.409   4.951  1.7401  1.8488  0.5314
  449MOL0     H61940   7.758   2.222   5.036 -0.8927  0.6279  0.1225
  449MOL0     H61941   7.869   2.328   4.956  0.4388 -1.0825 -0.0358
  449MOL0     H61942   7.090   2.773   4.500  2.8007  1.5461 -0.1793
  449MOL0     H61943   6.874   2.733   4.386  0.7937  0.3932  0.2427
  449MOL0     H61944   6.503   2.562   4.296 -0.6447 -0.0968  0.1488
  449MOL0     H61945   6.269   2.551   4.190  0.2949  0.4441 -1.4864
  449MOL0     H61946   5.039   3.888   3.783 -1.5240 -0.3827  0.4838
  449MOL0     H61947   4.871   4.068   3.844 -1.9872  0.0896 -0.4373
  449MOL0     H61948   4.687   4.444   3.599 -1.2566 -1.3087  0.4793
  449MOL0     H61949   4.582   4.657   3.653 -0.3208 -0.4024 -1.6863
  449MOL0     H61950   4.174   4.785   3.678  0.4636  1.6831  2.0647
  449MOL0     H61951   4.156   4.617   3.697 -2.5825  2.2715 -0.4827
  449MOL0     H61952   4.248   4.796   3.910  0.5850  0.0092 -1.7734
  449MOL0     H61953   4.187   4.634   3.943 -1.9239  0.3103  0.6355
  449MOL0     H61954   4.005   4.783   4.008  2.9364  3.2522  0.3260
  449MOL0     H61955   4.010   4.857   3.845  0.0545 -0.2441  0.2188
  449MOL0     H61956   3.973   4.559   3.876  1.0977  0.7650  0.5573
  449MOL0     H61957   3.939   4.659   3.737 -0.0610 -0.5140  0.0080
  449MOL0     H61958   3.587   4.696   3.985 -1.3719  1.7982 -1.4031
  449MOL0     H61959   4.251   4.448   3.820  1.7690 -0.9332  1.4923
  449MOL0     H61960   4.245   4.214   3.845 -1.2959 -0.6957 -0.8997
  449MOL0     H61961   4.295   4.151   3.684  1.8026 -2.3808  0.0659
  449MOL0     H61962   4.391   4.116   3.817  0.7562  0.2366 -1.4456
  450MOL0     O61963   3.682   6.811   9.829 -0.5270  0.2099 -0.6443
  450MOL0     C61964   3.798   6.787   9.825 -0.3622  0.8739 -0.2367
  450MOL0     O61965   3.891   6.798   9.917  0.5933 -0.1919 -0.2242
  450MOL0     C61966   3.850   6.852  10.036 -0.1887 -0.4390 -0.3447
  450MOL0     C61967   3.753   6.801  10.119  0.7846  0.4911  0.4118
  450MOL0     C61968   3.708   6.863  10.229  0.4409  0.6906 -0.7009
  450MOL0     C61969   3.783   6.964  10.294  0.5512 -0.1510  1.1571
  450MOL0     O61970   3.745   7.026  10.410 -0.4053 -0.0405  0.4511
  450MOL0     C61971   3.692   6.936  10.505 -0.1286 -0.0420 -0.6369
  450MOL0     C61972   3.666   7.007  10.646 -0.1635 -0.1537 -0.3882
  450MOL0     C61973   3.608   6.907  10.747  1.6236 -0.0814 -0.0262
  450MOL0     C61974   3.568   6.989  10.876  0.1780  0.0308  0.1509
  450MOL0     C61975   3.514   6.890  10.980 -0.1959 -0.4564  0.6610
  450MOL0     C61976   3.482   6.941  11.119 -0.1268  0.7382  0.6465
  450MOL0     C61977   3.394   7.071  11.125 -0.8097 -0.6881  0.1941
  450MOL0     C61978   3.338   7.083  11.265 -0.1445 -0.4306  0.0849
  450MOL0     N61979   3.230   6.989  11.299  0.8936 -0.3529  0.3363
  450MOL0     C61980   3.128   6.938  11.219 -0.6389  0.1595  0.7172
  450MOL0     C61981   3.061   6.844  11.288 -0.0465  0.2578  0.4253
  450MOL0     C61982   2.947   6.764  11.242  0.2393 -0.0774 -0.3780
  450MOL0     C61983   2.980   6.668  11.126  0.2395  0.5787 -0.4108
  450MOL0     C61984   3.035   6.529  11.178 -0.3579 -0.5473 -0.6250
  450MOL0     C61985   3.171   6.501  11.114 -0.5233 -0.2758  0.5522
  450MOL0     O61986   3.223   6.381  11.169  0.2543 -0.0362  0.2913
  450MOL0     C61987   3.350   6.347  11.122  0.7518 -0.0285  0.5456
  450MOL0     C61988   3.417   6.397  11.007  0.4017  0.3910 -0.1923
  450MOL0     C61989   3.546   6.359  10.988  0.2516 -0.0123 -0.0902
  450MOL0     C61990   3.609   6.421  10.868 -0.4601 -0.0519  0.4601
  450MOL0     C61991   3.617   6.255  11.072  0.1247 -0.0043 -0.0802
  450MOL0     C61992   3.757   6.219  11.048  0.7563  0.4646 -0.3579
  450MOL0     O61993   3.817   6.174  11.158 -0.9440  0.1244  0.4830
  450MOL0     C61994   3.949   6.151  11.151 -0.9217  0.2288  1.2618
  450MOL0     C61995   4.034   6.238  11.215  0.5837 -0.1985  0.0218
  450MOL0     C61996   4.175   6.222  11.211  0.0016  0.6343 -0.6021
  450MOL0     C61997   4.226   6.102  11.148 -0.8205  0.0056  0.3145
  450MOL0     O61998   4.361   6.076  11.158  0.1357 -0.0203  0.2001
  450MOL0     C61999   4.427   6.052  11.030 -0.0265 -0.0662  1.2549
  450MOL0     C62000   4.576   6.059  11.072 -0.6555 -0.5878  0.0245
  450MOL0     C62001   4.620   5.945  11.161  0.1635  0.9692  0.8525
  450MOL0     C62002   4.773   5.945  11.169  0.4103  0.0393  1.2437
  450MOL0     C62003   4.831   5.834  11.256  0.2461  0.0014 -0.4044
  450MOL0     C62004   4.836   5.687  11.203  0.2358  0.1472 -0.0151
  450MOL0     C62005   4.891   5.581  11.300 -1.1125 -0.0957  0.6119
  450MOL0     C62006   5.031   5.626  11.362 -0.1961  0.2083  0.0856
  450MOL0    Cl62007   5.158   5.653  11.248 -0.0476  0.2409 -0.2011
  450MOL0     C62008   4.137   6.016  11.079  0.4047 -0.0239  0.0454
  450MOL0     C62009   4.007   6.040  11.075  0.9139  0.1493 -0.6090
  450MOL0     O62010   3.809   6.230  10.942  0.1036  0.0435 -0.0469
  450MOL0     C62011   3.544   6.208  11.186 -0.1104 -0.6696 -0.2581
  450MOL0     C62012   3.412   6.253  11.202 -0.9784 -0.1111  0.5023
  450MOL0     N62013   3.134   6.837  11.413  0.1867  0.2182 -0.4303
  450MOL0     N62014   3.225   6.926  11.416 -0.3325 -0.0223  0.4152
  450MOL0     C62015   3.888   7.015  10.216 -0.3591  0.4078  0.2534
  450MOL0     C62016   3.929   6.954  10.092  0.1783 -0.0811  0.5456
  450MOL0     C62017   3.856   6.733   9.701 -0.1994  0.2089 -0.4578
  450MOL0     C62018   3.989   6.690   9.706 -0.2115  1.0786 -0.0746
  450MOL0     C62019   4.047   6.636   9.589  0.3258  0.5206 -0.3361
  450MOL0     C62020   3.970   6.605   9.480 -0.1238 -1.1265 -0.0424
  450MOL0     O62021   4.019   6.507   9.400  0.8816 -0.2441 -0.1178
  450MOL0     C62022   3.940   6.416   9.321 -0.5124 -0.0827 -0.0286
  450MOL0     C62023   3.867   6.306   9.407  0.4299  0.5872  0.2895
  450MOL0     C62024   3.772   6.216   9.339  0.9042  0.7310  1.4089
  450MOL0     C62025   3.677   6.290   9.247  0.4302 -0.1767  0.5043
  450MOL0     C62026   3.564   6.214   9.204 -0.5960  0.0629 -0.3010
  450MOL0     C62027   3.473   6.155   9.163  0.6524 -0.6443 -0.2725
  450MOL0     C62028   3.849   6.655   9.470  1.2041 -0.2992 -0.5421
  450MOL0     C62029   3.786   6.721   9.576 -0.2303 -0.4596 -0.0249
  450MOL0     C62030   3.639   6.753   9.565 -0.0872 -1.1766  0.5628
  450MOL0     H62031   3.696   6.714  10.086 -0.2764  2.0077 -1.9665
  450MOL0     H62032   3.627   6.815  10.283  0.8517 -0.5321 -1.1504
  450MOL0     H62033   3.772   6.864  10.521  0.2768  0.2941 -1.1090
  450MOL0     H62034   3.598   6.891  10.472  0.4611 -1.3081 -0.6342
  450MOL0     H62035   3.758   7.044  10.690  1.2452 -3.4636 -0.2207
  450MOL0     H62036   3.602   7.094  10.629  0.7578  0.6588  0.2730
  450MOL0     H62037   3.523   6.847  10.714  1.1801 -0.3187  1.4723
  450MOL0     H62038   3.684   6.833  10.773 -0.3943 -1.6027  1.9274
  450MOL0     H62039   3.650   7.052  10.909  1.8383  0.0298 -3.5449
  450MOL0     H62040   3.488   7.055  10.841 -0.6096 -1.6837 -1.5055
  450MOL0     H62041   3.580   6.803  10.985 -0.1845 -0.6481 -1.8991
  450MOL0     H62042   3.420   6.857  10.934 -0.1577 -0.8887  0.8867
  450MOL0     H62043   3.433   6.877  11.192 -1.9260  1.2693 -0.0219
  450MOL0     H62044   3.583   6.965  11.155  0.0563 -0.4484  0.9463
  450MOL0     H62045   3.323   7.079  11.043 -0.2654  0.5955 -0.1733
  450MOL0     H62046   3.457   7.159  11.109 -0.2498 -1.5601 -3.1100
  450MOL0     H62047   3.417   7.065  11.339 -1.0738  0.4051  1.3034
  450MOL0     H62048   3.310   7.187  11.280 -1.0680 -0.6769  0.1422
  450MOL0     H62049   3.123   6.959  11.112 -0.0471 -2.2130  0.1589
  450MOL0     H62050   2.858   6.823  11.217 -0.0642 -0.6398 -0.6388
  450MOL0     H62051   2.918   6.716  11.336 -1.9698  1.3535 -0.2629
  450MOL0     H62052   2.893   6.652  11.062 -0.1014 -3.2446  0.7768
  450MOL0     H62053   3.055   6.716  11.063 -0.1400  3.1969  0.9890
  450MOL0     H62054   3.035   6.536  11.287  0.8792  1.2079 -0.6923
  450MOL0     H62055   2.954   6.460  11.153 -1.4274 -0.3312  1.9322
  450MOL0     H62056   3.149   6.486  11.008 -0.2670 -0.4362  0.5209
  450MOL0     H62057   3.235   6.587  11.136 -0.5982  0.3987 -1.6049
  450MOL0     H62058   3.368   6.468  10.941  0.1475  0.8053  0.4223
  450MOL0     H62059   3.551   6.498  10.816  0.2747  0.0142 -0.2971
  450MOL0     H62060   3.648   6.342  10.802  0.5872  1.1401 -0.4136
  450MOL0     H62061   3.698   6.467  10.911 -0.6076  0.2140  0.4790
  450MOL0     H62062   3.987   6.331  11.247  2.2840  2.1188 -3.5258
  450MOL0     H62063   4.251   6.288  11.251  0.4681 -0.1523 -0.1739
  450MOL0     H62064   4.403   5.954  10.988 -0.9994 -0.1916  2.0709
  450MOL0     H62065   4.400   6.132  10.960 -1.1524 -1.7673 -0.3392
  450MOL0     H62066   4.633   6.064  10.979  0.8839  2.3664  1.0113
  450MOL0     H62067   4.590   6.153  11.125  0.4889 -1.2881  1.0241
  450MOL0     H62068   4.583   5.853  11.115 -0.5393  2.2497 -1.2969
  450MOL0     H62069   4.566   5.942  11.256 -1.9338 -2.2267 -0.2596
  450MOL0     H62070   4.794   6.043  11.212  0.5740  0.9443 -0.7728
  450MOL0     H62071   4.825   5.950  11.073 -0.5411  2.9737  0.7723
  450MOL0     H62072   4.932   5.870  11.278  0.3563 -1.4262  1.7610
  450MOL0     H62073   4.778   5.843  11.352 -0.4115  4.1258 -0.9705
  450MOL0     H62074   4.893   5.682  11.110  1.2674 -1.4704  0.6476
  450MOL0     H62075   4.734   5.663  11.174  1.0632 -1.5395 -1.7254
  450MOL0     H62076   4.909   5.483  11.254  0.0090  0.6272 -0.5449
  450MOL0     H62077   4.819   5.566  11.381  0.9077  0.8428  2.6865
  450MOL0     H62078   5.069   5.539  11.415  4.0259  1.7002 -0.1539
  450MOL0     H62079   5.019   5.702  11.440  2.8470  0.2431  0.6197
  450MOL0     H62080   4.189   5.930  11.039  3.6313  0.7351  2.1953
  450MOL0     H62081   3.941   5.978  11.015  0.2843  0.1728  0.0410
  450MOL0     H62082   3.593   6.141  11.257 -0.9498 -0.1976  0.8012
  450MOL0     H62083   3.359   6.203  11.282 -0.3657 -0.1546  0.8917
  450MOL0     H62084   3.950   7.097  10.250 -0.7546  1.0064 -0.4348
  450MOL0     H62085   4.015   6.993  10.038 -2.4562  2.6658 -2.0065
  450MOL0     H62086   4.048   6.697   9.797  1.1728 -0.8731 -0.7565
  450MOL0     H62087   4.138   6.577   9.583 -1.4695 -2.4188 -0.7534
  450MOL0     H62088   3.873   6.470   9.253 -1.0743  0.0401  0.6059
  450MOL0     H62089   4.017   6.367   9.260  0.3341  2.6040 -1.2547
  450MOL0     H62090   3.813   6.366   9.482 -1.0507 -2.4128  1.8195
  450MOL0     H62091   3.942   6.246   9.459 -0.1198 -0.9027 -0.5932
  450MOL0     H62092   3.822   6.145   9.272 -1.8241  1.6266 -1.8344
  450MOL0     H62093   3.714   6.150   9.404  1.8539  0.3076  1.8453
  450MOL0     H62094   3.740   6.312   9.159  0.3699 -2.7857 -0.3068
  450MOL0     H62095   3.639   6.379   9.296  2.0304 -0.1988  1.8856
  450MOL0     H62096   3.379   6.109   9.141 -0.2767  0.8984  0.3460
  450MOL0     H62097   3.793   6.635   9.379  0.4016  0.2002 -0.1738
  450MOL0     H62098   3.575   6.723   9.648  0.0657  3.2995  2.5773
  450MOL0     H62099   3.637   6.862   9.558 -2.2717 -1.1374  1.2062
  450MOL0     H62100   3.599   6.697   9.480  1.0549 -2.9119  1.1193
  451MOL0     O62101   4.499  10.782  10.804  0.1938 -0.2228  0.4572
  451MOL0     C62102   4.607  10.742  10.779  0.0516  0.0112 -0.0140
  451MOL0     O62103   4.644  10.610  10.776 -0.1600  0.2366  0.3838
  451MOL0     C62104   4.551  10.513  10.801  0.4089  0.4749 -0.1859
  451MOL0     C62105   4.452  10.507  10.896 -0.2283 -0.0139  0.6026
  451MOL0     C62106   4.368  10.389  10.902  0.7104 -0.5916  0.8476
  451MOL0     C62107   4.384  10.278  10.810  0.4326 -0.0513  1.0673
  451MOL0     O62108   4.328  10.149  10.808  0.2024  0.3188  0.1677
  451MOL0     C62109   4.212  10.115  10.886  0.3084 -0.3340  0.5063
  451MOL0     C62110   4.135   9.991  10.830  0.2926 -0.2030  0.8637
  451MOL0     C62111   4.095   9.992  10.681  0.0004  0.4873  0.0933
  451MOL0     C62112   4.010   9.867  10.633 -0.6596  0.3710 -1.1231
  451MOL0     C62113   3.984   9.876  10.484  0.3000  0.3007 -0.2889
  451MOL0     C62114   3.887   9.755  10.443  0.3992 -0.2077 -0.4000
  451MOL0     C62115   3.752   9.768  10.510  0.1147  0.1011  0.3616
  451MOL0     C62116   3.693   9.915  10.516 -0.2920  0.0292 -0.1586
  451MOL0     N62117   3.561   9.927  10.550  0.4785  1.2130 -0.0461
  451MOL0     C62118   3.505   9.861  10.654 -0.1078  0.0532  1.1939
  451MOL0     C62119   3.378   9.906  10.666  0.4311 -0.0109 -0.3789
  451MOL0     C62120   3.267   9.856  10.752 -0.4308 -0.9473  0.1212
  451MOL0     C62121   3.298   9.876  10.896 -0.7521 -0.0893  0.4253
  451MOL0     C62122   3.175   9.853  10.974 -0.2130 -0.2459 -0.4195
  451MOL0     C62123   3.192   9.869  11.126  0.2355 -0.4428  1.1146
  451MOL0     O62124   3.286   9.774  11.185  0.3737 -0.3015  0.2633
  451MOL0     C62125   3.420   9.797  11.187 -0.6511  0.1481 -0.1757
  451MOL0     C62126   3.482   9.917  11.156  0.1596  0.2540  0.1021
  451MOL0     C62127   3.623   9.930  11.142 -0.4230  0.0882 -1.6524
  451MOL0     C62128   3.673  10.069  11.098 -0.4721 -0.8428 -0.4458
  451MOL0     C62129   3.707   9.822  11.178  0.4252 -0.1627 -0.2385
  451MOL0     C62130   3.857   9.838  11.189 -0.1902 -0.0463  0.0255
  451MOL0     O62131   3.922   9.746  11.258 -0.3104  0.1440  0.6484
  451MOL0     C62132   4.059   9.759  11.279 -1.2162 -0.2226  0.2909
  451MOL0     C62133   4.151   9.728  11.180  0.5894  0.5574  0.0553
  451MOL0     C62134   4.287   9.741  11.193 -0.0126 -0.7349 -0.1315
  451MOL0     C62135   4.336   9.802  11.309  0.2985  0.6524  0.0751
  451MOL0     O62136   4.472   9.809  11.318 -0.5391 -0.2410 -0.1215
  451MOL0     C62137   4.533   9.852  11.444  0.3290  0.0730  0.4372
  451MOL0     C62138   4.679   9.836  11.419 -1.2562 -0.2856 -0.3232
  451MOL0     C62139   4.753   9.916  11.523  1.1721  0.0541 -0.6652
  451MOL0     C62140   4.885   9.864  11.568 -0.1929 -1.1967  0.3012
  451MOL0     C62141   4.937   9.944  11.695  0.3986 -0.4992  0.3150
  451MOL0     C62142   5.049   9.876  11.769  0.3898 -0.1985 -0.1909
  451MOL0     C62143   5.016   9.741  11.839  0.2536 -0.1414  0.2613
  451MOL0     C62144   5.133   9.645  11.833 -0.0346 -0.3230 -0.0281
  451MOL0    Cl62145   5.282   9.705  11.922 -0.3296 -0.2268  0.0355
  451MOL0     C62146   4.249   9.833  11.414 -0.3596  0.5039  1.1108
  451MOL0     C62147   4.112   9.810  11.401  0.8005 -0.0758 -0.1345
  451MOL0     O62148   3.910   9.936  11.134  0.0210  0.2834 -0.3291
  451MOL0     C62149   3.640   9.703  11.222 -0.2570  0.5112  0.2340
  451MOL0     C62150   3.499   9.688  11.225 -0.0373  0.2282  0.4270
  451MOL0     N62151   3.361  10.010  10.581  0.2871 -1.2529 -0.1163
  451MOL0     N62152   3.465  10.026  10.519 -0.0689 -0.5200  0.3565
  451MOL0     C62153   4.486  10.289  10.716 -0.4705 -0.2975 -0.8713
  451MOL0     C62154   4.567  10.408  10.715  0.0875  0.0141  0.4816
  451MOL0     C62155   4.716  10.842  10.767  0.1047 -0.5576 -0.3305
  451MOL0     C62156   4.843  10.781  10.740  0.4313 -0.5078  0.0084
  451MOL0     C62157   4.952  10.860  10.729  0.7572  0.3319  0.4723
  451MOL0     C62158   4.950  11.003  10.740  0.1067  0.4751 -0.4468
  451MOL0     O62159   5.052  11.091  10.719  0.4207  0.8384 -0.1396
  451MOL0     C62160   5.185  11.043  10.737 -0.2910  0.2165  0.8126
  451MOL0     C62161   5.277  11.157  10.720  0.4441  0.1938 -0.1196
  451MOL0     C62162   5.423  11.129  10.679 -0.0137 -0.4544  0.4253
  451MOL0     C62163   5.509  11.257  10.676 -0.4304 -0.0603  0.2644
  451MOL0     C62164   5.506  11.325  10.547 -0.1242 -0.2752 -0.7838
  451MOL0     C62165   5.517  11.390  10.448 -0.1145  0.6387  0.0056
  451MOL0     C62166   4.825  11.064  10.754  0.0203  0.0589  0.3767
  451MOL0     C62167   4.706  10.984  10.770 -1.0177 -0.4401  0.5239
  451MOL0     C62168   4.582  11.059  10.767  0.7105  0.0801 -0.7112
  451MOL0     H62169   4.441  10.586  10.969  1.3581 -0.5132  1.4292
  451MOL0     H62170   4.284  10.390  10.971  1.7943 -0.3887  2.2008
  451MOL0     H62171   4.145  10.198  10.910  1.4077 -0.2287  3.6645
  451MOL0     H62172   4.244  10.086  10.986 -1.1132  0.8704  1.3488
  451MOL0     H62173   4.183   9.895  10.856 -3.5467 -2.0424  1.8908
  451MOL0     H62174   4.044   9.987  10.890 -1.0805  1.5480 -1.0304
  451MOL0     H62175   4.026  10.077  10.670  0.3534  0.6039 -1.4457
  451MOL0     H62176   4.179  10.023  10.620  0.6551  1.2293  1.3312
  451MOL0     H62177   4.068   9.776  10.644 -0.4604  0.4289 -1.6731
  451MOL0     H62178   3.921   9.863  10.697  1.6620  1.1674  2.4303
  451MOL0     H62179   4.079   9.863  10.432 -1.0546 -2.7659 -2.2777
  451MOL0     H62180   3.940   9.973  10.459 -3.1125 -0.0922  3.2787
  451MOL0     H62181   3.876   9.748  10.334 -1.0362 -1.3113 -0.2164
  451MOL0     H62182   3.935   9.663  10.479  1.1368  0.9021  1.5670
  451MOL0     H62183   3.745   9.729  10.612  0.9408  2.3950  1.3615
  451MOL0     H62184   3.683   9.700  10.459  0.7790  1.4183 -2.5140
  451MOL0     H62185   3.745   9.980  10.587  0.2099 -0.1732 -0.3379
  451MOL0     H62186   3.699   9.964  10.418  0.7048  1.2316  0.4638
  451MOL0     H62187   3.536   9.771  10.706  0.3300 -0.5033  0.0141
  451MOL0     H62188   3.251   9.751  10.726 -0.9653 -0.7016 -0.5981
  451MOL0     H62189   3.181   9.915  10.718  1.0062  0.0375 -2.0251
  451MOL0     H62190   3.367   9.799  10.931 -1.3607  0.1565  2.2692
  451MOL0     H62191   3.347   9.973  10.906  2.1523 -1.2611 -1.1268
  451MOL0     H62192   3.103   9.926  10.935  0.8502  1.0065 -0.0938
  451MOL0     H62193   3.130   9.755  10.955  0.4919 -0.3879 -1.4211
  451MOL0     H62194   3.217   9.972  11.153 -0.1174  0.4238 -1.5444
  451MOL0     H62195   3.096   9.846  11.173 -1.2092 -0.1782 -1.5177
  451MOL0     H62196   3.425  10.001  11.119  0.4963  0.0327 -0.9654
  451MOL0     H62197   3.753  10.088  11.170  0.5822 -2.2819 -1.1920
  451MOL0     H62198   3.594  10.145  11.101 -0.3310 -0.7141  2.2115
  451MOL0     H62199   3.712  10.061  10.996  0.6495 -1.1766 -0.0014
  451MOL0     H62200   4.106   9.696  11.087 -0.4825 -3.6742  1.7719
  451MOL0     H62201   4.351   9.732  11.106  2.3808  0.3849  1.4169
  451MOL0     H62202   4.501   9.956  11.457 -4.1032 -1.1869  1.0926
  451MOL0     H62203   4.497   9.797  11.531  0.8516  1.1887  1.4007
  451MOL0     H62204   4.708   9.732  11.435  3.3431  0.3720 -2.5044
  451MOL0     H62205   4.706   9.864  11.317 -1.0961  0.0001 -0.2044
  451MOL0     H62206   4.697   9.919  11.617  1.4537  1.8366 -0.5091
  451MOL0     H62207   4.767  10.021  11.497  0.4390  0.7266  1.4867
  451MOL0     H62208   4.961   9.882  11.492 -0.7186  1.1283  0.2708
  451MOL0     H62209   4.880   9.756  11.585 -0.5092 -1.0965  0.8986
  451MOL0     H62210   4.979  10.040  11.666  0.1429 -0.2287  0.8320
  451MOL0     H62211   4.855   9.965  11.764 -1.1226 -1.3437 -1.1399
  451MOL0     H62212   5.092   9.947  11.841  1.5318 -0.2646 -0.7764
  451MOL0     H62213   5.132   9.859  11.699 -0.5581 -1.1063 -1.1231
  451MOL0     H62214   4.936   9.684  11.791  1.3306 -1.3907 -0.1055
  451MOL0     H62215   4.980   9.757  11.941 -1.8272  1.9705 -0.7116
  451MOL0     H62216   5.159   9.640  11.727  0.4696  1.2784 -0.0094
  451MOL0     H62217   5.112   9.543  11.866 -0.8711 -0.2099 -0.2028
  451MOL0     H62218   4.275   9.864  11.515  1.7466  1.1503  0.4208
  451MOL0     H62219   4.046   9.810  11.487  0.1396 -2.5431 -0.5811
  451MOL0     H62220   3.706   9.619  11.236 -0.0643  0.6021 -0.1172
  451MOL0     H62221   3.449   9.599  11.262 -0.5690  0.1841 -0.3579
  451MOL0     H62222   4.520  10.213  10.647 -0.5020 -3.4738  2.3446
  451MOL0     H62223   4.638  10.422  10.634  1.0412  1.8323  1.5639
  451MOL0     H62224   4.856  10.673  10.735 -1.7744 -0.7586 -1.5685
  451MOL0     H62225   5.044  10.809  10.703  1.4593  2.2410 -1.0758
  451MOL0     H62226   5.207  11.005  10.837  4.2778 -3.2859 -1.1416
  451MOL0     H62227   5.201  10.956  10.671 -2.4389  0.9834 -0.8739
  451MOL0     H62228   5.266  11.223  10.806 -1.4969  0.5075 -0.5508
  451MOL0     H62229   5.231  11.215  10.639 -0.4305 -0.6869 -0.2790
  451MOL0     H62230   5.452  11.054  10.754 -2.3513 -1.5348  0.3105
  451MOL0     H62231   5.430  11.080  10.582 -0.1163  0.1063  0.1261
  451MOL0     H62232   5.615  11.234  10.692 -0.5014  0.6851  2.0732
  451MOL0     H62233   5.490  11.332  10.753  2.1892  0.8422  0.1615
  451MOL0     H62234   5.543  11.443  10.359 -0.2528 -0.8058 -0.9311
  451MOL0     H62235   4.825  11.172  10.752  1.2606  0.0978 -2.0694
  451MOL0     H62236   4.536  11.049  10.866 -1.6831  3.6895 -1.2516
  451MOL0     H62237   4.593  11.167  10.749  1.0777 -0.4302 -4.2440
  451MOL0     H62238   4.512  11.013  10.696 -1.1678 -2.1968  2.3649
  452MOL0     O62239   7.796   1.437  10.707  0.6860  0.1717  0.5942
  452MOL0     C62240   7.702   1.514  10.742  0.5396  0.9533 -0.2160
  452MOL0     O62241   7.657   1.515  10.872  0.4610  0.0574 -0.7563
  452MOL0     C62242   7.732   1.463  10.969  0.0947 -0.4504  0.0009
  452MOL0     C62243   7.813   1.537  11.060 -0.2198  0.4518  0.4171
  452MOL0     C62244   7.901   1.479  11.153  0.3221  0.1877 -0.4861
  452MOL0     C62245   7.890   1.334  11.167  0.8367 -0.2167 -0.0840
  452MOL0     O62246   7.957   1.272  11.268  0.6606  0.0016  0.4016
  452MOL0     C62247   8.049   1.172  11.225  0.6426  0.1247  0.4575
  452MOL0     C62248   8.090   1.113  11.361 -0.5380 -0.7396  1.2487
  452MOL0     C62249   8.154   1.212  11.451 -0.5888 -1.0482  0.4062
  452MOL0     C62250   8.216   1.129  11.554 -0.3814  0.2858 -0.5721
  452MOL0     C62251   8.292   1.223  11.657 -0.0814  0.0622  0.1671
  452MOL0     C62252   8.372   1.134  11.748 -0.0341  0.0361  0.4315
  452MOL0     C62253   8.431   1.209  11.867  0.0051 -0.4503 -0.8953
  452MOL0     C62254   8.324   1.276  11.962 -0.1072 -1.3407 -0.6387
  452MOL0     N62255   8.367   1.334  12.088 -0.2748  0.5611 -0.8123
  452MOL0     C62256   8.418   1.262  12.198  0.2471 -0.3855  0.2501
  452MOL0     C62257   8.468   1.357  12.279  0.5486 -0.3355  1.4560
  452MOL0     C62258   8.535   1.311  12.403  0.5757  0.3609  0.4745
  452MOL0     C62259   8.672   1.264  12.364 -0.4033  0.5106  0.3786
  452MOL0     C62260   8.715   1.159  12.452 -0.2563 -0.2651 -0.4920
  452MOL0     C62261   8.863   1.124  12.444 -0.7998 -0.4651  0.0044
  452MOL0     O62262   8.950   1.225  12.501 -0.2520 -0.0003  0.5062
  452MOL0     C62263   9.086   1.199  12.493 -0.0807 -0.4099  0.0425
  452MOL0     C62264   9.142   1.082  12.437  0.2094 -0.4038 -0.9500
  452MOL0     C62265   9.280   1.068  12.421  0.0405  0.3532 -0.0357
  452MOL0     C62266   9.338   0.932  12.379  0.3447 -0.3093 -0.1173
  452MOL0     C62267   9.366   1.176  12.462  1.0312 -0.1919  0.8606
  452MOL0     C62268   9.512   1.176  12.428  0.1589 -0.3169 -0.6834
  452MOL0     O62269   9.576   1.290  12.415  0.5579 -1.0817 -1.3691
  452MOL0     C62270   9.712   1.294  12.449  0.3620  0.5827 -0.3447
  452MOL0     C62271   9.760   1.221  12.549 -0.4393 -0.0490  0.2932
  452MOL0     C62272   9.898   1.212  12.569 -1.7205 -0.0537 -1.2755
  452MOL0     C62273   9.986   1.287  12.491 -0.5311 -0.0654  0.7557
  452MOL0     O62274  10.117   1.274  12.532 -0.3024  0.3486  0.1221
  452MOL0     C62275  10.198   1.382  12.500 -0.1330 -0.0437  0.7785
  452MOL0     C62276  10.294   1.424  12.609  0.2168 -0.6156  0.9227
  452MOL0     C62277  10.437   1.459  12.566  0.8525  0.1561 -0.5482
  452MOL0     C62278  10.536   1.442  12.683  0.1130  0.7303 -0.8864
  452MOL0     C62279  10.681   1.481  12.657  0.4775  0.3056  0.3122
  452MOL0     C62280  10.774   1.467  12.775 -0.5542 -0.1678 -0.0812
  452MOL0     C62281  10.917   1.501  12.736  0.1052  0.1493 -0.2048
  452MOL0     C62282  11.010   1.494  12.860  0.1315 -0.0773  1.0827
  452MOL0    Cl62283  11.177   1.522  12.803 -0.1548  0.4490 -0.1336
  452MOL0     C62284   9.933   1.368  12.387  0.8093 -0.0974 -0.4481
  452MOL0     C62285   9.788   1.361  12.364 -0.1202 -0.2023  0.3396
  452MOL0     O62286   9.567   1.070  12.402  0.6120  0.5267  0.5264
  452MOL0     C62287   9.310   1.296  12.518  0.0463  0.1503 -0.1969
  452MOL0     C62288   9.171   1.306  12.530 -0.6241 -0.0334 -0.4425
  452MOL0     N62289   8.452   1.482  12.226  0.1031 -0.0910  0.6127
  452MOL0     N62290   8.395   1.465  12.112 -0.4274  0.9703  0.0818
  452MOL0     C62291   7.801   1.266  11.079 -0.4537 -0.2823 -1.2150
  452MOL0     C62292   7.724   1.329  10.977 -0.5288  0.1230 -0.2241
  452MOL0     C62293   7.632   1.592  10.634 -0.7440  0.2342 -0.5257
  452MOL0     C62294   7.490   1.615  10.645 -0.4280 -0.2318  0.2609
  452MOL0     C62295   7.429   1.699  10.559  0.3003 -0.3863 -0.2716
  452MOL0     C62296   7.498   1.772  10.458 -0.1878 -0.4224 -0.6408
  452MOL0     O62297   7.430   1.875  10.385  0.0771  0.6351 -0.0466
  452MOL0     C62298   7.287   1.910  10.410  0.2806 -0.4097 -0.1500
  452MOL0     C62299   7.271   1.993  10.542 -0.8312 -0.4286 -1.4173
  452MOL0     C62300   7.122   2.011  10.588 -0.7146  0.7177 -0.0598
  452MOL0     C62301   7.074   1.885  10.660  0.1736  0.5270 -0.0458
  452MOL0     C62302   6.943   1.913  10.719  0.5648  0.9596  0.6312
  452MOL0     C62303   6.839   1.928  10.778 -0.2814  0.1347  0.0736
  452MOL0     C62304   7.636   1.751  10.440  0.2717 -0.1206 -0.7767
  452MOL0     C62305   7.703   1.659  10.526  0.3220  0.3987  0.5203
  452MOL0     C62306   7.846   1.622  10.498 -0.1878  0.9087 -0.1261
  452MOL0     H62307   7.798   1.644  11.048  1.7623  0.8300  0.9626
  452MOL0     H62308   7.965   1.544  11.212 -1.9423  1.3449  0.8314
  452MOL0     H62309   8.124   1.221  11.161  0.5711 -1.4841 -0.9192
  452MOL0     H62310   7.996   1.095  11.169  0.9356  0.9176 -0.9761
  452MOL0     H62311   8.004   1.076  11.417 -0.9022 -1.9176 -0.0244
  452MOL0     H62312   8.154   1.026  11.340  1.2906  0.2671  2.4175
  452MOL0     H62313   8.244   1.252  11.403  0.0518  0.1930  2.4790
  452MOL0     H62314   8.091   1.288  11.498 -0.6379 -2.4816  2.8047
  452MOL0     H62315   8.142   1.069  11.608  1.2031 -1.1920  0.0691
  452MOL0     H62316   8.289   1.058  11.514  1.6053  1.4574  0.8070
  452MOL0     H62317   8.214   1.276  11.712 -1.0746 -1.6492  0.4850
  452MOL0     H62318   8.358   1.293  11.606  2.4708 -2.0606  0.3477
  452MOL0     H62319   8.315   1.046  11.780 -1.0309 -0.6959 -2.9203
  452MOL0     H62320   8.454   1.093  11.688  0.4322 -0.6717  1.5214
  452MOL0     H62321   8.487   1.293  11.826  1.1645  0.0874  1.6320
  452MOL0     H62322   8.483   1.147  11.940 -0.9543  1.2454  1.3347
  452MOL0     H62323   8.270   1.366  11.929  0.5366 -0.8597 -0.4137
  452MOL0     H62324   8.250   1.199  11.983  1.4899 -2.4861  1.0850
  452MOL0     H62325   8.416   1.154  12.207  0.8768 -0.3329  1.1764
  452MOL0     H62326   8.476   1.228  12.444  0.9562 -0.1074  0.0842
  452MOL0     H62327   8.542   1.396  12.471  0.1049  0.7696  0.0171
  452MOL0     H62328   8.677   1.220  12.264  0.7090 -2.0272  1.4513
  452MOL0     H62329   8.743   1.347  12.366 -1.8162  1.7744  2.8676
  452MOL0     H62330   8.690   1.171  12.558 -2.3030  1.3819 -1.0962
  452MOL0     H62331   8.663   1.066  12.428  0.9024 -0.5427 -2.0562
  452MOL0     H62332   8.871   1.029  12.497  0.8504 -0.8908 -0.9268
  452MOL0     H62333   8.889   1.120  12.338  0.6767  2.2620  0.1698
  452MOL0     H62334   9.082   1.001  12.395  0.1828 -0.8977  0.0167
  452MOL0     H62335   9.267   0.851  12.358 -0.1508 -0.0170  0.4305
  452MOL0     H62336   9.397   0.894  12.463  0.5889  2.5401  1.1180
  452MOL0     H62337   9.406   0.932  12.293  0.8827  0.6669  0.2920
  452MOL0     H62338   9.692   1.157  12.604 -1.3687  0.7501  0.0950
  452MOL0     H62339   9.939   1.145  12.644 -0.9609  0.8604 -0.8467
  452MOL0     H62340  10.255   1.362  12.408  0.8824  1.8255  0.9377
  452MOL0     H62341  10.139   1.471  12.475  1.2375  0.8625  0.6025
  452MOL0     H62342  10.260   1.511  12.666  2.7167  0.8925  0.2538
  452MOL0     H62343  10.301   1.337  12.676 -1.0511 -0.8040  0.8375
  452MOL0     H62344  10.431   1.557  12.519  0.9297 -0.8895 -2.8357
  452MOL0     H62345  10.491   1.398  12.494  3.0332  0.1719  0.9436
  452MOL0     H62346  10.521   1.342  12.724  1.1799  0.3703 -1.3484
  452MOL0     H62347  10.501   1.518  12.753  0.2726  0.5512 -0.6121
  452MOL0     H62348  10.714   1.417  12.574 -0.7013  0.3590 -0.2204
  452MOL0     H62349  10.684   1.583  12.617  0.7890 -0.2097 -1.0577
  452MOL0     H62350  10.775   1.366  12.816 -0.8474  0.3712  1.3229
  452MOL0     H62351  10.745   1.530  12.860  5.1624 -2.1949  3.9735
  452MOL0     H62352  10.924   1.597  12.684 -1.3564 -1.1624 -3.0978
  452MOL0     H62353  10.954   1.425  12.667  1.4702  0.1396  0.5018
  452MOL0     H62354  10.990   1.398  12.909  1.1678  0.5747  2.8949
  452MOL0     H62355  10.986   1.571  12.933 -0.1878 -0.4894  1.4139
  452MOL0     H62356   9.997   1.432  12.328  0.4158  0.4037 -0.3423
  452MOL0     H62357   9.735   1.419  12.289  1.5357 -0.9432 -1.5146
  452MOL0     H62358   9.365   1.389  12.530 -0.9024  0.4741  2.6278
  452MOL0     H62359   9.123   1.397  12.565  0.4473  1.1247 -1.8436
  452MOL0     H62360   7.789   1.160  11.097 -2.9439  0.2259  0.6283
  452MOL0     H62361   7.665   1.276  10.902 -0.0347  1.1535 -1.3846
  452MOL0     H62362   7.441   1.569  10.731  2.0292 -0.0647  1.8448
  452MOL0     H62363   7.321   1.709  10.557  0.3604  1.5587  1.7820
  452MOL0     H62364   7.262   1.981  10.330  3.8483  0.0384 -1.0341
  452MOL0     H62365   7.216   1.828  10.407  0.7528 -0.8038 -0.9119
  452MOL0     H62366   7.321   2.091  10.549 -0.8223 -0.5542  1.2300
  452MOL0     H62367   7.317   1.931  10.619 -1.7722 -1.2332 -1.4903
  452MOL0     H62368   7.131   2.092  10.662  4.3969  1.9224 -1.5898
  452MOL0     H62369   7.048   2.048  10.517 -0.8639  2.1024  0.7710
  452MOL0     H62370   7.139   1.844  10.738 -1.0623  0.6042  1.0748
  452MOL0     H62371   7.063   1.804  10.588  0.4236  1.6060 -1.3395
  452MOL0     H62372   6.743   1.928  10.827 -2.4529 -0.2174 -3.7917
  452MOL0     H62373   7.704   1.802  10.372  0.5542  0.9244  0.2452
  452MOL0     H62374   7.888   1.683  10.418  1.9494  1.8756  1.6089
  452MOL0     H62375   7.907   1.650  10.585  0.8529 -1.9834  0.1940
  452MOL0     H62376   7.854   1.514  10.480 -2.7116  0.1379  2.4967
  453MOL0     O62377   9.431   9.246   7.588  0.0847  0.7581 -0.9100
  453MOL0     C62378   9.496   9.305   7.680 -0.5362  0.0858  0.5056
  453MOL0     O62379   9.502   9.276   7.810 -0.3312 -0.1538  0.6404
  453MOL0     C62380   9.449   9.167   7.864 -0.0202 -0.5675  0.5965
  453MOL0     C62381   9.311   9.137   7.834 -0.0458 -0.3984 -0.0779
  453MOL0     C62382   9.242   9.036   7.909  1.1024 -0.5657 -0.3465
  453MOL0     C62383   9.307   8.987   8.024  0.6258  0.5717  0.0281
  453MOL0     O62384   9.248   8.898   8.115  0.2905  0.3868 -0.3002
  453MOL0     C62385   9.103   8.909   8.120  0.2752 -0.5753 -0.2654
  453MOL0     C62386   9.039   8.814   8.217  0.1591 -0.3139 -0.1198
  453MOL0     C62387   9.104   8.829   8.358 -0.2929 -0.4585  0.0987
  453MOL0     C62388   9.047   8.730   8.457  0.1397  0.6947  0.2132
  453MOL0     C62389   9.137   8.710   8.580 -0.1202  0.1012 -0.3150
  453MOL0     C62390   9.271   8.637   8.559 -0.3348  0.5023  0.7579
  453MOL0     C62391   9.263   8.496   8.499 -0.0302 -0.8779  0.2100
  453MOL0     C62392   9.395   8.432   8.467 -0.8989  0.4752  0.3409
  453MOL0     N62393   9.470   8.520   8.370  0.4222 -0.2140  0.8106
  453MOL0     C62394   9.432   8.539   8.238 -0.1351 -0.7324 -0.0157
  453MOL0     C62395   9.536   8.604   8.181 -0.5376  0.1399 -0.4198
  453MOL0     C62396   9.540   8.651   8.035 -0.4182  0.1690 -0.5161
  453MOL0     C62397   9.674   8.704   7.983  1.0635  0.0936  0.3006
  453MOL0     C62398   9.786   8.600   7.966  1.0717 -0.6402  0.3188
  453MOL0     C62399   9.915   8.664   7.917  0.0809 -0.5452  0.6396
  453MOL0     O62400  10.023   8.580   7.949  0.3097  0.2993 -1.0987
  453MOL0     C62401  10.154   8.615   7.922  0.7500 -0.6950  0.2970
  453MOL0     C62402  10.254   8.527   7.960 -0.2441 -0.6242 -0.0740
  453MOL0     C62403  10.390   8.559   7.933 -0.2058 -0.6560 -0.4010
  453MOL0     C62404  10.488   8.441   7.969  0.0516 -0.0754 -0.3635
  453MOL0     C62405  10.427   8.687   7.883 -0.4644  0.1072  0.5071
  453MOL0     C62406  10.568   8.733   7.854  1.2140  0.2032  0.0998
  453MOL0     O62407  10.578   8.860   7.800 -0.4820 -0.2578  0.2754
  453MOL0     C62408  10.698   8.927   7.829 -0.3974 -0.1786  0.4231
  453MOL0     C62409  10.770   8.963   7.713 -0.6453  0.5621  0.6049
  453MOL0     C62410  10.882   9.039   7.720 -0.7668  0.0075  0.1498
  453MOL0     C62411  10.932   9.068   7.847 -0.4751  0.8224  0.4161
  453MOL0     O62412  11.045   9.134   7.838 -0.3539 -0.3842 -0.6293
  453MOL0     C62413  11.070   9.220   7.952  0.0107 -0.4545  0.3646
  453MOL0     C62414  11.219   9.282   7.947  0.2843 -0.1550 -1.3182
  453MOL0     C62415  11.256   9.334   7.809 -0.6992 -0.4568 -0.2624
  453MOL0     C62416  11.378   9.424   7.791  0.1578  0.0907  0.1474
  453MOL0     C62417  11.502   9.394   7.869  0.1898  0.2132 -0.9181
  453MOL0     C62418  11.622   9.460   7.798 -0.4108 -0.5113 -0.8921
  453MOL0     C62419  11.683   9.385   7.679 -0.6140  0.2559 -0.3582
  453MOL0     C62420  11.816   9.451   7.632  0.4851 -0.2534 -0.8183
  453MOL0    Cl62421  11.877   9.375   7.489  0.1564  0.4171  0.7046
  453MOL0     C62422  10.871   9.021   7.965  0.7288  0.5495  0.1388
  453MOL0     C62423  10.750   8.945   7.955 -0.5701 -0.5142  0.1466
  453MOL0     O62424  10.664   8.667   7.885  0.2995  0.8262  0.2602
  453MOL0     C62425  10.326   8.776   7.875  1.2170 -0.7735 -0.4532
  453MOL0     C62426  10.187   8.750   7.887  0.5376 -0.5201 -0.2685
  453MOL0     N62427   9.639   8.610   8.273 -0.1788  0.5945  0.7093
  453MOL0     N62428   9.591   8.570   8.388 -0.8881 -0.5519 -0.5871
  453MOL0     C62429   9.438   9.010   8.047 -0.2539 -0.5832 -0.0419
  453MOL0     C62430   9.514   9.104   7.964  1.2094 -0.6966 -0.9861
  453MOL0     C62431   9.596   9.408   7.642  0.0873 -0.4743  0.5751
  453MOL0     C62432   9.642   9.495   7.741 -0.0567 -0.2222  0.1057
  453MOL0     C62433   9.740   9.591   7.725  0.0015  0.4087  0.5912
  453MOL0     C62434   9.809   9.605   7.605 -1.3438  0.4046  0.0118
  453MOL0     O62435   9.903   9.703   7.589 -0.0392 -0.2009 -0.3074
  453MOL0     C62436   9.902   9.774   7.461 -0.2778 -0.0176 -0.3604
  453MOL0     C62437   9.999   9.892   7.470  0.2025  0.2717 -0.4824
  453MOL0     C62438  10.002   9.969   7.333 -0.8814  0.0293 -0.2109
  453MOL0     C62439  10.105  10.089   7.335 -0.9603  0.1250 -0.1246
  453MOL0     C62440  10.248  10.034   7.340  0.3269 -0.2310  1.0351
  453MOL0     C62441  10.357   9.983   7.336  0.2887  0.1064 -0.6031
  453MOL0     C62442   9.766   9.526   7.498 -0.2231  0.5470 -0.6075
  453MOL0     C62443   9.658   9.431   7.517 -0.5998 -0.0861 -0.0113
  453MOL0     C62444   9.598   9.365   7.392 -1.1871 -0.1701  0.0369
  453MOL0     H62445   9.252   9.192   7.762 -1.9174 -1.6194  0.4571
  453MOL0     H62446   9.136   9.014   7.899  0.9267 -0.8372  1.7267
  453MOL0     H62447   9.048   8.890   8.027  3.8393  0.6343 -2.8261
  453MOL0     H62448   9.089   9.007   8.166  0.3180  0.5330 -2.4720
  453MOL0     H62449   8.934   8.840   8.229 -0.5141 -2.5280 -0.7430
  453MOL0     H62450   9.048   8.711   8.181 -2.0685 -1.8961  3.2885
  453MOL0     H62451   9.212   8.817   8.347  0.2079  2.0146  1.4608
  453MOL0     H62452   9.098   8.932   8.396  3.0308 -0.2119  0.1773
  453MOL0     H62453   8.945   8.766   8.476 -0.8679 -0.3449 -2.5807
  453MOL0     H62454   9.028   8.630   8.415  1.9116  1.2039 -1.9813
  453MOL0     H62455   9.095   8.645   8.657  1.7084  0.9624  1.4768
  453MOL0     H62456   9.151   8.807   8.628  0.5869  0.0985 -0.4985
  453MOL0     H62457   9.332   8.705   8.498  0.9203  1.4846  2.9788
  453MOL0     H62458   9.314   8.635   8.659 -1.8327 -1.4694  1.4140
  453MOL0     H62459   9.201   8.494   8.410  1.7033  0.9618 -1.1301
  453MOL0     H62460   9.229   8.441   8.587  0.7733 -1.1717  0.3473
  453MOL0     H62461   9.455   8.433   8.558 -1.7841  0.2645  0.9345
  453MOL0     H62462   9.376   8.331   8.431 -4.2122  1.3113 -0.6232
  453MOL0     H62463   9.336   8.529   8.188  1.0256  1.4328 -2.9892
  453MOL0     H62464   9.456   8.719   8.025  0.6913  1.3688 -2.2805
  453MOL0     H62465   9.506   8.562   7.982 -0.0083 -1.3544  1.6229
  453MOL0     H62466   9.648   8.755   7.890 -1.2584 -0.1642  0.7619
  453MOL0     H62467   9.711   8.783   8.049 -0.7753  0.5574  0.8282
  453MOL0     H62468   9.800   8.542   8.058 -1.7472  0.0703  1.3027
  453MOL0     H62469   9.757   8.526   7.890 -1.0881 -0.7214  1.1408
  453MOL0     H62470   9.918   8.692   7.811  3.2621  0.7176  0.9742
  453MOL0     H62471   9.924   8.760   7.969 -2.1719 -0.0415  0.2185
  453MOL0     H62472  10.226   8.425   7.981 -0.4564 -0.9109 -1.6429
  453MOL0     H62473  10.447   8.348   8.010 -0.6769 -0.2349 -1.4006
  453MOL0     H62474  10.568   8.474   8.035  1.6529 -0.7785 -1.8788
  453MOL0     H62475  10.535   8.415   7.874  1.7466 -0.4275  0.5488
  453MOL0     H62476  10.721   8.939   7.620 -3.4903 -0.1319  2.1708
  453MOL0     H62477  10.921   9.089   7.632 -4.0776  1.5654 -0.5814
  453MOL0     H62478  10.994   9.299   7.950  0.5324  0.0398 -0.5376
  453MOL0     H62479  11.056   9.178   8.052 -2.1813  3.3015  1.8519
  453MOL0     H62480  11.241   9.362   8.019  2.0290 -0.2928 -1.6403
  453MOL0     H62481  11.275   9.193   7.978 -0.2972 -1.3917 -3.6394
  453MOL0     H62482  11.170   9.393   7.778  0.5960  2.7932  1.8490
  453MOL0     H62483  11.260   9.256   7.732 -0.7505  2.1641 -3.0761
  453MOL0     H62484  11.348   9.529   7.791  0.4587  0.3646 -4.1666
  453MOL0     H62485  11.398   9.412   7.684 -0.0854 -0.9885  0.2151
  453MOL0     H62486  11.495   9.436   7.970 -0.1342 -0.6350 -0.5729
  453MOL0     H62487  11.518   9.287   7.885 -1.2154  0.3292  1.9147
  453MOL0     H62488  11.701   9.469   7.872 -1.1604  1.5709 -0.2876
  453MOL0     H62489  11.590   9.564   7.787 -0.0737 -0.3837 -0.6710
  453MOL0     H62490  11.611   9.378   7.596 -1.9602 -0.8906  0.8506
  453MOL0     H62491  11.697   9.281   7.708  0.4962 -0.0219 -1.7701
  453MOL0     H62492  11.884   9.439   7.717 -1.2061 -1.3764  0.4331
  453MOL0     H62493  11.806   9.557   7.607 -0.5795  0.3734  1.8755
  453MOL0     H62494  10.915   9.043   8.062  0.3370  2.0908 -0.0045
  453MOL0     H62495  10.691   8.906   8.037  0.4466  0.8866  1.5972
  453MOL0     H62496  10.342   8.878   7.840  0.6593  1.2479  4.2986
  453MOL0     H62497  10.112   8.827   7.870 -0.1948 -1.0870  0.3363
  453MOL0     H62498   9.486   8.970   8.136 -1.9532 -0.3648  1.0028
  453MOL0     H62499   9.614   9.138   7.987  0.5150  0.1321  1.0018
  453MOL0     H62500   9.580   9.503   7.830 -0.9068 -2.2544 -0.2318
  453MOL0     H62501   9.780   9.650   7.806  0.7965  0.3307  0.2584
  453MOL0     H62502   9.947   9.714   7.380  0.4575 -1.8578  1.3309
  453MOL0     H62503   9.803   9.807   7.430 -0.6830  0.2563  1.1745
  453MOL0     H62504  10.096   9.846   7.490 -0.8475 -1.8572 -0.0172
  453MOL0     H62505   9.964   9.953   7.554  1.2415 -1.5323  1.3576
  453MOL0     H62506  10.028   9.899   7.253 -1.3456  0.0166 -0.3582
  453MOL0     H62507   9.899  10.000   7.313 -0.2175  0.8980 -2.4864
  453MOL0     H62508  10.083  10.167   7.407 -2.2036  1.5505 -1.9473
  453MOL0     H62509  10.091  10.134   7.236  0.6862  1.4529  0.2043
  453MOL0     H62510  10.442   9.918   7.349 -0.0513  0.0249  1.5234
  453MOL0     H62511   9.815   9.518   7.401 -1.0501 -0.9618 -0.9364
  453MOL0     H62512   9.490   9.380   7.401 -1.1320 -0.2130  0.8730
  453MOL0     H62513   9.643   9.400   7.300 -1.5097  5.8636  1.7566
  453MOL0     H62514   9.615   9.257   7.398 -0.8787 -0.4061 -3.3610
  454MOL0     O62515   6.782  11.376  10.052  0.0540  0.2705  0.5860
  454MOL0     C62516   6.728  11.306   9.963 -0.9282  0.2543 -0.1375
  454MOL0     O62517   6.771  11.177   9.925  0.0801 -0.2520 -0.1964
  454MOL0     C62518   6.883  11.111   9.980  0.2818 -0.4363  0.4565
  454MOL0     C62519   6.874  10.972   9.994 -0.2480  0.4524  0.8539
  454MOL0     C62520   6.976  10.903  10.051 -0.5344  0.0314 -0.1034
  454MOL0     C62521   7.093  10.970  10.079 -0.8951  0.7700  0.1215
  454MOL0     O62522   7.205  10.898  10.117  0.2236 -0.6274  0.7833
  454MOL0     C62523   7.313  10.884  10.023  0.5042 -0.1253 -0.0071
  454MOL0     C62524   7.442  10.822  10.086  1.3433 -0.5813 -0.4608
  454MOL0     C62525   7.508  10.900  10.190  0.9961  0.0605  0.2034
  454MOL0     C62526   7.656  10.878  10.182 -0.3475 -1.2283  0.6242
  454MOL0     C62527   7.732  10.902  10.307 -0.7397 -0.0564 -0.1584
  454MOL0     C62528   7.857  10.815  10.306 -1.2640 -0.3072  0.3036
  454MOL0     C62529   7.942  10.842  10.433 -0.2229 -0.1068  0.2520
  454MOL0     C62530   8.083  10.782  10.430  1.0173 -0.2687 -0.8218
  454MOL0     N62531   8.167  10.829  10.543 -0.1007 -0.2225 -0.3000
  454MOL0     C62532   8.210  10.960  10.565  0.1674 -0.3292  0.8489
  454MOL0     C62533   8.263  10.963  10.686 -0.3688  0.5497 -0.6896
  454MOL0     C62534   8.301  11.082  10.769 -0.3124  0.3047 -0.2226
  454MOL0     C62535   8.329  11.057  10.913  0.0159  0.9106 -0.2348
  454MOL0     C62536   8.346  11.191  11.009 -0.3602  0.4489 -0.2990
  454MOL0     C62537   8.351  11.153  11.156  0.8335  0.4881 -0.1862
  454MOL0     O62538   8.469  11.082  11.182  0.1961 -0.3333  0.0947
  454MOL0     C62539   8.594  11.136  11.167  0.0639 -0.2467 -0.4348
  454MOL0     C62540   8.634  11.271  11.143  0.5427 -0.0631  0.8597
  454MOL0     C62541   8.767  11.302  11.117  0.1733 -0.3941 -0.1211
  454MOL0     C62542   8.794  11.455  11.112 -0.7163 -0.2920  1.2611
  454MOL0     C62543   8.863  11.209  11.134 -0.3226  1.5690  0.9496
  454MOL0     C62544   9.014  11.225  11.122  0.6570 -0.1166  0.3430
  454MOL0     O62545   9.093  11.119  11.136 -0.4598 -0.7543 -0.2053
  454MOL0     C62546   9.231  11.119  11.152 -0.4730 -0.0798  0.1414
  454MOL0     C62547   9.320  11.205  11.085 -0.0609 -0.6093  0.1563
  454MOL0     C62548   9.457  11.180  11.081  0.3278  0.6408  0.0426
  454MOL0     C62549   9.506  11.061  11.138 -0.0217 -0.3406  0.4710
  454MOL0     O62550   9.645  11.051  11.122  0.6504 -0.0652  0.3692
  454MOL0     C62551   9.703  10.944  11.197 -0.2987  0.8256 -0.1002
  454MOL0     C62552   9.838  10.914  11.150 -0.2910 -0.2651 -0.2690
  454MOL0     C62553   9.899  10.803  11.231  0.0493 -0.3009 -0.0563
  454MOL0     C62554  10.032  10.752  11.167 -0.3300 -0.0462 -0.2688
  454MOL0     C62555  10.103  10.636  11.237 -0.8349  0.5386  1.0470
  454MOL0     C62556  10.248  10.613  11.187  0.8048  0.3035  0.5453
  454MOL0     C62557  10.242  10.535  11.058  0.3540  0.5061 -0.3266
  454MOL0     C62558  10.188  10.391  11.082 -0.1112  0.0954 -0.0747
  454MOL0    Cl62559  10.257  10.306  11.219 -0.3221  0.1558  0.3236
  454MOL0     C62560   9.424  10.973  11.219  0.7560 -0.4620  0.3559
  454MOL0     C62561   9.284  11.008  11.223 -1.0411  0.6108  0.8971
  454MOL0     O62562   9.056  11.342  11.115  0.2171 -0.4071  0.4018
  454MOL0     C62563   8.829  11.074  11.160  0.3786 -0.0609 -0.5845
  454MOL0     C62564   8.693  11.042  11.183  0.8783  0.2550 -0.6128
  454MOL0     N62565   8.249  10.832  10.744  0.0488  0.0228 -0.4491
  454MOL0     N62566   8.197  10.755  10.655  0.6008 -0.4609  0.1108
  454MOL0     C62567   7.102  11.108  10.056  0.3572  0.2435  0.6558
  454MOL0     C62568   6.998  11.177  10.010  0.9209 -0.1105 -0.3886
  454MOL0     C62569   6.623  11.373   9.892  0.0912  0.6949  0.9486
  454MOL0     C62570   6.522  11.294   9.831  0.2916  0.4631 -0.8844
  454MOL0     C62571   6.412  11.344   9.759  0.2370 -0.4176 -0.1343
  454MOL0     C62572   6.400  11.481   9.749 -0.3981 -1.5583  0.4076
  454MOL0     O62573   6.285  11.527   9.690 -0.5691 -0.4733  0.8434
  454MOL0     C62574   6.202  11.579   9.788  0.1506 -0.7281 -0.2380
  454MOL0     C62575   6.111  11.467   9.857 -0.0065  0.0263  1.6838
  454MOL0     C62576   5.974  11.436   9.792  0.0907 -0.2464 -0.2430
  454MOL0     C62577   5.900  11.344   9.881  0.2789  0.3579  0.3132
  454MOL0     C62578   5.804  11.264   9.810  0.5960 -0.6671 -0.0079
  454MOL0     C62579   5.722  11.191   9.767 -0.7515  0.2230  0.4919
  454MOL0     C62580   6.504  11.570   9.797  0.5424  0.5795  0.2457
  454MOL0     C62581   6.615  11.517   9.870  0.4159 -0.2270  0.2405
  454MOL0     C62582   6.704  11.622   9.924 -0.4276  0.5709 -0.9448
  454MOL0     H62583   6.784  10.918   9.968  1.8030 -2.0448 -1.6946
  454MOL0     H62584   6.978  10.796  10.067  0.9558 -0.0157 -0.4347
  454MOL0     H62585   7.350  10.980   9.986  3.2707 -2.0789 -2.8576
  454MOL0     H62586   7.286  10.835   9.929  0.0549 -0.6417  0.3821
  454MOL0     H62587   7.412  10.725  10.126  0.7231 -1.2680 -2.4668
  454MOL0     H62588   7.509  10.815   9.999 -0.6806  0.5606 -2.2069
  454MOL0     H62589   7.490  11.006  10.170  0.7826 -0.3169 -1.7998
  454MOL0     H62590   7.467  10.870  10.287 -0.6700  2.7606  0.4554
  454MOL0     H62591   7.676  10.775  10.152  1.2351 -1.0489  0.9888
  454MOL0     H62592   7.703  10.940  10.105 -1.1300 -0.5272  0.6995
  454MOL0     H62593   7.679  10.876  10.399 -1.5900  3.2515  0.4300
  454MOL0     H62594   7.759  11.007  10.318 -3.5299  0.8272 -0.8365
  454MOL0     H62595   7.830  10.709  10.295 -0.5576 -0.2621 -2.6475
  454MOL0     H62596   7.921  10.843  10.222  0.1460  0.0229  1.4515
  454MOL0     H62597   7.885  10.802  10.517 -0.6539 -1.9662 -0.8878
  454MOL0     H62598   7.967  10.948  10.446  0.6093 -0.1034 -1.1609
  454MOL0     H62599   8.066  10.674  10.426  1.6034 -0.5030  1.5250
  454MOL0     H62600   8.121  10.819  10.335  3.0919 -1.0769 -0.3597
  454MOL0     H62601   8.195  11.038  10.491 -2.1113 -1.3640  0.1429
  454MOL0     H62602   8.210  11.144  10.766 -2.1616 -2.2968 -1.1934
  454MOL0     H62603   8.381  11.139  10.722 -3.0111  4.4995 -0.3178
  454MOL0     H62604   8.239  11.007  10.951  0.3331  1.4030  1.2357
  454MOL0     H62605   8.410  10.986  10.929 -2.6613 -1.9733  1.9048
  454MOL0     H62606   8.438  11.243  10.980 -1.0068 -0.4392 -4.5862
  454MOL0     H62607   8.259  11.255  10.993 -0.3988  2.0632  4.8652
  454MOL0     H62608   8.331  11.242  11.217 -3.7322 -1.6686  1.9338
  454MOL0     H62609   8.266  11.087  11.174  1.2250  0.2645  0.9461
  454MOL0     H62610   8.562  11.352  11.139 -2.1569 -2.2940  1.5111
  454MOL0     H62611   8.699  11.508  11.097 -0.1862  0.1282 -1.0471
  454MOL0     H62612   8.853  11.480  11.023 -0.6771 -1.7925  0.8538
  454MOL0     H62613   8.857  11.497  11.191  1.9905 -4.4301  1.5821
  454MOL0     H62614   9.277  11.283  11.022  0.8846 -0.4276 -0.2876
  454MOL0     H62615   9.526  11.236  11.019 -1.1099  0.7325 -1.5529
  454MOL0     H62616   9.720  10.953  11.304  3.9400 -1.9966 -0.2940
  454MOL0     H62617   9.642  10.856  11.172 -2.8076  2.6090 -0.6954
  454MOL0     H62618   9.836  10.873  11.049 -0.5949  0.2406 -0.4687
  454MOL0     H62619   9.895  11.007  11.155 -1.0232  0.2343 -0.9590
  454MOL0     H62620   9.815  10.733  11.227 -1.2069  0.9993  1.8318
  454MOL0     H62621   9.919  10.847  11.329 -0.5253  1.2986 -0.6221
  454MOL0     H62622  10.107  10.830  11.151  2.9662 -2.8307  0.5252
  454MOL0     H62623  10.009  10.720  11.065  3.6729  1.3386 -1.7912
  454MOL0     H62624  10.115  10.663  11.342 -0.6590 -0.7181  1.3690
  454MOL0     H62625  10.032  10.553  11.233 -2.3197  1.7848 -0.3525
  454MOL0     H62626  10.304  10.564  11.267 -1.3971  0.2807  2.1741
  454MOL0     H62627  10.293  10.711  11.168  1.4054 -0.2370 -1.0274
  454MOL0     H62628  10.341  10.523  11.014  1.1583  0.9451  1.3063
  454MOL0     H62629  10.177  10.576  10.980 -2.1268  0.2227  1.4605
  454MOL0     H62630  10.210  10.333  10.992  3.7348  2.0152 -0.5760
  454MOL0     H62631  10.079  10.402  11.073 -0.1061 -1.2546 -2.8623
  454MOL0     H62632   9.463  10.894  11.282 -0.0337 -0.2473  1.1367
  454MOL0     H62633   9.208  10.962  11.286 -1.0671 -1.4423 -0.5374
  454MOL0     H62634   8.907  11.000  11.171  0.4276  0.0929  0.1403
  454MOL0     H62635   8.660  10.941  11.204  0.5861  0.7296  1.3765
  454MOL0     H62636   7.197  11.152  10.083  0.7208 -0.6255  0.8533
  454MOL0     H62637   7.013  11.285  10.005  3.0235 -0.3833 -0.9821
  454MOL0     H62638   6.515  11.187   9.847 -0.0687  0.5412 -0.5166
  454MOL0     H62639   6.336  11.273   9.727  0.2772 -0.0256 -1.1451
  454MOL0     H62640   6.252  11.624   9.874 -2.2280  0.0526  0.8305
  454MOL0     H62641   6.137  11.654   9.742 -0.8559  0.0879  2.2974
  454MOL0     H62642   6.092  11.492   9.962  1.4676  1.6700  1.6011
  454MOL0     H62643   6.171  11.377   9.864  0.7503  0.3574  0.0611
  454MOL0     H62644   5.918  11.529   9.781  0.4021 -0.2676 -2.4282
  454MOL0     H62645   5.991  11.392   9.693  0.0110 -3.1219  0.9252
  454MOL0     H62646   5.848  11.405   9.955 -1.3400 -0.4541 -0.1179
  454MOL0     H62647   5.977  11.281   9.927  1.6467  2.5698  1.2399
  454MOL0     H62648   5.658  11.110   9.737  1.5769 -2.2687  1.8118
  454MOL0     H62649   6.482  11.675   9.782  0.0909  0.0879 -3.2242
  454MOL0     H62650   6.811  11.605   9.912 -0.3905  0.6009 -0.6637
  454MOL0     H62651   6.667  11.714   9.877 -2.5589  0.7539  0.9182
  454MOL0     H62652   6.692  11.629  10.033  0.9905 -0.5232 -0.6969
  455MOL0     O62653   5.208   0.318   4.381 -0.6247  0.1455 -0.0331
  455MOL0     C62654   5.144   0.300   4.483  0.5018 -0.1945  0.7056
  455MOL0     O62655   5.196   0.284   4.613  0.2671 -0.2463  0.6871
  455MOL0     C62656   5.329   0.295   4.637  0.8795  0.0647 -0.5261
  455MOL0     C62657   5.397   0.203   4.717 -0.4361  0.5154 -0.7406
  455MOL0     C62658   5.535   0.225   4.741  0.1246 -0.0014  0.5619
  455MOL0     C62659   5.608   0.331   4.683  0.3542 -0.2892 -0.0488
  455MOL0     O62660   5.739   0.346   4.698  0.6709 -0.2274 -0.0174
  455MOL0     C62661   5.812   0.418   4.603 -0.3352 -0.1818 -0.8978
  455MOL0     C62662   5.959   0.390   4.640 -0.0092  0.4738  0.3431
  455MOL0     C62663   6.025   0.274   4.550 -0.6661 -0.5073 -0.0125
  455MOL0     C62664   6.176   0.290   4.577 -0.1706  0.2303  0.6299
  455MOL0     C62665   6.225   0.196   4.685  0.6938 -0.3423  0.7663
  455MOL0     C62666   6.381   0.189   4.695 -0.8457  0.3661 -0.0515
  455MOL0     C62667   6.436   0.292   4.789  0.7995  0.1875 -0.0433
  455MOL0     C62668   6.467   0.430   4.722  0.0505  0.1169 -0.1023
  455MOL0     N62669   6.592   0.427   4.651 -0.3752 -0.0574  0.4515
  455MOL0     C62670   6.612   0.368   4.528 -0.2954  0.5653  0.2698
  455MOL0     C62671   6.745   0.399   4.492  0.0857  0.4636  0.5124
  455MOL0     C62672   6.809   0.354   4.371  0.1940  0.1308 -0.8553
  455MOL0     C62673   6.953   0.410   4.365 -0.7702  0.2283 -0.0049
  455MOL0     C62674   7.015   0.360   4.237  0.1401 -0.7244  0.3078
  455MOL0     C62675   7.154   0.420   4.213 -0.1236  0.3894 -0.4868
  455MOL0     O62676   7.257   0.366   4.296 -0.4769  0.5837 -0.8162
  455MOL0     C62677   7.331   0.259   4.262 -0.6617  0.5389 -0.1818
  455MOL0     C62678   7.265   0.137   4.230 -0.9899 -0.2974  0.3675
  455MOL0     C62679   7.351   0.024   4.198  0.3698  0.0970 -0.1162
  455MOL0     C62680   7.279  -0.099   4.165  1.1389  0.1651 -0.3519
  455MOL0     C62681   7.494   0.035   4.200  1.3923  0.2468  0.7215
  455MOL0     C62682   7.587  -0.083   4.189  0.4079 -0.0577  0.4791
  455MOL0     O62683   7.544  -0.207   4.238 -0.1340 -0.0608  0.0469
  455MOL0     C62684   7.643  -0.308   4.227 -0.6414  0.2581  0.8386
  455MOL0     C62685   7.759  -0.312   4.303 -0.5560 -0.7064  0.0326
  455MOL0     C62686   7.848  -0.413   4.276 -0.0792 -0.6140 -0.3178
  455MOL0     C62687   7.836  -0.500   4.167  0.1291  0.0652 -0.9726
  455MOL0     O62688   7.932  -0.594   4.127  0.0123 -0.6369 -0.5526
  455MOL0     C62689   8.036  -0.624   4.215  0.1233 -1.0780  0.3328
  455MOL0     C62690   8.102  -0.753   4.169 -0.3378 -0.6818  0.2756
  455MOL0     C62691   8.203  -0.814   4.266  0.0377 -0.1205 -0.5218
  455MOL0     C62692   8.298  -0.921   4.208 -0.0935  0.9122 -0.1970
  455MOL0     C62693   8.399  -0.966   4.319  0.5870 -0.6507 -0.5613
  455MOL0     C62694   8.517  -1.063   4.289  0.7732 -0.0762 -0.0344
  455MOL0     C62695   8.463  -1.177   4.194 -0.1790 -0.2712 -0.0059
  455MOL0     C62696   8.570  -1.289   4.176 -0.2086 -0.3560 -0.1687
  455MOL0    Cl62697   8.577  -1.368   4.335  0.2284  0.2720  0.0187
  455MOL0     C62698   7.717  -0.495   4.091 -0.1465 -0.5148 -0.6489
  455MOL0     C62699   7.619  -0.397   4.115  0.3886 -0.2436 -0.5880
  455MOL0     O62700   7.697  -0.055   4.135  0.1432  0.0671 -0.2223
  455MOL0     C62701   7.552   0.161   4.224 -0.3720  0.6823  0.7395
  455MOL0     C62702   7.470   0.273   4.247 -0.3297 -0.6116  0.3594
  455MOL0     N62703   6.792   0.489   4.584 -0.6247  0.7664  0.0142
  455MOL0     N62704   6.706   0.498   4.683 -0.6868  0.2332  1.0120
  455MOL0     C62705   5.533   0.408   4.593 -0.1303 -1.1373  0.5180
  455MOL0     C62706   5.398   0.393   4.576  0.6126  0.2119  0.5884
  455MOL0     C62707   5.000   0.286   4.476  0.1614  0.2959 -0.2132
  455MOL0     C62708   4.943   0.169   4.435  0.3666  0.1179 -0.7957
  455MOL0     C62709   4.804   0.151   4.437  0.0958  0.7246  0.0367
  455MOL0     C62710   4.714   0.251   4.480 -0.2275 -0.6456 -0.1574
  455MOL0     O62711   4.581   0.252   4.488 -0.7605  0.5932 -0.2024
  455MOL0     C62712   4.524   0.146   4.405 -0.7397 -0.5762  0.6571
  455MOL0     C62713   4.378   0.138   4.453  0.5885  0.4536  0.0601
  455MOL0     C62714   4.303   0.022   4.391  0.3927 -0.3502  0.4934
  455MOL0     C62715   4.157   0.027   4.436  0.0314 -0.0930  0.6495
  455MOL0     C62716   4.077  -0.081   4.380 -0.7784  0.4219 -0.1373
  455MOL0     C62717   4.004  -0.179   4.361 -0.5394 -0.0880  0.1677
  455MOL0     C62718   4.774   0.368   4.528 -0.2992  0.2905 -0.5984
  455MOL0     C62719   4.914   0.387   4.523  1.0531 -0.0197 -0.0271
  455MOL0     C62720   4.965   0.510   4.591  1.1316 -0.7077  0.2716
  455MOL0     H62721   5.349   0.125   4.773  1.3101 -0.2156 -0.1855
  455MOL0     H62722   5.590   0.165   4.813 -0.3057 -1.3264 -0.1954
  455MOL0     H62723   5.785   0.520   4.632 -1.7207 -1.4285  2.7486
  455MOL0     H62724   5.790   0.392   4.499  2.8935 -0.6200 -1.5976
  455MOL0     H62725   6.015   0.483   4.627 -1.3692  1.5310  1.6715
  455MOL0     H62726   5.974   0.370   4.747  0.1264 -3.1812 -0.2416
  455MOL0     H62727   5.992   0.172   4.572 -0.4858 -1.0263 -1.9197
  455MOL0     H62728   6.012   0.299   4.444 -0.3997  1.3980  0.3768
  455MOL0     H62729   6.237   0.269   4.490  0.4086  0.3868  0.9905
  455MOL0     H62730   6.198   0.396   4.598 -1.9727  1.0236 -1.1482
  455MOL0     H62731   6.184   0.096   4.668  0.3768 -0.2684  1.0954
  455MOL0     H62732   6.182   0.220   4.782 -0.8918 -1.0095  0.2653
  455MOL0     H62733   6.410   0.089   4.729  3.1972  1.5124  0.3877
  455MOL0     H62734   6.431   0.196   4.598 -0.3246  0.8432  0.2480
  455MOL0     H62735   6.533   0.265   4.832  1.3952  0.0992 -1.4123
  455MOL0     H62736   6.361   0.305   4.868 -1.4351 -1.8686 -1.7150
  455MOL0     H62737   6.395   0.462   4.647  1.6017 -3.1738 -3.3042
  455MOL0     H62738   6.482   0.501   4.804  0.7012  0.2096 -0.3013
  455MOL0     H62739   6.552   0.298   4.470 -1.3889  1.8285 -0.2016
  455MOL0     H62740   6.751   0.373   4.280 -0.3731 -3.1419 -1.2964
  455MOL0     H62741   6.806   0.245   4.368 -2.2790  0.1652 -2.2272
  455MOL0     H62742   6.945   0.519   4.362  2.3996  0.5273 -2.1080
  455MOL0     H62743   7.013   0.382   4.452 -0.7439 -2.3491 -0.7696
  455MOL0     H62744   7.015   0.252   4.225  1.1852 -0.4082 -4.0057
  455MOL0     H62745   6.960   0.400   4.152  0.7947  1.7100  0.9341
  455MOL0     H62746   7.164   0.413   4.104 -0.4958  0.7345 -0.5408
  455MOL0     H62747   7.149   0.525   4.242 -2.7414  0.4253 -0.8837
  455MOL0     H62748   7.158   0.121   4.232 -0.9283 -0.6881  1.0382
  455MOL0     H62749   7.334  -0.156   4.089  3.3153  0.5026  0.8691
  455MOL0     H62750   7.172  -0.080   4.158  1.2751  2.5481  2.2930
  455MOL0     H62751   7.280  -0.154   4.260  1.3033 -0.6496 -0.8113
  455MOL0     H62752   7.778  -0.240   4.382  3.2787 -0.4972 -0.9112
  455MOL0     H62753   7.924  -0.430   4.351  0.8731 -2.0637 -1.5632
  455MOL0     H62754   8.110  -0.546   4.235 -0.3757 -0.4804 -0.1231
  455MOL0     H62755   8.001  -0.647   4.316  0.5678 -0.8270  0.5468
  455MOL0     H62756   8.028  -0.831   4.148 -1.7442 -0.2129  3.0168
  455MOL0     H62757   8.148  -0.734   4.071  0.5203  0.8284  0.9258
  455MOL0     H62758   8.145  -0.847   4.353 -0.6884  1.8073 -0.2244
  455MOL0     H62759   8.263  -0.730   4.302 -1.2206  1.6675 -2.3625
  455MOL0     H62760   8.340  -0.873   4.120  0.2983  0.9526  0.0079
  455MOL0     H62761   8.236  -1.007   4.179  0.9748 -0.3530  1.0772
  455MOL0     H62762   8.428  -0.871   4.366 -0.1802 -0.7070  0.0728
  455MOL0     H62763   8.340  -1.018   4.396  1.9533 -0.5612  0.5902
  455MOL0     H62764   8.565  -1.097   4.381 -0.6148 -0.0601  0.7271
  455MOL0     H62765   8.589  -1.007   4.229 -0.2044  0.1073 -1.0846
  455MOL0     H62766   8.435  -1.144   4.093  0.8497  0.7365  0.0272
  455MOL0     H62767   8.375  -1.224   4.239 -1.3495  2.9306  1.2799
  455MOL0     H62768   8.667  -1.247   4.146 -0.8760 -0.1211 -2.1534
  455MOL0     H62769   8.544  -1.363   4.100 -0.2177 -1.8637  1.2389
  455MOL0     H62770   7.698  -0.563   4.009  0.9716 -0.1140 -1.2608
  455MOL0     H62771   7.523  -0.397   4.064  0.0738  4.3231 -0.3948
  455MOL0     H62772   7.660   0.162   4.226 -0.1080  1.7904 -3.6908
  455MOL0     H62773   7.511   0.373   4.263 -0.7202 -0.6054  1.4126
  455MOL0     H62774   5.573   0.498   4.546 -1.0623  0.6434  2.9186
  455MOL0     H62775   5.360   0.474   4.515 -1.9107 -0.3084  1.3506
  455MOL0     H62776   4.995   0.076   4.413 -0.6628 -0.5038 -0.6667
  455MOL0     H62777   4.763   0.054   4.410 -1.8837  0.8623  2.2179
  455MOL0     H62778   4.536   0.179   4.302  3.1077  0.0434  1.1767
  455MOL0     H62779   4.571   0.049   4.424  0.1276  0.2121  2.8149
  455MOL0     H62780   4.325   0.231   4.430 -0.1212  0.5094  1.7679
  455MOL0     H62781   4.372   0.146   4.562 -1.0778  1.7670 -0.0845
  455MOL0     H62782   4.305   0.022   4.282 -0.7568 -0.8724  0.4669
  455MOL0     H62783   4.346  -0.074   4.419 -0.7838 -0.7408  1.0331
  455MOL0     H62784   4.110   0.120   4.403  1.2836  1.2373  2.4335
  455MOL0     H62785   4.149   0.019   4.544 -3.1934  1.5709  0.6620
  455MOL0     H62786   3.933  -0.255   4.335 -1.9645  1.4208 -0.5010
  455MOL0     H62787   4.706   0.445   4.564 -1.1111 -0.6975  0.0538
  455MOL0     H62788   4.876   0.559   4.631  1.6723 -1.9331  3.1796
  455MOL0     H62789   5.027   0.482   4.677  1.2206  1.2449  0.8840
  455MOL0     H62790   5.030   0.576   4.531  2.0394  0.1391  2.1055
  456MOL0     O62791   9.287   9.647   1.154 -0.3444 -0.6288  0.2728
  456MOL0     C62792   9.256   9.594   1.042 -0.4461  0.9735 -0.3370
  456MOL0     O62793   9.350   9.550   0.949  0.0800 -0.1184 -0.2955
  456MOL0     C62794   9.480   9.551   0.986 -1.3142  0.7185 -0.0087
  456MOL0     C62795   9.562   9.632   0.918 -0.0981 -0.8018  0.2613
  456MOL0     C62796   9.696   9.636   0.945  0.0214  0.7162 -0.7049
  456MOL0     C62797   9.749   9.561   1.053 -0.1658  0.1464  0.7404
  456MOL0     O62798   9.887   9.584   1.078  0.0809 -0.8113  0.7538
  456MOL0     C62799   9.968   9.488   1.150 -0.1502  0.5562  1.2472
  456MOL0     C62800  10.000   9.366   1.052  0.3078 -0.0133  0.0043
  456MOL0     C62801   9.922   9.233   1.081  0.6104  0.5392 -0.1170
  456MOL0     C62802   9.991   9.111   1.018 -0.0427  0.5335 -0.0776
  456MOL0     C62803  10.115   9.064   1.094  0.9480  0.0179  0.2820
  456MOL0     C62804  10.059   8.985   1.214 -0.4421  0.0071 -0.1970
  456MOL0     C62805  10.182   8.926   1.292  0.6614 -0.6205 -0.8212
  456MOL0     C62806  10.126   8.814   1.387  0.2774 -0.0196 -0.2145
  456MOL0     N62807  10.206   8.790   1.506 -0.8695  0.2891 -1.0167
  456MOL0     C62808  10.321   8.707   1.515 -0.2049  0.0540 -0.3120
  456MOL0     C62809  10.359   8.721   1.652  0.6900  0.2070 -0.5343
  456MOL0     C62810  10.463   8.635   1.728 -0.6248  1.0883 -0.5622
  456MOL0     C62811  10.592   8.716   1.752  0.4630  1.1074 -0.8280
  456MOL0     C62812  10.700   8.685   1.651 -0.6449  0.6432  0.1994
  456MOL0     C62813  10.838   8.742   1.696  0.8247  0.0207  0.4531
  456MOL0     O62814  10.835   8.890   1.717 -0.1598 -0.4812 -0.1618
  456MOL0     C62815  10.929   8.915   1.812 -0.5082 -0.3558 -0.2247
  456MOL0     C62816  10.904   8.917   1.952  0.3637 -0.9077 -0.1443
  456MOL0     C62817  11.013   8.938   2.040 -0.2689  0.0574 -0.6167
  456MOL0     C62818  10.977   8.886   2.185  0.3301  0.1470 -0.4125
  456MOL0     C62819  11.143   8.995   1.994  0.2965 -0.6978  0.1190
  456MOL0     C62820  11.260   9.028   2.087  0.3082 -0.8089 -0.1933
  456MOL0     O62821  11.371   9.095   2.033 -0.2588 -0.9601  0.1595
  456MOL0     C62822  11.460   9.135   2.130 -0.1419  0.1860 -0.8922
  456MOL0     C62823  11.586   9.075   2.152  0.2095 -0.2370 -0.1254
  456MOL0     C62824  11.680   9.126   2.243  0.1309  0.5786 -0.1262
  456MOL0     C62825  11.639   9.230   2.334  0.0268 -0.4861  0.1827
  456MOL0     O62826  11.726   9.292   2.424 -0.9061  0.1447 -0.3064
  456MOL0     C62827  11.860   9.243   2.430  0.0922 -0.1710  0.1706
  456MOL0     C62828  11.922   9.303   2.569 -0.5115  0.1989  0.3862
  456MOL0     C62829  11.889   9.234   2.701  0.1063 -0.3819 -0.5397
  456MOL0     C62830  11.967   9.114   2.733  0.6981  0.0276 -0.1457
  456MOL0     C62831  11.936   9.064   2.877 -0.3801  0.8475 -0.9638
  456MOL0     C62832  11.992   9.141   2.997 -0.3410  0.3907 -0.0711
  456MOL0     C62833  11.957   9.078   3.135  0.0048  0.0959  0.2176
  456MOL0     C62834  12.012   9.169   3.238 -0.8133 -1.1641  0.5482
  456MOL0    Cl62835  11.892   9.172   3.378  0.1744  0.2742 -0.0874
  456MOL0     C62836  11.508   9.286   2.321  0.3958  0.1038 -0.5118
  456MOL0     C62837  11.423   9.242   2.222  0.3448  0.4007 -0.2998
  456MOL0     O62838  11.247   9.000   2.205 -0.3249  0.6290  0.3231
  456MOL0     C62839  11.162   8.995   1.850  0.7579 -0.0394  0.7922
  456MOL0     C62840  11.061   8.945   1.759 -0.6613 -0.2337 -0.7219
  456MOL0     N62841  10.261   8.796   1.714 -1.1334 -0.4242  0.4464
  456MOL0     N62842  10.172   8.839   1.630  0.1606  0.2867  0.3773
  456MOL0     C62843   9.671   9.463   1.110 -0.4254  0.3256  0.4221
  456MOL0     C62844   9.536   9.457   1.079  0.0106  0.2412 -0.2962
  456MOL0     C62845   9.113   9.599   0.992  0.4265  0.3339  0.5136
  456MOL0     C62846   9.088   9.563   0.858 -0.1077 -0.4427 -0.0300
  456MOL0     C62847   8.958   9.555   0.808 -0.0700 -0.1775 -0.1124
  456MOL0     C62848   8.850   9.590   0.882  0.3863 -0.7046  0.3931
  456MOL0     O62849   8.724   9.579   0.819 -0.3179  0.0208  0.4244
  456MOL0     C62850   8.612   9.607   0.898  0.5016  0.0811  0.8013
  456MOL0     C62851   8.482   9.572   0.818 -0.1567 -0.0843 -0.0187
  456MOL0     C62852   8.431   9.441   0.879 -0.3567 -0.1320 -0.7706
  456MOL0     C62853   8.299   9.415   0.815  0.2368 -0.7737 -0.1129
  456MOL0     C62854   8.234   9.291   0.864  0.0379  0.1599  0.2422
  456MOL0     C62855   8.175   9.187   0.882  0.1255  0.8031 -0.5453
  456MOL0     C62856   8.874   9.621   1.015 -0.3161 -0.0088 -0.1394
  456MOL0     C62857   8.998   9.634   1.074 -1.1817  0.7964  0.2707
  456MOL0     C62858   8.999   9.668   1.220 -0.1656 -0.4326 -0.3516
  456MOL0     H62859   9.518   9.685   0.834 -0.9801  0.2251  1.3460
  456MOL0     H62860   9.758   9.701   0.884 -1.2287  2.4005 -0.2404
  456MOL0     H62861   9.913   9.457   1.239  1.9143  1.9930  3.1361
  456MOL0     H62862  10.062   9.530   1.188  0.1706 -0.4146  1.5564
  456MOL0     H62863   9.987   9.402   0.950 -0.1116  0.6770  0.2917
  456MOL0     H62864  10.106   9.341   1.059  0.3766  0.1765 -0.3550
  456MOL0     H62865   9.920   9.216   1.189 -0.9334  0.9597 -0.0563
  456MOL0     H62866   9.820   9.240   1.042  0.7967  1.3176 -0.4757
  456MOL0     H62867   9.916   9.031   1.019  0.2748  0.2109 -1.0275
  456MOL0     H62868  10.021   9.140   0.917 -0.5510 -0.0384 -0.4001
  456MOL0     H62869  10.167   9.152   1.131 -0.4071  0.3285  1.5495
  456MOL0     H62870  10.179   8.998   1.035  3.5806  1.4513  1.3809
  456MOL0     H62871  10.005   9.045   1.288 -2.4041 -1.0758 -0.7091
  456MOL0     H62872   9.993   8.902   1.189 -0.0763 -1.0951  2.1955
  456MOL0     H62873  10.235   9.009   1.340 -0.7851  1.0948 -2.0342
  456MOL0     H62874  10.250   8.870   1.227  0.4524 -2.2078  0.2915
  456MOL0     H62875  10.026   8.852   1.410  1.4123  3.8411 -0.9142
  456MOL0     H62876  10.105   8.719   1.338  1.0074 -0.0626 -0.4486
  456MOL0     H62877  10.376   8.655   1.436  1.7214  1.4954 -0.0030
  456MOL0     H62878  10.484   8.548   1.664  0.5233  0.4088  0.6629
  456MOL0     H62879  10.422   8.587   1.817  0.6318 -0.0026 -0.5373
  456MOL0     H62880  10.584   8.824   1.761 -1.0436  0.8689  1.5131
  456MOL0     H62881  10.631   8.683   1.849  0.9104 -1.1732 -1.7196
  456MOL0     H62882  10.707   8.575   1.654  0.6902  0.7169  0.2675
  456MOL0     H62883  10.663   8.721   1.555 -2.6902 -3.9416 -1.0526
  456MOL0     H62884  10.858   8.682   1.785 -2.5758 -1.7217  0.2207
  456MOL0     H62885  10.914   8.709   1.625 -2.1685 -3.5487 -1.4806
  456MOL0     H62886  10.807   8.908   1.999  0.9481 -0.5079  1.1759
  456MOL0     H62887  10.899   8.811   2.174  2.9736 -2.5688 -2.3488
  456MOL0     H62888  10.944   8.969   2.249  0.5391  0.5926 -0.8712
  456MOL0     H62889  11.057   8.829   2.234  2.2319  0.9304 -2.4306
  456MOL0     H62890  11.622   9.009   2.074  2.4073  1.0028 -0.2397
  456MOL0     H62891  11.778   9.080   2.238 -0.6453 -1.2371  0.4281
  456MOL0     H62892  11.851   9.134   2.438  2.6587 -0.5808 -1.5079
  456MOL0     H62893  11.922   9.269   2.344 -2.5408  1.6150 -1.3604
  456MOL0     H62894  12.031   9.290   2.570 -0.7326 -2.0463  1.1143
  456MOL0     H62895  11.893   9.408   2.579  0.8754  0.7159 -0.7176
  456MOL0     H62896  11.782   9.209   2.700 -0.3121  1.2707 -0.3470
  456MOL0     H62897  11.915   9.310   2.775  1.6863  0.0369 -1.4828
  456MOL0     H62898  12.074   9.129   2.717  1.4633 -3.4449  0.9433
  456MOL0     H62899  11.948   9.032   2.663  1.1610 -0.5568  0.4046
  456MOL0     H62900  11.832   9.040   2.899  0.2530  0.6661  2.2466
  456MOL0     H62901  11.990   8.968   2.872 -0.2125  0.9141 -0.4167
  456MOL0     H62902  11.957   9.244   2.989  1.4838  1.0473 -0.0150
  456MOL0     H62903  12.100   9.141   2.982  0.5777  3.7096  4.4730
  456MOL0     H62904  11.991   8.975   3.153 -1.2649 -0.4694 -0.4995
  456MOL0     H62905  11.848   9.081   3.145  0.0008  0.3574  0.1029
  456MOL0     H62906  12.023   9.271   3.199 -1.7298  0.3769  3.9126
  456MOL0     H62907  12.110   9.138   3.276  0.2291 -1.8215 -2.4136
  456MOL0     H62908  11.469   9.372   2.375  0.4157 -0.6399  0.7179
  456MOL0     H62909  11.322   9.278   2.205  0.3731 -0.5578 -2.9541
  456MOL0     H62910  11.264   9.009   1.817  1.1136 -1.1075  1.3640
  456MOL0     H62911  11.073   8.927   1.652 -1.6672  0.2428 -0.9276
  456MOL0     H62912   9.717   9.413   1.194 -0.9533 -0.4402  0.2662
  456MOL0     H62913   9.472   9.375   1.111  2.4044 -1.5492  0.1632
  456MOL0     H62914   9.168   9.536   0.790 -1.2432 -1.1606 -1.1289
  456MOL0     H62915   8.941   9.516   0.708  0.6636  4.7281 -2.4688
  456MOL0     H62916   8.621   9.550   0.991 -1.5367 -1.9909 -0.1379
  456MOL0     H62917   8.617   9.710   0.935  1.3138  0.0725  0.7236
  456MOL0     H62918   8.498   9.564   0.711  0.0679  1.3180 -0.1037
  456MOL0     H62919   8.404   9.648   0.821  0.0676  0.3009 -2.3592
  456MOL0     H62920   8.507   9.363   0.873 -1.0796 -0.8227 -1.1759
  456MOL0     H62921   8.412   9.466   0.984  0.8642  2.2349 -1.0359
  456MOL0     H62922   8.313   9.411   0.707  1.9405 -0.5362  0.0687
  456MOL0     H62923   8.228   9.497   0.831  1.6869  0.2342  1.5110
  456MOL0     H62924   8.117   9.097   0.890  0.3223  0.8646  2.5250
  456MOL0     H62925   8.786   9.633   1.077 -2.2978 -1.8093 -2.3896
  456MOL0     H62926   8.905   9.687   1.273  0.2082 -0.4860  0.3444
  456MOL0     H62927   9.044   9.589   1.281  0.8608  0.2908 -0.1402
  456MOL0     H62928   9.047   9.764   1.237 -1.3784 -0.0227  0.9871
  457MOL0     O62929   7.560   0.959   5.341  0.3649  0.0534  0.3483
  457MOL0     C62930   7.455   0.952   5.269 -0.5412 -0.8591 -0.6122
  457MOL0     O62931   7.419   0.839   5.199 -0.5147  0.3606 -0.0497
  457MOL0     C62932   7.501   0.728   5.217 -0.5096 -0.3010 -1.2514
  457MOL0     C62933   7.445   0.622   5.291  0.5662 -0.4930 -0.1698
  457MOL0     C62934   7.520   0.516   5.324 -0.1701  0.9259 -0.3782
  457MOL0     C62935   7.649   0.493   5.275 -0.5059 -0.1440  0.9157
  457MOL0     O62936   7.722   0.389   5.320  0.2257  0.8493 -0.3519
  457MOL0     C62937   7.758   0.380   5.451 -0.7747  0.8083  0.3184
  457MOL0     C62938   7.907   0.345   5.449 -0.5130  0.3008  0.1239
  457MOL0     C62939   8.004   0.447   5.396  0.0941  0.5667  0.0873
  457MOL0     C62940   7.984   0.587   5.460  0.6003 -0.5659  0.1247
  457MOL0     C62941   8.117   0.670   5.456  0.5134  0.1008  0.2163
  457MOL0     C62942   8.118   0.815   5.511  0.3849  0.6021 -1.0863
  457MOL0     C62943   7.986   0.888   5.470  0.2802  0.0645 -0.5186
  457MOL0     C62944   7.965   1.031   5.533  0.2483  0.0701  0.2551
  457MOL0     N62945   8.036   1.139   5.463 -0.5735  0.3104  0.2822
  457MOL0     C62946   7.978   1.228   5.373  0.2725 -0.7208 -0.2412
  457MOL0     C62947   8.079   1.293   5.316 -0.2024  0.0936  0.7019
  457MOL0     C62948   8.072   1.381   5.188 -0.5472  0.9249  0.0983
  457MOL0     C62949   8.094   1.525   5.211  0.2431  0.7772 -0.1401
  457MOL0     C62950   8.100   1.603   5.080  0.1834 -0.0205  0.1598
  457MOL0     C62951   7.991   1.705   5.062 -0.7142  0.2901  0.9274
  457MOL0     O62952   7.870   1.640   5.043  0.2275  0.5816 -0.4503
  457MOL0     C62953   7.756   1.709   5.035  0.6557 -0.1125 -0.1117
  457MOL0     C62954   7.636   1.641   5.026  0.0975  0.7187 -0.4463
  457MOL0     C62955   7.515   1.706   4.999  0.5275 -0.3949  0.3714
  457MOL0     C62956   7.386   1.617   4.991  0.3850 -0.3445  0.5150
  457MOL0     C62957   7.511   1.847   4.976  0.8489  0.5926  0.4976
  457MOL0     C62958   7.387   1.914   4.920 -0.9820 -0.0320 -0.3155
  457MOL0     O62959   7.269   1.842   4.897  0.1112 -0.1600 -0.8011
  457MOL0     C62960   7.150   1.898   4.880 -0.1388  0.7940  0.6737
  457MOL0     C62961   7.055   1.807   4.829 -0.4639 -0.3767  0.0028
  457MOL0     C62962   6.919   1.841   4.812 -0.3980 -0.1800  0.9114
  457MOL0     C62963   6.879   1.977   4.814  0.5530  0.4869  1.1092
  457MOL0     O62964   6.754   2.013   4.771  0.2645  0.6661 -0.0510
  457MOL0     C62965   6.717   2.151   4.748  0.4605  0.0878 -0.0570
  457MOL0     C62966   6.649   2.210   4.882 -0.1066 -0.3027 -0.6039
  457MOL0     C62967   6.531   2.132   4.932 -0.9611  0.2350  0.2125
  457MOL0     C62968   6.472   2.206   5.044  0.6872 -0.2739 -0.0105
  457MOL0     C62969   6.364   2.119   5.119 -0.3687 -0.0608  0.2395
  457MOL0     C62970   6.336   2.179   5.256  0.0402  0.5598  0.5576
  457MOL0     C62971   6.309   2.061   5.355 -0.3238  0.5700  0.0328
  457MOL0     C62972   6.262   2.113   5.485  0.0225 -0.3898  0.2098
  457MOL0    Cl62973   6.383   2.224   5.545 -0.2827 -0.0930  0.2482
  457MOL0     C62974   6.977   2.069   4.864  0.5031 -1.0614 -0.0552
  457MOL0     C62975   7.106   2.028   4.899  0.0223  0.9038  0.7802
  457MOL0     O62976   7.405   2.034   4.921 -0.9398  0.0669  0.9266
  457MOL0     C62977   7.632   1.917   4.984  0.1084  0.3250  0.6922
  457MOL0     C62978   7.754   1.847   5.015  0.2182  1.1455 -0.1029
  457MOL0     N62979   8.200   1.242   5.369  0.1851 -0.4652  0.0018
  457MOL0     N62980   8.175   1.151   5.458 -0.8179  0.6300  0.5615
  457MOL0     C62981   7.699   0.589   5.185  1.2162 -0.2154  0.0436
  457MOL0     C62982   7.623   0.704   5.157  0.1024  0.0100 -0.0194
  457MOL0     C62983   7.353   1.063   5.266 -0.2485  0.4395  0.9619
  457MOL0     C62984   7.220   1.038   5.214 -0.4285  0.1212  0.3929
  457MOL0     C62985   7.131   1.141   5.224  0.0709  0.0818 -0.0450
  457MOL0     C62986   7.164   1.263   5.282 -0.3781  0.4470  0.5175
  457MOL0     O62987   7.058   1.354   5.283 -0.7274  1.3325  0.6875
  457MOL0     C62988   7.069   1.471   5.370 -0.1735 -0.4994 -0.0188
  457MOL0     C62989   7.064   1.439   5.514 -0.9696 -0.4894 -0.1291
  457MOL0     C62990   7.061   1.568   5.591 -0.0699  0.1336 -0.2125
  457MOL0     C62991   7.188   1.645   5.578  0.5486 -0.4431  0.1499
  457MOL0     C62992   7.318   1.587   5.623  0.1669  1.0045 -0.0405
  457MOL0     C62993   7.419   1.530   5.651 -0.6318  0.2994  0.2618
  457MOL0     C62994   7.297   1.293   5.318 -1.0937  0.4225  0.4179
  457MOL0     C62995   7.400   1.195   5.296  0.5528  0.7874 -0.0340
  457MOL0     C62996   7.542   1.246   5.311 -0.0261 -0.7702  0.0922
  457MOL0     H62997   7.350   0.632   5.342 -0.0709  0.1991 -1.4159
  457MOL0     H62998   7.476   0.440   5.387  1.6023 -0.6472 -0.9159
  457MOL0     H62999   7.706   0.297   5.500 -2.4831  1.0874 -0.9411
  457MOL0     H63000   7.730   0.474   5.501  0.6530  1.0205  0.7738
  457MOL0     H63001   7.941   0.321   5.550 -0.5402  0.3044  0.1342
  457MOL0     H63002   7.907   0.253   5.390  1.7091 -0.1028  0.6536
  457MOL0     H63003   8.104   0.405   5.410 -0.0176 -1.1297 -3.3864
  457MOL0     H63004   7.988   0.443   5.288 -0.1810 -1.5985  0.1600
  457MOL0     H63005   7.905   0.642   5.408  0.8908  0.1445  0.4135
  457MOL0     H63006   7.950   0.561   5.560 -2.1316  1.9960 -0.0202
  457MOL0     H63007   8.153   0.671   5.353 -1.4867  2.3611 -0.5509
  457MOL0     H63008   8.175   0.609   5.526  0.8208  1.0786  0.8289
  457MOL0     H63009   8.128   0.813   5.620  0.6845 -0.2889 -1.1231
  457MOL0     H63010   8.202   0.877   5.477 -0.5269  1.6086 -1.5522
  457MOL0     H63011   7.900   0.835   5.510 -0.1814  1.0890 -0.1233
  457MOL0     H63012   7.960   0.873   5.365 -3.6460 -2.1682  0.5825
  457MOL0     H63013   7.859   1.055   5.520 -0.8025 -3.9272  0.3436
  457MOL0     H63014   7.977   1.026   5.641 -1.5550 -0.9739  0.4393
  457MOL0     H63015   7.872   1.226   5.349  0.1625 -0.8469  0.2516
  457MOL0     H63016   7.974   1.382   5.139 -0.6286  3.0136  0.2254
  457MOL0     H63017   8.137   1.329   5.118 -1.5406 -0.6566  0.2873
  457MOL0     H63018   8.013   1.560   5.275 -0.4384 -0.2549 -0.3966
  457MOL0     H63019   8.187   1.543   5.266  1.2948  1.0317 -1.9135
  457MOL0     H63020   8.195   1.651   5.057 -0.5634  2.1740  1.3650
  457MOL0     H63021   8.085   1.519   5.010 -2.1041  0.0117  0.5180
  457MOL0     H63022   7.984   1.771   5.149 -0.0979  0.9213  0.5084
  457MOL0     H63023   8.009   1.757   4.968 -2.7625  0.2309  0.4513
  457MOL0     H63024   7.629   1.534   5.039 -1.3540  0.3260 -3.4801
  457MOL0     H63025   7.404   1.511   5.015  1.9475  0.1113  1.5433
  457MOL0     H63026   7.351   1.614   4.888  0.5219 -0.9473  0.4814
  457MOL0     H63027   7.313   1.661   5.059 -1.4256  0.9524 -2.1283
  457MOL0     H63028   7.099   1.711   4.803  0.2715 -0.1421  0.3429
  457MOL0     H63029   6.845   1.770   4.777 -1.1255  1.2077 -0.4714
  457MOL0     H63030   6.800   2.210   4.710  0.3857 -0.3846 -0.9994
  457MOL0     H63031   6.650   2.150   4.661  2.7770 -0.5011 -1.9629
  457MOL0     H63032   6.730   2.199   4.954 -0.2128  1.9087 -0.0924
  457MOL0     H63033   6.625   2.316   4.871 -2.1072  0.1562  5.2825
  457MOL0     H63034   6.553   2.026   4.951  0.5503  0.8251  2.0765
  457MOL0     H63035   6.455   2.126   4.854 -0.7817  0.8264 -0.0116
  457MOL0     H63036   6.419   2.294   5.005  0.6684 -1.4955 -3.0111
  457MOL0     H63037   6.551   2.237   5.113 -1.4611 -1.9186  3.4158
  457MOL0     H63038   6.273   2.103   5.060  0.3308  2.7667 -1.7770
  457MOL0     H63039   6.397   2.014   5.117 -3.2419 -1.0607 -1.9673
  457MOL0     H63040   6.253   2.242   5.225  0.3219  0.8692  0.4240
  457MOL0     H63041   6.424   2.237   5.285  1.2230  0.3960 -2.3690
  457MOL0     H63042   6.402   2.008   5.377  0.5149  1.4714 -1.1971
  457MOL0     H63043   6.244   1.983   5.313 -0.0168  0.7263 -0.7550
  457MOL0     H63044   6.250   2.032   5.558  0.1346 -0.4842  0.1238
  457MOL0     H63045   6.172   2.175   5.474  1.2353  1.4354  0.0823
  457MOL0     H63046   6.944   2.171   4.882 -1.8997 -1.3772 -2.0317
  457MOL0     H63047   7.178   2.094   4.947  1.1772 -0.5429  1.0971
  457MOL0     H63048   7.637   2.023   4.964 -1.4316  0.7151  2.1564
  457MOL0     H63049   7.848   1.900   5.012  1.6588 -1.1039  1.6890
  457MOL0     H63050   7.787   0.562   5.128  0.6824  1.4568 -1.6833
  457MOL0     H63051   7.666   0.782   5.094  0.4301  0.7936  1.1354
  457MOL0     H63052   7.184   0.939   5.187  1.0660 -1.4741  3.6677
  457MOL0     H63053   7.026   1.137   5.197  0.3393  0.1696 -1.1685
  457MOL0     H63054   7.161   1.528   5.357 -0.9355  0.9382  0.6372
  457MOL0     H63055   6.981   1.527   5.339 -1.2325 -3.6356 -3.3833
  457MOL0     H63056   7.144   1.373   5.546  0.8779  2.4106  1.6331
  457MOL0     H63057   6.974   1.383   5.543  0.0971 -1.7529  0.8264
  457MOL0     H63058   6.970   1.625   5.567 -1.9657 -2.6513 -0.0683
  457MOL0     H63059   7.050   1.534   5.694 -0.0365  1.5770  0.2844
  457MOL0     H63060   7.175   1.737   5.636  1.1653 -0.2060 -0.0845
  457MOL0     H63061   7.192   1.682   5.475 -1.2972 -1.4745 -0.3398
  457MOL0     H63062   7.500   1.462   5.670  0.1087  0.8258 -0.8854
  457MOL0     H63063   7.331   1.389   5.357 -1.2656  0.0825  1.4377
  457MOL0     H63064   7.537   1.353   5.290  0.6100 -0.1785  2.6426
  457MOL0     H63065   7.584   1.245   5.412  1.4526  2.4403 -0.3796
  457MOL0     H63066   7.600   1.198   5.231  0.5436  0.3470 -0.1859
  458MOL0     O63067   1.812   0.101   7.873  0.4848 -0.6975 -0.4713
  458MOL0     C63068   1.756   0.192   7.927 -0.4921  0.0333  0.3690
  458MOL0     O63069   1.817   0.314   7.960  0.4566  0.2167 -0.1344
  458MOL0     C63070   1.950   0.337   7.939  0.1299 -0.4840  0.0422
  458MOL0     C63071   2.059   0.251   7.960 -0.5197 -0.3123 -0.4374
  458MOL0     C63072   2.186   0.288   7.929  0.7537 -0.0875  0.3865
  458MOL0     C63073   2.214   0.426   7.897 -0.0038  0.9208 -0.1687
  458MOL0     O63074   2.345   0.471   7.868 -0.4033  0.3384  0.8009
  458MOL0     C63075   2.452   0.375   7.881 -0.6614  0.9267  0.0121
  458MOL0     C63076   2.585   0.437   7.849 -0.3618  0.2748 -0.1822
  458MOL0     C63077   2.595   0.538   7.728  0.1362 -0.7027  0.4201
  458MOL0     C63078   2.623   0.471   7.596 -0.7538  0.4005  1.1033
  458MOL0     C63079   2.620   0.563   7.469 -0.2862  0.3863  0.0241
  458MOL0     C63080   2.748   0.650   7.475  0.1207 -0.5075 -0.3748
  458MOL0     C63081   2.875   0.570   7.416 -0.3189  0.3203 -0.4373
  458MOL0     C63082   2.998   0.659   7.438  0.3455  0.0950 -0.1663
  458MOL0     N63083   3.132   0.607   7.404  1.1267 -0.2363 -0.0471
  458MOL0     C63084   3.205   0.637   7.291 -0.1388  0.6052  0.5155
  458MOL0     C63085   3.333   0.593   7.318  0.2622 -0.1306  0.0477
  458MOL0     C63086   3.423   0.572   7.205  0.1979 -0.2747  0.5433
  458MOL0     C63087   3.505   0.693   7.171 -0.1461 -0.3513  0.1311
  458MOL0     C63088   3.605   0.687   7.061 -0.3227 -0.5148  0.3251
  458MOL0     C63089   3.730   0.608   7.099  1.0969  0.5639  0.2166
  458MOL0     O63090   3.712   0.464   7.109  0.1793 -0.1485 -0.3466
  458MOL0     C63091   3.815   0.388   7.144  0.2052 -0.7694  0.1825
  458MOL0     C63092   3.950   0.428   7.140  0.4248  0.0527  0.3279
  458MOL0     C63093   4.059   0.350   7.165  0.0204  0.6486  0.3600
  458MOL0     C63094   4.195   0.402   7.143 -0.0631  0.3621 -0.7584
  458MOL0     C63095   4.034   0.221   7.217  0.6488  1.3369 -0.7163
  458MOL0     C63096   4.137   0.134   7.281 -0.3641 -0.9038  0.7013
  458MOL0     O63097   4.272   0.183   7.296  0.4913  0.1796 -0.7113
  458MOL0     C63098   4.385   0.114   7.332 -0.3516 -1.0735  0.3073
  458MOL0     C63099   4.490   0.188   7.385  0.2477 -0.2301  0.2590
  458MOL0     C63100   4.601   0.125   7.433 -0.6538 -0.7782 -0.8526
  458MOL0     C63101   4.613  -0.018   7.446  0.5550  0.3496 -0.5019
  458MOL0     O63102   4.721  -0.073   7.509 -0.0748  0.5677 -0.7635
  458MOL0     C63103   4.851  -0.038   7.459 -0.2263 -0.8097 -0.0867
  458MOL0     C63104   4.961  -0.134   7.507  0.4032 -0.6545 -0.2295
  458MOL0     C63105   4.959  -0.261   7.430 -0.0619  0.6814 -0.2918
  458MOL0     C63106   5.061  -0.357   7.486 -0.0687 -0.5786  0.8980
  458MOL0     C63107   5.082  -0.474   7.386 -0.0122 -0.7533 -0.0599
  458MOL0     C63108   5.216  -0.472   7.313  1.0070 -0.7192  0.2065
  458MOL0     C63109   5.341  -0.503   7.397 -0.0054 -0.1380 -0.1673
  458MOL0     C63110   5.462  -0.487   7.304  0.1832 -1.2201 -0.4932
  458MOL0    Cl63111   5.608  -0.581   7.371  0.2835  0.3274  0.0046
  458MOL0     C63112   4.508  -0.094   7.397  0.7538  0.2359 -0.2795
  458MOL0     C63113   4.389  -0.028   7.339 -0.0470 -0.3421  0.4049
  458MOL0     O63114   4.104   0.022   7.317  0.2087 -0.4361 -0.1588
  458MOL0     C63115   3.898   0.179   7.219 -0.5921  0.0975  0.3876
  458MOL0     C63116   3.789   0.260   7.177 -0.3772  0.3292 -0.0645
  458MOL0     N63117   3.334   0.543   7.448 -0.6649  0.6470  0.2496
  458MOL0     N63118   3.219   0.557   7.497 -0.4919  0.8742 -0.3428
  458MOL0     C63119   2.112   0.513   7.883  0.6363 -0.1792  0.1521
  458MOL0     C63120   1.980   0.474   7.904  0.9054 -0.6704 -0.6378
  458MOL0     C63121   1.617   0.177   7.956  0.0673  0.1908  0.1101
  458MOL0     C63122   1.565   0.069   8.030  0.1540  0.4284 -0.6623
  458MOL0     C63123   1.430   0.056   8.068  0.1351  0.0760  1.0310
  458MOL0     C63124   1.340   0.140   8.025  0.0453 -0.3915  1.0413
  458MOL0     O63125   1.212   0.133   8.069 -0.1112  0.6166 -0.1160
  458MOL0     C63126   1.118   0.063   7.986 -0.1345 -0.6439  0.8698
  458MOL0     C63127   1.025  -0.022   8.072  0.3628 -0.0850  0.8378
  458MOL0     C63128   1.092  -0.146   8.144 -0.2152 -0.1619  0.6547
  458MOL0     C63129   0.990  -0.231   8.223  0.0612 -0.2983  0.0211
  458MOL0     C63130   1.071  -0.323   8.310 -0.5401  0.4317  0.6521
  458MOL0     C63131   1.122  -0.416   8.370 -0.2863 -1.1392  0.0317
  458MOL0     C63132   1.385   0.244   7.942 -0.2758  0.4082  0.5593
  458MOL0     C63133   1.521   0.266   7.909  0.2552  0.0401 -0.2833
  458MOL0     C63134   1.579   0.372   7.809  1.2590 -0.4780 -0.9922
  458MOL0     H63135   2.041   0.150   7.996  0.6197  0.2324  1.8670
  458MOL0     H63136   2.260   0.209   7.932 -1.6033 -2.5328 -0.9261
  458MOL0     H63137   2.446   0.285   7.819  2.2832 -2.2165  3.8535
  458MOL0     H63138   2.454   0.328   7.979 -0.5849 -2.9079 -1.6458
  458MOL0     H63139   2.627   0.494   7.932 -0.5462  0.1264  0.0135
  458MOL0     H63140   2.663   0.364   7.824  3.2008  1.8230  4.6969
  458MOL0     H63141   2.504   0.598   7.718  2.4555  2.8181 -1.7795
  458MOL0     H63142   2.680   0.603   7.750 -0.7187  0.5844  0.0271
  458MOL0     H63143   2.721   0.423   7.603 -0.0159  1.0794 -2.5485
  458MOL0     H63144   2.544   0.397   7.582  1.5484 -1.7028 -2.1690
  458MOL0     H63145   2.527   0.620   7.478 -0.1137  0.8533 -1.0275
  458MOL0     H63146   2.616   0.502   7.379 -0.8612 -1.3252  1.1523
  458MOL0     H63147   2.732   0.736   7.410  0.5522 -0.1943 -0.0782
  458MOL0     H63148   2.773   0.681   7.577  1.2668 -3.0547  0.1948
  458MOL0     H63149   2.853   0.560   7.309 -0.2341 -0.9062 -0.3554
  458MOL0     H63150   2.898   0.474   7.463  1.4856  1.8418  2.0414
  458MOL0     H63151   2.980   0.764   7.411 -1.9234  0.8870  3.8049
  458MOL0     H63152   3.009   0.662   7.546  2.2606 -1.4329 -0.2709
  458MOL0     H63153   3.177   0.674   7.193  0.8443  3.4952  1.2265
  458MOL0     H63154   3.371   0.530   7.118  2.0603 -1.0374 -0.2793
  458MOL0     H63155   3.500   0.498   7.232  2.1180  1.1584 -0.7423
  458MOL0     H63156   3.435   0.769   7.134 -0.9553 -0.8021  0.7341
  458MOL0     H63157   3.558   0.734   7.258 -1.2178  0.3261  0.4764
  458MOL0     H63158   3.557   0.639   6.975 -0.5445  1.3883 -0.6664
  458MOL0     H63159   3.632   0.790   7.036 -1.4534 -0.8807 -2.8500
  458MOL0     H63160   3.815   0.642   7.040 -0.4201  0.4702 -2.1882
  458MOL0     H63161   3.751   0.637   7.203  0.8293  0.9250  0.1716
  458MOL0     H63162   3.968   0.519   7.083 -2.4481  0.1602 -0.5677
  458MOL0     H63163   4.192   0.494   7.084 -1.2458 -0.7344 -2.4821
  458MOL0     H63164   4.256   0.332   7.086 -1.8035 -1.3996 -0.5686
  458MOL0     H63165   4.247   0.435   7.234 -0.1263  2.5727 -1.4560
  458MOL0     H63166   4.474   0.293   7.404 -2.4077 -0.4723 -0.1528
  458MOL0     H63167   4.680   0.196   7.453 -1.1393 -0.5555  0.3402
  458MOL0     H63168   4.856  -0.027   7.351 -0.1683 -1.6799 -0.1793
  458MOL0     H63169   4.879   0.059   7.501  0.6014 -0.5803 -1.1476
  458MOL0     H63170   5.055  -0.088   7.478 -0.7285  0.7873 -1.8438
  458MOL0     H63171   4.959  -0.149   7.615 -3.0253 -0.5818 -0.1475
  458MOL0     H63172   4.990  -0.250   7.326  2.2522  1.4107  0.4217
  458MOL0     H63173   4.855  -0.292   7.444 -0.3252  1.8985  0.6766
  458MOL0     H63174   5.037  -0.387   7.589  1.4100  0.5685  1.6211
  458MOL0     H63175   5.154  -0.307   7.514  1.4210 -2.5425 -0.3010
  458MOL0     H63176   5.063  -0.564   7.445  0.4551 -0.1973  0.9751
  458MOL0     H63177   5.005  -0.460   7.310 -0.5931  1.9713  0.9236
  458MOL0     H63178   5.237  -0.378   7.263 -0.9820  0.6138  1.7057
  458MOL0     H63179   5.195  -0.551   7.241 -3.8801  1.2719 -0.9799
  458MOL0     H63180   5.332  -0.607   7.430  1.5975 -0.7998 -1.6241
  458MOL0     H63181   5.363  -0.435   7.479 -0.8615 -0.0852  0.0264
  458MOL0     H63182   5.491  -0.382   7.297 -1.4449 -0.6329  0.8172
  458MOL0     H63183   5.440  -0.531   7.206 -0.2851 -0.7332 -0.6135
  458MOL0     H63184   4.515  -0.203   7.395  0.2810  0.2133 -1.2689
  458MOL0     H63185   4.307  -0.094   7.312 -1.3554  1.4138 -0.0762
  458MOL0     H63186   3.870   0.088   7.271 -0.7299 -0.7398 -1.0946
  458MOL0     H63187   3.686   0.226   7.186 -0.7646  1.4734 -0.0449
  458MOL0     H63188   2.140   0.615   7.858  0.8380 -0.6881 -1.8505
  458MOL0     H63189   1.897   0.543   7.896  0.5375 -1.2169 -1.6867
  458MOL0     H63190   1.636   0.006   8.082  1.5829  2.0963 -0.5518
  458MOL0     H63191   1.393  -0.032   8.119  0.0426 -0.0809  0.6958
  458MOL0     H63192   1.054   0.123   7.920 -0.0813 -1.7728 -0.2471
  458MOL0     H63193   1.171   0.007   7.909 -2.5575 -1.0141 -0.6444
  458MOL0     H63194   0.945  -0.057   8.006 -1.9447  3.2992  1.5849
  458MOL0     H63195   0.981   0.056   8.136 -1.1739 -0.1964 -0.0246
  458MOL0     H63196   1.137  -0.211   8.069  0.2456 -1.4307  1.9843
  458MOL0     H63197   1.179  -0.113   8.201  0.2150  0.9514 -0.6015
  458MOL0     H63198   0.920  -0.285   8.158 -1.3444 -1.2174  2.1828
  458MOL0     H63199   0.924  -0.165   8.280  0.2703  1.0665 -1.2650
  458MOL0     H63200   1.164  -0.502   8.418 -0.4257 -0.6161  1.1257
  458MOL0     H63201   1.323   0.310   7.882  1.7464  0.5211 -1.5837
  458MOL0     H63202   1.643   0.443   7.861 -2.1834  1.0266  1.5528
  458MOL0     H63203   1.621   0.335   7.715 -2.1010 -0.0586 -2.8200
  458MOL0     H63204   1.490   0.426   7.775  3.0475  1.9972 -1.9829
  459MOL0     O63205   6.350   9.038   2.435  0.0323 -0.6818  0.5374
  459MOL0     C63206   6.460   9.068   2.376  0.5109 -0.6014 -0.3394
  459MOL0     O63207   6.471   9.115   2.257 -0.0166 -0.1376  1.0131
  459MOL0     C63208   6.369   9.103   2.162  0.2036  0.4778 -0.2616
  459MOL0     C63209   6.397   9.054   2.038  0.3053 -0.4800  0.7244
  459MOL0     C63210   6.288   9.033   1.945 -0.6784 -1.0817 -0.0423
  459MOL0     C63211   6.151   9.063   1.974  0.2941 -1.1348  0.8518
  459MOL0     O63212   6.041   9.065   1.889 -0.6884 -0.1880 -0.5047
  459MOL0     C63213   6.064   9.027   1.748  0.4510 -0.2044 -0.1977
  459MOL0     C63214   5.929   9.032   1.676  0.1709  0.1680  0.6802
  459MOL0     C63215   5.938   8.994   1.529 -0.2588 -0.1535  0.3079
  459MOL0     C63216   5.809   9.037   1.459 -0.5511 -0.9927  0.5029
  459MOL0     C63217   5.679   8.976   1.502 -0.2493  0.3360  0.8914
  459MOL0     C63218   5.667   8.833   1.451 -0.1739  0.0121 -0.7116
  459MOL0     C63219   5.544   8.744   1.479  0.2230 -1.1445  0.2146
  459MOL0     C63220   5.498   8.750   1.627 -0.1906 -0.1625 -0.4564
  459MOL0     N63221   5.583   8.664   1.708 -0.3026  0.7396  0.4199
  459MOL0     C63222   5.698   8.699   1.765  0.0958 -0.1308 -1.0975
  459MOL0     C63223   5.771   8.580   1.796  0.4736  0.7390  0.3572
  459MOL0     C63224   5.886   8.558   1.889  0.0700 -0.3964  0.0568
  459MOL0     C63225   6.017   8.615   1.851  0.2822 -0.9278 -0.0213
  459MOL0     C63226   6.126   8.550   1.934 -0.1542  0.7143  1.0775
  459MOL0     C63227   6.244   8.643   1.952 -0.3160 -0.1411  1.0315
  459MOL0     O63228   6.290   8.687   1.821 -0.4842 -0.2916  0.0654
  459MOL0     C63229   6.418   8.725   1.804  0.4522 -0.4088 -0.5873
  459MOL0     C63230   6.452   8.766   1.676  0.5374  0.1423  0.3117
  459MOL0     C63231   6.581   8.806   1.647 -0.6706 -0.1144 -0.2900
  459MOL0     C63232   6.607   8.849   1.506 -0.0273 -0.8018 -0.4760
  459MOL0     C63233   6.677   8.815   1.748 -0.4378  0.1119  0.0128
  459MOL0     C63234   6.824   8.852   1.733  0.3373 -0.0661 -0.2940
  459MOL0     O63235   6.886   8.880   1.852  0.1173 -0.2635 -0.7350
  459MOL0     C63236   7.023   8.894   1.854 -0.0629  0.2832 -0.7974
  459MOL0     C63237   7.071   9.006   1.927  0.4061 -0.5426 -0.9444
  459MOL0     C63238   7.208   9.029   1.940  1.0481  0.1445 -0.4023
  459MOL0     C63239   7.299   8.938   1.882  0.2148 -0.9056 -0.1534
  459MOL0     O63240   7.428   8.979   1.904 -0.2849  0.6672 -0.1488
  459MOL0     C63241   7.527   8.913   1.827 -0.4381  0.9789 -0.0631
  459MOL0     C63242   7.662   8.976   1.852  0.2418 -0.3164  0.4874
  459MOL0     C63243   7.664   9.128   1.814 -0.7566 -0.6292 -0.2926
  459MOL0     C63244   7.686   9.152   1.668 -0.9770  0.6886 -0.2623
  459MOL0     C63245   7.661   9.289   1.629 -0.1879  0.1507  0.2309
  459MOL0     C63246   7.513   9.319   1.594  0.4878  0.5560 -0.0725
  459MOL0     C63247   7.474   9.465   1.625  0.6273 -0.3483 -0.0575
  459MOL0     C63248   7.326   9.499   1.614 -0.3325  0.0360  1.1316
  459MOL0    Cl63249   7.269   9.455   1.442  0.0387 -0.0372 -0.7356
  459MOL0     C63250   7.253   8.823   1.825  0.0034 -0.8101 -0.0706
  459MOL0     C63251   7.115   8.803   1.803  0.3810 -0.1501 -0.3452
  459MOL0     O63252   6.885   8.852   1.630  0.5144  0.5941 -0.5372
  459MOL0     C63253   6.632   8.787   1.879  0.0168  0.1897 -0.6692
  459MOL0     C63254   6.509   8.745   1.905  0.8177 -0.5304  0.8838
  459MOL0     N63255   5.694   8.474   1.754 -0.3977  0.3915 -0.0701
  459MOL0     N63256   5.588   8.526   1.705  0.6603  0.3603  0.2943
  459MOL0     C63257   6.131   9.106   2.105 -0.4530  0.3673 -0.6822
  459MOL0     C63258   6.238   9.131   2.196  0.0062 -0.2615  0.0299
  459MOL0     C63259   6.580   9.066   2.459  0.8368  0.6670  0.0795
  459MOL0     C63260   6.591   9.146   2.571  0.2074  0.4081  0.4202
  459MOL0     C63261   6.705   9.143   2.647  0.2734  0.6056  0.5223
  459MOL0     C63262   6.812   9.069   2.621 -0.0468  0.0108 -0.2354
  459MOL0     O63263   6.916   9.089   2.705  0.0432 -0.6282 -0.2026
  459MOL0     C63264   7.023   8.992   2.725  0.1180  0.8577 -0.2080
  459MOL0     C63265   7.007   8.902   2.848  0.0883 -0.7088 -0.5617
  459MOL0     C63266   7.044   8.976   2.975  1.3343  0.3267 -0.1619
  459MOL0     C63267   7.060   8.868   3.076 -0.1716  0.4692 -0.4588
  459MOL0     C63268   7.051   8.918   3.207  0.1911  0.1256  0.2060
  459MOL0     C63269   7.038   8.954   3.319  0.1541 -1.1580 -0.5156
  459MOL0     C63270   6.803   8.983   2.511 -0.0559 -0.1604 -0.6530
  459MOL0     C63271   6.692   8.981   2.424 -0.4930  0.6110 -0.4103
  459MOL0     C63272   6.698   8.887   2.303 -0.0345  0.2231 -0.3955
  459MOL0     H63273   6.501   9.030   2.019  1.2918  0.1533  4.4928
  459MOL0     H63274   6.335   8.990   1.856  2.1899  0.5679  0.5504
  459MOL0     H63275   6.098   8.924   1.735 -2.5320 -0.9686 -3.5558
  459MOL0     H63276   6.130   9.102   1.701  1.0496  0.0480  1.0105
  459MOL0     H63277   5.867   8.965   1.737  0.8027  2.5039  4.1940
  459MOL0     H63278   5.882   9.130   1.687  0.7603  0.7068 -1.1870
  459MOL0     H63279   6.025   9.050   1.493 -0.8958  0.8465  0.3247
  459MOL0     H63280   5.954   8.887   1.511  3.7776  0.2836  0.3179
  459MOL0     H63281   5.806   9.147   1.457  1.1350 -0.8829 -2.5720
  459MOL0     H63282   5.823   9.008   1.355  1.5531  1.7029 -0.0828
  459MOL0     H63283   5.597   9.041   1.468 -0.3471  0.2795  1.0188
  459MOL0     H63284   5.678   8.979   1.611  1.1500  0.8496  0.9113
  459MOL0     H63285   5.677   8.837   1.342 -1.0028 -1.1939 -0.8497
  459MOL0     H63286   5.755   8.786   1.495  0.8760  2.4161 -0.0416
  459MOL0     H63287   5.576   8.647   1.439 -0.3989 -0.3033 -2.4912
  459MOL0     H63288   5.458   8.787   1.426 -1.5391 -4.4253  0.1250
  459MOL0     H63289   5.499   8.850   1.671  1.3353 -0.8185  1.0980
  459MOL0     H63290   5.398   8.709   1.645  0.3425 -0.7482  1.4479
  459MOL0     H63291   5.726   8.797   1.802 -1.2598 -0.1820  0.1641
  459MOL0     H63292   5.895   8.451   1.910  1.8076 -0.1741  0.5519
  459MOL0     H63293   5.858   8.610   1.982 -0.3448  1.8474 -1.2448
  459MOL0     H63294   6.028   8.605   1.743 -0.0695  1.3079 -0.3247
  459MOL0     H63295   6.024   8.723   1.868  0.2245 -0.6620 -1.5750
  459MOL0     H63296   6.090   8.508   2.028  1.7614 -0.1089  1.4867
  459MOL0     H63297   6.170   8.468   1.877 -1.7468  0.2392  0.4628
  459MOL0     H63298   6.210   8.732   2.005 -1.9613 -0.0391 -0.1102
  459MOL0     H63299   6.320   8.598   2.015  2.0195  0.4001 -1.2387
  459MOL0     H63300   6.374   8.754   1.602 -0.9384  1.9767  1.4721
  459MOL0     H63301   6.655   8.946   1.493 -0.7798 -0.5533 -1.5265
  459MOL0     H63302   6.511   8.875   1.460 -0.4653 -0.4196  0.6165
  459MOL0     H63303   6.664   8.765   1.465 -0.9365 -1.6954  0.0084
  459MOL0     H63304   6.990   9.056   1.979  2.4624  1.4057  0.6186
  459MOL0     H63305   7.244   9.119   1.989  1.3264 -1.3236  2.2963
  459MOL0     H63306   7.540   8.809   1.858  2.8472  1.4874  0.7401
  459MOL0     H63307   7.497   8.913   1.722  1.0689  1.6042 -0.5302
  459MOL0     H63308   7.696   8.971   1.956 -1.7199  1.2204  1.2734
  459MOL0     H63309   7.733   8.920   1.791 -1.6071  0.0917 -2.2128
  459MOL0     H63310   7.741   9.181   1.872  0.2649 -0.6327 -1.6051
  459MOL0     H63311   7.570   9.167   1.855 -0.8931 -1.1238 -0.1255
  459MOL0     H63312   7.628   9.084   1.606  0.8525 -1.3505  0.1549
  459MOL0     H63313   7.793   9.134   1.653 -0.2583  1.8315  2.6939
  459MOL0     H63314   7.698   9.357   1.707  0.5310  2.4331 -1.9539
  459MOL0     H63315   7.715   9.318   1.538 -1.4306  3.0585  0.2907
  459MOL0     H63316   7.447   9.251   1.650  3.1853 -0.2626  2.3454
  459MOL0     H63317   7.489   9.300   1.489 -2.5185 -0.4293  0.6790
  459MOL0     H63318   7.536   9.524   1.556 -2.3080  0.4800 -2.1873
  459MOL0     H63319   7.513   9.488   1.724  1.3437 -1.1271 -0.1454
  459MOL0     H63320   7.318   9.603   1.646  3.6162 -0.1266  3.2896
  459MOL0     H63321   7.263   9.449   1.689 -3.2350  2.7485  0.6871
  459MOL0     H63322   7.325   8.751   1.789 -1.3954 -1.2143 -2.2208
  459MOL0     H63323   7.086   8.716   1.746 -1.6659  1.8578 -2.6097
  459MOL0     H63324   6.685   8.815   1.969 -1.9540 -0.4521  0.7492
  459MOL0     H63325   6.473   8.716   2.003 -2.3032  0.6214  0.1801
  459MOL0     H63326   6.030   9.126   2.140  0.2061 -1.2519  2.5723
  459MOL0     H63327   6.218   9.185   2.288 -0.9506  0.7602 -0.7531
  459MOL0     H63328   6.503   9.206   2.593 -1.3658  0.1007 -4.0256
  459MOL0     H63329   6.710   9.193   2.744 -0.3704 -0.1276  0.9507
  459MOL0     H63330   7.027   8.925   2.639  2.8498 -0.9869  1.2126
  459MOL0     H63331   7.122   9.038   2.727  0.7147 -0.3921  1.9312
  459MOL0     H63332   7.072   8.815   2.834  1.5735  0.4781 -1.4379
  459MOL0     H63333   6.901   8.877   2.852  0.1087 -0.6672  0.6871
  459MOL0     H63334   7.145   9.016   2.964  2.3496 -2.1498 -0.4663
  459MOL0     H63335   6.964   9.046   3.001  0.8433 -0.0771 -0.5562
  459MOL0     H63336   7.163   8.832   3.070 -0.4355 -0.7638  1.5202
  459MOL0     H63337   6.997   8.781   3.055 -0.8068  0.5789  0.8930
  459MOL0     H63338   7.011   9.005   3.409  0.7628  0.8445 -1.4064
  459MOL0     H63339   6.884   8.918   2.481  0.9137  0.2714  0.9302
  459MOL0     H63340   6.794   8.905   2.254  0.0864  1.1459  0.1668
  459MOL0     H63341   6.694   8.788   2.350 -1.1627 -0.3341 -1.5774
  459MOL0     H63342   6.622   8.899   2.225 -0.2427  1.8330  0.0369
  460MOL0     O63343   5.333  11.274   5.957 -0.3229  0.6657  0.4842
  460MOL0     C63344   5.259  11.182   5.997  0.4247  0.6097 -0.3165
  460MOL0     O63345   5.292  11.050   6.007  0.0027  0.0040  0.0296
  460MOL0     C63346   5.415  11.013   6.019 -0.2455  1.1286  0.2019
  460MOL0     C63347   5.502  11.078   6.105  1.1701  1.0304  0.6287
  460MOL0     C63348   5.629  11.024   6.123 -0.9156  0.0944 -0.6101
  460MOL0     C63349   5.664  10.910   6.058  0.1335 -2.0840  0.2016
  460MOL0     O63350   5.792  10.863   6.085 -0.3090  0.0382 -0.1813
  460MOL0     C63351   5.836  10.742   6.017 -0.8833  0.1378  0.1475
  460MOL0     C63352   5.980  10.709   6.071  0.2483  0.3345 -0.1385
  460MOL0     C63353   6.066  10.600   6.001 -0.3469  0.4283 -0.0646
  460MOL0     C63354   6.217  10.594   6.040  0.8553 -0.2294  0.2487
  460MOL0     C63355   6.277  10.449   6.034  0.5147  0.3725 -0.3784
  460MOL0     C63356   6.274  10.393   5.893 -0.7429  0.7529 -0.3546
  460MOL0     C63357   6.346  10.256   5.875  0.1423  1.0817  0.9564
  460MOL0     C63358   6.262  10.130   5.917  0.2261  0.2612  0.3994
  460MOL0     N63359   6.168  10.098   5.809  0.1046  0.3011  0.5535
  460MOL0     C63360   6.035  10.143   5.801 -0.2517  0.8780  0.6117
  460MOL0     C63361   5.980  10.099   5.689  0.5188  0.7186  1.0379
  460MOL0     C63362   5.840  10.126   5.642  0.9049  0.4665 -0.6761
  460MOL0     C63363   5.731  10.022   5.690 -0.1269  0.3350  0.3280
  460MOL0     C63364   5.742   9.898   5.589  0.1150  0.0433 -0.5259
  460MOL0     C63365   5.650   9.782   5.627 -0.0772  0.4683  0.8586
  460MOL0     O63366   5.652   9.681   5.521 -0.7484  0.3227  0.1372
  460MOL0     C63367   5.533   9.608   5.530  0.7915 -0.4038 -0.5317
  460MOL0     C63368   5.438   9.621   5.432  0.3403 -0.0805 -0.1404
  460MOL0     C63369   5.305   9.568   5.434 -0.7439 -0.2985 -0.0183
  460MOL0     C63370   5.204   9.597   5.334  0.0218 -0.1109  0.2881
  460MOL0     C63371   5.284   9.473   5.534 -0.1146  0.5450 -0.2109
  460MOL0     C63372   5.163   9.396   5.552 -0.7437 -0.0362 -0.1112
  460MOL0     O63373   5.086   9.370   5.437  0.3610  0.1668  0.0356
  460MOL0     C63374   4.957   9.317   5.456  0.3771  0.4907 -0.2844
  460MOL0     C63375   4.936   9.187   5.416 -0.0021  0.4832  0.0040
  460MOL0     C63376   4.808   9.136   5.429  0.6752  0.4873  0.5969
  460MOL0     C63377   4.696   9.206   5.472 -0.5304 -0.2234  1.1726
  460MOL0     O63378   4.566   9.159   5.470 -0.6364  0.3440  0.4540
  460MOL0     C63379   4.513   9.082   5.357 -0.2199 -0.4022  0.3564
  460MOL0     C63380   4.390   9.153   5.296  0.1185  0.2747  0.1468
  460MOL0     C63381   4.260   9.153   5.382  0.2402 -1.0174  0.1569
  460MOL0     C63382   4.137   9.154   5.292 -0.4556  0.2219 -0.2710
  460MOL0     C63383   4.035   9.238   5.369 -0.0622 -0.0107  0.4555
  460MOL0     C63384   3.903   9.253   5.299  0.5222  0.4648  0.3139
  460MOL0     C63385   3.819   9.360   5.371  0.2482  0.9721  1.0963
  460MOL0     C63386   3.711   9.411   5.280  0.5859 -0.0761  0.4262
  460MOL0    Cl63387   3.778   9.550   5.186  0.3715  0.2807 -0.2016
  460MOL0     C63388   4.720   9.338   5.508 -0.2916  0.3192 -0.8083
  460MOL0     C63389   4.850   9.401   5.502 -0.0417 -0.3369  0.2411
  460MOL0     O63390   5.134   9.368   5.666  0.0983  0.4692 -0.3004
  460MOL0     C63391   5.386   9.439   5.628 -0.0879  0.2441 -0.0431
  460MOL0     C63392   5.512   9.507   5.628  0.0725 -0.1501  0.9934
  460MOL0     N63393   6.076  10.021   5.626  1.1890  0.5603 -0.3237
  460MOL0     N63394   6.188  10.019   5.697  0.3898  1.0066 -0.3726
  460MOL0     C63395   5.578  10.852   5.971 -0.3694  0.1158  0.1424
  460MOL0     C63396   5.445  10.900   5.947 -0.3706 -0.2602 -0.6878
  460MOL0     C63397   5.120  11.220   6.042  0.8798 -0.5586  0.2071
  460MOL0     C63398   5.023  11.118   6.061  0.1373  0.6245  0.5204
  460MOL0     C63399   4.890  11.147   6.097  0.1517 -0.5816 -0.7583
  460MOL0     C63400   4.844  11.278   6.102  0.4097  0.8600 -0.9025
  460MOL0     O63401   4.721  11.318   6.143  0.2068  0.3697 -0.4581
  460MOL0     C63402   4.640  11.348   6.028 -0.0525 -0.7419 -0.3562
  460MOL0     C63403   4.557  11.227   5.988 -0.8588 -0.6444  0.1477
  460MOL0     C63404   4.452  11.190   6.092  0.0349 -0.3750  0.1453
  460MOL0     C63405   4.352  11.090   6.026 -0.6018  0.1917  0.6704
  460MOL0     C63406   4.264  11.051   6.128  0.2648 -0.3122  0.2133
  460MOL0     C63407   4.174  11.001   6.190 -0.7971  0.9465  0.0659
  460MOL0     C63408   4.938  11.380   6.075  0.0285 -0.0655 -0.2658
  460MOL0     C63409   5.077  11.357   6.058  0.4898  1.0313 -1.0917
  460MOL0     C63410   5.162  11.475   6.027  0.0547  0.7501 -0.4386
  460MOL0     H63411   5.464  11.156   6.170  1.5621 -1.2331  3.7585
  460MOL0     H63412   5.701  11.065   6.193  1.0724  1.2490 -3.1406
  460MOL0     H63413   5.833  10.753   5.908 -2.6154 -2.5941 -0.1705
  460MOL0     H63414   5.777  10.654   6.045 -2.5643  1.1089 -0.1858
  460MOL0     H63415   6.033  10.804   6.061 -0.9781  1.2528  1.5548
  460MOL0     H63416   5.972  10.689   6.179 -1.6073  3.8003  0.5092
  460MOL0     H63417   6.020  10.502   6.018 -0.5613  0.2224 -1.6839
  460MOL0     H63418   6.058  10.633   5.897 -2.6378  2.4499  0.6562
  460MOL0     H63419   6.270  10.654   5.965  0.0432  1.7421  1.1897
  460MOL0     H63420   6.229  10.644   6.136  1.4721  2.5827 -1.1906
  460MOL0     H63421   6.217  10.392   6.105 -3.1320  1.3713 -2.4325
  460MOL0     H63422   6.381  10.452   6.070  0.9951 -0.5577 -1.6155
  460MOL0     H63423   6.171  10.380   5.858 -0.8400 -1.8562  0.6465
  460MOL0     H63424   6.323  10.466   5.829  1.1397 -0.3085 -0.2029
  460MOL0     H63425   6.434  10.239   5.937  0.4749 -2.6829 -0.2966
  460MOL0     H63426   6.373  10.234   5.771 -0.2396  3.1517  0.3674
  460MOL0     H63427   6.330  10.045   5.929 -0.7403 -0.6681 -0.4897
  460MOL0     H63428   6.206  10.149   6.009 -3.9506 -2.6905 -1.2509
  460MOL0     H63429   5.987  10.212   5.870  1.6229 -0.2254  3.2136
  460MOL0     H63430   5.849  10.129   5.533 -1.1260 -2.6522 -1.0571
  460MOL0     H63431   5.808  10.226   5.669  2.3286  0.7033  0.2553
  460MOL0     H63432   5.741   9.995   5.796 -2.1399 -0.2839  0.4096
  460MOL0     H63433   5.631  10.067   5.687  0.7202  2.2962 -1.1174
  460MOL0     H63434   5.699   9.932   5.494 -0.4244  0.5255 -0.1192
  460MOL0     H63435   5.847   9.869   5.588 -0.2784 -1.5623 -2.7561
  460MOL0     H63436   5.695   9.735   5.715 -1.4799  2.9623  3.0356
  460MOL0     H63437   5.554   9.825   5.657  0.6776  0.6924  3.1918
  460MOL0     H63438   5.464   9.697   5.359  2.8045 -1.7823 -1.1535
  460MOL0     H63439   5.110   9.623   5.384 -1.3236 -0.9849 -1.6521
  460MOL0     H63440   5.201   9.511   5.267  0.4717  1.0690 -1.3200
  460MOL0     H63441   5.229   9.682   5.269  2.0045 -1.3112 -0.6203
  460MOL0     H63442   5.014   9.134   5.363 -0.1781  0.7474 -0.5361
  460MOL0     H63443   4.809   9.031   5.403  1.6359  0.6500 -0.0732
  460MOL0     H63444   4.584   9.060   5.277 -1.1993 -4.2909  0.3627
  460MOL0     H63445   4.488   8.983   5.397  1.0316 -0.4256  1.1359
  460MOL0     H63446   4.411   9.258   5.273 -4.0125  1.0506 -0.9414
  460MOL0     H63447   4.368   9.108   5.199 -1.1736 -1.2797  1.1054
  460MOL0     H63448   4.262   9.241   5.446 -3.9160 -0.7727  0.2041
  460MOL0     H63449   4.260   9.064   5.447 -0.2152 -2.1490 -1.3406
  460MOL0     H63450   4.092   9.055   5.283 -0.9894  0.4199  0.1697
  460MOL0     H63451   4.157   9.192   5.191  2.7308  2.8658  1.1579
  460MOL0     H63452   4.013   9.197   5.468 -2.1380 -2.8583 -1.0420
  460MOL0     H63453   4.074   9.337   5.393  0.9362 -1.0405  3.5890
  460MOL0     H63454   3.846   9.160   5.295  0.0207  0.7410  0.8050
  460MOL0     H63455   3.926   9.276   5.195  2.9969 -4.3513 -0.4520
  460MOL0     H63456   3.878   9.444   5.409 -0.0030  1.0005  1.4307
  460MOL0     H63457   3.777   9.305   5.456  1.4783 -0.4152  0.8588
  460MOL0     H63458   3.632   9.452   5.343 -0.4563  1.4203 -1.7295
  460MOL0     H63459   3.674   9.329   5.217  0.4816  0.9436 -0.8938
  460MOL0     H63460   4.644   9.403   5.549  0.5473  0.4295  0.6223
  460MOL0     H63461   4.863   9.506   5.526 -1.2345  0.2567 -1.4317
  460MOL0     H63462   5.364   9.361   5.700 -0.7299  0.5634  0.1120
  460MOL0     H63463   5.593   9.483   5.696 -0.5316 -4.8883  0.3341
  460MOL0     H63464   5.600  10.762   5.914 -0.0854  0.5641 -0.4695
  460MOL0     H63465   5.387  10.852   5.869  0.3420  1.3967 -2.3031
  460MOL0     H63466   5.038  11.011   6.044  1.1315  0.6943  0.8653
  460MOL0     H63467   4.819  11.068   6.120  0.8905 -0.2338  3.8280
  460MOL0     H63468   4.574  11.430   6.057  0.5608 -0.0954 -0.7937
  460MOL0     H63469   4.699  11.384   5.944  1.4677 -0.7285  0.6795
  460MOL0     H63470   4.622  11.145   5.958  0.6063  1.1533 -1.8847
  460MOL0     H63471   4.504  11.253   5.896  2.0525 -0.7531 -1.6829
  460MOL0     H63472   4.496  11.157   6.187  0.8180  1.1167  0.3297
  460MOL0     H63473   4.389  11.279   6.104 -0.5118 -0.9401  1.6434
  460MOL0     H63474   4.397  10.995   5.997  0.6336  1.1903 -0.8125
  460MOL0     H63475   4.305  11.150   5.947  2.5347  2.6322  0.4758
  460MOL0     H63476   4.093  10.948   6.236 -1.0331  2.5176  1.5588
  460MOL0     H63477   4.894  11.478   6.090 -2.1271 -1.1005  0.7305
  460MOL0     H63478   5.247  11.483   6.096 -2.1383  1.2768  2.3444
  460MOL0     H63479   5.184  11.485   5.920 -1.3398 -0.1118 -0.8242
  460MOL0     H63480   5.108  11.565   6.058 -0.0312  0.5376  0.0237
  461MOL0     O63481   8.444   1.297   2.877 -0.2896 -0.7153  0.0307
  461MOL0     C63482   8.358   1.338   2.951  0.0492  0.2079 -0.1902
  461MOL0     O63483   8.382   1.380   3.078 -0.7255  0.4622 -0.2158
  461MOL0     C63484   8.506   1.363   3.124 -0.7737  0.0471 -0.0054
  461MOL0     C63485   8.543   1.253   3.206 -0.8026 -0.3585 -0.0483
  461MOL0     C63486   8.676   1.219   3.214 -0.2614 -0.2290  0.3116
  461MOL0     C63487   8.774   1.285   3.145  0.0439 -0.6111  0.4420
  461MOL0     O63488   8.895   1.220   3.149  0.4198  0.3586  0.1434
  461MOL0     C63489   9.012   1.280   3.090  1.5796 -0.1864 -0.9629
  461MOL0     C63490   9.119   1.168   3.114 -1.3068 -0.0098 -0.4143
  461MOL0     C63491   9.251   1.208   3.039  0.0176 -0.4931  0.4258
  461MOL0     C63492   9.368   1.107   3.081 -0.7452 -0.4024  1.2757
  461MOL0     C63493   9.489   1.149   2.988  0.7977  0.3540 -0.8844
  461MOL0     C63494   9.606   1.199   3.075 -0.1158  0.6542 -0.0470
  461MOL0     C63495   9.734   1.211   2.984 -0.4594 -0.8378  0.2989
  461MOL0     C63496   9.859   1.222   3.070  0.4232 -0.5742 -1.2063
  461MOL0     N63497   9.889   1.093   3.139 -0.0529 -0.1930  0.3722
  461MOL0     C63498   9.894   0.976   3.068 -0.6373 -0.0313  0.6115
  461MOL0     C63499   9.928   0.887   3.163  0.4005 -0.0140  0.5320
  461MOL0     C63500   9.950   0.738   3.143 -1.0729 -0.0869 -0.0731
  461MOL0     C63501  10.084   0.692   3.208 -0.3078  0.0747 -0.1579
  461MOL0     C63502  10.098   0.537   3.187 -0.0609  0.0499 -0.9001
  461MOL0     C63503  10.225   0.491   3.261 -0.4700  0.1557 -0.2874
  461MOL0     O63504  10.339   0.530   3.186 -0.4023  0.4678  0.7219
  461MOL0     C63505  10.469   0.545   3.245 -0.1932 -0.2995  0.6776
  461MOL0     C63506  10.497   0.550   3.378  0.5662 -1.6104  0.8457
  461MOL0     C63507  10.627   0.566   3.424 -0.0375 -0.3014  0.2873
  461MOL0     C63508  10.648   0.592   3.570 -0.8384 -0.9743 -0.5830
  461MOL0     C63509  10.737   0.573   3.337 -0.0067  0.3794  0.3496
  461MOL0     C63510  10.889   0.590   3.358  0.5472 -0.2990 -0.3124
  461MOL0     O63511  10.975   0.593   3.243  0.4600  0.4699  0.0753
  461MOL0     C63512  11.111   0.617   3.253 -0.2343  0.9915 -0.0182
  461MOL0     C63513  11.176   0.727   3.323  0.5232  0.7413 -1.2390
  461MOL0     C63514  11.310   0.755   3.320  0.2428 -0.9178 -0.4085
  461MOL0     C63515  11.401   0.680   3.241  0.3698  0.4526 -0.4060
  461MOL0     O63516  11.541   0.698   3.237  0.5005  0.0586 -0.4293
  461MOL0     C63517  11.607   0.813   3.298  0.5361  0.0218  0.7319
  461MOL0     C63518  11.745   0.821   3.224  0.6101  0.1606 -0.4308
  461MOL0     C63519  11.839   0.917   3.297  0.2562 -0.2578  0.0646
  461MOL0     C63520  11.788   1.059   3.276 -0.8108  0.1118 -1.0374
  461MOL0     C63521  11.719   1.104   3.406 -0.5388  0.5464  0.2780
  461MOL0     C63522  11.827   1.165   3.504 -0.0828  0.5855 -0.7863
  461MOL0     C63523  11.785   1.203   3.644 -0.6233  0.3189  0.7769
  461MOL0     C63524  11.889   1.297   3.707 -0.6019  0.1011  0.0750
  461MOL0    Cl63525  11.864   1.471   3.654 -0.2534  0.0685 -0.3645
  461MOL0     C63526  11.338   0.569   3.170 -0.5710  1.2305  0.2469
  461MOL0     C63527  11.204   0.538   3.174  0.6343  0.5537  0.2538
  461MOL0     O63528  10.927   0.607   3.476  0.5623  0.4894 -1.1165
  461MOL0     C63529  10.706   0.572   3.202 -0.0810 -0.2394  0.5496
  461MOL0     C63530  10.573   0.555   3.157  0.3531 -0.3380  0.1298
  461MOL0     N63531   9.919   0.949   3.290 -0.1805  1.4633 -0.5164
  461MOL0     N63532   9.894   1.073   3.270 -0.7366  0.7001 -0.2570
  461MOL0     C63533   8.732   1.400   3.067 -0.2494 -0.3859  0.0858
  461MOL0     C63534   8.605   1.442   3.067  0.2065 -0.5483 -0.1367
  461MOL0     C63535   8.220   1.335   2.902  0.4301 -0.2507 -0.3768
  461MOL0     C63536   8.164   1.222   2.851  0.4598  0.3868  0.2080
  461MOL0     C63537   8.035   1.219   2.805  0.0681  0.9297  0.2492
  461MOL0     C63538   7.951   1.324   2.814  0.2421  0.6075 -0.5931
  461MOL0     O63539   7.818   1.321   2.773 -0.0996  0.5246 -0.3828
  461MOL0     C63540   7.747   1.194   2.757 -0.5256 -1.2978  0.7361
  461MOL0     C63541   7.593   1.208   2.754  0.7229  1.1220  0.2589
  461MOL0     C63542   7.531   1.072   2.787  0.1776 -0.0381 -0.2090
  461MOL0     C63543   7.378   1.075   2.785  0.1972 -0.2286  0.1012
  461MOL0     C63544   7.336   0.949   2.826  0.2556  0.7363 -0.6296
  461MOL0     C63545   7.314   0.832   2.845  1.1269 -0.9591 -0.1235
  461MOL0     C63546   8.001   1.436   2.874  0.5803 -0.1024 -0.4596
  461MOL0     C63547   8.132   1.447   2.915  0.3783 -0.3395  0.3030
  461MOL0     C63548   8.179   1.578   2.965 -0.4194  0.1990  0.4448
  461MOL0     H63549   8.472   1.184   3.251  1.1260 -1.8068  0.9390
  461MOL0     H63550   8.701   1.126   3.265  0.4157 -1.0196 -1.3971
  461MOL0     H63551   9.028   1.370   3.150 -1.8919 -0.5972  0.8612
  461MOL0     H63552   8.995   1.302   2.985  2.6664  2.7805 -0.5978
  461MOL0     H63553   9.151   1.169   3.218  1.4054 -1.0828 -1.1360
  461MOL0     H63554   9.093   1.067   3.082 -0.4735 -0.6779  0.9200
  461MOL0     H63555   9.231   1.210   2.931  2.7150 -2.5335 -0.2273
  461MOL0     H63556   9.274   1.309   3.072 -0.5858  0.0270 -0.6910
  461MOL0     H63557   9.386   1.133   3.185  2.0046 -1.5152  1.1737
  461MOL0     H63558   9.341   1.004   3.056  1.4835 -0.5135 -1.0898
  461MOL0     H63559   9.456   1.228   2.920 -1.7290 -0.9174 -1.2559
  461MOL0     H63560   9.516   1.064   2.925  0.6626 -3.3666  3.4981
  461MOL0     H63561   9.584   1.294   3.124  0.2285  0.5243  0.3655
  461MOL0     H63562   9.613   1.130   3.159 -1.6357  2.9565  2.1149
  461MOL0     H63563   9.721   1.303   2.925 -1.3327 -0.5693  0.8896
  461MOL0     H63564   9.730   1.123   2.919 -1.1667 -2.2978  2.2107
  461MOL0     H63565   9.940   1.246   3.000 -0.0165 -0.9711 -1.8580
  461MOL0     H63566   9.830   1.307   3.133 -0.3094  0.6943 -3.1665
  461MOL0     H63567   9.877   0.943   2.966 -1.2892  1.6919  0.1183
  461MOL0     H63568   9.957   0.718   3.036 -2.6543  1.4250 -0.4963
  461MOL0     H63569   9.861   0.682   3.173  0.1985 -1.3124  1.6891
  461MOL0     H63570  10.164   0.744   3.155  0.7532 -0.5575  0.7836
  461MOL0     H63571  10.077   0.721   3.314 -1.6629 -1.9820  0.3745
  461MOL0     H63572  10.010   0.487   3.228  0.3935 -0.6221 -0.7175
  461MOL0     H63573  10.102   0.513   3.080  1.7261 -3.2780 -0.2342
  461MOL0     H63574  10.233   0.525   3.365 -2.1960 -0.6978  0.1596
  461MOL0     H63575  10.221   0.382   3.266 -0.1589  0.1715  0.4429
  461MOL0     H63576  10.411   0.553   3.444 -1.2564 -3.1225 -1.3150
  461MOL0     H63577  10.552   0.581   3.622 -1.5779 -0.9861 -1.9175
  461MOL0     H63578  10.694   0.691   3.573  1.2302 -1.8843 -0.3760
  461MOL0     H63579  10.726   0.527   3.612  1.5428  0.6222 -2.2672
  461MOL0     H63580  11.116   0.799   3.378  1.0822 -0.5746  1.2327
  461MOL0     H63581  11.349   0.843   3.370  1.0248 -2.8579  2.6949
  461MOL0     H63582  11.549   0.904   3.280 -0.3994 -0.4382  1.3119
  461MOL0     H63583  11.618   0.792   3.405 -1.3881 -2.3453  0.5458
  461MOL0     H63584  11.785   0.719   3.222 -1.1011 -0.5388 -0.6807
  461MOL0     H63585  11.734   0.858   3.121  1.6182 -1.4473 -1.1716
  461MOL0     H63586  11.938   0.900   3.254  0.2139  0.3926 -0.3106
  461MOL0     H63587  11.838   0.890   3.403 -0.0693  2.8139  0.9322
  461MOL0     H63588  11.728   1.087   3.189  2.9050  0.3723 -3.7393
  461MOL0     H63589  11.877   1.120   3.259 -2.9013  3.2285 -1.4664
  461MOL0     H63590  11.640   1.174   3.378 -1.1397  0.7037  2.2168
  461MOL0     H63591  11.659   1.029   3.457 -3.1225  1.8963 -0.6371
  461MOL0     H63592  11.868   1.250   3.449 -2.9268  0.5463 -3.2011
  461MOL0     H63593  11.909   1.094   3.522 -1.6672 -1.3462 -0.8848
  461MOL0     H63594  11.756   1.113   3.698 -1.2712  0.2068  0.2462
  461MOL0     H63595  11.698   1.269   3.638 -0.1417  0.9673  0.7391
  461MOL0     H63596  11.990   1.276   3.670  0.5539  3.1394  1.1636
  461MOL0     H63597  11.896   1.294   3.816 -1.1000  0.2560  0.1106
  461MOL0     H63598  11.413   0.509   3.119  0.2926 -0.0928  2.8603
  461MOL0     H63599  11.166   0.460   3.108  1.5809 -0.0580  0.4121
  461MOL0     H63600  10.777   0.566   3.119 -0.9271 -3.4393 -0.0821
  461MOL0     H63601  10.540   0.560   3.054 -0.8247  0.1066  0.5102
  461MOL0     H63602   8.823   1.448   3.031  0.3751 -2.8537 -1.9039
  461MOL0     H63603   8.581   1.527   3.004  0.4021 -2.3127 -2.7162
  461MOL0     H63604   8.226   1.134   2.834 -0.4600 -0.1132 -0.7208
  461MOL0     H63605   8.010   1.124   2.758 -0.9103  1.4163 -0.2559
  461MOL0     H63606   7.779   1.160   2.658  1.9227  0.8018  0.6784
  461MOL0     H63607   7.787   1.118   2.825 -0.4230 -4.0246 -2.1533
  461MOL0     H63608   7.567   1.237   2.652  1.6535 -2.4636 -1.1493
  461MOL0     H63609   7.562   1.290   2.820  1.2498  2.8832 -1.5598
  461MOL0     H63610   7.579   0.993   2.728  0.3798 -2.3576  2.7757
  461MOL0     H63611   7.568   1.053   2.888  1.2409 -0.0435 -0.5871
  461MOL0     H63612   7.347   1.091   2.681  0.9567  1.4662  0.1000
  461MOL0     H63613   7.332   1.154   2.845  0.8254 -0.3669  0.7746
  461MOL0     H63614   7.299   0.729   2.869  0.9776 -0.3247  2.9701
  461MOL0     H63615   7.933   1.519   2.890 -3.4114 -3.3583  1.2244
  461MOL0     H63616   8.146   1.600   3.067 -0.1097 -0.8683  0.7953
  461MOL0     H63617   8.287   1.588   2.955 -0.3977 -1.2756 -1.5091
  461MOL0     H63618   8.134   1.649   2.895  0.0841 -1.2236 -1.4028
  462MOL0     O63619   5.082   4.975   3.758 -0.2778  0.0871  0.0742
  462MOL0     C63620   5.102   4.906   3.857 -0.1125  0.6772 -0.1183
  462MOL0     O63621   5.172   4.948   3.976 -0.0239  0.5868 -0.1052
  462MOL0     C63622   5.275   5.034   3.958  0.0650 -0.2045  0.8828
  462MOL0     C63623   5.401   4.987   3.993  0.8900  0.4790 -0.1949
  462MOL0     C63624   5.514   5.076   3.992  0.7065  0.2876  0.4136
  462MOL0     C63625   5.497   5.211   3.939 -0.2678 -0.2005  0.7170
  462MOL0     O63626   5.596   5.301   3.954  0.7259  0.1772  0.1217
  462MOL0     C63627   5.733   5.261   3.987 -0.2697 -0.0228  0.3837
  462MOL0     C63628   5.817   5.393   3.983 -0.1596  0.1395 -0.0095
  462MOL0     C63629   5.840   5.458   4.123 -0.3706 -0.2200  0.2431
  462MOL0     C63630   5.932   5.370   4.206  0.3938 -0.8175 -1.0375
  462MOL0     C63631   5.912   5.402   4.353  0.6408  0.2866  0.8124
  462MOL0     C63632   5.975   5.535   4.392 -0.5457  0.3511  0.6454
  462MOL0     C63633   6.127   5.520   4.400 -0.2105  0.4882  0.3323
  462MOL0     C63634   6.198   5.637   4.472  0.2788 -0.0899  1.0717
  462MOL0     N63635   6.345   5.626   4.470  1.4259 -0.3801  0.0864
  462MOL0     C63636   6.414   5.520   4.512  0.1140  0.5720  0.2068
  462MOL0     C63637   6.543   5.541   4.500  0.0372  0.3844 -0.1321
  462MOL0     C63638   6.657   5.449   4.541  0.5981  0.6253 -0.0671
  462MOL0     C63639   6.654   5.435   4.696  0.8220 -0.1137  0.2196
  462MOL0     C63640   6.792   5.401   4.753  0.5569 -0.5229  0.4969
  462MOL0     C63641   6.784   5.336   4.892  0.4948  0.1467 -0.4357
  462MOL0     O63642   6.912   5.335   4.954  0.1421 -0.0071 -0.5061
  462MOL0     C63643   6.930   5.359   5.090  0.0078  0.1332  0.0581
  462MOL0     C63644   6.827   5.355   5.181 -0.4338  0.0196  0.1058
  462MOL0     C63645   6.848   5.396   5.310 -0.4652 -0.3537  0.0499
  462MOL0     C63646   6.729   5.368   5.402  0.6343  0.1580  0.1267
  462MOL0     C63647   6.972   5.460   5.347  0.0869 -0.0707 -0.1399
  462MOL0     C63648   6.977   5.526   5.479 -0.6602 -0.3326  0.3548
  462MOL0     O63649   7.100   5.551   5.532  0.2897  0.0483 -0.1352
  462MOL0     C63650   7.124   5.583   5.671 -0.5955  0.1798  0.2352
  462MOL0     C63651   7.252   5.633   5.703  0.9928 -0.3432  0.9272
  462MOL0     C63652   7.290   5.645   5.841  0.8148 -0.1215  0.6726
  462MOL0     C63653   7.198   5.603   5.942  0.1273  0.3501  0.6213
  462MOL0     O63654   7.250   5.627   6.065 -0.7426  0.5879  0.3776
  462MOL0     C63655   7.155   5.616   6.173  0.0657  0.3004 -0.0305
  462MOL0     C63656   7.199   5.678   6.298 -0.1068 -0.3793 -0.1313
  462MOL0     C63657   7.303   5.598   6.387  0.3466 -0.0612  0.8164
  462MOL0     C63658   7.363   5.688   6.484 -0.7195 -0.8240 -0.6979
  462MOL0     C63659   7.465   5.615   6.565  0.7869  0.2669  0.4685
  462MOL0     C63660   7.534   5.702   6.675 -0.3751 -0.1282  0.3878
  462MOL0     C63661   7.646   5.624   6.743 -0.3210 -0.2352  0.1880
  462MOL0     C63662   7.695   5.692   6.870  0.4172 -0.7784 -0.0185
  462MOL0    Cl63663   7.738   5.866   6.839  0.5587  0.2331  0.0870
  462MOL0     C63664   7.061   5.579   5.910 -0.5268  0.4596 -0.0538
  462MOL0     C63665   7.023   5.573   5.774 -0.0995  0.3433  0.1359
  462MOL0     O63666   6.876   5.572   5.520 -0.2920  0.4461  0.0887
  462MOL0     C63667   7.079   5.448   5.262  0.7461 -0.9887  0.5661
  462MOL0     C63668   7.058   5.391   5.128 -0.1712  0.2730 -0.5045
  462MOL0     N63669   6.547   5.674   4.462  0.2773  0.0103  0.5465
  462MOL0     N63670   6.425   5.727   4.438 -0.7511  0.0737 -0.3534
  462MOL0     C63671   5.365   5.256   3.905 -0.8347  0.3239 -0.0856
  462MOL0     C63672   5.254   5.160   3.909 -0.5399  0.0905  0.0397
  462MOL0     C63673   5.036   4.766   3.861  0.1556  0.1968  0.4169
  462MOL0     C63674   5.017   4.712   3.986  0.1412 -0.1140  0.2584
  462MOL0     C63675   4.946   4.589   4.010  0.1404 -0.8201 -0.3439
  462MOL0     C63676   4.896   4.521   3.902  1.0108 -0.7524  0.7402
  462MOL0     O63677   4.807   4.415   3.919  0.0687 -0.0486 -0.0227
  462MOL0     C63678   4.795   4.351   4.052  0.3820  0.1640  0.3482
  462MOL0     C63679   4.689   4.239   4.059  0.2693  0.0447  0.9685
  462MOL0     C63680   4.691   4.179   4.200  0.6266 -0.6499  0.3944
  462MOL0     C63681   4.587   4.064   4.224  0.0637  0.3106  0.7377
  462MOL0     C63682   4.446   4.088   4.180 -0.1535 -0.9107  0.6737
  462MOL0     C63683   4.338   4.121   4.137 -0.0724 -0.0060  0.0105
  462MOL0     C63684   4.914   4.572   3.774  0.3642 -0.1317  0.2760
  462MOL0     C63685   4.972   4.696   3.751  1.2101  0.3790  0.0445
  462MOL0     C63686   4.981   4.738   3.608 -0.4341 -0.2689 -0.2388
  462MOL0     H63687   5.413   4.885   4.026 -1.5738 -0.8640 -3.0286
  462MOL0     H63688   5.613   5.043   4.020  1.0421  1.0243  0.1210
  462MOL0     H63689   5.768   5.194   3.908 -2.8232  2.4387 -3.1177
  462MOL0     H63690   5.742   5.205   4.081 -0.5800 -3.0526 -1.2428
  462MOL0     H63691   5.908   5.354   3.935 -1.2791 -1.2324 -1.1287
  462MOL0     H63692   5.768   5.465   3.917 -0.8546  0.3953  0.7727
  462MOL0     H63693   5.894   5.552   4.102 -0.9249 -0.2604 -1.5225
  462MOL0     H63694   5.741   5.467   4.167  0.0659 -1.9181  1.6958
  462MOL0     H63695   5.891   5.269   4.197 -1.4157 -0.4379  1.7278
  462MOL0     H63696   6.036   5.370   4.171  0.0294 -3.2737 -2.3549
  462MOL0     H63697   5.948   5.323   4.420  3.7804  1.9035  1.2407
  462MOL0     H63698   5.806   5.422   4.365  0.6428  2.1596 -1.5464
  462MOL0     H63699   5.969   5.608   4.310  0.4878 -1.4145 -1.1102
  462MOL0     H63700   5.929   5.572   4.484 -1.1969  0.2446  0.3704
  462MOL0     H63701   6.168   5.512   4.300 -1.6327 -0.1370 -0.2360
  462MOL0     H63702   6.148   5.424   4.449 -0.6954 -0.1234 -0.6208
  462MOL0     H63703   6.167   5.722   4.410  1.4890  0.1119  0.7066
  462MOL0     H63704   6.153   5.656   4.570 -0.6422 -0.2155  0.6804
  462MOL0     H63705   6.367   5.435   4.561 -0.1178  0.4403 -0.2425
  462MOL0     H63706   6.747   5.506   4.515  0.7581  0.7419  0.7047
  462MOL0     H63707   6.661   5.355   4.485 -1.7493  0.5655 -0.2301
  462MOL0     H63708   6.626   5.529   4.743 -2.6958 -0.7584 -0.2988
  462MOL0     H63709   6.580   5.368   4.741  0.9771 -1.3200 -1.2471
  462MOL0     H63710   6.856   5.340   4.689  0.5431  0.4072 -0.4355
  462MOL0     H63711   6.847   5.495   4.766 -0.1532 -0.2951  2.0612
  462MOL0     H63712   6.704   5.391   4.944  1.1575  1.3538 -0.6628
  462MOL0     H63713   6.742   5.235   4.884 -0.4878  0.7096 -4.2924
  462MOL0     H63714   6.732   5.305   5.168 -0.2562 -0.8154  1.6859
  462MOL0     H63715   6.641   5.432   5.390 -0.5768 -0.8783  2.7264
  462MOL0     H63716   6.751   5.359   5.509  0.5204 -2.7133 -0.0241
  462MOL0     H63717   6.702   5.265   5.378  2.7355 -0.1367 -1.2142
  462MOL0     H63718   7.326   5.648   5.625 -0.6201 -0.5802 -0.7066
  462MOL0     H63719   7.386   5.691   5.864  1.2159 -0.7437  0.2605
  462MOL0     H63720   7.063   5.669   6.147  0.2772 -0.0613 -1.5716
  462MOL0     H63721   7.124   5.515   6.201  1.3388  0.3919  1.9755
  462MOL0     H63722   7.244   5.774   6.271  1.8119 -0.8634  1.1571
  462MOL0     H63723   7.113   5.675   6.365  0.8757 -0.6872  1.1396
  462MOL0     H63724   7.380   5.551   6.325 -2.1922 -1.2685 -1.6762
  462MOL0     H63725   7.255   5.512   6.435  0.7982 -1.6781 -1.4612
  462MOL0     H63726   7.289   5.733   6.550 -1.1248  0.2102 -1.8211
  462MOL0     H63727   7.416   5.771   6.436 -3.0628  1.2593  0.0805
  462MOL0     H63728   7.415   5.530   6.612  0.8696 -0.7095 -1.1389
  462MOL0     H63729   7.535   5.575   6.491 -2.1158  1.1549 -3.0612
  462MOL0     H63730   7.458   5.728   6.748 -2.8483 -0.1012 -2.0480
  462MOL0     H63731   7.580   5.789   6.627 -1.1211  0.3484  0.5364
  462MOL0     H63732   7.726   5.614   6.669 -0.2436  1.0957  0.0711
  462MOL0     H63733   7.619   5.525   6.779  3.3643 -1.1818  0.7062
  462MOL0     H63734   7.783   5.634   6.896  1.8272  2.4281  3.3838
  462MOL0     H63735   7.616   5.684   6.945  0.8757 -0.1205  0.5539
  462MOL0     H63736   6.986   5.545   5.981 -0.5841 -0.1617 -0.4062
  462MOL0     H63737   6.922   5.541   5.751 -0.6936  0.6072  2.1957
  462MOL0     H63738   7.176   5.492   5.278  1.8930 -2.8736 -0.7540
  462MOL0     H63739   7.127   5.389   5.045 -0.5686  0.5083 -0.8475
  462MOL0     H63740   5.345   5.360   3.882 -2.0876 -0.3518 -2.3538
  462MOL0     H63741   5.149   5.185   3.904 -0.9494 -0.6460  2.8967
  462MOL0     H63742   5.050   4.760   4.078  1.3145 -0.9460  0.2949
  462MOL0     H63743   4.920   4.557   4.111 -1.7806  0.9382 -0.2046
  462MOL0     H63744   4.890   4.312   4.089 -0.9596 -1.4009  2.3783
  462MOL0     H63745   4.747   4.416   4.126 -0.1736 -0.8020  0.8578
  462MOL0     H63746   4.704   4.167   3.978 -1.2566  3.5154 -2.7783
  462MOL0     H63747   4.591   4.281   4.037  1.0225  2.0979  1.3347
  462MOL0     H63748   4.790   4.151   4.236  1.1515  0.3925 -0.1845
  462MOL0     H63749   4.676   4.256   4.277  1.9026 -0.4392  0.4557
  462MOL0     H63750   4.585   4.025   4.326 -0.0090 -0.2165  0.5424
  462MOL0     H63751   4.615   3.984   4.154  1.4012  0.6422  0.8662
  462MOL0     H63752   4.241   4.136   4.095  0.8842  0.7687 -2.0707
  462MOL0     H63753   4.896   4.502   3.693 -0.0152 -1.5641  1.5574
  462MOL0     H63754   4.929   4.672   3.538 -3.1955  1.3274  0.1417
  462MOL0     H63755   4.941   4.837   3.586  0.2523  0.4065  1.3647
  462MOL0     H63756   5.083   4.752   3.571  0.0721 -1.1928  0.7391
  463MOL0     O63757  11.176   7.022   8.289  0.4189  0.6557  0.1672
  463MOL0     C63758  11.128   6.926   8.218 -0.0768 -0.6307  0.2363
  463MOL0     O63759  11.167   6.798   8.214 -1.2888  0.2243 -0.5133
  463MOL0     C63760  11.274   6.760   8.295 -0.3080  0.5621 -0.6615
  463MOL0     C63761  11.289   6.790   8.438  0.0787 -0.6839  0.1642
  463MOL0     C63762  11.397   6.734   8.512 -0.3114 -0.1970 -0.6982
  463MOL0     C63763  11.489   6.652   8.447 -0.8429 -0.3053 -0.3828
  463MOL0     O63764  11.604   6.584   8.497 -0.0526 -0.5026  0.2864
  463MOL0     C63765  11.607   6.568   8.632  0.2657  0.0513 -0.5552
  463MOL0     C63766  11.695   6.672   8.707 -0.2707  0.0001 -0.7457
  463MOL0     C63767  11.844   6.654   8.670  1.0155  0.3200  0.5779
  463MOL0     C63768  11.930   6.753   8.752 -0.1408  0.4996  0.2190
  463MOL0     C63769  12.065   6.780   8.686  0.0212  0.1767 -0.9087
  463MOL0     C63770  12.151   6.885   8.761 -0.0119 -0.0684  1.2563
  463MOL0     C63771  12.275   6.941   8.672 -0.0741  0.6660  0.8770
  463MOL0     C63772  12.339   7.052   8.751 -0.0068  0.2233 -0.2131
  463MOL0     N63773  12.457   7.121   8.691 -0.0198  0.6879  0.0623
  463MOL0     C63774  12.565   7.052   8.643 -0.1403  0.0734  0.2442
  463MOL0     C63775  12.625   7.131   8.553  0.2785 -0.3360  0.4598
  463MOL0     C63776  12.737   7.087   8.466 -0.2325 -0.2690  0.1322
  463MOL0     C63777  12.881   7.068   8.537 -0.7947 -0.6943 -0.0200
  463MOL0     C63778  12.913   7.193   8.620 -0.0877  0.4556 -0.5393
  463MOL0     C63779  13.043   7.156   8.696  0.5487 -0.9062 -1.2678
  463MOL0     O63780  13.086   7.268   8.786  0.0159  0.0692 -0.1043
  463MOL0     C63781  13.210   7.253   8.841 -0.5785  0.1692 -0.0671
  463MOL0     C63782  13.282   7.368   8.877 -0.1315 -0.1123  0.7195
  463MOL0     C63783  13.403   7.358   8.958  0.7572  0.4793  0.0435
  463MOL0     C63784  13.485   7.478   9.001  0.4844 -0.1562  0.2829
  463MOL0     C63785  13.451   7.234   8.996  0.4765 -0.7789 -0.4314
  463MOL0     C63786  13.576   7.207   9.071  0.0733 -0.0859  0.5141
  463MOL0     O63787  13.587   7.269   9.194 -0.0777  0.8278 -0.2082
  463MOL0     C63788  13.697   7.240   9.273 -0.4888  0.8057  0.1192
  463MOL0     C63789  13.740   7.105   9.293  0.4357  0.1948  0.4646
  463MOL0     C63790  13.859   7.091   9.374  1.2412 -0.1549 -0.8138
  463MOL0     C63791  13.935   7.191   9.438 -0.1888  1.0213  0.4577
  463MOL0     O63792  14.050   7.156   9.500  0.1233  0.2400 -0.2643
  463MOL0     C63793  14.097   7.222   9.619 -0.1712 -0.1895  0.1157
  463MOL0     C63794  14.038   7.171   9.755  0.2137  0.0610  0.6298
  463MOL0     C63795  14.063   7.269   9.865  0.0306  0.6615 -0.2557
  463MOL0     C63796  14.209   7.268   9.905 -0.3417  0.6354  0.0364
  463MOL0     C63797  14.249   7.375  10.005 -0.5087 -0.0383  0.7139
  463MOL0     C63798  14.401   7.357  10.045  0.3736 -0.4771  0.5745
  463MOL0     C63799  14.436   7.468  10.146 -0.5885  0.1414  0.4080
  463MOL0     C63800  14.563   7.425  10.234  0.3460 -0.2170 -0.2862
  463MOL0    Cl63801  14.602   7.543  10.378  0.1209  0.2917 -0.3138
  463MOL0     C63802  13.889   7.320   9.405  0.0406  0.4355 -0.3627
  463MOL0     C63803  13.767   7.345   9.339 -0.1180 -0.4176  0.1083
  463MOL0     O63804  13.661   7.135   9.016  0.1660  0.0765  0.1903
  463MOL0     C63805  13.382   7.118   8.961  0.0357  0.2583  0.5295
  463MOL0     C63806  13.257   7.125   8.891 -0.0495 -0.4452 -0.0301
  463MOL0     N63807  12.555   7.254   8.553 -0.5498 -0.8307  0.7424
  463MOL0     N63808  12.455   7.247   8.630  0.0301 -0.5208 -0.2164
  463MOL0     C63809  11.467   6.627   8.310 -0.6250  0.6604  0.1553
  463MOL0     C63810  11.361   6.680   8.236  0.7281 -0.3268 -0.5165
  463MOL0     C63811  11.016   6.962   8.121  0.0627  0.0417 -0.0525
  463MOL0     C63812  10.972   7.096   8.129  0.2429  0.0076  0.6638
  463MOL0     C63813  10.858   7.141   8.052 -0.7191  0.1005  0.0508
  463MOL0     C63814  10.782   7.049   7.980 -0.2983  0.1981 -0.0580
  463MOL0     O63815  10.665   7.095   7.926 -0.5356  0.3557  0.9080
  463MOL0     C63816  10.575   7.000   7.877 -0.6806  0.6752  0.0643
  463MOL0     C63817  10.460   7.061   7.804 -0.1950 -0.1523  0.4714
  463MOL0     C63818  10.386   7.163   7.899  0.5047 -0.2480  1.3368
  463MOL0     C63819  10.258   7.195   7.816  0.0361 -0.6564  0.1927
  463MOL0     C63820  10.194   7.307   7.884  0.7022 -0.0804 -0.4739
  463MOL0     C63821  10.131   7.408   7.929  0.0025  0.3757  0.9037
  463MOL0     C63822  10.837   6.926   7.967  0.7230  0.6523 -0.2399
  463MOL0     C63823  10.948   6.867   8.034 -0.1442 -0.6771 -0.6236
  463MOL0     C63824  10.979   6.720   8.023  0.7446 -0.2387 -0.7424
  463MOL0     H63825  11.214   6.847   8.491  0.2464 -1.3989  1.1925
  463MOL0     H63826  11.407   6.749   8.619 -3.1711 -1.8256 -0.0772
  463MOL0     H63827  11.663   6.475   8.645 -0.2427 -0.4286 -1.7439
  463MOL0     H63828  11.507   6.548   8.671 -0.1158  1.3900 -0.8308
  463MOL0     H63829  11.670   6.773   8.673  2.0218  0.2312 -1.9269
  463MOL0     H63830  11.680   6.661   8.815 -0.1867  0.1556 -0.7171
  463MOL0     H63831  11.879   6.553   8.692  2.5093  0.7526  0.2966
  463MOL0     H63832  11.851   6.675   8.562 -2.4084  1.4970  0.4297
  463MOL0     H63833  11.883   6.851   8.756  1.8598  1.4844  0.8353
  463MOL0     H63834  11.938   6.714   8.854  1.8699 -0.4640 -0.2500
  463MOL0     H63835  12.049   6.825   8.587 -0.0404  0.1404 -0.9154
  463MOL0     H63836  12.119   6.684   8.683 -0.5579 -0.2407  0.8205
  463MOL0     H63837  12.073   6.960   8.774 -0.4903 -0.2758 -0.2405
  463MOL0     H63838  12.197   6.848   8.853  3.4790 -1.1339 -0.7162
  463MOL0     H63839  12.240   6.967   8.572  1.3981 -1.3250 -0.2369
  463MOL0     H63840  12.349   6.861   8.662 -0.9241  0.0138 -0.4399
  463MOL0     H63841  12.264   7.129   8.770 -0.2412  0.5486 -2.2135
  463MOL0     H63842  12.365   7.012   8.849 -0.7612  2.2130  0.8638
  463MOL0     H63843  12.592   6.948   8.658 -0.7186 -0.2867 -1.0835
  463MOL0     H63844  12.748   7.162   8.387 -1.2791 -0.1339  0.1024
  463MOL0     H63845  12.705   6.992   8.424  0.9988 -0.1541 -1.1210
  463MOL0     H63846  12.881   6.983   8.606 -2.7853 -1.6655 -1.1207
  463MOL0     H63847  12.946   7.047   8.452 -4.8122 -2.2504 -3.0282
  463MOL0     H63848  12.932   7.282   8.559 -1.4800  2.0212  1.1773
  463MOL0     H63849  12.831   7.206   8.691  0.0539 -0.0611 -0.2791
  463MOL0     H63850  13.025   7.062   8.749 -0.8092  1.4718  2.9531
  463MOL0     H63851  13.117   7.137   8.618  0.4524 -1.7307 -1.1651
  463MOL0     H63852  13.248   7.470   8.859  0.9776  0.6325  2.5491
  463MOL0     H63853  13.493   7.477   9.110 -1.6054  2.2758  0.5623
  463MOL0     H63854  13.432   7.571   8.975 -0.3582  0.1564  2.8534
  463MOL0     H63855  13.579   7.473   8.946  0.6807 -2.3633  0.7526
  463MOL0     H63856  13.701   7.014   9.248  0.8458  0.0508  0.3901
  463MOL0     H63857  13.880   6.986   9.396 -0.2532 -0.2605  0.2988
  463MOL0     H63858  14.206   7.216   9.620 -0.1492 -0.6392  3.1754
  463MOL0     H63859  14.074   7.328   9.606  1.2505 -0.0349 -1.4033
  463MOL0     H63860  13.933   7.147   9.737  0.3876 -1.0313  0.9765
  463MOL0     H63861  14.088   7.077   9.782  0.7477 -0.1055 -0.8484
  463MOL0     H63862  14.004   7.234   9.950  2.1799  0.5180  1.2382
  463MOL0     H63863  14.033   7.371   9.840  0.7474  1.5556  2.2024
  463MOL0     H63864  14.272   7.278   9.817  3.3227 -1.0262  2.2631
  463MOL0     H63865  14.233   7.176   9.959 -0.2114  1.0887  0.7703
  463MOL0     H63866  14.253   7.473   9.958 -1.6462 -0.6334 -0.7305
  463MOL0     H63867  14.184   7.372  10.093  1.4210 -2.6901  2.2042
  463MOL0     H63868  14.449   7.362   9.947 -1.7389  0.0586 -0.4946
  463MOL0     H63869  14.430   7.257  10.077  4.9593 -0.7444 -3.2853
  463MOL0     H63870  14.350   7.479  10.213  0.3025 -0.2379  1.6659
  463MOL0     H63871  14.448   7.564  10.096 -0.2547 -1.1493 -2.1631
  463MOL0     H63872  14.652   7.427  10.170 -1.2219  1.3325 -2.5921
  463MOL0     H63873  14.543   7.323  10.269  0.8251  0.2649  1.4722
  463MOL0     H63874  13.944   7.407   9.441  1.4050  0.0331 -1.3795
  463MOL0     H63875  13.742   7.451   9.337  0.5504 -0.1239  3.1179
  463MOL0     H63876  13.428   7.022   8.987  1.1027  1.0335  1.6087
  463MOL0     H63877  13.201   7.033   8.879 -1.4623  0.5391 -1.5597
  463MOL0     H63878  11.543   6.564   8.265 -2.6783 -2.1681  0.3384
  463MOL0     H63879  11.343   6.660   8.131 -1.0842 -0.0898 -0.2827
  463MOL0     H63880  11.025   7.165   8.194 -1.8001  0.5043  1.9250
  463MOL0     H63881  10.816   7.241   8.050 -0.2828  0.2740 -1.0345
  463MOL0     H63882  10.628   6.940   7.803 -0.4757  0.1944  0.5917
  463MOL0     H63883  10.547   6.923   7.949  0.7363 -1.7383 -1.8297
  463MOL0     H63884  10.392   6.979   7.779 -2.3246  0.4563  3.6511
  463MOL0     H63885  10.493   7.100   7.707  0.7207 -1.1092  0.3786
  463MOL0     H63886  10.353   7.116   7.992 -1.2783 -0.7527  0.4883
  463MOL0     H63887  10.445   7.252   7.921  1.6757 -0.7486  0.3731
  463MOL0     H63888  10.193   7.107   7.817 -0.9874  0.0677 -0.8527
  463MOL0     H63889  10.275   7.215   7.710 -5.4095  0.0055 -0.8368
  463MOL0     H63890  10.079   7.490   7.974 -0.4725  2.6471 -3.2910
  463MOL0     H63891  10.794   6.865   7.888 -0.6966  1.4419 -0.1136
  463MOL0     H63892  10.958   6.668   8.117 -0.5428 -0.0362 -0.8942
  463MOL0     H63893  10.917   6.679   7.943  0.1433  0.6569 -0.7467
  463MOL0     H63894  11.083   6.717   7.991  0.7268  1.8399 -1.1567
  464MOL0     O63895   9.812   0.688   2.111 -0.0593  0.6532  0.2159
  464MOL0     C63896   9.772   0.587   2.051 -0.1980  1.1727  0.1767
  464MOL0     O63897   9.838   0.470   2.050 -0.0578 -0.2685 -1.1992
  464MOL0     C63898   9.954   0.462   2.131  0.2655  0.0479 -0.5710
  464MOL0     C63899  10.060   0.548   2.105  0.5059  0.0974 -0.0106
  464MOL0     C63900  10.176   0.548   2.177 -0.5127 -0.1521 -0.3684
  464MOL0     C63901  10.199   0.456   2.280  0.4632 -0.3049 -1.2761
  464MOL0     O63902  10.313   0.441   2.362 -0.4206  0.6171  0.0975
  464MOL0     C63903  10.437   0.508   2.329 -0.0207 -0.4030 -0.1032
  464MOL0     C63904  10.519   0.405   2.251 -0.8047 -0.4996 -0.0366
  464MOL0     C63905  10.672   0.460   2.251  0.3721 -0.0353  0.6741
  464MOL0     C63906  10.765   0.383   2.348 -1.1191 -0.0920  0.4364
  464MOL0     C63907  10.912   0.435   2.348 -0.0922  1.1006  1.0659
  464MOL0     C63908  10.994   0.336   2.432  0.1611  0.3327 -0.7655
  464MOL0     C63909  11.139   0.380   2.450  0.1012  0.8498 -0.5332
  464MOL0     C63910  11.159   0.487   2.548  0.0580 -0.5316 -0.1527
  464MOL0     N63911  11.283   0.557   2.497  0.1199 -0.7628 -0.0763
  464MOL0     C63912  11.413   0.520   2.526 -0.2191 -0.5925 -0.2606
  464MOL0     C63913  11.486   0.613   2.461  0.6036 -0.0954 -0.4246
  464MOL0     C63914  11.636   0.604   2.456 -0.0773  0.5785  0.5289
  464MOL0     C63915  11.675   0.495   2.355  0.4139 -0.0771 -0.1739
  464MOL0     C63916  11.712   0.355   2.408 -0.0022  0.7532 -0.3508
  464MOL0     C63917  11.846   0.365   2.476  0.6018 -0.1979  0.1220
  464MOL0     O63918  11.948   0.392   2.376  0.4071  0.4696  0.1896
  464MOL0     C63919  12.081   0.387   2.417 -0.1704 -0.1827 -0.1765
  464MOL0     C63920  12.174   0.414   2.315  0.5544 -0.1613  0.8075
  464MOL0     C63921  12.311   0.432   2.343  0.3948  0.1800  0.1969
  464MOL0     C63922  12.401   0.448   2.221  0.4306 -0.2049 -0.5654
  464MOL0     C63923  12.350   0.438   2.477  0.5146  0.3774  0.2404
  464MOL0     C63924  12.494   0.465   2.527 -0.1066  0.4534  0.1944
  464MOL0     O63925  12.590   0.476   2.429  0.1535  0.2312 -0.1568
  464MOL0     C63926  12.722   0.493   2.454  0.0541  1.5086  0.5137
  464MOL0     C63927  12.797   0.514   2.339 -0.3067 -1.0971  0.2485
  464MOL0     C63928  12.931   0.541   2.341  0.2509 -0.1997  0.2434
  464MOL0     C63929  12.998   0.540   2.460  0.0399 -0.4794  0.5705
  464MOL0     O63930  13.133   0.544   2.481 -0.0708  0.1736 -0.7234
  464MOL0     C63931  13.216   0.561   2.369 -0.1302 -0.0641 -0.6951
  464MOL0     C63932  13.360   0.555   2.430 -0.2212  0.2178  0.1603
  464MOL0     C63933  13.450   0.538   2.305 -0.5929 -0.7763 -0.1912
  464MOL0     C63934  13.603   0.550   2.350  0.1539 -0.6304  0.7174
  464MOL0     C63935  13.699   0.599   2.232 -0.2011  0.6407 -0.1777
  464MOL0     C63936  13.848   0.612   2.269 -0.1783 -0.7530 -0.1843
  464MOL0     C63937  13.945   0.668   2.168  0.0655 -0.0340  0.0245
  464MOL0     C63938  14.090   0.623   2.199 -0.7664 -0.2333  0.5490
  464MOL0    Cl63939  14.124   0.454   2.153  0.3846 -0.3090 -0.0790
  464MOL0     C63940  12.927   0.526   2.575  0.0560 -0.4787 -0.6178
  464MOL0     C63941  12.793   0.494   2.572  0.3097  0.0293 -0.4662
  464MOL0     O63942  12.516   0.489   2.646 -0.1049  0.5140 -0.8829
  464MOL0     C63943  12.255   0.405   2.574 -0.5682 -0.0989 -0.2072
  464MOL0     C63944  12.123   0.378   2.546 -0.0188  0.7326 -0.1034
  464MOL0     N63945  11.402   0.714   2.422  0.1719  0.3488  0.5809
  464MOL0     N63946  11.280   0.677   2.427 -0.4104 -0.3371 -0.5643
  464MOL0     C63947  10.089   0.371   2.310  0.1577 -1.1367 -0.3370
  464MOL0     C63948   9.965   0.380   2.239 -0.2256  0.7314 -0.8140
  464MOL0     C63949   9.647   0.591   1.973 -0.0708  0.3696  0.1869
  464MOL0     C63950   9.621   0.490   1.881 -0.3023 -0.1910 -0.6169
  464MOL0     C63951   9.504   0.491   1.798 -1.0431  0.2881 -0.7709
  464MOL0     C63952   9.418   0.597   1.797  0.1097 -0.3944 -0.2214
  464MOL0     O63953   9.312   0.581   1.708  0.1753  0.4888 -0.4438
  464MOL0     C63954   9.224   0.694   1.686 -0.3915  0.5941 -0.1718
  464MOL0     C63955   9.130   0.639   1.576 -0.8437 -0.2251 -1.0730
  464MOL0     C63956   9.025   0.756   1.554 -0.0732  0.7673 -0.2392
  464MOL0     C63957   8.878   0.719   1.589 -0.4830 -0.0913 -0.1561
  464MOL0     C63958   8.820   0.637   1.480  0.0590  0.3864 -0.3986
  464MOL0     C63959   8.771   0.566   1.395 -0.0989  0.1768  0.2013
  464MOL0     C63960   9.446   0.704   1.885  0.9018  0.4362 -0.5955
  464MOL0     C63961   9.556   0.700   1.972 -0.6251  0.5472 -0.4720
  464MOL0     C63962   9.572   0.826   2.063  0.6078  0.1279  0.6696
  464MOL0     H63963  10.047   0.624   2.028  0.0904 -0.5904 -0.6346
  464MOL0     H63964  10.249   0.627   2.164  1.3409 -1.7186  0.0973
  464MOL0     H63965  10.490   0.534   2.421  0.4051 -3.1377  0.5313
  464MOL0     H63966  10.418   0.604   2.279  3.3750 -0.0362 -0.9199
  464MOL0     H63967  10.513   0.312   2.309 -0.1820  0.3876  1.4913
  464MOL0     H63968  10.467   0.393   2.155  0.2678  0.2535 -0.7227
  464MOL0     H63969  10.706   0.448   2.147  1.3220  2.5661  0.6279
  464MOL0     H63970  10.685   0.567   2.266  1.8762 -0.0665 -0.1671
  464MOL0     H63971  10.720   0.395   2.447 -1.4677  1.2830  0.1321
  464MOL0     H63972  10.757   0.277   2.323  0.1700 -0.1738  0.3017
  464MOL0     H63973  10.914   0.539   2.380 -1.5782  1.6821 -0.5891
  464MOL0     H63974  10.954   0.432   2.247  2.1460  0.0195  1.9696
  464MOL0     H63975  10.943   0.322   2.527 -1.8761 -0.4984 -1.9284
  464MOL0     H63976  10.982   0.239   2.383  0.4018  0.6766 -1.5360
  464MOL0     H63977  11.178   0.403   2.351  0.6625 -0.6896 -0.7078
  464MOL0     H63978  11.197   0.296   2.488 -1.3125 -0.2277 -0.6406
  464MOL0     H63979  11.075   0.555   2.536  1.5876  1.3700 -0.6880
  464MOL0     H63980  11.172   0.456   2.652 -0.3474 -1.1118 -0.2693
  464MOL0     H63981  11.451   0.429   2.572  2.2373  1.9977  3.3329
  464MOL0     H63982  11.681   0.583   2.554 -0.7119 -0.2321  0.6551
  464MOL0     H63983  11.669   0.706   2.435 -1.3182  1.5221  2.8011
  464MOL0     H63984  11.591   0.482   2.287 -0.5468  1.4861  0.6515
  464MOL0     H63985  11.765   0.523   2.300  0.7275  2.4956  1.4674
  464MOL0     H63986  11.649   0.307   2.483 -1.0557  1.9881 -0.4248
  464MOL0     H63987  11.720   0.284   2.325  0.3848 -0.0234  0.3334
  464MOL0     H63988  11.856   0.448   2.546 -0.9846  0.5160 -0.4583
  464MOL0     H63989  11.865   0.269   2.526  0.9808  0.0807  0.5174
  464MOL0     H63990  12.133   0.428   2.216  2.1058  4.3338  0.5727
  464MOL0     H63991  12.481   0.373   2.226  2.0811  1.4669 -0.8600
  464MOL0     H63992  12.442   0.548   2.206  2.8508 -0.7700  1.5259
  464MOL0     H63993  12.341   0.443   2.130  1.8136  0.8217 -1.5783
  464MOL0     H63994  12.748   0.518   2.242 -3.1607 -1.3188  1.5803
  464MOL0     H63995  12.992   0.561   2.254 -1.2155  0.4245 -0.6744
  464MOL0     H63996  13.200   0.478   2.300  0.7076 -0.8743  0.0583
  464MOL0     H63997  13.210   0.656   2.315  1.5532  0.8587  0.6296
  464MOL0     H63998  13.382   0.651   2.477 -0.4335  1.8727 -2.9281
  464MOL0     H63999  13.381   0.478   2.506  2.1379  0.3792 -0.2598
  464MOL0     H64000  13.437   0.625   2.240  1.3543 -0.2951  0.0011
  464MOL0     H64001  13.438   0.445   2.249 -0.0765 -1.5059  0.8824
  464MOL0     H64002  13.629   0.451   2.387 -0.5971 -1.7629 -1.5837
  464MOL0     H64003  13.622   0.611   2.438  0.0270  1.0155 -0.3516
  464MOL0     H64004  13.687   0.538   2.142 -0.0356 -0.7029  0.6690
  464MOL0     H64005  13.658   0.697   2.204  1.6901  2.1607  2.0081
  464MOL0     H64006  13.885   0.514   2.302 -0.7839 -0.6002  0.9886
  464MOL0     H64007  13.856   0.675   2.358 -0.0062 -1.8905  0.6298
  464MOL0     H64008  13.931   0.777   2.170  0.8020  0.0926 -0.8502
  464MOL0     H64009  13.924   0.628   2.068 -0.5016 -2.0554  0.9165
  464MOL0     H64010  14.118   0.643   2.303  3.6913  1.2493 -0.7246
  464MOL0     H64011  14.163   0.677   2.138 -1.1649  1.4404  1.4814
  464MOL0     H64012  12.985   0.548   2.665 -0.2579 -0.1231 -0.5012
  464MOL0     H64013  12.748   0.477   2.670 -0.5384  3.7301 -0.0488
  464MOL0     H64014  12.289   0.411   2.677 -1.0904  4.2858 -0.0842
  464MOL0     H64015  12.061   0.337   2.626  3.7209 -2.5933  1.4542
  464MOL0     H64016  10.102   0.305   2.394  3.9748  0.2727  0.3833
  464MOL0     H64017   9.880   0.314   2.254  0.6300  0.2057  2.7400
  464MOL0     H64018   9.688   0.406   1.867  2.4708  1.8699 -0.7669
  464MOL0     H64019   9.494   0.412   1.724 -2.1773 -0.7259  0.4138
  464MOL0     H64020   9.181   0.734   1.778 -2.3987  1.7289 -1.5136
  464MOL0     H64021   9.281   0.777   1.642  0.1143 -0.4365 -1.5254
  464MOL0     H64022   9.079   0.548   1.609  1.4850 -1.0961  0.4372
  464MOL0     H64023   9.180   0.615   1.482  4.4503 -0.6827  1.4914
  464MOL0     H64024   9.044   0.841   1.620 -1.1722 -0.2180  1.4162
  464MOL0     H64025   9.029   0.802   1.455 -0.6451  1.9627  0.2747
  464MOL0     H64026   8.822   0.813   1.587 -2.0607 -1.0029  0.0008
  464MOL0     H64027   8.857   0.676   1.688  0.8993  0.0954  0.2392
  464MOL0     H64028   8.718   0.519   1.315  1.5016 -0.5310 -0.4937
  464MOL0     H64029   9.378   0.789   1.882 -0.2716 -0.5001 -1.3997
  464MOL0     H64030   9.666   0.869   2.025  0.2768  0.1262 -0.1676
  464MOL0     H64031   9.492   0.899   2.047  1.5811  1.2125  0.5976
  464MOL0     H64032   9.579   0.796   2.168 -0.3534  0.1327  0.7438
  465MOL0     O64033   2.295   0.405   6.083  0.3386 -0.4763 -0.1022
  465MOL0     C64034   2.366   0.317   6.057  0.2566  0.1253  0.0085
  465MOL0     O64035   2.327   0.196   6.031  0.3107 -0.1703 -0.0644
  465MOL0     C64036   2.185   0.173   6.010  0.2776  0.3860  0.2357
  465MOL0     C64037   2.118   0.239   5.906 -0.3840 -0.2616  0.5133
  465MOL0     C64038   1.984   0.221   5.887 -0.2658 -0.2572  0.6032
  465MOL0     C64039   1.906   0.160   5.982 -0.1541  0.0945 -0.2673
  465MOL0     O64040   1.776   0.178   5.963 -0.6282 -0.1465 -0.5599
  465MOL0     C64041   1.700   0.226   6.077 -0.4692 -0.4485 -0.4082
  465MOL0     C64042   1.728   0.380   6.094  0.5027  0.5330 -0.7777
  465MOL0     C64043   1.651   0.450   6.206  0.3035 -0.2299 -0.5611
  465MOL0     C64044   1.726   0.579   6.256 -0.1061 -0.0032  0.3772
  465MOL0     C64045   1.733   0.684   6.151  0.0159 -0.2469 -0.3750
  465MOL0     C64046   1.797   0.818   6.196 -0.6642 -0.0474  0.0501
  465MOL0     C64047   1.949   0.808   6.219  0.4010  0.4250  0.1517
  465MOL0     C64048   2.011   0.942   6.255 -0.2367 -0.0725 -0.1614
  465MOL0     N64049   2.149   0.921   6.303 -0.0762 -0.2623 -0.3318
  465MOL0     C64050   2.261   0.923   6.226 -0.4993  0.3916 -0.2284
  465MOL0     C64051   2.363   0.862   6.292  0.2429 -0.4281 -0.6734
  465MOL0     C64052   2.496   0.830   6.231  0.1226 -0.7282 -0.6056
  465MOL0     C64053   2.561   0.703   6.294 -0.7521 -0.5044  0.1606
  465MOL0     C64054   2.711   0.692   6.271 -0.8675  0.8568 -0.4306
  465MOL0     C64055   2.782   0.575   6.345 -0.3362 -0.1148  0.1451
  465MOL0     O64056   2.914   0.611   6.395  0.1401  0.6176 -0.3492
  465MOL0     C64057   3.021   0.627   6.318  0.0044  0.3518  0.0940
  465MOL0     C64058   3.033   0.580   6.183 -0.1420 -0.3000  0.2198
  465MOL0     C64059   3.142   0.622   6.099  0.8376  0.5263 -0.2799
  465MOL0     C64060   3.149   0.572   5.954  0.9348 -0.3121  1.0778
  465MOL0     C64061   3.251   0.693   6.160  0.2659  0.3687  0.3251
  465MOL0     C64062   3.383   0.725   6.101  0.6674 -0.3160  1.5133
  465MOL0     O64063   3.412   0.859   6.099 -0.2216 -0.1541 -0.3471
  465MOL0     C64064   3.532   0.887   6.046 -0.1441 -0.0098  0.8503
  465MOL0     C64065   3.577   0.840   5.917  0.8823 -0.3548 -0.0796
  465MOL0     C64066   3.708   0.863   5.887  0.1360 -1.1912  0.2549
  465MOL0     C64067   3.794   0.951   5.965 -0.1670  0.9933 -1.0078
  465MOL0     O64068   3.930   0.985   5.930  0.2233 -0.1149 -0.3702
  465MOL0     C64069   3.992   0.909   5.828  0.2460  0.1064  0.9172
  465MOL0     C64070   4.134   0.961   5.815 -0.1155  0.4796 -0.9458
  465MOL0     C64071   4.217   0.942   5.949  0.4019  0.4274  0.5246
  465MOL0     C64072   4.351   1.004   5.907 -0.6067 -0.4313 -0.3829
  465MOL0     C64073   4.437   1.025   6.039  0.4512 -0.0974  0.1118
  465MOL0     C64074   4.559   1.104   5.989 -0.5959  0.3583  0.6299
  465MOL0     C64075   4.678   1.092   6.086 -0.3195  0.5605  0.2848
  465MOL0     C64076   4.791   1.186   6.046 -0.3990 -0.1764  0.1473
  465MOL0    Cl64077   4.715   1.351   6.052 -0.1492  0.3237  0.2142
  465MOL0     C64078   3.745   1.020   6.080 -0.7838  0.7673 -0.8362
  465MOL0     C64079   3.616   0.975   6.117  0.2943 -0.0359 -0.3904
  465MOL0     O64080   3.447   0.631   6.058 -0.3752  0.6915 -0.4009
  465MOL0     C64081   3.241   0.734   6.298  0.4930 -0.0837 -0.8642
  465MOL0     C64082   3.126   0.699   6.377 -0.1629 -0.3826 -0.5295
  465MOL0     N64083   2.329   0.846   6.418  0.1888  0.3374 -0.3980
  465MOL0     N64084   2.201   0.890   6.431  0.5391 -0.3263 -0.1398
  465MOL0     C64085   1.972   0.101   6.096  1.1012 -0.0323  0.3690
  465MOL0     C64086   2.110   0.103   6.110  0.7198 -1.0105  0.3185
  465MOL0     C64087   2.510   0.323   6.075  0.1120 -0.7456 -1.0909
  465MOL0     C64088   2.586   0.384   5.976 -0.1222 -0.5476  0.5234
  465MOL0     C64089   2.724   0.377   5.963  0.7584 -0.5739 -0.0238
  465MOL0     C64090   2.797   0.299   6.057 -0.3154 -0.4446  0.3987
  465MOL0     O64091   2.932   0.300   6.039 -0.0592  0.6580  0.1145
  465MOL0     C64092   3.007   0.208   6.125 -0.4613 -1.2039 -0.1797
  465MOL0     C64093   2.990   0.059   6.098 -0.2271  0.0546 -0.3220
  465MOL0     C64094   3.035   0.031   5.958 -0.1393 -0.1287 -0.0989
  465MOL0     C64095   2.999  -0.114   5.940  0.2074 -0.0294  0.1068
  465MOL0     C64096   3.088  -0.180   5.844 -0.1352 -0.0605 -0.3909
  465MOL0     C64097   3.169  -0.221   5.768 -0.1557  0.2764 -0.0464
  465MOL0     C64098   2.725   0.243   6.167 -1.2783  0.6959  1.0911
  465MOL0     C64099   2.583   0.252   6.181  1.0546  0.1188  0.2227
  465MOL0     C64100   2.511   0.187   6.307  0.3902  0.4453  0.4554
  465MOL0     H64101   2.188   0.273   5.831 -0.1010  2.2735  1.8137
  465MOL0     H64102   1.943   0.271   5.799 -0.3041  0.6669  1.1349
  465MOL0     H64103   1.720   0.169   6.168 -0.3673  1.1843  0.6322
  465MOL0     H64104   1.594   0.211   6.054 -0.5102 -0.9839  0.0874
  465MOL0     H64105   1.838   0.387   6.095  0.5622 -0.3369 -0.9001
  465MOL0     H64106   1.705   0.438   6.004  3.4192  0.4776 -1.6810
  465MOL0     H64107   1.551   0.482   6.175  0.1311  0.3509  0.5360
  465MOL0     H64108   1.631   0.384   6.292 -2.3368  0.3889 -0.6082
  465MOL0     H64109   1.669   0.615   6.342 -0.2181  0.6584  0.0345
  465MOL0     H64110   1.827   0.572   6.297  0.1403  4.6563  1.1796
  465MOL0     H64111   1.633   0.695   6.106  1.8047  0.3216 -4.7623
  465MOL0     H64112   1.801   0.648   6.074  2.6699  1.3389  1.0881
  465MOL0     H64113   1.780   0.890   6.115 -0.8787 -0.2545 -0.0922
  465MOL0     H64114   1.740   0.858   6.280 -0.7949 -0.6693  0.2606
  465MOL0     H64115   2.011   0.775   6.135  1.1951  0.3401  0.7630
  465MOL0     H64116   1.977   0.729   6.289  1.3647  0.0082 -0.6908
  465MOL0     H64117   2.009   1.017   6.176  0.2677 -0.1190 -0.2230
  465MOL0     H64118   1.954   0.989   6.336  0.6479  1.7454 -0.5414
  465MOL0     H64119   2.259   0.967   6.127 -2.2985 -1.1549 -0.9435
  465MOL0     H64120   2.575   0.904   6.247 -0.4316 -0.2373 -0.0473
  465MOL0     H64121   2.494   0.820   6.122  0.8424 -0.6355 -0.6352
  465MOL0     H64122   2.539   0.694   6.401 -0.3116 -1.3202  0.1931
  465MOL0     H64123   2.513   0.615   6.249  0.0552 -0.0199 -1.7457
  465MOL0     H64124   2.725   0.682   6.163 -1.1053  0.1196 -0.3950
  465MOL0     H64125   2.770   0.780   6.298  2.6180 -1.7138  1.1179
  465MOL0     H64126   2.722   0.546   6.432 -0.1367 -3.3185 -0.6318
  465MOL0     H64127   2.780   0.483   6.285 -1.0275  1.4781 -2.4601
  465MOL0     H64128   2.959   0.513   6.141 -1.3657 -0.1633  2.0412
  465MOL0     H64129   3.186   0.470   5.965  2.0988 -0.4053 -2.4418
  465MOL0     H64130   3.226   0.632   5.906  2.8898 -0.2338  4.0504
  465MOL0     H64131   3.050   0.576   5.908  0.5986 -0.8743  1.7326
  465MOL0     H64132   3.512   0.778   5.856  0.1281 -1.3392  1.6377
  465MOL0     H64133   3.739   0.818   5.793  3.7232  1.7612 -0.2320
  465MOL0     H64134   3.994   0.801   5.845  0.3068 -0.3582 -1.5835
  465MOL0     H64135   3.936   0.924   5.735 -0.1817 -1.1867  0.9456
  465MOL0     H64136   4.186   0.899   5.741 -0.9258 -0.0323 -1.0997
  465MOL0     H64137   4.128   1.066   5.788 -1.4072  0.6703 -0.0108
  465MOL0     H64138   4.230   0.836   5.972  1.6378  0.1605 -1.2578
  465MOL0     H64139   4.170   0.994   6.033  1.8828  1.4981  0.7389
  465MOL0     H64140   4.328   1.095   5.852 -2.5731  0.1033  1.1778
  465MOL0     H64141   4.407   0.944   5.835 -0.1614  0.6529 -0.9578
  465MOL0     H64142   4.389   1.093   6.110 -0.0920 -0.5940  0.2328
  465MOL0     H64143   4.461   0.934   6.095  1.4102 -0.2860 -0.5876
  465MOL0     H64144   4.518   1.206   5.992 -0.3689  0.4769  3.7701
  465MOL0     H64145   4.589   1.076   5.888  2.3967  2.5819  0.7649
  465MOL0     H64146   4.702   0.985   6.087  0.4847  0.7023 -0.9920
  465MOL0     H64147   4.648   1.113   6.189 -1.3896 -2.7292  0.7558
  465MOL0     H64148   4.831   1.171   5.945  1.1614 -0.3044  0.7632
  465MOL0     H64149   4.873   1.170   6.116 -0.2577 -2.5315 -0.4783
  465MOL0     H64150   3.802   1.101   6.124  0.5528 -0.7663  0.3631
  465MOL0     H64151   3.585   1.017   6.212 -1.9551 -0.8649 -0.6892
  465MOL0     H64152   3.315   0.800   6.342  1.5247 -1.9493  0.3687
  465MOL0     H64153   3.118   0.729   6.480 -3.0828 -1.4390 -0.3427
  465MOL0     H64154   1.907   0.075   6.179 -0.7641  2.4400 -0.1951
  465MOL0     H64155   2.162   0.071   6.199  2.2947  1.2009  0.2810
  465MOL0     H64156   2.543   0.456   5.907 -0.1345  0.5149  1.6001
  465MOL0     H64157   2.776   0.438   5.890  0.8525 -1.9061 -1.1034
  465MOL0     H64158   3.115   0.222   6.113 -0.6848 -0.8656 -2.1444
  465MOL0     H64159   2.991   0.239   6.229  1.4854 -1.1450  0.1419
  465MOL0     H64160   2.883   0.051   6.120 -0.5367  4.3136  0.5491
  465MOL0     H64161   3.036  -0.013   6.166 -1.2209 -0.1333  0.1720
  465MOL0     H64162   2.986   0.101   5.889  1.5219  0.6168 -0.5592
  465MOL0     H64163   3.140   0.051   5.936  0.4495  0.3569  2.7761
  465MOL0     H64164   2.894  -0.124   5.911  0.6441 -2.1380 -0.9616
  465MOL0     H64165   3.023  -0.173   6.029  2.4485 -0.1777 -0.5169
  465MOL0     H64166   3.247  -0.251   5.701 -1.2739  1.5490 -2.0145
  465MOL0     H64167   2.774   0.183   6.243  0.8669  0.6376 -0.2467
  465MOL0     H64168   2.587   0.124   6.354  1.0691 -1.1450 -2.5281
  465MOL0     H64169   2.474   0.262   6.377 -1.6825  1.7647 -1.9045
  465MOL0     H64170   2.417   0.137   6.282  1.1150 -0.2408 -1.0386
  466MOL0     O64171   3.559  10.738   1.750  0.3095  0.4490  0.9591
  466MOL0     C64172   3.456  10.802   1.727 -1.2484  0.5528 -0.3530
  466MOL0     O64173   3.444  10.906   1.636  0.0964 -1.3791 -0.1986
  466MOL0     C64174   3.562  10.947   1.591 -0.4434 -0.2900  0.2590
  466MOL0     C64175   3.634  11.037   1.659 -0.0210  0.6184 -0.4848
  466MOL0     C64176   3.769  11.075   1.626  0.7409 -0.7455 -0.7365
  466MOL0     C64177   3.825  11.021   1.510 -0.1126 -0.0283 -0.1907
  466MOL0     O64178   3.946  11.038   1.460  0.8446 -0.5553  0.6574
  466MOL0     C64179   4.057  11.045   1.555 -1.2875 -0.6655 -0.8201
  466MOL0     C64180   4.116  10.904   1.594 -0.3912  0.3790 -0.4209
  466MOL0     C64181   4.182  10.845   1.468 -0.3502 -0.2852 -0.2914
  466MOL0     C64182   4.261  10.713   1.503  0.0257 -0.1691  0.6863
  466MOL0     C64183   4.301  10.653   1.370 -0.1874 -0.8094 -0.1698
  466MOL0     C64184   4.393  10.728   1.277 -0.0019  0.4302 -1.1087
  466MOL0     C64185   4.507  10.787   1.348 -0.2397 -0.6057 -0.1112
  466MOL0     C64186   4.597  10.870   1.256  0.4271  0.1824  0.2990
  466MOL0     N64187   4.699  10.947   1.335  0.2759  0.2109 -0.4209
  466MOL0     C64188   4.803  10.896   1.423 -0.6513 -1.1670  0.2232
  466MOL0     C64189   4.879  11.013   1.433  0.3369  1.2258 -0.2462
  466MOL0     C64190   4.996  11.054   1.518  0.2600  0.1187 -0.5225
  466MOL0     C64191   5.128  10.985   1.485  0.5982  0.1889  0.5002
  466MOL0     C64192   5.152  10.860   1.575 -0.1005  0.5139  0.3521
  466MOL0     C64193   5.302  10.842   1.597 -0.7274 -0.4730 -0.6252
  466MOL0     O64194   5.358  10.946   1.686  0.4561 -0.5870 -0.4770
  466MOL0     C64195   5.501  10.969   1.681  0.8922  0.4368 -0.2916
  466MOL0     C64196   5.551  11.071   1.761  0.6220  0.9787  0.5263
  466MOL0     C64197   5.686  11.093   1.768 -0.0766 -0.7320  0.0817
  466MOL0     C64198   5.735  11.200   1.871  0.1251 -0.0286  0.4606
  466MOL0     C64199   5.776  11.011   1.693 -1.1519 -0.4140 -0.0703
  466MOL0     C64200   5.931  11.027   1.693 -0.4188 -0.7082  0.3433
  466MOL0     O64201   5.995  10.936   1.625 -0.2612  0.0615 -0.4946
  466MOL0     C64202   6.133  10.960   1.609  0.3251  0.0333  0.5242
  466MOL0     C64203   6.221  10.850   1.623 -0.5668 -1.3283 -0.0174
  466MOL0     C64204   6.362  10.867   1.588  0.9245  0.6856 -0.3732
  466MOL0     C64205   6.409  10.984   1.535 -0.1943 -0.2915 -0.1822
  466MOL0     O64206   6.536  11.007   1.499  0.0125  0.1614 -0.4455
  466MOL0     C64207   6.646  10.923   1.553  0.6168  0.8714  0.0644
  466MOL0     C64208   6.784  10.978   1.527  0.4551 -0.0009 -0.0284
  466MOL0     C64209   6.892  10.892   1.602  0.0959 -0.0356  0.9031
  466MOL0     C64210   7.037  10.937   1.560  0.9675  0.3858 -0.6181
  466MOL0     C64211   7.147  10.873   1.643 -0.0304  0.1180 -0.9975
  466MOL0     C64212   7.289  10.915   1.602  0.4691  0.1304 -0.1539
  466MOL0     C64213   7.396  10.833   1.678 -0.0040 -1.1716 -0.3402
  466MOL0     C64214   7.410  10.703   1.612 -0.4062  0.2719  0.3367
  466MOL0    Cl64215   7.515  10.712   1.465 -0.0562  0.0525 -0.3951
  466MOL0     C64216   6.311  11.089   1.506  0.3762 -0.0151  0.0358
  466MOL0     C64217   6.177  11.077   1.544 -0.6842 -1.1375  0.1500
  466MOL0     O64218   5.980  11.123   1.757  0.1291  0.2126  0.7219
  466MOL0     C64219   5.724  10.924   1.603 -0.5221  0.1871 -0.4364
  466MOL0     C64220   5.587  10.896   1.603  0.3541 -0.3083  0.0250
  466MOL0     N64221   4.829  11.114   1.366 -0.0884 -0.3405  0.0018
  466MOL0     N64222   4.721  11.077   1.308  0.3980  0.9961 -0.3530
  466MOL0     C64223   3.749  10.921   1.441 -0.0833 -0.2547  0.1190
  466MOL0     C64224   3.624  10.881   1.478 -1.2982 -0.3381 -0.4778
  466MOL0     C64225   3.336  10.774   1.803  0.1618  0.0463  0.4557
  466MOL0     C64226   3.233  10.869   1.803 -0.1639  0.0212  0.8310
  466MOL0     C64227   3.106  10.853   1.868 -0.9237 -0.2450 -0.3148
  466MOL0     C64228   3.079  10.731   1.928 -0.0912  0.5410  0.1204
  466MOL0     O64229   2.960  10.696   1.981  0.6708 -0.2116 -0.0605
  466MOL0     C64230   2.895  10.791   2.075 -0.5024 -0.6889  0.1555
  466MOL0     C64231   2.981  10.827   2.204 -0.5105  0.2581 -0.7346
  466MOL0     C64232   3.006  10.696   2.286 -0.1182 -0.0908  0.3076
  466MOL0     C64233   3.106  10.718   2.408 -0.5033 -0.1029 -0.5975
  466MOL0     C64234   3.239  10.742   2.350  0.3634  0.3074  0.0124
  466MOL0     C64235   3.350  10.755   2.303  0.6183  0.8231 -1.1261
  466MOL0     C64236   3.180  10.631   1.933 -0.5900  0.4599 -0.5012
  466MOL0     C64237   3.305  10.654   1.883 -0.2247  0.0789  0.6412
  466MOL0     C64238   3.396  10.541   1.910  0.3840 -0.1572 -0.1849
  466MOL0     H64239   3.579  11.062   1.749 -2.1385 -2.5359 -0.7082
  466MOL0     H64240   3.821  11.141   1.696  1.0596 -3.1670  1.4709
  466MOL0     H64241   4.018  11.092   1.646 -0.6157  1.8050 -1.7339
  466MOL0     H64242   4.135  11.110   1.514  0.5602 -0.3025  2.8748
  466MOL0     H64243   4.195  10.914   1.669 -1.7661  0.1868  1.1045
  466MOL0     H64244   4.044  10.832   1.633  0.7380 -0.1209  0.8191
  466MOL0     H64245   4.110  10.827   1.388 -0.2903  0.6709 -0.5805
  466MOL0     H64246   4.253  10.919   1.430 -1.9598  1.5378  0.0703
  466MOL0     H64247   4.341  10.742   1.572  0.2351 -1.2919  0.9377
  466MOL0     H64248   4.198  10.646   1.563  0.2239 -1.3385 -0.3812
  466MOL0     H64249   4.210  10.626   1.316 -2.4731 -0.7189  3.3299
  466MOL0     H64250   4.353  10.559   1.394  1.1662 -1.3427 -4.3802
  466MOL0     H64251   4.430  10.653   1.206 -0.7760  0.5436 -1.6586
  466MOL0     H64252   4.336  10.809   1.230 -0.3318  1.0273  0.2963
  466MOL0     H64253   4.552  10.704   1.405 -2.2327 -1.6517  0.0383
  466MOL0     H64254   4.470  10.862   1.418 -1.1125  0.8289 -2.0237
  466MOL0     H64255   4.648  10.813   1.178 -1.6756 -0.1732 -0.8912
  466MOL0     H64256   4.532  10.936   1.198 -1.7341 -1.5187  0.6323
  466MOL0     H64257   4.813  10.803   1.479  1.0862 -1.3839 -0.3860
  466MOL0     H64258   4.962  11.050   1.622 -0.0581 -0.0263 -0.6339
  466MOL0     H64259   5.019  11.159   1.494  2.3660 -0.0501  0.4964
  466MOL0     H64260   5.127  10.948   1.382 -1.2805 -2.1533  1.2711
  466MOL0     H64261   5.207  11.058   1.505  0.0158  0.7781  0.6752
  466MOL0     H64262   5.105  10.866   1.674  0.7289  0.4160  0.7538
  466MOL0     H64263   5.100  10.770   1.540 -2.0630  1.5405  0.4677
  466MOL0     H64264   5.316  10.745   1.644  0.8526 -0.4177 -0.9269
  466MOL0     H64265   5.359  10.851   1.504  0.9820  2.1212  0.5347
  466MOL0     H64266   5.483  11.133   1.819 -2.2198 -2.0481  0.7409
  466MOL0     H64267   5.793  11.283   1.831  0.6012 -0.6035 -0.0760
  466MOL0     H64268   5.799  11.163   1.951  2.6776  2.5465 -0.2524
  466MOL0     H64269   5.656  11.253   1.924 -0.2131  0.8076 -0.8408
  466MOL0     H64270   6.188  10.754   1.662  0.6875 -1.6390  0.3258
  466MOL0     H64271   6.423  10.778   1.592 -1.0133 -0.6904  2.8389
  466MOL0     H64272   6.628  10.898   1.658 -0.3796 -1.2953 -0.5586
  466MOL0     H64273   6.639  10.831   1.493 -1.7517  0.0386  1.4993
  466MOL0     H64274   6.809  10.988   1.421  0.3849  1.8282  0.0919
  466MOL0     H64275   6.795  11.079   1.568  0.1256  1.6962 -3.7413
  466MOL0     H64276   6.868  10.792   1.564 -2.3825  0.9756 -0.3963
  466MOL0     H64277   6.874  10.884   1.710 -1.5246 -1.9854  0.5710
  466MOL0     H64278   7.029  11.045   1.575  0.1902  0.1044  1.2237
  466MOL0     H64279   7.054  10.922   1.453  0.1196 -0.2399 -0.6838
  466MOL0     H64280   7.133  10.891   1.750 -0.8947  0.5603 -1.1796
  466MOL0     H64281   7.133  10.765   1.634 -1.8869  0.1215  0.9069
  466MOL0     H64282   7.302  11.019   1.633 -0.5632  0.6013 -1.2727
  466MOL0     H64283   7.293  10.908   1.493 -2.9153  2.2762 -0.5462
  466MOL0     H64284   7.362  10.824   1.782 -0.6621 -1.0070 -0.5378
  466MOL0     H64285   7.491  10.888   1.672 -0.1230 -0.6672  1.5998
  466MOL0     H64286   7.312  10.657   1.592  0.0504  0.1089 -1.7730
  466MOL0     H64287   7.456  10.632   1.680 -1.4959  1.8145  2.8108
  466MOL0     H64288   6.355  11.179   1.466  2.3648 -0.0838  1.8662
  466MOL0     H64289   6.114  11.164   1.532  0.7146 -0.0569  0.3578
  466MOL0     H64290   5.790  10.857   1.550  1.5935  3.5826 -2.5159
  466MOL0     H64291   5.559  10.811   1.541  0.6077 -0.2799 -0.1270
  466MOL0     H64292   3.798  10.872   1.358 -1.7981 -3.3585  0.7839
  466MOL0     H64293   3.563  10.815   1.418 -1.4944 -0.0307 -0.6202
  466MOL0     H64294   3.238  10.967   1.756  0.3536  1.5123  3.7431
  466MOL0     H64295   3.028  10.929   1.867  0.1874  0.9687 -2.1841
  466MOL0     H64296   2.872  10.884   2.023  0.2945 -1.8246 -2.3456
  466MOL0     H64297   2.801  10.739   2.097 -2.3033  1.6785 -1.4274
  466MOL0     H64298   2.930  10.895   2.272 -1.5109 -0.5414 -0.6708
  466MOL0     H64299   3.078  10.872   2.180 -0.0943  1.5809  2.8745
  466MOL0     H64300   2.912  10.663   2.332  0.4440 -0.9441  0.8806
  466MOL0     H64301   3.051  10.617   2.226 -1.9269 -0.9558  0.0253
  466MOL0     H64302   3.114  10.631   2.474  2.6127  0.9855  0.6548
  466MOL0     H64303   3.082  10.805   2.469  0.6037 -0.2971  0.1589
  466MOL0     H64304   3.450  10.778   2.273  0.9363  0.7476 -0.1643
  466MOL0     H64305   3.149  10.530   1.961 -1.6990  0.7491 -0.6429
  466MOL0     H64306   3.487  10.576   1.959 -1.1270 -1.3418  3.8647
  466MOL0     H64307   3.356  10.465   1.977  1.1956  0.8630  1.5339
  466MOL0     H64308   3.416  10.491   1.815 -0.5314  0.4537 -0.7194
  467MOL0     O64309   9.575   0.524   5.407 -0.8694 -0.7866 -0.4940
  467MOL0     C64310   9.559   0.410   5.377  0.1605  0.1005 -0.2367
  467MOL0     O64311   9.569   0.304   5.460  0.3317 -0.0788 -0.6972
  467MOL0     C64312   9.631   0.325   5.583  0.7952  0.1997  0.2506
  467MOL0     C64313   9.750   0.262   5.605 -0.4151  0.2584  0.5456
  467MOL0     C64314   9.825   0.257   5.726 -0.9295  0.1961  0.0401
  467MOL0     C64315   9.776   0.334   5.831  0.1149 -0.2700  0.6459
  467MOL0     O64316   9.842   0.367   5.949  0.2192  0.2846  0.2429
  467MOL0     C64317   9.952   0.282   5.987  0.1732 -0.4311  0.7917
  467MOL0     C64318  10.041   0.345   6.091  0.2792 -0.3291  0.0600
  467MOL0     C64319  10.136   0.464   6.055  0.0208 -0.4759  0.5219
  467MOL0     C64320  10.235   0.488   6.169  0.3980  0.0822 -0.1691
  467MOL0     C64321  10.356   0.577   6.129  0.5288  0.7440 -0.4840
  467MOL0     C64322  10.457   0.496   6.047 -0.5046 -0.2722 -0.1145
  467MOL0     C64323  10.558   0.600   6.000 -0.1854 -0.1144  0.3370
  467MOL0     C64324  10.633   0.647   6.121 -0.7878 -0.2765 -0.6890
  467MOL0     N64325  10.759   0.701   6.091 -0.1958 -0.3899  0.7258
  467MOL0     C64326  10.783   0.836   6.080 -0.0442  0.4365  0.0516
  467MOL0     C64327  10.917   0.849   6.089  0.2226 -0.4934 -0.0748
  467MOL0     C64328  10.985   0.981   6.090  0.4447 -0.7804  0.6376
  467MOL0     C64329  11.018   1.022   5.949 -0.4463  0.3355  0.4563
  467MOL0     C64330  11.030   1.173   5.910 -0.4604 -0.4745 -0.1038
  467MOL0     C64331  11.160   1.238   5.952 -0.9597 -0.4649  0.6441
  467MOL0     O64332  11.151   1.380   5.927  0.2266  0.2358  0.3209
  467MOL0     C64333  11.246   1.467   5.992 -0.4929  0.5285 -0.1707
  467MOL0     C64334  11.214   1.610   6.010  1.0415  0.4641 -0.5604
  467MOL0     C64335  11.300   1.702   6.073 -0.1937 -0.0472  0.7350
  467MOL0     C64336  11.256   1.843   6.084 -0.1426 -0.3770  0.5637
  467MOL0     C64337  11.433   1.656   6.108 -0.0869  0.1064 -1.3412
  467MOL0     C64338  11.533   1.747   6.169  0.3016 -1.1727  0.0213
  467MOL0     O64339  11.662   1.728   6.136 -0.5838 -0.2173  0.1437
  467MOL0     C64340  11.754   1.774   6.224 -0.4014 -0.2497 -0.1565
  467MOL0     C64341  11.811   1.685   6.317  0.5439 -0.0198  0.1107
  467MOL0     C64342  11.910   1.730   6.398 -0.4910  0.6111 -0.6472
  467MOL0     C64343  11.970   1.856   6.385  0.1592 -0.2403  1.1116
  467MOL0     O64344  12.076   1.881   6.465 -0.9276  0.3155  0.6282
  467MOL0     C64345  12.183   1.944   6.389 -0.4396  0.8451 -0.2400
  467MOL0     C64346  12.314   1.959   6.473 -0.7345 -0.7171 -0.4631
  467MOL0     C64347  12.424   1.992   6.372  0.1416 -0.6334  0.2736
  467MOL0     C64348  12.551   2.031   6.442  0.1384  1.0379 -0.0092
  467MOL0     C64349  12.641   2.102   6.343  0.4319  0.0358 -0.8126
  467MOL0     C64350  12.705   2.003   6.249 -0.7253  0.2708 -0.6863
  467MOL0     C64351  12.764   2.075   6.125 -0.1324  0.2561  0.4666
  467MOL0     C64352  12.836   1.978   6.029  0.0657  0.8303 -0.2602
  467MOL0    Cl64353  12.727   1.848   5.974  0.0464  0.1803 -0.3690
  467MOL0     C64354  11.912   1.945   6.294  0.2154 -0.0635  0.2981
  467MOL0     C64355  11.805   1.906   6.214  0.6539 -0.2188 -0.4341
  467MOL0     O64356  11.493   1.836   6.243 -0.1074 -0.0485  0.3155
  467MOL0     C64357  11.468   1.519   6.085 -0.3381  0.4861  1.4024
  467MOL0     C64358  11.378   1.427   6.033  0.4360  0.0047  0.4744
  467MOL0     N64359  10.976   0.724   6.107  0.0759 -0.1148  0.1338
  467MOL0     N64360  10.876   0.640   6.101 -0.5614  0.0071  0.2857
  467MOL0     C64361   9.647   0.394   5.817 -0.0343  0.2892  1.3249
  467MOL0     C64362   9.579   0.385   5.692  0.0318  0.1801  0.5040
  467MOL0     C64363   9.519   0.376   5.238  0.0783  0.5135  0.7092
  467MOL0     C64364   9.532   0.237   5.203  0.0328  0.5104 -0.0076
  467MOL0     C64365   9.518   0.189   5.074 -0.5319 -0.0413 -0.1172
  467MOL0     C64366   9.489   0.284   4.978  0.3810 -0.5873  0.4705
  467MOL0     O64367   9.486   0.261   4.845  0.4285  0.2627  0.5958
  467MOL0     C64368   9.523   0.131   4.790 -0.2501 -0.2219 -0.3005
  467MOL0     C64369   9.666   0.083   4.792 -0.5357 -0.0202  0.5321
  467MOL0     C64370   9.680  -0.065   4.749  0.0647  0.0217  0.0872
  467MOL0     C64371   9.824  -0.128   4.761 -0.2294 -0.0848 -0.3192
  467MOL0     C64372   9.856  -0.212   4.648  0.8592 -0.3929 -0.0970
  467MOL0     C64373   9.876  -0.271   4.546 -0.3273  0.5437  0.1924
  467MOL0     C64374   9.471   0.421   5.011  0.3310  0.6618 -0.3759
  467MOL0     C64375   9.485   0.468   5.137  0.7301 -0.2002  0.0611
  467MOL0     C64376   9.454   0.614   5.168 -0.1724 -0.5803  0.7798
  467MOL0     H64377   9.788   0.206   5.520  1.8771  1.1420  0.9132
  467MOL0     H64378   9.923   0.212   5.728 -1.7427 -1.7483 -1.1844
  467MOL0     H64379  10.024   0.281   5.904  0.8480 -2.0659  1.3570
  467MOL0     H64380   9.919   0.181   6.014 -1.8477  0.2604  1.0977
  467MOL0     H64381   9.974   0.382   6.169 -2.2077 -2.6803 -0.8330
  467MOL0     H64382  10.097   0.264   6.138 -1.8321 -1.7961  0.1675
  467MOL0     H64383  10.187   0.460   5.958  0.4339  1.0468  0.6524
  467MOL0     H64384  10.072   0.552   6.048 -1.1170 -1.3144 -0.1023
  467MOL0     H64385  10.192   0.519   6.265  0.3385  1.6490 -0.6844
  467MOL0     H64386  10.270   0.385   6.180 -1.9663 -0.9177 -1.3375
  467MOL0     H64387  10.395   0.603   6.228 -0.9939  1.7145 -0.0954
  467MOL0     H64388  10.328   0.668   6.075 -0.3029  1.0982  0.4969
  467MOL0     H64389  10.497   0.414   6.107 -0.5328  0.6488  1.2055
  467MOL0     H64390  10.402   0.457   5.960  0.2198 -0.6588 -0.4065
  467MOL0     H64391  10.507   0.683   5.950 -3.2450 -1.6721  0.6293
  467MOL0     H64392  10.622   0.551   5.926 -0.7292 -2.3878  1.2800
  467MOL0     H64393  10.571   0.715   6.180  1.7501 -0.7453  2.8152
  467MOL0     H64394  10.650   0.563   6.189 -2.1821 -0.7954 -0.9338
  467MOL0     H64395  10.718   0.922   6.076 -0.1773  0.3467  0.2617
  467MOL0     H64396  11.075   0.992   6.151 -0.2010  2.3795  1.1889
  467MOL0     H64397  10.909   1.046   6.135  0.7259  1.0142 -1.2712
  467MOL0     H64398  11.105   0.963   5.918 -2.7870 -3.5521  0.5737
  467MOL0     H64399  10.935   0.984   5.888 -1.9232  0.1630  2.4586
  467MOL0     H64400  11.012   1.185   5.803  1.5606  1.9339 -0.2722
  467MOL0     H64401  10.956   1.226   5.971  2.4082  3.0451  0.6535
  467MOL0     H64402  11.189   1.225   6.057  2.1717  0.5877 -0.0032
  467MOL0     H64403  11.239   1.208   5.884 -0.3705  0.8489  0.7189
  467MOL0     H64404  11.117   1.638   5.971  0.0864  0.2298  1.4875
  467MOL0     H64405  11.243   1.863   6.191  1.6866 -0.4882  0.8406
  467MOL0     H64406  11.157   1.850   6.039 -0.2692  1.6006  1.0361
  467MOL0     H64407  11.328   1.912   6.038  0.6055 -1.9929 -0.7744
  467MOL0     H64408  11.779   1.581   6.325  1.1187 -0.1962  0.1116
  467MOL0     H64409  11.938   1.669   6.484  0.2673  2.1422  0.2375
  467MOL0     H64410  12.210   1.876   6.307  0.6642  0.0560  0.7333
  467MOL0     H64411  12.142   2.035   6.345 -1.4637  0.5092  0.0014
  467MOL0     H64412  12.305   2.045   6.540 -2.2257 -0.8045 -0.5115
  467MOL0     H64413  12.326   1.870   6.535 -3.0489  0.5554  2.0280
  467MOL0     H64414  12.386   2.082   6.322  2.4171  0.3042  0.1297
  467MOL0     H64415  12.442   1.912   6.300 -0.0293 -1.5201  1.1893
  467MOL0     H64416  12.599   1.936   6.469  3.0825  2.4371  0.0832
  467MOL0     H64417  12.551   2.076   6.542  3.2531  0.4536  0.3776
  467MOL0     H64418  12.583   2.173   6.284  1.2223 -0.3446 -2.0890
  467MOL0     H64419  12.715   2.148   6.410  0.4090  1.0587 -1.4711
  467MOL0     H64420  12.632   1.934   6.206  1.2797 -1.2965 -1.7280
  467MOL0     H64421  12.786   1.955   6.306 -0.5824 -1.2116 -2.0862
  467MOL0     H64422  12.839   2.148   6.154 -1.0466  1.5643 -0.3295
  467MOL0     H64423  12.694   2.143   6.075 -0.6415  2.5893  4.0296
  467MOL0     H64424  12.917   1.932   6.086 -0.2011  1.0112  0.2711
  467MOL0     H64425  12.866   2.032   5.939 -0.5654 -0.0389 -1.0131
  467MOL0     H64426  11.951   2.045   6.279  2.2735 -1.0163 -1.1942
  467MOL0     H64427  11.755   1.978   6.150 -0.6141 -1.7074 -1.2044
  467MOL0     H64428  11.573   1.495   6.094 -0.3274 -0.5458 -0.8044
  467MOL0     H64429  11.419   1.330   6.008  0.5986  0.5249 -1.3859
  467MOL0     H64430   9.599   0.452   5.896  0.0425  1.3773  0.5853
  467MOL0     H64431   9.481   0.429   5.681 -0.3839 -0.5407  1.2280
  467MOL0     H64432   9.550   0.170   5.286  0.1369  1.7088  0.9803
  467MOL0     H64433   9.514   0.083   5.055 -2.8716  0.1517 -0.9271
  467MOL0     H64434   9.467   0.052   4.841  0.4557 -1.8611 -1.9537
  467MOL0     H64435   9.486   0.111   4.689  0.5041  0.9586 -0.8252
  467MOL0     H64436   9.705   0.085   4.894  0.2641 -0.0476  0.2364
  467MOL0     H64437   9.730   0.151   4.735 -0.6836 -1.3568 -1.3161
  467MOL0     H64438   9.615  -0.126   4.812  0.3829  1.2508  1.6649
  467MOL0     H64439   9.644  -0.072   4.646 -1.3979  1.4588  0.4563
  467MOL0     H64440   9.823  -0.186   4.854  0.7081 -1.2577 -1.0170
  467MOL0     H64441   9.895  -0.044   4.763  0.7311 -0.7494 -2.6532
  467MOL0     H64442   9.876  -0.333   4.458 -2.7174  2.5175 -1.3192
  467MOL0     H64443   9.429   0.485   4.933  1.1621  0.0888 -1.3136
  467MOL0     H64444   9.551   0.657   5.194  2.5883 -5.1041 -0.7702
  467MOL0     H64445   9.401   0.672   5.092  0.9181 -0.5664  0.0021
  467MOL0     H64446   9.394   0.618   5.259 -1.1165  3.7810  0.1564
  468MOL0     O64447   0.306   7.890   8.798 -0.5298  0.4124 -0.8032
  468MOL0     C64448   0.264   7.871   8.911  0.5253 -0.1906 -0.8186
  468MOL0     O64449   0.324   7.907   9.025 -0.5407 -0.7168  0.2461
  468MOL0     C64450   0.443   7.971   9.009 -0.8482  0.2195  0.5601
  468MOL0     C64451   0.554   7.895   9.044  0.4266  0.3262 -0.3121
  468MOL0     C64452   0.680   7.946   9.016  0.1899  0.3832 -0.1637
  468MOL0     C64453   0.702   8.071   8.967  0.2333 -0.0381 -0.2114
  468MOL0     O64454   0.829   8.113   8.950 -0.1521 -0.0699 -0.4077
  468MOL0     C64455   0.858   8.170   8.822  0.2094 -0.3185 -0.5186
  468MOL0     C64456   1.004   8.168   8.787 -0.3904  1.1018 -0.1160
  468MOL0     C64457   1.022   8.247   8.655  0.5131 -1.5447 -0.0148
  468MOL0     C64458   1.157   8.231   8.595  0.4687  0.7055 -0.4126
  468MOL0     C64459   1.162   8.273   8.442 -0.0043 -0.3544  0.3542
  468MOL0     C64460   1.296   8.230   8.382 -0.0652  0.2059  0.1678
  468MOL0     C64461   1.418   8.309   8.424 -0.5976  0.2142 -0.0611
  468MOL0     C64462   1.560   8.259   8.379 -0.5340 -0.0687 -0.3181
  468MOL0     N64463   1.615   8.331   8.251 -0.5408  0.2239 -0.8927
  468MOL0     C64464   1.711   8.276   8.166 -0.1468 -0.1728  0.2271
  468MOL0     C64465   1.720   8.358   8.064 -0.3080 -0.6265  0.2531
  468MOL0     C64466   1.798   8.337   7.939 -0.5776  0.3479  0.5240
  468MOL0     C64467   1.694   8.314   7.818 -0.3971  0.5201  0.7095
  468MOL0     C64468   1.613   8.183   7.850  0.1561 -0.5976 -0.1866
  468MOL0     C64469   1.472   8.183   7.806  0.6491 -0.1263  0.5486
  468MOL0     O64470   1.431   8.050   7.795  0.0883  0.5411  0.1903
  468MOL0     C64471   1.317   8.025   7.719  0.8636 -0.0121 -0.8277
  468MOL0     C64472   1.236   8.127   7.676  0.2161  0.5073  0.6026
  468MOL0     C64473   1.112   8.095   7.622 -0.4277  1.4593 -0.5266
  468MOL0     C64474   1.008   8.205   7.607 -0.6624 -0.0779 -1.1428
  468MOL0     C64475   1.081   7.962   7.585 -0.5636 -0.2857 -0.2262
  468MOL0     C64476   0.946   7.915   7.548  0.1396  0.1814  0.1396
  468MOL0     O64477   0.937   7.789   7.514  0.0892  0.1605 -0.0365
  468MOL0     C64478   0.817   7.724   7.504 -0.3004 -1.3757  0.4084
  468MOL0     C64479   0.764   7.695   7.373  0.8228  0.4514 -0.4226
  468MOL0     C64480   0.644   7.616   7.374  0.3312  0.2974  0.0784
  468MOL0     C64481   0.572   7.574   7.484  0.1220  0.1042 -0.1173
  468MOL0     O64482   0.451   7.507   7.459  0.1868 -0.4560 -0.0613
  468MOL0     C64483   0.409   7.421   7.563 -0.6117 -0.4313  0.0088
  468MOL0     C64484   0.480   7.289   7.567  0.3320 -0.5456  1.1974
  468MOL0     C64485   0.500   7.231   7.708  0.3719  1.8548  0.4508
  468MOL0     C64486   0.545   7.086   7.694 -0.6282 -0.6941 -0.6132
  468MOL0     C64487   0.573   7.022   7.829  0.3023  0.0337 -0.2830
  468MOL0     C64488   0.447   6.952   7.889  0.1200  0.2614 -0.1536
  468MOL0     C64489   0.471   6.899   8.030  0.1914 -0.1285  1.0431
  468MOL0     C64490   0.452   6.747   8.047  0.4148 -0.5554  0.1389
  468MOL0    Cl64491   0.281   6.708   8.069 -0.0434  0.0214 -0.1310
  468MOL0     C64492   0.626   7.616   7.609  0.7354  0.1883 -0.7308
  468MOL0     C64493   0.746   7.699   7.619  0.0046  0.1946  0.5071
  468MOL0     O64494   0.852   7.988   7.548  0.0714 -0.0338 -0.0473
  468MOL0     C64495   1.181   7.864   7.617  1.0068 -0.3700  0.2970
  468MOL0     C64496   1.293   7.892   7.689  0.2677 -0.6213  0.4881
  468MOL0     N64497   1.640   8.461   8.099 -0.2307 -0.2553 -0.1841
  468MOL0     N64498   1.586   8.459   8.211  0.4267 -0.5538 -0.0758
  468MOL0     C64499   0.592   8.158   8.942 -0.1470 -0.1573  0.4964
  468MOL0     C64500   0.464   8.103   8.959  0.2548  0.6159 -0.1712
  468MOL0     C64501   0.125   7.823   8.922  0.3321  0.2538 -0.1214
  468MOL0     C64502   0.050   7.898   9.006  0.7165 -0.6380  0.3286
  468MOL0     C64503  -0.081   7.868   9.033 -0.0310 -0.1795  0.1223
  468MOL0     C64504  -0.133   7.748   8.979 -0.2916 -0.0734  0.2321
  468MOL0     O64505  -0.257   7.718   9.024  0.4278 -0.6597 -0.7265
  468MOL0     C64506  -0.313   7.589   9.007 -0.2287  0.1011 -0.8774
  468MOL0     C64507  -0.441   7.569   9.087  0.6084 -0.0192 -0.2995
  468MOL0     C64508  -0.421   7.596   9.242 -0.2637 -0.6779  0.7597
  468MOL0     C64509  -0.553   7.582   9.318  0.1940  0.7165  0.2425
  468MOL0     C64510  -0.555   7.466   9.409 -0.2960  0.6509 -0.3638
  468MOL0     C64511  -0.553   7.371   9.489 -0.6017  0.5474  0.2831
  468MOL0     C64512  -0.055   7.671   8.893 -0.3746  0.2973 -0.8615
  468MOL0     C64513   0.074   7.705   8.866 -1.2263 -1.1286 -0.3818
  468MOL0     C64514   0.170   7.609   8.798  0.3228  0.1945  0.1242
  468MOL0     H64515   0.529   7.795   9.077 -1.5496  0.6659 -0.6283
  468MOL0     H64516   0.760   7.874   9.029 -1.6035 -1.5752  0.5441
  468MOL0     H64517   0.834   8.277   8.819 -0.6047 -0.5097 -3.2871
  468MOL0     H64518   0.800   8.112   8.750  0.4459 -0.4637 -0.5939
  468MOL0     H64519   1.069   8.214   8.863 -1.5532  3.5213 -0.4799
  468MOL0     H64520   1.038   8.065   8.777 -1.1399  0.7639  0.7371
  468MOL0     H64521   0.951   8.208   8.582  3.4511 -0.8501 -3.5682
  468MOL0     H64522   0.996   8.353   8.666  3.7379 -0.7464  1.1539
  468MOL0     H64523   1.231   8.297   8.643 -0.6675  2.0314 -0.4251
  468MOL0     H64524   1.184   8.126   8.609 -0.2507  0.6618  0.7514
  468MOL0     H64525   1.178   8.381   8.447  1.7416 -0.5617 -0.2848
  468MOL0     H64526   1.074   8.249   8.382 -1.2516 -1.5996  2.5268
  468MOL0     H64527   1.317   8.125   8.405  0.0006  0.4597  1.2767
  468MOL0     H64528   1.281   8.217   8.274  1.5069 -0.3163 -0.0220
  468MOL0     H64529   1.426   8.302   8.533  0.3909 -3.1129 -0.2438
  468MOL0     H64530   1.407   8.414   8.396  0.1401  0.6027  1.0063
  468MOL0     H64531   1.628   8.263   8.465 -0.8755 -0.6428 -0.0108
  468MOL0     H64532   1.552   8.152   8.357 -1.5071 -0.4487  1.6065
  468MOL0     H64533   1.763   8.180   8.172  1.1046  0.4954  0.4989
  468MOL0     H64534   1.868   8.252   7.939 -0.8056  0.1105  2.6667
  468MOL0     H64535   1.860   8.425   7.922 -1.1700  0.4343 -1.5067
  468MOL0     H64536   1.630   8.400   7.796 -0.9536 -0.8441 -4.3007
  468MOL0     H64537   1.752   8.290   7.728 -1.0759  1.3878  0.0194
  468MOL0     H64538   1.664   8.099   7.801  0.6508 -1.0606  1.0978
  468MOL0     H64539   1.616   8.161   7.957  1.7492 -1.2492 -0.3309
  468MOL0     H64540   1.416   8.228   7.889 -0.9012 -1.8409  0.4978
  468MOL0     H64541   1.460   8.235   7.711 -0.9548 -1.9267 -0.2993
  468MOL0     H64542   1.254   8.232   7.698  0.9877  0.3382  0.8305
  468MOL0     H64543   1.069   8.295   7.605  1.9934 -1.7715 -1.5983
  468MOL0     H64544   0.931   8.203   7.684  0.4141 -2.2971 -0.0537
  468MOL0     H64545   0.969   8.192   7.505 -2.9256 -0.0212 -0.3513
  468MOL0     H64546   0.811   7.722   7.279  1.2587  0.6740 -0.1456
  468MOL0     H64547   0.601   7.594   7.276 -0.4147 -2.0645  0.8843
  468MOL0     H64548   0.413   7.476   7.658 -1.2609 -0.7636  0.2401
  468MOL0     H64549   0.303   7.405   7.541 -0.9782  0.7075  0.8407
  468MOL0     H64550   0.426   7.226   7.495  0.9653 -0.5296  0.7058
  468MOL0     H64551   0.578   7.307   7.521 -0.1603  1.3373  0.7756
  468MOL0     H64552   0.408   7.248   7.765  1.0146  2.7538  1.2529
  468MOL0     H64553   0.578   7.286   7.761  0.9377  2.1783 -0.6832
  468MOL0     H64554   0.643   7.091   7.645 -0.3341 -1.0528 -0.0763
  468MOL0     H64555   0.482   7.027   7.628  0.5918 -1.9815 -0.6749
  468MOL0     H64556   0.646   6.941   7.820 -0.1032 -0.2573 -1.1047
  468MOL0     H64557   0.616   7.101   7.891  1.0231 -0.1472 -0.5407
  468MOL0     H64558   0.421   6.868   7.825  0.6257 -0.5946  0.7393
  468MOL0     H64559   0.361   7.020   7.892  0.5144  0.8438  4.3897
  468MOL0     H64560   0.403   6.947   8.101 -1.7323 -0.6234 -0.3612
  468MOL0     H64561   0.571   6.936   8.054  1.2424 -1.8874 -0.4069
  468MOL0     H64562   0.514   6.718   8.132  0.4522 -1.9499 -0.3348
  468MOL0     H64563   0.499   6.688   7.968  1.0926 -1.5473  1.2513
  468MOL0     H64564   0.586   7.590   7.707  0.6415 -2.1060 -1.3198
  468MOL0     H64565   0.789   7.742   7.709  4.0994  1.3210 -1.7174
  468MOL0     H64566   1.163   7.760   7.590 -1.3048  0.8356 -3.6420
  468MOL0     H64567   1.366   7.815   7.714 -0.1222 -1.4539 -0.8304
  468MOL0     H64568   0.624   8.256   8.907  3.1392 -0.7238  1.5677
  468MOL0     H64569   0.379   8.167   8.936  1.1965  3.1729  2.8343
  468MOL0     H64570   0.094   7.989   9.044  0.1580  1.1465 -2.9403
  468MOL0     H64571  -0.156   7.929   9.081 -1.2147  0.0356 -1.8713
  468MOL0     H64572  -0.338   7.568   8.903  1.5479  1.0299 -1.5302
  468MOL0     H64573  -0.248   7.508   9.041  2.6685  2.3819 -0.5945
  468MOL0     H64574  -0.476   7.466   9.081  0.1578  0.1953 -1.9667
  468MOL0     H64575  -0.513   7.644   9.053 -0.8377  0.4800  3.3428
  468MOL0     H64576  -0.344   7.532   9.286  1.0561  1.6103  2.0293
  468MOL0     H64577  -0.379   7.696   9.261  1.0607 -1.2906  1.1556
  468MOL0     H64578  -0.635   7.555   9.251  1.4386 -1.3588 -0.5209
  468MOL0     H64579  -0.575   7.677   9.368  0.8493  0.7936  0.3915
  468MOL0     H64580  -0.537   7.289   9.556 -3.3385 -0.8298 -0.6246
  468MOL0     H64581  -0.086   7.581   8.841  0.2712 -2.1848  2.6915
  468MOL0     H64582   0.256   7.592   8.863 -0.0221 -3.0640 -0.1159
  468MOL0     H64583   0.121   7.513   8.780  0.0719  0.8507 -3.4556
  468MOL0     H64584   0.188   7.657   8.701 -1.1670 -1.4544 -1.0413
  469MOL0     O64585   5.008   1.060   8.942 -0.4102  0.8918  0.2964
  469MOL0     C64586   5.004   1.138   9.037 -0.9341 -0.2428 -0.4231
  469MOL0     O64587   5.110   1.195   9.101 -0.6507  0.2241  0.0297
  469MOL0     C64588   5.249   1.178   9.077  0.6170  0.6196 -0.0630
  469MOL0     C64589   5.335   1.244   9.161  0.9553  0.4441  0.6363
  469MOL0     C64590   5.474   1.234   9.143  0.2851 -0.2244 -0.0629
  469MOL0     C64591   5.529   1.169   9.040 -0.8171  0.6087  1.4041
  469MOL0     O64592   5.663   1.192   9.024  0.0401  0.2539 -0.4059
  469MOL0     C64593   5.721   1.096   8.934 -1.0357 -0.0572 -0.4392
  469MOL0     C64594   5.865   1.118   8.951 -0.0764  0.0415  0.1004
  469MOL0     C64595   5.929   1.071   9.083 -0.4524 -0.0569 -1.5198
  469MOL0     C64596   6.084   1.042   9.061  1.1557 -0.4137 -0.6369
  469MOL0     C64597   6.142   0.950   9.171 -0.6122 -0.1793  0.3085
  469MOL0     C64598   6.278   0.881   9.139  0.2559  0.5445  0.2816
  469MOL0     C64599   6.391   0.947   9.219 -0.4790 -0.7978  0.1425
  469MOL0     C64600   6.395   0.888   9.368  0.1709 -0.0464  0.1255
  469MOL0     N64601   6.420   0.747   9.375 -0.5127  0.6411 -0.2303
  469MOL0     C64602   6.502   0.676   9.290 -0.0522 -0.6129  0.6663
  469MOL0     C64603   6.513   0.552   9.339 -0.4076  0.9413  0.0399
  469MOL0     C64604   6.582   0.441   9.276  0.0401 -0.2590 -0.4376
  469MOL0     C64605   6.549   0.314   9.351 -0.3701  0.0286 -0.4530
  469MOL0     C64606   6.648   0.206   9.308  0.0124 -0.5104 -0.4589
  469MOL0     C64607   6.646   0.093   9.410 -0.2442  0.7738  0.3849
  469MOL0     O64608   6.749  -0.003   9.357  0.9776  0.3013 -0.1162
  469MOL0     C64609   6.858  -0.011   9.433  0.5417 -0.5048 -0.0747
  469MOL0     C64610   6.984   0.002   9.378 -0.6029 -0.7278  0.1225
  469MOL0     C64611   7.099  -0.000   9.458 -0.4346 -0.0130 -0.2811
  469MOL0     C64612   7.232   0.018   9.389  0.2948  0.0188 -0.3076
  469MOL0     C64613   7.088  -0.047   9.595  0.0812 -1.0815 -0.2582
  469MOL0     C64614   7.206  -0.042   9.695  0.5816 -0.9159 -0.5125
  469MOL0     O64615   7.184  -0.049   9.832 -0.4681  0.4856  0.5947
  469MOL0     C64616   7.292  -0.071   9.919 -0.1523  0.2352 -0.0062
  469MOL0     C64617   7.335   0.026  10.009  0.2741 -0.1721  0.0828
  469MOL0     C64618   7.453   0.009  10.091  0.3479  0.2518  0.1561
  469MOL0     C64619   7.523  -0.111  10.085 -0.2349 -0.2837  0.2265
  469MOL0     O64620   7.620  -0.148  10.173 -0.6463 -0.3175  0.0322
  469MOL0     C64621   7.699  -0.035  10.204 -1.4318  0.0752 -0.3667
  469MOL0     C64622   7.839  -0.078  10.265  0.0854 -0.5173 -0.4069
  469MOL0     C64623   7.921  -0.162  10.170 -0.5989  0.1113 -0.2599
  469MOL0     C64624   8.050  -0.208  10.233  0.1729  1.0355 -0.6390
  469MOL0     C64625   8.119  -0.277  10.113  0.6668 -0.0588  0.7125
  469MOL0     C64626   8.237  -0.353  10.169 -0.2459  0.0996  0.8312
  469MOL0     C64627   8.362  -0.260  10.169  0.2893  0.0273  0.7151
  469MOL0     C64628   8.459  -0.300  10.276  0.6222 -0.1982  0.5178
  469MOL0    Cl64629   8.426  -0.229  10.440 -0.1946 -0.0145 -0.2947
  469MOL0     C64630   7.481  -0.208   9.998 -0.4352 -0.3779  0.0735
  469MOL0     C64631   7.369  -0.187   9.916  0.8793  0.1892 -0.7724
  469MOL0     O64632   7.319  -0.045   9.644 -0.1076  0.0141 -0.2103
  469MOL0     C64633   6.958  -0.061   9.651  0.4725  0.0738  0.1629
  469MOL0     C64634   6.851  -0.045   9.569  0.5360 -0.2283 -0.3480
  469MOL0     N64635   6.428   0.540   9.454  0.0545  0.0958  0.2522
  469MOL0     N64636   6.375   0.659   9.470 -0.2886  0.1747 -0.4990
  469MOL0     C64637   5.443   1.092   8.953  0.2870 -0.3452  0.4009
  469MOL0     C64638   5.303   1.098   8.971 -0.4419  0.0739 -0.9123
  469MOL0     C64639   4.871   1.188   9.069  0.5996  0.4667  0.1170
  469MOL0     C64640   4.841   1.204   9.204 -0.1747  1.0822 -0.0484
  469MOL0     C64641   4.713   1.244   9.242 -0.1302 -0.0386 -0.6925
  469MOL0     C64642   4.626   1.289   9.145  0.4663  0.4501 -0.5185
  469MOL0     O64643   4.509   1.352   9.165  0.1579  0.1246  0.0219
  469MOL0     C64644   4.485   1.399   9.296  0.2156  0.5161  0.1322
  469MOL0     C64645   4.391   1.517   9.272  0.5443 -0.1464 -1.1199
  469MOL0     C64646   4.286   1.497   9.162  0.1698 -0.3486 -0.0758
  469MOL0     C64647   4.187   1.607   9.158  0.1508 -0.5558  1.2547
  469MOL0     C64648   4.073   1.585   9.068  0.4519 -0.0211 -0.4457
  469MOL0     C64649   3.973   1.596   9.005 -1.0636  0.3663 -0.0642
  469MOL0     C64650   4.656   1.283   9.007 -0.3404 -0.0719  0.1668
  469MOL0     C64651   4.774   1.227   8.971  0.1061  0.3668  0.6737
  469MOL0     C64652   4.792   1.224   8.824  0.3783 -0.2167 -0.3357
  469MOL0     H64653   5.287   1.313   9.230 -0.7640  1.1766 -1.2011
  469MOL0     H64654   5.526   1.307   9.204 -3.5110  0.6171  2.4920
  469MOL0     H64655   5.686   1.107   8.831 -0.4184 -1.2549 -0.7962
  469MOL0     H64656   5.682   0.999   8.966 -1.1873  0.4388  0.9415
  469MOL0     H64657   5.914   1.063   8.870  1.7593  0.3550  0.9447
  469MOL0     H64658   5.884   1.223   8.930  2.7716 -0.6219 -1.1847
  469MOL0     H64659   5.922   1.143   9.165 -0.1373 -3.6178  1.9352
  469MOL0     H64660   5.876   0.985   9.124 -0.5488 -0.3186 -2.1848
  469MOL0     H64661   6.099   0.994   8.964 -1.2745  0.3882 -1.4821
  469MOL0     H64662   6.138   1.137   9.057  0.9432 -0.3336 -2.8419
  469MOL0     H64663   6.067   0.874   9.196  0.0947 -1.0502 -0.1518
  469MOL0     H64664   6.164   1.008   9.262  2.7771 -2.8395  1.4220
  469MOL0     H64665   6.272   0.777   9.172 -0.4700 -0.7113 -3.3471
  469MOL0     H64666   6.301   0.879   9.033 -0.9849 -1.1547  0.0155
  469MOL0     H64667   6.382   1.056   9.223 -2.7055 -0.9538  1.4910
  469MOL0     H64668   6.491   0.924   9.183 -0.9818 -1.6396 -0.7616
  469MOL0     H64669   6.476   0.931   9.428  1.6576 -2.5622  0.0463
  469MOL0     H64670   6.298   0.900   9.417 -0.7970 -2.1544 -1.1296
  469MOL0     H64671   6.559   0.706   9.203  1.6721 -2.2755  1.1564
  469MOL0     H64672   6.686   0.470   9.291 -0.0457 -1.2301  2.6144
  469MOL0     H64673   6.572   0.433   9.167  4.0577  1.7541 -1.1599
  469MOL0     H64674   6.578   0.331   9.455  1.9412 -2.6565 -0.5185
  469MOL0     H64675   6.443   0.289   9.355 -0.4065  0.2379  2.6948
  469MOL0     H64676   6.620   0.169   9.209 -0.4457 -2.9845  0.5107
  469MOL0     H64677   6.749   0.248   9.303  0.1675 -0.0910  3.3504
  469MOL0     H64678   6.675   0.134   9.507  0.8186  0.3613  0.2500
  469MOL0     H64679   6.552   0.038   9.422 -1.0174  2.1782  0.9406
  469MOL0     H64680   6.998   0.018   9.271 -0.9453 -0.0486  0.1741
  469MOL0     H64681   7.293   0.104   9.421 -0.1286  0.9278 -1.8376
  469MOL0     H64682   7.224   0.028   9.281 -0.8977  2.1780 -0.0704
  469MOL0     H64683   7.281  -0.077   9.412 -0.3485 -0.4717 -0.9546
  469MOL0     H64684   7.274   0.115  10.019  0.8494  0.0519  2.0884
  469MOL0     H64685   7.478   0.093  10.155 -0.2137  2.1693 -2.0038
  469MOL0     H64686   7.715   0.021  10.112 -1.8598 -0.1023 -0.5530
  469MOL0     H64687   7.645   0.032  10.272 -1.8154  0.3313 -0.9146
  469MOL0     H64688   7.885   0.019  10.287 -0.7117  0.1863 -1.7077
  469MOL0     H64689   7.826  -0.141  10.353  1.9246 -0.8282 -0.3210
  469MOL0     H64690   7.941  -0.087  10.094 -2.2471 -0.9728 -1.8751
  469MOL0     H64691   7.864  -0.232  10.107 -1.7046  0.9628 -0.2537
  469MOL0     H64692   8.031  -0.280  10.312 -0.0860  0.1769 -1.4602
  469MOL0     H64693   8.113  -0.129  10.273  1.7460  0.3813 -1.7179
  469MOL0     H64694   8.050  -0.352  10.073  1.5118  0.0110 -0.9911
  469MOL0     H64695   8.159  -0.208  10.039  1.3037 -0.8202  0.3286
  469MOL0     H64696   8.255  -0.427  10.092  2.2452  2.0684 -0.6283
  469MOL0     H64697   8.219  -0.401  10.266  0.1386 -0.5625  0.5727
  469MOL0     H64698   8.330  -0.155  10.174  1.6446  0.5392 -0.6158
  469MOL0     H64699   8.417  -0.272  10.075  2.6078  0.5172  1.9614
  469MOL0     H64700   8.560  -0.269  10.246  0.5549 -0.4673 -0.0071
  469MOL0     H64701   8.469  -0.409  10.283  2.0423  0.0008  2.6621
  469MOL0     H64702   7.541  -0.298  10.003 -2.3214 -1.6426  2.1426
  469MOL0     H64703   7.355  -0.259   9.836  2.7105  0.7004 -1.6023
  469MOL0     H64704   6.954  -0.103   9.751  1.7368 -0.9994 -0.1995
  469MOL0     H64705   6.750  -0.076   9.593  0.9679 -1.4035  0.0023
  469MOL0     H64706   5.474   1.024   8.874 -0.3505 -1.8361  1.3891
  469MOL0     H64707   5.240   1.028   8.917 -2.0559  0.4514  0.3899
  469MOL0     H64708   4.914   1.181   9.280 -1.1218 -0.2844  0.4814
  469MOL0     H64709   4.686   1.244   9.347  0.2395 -1.0746 -0.5892
  469MOL0     H64710   4.438   1.328   9.364  1.3011 -1.8866 -1.4845
  469MOL0     H64711   4.580   1.430   9.340 -0.0680 -0.2745  1.3374
  469MOL0     H64712   4.454   1.602   9.245  0.0537  0.0657 -1.6156
  469MOL0     H64713   4.344   1.542   9.367  1.4517 -1.5919 -0.2529
  469MOL0     H64714   4.328   1.489   9.061 -1.7371 -1.2423 -0.8547
  469MOL0     H64715   4.246   1.397   9.183  0.1860 -0.6399 -1.3591
  469MOL0     H64716   4.238   1.695   9.118 -1.6958 -0.8924 -2.1917
  469MOL0     H64717   4.138   1.619   9.255 -1.0197 -0.5720  0.6742
  469MOL0     H64718   3.883   1.613   8.950 -2.0679  1.1040  1.7383
  469MOL0     H64719   4.582   1.324   8.938 -1.2409 -1.3739  0.3372
  469MOL0     H64720   4.771   1.125   8.782 -1.2293  0.7208 -1.8640
  469MOL0     H64721   4.738   1.299   8.766  1.3982  1.5238  0.8932
  469MOL0     H64722   4.898   1.242   8.806  0.7116  2.5130  3.3147
  470MOL0     O64723   3.365  10.499   2.705 -1.0041 -1.0911  0.0206
  470MOL0     C64724   3.292  10.435   2.627 -0.8131  0.1669  0.0265
  470MOL0     O64725   3.341  10.377   2.507  0.3707  0.1725  0.4066
  470MOL0     C64726   3.473  10.365   2.501  0.3912  0.0030  0.3327
  470MOL0     C64727   3.537  10.433   2.391 -0.2811  0.4870 -0.3959
  470MOL0     C64728   3.669  10.405   2.358  0.1534 -0.0276 -1.1412
  470MOL0     C64729   3.743  10.316   2.443 -0.1224  0.0262 -0.3397
  470MOL0     O64730   3.875  10.286   2.435  1.3162  0.1809 -0.5284
  470MOL0     C64731   3.962  10.380   2.375  0.5764  0.1915  0.7002
  470MOL0     C64732   4.109  10.328   2.355  0.0136 -0.1139 -0.7780
  470MOL0     C64733   4.171  10.319   2.493  0.2408  0.0016 -0.5130
  470MOL0     C64734   4.321  10.273   2.498 -0.3207  0.7906 -0.0830
  470MOL0     C64735   4.379  10.212   2.630 -0.7694  0.2496 -0.1952
  470MOL0     C64736   4.524  10.250   2.670 -0.0334  0.2400  0.5422
  470MOL0     C64737   4.623  10.204   2.557  0.4920 -0.0574  0.0270
  470MOL0     C64738   4.759  10.205   2.611 -0.1581 -0.8731 -0.3684
  470MOL0     N64739   4.787  10.317   2.706  0.7200  0.2281  0.3036
  470MOL0     C64740   4.778  10.450   2.666  0.2897  0.8248  0.1700
  470MOL0     C64741   4.820  10.519   2.775  0.0363 -0.1491 -0.2011
  470MOL0     C64742   4.817  10.672   2.780 -0.4246 -0.4420 -0.1978
  470MOL0     C64743   4.935  10.734   2.697  0.7855 -0.2371  0.7138
  470MOL0     C64744   5.074  10.707   2.755  0.1488 -0.5422 -0.3496
  470MOL0     C64745   5.098  10.763   2.893  0.0845 -0.4945  1.8721
  470MOL0     O64746   5.235  10.740   2.941 -0.1905 -0.2953  0.4673
  470MOL0     C64747   5.269  10.627   3.004 -1.0469  0.1316 -0.9560
  470MOL0     C64748   5.404  10.616   3.065  0.3164  0.0846  0.0159
  470MOL0     C64749   5.448  10.492   3.125 -0.1558 -0.1451  0.6182
  470MOL0     C64750   5.584  10.499   3.180 -0.1924  0.3763 -0.5938
  470MOL0     C64751   5.358  10.382   3.124 -0.4447  0.4842 -0.7436
  470MOL0     C64752   5.386  10.251   3.199 -0.5483 -0.4291  0.8949
  470MOL0     O64753   5.277  10.173   3.224  0.1231 -0.5978  0.0147
  470MOL0     C64754   5.275  10.035   3.242  0.1503  0.5359 -1.0237
  470MOL0     C64755   5.380   9.958   3.201 -0.4871  0.6829  0.2105
  470MOL0     C64756   5.368   9.822   3.191  0.3942 -0.5062  0.2259
  470MOL0     C64757   5.251   9.759   3.227 -0.2644 -0.1398 -0.4176
  470MOL0     O64758   5.231   9.628   3.212 -0.3950  0.1795 -0.6114
  470MOL0     C64759   5.226   9.579   3.076 -0.3535 -0.6264  1.1548
  470MOL0     C64760   5.171   9.437   3.076  0.3644 -0.3584  0.0905
  470MOL0     C64761   5.037   9.413   3.144 -0.4050  0.7639 -0.5617
  470MOL0     C64762   4.963   9.308   3.067 -0.3908  0.4348  0.9379
  470MOL0     C64763   4.822   9.294   3.101  1.5588 -0.1958  0.2141
  470MOL0     C64764   4.734   9.400   3.033  0.1446  0.3635  0.2465
  470MOL0     C64765   4.589   9.399   3.067 -0.0445  0.2114  0.4046
  470MOL0     C64766   4.535   9.541   3.043 -1.1503  0.5023  1.0728
  470MOL0    Cl64767   4.571   9.654   3.183  0.4665 -0.7441 -0.1410
  470MOL0     C64768   5.148   9.830   3.277 -0.2267 -0.7272 -0.6654
  470MOL0     C64769   5.163   9.969   3.290  0.2371  0.6828  0.3360
  470MOL0     O64770   5.500  10.214   3.208 -0.2467  0.9320 -0.0070
  470MOL0     C64771   5.226  10.403   3.083 -0.8271  0.6552  0.2558
  470MOL0     C64772   5.185  10.526   3.035  0.7958 -0.1689  0.3444
  470MOL0     N64773   4.840  10.425   2.877 -0.1388 -0.0189 -0.4139
  470MOL0     N64774   4.833  10.305   2.831  0.1491  0.5230  0.1194
  470MOL0     C64775   3.683  10.263   2.560  0.5580  0.3955 -0.3567
  470MOL0     C64776   3.548  10.288   2.584 -0.1401 -1.2250  0.7773
  470MOL0     C64777   3.153  10.401   2.657  0.2014  0.3457 -0.3129
  470MOL0     C64778   3.072  10.350   2.552 -0.2432  0.0985  0.5117
  470MOL0     C64779   2.944  10.310   2.572  0.9299  0.0034  0.9258
  470MOL0     C64780   2.881  10.323   2.693  0.3559  0.3313  0.2033
  470MOL0     O64781   2.745  10.292   2.686 -0.4587  0.4688 -0.4975
  470MOL0     C64782   2.664  10.326   2.802  0.0875  0.5013  0.0046
  470MOL0     C64783   2.527  10.298   2.742  0.3981 -0.0197 -0.8107
  470MOL0     C64784   2.496  10.154   2.691 -0.4226 -0.0004 -0.0735
  470MOL0     C64785   2.569  10.037   2.773  0.0991 -1.2536 -0.2578
  470MOL0     C64786   2.510  10.010   2.907  0.2825 -0.5120  0.5220
  470MOL0     C64787   2.460   9.977   3.012 -1.0428  0.3705 -0.2109
  470MOL0     C64788   2.954  10.365   2.802  1.3496 -0.8577 -0.3741
  470MOL0     C64789   3.084  10.421   2.783  0.0034  0.2405  0.1876
  470MOL0     C64790   3.153  10.482   2.906 -0.7655 -0.5938 -0.5387
  470MOL0     H64791   3.480  10.498   2.326  1.1302  1.9728 -0.2107
  470MOL0     H64792   3.717  10.478   2.293 -0.8042  0.8826 -0.8580
  470MOL0     H64793   3.955  10.479   2.420  1.6501 -0.3960  2.2462
  470MOL0     H64794   3.926  10.387   2.272 -1.7626 -1.7498  1.2783
  470MOL0     H64795   4.116  10.231   2.305 -1.0875 -0.6104 -0.0072
  470MOL0     H64796   4.165  10.399   2.294 -0.0263  0.7406  0.1450
  470MOL0     H64797   4.162  10.415   2.544 -0.1853 -0.7733  0.8974
  470MOL0     H64798   4.109  10.252   2.552 -1.8635  2.2360 -0.0059
  470MOL0     H64799   4.339  10.208   2.412 -0.0009  0.9991 -0.1775
  470MOL0     H64800   4.383  10.358   2.469 -0.9710  0.8026 -1.5298
  470MOL0     H64801   4.384  10.103   2.630 -1.5510  0.2019 -0.8794
  470MOL0     H64802   4.311  10.230   2.713 -3.1047 -1.7421 -1.5348
  470MOL0     H64803   4.529  10.358   2.690  1.1126  0.1394  0.8971
  470MOL0     H64804   4.552  10.204   2.766  0.0589 -1.5660 -0.3117
  470MOL0     H64805   4.612  10.277   2.476 -1.5829 -1.6930 -1.2661
  470MOL0     H64806   4.613  10.108   2.506  3.3654 -1.2870  1.5376
  470MOL0     H64807   4.778  10.119   2.675  2.0449  1.6247  2.6570
  470MOL0     H64808   4.828  10.201   2.526  1.1800  2.6919  0.3685
  470MOL0     H64809   4.752  10.488   2.568  0.8333  0.3255 -0.1695
  470MOL0     H64810   4.829  10.706   2.884 -0.3330 -1.6201  0.1917
  470MOL0     H64811   4.716  10.698   2.748  0.1567  2.6031  0.1771
  470MOL0     H64812   4.937  10.687   2.598  3.6710 -1.1394  1.1085
  470MOL0     H64813   4.914  10.839   2.676  3.7404  0.6292  1.6612
  470MOL0     H64814   5.089  10.598   2.759  0.6894 -0.4737 -0.4441
  470MOL0     H64815   5.150  10.726   2.679  2.2871 -2.9485  1.0295
  470MOL0     H64816   5.079  10.870   2.879 -1.2729 -0.8793  0.4425
  470MOL0     H64817   5.028  10.747   2.975  0.2244  1.2276  2.3565
  470MOL0     H64818   5.479  10.694   3.065 -0.3709  1.0203 -4.3783
  470MOL0     H64819   5.641  10.412   3.146 -1.1486 -0.9066  0.9126
  470MOL0     H64820   5.582  10.480   3.288  1.7199 -3.5765 -1.0773
  470MOL0     H64821   5.631  10.595   3.157 -1.7657  0.9469 -1.6190
  470MOL0     H64822   5.467   9.998   3.150 -2.6234  3.8523 -1.2202
  470MOL0     H64823   5.445   9.764   3.140 -0.7611 -2.9338  1.0740
  470MOL0     H64824   5.170   9.640   3.005  1.3827 -2.4935 -2.0444
  470MOL0     H64825   5.327   9.572   3.035 -1.1926 -0.0633 -1.1597
  470MOL0     H64826   5.170   9.416   2.968 -0.5494  0.2711 -0.0263
  470MOL0     H64827   5.250   9.369   3.111  1.9040 -0.4393 -3.1600
  470MOL0     H64828   4.970   9.498   3.126 -4.2836 -1.9073  0.0814
  470MOL0     H64829   5.048   9.400   3.252  0.9096  0.2304 -0.7405
  470MOL0     H64830   5.011   9.211   3.083 -0.9171  0.2557  1.4914
  470MOL0     H64831   4.970   9.329   2.960 -2.6849  1.7695  0.9875
  470MOL0     H64832   4.782   9.198   3.067  0.4386  0.2461  0.2447
  470MOL0     H64833   4.822   9.312   3.209  0.7876  1.2223  0.0020
  470MOL0     H64834   4.756   9.412   2.926  3.7970  1.7145  0.9827
  470MOL0     H64835   4.763   9.500   3.068 -3.1631  1.1582  1.0626
  470MOL0     H64836   4.575   9.372   3.172 -0.8997 -1.4888 -0.1012
  470MOL0     H64837   4.529   9.330   3.005 -0.3185  0.2654  0.6077
  470MOL0     H64838   4.426   9.532   3.036 -1.2061 -0.2459  2.5789
  470MOL0     H64839   4.570   9.575   2.945 -1.3973  0.7629  1.0721
  470MOL0     H64840   5.049   9.792   3.300 -1.9638  3.3508 -0.6730
  470MOL0     H64841   5.076  10.018   3.334 -0.4742  0.1682 -0.4529
  470MOL0     H64842   5.156  10.323   3.063 -2.3752  2.2920 -1.2101
  470MOL0     H64843   5.081  10.523   3.006  0.8500  3.9568 -0.9539
  470MOL0     H64844   3.744  10.212   2.634 -1.2351  0.5245  1.3048
  470MOL0     H64845   3.507  10.258   2.680 -1.1465 -3.4180 -0.2752
  470MOL0     H64846   3.109  10.337   2.451 -0.9156 -0.2584  0.3030
  470MOL0     H64847   2.898  10.267   2.484  3.3025 -1.4138  0.2954
  470MOL0     H64848   2.688  10.260   2.886 -2.3568 -3.5794 -2.1773
  470MOL0     H64849   2.677  10.432   2.825 -0.7366  1.1203 -2.1506
  470MOL0     H64850   2.504  10.377   2.669 -0.1851  1.0055  0.4524
  470MOL0     H64851   2.453  10.327   2.817  0.4645  1.3467 -1.2481
  470MOL0     H64852   2.390  10.129   2.684 -0.3374 -0.1388 -0.9916
  470MOL0     H64853   2.539  10.153   2.590 -1.8543 -1.3872 -0.7208
  470MOL0     H64854   2.676  10.055   2.781  0.1375  0.3080 -3.0089
  470MOL0     H64855   2.560   9.942   2.720  2.4964 -1.3111 -0.6719
  470MOL0     H64856   2.395   9.955   3.094 -0.7707 -0.5578 -0.2414
  470MOL0     H64857   2.907  10.365   2.900  0.8091  0.7183 -0.6136
  470MOL0     H64858   3.220  10.404   2.943 -0.4452  0.0453  0.2569
  470MOL0     H64859   3.214  10.571   2.888 -2.2215  0.5446  0.0483
  470MOL0     H64860   3.081  10.507   2.984 -0.3361  1.5195 -0.7597
  471MOL0     O64861   5.897   8.411   8.489  0.9822 -1.3399 -0.3204
  471MOL0     C64862   5.821   8.352   8.572  0.0284 -0.2434 -0.2213
  471MOL0     O64863   5.869   8.308   8.693  1.0433 -0.0804 -0.0785
  471MOL0     C64864   5.997   8.285   8.704 -0.0395  0.5096 -0.1690
  471MOL0     C64865   6.043   8.155   8.685  0.0535  0.0367  1.0917
  471MOL0     C64866   6.181   8.130   8.695  0.1336  0.2667  0.8085
  471MOL0     C64867   6.270   8.231   8.732  0.0517 -0.6308  0.5363
  471MOL0     O64868   6.405   8.217   8.758  0.0686  0.0484 -0.1656
  471MOL0     C64869   6.483   8.118   8.691 -0.1306 -0.2844 -0.9304
  471MOL0     C64870   6.539   8.153   8.555 -0.0373  0.8005 -0.5335
  471MOL0     C64871   6.631   8.275   8.564  0.6935  0.8573 -1.1754
  471MOL0     C64872   6.684   8.298   8.421 -0.5488 -0.0903 -0.8812
  471MOL0     C64873   6.818   8.385   8.419  0.1693  0.7576  0.3915
  471MOL0     C64874   6.833   8.520   8.479  0.5505 -0.7740 -0.1133
  471MOL0     C64875   6.756   8.636   8.420  0.3125  0.2941  0.9831
  471MOL0     C64876   6.808   8.699   8.292 -0.5418 -0.1747  0.4636
  471MOL0     N64877   6.922   8.785   8.319  0.3273  0.4128  0.9120
  471MOL0     C64878   6.930   8.921   8.327 -0.3409  0.3906 -0.4210
  471MOL0     C64879   7.059   8.950   8.341  1.1346  0.5407 -0.3192
  471MOL0     C64880   7.114   9.086   8.376  0.2770  0.3873 -0.4933
  471MOL0     C64881   7.228   9.084   8.473 -0.4297  0.1095  0.6739
  471MOL0     C64882   7.361   9.029   8.422  0.2069  0.4674  0.1444
  471MOL0     C64883   7.418   9.115   8.315 -0.2945 -0.1992 -0.2495
  471MOL0     O64884   7.552   9.077   8.282  0.4042 -0.1947  0.3306
  471MOL0     C64885   7.649   9.170   8.293  0.4225  0.8975 -0.4621
  471MOL0     C64886   7.728   9.199   8.186 -0.0725  0.7123  0.1517
  471MOL0     C64887   7.820   9.306   8.191  0.1509 -0.3407 -0.9958
  471MOL0     C64888   7.917   9.315   8.069  0.7689  0.9882 -0.4877
  471MOL0     C64889   7.835   9.379   8.320 -0.6597  0.0202  0.5162
  471MOL0     C64890   7.917   9.499   8.336 -0.3126 -0.6086  0.1654
  471MOL0     O64891   7.953   9.528   8.468 -0.3424 -0.7389  0.2715
  471MOL0     C64892   7.992   9.663   8.495 -0.8058  0.1681  0.3318
  471MOL0     C64893   7.906   9.761   8.544 -0.9508 -1.2846  0.6470
  471MOL0     C64894   7.952   9.893   8.572  0.8200  0.5705  0.3949
  471MOL0     C64895   8.085   9.926   8.560  0.0421 -0.2214  0.1792
  471MOL0     O64896   8.143  10.054   8.573 -0.0046  0.8473 -0.1951
  471MOL0     C64897   8.055  10.153   8.623 -0.5967 -0.3657 -0.4374
  471MOL0     C64898   8.129  10.286   8.641  0.4364 -0.4258  0.8885
  471MOL0     C64899   8.240  10.276   8.748 -0.1354 -1.1207  0.9520
  471MOL0     C64900   8.281  10.417   8.798  0.5355  0.6531 -0.2352
  471MOL0     C64901   8.408  10.431   8.894 -1.3582  0.4923 -0.4411
  471MOL0     C64902   8.532  10.383   8.820  0.6766 -0.9362  0.0570
  471MOL0     C64903   8.655  10.410   8.912 -0.2099 -0.4471 -0.2081
  471MOL0     C64904   8.792  10.370   8.844 -0.1430 -0.3528 -0.0972
  471MOL0    Cl64905   8.809  10.405   8.672  0.1649  0.2857  0.2749
  471MOL0     C64906   8.174   9.822   8.527  0.0609  0.3013  0.2790
  471MOL0     C64907   8.131   9.691   8.489  0.5317  0.1918  0.2450
  471MOL0     O64908   7.952   9.568   8.237 -0.4956 -0.3611  0.4609
  471MOL0     C64909   7.753   9.345   8.427  0.4185  0.1961 -1.3638
  471MOL0     C64910   7.654   9.245   8.411 -0.4459 -0.6699 -0.0375
  471MOL0     N64911   7.130   8.843   8.311 -0.7540  0.4364  0.2072
  471MOL0     N64912   7.053   8.736   8.300 -0.0988 -0.4963  0.4318
  471MOL0     C64913   6.222   8.364   8.752  0.4543  0.7564  0.5794
  471MOL0     C64914   6.089   8.390   8.736 -0.0944  0.7016  0.0901
  471MOL0     C64915   5.676   8.375   8.553  0.6230 -0.1933 -1.0998
  471MOL0     C64916   5.626   8.502   8.524 -0.5452 -0.4598  0.0583
  471MOL0     C64917   5.490   8.530   8.514  0.0975 -0.9626  0.3238
  471MOL0     C64918   5.395   8.429   8.530 -0.2760 -0.4641 -0.4589
  471MOL0     O64919   5.263   8.453   8.516  0.3105  0.0687  0.2275
  471MOL0     C64920   5.188   8.423   8.642  0.4550 -0.0321  0.4541
  471MOL0     C64921   5.168   8.536   8.740 -0.6681 -0.0525 -0.0781
  471MOL0     C64922   5.092   8.652   8.688  0.0288 -0.9435  0.8024
  471MOL0     C64923   4.965   8.627   8.607  0.8171 -0.0312 -0.2748
  471MOL0     C64924   4.872   8.591   8.715 -0.7518  0.5512  0.5673
  471MOL0     C64925   4.822   8.553   8.818  0.1238 -0.6518  0.1333
  471MOL0     C64926   5.444   8.304   8.554 -0.2151  0.2656  0.4052
  471MOL0     C64927   5.583   8.267   8.570 -0.7847  0.2496  0.3897
  471MOL0     C64928   5.615   8.118   8.581 -0.3481 -0.0054 -0.0167
  471MOL0     H64929   5.977   8.073   8.658  0.1770  0.6529 -1.2454
  471MOL0     H64930   6.207   8.025   8.685 -2.5115 -0.3353 -0.8711
  471MOL0     H64931   6.435   8.021   8.706 -0.5177 -0.0656 -0.7601
  471MOL0     H64932   6.575   8.107   8.749  0.0433  0.4791 -1.0493
  471MOL0     H64933   6.594   8.068   8.514 -0.6955 -0.0270  0.2593
  471MOL0     H64934   6.455   8.185   8.492 -1.9570  0.1694  1.5875
  471MOL0     H64935   6.584   8.366   8.602 -0.4380  0.0263 -0.5424
  471MOL0     H64936   6.707   8.257   8.640 -0.6000  0.3168  0.0227
  471MOL0     H64937   6.703   8.200   8.378 -0.9025 -0.3416 -0.4709
  471MOL0     H64938   6.622   8.350   8.348 -1.0003 -0.8750 -1.0615
  471MOL0     H64939   6.842   8.402   8.313 -0.6530 -1.5454 -0.2366
  471MOL0     H64940   6.903   8.330   8.460 -0.5293  1.0742  2.3407
  471MOL0     H64941   6.799   8.496   8.581  3.2330 -1.6563  0.6517
  471MOL0     H64942   6.941   8.536   8.485  0.2305  1.3052  0.7326
  471MOL0     H64943   6.737   8.719   8.489  1.0187  0.6768  0.7280
  471MOL0     H64944   6.660   8.596   8.385  0.8750  1.8605 -2.7868
  471MOL0     H64945   6.831   8.624   8.216 -3.0499  1.5362 -2.2277
  471MOL0     H64946   6.730   8.756   8.240 -0.4121  0.9371  1.4389
  471MOL0     H64947   6.851   8.996   8.322 -0.1976  0.7562  1.7572
  471MOL0     H64948   7.043   9.160   8.414 -0.1061  0.0526 -0.5482
  471MOL0     H64949   7.148   9.126   8.280 -2.0860  0.6414 -1.2760
  471MOL0     H64950   7.244   9.187   8.505  0.8000 -0.2595  1.3075
  471MOL0     H64951   7.201   9.022   8.559  1.1090 -3.6774 -1.3425
  471MOL0     H64952   7.427   9.013   8.508 -1.1573 -0.2033  1.1181
  471MOL0     H64953   7.344   8.929   8.380  0.3146 -1.0095  3.3460
  471MOL0     H64954   7.346   9.107   8.233 -1.6102  0.4924  0.8031
  471MOL0     H64955   7.419   9.219   8.349  1.9502  0.3186 -1.6514
  471MOL0     H64956   7.707   9.137   8.100 -1.3609  2.2631 -0.7011
  471MOL0     H64957   7.880   9.261   7.981  2.5448 -1.0728 -0.0562
  471MOL0     H64958   8.015   9.271   8.090  1.8686  2.9668 -1.1977
  471MOL0     H64959   7.925   9.419   8.038  1.4210  0.4634 -2.1811
  471MOL0     H64960   7.799   9.745   8.552 -0.9242 -1.3637  0.8451
  471MOL0     H64961   7.874   9.961   8.602 -2.5339 -2.1155 -1.5472
  471MOL0     H64962   7.975  10.179   8.553 -2.0268  2.0556  1.9501
  471MOL0     H64963   8.031  10.129   8.727  1.7993  1.8112  0.7224
  471MOL0     H64964   8.160  10.317   8.541  0.2772  2.2559  1.5921
  471MOL0     H64965   8.052  10.358   8.670  0.9963  1.2585 -1.5142
  471MOL0     H64966   8.331  10.238   8.701 -0.2876  1.1510 -1.3874
  471MOL0     H64967   8.205  10.222   8.836 -0.4731  0.1134  1.5933
  471MOL0     H64968   8.194  10.454   8.853 -0.1752  0.1384 -0.9839
  471MOL0     H64969   8.291  10.469   8.702 -0.0939  0.3815 -0.4623
  471MOL0     H64970   8.411  10.540   8.906 -1.4907  0.5078 -0.5419
  471MOL0     H64971   8.389  10.383   8.990 -0.8884 -2.1897 -1.5893
  471MOL0     H64972   8.537  10.442   8.728 -1.7876  3.2060  2.2904
  471MOL0     H64973   8.531  10.275   8.802  2.5102 -0.9813  0.0643
  471MOL0     H64974   8.659  10.349   9.003  0.1024 -0.1555 -0.0201
  471MOL0     H64975   8.657  10.517   8.936  0.7033 -0.6735  0.8160
  471MOL0     H64976   8.806  10.262   8.858  0.1128 -0.3336 -0.1926
  471MOL0     H64977   8.880  10.408   8.898 -0.1952  0.9947 -0.9409
  471MOL0     H64978   8.282   9.832   8.531  0.0533  0.2339  0.6550
  471MOL0     H64979   8.204   9.615   8.461 -1.0201 -0.1288 -3.4294
  471MOL0     H64980   7.759   9.405   8.517  0.9688 -0.2572 -1.0914
  471MOL0     H64981   7.599   9.206   8.496  1.5260  0.2461  1.7587
  471MOL0     H64982   6.296   8.440   8.769  0.1455  1.6097 -1.5161
  471MOL0     H64983   6.035   8.484   8.742 -1.3055  0.4279 -3.5763
  471MOL0     H64984   5.700   8.581   8.529 -1.3290  0.4193 -1.5649
  471MOL0     H64985   5.453   8.630   8.496 -0.6391 -1.0530  1.2334
  471MOL0     H64986   5.095   8.381   8.603 -0.7447  2.0712  0.9378
  471MOL0     H64987   5.231   8.339   8.697  0.3008 -2.9008 -3.4119
  471MOL0     H64988   5.261   8.580   8.776 -0.3714 -2.1509  1.9668
  471MOL0     H64989   5.113   8.496   8.826 -1.8641 -1.1329 -1.2953
  471MOL0     H64990   5.076   8.720   8.772 -0.2909 -1.3813  1.1046
  471MOL0     H64991   5.166   8.709   8.631 -1.0700 -2.9260 -2.9562
  471MOL0     H64992   4.970   8.551   8.529 -1.7811  0.1993 -0.7467
  471MOL0     H64993   4.932   8.712   8.547  0.9639  1.3660  1.5326
  471MOL0     H64994   4.780   8.532   8.914  0.3067  1.5205  0.7286
  471MOL0     H64995   5.373   8.224   8.564  1.0143 -1.3314 -2.2844
  471MOL0     H64996   5.724   8.121   8.569 -0.5331 -0.1649 -2.1237
  471MOL0     H64997   5.584   8.079   8.679 -1.4432  1.8473  0.4127
  471MOL0     H64998   5.565   8.056   8.506 -3.1676  0.0277  1.7037
  472MOL0     O64999   7.284   9.599   7.301 -0.4791  0.6712  0.0474
  472MOL0     C65000   7.238   9.557   7.402 -0.2119 -0.2299 -0.9987
  472MOL0     O65001   7.298   9.461   7.481  0.7398 -0.2432 -0.6381
  472MOL0     C65002   7.429   9.442   7.471  0.3969  0.2118 -0.9559
  472MOL0     C65003   7.525   9.520   7.401  0.4472 -0.2027  0.4622
  472MOL0     C65004   7.643   9.470   7.354  0.0346 -0.0532  0.5451
  472MOL0     C65005   7.686   9.339   7.398  0.4958  0.5150  0.2474
  472MOL0     O65006   7.809   9.306   7.343 -0.1091 -1.0793 -0.1198
  472MOL0     C65007   7.851   9.166   7.347 -0.8331  0.9756  0.1350
  472MOL0     C65008   7.913   9.127   7.479 -0.1331 -0.5146  0.7453
  472MOL0     C65009   8.019   9.215   7.521 -0.0864 -0.3011 -1.2414
  472MOL0     C65010   8.152   9.223   7.438  0.3905  0.1996 -0.7832
  472MOL0     C65011   8.282   9.265   7.509  0.7204 -0.2966  0.2950
  472MOL0     C65012   8.352   9.147   7.574 -0.1705  0.2666  0.5034
  472MOL0     C65013   8.488   9.184   7.633  0.2312  0.3500 -0.3415
  472MOL0     C65014   8.581   9.212   7.521 -0.6501 -0.9614  0.1354
  472MOL0     N65015   8.715   9.163   7.560 -0.1234 -0.2201 -1.1135
  472MOL0     C65016   8.751   9.032   7.576  0.9608  0.8630 -0.5623
  472MOL0     C65017   8.884   9.031   7.603 -0.4069 -0.3884  0.4996
  472MOL0     C65018   8.987   8.915   7.614 -0.1519 -0.7582 -1.1756
  472MOL0     C65019   9.112   8.960   7.539  0.1071  1.1389  0.3051
  472MOL0     C65020   9.215   8.847   7.529 -0.2487  0.3230 -0.2290
  472MOL0     C65021   9.357   8.880   7.491  0.0192 -0.1873  1.1497
  472MOL0     O65022   9.427   8.764   7.439  0.1845 -0.3773 -0.2694
  472MOL0     C65023   9.567   8.757   7.458 -0.7090 -0.4842  0.3329
  472MOL0     C65024   9.619   8.647   7.525  0.7200 -0.4095  0.4205
  472MOL0     C65025   9.761   8.632   7.526 -0.1176  0.4109 -0.6843
  472MOL0     C65026   9.803   8.502   7.583 -0.8908  0.0479  0.8392
  472MOL0     C65027   9.854   8.726   7.468 -0.2612  0.0207  0.2191
  472MOL0     C65028  10.002   8.723   7.481  0.1255  0.5669 -0.5203
  472MOL0     O65029  10.073   8.767   7.373 -0.0517 -0.9095 -1.0255
  472MOL0     C65030  10.210   8.801   7.382  0.3817  0.7708 -0.4938
  472MOL0     C65031  10.278   8.833   7.499  1.2994 -0.1306  0.2548
  472MOL0     C65032  10.412   8.875   7.493  0.4916 -0.6585 -0.6066
  472MOL0     C65033  10.473   8.885   7.377 -0.2020  0.2901  0.7935
  472MOL0     O65034  10.603   8.929   7.389 -0.3770 -0.4975 -0.2483
  472MOL0     C65035  10.666   8.995   7.282 -0.2112 -0.5700 -0.3084
  472MOL0     C65036  10.820   9.022   7.304  1.4259 -0.1418 -1.0180
  472MOL0     C65037  10.910   8.900   7.302  0.1907  0.0587  0.2093
  472MOL0     C65038  11.054   8.952   7.333  0.1745 -0.3763 -1.1918
  472MOL0     C65039  11.118   9.048   7.227 -0.2127  0.1199 -0.6814
  472MOL0     C65040  11.154   8.967   7.104 -0.2574 -0.2606 -0.3797
  472MOL0     C65041  11.251   9.043   7.002 -0.6919  0.8503  0.2039
  472MOL0     C65042  11.394   9.019   7.059  0.4018 -0.0528 -0.3581
  472MOL0    Cl65043  11.505   9.099   6.953 -0.1712  0.1337  0.2398
  472MOL0     C65044  10.409   8.844   7.256 -0.2926  0.6313 -0.3201
  472MOL0     C65045  10.274   8.812   7.262 -0.3477 -0.3365 -0.0974
  472MOL0     O65046  10.047   8.688   7.587  0.2077  0.0938 -0.2172
  472MOL0     C65047   9.792   8.815   7.386  0.1041 -0.5297 -0.4591
  472MOL0     C65048   9.653   8.834   7.386  0.2656 -0.5227 -0.1945
  472MOL0     N65049   8.926   9.160   7.622  0.1032 -0.2015  0.3910
  472MOL0     N65050   8.824   9.244   7.601 -0.2965  0.8665 -0.2103
  472MOL0     C65051   7.589   9.261   7.461  0.4461 -0.1320  0.5050
  472MOL0     C65052   7.466   9.310   7.505 -0.0049 -0.4368  0.2890
  472MOL0     C65053   7.092   9.578   7.438 -0.4141  0.4874  0.2289
  472MOL0     C65054   7.034   9.479   7.525 -0.0787  0.5301  0.4124
  472MOL0     C65055   6.896   9.482   7.559  0.5303 -0.6402  0.6955
  472MOL0     C65056   6.811   9.553   7.478 -0.1382 -0.3433 -0.6033
  472MOL0     O65057   6.677   9.532   7.500  0.8088  0.1549 -0.5046
  472MOL0     C65058   6.572   9.604   7.425 -0.1677 -0.2169 -0.3024
  472MOL0     C65059   6.548   9.742   7.500 -0.3620  0.2382  0.4775
  472MOL0     C65060   6.512   9.734   7.647  0.8404  0.2495  0.3301
  472MOL0     C65061   6.368   9.695   7.684 -0.7231 -0.1636  0.3776
  472MOL0     C65062   6.278   9.793   7.630 -0.2824  0.5586  0.9408
  472MOL0     C65063   6.212   9.893   7.603  0.0300  0.2103  1.7787
  472MOL0     C65064   6.871   9.647   7.393  0.1895  0.4528  1.1921
  472MOL0     C65065   7.007   9.674   7.381  0.3760 -0.0515  1.5996
  472MOL0     C65066   7.051   9.781   7.287 -0.7682  0.6270  0.0418
  472MOL0     H65067   7.504   9.624   7.378 -3.4112  0.1441  4.1091
  472MOL0     H65068   7.712   9.529   7.296 -0.3364  0.1239  0.2825
  472MOL0     H65069   7.930   9.155   7.272  0.1270 -3.8654  1.5566
  472MOL0     H65070   7.775   9.096   7.311  0.9893 -0.4345 -1.1461
  472MOL0     H65071   7.830   9.137   7.550 -0.4784  0.5577  0.2207
  472MOL0     H65072   7.952   9.025   7.484  1.7118  0.1615  1.1173
  472MOL0     H65073   7.983   9.318   7.537 -1.1540 -0.6764 -1.1534
  472MOL0     H65074   8.057   9.190   7.621 -0.7088  0.5250 -0.7792
  472MOL0     H65075   8.162   9.135   7.373 -2.3488 -0.3581 -0.6065
  472MOL0     H65076   8.135   9.300   7.362 -0.8589  1.1687  0.4191
  472MOL0     H65077   8.238   9.333   7.582 -0.6047 -2.4656  1.6111
  472MOL0     H65078   8.349   9.321   7.442  2.4407 -0.5279  1.7551
  472MOL0     H65079   8.286   9.105   7.651 -0.8291  1.1894  0.4573
  472MOL0     H65080   8.363   9.066   7.502  1.0071  2.5463 -2.0248
  472MOL0     H65081   8.523   9.106   7.702  0.5237  0.9735  0.2251
  472MOL0     H65082   8.493   9.280   7.685 -0.9548  0.4603 -0.4222
  472MOL0     H65083   8.546   9.158   7.432 -1.8478 -3.7972  2.1862
  472MOL0     H65084   8.585   9.314   7.481  0.8542 -1.1005 -0.1312
  472MOL0     H65085   8.705   8.938   7.549  1.5348  0.1882  0.7438
  472MOL0     H65086   8.950   8.821   7.574 -3.1705 -0.2540  0.0824
  472MOL0     H65087   9.019   8.895   7.717 -2.2716 -2.1710 -0.7102
  472MOL0     H65088   9.089   8.987   7.435 -2.3374  1.1760  0.8042
  472MOL0     H65089   9.171   9.035   7.590  0.3511  0.1068  1.5884
  472MOL0     H65090   9.217   8.796   7.626  1.8600  2.9229  1.2229
  472MOL0     H65091   9.187   8.790   7.439  2.1690  3.6420 -3.3698
  472MOL0     H65092   9.376   8.962   7.421  1.1026  1.7236  3.5685
  472MOL0     H65093   9.407   8.916   7.580  0.6547  2.4662 -0.1892
  472MOL0     H65094   9.545   8.576   7.561  1.0158  0.1620  2.2508
  472MOL0     H65095   9.854   8.516   7.679  2.0661  1.2037 -0.7505
  472MOL0     H65096   9.876   8.455   7.517  0.9397  1.5978  1.6427
  472MOL0     H65097   9.725   8.429   7.603 -0.3100 -0.1403  2.6293
  472MOL0     H65098  10.228   8.835   7.595  2.0282  2.3327  0.6513
  472MOL0     H65099  10.467   8.882   7.586  1.9468 -3.3688 -1.1675
  472MOL0     H65100  10.663   8.930   7.195 -0.0325 -0.7808 -0.1579
  472MOL0     H65101  10.624   9.096   7.271  0.3964 -0.0609  1.5207
  472MOL0     H65102  10.834   9.097   7.226 -0.6268  1.3624 -0.0135
  472MOL0     H65103  10.836   9.080   7.396 -1.1513  2.7205 -2.2378
  472MOL0     H65104  10.920   8.861   7.200 -1.9660  1.5085 -0.6243
  472MOL0     H65105  10.868   8.818   7.361  1.5008 -2.1186 -1.7093
  472MOL0     H65106  11.124   8.872   7.356  3.5331  2.6364  0.1044
  472MOL0     H65107  11.049   8.995   7.434 -0.9838 -0.5330 -1.1702
  472MOL0     H65108  11.053   9.130   7.194  0.6518  0.9335 -0.4124
  472MOL0     H65109  11.209   9.085   7.275  0.0650 -0.1919 -0.9528
  472MOL0     H65110  11.063   8.943   7.047 -0.8599  0.7267  0.1406
  472MOL0     H65111  11.195   8.868   7.129  4.6312  1.5799 -0.0833
  472MOL0     H65112  11.231   9.147   6.978  1.2728  0.6475 -2.7896
  472MOL0     H65113  11.249   8.991   6.905  0.4053 -1.8744  1.5293
  472MOL0     H65114  11.428   8.915   7.055 -0.7453 -0.3968 -2.2710
  472MOL0     H65115  11.410   9.066   7.156 -0.7991  2.1478 -1.1595
  472MOL0     H65116  10.462   8.845   7.161 -0.1931  1.6349 -0.2591
  472MOL0     H65117  10.215   8.781   7.176 -3.0954  1.2466  1.1078
  472MOL0     H65118   9.852   8.876   7.318 -2.3657  1.2528 -1.1862
  472MOL0     H65119   9.609   8.906   7.317  0.2512 -0.4149 -0.0736
  472MOL0     H65120   7.618   9.164   7.501 -0.2947 -0.5397  0.0638
  472MOL0     H65121   7.398   9.259   7.571 -0.6259  0.0931  0.0787
  472MOL0     H65122   7.090   9.395   7.563 -0.6243 -0.5697 -1.1359
  472MOL0     H65123   6.875   9.402   7.629  1.1115 -1.0214  0.4429
  472MOL0     H65124   6.595   9.622   7.319  0.9385  1.2151  0.1460
  472MOL0     H65125   6.482   9.542   7.422 -0.4345  0.0360  1.3441
  472MOL0     H65126   6.486   9.807   7.438  2.2661  0.4755 -2.1522
  472MOL0     H65127   6.647   9.788   7.505 -1.6625  3.2356  0.7571
  472MOL0     H65128   6.584   9.665   7.692  1.8102  1.3402  0.5077
  472MOL0     H65129   6.520   9.831   7.697 -2.7559  1.0359 -0.3479
  472MOL0     H65130   6.361   9.682   7.792 -1.1202 -0.8236  0.2783
  472MOL0     H65131   6.350   9.598   7.635 -2.0494  0.2110  0.0753
  472MOL0     H65132   6.141   9.973   7.599 -2.0648 -1.5842 -1.4982
  472MOL0     H65133   6.808   9.711   7.331  2.6769  0.7001 -1.3096
  472MOL0     H65134   6.981   9.865   7.291  0.5174  1.6930  1.0065
  472MOL0     H65135   7.153   9.810   7.315 -0.0015 -3.4215  2.1435
  472MOL0     H65136   7.063   9.731   7.190  3.6258  0.3868  0.5201
  473MOL0     O65137   2.828   1.118   9.874  0.3902 -0.1287 -0.1754
  473MOL0     C65138   2.716   1.176   9.849 -1.4975 -0.5578 -0.1892
  473MOL0     O65139   2.672   1.280   9.925 -0.4112 -0.4344 -0.1670
  473MOL0     C65140   2.723   1.305  10.043 -1.1588 -0.7612 -0.7375
  473MOL0     C65141   2.634   1.313  10.150  0.5101  0.5485  0.0384
  473MOL0     C65142   2.675   1.342  10.279  0.8541  1.1523 -0.0615
  473MOL0     C65143   2.812   1.365  10.301  0.1053 -0.3392  0.1644
  473MOL0     O65144   2.850   1.375  10.430  0.3491 -0.2900 -0.0616
  473MOL0     C65145   2.979   1.318  10.465  0.4795  0.0843  0.1679
  473MOL0     C65146   2.992   1.334  10.614  0.1178  0.0020  0.0384
  473MOL0     C65147   3.025   1.485  10.634 -0.0908 -0.3277  0.0267
  473MOL0     C65148   2.949   1.544  10.751 -0.3780  0.7799  0.1411
  473MOL0     C65149   2.993   1.686  10.770  0.2020 -0.4268  0.8796
  473MOL0     C65150   3.119   1.704  10.840  0.2876 -1.0600 -0.1180
  473MOL0     C65151   3.129   1.860  10.867  0.3814 -0.0911  0.8168
  473MOL0     C65152   3.260   1.898  10.925  0.4125 -0.0368 -0.1337
  473MOL0     N65153   3.263   2.043  10.966  0.2068  0.2179 -0.4206
  473MOL0     C65154   3.190   2.153  10.929 -0.3624  0.1133  1.0599
  473MOL0     C65155   3.262   2.264  10.968  0.1736 -1.0249  0.3531
  473MOL0     C65156   3.218   2.406  10.946  0.8140  0.0189 -0.5401
  473MOL0     C65157   3.159   2.460  11.073  0.4188  0.0950 -0.4367
  473MOL0     C65158   3.012   2.415  11.109 -0.7291 -0.2821  0.4406
  473MOL0     C65159   2.986   2.434  11.259 -0.4885 -0.5940 -0.4332
  473MOL0     O65160   2.861   2.383  11.306 -0.5130 -1.0844 -0.3299
  473MOL0     C65161   2.753   2.472  11.286 -0.1339  0.4975  0.4311
  473MOL0     C65162   2.726   2.577  11.374  0.0521  0.2874  0.0418
  473MOL0     C65163   2.640   2.684  11.340  0.1058 -0.7267  0.1698
  473MOL0     C65164   2.626   2.806  11.432 -0.2601  1.0305  0.0155
  473MOL0     C65165   2.575   2.680  11.214 -0.0147 -0.2901  0.1045
  473MOL0     C65166   2.491   2.783  11.156 -0.2095  0.0859  0.2182
  473MOL0     O65167   2.404   2.848  11.242  0.0261 -0.1685  0.7769
  473MOL0     C65168   2.298   2.896  11.167  0.3122 -0.5324 -0.5698
  473MOL0     C65169   2.198   2.821  11.093  0.2997  0.2016  0.2180
  473MOL0     C65170   2.095   2.885  11.015  0.1548  0.3773 -0.5372
  473MOL0     C65171   2.079   3.022  11.019 -0.6410  0.1387  0.0346
  473MOL0     O65172   1.985   3.076  10.930  0.5755 -0.0214  0.0255
  473MOL0     C65173   1.897   3.182  10.987 -0.4690  0.2302 -0.3583
  473MOL0     C65174   1.780   3.198  10.899  1.6964 -0.5994 -0.3630
  473MOL0     C65175   1.652   3.255  10.967 -0.4238  0.2016 -0.0285
  473MOL0     C65176   1.554   3.302  10.860 -0.2138 -1.1128  0.3802
  473MOL0     C65177   1.459   3.186  10.823 -0.7621  0.1062 -1.3712
  473MOL0     C65178   1.370   3.223  10.706  0.2524 -0.2871  0.1035
  473MOL0     C65179   1.299   3.353  10.730  0.4231  0.3991  0.0231
  473MOL0     C65180   1.205   3.377  10.620 -0.0366 -0.0129  0.3825
  473MOL0    Cl65181   1.044   3.314  10.650  0.3748  0.1782  0.3118
  473MOL0     C65182   2.171   3.096  11.092  0.5690 -0.7465 -0.3156
  473MOL0     C65183   2.270   3.037  11.171 -1.3987  0.2768  0.2248
  473MOL0     O65184   2.500   2.811  11.032 -0.1560 -0.2270 -0.2389
  473MOL0     C65185   2.598   2.568  11.126  0.4050 -0.2723 -0.0846
  473MOL0     C65186   2.694   2.471  11.161 -0.8372 -0.1297  0.3137
  473MOL0     N65187   3.375   2.224  11.042  0.1572  0.4761 -0.6027
  473MOL0     N65188   3.371   2.097  11.034 -0.2895 -0.3739 -0.0038
  473MOL0     C65189   2.900   1.376  10.187  0.0042 -1.0119 -0.7649
  473MOL0     C65190   2.852   1.342  10.059  0.7340 -0.7281  0.1988
  473MOL0     C65191   2.639   1.137   9.726 -0.1241  0.1107 -0.1174
  473MOL0     C65192   2.547   1.227   9.676  0.7907  0.1371  0.4268
  473MOL0     C65193   2.472   1.196   9.561  1.0919  0.8983  0.5678
  473MOL0     C65194   2.489   1.067   9.494  0.3342 -0.5947  0.6421
  473MOL0     O65195   2.422   1.031   9.377 -0.3282  0.4838  0.5223
  473MOL0     C65196   2.315   1.103   9.318  0.5338  0.3057 -0.4607
  473MOL0     C65197   2.245   1.037   9.199 -0.0459  0.6740  0.2736
  473MOL0     C65198   2.102   1.091   9.175  0.9884 -0.2233 -0.3033
  473MOL0     C65199   2.021   1.018   9.068 -0.3731  1.2159 -0.7439
  473MOL0     C65200   2.091   1.021   8.943 -0.1473  0.0291 -0.3735
  473MOL0     C65201   2.147   1.019   8.833 -0.3131  0.6549 -1.0315
  473MOL0     C65202   2.576   0.973   9.541  0.1221  0.1238 -0.0780
  473MOL0     C65203   2.652   1.012   9.650  0.4241  0.2243  0.0727
  473MOL0     C65204   2.750   0.897   9.692  0.7056 -0.1946  0.4746
  473MOL0     H65205   2.528   1.301  10.127  0.6231 -0.3311 -0.0809
  473MOL0     H65206   2.617   1.324  10.369  0.6109 -0.2102 -0.4622
  473MOL0     H65207   3.063   1.366  10.415  0.5276 -1.2157 -1.0622
  473MOL0     H65208   2.976   1.211  10.440 -0.6772  0.3797 -1.0836
  473MOL0     H65209   2.901   1.307  10.669  0.6823 -1.3610  0.3524
  473MOL0     H65210   3.078   1.277  10.652  0.2211  0.6333  0.7882
  473MOL0     H65211   3.132   1.497  10.653 -0.6137  0.9662  2.5687
  473MOL0     H65212   3.014   1.549  10.546  1.6288 -1.2417 -0.9095
  473MOL0     H65213   2.844   1.554  10.723  0.1580 -0.0121 -2.4612
  473MOL0     H65214   2.951   1.486  10.844  1.9679 -0.0517 -0.3566
  473MOL0     H65215   2.904   1.731  10.816 -1.8520 -2.0405 -1.2002
  473MOL0     H65216   2.999   1.734  10.672 -1.8488 -1.5751  0.1242
  473MOL0     H65217   3.119   1.655  10.938 -0.0038 -0.8874 -0.0320
  473MOL0     H65218   3.200   1.662  10.779  0.1692  0.0720 -1.0651
  473MOL0     H65219   3.056   1.885  10.944 -1.4356 -1.3398 -0.4310
  473MOL0     H65220   3.110   1.911  10.772 -3.7678 -0.5599  1.2321
  473MOL0     H65221   3.293   1.826  11.001 -0.7641  1.0901  1.5065
  473MOL0     H65222   3.333   1.886  10.844 -2.6903 -0.2004 -3.1472
  473MOL0     H65223   3.102   2.148  10.865  1.5847  0.4225 -1.8761
  473MOL0     H65224   3.150   2.403  10.860  0.7176 -1.9013 -0.4371
  473MOL0     H65225   3.306   2.471  10.934  0.3759  0.7680  0.2007
  473MOL0     H65226   3.234   2.442  11.150  1.1341  0.2127 -1.0928
  473MOL0     H65227   3.158   2.569  11.065 -0.6022  0.0277 -1.5300
  473MOL0     H65228   2.946   2.476  11.047  1.6885  0.8882 -1.1689
  473MOL0     H65229   2.997   2.318  11.061  2.6470 -0.3259 -0.8764
  473MOL0     H65230   3.070   2.386  11.312 -2.7501 -1.6124  2.5255
  473MOL0     H65231   2.982   2.536  11.298  1.0077 -0.7926  0.3406
  473MOL0     H65232   2.779   2.584  11.468 -0.7565  1.2869  0.4335
  473MOL0     H65233   2.677   2.897  11.399 -2.4625  1.7741 -1.6587
  473MOL0     H65234   2.663   2.780  11.531 -0.4430  2.2727  0.4270
  473MOL0     H65235   2.520   2.820  11.454  0.3938  1.3651  3.5094
  473MOL0     H65236   2.193   2.713  11.093 -0.2989  0.2287 -0.2066
  473MOL0     H65237   2.031   2.819  10.955 -0.5725 -0.2351  0.8612
  473MOL0     H65238   1.868   3.157  11.090  1.4214  0.1373  0.1754
  473MOL0     H65239   1.952   3.276  10.995 -0.1214  0.0461 -0.6005
  473MOL0     H65240   1.823   3.264  10.824  1.8017 -0.3676 -0.0990
  473MOL0     H65241   1.748   3.103  10.853  0.6601 -1.0942  1.2985
  473MOL0     H65242   1.685   3.336  11.033  2.2529 -2.0927  1.7117
  473MOL0     H65243   1.609   3.188  11.043  0.0901  0.2153  0.2891
  473MOL0     H65244   1.610   3.341  10.775  0.3949 -0.8016  0.9153
  473MOL0     H65245   1.489   3.379  10.902 -2.6634 -2.3884 -0.8595
  473MOL0     H65246   1.509   3.091  10.802 -0.4271 -0.2704  0.8447
  473MOL0     H65247   1.402   3.169  10.915  1.5055  3.3834  0.8715
  473MOL0     H65248   1.308   3.134  10.693 -0.9872  0.7075 -1.0382
  473MOL0     H65249   1.435   3.225  10.617  0.2171  1.5272  0.0798
  473MOL0     H65250   1.376   3.430  10.728  0.6035  0.2374  0.4491
  473MOL0     H65251   1.238   3.348  10.821 -0.9364 -1.8175 -0.9219
  473MOL0     H65252   1.246   3.338  10.526 -2.0223 -1.6547  0.1076
  473MOL0     H65253   1.199   3.484  10.601  0.4552  0.3197  1.9840
  473MOL0     H65254   2.152   3.203  11.099 -1.5477 -1.1359  0.5147
  473MOL0     H65255   2.342   3.102  11.221 -1.1856 -0.6889  1.2104
  473MOL0     H65256   2.552   2.562  11.028  1.3984 -1.4665 -0.5080
  473MOL0     H65257   2.736   2.404  11.086  1.4277  1.0997  0.3917
  473MOL0     H65258   2.998   1.423  10.192 -1.6243  2.8688 -1.7426
  473MOL0     H65259   2.918   1.353   9.974  0.2515  1.3854  0.0397
  473MOL0     H65260   2.537   1.326   9.720  1.3488 -0.8058  2.7857
  473MOL0     H65261   2.408   1.262   9.504 -1.6680 -2.3085 -0.3449
  473MOL0     H65262   2.239   1.114   9.397 -1.5320 -0.0854 -2.2918
  473MOL0     H65263   2.344   1.204   9.286 -3.2081  1.5700 -0.3764
  473MOL0     H65264   2.242   0.930   9.221 -0.5007  0.9154  1.3968
  473MOL0     H65265   2.308   1.038   9.109 -1.0687 -1.9356 -0.5679
  473MOL0     H65266   2.039   1.081   9.264  0.2121 -0.7765 -0.9105
  473MOL0     H65267   2.108   1.200   9.165  0.1431  0.1099  2.1038
  473MOL0     H65268   1.919   1.055   9.056 -1.5378 -1.5772 -0.2030
  473MOL0     H65269   2.014   0.914   9.101  1.3723  0.9109 -1.2314
  473MOL0     H65270   2.183   1.018   8.732  1.1670  5.1000 -0.7663
  473MOL0     H65271   2.578   0.879   9.487  1.0543 -1.1611  2.0527
  473MOL0     H65272   2.854   0.930   9.680 -0.1571  3.3596  1.4534
  473MOL0     H65273   2.728   0.865   9.794 -1.2632  3.9114  1.5549
  473MOL0     H65274   2.736   0.812   9.625 -0.8969  0.6716 -0.3760
  474MOL0     O65275  10.254   8.835  10.442  0.7910  0.8811 -0.1674
  474MOL0     C65276  10.269   8.915  10.533  0.4844 -0.2960  0.0348
  474MOL0     O65277  10.341   8.899  10.649  0.0644  0.7569  0.0565
  474MOL0     C65278  10.453   8.815  10.664 -0.0398  0.3846 -0.6545
  474MOL0     C65279  10.504   8.732  10.559 -0.0225 -0.1499  1.0494
  474MOL0     C65280  10.600   8.639  10.590 -0.3529  0.5002  0.0570
  474MOL0     C65281  10.646   8.612  10.723  0.0300 -1.0911 -0.3511
  474MOL0     O65282  10.743   8.507  10.733 -1.6926  0.0491 -0.0505
  474MOL0     C65283  10.806   8.488  10.866  0.5949 -0.5020  0.0015
  474MOL0     C65284  10.909   8.380  10.859  0.0505  0.1594  0.4112
  474MOL0     C65285  10.992   8.363  10.991 -0.6602  0.3472  0.3095
  474MOL0     C65286  11.077   8.240  10.997 -0.5858  0.6072  0.9562
  474MOL0     C65287  11.182   8.249  11.103 -0.3669 -0.1534  0.9494
  474MOL0     C65288  11.253   8.112  11.105  0.9503 -0.0499 -0.2722
  474MOL0     C65289  11.381   8.102  11.183  0.1815 -0.2631 -0.6172
  474MOL0     C65290  11.480   8.209  11.141  0.6739 -0.0181  0.1916
  474MOL0     N65291  11.614   8.152  11.135 -0.8252  0.3010 -0.3320
  474MOL0     C65292  11.661   8.054  11.053  0.8950 -0.6761  0.7842
  474MOL0     C65293  11.791   8.045  11.094  0.1153 -0.8205 -0.6275
  474MOL0     C65294  11.908   7.967  11.029 -0.3565 -0.5496 -0.4639
  474MOL0     C65295  12.037   8.043  11.004 -0.1164 -0.3488  0.7427
  474MOL0     C65296  12.129   8.022  11.126  0.1003 -0.4622  0.5416
  474MOL0     C65297  12.268   8.082  11.120  0.8411  0.9058  0.2780
  474MOL0     O65298  12.277   8.222  11.097  0.3247 -0.2808 -0.5065
  474MOL0     C65299  12.403   8.280  11.081 -0.5254 -0.2912  0.8192
  474MOL0     C65300  12.441   8.400  11.148 -0.3718  0.6430 -0.1378
  474MOL0     C65301  12.569   8.454  11.126  1.0976 -0.8323  0.7021
  474MOL0     C65302  12.599   8.581  11.210 -0.9731  0.4702  0.1205
  474MOL0     C65303  12.665   8.389  11.050 -0.2791 -0.7615  0.6501
  474MOL0     C65304  12.810   8.427  11.043  0.5689 -0.4019  0.0331
  474MOL0     O65305  12.905   8.330  11.020  0.7551  1.2718 -0.0252
  474MOL0     C65306  13.030   8.370  11.026 -0.1741  0.3667  0.0592
  474MOL0     C65307  13.084   8.434  10.912 -0.3461 -0.6201  0.0481
  474MOL0     C65308  13.216   8.488  10.915 -0.9128  0.6282  0.0533
  474MOL0     C65309  13.295   8.468  11.026 -0.6300 -0.8002  0.0515
  474MOL0     O65310  13.414   8.524  11.025  0.0051 -0.3263  0.3559
  474MOL0     C65311  13.513   8.465  11.117  0.6158  0.2414  0.2127
  474MOL0     C65312  13.642   8.514  11.070 -0.4647 -0.9008 -0.1719
  474MOL0     C65313  13.761   8.502  11.173 -0.2848 -0.3907  0.1954
  474MOL0     C65314  13.891   8.556  11.090 -0.3479  0.7011 -0.2827
  474MOL0     C65315  14.030   8.517  11.153 -0.7665 -0.6740 -0.1669
  474MOL0     C65316  14.131   8.599  11.074 -0.4075 -0.1616  0.0682
  474MOL0     C65317  14.269   8.529  11.054  1.0406 -0.9462  0.5203
  474MOL0     C65318  14.352   8.510  11.182 -0.5596 -0.5364  0.3861
  474MOL0    Cl65319  14.299   8.380  11.284 -0.2836  0.4231  0.3628
  474MOL0     C65320  13.237   8.410  11.144  0.2509  0.1170  0.0090
  474MOL0     C65321  13.111   8.354  11.132  0.1264 -0.2351 -0.2591
  474MOL0     O65322  12.830   8.546  11.055 -0.0033 -0.4408  0.1623
  474MOL0     C65323  12.628   8.269  10.985  0.2325  0.9118 -0.1213
  474MOL0     C65324  12.502   8.211  11.010  0.3238 -0.3262 -0.3461
  474MOL0     N65325  11.807   8.115  11.217  0.7023 -0.3174  0.0120
  474MOL0     N65326  11.699   8.179  11.241  0.1474 -0.3719  0.5279
  474MOL0     C65327  10.605   8.699  10.821  0.3724 -0.1823 -0.4044
  474MOL0     C65328  10.507   8.801  10.794 -0.9845  1.1224  0.1718
  474MOL0     C65329  10.174   9.026  10.540 -0.7848  0.6510 -0.4746
  474MOL0     C65330  10.139   9.080  10.413 -0.9997  0.4519 -0.7146
  474MOL0     C65331  10.063   9.199  10.395  0.5396  0.6265 -0.3398
  474MOL0     C65332  10.018   9.272  10.509 -0.4252  0.2426  0.1990
  474MOL0     O65333   9.936   9.381  10.509  0.4172  0.0111 -0.0872
  474MOL0     C65334   9.886   9.429  10.373  0.7904  0.0874 -0.1244
  474MOL0     C65335   9.805   9.555  10.372  0.5479 -0.8135 -0.4429
  474MOL0     C65336   9.879   9.679  10.410 -0.4360 -0.3231  0.0326
  474MOL0     C65337   9.909   9.699  10.557  0.0588 -0.1757 -0.8817
  474MOL0     C65338   9.799   9.712  10.649  0.0979  0.6147 -0.4515
  474MOL0     C65339   9.703   9.722  10.720  0.0791  0.4072  0.1778
  474MOL0     C65340  10.047   9.218  10.630 -0.4066  0.3306 -0.3060
  474MOL0     C65341  10.125   9.100  10.648 -0.0082  1.2286 -0.6374
  474MOL0     C65342  10.133   9.056  10.791  0.4760  0.3941 -0.0734
  474MOL0     H65343  10.475   8.740  10.455 -1.5192  0.8722  1.5085
  474MOL0     H65344  10.618   8.562  10.515  1.0858 -1.5684  2.3449
  474MOL0     H65345  10.733   8.456  10.941 -2.2401  2.7509 -1.0765
  474MOL0     H65346  10.855   8.579  10.902  4.4022 -1.8736 -1.2223
  474MOL0     H65347  10.873   8.280  10.836  0.9513  0.3306 -2.0872
  474MOL0     H65348  10.981   8.400  10.779  0.6404 -1.1883  0.5884
  474MOL0     H65349  11.066   8.443  10.993  0.5684 -0.6948 -0.9574
  474MOL0     H65350  10.922   8.360  11.075 -2.4502 -0.5612 -1.1268
  474MOL0     H65351  11.007   8.157  11.010 -2.0204  1.4948 -0.6798
  474MOL0     H65352  11.130   8.228  10.902 -1.4440  4.0807 -0.1211
  474MOL0     H65353  11.135   8.276  11.198  0.2640  1.9484  0.7279
  474MOL0     H65354  11.248   8.334  11.084  0.2633 -0.9729 -0.6876
  474MOL0     H65355  11.191   8.032  11.147  1.5719 -0.0657  0.6603
  474MOL0     H65356  11.265   8.082  11.000 -2.4396  2.7204 -1.6461
  474MOL0     H65357  11.418   8.000  11.169 -1.0082 -0.9527  0.9462
  474MOL0     H65358  11.356   8.110  11.289  0.1470 -2.0200 -0.4691
  474MOL0     H65359  11.455   8.248  11.042 -0.2876 -2.5939 -0.6754
  474MOL0     H65360  11.477   8.284  11.220  1.6533 -1.5235  1.7379
  474MOL0     H65361  11.617   8.015  10.961 -0.9726  1.6909  0.5711
  474MOL0     H65362  11.858   7.935  10.936 -0.1437  1.9355 -1.5102
  474MOL0     H65363  11.926   7.880  11.093 -1.2763  1.7717  3.2513
  474MOL0     H65364  12.086   8.000  10.917  0.6937 -1.1464  1.5620
  474MOL0     H65365  12.009   8.149  11.000  4.8349  1.1659 -2.3560
  474MOL0     H65366  12.082   8.074  11.210  2.1284  0.1017  1.3959
  474MOL0     H65367  12.134   7.917  11.156  1.2111 -0.3206  0.9088
  474MOL0     H65368  12.327   8.050  11.207  1.7935 -2.9460 -1.5827
  474MOL0     H65369  12.313   8.030  11.036 -0.1455  2.6029 -1.3716
  474MOL0     H65370  12.369   8.445  11.216  1.4347  1.3427  1.4004
  474MOL0     H65371  12.624   8.660  11.139  1.8775 -0.1875  0.2674
  474MOL0     H65372  12.688   8.562  11.271 -1.1831 -1.9065 -0.2394
  474MOL0     H65373  12.520   8.617  11.277  0.3631  1.4316  1.2345
  474MOL0     H65374  13.017   8.453  10.829 -1.7953  0.3657  1.3734
  474MOL0     H65375  13.258   8.536  10.827 -2.0612  0.1613 -0.7787
  474MOL0     H65376  13.495   8.493  11.222  1.6079  1.7354  0.0111
  474MOL0     H65377  13.497   8.358  11.104 -2.0193  0.4265  1.2303
  474MOL0     H65378  13.659   8.467  10.973  2.0817  0.5000 -0.4940
  474MOL0     H65379  13.633   8.621  11.049 -0.2542 -1.1146 -1.4052
  474MOL0     H65380  13.773   8.397  11.201  2.3776 -0.7192 -1.7150
  474MOL0     H65381  13.750   8.570  11.258  0.6281  3.6925 -2.6363
  474MOL0     H65382  13.879   8.664  11.083  0.0157  0.8161  0.7139
  474MOL0     H65383  13.886   8.512  10.990  3.3115  0.1011 -0.3173
  474MOL0     H65384  14.035   8.547  11.258 -1.7020 -0.3362 -0.2130
  474MOL0     H65385  14.033   8.410  11.130  0.5954 -1.0192  1.4862
  474MOL0     H65386  14.147   8.697  11.120 -1.0558  1.9712 -3.7712
  474MOL0     H65387  14.097   8.617  10.971 -3.6904  3.5356  1.5335
  474MOL0     H65388  14.329   8.585  10.982 -2.5628 -0.4681 -2.4010
  474MOL0     H65389  14.247   8.438  10.997 -1.0643  0.5032 -1.1454
  474MOL0     H65390  14.361   8.600  11.244  0.4575 -0.3155 -0.0800
  474MOL0     H65391  14.453   8.487  11.147  0.4846  3.8887 -0.0344
  474MOL0     H65392  13.280   8.385  11.240 -1.4612  2.2112  1.3957
  474MOL0     H65393  13.064   8.305  11.217 -4.2344  0.7570 -1.7884
  474MOL0     H65394  12.692   8.214  10.917 -1.0352 -0.0994 -0.5344
  474MOL0     H65395  12.477   8.114  10.968 -2.5154  0.9014 -1.7339
  474MOL0     H65396  10.642   8.687  10.922 -0.6693  2.7251  0.4201
  474MOL0     H65397  10.476   8.862  10.878  1.8106 -1.7622  3.6087
  474MOL0     H65398  10.189   9.040  10.325 -1.5034 -0.8269 -0.4492
  474MOL0     H65399  10.047   9.230  10.293  3.0205 -1.5992 -1.5513
  474MOL0     H65400   9.974   9.451  10.312  1.3494 -1.1562  0.1915
  474MOL0     H65401   9.827   9.357  10.317  1.3704  0.0151 -0.6523
  474MOL0     H65402   9.722   9.542  10.443  2.4986 -0.4072  2.0816
  474MOL0     H65403   9.775   9.566  10.267  2.5368 -1.4963 -1.1150
  474MOL0     H65404   9.971   9.693  10.353  1.1044 -1.2140  2.2090
  474MOL0     H65405   9.815   9.764  10.383 -1.5297 -1.7361 -2.0940
  474MOL0     H65406   9.962   9.795  10.566  0.3374 -0.4174  0.2090
  474MOL0     H65407   9.976   9.616  10.582  0.5756  0.2824 -0.7062
  474MOL0     H65408   9.632   9.709  10.799  0.8530 -2.8308  0.4759
  474MOL0     H65409   9.995   9.257  10.716  1.5085 -1.6878  1.9095
  474MOL0     H65410  10.216   9.111  10.837  1.1371 -0.4987 -0.1736
  474MOL0     H65411  10.039   9.067  10.846 -1.0871  2.2002 -2.8597
  474MOL0     H65412  10.162   8.952  10.807 -1.3648  0.2564  3.1078
  475MOL0     O65413   8.127   2.994   4.251 -0.0259  0.1903 -0.0314
  475MOL0     C65414   8.050   3.077   4.301  0.3873  0.3873  0.2822
  475MOL0     O65415   8.083   3.158   4.407 -0.0382  0.2693  0.2076
  475MOL0     C65416   8.196   3.114   4.479 -0.6148 -0.2098  0.1544
  475MOL0     C65417   8.328   3.162   4.454 -0.2544 -0.0111  0.0057
  475MOL0     C65418   8.439   3.092   4.507 -0.1446 -0.1624  0.3359
  475MOL0     C65419   8.415   2.988   4.601  0.5837 -0.9986  0.8448
  475MOL0     O65420   8.531   2.928   4.640  0.6134  0.5677 -0.2207
  475MOL0     C65421   8.581   2.989   4.756  0.2384  0.5145 -0.1905
  475MOL0     C65422   8.678   2.889   4.816  0.1265 -0.3787 -0.4981
  475MOL0     C65423   8.610   2.768   4.889 -0.6475  0.4245 -0.1160
  475MOL0     C65424   8.709   2.665   4.944 -0.5620 -0.3432 -0.5607
  475MOL0     C65425   8.645   2.526   4.970  0.2467 -0.6285 -0.3165
  475MOL0     C65426   8.578   2.506   5.109  0.5367 -0.4673 -0.5449
  475MOL0     C65427   8.471   2.393   5.099  0.3765  0.4514  0.2424
  475MOL0     C65428   8.526   2.244   5.086  0.5565  0.2643 -0.5740
  475MOL0     N65429   8.561   2.182   5.208 -0.0537 -0.5866 -0.4063
  475MOL0     C65430   8.575   2.046   5.220  0.9481 -0.1168 -0.3817
  475MOL0     C65431   8.625   2.032   5.347 -0.3789  0.1595  0.1705
  475MOL0     C65432   8.644   1.907   5.422 -0.2609  0.3474 -0.1032
  475MOL0     C65433   8.657   1.773   5.337  0.3895 -0.3970  0.0520
  475MOL0     C65434   8.651   1.647   5.418 -0.0613 -0.0171 -0.3871
  475MOL0     C65435   8.793   1.626   5.490  0.1608  0.5099  0.0425
  475MOL0     O65436   8.872   1.549   5.400  0.2452  0.1582  0.1334
  475MOL0     C65437   8.996   1.511   5.455  0.5043  1.2867  0.3766
  475MOL0     C65438   9.108   1.519   5.380  0.0643  0.6275  1.6238
  475MOL0     C65439   9.230   1.487   5.432  0.5080  0.4562  0.0900
  475MOL0     C65440   9.350   1.521   5.351  0.0211  0.8350 -0.7681
  475MOL0     C65441   9.247   1.425   5.560 -0.1613 -0.1751  0.0307
  475MOL0     C65442   9.374   1.372   5.614 -0.3003 -0.8281 -0.0540
  475MOL0     O65443   9.483   1.351   5.533  0.2630 -0.2278 -0.2901
  475MOL0     C65444   9.606   1.351   5.595  0.3744 -0.3912 -0.5961
  475MOL0     C65445   9.658   1.223   5.622  0.3755 -0.2108  0.7286
  475MOL0     C65446   9.779   1.209   5.694 -0.0286 -0.9714  0.1729
  475MOL0     C65447   9.865   1.323   5.710  0.0082  0.5019 -0.4377
  475MOL0     O65448   9.990   1.320   5.769 -0.2088  0.5759  0.5930
  475MOL0     C65449  10.017   1.217   5.865 -0.5623 -0.9645  0.0266
  475MOL0     C65450  10.119   1.250   5.978 -0.4087 -0.1105  0.4375
  475MOL0     C65451  10.090   1.386   6.045 -0.3784  0.5343  0.1792
  475MOL0     C65452  10.015   1.375   6.181  0.4543 -0.1628 -0.3572
  475MOL0     C65453  10.003   1.521   6.239  0.2068 -0.0356 -0.2075
  475MOL0     C65454   9.934   1.518   6.381 -0.3578 -1.0502  0.0747
  475MOL0     C65455   9.918   1.653   6.438  0.5657 -0.7873 -0.2917
  475MOL0     C65456  10.033   1.747   6.456 -0.0904 -0.3590 -0.1144
  475MOL0    Cl65457  10.161   1.654   6.532  0.2827 -0.2113  0.6390
  475MOL0     C65458   9.816   1.449   5.677 -0.1765 -0.1259  0.0277
  475MOL0     C65459   9.684   1.464   5.628 -0.2423  0.4957  0.8054
  475MOL0     O65460   9.381   1.375   5.738  0.3614 -0.6210  0.4798
  475MOL0     C65461   9.130   1.406   5.632  0.0327 -0.8771  0.2058
  475MOL0     C65462   9.006   1.447   5.579 -0.8139  0.0546 -0.1852
  475MOL0     N65463   8.638   2.160   5.408 -0.2371 -0.4100  0.1275
  475MOL0     N65464   8.609   2.243   5.315  0.6758  0.3405 -0.7890
  475MOL0     C65465   8.291   2.958   4.639  0.4651  0.8090 -0.5015
  475MOL0     C65466   8.178   3.017   4.580 -0.1648 -0.5027  0.1886
  475MOL0     C65467   7.913   3.075   4.241  0.7366 -0.6729  1.4650
  475MOL0     C65468   7.884   3.006   4.120 -0.1437 -0.4186  1.5728
  475MOL0     C65469   7.756   2.991   4.082  0.2712  0.2074  0.3183
  475MOL0     C65470   7.643   3.053   4.133 -0.5277 -1.2361 -0.4370
  475MOL0     O65471   7.523   3.040   4.067 -0.2648 -0.3213 -0.3866
  475MOL0     C65472   7.409   3.107   4.120 -1.1395  0.0143  0.1767
  475MOL0     C65473   7.284   3.036   4.071 -0.0493  0.5780  0.5752
  475MOL0     C65474   7.223   3.094   3.941  0.2024 -0.2420 -0.6059
  475MOL0     C65475   7.072   3.060   3.926  0.0089 -0.5849  0.7347
  475MOL0     C65476   6.991   3.137   4.018  0.6336 -0.1326  0.4359
  475MOL0     C65477   6.952   3.206   4.112 -0.2451 -0.1503  0.2541
  475MOL0     C65478   7.671   3.131   4.246 -0.0590 -0.4362 -0.6011
  475MOL0     C65479   7.800   3.134   4.310 -1.1119  0.5941  0.2860
  475MOL0     C65480   7.811   3.208   4.441 -0.0456 -0.4487 -0.5021
  475MOL0     H65481   8.349   3.237   4.379 -1.4978 -1.7537 -2.2135
  475MOL0     H65482   8.542   3.116   4.481 -0.5850  0.8570 -0.5320
  475MOL0     H65483   8.501   3.015   4.826  0.5989  0.9898  0.0561
  475MOL0     H65484   8.640   3.080   4.737 -1.9310  2.6880  2.5158
  475MOL0     H65485   8.747   2.846   4.742 -1.5270 -1.5469 -1.4297
  475MOL0     H65486   8.739   2.945   4.886 -1.6671  1.2235 -0.1278
  475MOL0     H65487   8.559   2.803   4.980 -1.1391 -1.5290  0.4253
  475MOL0     H65488   8.548   2.715   4.816  1.9075 -0.3153 -1.8730
  475MOL0     H65489   8.787   2.647   4.869 -0.3414 -2.1502  0.0530
  475MOL0     H65490   8.750   2.699   5.039 -1.0910 -0.0145 -0.4474
  475MOL0     H65491   8.724   2.452   4.957  1.9019  0.8502  0.8334
  475MOL0     H65492   8.566   2.507   4.896  0.8738 -0.5993 -1.0137
  475MOL0     H65493   8.649   2.477   5.186  0.7091 -0.7233 -0.8002
  475MOL0     H65494   8.525   2.594   5.149 -0.3452 -0.9818 -0.5473
  475MOL0     H65495   8.401   2.411   5.018  0.9103 -2.2969 -0.9281
  475MOL0     H65496   8.406   2.404   5.186 -0.0007 -2.9909  0.5211
  475MOL0     H65497   8.435   2.191   5.054  0.7923 -0.0320 -0.7512
  475MOL0     H65498   8.606   2.227   5.014 -0.3136 -4.2045 -0.7882
  475MOL0     H65499   8.566   1.969   5.145  0.8957 -1.5471  1.0489
  475MOL0     H65500   8.559   1.898   5.490 -0.8308 -1.6549 -1.0141
  475MOL0     H65501   8.727   1.917   5.493  0.6690 -1.8201 -0.8017
  475MOL0     H65502   8.579   1.776   5.259  0.7301 -2.0985 -0.4012
  475MOL0     H65503   8.756   1.781   5.291  1.9675 -3.7998  2.4569
  475MOL0     H65504   8.582   1.667   5.500  0.8497  0.1621  0.3628
  475MOL0     H65505   8.614   1.565   5.355 -0.1929 -2.2653  2.4050
  475MOL0     H65506   8.840   1.723   5.509 -0.7233  0.6642  1.6033
  475MOL0     H65507   8.775   1.575   5.586  0.9278  0.7653  0.3341
  475MOL0     H65508   9.102   1.566   5.282 -2.4579 -3.4368 -0.4650
  475MOL0     H65509   9.380   1.429   5.300 -0.9895 -0.1640  0.3755
  475MOL0     H65510   9.438   1.563   5.400  0.6393 -2.0179  0.8459
  475MOL0     H65511   9.326   1.594   5.273  1.2603  2.4235  0.2807
  475MOL0     H65512   9.602   1.132   5.600 -0.6497  1.4019 -4.8061
  475MOL0     H65513   9.804   1.105   5.713  2.3762 -0.6648 -0.9624
  475MOL0     H65514   9.922   1.192   5.913 -0.5432 -2.2472 -0.5651
  475MOL0     H65515  10.038   1.128   5.806 -2.9836 -1.9328  0.4979
  475MOL0     H65516  10.128   1.167   6.048  1.2430 -0.2542  0.0952
  475MOL0     H65517  10.214   1.269   5.927  0.2306 -2.1382  0.7940
  475MOL0     H65518  10.027   1.451   5.984 -1.8123 -0.0339  1.0133
  475MOL0     H65519  10.186   1.437   6.062 -0.0556  0.2427 -0.7204
  475MOL0     H65520  10.064   1.313   6.257 -0.1494  0.5271  0.6145
  475MOL0     H65521   9.918   1.325   6.175 -0.5175  1.6399 -0.3048
  475MOL0     H65522  10.102   1.564   6.260 -0.8848  1.9505  1.2376
  475MOL0     H65523   9.937   1.578   6.173  2.3687 -0.1409 -2.6492
  475MOL0     H65524   9.982   1.454   6.455  0.0891 -0.8952 -0.0777
  475MOL0     H65525   9.836   1.474   6.363 -1.6597  0.8657  2.0063
  475MOL0     H65526   9.874   1.633   6.536 -2.4693  0.3859 -1.2828
  475MOL0     H65527   9.835   1.708   6.393 -1.1313 -0.9431  2.4210
  475MOL0     H65528  10.007   1.825   6.528  2.3079 -0.9916  1.5819
  475MOL0     H65529  10.074   1.796   6.367 -3.1074  1.8448 -0.4318
  475MOL0     H65530   9.873   1.541   5.685 -0.9096  0.1848  2.3636
  475MOL0     H65531   9.634   1.560   5.621  0.7970  0.9482 -1.2849
  475MOL0     H65532   9.130   1.356   5.728  1.5738  1.4406  1.5120
  475MOL0     H65533   8.938   1.429   5.661  0.7726 -0.7452  1.0032
  475MOL0     H65534   8.272   2.879   4.710  1.2825  0.0720 -1.0854
  475MOL0     H65535   8.078   2.988   4.608 -0.4128  1.6110  1.6346
  475MOL0     H65536   7.966   2.973   4.058 -1.9768  1.2122 -2.0305
  475MOL0     H65537   7.737   2.930   3.994  2.7828 -1.0651  0.5702
  475MOL0     H65538   7.393   3.102   4.228 -0.1325  0.0697  0.3377
  475MOL0     H65539   7.428   3.211   4.090  1.0459 -0.5775 -0.6319
  475MOL0     H65540   7.206   3.035   4.148  1.2098 -4.1910  2.1638
  475MOL0     H65541   7.316   2.932   4.056  0.2345  0.7836 -0.3161
  475MOL0     H65542   7.241   3.201   3.952  0.1761 -0.3619  0.7471
  475MOL0     H65543   7.270   3.048   3.854  0.9954 -1.1238  0.2578
  475MOL0     H65544   7.050   2.953   3.936 -0.3413 -0.5057  0.8289
  475MOL0     H65545   7.045   3.077   3.822 -0.6110 -2.1215  0.6167
  475MOL0     H65546   6.924   3.265   4.196  0.8198  1.2626 -0.3367
  475MOL0     H65547   7.600   3.194   4.298  0.0503 -1.9838  1.5420
  475MOL0     H65548   7.853   3.140   4.515 -1.8333  0.7177  1.7127
  475MOL0     H65549   7.871   3.299   4.427  1.1277 -1.2778 -0.9849
  475MOL0     H65550   7.714   3.249   4.471  0.9488  1.5944  0.1753
  476MOL0     O65551  10.027   7.654   8.325  0.2782  0.0267 -0.3057
  476MOL0     C65552   9.940   7.620   8.246 -0.0490 -0.0003  0.2244
  476MOL0     O65553   9.890   7.493   8.235  0.3576  0.4491  0.0167
  476MOL0     C65554   9.937   7.391   8.316  0.2119 -0.3877 -0.1024
  476MOL0     C65555   9.995   7.282   8.256 -0.1629  0.4401 -0.3638
  476MOL0     C65556  10.046   7.180   8.328  0.1800  0.4258 -0.0543
  476MOL0     C65557  10.064   7.190   8.468  0.8514 -0.0689 -0.3607
  476MOL0     O65558  10.124   7.085   8.545 -0.0172  0.1581  0.1700
  476MOL0     C65559  10.196   6.988   8.473  0.5592 -0.1806  0.2008
  476MOL0     C65560  10.260   6.878   8.558  0.4365 -0.8332 -0.0367
  476MOL0     C65561  10.296   6.936   8.691  0.3744 -0.4359 -0.1184
  476MOL0     C65562  10.358   6.830   8.775  0.7930  0.3555 -0.0467
  476MOL0     C65563  10.387   6.891   8.910  0.5722  0.0015  0.2877
  476MOL0     C65564  10.448   6.791   9.012  0.2861 -0.3012  0.2209
  476MOL0     C65565  10.431   6.853   9.146 -0.1963  0.6636 -0.5418
  476MOL0     C65566  10.483   6.754   9.250  0.5939  0.3450  0.3138
  476MOL0     N65567  10.449   6.801   9.391 -0.6803  0.5988  0.3076
  476MOL0     C65568  10.331   6.794   9.457  1.0341 -1.0060  0.0704
  476MOL0     C65569  10.348   6.855   9.578 -0.0665  0.0261 -0.4041
  476MOL0     C65570  10.236   6.878   9.673 -0.5585 -0.8414  0.7173
  476MOL0     C65571  10.267   6.890   9.823 -0.3712  0.3233  0.0950
  476MOL0     C65572  10.338   6.756   9.871 -0.4658 -0.3558  0.2461
  476MOL0     C65573  10.304   6.739  10.023  0.2021 -0.0621  0.7869
  476MOL0     O65574  10.381   6.632  10.079 -0.6903 -0.5980  0.5132
  476MOL0     C65575  10.364   6.614  10.214  0.2522  0.5921 -0.1256
  476MOL0     C65576  10.296   6.700  10.297 -0.8475  0.3500  0.0464
  476MOL0     C65577  10.300   6.682  10.438 -0.3609  0.9216  0.2069
  476MOL0     C65578  10.240   6.796  10.518 -0.0200 -0.8160 -0.1970
  476MOL0     C65579  10.376   6.570  10.492  0.5688 -0.1389 -0.1145
  476MOL0     C65580  10.379   6.536  10.638  0.2404  0.0381 -0.4794
  476MOL0     O65581  10.435   6.408  10.670  0.4279  0.2167  0.2818
  476MOL0     C65582  10.473   6.356  10.796 -0.7573 -0.5786 -0.2540
  476MOL0     C65583  10.539   6.232  10.799 -1.0371  0.6430  0.3284
  476MOL0     C65584  10.578   6.173  10.915  0.7866 -0.7845  0.0464
  476MOL0     C65585  10.539   6.227  11.042  0.2893 -0.0074 -0.2258
  476MOL0     O65586  10.566   6.159  11.159 -0.1698 -0.3330 -0.0930
  476MOL0     C65587  10.697   6.113  11.159 -0.6521  0.1545  0.1468
  476MOL0     C65588  10.736   6.118  11.302 -0.8644 -0.3179 -0.0825
  476MOL0     C65589  10.893   6.089  11.299  0.8338  0.1843 -0.0902
  476MOL0     C65590  10.956   6.055  11.433  0.0056 -0.6604 -0.5745
  476MOL0     C65591  11.106   6.058  11.443 -0.5829 -0.3361  0.8547
  476MOL0     C65592  11.167   6.110  11.573  0.0671 -0.4246  0.9873
  476MOL0     C65593  11.317   6.097  11.566 -0.2369 -0.3846  0.0127
  476MOL0     C65594  11.358   5.950  11.593 -0.3609  0.1831 -0.0836
  476MOL0    Cl65595  11.305   5.878  11.749 -0.0320 -0.0792 -0.2631
  476MOL0     C65596  10.459   6.340  11.032  0.0097 -0.3412 -0.2481
  476MOL0     C65597  10.431   6.408  10.919  0.3354 -1.0556  0.3074
  476MOL0     O65598  10.322   6.612  10.719 -0.4224  0.3989 -0.1157
  476MOL0     C65599  10.437   6.483  10.404  0.0254  0.2658 -0.3876
  476MOL0     C65600  10.431   6.508  10.266  0.5203 -0.1020  0.5044
  476MOL0     N65601  10.479   6.902   9.586  0.3706  0.3701  0.1018
  476MOL0     N65602  10.535   6.853   9.478  0.0876 -1.4053 -0.5777
  476MOL0     C65603  10.009   7.303   8.534  0.6412  1.1627 -0.4203
  476MOL0     C65604   9.946   7.397   8.457  0.1968  0.4729 -0.0996
  476MOL0     C65605   9.890   7.721   8.147  0.4731 -0.3409 -0.6863
  476MOL0     C65606   9.752   7.716   8.099  0.2872 -0.2722 -0.6067
  476MOL0     C65607   9.709   7.810   8.011  0.5239  0.0720 -0.6259
  476MOL0     C65608   9.788   7.914   7.963  0.2498  0.5497  0.7531
  476MOL0     O65609   9.760   8.004   7.862 -0.5550  0.3913 -0.4050
  476MOL0     C65610   9.628   8.043   7.816 -0.2005  0.5845 -0.2123
  476MOL0     C65611   9.638   8.136   7.707 -0.4177  0.3582 -0.6030
  476MOL0     C65612   9.515   8.198   7.662  0.4740 -0.7481  0.3588
  476MOL0     C65613   9.483   8.319   7.752  0.5829 -0.0469 -0.5821
  476MOL0     C65614   9.341   8.346   7.752  0.2495 -0.1115  0.4121
  476MOL0     C65615   9.223   8.365   7.777  0.1514 -0.8901 -0.1873
  476MOL0     C65616   9.922   7.920   8.006  0.1929 -0.2600 -0.0021
  476MOL0     C65617   9.969   7.830   8.099  0.0879  0.0129 -0.7672
  476MOL0     C65618  10.112   7.867   8.155 -1.2555  0.5017  0.3343
  476MOL0     H65619   9.985   7.269   8.148 -1.7145  1.6656 -0.4122
  476MOL0     H65620  10.097   7.106   8.267  1.6279 -0.2163  1.8092
  476MOL0     H65621  10.270   7.035   8.407 -0.1830  2.0663  0.8987
  476MOL0     H65622  10.124   6.934   8.411 -0.2529  0.5069  0.5272
  476MOL0     H65623  10.193   6.793   8.569  0.3322 -1.2817 -3.1324
  476MOL0     H65624  10.347   6.836   8.505  0.9045  2.2708 -2.0139
  476MOL0     H65625  10.368   7.017   8.677  1.1960 -1.3410 -1.2690
  476MOL0     H65626  10.205   6.979   8.734  0.7622 -0.9927  1.3195
  476MOL0     H65627  10.291   6.744   8.789 -0.2282  0.9571 -1.0166
  476MOL0     H65628  10.445   6.785   8.727 -0.4097  0.5895 -2.6838
  476MOL0     H65629  10.291   6.913   8.957  1.8258  0.5480  2.8314
  476MOL0     H65630  10.453   6.978   8.903  0.1071  0.3251 -0.0696
  476MOL0     H65631  10.398   6.693   9.007  0.8167 -0.5359 -0.6211
  476MOL0     H65632  10.552   6.765   8.992  1.0741  1.1913  2.0792
  476MOL0     H65633  10.325   6.871   9.164 -0.9271 -2.2246 -1.4682
  476MOL0     H65634  10.484   6.947   9.165 -1.0271  1.2129 -0.8667
  476MOL0     H65635  10.430   6.662   9.223  0.8689  0.5451 -0.9636
  476MOL0     H65636  10.591   6.745   9.234  0.3698 -1.7607 -0.4165
  476MOL0     H65637  10.237   6.763   9.413  1.9933 -0.6181 -2.3783
  476MOL0     H65638  10.166   6.795   9.657  0.4425 -1.9914  2.0501
  476MOL0     H65639  10.185   6.969   9.639  2.3551 -0.0875 -2.1841
  476MOL0     H65640  10.326   6.979   9.847  0.1096  0.5290 -1.6736
  476MOL0     H65641  10.169   6.897   9.871 -1.3238  1.6832 -1.9001
  476MOL0     H65642  10.304   6.668   9.815 -1.7010 -0.4220  1.0630
  476MOL0     H65643  10.446   6.761   9.856 -0.4126  1.7897  1.0089
  476MOL0     H65644  10.337   6.833  10.067  2.3664 -0.0066 -0.7836
  476MOL0     H65645  10.195   6.734  10.028  0.2433 -1.1491  0.6924
  476MOL0     H65646  10.260   6.794  10.258  0.3928  2.0576  2.7246
  476MOL0     H65647  10.304   6.818  10.604 -1.0754  0.4371  0.2959
  476MOL0     H65648  10.140   6.769  10.550 -1.0390  1.5766 -1.1239
  476MOL0     H65649  10.242   6.891  10.463 -1.8717  0.6644  2.1343
  476MOL0     H65650  10.576   6.184  10.709  1.3895  0.7063  1.2057
  476MOL0     H65651  10.633   6.081  10.897  1.4921  0.1934 -3.5550
  476MOL0     H65652  10.700   6.010  11.122 -2.5355  1.4161 -4.2061
  476MOL0     H65653  10.774   6.176  11.112 -0.8232 -1.1893 -2.0893
  476MOL0     H65654  10.724   6.217  11.346  3.6836  0.3816  0.0577
  476MOL0     H65655  10.684   6.043  11.363 -1.1642  1.1580  1.5397
  476MOL0     H65656  10.930   6.187  11.266  0.5853  0.1653 -0.4273
  476MOL0     H65657  10.907   6.007  11.228 -1.1464  2.2765 -3.1161
  476MOL0     H65658  10.939   5.947  11.445  1.3755 -0.6220  2.6042
  476MOL0     H65659  10.907   6.107  11.515 -1.5185 -2.5867 -0.1784
  476MOL0     H65660  11.148   5.962  11.413  3.2830  0.3602  3.3066
  476MOL0     H65661  11.145   6.129  11.370 -1.9239 -0.3833  0.0722
  476MOL0     H65662  11.121   6.050  11.652 -1.6727 -1.3146 -0.6093
  476MOL0     H65663  11.147   6.216  11.590 -0.1469 -0.6177  1.9556
  476MOL0     H65664  11.361   6.161  11.644 -3.5848 -1.7268  3.3022
  476MOL0     H65665  11.347   6.136  11.468 -3.2443 -1.4621 -1.4648
  476MOL0     H65666  11.467   5.943  11.591  0.0538  3.5845  2.2211
  476MOL0     H65667  11.324   5.893  11.506  3.2223  1.3027 -2.4701
  476MOL0     H65668  10.410   6.377  11.121 -1.6805 -1.4161 -0.6770
  476MOL0     H65669  10.385   6.506  10.911  0.5794 -0.9263  0.4700
  476MOL0     H65670  10.484   6.400  10.455 -0.7324  0.9171  1.4629
  476MOL0     H65671  10.480   6.442  10.196  0.0276  1.6843 -1.6184
  476MOL0     H65672  10.013   7.308   8.643  2.2669 -0.6886 -0.3531
  476MOL0     H65673   9.902   7.480   8.513  0.3900  0.3323  0.2683
  476MOL0     H65674   9.681   7.637   8.120 -0.3057  0.7866  1.7117
  476MOL0     H65675   9.614   7.785   7.967 -0.5935  1.5597  0.8290
  476MOL0     H65676   9.559   7.960   7.802 -1.9880  2.1076 -0.8736
  476MOL0     H65677   9.591   8.107   7.897  3.9169  0.0766  2.3434
  476MOL0     H65678   9.662   8.084   7.614 -0.2929  1.4725 -1.2128
  476MOL0     H65679   9.709   8.214   7.736 -0.0673  0.1449 -0.8638
  476MOL0     H65680   9.522   8.231   7.558  0.8211 -0.5086  0.4592
  476MOL0     H65681   9.431   8.127   7.664 -1.3809  1.3333  2.3709
  476MOL0     H65682   9.530   8.413   7.721  0.7650  0.0925  0.1042
  476MOL0     H65683   9.510   8.282   7.851 -0.6890 -0.1632 -0.2579
  476MOL0     H65684   9.121   8.370   7.808 -0.2262 -1.9165 -1.1791
  476MOL0     H65685   9.994   7.997   7.980 -0.6894  0.8506  0.7668
  476MOL0     H65686  10.173   7.778   8.138 -0.2915  0.6652  2.4875
  476MOL0     H65687  10.169   7.952   8.115  0.4670 -1.3244 -1.2880
  476MOL0     H65688  10.098   7.878   8.263 -1.7047 -1.7695  0.5458
  477MOL0     O65689   8.233   8.376   1.294 -0.2186  0.5209  0.2210
  477MOL0     C65690   8.150   8.343   1.376  0.0653  0.1153  0.9145
  477MOL0     O65691   8.187   8.295   1.491  0.4459 -0.5579 -0.5649
  477MOL0     C65692   8.311   8.246   1.526 -0.0528 -0.4070 -0.2027
  477MOL0     C65693   8.345   8.250   1.661  0.7048 -0.4170 -0.4746
  477MOL0     C65694   8.476   8.222   1.702  0.2383  0.5670 -0.4086
  477MOL0     C65695   8.574   8.186   1.609 -0.0207  1.1633  0.2084
  477MOL0     O65696   8.708   8.160   1.648  0.1878 -0.0596  0.2572
  477MOL0     C65697   8.748   8.028   1.659  1.0852  0.5733 -0.3820
  477MOL0     C65698   8.787   8.011   1.803 -0.2748 -0.4999  0.1481
  477MOL0     C65699   8.903   8.096   1.851 -0.2124 -0.3955  0.3950
  477MOL0     C65700   9.046   8.054   1.799 -0.3155  1.0569 -0.6253
  477MOL0     C65701   9.153   8.164   1.791 -1.0682 -0.2243  0.1814
  477MOL0     C65702   9.282   8.104   1.725 -0.0191 -0.1146 -0.6138
  477MOL0     C65703   9.359   8.212   1.655  0.3147  0.4925  1.9008
  477MOL0     C65704   9.415   8.320   1.739  0.2485  0.1891 -0.3854
  477MOL0     N65705   9.522   8.271   1.822 -0.5897 -0.1301 -0.3425
  477MOL0     C65706   9.506   8.250   1.962 -0.1186 -0.5420 -0.3094
  477MOL0     C65707   9.637   8.260   2.014  0.1431  0.1153  0.9054
  477MOL0     C65708   9.680   8.272   2.162  0.0817 -1.0219  0.2955
  477MOL0     C65709   9.798   8.378   2.178  0.1652  0.5657 -0.0930
  477MOL0     C65710   9.748   8.520   2.187 -0.4955  0.0513 -0.6697
  477MOL0     C65711   9.862   8.620   2.221 -0.0239 -0.2625 -0.5984
  477MOL0     O65712   9.903   8.584   2.354 -0.0299 -0.0632 -0.1178
  477MOL0     C65713  10.023   8.636   2.395  0.7276 -0.1228 -0.4891
  477MOL0     C65714  10.080   8.754   2.342 -0.2845 -0.7123 -0.8383
  477MOL0     C65715  10.203   8.799   2.384  0.1139  0.0921 -0.6157
  477MOL0     C65716  10.228   8.938   2.318 -0.3504  0.0775  0.1426
  477MOL0     C65717  10.279   8.727   2.477  0.3245 -0.7569 -0.0566
  477MOL0     C65718  10.407   8.778   2.533 -0.2324  0.0355  1.1509
  477MOL0     O65719  10.456   8.722   2.649 -0.0643 -0.1144  0.1229
  477MOL0     C65720  10.563   8.776   2.714  0.1991  0.1506 -0.5856
  477MOL0     C65721  10.579   8.918   2.727 -0.4367  0.6818  0.0709
  477MOL0     C65722  10.694   8.965   2.787 -0.2476  0.0450 -0.6464
  477MOL0     C65723  10.785   8.879   2.863  0.1740  0.5884  0.6094
  477MOL0     O65724  10.886   8.942   2.940  0.1811  0.4362  0.4071
  477MOL0     C65725  10.917   8.894   3.073 -0.7396 -0.4628  0.6557
  477MOL0     C65726  11.018   8.999   3.135 -0.0770  0.6857  0.8674
  477MOL0     C65727  11.072   8.965   3.270  0.0312  0.6573  0.2943
  477MOL0     C65728  10.963   8.921   3.371 -0.7209 -0.3274 -0.0169
  477MOL0     C65729  11.018   8.903   3.512  0.6793 -0.1037  0.0765
  477MOL0     C65730  11.162   8.835   3.523 -0.3578 -0.3922  0.2601
  477MOL0     C65731  11.219   8.833   3.664 -0.1006  0.4252  0.4996
  477MOL0     C65732  11.364   8.767   3.671  0.9758 -0.4032 -0.2077
  477MOL0    Cl65733  11.405   8.802   3.833 -0.6760  0.2798  0.0765
  477MOL0     C65734  10.759   8.742   2.858  0.3035  0.6678 -0.4685
  477MOL0     C65735  10.653   8.687   2.777 -1.2563 -0.3822  0.5247
  477MOL0     O65736  10.464   8.858   2.459 -0.0963  0.7521 -0.4845
  477MOL0     C65737  10.234   8.601   2.510  0.0685  0.0335  0.5270
  477MOL0     C65738  10.103   8.561   2.480  0.4684 -0.2939 -0.8519
  477MOL0     N65739   9.722   8.285   1.909 -0.6814  0.7568  0.0762
  477MOL0     N65740   9.659   8.279   1.798 -0.4412  0.1362  0.4516
  477MOL0     C65741   8.540   8.192   1.478 -0.2727 -0.4253 -0.1078
  477MOL0     C65742   8.412   8.213   1.437 -0.6875 -0.4731  0.0387
  477MOL0     C65743   8.006   8.355   1.324  0.2458 -0.0417  0.4051
  477MOL0     C65744   7.969   8.434   1.213  0.3792  0.0517 -0.0021
  477MOL0     C65745   7.843   8.448   1.162 -0.1545  0.6206  0.3648
  477MOL0     C65746   7.741   8.381   1.212  0.5190  0.4486  0.9785
  477MOL0     O65747   7.606   8.399   1.180 -0.6581 -0.0580  0.0168
  477MOL0     C65748   7.571   8.491   1.084 -1.0483 -0.2899 -0.6733
  477MOL0     C65749   7.427   8.502   1.090 -0.5219  0.6474 -0.3097
  477MOL0     C65750   7.382   8.616   1.001 -0.4930 -0.4366  0.1830
  477MOL0     C65751   7.235   8.606   0.969 -0.4145  0.3412 -0.5496
  477MOL0     C65752   7.142   8.613   1.084 -0.4803 -0.4273  0.1788
  477MOL0     C65753   7.077   8.622   1.185  0.0103  0.0074 -0.3847
  477MOL0     C65754   7.771   8.301   1.323 -0.0162 -0.2884 -0.0429
  477MOL0     C65755   7.898   8.284   1.382  0.4946 -0.6398 -0.5286
  477MOL0     C65756   7.910   8.234   1.524 -0.2839 -0.0192  0.7910
  477MOL0     H65757   8.271   8.300   1.723  0.3578 -0.6840 -0.6671
  477MOL0     H65758   8.499   8.231   1.808  0.9792  1.8220 -0.6615
  477MOL0     H65759   8.842   8.011   1.605  2.7472  0.3343  2.4197
  477MOL0     H65760   8.668   7.958   1.635  1.3255  0.0498  0.3225
  477MOL0     H65761   8.693   8.023   1.857 -0.3508  2.1047 -0.4643
  477MOL0     H65762   8.819   7.908   1.822  0.7834 -0.0312  1.0286
  477MOL0     H65763   8.886   8.203   1.835 -0.8624 -0.3732  1.2007
  477MOL0     H65764   8.901   8.075   1.958 -1.3812 -0.1343  0.4333
  477MOL0     H65765   9.083   7.971   1.860  1.6110  0.5532 -2.3937
  477MOL0     H65766   9.042   7.999   1.705 -1.9294 -0.6326  0.3481
  477MOL0     H65767   9.175   8.199   1.893  0.4074 -2.1898  0.5948
  477MOL0     H65768   9.118   8.251   1.734  0.6103 -0.0103 -0.5712
  477MOL0     H65769   9.341   8.054   1.802 -1.0480  1.3154  1.2132
  477MOL0     H65770   9.248   8.035   1.648 -1.2800 -0.4505  0.1939
  477MOL0     H65771   9.296   8.255   1.577 -1.3321 -1.3592  2.1521
  477MOL0     H65772   9.440   8.167   1.597 -0.3826  1.0193  0.4699
  477MOL0     H65773   9.458   8.397   1.673  1.3557 -0.5910 -0.5959
  477MOL0     H65774   9.332   8.357   1.800  1.4954 -0.8742  2.0698
  477MOL0     H65775   9.407   8.244   2.006 -0.9492 -0.3637 -2.0393
  477MOL0     H65776   9.714   8.171   2.187 -0.9955 -2.2094 -2.6672
  477MOL0     H65777   9.597   8.314   2.219  1.6816  0.7776  1.3960
  477MOL0     H65778   9.855   8.357   2.269  1.5185  0.8941 -0.8366
  477MOL0     H65779   9.869   8.362   2.096 -1.4982 -3.9164 -0.9256
  477MOL0     H65780   9.694   8.560   2.100 -0.1715 -1.6616 -1.7148
  477MOL0     H65781   9.668   8.522   2.261 -3.1140  1.1922 -3.2908
  477MOL0     H65782   9.945   8.623   2.150  0.8736  1.4826  0.4481
  477MOL0     H65783   9.815   8.718   2.227  0.7141  0.0339  1.0510
  477MOL0     H65784  10.016   8.813   2.277  0.0961 -0.5188 -1.0346
  477MOL0     H65785  10.281   9.010   2.380  0.3090 -0.9846  0.8501
  477MOL0     H65786  10.133   8.985   2.291 -0.1992 -0.8944 -2.3938
  477MOL0     H65787  10.284   8.914   2.227  0.5833  0.5734  0.5820
  477MOL0     H65788  10.514   8.987   2.674 -0.4403  1.4140  1.0177
  477MOL0     H65789  10.715   9.072   2.786  1.0937 -0.2041 -0.6014
  477MOL0     H65790  10.821   8.897   3.125 -1.1099 -0.9488  0.0212
  477MOL0     H65791  10.957   8.792   3.078 -0.2829 -0.3537 -0.3453
  477MOL0     H65792  11.106   9.014   3.071  0.5811 -2.8547  0.7023
  477MOL0     H65793  10.969   9.096   3.140 -0.5735  0.5454 -0.7587
  477MOL0     H65794  11.122   9.054   3.311  0.6616  1.6109 -2.3428
  477MOL0     H65795  11.150   8.888   3.268  0.9997  1.4472  2.7942
  477MOL0     H65796  10.914   8.829   3.337 -0.5337 -0.8594  1.1259
  477MOL0     H65797  10.886   8.996   3.388 -0.8874 -0.8476  1.7840
  477MOL0     H65798  11.020   8.999   3.563  1.8086 -0.6240  1.0776
  477MOL0     H65799  10.940   8.850   3.569  1.5116 -0.3971  0.9894
  477MOL0     H65800  11.236   8.890   3.464  2.4188 -3.0342  0.9850
  477MOL0     H65801  11.157   8.733   3.482 -1.5856 -0.2389 -0.0099
  477MOL0     H65802  11.150   8.776   3.727  1.6576 -0.4186  1.7561
  477MOL0     H65803  11.229   8.935   3.701 -3.1464  1.7552 -1.9293
  477MOL0     H65804  11.429   8.804   3.591 -1.5554  0.7651 -1.8599
  477MOL0     H65805  11.361   8.659   3.656 -1.1394 -0.3899 -0.1259
  477MOL0     H65806  10.822   8.677   2.917 -0.9446  1.3145  1.6902
  477MOL0     H65807  10.639   8.581   2.759 -1.9318  0.1188 -2.3327
  477MOL0     H65808  10.291   8.539   2.579  0.1740  0.1432  0.5395
  477MOL0     H65809  10.068   8.467   2.520  0.7015  0.1493  0.4461
  477MOL0     H65810   8.618   8.164   1.407 -0.2740 -0.3134 -0.1525
  477MOL0     H65811   8.390   8.190   1.333  1.1735 -0.4941 -0.3702
  477MOL0     H65812   8.054   8.474   1.157  4.0590 -1.2323  4.0636
  477MOL0     H65813   7.821   8.515   1.080 -1.1547 -0.7540 -0.5389
  477MOL0     H65814   7.612   8.590   1.109 -0.7174  0.4096 -3.6332
  477MOL0     H65815   7.615   8.460   0.989 -0.8529 -1.1942 -0.2941
  477MOL0     H65816   7.389   8.519   1.191 -3.1608 -1.3395 -0.8816
  477MOL0     H65817   7.389   8.403   1.064 -1.4092 -0.4626  4.2529
  477MOL0     H65818   7.405   8.707   1.056 -0.8590 -0.5460  0.5219
  477MOL0     H65819   7.441   8.601   0.910  1.4637  2.4576  0.8688
  477MOL0     H65820   7.217   8.510   0.920  0.3394  0.1775 -0.5110
  477MOL0     H65821   7.213   8.679   0.890  5.0839  3.1265  0.0334
  477MOL0     H65822   7.013   8.652   1.266  1.2774 -0.5596  0.8820
  477MOL0     H65823   7.682   8.272   1.378 -0.1522  2.2321  1.2082
  477MOL0     H65824   7.822   8.187   1.570  0.6385 -1.8716  0.7574
  477MOL0     H65825   7.982   8.152   1.522 -1.5367 -1.1540  0.6205
  477MOL0     H65826   7.939   8.309   1.598  2.0252  0.7201 -0.7627
  478MOL0     O65827   1.863   7.851   4.850  1.2845 -0.2360 -0.4650
  478MOL0     C65828   1.936   7.816   4.940 -0.3313  0.9517  0.2792
  478MOL0     O65829   2.006   7.896   5.023  0.3484  0.2974  0.3572
  478MOL0     C65830   2.018   8.034   4.993  0.0021  0.4090  0.1366
  478MOL0     C65831   2.093   8.098   5.097 -0.0555 -0.6776 -0.1446
  478MOL0     C65832   2.111   8.234   5.104  0.3683 -0.7854 -0.0505
  478MOL0     C65833   2.051   8.324   5.007 -0.0650  0.4878 -0.0040
  478MOL0     O65834   2.069   8.463   5.005  0.2944  0.3808  0.3867
  478MOL0     C65835   1.975   8.526   5.098 -1.1799  0.6863  1.2944
  478MOL0     C65836   2.033   8.668   5.141  0.4032  0.2991 -0.4249
  478MOL0     C65837   1.923   8.747   5.221 -0.4496  0.3826 -0.3085
  478MOL0     C65838   1.810   8.800   5.129 -0.5421 -0.8184  0.3676
  478MOL0     C65839   1.853   8.866   4.992 -0.4112  0.1376  0.4036
  478MOL0     C65840   1.959   8.983   4.996  0.2813  0.4374 -0.2001
  478MOL0     C65841   2.001   9.029   4.854 -0.6433  0.0457  0.4128
  478MOL0     C65842   1.899   9.117   4.780 -0.2599 -0.7973  0.0376
  478MOL0     N65843   1.864   9.237   4.860 -0.4197 -0.4198  0.4286
  478MOL0     C65844   1.946   9.341   4.889 -0.7384 -0.5671  0.2647
  478MOL0     C65845   1.873   9.420   4.961  0.4209 -1.0749 -0.6090
  478MOL0     C65846   1.920   9.540   5.033  1.1092 -0.5835 -0.2469
  478MOL0     C65847   2.019   9.621   4.956  0.3745  0.2491 -0.1366
  478MOL0     C65848   1.971   9.697   4.828 -0.5373  0.1959  0.1325
  478MOL0     C65849   2.082   9.773   4.748 -0.0950  0.0927  0.7686
  478MOL0     O65850   2.175   9.674   4.690  0.3150 -0.2001 -0.5750
  478MOL0     C65851   2.284   9.711   4.622 -0.3405 -1.1421  0.3141
  478MOL0     C65852   2.363   9.601   4.577 -1.2446  0.1623  0.7710
  478MOL0     C65853   2.499   9.625   4.538  0.7494  0.3570  0.3656
  478MOL0     C65854   2.587   9.504   4.507 -0.2254 -0.6562 -0.8800
  478MOL0     C65855   2.547   9.754   4.522  0.7623 -0.8904  0.4627
  478MOL0     C65856   2.679   9.786   4.466  0.0101  0.2184 -0.0013
  478MOL0     O65857   2.728   9.707   4.367 -0.1741  0.5566  0.1203
  478MOL0     C65858   2.862   9.696   4.345  0.4072  0.7210 -0.1234
  478MOL0     C65859   2.966   9.697   4.440  0.5930  0.0269 -0.7807
  478MOL0     C65860   3.101   9.689   4.400  0.4384 -0.6517 -0.2595
  478MOL0     C65861   3.130   9.693   4.264 -0.4925 -0.0303 -0.3090
  478MOL0     O65862   3.256   9.724   4.216 -0.2459 -0.2185  0.2291
  478MOL0     C65863   3.378   9.675   4.287  0.0193  0.4140 -1.0538
  478MOL0     C65864   3.518   9.681   4.219 -0.4972  0.1317  0.2644
  478MOL0     C65865   3.536   9.809   4.129 -0.3928  0.2522 -0.5035
  478MOL0     C65866   3.680   9.819   4.085  0.0020 -1.0215  0.0615
  478MOL0     C65867   3.692   9.893   3.950 -0.1761 -0.3600 -0.8385
  478MOL0     C65868   3.633  10.035   3.952  0.7766  0.0546 -0.6568
  478MOL0     C65869   3.680  10.116   3.823 -0.0411  0.6942 -0.4009
  478MOL0     C65870   3.611  10.256   3.827  0.4087  0.4446  0.1723
  478MOL0    Cl65871   3.657  10.359   3.684  0.1666  0.0390  0.1286
  478MOL0     C65872   3.031   9.695   4.176  0.0801  0.1903  0.9425
  478MOL0     C65873   2.893   9.693   4.212  0.0396 -0.0181 -0.0685
  478MOL0     O65874   2.731   9.882   4.526  0.0857  0.5297 -0.6211
  478MOL0     C65875   2.465   9.862   4.549 -0.4351 -0.9213 -0.6452
  478MOL0     C65876   2.337   9.844   4.595 -0.1469 -0.0456  0.7542
  478MOL0     N65877   1.744   9.365   4.969 -1.1299  0.6836 -0.2508
  478MOL0     N65878   1.739   9.267   4.894  0.4190  0.4667 -0.7073
  478MOL0     C65879   1.975   8.260   4.903 -0.7678  1.0281  0.0923
  478MOL0     C65880   1.957   8.119   4.902  0.8694  0.2254 -0.2351
  478MOL0     C65881   1.960   7.669   4.962  0.0725 -0.0008  0.3734
  478MOL0     C65882   1.855   7.586   4.914  0.2961 -0.0039  0.3938
  478MOL0     C65883   1.859   7.449   4.941  0.5936  0.0773 -0.2053
  478MOL0     C65884   1.958   7.389   5.010  0.2389 -0.2650 -0.0668
  478MOL0     O65885   1.937   7.255   5.033  0.0671 -0.2996 -0.3710
  478MOL0     C65886   2.031   7.188   5.122 -0.4865  0.2731  0.0452
  478MOL0     C65887   1.977   7.043   5.152  0.4015 -0.5856  0.1446
  478MOL0     C65888   1.827   7.041   5.207  0.3061 -0.7399 -0.2124
  478MOL0     C65889   1.768   6.902   5.240  0.9030 -1.0424  0.3906
  478MOL0     C65890   1.748   6.833   5.111  0.1352 -0.4010  0.4102
  478MOL0     C65891   1.728   6.778   5.004 -0.0431  0.5198 -0.1501
  478MOL0     C65892   2.072   7.465   5.042 -0.2781 -0.2698 -0.3322
  478MOL0     C65893   2.074   7.601   5.015  0.6948  0.7173  0.4609
  478MOL0     C65894   2.200   7.674   5.057  0.3231 -0.2721 -0.0472
  478MOL0     H65895   2.152   8.031   5.159  0.1178 -1.8403 -1.5178
  478MOL0     H65896   2.182   8.272   5.177 -0.2538  0.5235 -0.0911
  478MOL0     H65897   1.967   8.472   5.193  0.6384  1.3348  1.8671
  478MOL0     H65898   1.880   8.541   5.046 -0.3045  2.0548  0.0104
  478MOL0     H65899   2.120   8.660   5.206 -2.0071  1.1352  3.2088
  478MOL0     H65900   2.070   8.719   5.051  0.3239  2.8650  0.8909
  478MOL0     H65901   1.866   8.690   5.294 -0.7926  0.3773 -0.5749
  478MOL0     H65902   1.967   8.835   5.269  1.2370  0.5210 -1.9886
  478MOL0     H65903   1.739   8.722   5.101 -1.9469  1.0453 -1.6420
  478MOL0     H65904   1.749   8.864   5.194 -0.1868 -0.3545  0.2542
  478MOL0     H65905   1.759   8.890   4.940 -0.5006 -0.7858  0.1216
  478MOL0     H65906   1.894   8.779   4.940 -1.8325 -1.1535  1.3407
  478MOL0     H65907   1.907   9.065   5.047 -0.0347 -0.8521  1.6684
  478MOL0     H65908   2.044   8.963   5.062 -0.9867 -1.4314  0.9534
  478MOL0     H65909   2.028   8.942   4.793  0.6613 -0.8433  2.1794
  478MOL0     H65910   2.096   9.083   4.861 -0.4705 -0.4440  2.2440
  478MOL0     H65911   1.936   9.158   4.686  0.1550  3.4200  1.8134
  478MOL0     H65912   1.805   9.063   4.761 -1.3210  0.5813  1.1035
  478MOL0     H65913   2.053   9.352   4.874 -0.4402 -1.5439  1.5236
  478MOL0     H65914   1.973   9.510   5.124  2.5977 -0.2012 -0.9552
  478MOL0     H65915   1.832   9.588   5.077  0.4844  0.7666 -2.7805
  478MOL0     H65916   2.060   9.688   5.032 -0.3511  1.0263 -0.4137
  478MOL0     H65917   2.103   9.554   4.933  0.8500  1.0959 -0.9266
  478MOL0     H65918   1.915   9.631   4.761  0.1933  0.0430 -0.3414
  478MOL0     H65919   1.909   9.784   4.850 -0.3822  0.6214 -1.0536
  478MOL0     H65920   2.022   9.810   4.664 -0.4595 -1.0608  0.5138
  478MOL0     H65921   2.124   9.853   4.810 -2.1193  0.6297  1.5079
  478MOL0     H65922   2.325   9.503   4.604  0.0941 -0.2659  1.1999
  478MOL0     H65923   2.597   9.508   4.398 -0.2015  2.7494 -0.8648
  478MOL0     H65924   2.548   9.408   4.544 -0.6759 -0.1434  0.0061
  478MOL0     H65925   2.682   9.518   4.559 -0.2736  0.5169 -1.0759
  478MOL0     H65926   2.948   9.732   4.541 -3.0203  3.3136 -2.3248
  478MOL0     H65927   3.188   9.707   4.463  1.5005 -0.0073 -1.8461
  478MOL0     H65928   3.391   9.724   4.384 -1.1966 -0.3563 -0.4715
  478MOL0     H65929   3.363   9.568   4.300  0.9761  0.3033 -0.8567
  478MOL0     H65930   3.600   9.683   4.291 -0.5123 -2.9376  0.5191
  478MOL0     H65931   3.538   9.591   4.160  2.6566  0.3563  0.8296
  478MOL0     H65932   3.509   9.899   4.185  0.3472 -0.4509  1.0772
  478MOL0     H65933   3.470   9.794   4.044 -1.4443  3.6242 -0.4141
  478MOL0     H65934   3.727   9.721   4.070  0.6631 -1.2264  2.9098
  478MOL0     H65935   3.729   9.868   4.169 -1.0976  2.9328 -1.3896
  478MOL0     H65936   3.798   9.910   3.928  0.0966  0.9368  1.2133
  478MOL0     H65937   3.652   9.836   3.865 -0.7535  2.1273 -2.3310
  478MOL0     H65938   3.663  10.095   4.039 -0.7670  2.1725 -1.4925
  478MOL0     H65939   3.524  10.030   3.960  0.6622  2.0292 -0.4468
  478MOL0     H65940   3.661  10.074   3.724  0.1259  0.6108 -0.3983
  478MOL0     H65941   3.789  10.124   3.831  0.1471 -0.2918 -1.6290
  478MOL0     H65942   3.631  10.306   3.922 -0.9915  1.6768 -0.1558
  478MOL0     H65943   3.503  10.244   3.833  0.4926  0.3413  2.4809
  478MOL0     H65944   3.067   9.723   4.078  0.5981  0.3209  1.1690
  478MOL0     H65945   2.812   9.710   4.143 -0.4165 -1.2943  0.1477
  478MOL0     H65946   2.505   9.963   4.542  0.4739 -1.2746 -0.7705
  478MOL0     H65947   2.287   9.932   4.633  0.9916  1.3336 -0.7730
  478MOL0     H65948   1.911   8.310   4.831 -0.1405 -0.6443 -1.7173
  478MOL0     H65949   1.893   8.073   4.828  0.4316  0.0400  0.2534
  478MOL0     H65950   1.764   7.626   4.870  0.4498  0.0014  0.0813
  478MOL0     H65951   1.785   7.377   4.908 -1.0772  0.9131  1.4804
  478MOL0     H65952   2.135   7.178   5.089 -0.8661 -2.7974 -0.4723
  478MOL0     H65953   2.038   7.247   5.214  0.7184  0.9235 -0.4456
  478MOL0     H65954   2.045   6.991   5.220  0.6702 -0.5577 -0.1004
  478MOL0     H65955   1.974   6.995   5.054 -2.9936 -0.4016  0.0182
  478MOL0     H65956   1.812   7.110   5.290  0.0476 -1.8230  0.6639
  478MOL0     H65957   1.771   7.089   5.126  2.6186  2.3776 -0.1326
  478MOL0     H65958   1.668   6.917   5.283  0.5756 -0.7736 -0.4337
  478MOL0     H65959   1.839   6.853   5.306  2.5796  0.1756 -0.4204
  478MOL0     H65960   1.714   6.732   4.908  2.3502  1.3920 -0.9725
  478MOL0     H65961   2.159   7.412   5.079 -0.8993  0.5729  2.6520
  478MOL0     H65962   2.241   7.720   4.966 -2.2149  1.2787 -0.4847
  478MOL0     H65963   2.177   7.765   5.113  3.0663  1.8674 -2.0286
  478MOL0     H65964   2.272   7.619   5.118  1.4379  2.4160  1.2144
  479MOL0     O65965  11.433   5.683   5.303  0.1128 -0.0753  0.3560
  479MOL0     C65966  11.486   5.704   5.196  0.0706 -0.0905  0.0842
  479MOL0     O65967  11.441   5.671   5.069  0.2161 -0.0342 -1.0142
  479MOL0     C65968  11.308   5.653   5.044  0.6104 -1.2980 -0.5552
  479MOL0     C65969  11.199   5.642   5.145  0.9437 -0.0661 -0.0614
  479MOL0     C65970  11.065   5.638   5.096 -0.5151  0.0825 -0.7157
  479MOL0     C65971  11.031   5.644   4.962  0.0789 -0.5783  0.1028
  479MOL0     O65972  10.903   5.630   4.928  0.6455 -0.3536 -0.0505
  479MOL0     C65973  10.861   5.635   4.794 -0.2264  0.1875 -0.4452
  479MOL0     C65974  10.708   5.605   4.799 -0.4331 -0.1361 -0.3260
  479MOL0     C65975  10.648   5.599   4.654 -0.2825 -0.8671  0.5968
  479MOL0     C65976  10.498   5.569   4.654 -0.6356 -0.4889 -0.1513
  479MOL0     C65977  10.473   5.420   4.695 -0.0657 -1.1056 -0.5062
  479MOL0     C65978  10.327   5.397   4.755 -0.0888 -0.4048  0.2463
  479MOL0     C65979  10.299   5.252   4.801  0.7011 -0.4501 -0.0167
  479MOL0     C65980  10.333   5.143   4.695 -0.0895  0.2762  0.0253
  479MOL0     N65981  10.261   5.016   4.732 -0.4661  0.1349 -0.3877
  479MOL0     C65982  10.157   4.964   4.667  0.3876 -0.3120 -0.7046
  479MOL0     C65983  10.123   4.850   4.730 -0.3820 -0.3097  0.0456
  479MOL0     C65984  10.023   4.744   4.674 -0.0111  0.3453  0.2662
  479MOL0     C65985   9.912   4.721   4.777 -0.1827 -0.7216 -0.6514
  479MOL0     C65986   9.793   4.812   4.770 -0.2703  0.0854 -0.5842
  479MOL0     C65987   9.813   4.949   4.822 -0.5508  0.2075  0.1776
  479MOL0     O65988   9.677   5.013   4.819 -0.2181  0.2093 -0.1775
  479MOL0     C65989   9.677   5.152   4.799 -0.1233 -0.2016 -0.9634
  479MOL0     C65990   9.781   5.241   4.828  0.1269  0.2359  0.2162
  479MOL0     C65991   9.762   5.373   4.810  0.4014  0.1467 -0.4540
  479MOL0     C65992   9.876   5.470   4.830  0.0142  0.5311  0.1331
  479MOL0     C65993   9.626   5.420   4.779 -0.1583  0.1348  0.4668
  479MOL0     C65994   9.571   5.564   4.787 -0.3036  0.0299  0.4096
  479MOL0     O65995   9.454   5.590   4.729  0.2509  0.4565 -0.0256
  479MOL0     C65996   9.395   5.711   4.761  0.2567  0.4229  0.6709
  479MOL0     C65997   9.255   5.705   4.801  0.1216  0.2000 -0.1525
  479MOL0     C65998   9.184   5.825   4.823  0.1763 -0.1492  0.8059
  479MOL0     C65999   9.242   5.951   4.799  0.1447 -0.1705 -0.7179
  479MOL0     O66000   9.162   6.063   4.805 -0.4556  0.4666  0.3032
  479MOL0     C66001   9.222   6.173   4.880 -0.6939 -1.3780 -1.3109
  479MOL0     C66002   9.113   6.275   4.912 -0.0924 -0.5458 -0.3618
  479MOL0     C66003   9.169   6.396   5.002  0.2682 -0.2402 -0.0240
  479MOL0     C66004   9.084   6.515   5.032  0.0981  0.0929 -0.8196
  479MOL0     C66005   9.003   6.505   5.157  0.5482  0.4106  0.1934
  479MOL0     C66006   8.934   6.638   5.204 -0.1777  0.7324 -0.0192
  479MOL0     C66007   8.821   6.609   5.304 -0.2037 -0.0617  0.8561
  479MOL0     C66008   8.867   6.542   5.438 -0.3139 -0.0100 -0.3914
  479MOL0    Cl66009   8.980   6.656   5.513  0.0176 -0.3615  0.0152
  479MOL0     C66010   9.377   5.956   4.760 -0.0490  0.9910  0.1683
  479MOL0     C66011   9.450   5.837   4.738  0.1932 -0.3526 -0.0656
  479MOL0     O66012   9.626   5.640   4.868  0.3113 -0.3959 -0.5046
  479MOL0     C66013   9.528   5.326   4.742 -1.4611  0.2263  0.3172
  479MOL0     C66014   9.554   5.195   4.751  0.4589  0.4157  0.1619
  479MOL0     N66015  10.216   4.840   4.838  0.0167 -0.1038  0.4964
  479MOL0     N66016  10.298   4.938   4.836  0.0423 -0.4703 -0.0859
  479MOL0     C66017  11.132   5.650   4.872  0.4749 -0.2516  1.0063
  479MOL0     C66018  11.270   5.658   4.909  0.7659  0.8374  0.8734
  479MOL0     C66019  11.618   5.762   5.208  0.1348 -0.6742  1.3871
  479MOL0     C66020  11.694   5.779   5.087 -0.5575 -0.8581  0.5975
  479MOL0     C66021  11.830   5.815   5.093  0.9263 -0.6368 -0.4613
  479MOL0     C66022  11.889   5.857   5.206  0.2099  0.2895  0.4093
  479MOL0     O66023  12.015   5.892   5.189 -0.7007 -0.0557  0.3736
  479MOL0     C66024  12.072   5.969   5.294 -0.4899  0.0697 -0.5990
  479MOL0     C66025  12.139   5.879   5.399  0.4900  0.7020  0.2981
  479MOL0     C66026  12.269   5.824   5.346 -0.6157 -0.0426  0.3809
  479MOL0     C66027  12.376   5.933   5.322  0.0468 -0.4870 -0.0966
  479MOL0     C66028  12.519   5.888   5.298 -0.2352  0.2840 -0.5505
  479MOL0     C66029  12.639   5.877   5.286 -0.9998 -0.2404 -0.2626
  479MOL0     C66030  11.811   5.860   5.327  0.1573  0.3348  0.9885
  479MOL0     C66031  11.674   5.818   5.328 -0.5214  0.2912 -0.5561
  479MOL0     C66032  11.615   5.818   5.471  0.3217  0.5151  0.3403
  479MOL0     H66033  11.217   5.634   5.251 -1.2121 -2.2397  0.2487
  479MOL0     H66034  10.990   5.629   5.174 -1.3260 -0.3645 -1.5271
  479MOL0     H66035  10.907   5.563   4.726 -0.2129  0.6641 -0.9496
  479MOL0     H66036  10.887   5.734   4.756  1.3469  0.5100  1.3381
  479MOL0     H66037  10.686   5.521   4.867 -2.2680  1.1353  0.7521
  479MOL0     H66038  10.657   5.687   4.851  0.3036  0.0198  0.1622
  479MOL0     H66039  10.660   5.700   4.613  0.5525 -2.3016 -3.0731
  479MOL0     H66040  10.697   5.526   4.590 -1.3728 -1.4612  0.4218
  479MOL0     H66041  10.436   5.634   4.716  1.4691 -0.9482  2.6126
  479MOL0     H66042  10.472   5.578   4.548  2.5161 -0.9920 -1.0754
  479MOL0     H66043  10.557   5.390   4.758  0.3283 -0.3835 -0.6819
  479MOL0     H66044  10.487   5.359   4.605 -2.3326  0.7104 -2.2054
  479MOL0     H66045  10.315   5.457   4.845 -1.2763 -1.2920  0.6971
  479MOL0     H66046  10.260   5.416   4.670  1.4249 -3.0962 -1.7258
  479MOL0     H66047  10.196   5.227   4.831  1.7001 -1.7198  2.6875
  479MOL0     H66048  10.361   5.235   4.889  3.1900  3.6447 -0.7298
  479MOL0     H66049  10.321   5.177   4.592  2.2942  2.5050  0.3888
  479MOL0     H66050  10.441   5.124   4.694  0.1881  1.4235  2.1247
  479MOL0     H66051  10.108   5.009   4.581  0.4325 -1.7013 -1.4755
  479MOL0     H66052  10.075   4.648   4.661 -0.9885 -0.0347 -1.0749
  479MOL0     H66053   9.982   4.770   4.576  1.5447 -1.2097 -0.8827
  479MOL0     H66054   9.870   4.620   4.771 -3.3549  0.2977  1.6962
  479MOL0     H66055   9.949   4.734   4.878 -1.9492  1.6653 -0.2269
  479MOL0     H66056   9.747   4.815   4.671 -1.3102 -0.4291 -0.1353
  479MOL0     H66057   9.715   4.760   4.825  1.1881 -0.9589  0.5674
  479MOL0     H66058   9.850   4.952   4.925 -1.8230  2.2956  0.6237
  479MOL0     H66059   9.893   4.991   4.759  0.7551 -0.4466  1.3374
  479MOL0     H66060   9.878   5.210   4.864  0.8839  2.6154  0.3859
  479MOL0     H66061   9.883   5.551   4.756  0.9578 -0.0915 -0.4788
  479MOL0     H66062   9.973   5.420   4.832  0.2500  0.9560  2.4521
  479MOL0     H66063   9.865   5.514   4.930 -0.9529  1.4822 -0.3668
  479MOL0     H66064   9.214   5.605   4.804 -0.7444  0.5614  0.4324
  479MOL0     H66065   9.080   5.819   4.857 -0.0269  3.3205  1.1344
  479MOL0     H66066   9.265   6.144   4.976  0.3044  0.4739 -1.1484
  479MOL0     H66067   9.299   6.223   4.820  0.4915 -0.1144  1.1158
  479MOL0     H66068   9.077   6.306   4.813  1.3176 -0.0771 -0.7605
  479MOL0     H66069   9.034   6.227   4.970 -1.5367  2.1047  0.0256
  479MOL0     H66070   9.265   6.433   4.963  0.2117  1.2407  1.1269
  479MOL0     H66071   9.205   6.352   5.095  4.8950  0.5539 -1.2012
  479MOL0     H66072   9.022   6.531   4.943  1.1699  1.3136 -1.3944
  479MOL0     H66073   9.148   6.604   5.025  3.8923 -2.1809  1.5870
  479MOL0     H66074   8.923   6.434   5.138  0.7713  0.6432 -1.8320
  479MOL0     H66075   9.062   6.468   5.241 -0.6750  0.3772  1.0690
  479MOL0     H66076   8.892   6.690   5.117  0.4933 -0.8310 -1.3260
  479MOL0     H66077   9.012   6.704   5.245  0.1973  0.0044  0.4506
  479MOL0     H66078   8.756   6.537   5.254 -1.3446  0.6086  1.3293
  479MOL0     H66079   8.764   6.700   5.330 -0.5606 -0.5548  1.8705
  479MOL0     H66080   8.926   6.455   5.410 -1.2895 -0.2989 -1.6240
  479MOL0     H66081   8.786   6.504   5.502  0.1444  2.9911  2.2714
  479MOL0     H66082   9.420   6.053   4.736  2.1668  0.0312  0.0267
  479MOL0     H66083   9.553   5.842   4.708  0.0335  2.9091 -0.4253
  479MOL0     H66084   9.425   5.358   4.730 -1.6068 -1.0948 -3.0458
  479MOL0     H66085   9.472   5.127   4.727  0.1326  0.7729  0.2547
  479MOL0     H66086  11.106   5.634   4.768 -0.8894  2.8044  0.7516
  479MOL0     H66087  11.349   5.674   4.835 -1.8961 -0.7153 -2.5600
  479MOL0     H66088  11.660   5.763   4.985 -1.3660  1.7818  0.3768
  479MOL0     H66089  11.888   5.807   5.002 -0.4659 -1.2472 -1.3221
  479MOL0     H66090  12.155   6.029   5.255  2.9658 -3.4214  0.6595
  479MOL0     H66091  12.002   6.029   5.351 -1.3522  0.6029 -2.1537
  479MOL0     H66092  12.074   5.793   5.418 -0.3481  1.4301  0.7820
  479MOL0     H66093  12.161   5.929   5.494 -0.8461 -1.9537  2.1322
  479MOL0     H66094  12.304   5.750   5.419 -2.8123 -0.0350  1.5216
  479MOL0     H66095  12.249   5.778   5.249  0.7888  2.9196 -1.4255
  479MOL0     H66096  12.381   6.000   5.408  1.4132 -0.5968 -0.0773
  479MOL0     H66097  12.345   5.991   5.234 -1.0377  0.9025  1.1470
  479MOL0     H66098  12.740   5.858   5.258 -0.7431  1.4326 -0.5779
  479MOL0     H66099  11.849   5.896   5.422  2.7594 -0.4258  0.3251
  479MOL0     H66100  11.507   5.835   5.485  0.8512  2.7946  2.2747
  479MOL0     H66101  11.642   5.725   5.522  1.7463  1.1180  0.7332
  479MOL0     H66102  11.658   5.898   5.532  2.4734 -0.7393  0.5503
  480MOL0     O66103   6.731   7.176   0.083  0.0147  0.5324 -0.1252
  480MOL0     C66104   6.674   7.071   0.040  0.0291 -0.5119 -0.7272
  480MOL0     O66105   6.683   6.946   0.092 -0.0037  0.1823  0.1546
  480MOL0     C66106   6.766   6.920   0.199 -0.8519 -0.3722 -0.5198
  480MOL0     C66107   6.891   6.866   0.173  0.2567 -0.1662 -0.7611
  480MOL0     C66108   6.984   6.834   0.271  0.2965  0.9539  0.6077
  480MOL0     C66109   6.947   6.852   0.406 -0.2506  0.1018  0.4957
  480MOL0     O66110   7.036   6.798   0.494  0.6904  0.1711  0.7211
  480MOL0     C66111   7.056   6.872   0.611  0.4963  0.3788 -0.4777
  480MOL0     C66112   7.179   6.969   0.601 -0.2584  0.0801  0.0587
  480MOL0     C66113   7.308   6.898   0.555 -0.3935 -0.1342 -0.0396
  480MOL0     C66114   7.371   6.821   0.672 -0.7849  1.0529 -0.4900
  480MOL0     C66115   7.495   6.740   0.620  0.7364  0.1801  0.3395
  480MOL0     C66116   7.600   6.721   0.733  1.1908  0.1240 -0.4202
  480MOL0     C66117   7.722   6.654   0.686 -0.3704  0.6639 -0.7586
  480MOL0     C66118   7.825   6.649   0.805 -0.2287 -0.0715 -0.2417
  480MOL0     N66119   7.944   6.577   0.760  0.1827 -0.5136  0.3219
  480MOL0     C66120   7.969   6.451   0.785 -0.5187  0.1397  0.0015
  480MOL0     C66121   8.088   6.418   0.727 -0.3508  1.0655  0.2321
  480MOL0     C66122   8.146   6.279   0.726  0.2194  0.4436  0.5540
  480MOL0     C66123   8.275   6.262   0.804 -0.4211 -0.4926 -0.1899
  480MOL0     C66124   8.336   6.122   0.788  0.7238 -0.0309 -0.1614
  480MOL0     C66125   8.461   6.111   0.869  0.4832 -0.0194  0.5132
  480MOL0     O66126   8.555   6.186   0.792  0.4189  0.2632 -0.1112
  480MOL0     C66127   8.661   6.234   0.859  1.0664 -0.6995 -0.2440
  480MOL0     C66128   8.733   6.157   0.943  0.1198  0.2466 -0.8517
  480MOL0     C66129   8.856   6.196   0.999 -0.1932  0.1992  0.2066
  480MOL0     C66130   8.933   6.105   1.099  0.4324 -0.1866  0.0876
  480MOL0     C66131   8.921   6.313   0.944 -0.4015  0.4416 -0.0279
  480MOL0     C66132   9.063   6.341   0.962  0.0794 -0.0904  0.0856
  480MOL0     O66133   9.095   6.476   0.979 -0.2769  0.2182 -0.1046
  480MOL0     C66134   9.234   6.501   0.971  0.3779  0.0865 -0.0482
  480MOL0     C66135   9.288   6.576   1.072  0.2670 -0.3265 -0.3047
  480MOL0     C66136   9.419   6.618   1.075 -0.5180 -0.4995  1.0347
  480MOL0     C66137   9.503   6.581   0.970  0.2506 -1.2443  0.8486
  480MOL0     O66138   9.631   6.620   0.974  0.0946 -0.8749 -0.1811
  480MOL0     C66139   9.694   6.641   0.852 -0.3535 -0.3224  0.3300
  480MOL0     C66140   9.649   6.772   0.783  0.8209  0.3601  0.9689
  480MOL0     C66141   9.732   6.801   0.659 -0.4026 -0.5013 -0.1063
  480MOL0     C66142   9.717   6.690   0.549  0.4141  0.7584  0.7327
  480MOL0     C66143   9.571   6.662   0.495  0.0330 -0.4443  0.6572
  480MOL0     C66144   9.566   6.579   0.363  0.5172 -0.5151 -0.0798
  480MOL0     C66145   9.624   6.443   0.369 -0.1036  0.6244 -0.4571
  480MOL0     C66146   9.611   6.361   0.240 -0.1480  0.2134  0.2137
  480MOL0    Cl66147   9.438   6.305   0.231 -0.0916  0.2701  0.3261
  480MOL0     C66148   9.458   6.497   0.870  0.8881 -0.4341  0.9269
  480MOL0     C66149   9.323   6.461   0.873 -0.2578  0.2011  0.1049
  480MOL0     O66150   9.143   6.247   0.943  0.0390 -0.4112 -0.1802
  480MOL0     C66151   8.845   6.392   0.859  0.9740  0.5301  0.3908
  480MOL0     C66152   8.719   6.352   0.816  0.1508  0.3244 -0.2461
  480MOL0     N66153   8.132   6.539   0.673  0.4921 -0.1908  0.0855
  480MOL0     N66154   8.046   6.635   0.699  0.5162 -0.4736 -0.6113
  480MOL0     C66155   6.832   6.921   0.425 -0.0837  0.4236  0.9218
  480MOL0     C66156   6.743   6.955   0.327 -0.1535  0.1437 -0.5320
  480MOL0     C66157   6.561   7.081  -0.065 -1.1011 -0.2613  0.0486
  480MOL0     C66158   6.488   6.962  -0.098  0.7183 -0.7616 -0.2559
  480MOL0     C66159   6.387   6.972  -0.194 -0.2096  0.4690 -0.3087
  480MOL0     C66160   6.364   7.085  -0.269 -0.0545 -0.8976  0.3270
  480MOL0     O66161   6.267   7.074  -0.369  0.1973  0.1112  0.2975
  480MOL0     C66162   6.241   7.187  -0.454  0.1728  0.8323  0.8382
  480MOL0     C66163   6.134   7.154  -0.553 -1.1012  0.7790 -0.7126
  480MOL0     C66164   6.118   7.262  -0.667  0.2512  1.0188  0.0949
  480MOL0     C66165   6.059   7.177  -0.785  0.8470  0.6073  0.6244
  480MOL0     C66166   5.924   7.126  -0.755 -0.3126  0.2914  0.2858
  480MOL0     C66167   5.810   7.095  -0.725 -0.3966 -0.7799 -0.3239
  480MOL0     C66168   6.446   7.197  -0.241 -0.1096 -0.8497  0.4545
  480MOL0     C66169   6.541   7.197  -0.142 -0.6990  0.5972  0.9516
  480MOL0     C66170   6.612   7.321  -0.109  0.5643 -0.8731  0.4950
  480MOL0     H66171   6.915   6.846   0.069  0.5836 -3.0119 -0.2281
  480MOL0     H66172   7.071   6.777   0.240 -0.6266 -2.0311  2.9949
  480MOL0     H66173   7.078   6.795   0.686 -1.4063 -0.7630 -1.0025
  480MOL0     H66174   6.967   6.930   0.637 -0.4880  1.1480 -4.7281
  480MOL0     H66175   7.171   7.063   0.544  1.4386 -0.0604 -0.4850
  480MOL0     H66176   7.194   7.010   0.701  3.1141 -1.3627  0.2862
  480MOL0     H66177   7.292   6.833   0.469  1.3524 -3.9632  2.2582
  480MOL0     H66178   7.381   6.975   0.527 -1.0303  1.0151  1.2915
  480MOL0     H66179   7.409   6.882   0.754  1.4598  0.4736 -1.0344
  480MOL0     H66180   7.298   6.749   0.711 -0.4506  1.7842  1.6087
  480MOL0     H66181   7.548   6.793   0.540  0.8836 -2.7088 -1.6380
  480MOL0     H66182   7.469   6.641   0.582 -1.8873  0.9774 -0.1214
  480MOL0     H66183   7.609   6.813   0.791 -2.3973 -0.8748  2.1231
  480MOL0     H66184   7.551   6.662   0.812 -0.9017  2.5114  0.1969
  480MOL0     H66185   7.766   6.712   0.604  0.7751 -0.9438 -1.3350
  480MOL0     H66186   7.715   6.550   0.652 -0.1372  0.4081 -0.0367
  480MOL0     H66187   7.849   6.754   0.825 -0.8690 -0.0290  0.3624
  480MOL0     H66188   7.781   6.608   0.897  2.3599 -0.7557  0.7761
  480MOL0     H66189   7.915   6.371   0.836 -0.8202 -1.4645 -2.6219
  480MOL0     H66190   8.167   6.259   0.620  0.6319 -0.3855  0.7892
  480MOL0     H66191   8.074   6.210   0.770  4.2334 -3.3613  1.8122
  480MOL0     H66192   8.338   6.352   0.794  0.9460 -1.3836  0.1395
  480MOL0     H66193   8.229   6.278   0.902  1.5211  1.4708  0.5161
  480MOL0     H66194   8.261   6.048   0.816  0.9598  0.8436  3.2421
  480MOL0     H66195   8.367   6.112   0.684  0.2204  2.0804 -0.5644
  480MOL0     H66196   8.453   6.134   0.976  1.2837 -1.2896  0.8690
  480MOL0     H66197   8.496   6.008   0.862  0.3218 -0.1318  1.2370
  480MOL0     H66198   8.704   6.054   0.960  0.9509  0.2007  0.4242
  480MOL0     H66199   8.965   6.173   1.178 -0.7842  0.1141  0.3456
  480MOL0     H66200   9.006   6.045   1.044  0.0779 -2.0690  1.5272
  480MOL0     H66201   8.870   6.030   1.148  0.3734 -1.1724 -1.4457
  480MOL0     H66202   9.218   6.602   1.151 -2.9936  0.0875 -3.0989
  480MOL0     H66203   9.460   6.675   1.158 -1.7480 -1.1060  2.0963
  480MOL0     H66204   9.795   6.675   0.879 -1.1400  3.0569 -0.5619
  480MOL0     H66205   9.710   6.547   0.797 -2.9773 -0.9533  0.5162
  480MOL0     H66206   9.543   6.760   0.755  0.7257  2.2941  0.3806
  480MOL0     H66207   9.645   6.856   0.852  0.0959  2.3041 -1.2848
  480MOL0     H66208   9.836   6.805   0.691 -0.8243 -0.2303  1.3039
  480MOL0     H66209   9.700   6.895   0.612  0.1472 -1.3259 -2.2290
  480MOL0     H66210   9.744   6.591   0.588 -2.0759  0.6826  2.5555
  480MOL0     H66211   9.772   6.708   0.456 -1.5868 -0.8854 -0.8869
  480MOL0     H66212   9.517   6.596   0.564 -0.9265 -1.5241 -1.0788
  480MOL0     H66213   9.517   6.755   0.475  0.8468 -0.4373 -1.7324
  480MOL0     H66214   9.620   6.630   0.283  2.2133 -0.5301  1.0045
  480MOL0     H66215   9.463   6.573   0.327  0.3278 -1.5939  0.5880
  480MOL0     H66216   9.583   6.396   0.459  1.9400  0.1417  0.2846
  480MOL0     H66217   9.732   6.453   0.386  0.5075 -2.6047 -1.7853
  480MOL0     H66218   9.675   6.273   0.241 -1.4750 -0.7975 -0.6000
  480MOL0     H66219   9.642   6.415   0.150  0.2869 -0.9640 -0.3588
  480MOL0     H66220   9.512   6.459   0.783 -3.5177  0.7818 -2.7274
  480MOL0     H66221   9.287   6.386   0.803 -0.3073 -0.2086  0.5650
  480MOL0     H66222   8.885   6.481   0.812 -0.7215 -0.1735 -2.6065
  480MOL0     H66223   8.678   6.404   0.730  0.7740  0.1063 -0.6868
  480MOL0     H66224   6.806   6.951   0.526  2.5900  0.0302  1.8076
  480MOL0     H66225   6.645   6.997   0.350 -1.2972 -1.7002 -1.8048
  480MOL0     H66226   6.495   6.871  -0.040  1.9227 -1.6149 -1.6709
  480MOL0     H66227   6.322   6.888  -0.216 -1.0089  0.6614  1.2444
  480MOL0     H66228   6.197   7.265  -0.390 -1.5612 -0.4132  1.2285
  480MOL0     H66229   6.330   7.223  -0.506 -0.9585  0.6675 -1.3100
  480MOL0     H66230   6.036   7.143  -0.505 -0.8353  0.8739 -0.1296
  480MOL0     H66231   6.160   7.059  -0.599  3.1602  1.6462 -0.5123
  480MOL0     H66232   6.054   7.339  -0.624 -2.3172 -1.5265  1.1667
  480MOL0     H66233   6.219   7.290  -0.698  0.3908  1.1310  0.6411
  480MOL0     H66234   6.120   7.090  -0.811 -0.1291 -0.4488  1.7449
  480MOL0     H66235   6.063   7.237  -0.876 -0.5592 -1.1898 -0.6898
  480MOL0     H66236   5.720   7.075  -0.672  0.7811 -0.4787  1.9335
  480MOL0     H66237   6.446   7.293  -0.292  0.2091 -0.7321  0.6741
  480MOL0     H66238   6.587   7.408  -0.170  1.2437  0.7405  2.3989
  480MOL0     H66239   6.578   7.350  -0.009 -0.2989 -0.0491 -0.0215
  480MOL0     H66240   6.721   7.311  -0.104  1.0749  2.2229 -1.7380
  481MOL0     O66241   2.514   6.740   1.777 -0.2178 -0.1001 -0.2478
  481MOL0     C66242   2.462   6.844   1.819  0.2148 -0.4671  0.4181
  481MOL0     O66243   2.525   6.940   1.902  0.3267  1.3207  0.3961
  481MOL0     C66244   2.646   6.913   1.957  0.4379  0.2221  0.0695
  481MOL0     C66245   2.679   6.787   2.029 -0.5955  0.0791 -0.6319
  481MOL0     C66246   2.803   6.768   2.089 -0.6201 -0.1552 -0.0663
  481MOL0     C66247   2.897   6.873   2.069 -0.3055 -0.3894 -0.3225
  481MOL0     O66248   3.022   6.857   2.122  0.3803 -0.2310  0.3141
  481MOL0     C66249   3.028   6.910   2.254 -0.8177  0.0086  0.4526
  481MOL0     C66250   3.132   7.022   2.273  0.4043  0.8871 -0.2449
  481MOL0     C66251   3.247   7.003   2.188 -0.9328 -0.1060 -0.5822
  481MOL0     C66252   3.357   7.085   2.251 -0.4591 -0.7554  0.5225
  481MOL0     C66253   3.488   7.092   2.163  0.0122  1.0211 -0.6491
  481MOL0     C66254   3.607   7.167   2.226  0.3278 -0.5271 -0.1083
  481MOL0     C66255   3.729   7.171   2.134 -0.1073 -1.0273 -0.0681
  481MOL0     C66256   3.858   7.227   2.200 -0.8521 -0.1317  0.1414
  481MOL0     N66257   3.969   7.260   2.103  0.4585  0.5316 -0.0250
  481MOL0     C66258   4.013   7.392   2.084  0.9613 -0.3197 -0.2486
  481MOL0     C66259   4.123   7.377   2.012 -0.8112  0.3066  0.3303
  481MOL0     C66260   4.222   7.488   1.971  1.0024  0.5464  0.0735
  481MOL0     C66261   4.358   7.440   1.937  0.5212 -0.5750  0.6850
  481MOL0     C66262   4.449   7.395   2.053 -0.0506 -0.0304 -0.0284
  481MOL0     C66263   4.574   7.329   1.974 -0.7204 -0.6295 -0.0031
  481MOL0     O66264   4.642   7.435   1.907 -0.1359  0.0816  0.3890
  481MOL0     C66265   4.769   7.410   1.872 -0.0773  0.0196 -1.1027
  481MOL0     C66266   4.827   7.523   1.836 -0.0451  0.1937 -0.0702
  481MOL0     C66267   4.969   7.539   1.807  0.6777  1.6709  0.4991
  481MOL0     C66268   5.013   7.682   1.780 -0.7472 -0.6635  0.3447
  481MOL0     C66269   5.047   7.414   1.807  0.5581 -0.1008 -0.4411
  481MOL0     C66270   5.190   7.417   1.775 -0.6923 -0.2242  0.8653
  481MOL0     O66271   5.243   7.527   1.716 -0.5000 -0.0457  0.3042
  481MOL0     C66272   5.380   7.517   1.675 -0.6274  0.4010  0.1783
  481MOL0     C66273   5.412   7.446   1.569  0.0585 -0.5489 -0.2710
  481MOL0     C66274   5.547   7.447   1.520  1.0751  0.6154  1.2028
  481MOL0     C66275   5.646   7.522   1.582  0.1146  0.0311  0.4330
  481MOL0     O66276   5.776   7.508   1.543 -0.7679  0.4608  0.6474
  481MOL0     C66277   5.855   7.634   1.532 -0.0674  0.1107 -0.8413
  481MOL0     C66278   5.990   7.614   1.454  1.1218 -0.0932  0.2488
  481MOL0     C66279   6.084   7.495   1.497  0.4502  0.1329 -0.1425
  481MOL0     C66280   6.226   7.510   1.467 -0.2403 -0.4658 -0.1224
  481MOL0     C66281   6.320   7.392   1.524  0.8560 -0.0787 -0.0364
  481MOL0     C66282   6.465   7.413   1.494  0.1826 -0.3003 -0.1130
  481MOL0     C66283   6.524   7.523   1.578  0.3075 -0.0520  0.3449
  481MOL0     C66284   6.670   7.531   1.555  0.5334 -0.1571  0.2994
  481MOL0    Cl66285   6.732   7.666   1.650 -0.3836 -0.0184  0.3775
  481MOL0     C66286   5.608   7.598   1.694  0.1151 -0.3985 -0.5227
  481MOL0     C66287   5.474   7.594   1.739 -0.4974 -0.1883  0.2345
  481MOL0     O66288   5.253   7.314   1.797  0.3537  0.2350  0.6778
  481MOL0     C66289   4.980   7.294   1.850  0.4843  0.0292  0.7833
  481MOL0     C66290   4.847   7.291   1.884  0.1502  0.1938  0.5970
  481MOL0     N66291   4.149   7.240   2.002  0.1137 -0.6728 -0.8814
  481MOL0     N66292   4.058   7.171   2.053 -0.6704  0.2289 -0.1582
  481MOL0     C66293   2.870   6.999   2.011  0.1841 -0.3170 -0.1659
  481MOL0     C66294   2.737   7.020   1.959 -0.1264  0.4407 -0.1016
  481MOL0     C66295   2.324   6.892   1.768 -0.5422  0.2179 -0.2537
  481MOL0     C66296   2.301   7.030   1.780  0.0219  0.2359 -0.3773
  481MOL0     C66297   2.182   7.078   1.725  0.0604 -0.3070 -0.3765
  481MOL0     C66298   2.092   7.000   1.658 -0.5161  0.6553  0.0836
  481MOL0     O66299   1.972   7.060   1.626 -0.0675  0.1408 -0.7197
  481MOL0     C66300   1.860   6.976   1.607 -0.9546  0.1267 -0.1651
  481MOL0     C66301   1.741   7.068   1.588 -0.5486  0.8149  0.1327
  481MOL0     C66302   1.736   7.169   1.699  0.7421  0.0014 -0.5494
  481MOL0     C66303   1.612   7.260   1.690  0.1199 -0.1127 -0.1391
  481MOL0     C66304   1.636   7.399   1.648 -0.5005  0.5844  0.2355
  481MOL0     C66305   1.675   7.508   1.633  0.8982 -1.4174 -0.3854
  481MOL0     C66306   2.117   6.865   1.644  0.0120 -0.1926 -0.6313
  481MOL0     C66307   2.231   6.809   1.698 -0.9743 -0.4349  1.1069
  481MOL0     C66308   2.256   6.665   1.675  0.5742 -0.3762 -0.3256
  481MOL0     H66309   2.613   6.701   2.019  1.9091 -2.1272  0.4673
  481MOL0     H66310   2.826   6.676   2.141 -1.7170  0.2345  1.1942
  481MOL0     H66311   3.059   6.831   2.323  0.3708 -1.4399 -1.6231
  481MOL0     H66312   2.931   6.942   2.293 -1.9100 -1.4995 -0.8703
  481MOL0     H66313   3.078   7.114   2.248 -1.4969  0.1729  1.0656
  481MOL0     H66314   3.164   7.030   2.377  0.3686 -0.2208 -0.1372
  481MOL0     H66315   3.274   6.897   2.181  3.2957  0.7638 -0.1665
  481MOL0     H66316   3.217   7.034   2.088 -3.6790 -1.9717 -0.4647
  481MOL0     H66317   3.307   7.181   2.267 -0.9944 -1.1215  1.1115
  481MOL0     H66318   3.392   7.040   2.345 -0.7517  1.6615  1.8590
  481MOL0     H66319   3.468   7.138   2.065 -1.1781 -2.1331 -2.0299
  481MOL0     H66320   3.526   6.991   2.151  0.1040  0.7415  1.6102
  481MOL0     H66321   3.582   7.266   2.263  1.0894 -0.4014  0.0900
  481MOL0     H66322   3.636   7.110   2.315 -2.0172 -0.5987  0.6654
  481MOL0     H66323   3.706   7.245   2.057 -0.8436  0.8022  1.8237
  481MOL0     H66324   3.742   7.073   2.086 -0.5181 -1.8095  1.3615
  481MOL0     H66325   3.828   7.312   2.263 -2.6265 -0.0568 -0.7222
  481MOL0     H66326   3.895   7.143   2.258 -0.5731  1.0873  1.8253
  481MOL0     H66327   3.967   7.481   2.126 -4.6787 -2.1424 -1.7656
  481MOL0     H66328   4.230   7.556   2.056 -4.0145 -0.1433  1.4266
  481MOL0     H66329   4.187   7.553   1.890  1.1323  1.8397  1.0161
  481MOL0     H66330   4.338   7.374   1.851 -0.3890  0.0223  0.4339
  481MOL0     H66331   4.416   7.521   1.893  1.0385 -0.8291  0.8830
  481MOL0     H66332   4.482   7.482   2.111  0.3941  0.8720 -1.5592
  481MOL0     H66333   4.411   7.307   2.105  2.7620 -3.0202 -2.6068
  481MOL0     H66334   4.642   7.278   2.043 -1.6268 -0.8361  0.7533
  481MOL0     H66335   4.542   7.254   1.901  1.9688 -0.2859 -1.6698
  481MOL0     H66336   4.771   7.613   1.810  0.7252  1.9912  3.8508
  481MOL0     H66337   5.015   7.696   1.671  2.5683 -1.7076  0.1616
  481MOL0     H66338   5.109   7.702   1.828 -0.3169 -0.4073 -0.5969
  481MOL0     H66339   4.940   7.754   1.818 -1.8535 -0.8868 -1.2615
  481MOL0     H66340   5.331   7.407   1.508 -1.1174  1.8371 -0.3486
  481MOL0     H66341   5.574   7.393   1.430  3.0667  0.3025  1.9292
  481MOL0     H66342   5.802   7.711   1.475 -0.8716  0.7232  0.6995
  481MOL0     H66343   5.884   7.670   1.631  1.1602  1.0072 -1.5013
  481MOL0     H66344   5.954   7.606   1.350 -1.1929  2.5684  0.7318
  481MOL0     H66345   6.058   7.698   1.447  0.7272  0.0976 -2.6608
  481MOL0     H66346   6.045   7.405   1.448  0.2006 -0.1117  0.4861
  481MOL0     H66347   6.074   7.492   1.606  0.8546  0.7296 -0.0844
  481MOL0     H66348   6.262   7.604   1.509  0.4582 -0.9290  0.3242
  481MOL0     H66349   6.246   7.512   1.360  2.3272 -2.9370  0.1915
  481MOL0     H66350   6.319   7.363   1.629  2.2543  4.9189  1.6228
  481MOL0     H66351   6.295   7.302   1.466 -0.3575  2.2580 -3.4360
  481MOL0     H66352   6.475   7.441   1.389 -2.2935  2.5796  0.2805
  481MOL0     H66353   6.520   7.320   1.509 -1.5055 -1.5718 -1.4624
  481MOL0     H66354   6.502   7.514   1.684 -1.5240  0.1340  0.0022
  481MOL0     H66355   6.472   7.615   1.549  0.0964 -0.1783  0.3183
  481MOL0     H66356   6.694   7.538   1.448  1.4050 -2.8755  0.2456
  481MOL0     H66357   6.707   7.440   1.602  1.2189  0.7757  1.6267
  481MOL0     H66358   5.680   7.660   1.746  0.4525 -1.1152 -0.1119
  481MOL0     H66359   5.448   7.656   1.825  1.4786  0.8614  0.1352
  481MOL0     H66360   5.031   7.198   1.857 -1.6244 -1.0285  3.8361
  481MOL0     H66361   4.815   7.189   1.905 -0.9383  0.2160 -0.8188
  481MOL0     H66362   2.954   7.067   2.008  2.0886 -2.3871  2.1148
  481MOL0     H66363   2.694   7.102   1.904  0.3981  0.6955 -0.1390
  481MOL0     H66364   2.368   7.102   1.825 -1.7574  2.8406 -1.6150
  481MOL0     H66365   2.167   7.185   1.731 -2.5779 -0.6166 -0.3323
  481MOL0     H66366   1.870   6.917   1.515  0.4909  2.2156 -1.4499
  481MOL0     H66367   1.846   6.911   1.694  3.0672 -0.0027  0.5914
  481MOL0     H66368   1.645   7.016   1.589 -0.0016 -0.2033  0.0096
  481MOL0     H66369   1.752   7.119   1.492  0.7201 -1.2794 -0.8812
  481MOL0     H66370   1.715   7.107   1.787 -0.1562  4.0823  2.3723
  481MOL0     H66371   1.829   7.225   1.712  1.6695 -1.6926  0.5324
  481MOL0     H66372   1.567   7.268   1.789  2.6559 -2.1472  1.3142
  481MOL0     H66373   1.548   7.222   1.609  1.1087 -0.2169 -0.8918
  481MOL0     H66374   1.712   7.607   1.613  1.5516 -1.4071  0.8121
  481MOL0     H66375   2.044   6.789   1.620 -0.2521 -0.2666  0.3829
  481MOL0     H66376   2.283   6.618   1.770  3.7151  3.2123  0.7933
  481MOL0     H66377   2.167   6.620   1.630  0.4256  0.3551 -0.7972
  481MOL0     H66378   2.338   6.653   1.604 -1.1358  2.2304 -3.0073
  482MOL0     O66379   1.082   8.777   1.186  0.1961  0.4686  0.7012
  482MOL0     C66380   1.049   8.890   1.185  0.6677 -0.5733 -0.6964
  482MOL0     O66381   1.128   9.004   1.151 -1.2793  0.5542  0.0300
  482MOL0     C66382   1.243   8.979   1.084  0.6457  0.0571 -0.2050
  482MOL0     C66383   1.348   8.919   1.159  0.6731  0.0587  0.0776
  482MOL0     C66384   1.477   8.920   1.109  0.3272 -0.5531  0.1033
  482MOL0     C66385   1.499   8.976   0.979  0.7224 -0.1567  0.2872
  482MOL0     O66386   1.623   8.981   0.939  0.2713 -0.2474 -0.2573
  482MOL0     C66387   1.659   9.010   0.797 -0.0668  0.1881 -0.1118
  482MOL0     C66388   1.803   8.978   0.758  0.7273 -0.3454  0.1067
  482MOL0     C66389   1.905   9.065   0.843  1.0608  0.2003  0.3181
  482MOL0     C66390   2.045   9.040   0.806 -0.9782 -0.0109 -0.0988
  482MOL0     C66391   2.155   9.110   0.888  0.2360 -0.9142 -0.2895
  482MOL0     C66392   2.272   9.168   0.804  0.6798  0.4119 -0.1420
  482MOL0     C66393   2.394   9.205   0.885 -0.7890 -0.6979  0.2145
  482MOL0     C66394   2.481   9.088   0.920 -0.1734 -0.7282  0.3454
  482MOL0     N66395   2.603   9.122   0.993 -0.9233 -0.1640  1.1699
  482MOL0     C66396   2.627   9.242   1.051  0.7135 -0.0502 -0.1277
  482MOL0     C66397   2.758   9.238   1.081  0.1395  0.3834 -0.1072
  482MOL0     C66398   2.839   9.335   1.161 -0.6964 -0.3847 -1.1150
  482MOL0     C66399   2.799   9.481   1.134  1.1448 -0.1802 -0.0443
  482MOL0     C66400   2.815   9.574   1.258  0.4693 -0.7154 -0.8327
  482MOL0     C66401   2.953   9.598   1.299 -0.2357 -0.5942 -0.0953
  482MOL0     O66402   3.018   9.683   1.201  0.3576  0.3310 -0.2367
  482MOL0     C66403   3.153   9.702   1.217  0.5226  0.0049  0.8016
  482MOL0     C66404   3.219   9.684   1.341  0.2293  0.3099 -0.8239
  482MOL0     C66405   3.357   9.710   1.355  0.5728 -0.0934  0.5572
  482MOL0     C66406   3.426   9.694   1.490  0.0189  0.1407 -0.8311
  482MOL0     C66407   3.429   9.753   1.232 -0.4153 -0.3189 -0.7299
  482MOL0     C66408   3.560   9.806   1.235 -0.5503  0.4945  0.3037
  482MOL0     O66409   3.637   9.785   1.122  0.8395 -0.2926 -0.1532
  482MOL0     C66410   3.767   9.832   1.108  0.2714  0.1131 -0.2383
  482MOL0     C66411   3.838   9.769   1.007 -0.2293 -0.0565 -1.0624
  482MOL0     C66412   3.965   9.810   0.969 -0.3489  0.0623 -0.1760
  482MOL0     C66413   4.024   9.919   1.028 -0.7034 -0.5427 -0.5023
  482MOL0     O66414   4.149   9.971   0.999 -0.0465 -0.4817 -0.4925
  482MOL0     C66415   4.233   9.933   0.886  0.5081 -0.1281 -0.3744
  482MOL0     C66416   4.226  10.015   0.770  0.8012 -0.8127 -0.1513
  482MOL0     C66417   4.248  10.163   0.800 -0.1656 -0.6289  1.2257
  482MOL0     C66418   4.237  10.246   0.678 -0.5032  0.1539 -0.2514
  482MOL0     C66419   4.271  10.395   0.708 -0.6687 -0.1169  0.0072
  482MOL0     C66420   4.420  10.416   0.674  0.1768 -0.7734  0.1750
  482MOL0     C66421   4.478  10.559   0.690 -1.1925  0.6966 -0.0363
  482MOL0     C66422   4.472  10.619   0.836 -0.4890  0.3982  0.3981
  482MOL0    Cl66423   4.591  10.750   0.866 -0.2599  0.0011 -0.1055
  482MOL0     C66424   3.948   9.983   1.128  0.3925 -1.0583  0.2683
  482MOL0     C66425   3.822   9.943   1.174 -0.7649  0.0185  0.3369
  482MOL0     O66426   3.605   9.845   1.340  0.2239  0.6864 -0.7837
  482MOL0     C66427   3.357   9.755   1.111 -0.0168  0.3411  0.4293
  482MOL0     C66428   3.220   9.725   1.101  0.4172  0.2720  0.2593
  482MOL0     N66429   2.807   9.114   1.048 -1.2002 -0.0051  0.8981
  482MOL0     N66430   2.715   9.057   0.989 -0.2734  0.3530 -0.2914
  482MOL0     C66431   1.395   9.013   0.900  0.7730  0.8421 -0.2738
  482MOL0     C66432   1.267   9.027   0.957  0.0953 -0.0381  0.3411
  482MOL0     C66433   0.899   8.915   1.219  0.4195  0.4494 -0.6899
  482MOL0     C66434   0.853   9.047   1.234  0.5679 -1.1869 -0.0409
  482MOL0     C66435   0.720   9.085   1.266  0.2125  0.8379  0.0891
  482MOL0     C66436   0.626   8.990   1.287 -0.5930  0.1177  0.1899
  482MOL0     O66437   0.497   9.030   1.318  0.2885 -1.0612 -0.3157
  482MOL0     C66438   0.406   8.928   1.370  1.6278 -1.0240  0.3597
  482MOL0     C66439   0.349   8.856   1.243  0.5289  0.9650  0.5284
  482MOL0     C66440   0.226   8.769   1.285  0.2742  0.0321  0.4058
  482MOL0     C66441   0.245   8.691   1.416  0.1366  0.2223  0.7268
  482MOL0     C66442   0.374   8.620   1.434  0.7178 -0.0798 -0.4578
  482MOL0     C66443   0.472   8.552   1.422  0.2271 -0.8300 -0.3485
  482MOL0     C66444   0.666   8.857   1.269 -0.0738 -0.3801  0.2557
  482MOL0     C66445   0.800   8.812   1.239 -0.0083 -0.1127  0.2549
  482MOL0     C66446   0.826   8.667   1.227 -0.0588  0.3406  0.2698
  482MOL0     H66447   1.327   8.898   1.263  0.2493 -1.1321 -0.2277
  482MOL0     H66448   1.561   8.872   1.160 -1.1463 -3.2934  0.1583
  482MOL0     H66449   1.652   9.119   0.785  0.5426  0.4344  1.5111
  482MOL0     H66450   1.592   8.962   0.725  1.4705 -0.4580 -1.1644
  482MOL0     H66451   1.827   8.871   0.759 -1.3534 -0.9164 -2.2228
  482MOL0     H66452   1.810   9.008   0.653  0.4889 -0.8273 -0.0511
  482MOL0     H66453   1.880   9.170   0.825 -2.6066 -0.6790 -0.4692
  482MOL0     H66454   1.893   9.056   0.951  1.9637  1.6743  0.5747
  482MOL0     H66455   2.087   8.939   0.803  0.7027  0.6695 -1.4935
  482MOL0     H66456   2.055   9.078   0.704  0.7255 -0.3220 -0.0876
  482MOL0     H66457   2.180   9.054   0.978  0.0719  0.0622  0.3827
  482MOL0     H66458   2.106   9.199   0.929  0.3171 -1.5325  1.1937
  482MOL0     H66459   2.298   9.103   0.720  0.0843  0.3944 -0.3201
  482MOL0     H66460   2.238   9.263   0.762  0.4556  0.4327  0.0806
  482MOL0     H66461   2.360   9.264   0.970  0.0013  1.0593 -0.6397
  482MOL0     H66462   2.460   9.263   0.820 -0.9077  0.5968  1.2126
  482MOL0     H66463   2.430   9.004   0.969  1.7579 -2.7569 -0.9307
  482MOL0     H66464   2.507   9.036   0.827 -0.1808 -0.1724  0.0287
  482MOL0     H66465   2.560   9.326   1.065  0.2687 -0.2035 -1.2153
  482MOL0     H66466   2.948   9.329   1.152 -0.8021 -0.1193 -2.9378
  482MOL0     H66467   2.835   9.306   1.267  0.1700 -1.5016 -1.3661
  482MOL0     H66468   2.852   9.522   1.048  1.3172 -0.0808  0.1086
  482MOL0     H66469   2.698   9.483   1.092  1.5281 -2.0081 -1.1455
  482MOL0     H66470   2.774   9.673   1.237  0.1947 -0.2499  1.5645
  482MOL0     H66471   2.761   9.526   1.340  2.1826 -1.8081 -0.2789
  482MOL0     H66472   2.953   9.661   1.389  0.2691 -1.4139  0.4957
  482MOL0     H66473   3.002   9.504   1.325  0.5606  0.4618  2.5832
  482MOL0     H66474   3.165   9.656   1.431 -2.7405 -0.4077 -2.6754
  482MOL0     H66475   3.440   9.787   1.546  1.4331 -1.3434  1.4143
  482MOL0     H66476   3.528   9.655   1.493  1.8204  4.2182  2.7448
  482MOL0     H66477   3.358   9.642   1.558  0.2558  2.5639  1.3983
  482MOL0     H66478   3.804   9.684   0.949  1.1913 -0.1245 -1.8400
  482MOL0     H66479   4.012   9.762   0.883  0.2407  2.9256 -1.5888
  482MOL0     H66480   4.339   9.931   0.912  0.4665 -2.6620 -0.1171
  482MOL0     H66481   4.203   9.838   0.839  1.1501  0.9369 -3.1014
  482MOL0     H66482   4.295   9.991   0.689  0.2456 -1.2916 -0.4947
  482MOL0     H66483   4.120  10.015   0.739  0.2525 -3.0507  1.5168
  482MOL0     H66484   4.342  10.175   0.855  0.3708 -0.1116  0.2259
  482MOL0     H66485   4.178  10.205   0.872 -1.6881  2.1796 -1.6630
  482MOL0     H66486   4.136  10.223   0.641  0.9824 -1.9452 -3.4089
  482MOL0     H66487   4.294  10.210   0.592 -1.6492 -2.0754 -0.1604
  482MOL0     H66488   4.213  10.459   0.640 -1.2073 -0.1361  0.4352
  482MOL0     H66489   4.252  10.428   0.811 -2.0938  2.8549 -1.0992
  482MOL0     H66490   4.437  10.385   0.571  5.0491  1.8947 -0.1231
  482MOL0     H66491   4.475  10.343   0.735  0.0381 -1.0216  0.0060
  482MOL0     H66492   4.420  10.626   0.625  0.0002 -1.3283 -3.4764
  482MOL0     H66493   4.581  10.556   0.656 -0.6792  0.1459  1.4925
  482MOL0     H66494   4.497  10.553   0.920  1.1718  0.0764 -0.3078
  482MOL0     H66495   4.368  10.647   0.855 -1.2681 -0.9352 -1.5137
  482MOL0     H66496   3.995  10.070   1.172  0.2029  0.3291 -2.1257
  482MOL0     H66497   3.775  10.004   1.250 -2.4124  0.9480 -1.3522
  482MOL0     H66498   3.403   9.768   1.013 -0.1526 -0.9145  0.1824
  482MOL0     H66499   3.180   9.731   1.000  1.3227 -1.9355 -0.2876
  482MOL0     H66500   1.406   9.041   0.795  1.7039  3.3953  0.4153
  482MOL0     H66501   1.185   9.064   0.896  2.1997  1.0060 -2.0028
  482MOL0     H66502   0.921   9.130   1.219  0.0727 -0.3230  2.1500
  482MOL0     H66503   0.693   9.188   1.285 -1.6956  0.5286 -0.7600
  482MOL0     H66504   0.462   8.859   1.434  1.3868 -4.8726 -3.1685
  482MOL0     H66505   0.328   8.979   1.428 -1.0050 -1.5449 -2.4769
  482MOL0     H66506   0.411   8.801   1.171 -1.0747  1.7191 -1.5224
  482MOL0     H66507   0.322   8.939   1.178  2.4966 -0.0616 -1.7396
  482MOL0     H66508   0.132   8.824   1.287  1.2573  1.7562  1.2641
  482MOL0     H66509   0.209   8.698   1.203 -4.5764  0.4101  0.8041
  482MOL0     H66510   0.173   8.608   1.413  1.1963 -0.7318  1.1014
  482MOL0     H66511   0.217   8.758   1.498  0.1076  0.5974  0.4134
  482MOL0     H66512   0.550   8.479   1.416 -0.3580 -2.0114  3.3838
  482MOL0     H66513   0.598   8.776   1.294 -1.0340 -0.9131 -3.5733
  482MOL0     H66514   0.899   8.647   1.148 -1.0228 -0.9159 -0.3502
  482MOL0     H66515   0.862   8.619   1.317  0.8728  1.2897  0.4179
  482MOL0     H66516   0.733   8.614   1.203  1.2316 -1.6851 -0.4719
  483MOL0     O66517   6.925   6.071   9.912 -0.2603  0.1517 -0.4425
  483MOL0     C66518   6.943   6.172   9.978 -0.7305 -0.6624 -0.2607
  483MOL0     O66519   7.060   6.241   9.976 -0.2843  0.1677 -0.1982
  483MOL0     C66520   7.168   6.184   9.917 -0.2509 -0.2968  0.5684
  483MOL0     C66521   7.184   6.195   9.779 -0.2268 -0.4450  0.0928
  483MOL0     C66522   7.307   6.156   9.720  0.7084 -0.4500  0.6035
  483MOL0     C66523   7.399   6.094   9.795  0.0442  1.0091 -0.0159
  483MOL0     O66524   7.524   6.070   9.744 -0.0040  0.0154 -0.0199
  483MOL0     C66525   7.539   6.037   9.604 -0.3851 -0.1316 -0.5999
  483MOL0     C66526   7.674   5.982   9.579 -0.5111  0.9781  0.7339
  483MOL0     C66527   7.772   6.085   9.516  0.5903 -0.0908  0.0884
  483MOL0     C66528   7.916   6.040   9.489  0.2066  0.2963  0.0715
  483MOL0     C66529   8.000   6.160   9.464  0.1633 -0.0875 -0.5422
  483MOL0     C66530   8.144   6.120   9.474 -0.2442 -0.1444  0.7034
  483MOL0     C66531   8.240   6.238   9.489 -0.3206  0.3975  0.5988
  483MOL0     C66532   8.381   6.214   9.440 -0.1967 -0.2268  0.3017
  483MOL0     N66533   8.472   6.197   9.554  0.0894 -0.3435  0.8592
  483MOL0     C66534   8.604   6.236   9.553  0.6195  0.1884  0.5863
  483MOL0     C66535   8.659   6.172   9.654 -1.3185  0.0906 -0.0603
  483MOL0     C66536   8.803   6.158   9.677 -0.1763  0.2219  0.6549
  483MOL0     C66537   8.847   6.043   9.772  0.1074 -0.7943 -0.4234
  483MOL0     C66538   8.999   6.018   9.766 -0.0155 -0.4717 -0.1756
  483MOL0     C66539   9.037   5.909   9.875 -0.7973  0.6495  0.3741
  483MOL0     O66540   9.181   5.903   9.880 -0.4684  0.1514 -0.1989
  483MOL0     C66541   9.248   6.001   9.950 -0.4137  0.5260  1.0215
  483MOL0     C66542   9.371   6.042   9.909 -0.0302 -0.2563  1.2201
  483MOL0     C66543   9.455   6.150   9.967  0.4745  1.0251  0.4330
  483MOL0     C66544   9.586   6.178   9.895 -0.1134  0.0976  0.2063
  483MOL0     C66545   9.400   6.212  10.088  0.3139 -0.4540  0.0036
  483MOL0     C66546   9.491   6.303  10.164 -0.2139 -0.5597 -1.7024
  483MOL0     O66547   9.424   6.363  10.261 -0.2355 -0.0571 -0.9032
  483MOL0     C66548   9.489   6.455  10.334  0.4006 -0.4578 -0.7830
  483MOL0     C66549   9.532   6.580  10.282 -0.4465 -0.1747  0.7129
  483MOL0     C66550   9.585   6.686  10.360  0.0130  1.2284  1.0002
  483MOL0     C66551   9.615   6.656  10.489  0.6157  0.0036 -0.2445
  483MOL0     O66552   9.673   6.732  10.580  0.3855 -0.3339 -0.2771
  483MOL0     C66553   9.738   6.855  10.542 -0.1664 -0.6716  0.0723
  483MOL0     C66554   9.816   6.917  10.648 -0.0910  0.7721  0.6737
  483MOL0     C66555   9.875   6.820  10.750  0.5431  0.0489 -0.3937
  483MOL0     C66556   9.953   6.895  10.861 -0.2327 -0.7786 -0.2668
  483MOL0     C66557  10.046   6.807  10.947  0.3957  1.0694  0.2272
  483MOL0     C66558   9.984   6.678  11.010  0.6282 -0.4465 -0.2112
  483MOL0     C66559  10.094   6.590  11.077 -0.4065 -0.2306  0.0770
  483MOL0     C66560  10.172   6.669  11.182  0.3380  0.0820  0.5871
  483MOL0    Cl66561  10.270   6.559  11.296  0.2164 -0.1087  0.4926
  483MOL0     C66562   9.574   6.534  10.544  0.1279  1.8820 -0.4292
  483MOL0     C66563   9.509   6.436  10.471 -0.4848  0.1404  0.4950
  483MOL0     O66564   9.614   6.310  10.141 -0.0406  0.2687 -0.5294
  483MOL0     C66565   9.276   6.166  10.134  0.5093  0.3872 -0.1697
  483MOL0     C66566   9.214   6.062  10.069 -0.2294  0.7583 -1.1446
  483MOL0     N66567   8.560   6.093   9.715  0.1050 -0.0065 -0.5631
  483MOL0     N66568   8.445   6.111   9.656  0.1148  0.1825  0.1567
  483MOL0     C66569   7.382   6.068   9.938  0.3891  0.7928  0.1253
  483MOL0     C66570   7.264   6.123   9.999 -0.2470  0.4104  0.4339
  483MOL0     C66571   6.825   6.209  10.060  0.0660 -0.8872  0.1375
  483MOL0     C66572   6.780   6.348  10.059 -0.1109 -0.3397 -0.2372
  483MOL0     C66573   6.659   6.384  10.122 -0.0585 -0.2589  0.2260
  483MOL0     C66574   6.576   6.285  10.181 -0.4883  0.1050 -0.5003
  483MOL0     O66575   6.464   6.338  10.252 -0.6537  0.0952 -0.0387
  483MOL0     C66576   6.376   6.252  10.319  0.8928  0.5145 -0.3234
  483MOL0     C66577   6.247   6.321  10.363  0.3885 -0.6046  0.1806
  483MOL0     C66578   6.161   6.376  10.247 -0.4850  0.4221 -0.6185
  483MOL0     C66579   6.167   6.526  10.245 -0.1194  0.1575 -0.3518
  483MOL0     C66580   6.075   6.572  10.138 -0.2486 -0.0546  0.4957
  483MOL0     C66581   6.010   6.624  10.054 -0.1695  0.9812 -0.9232
  483MOL0     C66582   6.619   6.155  10.181 -0.5162  0.2057 -0.0997
  483MOL0     C66583   6.746   6.116  10.136 -0.4562  0.2390 -0.1047
  483MOL0     C66584   6.791   5.965  10.153 -0.1479 -0.8381 -0.0187
  483MOL0     H66585   7.100   6.218   9.714 -0.1010 -0.3876 -0.0493
  483MOL0     H66586   7.334   6.190   9.621  1.1843  0.2541  0.9696
  483MOL0     H66587   7.519   6.125   9.542 -0.1644  0.4403  0.1234
  483MOL0     H66588   7.464   5.970   9.562 -2.1018  1.4919 -0.2740
  483MOL0     H66589   7.718   5.943   9.671  2.3550  2.2189 -0.0091
  483MOL0     H66590   7.662   5.898   9.510 -0.1995  2.1756 -0.8468
  483MOL0     H66591   7.731   6.115   9.419  1.5084  2.0934  0.3175
  483MOL0     H66592   7.755   6.180   9.567 -3.7063 -0.2993 -0.5783
  483MOL0     H66593   7.945   5.987   9.581  2.5995  0.6760 -0.4058
  483MOL0     H66594   7.922   5.969   9.406 -0.2816  0.5991 -0.2311
  483MOL0     H66595   7.982   6.227   9.548  1.4553 -1.8193  1.2261
  483MOL0     H66596   7.984   6.218   9.373 -0.7098  1.9416  0.8392
  483MOL0     H66597   8.146   6.049   9.557 -1.8489 -0.7460  0.2698
  483MOL0     H66598   8.169   6.055   9.389 -1.0667 -0.5761  0.7774
  483MOL0     H66599   8.227   6.262   9.595  0.4650 -0.2992  0.8620
  483MOL0     H66600   8.192   6.317   9.430 -0.0590  0.1712  0.0672
  483MOL0     H66601   8.382   6.125   9.376  0.6468  0.5457 -0.7799
  483MOL0     H66602   8.404   6.300   9.378 -0.7039 -0.7622 -0.6526
  483MOL0     H66603   8.651   6.294   9.475 -2.2639 -0.5189 -1.8932
  483MOL0     H66604   8.849   6.252   9.709 -0.4965  0.7051 -0.2428
  483MOL0     H66605   8.843   6.141   9.576 -0.2765  1.7353  0.3322
  483MOL0     H66606   8.809   6.076   9.869 -2.9006 -3.1624 -0.6277
  483MOL0     H66607   8.795   5.951   9.743 -1.0887 -1.3134  2.8897
  483MOL0     H66608   9.036   5.980   9.671  0.2769 -2.9309  0.8385
  483MOL0     H66609   9.052   6.113   9.780 -0.7440 -0.2366  1.2569
  483MOL0     H66610   8.986   5.944   9.966 -0.7369  1.0368  0.2606
  483MOL0     H66611   8.996   5.811   9.852  0.8554 -0.3482  1.4685
  483MOL0     H66612   9.412   5.982   9.829 -1.6090  0.9003 -0.5496
  483MOL0     H66613   9.588   6.288   9.896  0.3986  0.1457 -1.9978
  483MOL0     H66614   9.600   6.149   9.791  3.3157  0.6658  0.4045
  483MOL0     H66615   9.675   6.146   9.950  0.3310  0.4081 -0.3175
  483MOL0     H66616   9.522   6.588  10.174 -0.3768  0.0811  0.7259
  483MOL0     H66617   9.633   6.768  10.308 -0.4508 -0.9404 -3.3610
  483MOL0     H66618   9.804   6.838  10.457  1.3332 -1.4682  1.3403
  483MOL0     H66619   9.667   6.933  10.513 -0.3054 -0.9116 -0.2420
  483MOL0     H66620   9.905   6.968  10.609 -0.4833  2.5635  1.9804
  483MOL0     H66621   9.757   6.996  10.695 -0.8072  0.2386  0.6942
  483MOL0     H66622   9.952   6.754  10.708  0.7815  0.6525 -0.9073
  483MOL0     H66623   9.786   6.771  10.790  0.4610  0.3084 -0.2592
  483MOL0     H66624   9.886   6.955  10.924 -1.0122 -0.6025 -1.2389
  483MOL0     H66625  10.016   6.966  10.807  0.0781 -0.2977  0.7104
  483MOL0     H66626  10.138   6.775  10.897  0.1958 -0.7175  0.9044
  483MOL0     H66627  10.084   6.871  11.027 -0.7692  0.4799  1.2865
  483MOL0     H66628   9.933   6.630  10.926  3.0738 -0.1025 -2.0028
  483MOL0     H66629   9.907   6.703  11.084  0.3791 -1.8900  0.0463
  483MOL0     H66630  10.158   6.549  10.999  0.6615 -2.5826  2.0972
  483MOL0     H66631  10.038   6.513  11.130 -4.5412  3.3810  1.6280
  483MOL0     H66632  10.093   6.725  11.232 -1.1379  0.7013 -2.2147
  483MOL0     H66633  10.237   6.744  11.136 -1.6857  1.9165  0.5700
  483MOL0     H66634   9.594   6.525  10.650  2.6545  3.1962 -0.7260
  483MOL0     H66635   9.471   6.347  10.519 -2.5196  0.2671 -0.7363
  483MOL0     H66636   9.223   6.201  10.222 -2.7221  0.7015 -2.0999
  483MOL0     H66637   9.123   6.030  10.120  1.0703  0.3233  1.0197
  483MOL0     H66638   7.449   6.017  10.007 -0.3368 -0.7956 -0.2989
  483MOL0     H66639   7.251   6.124  10.107  1.0629  3.9192  0.7086
  483MOL0     H66640   6.837   6.426  10.010  3.1335 -0.5226  2.8480
  483MOL0     H66641   6.636   6.490  10.116 -1.0094 -0.3870  1.3106
  483MOL0     H66642   6.348   6.155  10.279  0.3999  0.1143  0.9658
  483MOL0     H66643   6.415   6.236  10.420 -1.5869  1.0294  0.7804
  483MOL0     H66644   6.268   6.402  10.433 -0.3285 -0.0620 -0.2151
  483MOL0     H66645   6.185   6.249  10.417 -2.3489  0.6754 -1.0462
  483MOL0     H66646   6.202   6.341  10.152  2.4036  3.2750 -0.5614
  483MOL0     H66647   6.060   6.337  10.267  0.9348 -2.7539  1.0703
  483MOL0     H66648   6.269   6.555  10.218 -0.8830  2.7309 -0.8359
  483MOL0     H66649   6.135   6.583  10.332 -1.4611  0.9763 -1.3368
  483MOL0     H66650   5.945   6.676   9.987 -2.2878 -0.2674  0.0419
  483MOL0     H66651   6.570   6.076  10.237 -1.4469 -0.2443 -1.5112
  483MOL0     H66652   6.885   5.982  10.206  0.2941  0.4507 -1.1628
  483MOL0     H66653   6.728   5.905  10.219 -1.7125  0.3402 -0.4025
  483MOL0     H66654   6.813   5.906  10.063 -0.2212 -2.8423  1.2341
  484MOL0     O66655   2.137   4.415   9.187 -0.0079  0.8358  0.0818
  484MOL0     C66656   2.037   4.408   9.263 -0.0813 -0.3814  0.1563
  484MOL0     O66657   1.995   4.519   9.321  0.0162  0.1286  0.1410
  484MOL0     C66658   2.055   4.640   9.297  0.1690 -0.3574  0.8880
  484MOL0     C66659   2.037   4.695   9.171  1.2187  0.1730 -1.0872
  484MOL0     C66660   2.103   4.811   9.132 -0.3890  0.1164 -0.7841
  484MOL0     C66661   2.175   4.880   9.229 -0.3331 -0.2254  0.4797
  484MOL0     O66662   2.223   5.003   9.203  0.1424 -0.4109  0.0749
  484MOL0     C66663   2.178   5.090   9.094  0.5359  0.4422 -0.2591
  484MOL0     C66664   2.249   5.058   8.960  0.5682  0.6377 -0.0365
  484MOL0     C66665   2.399   5.101   8.965  0.6744  0.2310 -0.6098
  484MOL0     C66666   2.486   5.014   8.884 -0.3982 -0.1553  0.1245
  484MOL0     C66667   2.626   5.066   8.904  0.7540  0.2065  0.9989
  484MOL0     C66668   2.729   4.983   8.832  0.1812  0.2996  0.9073
  484MOL0     C66669   2.873   5.041   8.833  0.2956 -0.3765 -0.1191
  484MOL0     C66670   2.927   5.021   8.977 -0.3473 -0.1214  0.4796
  484MOL0     N66671   3.052   5.095   8.989 -0.3753 -0.3063  0.3050
  484MOL0     C66672   3.141   5.119   8.879  0.4392 -0.6224 -0.1824
  484MOL0     C66673   3.224   5.224   8.917 -0.6795  0.3114 -0.3865
  484MOL0     C66674   3.365   5.276   8.869  0.1673 -0.5388  0.7130
  484MOL0     C66675   3.449   5.163   8.792  0.0368  0.0815  0.3551
  484MOL0     C66676   3.603   5.197   8.787  0.0695 -0.1283 -0.9523
  484MOL0     C66677   3.675   5.145   8.669 -0.4235 -0.4324 -0.0635
  484MOL0     O66678   3.807   5.200   8.653 -0.7473  0.2634 -0.8240
  484MOL0     C66679   3.884   5.132   8.556 -0.5486  0.2485 -0.5717
  484MOL0     C66680   4.020   5.161   8.565  0.2886 -0.0543  0.3329
  484MOL0     C66681   4.125   5.099   8.487  0.0018  0.9802  0.7847
  484MOL0     C66682   4.262   5.153   8.493 -0.5081  0.9966 -1.0179
  484MOL0     C66683   4.081   4.985   8.403 -0.5826  0.4127  0.0482
  484MOL0     C66684   4.183   4.909   8.317 -0.6663 -0.6282 -0.0531
  484MOL0     O66685   4.172   4.773   8.339 -1.1602 -0.1408  0.2508
  484MOL0     C66686   4.278   4.683   8.334 -0.5462  1.2889  0.3712
  484MOL0     C66687   4.373   4.686   8.230  0.0826 -0.2047  0.5070
  484MOL0     C66688   4.472   4.589   8.219 -0.0151 -1.1126  0.0815
  484MOL0     C66689   4.484   4.492   8.311  0.4161  0.2599 -0.6256
  484MOL0     O66690   4.586   4.400   8.291  0.8149 -0.2423  0.2666
  484MOL0     C66691   4.593   4.276   8.364 -1.3475 -0.6373 -0.2979
  484MOL0     C66692   4.710   4.197   8.289 -0.6379 -0.7040  0.5333
  484MOL0     C66693   4.837   4.258   8.341  0.5717  1.1845  0.7184
  484MOL0     C66694   4.949   4.187   8.273  0.0489  0.8484 -0.4993
  484MOL0     C66695   5.088   4.257   8.296 -0.1631  0.0991 -0.0591
  484MOL0     C66696   5.214   4.169   8.267 -0.2334  0.7061  0.2072
  484MOL0     C66697   5.344   4.248   8.281  0.4477  0.6229 -0.3093
  484MOL0     C66698   5.374   4.280   8.429 -0.2034 -0.1743  0.7469
  484MOL0    Cl66699   5.467   4.147   8.503 -0.1183 -0.0422  0.6998
  484MOL0     C66700   4.383   4.480   8.413  0.0755  0.6021  0.4133
  484MOL0     C66701   4.277   4.565   8.415  0.1471  0.1639  0.0199
  484MOL0     O66702   4.270   4.966   8.248 -0.2295 -0.4848  0.0064
  484MOL0     C66703   3.943   4.962   8.392  0.7029  0.6289  0.4448
  484MOL0     C66704   3.847   5.042   8.454 -0.7574  0.2622 -0.1640
  484MOL0     N66705   3.167   5.268   9.038  0.0008  0.1331 -0.5570
  484MOL0     N66706   3.063   5.197   9.075  0.1374  1.0143 -0.0410
  484MOL0     C66707   2.181   4.825   9.359  0.1831  0.4387  1.5693
  484MOL0     C66708   2.135   4.697   9.393  0.3138  0.3156  0.1773
  484MOL0     C66709   1.958   4.278   9.281 -0.9274 -0.7788 -0.2792
  484MOL0     C66710   1.868   4.280   9.385  0.5240  0.1822 -0.1367
  484MOL0     C66711   1.798   4.170   9.429  0.4173 -0.5110 -0.2432
  484MOL0     C66712   1.813   4.050   9.361 -0.3641 -0.5670  0.6519
  484MOL0     O66713   1.737   3.937   9.375 -0.2422  0.1808 -0.2949
  484MOL0     C66714   1.602   3.955   9.430  0.2666 -0.2149  0.3936
  484MOL0     C66715   1.512   4.047   9.343 -0.1454  0.5460 -1.1969
  484MOL0     C66716   1.371   4.038   9.423  0.5380  0.6485  0.1390
  484MOL0     C66717   1.266   3.935   9.365  0.1274 -0.8976  0.6179
  484MOL0     C66718   1.138   3.955   9.430 -0.0315 -1.4766 -0.6050
  484MOL0     C66719   1.036   3.982   9.487 -0.0928  0.8633  0.2294
  484MOL0     C66720   1.911   4.046   9.254  0.0995 -0.1247 -0.8677
  484MOL0     C66721   1.978   4.160   9.202 -1.0613  0.1708 -0.3078
  484MOL0     C66722   2.060   4.136   9.075  0.0760 -0.5200  0.3399
  484MOL0     H66723   1.987   4.637   9.095  2.3509 -0.4886 -1.3418
  484MOL0     H66724   2.088   4.861   9.037  2.2507  0.7051 -0.9500
  484MOL0     H66725   2.212   5.193   9.110  3.9683 -0.6782  0.5247
  484MOL0     H66726   2.069   5.093   9.090  0.4996  0.0730  0.3916
  484MOL0     H66727   2.239   4.955   8.927 -0.0925  1.0650 -1.2465
  484MOL0     H66728   2.193   5.121   8.890 -0.4211 -0.6559 -0.4375
  484MOL0     H66729   2.397   5.205   8.931  1.5225  1.5120  2.8512
  484MOL0     H66730   2.430   5.108   9.070 -1.8712 -0.0786  0.2346
  484MOL0     H66731   2.479   4.909   8.915  1.7077 -0.6754 -0.9653
  484MOL0     H66732   2.456   5.010   8.778 -2.2415  0.8161  0.5599
  484MOL0     H66733   2.640   5.077   9.012 -0.0429  2.8353  0.8951
  484MOL0     H66734   2.634   5.164   8.857  1.4425 -0.6247 -0.7107
  484MOL0     H66735   2.726   4.884   8.879 -3.3301  0.3440  1.0834
  484MOL0     H66736   2.695   4.974   8.728  1.3309 -1.0337  0.6178
  484MOL0     H66737   2.874   5.148   8.809 -0.2917 -0.4001 -0.2502
  484MOL0     H66738   2.935   5.000   8.753  1.9779 -0.7815  1.3300
  484MOL0     H66739   2.856   5.061   9.050 -0.7638  0.8644 -0.4330
  484MOL0     H66740   2.937   4.913   8.985  0.9048 -0.1483 -1.1110
  484MOL0     H66741   3.159   5.057   8.792  0.6103  0.4108 -0.9042
  484MOL0     H66742   3.423   5.312   8.954  0.3428  2.1994 -0.4563
  484MOL0     H66743   3.364   5.365   8.806  2.5278  0.0441  1.4206
  484MOL0     H66744   3.453   5.068   8.846  1.6685  0.7161  1.4318
  484MOL0     H66745   3.410   5.154   8.690  2.2215 -1.8547 -0.4035
  484MOL0     H66746   3.627   5.304   8.788  0.5415 -0.2149  1.3044
  484MOL0     H66747   3.648   5.152   8.876  0.3971 -0.7858 -1.4444
  484MOL0     H66748   3.679   5.035   8.671 -2.1803 -0.6619 -3.1814
  484MOL0     H66749   3.610   5.181   8.589  0.5859  2.0553  0.1468
  484MOL0     H66750   4.045   5.240   8.635 -0.6380  0.6839 -0.1384
  484MOL0     H66751   4.333   5.071   8.493  0.4085  1.6217  2.8688
  484MOL0     H66752   4.274   5.206   8.588 -1.8139 -0.4987  0.0244
  484MOL0     H66753   4.284   5.224   8.412  1.9220  2.1291  0.5287
  484MOL0     H66754   4.348   4.754   8.149 -0.2117 -1.3007 -0.3482
  484MOL0     H66755   4.533   4.580   8.130 -1.6544  0.7307 -1.2878
  484MOL0     H66756   4.611   4.290   8.471 -1.7332  0.1325 -0.3273
  484MOL0     H66757   4.500   4.222   8.349 -1.3538 -0.7814  0.2390
  484MOL0     H66758   4.716   4.091   8.318  3.9665  0.1165  3.7417
  484MOL0     H66759   4.690   4.207   8.182 -3.1636  0.1316  1.0066
  484MOL0     H66760   4.842   4.249   8.449  0.7116 -1.0515  0.5649
  484MOL0     H66761   4.845   4.361   8.305  0.6431 -0.3161 -4.3196
  484MOL0     H66762   4.924   4.173   8.167 -2.7986  2.0209 -0.0649
  484MOL0     H66763   4.948   4.085   8.312 -0.6093  1.4174  1.0537
  484MOL0     H66764   5.089   4.349   8.236  1.3724  0.3279  0.2562
  484MOL0     H66765   5.094   4.292   8.399  2.3167  0.4963 -0.2675
  484MOL0     H66766   5.205   4.142   8.161  1.0295 -1.3801  0.5723
  484MOL0     H66767   5.220   4.074   8.321  0.7459  1.3659  1.2918
  484MOL0     H66768   5.328   4.346   8.234  1.3122  0.6999 -0.4746
  484MOL0     H66769   5.430   4.199   8.234 -1.6955 -3.1777 -0.6755
  484MOL0     H66770   5.283   4.299   8.485 -1.0240 -1.2149 -0.1849
  484MOL0     H66771   5.444   4.363   8.442  0.3577 -0.1838 -1.6259
  484MOL0     H66772   4.380   4.396   8.482  0.2493  0.8137  0.6815
  484MOL0     H66773   4.198   4.540   8.485  1.1044 -2.3892  0.2687
  484MOL0     H66774   3.910   4.876   8.334 -0.6136  1.4651 -0.0989
  484MOL0     H66775   3.745   5.021   8.424 -0.6583 -1.2665  0.4733
  484MOL0     H66776   2.231   4.886   9.434  2.5542  0.1384  0.3485
  484MOL0     H66777   2.140   4.647   9.489  1.8458 -0.4797 -0.2802
  484MOL0     H66778   1.847   4.362   9.453 -1.0290  0.5273 -0.9808
  484MOL0     H66779   1.719   4.182   9.503 -0.5119  0.5968 -1.3616
  484MOL0     H66780   1.555   3.856   9.430 -2.1552  0.8694  0.0932
  484MOL0     H66781   1.604   3.987   9.535 -4.0575  0.3811  0.4697
  484MOL0     H66782   1.517   4.019   9.238  1.5838  0.6182 -1.1578
  484MOL0     H66783   1.541   4.151   9.356  0.8419 -0.0867  4.1062
  484MOL0     H66784   1.386   4.015   9.529 -2.3649 -0.1134  0.4661
  484MOL0     H66785   1.323   4.135   9.409 -1.4048 -0.4969 -1.8184
  484MOL0     H66786   1.299   3.832   9.382 -0.6478 -1.3794 -0.6824
  484MOL0     H66787   1.253   3.952   9.258 -0.3486  2.7043  1.1072
  484MOL0     H66788   0.944   4.018   9.528 -1.3923  1.1685 -2.7456
  484MOL0     H66789   1.918   3.944   9.216 -1.6929 -0.6840  0.1987
  484MOL0     H66790   2.030   4.038   9.037 -1.4876 -0.8763  2.3244
  484MOL0     H66791   2.041   4.224   9.012 -4.8691  0.5455  2.7623
  484MOL0     H66792   2.166   4.126   9.099 -0.4912 -3.9694  2.0000
  485MOL0     O66793   3.276   7.844   4.447  0.5702  0.4154 -0.2956
  485MOL0     C66794   3.274   7.961   4.409  1.4014  0.4804 -0.0826
  485MOL0     O66795   3.388   8.030   4.370 -0.6210 -0.5174 -0.1787
  485MOL0     C66796   3.503   7.958   4.358  0.5784 -0.1680 -0.1837
  485MOL0     C66797   3.512   7.857   4.260 -0.6892 -0.0125  0.7900
  485MOL0     C66798   3.620   7.770   4.251 -0.6114  0.6441 -0.5961
  485MOL0     C66799   3.731   7.797   4.337 -0.5556  0.3008  0.7991
  485MOL0     O66800   3.831   7.700   4.332 -0.0453 -0.1382  0.4852
  485MOL0     C66801   3.908   7.679   4.452 -0.8490  0.1201  0.4553
  485MOL0     C66802   4.001   7.563   4.426  0.1088  0.5571  0.1510
  485MOL0     C66803   4.098   7.594   4.311  0.6727  0.5369  0.3062
  485MOL0     C66804   4.183   7.722   4.332 -0.1974 -0.2586  0.6399
  485MOL0     C66805   4.304   7.730   4.228  0.6080 -0.0368  0.4460
  485MOL0     C66806   4.385   7.854   4.252 -0.0381 -0.6475  0.7226
  485MOL0     C66807   4.522   7.853   4.190  0.4236 -0.2429 -0.2767
  485MOL0     C66808   4.584   7.991   4.191 -0.6757 -0.4761  0.4438
  485MOL0     N66809   4.723   7.988   4.159 -0.6854 -0.7494 -0.4294
  485MOL0     C66810   4.774   8.001   4.032 -0.6277 -0.3447  0.0715
  485MOL0     C66811   4.906   8.028   4.047  0.6017 -0.6606  0.5866
  485MOL0     C66812   5.010   8.054   3.939 -0.1333 -0.0193  0.2333
  485MOL0     C66813   5.058   8.204   3.941 -0.7130  0.5972 -0.0172
  485MOL0     C66814   5.174   8.226   4.039 -0.2340  0.0657 -0.3369
  485MOL0     C66815   5.316   8.193   3.976 -0.3949  0.6716  0.1109
  485MOL0     O66816   5.337   8.246   3.846 -0.7209 -0.3354  0.0014
  485MOL0     C66817   5.470   8.265   3.819 -0.3115 -0.4231 -0.0265
  485MOL0     C66818   5.573   8.177   3.860 -0.2491  0.6272 -0.8806
  485MOL0     C66819   5.700   8.198   3.832 -0.1634 -1.1068  0.9294
  485MOL0     C66820   5.809   8.098   3.877  0.8849  0.1205  0.0122
  485MOL0     C66821   5.747   8.312   3.759  1.6871 -0.9460 -0.8343
  485MOL0     C66822   5.890   8.348   3.745 -0.4568 -0.3740  0.4104
  485MOL0     O66823   5.974   8.334   3.846  0.2664  0.1709 -0.1603
  485MOL0     C66824   6.109   8.343   3.828 -0.6125  0.5433 -0.7618
  485MOL0     C66825   6.184   8.229   3.783  0.9347  0.0530 -0.0930
  485MOL0     C66826   6.322   8.241   3.767  0.1250  1.0710  0.3975
  485MOL0     C66827   6.392   8.350   3.811 -0.5767 -0.2830  0.8437
  485MOL0     O66828   6.524   8.336   3.785 -0.2932 -0.5289 -0.8473
  485MOL0     C66829   6.601   8.452   3.763  0.5406 -0.4830  0.1059
  485MOL0     C66830   6.752   8.433   3.742  0.9113  0.4932  0.4909
  485MOL0     C66831   6.844   8.398   3.863  0.1649 -0.3147  0.6165
  485MOL0     C66832   6.806   8.267   3.924  0.5446 -0.4267 -0.0253
  485MOL0     C66833   6.911   8.184   4.003  0.0704  0.0296 -0.8859
  485MOL0     C66834   6.997   8.093   3.915  0.0030  0.4033 -0.6693
  485MOL0     C66835   7.119   8.030   3.994  0.0167  0.8588 -1.1193
  485MOL0     C66836   7.225   7.980   3.898  0.6377 -0.3547  0.1747
  485MOL0    Cl66837   7.324   7.860   3.982  0.1302 -0.1158  0.2263
  485MOL0     C66838   6.319   8.457   3.856 -0.5093 -0.1288  0.4888
  485MOL0     C66839   6.179   8.459   3.867  0.2606  0.7318  0.1133
  485MOL0     O66840   5.921   8.391   3.633  1.1769  0.3235 -0.7170
  485MOL0     C66841   5.652   8.406   3.719  0.4613  0.3700  0.5342
  485MOL0     C66842   5.510   8.389   3.757 -0.6008  0.3419  0.1572
  485MOL0     N66843   4.937   8.027   4.182  0.5400 -0.5107 -0.1761
  485MOL0     N66844   4.828   8.010   4.248  0.0088  0.4277  0.2538
  485MOL0     C66845   3.727   7.902   4.425  0.5558 -1.0503 -0.8045
  485MOL0     C66846   3.604   7.979   4.445  0.1508  0.0812  0.6217
  485MOL0     C66847   3.138   8.029   4.399 -0.4682  0.9013  0.5948
  485MOL0     C66848   3.144   8.164   4.358 -0.9226  0.4989  0.1306
  485MOL0     C66849   3.028   8.236   4.340  0.3179  0.5693 -1.0015
  485MOL0     C66850   2.904   8.179   4.365 -0.0926 -0.1424 -0.2439
  485MOL0     O66851   2.783   8.241   4.347  0.1437  0.0209 -0.0598
  485MOL0     C66852   2.757   8.301   4.222  0.3691  0.6229 -0.1362
  485MOL0     C66853   2.617   8.282   4.163  0.2173 -0.7795 -0.2722
  485MOL0     C66854   2.602   8.337   4.018 -0.3402  0.5881 -0.0969
  485MOL0     C66855   2.459   8.314   3.963 -0.2551 -0.5279  0.5904
  485MOL0     C66856   2.355   8.377   4.042 -0.2278 -0.1375  0.2304
  485MOL0     C66857   2.265   8.417   4.115 -1.1357 -0.2882  1.1402
  485MOL0     C66858   2.896   8.047   4.400  0.3547 -0.1736 -0.2158
  485MOL0     C66859   3.010   7.968   4.425  0.0258 -0.0542 -0.2042
  485MOL0     C66860   2.990   7.824   4.460  0.5521  0.1954 -0.2021
  485MOL0     H66861   3.419   7.840   4.208 -1.3886  1.1012  1.6330
  485MOL0     H66862   3.621   7.681   4.190 -0.0277  1.3993 -1.7187
  485MOL0     H66863   3.838   7.652   4.531  0.2702 -2.0922  0.7567
  485MOL0     H66864   3.963   7.768   4.483 -1.5467  2.6478 -4.4593
  485MOL0     H66865   4.045   7.529   4.520  0.5589  0.0791 -0.2298
  485MOL0     H66866   3.955   7.473   4.381  3.0213 -0.0632 -1.8525
  485MOL0     H66867   4.148   7.499   4.289 -0.8800 -0.2133 -0.0706
  485MOL0     H66868   4.047   7.618   4.218 -2.3020  1.2539  1.9975
  485MOL0     H66869   4.122   7.813   4.334  1.8041  1.3612 -2.7341
  485MOL0     H66870   4.215   7.704   4.435 -1.0524 -0.9268  0.8024
  485MOL0     H66871   4.275   7.712   4.124 -1.3532  2.3041  0.4912
  485MOL0     H66872   4.370   7.647   4.254 -0.0583 -0.1614  1.8735
  485MOL0     H66873   4.331   7.943   4.222 -0.0850 -0.1668  2.1610
  485MOL0     H66874   4.401   7.871   4.359  0.1110 -2.7186  1.0892
  485MOL0     H66875   4.515   7.829   4.084  0.7288  0.0458 -0.3659
  485MOL0     H66876   4.583   7.773   4.233  0.0019 -1.2402 -1.4586
  485MOL0     H66877   4.539   8.067   4.126  1.5498  0.4774 -0.0566
  485MOL0     H66878   4.584   8.022   4.296  2.8306  0.2151  0.3412
  485MOL0     H66879   4.721   7.977   3.940  1.0030  3.2474 -2.0289
  485MOL0     H66880   4.971   8.032   3.839  0.1325 -0.8932  0.3140
  485MOL0     H66881   5.086   7.978   3.960  1.5297  1.6303  0.4467
  485MOL0     H66882   5.097   8.225   3.841 -3.4867  0.4341 -1.2190
  485MOL0     H66883   4.978   8.279   3.948  0.1591  1.9880 -3.0069
  485MOL0     H66884   5.175   8.331   4.069 -2.9279 -0.2443  1.1364
  485MOL0     H66885   5.150   8.171   4.130  0.2295  1.0353  0.3873
  485MOL0     H66886   5.394   8.217   4.048  2.1678 -2.9166 -1.1917
  485MOL0     H66887   5.323   8.085   3.962  2.0493  0.6862  0.8610
  485MOL0     H66888   5.549   8.082   3.907 -0.2462  2.0815  2.3101
  485MOL0     H66889   5.775   8.009   3.932 -3.3030  0.9920 -0.8143
  485MOL0     H66890   5.865   8.154   3.953 -1.7421  0.5856  1.7591
  485MOL0     H66891   5.872   8.070   3.792  1.9447  2.9997 -0.2756
  485MOL0     H66892   6.119   8.143   3.768  0.1390  1.1080 -3.9695
  485MOL0     H66893   6.372   8.166   3.707 -1.0265  0.3835  0.2588
  485MOL0     H66894   6.563   8.495   3.670  1.8641 -1.1176 -0.7547
  485MOL0     H66895   6.583   8.521   3.847 -2.3818  0.6855 -1.3520
  485MOL0     H66896   6.777   8.370   3.656  1.8622  0.9046  0.4551
  485MOL0     H66897   6.782   8.533   3.711  2.0853  0.2514  0.8176
  485MOL0     H66898   6.840   8.486   3.926  0.5602  0.8251 -0.8909
  485MOL0     H66899   6.950   8.398   3.837 -0.3616  1.2193 -1.9267
  485MOL0     H66900   6.764   8.208   3.842 -1.5822  0.7996  0.1179
  485MOL0     H66901   6.716   8.279   3.985  0.5616  0.3610 -0.1501
  485MOL0     H66902   6.983   8.249   4.054  0.4461  0.4146 -1.8911
  485MOL0     H66903   6.863   8.118   4.077  1.8882  0.8092  1.1012
  485MOL0     H66904   7.039   8.149   3.830  1.9201 -1.2735 -0.9058
  485MOL0     H66905   6.943   8.008   3.873  0.7737 -1.2374  1.5005
  485MOL0     H66906   7.083   7.941   4.048  0.4928 -0.4384 -2.8404
  485MOL0     H66907   7.166   8.091   4.072  3.5323 -2.1505 -0.5930
  485MOL0     H66908   7.296   8.061   3.877 -1.9980  1.9834 -0.2952
  485MOL0     H66909   7.184   7.939   3.806 -4.8164  1.4494  1.4336
  485MOL0     H66910   6.374   8.549   3.875  1.3334 -1.3488  1.4250
  485MOL0     H66911   6.127   8.545   3.906  1.8561  1.4740  0.7074
  485MOL0     H66912   5.698   8.490   3.668  2.3126 -2.2097 -2.3640
  485MOL0     H66913   5.444   8.475   3.749 -0.3374  0.7427  1.8022
  485MOL0     H66914   3.805   7.937   4.492  0.5435  0.8377 -1.7101
  485MOL0     H66915   3.583   8.051   4.522  0.4651  1.2363 -0.3367
  485MOL0     H66916   3.241   8.208   4.338 -0.3293 -1.3113 -1.2164
  485MOL0     H66917   3.036   8.341   4.313  1.7017  1.1162  1.2193
  485MOL0     H66918   2.762   8.409   4.242 -1.9495  0.4516  1.7037
  485MOL0     H66919   2.837   8.262   4.157  0.1149 -0.1797  0.0214
  485MOL0     H66920   2.540   8.320   4.231 -1.2605 -0.3942 -2.0908
  485MOL0     H66921   2.595   8.175   4.158 -0.5017 -0.6393 -0.2787
  485MOL0     H66922   2.605   8.446   4.017 -0.7163  0.6104  0.4958
  485MOL0     H66923   2.681   8.294   3.955 -0.4979  0.0583  0.0588
  485MOL0     H66924   2.442   8.208   3.944 -0.1886 -0.4982  0.3574
  485MOL0     H66925   2.455   8.363   3.865  1.6740  1.1328  1.2535
  485MOL0     H66926   2.188   8.448   4.182 -3.0248 -5.2593  1.6807
  485MOL0     H66927   2.798   8.000   4.403 -0.3584  1.2087 -0.8378
  485MOL0     H66928   2.963   7.810   4.565 -0.3499 -0.3194 -0.4874
  485MOL0     H66929   2.901   7.779   4.414 -0.4057 -0.3557  2.0099
  485MOL0     H66930   3.071   7.754   4.439 -0.6285 -1.2216 -0.2275
  486MOL0     O66931   5.181   3.366   8.759  0.1906  0.2671  0.5569
  486MOL0     C66932   5.133   3.476   8.739 -0.0397 -1.0787  0.5687
  486MOL0     O66933   5.197   3.583   8.679 -0.3684  0.7233  0.2644
  486MOL0     C66934   5.328   3.566   8.666 -0.2217 -0.5223  0.7621
  486MOL0     C66935   5.380   3.548   8.534 -0.0324 -0.0438 -0.1905
  486MOL0     C66936   5.519   3.543   8.508 -0.1243  0.8581 -0.0422
  486MOL0     C66937   5.613   3.539   8.613  0.0341 -0.0410  0.6016
  486MOL0     O66938   5.749   3.518   8.595 -0.2248 -0.1329  0.1738
  486MOL0     C66939   5.783   3.415   8.512 -0.1251  0.4863 -0.6578
  486MOL0     C66940   5.927   3.362   8.551  0.6271 -0.6572  0.4306
  486MOL0     C66941   6.045   3.449   8.518  0.7981  0.3062 -0.4302
  486MOL0     C66942   6.180   3.396   8.574  0.2241 -0.0015  0.4798
  486MOL0     C66943   6.283   3.513   8.598  0.4649 -0.1149  0.2643
  486MOL0     C66944   6.237   3.610   8.711 -0.5642 -0.2936  0.3480
  486MOL0     C66945   6.360   3.704   8.757 -0.5004 -1.1074  0.0747
  486MOL0     C66946   6.323   3.812   8.860  0.3457 -0.1508 -0.7269
  486MOL0     N66947   6.437   3.903   8.874  0.3731 -0.7030 -1.0479
  486MOL0     C66948   6.439   4.040   8.879 -0.4947  0.0892  0.2458
  486MOL0     C66949   6.561   4.074   8.923 -1.1905 -0.4805 -0.1511
  486MOL0     C66950   6.600   4.222   8.940  0.6278  0.3887  0.2647
  486MOL0     C66951   6.671   4.285   8.815  0.2491  0.4522  0.2399
  486MOL0     C66952   6.796   4.217   8.758  0.8562 -0.2718 -0.0459
  486MOL0     C66953   6.895   4.326   8.715  0.1006  0.1067 -0.0978
  486MOL0     O66954   6.989   4.249   8.639 -0.4532  0.1360  0.2274
  486MOL0     C66955   7.116   4.303   8.620  0.5185  0.4715 -0.9393
  486MOL0     C66956   7.204   4.209   8.572 -0.9590 -0.4776  0.5340
  486MOL0     C66957   7.336   4.252   8.540  0.2861  0.3371  0.1430
  486MOL0     C66958   7.431   4.147   8.495  0.0079 -0.0765  0.6372
  486MOL0     C66959   7.377   4.395   8.558  0.1267  0.3331  0.2482
  486MOL0     C66960   7.515   4.459   8.526  0.4415  0.3006 -0.2901
  486MOL0     O66961   7.616   4.383   8.491 -0.6153  0.1226 -0.2257
  486MOL0     C66962   7.741   4.441   8.470  0.1536  0.1933 -0.1721
  486MOL0     C66963   7.821   4.410   8.354 -0.0510  0.2850  0.6001
  486MOL0     C66964   7.946   4.471   8.348  0.3390  0.4905  0.7317
  486MOL0     C66965   7.995   4.567   8.434 -0.0166  0.0080  0.2471
  486MOL0     O66966   8.121   4.614   8.435 -0.4092 -0.2037  0.5094
  486MOL0     C66967   8.180   4.612   8.299  0.8943 -0.4662 -0.7869
  486MOL0     C66968   8.299   4.704   8.300  0.0802  0.1050  0.2532
  486MOL0     C66969   8.366   4.706   8.165 -0.6538 -0.7265 -0.2707
  486MOL0     C66970   8.505   4.784   8.180 -0.1560  0.2915  0.3840
  486MOL0     C66971   8.586   4.780   8.042 -0.3051 -0.0109 -0.6789
  486MOL0     C66972   8.543   4.870   7.924 -0.4734 -0.9769  0.6004
  486MOL0     C66973   8.603   5.008   7.945  0.4789 -0.4795  0.0532
  486MOL0     C66974   8.555   5.125   7.855 -0.7501 -0.4195 -0.3063
  486MOL0    Cl66975   8.374   5.180   7.876  0.2741 -0.4343  0.1364
  486MOL0     C66976   7.915   4.604   8.533  1.3977 -0.2385  0.2808
  486MOL0     C66977   7.791   4.536   8.555 -0.1389 -0.2310 -0.1754
  486MOL0     O66978   7.512   4.587   8.519 -1.0502  0.4941 -0.3575
  486MOL0     C66979   7.281   4.486   8.613  0.4800  0.0452  0.5741
  486MOL0     C66980   7.152   4.439   8.636  0.1701 -0.0794  0.3479
  486MOL0     N66981   6.641   3.963   8.962  0.3188 -0.2004  0.5842
  486MOL0     N66982   6.563   3.865   8.924 -0.0049  0.3775  0.5798
  486MOL0     C66983   5.560   3.546   8.744  0.1223  0.4303  0.2155
  486MOL0     C66984   5.422   3.567   8.773  0.8723 -0.5185  0.6417
  486MOL0     C66985   4.976   3.485   8.770  0.1784  0.0855  0.6373
  486MOL0     C66986   4.916   3.590   8.701 -0.0523 -0.3308 -0.3191
  486MOL0     C66987   4.773   3.611   8.726  0.2221 -0.1403  0.2055
  486MOL0     C66988   4.704   3.541   8.824  0.0125  0.1957  0.3239
  486MOL0     O66989   4.570   3.578   8.858 -0.8147  0.3697  0.4300
  486MOL0     C66990   4.496   3.468   8.918  0.4023 -1.2086 -0.9648
  486MOL0     C66991   4.350   3.515   8.932  0.6889  0.8647 -0.1278
  486MOL0     C66992   4.328   3.637   9.013 -0.6928 -0.6290  0.4447
  486MOL0     C66993   4.180   3.667   9.015 -0.0442  0.0363 -0.7391
  486MOL0     C66994   4.109   3.555   9.077  0.7245  0.3220 -0.3650
  486MOL0     C66995   4.061   3.452   9.127  0.1914 -0.3550  0.3496
  486MOL0     C66996   4.776   3.437   8.896 -0.4495  0.4682  0.2286
  486MOL0     C66997   4.909   3.417   8.871  0.0308  0.4033 -0.5186
  486MOL0     C66998   4.975   3.312   8.962  0.1873  0.0210  0.3080
  486MOL0     H66999   5.296   3.550   8.465  0.8028  0.1860 -1.2257
  486MOL0     H67000   5.551   3.533   8.405  1.3405  0.0384  0.4685
  486MOL0     H67001   5.756   3.439   8.409 -1.7637  1.0135 -0.1292
  486MOL0     H67002   5.721   3.327   8.533  0.6407 -0.3742 -1.8555
  486MOL0     H67003   5.934   3.343   8.658  2.6216 -0.4123  0.3871
  486MOL0     H67004   5.945   3.263   8.508 -1.1987 -0.0850 -1.8771
  486MOL0     H67005   6.047   3.462   8.409 -1.6791  0.7786 -0.4848
  486MOL0     H67006   6.035   3.550   8.557 -0.3643  0.4811 -1.1267
  486MOL0     H67007   6.167   3.343   8.668 -5.4259 -0.8533 -0.4342
  486MOL0     H67008   6.232   3.334   8.500 -0.3527  0.5196 -0.3957
  486MOL0     H67009   6.285   3.563   8.501  0.4297 -1.8841 -0.6871
  486MOL0     H67010   6.387   3.482   8.617  0.4719 -0.1808  0.1180
  486MOL0     H67011   6.158   3.671   8.665  2.7286  2.9070 -1.6215
  486MOL0     H67012   6.195   3.543   8.787 -1.0545  0.8110  1.0819
  486MOL0     H67013   6.401   3.761   8.673 -1.8112 -0.7936 -0.3726
  486MOL0     H67014   6.447   3.648   8.795  0.0036  0.0545  0.6592
  486MOL0     H67015   6.230   3.866   8.839 -0.8386  0.3063  4.3368
  486MOL0     H67016   6.294   3.760   8.952 -1.8266  0.9032 -0.7316
  486MOL0     H67017   6.362   4.101   8.833 -0.6400 -0.7735 -0.6822
  486MOL0     H67018   6.660   4.228   9.030  1.0503 -0.5456  0.0603
  486MOL0     H67019   6.510   4.283   8.952 -0.2041  0.0910 -3.3402
  486MOL0     H67020   6.591   4.296   8.741 -0.3643  1.4674  1.0311
  486MOL0     H67021   6.703   4.387   8.838 -2.3956  2.1737 -2.8808
  486MOL0     H67022   6.823   4.131   8.820 -2.9805 -0.7490  1.1979
  486MOL0     H67023   6.756   4.173   8.666  1.1703 -1.6338  0.4394
  486MOL0     H67024   6.843   4.404   8.658  0.0617  0.7709  0.8257
  486MOL0     H67025   6.934   4.372   8.806 -0.0003 -0.7483  0.3861
  486MOL0     H67026   7.184   4.103   8.555 -0.4917 -0.4694 -0.0960
  486MOL0     H67027   7.377   4.074   8.434 -1.1629  0.0011  1.5439
  486MOL0     H67028   7.476   4.093   8.578  1.9780  2.3571  1.2959
  486MOL0     H67029   7.515   4.188   8.438  1.3273 -1.0536  1.8091
  486MOL0     H67030   7.805   4.348   8.267  3.1573  0.2162 -0.0609
  486MOL0     H67031   8.016   4.447   8.268 -0.6121 -3.8042  0.9115
  486MOL0     H67032   8.217   4.513   8.270 -3.0719 -2.9207  1.5755
  486MOL0     H67033   8.101   4.648   8.232 -2.6519 -1.3147  2.5442
  486MOL0     H67034   8.260   4.803   8.327  1.8511  0.3203  2.3181
  486MOL0     H67035   8.370   4.681   8.380 -0.8633  0.5232  1.2349
  486MOL0     H67036   8.298   4.761   8.099 -0.6149 -0.5752 -0.1848
  486MOL0     H67037   8.384   4.604   8.130  5.2811  0.3007 -1.1092
  486MOL0     H67038   8.571   4.743   8.256 -0.9589 -2.4389 -0.2749
  486MOL0     H67039   8.485   4.885   8.218 -0.9751 -0.0770  0.9456
  486MOL0     H67040   8.683   4.818   8.075 -0.8329  3.4702 -2.6516
  486MOL0     H67041   8.594   4.680   7.999 -0.2230  0.2530 -1.2846
  486MOL0     H67042   8.434   4.873   7.921 -0.5183 -0.9455  1.7142
  486MOL0     H67043   8.573   4.825   7.829  1.7991  0.3416  0.6142
  486MOL0     H67044   8.711   4.986   7.944  0.5448 -0.8351  3.2970
  486MOL0     H67045   8.581   5.041   8.047 -3.2390 -0.1474 -0.7513
  486MOL0     H67046   8.563   5.095   7.750 -3.2477  2.0286 -1.3431
  486MOL0     H67047   8.614   5.216   7.872  0.4858 -1.1808 -0.4282
  486MOL0     H67048   7.954   4.681   8.599  1.3041 -2.9153  3.7277
  486MOL0     H67049   7.745   4.559   8.650  3.4297  1.8697  1.2607
  486MOL0     H67050   7.294   4.592   8.631 -0.3317  0.0958  0.8871
  486MOL0     H67051   7.079   4.511   8.670  0.4871  0.1378  0.5797
  486MOL0     H67052   5.637   3.552   8.821  1.5934 -1.9385 -0.9369
  486MOL0     H67053   5.377   3.574   8.871 -0.2397  2.1769  0.0091
  486MOL0     H67054   4.962   3.648   8.622  0.0222 -0.5093 -0.4051
  486MOL0     H67055   4.712   3.681   8.671  1.4285 -1.6951 -3.3607
  486MOL0     H67056   4.505   3.381   8.852 -0.7307 -0.4919 -2.0866
  486MOL0     H67057   4.536   3.453   9.019  0.8909  2.3092 -0.5243
  486MOL0     H67058   4.306   3.436   8.993  0.4478 -0.8088 -2.3425
  486MOL0     H67059   4.304   3.514   8.832 -2.1130  1.8841  1.0431
  486MOL0     H67060   4.366   3.619   9.114  1.5768  1.1588 -0.0034
  486MOL0     H67061   4.381   3.721   8.966 -2.3542  1.4720  2.1159
  486MOL0     H67062   4.147   3.679   8.911 -0.1279 -0.2259 -0.7451
  486MOL0     H67063   4.167   3.765   9.060 -1.2483  0.2977 -1.6059
  486MOL0     H67064   4.038   3.355   9.165  0.8593 -1.1559 -1.1799
  486MOL0     H67065   4.729   3.387   8.980 -1.9348 -0.1995 -0.9694
  486MOL0     H67066   5.075   3.340   8.998  0.0284 -0.3200  1.0371
  486MOL0     H67067   4.909   3.281   9.043  1.5135  1.5590  2.0609
  486MOL0     H67068   4.985   3.223   8.899 -1.1972 -1.9075  2.6237
  487MOL0     O67069   1.096   6.581   2.940  0.6129 -0.3658  0.2544
  487MOL0     C67070   0.980   6.612   2.960  0.6668  0.4221 -0.2728
  487MOL0     O67071   0.940   6.670   3.076 -1.1130 -0.3191 -0.1198
  487MOL0     C67072   1.023   6.676   3.192  0.8148  0.2011 -0.2944
  487MOL0     C67073   1.171   6.658   3.208 -0.8686  0.0164  0.3143
  487MOL0     C67074   1.231   6.674   3.335  0.5383  0.3451 -0.4290
  487MOL0     C67075   1.166   6.705   3.447 -0.3387  0.5474 -0.5013
  487MOL0     O67076   1.227   6.703   3.582  0.4011  0.5364 -0.3031
  487MOL0     C67077   1.178   6.779   3.692  0.6613 -0.1873 -0.5884
  487MOL0     C67078   1.108   6.696   3.801  0.2870  0.9929  0.1538
  487MOL0     C67079   1.201   6.618   3.888  0.0799 -0.0553  0.8481
  487MOL0     C67080   1.142   6.559   4.017  0.1027  0.5747 -0.4265
  487MOL0     C67081   1.251   6.492   4.102  0.0420 -0.5972 -0.0843
  487MOL0     C67082   1.206   6.422   4.229 -0.1782  0.5233 -0.5929
  487MOL0     C67083   1.087   6.331   4.195 -0.1305  0.1606  0.5266
  487MOL0     C67084   1.044   6.217   4.292 -0.1928 -0.7393 -0.6801
  487MOL0     N67085   1.023   6.270   4.425 -0.2750  0.3958  0.5736
  487MOL0     C67086   0.918   6.346   4.456  0.6722  1.5138  0.2478
  487MOL0     C67087   0.920   6.362   4.590 -0.4367 -0.6082  0.4855
  487MOL0     C67088   0.793   6.403   4.658  0.4145  0.4163  0.2790
  487MOL0     C67089   0.699   6.283   4.678  0.3465  1.2828  0.1877
  487MOL0     C67090   0.662   6.202   4.554  0.1387 -0.1441 -0.8770
  487MOL0     C67091   0.538   6.110   4.579  0.2888  0.0183  0.6460
  487MOL0     O67092   0.528   6.017   4.473 -0.3717  0.1666 -0.9903
  487MOL0     C67093   0.417   5.935   4.458  0.1962  0.1505 -0.6055
  487MOL0     C67094   0.422   5.821   4.377 -0.3221 -0.1771  0.1792
  487MOL0     C67095   0.314   5.731   4.356 -0.5350 -0.1205  0.7689
  487MOL0     C67096   0.337   5.614   4.264 -0.0442  0.7185  0.0937
  487MOL0     C67097   0.187   5.763   4.416  0.2215  0.3285  0.7130
  487MOL0     C67098   0.072   5.674   4.408 -0.7482  0.1304  0.5902
  487MOL0     O67099  -0.032   5.711   4.481  0.4141 -0.2387 -0.1081
  487MOL0     C67100  -0.140   5.631   4.484 -0.0634  0.4712  1.1100
  487MOL0     C67101  -0.253   5.688   4.431  0.1961  1.0653 -0.4051
  487MOL0     C67102  -0.366   5.617   4.430  0.0964  0.2041  0.1034
  487MOL0     C67103  -0.369   5.475   4.472  0.2253 -0.6286  1.0960
  487MOL0     O67104  -0.486   5.405   4.463  0.0433 -0.1977 -0.1627
  487MOL0     C67105  -0.477   5.257   4.495  0.4394  0.1853  0.4256
  487MOL0     C67106  -0.622   5.198   4.516  0.5383 -0.9849 -0.4542
  487MOL0     C67107  -0.598   5.045   4.516  0.6625 -0.7738  0.4556
  487MOL0     C67108  -0.736   4.975   4.533  0.1612  0.0647  0.5007
  487MOL0     C67109  -0.729   4.838   4.579  0.3670  0.0356  0.7956
  487MOL0     C67110  -0.858   4.763   4.573  1.1625 -0.0928  0.3716
  487MOL0     C67111  -0.848   4.618   4.618  0.1344  0.4455  0.3554
  487MOL0     C67112  -0.947   4.573   4.729  1.2520 -0.0802 -0.6767
  487MOL0    Cl67113  -0.986   4.398   4.703  0.1465  0.0473  0.2577
  487MOL0     C67114  -0.254   5.421   4.528 -0.0425  0.3344 -0.0783
  487MOL0     C67115  -0.133   5.491   4.531  0.2782 -0.4701 -0.1628
  487MOL0     O67116   0.075   5.572   4.341 -0.3922 -0.2286  0.1487
  487MOL0     C67117   0.179   5.881   4.489  0.3037 -0.0955 -0.3009
  487MOL0     C67118   0.292   5.963   4.517 -0.1667  0.3536  0.1654
  487MOL0     N67119   1.038   6.312   4.639 -0.3625  0.3593  0.8726
  487MOL0     N67120   1.103   6.267   4.537 -0.1228  0.7716 -0.4930
  487MOL0     C67121   1.023   6.722   3.434  0.0283 -0.0414  0.0074
  487MOL0     C67122   0.956   6.711   3.307  0.0495  0.1224 -0.7228
  487MOL0     C67123   0.887   6.578   2.847 -0.4476 -0.2198 -0.1995
  487MOL0     C67124   0.924   6.492   2.744 -0.0037 -0.3961 -0.3644
  487MOL0     C67125   0.833   6.456   2.642 -0.0579 -0.1117 -0.5254
  487MOL0     C67126   0.713   6.515   2.637  0.2399  0.9002 -0.5494
  487MOL0     O67127   0.604   6.478   2.560  0.6134 -0.4191 -0.5650
  487MOL0     C67128   0.619   6.363   2.481  1.0917  1.2123  0.7476
  487MOL0     C67129   0.501   6.337   2.382  0.0006  0.1776  0.3876
  487MOL0     C67130   0.502   6.429   2.262 -0.3556 -0.6010 -0.0452
  487MOL0     C67131   0.367   6.443   2.200 -0.2639  0.3954 -0.2736
  487MOL0     C67132   0.305   6.318   2.160  0.2414 -0.5258  0.3045
  487MOL0     C67133   0.240   6.223   2.132 -0.3250 -0.7344  0.2875
  487MOL0     C67134   0.674   6.602   2.741 -0.3984 -0.3767 -0.3205
  487MOL0     C67135   0.758   6.634   2.847  0.5752  0.0656  0.1432
  487MOL0     C67136   0.706   6.730   2.953 -0.7826 -0.0218  0.2639
  487MOL0     H67137   1.231   6.633   3.122 -2.5091 -1.7584 -0.3834
  487MOL0     H67138   1.338   6.686   3.349  0.3956  1.7229 -0.4161
  487MOL0     H67139   1.102   6.856   3.672 -0.1217 -0.4243  1.3336
  487MOL0     H67140   1.263   6.843   3.719 -0.0397  0.6792 -0.3631
  487MOL0     H67141   1.058   6.768   3.867 -0.1928  0.4524  0.3865
  487MOL0     H67142   1.043   6.627   3.747  1.8016  0.6430 -1.3065
  487MOL0     H67143   1.241   6.529   3.838 -1.1433  1.3786 -3.0137
  487MOL0     H67144   1.285   6.685   3.907  0.5734  0.2709 -2.1318
  487MOL0     H67145   1.101   6.645   4.070  0.7934  1.8473 -1.8817
  487MOL0     H67146   1.054   6.496   3.999 -0.1608  0.5998  0.6933
  487MOL0     H67147   1.325   6.568   4.130  2.8146 -1.6101 -3.8627
  487MOL0     H67148   1.315   6.427   4.042 -0.0425  0.8591 -1.8328
  487MOL0     H67149   1.288   6.359   4.264 -0.4891 -0.0567 -0.8978
  487MOL0     H67150   1.174   6.485   4.313 -0.3257  1.8706 -1.6228
  487MOL0     H67151   1.103   6.291   4.094 -0.2571  2.5966 -0.5419
  487MOL0     H67152   0.998   6.395   4.190  0.1344  0.4964 -3.4262
  487MOL0     H67153   0.947   6.180   4.258 -0.7824 -1.8607  2.0033
  487MOL0     H67154   1.127   6.147   4.294  0.5327  0.1196  1.0498
  487MOL0     H67155   0.833   6.363   4.391 -0.1234  0.9315  1.1011
  487MOL0     H67156   0.746   6.480   4.597  2.1827  1.3495  0.0299
  487MOL0     H67157   0.813   6.457   4.751 -0.6537 -0.9151  1.3384
  487MOL0     H67158   0.742   6.223   4.759 -1.5730  1.7189  1.5714
  487MOL0     H67159   0.606   6.321   4.720 -0.6016 -1.0673  0.4015
  487MOL0     H67160   0.640   6.275   4.476 -0.7508  1.9749  1.2094
  487MOL0     H67161   0.751   6.146   4.526  0.2180 -0.5327  0.0925
  487MOL0     H67162   0.545   6.052   4.672  2.4885  1.2044  1.3004
  487MOL0     H67163   0.445   6.167   4.590 -0.9788 -1.2727 -2.3393
  487MOL0     H67164   0.518   5.801   4.330 -0.2647  0.4801  0.0060
  487MOL0     H67165   0.426   5.639   4.206 -0.4275  2.1780  0.0787
  487MOL0     H67166   0.257   5.606   4.190 -1.9873  2.6423  1.8359
  487MOL0     H67167   0.347   5.514   4.307 -0.6540  1.1239  1.2249
  487MOL0     H67168  -0.247   5.788   4.388 -2.1057  1.3930 -0.0590
  487MOL0     H67169  -0.452   5.661   4.381  0.0516 -1.2968 -1.2340
  487MOL0     H67170  -0.428   5.200   4.416  1.2580 -1.6201  2.1609
  487MOL0     H67171  -0.421   5.243   4.587  0.1457 -4.1938  0.1190
  487MOL0     H67172  -0.681   5.238   4.599 -1.1951 -2.4734 -0.9161
  487MOL0     H67173  -0.681   5.228   4.429  0.8358  1.0244 -0.0284
  487MOL0     H67174  -0.526   5.024   4.596 -1.2551  1.4179  2.9493
  487MOL0     H67175  -0.555   5.015   4.421  1.4461  1.2834  0.1178
  487MOL0     H67176  -0.780   4.979   4.433 -0.5933 -2.4282  0.6674
  487MOL0     H67177  -0.794   5.040   4.599  1.5774  3.3660 -1.2334
  487MOL0     H67178  -0.661   4.784   4.512 -0.9483 -0.1338 -0.4570
  487MOL0     H67179  -0.698   4.839   4.684 -0.0984  1.1783  0.9390
  487MOL0     H67180  -0.892   4.766   4.469  2.1154 -2.0881 -0.0502
  487MOL0     H67181  -0.930   4.819   4.633 -1.0625  0.2141 -2.3541
  487MOL0     H67182  -0.746   4.605   4.655  0.8627  1.8400 -1.0678
  487MOL0     H67183  -0.860   4.543   4.539  3.3076  0.1280  0.0405
  487MOL0     H67184  -1.041   4.627   4.715  0.3162 -0.7596  2.3226
  487MOL0     H67185  -0.906   4.590   4.829  0.2505  2.1708 -0.5943
  487MOL0     H67186  -0.256   5.326   4.579 -2.8683  0.0929 -0.4683
  487MOL0     H67187  -0.048   5.451   4.584  0.9617 -0.5547 -1.3029
  487MOL0     H67188   0.086   5.894   4.544  0.7243  0.9102  0.1985
  487MOL0     H67189   0.277   6.047   4.584  3.5133  0.4927  0.9963
  487MOL0     H67190   0.967   6.749   3.524 -0.6372  0.7585 -0.6283
  487MOL0     H67191   0.847   6.716   3.311 -0.2703 -4.1506  1.1351
  487MOL0     H67192   1.018   6.441   2.758 -0.3404 -2.3787 -4.0002
  487MOL0     H67193   0.866   6.389   2.563  2.1959  1.5878 -1.1355
  487MOL0     H67194   0.708   6.368   2.418  1.3552 -1.4062  0.7955
  487MOL0     H67195   0.641   6.277   2.546  0.2240 -0.2128 -0.7517
  487MOL0     H67196   0.413   6.362   2.442  0.5597 -0.8580  1.6794
  487MOL0     H67197   0.509   6.231   2.358 -2.8667 -0.6484  2.5653
  487MOL0     H67198   0.536   6.529   2.292  0.3079 -0.6604 -0.5951
  487MOL0     H67199   0.570   6.380   2.192  1.7087  0.1467  1.3445
  487MOL0     H67200   0.384   6.513   2.118  1.6645  0.9519  0.5325
  487MOL0     H67201   0.301   6.487   2.274  1.4898 -0.8202  2.1593
  487MOL0     H67202   0.187   6.133   2.111  1.7014 -1.4331 -2.3659
  487MOL0     H67203   0.568   6.625   2.752 -0.6608 -1.8254  0.4444
  487MOL0     H67204   0.624   6.792   2.914 -1.2800 -0.2891  0.8628
  487MOL0     H67205   0.676   6.669   3.039 -1.0416  0.1855  0.3235
  487MOL0     H67206   0.786   6.803   2.971  0.9646 -1.6507 -0.5641
  488MOL0     O67207   7.191   0.480   1.870  1.2120 -0.2102  0.0900
  488MOL0     C67208   7.165   0.365   1.833 -0.7764  0.4061 -0.0127
  488MOL0     O67209   7.247   0.280   1.775  0.0320 -0.3215  0.3170
  488MOL0     C67210   7.377   0.314   1.786  0.1382 -0.4883  0.4815
  488MOL0     C67211   7.445   0.373   1.676  0.9714  0.2210 -0.3501
  488MOL0     C67212   7.575   0.405   1.677  0.6458 -0.3987 -0.7048
  488MOL0     C67213   7.657   0.378   1.791  0.0247 -0.1281 -0.7190
  488MOL0     O67214   7.791   0.406   1.799  1.0998 -0.6622  0.5277
  488MOL0     C67215   7.826   0.511   1.716 -0.1118  0.6033  0.6946
  488MOL0     C67216   7.967   0.531   1.763  0.4920  0.0403 -0.6166
  488MOL0     C67217   8.073   0.589   1.661 -0.0390 -0.7558  0.0420
  488MOL0     C67218   8.213   0.545   1.701  0.2621 -0.1617 -0.1992
  488MOL0     C67219   8.319   0.589   1.605 -0.1816  0.6485  0.1286
  488MOL0     C67220   8.453   0.558   1.671  0.1606  0.6830  0.8568
  488MOL0     C67221   8.527   0.682   1.714 -0.0409 -0.3851  0.5264
  488MOL0     C67222   8.451   0.752   1.823  0.0052  0.2339 -0.3659
  488MOL0     N67223   8.529   0.857   1.880  0.2199 -0.2979  0.8747
  488MOL0     C67224   8.584   0.956   1.814 -0.1207 -0.4981  0.5487
  488MOL0     C67225   8.652   1.027   1.905  0.0773  0.0876  0.8671
  488MOL0     C67226   8.729   1.160   1.881  0.9049 -0.7252  0.3593
  488MOL0     C67227   8.881   1.129   1.889  0.2458  0.1560 -0.2527
  488MOL0     C67228   8.974   1.239   1.836 -0.0200  0.9571  0.2186
  488MOL0     C67229   9.122   1.192   1.834  0.6786  0.6901  0.0115
  488MOL0     O67230   9.146   1.103   1.729 -1.0549 -0.0292  0.6265
  488MOL0     C67231   9.281   1.112   1.692  0.3427 -0.1459  0.2441
  488MOL0     C67232   9.313   1.129   1.559  0.2468 -0.2565  0.3707
  488MOL0     C67233   9.450   1.121   1.515 -0.0047  0.8206  0.9306
  488MOL0     C67234   9.472   1.137   1.367  0.2632  0.4193  0.1939
  488MOL0     C67235   9.558   1.093   1.604 -0.2437 -0.0374  0.6201
  488MOL0     C67236   9.706   1.076   1.579 -0.6982 -0.8101 -0.5542
  488MOL0     O67237   9.792   1.054   1.688  0.4112 -0.1050 -0.1475
  488MOL0     C67238   9.927   1.069   1.674  0.3499 -0.1565  0.3435
  488MOL0     C67239  10.009   1.023   1.575 -0.0718 -0.5894 -0.0360
  488MOL0     C67240  10.151   1.051   1.576 -0.1050  0.5584 -1.0977
  488MOL0     C67241  10.209   1.114   1.688 -0.0126  0.7217 -0.0577
  488MOL0     O67242  10.344   1.144   1.692 -0.4639  0.2312  0.2269
  488MOL0     C67243  10.428   1.124   1.572  0.1897  0.5740  0.5517
  488MOL0     C67244  10.564   1.190   1.575  0.0226 -0.5931 -0.2528
  488MOL0     C67245  10.643   1.116   1.682 -0.1490 -0.3900 -0.9338
  488MOL0     C67246  10.784   1.178   1.686 -0.5496  0.7624 -0.1496
  488MOL0     C67247  10.863   1.106   1.792 -0.1985  0.0256 -0.2233
  488MOL0     C67248  10.982   1.202   1.837  0.3447  0.0199 -0.6720
  488MOL0     C67249  11.064   1.154   1.957  0.6599 -0.4222 -0.1827
  488MOL0     C67250  11.188   1.219   1.986  0.1581 -0.5541  0.2006
  488MOL0    Cl67251  11.172   1.383   2.067  0.7194  0.2631  0.0350
  488MOL0     C67252  10.127   1.148   1.800 -0.6459 -0.2805  0.3033
  488MOL0     C67253   9.984   1.128   1.789  0.1097  0.1353  0.7426
  488MOL0     O67254   9.746   1.075   1.466 -0.4965  0.7005  0.1169
  488MOL0     C67255   9.520   1.077   1.744  0.6273 -0.5059 -0.4662
  488MOL0     C67256   9.379   1.079   1.784  0.1237 -0.2471 -0.1486
  488MOL0     N67257   8.634   0.967   2.027  0.2150  0.1895 -0.4454
  488MOL0     N67258   8.558   0.866   2.008  0.8621  0.1180 -0.5602
  488MOL0     C67259   7.596   0.305   1.891  1.1589 -0.7135 -0.0614
  488MOL0     C67260   7.457   0.275   1.893 -1.3402  0.7961  0.2194
  488MOL0     C67261   7.028   0.298   1.850 -0.4549  0.2158  0.8699
  488MOL0     C67262   6.979   0.200   1.756  0.2080 -0.7634 -0.2786
  488MOL0     C67263   6.859   0.146   1.772 -0.0261  0.1118  0.4371
  488MOL0     C67264   6.776   0.177   1.881  0.1578 -0.3401 -0.6133
  488MOL0     O67265   6.642   0.129   1.895 -0.5972  0.1570  0.1133
  488MOL0     C67266   6.594   0.031   1.803 -0.3907 -0.9461 -0.2242
  488MOL0     C67267   6.470  -0.048   1.864  0.0926 -0.0850 -0.5707
  488MOL0     C67268   6.342   0.030   1.867  0.4395  0.1478 -0.8973
  488MOL0     C67269   6.221  -0.056   1.897 -0.5457 -0.2273  0.0643
  488MOL0     C67270   6.102   0.030   1.907 -0.0658 -0.2307 -0.0902
  488MOL0     C67271   5.996   0.084   1.934 -0.8577 -0.7467  0.4970
  488MOL0     C67272   6.823   0.261   1.977 -1.5967  0.0911  0.3353
  488MOL0     C67273   6.949   0.322   1.962  0.1198  0.3367 -1.0569
  488MOL0     C67274   6.997   0.412   2.081  0.3476 -0.2172 -0.3076
  488MOL0     H67275   7.386   0.406   1.591 -1.1065  1.2880  1.3783
  488MOL0     H67276   7.607   0.457   1.587  0.1736  2.0207  0.4517
  488MOL0     H67277   7.760   0.597   1.731 -0.4108  0.3290  0.9834
  488MOL0     H67278   7.823   0.467   1.616  0.2017 -2.0513  1.7620
  488MOL0     H67279   7.966   0.602   1.846 -0.0981  0.5561 -1.0575
  488MOL0     H67280   8.011   0.442   1.807  2.5737 -0.4150 -3.3309
  488MOL0     H67281   8.056   0.547   1.562  0.3701 -2.3830  0.6281
  488MOL0     H67282   8.075   0.698   1.651 -0.6915 -0.8503 -1.3120
  488MOL0     H67283   8.240   0.579   1.801  0.3657 -0.9028  0.0275
  488MOL0     H67284   8.228   0.437   1.703  1.4067 -0.0082  1.1157
  488MOL0     H67285   8.311   0.695   1.583  1.8135  0.3092 -2.6615
  488MOL0     H67286   8.301   0.520   1.522  1.3291 -0.6164  0.7834
  488MOL0     H67287   8.432   0.495   1.757 -1.1491 -1.4489 -0.8972
  488MOL0     H67288   8.508   0.499   1.596  0.9358  2.0560  0.2950
  488MOL0     H67289   8.546   0.751   1.631  1.6815  0.5796  1.6700
  488MOL0     H67290   8.625   0.654   1.755 -0.7670 -1.4897  1.5762
  488MOL0     H67291   8.360   0.789   1.774  0.0238  0.6041 -0.1278
  488MOL0     H67292   8.418   0.683   1.902  3.9319  0.6736  1.9558
  488MOL0     H67293   8.558   0.994   1.715  2.9498 -0.6977 -0.4268
  488MOL0     H67294   8.705   1.234   1.957 -3.6009 -0.1339 -1.3373
  488MOL0     H67295   8.699   1.195   1.782 -0.4087 -0.1041  0.9518
  488MOL0     H67296   8.910   1.107   1.992  1.3592 -2.8239 -1.0890
  488MOL0     H67297   8.890   1.029   1.845 -0.6122 -0.1024  0.1331
  488MOL0     H67298   8.942   1.275   1.738  1.2217  2.0671  0.1889
  488MOL0     H67299   8.973   1.324   1.904 -1.0402 -0.9314  2.6803
  488MOL0     H67300   9.187   1.280   1.826 -1.2190  2.1460 -0.1035
  488MOL0     H67301   9.127   1.148   1.934 -1.4896  1.9633  0.7678
  488MOL0     H67302   9.230   1.133   1.490 -0.6735 -0.9304  1.4067
  488MOL0     H67303   9.511   1.046   1.321 -0.9374  1.0635 -2.2459
  488MOL0     H67304   9.542   1.214   1.334  0.7101 -0.3608 -0.7180
  488MOL0     H67305   9.382   1.178   1.319 -0.1344 -2.0342 -1.3170
  488MOL0     H67306   9.962   0.966   1.495 -0.3013 -2.8048  1.6030
  488MOL0     H67307  10.214   1.015   1.495  2.0101 -0.7383  0.9953
  488MOL0     H67308  10.440   1.018   1.548 -0.1387 -0.4149  4.1324
  488MOL0     H67309  10.360   1.173   1.501  0.0785 -0.5394 -0.1252
  488MOL0     H67310  10.611   1.175   1.478 -0.8285  0.2818 -0.8182
  488MOL0     H67311  10.546   1.297   1.591 -2.0505 -0.5845 -2.1222
  488MOL0     H67312  10.654   1.009   1.661  0.0880 -0.0412 -2.6680
  488MOL0     H67313  10.595   1.123   1.780  1.6762 -0.3690  0.0081
  488MOL0     H67314  10.784   1.285   1.705 -0.4242  0.9775 -1.2706
  488MOL0     H67315  10.827   1.168   1.586 -1.4573 -1.9631 -0.3590
  488MOL0     H67316  10.814   1.072   1.884 -0.0290 -1.5668 -0.6900
  488MOL0     H67317  10.910   1.018   1.748 -0.0819  0.2248 -0.5020
  488MOL0     H67318  10.948   1.301   1.869 -0.7270 -1.0697  1.8132
  488MOL0     H67319  11.053   1.215   1.755  0.6806  0.7211 -0.2768
  488MOL0     H67320  11.082   1.048   1.935 -0.2639 -0.8398  0.9462
  488MOL0     H67321  10.996   1.166   2.042 -0.7070 -1.2132 -1.1205
  488MOL0     H67322  11.245   1.228   1.893 -0.3015 -2.6237 -0.3347
  488MOL0     H67323  11.236   1.140   2.043  3.9776  0.6132 -1.0944
  488MOL0     H67324  10.170   1.182   1.894 -0.6355  0.3251  0.0897
  488MOL0     H67325   9.917   1.144   1.873  0.3100  1.4755  0.6814
  488MOL0     H67326   9.603   1.074   1.814  0.0958  0.8328  0.2386
  488MOL0     H67327   9.351   1.056   1.886 -0.2175  2.6096  0.4951
  488MOL0     H67328   7.652   0.265   1.975 -1.2774 -0.5235  1.7742
  488MOL0     H67329   7.424   0.208   1.973  0.1950 -4.1151 -2.8200
  488MOL0     H67330   7.033   0.174   1.666  0.7672 -0.5250 -0.0151
  488MOL0     H67331   6.828   0.085   1.688  0.9084  0.1621  0.0370
  488MOL0     H67332   6.577   0.076   1.705  1.0641 -0.6081 -0.3484
  488MOL0     H67333   6.671  -0.045   1.783 -2.8946 -3.0009 -3.0305
  488MOL0     H67334   6.493  -0.077   1.967 -1.1487  0.6413 -0.0699
  488MOL0     H67335   6.464  -0.134   1.797  0.4866  1.7473 -3.1058
  488MOL0     H67336   6.360   0.112   1.937  1.3796  0.1708 -1.1459
  488MOL0     H67337   6.333   0.081   1.771  1.6268 -2.8916 -2.7654
  488MOL0     H67338   6.230  -0.114   1.989 -1.5545 -0.7241 -0.1442
  488MOL0     H67339   6.207  -0.135   1.824  1.8177 -4.1816  3.4392
  488MOL0     H67340   5.899   0.126   1.952 -0.2119  0.8563  0.4577
  488MOL0     H67341   6.760   0.283   2.063 -1.9186  0.7353 -0.0556
  488MOL0     H67342   7.100   0.385   2.102 -0.1679 -2.2426 -0.1567
  488MOL0     H67343   6.982   0.518   2.055 -1.9471 -0.2835  0.4806
  488MOL0     H67344   6.941   0.393   2.173  1.5498 -2.2872  0.0521
  489MOL0     O67345   1.163   5.950   6.577 -0.1028  0.3973  0.1318
  489MOL0     C67346   1.134   6.022   6.669  0.4337  0.1867  0.3728
  489MOL0     O67347   1.182   6.146   6.694 -0.4368 -0.5911  0.4211
  489MOL0     C67348   1.254   6.205   6.584  0.5648 -0.4962 -0.4741
  489MOL0     C67349   1.184   6.273   6.475  0.5411 -0.5900  0.2069
  489MOL0     C67350   1.253   6.337   6.373 -1.0869 -0.9644  0.7727
  489MOL0     C67351   1.397   6.327   6.363  0.4442 -0.3283 -0.8233
  489MOL0     O67352   1.461   6.380   6.253  0.1690  0.5599  0.4329
  489MOL0     C67353   1.553   6.482   6.274  0.8259 -0.1651 -0.1757
  489MOL0     C67354   1.601   6.543   6.142  0.1350  0.2264 -0.1672
  489MOL0     C67355   1.526   6.668   6.102  0.1333 -0.1165  0.3889
  489MOL0     C67356   1.384   6.617   6.061  0.6473 -0.2971 -0.0151
  489MOL0     C67357   1.321   6.726   5.968 -0.2433  0.1545  0.4864
  489MOL0     C67358   1.169   6.716   5.958  0.1048  0.2756 -0.8703
  489MOL0     C67359   1.094   6.834   5.884 -0.9453  0.4717 -0.4707
  489MOL0     C67360   0.947   6.811   5.878  0.2992  0.2008  1.0466
  489MOL0     N67361   0.873   6.756   5.986 -0.4058 -0.5756 -0.3806
  489MOL0     C67362   0.846   6.625   5.995 -0.4622  0.5445  1.0986
  489MOL0     C67363   0.787   6.613   6.111  0.9148 -0.2146 -0.2818
  489MOL0     C67364   0.753   6.484   6.183  0.0912 -0.1404 -0.0424
  489MOL0     C67365   0.604   6.474   6.169 -0.5214 -0.3984  0.0501
  489MOL0     C67366   0.569   6.341   6.210  0.2835  0.0175  0.1145
  489MOL0     C67367   0.410   6.338   6.221  0.2378 -0.1267 -0.3489
  489MOL0     O67368   0.374   6.216   6.289  0.1913  0.3800 -0.6027
  489MOL0     C67369   0.239   6.175   6.281 -1.4810 -0.3952  0.2715
  489MOL0     C67370   0.205   6.048   6.315  0.4256 -0.1637  0.9123
  489MOL0     C67371   0.077   5.991   6.295  1.0028 -0.9153 -1.0295
  489MOL0     C67372   0.064   5.847   6.329  0.6897  0.1255  0.0058
  489MOL0     C67373  -0.023   6.072   6.242  0.4577  0.5594 -0.5111
  489MOL0     C67374  -0.164   6.030   6.212 -0.8048 -0.0888  0.4484
  489MOL0     O67375  -0.256   6.123   6.215  0.2789 -1.1054  0.2063
  489MOL0     C67376  -0.389   6.094   6.174 -0.7703 -0.9668  0.2705
  489MOL0     C67377  -0.486   6.137   6.270  0.0763 -0.7243 -0.0181
  489MOL0     C67378  -0.618   6.122   6.232 -0.3380 -0.5399  0.2779
  489MOL0     C67379  -0.662   6.068   6.112  0.8675  0.7345 -1.0280
  489MOL0     O67380  -0.800   6.068   6.091  1.0876 -0.1525 -0.2853
  489MOL0     C67381  -0.849   6.005   5.974 -0.2613  0.0971  0.3036
  489MOL0     C67382  -0.995   6.055   5.942 -0.2852 -0.5215 -0.1002
  489MOL0     C67383  -1.066   5.974   5.825 -0.2869  0.1737 -0.2963
  489MOL0     C67384  -1.090   6.059   5.703  0.4866 -0.1846  0.4763
  489MOL0     C67385  -1.010   6.009   5.576  0.9526  0.2107  0.3323
  489MOL0     C67386  -0.860   6.037   5.579 -0.1139 -0.4043  0.8404
  489MOL0     C67387  -0.833   6.188   5.601  0.4749  0.5185 -0.4211
  489MOL0     C67388  -0.689   6.238   5.569  0.6418  0.6122 -0.1258
  489MOL0    Cl67389  -0.580   6.140   5.664  0.2787  0.1027  0.3892
  489MOL0     C67390  -0.568   6.028   6.018  0.2435 -0.5305 -0.3526
  489MOL0     C67391  -0.433   6.037   6.053  0.8120 -0.2153  0.9525
  489MOL0     O67392  -0.189   5.913   6.185  1.1444  0.3416 -0.3434
  489MOL0     C67393   0.010   6.202   6.210  0.3356 -0.7378  0.8857
  489MOL0     C67394   0.131   6.259   6.232 -0.0158 -0.0757  0.5912
  489MOL0     N67395   0.779   6.737   6.173 -0.0652  0.0953  0.9735
  489MOL0     N67396   0.849   6.818   6.103 -0.7424  0.2786 -0.0320
  489MOL0     C67397   1.466   6.267   6.469  0.1601 -0.3314  0.1507
  489MOL0     C67398   1.399   6.205   6.578  0.1636  0.7055  0.2000
  489MOL0     C67399   1.031   5.976   6.775  0.0811  0.1224  0.7709
  489MOL0     C67400   1.009   6.054   6.892  0.1924  0.2213  0.6500
  489MOL0     C67401   0.899   6.035   6.971  0.7027  0.1301  0.4135
  489MOL0     C67402   0.811   5.929   6.954  0.2573 -0.0260  0.1705
  489MOL0     O67403   0.695   5.910   7.026 -0.0596  0.9544  0.2439
  489MOL0     C67404   0.651   6.021   7.103 -0.1825 -0.1094 -0.2197
  489MOL0     C67405   0.496   6.022   7.109 -0.9785 -0.1370  0.6558
  489MOL0     C67406   0.436   5.894   7.169  0.2653 -0.4986 -0.4514
  489MOL0     C67407   0.488   5.841   7.307  0.5916 -0.3811 -0.6610
  489MOL0     C67408   0.396   5.737   7.350 -0.8118 -0.6540  1.1093
  489MOL0     C67409   0.319   5.660   7.388 -0.1780  0.6215  1.0105
  489MOL0     C67410   0.850   5.834   6.857  0.1849  0.3092  0.1756
  489MOL0     C67411   0.952   5.857   6.761  0.2222 -0.3806 -0.2211
  489MOL0     C67412   0.961   5.753   6.650  0.1502  0.2487  0.1256
  489MOL0     H67413   1.076   6.280   6.463  0.6263 -0.3578 -0.4469
  489MOL0     H67414   1.192   6.384   6.297 -0.0289  1.0415  1.0968
  489MOL0     H67415   1.638   6.425   6.313  0.7225 -0.1714  0.0406
  489MOL0     H67416   1.518   6.561   6.341  0.2407  0.9690 -1.7484
  489MOL0     H67417   1.701   6.580   6.164  0.5692 -0.6929 -0.5238
  489MOL0     H67418   1.611   6.467   6.064 -0.7569  1.1559 -1.2158
  489MOL0     H67419   1.503   6.730   6.190  1.2028 -0.0507  0.6289
  489MOL0     H67420   1.578   6.723   6.023  2.3209 -0.7524  1.3232
  489MOL0     H67421   1.377   6.525   6.004 -0.9316 -0.8384  0.9647
  489MOL0     H67422   1.322   6.598   6.149 -0.6511  0.6165 -0.7040
  489MOL0     H67423   1.360   6.717   5.866 -0.9292  0.4487  0.1906
  489MOL0     H67424   1.340   6.826   6.009  2.4802 -0.7048  1.5350
  489MOL0     H67425   1.138   6.623   5.910  1.8219 -0.4847 -0.6032
  489MOL0     H67426   1.135   6.715   6.062 -0.3822 -1.1505 -1.0172
  489MOL0     H67427   1.139   6.831   5.784  0.4861 -2.0214  0.1664
  489MOL0     H67428   1.116   6.925   5.941  2.2474 -0.8243  0.6349
  489MOL0     H67429   0.893   6.900   5.848 -0.5614 -1.0644 -1.4084
  489MOL0     H67430   0.951   6.741   5.794  2.0365 -0.5016  1.6593
  489MOL0     H67431   0.861   6.543   5.924  1.2027  0.9018  1.0086
  489MOL0     H67432   0.795   6.502   6.282  0.1946  0.7473 -0.2382
  489MOL0     H67433   0.813   6.409   6.131  3.5048  3.2770 -1.5877
  489MOL0     H67434   0.564   6.558   6.226  2.3309  0.3649  1.0913
  489MOL0     H67435   0.575   6.491   6.065  0.1265  2.9441  0.3080
  489MOL0     H67436   0.611   6.265   6.143  3.9846  2.4138 -0.5945
  489MOL0     H67437   0.605   6.320   6.311 -0.5827 -1.7643  0.0880
  489MOL0     H67438   0.365   6.426   6.268 -0.9095 -0.4463 -0.8391
  489MOL0     H67439   0.375   6.350   6.118  1.1013  0.9447 -0.5369
  489MOL0     H67440   0.274   5.990   6.374 -0.3778  0.1246  2.1795
  489MOL0     H67441   0.091   5.780   6.247  1.2386 -1.6563  1.5637
  489MOL0     H67442  -0.038   5.829   6.366  0.6593 -0.3772 -0.3160
  489MOL0     H67443   0.132   5.815   6.408 -0.6852 -1.4277  0.6255
  489MOL0     H67444  -0.461   6.170   6.370 -1.1045 -1.3048  0.4957
  489MOL0     H67445  -0.706   6.157   6.286 -0.7408 -1.5640  0.3124
  489MOL0     H67446  -0.790   6.047   5.892 -0.0397  0.9292  0.8825
  489MOL0     H67447  -0.834   5.896   5.976  0.6518  0.2196  1.8509
  489MOL0     H67448  -1.061   6.039   6.028 -0.0054  1.9825  0.6649
  489MOL0     H67449  -0.997   6.162   5.918  1.7105 -0.6665 -1.1147
  489MOL0     H67450  -1.163   5.948   5.867 -0.3804  3.1937  1.6509
  489MOL0     H67451  -1.008   5.883   5.805  0.0320 -0.4650  3.0086
  489MOL0     H67452  -1.082   6.168   5.701  2.5016 -0.2406  1.8379
  489MOL0     H67453  -1.195   6.040   5.679 -0.1911  1.8513  1.5849
  489MOL0     H67454  -1.033   5.902   5.585  0.1579  0.5255  3.2735
  489MOL0     H67455  -1.061   6.048   5.487 -1.1798  2.1201  2.2426
  489MOL0     H67456  -0.825   6.006   5.480 -1.5646 -0.5542  0.3355
  489MOL0     H67457  -0.801   5.981   5.652  1.6435 -0.9615 -0.9041
  489MOL0     H67458  -0.862   6.218   5.702  1.5152  0.1811 -0.0121
  489MOL0     H67459  -0.892   6.247   5.530  2.9052 -0.6226 -3.6557
  489MOL0     H67460  -0.673   6.342   5.600  0.8109  0.2619  0.9979
  489MOL0     H67461  -0.673   6.219   5.462 -1.8672  1.1829 -0.6726
  489MOL0     H67462  -0.594   5.983   5.922  0.8656  0.1053 -0.8281
  489MOL0     H67463  -0.358   6.010   5.980 -1.3854 -1.9353 -0.8099
  489MOL0     H67464  -0.070   6.262   6.168  0.2351 -1.1048  0.5415
  489MOL0     H67465   0.143   6.364   6.205 -0.7702 -0.4212 -1.2920
  489MOL0     H67466   1.573   6.263   6.452 -0.0175 -2.4400 -0.7146
  489MOL0     H67467   1.458   6.160   6.657 -1.5339 -2.0372  0.0475
  489MOL0     H67468   1.064   6.148   6.896  2.3814 -0.5512 -4.0436
  489MOL0     H67469   0.893   6.108   7.051  1.3661  1.6891 -0.8905
  489MOL0     H67470   0.687   6.009   7.206 -0.6936  0.4814  0.0367
  489MOL0     H67471   0.675   6.117   7.057 -1.5763  0.0979 -0.5866
  489MOL0     H67472   0.449   6.046   7.013  1.1337  1.6162 -0.0414
  489MOL0     H67473   0.469   6.106   7.174  2.7881  2.0584 -0.2989
  489MOL0     H67474   0.329   5.917   7.177  0.1320 -0.9645 -0.8859
  489MOL0     H67475   0.442   5.813   7.096  3.8920 -0.8611  0.0407
  489MOL0     H67476   0.500   5.924   7.377 -2.5472  1.9980 -2.6752
  489MOL0     H67477   0.585   5.796   7.282 -0.2846 -2.8886  0.1941
  489MOL0     H67478   0.256   5.584   7.431 -0.0797 -0.8660 -1.3129
  489MOL0     H67479   0.787   5.746   6.844  0.7719 -0.4477  2.0593
  489MOL0     H67480   1.067   5.727   6.642  0.8835  2.5573  1.4525
  489MOL0     H67481   0.905   5.659   6.659 -0.5299  0.5007 -1.1499
  489MOL0     H67482   0.918   5.781   6.553  1.0644  1.6883  0.1067
  490MOL0     O67483  11.083   4.632   3.030 -0.5629 -0.5638  0.7832
  490MOL0     C67484  11.111   4.661   2.909 -0.2847  0.2127 -0.5464
  490MOL0     O67485  11.234   4.707   2.867  0.1996  0.0176 -0.3171
  490MOL0     C67486  11.332   4.753   2.956 -0.4904 -0.5974  0.4922
  490MOL0     C67487  11.430   4.832   2.892 -0.2594  0.2906  0.1964
  490MOL0     C67488  11.528   4.905   2.966 -0.1243  0.6780  0.9013
  490MOL0     C67489  11.533   4.883   3.104 -0.0108  0.3556 -0.0321
  490MOL0     O67490  11.628   4.940   3.189  0.1957  0.9609  0.1045
  490MOL0     C67491  11.758   4.976   3.136 -0.4029 -0.0811  0.2593
  490MOL0     C67492  11.879   4.948   3.235  0.6536  0.5368 -0.1008
  490MOL0     C67493  11.865   5.021   3.362  0.0948  0.1506  0.5617
  490MOL0     C67494  11.995   5.102   3.389  0.0926  0.6406  0.5315
  490MOL0     C67495  11.971   5.204   3.500  0.7916 -0.2080 -1.0667
  490MOL0     C67496  12.094   5.294   3.513  0.0540  1.2203 -0.5054
  490MOL0     C67497  12.074   5.382   3.628 -0.1682  0.7343 -0.2962
  490MOL0     C67498  12.196   5.468   3.670 -0.2988 -0.1784 -0.7566
  490MOL0     N67499  12.166   5.561   3.779  1.0395  0.1525 -0.0352
  490MOL0     C67500  12.099   5.686   3.769 -0.7720  0.4115  0.7832
  490MOL0     C67501  12.106   5.733   3.890  0.9610  0.2863 -0.0219
  490MOL0     C67502  12.027   5.856   3.937 -0.9125  0.2989  1.3318
  490MOL0     C67503  12.099   5.983   3.885  0.2225  0.2242 -0.1191
  490MOL0     C67504  12.251   5.991   3.904 -0.6498 -0.9411 -0.0618
  490MOL0     C67505  12.289   6.070   4.031  0.5237  1.1130  0.0579
  490MOL0     O67506  12.281   5.975   4.137  0.5111 -0.0255  0.3054
  490MOL0     C67507  12.380   5.881   4.129  0.0831  0.3730  0.1465
  490MOL0     C67508  12.508   5.894   4.067 -0.5138 -0.7191 -0.3512
  490MOL0     C67509  12.592   5.783   4.065 -0.3326 -0.9994  0.4389
  490MOL0     C67510  12.730   5.814   4.015 -0.2574  0.8569  0.5877
  490MOL0     C67511  12.559   5.660   4.121 -0.3550 -0.0083 -0.1844
  490MOL0     C67512  12.635   5.529   4.099 -0.2302  0.1893  0.3139
  490MOL0     O67513  12.718   5.514   3.992 -0.7211 -0.1277  0.3763
  490MOL0     C67514  12.789   5.398   3.991  0.5280  0.4346  0.1304
  490MOL0     C67515  12.887   5.363   4.073 -0.3870  0.2067 -0.1865
  490MOL0     C67516  12.967   5.257   4.057 -0.2918 -0.6034  0.0522
  490MOL0     C67517  12.944   5.166   3.951  0.5411 -0.9444 -0.3005
  490MOL0     O67518  13.030   5.061   3.913 -0.4067 -0.2120  0.3793
  490MOL0     C67519  13.144   5.033   3.997  0.2571  0.5851  0.5841
  490MOL0     C67520  13.100   4.960   4.123 -0.3808 -0.1625 -0.1859
  490MOL0     C67521  13.218   4.929   4.215  0.7654  0.2405  0.0420
  490MOL0     C67522  13.270   5.051   4.288  0.8887  0.0870 -0.6881
  490MOL0     C67523  13.412   5.018   4.346  0.2569  0.0856 -0.3565
  490MOL0     C67524  13.465   5.141   4.415  0.2246 -0.0258 -0.5009
  490MOL0     C67525  13.610   5.123   4.456 -0.1396 -0.1829 -0.0021
  490MOL0     C67526  13.659   5.231   4.559  0.5904 -0.4937  0.2269
  490MOL0    Cl67527  13.818   5.193   4.629  0.6289  0.1068  0.0333
  490MOL0     C67528  12.825   5.196   3.880  0.0447  1.0312  0.9135
  490MOL0     C67529  12.745   5.302   3.901  0.4756 -0.3710  0.5214
  490MOL0     O67530  12.607   5.440   4.186  0.4499 -0.5065  0.2547
  490MOL0     C67531  12.432   5.660   4.183  0.0078 -0.3376  0.4606
  490MOL0     C67532  12.342   5.764   4.184  0.5344  0.1392  0.3144
  490MOL0     N67533  12.168   5.641   3.977 -0.0443  0.1971 -0.9099
  490MOL0     N67534  12.202   5.540   3.909 -0.1790  0.5786  0.2975
  490MOL0     C67535  11.436   4.810   3.168  1.0480  0.1747  0.1058
  490MOL0     C67536  11.334   4.754   3.095  0.2538  0.3913 -0.2986
  490MOL0     C67537  11.005   4.662   2.805 -0.2367 -0.7229 -0.2273
  490MOL0     C67538  11.006   4.773   2.719 -0.3170  0.2565 -0.2691
  490MOL0     C67539  10.902   4.788   2.630  0.3853 -0.3750  0.0913
  490MOL0     C67540  10.799   4.690   2.620  0.1324  0.2708 -0.0582
  490MOL0     O67541  10.698   4.713   2.531  1.0110 -0.2587  0.1489
  490MOL0     C67542  10.583   4.760   2.595 -0.1045 -0.1268 -0.1821
  490MOL0     C67543  10.487   4.818   2.485  0.3384 -0.5219 -0.0666
  490MOL0     C67544  10.527   4.948   2.427  0.3596 -0.2830 -0.4095
  490MOL0     C67545  10.409   5.017   2.350 -0.8056  0.4804  0.6051
  490MOL0     C67546  10.463   5.137   2.278  0.7455  0.2465  0.3789
  490MOL0     C67547  10.496   5.234   2.212 -0.9643  1.1097  0.7993
  490MOL0     C67548  10.796   4.582   2.711 -1.0796 -0.1763  0.2312
  490MOL0     C67549  10.906   4.560   2.794  0.7054 -0.4336 -0.6406
  490MOL0     C67550  10.893   4.429   2.871 -1.0145  0.1608 -0.3037
  490MOL0     H67551  11.395   4.854   2.792 -2.3323 -0.5819  0.6799
  490MOL0     H67552  11.587   4.978   2.912  0.5668 -1.1116 -0.8472
  490MOL0     H67553  11.754   5.078   3.098 -1.1922 -0.8649 -1.8684
  490MOL0     H67554  11.788   4.913   3.052  1.0445 -1.1487  1.5085
  490MOL0     H67555  11.882   4.840   3.250  2.0237  1.0132  4.6519
  490MOL0     H67556  11.975   4.968   3.185  1.0712 -3.1146 -1.0064
  490MOL0     H67557  11.782   5.092   3.355 -0.0811 -0.2557 -3.4500
  490MOL0     H67558  11.847   4.944   3.438  1.2650  1.3338  2.1355
  490MOL0     H67559  12.066   5.024   3.418 -2.0071 -2.0208 -0.9640
  490MOL0     H67560  12.033   5.151   3.300  2.3300  2.4617  2.3724
  490MOL0     H67561  11.940   5.157   3.593 -0.8582 -0.9497 -1.9381
  490MOL0     H67562  11.891   5.271   3.467  0.7214 -0.0584 -0.5908
  490MOL0     H67563  12.181   5.234   3.542 -0.2166  1.0453 -0.0561
  490MOL0     H67564  12.127   5.337   3.417  2.5534  1.2635  0.3009
  490MOL0     H67565  12.029   5.340   3.719  1.6800  1.7262  1.1396
  490MOL0     H67566  12.003   5.459   3.598  0.6095  2.5172  2.0989
  490MOL0     H67567  12.271   5.395   3.700  0.6156  0.7603 -0.7128
  490MOL0     H67568  12.225   5.526   3.582  0.0508  1.9184  0.6730
  490MOL0     H67569  12.069   5.736   3.677 -0.0643 -1.1938 -0.3602
  490MOL0     H67570  12.015   5.871   4.045 -3.0688  4.2862  0.7449
  490MOL0     H67571  11.928   5.853   3.890  1.3667  0.1740 -4.1801
  490MOL0     H67572  12.084   6.000   3.778 -0.8343 -1.2443 -0.2389
  490MOL0     H67573  12.048   6.069   3.929 -2.2238 -0.8737 -0.5923
  490MOL0     H67574  12.297   5.893   3.893  2.3350  0.5783 -3.0435
  490MOL0     H67575  12.289   6.055   3.824 -2.3199 -0.8817 -0.8426
  490MOL0     H67576  12.384   6.124   4.023  0.7880  0.6507  0.0748
  490MOL0     H67577  12.219   6.151   4.055  1.0772  1.2758  1.1622
  490MOL0     H67578  12.548   5.986   4.027  3.1563 -2.3339 -0.8272
  490MOL0     H67579  12.809   5.793   4.089  0.1323 -2.4904 -0.6199
  490MOL0     H67580  12.747   5.918   3.986  0.3058  1.0393  1.5261
  490MOL0     H67581  12.743   5.748   3.929 -0.7196  1.0115  0.4025
  490MOL0     H67582  12.904   5.420   4.164  1.8342  0.0311 -0.4344
  490MOL0     H67583  13.047   5.236   4.127  1.2379 -4.5992 -2.5608
  490MOL0     H67584  13.217   4.976   3.939 -0.5814  1.5301 -1.4852
  490MOL0     H67585  13.194   5.128   4.017 -1.9082  1.9449 -0.0661
  490MOL0     H67586  13.026   5.020   4.177 -1.1548 -1.9299  0.7883
  490MOL0     H67587  13.048   4.867   4.100  1.5302 -0.8430 -2.0484
  490MOL0     H67588  13.300   4.881   4.161  1.3475  2.2009 -0.9325
  490MOL0     H67589  13.180   4.860   4.291  1.7411  0.5975  0.8776
  490MOL0     H67590  13.207   5.074   4.374  1.4348  0.4876 -0.3958
  490MOL0     H67591  13.262   5.137   4.221 -1.6402 -0.0880 -0.7145
  490MOL0     H67592  13.422   4.937   4.418  1.7170 -0.8845 -1.5936
  490MOL0     H67593  13.471   4.997   4.256 -0.1223 -0.4472 -0.4840
  490MOL0     H67594  13.401   5.167   4.499  1.7332  0.1414  0.6358
  490MOL0     H67595  13.472   5.230   4.351  0.8312  0.7773  0.6436
  490MOL0     H67596  13.669   5.126   4.364 -0.0758 -1.0514  0.0024
  490MOL0     H67597  13.631   5.026   4.501  0.5922 -0.1247 -0.1967
  490MOL0     H67598  13.589   5.224   4.643  0.7247 -1.2994  0.2785
  490MOL0     H67599  13.666   5.328   4.509 -2.6595 -1.3723 -2.3359
  490MOL0     H67600  12.810   5.123   3.802  1.4459 -0.4257  1.9434
  490MOL0     H67601  12.657   5.311   3.839  0.8186 -1.2177 -0.1041
  490MOL0     H67602  12.401   5.563   4.220  3.4428 -1.1816  1.5436
  490MOL0     H67603  12.242   5.744   4.223  0.7678 -0.0937  0.7979
  490MOL0     H67604  11.436   4.806   3.277  0.8650 -2.3827  0.0769
  490MOL0     H67605  11.262   4.701   3.156  0.0222  0.8243 -0.1917
  490MOL0     H67606  11.083   4.848   2.732  0.8391 -1.0987  0.9208
  490MOL0     H67607  10.893   4.881   2.574  0.7163 -0.3968  0.0048
  490MOL0     H67608  10.537   4.677   2.649  2.2249 -2.3074 -1.3377
  490MOL0     H67609  10.614   4.827   2.677 -1.9339  0.2631  0.2327
  490MOL0     H67610  10.391   4.838   2.534  0.0106 -1.4632 -0.3123
  490MOL0     H67611  10.480   4.745   2.404 -0.9026 -0.3850 -0.1089
  490MOL0     H67612  10.566   5.011   2.508  0.5485 -0.0275 -0.6984
  490MOL0     H67613  10.613   4.931   2.362  1.2292  1.4265  0.2359
  490MOL0     H67614  10.322   5.049   2.407 -1.1078  0.4078  0.1884
  490MOL0     H67615  10.368   4.951   2.273 -2.3358 -2.2683  3.5268
  490MOL0     H67616  10.534   5.321   2.162  0.4259  1.4103  2.2755
  490MOL0     H67617  10.717   4.509   2.695 -1.9912  0.9080 -0.3828
  490MOL0     H67618  10.793   4.385   2.866 -1.9972  2.2386 -0.1993
  490MOL0     H67619  10.973   4.360   2.845 -1.2000  0.0410 -0.5651
  490MOL0     H67620  10.914   4.458   2.974 -0.4082 -0.4900 -0.2364
  491MOL0     O67621   9.566   8.500   5.567 -0.6285 -0.1915  0.0636
  491MOL0     C67622   9.593   8.419   5.481  0.8586 -0.1317 -0.2667
  491MOL0     O67623   9.718   8.380   5.441  0.5973  0.0717 -0.1286
  491MOL0     C67624   9.820   8.464   5.488  0.8304  0.3058  0.9121
  491MOL0     C67625   9.913   8.412   5.571  0.0752  0.1745  0.0126
  491MOL0     C67626  10.001   8.489   5.633 -0.3898  0.4486  0.7600
  491MOL0     C67627  10.010   8.627   5.606  0.6516  0.1567  0.3980
  491MOL0     O67628  10.124   8.689   5.656 -0.0478 -0.2799 -0.5491
  491MOL0     C67629  10.157   8.826   5.616 -0.5658  0.4940 -0.6427
  491MOL0     C67630  10.268   8.896   5.688  0.9692  0.2480  0.1091
  491MOL0     C67631  10.412   8.850   5.667 -0.5408 -0.2246  0.5143
  491MOL0     C67632  10.517   8.939   5.707 -1.2547 -0.9663  0.6774
  491MOL0     C67633  10.656   8.884   5.678 -0.0016  0.5837  0.3027
  491MOL0     C67634  10.756   8.957   5.757 -0.7181 -0.9557 -0.2601
  491MOL0     C67635  10.886   8.899   5.709 -0.1270  0.2190 -0.7452
  491MOL0     C67636  11.004   8.971   5.772  0.7888  0.3766 -0.3984
  491MOL0     N67637  11.120   8.937   5.692  0.1493 -0.5778 -0.3206
  491MOL0     C67638  11.215   8.844   5.721 -0.1554  0.5432 -0.9036
  491MOL0     C67639  11.317   8.866   5.634 -0.2936 -0.5168 -0.8736
  491MOL0     C67640  11.455   8.797   5.629  0.0546 -0.7179 -0.3043
  491MOL0     C67641  11.560   8.906   5.595  0.1473  0.1745 -0.2441
  491MOL0     C67642  11.698   8.837   5.573 -0.1485 -0.0981 -0.7009
  491MOL0     C67643  11.793   8.936   5.498  1.0737 -0.6874 -0.4085
  491MOL0     O67644  11.921   8.876   5.520  0.3686  0.2040 -0.5922
  491MOL0     C67645  12.027   8.922   5.457 -0.1264  0.3097 -0.2077
  491MOL0     C67646  12.027   8.992   5.339 -0.0535  1.0058 -0.6218
  491MOL0     C67647  12.143   9.046   5.279 -0.2450  0.5207 -1.0664
  491MOL0     C67648  12.135   9.105   5.139  0.1181 -0.1047  0.5217
  491MOL0     C67649  12.266   9.023   5.351 -0.3430  0.8470  1.0996
  491MOL0     C67650  12.390   9.076   5.301  0.4268 -0.2732  0.1447
  491MOL0     O67651  12.377   9.203   5.274  0.1631 -0.0742 -1.0361
  491MOL0     C67652  12.488   9.277   5.273 -0.0581 -0.5147 -0.5199
  491MOL0     C67653  12.577   9.286   5.387  0.0684  0.5902  0.2432
  491MOL0     C67654  12.697   9.364   5.378  0.1759  0.0962 -0.0227
  491MOL0     C67655  12.730   9.429   5.261  0.6198 -0.5110 -1.1242
  491MOL0     O67656  12.848   9.488   5.252  0.0170  0.0304  0.2125
  491MOL0     C67657  12.967   9.408   5.222  1.0987 -0.9803 -0.3521
  491MOL0     C67658  13.078   9.458   5.316 -0.3223 -1.0337  0.2105
  491MOL0     C67659  13.066   9.445   5.467  0.2650 -1.0031  0.0787
  491MOL0     C67660  13.133   9.564   5.554 -0.4727  0.5628 -0.0935
  491MOL0     C67661  13.281   9.563   5.539 -0.5676 -0.5825  0.2793
  491MOL0     C67662  13.352   9.564   5.676  1.0748 -0.1513 -1.0524
  491MOL0     C67663  13.472   9.475   5.683 -0.7200 -0.2524  0.4962
  491MOL0     C67664  13.590   9.528   5.612  0.0739  1.1286 -0.1863
  491MOL0    Cl67665  13.578   9.526   5.433 -0.0448  0.2198  0.3979
  491MOL0     C67666  12.637   9.434   5.161 -0.3285  0.4245 -0.9351
  491MOL0     C67667  12.520   9.357   5.157 -0.1016 -0.2176 -0.0739
  491MOL0     O67668  12.482   9.006   5.276 -0.1648  0.2409  0.0178
  491MOL0     C67669  12.265   8.952   5.469  0.2832  0.7341  0.4690
  491MOL0     C67670  12.145   8.900   5.521 -0.4385 -0.0627 -0.3324
  491MOL0     N67671  11.284   8.973   5.556 -0.6628 -0.0834  0.8102
  491MOL0     N67672  11.162   9.010   5.581  0.0466  0.9651  0.3044
  491MOL0     C67673   9.922   8.683   5.512  0.7864  0.3259 -0.0904
  491MOL0     C67674   9.830   8.592   5.443  0.5932 -0.8732 -0.4472
  491MOL0     C67675   9.476   8.347   5.417 -0.3394  0.3188 -0.5309
  491MOL0     C67676   9.506   8.232   5.332  0.0239 -0.5772  0.6837
  491MOL0     C67677   9.402   8.168   5.271  0.0661 -0.7834  1.3020
  491MOL0     C67678   9.268   8.201   5.283  0.2949 -0.6353 -0.3315
  491MOL0     O67679   9.171   8.127   5.213  0.4300 -0.4103  1.0166
  491MOL0     C67680   9.030   8.162   5.221  0.6398  0.4210 -0.2436
  491MOL0     C67681   8.961   8.105   5.348 -0.3270 -0.1367  0.2948
  491MOL0     C67682   8.935   7.953   5.337  0.2103 -0.5883  0.1821
  491MOL0     C67683   9.059   7.871   5.324 -0.0700 -0.4828 -0.4504
  491MOL0     C67684   9.024   7.733   5.395 -0.3938 -1.0220 -0.4981
  491MOL0     C67685   9.008   7.635   5.469 -0.0024 -0.4239 -0.2783
  491MOL0     C67686   9.238   8.310   5.374  1.0587 -0.0836 -0.1198
  491MOL0     C67687   9.338   8.386   5.439 -0.0022 -0.1875  0.0931
  491MOL0     C67688   9.282   8.500   5.543  0.3891  0.5409  0.3059
  491MOL0     H67689   9.900   8.310   5.606  1.6130 -1.0192 -2.6366
  491MOL0     H67690  10.079   8.448   5.697 -0.1921  1.7545  1.3728
  491MOL0     H67691  10.065   8.885   5.615  1.0286  3.0755 -1.1965
  491MOL0     H67692  10.182   8.815   5.511 -0.6917 -1.0217 -0.5484
  491MOL0     H67693  10.268   8.999   5.650  0.8695 -0.6549 -2.5331
  491MOL0     H67694  10.237   8.909   5.792 -1.3627 -0.0625 -0.5053
  491MOL0     H67695  10.442   8.750   5.699  2.5682  0.2465 -0.4974
  491MOL0     H67696  10.424   8.841   5.558  0.1312 -2.6545  0.7268
  491MOL0     H67697  10.501   9.037   5.660 -0.9633 -1.5357 -0.6491
  491MOL0     H67698  10.505   8.951   5.815 -1.2418  0.3920  0.5487
  491MOL0     H67699  10.680   8.888   5.572  0.1672 -2.2228  0.1653
  491MOL0     H67700  10.650   8.780   5.711 -2.5602  0.4975 -0.2300
  491MOL0     H67701  10.741   9.058   5.718  0.0830 -1.1024 -0.9819
  491MOL0     H67702  10.743   8.955   5.866 -0.1806 -2.9909 -0.1967
  491MOL0     H67703  10.894   8.920   5.602  0.5324  0.5205 -0.6411
  491MOL0     H67704  10.889   8.792   5.731 -0.5712  0.4105  0.3282
  491MOL0     H67705  10.979   9.078   5.772 -0.1261  0.2644 -3.6350
  491MOL0     H67706  11.026   8.928   5.870 -0.3137 -2.0136 -1.1281
  491MOL0     H67707  11.217   8.790   5.815  2.1687  3.7122  1.0655
  491MOL0     H67708  11.455   8.707   5.567 -1.3344  1.6975 -4.2360
  491MOL0     H67709  11.485   8.769   5.730 -1.2814  3.5340  1.4918
  491MOL0     H67710  11.524   8.951   5.502 -1.4158  0.8782  0.6731
  491MOL0     H67711  11.574   8.981   5.672 -0.7478 -0.7683  0.8787
  491MOL0     H67712  11.747   8.826   5.670 -0.7281  2.5350 -0.0235
  491MOL0     H67713  11.692   8.745   5.515  1.0164 -1.8253  1.7756
  491MOL0     H67714  11.771   8.958   5.393  2.6685  0.1609 -0.5961
  491MOL0     H67715  11.785   9.033   5.547 -0.3253 -1.3723  0.7904
  491MOL0     H67716  11.942   9.005   5.273 -0.7327  2.1735  0.4486
  491MOL0     H67717  12.036   9.081   5.099  0.6973  1.3998 -2.0368
  491MOL0     H67718  12.212   9.069   5.069 -0.5107  1.7658 -1.2285
  491MOL0     H67719  12.148   9.213   5.151  1.2807 -0.2960  1.0977
  491MOL0     H67720  12.547   9.233   5.477 -0.4285 -0.0420 -0.2852
  491MOL0     H67721  12.754   9.364   5.471 -0.9024 -0.9543  0.6707
  491MOL0     H67722  12.957   9.299   5.231  1.9143 -1.0333 -0.0626
  491MOL0     H67723  12.997   9.418   5.118  0.9492 -1.7148 -0.4714
  491MOL0     H67724  13.166   9.397   5.292 -0.3305 -1.7615  1.8838
  491MOL0     H67725  13.099   9.560   5.285  1.2817 -1.6064 -0.7319
  491MOL0     H67726  13.105   9.347   5.495  1.8647  0.0887  1.8656
  491MOL0     H67727  12.958   9.442   5.481 -0.2139 -2.2599 -2.9460
  491MOL0     H67728  13.111   9.547   5.660 -1.9428  2.3479 -0.0717
  491MOL0     H67729  13.094   9.663   5.529  0.4506  0.8154 -0.5822
  491MOL0     H67730  13.310   9.483   5.471 -0.9183 -1.8267  1.5547
  491MOL0     H67731  13.311   9.653   5.484 -1.6835  0.4073  1.2018
  491MOL0     H67732  13.286   9.535   5.758  1.8631  0.2053 -0.2737
  491MOL0     H67733  13.371   9.667   5.708 -2.3737  0.8630 -1.8144
  491MOL0     H67734  13.446   9.373   5.653 -2.6215  1.3652 -4.3062
  491MOL0     H67735  13.506   9.472   5.787  1.5933  0.8779 -0.1575
  491MOL0     H67736  13.667   9.451   5.624 -1.4076 -0.5401 -1.0490
  491MOL0     H67737  13.629   9.623   5.649  0.5144  1.4630 -1.4739
  491MOL0     H67738  12.675   9.484   5.073 -1.7120  2.8175 -0.2463
  491MOL0     H67739  12.450   9.361   5.075  0.0603  1.5576 -0.1533
  491MOL0     H67740  12.359   8.925   5.516 -0.1374 -0.2664  0.7795
  491MOL0     H67741  12.138   8.852   5.618  2.2607 -2.4193 -1.1931
  491MOL0     H67742   9.941   8.777   5.460 -1.3933 -0.2254 -2.0478
  491MOL0     H67743   9.757   8.628   5.372 -1.8611 -0.9648  1.8763
  491MOL0     H67744   9.609   8.210   5.303  0.0797 -0.5916  0.8915
  491MOL0     H67745   9.412   8.090   5.197 -1.2262 -0.1912  0.4716
  491MOL0     H67746   9.009   8.269   5.214 -0.7512  0.1388 -0.8307
  491MOL0     H67747   8.975   8.121   5.136 -3.0130  1.9709  1.1276
  491MOL0     H67748   8.864   8.155   5.357 -1.9624 -3.1274  0.2515
  491MOL0     H67749   9.017   8.119   5.441  0.1549 -2.8178  0.4758
  491MOL0     H67750   8.886   7.916   5.428 -1.6225  1.1477 -0.0286
  491MOL0     H67751   8.868   7.939   5.253  1.7008 -1.5919 -0.8812
  491MOL0     H67752   9.142   7.912   5.383 -0.9150  1.7896 -0.7286
  491MOL0     H67753   9.083   7.845   5.221 -0.6350 -0.2923 -0.6333
  491MOL0     H67754   9.000   7.552   5.536 -6.2399 -0.7378 -0.8393
  491MOL0     H67755   9.132   8.326   5.386  1.3242  2.9605 -0.8786
  491MOL0     H67756   9.321   8.474   5.642 -1.9784  0.0939  1.1770
  491MOL0     H67757   9.312   8.596   5.499 -3.8652  1.3205 -1.3327
  491MOL0     H67758   9.175   8.485   5.553  0.0251  1.4952 -1.6031
  492MOL0     O67759   3.592  10.147   0.208  0.3246 -0.1445 -0.1197
  492MOL0     C67760   3.563  10.051   0.139 -0.2491 -0.0243 -0.5252
  492MOL0     O67761   3.653   9.973   0.072 -0.5656 -0.7198 -0.8028
  492MOL0     C67762   3.774   9.996   0.127 -0.1548 -0.2054 -0.4243
  492MOL0     C67763   3.868  10.083   0.068  0.1135  0.2344 -0.9573
  492MOL0     C67764   3.996  10.092   0.124  0.3243  0.8037  0.0163
  492MOL0     C67765   4.031  10.034   0.248 -0.5585  0.1413  0.4014
  492MOL0     O67766   4.160  10.035   0.301 -0.4910 -0.4695 -0.0659
  492MOL0     C67767   4.245  10.153   0.278 -0.8392 -0.8445  0.9096
  492MOL0     C67768   4.393  10.140   0.309 -0.0714 -0.5775 -0.3622
  492MOL0     C67769   4.465  10.266   0.258 -0.5671  0.0040  0.2017
  492MOL0     C67770   4.605  10.233   0.215 -0.5850  0.7413 -0.7145
  492MOL0     C67771   4.690  10.363   0.198  0.6266 -0.2079  0.0296
  492MOL0     C67772   4.826  10.309   0.156  0.3165  0.5972  0.2225
  492MOL0     C67773   4.920  10.433   0.148  0.8668 -0.0566  0.9761
  492MOL0     C67774   5.054  10.386   0.095  0.0042 -0.8907 -0.2175
  492MOL0     N67775   5.150  10.501   0.087  0.3612  0.6084 -0.0128
  492MOL0     C67776   5.186  10.579   0.193  0.0880  0.2281  0.3363
  492MOL0     C67777   5.270  10.674   0.139  0.1769  0.0530 -0.0077
  492MOL0     C67778   5.318  10.789   0.224  0.9957  0.0461  1.1682
  492MOL0     C67779   5.466  10.816   0.222  0.3744  0.5763 -0.4692
  492MOL0     C67780   5.505  10.953   0.279 -0.0054 -0.3748  0.8918
  492MOL0     C67781   5.656  10.975   0.253  0.0278 -0.7033  0.9903
  492MOL0     O67782   5.695  10.965   0.114  0.1477  0.7680  0.0576
  492MOL0     C67783   5.829  10.967   0.084 -0.7159  1.2537 -0.5536
  492MOL0     C67784   5.866  10.942  -0.050 -0.9944 -0.2388  0.0212
  492MOL0     C67785   6.008  10.936  -0.078  0.9976  0.7970 -0.5564
  492MOL0     C67786   6.036  10.894  -0.218  0.1226  0.0946  0.0509
  492MOL0     C67787   6.109  10.978   0.016 -1.3208  1.3455 -0.3700
  492MOL0     C67788   6.253  10.978  -0.013 -0.2280  0.3577 -1.3460
  492MOL0     O67789   6.326  11.004   0.106 -0.3258 -0.0827  0.0982
  492MOL0     C67790   6.460  10.989   0.074 -0.4621  0.5160  0.3638
  492MOL0     C67791   6.531  11.094  -0.002  0.0139 -0.3298 -0.8769
  492MOL0     C67792   6.659  11.073  -0.049 -0.1820 -0.6238  0.7292
  492MOL0     C67793   6.731  10.964  -0.013 -0.1226  0.5256  0.1707
  492MOL0     O67794   6.859  10.942  -0.059 -0.2189  0.0565 -0.7130
  492MOL0     C67795   6.900  10.984  -0.194  0.1380  1.0370  1.0031
  492MOL0     C67796   7.024  10.911  -0.243 -0.1292  0.1597 -0.6709
  492MOL0     C67797   7.147  10.973  -0.177 -0.8399 -1.2462 -0.3799
  492MOL0     C67798   7.275  10.934  -0.253 -0.5401  0.3040 -0.5769
  492MOL0     C67799   7.384  10.948  -0.158  0.7030 -0.1002  0.1738
  492MOL0     C67800   7.521  10.939  -0.218  0.3063 -0.1793 -0.3089
  492MOL0     C67801   7.631  10.996  -0.133  0.2092 -0.5187  0.5817
  492MOL0     C67802   7.636  10.946   0.017 -0.2321  0.7589 -0.4637
  492MOL0    Cl67803   7.671  10.767   0.062  0.0855  0.2140  0.4407
  492MOL0     C67804   6.666  10.864   0.063 -0.1214  1.0655  0.3209
  492MOL0     C67805   6.530  10.879   0.105 -0.0265 -0.0143  0.4691
  492MOL0     O67806   6.305  10.934  -0.116  0.1533 -0.5196  0.2912
  492MOL0     C67807   6.064  11.014   0.150  0.1514 -1.4761  0.3099
  492MOL0     C67808   5.931  11.002   0.175  1.0721  0.0808 -0.6593
  492MOL0     N67809   5.292  10.652   0.003 -0.2908  0.1184  0.0581
  492MOL0     N67810   5.223  10.533  -0.025 -0.1336 -1.0806  0.1411
  492MOL0     C67811   3.936   9.957   0.314  0.0600  0.2939 -0.2783
  492MOL0     C67812   3.808   9.933   0.253 -0.8675  0.0835 -1.2962
  492MOL0     C67813   3.415  10.020   0.134  0.7496  0.3423  0.7113
  492MOL0     C67814   3.378   9.888   0.095  0.1590 -0.8282 -0.8740
  492MOL0     C67815   3.245   9.849   0.078 -0.1696 -0.6803 -0.2820
  492MOL0     C67816   3.143   9.937   0.095  0.2372 -1.1297  0.6167
  492MOL0     O67817   3.014   9.894   0.070 -0.1044 -0.2067 -0.4978
  492MOL0     C67818   2.909   9.983   0.031  0.7153 -0.1842 -0.0393
  492MOL0     C67819   2.853  10.073   0.143  0.2519  0.0309  0.6598
  492MOL0     C67820   2.712  10.041   0.167  1.1293 -0.0283 -0.5302
  492MOL0     C67821   2.690   9.900   0.232 -0.5158  0.0740  0.5196
  492MOL0     C67822   2.551   9.868   0.233 -1.0468  0.8625  0.7671
  492MOL0     C67823   2.432   9.847   0.244 -0.9037 -0.5999 -0.1144
  492MOL0     C67824   3.174  10.069   0.130 -0.1839  0.0247 -0.3716
  492MOL0     C67825   3.307  10.108   0.154  0.2211  0.9202 -0.7863
  492MOL0     C67826   3.326  10.264   0.188 -0.1533  0.3087  0.2868
  492MOL0     H67827   3.845  10.131  -0.027 -0.8862  0.3824 -0.6421
  492MOL0     H67828   4.064  10.158   0.071  1.8233  0.3015  1.2356
  492MOL0     H67829   4.213  10.236   0.341  2.0565 -0.7486  2.3828
  492MOL0     H67830   4.238  10.181   0.173  0.7533 -1.4707  0.6159
  492MOL0     H67831   4.405  10.115   0.415 -3.7801 -1.3928 -0.0015
  492MOL0     H67832   4.423  10.048   0.258  0.2892 -1.0332  0.6386
  492MOL0     H67833   4.416  10.297   0.165  1.6352  0.0679 -1.0149
  492MOL0     H67834   4.484  10.345   0.331  1.1467  0.4990 -0.7291
  492MOL0     H67835   4.656  10.162   0.282 -0.4779  0.1630 -1.3999
  492MOL0     H67836   4.595  10.181   0.120  0.4647 -3.3210  1.1516
  492MOL0     H67837   4.712  10.408   0.295  1.6722 -0.0629 -0.2544
  492MOL0     H67838   4.640  10.436   0.134 -0.6799  0.1768  1.4445
  492MOL0     H67839   4.858  10.228   0.222  1.7198 -0.1173 -1.2664
  492MOL0     H67840   4.815  10.272   0.053  2.1342  1.1667 -0.1999
  492MOL0     H67841   4.910  10.493   0.239  0.1152 -1.4605  1.8514
  492MOL0     H67842   4.874  10.492   0.068  3.7345  1.4761  0.3356
  492MOL0     H67843   5.093  10.319   0.172  0.4419  0.2142  0.5520
  492MOL0     H67844   5.042  10.341  -0.003 -0.0885  4.1150 -2.8471
  492MOL0     H67845   5.144  10.563   0.291 -3.7814  0.8968 -1.0568
  492MOL0     H67846   5.292  10.782   0.330  3.0321 -0.4751  1.6867
  492MOL0     H67847   5.255  10.868   0.184  0.4982 -0.4709  0.9298
  492MOL0     H67848   5.507  10.742   0.292  0.7482  0.0813 -1.2092
  492MOL0     H67849   5.504  10.804   0.121  0.8532  0.5066 -0.2855
  492MOL0     H67850   5.444  11.026   0.223  0.4647 -0.4871  0.2154
  492MOL0     H67851   5.479  10.967   0.384 -1.7701 -1.1645  0.5940
  492MOL0     H67852   5.684  11.073   0.293  1.8481  0.3340 -2.4435
  492MOL0     H67853   5.704  10.893   0.307  0.4444 -0.8104  0.4721
  492MOL0     H67854   5.790  10.920  -0.124 -1.8836  0.3015  0.7572
  492MOL0     H67855   6.100  10.806  -0.224  3.0469  1.4085  5.6385
  492MOL0     H67856   6.095  10.970  -0.269  0.6085 -0.0231  0.4329
  492MOL0     H67857   5.945  10.875  -0.277  0.5508 -1.6257 -0.1097
  492MOL0     H67858   6.486  11.189  -0.027  1.2609  0.4584 -0.2011
  492MOL0     H67859   6.707  11.145  -0.115 -3.1517 -0.8968 -1.9871
  492MOL0     H67860   6.824  10.971  -0.271  1.1470 -1.5088  0.3202
  492MOL0     H67861   6.921  11.091  -0.198  0.1654  1.0089 -0.0044
  492MOL0     H67862   7.006  10.805  -0.223 -2.0746  0.4404 -0.7186
  492MOL0     H67863   7.035  10.919  -0.352  0.8343 -0.5196 -0.6389
  492MOL0     H67864   7.156  10.955  -0.069  0.2309  2.2017  0.2069
  492MOL0     H67865   7.138  11.082  -0.182 -2.4145 -1.3961 -3.7913
  492MOL0     H67866   7.297  10.992  -0.343 -1.0046 -0.0324 -0.9175
  492MOL0     H67867   7.279  10.827  -0.277 -0.1976 -0.3939  2.2644
  492MOL0     H67868   7.374  11.044  -0.107  1.3655 -0.4551  0.9987
  492MOL0     H67869   7.366  10.882  -0.073 -2.2964  2.2915  1.5937
  492MOL0     H67870   7.511  11.003  -0.307  0.0324  1.4644  0.8616
  492MOL0     H67871   7.540  10.832  -0.228  2.9522  0.3074 -1.2762
  492MOL0     H67872   7.612  11.103  -0.142 -1.3487 -0.8816 -1.0536
  492MOL0     H67873   7.720  10.982  -0.195 -0.6772  1.3800 -1.2241
  492MOL0     H67874   7.546  10.975   0.071  0.4072  0.1052  0.9917
  492MOL0     H67875   7.721  10.998   0.061 -0.5919 -0.5520  1.9380
  492MOL0     H67876   6.724  10.778   0.095  0.4676  0.9207 -1.0887
  492MOL0     H67877   6.491  10.819   0.187 -2.7477  3.0878  1.6766
  492MOL0     H67878   6.129  11.050   0.229  0.1873  3.1704 -1.5149
  492MOL0     H67879   5.893  11.048   0.266  0.1297  1.3571 -1.6705
  492MOL0     H67880   3.972   9.908   0.404 -0.6090 -0.7068 -0.5300
  492MOL0     H67881   3.734   9.868   0.297  0.2257  0.4704  1.3120
  492MOL0     H67882   3.460   9.817   0.093 -0.2607 -1.3290 -0.6119
  492MOL0     H67883   3.220   9.747   0.053 -4.4711  0.2439 -0.4872
  492MOL0     H67884   2.945  10.039  -0.056  2.7416 -1.6759 -0.2402
  492MOL0     H67885   2.825   9.925  -0.009  0.8570 -0.6178  0.2782
  492MOL0     H67886   2.873  10.178   0.123 -2.6114  0.1066 -2.6889
  492MOL0     H67887   2.900  10.048   0.239 -0.5397 -0.2560  0.9849
  492MOL0     H67888   2.661  10.114   0.230  0.5516 -0.1784 -0.8160
  492MOL0     H67889   2.654  10.056   0.076 -0.8981  1.9350  0.9902
  492MOL0     H67890   2.723   9.913   0.336 -0.4720 -1.7532  0.7608
  492MOL0     H67891   2.751   9.819   0.192  0.9442  1.2452  0.2646
  492MOL0     H67892   2.326   9.836   0.258 -1.1134  2.1521  0.9975
  492MOL0     H67893   3.100  10.147   0.144  0.3100  0.6161 -0.9502
  492MOL0     H67894   3.396  10.310   0.118  0.1088 -1.3755 -0.6307
  492MOL0     H67895   3.231  10.319   0.183 -0.0593  0.3914 -1.5713
  492MOL0     H67896   3.355  10.269   0.293  0.1666 -1.5154  0.3226
  493MOL0     O67897  11.324   7.945   2.654  0.7843 -0.1472 -0.2706
  493MOL0     C67898  11.247   8.025   2.708  0.0655 -0.6950 -0.1989
  493MOL0     O67899  11.282   8.133   2.780 -0.5314 -0.6998  0.2163
  493MOL0     C67900  11.414   8.166   2.807  0.1096  0.1970 -0.0622
  493MOL0     C67901  11.491   8.094   2.901  0.2197 -0.5129  0.3667
  493MOL0     C67902  11.624   8.125   2.917  0.2999 -0.3192 -0.0238
  493MOL0     C67903  11.682   8.239   2.863  0.8454 -0.0443  0.0587
  493MOL0     O67904  11.814   8.261   2.871  0.1200  0.2289 -0.0038
  493MOL0     C67905  11.903   8.155   2.915 -0.8265 -0.0050  0.8217
  493MOL0     C67906  12.054   8.198   2.908  0.7725  0.3858 -0.1070
  493MOL0     C67907  12.085   8.324   2.966 -0.0102 -0.0106 -0.2450
  493MOL0     C67908  12.116   8.301   3.118 -0.4860 -0.0560 -0.2944
  493MOL0     C67909  12.121   8.428   3.188  0.9587 -0.1835  0.8568
  493MOL0     C67910  11.980   8.469   3.231  0.2277 -0.3176 -0.4682
  493MOL0     C67911  11.978   8.549   3.372  0.0651 -0.2885  0.7623
  493MOL0     C67912  12.054   8.682   3.364 -0.5223 -0.1335 -0.3036
  493MOL0     N67913  12.068   8.745   3.501  0.3274 -0.1151 -0.4746
  493MOL0     C67914  12.046   8.877   3.529 -0.0707  0.3804  0.6894
  493MOL0     C67915  12.063   8.881   3.657 -0.0050  0.1618 -0.8327
  493MOL0     C67916  12.058   9.012   3.723 -0.5217  0.3260 -0.5986
  493MOL0     C67917  12.186   9.059   3.800 -0.6222  0.4199  0.8060
  493MOL0     C67918  12.165   9.180   3.900 -0.2460 -0.4714 -0.2632
  493MOL0     C67919  12.302   9.226   3.956  0.3471 -0.3662  0.3446
  493MOL0     O67920  12.372   9.292   3.851 -0.1171  0.2914 -0.1036
  493MOL0     C67921  12.493   9.329   3.879  0.0410  0.3834 -0.3069
  493MOL0     C67922  12.584   9.251   3.802 -0.9023 -0.8804  0.2906
  493MOL0     C67923  12.727   9.278   3.810  0.4091  0.2600  0.0552
  493MOL0     C67924  12.811   9.197   3.702  0.1547 -0.0795 -0.3663
  493MOL0     C67925  12.776   9.363   3.908 -0.8983  0.6634 -0.7565
  493MOL0     C67926  12.918   9.390   3.930 -0.4632  0.1375 -0.3687
  493MOL0     O67927  12.941   9.463   4.038 -0.2074 -0.0133  0.0186
  493MOL0     C67928  13.059   9.505   4.075 -0.3740  0.6889  1.0824
  493MOL0     C67929  13.086   9.636   4.093 -0.1362 -0.7152 -0.7708
  493MOL0     C67930  13.213   9.689   4.123  0.4313  0.3635 -0.4205
  493MOL0     C67931  13.321   9.593   4.138  0.0662 -0.2930  0.4250
  493MOL0     O67932  13.443   9.625   4.194 -0.0564  0.1777 -0.4089
  493MOL0     C67933  13.487   9.757   4.207  0.2358 -0.7130 -0.6178
  493MOL0     C67934  13.625   9.759   4.272  0.7939 -0.6428  0.3307
  493MOL0     C67935  13.730   9.677   4.201  0.0036  0.1092  0.7951
  493MOL0     C67936  13.736   9.712   4.053  0.0936 -0.0632  0.2705
  493MOL0     C67937  13.856   9.678   3.960  0.2393  0.2146 -0.6958
  493MOL0     C67938  13.994   9.735   4.000  0.2861 -0.3567  0.3713
  493MOL0     C67939  14.023   9.860   3.918  0.5525 -0.0102 -0.0562
  493MOL0     C67940  14.158   9.926   3.967  0.4128 -0.0009  0.4009
  493MOL0    Cl67941  14.174  10.093   3.890 -0.2388  0.6136 -0.2153
  493MOL0     C67942  13.298   9.454   4.117  0.2092  0.3400  0.2111
  493MOL0     C67943  13.167   9.414   4.088 -0.0162  0.7594  0.8476
  493MOL0     O67944  13.002   9.353   3.847 -0.2926  0.6837 -1.1988
  493MOL0     C67945  12.680   9.436   3.979 -0.5389  0.3553 -0.0062
  493MOL0     C67946  12.545   9.433   3.957  0.8126 -0.3890  0.6007
  493MOL0     N67947  12.089   8.759   3.716  0.2909  0.8436 -0.1511
  493MOL0     N67948  12.097   8.673   3.613  0.3380 -0.3496  0.4073
  493MOL0     C67949  11.592   8.320   2.792  0.3648 -0.1868  0.1023
  493MOL0     C67950  11.462   8.284   2.757  0.3189 -0.6549 -0.2679
  493MOL0     C67951  11.104   8.014   2.685  0.3461  0.7741  0.4864
  493MOL0     C67952  11.023   8.128   2.709  0.1786 -1.6565  0.5657
  493MOL0     C67953  10.894   8.140   2.663  0.5883 -0.7775 -0.4879
  493MOL0     C67954  10.829   8.030   2.605 -0.0775  0.8619  0.2819
  493MOL0     O67955  10.702   8.045   2.554 -0.2550 -0.2088 -0.4333
  493MOL0     C67956  10.597   8.040   2.650  0.2604  0.0787  0.0279
  493MOL0     C67957  10.505   7.943   2.606  0.0372 -0.1689 -1.0668
  493MOL0     C67958  10.420   7.976   2.491  0.4994 -0.2879  0.0467
  493MOL0     C67959  10.281   7.903   2.482 -0.0032  0.1724  0.1001
  493MOL0     C67960  10.206   7.978   2.582 -0.6037  1.3406  1.1591
  493MOL0     C67961  10.157   8.044   2.674  0.2516 -0.2131  0.1748
  493MOL0     C67962  10.905   7.916   2.590  0.4763 -0.3387  0.1326
  493MOL0     C67963  11.034   7.900   2.636 -0.5980  0.5564  1.5118
  493MOL0     C67964  11.112   7.768   2.599 -0.1776 -0.2084 -0.7434
  493MOL0     H67965  11.441   8.017   2.959 -0.9789  0.6417  0.9120
  493MOL0     H67966  11.685   8.062   2.982 -1.7998  0.0519  2.4949
  493MOL0     H67967  11.878   8.065   2.857 -1.9336  1.2000 -0.6384
  493MOL0     H67968  11.873   8.132   3.018 -3.1489 -1.5168 -0.0921
  493MOL0     H67969  12.110   8.112   2.945 -0.9796 -0.9288 -0.3836
  493MOL0     H67970  12.071   8.206   2.800  0.2484  0.4169 -0.1894
  493MOL0     H67971  12.177   8.354   2.915  1.1157 -0.6079  1.3271
  493MOL0     H67972  12.011   8.400   2.938  0.1411 -0.0793 -0.8434
  493MOL0     H67973  12.056   8.229   3.175 -0.1586  0.1933  0.3699
  493MOL0     H67974  12.220   8.265   3.124 -0.7174 -0.7283 -0.2041
  493MOL0     H67975  12.146   8.513   3.125  2.6278 -0.7405  0.7178
  493MOL0     H67976  12.197   8.423   3.267  1.4934 -0.8462  0.3173
  493MOL0     H67977  11.931   8.522   3.149 -1.1951 -0.9484 -0.0535
  493MOL0     H67978  11.917   8.381   3.250 -0.3586  0.6952  2.8794
  493MOL0     H67979  12.027   8.486   3.446  0.5047  1.1393  1.7371
  493MOL0     H67980  11.873   8.552   3.399 -0.5349 -2.4763 -1.0900
  493MOL0     H67981  12.157   8.670   3.327 -0.6961  0.1958 -0.9110
  493MOL0     H67982  11.994   8.745   3.298 -1.0582 -1.9968 -1.7015
  493MOL0     H67983  12.028   8.954   3.454 -0.0196  2.2282  2.4773
  493MOL0     H67984  11.970   9.014   3.788 -1.2455 -0.8780 -1.5069
  493MOL0     H67985  12.043   9.086   3.644  0.4445  1.3265  0.1252
  493MOL0     H67986  12.210   8.971   3.861 -6.1086 -0.8235  1.7156
  493MOL0     H67987  12.263   9.083   3.726 -0.3722  1.2309  1.3181
  493MOL0     H67988  12.114   9.264   3.853  0.9663  1.2128  1.3292
  493MOL0     H67989  12.103   9.148   3.985 -1.8275  4.0317  0.5162
  493MOL0     H67990  12.286   9.301   4.034  0.0959  1.6605 -1.5581
  493MOL0     H67991  12.354   9.138   3.995  0.7353 -0.7778 -1.0440
  493MOL0     H67992  12.551   9.171   3.737  0.5761  1.3660 -3.5195
  493MOL0     H67993  12.745   9.117   3.667  0.3756 -1.0800  1.4183
  493MOL0     H67994  12.895   9.152   3.755  0.1178  0.7880  0.4509
  493MOL0     H67995  12.850   9.261   3.622 -0.5494 -0.3121 -0.9064
  493MOL0     H67996  13.006   9.708   4.107  0.5120 -0.0279 -0.5055
  493MOL0     H67997  13.212   9.794   4.149 -1.3820  0.5135 -0.9687
  493MOL0     H67998  13.495   9.815   4.115 -1.5624  0.3914 -0.1143
  493MOL0     H67999  13.426   9.815   4.277  1.4038  1.7685 -1.5395
  493MOL0     H68000  13.648   9.863   4.293  2.5625 -1.0505  0.5512
  493MOL0     H68001  13.630   9.720   4.374  2.0006  1.8913  1.3088
  493MOL0     H68002  13.712   9.570   4.206 -0.4842 -0.0142 -1.9725
  493MOL0     H68003  13.832   9.686   4.240  0.3557 -3.1371  0.8969
  493MOL0     H68004  13.743   9.821   4.052  1.4538 -0.1008 -2.1946
  493MOL0     H68005  13.641   9.685   4.006  0.8032 -0.6977 -0.8288
  493MOL0     H68006  13.862   9.569   3.970 -0.6530  0.0700 -1.5690
  493MOL0     H68007  13.838   9.706   3.856  1.9248 -0.9754 -1.3501
  493MOL0     H68008  14.061   9.657   3.963 -0.5612 -0.2882 -1.4033
  493MOL0     H68009  14.009   9.744   4.108  0.2409  0.9908  0.2784
  493MOL0     H68010  13.948   9.936   3.941  1.3922  0.4568  1.2419
  493MOL0     H68011  14.025   9.854   3.809 -0.9332 -1.9517 -0.0340
  493MOL0     H68012  14.248   9.868   3.945 -0.1840 -0.0367 -2.3655
  493MOL0     H68013  14.158   9.933   4.076  2.1115 -0.4312  0.4609
  493MOL0     H68014  13.370   9.375   4.137  0.1308 -0.4435 -2.2487
  493MOL0     H68015  13.151   9.310   4.061 -1.3595  0.8273  1.3332
  493MOL0     H68016  12.705   9.514   4.050  2.5585  1.1703 -1.7689
  493MOL0     H68017  12.469   9.502   3.993 -1.9134 -1.6019 -2.2806
  493MOL0     H68018  11.642   8.413   2.767  0.9591 -0.5745 -0.1773
  493MOL0     H68019  11.408   8.345   2.685  0.6739 -1.2932 -1.0939
  493MOL0     H68020  11.060   8.223   2.748 -4.2361  0.7668 -0.3740
  493MOL0     H68021  10.846   8.237   2.661 -0.9787 -1.5350 -1.3758
  493MOL0     H68022  10.641   7.996   2.740 -0.4087 -0.3627  0.1464
  493MOL0     H68023  10.554   8.141   2.661  0.0774  0.0719 -0.6178
  493MOL0     H68024  10.436   7.932   2.690  0.1363  1.9131 -0.6539
  493MOL0     H68025  10.554   7.845   2.597  0.7508  0.2679 -2.2018
  493MOL0     H68026  10.397   8.083   2.499 -0.3164 -0.4801  0.4916
  493MOL0     H68027  10.482   7.955   2.404  2.2796 -1.1537  1.4735
  493MOL0     H68028  10.304   7.798   2.499  2.3436  0.6870  0.4069
  493MOL0     H68029  10.228   7.910   2.386 -2.5591  1.8234  1.5274
  493MOL0     H68030  10.106   8.090   2.756  1.5730 -1.5632  1.8455
  493MOL0     H68031  10.855   7.836   2.537 -1.0738  0.8822 -0.3041
  493MOL0     H68032  11.188   7.755   2.677 -1.3463  0.3903  0.5538
  493MOL0     H68033  11.042   7.686   2.617  0.1668 -0.5761 -1.0869
  493MOL0     H68034  11.133   7.781   2.493  2.4679  1.7134 -0.0845
  494MOL0     O68035   6.578   2.830   5.146  0.2076 -0.5854 -0.1456
  494MOL0     C68036   6.486   2.741   5.152 -0.7964  0.4260 -0.0470
  494MOL0     O68037   6.512   2.617   5.201 -0.7574 -0.4934 -0.2260
  494MOL0     C68038   6.636   2.568   5.194  0.5735 -0.1355  0.7843
  494MOL0     C68039   6.709   2.547   5.074 -0.3268  0.1772  0.2354
  494MOL0     C68040   6.827   2.478   5.059  0.6602  0.1409 -0.3280
  494MOL0     C68041   6.884   2.430   5.176 -0.0230  0.2023 -0.0766
  494MOL0     O68042   7.008   2.364   5.173 -0.4880  0.1948  0.1258
  494MOL0     C68043   7.046   2.294   5.298  0.7651  0.3157  0.6756
  494MOL0     C68044   7.159   2.197   5.269  0.2931 -0.2995 -0.4662
  494MOL0     C68045   7.253   2.163   5.389  0.2407 -0.5914  0.3170
  494MOL0     C68046   7.376   2.080   5.335 -0.3485 -0.0551 -0.0717
  494MOL0     C68047   7.427   1.976   5.442 -0.0501  0.1210 -0.9873
  494MOL0     C68048   7.541   1.892   5.378  0.4797  0.2426 -0.1519
  494MOL0     C68049   7.579   1.770   5.457 -0.7765 -0.2503 -0.9726
  494MOL0     C68050   7.690   1.694   5.376  1.0576 -0.5226  0.0141
  494MOL0     N68051   7.747   1.606   5.472  0.2721  0.9635 -0.6832
  494MOL0     C68052   7.838   1.630   5.569 -0.0811 -0.1156  0.3635
  494MOL0     C68053   7.863   1.517   5.617 -0.3766  0.3171  0.5145
  494MOL0     C68054   7.968   1.482   5.717  0.5731 -0.3344 -0.1603
  494MOL0     C68055   8.099   1.560   5.705  0.5942 -0.2644  0.2219
  494MOL0     C68056   8.181   1.529   5.581  0.3065  1.1609 -0.1285
  494MOL0     C68057   8.305   1.620   5.584 -0.5312  0.0959  0.3883
  494MOL0     O68058   8.274   1.758   5.576 -0.0192  0.6479  0.1278
  494MOL0     C68059   8.219   1.816   5.465  1.1721  0.3083 -0.2647
  494MOL0     C68060   8.118   1.910   5.482  0.9326  0.0035  0.4492
  494MOL0     C68061   8.079   1.995   5.374  0.8109 -0.3472  0.6523
  494MOL0     C68062   7.954   2.084   5.387  0.6989  0.7144 -0.2525
  494MOL0     C68063   8.144   1.985   5.250 -0.3669 -0.1818 -0.4134
  494MOL0     C68064   8.117   2.069   5.130 -0.6894  0.2342  0.8750
  494MOL0     O68065   8.119   1.999   5.009  0.2742 -0.0846 -0.4855
  494MOL0     C68066   8.138   2.064   4.889 -0.4319  0.7318 -0.8517
  494MOL0     C68067   8.199   2.183   4.872 -0.0308 -0.8810 -0.3368
  494MOL0     C68068   8.231   2.222   4.741  0.1929 -0.8454 -0.3866
  494MOL0     C68069   8.208   2.146   4.634  0.4470 -0.4451  0.7332
  494MOL0     O68070   8.243   2.194   4.503  0.0885 -0.2992 -0.1950
  494MOL0     C68071   8.239   2.107   4.389  0.8974  0.2746 -0.7519
  494MOL0     C68072   8.354   1.999   4.396 -0.8265  0.2647  1.0158
  494MOL0     C68073   8.488   2.049   4.334  0.7889 -0.9035  0.1977
  494MOL0     C68074   8.577   1.928   4.301 -0.0546  0.2623 -0.3380
  494MOL0     C68075   8.706   1.944   4.221  0.5909 -0.4350 -0.6030
  494MOL0     C68076   8.811   2.033   4.298  0.1234  0.5101  0.6778
  494MOL0     C68077   8.872   1.961   4.424 -0.2117  1.1458  0.3984
  494MOL0     C68078   8.961   2.060   4.499  0.8272 -0.3131 -0.8358
  494MOL0    Cl68079   9.099   2.115   4.408 -0.0223  0.2298  0.1749
  494MOL0     C68080   8.142   2.025   4.654 -0.2315  1.1625  0.3443
  494MOL0     C68081   8.116   1.980   4.781  0.0736 -0.3504  0.3250
  494MOL0     O68082   8.113   2.188   5.145  0.5219  0.2467 -0.3019
  494MOL0     C68083   8.241   1.887   5.238 -1.3166 -0.7589 -0.9698
  494MOL0     C68084   8.272   1.796   5.339 -0.1260 -0.0394  0.3249
  494MOL0     N68085   7.779   1.426   5.554  0.3058 -0.3954 -0.1877
  494MOL0     N68086   7.702   1.478   5.470 -0.5085 -0.4307 -0.5762
  494MOL0     C68087   6.816   2.455   5.307  0.2821 -0.3028 -0.6292
  494MOL0     C68088   6.694   2.523   5.310 -0.0817 -0.2324  0.0238
  494MOL0     C68089   6.350   2.783   5.136  0.3539  0.4140 -0.5447
  494MOL0     C68090   6.251   2.726   5.219 -0.2070  0.1245 -0.1493
  494MOL0     C68091   6.120   2.772   5.209  0.3144 -0.1576  0.1229
  494MOL0     C68092   6.083   2.874   5.120 -0.3899 -0.8264 -0.1969
  494MOL0     O68093   5.948   2.888   5.103 -0.1187 -0.2629  0.5647
  494MOL0     C68094   5.899   2.990   5.014 -0.0340 -0.1450  0.9167
  494MOL0     C68095   5.850   3.114   5.081 -0.4214 -0.2577 -0.1775
  494MOL0     C68096   5.743   3.102   5.194  0.5893 -0.2549 -0.1971
  494MOL0     C68097   5.590   3.052   5.170 -0.1391  0.4956  0.1219
  494MOL0     C68098   5.529   3.137   5.068  0.0726 -0.1136  0.5445
  494MOL0     C68099   5.500   3.220   4.989  0.0759  0.2761 -0.5202
  494MOL0     C68100   6.182   2.931   5.036  0.0518 -0.1779  0.9560
  494MOL0     C68101   6.317   2.886   5.041 -0.4236 -0.1366  0.5916
  494MOL0     C68102   6.419   2.934   4.939 -0.9382 -0.6355 -0.1002
  494MOL0     H68103   6.662   2.588   4.985  1.4846  2.9664  0.4585
  494MOL0     H68104   6.872   2.465   4.961 -2.4101 -0.6713 -1.7579
  494MOL0     H68105   6.955   2.239   5.324 -0.9365  0.9087 -3.1843
  494MOL0     H68106   7.081   2.368   5.371  0.6213  1.5225 -0.4443
  494MOL0     H68107   7.127   2.102   5.226 -0.1119 -2.1511  3.4925
  494MOL0     H68108   7.233   2.245   5.204  0.1988 -0.8858 -1.0235
  494MOL0     H68109   7.279   2.251   5.449 -1.6629 -1.5206  2.6732
  494MOL0     H68110   7.199   2.090   5.450  1.7284 -0.3292  2.0286
  494MOL0     H68111   7.357   2.026   5.241 -1.4969  0.5540 -0.2009
  494MOL0     H68112   7.449   2.157   5.309  0.9249 -1.4099 -0.6363
  494MOL0     H68113   7.354   1.902   5.475 -0.4793  0.4516 -1.1763
  494MOL0     H68114   7.474   2.033   5.523  0.3609  2.0310 -2.4739
  494MOL0     H68115   7.496   1.854   5.286  0.5462 -0.0185 -0.0763
  494MOL0     H68116   7.624   1.958   5.351 -0.1817  0.8481 -0.7284
  494MOL0     H68117   7.498   1.697   5.460 -1.6327  0.4909  4.5131
  494MOL0     H68118   7.613   1.797   5.557 -2.1793 -1.6633 -0.0673
  494MOL0     H68119   7.640   1.645   5.291 -0.4637  1.3645 -0.2347
  494MOL0     H68120   7.762   1.769   5.342  1.5670  0.3549  2.8189
  494MOL0     H68121   7.888   1.723   5.595 -3.1853  1.9066 -0.4234
  494MOL0     H68122   7.988   1.375   5.716  1.9356 -0.1399  1.4111
  494MOL0     H68123   7.923   1.501   5.815  2.6751  0.1505  0.7813
  494MOL0     H68124   8.072   1.666   5.706 -0.5881 -0.4631 -2.3534
  494MOL0     H68125   8.160   1.545   5.795 -2.7025  0.6301  2.8244
  494MOL0     H68126   8.218   1.426   5.580  0.4135  1.1095  2.3596
  494MOL0     H68127   8.118   1.530   5.492 -3.7975  0.1479  2.4842
  494MOL0     H68128   8.357   1.606   5.679 -1.8445 -0.2002  1.0978
  494MOL0     H68129   8.374   1.592   5.504 -0.1837  1.0466  0.3493
  494MOL0     H68130   8.062   1.915   5.574  3.0467 -0.6826  1.8492
  494MOL0     H68131   7.961   2.143   5.479 -2.3492  0.4359  0.2471
  494MOL0     H68132   7.864   2.023   5.397  2.4876 -2.1091 -0.1174
  494MOL0     H68133   7.944   2.163   5.313  1.6134  1.5381  0.4827
  494MOL0     H68134   8.230   2.259   4.943 -1.8168  0.0021 -0.4632
  494MOL0     H68135   8.277   2.319   4.728 -5.4169  2.1991 -0.8266
  494MOL0     H68136   8.144   2.055   4.374  2.2238 -2.0707 -1.5514
  494MOL0     H68137   8.235   2.167   4.297  2.2399  0.0341 -0.9967
  494MOL0     H68138   8.378   1.973   4.499 -1.2238 -0.0531  1.0267
  494MOL0     H68139   8.305   1.925   4.332 -1.1789  1.8710 -0.6885
  494MOL0     H68140   8.544   2.122   4.394 -3.0817  1.4982  1.2111
  494MOL0     H68141   8.462   2.114   4.250  2.2419  2.4917  2.1165
  494MOL0     H68142   8.510   1.873   4.235 -0.1287  1.6795 -1.4975
  494MOL0     H68143   8.583   1.878   4.399 -0.6317 -1.2733 -1.0554
  494MOL0     H68144   8.733   1.840   4.201 -1.6388 -0.8855 -1.5931
  494MOL0     H68145   8.689   1.988   4.123  0.8977  0.5618 -0.2214
  494MOL0     H68146   8.758   2.125   4.325 -0.5346  0.8779 -1.5863
  494MOL0     H68147   8.894   2.069   4.235 -0.4735  0.5325 -0.1112
  494MOL0     H68148   8.930   1.875   4.389 -2.7752 -0.5389  0.0459
  494MOL0     H68149   8.800   1.926   4.498  1.4365 -0.8184  1.1645
  494MOL0     H68150   9.011   2.010   4.582 -1.6441 -1.8769 -0.1840
  494MOL0     H68151   8.902   2.139   4.547  0.9234 -1.1804  0.7827
  494MOL0     H68152   8.130   1.957   4.570  1.3584  1.5294 -0.2235
  494MOL0     H68153   8.078   1.880   4.795 -1.3336  0.6109  5.8274
  494MOL0     H68154   8.289   1.863   5.144  3.8016  0.3436  1.0318
  494MOL0     H68155   8.343   1.715   5.330 -2.1792 -1.9704  0.6019
  494MOL0     H68156   6.849   2.438   5.409  0.5015 -3.8736 -1.1662
  494MOL0     H68157   6.621   2.545   5.387  0.7537  2.5084  0.1593
  494MOL0     H68158   6.262   2.646   5.292  0.5249  1.0847  0.8367
  494MOL0     H68159   6.053   2.723   5.278  3.7644 -4.5746  0.7613
  494MOL0     H68160   5.973   3.010   4.937 -0.8745  0.0619  0.1382
  494MOL0     H68161   5.813   2.951   4.960  0.9267  0.2892 -0.9862
  494MOL0     H68162   5.822   3.190   5.007  1.7159  1.8989  1.0827
  494MOL0     H68163   5.930   3.164   5.135 -0.4803 -0.6086  0.2403
  494MOL0     H68164   5.789   3.039   5.271 -0.1168 -0.8790 -0.2780
  494MOL0     H68165   5.730   3.203   5.234 -0.1164 -1.0887  1.8009
  494MOL0     H68166   5.534   3.066   5.263 -1.8649 -0.0153 -0.8000
  494MOL0     H68167   5.590   2.947   5.139 -0.5214  1.0386 -1.8685
  494MOL0     H68168   5.466   3.298   4.923 -3.3515 -0.4905  0.1040
  494MOL0     H68169   6.164   3.010   4.964 -0.8418  1.3073  2.7400
  494MOL0     H68170   6.366   2.982   4.856 -0.2686  0.1486 -0.0935
  494MOL0     H68171   6.464   3.015   4.997 -4.7209  0.4142  1.6370
  494MOL0     H68172   6.487   2.859   4.896 -0.6888  0.2341 -1.2904
  495MOL0     O68173   7.528   2.221   6.707 -0.0575 -0.1751  0.5641
  495MOL0     C68174   7.509   2.203   6.824 -0.7458 -0.1744 -0.6538
  495MOL0     O68175   7.599   2.140   6.907  0.6170 -0.1669 -0.7102
  495MOL0     C68176   7.732   2.096   6.881  0.7470  0.9302 -0.6917
  495MOL0     C68177   7.781   1.999   6.964 -0.1613 -0.0118 -0.4589
  495MOL0     C68178   7.911   1.952   6.955  0.1079 -0.0436 -0.0248
  495MOL0     C68179   8.003   2.013   6.870  0.5264 -0.1316  0.2672
  495MOL0     O68180   8.142   1.994   6.860  0.4769  0.0938  0.1026
  495MOL0     C68181   8.192   1.888   6.938  1.2827  0.0851 -0.3554
  495MOL0     C68182   8.347   1.885   6.945  0.1457 -0.5401  0.4889
  495MOL0     C68183   8.392   1.740   7.003 -0.5981 -0.4113  0.4500
  495MOL0     C68184   8.542   1.737   6.992  0.4659  0.8319 -0.2577
  495MOL0     C68185   8.616   1.610   7.049  0.0999  0.0647  0.2738
  495MOL0     C68186   8.604   1.590   7.192 -0.1592 -0.6618  0.0396
  495MOL0     C68187   8.689   1.468   7.230 -0.2103  0.4378 -0.6432
  495MOL0     C68188   8.602   1.360   7.300  0.2790  0.5275 -0.5030
  495MOL0     N68189   8.669   1.233   7.330  0.0516 -0.7594 -0.3417
  495MOL0     C68190   8.716   1.181   7.452  0.5572  0.3620  0.1593
  495MOL0     C68191   8.774   1.065   7.404  0.6758 -1.0761 -0.5248
  495MOL0     C68192   8.856   0.977   7.495  0.5180  0.2502 -0.6020
  495MOL0     C68193   8.996   1.021   7.504  0.7215  0.0397 -0.6292
  495MOL0     C68194   9.085   0.913   7.566 -0.6469  0.9708 -0.5709
  495MOL0     C68195   9.232   0.968   7.602  0.9714 -1.0492 -0.3476
  495MOL0     O68196   9.320   0.861   7.626 -0.5485  0.9173 -0.1227
  495MOL0     C68197   9.452   0.895   7.646 -0.5004 -0.7631  0.2793
  495MOL0     C68198   9.546   0.790   7.647 -0.8702  0.2424 -0.2057
  495MOL0     C68199   9.688   0.802   7.670  0.7242  0.3644  0.1541
  495MOL0     C68200   9.776   0.681   7.658  0.0849 -0.1204 -0.4775
  495MOL0     C68201   9.732   0.931   7.692 -0.4724 -0.7141 -0.1277
  495MOL0     C68202   9.869   0.963   7.744  0.0153  0.3826  0.4680
  495MOL0     O68203   9.949   0.855   7.763 -0.9994  0.2085  0.2169
  495MOL0     C68204  10.071   0.884   7.830  0.3074 -0.0871  0.2160
  495MOL0     C68205  10.084   0.818   7.948 -0.1705  0.2431  0.0203
  495MOL0     C68206  10.207   0.823   8.018  0.2711  1.1628 -0.8221
  495MOL0     C68207  10.322   0.882   7.962  0.3632 -0.0948  0.3370
  495MOL0     O68208  10.445   0.874   8.015 -0.1575 -0.3692  0.1291
  495MOL0     C68209  10.496   0.740   8.036 -0.7184  0.8048  0.0307
  495MOL0     C68210  10.634   0.726   7.961 -0.7886  0.3494 -0.4286
  495MOL0     C68211  10.714   0.595   7.998  0.2205  0.1956  0.0508
  495MOL0     C68212  10.848   0.585   7.929 -0.9001 -0.2174  0.0416
  495MOL0     C68213  10.952   0.517   8.025  0.5309 -0.1104  1.1615
  495MOL0     C68214  11.094   0.501   7.959 -0.0633  0.1851 -0.0215
  495MOL0     C68215  11.183   0.399   8.029 -0.3665 -0.1413 -0.3813
  495MOL0     C68216  11.312   0.370   7.953 -0.4283 -0.0889  0.2088
  495MOL0    Cl68217  11.417   0.249   8.049  0.4880 -0.3681 -0.2832
  495MOL0     C68218  10.303   0.945   7.836 -0.8782 -0.7075  0.3647
  495MOL0     C68219  10.180   0.956   7.783 -0.1994 -0.1383  0.1524
  495MOL0     O68220   9.891   1.079   7.785  0.4293 -0.2363  0.5696
  495MOL0     C68221   9.635   1.038   7.688  0.5259 -0.2974 -0.0305
  495MOL0     C68222   9.499   1.018   7.669  0.0267 -0.0530  0.1696
  495MOL0     N68223   8.773   1.061   7.270 -0.0208 -0.1453 -0.5031
  495MOL0     N68224   8.715   1.160   7.227  0.4763 -0.2987 -0.4748
  495MOL0     C68225   7.942   2.110   6.782 -0.1147 -0.2921 -0.3421
  495MOL0     C68226   7.816   2.146   6.788  0.1942 -0.5071 -0.1851
  495MOL0     C68227   7.385   2.266   6.872 -0.1785 -0.2197  0.3005
  495MOL0     C68228   7.304   2.338   6.780 -0.7481  0.2928 -0.3044
  495MOL0     C68229   7.186   2.398   6.824 -0.6554  0.4515  0.5516
  495MOL0     C68230   7.148   2.386   6.956  0.3686 -0.2220  0.0812
  495MOL0     O68231   7.038   2.460   6.992 -0.1178 -0.2306  0.4865
  495MOL0     C68232   6.975   2.417   7.118 -0.5394  0.2807 -0.2738
  495MOL0     C68233   6.844   2.485   7.125  0.1018 -0.7499  0.3116
  495MOL0     C68234   6.859   2.641   7.145 -1.0071  0.0438  0.0592
  495MOL0     C68235   6.719   2.696   7.153  0.4135  0.5841  0.1759
  495MOL0     C68236   6.669   2.759   7.026  0.3757  1.0202 -0.2590
  495MOL0     C68237   6.622   2.812   6.933  0.1465  0.7130  0.3782
  495MOL0     C68238   7.222   2.307   7.044 -0.8922 -0.6963  0.2338
  495MOL0     C68239   7.346   2.256   7.009 -0.0742  0.8410 -0.3669
  495MOL0     C68240   7.420   2.195   7.120 -0.2651  0.6215  1.1561
  495MOL0     H68241   7.719   1.960   7.045 -0.4137  1.9906  0.3719
  495MOL0     H68242   7.948   1.872   7.019  0.2950  0.2645  0.2524
  495MOL0     H68243   8.152   1.796   6.896 -2.7049  1.7768 -0.6884
  495MOL0     H68244   8.161   1.910   7.041  1.9041  0.4422 -0.2397
  495MOL0     H68245   8.391   1.914   6.849  2.1625  1.8124  2.0011
  495MOL0     H68246   8.380   1.966   7.011  0.4051  0.5892 -0.9758
  495MOL0     H68247   8.356   1.745   7.106 -2.0054 -2.3028  0.0989
  495MOL0     H68248   8.345   1.653   6.957 -2.2882  0.6402  0.0705
  495MOL0     H68249   8.554   1.745   6.884 -2.0223  0.8025 -0.5922
  495MOL0     H68250   8.587   1.822   7.045  0.0965 -1.0467  3.4255
  495MOL0     H68251   8.717   1.630   7.012 -0.3679 -2.0648 -2.5403
  495MOL0     H68252   8.594   1.513   7.002  2.4200 -0.9363  1.0761
  495MOL0     H68253   8.632   1.674   7.256  0.5340 -0.0168 -1.0638
  495MOL0     H68254   8.498   1.566   7.207 -0.3351  0.0583  0.0187
  495MOL0     H68255   8.765   1.488   7.306  1.3870 -4.6817 -0.4855
  495MOL0     H68256   8.740   1.428   7.141  2.0728  0.1783  0.7063
  495MOL0     H68257   8.557   1.404   7.389  0.1337  0.9420 -0.7791
  495MOL0     H68258   8.519   1.331   7.234 -0.9411 -0.5776  1.4407
  495MOL0     H68259   8.701   1.222   7.551  3.0858  1.1075  0.2921
  495MOL0     H68260   8.840   0.871   7.471 -2.3829  1.3705 -4.8408
  495MOL0     H68261   8.823   1.000   7.597  1.8267  2.0312 -0.5445
  495MOL0     H68262   9.037   1.045   7.405  3.3307  1.3099  0.6709
  495MOL0     H68263   9.006   1.109   7.567 -0.0770 -0.3225  0.0273
  495MOL0     H68264   9.026   0.865   7.645 -1.2229  0.1999 -1.4373
  495MOL0     H68265   9.105   0.834   7.493 -0.1975  1.0288 -0.5122
  495MOL0     H68266   9.275   1.025   7.519  2.4283  0.2952  1.2471
  495MOL0     H68267   9.213   1.038   7.684 -0.5734 -0.3757 -1.2542
  495MOL0     H68268   9.501   0.694   7.628  2.2474 -1.3077 -0.4776
  495MOL0     H68269   9.735   0.581   7.637 -1.1709  0.0528  0.9802
  495MOL0     H68270   9.828   0.670   7.754  0.0530 -0.7410 -0.5242
  495MOL0     H68271   9.847   0.695   7.575 -0.5942  2.6088 -0.6806
  495MOL0     H68272  10.012   0.747   7.987  0.1383 -1.1597 -1.8267
  495MOL0     H68273  10.219   0.792   8.121  3.0444  1.4281 -0.9933
  495MOL0     H68274  10.495   0.713   8.142 -0.2484 -0.6117 -0.3057
  495MOL0     H68275  10.425   0.666   7.997 -0.2907 -0.4462  1.5424
  495MOL0     H68276  10.613   0.738   7.855 -4.2276 -2.4603 -0.2559
  495MOL0     H68277  10.695   0.811   7.991  2.0826 -1.5665 -0.5053
  495MOL0     H68278  10.652   0.508   7.974 -2.3589  1.2191  2.3403
  495MOL0     H68279  10.722   0.597   8.107 -0.3482 -3.2840  0.2652
  495MOL0     H68280  10.889   0.684   7.910  0.4037 -0.6964  0.2462
  495MOL0     H68281  10.848   0.542   7.829 -2.3562  0.3932 -0.2424
  495MOL0     H68282  10.959   0.550   8.129  0.9151 -1.3966  1.5618
  495MOL0     H68283  10.914   0.416   8.041 -1.2807  0.1058 -1.2300
  495MOL0     H68284  11.136   0.601   7.966  0.1026  0.0951  0.2623
  495MOL0     H68285  11.076   0.485   7.852 -3.4062  2.5402  0.0314
  495MOL0     H68286  11.129   0.305   8.048  1.4496 -1.0314  0.5706
  495MOL0     H68287  11.196   0.442   8.128 -1.5186 -1.2536  0.2860
  495MOL0     H68288  11.358   0.467   7.931 -0.2341 -0.0131  0.9324
  495MOL0     H68289  11.279   0.325   7.859 -1.7383  3.8986 -1.4739
  495MOL0     H68290  10.381   1.007   7.794 -1.1029  0.7907  2.0457
  495MOL0     H68291  10.175   1.018   7.694  1.6887  0.0123  0.1202
  495MOL0     H68292   9.665   1.142   7.703 -2.1120  1.2469 -3.7625
  495MOL0     H68293   9.432   1.102   7.683 -0.5420 -0.0057 -2.3980
  495MOL0     H68294   8.010   2.153   6.709  0.5369 -0.1306  0.3445
  495MOL0     H68295   7.779   2.210   6.708  3.1180 -1.6196 -2.6408
  495MOL0     H68296   7.333   2.356   6.677 -2.4803 -2.9856 -1.5100
  495MOL0     H68297   7.127   2.455   6.754  0.7865  1.2616 -0.0526
  495MOL0     H68298   6.954   2.310   7.125 -2.3846  0.7414  2.5951
  495MOL0     H68299   7.028   2.441   7.211 -2.8095 -2.8869  2.0395
  495MOL0     H68300   6.785   2.445   7.208 -3.0059 -1.2184 -1.9547
  495MOL0     H68301   6.786   2.457   7.036 -1.1941 -0.0538  0.9153
  495MOL0     H68302   6.910   2.644   7.242  0.8789  1.1087 -0.9203
  495MOL0     H68303   6.917   2.697   7.071 -1.3057 -2.0154 -1.8598
  495MOL0     H68304   6.719   2.776   7.228 -0.2370 -1.5790  2.6192
  495MOL0     H68305   6.653   2.617   7.189 -0.7235 -0.5760 -3.9371
  495MOL0     H68306   6.579   2.875   6.858  2.2359 -0.0737 -1.5939
  495MOL0     H68307   7.192   2.307   7.148  0.4526  2.0004  0.7112
  495MOL0     H68308   7.351   2.159   7.197 -0.3891  1.2255  1.3355
  495MOL0     H68309   7.468   2.103   7.086 -0.1041  0.5380  1.5971
  495MOL0     H68310   7.499   2.256   7.165  0.1190  1.9204 -1.1198
  496MOL0     O68311   2.953   0.131   7.517  0.3725  0.6921 -0.3512
  496MOL0     C68312   2.854   0.170   7.460  0.6210  0.7796  0.1963
  496MOL0     O68313   2.862   0.216   7.329 -0.4715 -0.1536  0.7295
  496MOL0     C68314   2.974   0.210   7.254 -0.6655 -0.1039  0.1934
  496MOL0     C68315   3.103   0.247   7.298  0.1357  0.0039 -1.1758
  496MOL0     C68316   3.212   0.241   7.208  0.2949  0.6370  0.9207
  496MOL0     C68317   3.193   0.192   7.073 -0.5398 -0.2873 -0.8033
  496MOL0     O68318   3.296   0.153   6.994  0.2845 -0.3276  0.7517
  496MOL0     C68319   3.432   0.187   7.024  0.4883 -0.1107 -0.2521
  496MOL0     C68320   3.530   0.155   6.917 -0.3753  1.1232 -0.0445
  496MOL0     C68321   3.532   0.230   6.783 -0.4088  0.1154  0.0598
  496MOL0     C68322   3.579   0.367   6.787  0.2605  0.2591  0.8040
  496MOL0     C68323   3.557   0.441   6.647  0.4887  0.5271 -0.2200
  496MOL0     C68324   3.609   0.591   6.657 -0.0901 -0.4299 -0.3174
  496MOL0     C68325   3.574   0.680   6.528  0.0763  0.1843 -0.2612
  496MOL0     C68326   3.612   0.619   6.392  0.0603  0.0425 -0.1872
  496MOL0     N68327   3.754   0.611   6.363 -0.9270  0.1285  0.6651
  496MOL0     C68328   3.832   0.717   6.311  0.2374  0.0168  0.1751
  496MOL0     C68329   3.954   0.667   6.278  0.3538  0.2613 -0.9099
  496MOL0     C68330   4.063   0.743   6.211 -0.2350  0.2153  0.1449
  496MOL0     C68331   4.154   0.802   6.315  0.5085  0.4773 -0.9199
  496MOL0     C68332   4.254   0.704   6.380 -1.4890  0.1057  0.3655
  496MOL0     C68333   4.396   0.761   6.355 -0.4074 -0.1617  1.0211
  496MOL0     O68334   4.410   0.890   6.419  0.4530  0.3026  0.3600
  496MOL0     C68335   4.533   0.950   6.424  1.2878 -0.5021  0.7982
  496MOL0     C68336   4.532   1.076   6.496  0.3418  0.5990 -0.2297
  496MOL0     C68337   4.649   1.152   6.504  0.0226  0.0405 -0.8168
  496MOL0     C68338   4.659   1.276   6.596  0.4133 -0.5522 -0.0110
  496MOL0     C68339   4.765   1.103   6.442 -0.3500  0.6181  0.8714
  496MOL0     C68340   4.894   1.169   6.447 -1.0479 -1.2285 -0.2056
  496MOL0     O68341   4.976   1.142   6.333  0.7130 -0.2528 -0.1026
  496MOL0     C68342   5.097   1.204   6.322  0.5630 -0.3236  1.0023
  496MOL0     C68343   5.106   1.340   6.291 -0.2764 -0.3288  0.1544
  496MOL0     C68344   5.236   1.390   6.281  0.1299 -0.5339 -0.3170
  496MOL0     C68345   5.348   1.311   6.281 -0.5949  0.5189 -0.0240
  496MOL0     O68346   5.475   1.365   6.267  0.2467  0.9032 -0.3553
  496MOL0     C68347   5.487   1.483   6.185 -0.2928 -0.0705 -0.7125
  496MOL0     C68348   5.632   1.513   6.148  0.1317 -0.0179 -0.1852
  496MOL0     C68349   5.708   1.388   6.106 -0.0977 -0.1737  0.3496
  496MOL0     C68350   5.835   1.432   6.027  0.3753  0.7050 -1.1065
  496MOL0     C68351   5.940   1.315   6.017  0.0449 -0.4631 -0.5092
  496MOL0     C68352   6.036   1.313   5.899  0.0133 -0.5179  0.4147
  496MOL0     C68353   6.144   1.201   5.903 -0.0178  0.5551 -0.4825
  496MOL0     C68354   6.095   1.071   5.855  0.1735  0.3125  0.5220
  496MOL0    Cl68355   5.995   0.990   5.974 -0.0880  0.6944  0.0175
  496MOL0     C68356   5.341   1.180   6.302 -1.0217  0.1745  0.1989
  496MOL0     C68357   5.212   1.131   6.323 -0.6950 -0.3288 -0.3873
  496MOL0     O68358   4.929   1.240   6.549  0.3594  0.3014  0.2579
  496MOL0     C68359   4.767   0.973   6.378 -0.0468 -1.0135  1.0318
  496MOL0     C68360   4.648   0.900   6.363 -0.6338 -0.9637  0.2033
  496MOL0     N68361   3.948   0.533   6.300 -0.3516  0.1389  0.2717
  496MOL0     N68362   3.833   0.497   6.352 -0.4514  1.0193  0.8048
  496MOL0     C68363   3.065   0.175   7.027 -0.1482  0.0674  0.0465
  496MOL0     C68364   2.954   0.176   7.117  0.8289 -0.4635 -1.0212
  496MOL0     C68365   2.717   0.152   7.509  0.9201  0.2215 -0.3643
  496MOL0     C68366   2.605   0.192   7.425 -0.0050  0.3024  0.1013
  496MOL0     C68367   2.478   0.163   7.469 -0.6591 -0.1531 -1.2234
  496MOL0     C68368   2.448   0.127   7.602  0.3676  0.2434  0.2663
  496MOL0     O68369   2.314   0.107   7.640  0.8258 -0.5410  0.4280
  496MOL0     C68370   2.279  -0.025   7.651 -0.8368  0.3580  0.6956
  496MOL0     C68371   2.125  -0.029   7.637 -1.0282  0.3178 -1.0465
  496MOL0     C68372   2.080  -0.028   7.490 -0.3611 -0.4076  0.5666
  496MOL0     C68373   1.930  -0.008   7.477  0.1749  0.3012  0.5193
  496MOL0     C68374   1.895  -0.007   7.335  0.0654  0.4397 -0.5871
  496MOL0     C68375   1.860   0.011   7.218  0.4827  0.0096 -0.2311
  496MOL0     C68376   2.552   0.102   7.688 -0.2705 -0.7807 -0.2235
  496MOL0     C68377   2.685   0.107   7.639  0.0498  0.0335 -0.1237
  496MOL0     C68378   2.784   0.054   7.736 -0.6799  0.3586 -0.0190
  496MOL0     H68379   3.112   0.288   7.397 -2.6610  0.9752 -1.2418
  496MOL0     H68380   3.312   0.265   7.244  0.2984 -0.6567  1.8531
  496MOL0     H68381   3.450   0.143   7.123  0.8656 -0.9475 -0.6801
  496MOL0     H68382   3.432   0.296   7.031 -0.8444 -0.1262  0.3353
  496MOL0     H68383   3.632   0.176   6.951 -1.1172  2.1566  1.7040
  496MOL0     H68384   3.520   0.047   6.905 -2.3263  1.0987  1.3168
  496MOL0     H68385   3.597   0.178   6.713 -0.7607 -0.6196  0.2661
  496MOL0     H68386   3.429   0.227   6.745 -1.6277 -2.5544  3.0663
  496MOL0     H68387   3.526   0.423   6.864  2.4066  2.7386  0.6578
  496MOL0     H68388   3.682   0.376   6.822 -0.7953  2.0519  3.7556
  496MOL0     H68389   3.452   0.439   6.616  0.3846 -1.4979  0.1262
  496MOL0     H68390   3.616   0.388   6.572 -1.2588  0.4113 -1.5782
  496MOL0     H68391   3.563   0.639   6.744 -0.7309  0.2548 -1.0336
  496MOL0     H68392   3.716   0.599   6.682 -0.6548  1.2251  1.8364
  496MOL0     H68393   3.628   0.775   6.529  0.8518 -0.2222 -1.2053
  496MOL0     H68394   3.467   0.703   6.526 -0.1776 -0.8361  0.6725
  496MOL0     H68395   3.565   0.521   6.395  3.3449 -1.6814 -0.8573
  496MOL0     H68396   3.565   0.680   6.314  0.2788  0.9597  0.3781
  496MOL0     H68397   3.799   0.820   6.301  3.4013  0.9279 -2.4225
  496MOL0     H68398   4.008   0.811   6.145 -1.8725  0.0834  1.2982
  496MOL0     H68399   4.124   0.677   6.147  1.3178  1.2242  0.5381
  496MOL0     H68400   4.196   0.892   6.269  0.9067 -0.0832 -1.6664
  496MOL0     H68401   4.097   0.846   6.398  0.4641 -1.8206  0.3320
  496MOL0     H68402   4.251   0.686   6.488  3.0417 -7.5328 -0.0832
  496MOL0     H68403   4.259   0.610   6.326  2.0765 -0.0992  0.8104
  496MOL0     H68404   4.458   0.679   6.393 -1.9756 -1.0476  1.7941
  496MOL0     H68405   4.406   0.772   6.247 -0.1136  0.1997  1.0808
  496MOL0     H68406   4.449   1.115   6.554 -1.5180  1.0995 -3.0206
  496MOL0     H68407   4.560   1.321   6.597  0.8147  0.3415  0.1288
  496MOL0     H68408   4.717   1.358   6.553 -1.9364 -0.5385 -3.5681
  496MOL0     H68409   4.696   1.259   6.697  0.6504  0.2209  0.0327
  496MOL0     H68410   5.021   1.407   6.283 -0.9822 -1.2096  0.1002
  496MOL0     H68411   5.243   1.498   6.268 -1.9401 -0.7152 -4.9087
  496MOL0     H68412   5.432   1.463   6.093  1.1527  0.2907 -1.6826
  496MOL0     H68413   5.449   1.571   6.238 -0.3792 -0.4995 -0.0414
  496MOL0     H68414   5.612   1.589   6.072  1.1066  0.0919 -0.3477
  496MOL0     H68415   5.682   1.556   6.235  2.1975 -2.3393 -0.1127
  496MOL0     H68416   5.644   1.327   6.042  2.4298 -0.0431 -2.5006
  496MOL0     H68417   5.740   1.328   6.192  1.2419 -0.3469 -0.2498
  496MOL0     H68418   5.881   1.514   6.084  0.4646 -0.8115  1.1203
  496MOL0     H68419   5.805   1.477   5.932 -1.9194  2.8496  0.5162
  496MOL0     H68420   5.986   1.313   6.117  1.1844  1.5904 -0.9418
  496MOL0     H68421   5.884   1.224   5.995  0.3779 -1.2363  1.5407
  496MOL0     H68422   6.093   1.405   5.917  2.1318 -1.6571 -0.0516
  496MOL0     H68423   5.977   1.320   5.807 -2.4185 -2.1956  1.7439
  496MOL0     H68424   6.173   1.187   6.007  1.1756  2.0439 -0.5773
  496MOL0     H68425   6.238   1.227   5.853  0.5066 -1.8183 -0.8264
  496MOL0     H68426   6.180   1.003   5.838 -0.0050 -0.5768  2.8620
  496MOL0     H68427   6.057   1.086   5.753  3.2819 -1.6406 -1.1002
  496MOL0     H68428   5.425   1.112   6.296 -1.5029 -0.3323 -1.4302
  496MOL0     H68429   5.222   1.024   6.343  2.5162  0.2186  1.7010
  496MOL0     H68430   4.856   0.930   6.334  0.4352  0.8756  0.0426
  496MOL0     H68431   4.647   0.811   6.301 -2.6845 -1.4230  0.8357
  496MOL0     H68432   3.055   0.132   6.927 -0.5683  1.4422 -0.5294
  496MOL0     H68433   2.857   0.147   7.077 -0.5399 -0.2433  1.8921
  496MOL0     H68434   2.620   0.222   7.322  0.6168 -1.7339 -0.4586
  496MOL0     H68435   2.413   0.205   7.393 -0.3213  3.5078  0.2875
  496MOL0     H68436   2.330  -0.099   7.588 -2.3584 -2.2087  2.2551
  496MOL0     H68437   2.303  -0.043   7.756  0.3520 -0.4642  0.3045
  496MOL0     H68438   2.073   0.045   7.697 -0.4141  0.8897 -1.2160
  496MOL0     H68439   2.091  -0.130   7.665 -1.7374  0.0468 -2.7425
  496MOL0     H68440   2.139   0.051   7.442  1.4403 -1.4775  0.9127
  496MOL0     H68441   2.114  -0.110   7.426 -0.3859 -0.1261  0.1874
  496MOL0     H68442   1.900   0.082   7.532  1.1364 -1.0992  3.5929
  496MOL0     H68443   1.874  -0.093   7.517 -0.0411 -0.8411 -2.0056
  496MOL0     H68444   1.819   0.039   7.123 -0.2827  5.1453  1.3139
  496MOL0     H68445   2.532   0.068   7.789 -0.8254  2.6386  0.9714
  496MOL0     H68446   2.851  -0.016   7.686 -0.5695 -1.3767  2.3806
  496MOL0     H68447   2.824   0.136   7.796 -0.9684 -1.1824  2.4542
  496MOL0     H68448   2.726  -0.009   7.805 -0.3084 -0.7940 -0.7258
  497MOL0     O68449   5.726  10.735   8.097  0.3127  0.1941  0.5534
  497MOL0     C68450   5.646  10.802   8.161 -0.6178  0.7692 -1.2962
  497MOL0     O68451   5.669  10.931   8.200  0.0954  0.7432 -0.0256
  497MOL0     C68452   5.804  10.969   8.206 -0.2486  0.0139  0.5176
  497MOL0     C68453   5.915  10.895   8.233  0.0839  0.0615  0.0322
  497MOL0     C68454   6.043  10.953   8.248  0.2422  0.2704  0.1574
  497MOL0     C68455   6.066  11.084   8.245  0.8206 -0.4864  0.5640
  497MOL0     O68456   6.181  11.162   8.261  0.8127 -0.4218  0.5940
  497MOL0     C68457   6.288  11.094   8.329  0.8005 -0.3181 -0.1480
  497MOL0     C68458   6.385  11.195   8.383 -0.5322 -0.3713 -0.6442
  497MOL0     C68459   6.497  11.142   8.475  0.0792  0.7348 -0.3630
  497MOL0     C68460   6.594  11.251   8.504  0.0959 -1.0362 -0.0075
  497MOL0     C68461   6.682  11.225   8.634 -0.9981  0.1085 -0.5516
  497MOL0     C68462   6.772  11.105   8.589  0.7723 -2.0926  0.5140
  497MOL0     C68463   6.851  11.066   8.709 -0.4948  0.5292  0.3008
  497MOL0     C68464   6.956  10.967   8.660 -0.0813  0.2792 -0.6940
  497MOL0     N68465   7.052  10.941   8.769 -0.2735  0.8868 -0.3166
  497MOL0     C68466   7.022  10.874   8.887 -0.1340 -1.2429  0.5124
  497MOL0     C68467   7.141  10.863   8.947 -0.7365 -0.1794 -0.5313
  497MOL0     C68468   7.159  10.789   9.080 -0.0720  0.3257  0.5457
  497MOL0     C68469   7.134  10.861   9.212 -0.4295 -0.2442  0.4284
  497MOL0     C68470   7.212  10.991   9.221  0.1722  0.5339 -0.2222
  497MOL0     C68471   7.363  10.960   9.251  0.4813  0.7218  0.3581
  497MOL0     O68472   7.430  10.941   9.118  0.4669  0.2003 -0.2062
  497MOL0     C68473   7.547  10.871   9.121  1.5797  0.3409  0.7476
  497MOL0     C68474   7.648  10.899   9.211 -0.0849  0.4285  0.0018
  497MOL0     C68475   7.760  10.814   9.216  0.0808 -0.3258  0.7080
  497MOL0     C68476   7.867  10.847   9.316 -0.1562  0.3638 -0.1421
  497MOL0     C68477   7.767  10.711   9.120  0.0195  0.0844 -0.6813
  497MOL0     C68478   7.887  10.624   9.104  0.3913  0.7427  0.0920
  497MOL0     O68479   7.872  10.490   9.072  1.0729 -0.8097  0.2751
  497MOL0     C68480   7.968  10.399   9.112  0.3096 -0.9507 -0.2551
  497MOL0     C68481   8.105  10.410   9.125  0.1542  1.0212  0.7917
  497MOL0     C68482   8.183  10.295   9.159  0.0903  0.0251  0.5448
  497MOL0     C68483   8.129  10.168   9.181  0.5279 -0.9229  0.0580
  497MOL0     O68484   8.191  10.044   9.209  0.2265 -0.8319  0.0514
  497MOL0     C68485   8.320  10.052   9.279  1.2227 -0.1387 -0.2215
  497MOL0     C68486   8.432  10.041   9.173 -0.2519 -0.7966 -1.2068
  497MOL0     C68487   8.576  10.043   9.232 -0.0886 -0.4734 -0.3843
  497MOL0     C68488   8.616   9.904   9.283 -0.4114  0.0427  0.3195
  497MOL0     C68489   8.775   9.882   9.284 -0.0885 -0.1858  0.2970
  497MOL0     C68490   8.821   9.744   9.332  0.9032 -0.0662  0.2174
  497MOL0     C68491   8.794   9.635   9.235  0.2155 -0.2971 -0.4759
  497MOL0     C68492   8.888   9.642   9.114 -0.2764  0.2021  0.1997
  497MOL0    Cl68493   8.861   9.488   8.999  0.3847 -0.0226  0.5756
  497MOL0     C68494   7.995  10.158   9.158  0.9392  0.0405 -0.4170
  497MOL0     C68495   7.914  10.270   9.125  0.5156  0.0252 -0.4241
  497MOL0     O68496   7.994  10.676   9.128  0.1081 -0.0743  0.7037
  497MOL0     C68497   7.661  10.682   9.032  0.1374  0.6743 -0.6802
  497MOL0     C68498   7.548  10.762   9.030 -0.3916 -0.0675  0.2675
  497MOL0     N68499   7.234  10.930   8.870 -0.2383  0.2917  0.7035
  497MOL0     N68500   7.184  10.958   8.763 -0.0895 -0.8343  1.7541
  497MOL0     C68501   5.954  11.163   8.208  0.7124 -0.0055 -0.2348
  497MOL0     C68502   5.826  11.104   8.195  0.1878  0.4129 -0.3191
  497MOL0     C68503   5.516  10.751   8.188  1.0070 -0.2781  0.2947
  497MOL0     C68504   5.413  10.850   8.181  0.6035  0.1598 -0.2467
  497MOL0     C68505   5.279  10.813   8.165  0.1146 -0.3047  0.7069
  497MOL0     C68506   5.234  10.681   8.173  0.0396  0.2540  0.8275
  497MOL0     O68507   5.097  10.649   8.159 -0.4232  0.6635 -0.0878
  497MOL0     C68508   5.022  10.665   8.282  0.5721  0.7323 -0.0180
  497MOL0     C68509   4.884  10.595   8.280 -0.5521  0.1959  0.1328
  497MOL0     C68510   4.787  10.676   8.194  0.4613 -0.0091 -0.9371
  497MOL0     C68511   4.652  10.614   8.220  0.5149  0.1781  0.0806
  497MOL0     C68512   4.556  10.699   8.158  0.0985  0.7395 -0.7137
  497MOL0     C68513   4.458  10.757   8.119 -0.0596 -0.0835 -0.7389
  497MOL0     C68514   5.336  10.585   8.198 -0.4938  0.0318 -0.0957
  497MOL0     C68515   5.474  10.614   8.192  0.2632 -0.0500 -0.1847
  497MOL0     C68516   5.582  10.500   8.194  0.0605  0.0261  0.1047
  497MOL0     H68517   5.919  10.787   8.242  1.8486  0.0728 -0.2540
  497MOL0     H68518   6.125  10.889   8.277 -0.2033  0.9575  3.2824
  497MOL0     H68519   6.334  11.026   8.257 -0.3965 -3.1897  1.6016
  497MOL0     H68520   6.248  11.046   8.419  1.8043 -0.4585  0.2393
  497MOL0     H68521   6.427  11.248   8.297  0.9871  0.7654  0.7161
  497MOL0     H68522   6.327  11.270   8.438  2.2648 -0.4301  2.7408
  497MOL0     H68523   6.450  11.109   8.568  2.1973  1.0417  0.8755
  497MOL0     H68524   6.549  11.061   8.423 -3.0637 -1.6760 -0.0846
  497MOL0     H68525   6.659  11.281   8.421  0.4888  0.0834  0.6887
  497MOL0     H68526   6.539  11.337   8.542  1.6797 -0.6859  1.6594
  497MOL0     H68527   6.620  11.197   8.720  0.1551 -3.8344 -0.7943
  497MOL0     H68528   6.748  11.306   8.668  0.8534 -1.1437 -1.0133
  497MOL0     H68529   6.707  11.022   8.561  1.0822 -2.3388  0.5150
  497MOL0     H68530   6.838  11.137   8.508 -0.5146  2.5285  1.0078
  497MOL0     H68531   6.799  11.015   8.790 -0.9406 -0.6396 -0.6802
  497MOL0     H68532   6.903  11.157   8.739  0.5444  0.7477 -1.9445
  497MOL0     H68533   6.909  10.871   8.634 -0.1710 -1.1084  3.7246
  497MOL0     H68534   7.009  11.011   8.575  1.5688  0.3903  0.3298
  497MOL0     H68535   6.926  10.838   8.924 -3.1743  4.5173 -0.5137
  497MOL0     H68536   7.260  10.745   9.078 -0.0635  0.3559 -0.1294
  497MOL0     H68537   7.101  10.697   9.073  1.2227 -0.4526 -0.5009
  497MOL0     H68538   7.030  10.896   9.220  0.0015  1.5597 -1.2238
  497MOL0     H68539   7.136  10.789   9.294 -2.4005 -0.4045  0.4002
  497MOL0     H68540   7.203  11.053   9.132  0.4484  2.2780  0.8996
  497MOL0     H68541   7.173  11.043   9.310 -1.4861 -1.0654  0.0361
  497MOL0     H68542   7.413  11.046   9.296  0.0087  2.5274 -2.2934
  497MOL0     H68543   7.377  10.873   9.315 -1.0164  1.0553  1.1956
  497MOL0     H68544   7.627  10.985   9.274 -0.8575  0.3334 -0.1221
  497MOL0     H68545   7.905  10.755   9.362  1.7697  1.4190  0.4639
  497MOL0     H68546   7.826  10.916   9.390 -0.9558 -0.5552  0.2911
  497MOL0     H68547   7.953  10.902   9.276  1.8407  0.6184  4.0023
  497MOL0     H68548   8.156  10.505   9.111 -1.4054  1.8888  0.7118
  497MOL0     H68549   8.288  10.319   9.176 -0.6332  2.6004  1.8562
  497MOL0     H68550   8.321  10.143   9.339  0.7843 -0.3840  0.1596
  497MOL0     H68551   8.329   9.965   9.346 -1.8035  0.2079  0.7658
  497MOL0     H68552   8.407   9.945   9.128 -0.9634 -1.2286  0.0510
  497MOL0     H68553   8.426  10.123   9.101  2.1404 -0.3996 -1.0449
  497MOL0     H68554   8.588  10.120   9.309 -1.9349 -0.2417 -0.2850
  497MOL0     H68555   8.637  10.074   9.146  1.5720 -0.3700  0.7911
  497MOL0     H68556   8.577   9.824   9.220 -0.8015  1.6161 -1.5190
  497MOL0     H68557   8.581   9.895   9.386  0.9151  2.2863  1.0376
  497MOL0     H68558   8.816   9.895   9.184  1.6730  1.7810  1.1855
  497MOL0     H68559   8.832   9.953   9.345 -0.0627  0.9730 -1.0312
  497MOL0     H68560   8.771   9.719   9.426 -0.4471  1.1564 -0.1283
  497MOL0     H68561   8.926   9.742   9.361  0.6826  1.1223  1.2137
  497MOL0     H68562   8.687   9.630   9.210  0.2481  0.1575 -0.7219
  497MOL0     H68563   8.831   9.549   9.291 -1.7775 -0.2195  1.0569
  497MOL0     H68564   8.993   9.657   9.139 -0.3124  0.1855  0.3593
  497MOL0     H68565   8.868   9.732   9.055  3.7719  0.5534 -0.9659
  497MOL0     H68566   7.951  10.060   9.176  0.5613  0.7240  3.0840
  497MOL0     H68567   7.807  10.256   9.122  0.8368 -2.8050 -2.4448
  497MOL0     H68568   7.678  10.595   8.969 -0.9180 -0.6739  0.8335
  497MOL0     H68569   7.461  10.746   8.967 -0.3389 -0.5853  0.3204
  497MOL0     H68570   5.965  11.270   8.194  1.1434 -0.1413 -1.0312
  497MOL0     H68571   5.739  11.167   8.186 -0.8713 -0.8412  0.7417
  497MOL0     H68572   5.433  10.956   8.198 -3.0256  0.5525  2.9933
  497MOL0     H68573   5.207  10.894   8.156  0.3396  0.0383  1.8475
  497MOL0     H68574   5.082  10.633   8.368  0.6890 -0.6930 -0.6027
  497MOL0     H68575   5.014  10.773   8.298  1.0066  0.5940  1.3201
  497MOL0     H68576   4.846  10.593   8.382 -1.1219  2.7343  0.0205
  497MOL0     H68577   4.877  10.491   8.244 -1.8337 -0.6542  2.6134
  497MOL0     H68578   4.788  10.779   8.232  0.5959 -0.2661 -0.2219
  497MOL0     H68579   4.814  10.666   8.089 -0.4265 -2.1372 -1.0165
  497MOL0     H68580   4.616  10.610   8.324 -2.6975  3.8734 -0.6804
  497MOL0     H68581   4.641  10.519   8.166 -3.1237  0.2088  0.5612
  497MOL0     H68582   4.390  10.826   8.072  0.9306 -1.1616 -4.0292
  497MOL0     H68583   5.307  10.481   8.211 -1.8159  0.1418 -1.7846
  497MOL0     H68584   5.673  10.545   8.235 -1.4718  0.4212  3.3693
  497MOL0     H68585   5.555  10.412   8.252 -0.7345 -0.1856 -0.5658
  497MOL0     H68586   5.584  10.461   8.092 -1.4311 -0.8484  0.3849
  498MOL0     O68587   6.186   6.617   3.513  0.7689 -1.2134  0.1934
  498MOL0     C68588   6.136   6.583   3.408 -0.5819 -0.8064 -0.0587
  498MOL0     O68589   6.191   6.490   3.324 -1.0129  0.1080 -0.4484
  498MOL0     C68590   6.318   6.436   3.355  0.3571  0.4824  0.5132
  498MOL0     C68591   6.330   6.315   3.421  0.4609  0.1278 -0.2172
  498MOL0     C68592   6.452   6.282   3.469  0.1896 -0.3588 -0.6480
  498MOL0     C68593   6.565   6.366   3.471 -0.0021  0.5399  0.0439
  498MOL0     O68594   6.677   6.315   3.534 -0.7310 -0.1753 -0.2806
  498MOL0     C68595   6.738   6.408   3.625  0.3116  0.3316 -0.1931
  498MOL0     C68596   6.847   6.340   3.709  0.2306  0.0501  0.4322
  498MOL0     C68597   6.967   6.299   3.623 -0.2689 -0.5846 -0.8776
  498MOL0     C68598   7.069   6.221   3.718 -0.3294  1.2719  0.3262
  498MOL0     C68599   7.212   6.260   3.712 -0.3372  0.0784  0.5434
  498MOL0     C68600   7.250   6.399   3.759  0.2950 -0.7926  1.3554
  498MOL0     C68601   7.407   6.417   3.769  0.5149 -0.1559 -0.1069
  498MOL0     C68602   7.452   6.536   3.852  0.0034  0.0264 -0.5696
  498MOL0     N68603   7.427   6.520   4.004 -0.1748  0.5884  1.3303
  498MOL0     C68604   7.472   6.431   4.094 -0.4557 -1.0398 -0.1646
  498MOL0     C68605   7.433   6.488   4.217  0.3641 -0.6248  0.6288
  498MOL0     C68606   7.433   6.419   4.358  0.4584  0.4087  0.0017
  498MOL0     C68607   7.380   6.510   4.461 -0.1928 -0.0118  0.2264
  498MOL0     C68608   7.365   6.443   4.598  0.2076 -0.2877  0.0055
  498MOL0     C68609   7.494   6.371   4.639  0.1027  0.7808 -0.3375
  498MOL0     O68610   7.605   6.458   4.649  0.0953 -0.1432  0.3368
  498MOL0     C68611   7.730   6.394   4.638  0.2082  0.1116 -0.3824
  498MOL0     C68612   7.826   6.428   4.539  0.1662 -0.2154 -0.4559
  498MOL0     C68613   7.943   6.362   4.518 -0.8935  0.4850 -0.4799
  498MOL0     C68614   8.034   6.411   4.409  0.1443  0.8585 -0.7025
  498MOL0     C68615   7.975   6.250   4.610 -0.1294 -0.1806  0.5758
  498MOL0     C68616   8.098   6.162   4.588 -0.0194 -0.2435  1.0092
  498MOL0     O68617   8.212   6.227   4.548  0.2384  0.0765  0.2780
  498MOL0     C68618   8.331   6.163   4.521 -0.5097 -0.0271  1.0653
  498MOL0     C68619   8.335   6.048   4.443 -1.6701  0.1705  0.5748
  498MOL0     C68620   8.461   5.985   4.426  0.1399  0.2292 -0.5418
  498MOL0     C68621   8.574   6.038   4.489  0.4472  0.3121  0.1720
  498MOL0     O68622   8.697   5.971   4.476 -0.1429 -0.2357  0.0913
  498MOL0     C68623   8.700   5.831   4.509  0.8169 -0.7353 -0.0627
  498MOL0     C68624   8.804   5.758   4.431 -0.8343  1.0251 -0.4843
  498MOL0     C68625   8.833   5.621   4.493 -0.5156  0.2065  0.3098
  498MOL0     C68626   8.930   5.537   4.406 -0.8344 -0.0492  0.7181
  498MOL0     C68627   9.011   5.443   4.495 -0.8346  0.7563  0.2976
  498MOL0     C68628   9.096   5.359   4.398  0.3699 -0.6016  1.3470
  498MOL0     C68629   9.167   5.256   4.485 -0.1243  0.0643 -0.5799
  498MOL0     C68630   9.249   5.164   4.394  0.1934 -0.0439  0.5813
  498MOL0    Cl68631   9.350   5.047   4.483  0.3427 -0.2159  0.1883
  498MOL0     C68632   8.570   6.156   4.554 -0.3408  0.1323 -0.4243
  498MOL0     C68633   8.450   6.224   4.570 -0.7525 -0.0222  0.7174
  498MOL0     O68634   8.087   6.042   4.604  0.3948  0.7534  0.7379
  498MOL0     C68635   7.874   6.205   4.701 -0.1012 -0.5278 -0.7658
  498MOL0     C68636   7.758   6.288   4.719 -0.2514  0.6805 -0.0748
  498MOL0     N68637   7.366   6.606   4.194 -0.1128  0.1516 -0.6314
  498MOL0     N68638   7.362   6.623   4.066 -0.3586 -0.4064 -0.1734
  498MOL0     C68639   6.555   6.489   3.401  0.1233  0.0334  0.1712
  498MOL0     C68640   6.431   6.524   3.347 -0.5932 -1.2302  0.0582
  498MOL0     C68641   5.995   6.614   3.392  0.2673 -0.1066  0.8027
  498MOL0     C68642   5.920   6.516   3.325  0.1921  0.0734 -0.0883
  498MOL0     C68643   5.780   6.526   3.312  0.0726  1.3714 -0.6951
  498MOL0     C68644   5.715   6.638   3.356 -0.2779 -0.1907 -0.4183
  498MOL0     O68645   5.583   6.672   3.342 -0.0326 -0.6017 -0.9414
  498MOL0     C68646   5.491   6.564   3.314  0.1983 -0.0805  0.1105
  498MOL0     C68647   5.345   6.603   3.306 -0.3924  0.5897  0.2387
  498MOL0     C68648   5.260   6.477   3.277 -0.5041 -0.4016  0.0558
  498MOL0     C68649   5.111   6.516   3.295  0.1795  0.8363 -0.6360
  498MOL0     C68650   5.032   6.390   3.302  0.5856 -0.2534 -0.4514
  498MOL0     C68651   4.967   6.294   3.320 -0.3359 -0.5424  0.4381
  498MOL0     C68652   5.787   6.733   3.433 -0.2492 -0.1706 -0.1346
  498MOL0     C68653   5.925   6.725   3.446 -0.8272  0.6296 -0.4605
  498MOL0     C68654   5.996   6.831   3.521  0.2310  0.3370  0.2362
  498MOL0     H68655   6.241   6.255   3.433 -0.7842  1.5930 -1.5701
  498MOL0     H68656   6.459   6.183   3.512 -0.0397 -0.6150 -1.1871
  498MOL0     H68657   6.674   6.461   3.697  1.8325  3.2683 -0.8608
  498MOL0     H68658   6.786   6.484   3.563 -2.3687  1.3845 -1.0861
  498MOL0     H68659   6.881   6.407   3.789 -1.7510  0.3607  1.0543
  498MOL0     H68660   6.798   6.252   3.753  0.9593 -0.2000  0.7645
  498MOL0     H68661   6.923   6.232   3.550 -1.4896 -0.2599 -0.4592
  498MOL0     H68662   7.022   6.379   3.573  0.5198 -1.3534 -1.2574
  498MOL0     H68663   7.036   6.229   3.822  3.4297  0.1817  1.7805
  498MOL0     H68664   7.065   6.120   3.678  0.9578  1.2704  0.1347
  498MOL0     H68665   7.255   6.241   3.614  2.9409 -3.8874  2.4500
  498MOL0     H68666   7.267   6.189   3.774  2.8392  1.4575 -0.4613
  498MOL0     H68667   7.217   6.472   3.685  2.1234 -1.4444 -0.2157
  498MOL0     H68668   7.199   6.419   3.853  0.6636 -1.6940  1.7667
  498MOL0     H68669   7.445   6.418   3.667 -1.7368 -1.4175 -1.0437
  498MOL0     H68670   7.441   6.330   3.827 -0.0458 -0.8962 -0.8583
  498MOL0     H68671   7.561   6.547   3.856 -0.0136 -0.1199  1.1794
  498MOL0     H68672   7.402   6.628   3.822 -1.3440 -1.7538 -4.3924
  498MOL0     H68673   7.538   6.345   4.081  1.0370  0.1156 -0.4583
  498MOL0     H68674   7.536   6.393   4.383  1.0723  3.1093  0.6040
  498MOL0     H68675   7.368   6.331   4.350  2.6924 -1.2819 -0.6512
  498MOL0     H68676   7.445   6.597   4.470  0.0949 -0.0714 -1.0496
  498MOL0     H68677   7.282   6.545   4.425  0.4663 -0.3679 -2.0924
  498MOL0     H68678   7.341   6.520   4.672 -0.1437  1.0297 -1.4135
  498MOL0     H68679   7.279   6.375   4.590  0.9948 -1.2115 -0.7954
  498MOL0     H68680   7.477   6.330   4.738  2.3311 -2.0274 -0.9807
  498MOL0     H68681   7.511   6.286   4.572  0.5797  1.0643 -0.5834
  498MOL0     H68682   7.819   6.518   4.477  2.2761 -0.0255 -0.4869
  498MOL0     H68683   8.116   6.467   4.455 -0.3468  0.7308  0.3375
  498MOL0     H68684   7.984   6.477   4.337  0.3552  0.1592 -1.5057
  498MOL0     H68685   8.085   6.333   4.352  1.7755  0.0363  1.7227
  498MOL0     H68686   8.245   6.002   4.403 -2.2243  0.5802  1.3311
  498MOL0     H68687   8.454   5.887   4.379 -3.2838 -0.9986  2.0615
  498MOL0     H68688   8.720   5.827   4.617  1.8556  1.7287 -0.0959
  498MOL0     H68689   8.603   5.785   4.487 -1.3712  2.1574  2.7213
  498MOL0     H68690   8.784   5.749   4.323  1.1464  2.9596 -1.0872
  498MOL0     H68691   8.893   5.819   4.450 -0.8836  1.0253 -0.2586
  498MOL0     H68692   8.735   5.571   4.490 -0.6822  0.0198  4.1147
  498MOL0     H68693   8.878   5.643   4.590  1.0792 -1.0910 -0.1018
  498MOL0     H68694   9.010   5.596   4.361 -0.4770 -0.4261  0.8488
  498MOL0     H68695   8.880   5.479   4.327 -0.3877 -0.8076  0.9796
  498MOL0     H68696   9.066   5.503   4.568  0.6072  1.5556 -1.3687
  498MOL0     H68697   8.939   5.382   4.551  0.8266 -0.7367  0.8864
  498MOL0     H68698   9.162   5.435   4.355  0.6900 -2.5702 -1.9326
  498MOL0     H68699   9.028   5.316   4.324  0.0128  2.6311 -0.3688
  498MOL0     H68700   9.091   5.201   4.540  3.1551 -2.7014  1.5953
  498MOL0     H68701   9.236   5.304   4.556  2.2394 -2.3439 -1.0644
  498MOL0     H68702   9.310   5.230   4.330  0.7159 -0.8112  0.2774
  498MOL0     H68703   9.177   5.107   4.334 -0.4464  3.4632 -2.4072
  498MOL0     H68704   8.660   6.186   4.606 -0.3780 -2.6880  1.5052
  498MOL0     H68705   8.442   6.316   4.627 -1.9300 -0.3856  1.1693
  498MOL0     H68706   7.884   6.120   4.768  2.5210  0.8348  0.7587
  498MOL0     H68707   7.685   6.258   4.794 -1.3814  0.4085 -1.2466
  498MOL0     H68708   6.650   6.540   3.389  2.3804 -4.3087 -3.2681
  498MOL0     H68709   6.424   6.618   3.294 -0.0046 -0.1508  1.8250
  498MOL0     H68710   5.963   6.422   3.292  2.7480  1.4735 -1.0374
  498MOL0     H68711   5.732   6.446   3.257  2.6262 -2.6562  2.3534
  498MOL0     H68712   5.523   6.531   3.215 -0.6079 -2.9544  0.7315
  498MOL0     H68713   5.500   6.477   3.378  2.2797 -0.3735 -0.5217
  498MOL0     H68714   5.329   6.675   3.225 -3.0247 -0.9867 -0.7764
  498MOL0     H68715   5.314   6.645   3.402 -1.7867  0.4472 -0.1272
  498MOL0     H68716   5.277   6.451   3.172  0.6119  1.0911 -0.1754
  498MOL0     H68717   5.286   6.406   3.355  0.0898  3.1049  3.3497
  498MOL0     H68718   5.085   6.569   3.203 -1.7589 -1.3140 -1.4353
  498MOL0     H68719   5.103   6.575   3.386 -1.0653 -2.9297  1.9425
  498MOL0     H68720   4.913   6.201   3.326 -1.3720  0.0160 -0.0281
  498MOL0     H68721   5.733   6.819   3.471  1.3817 -0.1168  2.3038
  498MOL0     H68722   5.935   6.921   3.516  1.0007  0.9053  0.7101
  498MOL0     H68723   6.017   6.803   3.624  0.2980  0.3442  0.2248
  498MOL0     H68724   6.089   6.852   3.466  0.5561  1.6375  1.2244
  499MOL0     O68725   1.949   4.800   7.419 -0.0096  0.0404 -0.4521
  499MOL0     C68726   1.976   4.742   7.321  1.5220 -0.0866 -0.2046
  499MOL0     O68727   2.101   4.726   7.274  0.5946  0.4035  0.2630
  499MOL0     C68728   2.201   4.800   7.333 -0.9192  0.1349  0.0045
  499MOL0     C68729   2.322   4.734   7.349  0.1030  0.3009 -0.2144
  499MOL0     C68730   2.431   4.802   7.393  0.3658  0.3395 -0.7656
  499MOL0     C68731   2.430   4.945   7.398  0.5191  0.4184  0.0785
  499MOL0     O68732   2.544   5.001   7.441  0.0100 -0.0961  0.1566
  499MOL0     C68733   2.549   5.012   7.585  0.2372 -0.3114  0.2886
  499MOL0     C68734   2.520   5.156   7.626  0.4162 -0.0903  0.7073
  499MOL0     C68735   2.607   5.261   7.557 -0.1638 -0.5610 -0.4890
  499MOL0     C68736   2.570   5.405   7.607 -0.5011 -0.4247 -0.0580
  499MOL0     C68737   2.650   5.517   7.530 -0.5598 -0.1565  0.9785
  499MOL0     C68738   2.631   5.651   7.600  0.1830  0.0781 -0.2139
  499MOL0     C68739   2.593   5.776   7.512  0.7159  0.2345 -0.5265
  499MOL0     C68740   2.470   5.774   7.431  0.9150 -0.1405  0.7557
  499MOL0     N68741   2.355   5.779   7.530 -0.2258  0.7365  0.6820
  499MOL0     C68742   2.319   5.882   7.612 -0.6617 -0.3167 -0.0213
  499MOL0     C68743   2.200   5.849   7.655 -0.7166  0.3193  0.0407
  499MOL0     C68744   2.117   5.940   7.747 -0.5227  0.4215 -0.9643
  499MOL0     C68745   1.983   5.893   7.797  0.5944 -0.3754  0.6404
  499MOL0     C68746   2.002   5.785   7.894  0.4962  0.1691  0.3749
  499MOL0     C68747   1.921   5.794   8.027 -0.9340  0.1102 -0.0899
  499MOL0     O68748   1.780   5.762   8.020  0.0108  0.0721  0.4290
  499MOL0     C68749   1.731   5.631   8.031  0.0232 -0.2409 -0.1348
  499MOL0     C68750   1.819   5.525   8.015  0.3603  0.6169 -0.4662
  499MOL0     C68751   1.764   5.395   8.027 -0.3768 -0.0728  0.4710
  499MOL0     C68752   1.876   5.293   8.011 -0.4353  0.4935  0.2052
  499MOL0     C68753   1.625   5.382   8.049 -0.0592 -0.5560 -0.0502
  499MOL0     C68754   1.560   5.252   8.081 -1.1486 -0.1014  0.7175
  499MOL0     O68755   1.427   5.252   8.047  0.1595 -0.0056  0.1038
  499MOL0     C68756   1.362   5.145   8.100  0.3332 -0.2875  0.2949
  499MOL0     C68757   1.356   5.025   8.026 -0.0462 -0.1797 -0.4746
  499MOL0     C68758   1.289   4.918   8.074  0.1426  0.6959  0.4304
  499MOL0     C68759   1.221   4.925   8.195 -0.7879  0.6533  0.2866
  499MOL0     O68760   1.136   4.826   8.237 -0.1158  0.2429 -0.5859
  499MOL0     C68761   1.032   4.797   8.142  0.1074  0.0046 -0.7920
  499MOL0     C68762   0.924   4.717   8.211 -0.4547 -0.0331 -0.1396
  499MOL0     C68763   0.881   4.773   8.347 -0.4274  0.0042  1.0057
  499MOL0     C68764   0.805   4.675   8.439  0.2926  0.3335  0.0710
  499MOL0     C68765   0.668   4.658   8.392  0.6700 -0.0035  0.1795
  499MOL0     C68766   0.592   4.564   8.480  0.4346 -0.2409 -0.8833
  499MOL0     C68767   0.458   4.547   8.418  0.1597  0.1499  0.1656
  499MOL0     C68768   0.357   4.449   8.480  0.0128 -0.2026  0.3595
  499MOL0    Cl68769   0.215   4.411   8.369  0.1636  0.1135  0.7428
  499MOL0     C68770   1.224   5.045   8.269  0.4848 -0.4509  0.5061
  499MOL0     C68771   1.295   5.158   8.218  0.9286 -0.5179 -0.4452
  499MOL0     O68772   1.618   5.169   8.143  0.2560 -0.3012 -0.2943
  499MOL0     C68773   1.542   5.493   8.056 -0.7097  0.0420 -0.1501
  499MOL0     C68774   1.597   5.622   8.045 -0.5643  0.2509 -0.4333
  499MOL0     N68775   2.161   5.724   7.601  1.1333 -0.2522 -0.6292
  499MOL0     N68776   2.253   5.693   7.523  0.9571  0.3955 -1.3726
  499MOL0     C68777   2.308   5.014   7.376 -0.7524  0.0375  0.2590
  499MOL0     C68778   2.194   4.938   7.343 -0.1981  0.5925 -0.0721
  499MOL0     C68779   1.868   4.686   7.242  0.5220  0.5358 -0.2373
  499MOL0     C68780   1.737   4.753   7.238 -0.2555  0.5669 -0.5332
  499MOL0     C68781   1.633   4.685   7.166  0.8587  0.3582  0.5463
  499MOL0     C68782   1.647   4.567   7.093 -0.4275 -0.5606 -0.5500
  499MOL0     O68783   1.546   4.512   7.032  0.2309 -0.7272 -0.0650
  499MOL0     C68784   1.535   4.563   6.897  0.2463 -0.1520 -0.4158
  499MOL0     C68785   1.393   4.555   6.834  0.2332 -0.2042 -0.5076
  499MOL0     C68786   1.288   4.608   6.921  0.4929 -0.1884 -0.2994
  499MOL0     C68787   1.156   4.576   6.862  0.4894  0.5870  0.3321
  499MOL0     C68788   1.041   4.655   6.913 -0.4494 -0.0352  0.1100
  499MOL0     C68789   0.949   4.722   6.949  0.0126  0.2977 -0.1898
  499MOL0     C68790   1.762   4.500   7.121  0.4220 -0.5438 -0.3751
  499MOL0     C68791   1.873   4.552   7.191  0.1083  0.1557  0.6425
  499MOL0     C68792   1.995   4.463   7.218  0.9839 -0.0630 -0.9777
  499MOL0     H68793   2.334   4.628   7.333  1.3703  0.4937 -0.6412
  499MOL0     H68794   2.521   4.743   7.408 -0.2702  0.0649  2.7220
  499MOL0     H68795   2.651   4.995   7.621  0.8511  2.9486  0.4135
  499MOL0     H68796   2.479   4.948   7.640  0.7419 -1.9263 -0.8936
  499MOL0     H68797   2.415   5.178   7.602  0.5895 -0.7118 -0.7134
  499MOL0     H68798   2.539   5.165   7.733  2.2336 -3.5223  0.8199
  499MOL0     H68799   2.712   5.241   7.578  0.0352  1.8378  1.2516
  499MOL0     H68800   2.587   5.263   7.449  3.3173  2.8487 -1.2897
  499MOL0     H68801   2.463   5.422   7.589 -0.5316  0.5081  0.9261
  499MOL0     H68802   2.588   5.410   7.715 -2.2895 -4.4401  0.6406
  499MOL0     H68803   2.623   5.512   7.425 -0.5705 -1.7588  1.0407
  499MOL0     H68804   2.757   5.501   7.544 -0.2633 -0.2245 -1.1340
  499MOL0     H68805   2.556   5.639   7.679  2.7088 -1.5387  2.1272
  499MOL0     H68806   2.725   5.677   7.650  2.0048 -1.8955 -2.3659
  499MOL0     H68807   2.673   5.797   7.441  2.6971 -2.6799  0.6496
  499MOL0     H68808   2.587   5.866   7.574 -1.7467 -0.0097 -0.2897
  499MOL0     H68809   2.464   5.864   7.370 -0.1709  0.0080  1.0513
  499MOL0     H68810   2.467   5.688   7.363 -2.4042  2.0091 -2.1843
  499MOL0     H68811   2.381   5.968   7.639  2.5670 -2.4978  0.1335
  499MOL0     H68812   2.087   6.030   7.692 -2.0939 -0.5564 -1.7479
  499MOL0     H68813   2.175   5.987   7.828  1.5421 -1.9609 -0.9327
  499MOL0     H68814   1.933   5.979   7.842  1.3700  1.5100 -1.8465
  499MOL0     H68815   1.933   5.854   7.708 -0.4038  0.3541  0.8656
  499MOL0     H68816   1.980   5.693   7.840 -3.9836  1.3498 -0.1713
  499MOL0     H68817   2.103   5.781   7.936  0.7905  1.2912 -0.2025
  499MOL0     H68818   1.967   5.731   8.104  2.2614 -0.0040 -1.9047
  499MOL0     H68819   1.932   5.895   8.067  1.3904  0.3359 -1.1220
  499MOL0     H68820   1.927   5.539   8.008  0.6086  1.2095  2.7326
  499MOL0     H68821   1.834   5.193   8.025 -0.3508  0.2568 -1.1439
  499MOL0     H68822   1.957   5.295   8.086 -0.6955 -2.9321  0.7397
  499MOL0     H68823   1.912   5.295   7.908 -4.6176 -2.7144 -1.6071
  499MOL0     H68824   1.391   5.016   7.924 -2.0634 -1.0640 -1.1275
  499MOL0     H68825   1.284   4.827   8.015 -2.3099  2.3141 -2.0849
  499MOL0     H68826   0.994   4.897   8.117  1.3138  1.2194  1.8254
  499MOL0     H68827   1.060   4.748   8.049  0.1539  1.3856 -1.5312
  499MOL0     H68828   0.838   4.715   8.143 -0.0503  0.7452 -0.6928
  499MOL0     H68829   0.961   4.614   8.215 -2.8088 -1.1468 -3.1945
  499MOL0     H68830   0.807   4.852   8.326 -0.3462  0.1865  1.4074
  499MOL0     H68831   0.971   4.809   8.397  1.6056 -0.4118 -2.0505
  499MOL0     H68832   0.815   4.708   8.543 -2.6695 -0.0946  0.5690
  499MOL0     H68833   0.852   4.576   8.435 -0.5467 -0.0306 -1.6396
  499MOL0     H68834   0.617   4.755   8.381  1.4124  0.2500 -1.2875
  499MOL0     H68835   0.670   4.611   8.293 -0.2508 -2.0906  1.1055
  499MOL0     H68836   0.575   4.617   8.574 -0.6917  1.8872 -2.1950
  499MOL0     H68837   0.645   4.470   8.494 -1.0403 -1.1187 -0.9551
  499MOL0     H68838   0.467   4.526   8.311  1.9141 -2.1954  0.7027
  499MOL0     H68839   0.414   4.648   8.422  0.0504  0.0590  1.6992
  499MOL0     H68840   0.328   4.480   8.581  0.5433  0.3970  0.3371
  499MOL0     H68841   0.419   4.359   8.490  1.3324  0.7980  1.8021
  499MOL0     H68842   1.167   5.072   8.357 -1.9470 -0.5125 -0.9755
  499MOL0     H68843   1.297   5.249   8.276  2.3742 -0.6986 -0.1664
  499MOL0     H68844   1.434   5.500   8.066 -0.7300 -0.8827  0.4341
  499MOL0     H68845   1.537   5.712   8.050 -1.8389 -0.2875 -3.5849
  499MOL0     H68846   2.321   5.120   7.397 -0.8205  0.5162 -1.9117
  499MOL0     H68847   2.103   4.993   7.322  0.0739  0.9238 -0.3856
  499MOL0     H68848   1.703   4.834   7.301 -1.5189  0.4666 -1.0452
  499MOL0     H68849   1.538   4.738   7.168  1.1806  0.9507  0.4647
  499MOL0     H68850   1.555   4.671   6.904 -2.8552  0.4451  1.6612
  499MOL0     H68851   1.604   4.511   6.831  0.7144 -1.0601  0.7464
  499MOL0     H68852   1.385   4.447   6.821 -0.6353 -0.5676  2.4101
  499MOL0     H68853   1.389   4.599   6.734 -1.2134  2.1667  0.5174
  499MOL0     H68854   1.291   4.556   7.017  1.8729 -4.3040 -2.3259
  499MOL0     H68855   1.305   4.716   6.928  1.1135 -0.2521 -0.7522
  499MOL0     H68856   1.145   4.467   6.863  2.2507  0.3850  0.7488
  499MOL0     H68857   1.158   4.592   6.754  1.5590 -1.1571  0.0469
  499MOL0     H68858   0.861   4.781   6.969 -2.0630 -2.1447 -1.5536
  499MOL0     H68859   1.761   4.399   7.081  0.0405  0.0721 -1.9584
  499MOL0     H68860   2.078   4.476   7.147  1.5509 -3.9425 -1.2553
  499MOL0     H68861   2.009   4.469   7.326  3.7954  1.6082 -1.3269
  499MOL0     H68862   1.962   4.362   7.193  1.5519  0.5067 -4.7033
  500MOL0     O68863   5.809   4.091   2.929  0.4016  0.4344  0.2642
  500MOL0     C68864   5.836   4.131   2.816 -0.4687  0.2751 -0.2068
  500MOL0     O68865   5.961   4.142   2.771 -0.2051  0.2838 -0.1263
  500MOL0     C68866   6.055   4.149   2.870 -0.1859 -0.2015 -0.5272
  500MOL0     C68867   6.102   4.039   2.944  0.0088  0.1919  0.2260
  500MOL0     C68868   6.206   4.038   3.044 -0.1429 -0.2276 -0.0558
  500MOL0     C68869   6.267   4.160   3.069 -0.0472  0.3625  0.2529
  500MOL0     O68870   6.362   4.159   3.165 -0.3417  0.4224  0.1974
  500MOL0     C68871   6.375   4.280   3.245  0.1979  0.2813 -0.6515
  500MOL0     C68872   6.499   4.349   3.197  0.0903 -0.1786  0.1865
  500MOL0     C68873   6.624   4.264   3.215 -0.1197 -0.1035  0.3818
  500MOL0     C68874   6.750   4.324   3.156  0.1831 -0.1491  0.3384
  500MOL0     C68875   6.875   4.241   3.196  0.3946 -0.0650 -0.8077
  500MOL0     C68876   6.892   4.110   3.119  0.9368 -0.0311 -0.4131
  500MOL0     C68877   6.923   4.111   2.973 -1.0421  0.3128  0.4410
  500MOL0     C68878   7.054   4.185   2.942  0.7195 -0.4031  0.3130
  500MOL0     N68879   7.071   4.189   2.792  0.1014 -0.0166 -0.2818
  500MOL0     C68880   6.978   4.216   2.695 -0.7795  0.7065  0.0142
  500MOL0     C68881   7.033   4.166   2.583 -0.3643 -0.2221 -1.0984
  500MOL0     C68882   6.971   4.166   2.443  0.7718 -0.1858  0.0742
  500MOL0     C68883   6.977   4.027   2.381 -0.6683 -0.3226  0.3417
  500MOL0     C68884   6.974   4.035   2.226 -0.8375 -0.2079  0.7602
  500MOL0     C68885   6.846   4.096   2.163 -0.4840  0.0395 -0.3788
  500MOL0     O68886   6.737   4.028   2.223  0.6717 -0.0590  0.6644
  500MOL0     C68887   6.606   4.061   2.192  0.1886  0.0915  0.1252
  500MOL0     C68888   6.514   4.015   2.278  0.2392  0.9254  0.0357
  500MOL0     C68889   6.378   4.054   2.266 -0.2495 -0.1612 -0.1781
  500MOL0     C68890   6.283   3.995   2.367 -0.1711  0.7950  0.0311
  500MOL0     C68891   6.329   4.133   2.161 -0.0538  0.7255 -0.1227
  500MOL0     C68892   6.188   4.176   2.149  0.2264 -0.3632 -0.0713
  500MOL0     O68893   6.160   4.308   2.129 -0.1503  0.4476 -0.4293
  500MOL0     C68894   6.034   4.343   2.135  0.5370 -0.8364  0.6537
  500MOL0     C68895   6.002   4.409   2.016 -0.2827  0.0157 -0.3255
  500MOL0     C68896   5.868   4.446   2.000 -0.8376  0.3089 -0.0747
  500MOL0     C68897   5.775   4.439   2.097 -0.2058 -0.2057  0.0659
  500MOL0     O68898   5.650   4.484   2.059 -0.0423 -0.2116 -0.5469
  500MOL0     C68899   5.557   4.533   2.161  0.5835  0.3421 -0.1573
  500MOL0     C68900   5.459   4.630   2.080  0.4459  1.2903 -0.1622
  500MOL0     C68901   5.332   4.651   2.161  0.4707 -0.0238  0.1520
  500MOL0     C68902   5.241   4.747   2.082 -0.0572  0.8977 -0.2212
  500MOL0     C68903   5.142   4.800   2.183  0.2598  0.2359  0.6967
  500MOL0     C68904   5.048   4.692   2.241 -0.4976  0.4113  0.6232
  500MOL0     C68905   4.935   4.750   2.329 -0.5820  0.0038 -0.0656
  500MOL0     C68906   4.818   4.653   2.345 -0.0812  0.1916  0.5264
  500MOL0    Cl68907   4.869   4.489   2.397 -0.2534 -0.1011  0.3374
  500MOL0     C68908   5.819   4.395   2.222 -1.2306 -0.5984 -0.8141
  500MOL0     C68909   5.946   4.344   2.242  0.0585 -0.1430  0.0983
  500MOL0     O68910   6.095   4.094   2.169 -0.0417  0.5123 -0.3279
  500MOL0     C68911   6.418   4.176   2.062  1.0113 -0.4111 -0.9637
  500MOL0     C68912   6.557   4.131   2.077  0.0615 -0.5373 -0.3161
  500MOL0     N68913   7.160   4.115   2.616 -0.4277 -0.4775 -0.2948
  500MOL0     N68914   7.179   4.130   2.740 -0.1547 -0.0672  0.0712
  500MOL0     C68915   6.231   4.273   2.996 -0.9548 -0.9334  0.3377
  500MOL0     C68916   6.125   4.265   2.898 -0.3546  0.5876 -0.3839
  500MOL0     C68917   5.731   4.157   2.724 -0.5403 -0.3686  0.7655
  500MOL0     C68918   5.619   4.078   2.725  0.2875 -0.0689  0.7639
  500MOL0     C68919   5.507   4.106   2.653  0.3667 -0.6200 -0.2007
  500MOL0     C68920   5.511   4.219   2.572 -0.5056  0.1324 -0.4534
  500MOL0     O68921   5.409   4.261   2.490 -0.5933  0.4098  0.1862
  500MOL0     C68922   5.313   4.166   2.446  0.3038 -0.5179 -1.1446
  500MOL0     C68923   5.197   4.227   2.369  0.2024 -0.4387 -0.2157
  500MOL0     C68924   5.163   4.124   2.257  0.2857  0.3603  0.1481
  500MOL0     C68925   5.065   4.179   2.161  0.1989 -0.0888 -0.0652
  500MOL0     C68926   5.043   4.074   2.066  0.8463  1.8868 -0.0316
  500MOL0     C68927   5.025   3.979   1.993  0.2332  0.0768 -1.0976
  500MOL0     C68928   5.626   4.293   2.557  0.0706 -0.3062 -0.6338
  500MOL0     C68929   5.738   4.264   2.631 -1.0830  0.0895  0.2975
  500MOL0     C68930   5.852   4.363   2.617  0.1436  0.4101 -0.3824
  500MOL0     H68931   6.051   3.943   2.937 -1.5290  0.8879  1.4370
  500MOL0     H68932   6.248   3.956   3.101  2.9996 -1.3604 -3.5893
  500MOL0     H68933   6.386   4.253   3.350 -1.0366  1.2554 -0.2422
  500MOL0     H68934   6.285   4.342   3.238 -2.2035 -2.6192  1.7482
  500MOL0     H68935   6.500   4.374   3.091  5.4478  1.1489  0.2664
  500MOL0     H68936   6.520   4.442   3.251 -0.7955 -1.0713  2.1592
  500MOL0     H68937   6.641   4.259   3.323 -1.5090 -1.3344  0.5734
  500MOL0     H68938   6.618   4.163   3.172  2.3495  0.6935 -2.1513
  500MOL0     H68939   6.746   4.334   3.047 -0.0534 -0.2490  0.3371
  500MOL0     H68940   6.756   4.426   3.195  0.5091  0.7210 -1.8337
  500MOL0     H68941   6.867   4.223   3.304 -2.4412  1.0527 -0.7260
  500MOL0     H68942   6.962   4.306   3.182  0.0373  0.9999  1.5009
  500MOL0     H68943   6.964   4.048   3.173 -1.8698 -1.9852  1.3755
  500MOL0     H68944   6.792   4.066   3.127  1.0832 -0.2147  0.6295
  500MOL0     H68945   6.832   4.152   2.926 -0.8351  1.7905  1.2626
  500MOL0     H68946   6.933   4.007   2.942 -0.1507 -0.4725  3.1004
  500MOL0     H68947   7.044   4.286   2.982 -2.0677 -0.9744  1.3536
  500MOL0     H68948   7.136   4.123   2.980  0.6541 -1.9508 -1.8478
  500MOL0     H68949   6.884   4.265   2.720 -1.4318 -1.3683  2.0381
  500MOL0     H68950   7.018   4.247   2.387  1.9133 -0.7089  0.2497
  500MOL0     H68951   6.863   4.185   2.450  0.7497 -0.4127  0.3701
  500MOL0     H68952   7.065   3.978   2.423 -1.0183  1.8593  4.1135
  500MOL0     H68953   6.896   3.959   2.407 -1.9322  0.1913 -1.9968
  500MOL0     H68954   7.063   4.087   2.188 -1.2205 -2.6512 -4.3626
  500MOL0     H68955   6.982   3.933   2.187  3.3864  0.4814 -0.7479
  500MOL0     H68956   6.846   4.204   2.183  0.5882  0.1323 -0.8135
  500MOL0     H68957   6.836   4.088   2.054 -1.6323 -5.2709 -0.1785
  500MOL0     H68958   6.557   3.967   2.366  1.2840  1.0159 -0.4172
  500MOL0     H68959   6.202   3.935   2.322  2.5089 -1.9185 -1.5470
  500MOL0     H68960   6.228   4.073   2.420 -0.5524  0.2100  0.5250
  500MOL0     H68961   6.335   3.944   2.449  2.4978  3.2001 -0.0328
  500MOL0     H68962   6.084   4.415   1.944  1.1671 -0.6926  1.2006
  500MOL0     H68963   5.839   4.485   1.903  1.3652  0.2767 -0.8180
  500MOL0     H68964   5.509   4.443   2.200 -0.5360  1.4497  1.1281
  500MOL0     H68965   5.613   4.594   2.232  1.2807  2.0729 -2.0750
  500MOL0     H68966   5.506   4.726   2.057  0.6437  0.9662 -1.1699
  500MOL0     H68967   5.440   4.574   1.988  3.4293 -2.8826  1.4409
  500MOL0     H68968   5.359   4.695   2.257 -1.9505 -1.1047  1.4009
  500MOL0     H68969   5.291   4.553   2.188 -1.4375  1.4479  2.9233
  500MOL0     H68970   5.197   4.696   1.996  0.3773 -2.0144  1.1618
  500MOL0     H68971   5.296   4.829   2.035  0.3830  1.7441  1.7069
  500MOL0     H68972   5.184   4.853   2.268  3.1526 -0.7599  0.0205
  500MOL0     H68973   5.084   4.867   2.118  0.2593 -2.5753 -2.4857
  500MOL0     H68974   5.103   4.618   2.300 -1.8192  0.1510  1.5565
  500MOL0     H68975   5.003   4.648   2.152  0.1465  1.2083 -0.1092
  500MOL0     H68976   4.888   4.840   2.290 -3.8764 -1.9630 -1.0453
  500MOL0     H68977   4.968   4.772   2.431 -1.8486  2.0538 -0.0410
  500MOL0     H68978   4.769   4.634   2.249 -1.9569 -1.9597  1.7978
  500MOL0     H68979   4.741   4.696   2.409  1.0596 -0.1745  2.1884
  500MOL0     H68980   5.761   4.371   2.310  0.0533 -2.1556 -0.3379
  500MOL0     H68981   5.980   4.289   2.329  1.1291  0.0928 -0.1573
  500MOL0     H68982   6.384   4.234   1.977 -0.4304  1.8519  1.0135
  500MOL0     H68983   6.613   4.168   1.992  1.2162  2.2896  1.5286
  500MOL0     H68984   6.276   4.372   2.996 -0.2391 -1.2461 -0.3661
  500MOL0     H68985   6.088   4.354   2.847 -2.1211  0.8267  1.2190
  500MOL0     H68986   5.614   3.987   2.784  0.1967 -1.0213 -0.6498
  500MOL0     H68987   5.422   4.038   2.654 -1.5562  1.5612  3.2230
  500MOL0     H68988   5.360   4.088   2.385 -0.2240 -2.5587  0.9146
  500MOL0     H68989   5.271   4.111   2.531  1.1685 -3.1333 -2.3078
  500MOL0     H68990   5.224   4.323   2.323 -0.4177  0.5659  1.4253
  500MOL0     H68991   5.111   4.239   2.435  0.2519  0.3343 -0.2771
  500MOL0     H68992   5.255   4.099   2.203 -0.3430 -0.0547 -0.7531
  500MOL0     H68993   5.124   4.034   2.306 -2.3116  0.4260 -1.5713
  500MOL0     H68994   5.113   4.265   2.115 -1.0705 -0.4638 -2.2253
  500MOL0     H68995   4.974   4.210   2.214 -0.6142 -2.1881 -0.1317
  500MOL0     H68996   5.026   3.892   1.929  1.7014 -0.5058 -0.3358
  500MOL0     H68997   5.619   4.367   2.478  1.4662 -0.1716 -0.6548
  500MOL0     H68998   5.875   4.429   2.702  1.8892  1.8115 -1.8496
  500MOL0     H68999   5.943   4.308   2.591  0.0489  0.4259 -0.7456
  500MOL0     H69000   5.838   4.430   2.532  0.5499  0.4739 -0.4032
  501MOL0     O69001   0.129   0.876   6.947 -0.0649  0.6057  0.5897
  501MOL0     C69002   0.142   0.965   7.032 -0.4663  0.3915  0.0299
  501MOL0     O69003   0.208   0.952   7.149 -0.1705 -0.7118  0.3706
  501MOL0     C69004   0.235   0.831   7.203  0.0641 -0.8099 -0.1743
  501MOL0     C69005   0.337   0.846   7.300  0.5507 -0.4327  0.6911
  501MOL0     C69006   0.384   0.740   7.380  0.3963  0.9103  0.0311
  501MOL0     C69007   0.321   0.612   7.360  0.0377 -0.5087 -0.4691
  501MOL0     O69008   0.354   0.504   7.430 -0.2489 -0.1292  0.2524
  501MOL0     C69009   0.488   0.484   7.474 -0.1266 -0.1690  0.0687
  501MOL0     C69010   0.585   0.468   7.371 -0.5103  0.1748 -0.4157
  501MOL0     C69011   0.717   0.399   7.413 -0.2796 -0.2479  0.1040
  501MOL0     C69012   0.812   0.418   7.294 -0.1027 -0.4924  0.8548
  501MOL0     C69013   0.930   0.330   7.324  0.0646 -0.1476 -0.0215
  501MOL0     C69014   1.015   0.374   7.439 -0.6794 -0.2235  0.6091
  501MOL0     C69015   1.136   0.278   7.448  0.3904  0.5073  1.1585
  501MOL0     C69016   1.226   0.314   7.564  0.4499 -0.1865  0.1540
  501MOL0     N69017   1.352   0.240   7.552  0.3336 -0.7278  0.3456
  501MOL0     C69018   1.392   0.140   7.633  0.6194 -0.0203  0.8749
  501MOL0     C69019   1.508   0.093   7.578 -0.5397  0.1168 -0.4095
  501MOL0     C69020   1.598  -0.009   7.652  0.2615 -0.8758  0.2449
  501MOL0     C69021   1.612  -0.146   7.599 -0.0700  0.2032  1.0507
  501MOL0     C69022   1.699  -0.237   7.681  0.6555 -0.6859 -0.7728
  501MOL0     C69023   1.693  -0.376   7.632 -0.1176  0.2159 -0.2991
  501MOL0     O69024   1.769  -0.460   7.714 -0.3340 -0.0161  1.0040
  501MOL0     C69025   1.904  -0.446   7.713 -0.8558 -0.6117 -0.7037
  501MOL0     C69026   1.965  -0.482   7.831 -0.6367  0.7152 -0.4154
  501MOL0     C69027   2.105  -0.460   7.851  0.3241 -0.1034 -0.5310
  501MOL0     C69028   2.156  -0.497   7.986  0.7711  0.1809  0.0432
  501MOL0     C69029   2.189  -0.421   7.746 -0.6583 -0.2098  0.2856
  501MOL0     C69030   2.345  -0.418   7.748 -0.3442 -0.5780 -0.1992
  501MOL0     O69031   2.410  -0.499   7.841 -0.1755 -0.7585  0.4466
  501MOL0     C69032   2.551  -0.499   7.848  0.6824 -0.0375  0.1642
  501MOL0     C69033   2.611  -0.615   7.866  0.0153 -0.3382  1.0553
  501MOL0     C69034   2.753  -0.627   7.898 -0.0037  0.3298 -0.2798
  501MOL0     C69035   2.842  -0.513   7.911  0.3340  0.5017 -0.1669
  501MOL0     O69036   2.974  -0.517   7.949 -0.0709  0.2087 -0.3164
  501MOL0     C69037   3.065  -0.418   7.891  0.6065  0.6055 -0.3335
  501MOL0     C69038   3.150  -0.470   7.772 -0.6570  0.4113  0.4482
  501MOL0     C69039   3.247  -0.575   7.815 -0.2199 -0.2563  0.6522
  501MOL0     C69040   3.343  -0.624   7.700  0.2897 -1.1577 -0.1744
  501MOL0     C69041   3.441  -0.734   7.733  0.1192  0.5443  0.1995
  501MOL0     C69042   3.542  -0.738   7.614  0.0415  0.4067 -0.1139
  501MOL0     C69043   3.653  -0.833   7.654  0.5170  0.1603  0.6171
  501MOL0     C69044   3.779  -0.844   7.564  0.7151 -0.6143 -0.7762
  501MOL0    Cl69045   3.732  -0.888   7.399  0.0722  0.3700  0.1767
  501MOL0     C69046   2.773  -0.396   7.878  0.1128  0.1270 -0.1278
  501MOL0     C69047   2.635  -0.391   7.843  0.0121  0.6763 -0.2333
  501MOL0     O69048   2.400  -0.341   7.669 -0.0440  0.8305 -0.3093
  501MOL0     C69049   2.122  -0.377   7.627  0.2737 -0.3046  0.5084
  501MOL0     C69050   1.985  -0.402   7.605 -0.0928  0.0001  0.2911
  501MOL0     N69051   1.529   0.161   7.457 -0.2971  0.1501 -0.0151
  501MOL0     N69052   1.437   0.251   7.448 -0.2815  0.0050 -0.4081
  501MOL0     C69053   0.218   0.591   7.268 -0.4364 -0.7792 -0.4710
  501MOL0     C69054   0.181   0.700   7.186 -0.1666 -0.1505 -0.6831
  501MOL0     C69055   0.085   1.097   7.010 -1.0366 -0.5012 -0.5803
  501MOL0     C69056   0.127   1.209   7.090  0.4046  0.3666  0.5266
  501MOL0     C69057   0.073   1.334   7.065 -0.3355 -0.7275 -0.1120
  501MOL0     C69058  -0.001   1.360   6.954 -0.1352 -0.2165 -0.1947
  501MOL0     O69059  -0.024   1.486   6.917 -0.1270  0.3064  0.0985
  501MOL0     C69060  -0.147   1.537   6.859  0.9489  0.4111  0.2949
  501MOL0     C69061  -0.270   1.505   6.947 -0.6056  0.1883  0.8303
  501MOL0     C69062  -0.411   1.508   6.879 -0.7862 -0.2313  0.4885
  501MOL0     C69063  -0.428   1.421   6.751  0.3509 -0.6667  0.8731
  501MOL0     C69064  -0.416   1.283   6.784  0.6561  0.0705 -0.9340
  501MOL0     C69065  -0.440   1.180   6.837  0.4641 -0.2540  0.8044
  501MOL0     C69066  -0.053   1.252   6.883 -0.9400  0.0740  0.1262
  501MOL0     C69067  -0.013   1.122   6.908  0.6062  0.0704 -0.1387
  501MOL0     C69068  -0.077   1.022   6.796 -0.2142  1.0518 -0.6034
  501MOL0     H69069   0.368   0.945   7.331 -1.0119  0.6601 -1.0554
  501MOL0     H69070   0.454   0.750   7.462 -1.3877  0.8708  1.6417
  501MOL0     H69071   0.499   0.395   7.538 -1.4976 -1.5770 -1.5660
  501MOL0     H69072   0.518   0.568   7.538 -0.2709  0.1076 -0.2252
  501MOL0     H69073   0.533   0.433   7.281 -0.3693  1.3044 -0.9471
  501MOL0     H69074   0.619   0.567   7.340  0.3660 -0.8210 -2.9394
  501MOL0     H69075   0.757   0.449   7.501  0.5884 -0.6096 -0.0842
  501MOL0     H69076   0.694   0.295   7.439 -1.2853  0.0818  0.6177
  501MOL0     H69077   0.758   0.394   7.202  2.1125 -0.7464 -0.4277
  501MOL0     H69078   0.852   0.519   7.283  0.1707 -0.5907  0.9527
  501MOL0     H69079   0.990   0.325   7.233 -2.0588 -2.9679 -1.4639
  501MOL0     H69080   0.903   0.226   7.345 -1.7457  0.0151 -1.2331
  501MOL0     H69081   1.045   0.477   7.424 -1.5352 -0.1588 -0.8402
  501MOL0     H69082   0.963   0.370   7.535  0.3097  0.4369  1.1864
  501MOL0     H69083   1.180   0.274   7.348 -3.2120 -1.1830 -0.5698
  501MOL0     H69084   1.107   0.174   7.468  3.2541 -0.6850 -0.4164
  501MOL0     H69085   1.253   0.419   7.553  1.7106 -0.3763  1.1281
  501MOL0     H69086   1.174   0.303   7.659 -0.8460  1.3660 -0.3468
  501MOL0     H69087   1.337   0.089   7.712 -2.9569  1.5703 -0.3468
  501MOL0     H69088   1.549  -0.013   7.749  0.8308 -0.5427  0.5541
  501MOL0     H69089   1.693   0.043   7.671  0.3773 -1.0074  0.0311
  501MOL0     H69090   1.518  -0.202   7.591  0.9619 -1.6221  1.1357
  501MOL0     H69091   1.649  -0.141   7.496 -4.7644 -2.7986 -1.1616
  501MOL0     H69092   1.797  -0.187   7.683 -0.4883  1.7032  1.3998
  501MOL0     H69093   1.665  -0.247   7.784 -1.0129 -3.2250 -1.4971
  501MOL0     H69094   1.587  -0.393   7.651 -0.9046  1.6472 -2.9457
  501MOL0     H69095   1.723  -0.375   7.527  1.0888 -1.3798 -0.0073
  501MOL0     H69096   1.906  -0.535   7.904  0.6046 -1.6428 -1.0216
  501MOL0     H69097   2.241  -0.432   8.009 -0.2466  2.3514 -1.8822
  501MOL0     H69098   2.191  -0.600   7.978 -0.4955 -0.1520 -1.7365
  501MOL0     H69099   2.080  -0.487   8.064  0.6704  0.0397 -0.0372
  501MOL0     H69100   2.547  -0.703   7.863 -1.1647  0.5261  0.2361
  501MOL0     H69101   2.794  -0.723   7.924  0.3271  0.4763 -0.2595
  501MOL0     H69102   3.017  -0.325   7.862 -2.2551 -1.5477 -3.1911
  501MOL0     H69103   3.138  -0.416   7.973 -0.3370 -2.8949  0.7866
  501MOL0     H69104   3.079  -0.521   7.706 -0.7392  0.7365  0.2829
  501MOL0     H69105   3.194  -0.382   7.725 -0.9029  0.3116  0.0255
  501MOL0     H69106   3.193  -0.662   7.852  0.7377 -0.8467  0.7069
  501MOL0     H69107   3.310  -0.528   7.891  0.1492  0.9299 -0.3385
  501MOL0     H69108   3.408  -0.542   7.669  0.9032 -1.9483 -1.0378
  501MOL0     H69109   3.292  -0.656   7.608  3.8742 -2.2595 -1.9677
  501MOL0     H69110   3.489  -0.726   7.831 -0.7110  1.1964  0.5639
  501MOL0     H69111   3.383  -0.827   7.741  1.8657 -0.4539  1.9984
  501MOL0     H69112   3.591  -0.641   7.609  0.4866  0.1495 -1.1587
  501MOL0     H69113   3.488  -0.771   7.524  2.3786 -0.6784 -1.2135
  501MOL0     H69114   3.609  -0.932   7.645  2.3605 -0.7004  0.6056
  501MOL0     H69115   3.693  -0.807   7.753  0.8992  0.3475  0.4150
  501MOL0     H69116   3.843  -0.921   7.609  2.4150  2.1343  1.9358
  501MOL0     H69117   3.826  -0.745   7.572 -2.4026  0.9253  0.3382
  501MOL0     H69118   2.829  -0.306   7.901 -0.6199  0.4244  0.5435
  501MOL0     H69119   2.585  -0.296   7.828  0.7963  0.9413 -1.3374
  501MOL0     H69120   2.190  -0.351   7.546  2.3992 -0.6583  2.0789
  501MOL0     H69121   1.941  -0.376   7.509 -1.9048  0.6378  1.2314
  501MOL0     H69122   0.164   0.497   7.257 -1.9597  0.1057 -0.9504
  501MOL0     H69123   0.107   0.666   7.115 -0.6103 -1.0131  0.1728
  501MOL0     H69124   0.203   1.206   7.167  0.8858 -0.4736  0.0379
  501MOL0     H69125   0.110   1.416   7.125 -1.4567 -1.2181  1.3034
  501MOL0     H69126  -0.134   1.644   6.842 -0.1317  0.2500 -1.8477
  501MOL0     H69127  -0.151   1.488   6.762  0.3875 -0.3031  0.6644
  501MOL0     H69128  -0.265   1.575   7.031  0.6067 -0.0565  0.9782
  501MOL0     H69129  -0.273   1.403   6.987 -0.6083 -0.3210 -0.4299
  501MOL0     H69130  -0.503   1.494   6.936  0.3951 -0.4173  2.4392
  501MOL0     H69131  -0.420   1.613   6.848 -0.8779  0.3302  2.2878
  501MOL0     H69132  -0.345   1.442   6.682 -1.0375  1.3728 -0.3126
  501MOL0     H69133  -0.525   1.448   6.708  0.6145  0.7187  1.0892
  501MOL0     H69134  -0.464   1.089   6.889 -3.4856  0.7459  1.0926
  501MOL0     H69135  -0.118   1.280   6.800 -0.6552  0.4163  0.0151
  501MOL0     H69136   0.001   0.984   6.729  0.2675 -0.3956  0.7106
  501MOL0     H69137  -0.135   0.940   6.840 -2.0406  2.4163 -0.3536
  501MOL0     H69138  -0.158   1.065   6.736 -2.3374 -2.8819 -0.8848
  502MOL0     O69139   0.778   4.962   0.476 -0.3478 -0.2992 -0.7227
  502MOL0     C69140   0.854   5.050   0.509 -0.0675 -0.1268 -0.2131
  502MOL0     O69141   0.993   5.053   0.496  0.5612 -0.3106 -0.1775
  502MOL0     C69142   1.052   4.943   0.446  0.6068  0.1975 -0.3601
  502MOL0     C69143   1.033   4.814   0.496 -0.0362  0.5113  0.1106
  502MOL0     C69144   1.110   4.711   0.451 -0.4070  0.1557 -0.4921
  502MOL0     C69145   1.220   4.728   0.364 -0.0384 -0.5393  0.1385
  502MOL0     O69146   1.291   4.623   0.317  0.0257 -0.1939 -0.4553
  502MOL0     C69147   1.278   4.493   0.379 -0.3438  0.1299  0.5109
  502MOL0     C69148   1.376   4.398   0.314 -0.2973 -0.4212 -0.8722
  502MOL0     C69149   1.519   4.450   0.320  0.8111 -0.3055 -0.0114
  502MOL0     C69150   1.616   4.339   0.271  0.9710  0.4598 -0.0953
  502MOL0     C69151   1.756   4.372   0.274 -0.5719 -0.1985 -0.2128
  502MOL0     C69152   1.808   4.464   0.161  0.2422 -0.1767 -0.3450
  502MOL0     C69153   1.957   4.487   0.150  0.0565  0.0536  0.8480
  502MOL0     C69154   1.982   4.584   0.033 -0.2667  0.4255  0.5736
  502MOL0     N69155   2.130   4.608   0.004  0.7396 -0.2332 -0.7812
  502MOL0     C69156   2.217   4.695   0.072 -0.3226  0.3247  0.8236
  502MOL0     C69157   2.324   4.699  -0.015 -0.3533  0.7736 -0.4935
  502MOL0     C69158   2.438   4.794  -0.005 -0.0748 -0.7459  0.6578
  502MOL0     C69159   2.532   4.826  -0.114  0.1703  0.1198  0.1702
  502MOL0     C69160   2.635   4.713  -0.122 -0.5715  0.0131  0.5008
  502MOL0     C69161   2.736   4.736  -0.231  0.0292 -0.2837  0.0396
  502MOL0     O69162   2.823   4.624  -0.259 -0.1863  0.9829  0.0950
  502MOL0     C69163   2.937   4.640  -0.337 -0.3192  1.3354  0.4207
  502MOL0     C69164   3.039   4.534  -0.346  0.0912 -0.6664  0.1559
  502MOL0     C69165   3.160   4.560  -0.410 -0.1193 -0.3038  0.0854
  502MOL0     C69166   3.262   4.444  -0.405 -0.2401  0.4555 -0.0918
  502MOL0     C69167   3.173   4.675  -0.489 -0.1283 -0.7768 -0.3696
  502MOL0     C69168   3.292   4.695  -0.563  0.2455  0.0598  0.0211
  502MOL0     O69169   3.369   4.793  -0.523  0.5745 -0.2630 -0.5518
  502MOL0     C69170   3.498   4.815  -0.571 -0.4213  0.6869  0.4859
  502MOL0     C69171   3.540   4.793  -0.700  0.6769 -0.5002  0.3160
  502MOL0     C69172   3.669   4.822  -0.744  0.5965  0.7313 -0.1427
  502MOL0     C69173   3.761   4.878  -0.656 -0.6323  0.4640 -0.0256
  502MOL0     O69174   3.885   4.895  -0.713  0.5150 -0.3624 -0.0920
  502MOL0     C69175   3.990   4.903  -0.610 -0.6509  0.5832  0.2031
  502MOL0     C69176   4.128   4.912  -0.678 -0.2008  0.3873 -0.2164
  502MOL0     C69177   4.231   4.958  -0.564 -0.1887 -0.5783  0.6348
  502MOL0     C69178   4.375   4.920  -0.599 -0.5112 -0.1564  0.2311
  502MOL0     C69179   4.434   5.007  -0.706  0.3823  0.1342 -0.3214
  502MOL0     C69180   4.577   4.961  -0.742 -0.7739  0.1915 -0.3986
  502MOL0     C69181   4.629   5.053  -0.854 -0.5947 -0.1264  0.5257
  502MOL0     C69182   4.770   5.006  -0.905  0.5552  0.1062 -0.7706
  502MOL0    Cl69183   4.848   5.122  -1.010  0.1224 -0.1188  0.2265
  502MOL0     C69184   3.720   4.906  -0.525  0.8602 -0.1263 -0.5309
  502MOL0     C69185   3.590   4.873  -0.483  0.4435 -0.3092 -0.1311
  502MOL0     O69186   3.315   4.608  -0.651  0.6135 -0.1481  0.5364
  502MOL0     C69187   3.085   4.778  -0.477  0.4696  0.9813  0.0606
  502MOL0     C69188   2.966   4.756  -0.412  0.5775 -0.3831  0.5773
  502MOL0     N69189   2.294   4.620  -0.118  0.2898 -0.6192  1.4320
  502MOL0     N69190   2.188   4.555  -0.107 -0.2715  0.0392 -1.2256
  502MOL0     C69191   1.234   4.857   0.308  0.0519  0.0809 -1.3451
  502MOL0     C69192   1.148   4.956   0.347 -0.9641  0.3955 -0.4813
  502MOL0     C69193   0.796   5.167   0.582 -1.2523 -0.7183 -0.3692
  502MOL0     C69194   0.880   5.246   0.662 -0.0809  0.0630  0.3727
  502MOL0     C69195   0.840   5.364   0.721  0.0815 -0.0337 -0.4512
  502MOL0     C69196   0.711   5.410   0.700  0.6474  0.2461  0.6862
  502MOL0     O69197   0.675   5.524   0.769  0.0653  0.4351  0.2870
  502MOL0     C69198   0.545   5.577   0.739 -0.0873 -0.0595  0.3591
  502MOL0     C69199   0.522   5.718   0.792 -1.0213 -0.8041  0.1665
  502MOL0     C69200   0.383   5.770   0.804  0.1684  0.1265  0.5594
  502MOL0     C69201   0.349   5.926   0.813 -0.3145  0.5912  0.5807
  502MOL0     C69202   0.282   5.967   0.934 -0.4071 -0.2160  0.3178
  502MOL0     C69203   0.207   6.001   1.027  1.0483 -0.1382  0.3254
  502MOL0     C69204   0.623   5.330   0.623 -0.3339  0.0591  0.8708
  502MOL0     C69205   0.658   5.208   0.569 -0.6972  0.9976 -0.2873
  502MOL0     C69206   0.545   5.131   0.494  1.3709 -0.4446  0.2739
  502MOL0     H69207   0.944   4.800   0.557 -1.5478  1.6395 -1.7526
  502MOL0     H69208   1.081   4.610   0.479 -1.0953  0.3340 -0.5459
  502MOL0     H69209   1.174   4.461   0.386 -1.7673  3.9269 -0.8703
  502MOL0     H69210   1.307   4.515   0.482  0.9595  2.2019 -0.2367
  502MOL0     H69211   1.366   4.305   0.370  1.1627 -0.0434  0.0716
  502MOL0     H69212   1.359   4.376   0.208  1.3383 -2.4068 -0.7825
  502MOL0     H69213   1.534   4.546   0.270  0.1266  0.6162  1.4885
  502MOL0     H69214   1.543   4.473   0.424 -2.1978 -0.1976  0.7549
  502MOL0     H69215   1.604   4.244   0.324  2.8136 -1.9382 -3.5609
  502MOL0     H69216   1.588   4.303   0.172 -2.1850  0.0813  0.8209
  502MOL0     H69217   1.814   4.279   0.265  0.9513  0.6235  0.7907
  502MOL0     H69218   1.788   4.419   0.367  2.7480 -2.4119 -0.0646
  502MOL0     H69219   1.769   4.422   0.067  0.8240 -3.8146  0.8672
  502MOL0     H69220   1.746   4.554   0.168 -1.5030 -1.2206 -1.4649
  502MOL0     H69221   2.000   4.387   0.139  0.9304  0.4878  0.1205
  502MOL0     H69222   2.005   4.533   0.237  0.2608 -0.5246  1.0430
  502MOL0     H69223   1.958   4.520  -0.053  1.2518 -1.4132  1.4370
  502MOL0     H69224   1.919   4.673   0.022  1.6138  1.5849 -1.7650
  502MOL0     H69225   2.199   4.755   0.160  1.9209 -3.5635  4.2889
  502MOL0     H69226   2.493   4.753   0.080 -1.0103  1.4195  2.4317
  502MOL0     H69227   2.398   4.892   0.022 -1.0780 -1.2410  1.0170
  502MOL0     H69228   2.474   4.840  -0.205 -0.1569 -0.8335  0.2108
  502MOL0     H69229   2.583   4.916  -0.079  2.6313 -0.9636 -0.4565
  502MOL0     H69230   2.685   4.693  -0.026  0.9585  0.9090 -0.0716
  502MOL0     H69231   2.585   4.621  -0.150 -0.6852  0.5418 -1.1113
  502MOL0     H69232   2.681   4.753  -0.324 -0.1606 -1.8893 -0.1704
  502MOL0     H69233   2.800   4.822  -0.209 -0.1879 -0.4235  1.2871
  502MOL0     H69234   3.025   4.437  -0.299  0.8806 -1.6494 -1.5621
  502MOL0     H69235   3.234   4.374  -0.326  0.1201  0.8182  0.3629
  502MOL0     H69236   3.361   4.483  -0.379  1.5116 -2.5801 -1.6535
  502MOL0     H69237   3.275   4.398  -0.503 -0.6425 -0.5704  0.3181
  502MOL0     H69238   3.479   4.725  -0.760  1.8659 -0.6447 -0.7696
  502MOL0     H69239   3.690   4.808  -0.850 -3.2786  2.1596 -1.2719
  502MOL0     H69240   3.992   4.999  -0.557  2.3853  0.2064  1.0079
  502MOL0     H69241   3.977   4.824  -0.535 -4.7155  0.9377  0.0571
  502MOL0     H69242   4.146   4.812  -0.718 -0.0606  1.0473 -1.8870
  502MOL0     H69243   4.129   4.982  -0.762 -1.2160  1.3805  0.5600
  502MOL0     H69244   4.214   4.911  -0.467  2.6063 -0.1453  1.4127
  502MOL0     H69245   4.224   5.067  -0.563 -0.5883 -0.5010 -1.9111
  502MOL0     H69246   4.384   4.814  -0.622  0.2046 -0.3816  1.4524
  502MOL0     H69247   4.423   4.936  -0.502  0.8113 -0.6331 -0.3219
  502MOL0     H69248   4.366   5.002  -0.791 -0.0209  2.2675 -0.1889
  502MOL0     H69249   4.434   5.112  -0.674 -1.4451  0.2746 -0.6987
  502MOL0     H69250   4.586   4.857  -0.775 -0.1643 -0.3412  1.3065
  502MOL0     H69251   4.641   4.970  -0.654 -2.2416 -0.6079  0.8009
  502MOL0     H69252   4.647   5.155  -0.817  2.2511 -0.1253 -0.5856
  502MOL0     H69253   4.559   5.058  -0.938  1.0046 -0.2419 -0.8661
  502MOL0     H69254   4.753   4.911  -0.957  2.1418 -0.4691 -0.3010
  502MOL0     H69255   4.838   4.986  -0.822 -0.5791  1.4880  0.5364
  502MOL0     H69256   3.781   4.951  -0.447  0.6346  0.0767 -0.4707
  502MOL0     H69257   3.551   4.902  -0.386 -1.2532 -0.3147 -0.7877
  502MOL0     H69258   3.104   4.871  -0.530  1.9617 -0.0818 -1.3562
  502MOL0     H69259   2.898   4.839  -0.394  0.4496 -0.7423  1.8203
  502MOL0     H69260   1.317   4.875   0.240 -0.2670 -0.0515 -1.7723
  502MOL0     H69261   1.164   5.053   0.302 -2.4315 -0.2076 -2.4746
  502MOL0     H69262   0.979   5.205   0.677 -0.3144 -1.3271 -1.3924
  502MOL0     H69263   0.908   5.413   0.789  1.9915 -0.4768 -1.9202
  502MOL0     H69264   0.534   5.587   0.630  2.1773 -2.7423 -0.2253
  502MOL0     H69265   0.465   5.516   0.782 -1.8893  0.4018 -2.1065
  502MOL0     H69266   0.579   5.786   0.729 -0.2274  1.1751  2.8415
  502MOL0     H69267   0.565   5.723   0.892 -1.1484  1.8678  0.1577
  502MOL0     H69268   0.324   5.730   0.721  1.1946 -4.3945  1.7287
  502MOL0     H69269   0.338   5.710   0.884 -1.9253 -0.3175 -0.8813
  502MOL0     H69270   0.295   5.973   0.729 -0.4614  1.4123  1.1279
  502MOL0     H69271   0.448   5.971   0.823  0.0685 -0.2020  0.4721
  502MOL0     H69272   0.154   6.028   1.115  0.2735  2.1697 -0.7712
  502MOL0     H69273   0.516   5.349   0.610  0.3013  2.8172 -1.3600
  502MOL0     H69274   0.443   5.163   0.517  0.1902 -2.8655 -1.1692
  502MOL0     H69275   0.562   5.148   0.387  3.1019  0.5613  0.6741
  502MOL0     H69276   0.541   5.023   0.514  0.4047 -0.3398  0.7252
  503MOL0     O69277   4.848   9.556  11.045 -0.0936 -0.2628  0.1167
  503MOL0     C69278   4.850   9.589  10.927  0.5917 -1.1267  0.1213
  503MOL0     O69279   4.928   9.693  10.886  0.0786  0.1064  0.4286
  503MOL0     C69280   5.015   9.751  10.976  0.8767  0.6483 -0.1728
  503MOL0     C69281   4.990   9.868  11.045  0.2175  0.8237  0.1387
  503MOL0     C69282   5.082   9.928  11.132 -0.1297 -0.4925  0.1330
  503MOL0     C69283   5.209   9.870  11.144 -0.3454  0.3070 -0.7125
  503MOL0     O69284   5.313   9.922  11.222  0.4254 -0.0815  0.1385
  503MOL0     C69285   5.270  10.010  11.324  0.4730  0.1463  0.4151
  503MOL0     C69286   5.390  10.018  11.420 -0.4190 -0.4293  0.0525
  503MOL0     C69287   5.371  10.141  11.514 -0.3063 -0.3871  0.4162
  503MOL0     C69288   5.493  10.184  11.600  0.0303 -0.1897  0.5147
  503MOL0     C69289   5.475  10.324  11.676 -0.5778  0.3261  0.1893
  503MOL0     C69290   5.523  10.437  11.585 -0.3104  0.0862  0.8355
  503MOL0     C69291   5.682  10.435  11.571  0.1672  0.2609  0.5051
  503MOL0     C69292   5.743  10.566  11.522 -0.1203 -0.0304 -0.2887
  503MOL0     N69293   5.892  10.572  11.511  0.1668  0.1763  0.4668
  503MOL0     C69294   5.974  10.499  11.431  0.5952 -0.6315  0.4076
  503MOL0     C69295   6.093  10.538  11.476 -0.3782 -0.2091 -0.3408
  503MOL0     C69296   6.214  10.471  11.415 -0.5497 -0.2674  0.6063
  503MOL0     C69297   6.337  10.572  11.408 -0.4373  0.6585  0.0445
  503MOL0     C69298   6.462  10.520  11.353 -0.3312  0.9116  0.2465
  503MOL0     C69299   6.560  10.477  11.456  0.6722  0.4845 -0.7223
  503MOL0     O69300   6.683  10.459  11.388  0.3582 -1.4924  1.1851
  503MOL0     C69301   6.795  10.453  11.468 -0.8880 -0.3040  1.2618
  503MOL0     C69302   6.906  10.520  11.410  0.5727 -0.4315  0.9754
  503MOL0     C69303   7.029  10.523  11.483 -0.8933 -0.0710  0.8586
  503MOL0     C69304   7.147  10.593  11.425  0.4105  0.0657  0.7030
  503MOL0     C69305   7.037  10.460  11.608  0.8628 -0.4224 -1.3527
  503MOL0     C69306   7.165  10.472  11.692 -0.5168 -0.9097 -0.0999
  503MOL0     O69307   7.286  10.444  11.638 -0.2783 -0.5947 -0.3709
  503MOL0     C69308   7.398  10.470  11.712  0.5735  0.7058 -0.0002
  503MOL0     C69309   7.451  10.380  11.799 -0.4095  0.7411  0.0755
  503MOL0     C69310   7.557  10.415  11.887  0.2474  0.2965 -0.6029
  503MOL0     C69311   7.599  10.552  11.894 -0.1097 -0.2167  0.1309
  503MOL0     O69312   7.687  10.609  11.983 -0.1141  1.3747 -0.6105
  503MOL0     C69313   7.746  10.530  12.093 -0.9928 -0.0485 -0.9861
  503MOL0     C69314   7.828  10.629  12.174  0.6346 -0.1514  0.2154
  503MOL0     C69315   7.882  10.559  12.296  0.1282  0.5360  0.2221
  503MOL0     C69316   7.810  10.618  12.421 -0.8640 -0.2451 -0.1689
  503MOL0     C69317   7.863  10.530  12.538 -0.5450 -0.9108 -0.2726
  503MOL0     C69318   7.796  10.583  12.665 -0.6728  0.2525  0.4077
  503MOL0     C69319   7.859  10.717  12.721  0.7899  0.2664  0.3101
  503MOL0     C69320   8.008  10.713  12.760 -0.2040 -0.1092 -0.7495
  503MOL0    Cl69321   8.049  10.553  12.830 -0.1305 -0.3115 -0.2145
  503MOL0     C69322   7.540  10.634  11.796  0.2552  0.3509 -0.3036
  503MOL0     C69323   7.444  10.599  11.703 -0.1125 -0.0497  0.0653
  503MOL0     O69324   7.152  10.505  11.805 -0.2918 -0.2380 -0.2723
  503MOL0     C69325   6.923  10.406  11.665  0.1247  0.1618 -0.3324
  503MOL0     C69326   6.802  10.401  11.599 -0.3897 -0.4423  1.2438
  503MOL0     N69327   6.081  10.638  11.572  0.4941  0.0211 -0.6851
  503MOL0     N69328   5.957  10.655  11.593 -1.0482 -0.1218 -0.3604
  503MOL0     C69329   5.241   9.761  11.073 -0.3553  0.0934 -0.2545
  503MOL0     C69330   5.143   9.696  10.996 -0.5235  0.5435  0.1657
  503MOL0     C69331   4.772   9.511  10.823 -1.5179 -0.1694 -0.3445
  503MOL0     C69332   4.810   9.524  10.689  0.1224 -1.1137 -0.0893
  503MOL0     C69333   4.762   9.440  10.592  0.0406 -0.0965  0.6313
  503MOL0     C69334   4.667   9.351  10.616  0.4630 -0.2222  0.1535
  503MOL0     O69335   4.611   9.295  10.506 -0.0033 -0.3816  0.9217
  503MOL0     C69336   4.577   9.157  10.531  0.5509 -0.2756  0.3556
  503MOL0     C69337   4.701   9.059  10.548 -0.3430  0.5210  0.9674
  503MOL0     C69338   4.797   9.058  10.417 -0.0888  0.4300 -0.2056
  503MOL0     C69339   4.830   8.924  10.354  0.4222  0.3688 -0.9135
  503MOL0     C69340   4.972   8.923  10.308  0.9805 -0.3204  0.5943
  503MOL0     C69341   5.083   8.941  10.265  0.3963 -0.0881  1.0589
  503MOL0     C69342   4.625   9.333  10.748  0.6380  0.3568 -0.2258
  503MOL0     C69343   4.678   9.409  10.853 -0.6048 -0.1704  0.2533
  503MOL0     C69344   4.628   9.376  10.994  0.6172 -0.5034 -0.0540
  503MOL0     H69345   4.895   9.916  11.023  0.4737  1.0375 -0.5418
  503MOL0     H69346   5.067  10.029  11.170  0.0867 -0.7367  0.8996
  503MOL0     H69347   5.179   9.972  11.372  1.3163 -2.1939  0.2739
  503MOL0     H69348   5.239  10.108  11.286  1.5736  0.0715 -0.7020
  503MOL0     H69349   5.389   9.924  11.476 -2.2614 -1.3051 -1.3403
  503MOL0     H69350   5.488  10.028  11.372 -1.2367  2.6240 -1.1873
  503MOL0     H69351   5.351  10.227  11.450 -2.6843 -0.9179  0.3481
  503MOL0     H69352   5.285  10.136  11.582  0.4921  3.4338  1.9581
  503MOL0     H69353   5.509  10.106  11.675  1.3728 -1.2631 -0.8604
  503MOL0     H69354   5.581  10.173  11.537 -1.0662  2.0886 -1.5752
  503MOL0     H69355   5.542  10.328  11.762 -0.3949  2.7077  0.0216
  503MOL0     H69356   5.378  10.333  11.726  1.2099 -1.0930  4.2954
  503MOL0     H69357   5.469  10.438  11.489  1.9247  1.4119 -0.4801
  503MOL0     H69358   5.504  10.534  11.631 -0.3205  1.3853 -1.7311
  503MOL0     H69359   5.719  10.354  11.507  1.2955  0.1338  1.2865
  503MOL0     H69360   5.729  10.417  11.669  3.5208  2.8408 -0.4238
  503MOL0     H69361   5.709  10.586  11.420 -1.0398 -1.5785 -0.3118
  503MOL0     H69362   5.705  10.645  11.587  3.7249  1.7303  0.1490
  503MOL0     H69363   5.936  10.429  11.357  2.6354  0.6907 -2.0671
  503MOL0     H69364   6.198  10.452  11.308 -1.1692 -3.3104  1.1501
  503MOL0     H69365   6.238  10.378  11.467 -2.8974  0.2662  2.8652
  503MOL0     H69366   6.310  10.652  11.339  0.0866  0.1815 -0.7342
  503MOL0     H69367   6.343  10.620  11.506  0.4021  2.5617 -0.8819
  503MOL0     H69368   6.448  10.432  11.289 -0.5294  0.3372  1.0573
  503MOL0     H69369   6.509  10.593  11.287  3.3597 -0.8333  0.6800
  503MOL0     H69370   6.568  10.564  11.522  0.0020 -0.1790  0.2786
  503MOL0     H69371   6.525  10.392  11.515  1.4093  0.4223 -0.3639
  503MOL0     H69372   6.902  10.574  11.316 -2.2863  0.5549  1.5790
  503MOL0     H69373   7.112  10.671  11.356 -2.0603 -0.3367  1.3814
  503MOL0     H69374   7.202  10.517  11.369 -1.0185 -1.8408  1.7752
  503MOL0     H69375   7.216  10.642  11.494  1.2310 -2.2554  1.6179
  503MOL0     H69376   7.414  10.280  11.779  1.5207  0.6125 -3.7227
  503MOL0     H69377   7.592  10.338  11.954 -2.7808  0.7902  1.7887
  503MOL0     H69378   7.667  10.490  12.157 -0.8930 -2.7006 -2.4023
  503MOL0     H69379   7.806  10.448  12.053  1.9062  0.6033  1.6433
  503MOL0     H69380   7.910  10.658  12.108 -1.3594  0.9062 -1.9196
  503MOL0     H69381   7.764  10.713  12.200  1.9036  0.3704  1.8293
  503MOL0     H69382   7.990  10.570  12.309 -0.0233  0.6279  1.5729
  503MOL0     H69383   7.865  10.452  12.283 -1.1982  0.4227  2.3431
  503MOL0     H69384   7.703  10.599  12.416 -1.4522  2.2980  1.2684
  503MOL0     H69385   7.822  10.726  12.427  0.5030 -0.4157  0.6804
  503MOL0     H69386   7.849  10.423  12.519  1.3890 -1.2770  0.1388
  503MOL0     H69387   7.972  10.529  12.549 -0.6627  1.9812  2.4900
  503MOL0     H69388   7.815  10.508  12.742 -0.8546  1.3442  1.5452
  503MOL0     H69389   7.689  10.587  12.643 -0.1424 -0.8176 -2.8470
  503MOL0     H69390   7.796  10.732  12.809  0.8863 -1.0467  0.6257
  503MOL0     H69391   7.838  10.801  12.655 -0.8735 -0.1218  0.3010
  503MOL0     H69392   8.029  10.796  12.828  2.4535 -0.3840 -1.1272
  503MOL0     H69393   8.063  10.718  12.666  0.5125  0.4461 -0.3125
  503MOL0     H69394   7.562  10.740  11.787 -1.7297  0.6320 -3.9098
  503MOL0     H69395   7.407  10.677  11.637  4.8907  2.3133 -0.3490
  503MOL0     H69396   6.925  10.369  11.767  1.3746 -2.0920 -1.1107
  503MOL0     H69397   6.719  10.358  11.654 -0.5836 -0.6764  0.7816
  503MOL0     H69398   5.342   9.723  11.088  0.3879  1.6652 -0.9203
  503MOL0     H69399   5.173   9.613  10.933 -1.9058  1.0381 -1.1917
  503MOL0     H69400   4.870   9.611  10.665 -0.1837 -0.4899  1.2806
  503MOL0     H69401   4.784   9.442  10.486 -0.2437 -1.3839  0.5313
  503MOL0     H69402   4.517   9.154  10.623 -0.9220  3.5023 -0.2961
  503MOL0     H69403   4.505   9.126  10.455 -0.3172  1.6232  0.3509
  503MOL0     H69404   4.668   8.958  10.573  2.0417 -0.3459  0.8029
  503MOL0     H69405   4.758   9.097  10.633 -2.1986  2.1967  1.5605
  503MOL0     H69406   4.752   9.116  10.336 -4.3912 -1.1373  0.8023
  503MOL0     H69407   4.886   9.114  10.447 -1.4250  2.5689 -0.0532
  503MOL0     H69408   4.764   8.914  10.268  1.5271 -1.9542 -1.5509
  503MOL0     H69409   4.820   8.842  10.426  0.2562  2.2065  1.2799
  503MOL0     H69410   5.180   8.945  10.221 -0.8434  0.8260 -1.8175
  503MOL0     H69411   4.551   9.261  10.781  3.2245 -2.4786 -0.1710
  503MOL0     H69412   4.626   9.469  11.052  2.6891 -0.4679  0.0276
  503MOL0     H69413   4.530   9.327  10.987  1.6928 -3.0400  1.1717
  503MOL0     H69414   4.700   9.321  11.055 -0.1403  0.6618  2.0174
  504MOL0     O69415   3.722   6.361   1.867  0.4241 -0.6924 -0.1049
  504MOL0     C69416   3.782   6.292   1.947  0.4213  0.2197  0.3122
  504MOL0     O69417   3.918   6.272   1.958 -0.1296 -0.9045  0.8891
  504MOL0     C69418   4.008   6.341   1.874  0.1096  0.4854 -0.5384
  504MOL0     C69419   3.992   6.479   1.852  0.1032  0.3644  0.2890
  504MOL0     C69420   4.090   6.544   1.775  0.6748 -0.6104  0.3578
  504MOL0     C69421   4.194   6.478   1.719  0.1166 -0.4936 -0.1085
  504MOL0     O69422   4.282   6.567   1.653  0.2381  0.6674  0.0772
  504MOL0     C69423   4.420   6.531   1.675  0.1156  0.0769  0.0593
  504MOL0     C69424   4.514   6.620   1.592  0.1944 -0.0906  0.3696
  504MOL0     C69425   4.471   6.767   1.588  0.7369  0.2043 -0.9803
  504MOL0     C69426   4.570   6.873   1.538 -0.2206 -0.9203  0.5114
  504MOL0     C69427   4.597   6.863   1.387 -0.2746 -0.2493  0.7235
  504MOL0     C69428   4.718   6.953   1.363  0.0829 -0.2293 -0.5341
  504MOL0     C69429   4.700   7.109   1.374  0.5571 -0.8001 -0.4592
  504MOL0     C69430   4.829   7.181   1.324  0.4314  0.7356  0.0120
  504MOL0     N69431   4.950   7.154   1.401 -0.4533 -0.3523 -0.4392
  504MOL0     C69432   5.049   7.065   1.347 -0.4714 -0.9446 -0.4481
  504MOL0     C69433   5.159   7.109   1.417 -0.7164  0.5766  0.0836
  504MOL0     C69434   5.287   7.033   1.387 -0.5233  0.3879  0.2588
  504MOL0     C69435   5.407   7.129   1.395  0.7601  0.1523  0.1882
  504MOL0     C69436   5.528   7.035   1.390 -0.2435  0.2748  0.0710
  504MOL0     C69437   5.653   7.099   1.456  0.3925  0.5237 -0.8309
  504MOL0     O69438   5.768   7.029   1.418 -0.5663  0.0231 -0.0676
  504MOL0     C69439   5.892   7.053   1.481 -0.0643 -0.3685 -0.7724
  504MOL0     C69440   5.923   7.146   1.585 -0.2204  0.8011 -0.2475
  504MOL0     C69441   6.044   7.147   1.645  0.4544  0.3082 -0.0651
  504MOL0     C69442   6.065   7.267   1.741 -0.1355 -0.5540  0.0802
  504MOL0     C69443   6.147   7.060   1.610 -0.2615  0.2468  0.6107
  504MOL0     C69444   6.271   7.061   1.680  0.9748  0.6688  0.4873
  504MOL0     O69445   6.373   7.014   1.598 -0.4598  0.6262 -0.2701
  504MOL0     C69446   6.486   6.958   1.665  0.5094  0.8422  0.2776
  504MOL0     C69447   6.462   6.842   1.734 -0.5763  0.0956 -0.0045
  504MOL0     C69448   6.569   6.782   1.806  0.5430 -0.5741  0.8073
  504MOL0     C69449   6.696   6.840   1.804 -0.5237  1.0411 -0.8122
  504MOL0     O69450   6.796   6.770   1.871  0.0913  0.1374  0.6758
  504MOL0     C69451   6.922   6.748   1.795  0.0670 -0.2171 -0.4720
  504MOL0     C69452   7.024   6.671   1.866  0.6201 -0.2892  0.2338
  504MOL0     C69453   7.164   6.662   1.800 -0.4971  0.5072 -0.7085
  504MOL0     C69454   7.274   6.609   1.901  0.0884 -0.2337 -0.4852
  504MOL0     C69455   7.272   6.462   1.948  0.3855 -0.1723  0.0543
  504MOL0     C69456   7.388   6.450   2.036 -1.0684  0.8579 -0.3005
  504MOL0     C69457   7.411   6.303   2.076  0.5257 -0.4034 -1.1573
  504MOL0     C69458   7.490   6.227   1.972  0.7661  0.6561  0.6463
  504MOL0    Cl69459   7.663   6.277   1.954 -0.1540 -0.1921  0.0808
  504MOL0     C69460   6.718   6.956   1.725  0.1028  0.7721  0.0873
  504MOL0     C69461   6.615   7.007   1.643  0.3881  0.6077  0.0424
  504MOL0     O69462   6.274   7.084   1.798 -0.2892 -0.3208 -0.6051
  504MOL0     C69463   6.123   6.964   1.506 -0.2521 -0.4103 -0.7690
  504MOL0     C69464   5.999   6.963   1.444 -0.4021 -0.0682  0.1423
  504MOL0     N69465   5.128   7.210   1.512 -0.3489  0.4851 -0.3648
  504MOL0     N69466   5.001   7.234   1.505  0.8403  0.5519 -0.2814
  504MOL0     C69467   4.201   6.340   1.721  0.0032  0.9466 -0.3131
  504MOL0     C69468   4.113   6.272   1.810  0.4043 -0.4438  0.0877
  504MOL0     C69469   3.695   6.212   2.030 -0.9158 -0.8793 -0.5814
  504MOL0     C69470   3.602   6.125   1.975 -0.0770  0.8324 -1.0761
  504MOL0     C69471   3.521   6.040   2.053 -0.4367  0.1520 -0.1480
  504MOL0     C69472   3.534   6.031   2.193 -0.4300 -0.0918 -0.0363
  504MOL0     O69473   3.467   5.943   2.268  0.1402  0.4430 -0.1038
  504MOL0     C69474   3.387   5.843   2.205  0.4644  0.6705 -0.3946
  504MOL0     C69475   3.360   5.734   2.308 -0.1342 -0.6476  1.5519
  504MOL0     C69476   3.318   5.778   2.449 -0.8371 -0.6384  0.1309
  504MOL0     C69477   3.299   5.652   2.536  0.7154 -0.5528 -0.8482
  504MOL0     C69478   3.242   5.699   2.664 -0.4628 -0.1985  0.1152
  504MOL0     C69479   3.200   5.741   2.771  0.7559  0.1158 -0.2369
  504MOL0     C69480   3.619   6.131   2.251 -0.3982  0.0048 -0.3045
  504MOL0     C69481   3.706   6.212   2.176  0.1605 -1.2900  0.5826
  504MOL0     C69482   3.806   6.304   2.246 -0.0639  0.2636 -0.1990
  504MOL0     H69483   3.916   6.534   1.907 -0.0506  0.2168  0.2223
  504MOL0     H69484   4.095   6.652   1.775  1.8906 -0.6446 -0.6826
  504MOL0     H69485   4.437   6.428   1.642  0.1561 -0.5757  2.0243
  504MOL0     H69486   4.449   6.544   1.779  1.5932 -2.0440 -0.0219
  504MOL0     H69487   4.615   6.613   1.634  0.0992  1.6144  0.9552
  504MOL0     H69488   4.519   6.578   1.491  0.5795  0.4575  0.1543
  504MOL0     H69489   4.384   6.785   1.525  0.3975  0.9804 -0.3127
  504MOL0     H69490   4.446   6.790   1.692  1.1205 -1.8776 -0.3877
  504MOL0     H69491   4.524   6.972   1.545  1.2209 -0.3111  1.8702
  504MOL0     H69492   4.663   6.882   1.595  1.5823 -0.7915 -2.2656
  504MOL0     H69493   4.509   6.878   1.325 -1.4256 -0.7447  2.1845
  504MOL0     H69494   4.621   6.758   1.365 -2.5814 -0.5002 -0.8644
  504MOL0     H69495   4.801   6.913   1.422 -1.4482 -2.0982  0.5002
  504MOL0     H69496   4.749   6.931   1.261 -0.1043 -0.0499 -0.6299
  504MOL0     H69497   4.693   7.133   1.480 -0.3078 -0.5125 -0.5784
  504MOL0     H69498   4.613   7.152   1.324  0.4391  0.3050  0.6582
  504MOL0     H69499   4.863   7.160   1.222  0.9705  1.9608 -0.0800
  504MOL0     H69500   4.814   7.289   1.329 -1.2135  0.6884 -2.0487
  504MOL0     H69501   5.040   6.998   1.262 -1.6407 -1.8551  0.3618
  504MOL0     H69502   5.280   6.983   1.291 -0.2730  0.2902  0.2906
  504MOL0     H69503   5.291   6.960   1.468 -0.0393 -0.3506 -0.4153
  504MOL0     H69504   5.413   7.201   1.313 -1.5707  1.3139  0.9404
  504MOL0     H69505   5.384   7.186   1.485 -4.2754 -0.8135 -0.1709
  504MOL0     H69506   5.513   6.950   1.458 -1.7163 -0.5366 -1.2198
  504MOL0     H69507   5.555   6.995   1.292  0.5984  1.0830 -0.0361
  504MOL0     H69508   5.666   7.202   1.422 -1.6192  0.8839 -0.6558
  504MOL0     H69509   5.635   7.109   1.563  0.1099  1.2358 -0.9435
  504MOL0     H69510   5.842   7.205   1.627  0.7279  1.9544  0.0123
  504MOL0     H69511   5.988   7.344   1.729  1.7152  1.3145 -0.3600
  504MOL0     H69512   6.163   7.314   1.740 -0.6487  0.5539 -0.4262
  504MOL0     H69513   6.050   7.241   1.846  0.1859  0.3376  0.3502
  504MOL0     H69514   6.362   6.800   1.736  0.7117 -3.3065 -0.8563
  504MOL0     H69515   6.534   6.693   1.857 -1.2969 -1.4216 -1.7466
  504MOL0     H69516   6.894   6.704   1.699  1.0429 -1.1030 -0.3684
  504MOL0     H69517   6.957   6.851   1.790 -0.1905 -0.0270  1.0954
  504MOL0     H69518   7.039   6.715   1.965  1.2781 -0.7491  0.3445
  504MOL0     H69519   6.981   6.573   1.887  0.9019 -1.0469 -2.3605
  504MOL0     H69520   7.208   6.756   1.765  2.0893 -0.0028  0.8754
  504MOL0     H69521   7.152   6.585   1.723 -0.7053 -0.7523  0.5376
  504MOL0     H69522   7.271   6.673   1.990 -0.7025  0.4998 -1.0074
  504MOL0     H69523   7.375   6.624   1.862  0.7152  0.6925  1.3727
  504MOL0     H69524   7.176   6.451   2.000  1.4456  1.0764  2.3925
  504MOL0     H69525   7.277   6.395   1.862  1.2973 -1.5452  1.1301
  504MOL0     H69526   7.396   6.519   2.121 -1.1307 -1.0203  1.2892
  504MOL0     H69527   7.475   6.465   1.971 -0.4708  0.0563  0.2963
  504MOL0     H69528   7.319   6.247   2.098 -0.1080  0.3865 -1.7538
  504MOL0     H69529   7.467   6.311   2.170 -1.3263 -1.7429  0.1377
  504MOL0     H69530   7.430   6.223   1.880 -0.4337 -4.2655  1.3631
  504MOL0     H69531   7.506   6.126   2.011  1.2938  0.2723 -0.5187
  504MOL0     H69532   6.816   7.002   1.717  0.3100  0.5107  0.9917
  504MOL0     H69533   6.631   7.097   1.584  0.9355  1.1819  1.0306
  504MOL0     H69534   6.203   6.896   1.479 -2.4269 -4.3655  1.8895
  504MOL0     H69535   5.975   6.891   1.367 -0.7576 -0.9691  1.0756
  504MOL0     H69536   4.264   6.270   1.666 -2.8306 -0.4841 -1.9895
  504MOL0     H69537   4.130   6.170   1.842  0.4446 -0.1290  1.1102
  504MOL0     H69538   3.601   6.106   1.868 -0.8392 -0.1188 -0.9105
  504MOL0     H69539   3.449   5.983   1.994 -0.1259  0.4138 -0.7909
  504MOL0     H69540   3.291   5.883   2.169 -0.0396 -1.2809 -1.3553
  504MOL0     H69541   3.436   5.783   2.127  0.5560 -1.4320  1.2061
  504MOL0     H69542   3.455   5.679   2.316 -0.0281 -0.2840  2.9709
  504MOL0     H69543   3.287   5.664   2.266  0.4140  0.7692 -2.1980
  504MOL0     H69544   3.390   5.844   2.498 -1.9389  0.1731  0.6924
  504MOL0     H69545   3.231   5.843   2.444  0.0015  0.7314  2.0828
  504MOL0     H69546   3.394   5.598   2.542  0.9905  0.0401  0.7061
  504MOL0     H69547   3.219   5.591   2.492 -0.2213  0.8879 -1.1958
  504MOL0     H69548   3.156   5.780   2.861 -2.3877  0.2121 -1.6888
  504MOL0     H69549   3.639   6.129   2.358 -1.1437  2.1236 -0.0796
  504MOL0     H69550   3.823   6.393   2.183 -1.8752 -0.4505 -1.8047
  504MOL0     H69551   3.769   6.336   2.344 -1.4661 -0.9772 -0.2863
  504MOL0     H69552   3.890   6.235   2.258 -1.6787 -1.3733  2.5143
  505MOL0     O69553  10.844   2.325   9.262 -0.1103 -0.4050 -0.8691
  505MOL0     C69554  10.801   2.357   9.377  0.1299 -0.3047  0.0954
  505MOL0     O69555  10.879   2.385   9.481  0.3854 -0.6920  0.9197
  505MOL0     C69556  10.982   2.467   9.472 -0.0924 -0.6300 -0.0201
  505MOL0     C69557  10.977   2.586   9.396 -0.6371  0.1009 -0.5275
  505MOL0     C69558  11.084   2.680   9.405  0.3454  0.2062  0.3270
  505MOL0     C69559  11.193   2.667   9.494 -0.7745  0.7087 -0.1899
  505MOL0     O69560  11.297   2.754   9.497 -0.2534 -0.7818 -1.3979
  505MOL0     C69561  11.431   2.700   9.509 -0.7198  0.6404 -0.1477
  505MOL0     C69562  11.535   2.812   9.468  0.7589  0.0848 -0.6632
  505MOL0     C69563  11.522   2.854   9.320 -0.3376 -0.2325 -1.5930
  505MOL0     C69564  11.628   2.966   9.286  0.0647 -0.3139  0.6045
  505MOL0     C69565  11.601   3.028   9.153 -0.3994  0.4967  0.3169
  505MOL0     C69566  11.629   2.932   9.037 -0.3257 -0.3329  0.3879
  505MOL0     C69567  11.602   2.990   8.897 -0.1318 -0.4054  0.3585
  505MOL0     C69568  11.454   3.002   8.855  0.0604 -0.1595 -0.1122
  505MOL0     N69569  11.389   2.874   8.873  0.5049  0.2886 -0.1533
  505MOL0     C69570  11.318   2.836   8.975  0.1386 -0.5116  0.4845
  505MOL0     C69571  11.295   2.696   8.957  0.5017 -0.4941  0.3217
  505MOL0     C69572  11.214   2.611   9.046  0.2404  0.8367 -0.3728
  505MOL0     C69573  11.305   2.529   9.140  0.1299  0.5201  0.0797
  505MOL0     C69574  11.262   2.380   9.150  0.2398 -0.1016  0.0738
  505MOL0     C69575  11.381   2.303   9.221  0.7380 -0.5104 -0.0566
  505MOL0     O69576  11.505   2.284   9.147 -0.7052 -0.3306  0.1307
  505MOL0     C69577  11.526   2.193   9.046 -0.9063 -0.7766  0.0372
  505MOL0     C69578  11.428   2.103   9.008  0.9989 -0.0140  0.2467
  505MOL0     C69579  11.458   1.999   8.916 -0.2739 -0.0620 -0.8013
  505MOL0     C69580  11.343   1.902   8.904 -0.3703  0.5548  0.2383
  505MOL0     C69581  11.582   2.002   8.846  0.6416  0.4561  1.5884
  505MOL0     C69582  11.616   1.905   8.742  0.8983 -0.0456  0.1621
  505MOL0     O69583  11.726   1.947   8.677 -0.3360  0.3154  0.3679
  505MOL0     C69584  11.772   1.861   8.583 -0.1387 -0.6333 -0.1605
  505MOL0     C69585  11.727   1.864   8.455 -0.4811  0.1132  0.8070
  505MOL0     C69586  11.772   1.769   8.357  0.5186  0.1537 -0.7672
  505MOL0     C69587  11.869   1.675   8.395 -0.1496  0.7142 -0.0986
  505MOL0     O69588  11.917   1.601   8.288 -0.6401  0.2459  0.4970
  505MOL0     C69589  12.062   1.569   8.295  0.0396 -0.1678 -1.1145
  505MOL0     C69590  12.123   1.530   8.168  0.0003 -0.0326  1.6163
  505MOL0     C69591  12.277   1.544   8.154  0.1310  0.2462  0.4771
  505MOL0     C69592  12.322   1.685   8.162  0.2933 -0.5324  0.2452
  505MOL0     C69593  12.471   1.688   8.167  0.4301  0.0228  0.0022
  505MOL0     C69594  12.526   1.807   8.247  0.2507 -0.1757 -0.4080
  505MOL0     C69595  12.682   1.833   8.243  0.1484 -0.6654  0.0746
  505MOL0     C69596  12.736   1.890   8.380  0.0198  0.1685  0.2061
  505MOL0    Cl69597  12.634   2.028   8.439 -0.1084 -0.1945  0.0576
  505MOL0     C69598  11.910   1.681   8.525  0.6628 -0.0616  0.0291
  505MOL0     C69599  11.861   1.763   8.621  0.8019  0.0207 -1.0381
  505MOL0     O69600  11.546   1.806   8.719  0.1719 -0.2128 -0.0269
  505MOL0     C69601  11.672   2.103   8.884  0.1745 -0.2056 -0.5303
  505MOL0     C69602  11.650   2.191   8.982  0.5240 -0.6443 -0.8407
  505MOL0     N69603  11.359   2.663   8.837 -0.4661  0.7738  0.8517
  505MOL0     N69604  11.423   2.770   8.798 -0.3023  0.4795  0.3959
  505MOL0     C69605  11.196   2.543   9.559 -0.1602  0.7218  0.2868
  505MOL0     C69606  11.095   2.448   9.550  0.3428  0.3719 -0.2486
  505MOL0     C69607  10.653   2.329   9.402 -0.1536 -0.3374  0.5864
  505MOL0     C69608  10.597   2.377   9.520  0.7282  0.0252 -0.4940
  505MOL0     C69609  10.461   2.363   9.544 -0.1392 -0.3129 -0.4635
  505MOL0     C69610  10.377   2.294   9.453 -0.5696  0.1089  0.1272
  505MOL0     O69611  10.238   2.302   9.453 -0.2201  0.2364  0.9482
  505MOL0     C69612  10.162   2.305   9.575 -0.0380 -0.0149 -0.7894
  505MOL0     C69613  10.184   2.176   9.656 -0.0621 -0.6868 -0.1126
  505MOL0     C69614  10.104   2.188   9.784  0.0354  0.4543 -0.0884
  505MOL0     C69615  10.084   2.059   9.863 -0.5434 -0.0380 -0.6152
  505MOL0     C69616  10.028   2.085   9.991 -0.2888  0.9996  0.3824
  505MOL0     C69617   9.971   2.113  10.098 -0.3620 -0.0298  0.9382
  505MOL0     C69618  10.438   2.242   9.338 -0.4170  0.3121 -0.8588
  505MOL0     C69619  10.569   2.252   9.314 -0.0854 -0.4625 -0.4653
  505MOL0     C69620  10.617   2.153   9.220  0.6066  0.1738  0.1334
  505MOL0     H69621  10.906   2.596   9.314 -0.4087 -1.2836 -0.9309
  505MOL0     H69622  11.076   2.775   9.353 -1.8617 -0.4978 -0.7604
  505MOL0     H69623  11.455   2.618   9.441 -1.1517 -0.6563  1.2077
  505MOL0     H69624  11.449   2.668   9.612 -0.0481  0.0059 -0.4517
  505MOL0     H69625  11.530   2.893   9.541 -1.6836 -1.7399  1.3631
  505MOL0     H69626  11.628   2.758   9.487  1.3567  1.8189  1.7486
  505MOL0     H69627  11.533   2.764   9.260  1.0587 -2.4546  1.6786
  505MOL0     H69628  11.423   2.896   9.304 -0.0736  2.0325  1.6606
  505MOL0     H69629  11.633   3.044   9.363  0.1467 -0.8210  1.1172
  505MOL0     H69630  11.730   2.927   9.287  0.3124  0.2896  0.0138
  505MOL0     H69631  11.659   3.119   9.143 -1.8688  1.2467 -2.6034
  505MOL0     H69632  11.495   3.057   9.154 -1.0523 -1.4668 -1.5958
  505MOL0     H69633  11.734   2.901   9.042 -0.2448 -0.0895  0.2758
  505MOL0     H69634  11.575   2.838   9.045 -2.9783  0.5546 -3.9539
  505MOL0     H69635  11.653   2.917   8.833  0.7816 -0.5604  1.2452
  505MOL0     H69636  11.644   3.091   8.900  1.0809 -0.9074  0.6677
  505MOL0     H69637  11.412   3.083   8.916 -2.8765 -1.4908 -0.2051
  505MOL0     H69638  11.443   3.037   8.752 -0.8131 -1.5642 -0.5069
  505MOL0     H69639  11.293   2.903   9.057  2.1958  0.7172  0.1760
  505MOL0     H69640  11.157   2.541   8.985  0.4237 -0.3993  0.8145
  505MOL0     H69641  11.140   2.672   9.098 -1.2948  0.2185 -1.7350
  505MOL0     H69642  11.403   2.531   9.093 -0.5696  0.5630 -1.4349
  505MOL0     H69643  11.306   2.577   9.239  0.5404 -0.9609  0.8175
  505MOL0     H69644  11.165   2.369   9.200 -0.1743 -0.9233 -0.8662
  505MOL0     H69645  11.248   2.346   9.047  1.5611  0.5209 -0.3280
  505MOL0     H69646  11.416   2.364   9.305  0.9530 -1.5556  0.6438
  505MOL0     H69647  11.353   2.211   9.274 -1.3439  1.5814  2.8458
  505MOL0     H69648  11.333   2.111   9.059 -1.0140  0.6602 -3.3256
  505MOL0     H69649  11.374   1.810   8.953  0.2391  0.7095  0.1511
  505MOL0     H69650  11.309   1.891   8.801 -1.8976  1.6992  0.5861
  505MOL0     H69651  11.254   1.940   8.955 -1.2180 -0.3767 -0.5067
  505MOL0     H69652  11.647   1.927   8.417  0.4647  0.8845  0.0174
  505MOL0     H69653  11.738   1.755   8.255  2.4169 -1.7739 -1.2241
  505MOL0     H69654  12.103   1.666   8.326 -1.2624  1.1072 -3.1358
  505MOL0     H69655  12.074   1.491   8.371  0.7296  1.2849  0.3254
  505MOL0     H69656  12.107   1.424   8.148  0.7650  0.4093 -1.9438
  505MOL0     H69657  12.074   1.586   8.089  1.6473 -2.3940 -1.2970
  505MOL0     H69658  12.310   1.500   8.059  1.3487  1.6493  0.2207
  505MOL0     H69659  12.321   1.487   8.237  0.9202 -2.2359 -1.5059
  505MOL0     H69660  12.290   1.737   8.253 -0.3923  1.4110 -1.0299
  505MOL0     H69661  12.288   1.745   8.077  2.5727  1.5804  0.6929
  505MOL0     H69662  12.523   1.595   8.191  2.4112  1.4858  1.8308
  505MOL0     H69663  12.493   1.704   8.061  0.0408  2.2270  0.1998
  505MOL0     H69664  12.495   1.797   8.351 -1.3398 -1.2052 -0.9401
  505MOL0     H69665  12.486   1.899   8.201  1.7778 -0.1459 -1.7413
  505MOL0     H69666  12.703   1.912   8.171 -2.2218  0.4506  0.5045
  505MOL0     H69667  12.745   1.747   8.220  2.4013  0.8278  0.4026
  505MOL0     H69668  12.837   1.932   8.371 -0.2653  0.5136 -1.7068
  505MOL0     H69669  12.740   1.816   8.461  0.4374 -0.4800 -0.3885
  505MOL0     H69670  11.982   1.605   8.552 -1.7437 -2.7955 -0.7994
  505MOL0     H69671  11.900   1.758   8.722 -0.5484  0.1518 -0.4851
  505MOL0     H69672  11.763   2.120   8.827  0.0077  0.5261 -0.5889
  505MOL0     H69673  11.723   2.268   9.005 -1.1574  1.0035 -0.8240
  505MOL0     H69674  11.282   2.519   9.621  0.9604 -1.0599 -1.8262
  505MOL0     H69675  11.100   2.359   9.610  1.2474 -0.1116 -1.0227
  505MOL0     H69676  10.654   2.433   9.594 -0.8444 -0.0137  0.8035
  505MOL0     H69677  10.429   2.420   9.631  1.7578 -0.7552  0.5883
  505MOL0     H69678  10.185   2.392   9.637 -4.1444  1.5832 -1.2132
  505MOL0     H69679  10.055   2.309   9.555  0.1134  1.8488 -1.4217
  505MOL0     H69680  10.289   2.160   9.682  0.6419  2.3412 -0.7537
  505MOL0     H69681  10.141   2.095   9.597 -0.7071 -0.6861  0.3473
  505MOL0     H69682  10.156   2.262   9.845  1.1902  1.2780 -1.9703
  505MOL0     H69683  10.009   2.231   9.751  0.8687  0.2824 -3.0857
  505MOL0     H69684  10.180   2.011   9.887 -0.8959 -1.6078 -2.1147
  505MOL0     H69685  10.022   1.988   9.808 -0.3695 -1.2045  0.6416
  505MOL0     H69686   9.922   2.161  10.181  0.6758  1.6012  0.6608
  505MOL0     H69687  10.372   2.192   9.267 -1.3775 -0.3298  0.4461
  505MOL0     H69688  10.725   2.138   9.231  0.3368 -2.0845  0.2234
  505MOL0     H69689  10.583   2.050   9.230  1.8111 -0.5230 -2.1477
  505MOL0     H69690  10.590   2.201   9.125  0.7317 -1.8310 -0.9929
  506MOL0     O69691   6.544   1.616   8.600  0.6545  0.2934  0.2278
  506MOL0     C69692   6.600   1.537   8.522  0.5113  0.1425 -0.1042
  506MOL0     O69693   6.553   1.490   8.398  1.1515 -1.2461 -0.3347
  506MOL0     C69694   6.429   1.531   8.362  0.2221  0.3327  0.2045
  506MOL0     C69695   6.389   1.670   8.351 -1.0694 -0.1161  0.9223
  506MOL0     C69696   6.262   1.689   8.291  0.3653 -0.3946 -0.5351
  506MOL0     C69697   6.177   1.585   8.254  0.0141  1.0826  0.4184
  506MOL0     O69698   6.052   1.621   8.202 -0.2950 -0.3406  0.7643
  506MOL0     C69699   5.948   1.524   8.179 -0.0860 -0.0820  0.5207
  506MOL0     C69700   5.834   1.590   8.104 -0.2353 -0.0008 -0.1306
  506MOL0     C69701   5.858   1.610   7.953  0.6086  0.0714  0.4086
  506MOL0     C69702   5.757   1.701   7.886 -0.1109  0.8325 -0.5549
  506MOL0     C69703   5.620   1.646   7.898 -0.1787 -0.1960  0.4750
  506MOL0     C69704   5.525   1.728   7.807  0.9571 -0.0457 -0.1139
  506MOL0     C69705   5.374   1.703   7.832  0.7272 -0.0952  0.8161
  506MOL0     C69706   5.297   1.696   7.701 -0.4109  0.3281 -0.0416
  506MOL0     N69707   5.318   1.563   7.633 -0.4067 -0.1188  0.3937
  506MOL0     C69708   5.222   1.467   7.647 -1.0071  0.3837  0.0321
  506MOL0     C69709   5.274   1.368   7.574  0.5010  0.0909 -0.8289
  506MOL0     C69710   5.212   1.234   7.565  0.2401 -0.3746 -0.4421
  506MOL0     C69711   5.053   1.250   7.547  0.6098  0.5757  0.7490
  506MOL0     C69712   4.994   1.150   7.444  1.0073  0.6469 -0.6997
  506MOL0     C69713   4.841   1.129   7.469 -0.3039 -0.3342 -0.1915
  506MOL0     O69714   4.803   1.012   7.549 -0.1170 -0.6115  0.3314
  506MOL0     C69715   4.817   0.883   7.502 -0.5724 -0.1345 -0.2674
  506MOL0     C69716   4.798   0.787   7.599 -0.1451  0.2049  0.4579
  506MOL0     C69717   4.799   0.644   7.561 -0.2603 -0.4371 -0.3670
  506MOL0     C69718   4.760   0.535   7.664 -0.4163  0.1081 -0.0954
  506MOL0     C69719   4.846   0.610   7.431  1.1664 -0.2066  0.0806
  506MOL0     C69720   4.835   0.478   7.364  0.9778  1.0133 -0.5220
  506MOL0     O69721   4.852   0.470   7.229 -0.1627 -0.8114 -0.0796
  506MOL0     C69722   4.778   0.372   7.162 -0.4292  0.8358  0.1174
  506MOL0     C69723   4.637   0.378   7.145  0.7218 -0.0221 -0.1997
  506MOL0     C69724   4.577   0.258   7.096  0.5037  0.2622  0.5407
  506MOL0     C69725   4.647   0.145   7.046 -0.1940  0.8015  0.3098
  506MOL0     O69726   4.576   0.043   6.988  0.1092 -0.3003 -0.2785
  506MOL0     C69727   4.626  -0.085   6.961 -0.2431  0.9315 -0.3038
  506MOL0     C69728   4.518  -0.184   6.908  0.1371  0.4743 -0.7065
  506MOL0     C69729   4.426  -0.224   7.029  0.2636 -0.6506 -0.4385
  506MOL0     C69730   4.315  -0.324   7.012 -0.8095 -0.5441 -0.2166
  506MOL0     C69731   4.241  -0.341   7.149 -0.9323 -0.3152 -0.5533
  506MOL0     C69732   4.135  -0.446   7.151 -0.1372  0.3462 -0.3016
  506MOL0     C69733   4.180  -0.596   7.163 -0.5005  0.2003  0.0471
  506MOL0     C69734   4.259  -0.635   7.282 -0.8754 -0.8198 -0.8912
  506MOL0    Cl69735   4.181  -0.647   7.427  0.0717  0.4073 -0.0260
  506MOL0     C69736   4.780   0.154   7.061 -0.1841  0.5146 -0.7010
  506MOL0     C69737   4.848   0.256   7.118 -0.0194 -0.6552 -0.0732
  506MOL0     O69738   4.830   0.384   7.439  0.1352 -0.3862 -0.2531
  506MOL0     C69739   4.866   0.713   7.338  0.0399  1.2954  0.3871
  506MOL0     C69740   4.842   0.843   7.368 -0.8697 -0.1022  0.7401
  506MOL0     N69741   5.380   1.415   7.503 -0.3146  0.4507  0.3739
  506MOL0     N69742   5.415   1.524   7.547 -0.2266  0.2964  0.6045
  506MOL0     C69743   6.210   1.454   8.282 -0.2073  0.2981  0.1386
  506MOL0     C69744   6.337   1.432   8.337  0.3605  0.3897  0.4165
  506MOL0     C69745   6.728   1.480   8.574 -1.3524  0.7518  0.0665
  506MOL0     C69746   6.816   1.550   8.658 -0.7766  1.8260 -0.8270
  506MOL0     C69747   6.934   1.487   8.702 -0.6054 -0.4644 -0.4691
  506MOL0     C69748   6.973   1.358   8.671  0.4518 -0.3416  0.3971
  506MOL0     O69749   7.084   1.289   8.701 -0.1873  0.2044 -0.2846
  506MOL0     C69750   7.180   1.355   8.791 -0.1570  0.5498  0.6600
  506MOL0     C69751   7.293   1.257   8.819 -0.8048  0.6888 -0.5141
  506MOL0     C69752   7.255   1.129   8.903 -0.0052  0.3932  0.1206
  506MOL0     C69753   7.367   1.046   8.959  0.2228  0.3825 -0.3437
  506MOL0     C69754   7.315   0.915   9.012  0.3699 -0.5148  1.2475
  506MOL0     C69755   7.276   0.809   9.050 -0.1284  0.0056 -0.0472
  506MOL0     C69756   6.892   1.294   8.579 -0.4488 -0.0505 -0.3119
  506MOL0     C69757   6.775   1.349   8.533 -0.3800  0.7758 -0.7780
  506MOL0     C69758   6.704   1.265   8.431  0.0984 -0.1259  0.6565
  506MOL0     H69759   6.453   1.750   8.387  0.5069 -0.2829 -1.2937
  506MOL0     H69760   6.230   1.793   8.289  2.6243  0.5054  2.4712
  506MOL0     H69761   5.915   1.487   8.276 -0.7970  0.1862  0.3919
  506MOL0     H69762   5.984   1.442   8.117  2.1977  0.6168  0.8258
  506MOL0     H69763   5.741   1.537   8.125 -1.7804  2.8837  0.8015
  506MOL0     H69764   5.820   1.690   8.146 -0.0351 -0.0979  0.1719
  506MOL0     H69765   5.953   1.661   7.935 -0.4614  1.4885 -1.6144
  506MOL0     H69766   5.858   1.518   7.893  1.2475  1.5993 -2.0908
  506MOL0     H69767   5.769   1.796   7.938  0.3120  1.0354 -1.0102
  506MOL0     H69768   5.786   1.708   7.781  2.7528 -1.5956 -0.0667
  506MOL0     H69769   5.587   1.665   8.000 -2.2538 -2.4439  0.3020
  506MOL0     H69770   5.637   1.539   7.884 -0.4626  0.1197 -3.4044
  506MOL0     H69771   5.548   1.833   7.829 -0.4669 -0.1358  2.1525
  506MOL0     H69772   5.549   1.718   7.701 -3.2100  2.1089 -1.4909
  506MOL0     H69773   5.326   1.780   7.894 -1.6921 -1.6855  1.0699
  506MOL0     H69774   5.361   1.610   7.887 -0.2679  0.2481  1.1895
  506MOL0     H69775   5.190   1.705   7.721 -0.7764 -1.5442 -0.9244
  506MOL0     H69776   5.321   1.781   7.636 -1.5807 -0.6248 -1.7995
  506MOL0     H69777   5.142   1.467   7.721 -0.3679 -1.3924  0.7707
  506MOL0     H69778   5.224   1.181   7.660 -3.2231  0.1979  0.4660
  506MOL0     H69779   5.258   1.180   7.482  1.4520 -2.5994  1.5612
  506MOL0     H69780   5.009   1.231   7.646  1.1500  2.1066  1.3053
  506MOL0     H69781   5.021   1.351   7.520  2.4180  1.6082  2.2509
  506MOL0     H69782   5.013   1.194   7.345  1.6222  1.0033 -0.4268
  506MOL0     H69783   5.036   1.050   7.449  0.6704  0.5085 -0.6198
  506MOL0     H69784   4.806   1.214   7.529  0.1412 -0.3293  0.0646
  506MOL0     H69785   4.787   1.123   7.375 -4.4592 -2.1850  2.0478
  506MOL0     H69786   4.792   0.823   7.702  0.1258  0.0857  0.5175
  506MOL0     H69787   4.728   0.584   7.756 -0.3997  1.9542 -1.0285
  506MOL0     H69788   4.848   0.475   7.687  0.5040  1.4034 -0.1791
  506MOL0     H69789   4.692   0.458   7.624 -0.1349  0.0088 -0.3823
  506MOL0     H69790   4.575   0.459   7.181  1.2028  0.8425 -1.2349
  506MOL0     H69791   4.470   0.248   7.082  0.9498 -2.7705 -1.8735
  506MOL0     H69792   4.709  -0.074   6.891 -0.4500 -1.7934 -1.1089
  506MOL0     H69793   4.672  -0.131   7.049 -1.4509 -0.1889 -0.2230
  506MOL0     H69794   4.464  -0.139   6.824  0.3111  0.3920 -0.8640
  506MOL0     H69795   4.571  -0.271   6.867  1.1102  0.4376  0.5463
  506MOL0     H69796   4.376  -0.133   7.064 -0.0685 -1.4322  1.2006
  506MOL0     H69797   4.486  -0.249   7.117 -0.9692  2.6496  1.5040
  506MOL0     H69798   4.357  -0.420   6.980 -0.4233 -0.1756 -0.8230
  506MOL0     H69799   4.247  -0.290   6.933  0.1587  1.6338 -0.1727
  506MOL0     H69800   4.319  -0.351   7.225 -2.5459  0.6456  1.3540
  506MOL0     H69801   4.183  -0.251   7.174 -0.5305 -0.5997  1.5599
  506MOL0     H69802   4.069  -0.432   7.065  0.9999  1.0353 -1.0731
  506MOL0     H69803   4.077  -0.448   7.244 -2.1411 -2.6996 -1.4479
  506MOL0     H69804   4.236  -0.622   7.073 -0.5773  0.0362  0.0477
  506MOL0     H69805   4.095  -0.665   7.163 -0.3615  0.0313  0.0987
  506MOL0     H69806   4.346  -0.569   7.285 -0.7004 -0.9977 -1.6932
  506MOL0     H69807   4.296  -0.736   7.264  1.9351 -0.5465  2.3954
  506MOL0     H69808   4.840   0.070   7.029 -0.9448  0.7883 -3.0571
  506MOL0     H69809   4.956   0.250   7.133  0.7228 -0.7417 -4.2060
  506MOL0     H69810   4.889   0.689   7.235  0.0244  1.7229  0.2809
  506MOL0     H69811   4.839   0.919   7.291 -0.2500 -0.5242  0.2861
  506MOL0     H69812   6.139   1.372   8.273  0.4753 -0.6101  2.4918
  506MOL0     H69813   6.373   1.331   8.355 -2.5690 -0.5936  1.3105
  506MOL0     H69814   6.803   1.658   8.659  0.4882  1.9949 -0.9774
  506MOL0     H69815   6.991   1.549   8.770  2.0317 -1.3506 -1.7758
  506MOL0     H69816   7.226   1.445   8.751  1.9151 -1.1650 -1.1026
  506MOL0     H69817   7.130   1.386   8.883 -0.8462  1.6141 -0.0682
  506MOL0     H69818   7.371   1.304   8.879 -0.0643  0.2875 -1.1510
  506MOL0     H69819   7.343   1.228   8.726  2.2563 -1.8393  1.7000
  506MOL0     H69820   7.196   1.142   8.994  1.5681 -0.9917  1.3839
  506MOL0     H69821   7.199   1.067   8.832  0.1386  1.9615 -1.4637
  506MOL0     H69822   7.406   1.107   9.041  2.3976  0.3113 -1.2719
  506MOL0     H69823   7.452   1.029   8.892  0.4473  1.8093 -0.4403
  506MOL0     H69824   7.227   0.720   9.085 -1.0459  1.3342  2.1992
  506MOL0     H69825   6.928   1.197   8.545 -0.3976 -0.3617  0.5932
  506MOL0     H69826   6.699   1.322   8.338 -2.2418  0.4064  1.0381
  506MOL0     H69827   6.748   1.166   8.412  0.2064 -0.4180  2.2331
  506MOL0     H69828   6.601   1.258   8.469  0.8018 -1.4127  2.4851
  507MOL0     O69829   3.787   7.899   3.070 -0.3376 -0.3472 -0.2051
  507MOL0     C69830   3.754   7.820   2.989 -0.2500 -0.2404 -0.4021
  507MOL0     O69831   3.836   7.772   2.888  0.5370  0.0790 -0.2836
  507MOL0     C69832   3.955   7.830   2.850 -0.0248 -0.8614  0.7372
  507MOL0     C69833   4.073   7.824   2.932 -0.1154 -0.5888  0.3131
  507MOL0     C69834   4.188   7.898   2.901 -0.0859  0.4621 -0.1086
  507MOL0     C69835   4.192   7.966   2.777  0.3844  0.2139  0.3391
  507MOL0     O69836   4.297   8.039   2.730  0.7224 -0.1834 -0.2193
  507MOL0     C69837   4.369   8.104   2.832 -0.4717 -0.7729 -0.5017
  507MOL0     C69838   4.478   8.186   2.762  0.5314 -0.6614 -0.7742
  507MOL0     C69839   4.569   8.098   2.677  0.2559 -0.0394 -0.6836
  507MOL0     C69840   4.714   8.154   2.646 -0.5866 -0.8866 -0.2255
  507MOL0     C69841   4.793   8.038   2.584 -0.1679 -0.5234 -0.1231
  507MOL0     C69842   4.942   8.084   2.595  0.4492  0.2660 -0.2352
  507MOL0     C69843   5.035   7.996   2.498  0.5952  1.1910 -1.7697
  507MOL0     C69844   5.187   8.003   2.539 -0.2687  0.6949  0.6935
  507MOL0     N69845   5.248   8.120   2.477 -0.2548  1.0833  0.0725
  507MOL0     C69846   5.307   8.123   2.345  0.6123 -0.7107 -0.6927
  507MOL0     C69847   5.360   8.248   2.359  0.8816  0.1053 -0.0907
  507MOL0     C69848   5.432   8.333   2.258  0.9077  0.0031 -0.0709
  507MOL0     C69849   5.588   8.319   2.280  0.1132 -0.1700  0.1022
  507MOL0     C69850   5.667   8.408   2.193 -0.0120  0.4199  0.0292
  507MOL0     C69851   5.819   8.367   2.196  0.0097 -0.3231 -0.5024
  507MOL0     O69852   5.865   8.353   2.335 -0.3186  0.7710  0.0266
  507MOL0     C69853   5.979   8.434   2.350  0.0498  0.4355  0.3758
  507MOL0     C69854   5.985   8.563   2.395 -0.6682  0.5380  0.2543
  507MOL0     C69855   6.102   8.642   2.383 -0.3728 -0.3123  0.1199
  507MOL0     C69856   6.107   8.788   2.434  0.8318  0.5992  0.6541
  507MOL0     C69857   6.217   8.584   2.345 -0.6618  0.2580 -0.3446
  507MOL0     C69858   6.354   8.630   2.355  0.5018 -1.3243 -0.6511
  507MOL0     O69859   6.412   8.600   2.475 -0.7294  0.1401 -0.7009
  507MOL0     C69860   6.547   8.603   2.493 -0.7784  0.0706 -0.1227
  507MOL0     C69861   6.627   8.683   2.586  0.7234 -0.2979 -0.7922
  507MOL0     C69862   6.767   8.669   2.601  0.7479  1.4428  0.5085
  507MOL0     C69863   6.835   8.583   2.517 -1.0267 -0.1129  0.2961
  507MOL0     O69864   6.971   8.576   2.544 -1.0348 -0.0520  0.1700
  507MOL0     C69865   7.064   8.577   2.432  0.3935 -0.4656 -1.1704
  507MOL0     C69866   7.152   8.700   2.426 -0.1419 -0.4220 -0.4335
  507MOL0     C69867   7.257   8.696   2.317  0.0640 -0.6073 -0.1855
  507MOL0     C69868   7.322   8.833   2.306  0.1387 -0.7287 -1.1310
  507MOL0     C69869   7.415   8.840   2.190  0.1239  0.3290  0.5979
  507MOL0     C69870   7.555   8.771   2.183  0.2862 -0.0706  0.6942
  507MOL0     C69871   7.644   8.807   2.298 -0.0506  0.1097  1.0660
  507MOL0     C69872   7.786   8.745   2.290  0.5051  0.8061 -0.6065
  507MOL0    Cl69873   7.902   8.814   2.171  0.1346 -0.2817 -0.8608
  507MOL0     C69874   6.765   8.504   2.433  0.0326  0.1348  0.6275
  507MOL0     C69875   6.629   8.515   2.427 -0.1303 -0.0132  0.4926
  507MOL0     O69876   6.411   8.658   2.254 -1.0433 -0.6636 -1.1696
  507MOL0     C69877   6.212   8.453   2.295 -0.7994 -0.1456 -0.8097
  507MOL0     C69878   6.094   8.379   2.291  0.0494 -0.3381 -0.0535
  507MOL0     N69879   5.337   8.305   2.481  0.2496  0.0585 -0.7617
  507MOL0     N69880   5.280   8.220   2.555  0.5116  0.4711 -0.2181
  507MOL0     C69881   4.081   7.973   2.697  0.0747 -0.5126  0.1646
  507MOL0     C69882   3.961   7.905   2.730 -1.1378 -0.0600 -0.3211
  507MOL0     C69883   3.617   7.759   3.003  0.9075 -1.3133 -0.0650
  507MOL0     C69884   3.602   7.622   2.982  0.3632 -0.8451  0.9454
  507MOL0     C69885   3.470   7.568   2.985 -0.3989  0.0050  0.6461
  507MOL0     C69886   3.353   7.646   3.010 -0.6459 -0.7560 -0.3066
  507MOL0     O69887   3.221   7.602   3.017 -0.3095  0.0425  0.5266
  507MOL0     C69888   3.197   7.463   2.990 -0.5313  0.5989 -0.2262
  507MOL0     C69889   3.048   7.435   2.996  0.2271 -0.6736 -0.3009
  507MOL0     C69890   3.011   7.286   2.973  0.2990 -0.4674 -0.6771
  507MOL0     C69891   2.984   7.215   3.105  0.3301 -0.5525  0.3236
  507MOL0     C69892   2.879   7.265   3.194  0.1031 -1.0917 -0.6019
  507MOL0     C69893   2.798   7.326   3.257  0.2529 -0.2089 -0.6165
  507MOL0     C69894   3.372   7.777   3.031  0.5260 -0.0755  0.2087
  507MOL0     C69895   3.503   7.841   3.026 -0.0548 -0.3536 -0.2072
  507MOL0     C69896   3.515   7.985   3.049  0.6152 -0.3721  0.6842
  507MOL0     H69897   4.062   7.760   3.019  4.3566 -3.5900 -0.9559
  507MOL0     H69898   4.274   7.906   2.966  1.4413  2.8328 -2.1777
  507MOL0     H69899   4.415   8.045   2.912 -1.6323 -0.6679  0.2669
  507MOL0     H69900   4.316   8.187   2.880  1.2480 -1.2239  2.4460
  507MOL0     H69901   4.417   8.254   2.702 -0.4677  1.8046  2.6740
  507MOL0     H69902   4.532   8.234   2.844  1.0836 -0.3465 -1.3259
  507MOL0     H69903   4.586   8.007   2.735  0.2121  1.0731  1.1449
  507MOL0     H69904   4.507   8.082   2.588 -1.7028  2.3436  0.1432
  507MOL0     H69905   4.701   8.230   2.569 -1.4759 -0.1416  0.6369
  507MOL0     H69906   4.763   8.185   2.738  1.1441 -2.1976 -0.6409
  507MOL0     H69907   4.774   8.045   2.476  0.6927  3.5079 -0.1750
  507MOL0     H69908   4.787   7.937   2.625  0.4143 -0.4260  0.2073
  507MOL0     H69909   4.946   8.189   2.564 -1.3230 -0.0424 -1.6781
  507MOL0     H69910   4.972   8.078   2.699  4.7101 -0.0988 -1.2954
  507MOL0     H69911   5.018   8.030   2.396  0.1881  1.8050 -1.5040
  507MOL0     H69912   5.006   7.891   2.504  0.2948  1.2404 -2.2883
  507MOL0     H69913   5.194   8.002   2.648  3.0564  0.4028  0.5969
  507MOL0     H69914   5.244   7.916   2.504  0.6713  1.3203  0.6218
  507MOL0     H69915   5.309   8.053   2.263 -1.6148 -1.7863  0.0699
  507MOL0     H69916   5.405   8.438   2.270 -0.9614 -0.4865  0.3221
  507MOL0     H69917   5.395   8.292   2.163 -0.0235  3.0358 -1.1352
  507MOL0     H69918   5.608   8.349   2.383 -0.3845 -0.7260  0.3694
  507MOL0     H69919   5.622   8.218   2.258 -1.4684 -0.9003  0.8110
  507MOL0     H69920   5.634   8.400   2.088 -1.2322 -1.3077  0.5065
  507MOL0     H69921   5.652   8.508   2.234 -0.2766 -0.1280  1.3058
  507MOL0     H69922   5.817   8.266   2.154  0.5618 -0.5726  0.0558
  507MOL0     H69923   5.872   8.439   2.133 -3.0219  1.1023 -1.5805
  507MOL0     H69924   5.899   8.621   2.428 -0.9103  0.2284  0.1639
  507MOL0     H69925   6.198   8.811   2.490 -0.7633 -0.8239  4.1600
  507MOL0     H69926   6.023   8.808   2.502 -2.6939  0.7112 -3.2883
  507MOL0     H69927   6.102   8.866   2.357  0.3096  2.6598  2.6682
  507MOL0     H69928   6.580   8.763   2.642 -0.0884 -0.5416 -1.1072
  507MOL0     H69929   6.808   8.734   2.678 -0.4257  4.0096 -0.9131
  507MOL0     H69930   7.117   8.482   2.441 -0.2989 -0.6382  2.2546
  507MOL0     H69931   7.013   8.571   2.335  1.0159  1.2975 -1.6610
  507MOL0     H69932   7.084   8.785   2.410  1.6440  0.9943 -0.8633
  507MOL0     H69933   7.206   8.707   2.521 -3.6953  1.2703  1.7009
  507MOL0     H69934   7.208   8.673   2.222 -3.0799  1.9051  0.6365
  507MOL0     H69935   7.331   8.619   2.337 -0.1461 -0.8020 -0.1469
  507MOL0     H69936   7.387   8.851   2.392  0.9210 -2.6285 -1.2807
  507MOL0     H69937   7.241   8.907   2.308 -0.7447 -1.3708  4.9059
  507MOL0     H69938   7.362   8.819   2.096  1.7837  0.8309 -0.4940
  507MOL0     H69939   7.442   8.946   2.191 -1.7139  0.9458 -2.0632
  507MOL0     H69940   7.590   8.801   2.084 -3.0602  1.3019 -0.1938
  507MOL0     H69941   7.534   8.665   2.169 -2.9038  0.7999 -2.6088
  507MOL0     H69942   7.604   8.781   2.397 -0.1348 -0.4915  0.8796
  507MOL0     H69943   7.666   8.914   2.291 -0.8897  0.1861 -1.0563
  507MOL0     H69944   7.768   8.640   2.266 -1.3023  0.8751  0.2631
  507MOL0     H69945   7.829   8.755   2.390  0.2115  0.5724 -0.4532
  507MOL0     H69946   6.824   8.440   2.369 -0.5209  1.2626 -1.0669
  507MOL0     H69947   6.591   8.432   2.368  4.6234 -3.2027  1.3286
  507MOL0     H69948   6.304   8.410   2.259  0.3892 -0.0110  1.8039
  507MOL0     H69949   6.087   8.285   2.239  2.6925  0.0244 -1.2296
  507MOL0     H69950   4.084   8.046   2.617  3.0283  2.0780  2.3840
  507MOL0     H69951   3.872   7.928   2.674 -0.2435  0.4907 -1.5524
  507MOL0     H69952   3.692   7.566   2.957  1.1406  0.2185  1.3135
  507MOL0     H69953   3.462   7.461   2.975  0.9428 -0.0235 -0.4049
  507MOL0     H69954   3.236   7.432   2.892  0.7337  0.5995  0.2518
  507MOL0     H69955   3.249   7.419   3.076 -1.6230  2.3381  1.4005
  507MOL0     H69956   3.001   7.498   2.921  0.1695 -0.2030  0.1235
  507MOL0     H69957   3.009   7.479   3.089 -0.2875  3.1297 -2.1164
  507MOL0     H69958   2.918   7.286   2.915 -0.1037 -0.3869 -0.0440
  507MOL0     H69959   3.086   7.237   2.910 -0.2665  0.0995 -1.8159
  507MOL0     H69960   3.077   7.195   3.158 -0.0606  0.2295  1.3329
  507MOL0     H69961   2.951   7.114   3.077 -1.0161 -0.2161  0.6130
  507MOL0     H69962   2.731   7.386   3.315  0.1808  0.5012 -1.4188
  507MOL0     H69963   3.284   7.836   3.056  0.3732 -0.0634 -0.3368
  507MOL0     H69964   3.417   8.035   3.051  0.8104  0.0064  1.5892
  507MOL0     H69965   3.563   8.009   3.145  1.1072  1.6743 -0.0321
  507MOL0     H69966   3.571   8.020   2.962 -0.8126 -0.0008 -0.1246
  508MOL0     O69967   6.590   9.497  10.781 -0.1723 -0.4647 -0.0284
  508MOL0     C69968   6.491   9.544  10.836 -0.4260  0.0638  0.4674
  508MOL0     O69969   6.489   9.601  10.962 -0.8139 -0.0917  0.4263
  508MOL0     C69970   6.592   9.573  11.055 -0.7946  0.4801 -0.2234
  508MOL0     C69971   6.609   9.672  11.149 -0.2282 -0.3757  0.9990
  508MOL0     C69972   6.707   9.657  11.245 -0.4116  0.6377  0.5818
  508MOL0     C69973   6.791   9.542  11.252 -0.0782 -0.5204  0.2321
  508MOL0     O69974   6.887   9.516  11.349 -0.2779 -0.0308  0.1952
  508MOL0     C69975   6.909   9.615  11.444 -0.2168 -0.2722  0.5618
  508MOL0     C69976   7.027   9.570  11.536  0.5434  0.0046 -0.4095
  508MOL0     C69977   7.161   9.583  11.457  0.1442 -0.0499  0.5905
  508MOL0     C69978   7.284   9.543  11.541 -0.6161 -0.0782  0.4056
  508MOL0     C69979   7.409   9.604  11.488 -1.0094  0.5430  0.5271
  508MOL0     C69980   7.529   9.561  11.575 -1.0615  0.1373  1.2256
  508MOL0     C69981   7.661   9.618  11.529 -0.1730  0.3233 -0.4785
  508MOL0     C69982   7.787   9.548  11.575 -0.6555 -0.2541 -0.1889
  508MOL0     N69983   7.902   9.613  11.507  0.3882  0.0176 -0.3523
  508MOL0     C69984   7.975   9.720  11.554 -0.3657  0.0287 -0.4354
  508MOL0     C69985   8.053   9.767  11.448 -0.5063  0.7221 -0.4863
  508MOL0     C69986   8.164   9.863  11.477 -0.4306 -0.7862  0.6667
  508MOL0     C69987   8.262   9.822  11.590  0.1756  0.1809  0.8001
  508MOL0     C69988   8.401   9.882  11.565 -0.1150  0.2496  0.4400
  508MOL0     C69989   8.497   9.881  11.690  0.3321 -1.5568  0.0520
  508MOL0     O69990   8.634   9.895  11.638 -0.1068 -0.0139  0.4770
  508MOL0     C69991   8.730   9.989  11.686  0.2952  0.1540  0.0592
  508MOL0     C69992   8.851   9.995  11.617  0.2753 -0.0501  0.1337
  508MOL0     C69993   8.947  10.094  11.644 -0.5895 -0.3843 -0.5041
  508MOL0     C69994   9.079  10.081  11.572  0.3568 -0.6880 -0.5359
  508MOL0     C69995   8.929  10.175  11.760 -0.2399 -0.0563 -0.1231
  508MOL0     C69996   9.047  10.263  11.792 -0.3725 -0.0308 -0.9268
  508MOL0     O69997   9.150  10.201  11.846  0.1732 -0.2944 -0.0242
  508MOL0     C69998   9.255  10.279  11.887  1.0989  1.4193 -0.0283
  508MOL0     C69999   9.381  10.235  11.848 -0.7601 -0.3228  0.0405
  508MOL0     C70000   9.496  10.297  11.908  1.0852  0.6945  0.7162
  508MOL0     C70001   9.480  10.412  11.984  0.4315  0.5449 -0.0323
  508MOL0     O70002   9.600  10.451  12.041  0.3171  0.0438 -0.2845
  508MOL0     C70003   9.583  10.573  12.118  0.6225  0.1174  0.7096
  508MOL0     C70004   9.538  10.544  12.255  0.9131 -0.2625 -0.1259
  508MOL0     C70005   9.551  10.684  12.337  0.1605  0.9395 -0.4526
  508MOL0     C70006   9.435  10.685  12.439  0.5503  0.6230  0.0802
  508MOL0     C70007   9.399  10.818  12.499  0.3591 -0.3277  0.5622
  508MOL0     C70008   9.513  10.904  12.549 -0.3665  0.5880 -0.6612
  508MOL0     C70009   9.452  11.030  12.607 -0.2271  0.6043 -0.7187
  508MOL0     C70010   9.559  11.126  12.655  0.5062 -0.4121 -0.5975
  508MOL0    Cl70011   9.632  11.199  12.513  0.1318 -0.0046 -0.1096
  508MOL0     C70012   9.357  10.466  12.012 -0.4992 -0.5902  0.1863
  508MOL0     C70013   9.246  10.396  11.971  0.1196  0.5467 -0.3784
  508MOL0     O70014   9.042  10.381  11.764  0.0107  0.0989  0.4907
  508MOL0     C70015   8.812  10.155  11.838 -0.4918 -0.5075  0.0774
  508MOL0     C70016   8.711  10.076  11.795 -0.1065 -0.2977 -0.8237
  508MOL0     N70017   8.032   9.688  11.341 -0.2054 -0.9385  0.3416
  508MOL0     N70018   7.954   9.587  11.378 -0.3559 -0.4785 -0.2140
  508MOL0     C70019   6.768   9.438  11.155  0.0112  0.0512  0.8533
  508MOL0     C70020   6.670   9.454  11.058 -0.2056 -0.3778  0.1249
  508MOL0     C70021   6.365   9.557  10.752 -0.0061 -0.3101  0.0623
  508MOL0     C70022   6.245   9.598  10.812  0.0821  0.9380 -0.6302
  508MOL0     C70023   6.129   9.640  10.737 -0.6251 -0.9716 -0.2669
  508MOL0     C70024   6.120   9.608  10.598 -0.1199 -0.0180 -0.4140
  508MOL0     O70025   6.004   9.631  10.532  0.4222 -0.3318 -0.2945
  508MOL0     C70026   5.999   9.603  10.389  0.3038 -0.8423  0.6396
  508MOL0     C70027   6.058   9.706  10.304 -0.2381  0.1872  0.1768
  508MOL0     C70028   6.054   9.660  10.154  0.6051 -1.0594 -0.2854
  508MOL0     C70029   6.125   9.533  10.108  0.2570 -0.4501  0.2104
  508MOL0     C70030   6.264   9.533  10.130  0.3569  0.4247 -0.6757
  508MOL0     C70031   6.381   9.549  10.163 -0.0312 -0.1165  0.5473
  508MOL0     C70032   6.237   9.550  10.540 -0.0735  0.1303 -0.2863
  508MOL0     C70033   6.356   9.530  10.612  0.2953 -0.0769  0.5415
  508MOL0     C70034   6.471   9.467  10.536  0.2766 -0.7526 -0.3681
  508MOL0     H70035   6.524   9.740  11.154  0.5493  0.5531  4.6268
  508MOL0     H70036   6.721   9.733  11.320  2.9667 -1.3908  2.2892
  508MOL0     H70037   6.819   9.628  11.505  0.4100 -0.2970  1.5216
  508MOL0     H70038   6.926   9.708  11.389 -2.8351 -0.7392 -1.1663
  508MOL0     H70039   7.042   9.639  11.619 -0.4556  1.4180 -1.3639
  508MOL0     H70040   7.011   9.469  11.576 -2.6322  0.5131 -0.1356
  508MOL0     H70041   7.161   9.516  11.371  1.1758  0.2235  0.3635
  508MOL0     H70042   7.173   9.687  11.426  2.0656 -1.1911 -3.0747
  508MOL0     H70043   7.278   9.565  11.648  2.3063 -2.0230  1.0766
  508MOL0     H70044   7.285   9.435  11.525 -1.9846 -0.0595  0.0823
  508MOL0     H70045   7.411   9.714  11.494  1.1720  0.5515  0.4797
  508MOL0     H70046   7.421   9.583  11.382 -0.7056  0.6139  0.5454
  508MOL0     H70047   7.510   9.580  11.681 -1.8638  1.8649  0.8087
  508MOL0     H70048   7.531   9.451  11.574 -0.1919  0.1467  0.2338
  508MOL0     H70049   7.654   9.716  11.579 -2.2866 -0.4669  0.8991
  508MOL0     H70050   7.674   9.636  11.422  2.8256 -2.1147 -0.6469
  508MOL0     H70051   7.784   9.551  11.684  0.8317  0.5416 -0.1410
  508MOL0     H70052   7.786   9.445  11.538  0.2241  0.3966 -2.1231
  508MOL0     H70053   7.981   9.768  11.651  0.2778 -0.2366 -0.3400
  508MOL0     H70054   8.132   9.965  11.501 -0.6894 -0.8734  0.6867
  508MOL0     H70055   8.221   9.866  11.383  0.8939  1.7335  1.4422
  508MOL0     H70056   8.221   9.852  11.687  0.3817  1.3567  0.5437
  508MOL0     H70057   8.268   9.713  11.591 -2.8056 -0.1180 -0.9985
  508MOL0     H70058   8.448   9.814  11.492  0.3133 -0.4698  1.3640
  508MOL0     H70059   8.405   9.975  11.508  0.2281  0.6538  1.1129
  508MOL0     H70060   8.477   9.968  11.752  2.6928  0.3793 -1.7009
  508MOL0     H70061   8.487   9.793  11.755 -3.2524 -0.6602  0.8986
  508MOL0     H70062   8.862   9.930  11.531 -0.5304 -0.3859  0.2738
  508MOL0     H70063   9.073  10.015  11.485  2.2489 -1.7487  0.0485
  508MOL0     H70064   9.156  10.034  11.636 -0.2980 -3.2176 -1.4756
  508MOL0     H70065   9.107  10.183  11.546 -3.6207  1.1590  1.6221
  508MOL0     H70066   9.403  10.163  11.770  0.1660 -0.0007 -0.0072
  508MOL0     H70067   9.596  10.265  11.880 -0.1555 -1.9451 -1.0946
  508MOL0     H70068   9.681  10.621  12.134  0.3288  0.9373  0.1140
  508MOL0     H70069   9.520  10.649  12.072 -0.9557 -0.0761  2.4279
  508MOL0     H70070   9.436  10.505  12.266  0.9737 -0.4660 -0.2872
  508MOL0     H70071   9.611  10.471  12.291  0.9451 -0.7188 -1.0825
  508MOL0     H70072   9.538  10.778  12.283  1.2372  0.4101 -1.6891
  508MOL0     H70073   9.648  10.675  12.387 -0.0091 -1.6901 -0.4317
  508MOL0     H70074   9.449  10.615  12.522 -3.0860  1.4515  1.5753
  508MOL0     H70075   9.353  10.648  12.377  1.8154  0.5696 -1.6520
  508MOL0     H70076   9.349  10.878  12.423  0.8363  1.5574  1.6704
  508MOL0     H70077   9.329  10.795  12.581 -0.4091 -0.6552 -0.1730
  508MOL0     H70078   9.577  10.921  12.462  1.2469 -0.0133  0.3653
  508MOL0     H70079   9.580  10.866  12.626  2.2118  3.4450 -1.3019
  508MOL0     H70080   9.382  11.005  12.687  0.2533 -3.0444 -1.2695
  508MOL0     H70081   9.399  11.086  12.529 -1.4444  1.2585  0.5352
  508MOL0     H70082   9.631  11.079  12.722  0.5422  0.4649 -0.0007
  508MOL0     H70083   9.516  11.210  12.711  0.7748 -0.0031 -0.9974
  508MOL0     H70084   9.343  10.568  12.047  1.3633  0.7868 -2.6492
  508MOL0     H70085   9.151  10.445  11.985 -0.4582  1.4382 -5.5280
  508MOL0     H70086   8.797  10.219  11.925  2.3023  3.2131 -1.9173
  508MOL0     H70087   8.615  10.073  11.845 -0.4904 -1.1707 -1.5831
  508MOL0     H70088   6.830   9.350  11.147  0.0973  0.0032  1.9183
  508MOL0     H70089   6.641   9.378  10.985 -2.2169  2.8869 -2.7834
  508MOL0     H70090   6.257   9.612  10.919 -0.4962  1.9190 -0.6809
  508MOL0     H70091   6.052   9.680  10.801 -2.2339 -3.6128 -0.3634
  508MOL0     H70092   6.041   9.504  10.367 -1.7756 -1.4377 -1.0402
  508MOL0     H70093   5.891   9.614  10.372  0.1282 -0.1091  2.1064
  508MOL0     H70094   6.163   9.718  10.332 -0.3088 -2.2910  1.8597
  508MOL0     H70095   6.015   9.806  10.316 -0.3507 -0.0908  2.4714
  508MOL0     H70096   5.948   9.663  10.128  0.7651  1.3632 -0.8915
  508MOL0     H70097   6.103   9.746  10.107  0.8490  0.3211  2.2791
  508MOL0     H70098   6.112   9.536  10.000 -1.6100  0.1253  0.4111
  508MOL0     H70099   6.082   9.444  10.154 -1.0673  0.7376  1.3925
  508MOL0     H70100   6.486   9.550  10.185 -0.3015 -0.4736  1.9046
  508MOL0     H70101   6.244   9.525  10.435  1.5672 -0.3112 -0.0973
  508MOL0     H70102   6.561   9.530  10.543 -1.2619  1.5045  0.3323
  508MOL0     H70103   6.499   9.367  10.568  0.7527  0.0121  1.7615
  508MOL0     H70104   6.450   9.464  10.429 -1.0962  0.7113 -0.1861
  509MOL0     O70105  10.468   9.954   9.163  0.0389  0.1977  0.5467
  509MOL0     C70106  10.533  10.056   9.145  0.8122 -0.7420 -0.9408
  509MOL0     O70107  10.664  10.079   9.175  0.5705 -0.0516  0.6406
  509MOL0     C70108  10.754   9.988   9.224 -0.3879 -0.6179 -0.5509
  509MOL0     C70109  10.886  10.047   9.233  0.2885 -0.0140 -0.5908
  509MOL0     C70110  11.003   9.968   9.265  0.8313 -0.0643  0.2409
  509MOL0     C70111  10.981   9.835   9.292 -0.2778 -0.0875  0.3384
  509MOL0     O70112  11.092   9.750   9.310 -0.2701 -0.3388 -0.0926
  509MOL0     C70113  11.230   9.795   9.306 -0.2073 -0.2718 -0.0412
  509MOL0     C70114  11.338   9.682   9.305 -0.1599 -0.1087 -1.2219
  509MOL0     C70115  11.481   9.739   9.277  0.2346  1.0990 -0.2224
  509MOL0     C70116  11.586   9.663   9.362 -0.3328  0.3732  1.0910
  509MOL0     C70117  11.730   9.717   9.344  0.0481  1.0234 -0.0897
  509MOL0     C70118  11.843   9.607   9.376  0.1120  0.8840 -0.5783
  509MOL0     C70119  11.980   9.640   9.312  0.3217  0.2353  0.9781
  509MOL0     C70120  12.051   9.746   9.378 -0.8272  0.0876  0.5693
  509MOL0     N70121  12.163   9.789   9.290  0.7889  0.1841  1.3547
  509MOL0     C70122  12.266   9.710   9.250 -0.7316 -0.2692 -0.0590
  509MOL0     C70123  12.330   9.779   9.146 -0.5411  0.7428  0.0397
  509MOL0     C70124  12.454   9.742   9.070  0.0699  1.0706  0.4091
  509MOL0     C70125  12.443   9.608   8.992 -0.5851  0.4452  0.3191
  509MOL0     C70126  12.502   9.632   8.852 -0.1065 -0.4431  0.4127
  509MOL0     C70127  12.505   9.502   8.773 -0.5350 -1.0810  0.2306
  509MOL0     O70128  12.539   9.522   8.636 -0.7002 -0.0926 -0.4809
  509MOL0     C70129  12.673   9.537   8.616 -0.5840  0.0802 -0.8299
  509MOL0     C70130  12.754   9.427   8.596  1.1061  0.5458  0.4413
  509MOL0     C70131  12.896   9.446   8.577  0.1475  0.1800 -0.0476
  509MOL0     C70132  12.974   9.321   8.557 -0.7514 -0.1049  0.5883
  509MOL0     C70133  12.947   9.580   8.563 -0.4532  0.5940 -0.3909
  509MOL0     C70134  13.086   9.604   8.521  0.7390 -0.2122 -0.1132
  509MOL0     O70135  13.123   9.734   8.522  0.0374  0.0570  0.7676
  509MOL0     C70136  13.224   9.784   8.439  0.5620  0.0914 -0.5538
  509MOL0     C70137  13.309   9.885   8.491  0.0498 -0.2017 -0.1233
  509MOL0     C70138  13.400   9.949   8.403 -0.8878 -0.1817  0.4815
  509MOL0     C70139  13.415   9.908   8.268 -0.8408  0.3663 -0.2582
  509MOL0     O70140  13.499   9.974   8.196 -0.2485  0.5274  0.0587
  509MOL0     C70141  13.607   9.902   8.135  0.0956  0.7406  0.8350
  509MOL0     C70142  13.739   9.981   8.100  0.5583  0.3715 -0.2618
  509MOL0     C70143  13.805  10.045   8.219  0.3623 -0.3367 -1.0670
  509MOL0     C70144  13.951  10.099   8.193 -0.1241  0.5818  0.2192
  509MOL0     C70145  13.994  10.188   8.311 -0.2629  0.4991 -0.3911
  509MOL0     C70146  14.126  10.260   8.284  0.6240 -0.5746  0.1957
  509MOL0     C70147  14.141  10.328   8.151  0.8537  0.0428  0.3810
  509MOL0     C70148  14.029  10.413   8.113 -0.7269 -0.2050 -0.2197
  509MOL0    Cl70149  14.055  10.497   7.953 -0.3036  0.2136  0.0396
  509MOL0     C70150  13.329   9.811   8.216  0.3815  0.2492 -0.4182
  509MOL0     C70151  13.238   9.752   8.304  0.0146 -0.2456  0.8235
  509MOL0     O70152  13.155   9.521   8.470 -0.7027  0.0297  0.4008
  509MOL0     C70153  12.860   9.689   8.575  0.2383 -0.2550  0.1547
  509MOL0     C70154  12.730   9.662   8.613  0.7565 -0.4952 -0.0830
  509MOL0     N70155  12.256   9.897   9.123  0.0213 -0.4146  0.5356
  509MOL0     N70156  12.161   9.905   9.210  0.0600  0.2446 -0.1344
  509MOL0     C70157  10.846   9.786   9.305 -0.5776  0.4227  0.3934
  509MOL0     C70158  10.733   9.856   9.266  0.5021  0.1921 -0.1162
  509MOL0     C70159  10.451  10.175   9.109 -0.5292 -0.2006 -0.5225
  509MOL0     C70160  10.514  10.290   9.069 -0.1674 -0.3339 -0.1470
  509MOL0     C70161  10.449  10.410   9.033  0.0782 -0.0922 -0.4965
  509MOL0     C70162  10.312  10.412   9.048  0.4657 -0.2288 -0.2976
  509MOL0     O70163  10.227  10.519   9.005 -0.3832 -0.2559 -0.6819
  509MOL0     C70164  10.301  10.632   8.948  0.1597  0.3946  0.2062
  509MOL0     C70165  10.197  10.733   8.896  0.5543 -0.4883  0.6584
  509MOL0     C70166  10.136  10.804   9.018 -0.1642 -0.2429  0.1496
  509MOL0     C70167  10.052  10.925   8.968  0.3955 -0.5625  0.7968
  509MOL0     C70168  10.140  11.036   8.947  0.2662 -0.1740  1.4910
  509MOL0     C70169  10.221  11.129   8.930 -0.4178  0.1736 -0.5347
  509MOL0     C70170  10.251  10.298   9.097 -0.0444 -0.0362 -0.1821
  509MOL0     C70171  10.311  10.184   9.127  0.3233 -0.2424  0.0584
  509MOL0     C70172  10.205  10.084   9.169  0.2220  0.9086  0.3002
  509MOL0     H70173  10.899  10.155   9.222 -1.7254  0.2407 -0.8685
  509MOL0     H70174  11.099  10.019   9.258  1.4575 -0.7410  2.8155
  509MOL0     H70175  11.253   9.862   9.389 -1.3733 -0.8073  0.7543
  509MOL0     H70176  11.237   9.852   9.213  0.9907  0.2714  0.3706
  509MOL0     H70177  11.333   9.631   9.402 -1.5965  0.2193 -1.1061
  509MOL0     H70178  11.313   9.617   9.220 -0.3940  1.9031 -2.7571
  509MOL0     H70179  11.507   9.728   9.172 -0.6805  0.1510 -0.3666
  509MOL0     H70180  11.487   9.844   9.306  1.9251  0.2047  3.3032
  509MOL0     H70181  11.565   9.664   9.469  0.6319  1.5178  1.2963
  509MOL0     H70182  11.598   9.562   9.323 -1.5262  0.1790  1.2002
  509MOL0     H70183  11.750   9.809   9.400  2.4406 -0.0399  0.9269
  509MOL0     H70184  11.743   9.736   9.237 -1.5034 -1.4418 -0.7757
  509MOL0     H70185  11.854   9.612   9.485  0.8093  0.4841 -0.6224
  509MOL0     H70186  11.812   9.505   9.352  1.6553 -0.1186  1.3065
  509MOL0     H70187  11.950   9.668   9.210 -1.8621 -2.0882  0.8750
  509MOL0     H70188  12.042   9.550   9.316 -0.3848 -0.2804  0.5910
  509MOL0     H70189  11.985   9.830   9.402 -0.0108  0.7812  0.4628
  509MOL0     H70190  12.083   9.709   9.476 -0.0136 -0.6593  0.0406
  509MOL0     H70191  12.300   9.615   9.289  1.9821 -0.2765 -2.1956
  509MOL0     H70192  12.542   9.742   9.135  0.4447 -1.1993 -0.0069
  509MOL0     H70193  12.467   9.821   8.995 -1.3993  1.5798  0.6602
  509MOL0     H70194  12.500   9.527   9.039  0.7641  1.2697  0.1543
  509MOL0     H70195  12.338   9.580   8.978 -0.1203 -0.2047 -2.8635
  509MOL0     H70196  12.435   9.704   8.803 -0.2983 -0.7363  0.2433
  509MOL0     H70197  12.598   9.685   8.858 -0.4236  0.1431  0.4281
  509MOL0     H70198  12.573   9.433   8.825 -0.2511  0.2385  1.6780
  509MOL0     H70199  12.405   9.459   8.775 -1.2110  0.4173 -0.3146
  509MOL0     H70200  12.716   9.325   8.591  0.8674  0.6670 -0.2194
  509MOL0     H70201  13.072   9.323   8.607 -0.6627  0.1057  0.4059
  509MOL0     H70202  12.994   9.303   8.451  1.8240  3.4533  0.2888
  509MOL0     H70203  12.921   9.234   8.596  2.5649 -4.0623 -2.7982
  509MOL0     H70204  13.293   9.928   8.590 -0.3717 -1.1783  0.2407
  509MOL0     H70205  13.460  10.030   8.444  0.8987 -0.6325 -1.0987
  509MOL0     H70206  13.623   9.818   8.203  1.1092  0.2199 -0.0270
  509MOL0     H70207  13.574   9.859   8.040 -1.7688 -1.3403  2.3102
  509MOL0     H70208  13.796   9.900   8.054 -3.4999 -3.0291  0.0596
  509MOL0     H70209  13.721  10.057   8.024  3.2748 -0.3033 -1.7194
  509MOL0     H70210  13.822   9.967   8.293  1.8131 -0.8278 -1.8787
  509MOL0     H70211  13.739  10.121   8.261 -0.7241 -2.2074  0.8177
  509MOL0     H70212  13.961  10.148   8.095  1.9074  1.9295  1.0320
  509MOL0     H70213  14.014  10.010   8.185 -0.4912  0.3662 -0.2993
  509MOL0     H70214  13.909  10.253   8.334 -1.6990 -1.7310  0.9870
  509MOL0     H70215  14.005  10.117   8.393 -1.9545 -0.8694 -1.2734
  509MOL0     H70216  14.209  10.192   8.306 -1.5722 -3.6393 -0.4150
  509MOL0     H70217  14.133  10.351   8.344  0.9300 -0.6520  0.2813
  509MOL0     H70218  14.153  10.242   8.085 -0.4190  0.3930 -0.3456
  509MOL0     H70219  14.231  10.389   8.145 -0.3928  1.9016 -0.5964
  509MOL0     H70220  14.024  10.491   8.189  1.8409 -0.2614  0.1020
  509MOL0     H70221  13.932  10.362   8.110 -0.7630 -0.1697  0.2637
  509MOL0     H70222  13.317   9.804   8.109 -1.6757  0.8490 -0.2593
  509MOL0     H70223  13.170   9.675   8.269  1.6892 -1.3126 -0.2188
  509MOL0     H70224  12.899   9.789   8.561  3.6247 -0.6006  4.5541
  509MOL0     H70225  12.670   9.749   8.639  1.2573 -0.6289  1.6419
  509MOL0     H70226  10.836   9.680   9.324  1.0850  0.1734 -0.0122
  509MOL0     H70227  10.635   9.809   9.264  0.8965 -0.6497  0.0139
  509MOL0     H70228  10.619  10.293   9.041 -0.2622 -0.8032 -0.5752
  509MOL0     H70229  10.499  10.499   8.996  0.7400  1.1803  3.0164
  509MOL0     H70230  10.378  10.665   9.018 -1.5328  0.3547  2.1665
  509MOL0     H70231  10.356  10.596   8.860  1.1577  0.9670  0.5753
  509MOL0     H70232  10.125  10.675   8.838  0.7247  0.7832 -0.9274
  509MOL0     H70233  10.245  10.804   8.827 -0.4683  0.1059  0.5310
  509MOL0     H70234  10.076  10.729   9.070  0.8019 -1.0300  0.1629
  509MOL0     H70235  10.213  10.846   9.083 -0.0189  0.9692 -0.7720
  509MOL0     H70236   9.984  10.957   9.048  1.1671  0.1746  1.1683
  509MOL0     H70237  10.007  10.902   8.871  2.1838 -1.7680  0.2021
  509MOL0     H70238  10.283  11.216   8.917  0.4115 -0.1096  1.2086
  509MOL0     H70239  10.143  10.310   9.099 -0.0156  0.1939  0.0873
  509MOL0     H70240  10.245  10.013   9.242  1.9314 -0.0827 -1.5032
  509MOL0     H70241  10.113  10.125   9.212  1.0199  2.6405  0.4163
  509MOL0     H70242  10.170  10.022   9.085  1.7545 -2.2148  1.8170
  510MOL0     O70243   3.217   7.562   1.254  0.6793  0.5114  0.9498
  510MOL0     C70244   3.150   7.643   1.193  0.0284  0.6288  0.4103
  510MOL0     O70245   3.189   7.699   1.074 -0.2226  0.7558 -0.7600
  510MOL0     C70246   3.309   7.663   1.024  0.7629  0.3185 -0.2778
  510MOL0     C70247   3.407   7.759   1.010 -0.3358  1.1025 -0.7060
  510MOL0     C70248   3.535   7.718   0.972 -0.6806  0.5136 -0.4071
  510MOL0     C70249   3.567   7.592   0.944  0.3744  0.0432  0.0211
  510MOL0     O70250   3.690   7.547   0.902  0.6418  1.3326 -0.3502
  510MOL0     C70251   3.802   7.626   0.875 -0.7723 -0.3873  0.2088
  510MOL0     C70252   3.906   7.543   0.807 -0.2606 -0.2411  1.1264
  510MOL0     C70253   4.038   7.612   0.787 -1.5111 -0.1023 -0.8043
  510MOL0     C70254   4.153   7.508   0.777 -0.2168  0.3207 -0.8267
  510MOL0     C70255   4.295   7.562   0.740 -0.2105  0.2288  0.4502
  510MOL0     C70256   4.415   7.456   0.756  0.1180 -0.9225  0.1085
  510MOL0     C70257   4.535   7.511   0.682 -0.1007  0.5080 -0.0372
  510MOL0     C70258   4.624   7.396   0.629 -0.1194  0.9608 -0.6951
  510MOL0     N70259   4.747   7.438   0.555  0.1086 -0.3051 -0.0630
  510MOL0     C70260   4.809   7.563   0.560  0.1783  0.6267 -0.2564
  510MOL0     C70261   4.921   7.550   0.495 -0.1832  0.2933  0.7363
  510MOL0     C70262   5.033   7.650   0.476  0.7733  0.4323 -0.3546
  510MOL0     C70263   5.159   7.589   0.528 -0.6385 -0.4558  0.2144
  510MOL0     C70264   5.281   7.677   0.514  0.8362  0.3357  0.9875
  510MOL0     C70265   5.407   7.616   0.575  0.2986 -0.3224 -0.0367
  510MOL0     O70266   5.375   7.581   0.704 -0.5620 -0.1588  0.0378
  510MOL0     C70267   5.477   7.538   0.786 -0.2378  0.2354 -0.2705
  510MOL0     C70268   5.457   7.523   0.930  0.5674  0.3479  0.5510
  510MOL0     C70269   5.553   7.453   1.009  0.3595 -0.3634 -0.0183
  510MOL0     C70270   5.510   7.424   1.145 -0.2551 -0.9736 -0.1243
  510MOL0     C70271   5.679   7.416   0.954  0.4265  0.4498 -0.4836
  510MOL0     C70272   5.783   7.360   1.046 -0.6429  0.7060  0.6687
  510MOL0     O70273   5.879   7.295   0.978 -0.4275  0.3900 -0.1336
  510MOL0     C70274   5.994   7.242   1.032  0.0981 -0.5673 -0.7177
  510MOL0     C70275   6.026   7.234   1.165 -0.4382 -0.0258 -0.2517
  510MOL0     C70276   6.147   7.174   1.216  0.8561  0.5572  0.2162
  510MOL0     C70277   6.244   7.127   1.119  0.9328 -0.9183 -0.2584
  510MOL0     O70278   6.369   7.068   1.128 -0.2868  0.0036  0.1621
  510MOL0     C70279   6.395   7.024   1.258  0.1895  0.0971 -0.4063
  510MOL0     C70280   6.549   6.989   1.280 -0.1161  0.3054  0.5218
  510MOL0     C70281   6.659   7.095   1.264 -0.0842 -0.0521 -0.0633
  510MOL0     C70282   6.633   7.214   1.169 -0.9081  0.3266  0.0986
  510MOL0     C70283   6.745   7.307   1.144  0.3669 -0.4972  0.2357
  510MOL0     C70284   6.690   7.405   1.034 -0.8463 -0.4684 -0.1545
  510MOL0     C70285   6.807   7.501   0.977  0.5469  0.5907  0.2922
  510MOL0     C70286   6.783   7.562   0.851  0.2129 -1.0072 -0.0667
  510MOL0    Cl70287   6.661   7.677   0.847 -0.0208  0.0162 -0.4016
  510MOL0     C70288   6.211   7.142   0.987  0.3272 -0.0175 -0.0461
  510MOL0     C70289   6.090   7.198   0.945  0.1209  0.2952  0.2131
  510MOL0     O70290   5.800   7.414   1.154  0.2674 -0.6681 -0.1461
  510MOL0     C70291   5.697   7.415   0.812  0.4995 -0.6400 -0.1674
  510MOL0     C70292   5.594   7.474   0.732  0.6339 -0.5885 -0.0913
  510MOL0     N70293   4.929   7.414   0.449  1.1576 -0.4021 -0.0796
  510MOL0     N70294   4.817   7.357   0.481 -0.2609  0.3281  0.4419
  510MOL0     C70295   3.462   7.493   0.956 -0.3781  0.1304  0.7671
  510MOL0     C70296   3.335   7.535   0.987  0.0072  0.3159 -0.7145
  510MOL0     C70297   3.022   7.693   1.248 -0.0875  0.0042 -0.2892
  510MOL0     C70298   2.980   7.832   1.228 -0.6060  0.4677 -0.0303
  510MOL0     C70299   2.845   7.869   1.238  0.7351 -0.9732  0.4737
  510MOL0     C70300   2.752   7.771   1.293  0.0398 -0.2828  0.2820
  510MOL0     O70301   2.618   7.805   1.298 -0.7133 -0.1459 -0.0584
  510MOL0     C70302   2.516   7.711   1.323 -0.5794 -0.5864  0.5389
  510MOL0     C70303   2.385   7.784   1.329  0.2870 -0.1100 -0.5840
  510MOL0     C70304   2.389   7.910   1.425  0.9699 -0.2486 -0.5885
  510MOL0     C70305   2.251   7.941   1.488 -0.8878  0.7007  0.5096
  510MOL0     C70306   2.221   7.858   1.607 -0.5222  0.3222 -0.7404
  510MOL0     C70307   2.206   7.786   1.703 -0.3725 -0.6827 -0.0753
  510MOL0     C70308   2.803   7.645   1.337  0.0300  1.0197 -1.5575
  510MOL0     C70309   2.935   7.606   1.323 -0.3107  0.4540  0.3719
  510MOL0     C70310   2.970   7.464   1.371 -0.0701 -0.3482  0.3151
  510MOL0     H70311   3.390   7.862   1.042 -2.4224  0.0716  1.8295
  510MOL0     H70312   3.619   7.786   0.981  0.7374 -1.2913  0.6075
  510MOL0     H70313   3.836   7.669   0.970 -0.6527 -1.2542  0.5656
  510MOL0     H70314   3.779   7.711   0.810 -1.0975 -0.4207  0.2800
  510MOL0     H70315   3.915   7.450   0.864 -2.2195 -0.2893  1.4248
  510MOL0     H70316   3.865   7.516   0.710 -1.4389  3.2303  0.5441
  510MOL0     H70317   4.036   7.686   0.707  0.3854  1.3243  0.3823
  510MOL0     H70318   4.059   7.675   0.874 -2.1032  1.1963 -1.5805
  510MOL0     H70319   4.161   7.452   0.870 -2.4431  0.5943 -0.4121
  510MOL0     H70320   4.133   7.441   0.693 -1.6093  1.5544 -1.5199
  510MOL0     H70321   4.315   7.647   0.805 -0.8187 -0.1449  1.1425
  510MOL0     H70322   4.290   7.600   0.638 -1.0048 -0.3193  0.2811
  510MOL0     H70323   4.438   7.441   0.863  1.9434 -1.0269 -0.2524
  510MOL0     H70324   4.388   7.364   0.704  1.0469 -1.4468  0.5213
  510MOL0     H70325   4.589   7.579   0.749 -1.6181  0.1560  1.6469
  510MOL0     H70326   4.502   7.560   0.590  3.6488  1.3603 -1.0766
  510MOL0     H70327   4.662   7.337   0.712  0.0879  2.5883  0.4262
  510MOL0     H70328   4.565   7.326   0.570  0.6197  0.0720 -0.4009
  510MOL0     H70329   4.783   7.650   0.620  1.1010  0.4444  0.4283
  510MOL0     H70330   5.011   7.734   0.543 -1.2870 -1.9484  2.1530
  510MOL0     H70331   5.032   7.681   0.371 -1.7403 -0.5717 -0.6877
  510MOL0     H70332   5.140   7.561   0.632  2.2782  2.1691  1.5943
  510MOL0     H70333   5.175   7.496   0.473  1.6545 -0.4932  0.8590
  510MOL0     H70334   5.287   7.695   0.407 -1.6170 -4.1502 -0.1722
  510MOL0     H70335   5.262   7.770   0.568 -2.2630 -0.3219  1.2183
  510MOL0     H70336   5.431   7.526   0.517  0.9663 -1.4080  1.7950
  510MOL0     H70337   5.491   7.684   0.560 -0.0227 -0.1781 -1.2801
  510MOL0     H70338   5.363   7.562   0.969 -0.1471 -1.2424  0.5280
  510MOL0     H70339   5.549   7.329   1.181  2.2909  0.9448  2.6764
  510MOL0     H70340   5.404   7.418   1.171 -0.0034  0.1807  1.3117
  510MOL0     H70341   5.547   7.503   1.211  1.0641 -1.7085  0.0555
  510MOL0     H70342   5.958   7.267   1.242 -2.0682 -3.5287  0.0189
  510MOL0     H70343   6.155   7.177   1.324 -0.0300  2.0337  0.2776
  510MOL0     H70344   6.378   7.098   1.337 -1.9204 -0.4206 -0.3025
  510MOL0     H70345   6.338   6.932   1.277  0.5889 -0.1357 -0.3115
  510MOL0     H70346   6.571   6.955   1.382  0.5257 -3.3354 -0.6776
  510MOL0     H70347   6.580   6.910   1.211  0.5673  1.2740 -0.3009
  510MOL0     H70348   6.752   7.051   1.229 -0.3150 -0.3080 -0.3587
  510MOL0     H70349   6.684   7.139   1.361 -2.0864  0.8142  0.1256
  510MOL0     H70350   6.550   7.269   1.215 -1.0827 -0.3754  0.6312
  510MOL0     H70351   6.598   7.171   1.075  1.4451  1.1019 -1.2364
  510MOL0     H70352   6.760   7.369   1.233  1.2681  0.7272 -0.7356
  510MOL0     H70353   6.836   7.252   1.119  2.5408  2.1492  1.7771
  510MOL0     H70354   6.613   7.466   1.082  0.5032 -0.5391  2.2392
  510MOL0     H70355   6.642   7.347   0.955  1.5434 -0.7045 -1.5201
  510MOL0     H70356   6.886   7.426   0.964 -0.6351 -1.1649  2.5058
  510MOL0     H70357   6.842   7.584   1.039  0.9751  0.2601  0.5022
  510MOL0     H70358   6.777   7.494   0.766 -0.5527  0.9052 -1.6006
  510MOL0     H70359   6.877   7.613   0.829  0.8600 -2.8511 -1.8056
  510MOL0     H70360   6.274   7.102   0.909 -1.4127 -1.9184 -0.5650
  510MOL0     H70361   6.079   7.217   0.839 -0.2301  2.8028  0.6230
  510MOL0     H70362   5.789   7.373   0.772  0.2087 -1.9673  0.5090
  510MOL0     H70363   5.606   7.482   0.625 -2.4654  0.6600 -0.4374
  510MOL0     H70364   3.492   7.389   0.944 -1.4057  0.0038 -0.9063
  510MOL0     H70365   3.258   7.460   1.002  0.7684 -0.6528 -1.5070
  510MOL0     H70366   3.050   7.907   1.193 -2.0015  2.2148  0.7390
  510MOL0     H70367   2.811   7.969   1.215 -2.2730 -1.1320  3.5652
  510MOL0     H70368   2.518   7.633   1.246 -1.3331  1.6152 -1.8526
  510MOL0     H70369   2.528   7.666   1.422 -0.4880  1.6620  1.5975
  510MOL0     H70370   2.315   7.709   1.367 -2.0293  1.7640 -0.9504
  510MOL0     H70371   2.356   7.813   1.227 -1.1080 -0.5293 -0.3339
  510MOL0     H70372   2.467   7.890   1.499  0.2365  1.5089  0.7582
  510MOL0     H70373   2.416   8.002   1.372  0.6322  0.5378  0.5513
  510MOL0     H70374   2.177   7.915   1.411  1.2764  1.3760 -1.9319
  510MOL0     H70375   2.249   8.050   1.495  1.7149  0.8961 -0.6579
  510MOL0     H70376   2.200   7.724   1.790 -6.0182 -2.3639 -1.2327
  510MOL0     H70377   2.746   7.576   1.398  4.6851 -1.6774  0.2938
  510MOL0     H70378   2.892   7.441   1.444 -0.3107  1.5841  0.7189
  510MOL0     H70379   2.962   7.394   1.287 -0.6093 -0.5149  0.4995
  510MOL0     H70380   3.066   7.456   1.422 -0.1413  1.5770  0.7969
  511MOL0     O70381   2.942   2.434   7.874 -0.2191  0.5134  0.0059
  511MOL0     C70382   2.919   2.388   7.987  0.1005 -0.3708  0.3143
  511MOL0     O70383   2.935   2.259   8.021  0.0905  0.2886  0.4864
  511MOL0     C70384   2.922   2.163   7.918  0.2711 -0.1432  0.5837
  511MOL0     C70385   3.038   2.106   7.871  0.1936 -0.0256  0.2648
  511MOL0     C70386   3.031   2.019   7.764 -0.0885 -0.7272 -0.4574
  511MOL0     C70387   2.910   1.972   7.711 -0.5900  0.4971 -0.2796
  511MOL0     O70388   2.917   1.870   7.618  0.0684 -0.2926  0.1132
  511MOL0     C70389   2.790   1.806   7.590  0.2303  0.4699  0.0018
  511MOL0     C70390   2.713   1.872   7.467  0.4373  0.3805 -0.5732
  511MOL0     C70391   2.796   1.909   7.360 -0.0795 -0.2845 -0.5593
  511MOL0     C70392   2.832   2.063   7.359  0.4634 -0.3002 -0.1271
  511MOL0     C70393   2.903   2.094   7.230 -0.7071  0.3236 -0.7934
  511MOL0     C70394   3.019   2.197   7.245  0.0171 -0.2944 -0.0558
  511MOL0     C70395   2.961   2.344   7.246 -0.0402  0.1275 -0.1615
  511MOL0     C70396   3.067   2.449   7.249  0.0869  0.3472 -0.5703
  511MOL0     N70397   3.162   2.428   7.360  0.1954 -0.4719 -0.0288
  511MOL0     C70398   3.133   2.402   7.493  0.3102  0.2577 -0.4825
  511MOL0     C70399   3.255   2.371   7.551 -0.3352 -0.2266 -0.0536
  511MOL0     C70400   3.257   2.331   7.699  0.1772  0.3098 -0.6066
  511MOL0     C70401   3.337   2.434   7.784 -0.7884 -0.4577  0.5617
  511MOL0     C70402   3.339   2.395   7.940  0.1359 -0.6456 -0.4018
  511MOL0     C70403   3.441   2.286   7.963  0.5772  0.3238 -0.6221
  511MOL0     O70404   3.367   2.167   7.936 -0.3568  0.1026 -0.1474
  511MOL0     C70405   3.418   2.055   7.994  0.2615 -0.3111  0.3656
  511MOL0     C70406   3.347   1.937   8.023 -0.2046 -0.3460  0.2530
  511MOL0     C70407   3.404   1.826   8.079  0.2205  0.3504 -0.9704
  511MOL0     C70408   3.319   1.709   8.108  0.2309 -0.2487 -0.5718
  511MOL0     C70409   3.542   1.839   8.124 -0.5041  0.3662 -0.0232
  511MOL0     C70410   3.616   1.734   8.205  0.4707  0.8154  0.2083
  511MOL0     O70411   3.752   1.746   8.212 -0.0346  0.1267  0.5614
  511MOL0     C70412   3.816   1.651   8.300 -0.4006  0.7806  0.5782
  511MOL0     C70413   3.883   1.545   8.238 -1.2906 -0.8674  0.0968
  511MOL0     C70414   3.931   1.448   8.319  0.5995 -0.2818  0.7287
  511MOL0     C70415   3.923   1.461   8.462  0.4830 -0.3277  0.2636
  511MOL0     O70416   3.988   1.372   8.528 -0.0735  0.3872  0.2720
  511MOL0     C70417   4.012   1.394   8.663  0.2433 -0.0756  0.2933
  511MOL0     C70418   4.120   1.300   8.709 -0.6234  0.0806 -0.3899
  511MOL0     C70419   4.254   1.298   8.623  0.0132 -0.3586 -0.2630
  511MOL0     C70420   4.368   1.229   8.703  0.5046  0.0436 -0.1593
  511MOL0     C70421   4.334   1.084   8.728 -0.3103 -0.2147  0.6843
  511MOL0     C70422   4.442   1.017   8.805 -0.3847 -0.1749 -0.1876
  511MOL0     C70423   4.421   0.864   8.836  0.0323 -0.1399  0.9465
  511MOL0     C70424   4.524   0.825   8.944  0.0831  0.3000  0.7238
  511MOL0    Cl70425   4.509   0.922   9.084  0.0897  0.3129  0.2955
  511MOL0     C70426   3.852   1.570   8.515  0.8023  0.1964 -0.5208
  511MOL0     C70427   3.804   1.665   8.435  0.1211 -0.9816 -0.1364
  511MOL0     O70428   3.552   1.655   8.271 -0.1298 -0.3978  0.0622
  511MOL0     C70429   3.610   1.957   8.097 -0.0509 -0.4477  0.8100
  511MOL0     C70430   3.551   2.060   8.034  0.4801 -0.1722  0.1721
  511MOL0     N70431   3.355   2.388   7.449  0.0056 -0.2117  0.6465
  511MOL0     N70432   3.292   2.417   7.338 -0.3420  0.2201  0.1599
  511MOL0     C70433   2.793   2.018   7.773 -0.4411  0.4991  0.4600
  511MOL0     C70434   2.799   2.119   7.867  0.9887 -0.0435 -0.4251
  511MOL0     C70435   2.851   2.473   8.092  0.5693 -0.0600 -0.0486
  511MOL0     C70436   2.782   2.410   8.197  0.4052  0.4082 -0.5274
  511MOL0     C70437   2.721   2.490   8.296 -0.0663  0.9334  0.5313
  511MOL0     C70438   2.693   2.622   8.267 -0.4515  0.3186  0.6528
  511MOL0     O70439   2.612   2.710   8.344  0.0610 -0.2790 -0.0621
  511MOL0     C70440   2.566   2.655   8.470 -0.2979  0.5048 -0.7036
  511MOL0     C70441   2.486   2.758   8.537  0.4573  0.6909 -0.4214
  511MOL0     C70442   2.449   2.712   8.676 -0.9443 -0.1582  0.3811
  511MOL0     C70443   2.399   2.814   8.773 -0.1156  0.3540  0.1202
  511MOL0     C70444   2.350   2.763   8.906  0.1723  0.7898  0.8476
  511MOL0     C70445   2.302   2.724   9.007  0.5544  0.8916 -0.0654
  511MOL0     C70446   2.757   2.684   8.163 -1.0776 -0.5398 -1.0550
  511MOL0     C70447   2.831   2.616   8.073  0.1737 -0.1246 -0.0921
  511MOL0     C70448   2.876   2.693   7.958 -0.5626 -0.1528  0.4525
  511MOL0     H70449   3.135   2.134   7.911  1.2386 -1.4211 -1.1450
  511MOL0     H70450   3.126   1.986   7.724  1.3777  2.3330  0.2254
  511MOL0     H70451   2.738   1.795   7.685 -0.8217  0.5103 -0.5582
  511MOL0     H70452   2.812   1.705   7.554 -0.9875 -0.3506  1.4424
  511MOL0     H70453   2.630   1.809   7.433 -1.7790  2.1399  1.2633
  511MOL0     H70454   2.656   1.961   7.495 -0.7192 -0.0853 -1.3896
  511MOL0     H70455   2.883   1.844   7.349 -0.2263 -0.5059 -0.4220
  511MOL0     H70456   2.742   1.889   7.267  2.8198  1.4454 -2.7864
  511MOL0     H70457   2.740   2.121   7.373  0.1409 -1.3444  2.5803
  511MOL0     H70458   2.888   2.089   7.450 -3.0921  1.6336  1.7354
  511MOL0     H70459   2.824   2.128   7.163 -1.0835  2.2212  0.5180
  511MOL0     H70460   2.952   2.004   7.193  2.2847  1.8584 -0.8374
  511MOL0     H70461   3.082   2.180   7.333  0.6800 -0.1782 -0.5015
  511MOL0     H70462   3.078   2.182   7.155  3.1242  3.3410  1.1165
  511MOL0     H70463   2.900   2.348   7.337  0.6829 -0.4508  0.3655
  511MOL0     H70464   2.897   2.362   7.160  0.9508 -1.4808 -1.2771
  511MOL0     H70465   3.128   2.436   7.159  0.5483 -0.4905 -0.1515
  511MOL0     H70466   3.030   2.551   7.258 -2.1734 -0.5254  0.9926
  511MOL0     H70467   3.037   2.397   7.544  1.2646 -2.1676  1.2367
  511MOL0     H70468   3.292   2.228   7.708 -0.6347  0.1009  0.3693
  511MOL0     H70469   3.155   2.323   7.738  0.8400  0.4552  1.2376
  511MOL0     H70470   3.438   2.452   7.748 -1.4106  1.4543 -0.3614
  511MOL0     H70471   3.279   2.525   7.766 -0.2903 -0.8776 -4.9206
  511MOL0     H70472   3.382   2.480   7.995  2.3165 -2.3113  0.6173
  511MOL0     H70473   3.240   2.373   7.981  1.7265 -3.7990  2.1893
  511MOL0     H70474   3.520   2.294   7.888  0.2988 -1.7725 -1.1934
  511MOL0     H70475   3.482   2.291   8.064 -0.5648 -1.2403 -0.0366
  511MOL0     H70476   3.239   1.933   8.007  0.1573 -2.2183 -2.2144
  511MOL0     H70477   3.376   1.619   8.083  2.2583  1.1042 -1.1200
  511MOL0     H70478   3.226   1.716   8.053  1.8913  0.0130 -3.5442
  511MOL0     H70479   3.301   1.710   8.216  1.2518 -0.0839 -0.3933
  511MOL0     H70480   3.896   1.530   8.131 -1.7083 -0.0050 -0.0899
  511MOL0     H70481   3.996   1.374   8.274 -0.0062  0.0965 -0.8358
  511MOL0     H70482   4.053   1.494   8.680  2.0958 -0.5149 -1.2589
  511MOL0     H70483   3.925   1.384   8.729  1.1754 -0.5018  1.4955
  511MOL0     H70484   4.154   1.320   8.811  1.0630 -0.3291 -0.8321
  511MOL0     H70485   4.076   1.200   8.707 -2.1454  0.7365 -1.5826
  511MOL0     H70486   4.287   1.399   8.601 -2.2753  0.1456 -1.7050
  511MOL0     H70487   4.227   1.248   8.529 -2.4975 -0.8132  0.6122
  511MOL0     H70488   4.386   1.283   8.797 -1.9004 -3.0283  2.2551
  511MOL0     H70489   4.457   1.232   8.640 -0.0050  0.0316 -0.8913
  511MOL0     H70490   4.238   1.087   8.780 -1.6022 -0.0298 -1.5742
  511MOL0     H70491   4.319   1.028   8.635  1.9268 -0.0546  0.1714
  511MOL0     H70492   4.460   1.069   8.900  2.5472 -0.4134 -0.5478
  511MOL0     H70493   4.528   1.032   8.739  0.7490 -3.1484  0.4737
  511MOL0     H70494   4.433   0.805   8.744  0.1523  1.5629 -0.1837
  511MOL0     H70495   4.320   0.855   8.876 -0.3326 -1.1146 -0.1389
  511MOL0     H70496   4.623   0.834   8.898 -0.7172  0.6162 -0.9866
  511MOL0     H70497   4.493   0.722   8.965  1.4169  0.1326  2.0518
  511MOL0     H70498   3.834   1.597   8.619 -4.0663  1.9462 -1.5938
  511MOL0     H70499   3.747   1.749   8.475  1.0256 -0.3259 -0.1793
  511MOL0     H70500   3.714   1.967   8.124 -0.2042  1.6204  0.8385
  511MOL0     H70501   3.615   2.144   8.012  3.4405 -2.0007  1.1323
  511MOL0     H70502   2.694   1.989   7.739  0.1312  0.2096 -1.0456
  511MOL0     H70503   2.706   2.163   7.903  0.0558 -1.6696 -0.7072
  511MOL0     H70504   2.784   2.302   8.203  0.1791  0.0935 -4.1036
  511MOL0     H70505   2.670   2.449   8.382 -1.3155  0.0248 -0.6190
  511MOL0     H70506   2.509   2.566   8.443  1.7630 -0.2589 -2.9373
  511MOL0     H70507   2.655   2.625   8.525 -1.4927 -4.2926 -0.9375
  511MOL0     H70508   2.395   2.775   8.478  0.3481  0.2465 -0.3826
  511MOL0     H70509   2.541   2.853   8.542  1.1883  0.4125 -2.2544
  511MOL0     H70510   2.376   2.631   8.665 -1.4139  0.2640  0.3750
  511MOL0     H70511   2.540   2.665   8.714  0.3321  3.0547  1.6280
  511MOL0     H70512   2.324   2.879   8.727 -2.5346 -1.8927  0.6621
  511MOL0     H70513   2.487   2.878   8.790 -0.7784  1.3628 -0.1256
  511MOL0     H70514   2.259   2.709   9.105  0.5401  2.5116  0.2112
  511MOL0     H70515   2.747   2.790   8.141  1.9130 -0.0304 -0.4351
  511MOL0     H70516   2.836   2.644   7.869 -2.5475 -1.3227  1.9071
  511MOL0     H70517   2.850   2.799   7.953  0.8611  0.2680  1.2414
  511MOL0     H70518   2.985   2.685   7.946 -0.6969 -2.2639  0.3602
  512MOL0     O70519   3.396   7.238   3.353  0.1806  0.4294  0.0520
  512MOL0     C70520   3.370   7.350   3.394  0.2127  0.9879  0.1493
  512MOL0     O70521   3.460   7.436   3.436  0.9480 -0.6041  0.0617
  512MOL0     C70522   3.592   7.429   3.406 -0.0751 -0.5404 -0.2250
  512MOL0     C70523   3.688   7.432   3.508 -0.5601 -0.0100 -0.2834
  512MOL0     C70524   3.816   7.437   3.467 -0.2134  0.4227 -0.4987
  512MOL0     C70525   3.856   7.441   3.330 -0.2668  0.3673  0.4598
  512MOL0     O70526   3.985   7.450   3.292 -0.5328 -1.1193 -0.3977
  512MOL0     C70527   4.077   7.527   3.367  0.1970  0.2157  0.2885
  512MOL0     C70528   4.211   7.536   3.289 -0.2701 -0.1484  0.6235
  512MOL0     C70529   4.280   7.400   3.255  0.0047 -0.1219  0.4347
  512MOL0     C70530   4.286   7.301   3.378  0.7092  0.1416  0.6384
  512MOL0     C70531   4.410   7.206   3.359 -0.4346  0.7144  0.2455
  512MOL0     C70532   4.529   7.269   3.432 -0.1327  0.1091 -0.0752
  512MOL0     C70533   4.655   7.180   3.408 -0.5314  0.1732  0.3773
  512MOL0     C70534   4.767   7.238   3.499 -0.0561 -0.0561 -0.0278
  512MOL0     N70535   4.903   7.196   3.468  0.7368 -0.6131  0.3717
  512MOL0     C70536   5.021   7.238   3.531 -0.6025 -0.7084  0.2641
  512MOL0     C70537   5.124   7.183   3.460 -0.1075 -0.5882  0.6049
  512MOL0     C70538   5.269   7.207   3.481 -0.3719  0.2540  0.0508
  512MOL0     C70539   5.322   7.312   3.394  0.1868 -0.5005  0.0597
  512MOL0     C70540   5.459   7.357   3.443  0.1347 -0.4954 -0.2196
  512MOL0     C70541   5.538   7.419   3.327 -0.5874 -0.0357 -0.2930
  512MOL0     O70542   5.587   7.309   3.253  0.0833 -0.4422  0.2048
  512MOL0     C70543   5.715   7.272   3.248  0.5751 -0.1689 -0.4618
  512MOL0     C70544   5.801   7.332   3.160 -0.1568  0.2064  0.2824
  512MOL0     C70545   5.930   7.282   3.141  0.2722 -0.0561 -0.3944
  512MOL0     C70546   6.025   7.372   3.065  0.1965  0.0871 -0.0361
  512MOL0     C70547   5.964   7.154   3.192  0.0302  0.0668 -0.3713
  512MOL0     C70548   6.099   7.088   3.163 -0.8970 -0.9811 -0.2355
  512MOL0     O70549   6.134   6.976   3.225  0.1270  0.7445 -0.2284
  512MOL0     C70550   6.234   6.895   3.171 -1.0285 -1.1951  0.3691
  512MOL0     C70551   6.367   6.931   3.154  1.1338  0.2972 -0.2407
  512MOL0     C70552   6.463   6.844   3.107 -0.6194 -0.6437  0.0400
  512MOL0     C70553   6.428   6.724   3.052  0.1442 -0.1019  0.8434
  512MOL0     O70554   6.523   6.672   2.967 -0.4376 -0.0225  0.1397
  512MOL0     C70555   6.505   6.539   2.927 -0.3945  1.2876  0.3132
  512MOL0     C70556   6.640   6.466   2.882 -0.3296 -0.1539 -0.3731
  512MOL0     C70557   6.745   6.432   2.989 -0.3939  0.2625  0.4159
  512MOL0     C70558   6.775   6.532   3.101  0.2976 -0.4489 -0.2645
  512MOL0     C70559   6.866   6.478   3.212  0.5679 -0.1884  0.0457
  512MOL0     C70560   7.006   6.440   3.161 -0.0527 -0.8001  0.6648
  512MOL0     C70561   7.089   6.357   3.262 -0.2768  0.3574 -0.4446
  512MOL0     C70562   7.236   6.330   3.207  0.3876 -0.0518  0.4343
  512MOL0    Cl70563   7.322   6.218   3.319  0.0317  0.3248 -0.0093
  512MOL0     C70564   6.292   6.687   3.056  0.0077 -0.5334 -0.2021
  512MOL0     C70565   6.197   6.772   3.117 -0.0328 -0.0013  0.8857
  512MOL0     O70566   6.162   7.120   3.062  0.0225 -0.6417 -0.5722
  512MOL0     C70567   5.868   7.085   3.271 -1.1334  0.3849 -0.5937
  512MOL0     C70568   5.742   7.141   3.299 -0.7794  0.0307 -0.4894
  512MOL0     N70569   5.064   7.110   3.357  0.4448  0.2128 -0.1487
  512MOL0     N70570   4.942   7.119   3.359  0.0028  0.8318  0.0173
  512MOL0     C70571   3.759   7.418   3.229 -0.0244  0.0902  0.0741
  512MOL0     C70572   3.621   7.421   3.269 -0.3156  0.1635 -0.1879
  512MOL0     C70573   3.234   7.377   3.417  0.1920 -1.1011  0.3679
  512MOL0     C70574   3.155   7.281   3.480 -0.5480  0.0126 -0.4644
  512MOL0     C70575   3.023   7.309   3.517  0.3566 -0.8716 -0.7555
  512MOL0     C70576   2.968   7.438   3.504  0.9581 -0.2090  0.6532
  512MOL0     O70577   2.845   7.464   3.564 -0.2800  0.6725  0.6041
  512MOL0     C70578   2.862   7.479   3.702 -0.4082 -0.2540  0.6172
  512MOL0     C70579   2.726   7.493   3.775  0.4525 -0.9447 -0.3204
  512MOL0     C70580   2.679   7.634   3.766 -0.2379 -1.1855  0.0695
  512MOL0     C70581   2.685   7.699   3.625  0.8099  0.1033  0.5279
  512MOL0     C70582   2.594   7.811   3.635 -0.4424  0.4766  0.1811
  512MOL0     C70583   2.522   7.905   3.643  0.2428 -0.1040  0.1743
  512MOL0     C70584   3.048   7.540   3.444 -0.2231  0.3184  1.2737
  512MOL0     C70585   3.179   7.508   3.392 -0.2177 -0.4263 -0.7996
  512MOL0     C70586   3.255   7.632   3.334  0.0757  1.1931 -0.0797
  512MOL0     H70587   3.666   7.428   3.614  2.5185  3.0297  0.6568
  512MOL0     H70588   3.885   7.461   3.547  0.1794 -0.2575 -0.6347
  512MOL0     H70589   4.102   7.476   3.461  1.2311  2.8097  1.5115
  512MOL0     H70590   4.041   7.629   3.378  0.0810  0.2014  0.0417
  512MOL0     H70591   4.195   7.586   3.194 -1.9117 -1.2378  0.2774
  512MOL0     H70592   4.276   7.590   3.358 -1.0312 -2.4463  3.3481
  512MOL0     H70593   4.226   7.355   3.171  1.3617 -0.1698 -0.4467
  512MOL0     H70594   4.375   7.429   3.208 -0.5531  2.1357  0.6052
  512MOL0     H70595   4.304   7.362   3.467  1.1410  1.6411 -0.4262
  512MOL0     H70596   4.190   7.250   3.376  1.7714 -2.2913 -4.6259
  512MOL0     H70597   4.439   7.204   3.254  2.3068  0.5494  0.9270
  512MOL0     H70598   4.378   7.111   3.403 -0.0370  0.5742  0.2334
  512MOL0     H70599   4.552   7.367   3.390 -3.0452  0.3031 -1.4314
  512MOL0     H70600   4.519   7.286   3.540  1.3935  0.4283  0.0359
  512MOL0     H70601   4.674   7.189   3.301 -3.4351 -1.4134 -0.3625
  512MOL0     H70602   4.649   7.072   3.422  1.2647  0.2021  1.7032
  512MOL0     H70603   4.761   7.347   3.488 -2.7340 -0.3447 -3.0924
  512MOL0     H70604   4.741   7.204   3.599  0.1728 -1.9361 -0.5741
  512MOL0     H70605   5.041   7.306   3.614  1.4138  0.2666 -0.9378
  512MOL0     H70606   5.323   7.115   3.457  1.6285  1.5146 -0.5560
  512MOL0     H70607   5.284   7.227   3.588 -1.8495  0.1084  0.3094
  512MOL0     H70608   5.323   7.272   3.293  0.4650 -0.1691 -0.0728
  512MOL0     H70609   5.242   7.386   3.406 -0.8559 -1.6603  0.4729
  512MOL0     H70610   5.456   7.435   3.519  2.6691 -0.8031  0.2860
  512MOL0     H70611   5.516   7.268   3.471 -1.9550 -1.6175  0.7023
  512MOL0     H70612   5.491   7.496   3.266  0.9713  0.6131 -0.7199
  512MOL0     H70613   5.623   7.472   3.371 -1.4408  0.5663  0.6737
  512MOL0     H70614   5.772   7.423   3.107  2.0882  0.0789 -1.3316
  512MOL0     H70615   6.050   7.329   2.967  1.3068 -0.4823  0.4894
  512MOL0     H70616   6.114   7.387   3.126 -0.4940  0.9255  0.8082
  512MOL0     H70617   5.995   7.476   3.049  3.4960  1.2644  0.7965
  512MOL0     H70618   6.388   7.029   3.194 -1.7067  0.7218  0.4240
  512MOL0     H70619   6.568   6.871   3.104 -1.0762  1.2825  0.1787
  512MOL0     H70620   6.471   6.466   3.000  2.4418 -3.1158 -2.3302
  512MOL0     H70621   6.433   6.541   2.844 -1.5739  0.7137  1.2963
  512MOL0     H70622   6.616   6.367   2.842  1.8915  0.1072 -2.5006
  512MOL0     H70623   6.688   6.533   2.810  2.1128 -0.5826  0.7686
  512MOL0     H70624   6.838   6.402   2.939 -0.8242 -1.1997  0.4584
  512MOL0     H70625   6.691   6.355   3.044 -0.8401  1.0109  1.0567
  512MOL0     H70626   6.679   6.560   3.144  0.2513 -0.0970 -0.5877
  512MOL0     H70627   6.823   6.616   3.049 -0.4778 -0.5783 -1.2264
  512MOL0     H70628   6.876   6.561   3.282 -1.4009 -0.3989  0.6132
  512MOL0     H70629   6.832   6.384   3.257  0.3755 -0.9933 -1.6748
  512MOL0     H70630   7.052   6.539   3.153  0.3052 -0.9899  0.3492
  512MOL0     H70631   6.994   6.393   3.063 -1.8327  0.2388  0.3548
  512MOL0     H70632   7.040   6.260   3.276  0.4459  0.0940  0.3596
  512MOL0     H70633   7.102   6.405   3.359 -1.5302 -1.4561  0.6692
  512MOL0     H70634   7.289   6.422   3.181 -2.3738  1.9046  1.2176
  512MOL0     H70635   7.221   6.278   3.112 -2.4572  1.4026 -0.0115
  512MOL0     H70636   6.258   6.599   3.004  0.9266 -1.0536  0.0491
  512MOL0     H70637   6.099   6.725   3.123  1.2390 -3.5019 -1.6530
  512MOL0     H70638   5.897   6.986   3.306  0.9525  1.1952  0.1271
  512MOL0     H70639   5.669   7.091   3.363 -3.5897  1.5612 -2.2699
  512MOL0     H70640   3.789   7.417   3.125  3.7191  3.0835  0.8764
  512MOL0     H70641   3.542   7.408   3.196 -1.6169 -0.4998  1.2845
  512MOL0     H70642   3.187   7.181   3.507 -1.9033 -0.8657 -1.9125
  512MOL0     H70643   2.957   7.235   3.562 -1.1155  1.9269  2.0960
  512MOL0     H70644   2.911   7.387   3.733  0.6598  0.0665 -0.0796
  512MOL0     H70645   2.937   7.554   3.729  0.7771 -0.8142 -0.9461
  512MOL0     H70646   2.744   7.473   3.881  1.0841 -0.7106 -0.3761
  512MOL0     H70647   2.658   7.413   3.743 -1.3593  1.4209 -2.8757
  512MOL0     H70648   2.583   7.645   3.817  0.8608  0.8244  1.8958
  512MOL0     H70649   2.749   7.687   3.831 -0.2234  1.2231 -1.7601
  512MOL0     H70650   2.659   7.621   3.553  1.9603 -2.6375  2.8797
  512MOL0     H70651   2.784   7.739   3.602  1.0589  1.0600  2.9118
  512MOL0     H70652   2.452   7.986   3.653  3.6986  2.8905  3.6283
  512MOL0     H70653   3.003   7.639   3.444 -4.0396 -0.8692 -4.8975
  512MOL0     H70654   3.188   7.695   3.275  0.0654 -0.4492 -1.9253
  512MOL0     H70655   3.297   7.700   3.408 -0.6039  2.0146 -0.4312
  512MOL0     H70656   3.342   7.600   3.276 -0.8220 -0.6294 -0.4996
  513MOL0     O70657   5.361   5.992   5.685  0.3091  0.5230 -0.1850
  513MOL0     C70658   5.331   6.019   5.569  0.4429 -0.9623  0.3104
  513MOL0     O70659   5.403   6.098   5.487  0.1714 -0.4159  0.1381
  513MOL0     C70660   5.534   6.125   5.529 -0.1604  0.3222  0.1425
  513MOL0     C70661   5.646   6.057   5.473  1.0311 -0.5055 -0.5324
  513MOL0     C70662   5.778   6.098   5.509 -0.7276 -0.1319  0.6370
  513MOL0     C70663   5.800   6.209   5.585  0.7399 -0.1768  1.0518
  513MOL0     O70664   5.929   6.244   5.616 -0.3043 -0.9469  0.1670
  513MOL0     C70665   5.951   6.323   5.736  0.3662  0.3432  0.8558
  513MOL0     C70666   6.093   6.339   5.782 -0.1785  0.0305  0.8617
  513MOL0     C70667   6.135   6.230   5.879 -0.1737 -0.4330 -0.4197
  513MOL0     C70668   6.273   6.246   5.939 -0.7320 -0.9659 -0.4905
  513MOL0     C70669   6.382   6.272   5.838 -0.0164 -0.7798 -0.1612
  513MOL0     C70670   6.514   6.255   5.909 -0.6708  0.2711  0.5487
  513MOL0     C70671   6.620   6.253   5.799  0.5422 -0.3421 -0.6281
  513MOL0     C70672   6.748   6.211   5.866 -0.5965  0.4316  0.4352
  513MOL0     N70673   6.772   6.065   5.876  0.1415 -0.2542 -0.3724
  513MOL0     C70674   6.745   5.974   5.782 -0.0581 -0.0149  0.0068
  513MOL0     C70675   6.732   5.850   5.834  0.2443  0.5536  0.6849
  513MOL0     C70676   6.704   5.729   5.750  0.3236 -0.2438  0.2044
  513MOL0     C70677   6.549   5.708   5.734  0.7848 -0.0226 -0.2703
  513MOL0     C70678   6.512   5.596   5.643 -0.2769  0.0726  0.1300
  513MOL0     C70679   6.355   5.559   5.648 -0.3798 -0.6925  0.2278
  513MOL0     O70680   6.319   5.527   5.780 -0.5166 -0.5699  0.1662
  513MOL0     C70681   6.215   5.438   5.813 -0.8706 -0.4656 -0.1677
  513MOL0     C70682   6.097   5.418   5.737  0.0528  0.2408  0.0235
  513MOL0     C70683   6.003   5.322   5.776  0.2289 -0.3364  0.7094
  513MOL0     C70684   5.884   5.298   5.677  0.7281 -0.0642 -0.3758
  513MOL0     C70685   6.018   5.254   5.894  0.5211  0.4780 -0.8235
  513MOL0     C70686   5.926   5.155   5.947  0.0386 -0.0888 -0.2429
  513MOL0     O70687   5.924   5.130   6.083  0.4963  0.6277  0.6807
  513MOL0     C70688   5.866   5.007   6.115  0.1423 -0.3343 -0.0787
  513MOL0     C70689   5.735   5.005   6.151  0.6867 -0.2522 -0.2148
  513MOL0     C70690   5.670   4.885   6.187  0.1815 -0.8928 -0.6084
  513MOL0     C70691   5.744   4.771   6.206  0.5964  0.0249  0.4660
  513MOL0     O70692   5.675   4.656   6.238  0.4657 -0.4915 -0.8866
  513MOL0     C70693   5.728   4.584   6.349  0.1356  0.3617 -0.5744
  513MOL0     C70694   5.626   4.484   6.384  0.9861  0.3528  0.4680
  513MOL0     C70695   5.678   4.417   6.506 -0.4598 -0.0462 -0.3954
  513MOL0     C70696   5.589   4.307   6.552  0.1356 -0.1570  0.1073
  513MOL0     C70697   5.622   4.254   6.691 -0.7323 -0.2141  0.0445
  513MOL0     C70698   5.562   4.353   6.787 -0.7466 -0.5078  1.0242
  513MOL0     C70699   5.551   4.298   6.927  0.2116 -0.4411 -0.3957
  513MOL0     C70700   5.606   4.392   7.029 -0.5752  0.4410  0.0792
  513MOL0    Cl70701   5.550   4.554   7.001 -0.0543  0.2367  0.0242
  513MOL0     C70702   5.884   4.778   6.179 -0.2314  0.3264  0.5548
  513MOL0     C70703   5.941   4.890   6.130  0.1751 -0.2624  1.0110
  513MOL0     O70704   5.871   5.085   5.859 -0.6870 -0.0409 -0.6875
  513MOL0     C70705   6.127   5.285   5.977  0.0036 -1.8269  0.0454
  513MOL0     C70706   6.231   5.372   5.935 -0.3424 -0.8919 -0.3659
  513MOL0     N70707   6.758   5.856   5.969 -0.2088 -1.0380  0.9213
  513MOL0     N70708   6.774   5.988   5.989 -0.5011 -0.8300  0.0765
  513MOL0     C70709   5.688   6.281   5.620  0.0280  0.3427 -0.3700
  513MOL0     C70710   5.562   6.236   5.609  0.0605  0.5486 -0.8257
  513MOL0     C70711   5.197   5.977   5.520  0.3961  0.6435 -0.3747
  513MOL0     C70712   5.185   5.946   5.381 -0.6008 -0.7881  0.5017
  513MOL0     C70713   5.060   5.915   5.323  0.8498 -0.1002 -0.6593
  513MOL0     C70714   4.947   5.904   5.400  1.0128  0.1231 -0.5478
  513MOL0     O70715   4.834   5.863   5.340  0.9856 -0.1142 -0.2002
  513MOL0     C70716   4.704   5.876   5.407  0.3894 -0.3104 -0.1718
  513MOL0     C70717   4.653   5.749   5.463 -0.9145  0.4657 -0.5168
  513MOL0     C70718   4.697   5.732   5.612 -1.0714  0.1874  0.1952
  513MOL0     C70719   4.619   5.614   5.678 -0.3914 -0.6599 -0.4969
  513MOL0     C70720   4.661   5.598   5.819 -0.5264 -0.5465 -0.1780
  513MOL0     C70721   4.682   5.566   5.934 -0.0941 -0.3452  0.7069
  513MOL0     C70722   4.960   5.922   5.537 -0.6021 -0.2753  0.6010
  513MOL0     C70723   5.085   5.951   5.600 -0.7260 -0.4083  0.4367
  513MOL0     C70724   5.079   5.999   5.746  0.1815  0.7309 -0.2141
  513MOL0     H70725   5.615   5.973   5.412 -3.9431  0.2770  0.5094
  513MOL0     H70726   5.866   6.067   5.453 -2.0259 -0.4115 -1.3369
  513MOL0     H70727   5.893   6.287   5.822  0.7770  0.1151  1.0425
  513MOL0     H70728   5.912   6.424   5.725  1.0925  0.4107 -1.7431
  513MOL0     H70729   6.166   6.335   5.700  1.3804 -0.1204  2.1999
  513MOL0     H70730   6.107   6.440   5.822  1.3777  0.0950  0.2273
  513MOL0     H70731   6.064   6.220   5.961 -0.2649 -3.4874 -0.7672
  513MOL0     H70732   6.141   6.137   5.822 -1.9340 -1.0255  0.2971
  513MOL0     H70733   6.272   6.331   6.008  0.3024  0.3330 -1.9951
  513MOL0     H70734   6.296   6.155   5.996 -3.0982 -0.9394  0.6093
  513MOL0     H70735   6.375   6.368   5.785  1.7133  0.1519  1.1748
  513MOL0     H70736   6.380   6.191   5.764  2.8999 -2.9284  1.8862
  513MOL0     H70737   6.531   6.334   5.983  2.1362 -1.9466  2.5119
  513MOL0     H70738   6.507   6.154   5.953 -0.6219  0.2521  0.5129
  513MOL0     H70739   6.629   6.355   5.763  0.8611 -0.2459 -0.2882
  513MOL0     H70740   6.587   6.181   5.724 -3.2360 -0.5255  1.0250
  513MOL0     H70741   6.832   6.257   5.813  0.6338 -2.1522  0.0126
  513MOL0     H70742   6.749   6.263   5.963  0.9617  0.2054  0.5627
  513MOL0     H70743   6.724   5.987   5.676 -0.1572 -0.1580  0.0086
  513MOL0     H70744   6.747   5.636   5.789  2.3715  1.0488  1.2188
  513MOL0     H70745   6.734   5.747   5.647 -0.6532 -0.1140 -0.0704
  513MOL0     H70746   6.508   5.688   5.834 -1.3064  0.9928 -0.8592
  513MOL0     H70747   6.511   5.806   5.703  2.3802  0.3686 -1.0929
  513MOL0     H70748   6.526   5.626   5.539 -0.3210  1.2090  0.4375
  513MOL0     H70749   6.577   5.510   5.663 -0.9250  0.0771  2.5839
  513MOL0     H70750   6.306   5.648   5.608  2.5806  1.7027  1.5370
  513MOL0     H70751   6.347   5.484   5.569 -1.6795 -0.3804  0.0401
  513MOL0     H70752   6.086   5.469   5.642 -4.1389 -1.2208 -0.4695
  513MOL0     H70753   5.790   5.336   5.719  0.1862  2.0680 -3.1736
  513MOL0     H70754   5.864   5.195   5.646  0.9405  0.7753 -3.7015
  513MOL0     H70755   5.893   5.358   5.585 -0.7684 -0.5206 -0.8448
  513MOL0     H70756   5.686   5.101   6.139 -0.4186 -0.6471  1.0030
  513MOL0     H70757   5.564   4.885   6.207  0.4050  0.0721  0.7492
  513MOL0     H70758   5.823   4.536   6.324 -0.7607 -3.1840  2.1177
  513MOL0     H70759   5.737   4.646   6.438  2.7460 -0.1234 -0.4241
  513MOL0     H70760   5.525   4.520   6.404  0.0878 -1.3832 -0.6529
  513MOL0     H70761   5.619   4.418   6.297 -3.7886  1.4506 -0.2723
  513MOL0     H70762   5.694   4.488   6.588  1.0095 -1.9199  1.0328
  513MOL0     H70763   5.776   4.373   6.488  0.6424  2.3706 -0.7573
  513MOL0     H70764   5.582   4.225   6.480 -1.3978  1.5142 -1.7916
  513MOL0     H70765   5.492   4.357   6.551  0.5273  0.6209 -0.0358
  513MOL0     H70766   5.573   4.160   6.716  1.5855 -1.0001  1.9767
  513MOL0     H70767   5.730   4.240   6.695 -0.4940  0.3805 -2.7430
  513MOL0     H70768   5.460   4.381   6.759 -0.1698  1.1103  0.4118
  513MOL0     H70769   5.623   4.443   6.780 -0.5509 -0.6980  0.1586
  513MOL0     H70770   5.609   4.205   6.931  0.1835 -0.4287  0.5293
  513MOL0     H70771   5.449   4.275   6.957 -0.0726  0.1550 -0.8917
  513MOL0     H70772   5.715   4.387   7.024 -0.6342 -1.6652 -0.3611
  513MOL0     H70773   5.584   4.353   7.129 -0.7397  0.0646 -0.0993
  513MOL0     H70774   5.947   4.690   6.179  0.4640  0.8130  0.5317
  513MOL0     H70775   6.043   4.886   6.093  0.1198 -0.6582  0.9042
  513MOL0     H70776   6.141   5.235   6.073  1.6241  1.7594  1.8462
  513MOL0     H70777   6.320   5.395   5.993  0.5309 -2.1453 -1.1602
  513MOL0     H70778   5.696   6.380   5.664 -0.2162  1.4637 -2.6987
  513MOL0     H70779   5.474   6.287   5.648  0.0113 -0.8957  1.0799
  513MOL0     H70780   5.282   5.950   5.332 -0.2329 -0.9899  1.1987
  513MOL0     H70781   5.059   5.897   5.216 -1.7774  1.6213 -1.0433
  513MOL0     H70782   4.704   5.953   5.485 -3.7096 -0.3646  0.0908
  513MOL0     H70783   4.633   5.912   5.332 -0.6876  0.3409  1.1157
  513MOL0     H70784   4.693   5.673   5.396 -0.2087  0.9395 -0.6498
  513MOL0     H70785   4.544   5.745   5.458 -0.8236 -2.4406 -2.6974
  513MOL0     H70786   4.805   5.714   5.624 -0.9985  1.4215  1.5293
  513MOL0     H70787   4.679   5.825   5.665  0.2243 -0.6884  2.2978
  513MOL0     H70788   4.631   5.515   5.634 -0.1354 -0.6267 -0.5003
  513MOL0     H70789   4.512   5.638   5.679 -0.0600  1.1271  1.8093
  513MOL0     H70790   4.689   5.533   6.035 -0.3115 -1.9992  0.2091
  513MOL0     H70791   4.879   5.916   5.608  1.9842  0.6954  3.8550
  513MOL0     H70792   5.130   6.095   5.752 -1.4024  1.6227 -0.4585
  513MOL0     H70793   4.979   6.007   5.790 -0.2351 -2.4854 -0.2912
  513MOL0     H70794   5.125   5.923   5.810 -0.5956 -0.4693 -1.0247
  514MOL0     O70795   6.329   5.133   6.362 -0.1905  0.5389 -0.5855
  514MOL0     C70796   6.227   5.108   6.434  0.7049  0.7381  0.2838
  514MOL0     O70797   6.213   4.996   6.515  0.4805  0.1470  0.9534
  514MOL0     C70798   6.329   4.920   6.540 -0.3071 -0.3000  0.0875
  514MOL0     C70799   6.396   4.940   6.662 -0.7696 -0.1371  1.8694
  514MOL0     C70800   6.513   4.862   6.690  0.6857 -0.7621  0.3467
  514MOL0     C70801   6.552   4.758   6.604 -0.4945 -0.4295  0.4031
  514MOL0     O70802   6.672   4.694   6.621  0.2470  0.5654  0.1916
  514MOL0     C70803   6.779   4.785   6.601 -0.2331 -0.0077  0.4446
  514MOL0     C70804   6.907   4.714   6.590  0.1768  0.5992  0.7270
  514MOL0     C70805   6.944   4.607   6.696  0.6871  0.0926 -0.4387
  514MOL0     C70806   6.923   4.661   6.832 -0.1483 -0.3037 -0.3178
  514MOL0     C70807   6.961   4.557   6.929 -1.2581  0.4327  0.4363
  514MOL0     C70808   6.966   4.614   7.067  1.0432 -0.4734  1.2423
  514MOL0     C70809   7.053   4.524   7.158  0.3436  0.6981  0.4136
  514MOL0     C70810   7.178   4.609   7.197  0.4934 -0.8750 -0.2119
  514MOL0     N70811   7.272   4.524   7.274  0.0992 -0.2760 -0.5836
  514MOL0     C70812   7.396   4.475   7.232  0.3165  0.6309  0.4662
  514MOL0     C70813   7.443   4.403   7.338  0.1660  0.4612  0.0664
  514MOL0     C70814   7.580   4.357   7.342 -0.4880  0.5321 -0.1482
  514MOL0     C70815   7.613   4.238   7.259 -0.6328  0.7895  0.0399
  514MOL0     C70816   7.596   4.105   7.336  0.3524  0.3085  0.5745
  514MOL0     C70817   7.720   4.043   7.395 -0.5554 -0.5013  0.0250
  514MOL0     O70818   7.802   4.128   7.467 -0.3284 -0.4513  1.0420
  514MOL0     C70819   7.919   4.071   7.507 -0.0695 -0.1123  0.3121
  514MOL0     C70820   7.965   3.937   7.486  0.4249 -0.2861  0.3426
  514MOL0     C70821   8.091   3.893   7.527  0.7313  0.1604 -0.1737
  514MOL0     C70822   8.126   3.754   7.491  0.0944  0.2194  0.3214
  514MOL0     C70823   8.179   3.981   7.607 -0.0630  0.8520  0.1222
  514MOL0     C70824   8.312   3.951   7.649 -0.3812  0.1444 -0.4522
  514MOL0     O70825   8.382   4.041   7.733 -0.0085 -1.1594 -0.5428
  514MOL0     C70826   8.502   3.986   7.771 -0.1377  0.1859  0.7422
  514MOL0     C70827   8.538   3.924   7.894  0.5031 -0.6753  0.2529
  514MOL0     C70828   8.656   3.856   7.919 -0.6752  0.4311 -0.2616
  514MOL0     C70829   8.747   3.850   7.812 -0.0810  0.9567 -0.1852
  514MOL0     O70830   8.868   3.781   7.817  0.2973 -0.3846  0.0889
  514MOL0     C70831   8.945   3.829   7.932  0.2398  0.5180  0.8827
  514MOL0     C70832   9.100   3.819   7.897  0.0776 -0.5731 -0.3129
  514MOL0     C70833   9.202   3.840   8.016 -0.4778  0.5231 -0.3269
  514MOL0     C70834   9.280   3.975   8.020  1.2508 -0.1424  0.5056
  514MOL0     C70835   9.337   4.013   8.157  0.0787  0.2205 -0.1332
  514MOL0     C70836   9.464   3.931   8.194 -0.3320 -0.1077 -0.3930
  514MOL0     C70837   9.420   3.811   8.279  0.0802  0.9166 -0.6416
  514MOL0     C70838   9.521   3.698   8.283  0.0824  0.6847  0.3417
  514MOL0    Cl70839   9.487   3.584   8.150  0.0188  0.3558  0.0139
  514MOL0     C70840   8.727   3.920   7.694  0.0241  0.1322 -0.0917
  514MOL0     C70841   8.611   3.997   7.684 -0.1611  0.2711  0.2366
  514MOL0     O70842   8.355   3.848   7.603 -0.1280  0.7873 -0.5132
  514MOL0     C70843   8.137   4.114   7.615 -0.6099  0.1159  0.3068
  514MOL0     C70844   8.011   4.157   7.570  0.3888  0.0079  0.5605
  514MOL0     N70845   7.356   4.416   7.448 -0.2065 -0.7640 -0.1370
  514MOL0     N70846   7.262   4.505   7.407 -0.7767  0.0078  0.2718
  514MOL0     C70847   6.483   4.727   6.489  0.6170  0.3733  0.5040
  514MOL0     C70848   6.367   4.809   6.459  0.1249 -0.1809 -0.6889
  514MOL0     C70849   6.110   5.187   6.409 -0.5767  0.7906 -0.1903
  514MOL0     C70850   5.984   5.121   6.433 -0.0510 -0.9174 -0.3618
  514MOL0     C70851   5.869   5.187   6.416 -0.1546  0.4581  0.3528
  514MOL0     C70852   5.869   5.315   6.358  0.5238  0.2213 -0.3762
  514MOL0     O70853   5.741   5.361   6.331  0.3188  0.0774 -0.2978
  514MOL0     C70854   5.734   5.492   6.266  0.0148 -0.3390 -0.2493
  514MOL0     C70855   5.769   5.476   6.119  0.1153 -0.4458 -0.1267
  514MOL0     C70856   5.675   5.391   6.035 -0.1213  0.3768 -0.2036
  514MOL0     C70857   5.527   5.414   6.069  0.0224  0.1285 -0.3957
  514MOL0     C70858   5.480   5.300   6.152  0.2255  0.0329 -0.2345
  514MOL0     C70859   5.431   5.208   6.218 -0.2781 -0.1712 -0.2231
  514MOL0     C70860   5.989   5.384   6.336 -0.2197 -0.0557 -0.5690
  514MOL0     C70861   6.113   5.321   6.361  0.5345  0.2009  1.0453
  514MOL0     C70862   6.249   5.394   6.331 -0.3119  0.1842 -0.3335
  514MOL0     H70863   6.367   5.017   6.732 -2.5731 -1.4934  2.7078
  514MOL0     H70864   6.574   4.883   6.778  0.6614 -2.3502  0.7676
  514MOL0     H70865   6.786   4.859   6.682  2.9926  0.7192 -0.3383
  514MOL0     H70866   6.754   4.845   6.513  1.5730  1.7676  1.0738
  514MOL0     H70867   6.910   4.666   6.492  0.0022  2.3679 -0.1986
  514MOL0     H70868   6.987   4.788   6.579  0.9914 -0.3574  0.1769
  514MOL0     H70869   6.877   4.521   6.686  1.8212 -1.0982  1.4821
  514MOL0     H70870   7.049   4.575   6.690  0.0130 -2.5383  0.4371
  514MOL0     H70871   6.983   4.751   6.848 -0.3238 -0.3063  0.4017
  514MOL0     H70872   6.815   4.680   6.839  0.1834  1.2463  1.4066
  514MOL0     H70873   7.062   4.518   6.913 -1.7585 -0.3039 -1.0638
  514MOL0     H70874   6.906   4.464   6.917  0.3508 -0.5813  0.6333
  514MOL0     H70875   6.993   4.718   7.052 -3.0383  0.5741  0.0390
  514MOL0     H70876   6.861   4.620   7.097  1.1750  0.8588  1.4980
  514MOL0     H70877   7.076   4.426   7.115 -1.5843 -0.5867  2.1303
  514MOL0     H70878   6.997   4.501   7.249 -0.9300  0.7802 -0.3171
  514MOL0     H70879   7.228   4.650   7.108 -1.6496  3.8222  0.4166
  514MOL0     H70880   7.141   4.694   7.255  2.3619  1.3467 -2.0843
  514MOL0     H70881   7.450   4.498   7.140 -2.3284 -0.1064 -1.4017
  514MOL0     H70882   7.608   4.341   7.446 -4.5025 -2.3070  0.7199
  514MOL0     H70883   7.643   4.440   7.306 -3.3509  4.5351  3.0473
  514MOL0     H70884   7.561   4.235   7.163 -3.6302 -0.1155  1.5528
  514MOL0     H70885   7.718   4.246   7.230 -0.7960 -0.5871 -1.0367
  514MOL0     H70886   7.527   4.122   7.419 -1.2896  1.6035 -0.9779
  514MOL0     H70887   7.551   4.028   7.273 -1.2211  0.0266  1.9641
  514MOL0     H70888   7.700   3.958   7.461 -0.6403 -0.9758 -0.5957
  514MOL0     H70889   7.771   4.012   7.303  1.0736 -0.4038  0.8693
  514MOL0     H70890   7.900   3.877   7.421  0.4401  1.9875 -1.9203
  514MOL0     H70891   8.068   3.709   7.410  1.7262  1.6906 -1.8089
  514MOL0     H70892   8.109   3.697   7.583  2.4523  0.4857  0.9967
  514MOL0     H70893   8.225   3.737   7.445  0.3097 -1.5960  1.3469
  514MOL0     H70894   8.469   3.941   7.976 -0.7465 -1.4933 -0.5989
  514MOL0     H70895   8.666   3.797   8.009 -2.2302  0.4030 -0.0742
  514MOL0     H70896   8.934   3.933   7.964  3.6850  0.2020  3.7183
  514MOL0     H70897   8.922   3.769   8.021  2.1039  1.4601  2.0594
  514MOL0     H70898   9.124   3.727   7.843 -2.7600 -0.4471 -1.9676
  514MOL0     H70899   9.115   3.904   7.829 -3.7462  0.5339 -0.0046
  514MOL0     H70900   9.282   3.767   8.002 -0.6455  0.2590  0.0588
  514MOL0     H70901   9.150   3.821   8.110 -0.8297  0.8474 -0.4554
  514MOL0     H70902   9.211   4.056   7.996  0.3539 -0.3146  2.3000
  514MOL0     H70903   9.354   3.981   7.940 -1.6133 -0.2898 -2.3334
  514MOL0     H70904   9.356   4.120   8.147 -0.8817  0.1896 -3.6319
  514MOL0     H70905   9.263   4.016   8.236 -1.0052 -0.9539 -1.0671
  514MOL0     H70906   9.532   3.991   8.255  0.4519  0.3702 -1.7059
  514MOL0     H70907   9.517   3.901   8.104 -0.7173 -0.2195 -0.5836
  514MOL0     H70908   9.324   3.766   8.253 -0.6337  0.7056  2.0394
  514MOL0     H70909   9.416   3.848   8.382  2.0422  0.4028 -0.3416
  514MOL0     H70910   9.528   3.631   8.369  1.0460 -0.5208 -0.6286
  514MOL0     H70911   9.622   3.737   8.270  0.5880  0.5176  3.1439
  514MOL0     H70912   8.805   3.913   7.618  1.2239  1.7798  0.9117
  514MOL0     H70913   8.587   4.043   7.588 -2.6640 -2.6740 -0.7455
  514MOL0     H70914   8.189   4.199   7.658  1.0825 -0.4814 -0.4769
  514MOL0     H70915   7.985   4.262   7.575  1.2010  0.4449 -2.4474
  514MOL0     H70916   6.505   4.644   6.424  2.5622  1.8977 -0.9044
  514MOL0     H70917   6.292   4.793   6.382  0.6232 -0.7115 -1.0697
  514MOL0     H70918   5.977   5.023   6.481 -1.8939 -0.4225  0.4690
  514MOL0     H70919   5.774   5.137   6.437  0.0672 -0.1445 -0.0685
  514MOL0     H70920   5.633   5.529   6.283 -0.2749 -0.7871 -0.9451
  514MOL0     H70921   5.801   5.563   6.316  0.3177 -0.3811 -0.5875
  514MOL0     H70922   5.870   5.434   6.109  0.1765 -2.0643  4.7232
  514MOL0     H70923   5.769   5.578   6.080  2.4634 -0.4965 -0.3917
  514MOL0     H70924   5.691   5.425   5.932  1.0855 -0.3664 -0.2780
  514MOL0     H70925   5.699   5.284   6.042  0.9231  0.6889  1.5757
  514MOL0     H70926   5.470   5.421   5.975 -0.5484  1.5250  0.0242
  514MOL0     H70927   5.507   5.502   6.131  1.1769 -1.0248  1.7160
  514MOL0     H70928   5.407   5.124   6.281 -2.0369  1.3719  1.3019
  514MOL0     H70929   5.985   5.482   6.289  0.7387 -0.4194 -1.4550
  514MOL0     H70930   6.235   5.502   6.338  2.4190  0.7677 -2.2633
  514MOL0     H70931   6.316   5.363   6.411 -0.3183 -0.2857 -0.5024
  514MOL0     H70932   6.282   5.359   6.232  1.2773 -1.0436  0.5727
  515MOL0     O70933   2.354   0.611   3.923 -0.0417  0.1211 -0.5055
  515MOL0     C70934   2.323   0.643   3.809  0.6542 -0.2485 -0.2808
  515MOL0     O70935   2.266   0.762   3.775 -0.6187 -0.0370  0.0392
  515MOL0     C70936   2.204   0.827   3.871 -0.3076 -0.4118 -0.0353
  515MOL0     C70937   2.068   0.806   3.887  0.7747 -0.3250 -0.2698
  515MOL0     C70938   1.992   0.875   3.983 -0.1854 -0.1343 -0.8139
  515MOL0     C70939   2.057   0.974   4.065 -0.2335 -0.1997 -0.2534
  515MOL0     O70940   1.996   1.040   4.164 -0.2328 -0.6101  0.0591
  515MOL0     C70941   1.858   1.071   4.131  0.1866 -0.6055 -0.3815
  515MOL0     C70942   1.812   1.174   4.235  0.9005 -0.7565 -0.7270
  515MOL0     C70943   1.817   1.129   4.375  0.4097  0.3894 -0.0792
  515MOL0     C70944   1.792   1.244   4.476  0.1121 -0.5869 -0.5110
  515MOL0     C70945   1.778   1.180   4.611  0.2937  0.5122 -0.5110
  515MOL0     C70946   1.732   1.268   4.724 -0.3280 -0.4890 -0.2243
  515MOL0     C70947   1.766   1.218   4.862  0.2866  0.2275 -0.0136
  515MOL0     C70948   1.782   1.327   4.968  0.8341 -0.8788 -1.0476
  515MOL0     N70949   1.750   1.266   5.106  0.2509 -1.2494  0.1979
  515MOL0     C70950   1.817   1.157   5.159  0.3423  0.3400  0.2948
  515MOL0     C70951   1.800   1.157   5.295 -1.5050 -0.7685  0.6964
  515MOL0     C70952   1.856   1.065   5.403 -0.4956 -0.5721 -0.2431
  515MOL0     C70953   2.011   1.062   5.410 -0.3321  0.2167  0.2830
  515MOL0     C70954   2.069   1.173   5.497  0.5013 -0.0733  0.7232
  515MOL0     C70955   2.221   1.160   5.514 -0.5838 -0.3015 -0.4743
  515MOL0     O70956   2.253   1.288   5.580 -0.4496 -0.1927 -0.5215
  515MOL0     C70957   2.333   1.304   5.692 -0.1624  0.3924  0.4018
  515MOL0     C70958   2.402   1.208   5.761 -0.0487 -0.6702  0.5146
  515MOL0     C70959   2.479   1.239   5.871 -0.4676  0.0989 -0.1186
  515MOL0     C70960   2.539   1.124   5.946 -0.0840 -0.4004  0.1041
  515MOL0     C70961   2.482   1.372   5.925  0.0233  0.9196 -0.3321
  515MOL0     C70962   2.553   1.408   6.050 -0.1690 -0.0318 -0.3098
  515MOL0     O70963   2.522   1.533   6.105 -0.3728  0.4377 -0.4968
  515MOL0     C70964   2.564   1.567   6.232  0.6180 -0.9003 -0.5879
  515MOL0     C70965   2.467   1.602   6.327  0.0124  0.0242  0.0506
  515MOL0     C70966   2.499   1.620   6.464 -0.0395  0.2531  1.0369
  515MOL0     C70967   2.638   1.617   6.506 -0.2362 -0.0706  0.3338
  515MOL0     O70968   2.681   1.623   6.633 -0.5349  0.2565 -0.3509
  515MOL0     C70969   2.618   1.723   6.704  0.0301 -0.1416 -0.0387
  515MOL0     C70970   2.662   1.693   6.846  0.1872  0.1993 -0.6636
  515MOL0     C70971   2.641   1.814   6.947 -0.2131 -0.5707  0.1223
  515MOL0     C70972   2.498   1.802   7.003 -0.2587  0.1850 -0.3422
  515MOL0     C70973   2.432   1.937   7.019 -0.5125  0.0671 -0.0812
  515MOL0     C70974   2.483   2.014   7.139  0.0823  0.4873 -0.8839
  515MOL0     C70975   2.393   2.135   7.177  0.2725  0.3740  0.7678
  515MOL0     C70976   2.445   2.192   7.304  0.6354  0.1763  0.4055
  515MOL0    Cl70977   2.406   2.073   7.434  0.1343 -0.0572 -0.2153
  515MOL0     C70978   2.729   1.583   6.407  0.3174  0.6315 -0.8935
  515MOL0     C70979   2.695   1.563   6.270  0.5586  0.9632  0.0168
  515MOL0     O70980   2.640   1.332   6.099  0.2444  0.1696  0.3962
  515MOL0     C70981   2.406   1.468   5.852 -0.2416 -0.7648 -0.5826
  515MOL0     C70982   2.343   1.432   5.739  0.7186 -0.3514 -1.0247
  515MOL0     N70983   1.725   1.277   5.319 -0.0514 -0.2502  0.6490
  515MOL0     N70984   1.693   1.329   5.209  0.1005  0.2109 -0.1885
  515MOL0     C70985   2.203   0.986   4.059  0.7412 -0.3060 -0.0411
  515MOL0     C70986   2.274   0.911   3.956  0.3813 -0.3179 -0.1554
  515MOL0     C70987   2.355   0.559   3.690 -0.1957  0.1371 -0.8863
  515MOL0     C70988   2.281   0.572   3.575 -0.2039  0.0341 -0.2848
  515MOL0     C70989   2.305   0.495   3.462  0.2137  0.0146 -0.1193
  515MOL0     C70990   2.413   0.409   3.454  0.1321 -0.3592 -0.0034
  515MOL0     O70991   2.446   0.353   3.326 -0.2204  0.1220  0.0456
  515MOL0     C70992   2.566   0.274   3.313  0.2708 -0.6124  0.2705
  515MOL0     C70993   2.551   0.137   3.355 -0.4209  0.5691  0.7097
  515MOL0     C70994   2.683   0.064   3.327 -0.5032 -0.4348 -0.6450
  515MOL0     C70995   2.725   0.058   3.177  0.2802  0.2587 -0.7446
  515MOL0     C70996   2.844  -0.040   3.184  0.3871 -0.6108  0.3015
  515MOL0     C70997   2.928  -0.123   3.209  0.5662 -0.0061  1.0797
  515MOL0     C70998   2.496   0.403   3.564 -0.7213 -1.1123 -0.1606
  515MOL0     C70999   2.471   0.469   3.679 -0.0887 -0.7172 -0.2902
  515MOL0     C71000   2.566   0.454   3.787 -0.1332  0.2212 -1.1920
  515MOL0     H71001   2.036   0.726   3.821  0.2106  1.7774 -2.6966
  515MOL0     H71002   1.886   0.853   3.983 -0.5927  1.6941 -0.9638
  515MOL0     H71003   1.796   0.981   4.126 -2.6626  1.1214  1.1384
  515MOL0     H71004   1.850   1.126   4.038  2.1840  1.1890  0.4157
  515MOL0     H71005   1.887   1.253   4.225  2.5568 -1.7631  2.3736
  515MOL0     H71006   1.709   1.208   4.219  1.4434  1.2346 -0.2512
  515MOL0     H71007   1.738   1.056   4.394  1.2829 -0.2386  1.3866
  515MOL0     H71008   1.912   1.080   4.398  0.9244  1.9938  1.4295
  515MOL0     H71009   1.863   1.326   4.465 -0.7909  0.0201 -2.1990
  515MOL0     H71010   1.695   1.289   4.452  0.0006 -0.8610 -0.5760
  515MOL0     H71011   1.875   1.138   4.641  0.3338  1.3844  0.6486
  515MOL0     H71012   1.693   1.111   4.611 -0.5212  1.3653  2.5629
  515MOL0     H71013   1.792   1.359   4.716 -0.3725 -0.3500  0.8576
  515MOL0     H71014   1.627   1.296   4.708  0.1345  0.3278 -2.0207
  515MOL0     H71015   1.865   1.172   4.853 -0.3619 -1.3071  0.4350
  515MOL0     H71016   1.696   1.142   4.896 -1.4239  1.7021 -0.1004
  515MOL0     H71017   1.884   1.366   4.970 -0.4675  2.9403 -1.1018
  515MOL0     H71018   1.713   1.409   4.945  0.6492 -1.6492 -3.4763
  515MOL0     H71019   1.859   1.073   5.105  0.3575 -0.3068  1.2706
  515MOL0     H71020   1.812   0.967   5.381 -0.2739 -1.1285  1.6330
  515MOL0     H71021   1.811   1.102   5.495 -1.0179  0.2357 -0.8048
  515MOL0     H71022   2.052   0.968   5.448  1.1593  2.6225  5.4705
  515MOL0     H71023   2.043   1.077   5.306  0.3226  0.1193  0.4664
  515MOL0     H71024   2.046   1.273   5.457 -0.2728 -0.3435  0.4730
  515MOL0     H71025   2.019   1.163   5.593  2.3088  1.2057  1.8602
  515MOL0     H71026   2.234   1.072   5.578  1.0681  0.0257 -0.3123
  515MOL0     H71027   2.277   1.143   5.422  0.4279 -1.3669  0.2968
  515MOL0     H71028   2.395   1.108   5.718  2.5127  0.3395 -2.6927
  515MOL0     H71029   2.496   1.115   6.046  0.4660  2.6269  0.7160
  515MOL0     H71030   2.646   1.143   5.961 -0.8709  1.4663  5.2952
  515MOL0     H71031   2.535   1.028   5.894  3.2815 -0.2015 -0.7768
  515MOL0     H71032   2.363   1.608   6.297  0.6575 -0.0135 -2.3988
  515MOL0     H71033   2.410   1.622   6.526 -1.5104  0.2785 -0.9751
  515MOL0     H71034   2.647   1.825   6.680  2.6236 -0.8637 -0.2436
  515MOL0     H71035   2.509   1.721   6.690 -0.1041  1.5700  0.5994
  515MOL0     H71036   2.615   1.597   6.872  1.7352  0.2252  2.6472
  515MOL0     H71037   2.770   1.680   6.842  0.2528 -0.3757  1.7228
  515MOL0     H71038   2.669   1.906   6.896  0.6722 -1.2474 -0.6407
  515MOL0     H71039   2.714   1.798   7.028 -0.6666  0.1999  0.6958
  515MOL0     H71040   2.484   1.752   7.099 -1.7050 -0.9490 -1.1046
  515MOL0     H71041   2.432   1.750   6.933  0.8589 -1.6585 -0.0723
  515MOL0     H71042   2.452   1.993   6.927  1.5933  1.0728  0.9050
  515MOL0     H71043   2.324   1.922   7.026 -0.8114  1.7214 -0.6560
  515MOL0     H71044   2.587   2.045   7.127  0.3742 -1.1074 -3.1583
  515MOL0     H71045   2.485   1.948   7.226 -0.6794  2.8856  1.0771
  515MOL0     H71046   2.289   2.102   7.182 -0.3686  1.7519 -1.9696
  515MOL0     H71047   2.401   2.212   7.101  1.4338  0.7608  1.2652
  515MOL0     H71048   2.376   2.273   7.330 -0.4528 -0.1994 -1.2547
  515MOL0     H71049   2.547   2.233   7.304  0.2056  1.2748  0.5957
  515MOL0     H71050   2.834   1.576   6.432 -0.0252 -1.6079  0.1037
  515MOL0     H71051   2.760   1.540   6.187  0.8286 -0.6977  0.6388
  515MOL0     H71052   2.409   1.571   5.887 -1.9790  0.7281 -4.2502
  515MOL0     H71053   2.277   1.503   5.690 -1.1464 -1.2293  0.0977
  515MOL0     H71054   2.269   1.043   4.124 -0.6415  2.3963 -0.8525
  515MOL0     H71055   2.380   0.933   3.957  0.2574  0.5255  2.5792
  515MOL0     H71056   2.190   0.630   3.565  0.2951  0.5336 -2.4295
  515MOL0     H71057   2.240   0.521   3.380  1.4797  4.5640  0.0342
  515MOL0     H71058   2.597   0.282   3.209  1.4535 -0.5403  0.6165
  515MOL0     H71059   2.643   0.320   3.375  0.0275 -2.5622  2.1408
  515MOL0     H71060   2.472   0.086   3.299 -0.6312 -0.6706  2.0577
  515MOL0     H71061   2.520   0.120   3.459  1.2181 -3.7777  0.7217
  515MOL0     H71062   2.758   0.112   3.391 -0.7766 -1.0247  0.1326
  515MOL0     H71063   2.672  -0.037   3.367 -1.7149 -0.9461 -2.1461
  515MOL0     H71064   2.764   0.148   3.129 -0.8704  0.1369 -1.9527
  515MOL0     H71065   2.633   0.031   3.125 -0.5216 -0.5007  0.9851
  515MOL0     H71066   3.011  -0.174   3.254  2.6103  2.6584  0.6211
  515MOL0     H71067   2.576   0.331   3.559 -1.6656 -2.1489 -0.7838
  515MOL0     H71068   2.527   0.389   3.866  1.0055  0.2025 -0.6257
  515MOL0     H71069   2.664   0.417   3.753 -0.3031 -0.0118 -1.4291
  515MOL0     H71070   2.582   0.549   3.838  0.9552  0.7752 -2.5124
  516MOL0     O71071   3.097   1.930   4.533  0.3525 -0.3086 -0.4022
  516MOL0     C71072   3.074   1.812   4.509 -0.0940 -0.5893  0.3679
  516MOL0     O71073   3.162   1.706   4.533  0.0524  0.3888 -0.0772
  516MOL0     C71074   3.285   1.756   4.567 -0.4088  0.1272 -0.0493
  516MOL0     C71075   3.315   1.762   4.707 -0.4191 -0.2444  0.0309
  516MOL0     C71076   3.434   1.819   4.742  1.0904  0.6822 -0.5156
  516MOL0     C71077   3.525   1.874   4.650 -1.0210  0.5758  0.2173
  516MOL0     O71078   3.650   1.914   4.696 -0.4077 -0.0254  0.1767
  516MOL0     C71079   3.647   2.010   4.809  0.6461  0.6811  0.4092
  516MOL0     C71080   3.789   2.050   4.815 -0.3825  0.3423 -0.1790
  516MOL0     C71081   3.819   2.158   4.929  0.0229 -0.3604  0.0747
  516MOL0     C71082   3.965   2.202   4.926 -0.4335 -0.2409  0.3446
  516MOL0     C71083   4.003   2.277   5.058 -0.3775 -1.4223  0.8802
  516MOL0     C71084   4.157   2.296   5.065 -0.2995 -0.1401  0.2445
  516MOL0     C71085   4.205   2.378   4.946 -0.1097  0.2735  0.2097
  516MOL0     C71086   4.354   2.421   4.948 -0.6596 -0.2608  0.4412
  516MOL0     N71087   4.387   2.527   5.044  0.1803 -0.4996  0.4796
  516MOL0     C71088   4.329   2.647   5.053 -0.3018  0.4392  0.4751
  516MOL0     C71089   4.389   2.707   5.156  0.6834  0.5276  0.1236
  516MOL0     C71090   4.365   2.843   5.208 -0.3512 -0.1430  0.1387
  516MOL0     C71091   4.264   2.849   5.330 -0.8786 -0.0169 -0.6708
  516MOL0     C71092   4.224   2.992   5.372 -0.7749 -0.9298  0.0334
  516MOL0     C71093   4.099   3.007   5.455 -0.2871  0.1724 -0.8253
  516MOL0     O71094   3.995   2.964   5.374  0.0808 -0.1164 -0.2476
  516MOL0     C71095   3.859   2.988   5.402 -0.6935  0.2425 -0.1063
  516MOL0     C71096   3.802   3.030   5.526 -0.4370 -0.6752  0.3662
  516MOL0     C71097   3.671   3.062   5.539 -0.1972 -0.2127  0.0336
  516MOL0     C71098   3.626   3.111   5.675  0.2734  0.0776  0.3627
  516MOL0     C71099   3.582   3.049   5.426  0.8561 -0.6337 -0.4129
  516MOL0     C71100   3.430   3.069   5.439 -0.3804  0.1863 -0.2354
  516MOL0     O71101   3.393   3.199   5.480 -0.0483 -0.5855 -0.2213
  516MOL0     C71102   3.256   3.227   5.513 -0.2155  0.6090  0.0486
  516MOL0     C71103   3.216   3.288   5.632  0.3935  0.1725  0.1735
  516MOL0     C71104   3.077   3.295   5.652  0.4483 -0.2297 -0.0662
  516MOL0     C71105   2.983   3.262   5.547 -0.0128 -0.6703  0.2086
  516MOL0     O71106   2.851   3.285   5.573  0.6662 -0.9088  0.0511
  516MOL0     C71107   2.776   3.170   5.616 -0.6328  0.5332  0.0275
  516MOL0     C71108   2.638   3.209   5.676 -0.7121  0.0536  0.1006
  516MOL0     C71109   2.534   3.268   5.576 -0.1819  0.4450 -0.2748
  516MOL0     C71110   2.478   3.153   5.493 -0.3041  0.2512  0.0701
  516MOL0     C71111   2.358   3.210   5.414  0.8439  0.9515  0.4912
  516MOL0     C71112   2.223   3.185   5.481 -0.0807 -0.5188 -0.8236
  516MOL0     C71113   2.121   3.244   5.381 -0.1524  0.7333  0.1210
  516MOL0     C71114   1.983   3.256   5.450 -0.7347 -0.1710 -0.6279
  516MOL0    Cl71115   1.910   3.098   5.491 -0.2545  0.3966 -0.1175
  516MOL0     C71116   3.029   3.222   5.426 -0.1809  0.0084 -0.5585
  516MOL0     C71117   3.167   3.198   5.414 -0.2796 -0.0380  0.5687
  516MOL0     O71118   3.366   2.971   5.440  1.2941 -0.1439 -0.2288
  516MOL0     C71119   3.635   2.989   5.316 -0.3367 -0.0025 -0.1900
  516MOL0     C71120   3.772   2.967   5.303  0.3396  0.1217  0.5574
  516MOL0     N71121   4.488   2.627   5.209 -0.1486  0.6998 -0.2252
  516MOL0     N71122   4.488   2.525   5.128 -0.2386  0.4263 -0.8544
  516MOL0     C71123   3.501   1.862   4.508  0.1895  0.0363 -0.8429
  516MOL0     C71124   3.375   1.805   4.469  0.4465  0.2755 -0.0532
  516MOL0     C71125   2.943   1.780   4.444  0.0734  0.1888  0.1567
  516MOL0     C71126   2.900   1.648   4.428 -0.0747  1.1873 -0.5329
  516MOL0     C71127   2.774   1.608   4.372  0.2062  0.7754 -0.2994
  516MOL0     C71128   2.693   1.702   4.324 -0.3345 -0.0120  0.5550
  516MOL0     O71129   2.572   1.669   4.269 -0.3127  0.5000  0.6984
  516MOL0     C71130   2.525   1.528   4.260 -0.1245  0.5786 -0.3468
  516MOL0     C71131   2.400   1.523   4.172  0.4503  0.0309  0.1927
  516MOL0     C71132   2.349   1.382   4.154 -0.9577 -0.2347 -1.3510
  516MOL0     C71133   2.221   1.363   4.072  0.3695 -0.7134 -0.3026
  516MOL0     C71134   2.109   1.449   4.113 -0.0129  1.2719  0.4944
  516MOL0     C71135   2.017   1.519   4.144  0.0044 -0.6788 -0.4253
  516MOL0     C71136   2.732   1.836   4.317  0.2109  0.2667  0.3693
  516MOL0     C71137   2.855   1.881   4.375 -0.2163  0.4603 -0.4455
  516MOL0     C71138   2.885   2.025   4.373  0.4930  0.9501 -0.2619
  516MOL0     H71139   3.242   1.724   4.777  1.4944  0.8335  2.7973
  516MOL0     H71140   3.455   1.818   4.848 -0.1603  1.5577 -0.2310
  516MOL0     H71141   3.609   1.971   4.904 -0.5847 -1.1404 -0.7669
  516MOL0     H71142   3.588   2.099   4.786  2.7842  2.2635  0.7804
  516MOL0     H71143   3.840   1.954   4.825  0.7373  0.6797 -2.1369
  516MOL0     H71144   3.825   2.103   4.726 -1.5076 -0.1679 -0.9572
  516MOL0     H71145   3.750   2.242   4.927 -0.4859 -0.7778 -0.6759
  516MOL0     H71146   3.790   2.118   5.026  2.8253  0.2274  1.2403
  516MOL0     H71147   4.040   2.124   4.910  1.2319  1.3154  0.2807
  516MOL0     H71148   3.975   2.254   4.830 -2.2736 -1.0504 -0.3325
  516MOL0     H71149   3.964   2.221   5.144 -1.9522  0.7933  1.7057
  516MOL0     H71150   3.955   2.375   5.058 -0.5564 -1.4984  1.6441
  516MOL0     H71151   4.192   2.347   5.155  0.5495 -0.7136  0.2507
  516MOL0     H71152   4.209   2.200   5.063 -2.1761 -1.1956 -0.3089
  516MOL0     H71153   4.134   2.461   4.940 -1.5085 -0.6955  2.2632
  516MOL0     H71154   4.193   2.318   4.855 -0.8584 -0.0349  0.5068
  516MOL0     H71155   4.419   2.334   4.963 -1.3047 -0.4946  2.1149
  516MOL0     H71156   4.377   2.464   4.850 -0.0324 -2.0108 -0.2286
  516MOL0     H71157   4.260   2.690   4.980 -1.2828 -0.3435  0.9045
  516MOL0     H71158   4.311   2.901   5.133  0.3654  0.9318  0.4270
  516MOL0     H71159   4.459   2.895   5.227 -0.4564  0.7988 -1.6735
  516MOL0     H71160   4.174   2.797   5.297 -0.2779 -3.1067  1.9956
  516MOL0     H71161   4.321   2.796   5.407 -0.9178  0.8047 -0.0662
  516MOL0     H71162   4.308   3.023   5.434 -3.0519 -2.1960  4.1642
  516MOL0     H71163   4.206   3.051   5.281 -2.5418 -1.5450 -0.0590
  516MOL0     H71164   4.096   2.941   5.542 -0.1051  1.0494 -0.1314
  516MOL0     H71165   4.095   3.114   5.479 -0.4467  0.2586 -1.2397
  516MOL0     H71166   3.872   3.041   5.609  1.6250 -0.4715 -1.3253
  516MOL0     H71167   3.714   3.165   5.713 -0.2570  0.6290  0.8363
  516MOL0     H71168   3.597   3.026   5.738 -1.6577 -0.1909 -0.7930
  516MOL0     H71169   3.549   3.189   5.673 -0.3391 -0.4966  0.8855
  516MOL0     H71170   3.288   3.307   5.711  1.8322 -0.7159 -0.8826
  516MOL0     H71171   3.044   3.344   5.743  3.2145  0.1218  0.8360
  516MOL0     H71172   2.759   3.105   5.529  0.5646 -0.0608  0.2174
  516MOL0     H71173   2.832   3.108   5.687 -0.7150 -0.6171 -0.8819
  516MOL0     H71174   2.591   3.122   5.723 -0.1014 -2.4901 -3.5504
  516MOL0     H71175   2.657   3.284   5.753 -1.2681 -0.4127  0.7001
  516MOL0     H71176   2.586   3.348   5.522  1.7609 -0.4876  0.1230
  516MOL0     H71177   2.460   3.310   5.645 -1.5489  0.5707 -1.7816
  516MOL0     H71178   2.452   3.066   5.555 -3.1062 -1.2976 -2.9468
  516MOL0     H71179   2.549   3.121   5.417 -1.7307  1.8774 -2.0819
  516MOL0     H71180   2.381   3.313   5.386  0.2340  1.1417  0.6894
  516MOL0     H71181   2.351   3.157   5.319 -2.7433  0.1006  1.1038
  516MOL0     H71182   2.218   3.233   5.579  4.2668  0.4110 -0.8272
  516MOL0     H71183   2.202   3.079   5.495 -3.4766  0.1561 -0.0563
  516MOL0     H71184   2.115   3.177   5.295  2.0307 -1.5062  1.5911
  516MOL0     H71185   2.153   3.345   5.350 -1.2920  1.2424  0.5389
  516MOL0     H71186   1.924   3.318   5.381 -1.1697 -0.8736 -0.8947
  516MOL0     H71187   1.991   3.310   5.545 -2.8832  0.8107 -0.9295
  516MOL0     H71188   2.962   3.200   5.344 -0.1315  0.3725 -0.6964
  516MOL0     H71189   3.205   3.147   5.327 -0.0244  0.0496  0.6281
  516MOL0     H71190   3.573   2.969   5.229 -0.1886  1.6907 -0.7224
  516MOL0     H71191   3.816   2.944   5.206  1.0004  0.1989  0.8305
  516MOL0     H71192   3.564   1.900   4.428  0.4702  2.5333  0.4721
  516MOL0     H71193   3.351   1.795   4.364  1.3893  1.7328 -0.4444
  516MOL0     H71194   2.975   1.573   4.452 -0.7646 -0.1984 -2.4416
  516MOL0     H71195   2.766   1.501   4.360 -2.6602  0.9072 -0.3127
  516MOL0     H71196   2.608   1.472   4.215 -0.8205  1.0975 -2.3392
  516MOL0     H71197   2.499   1.497   4.362 -1.7550 -2.5241 -1.5790
  516MOL0     H71198   2.426   1.558   4.072 -0.7735  0.2954 -0.0461
  516MOL0     H71199   2.320   1.586   4.213 -0.4253 -0.1701 -1.1416
  516MOL0     H71200   2.423   1.317   4.107 -0.5394 -1.4897  0.9068
  516MOL0     H71201   2.340   1.344   4.257  0.5982  1.4835 -0.5276
  516MOL0     H71202   2.185   1.261   4.084  0.8725 -1.1409 -2.0806
  516MOL0     H71203   2.235   1.379   3.964 -1.5476 -2.1243 -0.8180
  516MOL0     H71204   1.933   1.579   4.172  0.0411 -1.1498  0.7490
  516MOL0     H71205   2.666   1.904   4.265  1.3509  0.8576 -0.3515
  516MOL0     H71206   2.988   2.038   4.340  1.9196 -3.8896  1.4444
  516MOL0     H71207   2.822   2.075   4.299 -0.8499 -1.4041 -0.7861
  516MOL0     H71208   2.865   2.063   4.474  0.1717 -1.8863  0.8386
  517MOL0     O71209   9.120   4.651  10.513 -0.4159 -0.7495  0.5168
  517MOL0     C71210   9.050   4.574  10.453  0.6003 -0.4516  0.1788
  517MOL0     O71211   9.094   4.446  10.405 -0.2568 -0.1666  0.0553
  517MOL0     C71212   9.200   4.394  10.462 -0.3167 -0.0355  0.6824
  517MOL0     C71213   9.200   4.361  10.596  0.1893  0.4036 -0.2200
  517MOL0     C71214   9.313   4.308  10.659  0.0061  1.1826  0.3437
  517MOL0     C71215   9.425   4.272  10.581  0.1714  0.0736 -0.4017
  517MOL0     O71216   9.543   4.212  10.633 -0.3837 -0.2588  0.0523
  517MOL0     C71217   9.572   4.231  10.769  0.0851  0.1786 -1.1172
  517MOL0     C71218   9.719   4.208  10.809  0.2174  1.0296 -0.3792
  517MOL0     C71219   9.780   4.079  10.761  0.2605 -0.3733 -0.6275
  517MOL0     C71220   9.920   4.062  10.810  0.3091  0.5361 -0.1082
  517MOL0     C71221  10.001   4.186  10.757  0.4614 -0.2167  0.1766
  517MOL0     C71222  10.148   4.135  10.738  0.0471 -0.2408  0.3055
  517MOL0     C71223  10.228   4.260  10.667 -0.0034 -0.0810  0.1264
  517MOL0     C71224  10.368   4.237  10.628  0.3230  0.3690 -0.5466
  517MOL0     N71225  10.453   4.211  10.745 -0.7072 -0.2907  0.0835
  517MOL0     C71226  10.504   4.087  10.776  0.0296  0.5203 -0.9588
  517MOL0     C71227  10.574   4.101  10.893 -0.0489 -0.2015  0.0816
  517MOL0     C71228  10.623   3.985  10.973 -0.7789  0.6324 -1.0910
  517MOL0     C71229  10.760   4.014  11.032 -0.2115 -0.6283 -0.0175
  517MOL0     C71230  10.791   3.927  11.158 -0.1931 -0.4624  0.1348
  517MOL0     C71231  10.935   3.962  11.204  0.3233 -0.3156  0.2605
  517MOL0     O71232  10.955   3.919  11.335  0.1046  1.1955 -0.4962
  517MOL0     C71233  11.073   3.853  11.369 -0.1107 -0.2318 -0.8272
  517MOL0     C71234  11.082   3.733  11.452  1.1020 -0.1225  0.2222
  517MOL0     C71235  11.194   3.661  11.482  0.1080  0.5563  0.0940
  517MOL0     C71236  11.185   3.531  11.556 -0.1196 -0.4944 -0.4602
  517MOL0     C71237  11.314   3.711  11.428 -0.1879 -0.0126 -0.4487
  517MOL0     C71238  11.456   3.666  11.478  0.9177 -0.3875  0.4752
  517MOL0     O71239  11.561   3.675  11.385  0.6506  0.8024 -0.3334
  517MOL0     C71240  11.685   3.685  11.437 -0.8834  0.5216 -0.5035
  517MOL0     C71241  11.752   3.804  11.435 -0.5022  0.5631  0.2398
  517MOL0     C71242  11.881   3.811  11.484  0.2155  0.1043 -0.6664
  517MOL0     C71243  11.946   3.698  11.536 -0.8726  0.2968 -0.0327
  517MOL0     O71244  12.085   3.701  11.580 -0.0924  0.1853 -0.5377
  517MOL0     C71245  12.182   3.815  11.571  0.4489 -0.8844  0.2996
  517MOL0     C71246  12.321   3.773  11.611  0.3496 -0.6951  0.4253
  517MOL0     C71247  12.426   3.845  11.522 -0.6239 -0.1463  0.5815
  517MOL0     C71248  12.571   3.803  11.568  0.0514 -0.1406 -0.5895
  517MOL0     C71249  12.658   3.909  11.498  0.1904  0.1712  0.0628
  517MOL0     C71250  12.807   3.875  11.514 -0.0350 -0.0150 -0.4910
  517MOL0     C71251  12.906   3.985  11.480  0.0267  0.4871  0.5532
  517MOL0     C71252  13.051   3.939  11.499  0.7616 -1.5337  0.6089
  517MOL0    Cl71253  13.107   3.983  11.660 -0.1842  0.7041  0.0718
  517MOL0     C71254  11.880   3.571  11.527  0.0976 -0.4540  0.7612
  517MOL0     C71255  11.747   3.570  11.485 -0.7939 -0.0422  0.1087
  517MOL0     O71256  11.462   3.617  11.588 -0.3364 -0.0585  0.2870
  517MOL0     C71257  11.307   3.816  11.332 -0.0440 -0.0043  0.4449
  517MOL0     C71258  11.193   3.889  11.296  0.0502 -0.0820  0.5614
  517MOL0     N71259  10.561   4.238  10.926 -0.2142  0.2232  0.7598
  517MOL0     N71260  10.486   4.305  10.840 -0.7697  0.1685  0.1612
  517MOL0     C71261   9.430   4.311  10.448 -0.3188  0.5631 -0.0408
  517MOL0     C71262   9.317   4.372  10.390 -0.1960 -0.5124  1.1349
  517MOL0     C71263   8.901   4.595  10.470  0.1603  0.7915 -0.0122
  517MOL0     C71264   8.821   4.477  10.436  0.2701 -0.0546  0.3900
  517MOL0     C71265   8.677   4.485  10.435 -0.0698  0.1199  0.5473
  517MOL0     C71266   8.617   4.603  10.454  0.1513 -0.0886 -0.3393
  517MOL0     O71267   8.482   4.612  10.440  0.2781  0.2755  0.1900
  517MOL0     C71268   8.419   4.588  10.568  0.1641  0.0519 -0.5495
  517MOL0     C71269   8.344   4.459  10.552 -0.8602 -0.3294  0.1372
  517MOL0     C71270   8.272   4.399  10.672  0.2356  0.2255  0.0654
  517MOL0     C71271   8.149   4.473  10.719 -0.0051 -0.3880 -0.1645
  517MOL0     C71272   8.096   4.393  10.832 -0.2675  0.5640 -0.0549
  517MOL0     C71273   8.037   4.334  10.916 -0.7595 -0.3403 -1.3599
  517MOL0     C71274   8.687   4.721  10.489 -0.6011 -0.2315 -0.1823
  517MOL0     C71275   8.831   4.721  10.500 -0.2788 -0.7645 -0.3315
  517MOL0     C71276   8.894   4.850  10.552  0.0534 -0.0592 -0.3149
  517MOL0     H71277   9.110   4.388  10.650 -1.5314  1.0025 -3.1597
  517MOL0     H71278   9.325   4.309  10.767  2.5571  1.6988  0.1195
  517MOL0     H71279   9.512   4.164  10.831 -0.6730  1.9590  0.1501
  517MOL0     H71280   9.547   4.333  10.800  1.7397 -0.3588  2.5650
  517MOL0     H71281   9.766   4.297  10.766 -0.9624  0.4711 -3.0340
  517MOL0     H71282   9.724   4.200  10.918 -3.0231  0.6112 -0.1746
  517MOL0     H71283   9.722   3.992  10.794  1.2450 -0.4988  0.8520
  517MOL0     H71284   9.771   4.072  10.652 -1.4621  1.7090 -0.6788
  517MOL0     H71285   9.925   4.041  10.917 -0.4576 -1.3628 -0.3932
  517MOL0     H71286   9.950   3.972  10.755 -1.0439  0.0737 -0.1244
  517MOL0     H71287   9.990   4.272  10.824 -2.3994 -0.1665 -0.2439
  517MOL0     H71288   9.968   4.218  10.657  0.9905 -1.7538 -0.5287
  517MOL0     H71289  10.210   4.097  10.820  0.6464  0.1078  0.0282
  517MOL0     H71290  10.142   4.057  10.662 -1.0763  2.3241 -2.4471
  517MOL0     H71291  10.231   4.337  10.745  0.5414 -0.4969  0.5217
  517MOL0     H71292  10.178   4.292  10.575 -0.7306 -1.9876 -0.1663
  517MOL0     H71293  10.373   4.170  10.542  1.2286 -0.1400 -0.1163
  517MOL0     H71294  10.404   4.335  10.595  0.5808  1.3051  2.2136
  517MOL0     H71295  10.494   3.996  10.718 -3.7680  0.7544 -0.9309
  517MOL0     H71296  10.639   3.897  10.910 -0.3372 -0.5930  0.6640
  517MOL0     H71297  10.549   3.975  11.052  1.9621  1.7195  1.8500
  517MOL0     H71298  10.832   4.004  10.951 -0.1068 -0.7150  0.0861
  517MOL0     H71299  10.751   4.116  11.072 -2.6747 -1.0911  0.7764
  517MOL0     H71300  10.704   3.938  11.224 -1.4324 -2.5251 -1.0408
  517MOL0     H71301  10.787   3.823  11.124 -0.6043 -0.6479  0.7399
  517MOL0     H71302  11.004   3.922  11.128 -1.5624 -0.7295 -1.3020
  517MOL0     H71303  10.938   4.071  11.194 -0.8723 -0.3766 -0.9788
  517MOL0     H71304  10.993   3.689  11.496  2.6654 -2.5641  1.2016
  517MOL0     H71305  11.254   3.458  11.512  2.3471  1.4493 -0.0521
  517MOL0     H71306  11.085   3.488  11.548 -0.8043  0.8431  0.4668
  517MOL0     H71307  11.212   3.545  11.661  1.2829  1.1012 -0.9911
  517MOL0     H71308  11.710   3.897  11.398 -0.7059  0.2389 -0.3798
  517MOL0     H71309  11.939   3.903  11.473  1.5563 -0.7398 -0.8742
  517MOL0     H71310  12.192   3.834  11.463  0.5166 -3.6729 -0.2716
  517MOL0     H71311  12.157   3.904  11.629 -1.0268  1.0299 -2.9656
  517MOL0     H71312  12.340   3.802  11.714  1.5893  0.7536 -0.1749
  517MOL0     H71313  12.336   3.665  11.600 -3.7472 -1.3835 -0.0866
  517MOL0     H71314  12.413   3.953  11.533  1.4413  0.0164  2.1087
  517MOL0     H71315  12.423   3.826  11.415 -0.0442 -0.2343  0.5743
  517MOL0     H71316  12.597   3.699  11.548  0.8658  0.1923 -1.3204
  517MOL0     H71317  12.584   3.815  11.676  0.7940  0.8025 -0.7663
  517MOL0     H71318  12.638   3.924  11.391  1.8830  0.7328 -0.2181
  517MOL0     H71319  12.637   4.005  11.547 -1.6672  0.6500 -1.5174
  517MOL0     H71320  12.830   3.791  11.447  0.5032  1.0966 -1.7297
  517MOL0     H71321  12.814   3.829  11.614 -2.7413 -0.2996 -0.3517
  517MOL0     H71322  12.876   4.079  11.526  1.8510  1.2916  0.1905
  517MOL0     H71323  12.891   3.995  11.372  0.3750 -1.1334  0.3218
  517MOL0     H71324  13.120   3.990  11.431 -0.3074  1.9377  1.9119
  517MOL0     H71325  13.050   3.831  11.481  0.4840 -1.2300 -1.3540
  517MOL0     H71326  11.919   3.479  11.570  1.5088  0.5899  1.8225
  517MOL0     H71327  11.689   3.479  11.497 -2.6637  1.0120 -0.4986
  517MOL0     H71328  11.389   3.874  11.292 -2.6919  1.7425 -3.0031
  517MOL0     H71329  11.200   3.974  11.229  0.4945 -1.2557 -0.9140
  517MOL0     H71330   9.520   4.287  10.392  1.5527  3.4596  1.4788
  517MOL0     H71331   9.322   4.380  10.282  1.8215 -1.2785  1.1241
  517MOL0     H71332   8.867   4.381  10.414 -0.7949 -0.4140 -0.3567
  517MOL0     H71333   8.627   4.393  10.409  2.4861 -0.9549 -1.0199
  517MOL0     H71334   8.496   4.578  10.645 -1.4209  0.7867  1.2106
  517MOL0     H71335   8.358   4.674  10.595 -0.4190  0.2979 -2.4735
  517MOL0     H71336   8.407   4.382  10.506  0.4600  1.3348 -0.9591
  517MOL0     H71337   8.274   4.489  10.474 -1.2385 -0.6290  0.3566
  517MOL0     H71338   8.239   4.297  10.649 -0.8359  0.5619  0.0466
  517MOL0     H71339   8.344   4.393  10.754  1.3285  0.5833 -0.8428
  517MOL0     H71340   8.077   4.476  10.637  0.7271  0.1722 -0.8043
  517MOL0     H71341   8.171   4.574  10.756  0.6512 -0.1988 -1.0356
  517MOL0     H71342   8.000   4.288  11.006 -0.2057  3.1539  0.8797
  517MOL0     H71343   8.624   4.800  10.528  1.2983  0.1635  2.4174
  517MOL0     H71344   8.831   4.936  10.528 -0.2992 -1.1648 -3.8807
  517MOL0     H71345   8.903   4.832  10.660 -3.2713  0.2111  0.1410
  517MOL0     H71346   8.992   4.857  10.505  0.6522 -0.5304  0.8071
  518MOL0     O71347   7.606   3.936   1.392 -0.3654 -0.2278 -0.0016
  518MOL0     C71348   7.536   4.004   1.313 -0.5794  0.2697 -0.4221
  518MOL0     O71349   7.562   4.050   1.191  0.1702 -0.3604 -0.9005
  518MOL0     C71350   7.696   4.067   1.164  0.0860  0.4168  0.8443
  518MOL0     C71351   7.743   3.998   1.056 -0.5746 -0.4901 -0.2577
  518MOL0     C71352   7.880   3.985   1.024  0.6779  0.3732 -0.1494
  518MOL0     C71353   7.980   4.044   1.104  0.6816 -0.7097 -0.8166
  518MOL0     O71354   8.118   4.040   1.093 -0.3086 -0.8578  0.1941
  518MOL0     C71355   8.173   3.986   0.976 -0.1375 -0.5758  0.6196
  518MOL0     C71356   8.333   3.988   0.985 -0.7610  0.6201  0.1594
  518MOL0     C71357   8.402   4.128   0.958 -0.0907  0.0035  0.1100
  518MOL0     C71358   8.426   4.196   1.081 -0.0150 -0.3335 -0.6269
  518MOL0     C71359   8.491   4.336   1.054  0.5735 -0.1044 -0.4782
  518MOL0     C71360   8.513   4.431   1.175  0.5672  0.1623 -0.5470
  518MOL0     C71361   8.406   4.419   1.285 -0.5440 -0.1252  0.1024
  518MOL0     C71362   8.413   4.533   1.390  0.6180 -0.1740  0.4337
  518MOL0     N71363   8.516   4.509   1.508  0.4088 -0.2928  0.2587
  518MOL0     C71364   8.511   4.436   1.627  0.8720 -0.1697  0.2718
  518MOL0     C71365   8.630   4.457   1.684 -0.5614 -0.7502 -0.3348
  518MOL0     C71366   8.672   4.402   1.809  0.0277 -0.6281  0.0125
  518MOL0     C71367   8.702   4.255   1.805 -0.6556 -0.0288 -0.3555
  518MOL0     C71368   8.767   4.212   1.934 -0.1031  0.3681 -1.1024
  518MOL0     C71369   8.789   4.063   1.953  0.5249 -0.1998 -0.5250
  518MOL0     O71370   8.679   3.987   1.919  0.0951  0.3217  0.3138
  518MOL0     C71371   8.623   3.906   2.018  0.5583 -0.2612 -0.0577
  518MOL0     C71372   8.692   3.800   2.072 -0.0158 -0.1159 -0.0849
  518MOL0     C71373   8.626   3.695   2.148  0.2816  0.2644  0.3523
  518MOL0     C71374   8.724   3.583   2.199  0.0346  0.6770  0.6810
  518MOL0     C71375   8.486   3.713   2.177 -0.2881 -0.3385 -0.9919
  518MOL0     C71376   8.408   3.623   2.262  0.4061  0.7642  0.3050
  518MOL0     O71377   8.287   3.664   2.305  0.0999  0.6027 -0.4607
  518MOL0     C71378   8.211   3.571   2.357  0.6206 -0.6331 -0.0867
  518MOL0     C71379   8.249   3.495   2.464 -0.2587  0.7553 -0.3115
  518MOL0     C71380   8.174   3.390   2.508 -0.8114 -0.4615  0.5729
  518MOL0     C71381   8.047   3.362   2.454  0.1185 -0.5579 -0.0169
  518MOL0     O71382   7.983   3.244   2.493 -0.2418  0.1211 -0.2250
  518MOL0     C71383   7.848   3.236   2.460 -0.0479 -0.4419  1.0151
  518MOL0     C71384   7.770   3.161   2.565  0.4515 -0.2695  1.1756
  518MOL0     C71385   7.618   3.152   2.520  0.0124 -1.1534  0.4015
  518MOL0     C71386   7.535   3.091   2.633  0.0937  0.1373  1.2979
  518MOL0     C71387   7.390   3.112   2.584  1.0488 -0.2593 -0.0549
  518MOL0     C71388   7.289   3.041   2.668  0.7903  0.5303  0.1704
  518MOL0     C71389   7.145   3.042   2.617 -0.5010 -0.1053 -0.0621
  518MOL0     C71390   7.046   2.972   2.699 -0.2204 -0.0618 -0.4803
  518MOL0    Cl71391   7.102   2.799   2.721  0.2640  0.1271 -0.0833
  518MOL0     C71392   8.008   3.458   2.360  0.1585 -0.2693  1.3986
  518MOL0     C71393   8.086   3.555   2.302  0.0307  0.2377  0.1454
  518MOL0     O71394   8.457   3.502   2.274  0.4808  0.2103 -0.4112
  518MOL0     C71395   8.422   3.821   2.114  0.0723  0.6401  0.0080
  518MOL0     C71396   8.489   3.913   2.034  0.3424 -0.3452 -1.0444
  518MOL0     N71397   8.707   4.543   1.605 -0.8632  0.2693 -0.3821
  518MOL0     N71398   8.644   4.563   1.494 -0.2014 -0.8470 -0.5573
  518MOL0     C71399   7.935   4.107   1.217 -0.4759  0.5708 -0.3860
  518MOL0     C71400   7.802   4.120   1.243 -0.9551  0.0514  0.6795
  518MOL0     C71401   7.398   4.026   1.359 -0.3857 -0.3371 -0.2474
  518MOL0     C71402   7.300   3.997   1.259 -0.4823 -0.5044 -0.2263
  518MOL0     C71403   7.165   4.007   1.299  0.2812  0.5740  0.0473
  518MOL0     C71404   7.136   4.034   1.438  0.5644  0.8299  0.9359
  518MOL0     O71405   7.012   4.027   1.499  0.1429  0.1278 -0.3556
  518MOL0     C71406   6.889   4.017   1.424 -0.8965 -0.1780 -0.2747
  518MOL0     C71407   6.780   4.055   1.532 -0.1335 -0.2933 -0.0826
  518MOL0     C71408   6.718   3.938   1.619 -0.5358 -0.6575 -0.4758
  518MOL0     C71409   6.638   3.983   1.750  0.7999 -1.0527  0.4042
  518MOL0     C71410   6.508   4.057   1.713  0.8158  0.1320  0.0958
  518MOL0     C71411   6.402   4.114   1.687  0.0255 -0.3215  0.9565
  518MOL0     C71412   7.237   4.062   1.529  0.6208  0.0399  0.5441
  518MOL0     C71413   7.372   4.063   1.491  0.0913  0.2519  0.4466
  518MOL0     C71414   7.469   4.091   1.599 -0.0426 -0.0569 -0.3296
  518MOL0     H71415   7.665   3.961   0.990 -2.2872 -2.0989  2.5024
  518MOL0     H71416   7.903   3.931   0.933  1.5274  0.0345  0.2632
  518MOL0     H71417   8.150   4.047   0.888  2.0894  2.8374  2.1917
  518MOL0     H71418   8.142   3.882   0.964  1.3346 -1.2076  1.9505
  518MOL0     H71419   8.361   3.953   1.085  4.1269 -0.2167 -1.1950
  518MOL0     H71420   8.370   3.917   0.911  0.8799  0.0293  1.4581
  518MOL0     H71421   8.501   4.115   0.914  0.0164  1.4750 -0.1271
  518MOL0     H71422   8.334   4.183   0.893 -0.2461 -1.0636 -0.6633
  518MOL0     H71423   8.331   4.201   1.135 -0.1342 -2.0097 -0.6295
  518MOL0     H71424   8.499   4.151   1.148  1.9844 -0.3359 -2.6798
  518MOL0     H71425   8.422   4.383   0.983 -1.0314 -0.6241  0.6643
  518MOL0     H71426   8.590   4.331   1.008  0.9307  1.8203 -0.0096
  518MOL0     H71427   8.615   4.408   1.208  0.9745 -0.2792 -2.0414
  518MOL0     H71428   8.508   4.538   1.153 -2.7427  0.4569  1.0991
  518MOL0     H71429   8.413   4.321   1.332  2.7983  0.4261  0.9918
  518MOL0     H71430   8.305   4.426   1.243 -0.4487 -1.0846 -0.3077
  518MOL0     H71431   8.437   4.624   1.334 -3.0800  0.5592 -0.1977
  518MOL0     H71432   8.309   4.545   1.421 -0.1802  1.1402 -2.4608
  518MOL0     H71433   8.421   4.390   1.666  0.9171 -0.1207  0.4355
  518MOL0     H71434   8.591   4.428   1.878  1.1514  0.1357  1.0698
  518MOL0     H71435   8.755   4.464   1.843 -0.3219 -1.9838  3.8693
  518MOL0     H71436   8.610   4.199   1.787 -1.3595  0.2246  2.1700
  518MOL0     H71437   8.773   4.230   1.726  0.5680 -1.8551  1.2421
  518MOL0     H71438   8.870   4.249   1.934  0.2573 -0.6152 -1.5942
  518MOL0     H71439   8.706   4.249   2.017 -1.8036  0.8471 -2.4696
  518MOL0     H71440   8.862   4.019   1.884 -0.2125 -1.6080 -0.4417
  518MOL0     H71441   8.819   4.049   2.057  0.3666  3.6380  0.1704
  518MOL0     H71442   8.799   3.809   2.054 -0.0125  1.9657  0.6991
  518MOL0     H71443   8.754   3.602   2.303  1.0313 -0.1723  0.5702
  518MOL0     H71444   8.819   3.584   2.144 -0.4949 -0.5210 -0.2861
  518MOL0     H71445   8.690   3.479   2.191  0.5994  0.4142  1.4599
  518MOL0     H71446   8.348   3.508   2.506  1.7449 -2.6025 -3.3383
  518MOL0     H71447   8.216   3.338   2.594  3.0050 -2.1942 -2.0536
  518MOL0     H71448   7.800   3.334   2.460 -1.1732 -0.9686 -0.4746
  518MOL0     H71449   7.848   3.195   2.359 -0.8085  1.1314  0.3414
  518MOL0     H71450   7.819   3.064   2.582  1.1523  0.0329  0.9402
  518MOL0     H71451   7.789   3.204   2.664 -2.2193 -0.7665  1.9916
  518MOL0     H71452   7.608   3.095   2.427 -0.0641 -0.5568  0.0355
  518MOL0     H71453   7.585   3.256   2.504  2.6768 -0.3614 -0.5031
  518MOL0     H71454   7.549   3.151   2.723 -0.7117 -0.7753  2.0514
  518MOL0     H71455   7.555   2.984   2.650  0.0646  0.1891  1.6704
  518MOL0     H71456   7.367   3.218   2.571  0.1037 -0.3785  0.5786
  518MOL0     H71457   7.389   3.071   2.482  1.0895 -0.3215 -0.0299
  518MOL0     H71458   7.289   3.062   2.775 -2.5068 -3.6141  1.2371
  518MOL0     H71459   7.321   2.936   2.670 -1.0282 -0.0483  0.7709
  518MOL0     H71460   7.145   2.990   2.520 -3.7479 -0.0919 -0.1795
  518MOL0     H71461   7.115   3.143   2.588 -0.5187 -0.6208 -1.9717
  518MOL0     H71462   6.950   2.976   2.646  1.2766  1.4159 -3.2919
  518MOL0     H71463   7.029   3.011   2.800  2.0258  2.3787 -0.9284
  518MOL0     H71464   7.913   3.458   2.307  0.9124 -1.9095 -0.0341
  518MOL0     H71465   8.057   3.612   2.214 -0.4129 -1.5146 -0.9039
  518MOL0     H71466   8.318   3.849   2.121 -1.1015 -1.9978 -3.5937
  518MOL0     H71467   8.425   3.982   1.981 -1.8879 -1.7605 -0.3119
  518MOL0     H71468   8.012   4.156   1.276  2.6745 -4.6138  0.3930
  518MOL0     H71469   7.769   4.190   1.319  0.4125  0.6378  0.7503
  518MOL0     H71470   7.319   3.958   1.160  0.7028  2.0405 -1.1079
  518MOL0     H71471   7.087   3.994   1.225  2.0668 -0.5880 -1.7656
  518MOL0     H71472   6.884   4.094   1.346 -0.1534  1.3131  1.0630
  518MOL0     H71473   6.880   3.917   1.382 -1.5480 -0.6323  0.9062
  518MOL0     H71474   6.700   4.087   1.465  0.2391  0.3622 -0.2282
  518MOL0     H71475   6.818   4.141   1.588  0.1152 -0.6024  0.2281
  518MOL0     H71476   6.670   3.866   1.552 -0.1520 -1.1771 -0.2053
  518MOL0     H71477   6.815   3.900   1.652  0.9927  0.4771 -3.3054
  518MOL0     H71478   6.703   4.054   1.801  0.2736 -0.6040  0.4587
  518MOL0     H71479   6.617   3.892   1.808  0.0422  0.6033  2.8835
  518MOL0     H71480   6.304   4.158   1.682  0.1761 -0.0174  0.7091
  518MOL0     H71481   7.212   4.080   1.633  0.4196  1.0392  0.3300
  518MOL0     H71482   7.574   4.091   1.568  0.4935 -1.0795  1.3433
  518MOL0     H71483   7.447   4.188   1.643  3.7306  1.3148 -1.0759
  518MOL0     H71484   7.463   4.013   1.675 -0.3672  1.2431  1.0309
  519MOL0     O71485   6.289   1.271   5.577 -0.2999  0.5891  0.1680
  519MOL0     C71486   6.264   1.364   5.498 -0.3173  0.0407 -0.1674
  519MOL0     O71487   6.143   1.409   5.469  0.2199 -0.5000  0.4986
  519MOL0     C71488   6.026   1.358   5.515 -0.4060 -1.3349  0.0090
  519MOL0     C71489   5.996   1.218   5.528  1.2005  0.5810 -0.0452
  519MOL0     C71490   5.867   1.170   5.550 -0.0593 -0.5121 -0.8657
  519MOL0     C71491   5.767   1.266   5.558  0.0110 -0.2383  0.1224
  519MOL0     O71492   5.639   1.221   5.578 -0.3333 -0.6590  0.0982
  519MOL0     C71493   5.525   1.288   5.522 -0.7177 -0.4967 -0.1281
  519MOL0     C71494   5.402   1.199   5.523 -0.4778 -0.1253 -0.4640
  519MOL0     C71495   5.277   1.278   5.485 -0.0098  0.1768  0.5416
  519MOL0     C71496   5.157   1.187   5.460 -0.2478 -0.4534 -0.2023
  519MOL0     C71497   5.036   1.273   5.416  0.5441  0.3678 -0.3687
  519MOL0     C71498   5.039   1.295   5.263 -0.6356  0.2923 -1.0524
  519MOL0     C71499   4.901   1.327   5.224  0.3027 -0.1066  0.8589
  519MOL0     C71500   4.885   1.367   5.077  0.6574  0.0264 -0.3262
  519MOL0     N71501   4.952   1.492   5.050 -0.2472  0.4595 -0.1092
  519MOL0     C71502   5.032   1.527   4.949  0.4331 -0.2625 -0.8064
  519MOL0     C71503   5.085   1.646   4.981  0.4390  0.3013  0.1537
  519MOL0     C71504   5.185   1.709   4.899  0.4313  0.8106 -0.7012
  519MOL0     C71505   5.317   1.629   4.905 -0.1873  0.5737 -1.1514
  519MOL0     C71506   5.435   1.726   4.921  0.1824  0.3690 -0.1433
  519MOL0     C71507   5.455   1.809   4.795 -0.5409 -0.4967 -0.7081
  519MOL0     O71508   5.589   1.836   4.758 -0.4783 -0.3610 -0.2153
  519MOL0     C71509   5.654   1.740   4.692 -0.1728  0.8771  0.7063
  519MOL0     C71510   5.782   1.769   4.657 -0.4905  0.5140 -0.2061
  519MOL0     C71511   5.876   1.671   4.614 -0.0197  0.2562 -0.1264
  519MOL0     C71512   6.020   1.716   4.607 -0.6915  0.2077 -0.3413
  519MOL0     C71513   5.818   1.546   4.574 -1.0344  1.2198  0.8018
  519MOL0     C71514   5.897   1.445   4.497 -0.1849  0.3358 -0.9111
  519MOL0     O71515   6.004   1.486   4.424 -0.1288 -0.0064 -0.0764
  519MOL0     C71516   6.074   1.390   4.347 -0.1837  0.8094  0.1046
  519MOL0     C71517   6.135   1.278   4.406  0.5208 -0.7399  0.0145
  519MOL0     C71518   6.214   1.196   4.330  0.4605 -0.3447 -0.5295
  519MOL0     C71519   6.241   1.217   4.191  0.9592 -0.3783  0.1143
  519MOL0     O71520   6.348   1.153   4.143  0.4446 -0.4337 -0.4595
  519MOL0     C71521   6.325   1.061   4.039 -0.3876  0.2519 -0.5875
  519MOL0     C71522   6.455   1.029   3.959  0.6408 -0.2479  0.9192
  519MOL0     C71523   6.550   0.941   4.044  0.4836  0.2432  0.0212
  519MOL0     C71524   6.685   0.927   3.979  0.3938 -0.1605  0.7261
  519MOL0     C71525   6.794   0.859   4.066 -0.6715  0.4088  0.3051
  519MOL0     C71526   6.937   0.862   4.002  0.2559  0.3878 -0.9670
  519MOL0     C71527   7.040   0.779   4.079  0.1589  0.5626  0.2194
  519MOL0     C71528   7.187   0.833   4.044  1.2227 -0.0337  1.2927
  519MOL0    Cl71529   7.222   0.844   3.868 -0.0091 -0.1075 -0.0423
  519MOL0     C71530   6.180   1.323   4.132 -0.0044  0.0347 -0.2813
  519MOL0     C71531   6.096   1.407   4.206  0.0260 -0.5047 -0.6204
  519MOL0     O71532   5.857   1.331   4.504  0.1370  0.1807 -0.2683
  519MOL0     C71533   5.689   1.517   4.604  0.1215 -0.2084  0.2025
  519MOL0     C71534   5.611   1.609   4.669  0.6438 -0.9618  0.5901
  519MOL0     N71535   5.032   1.696   5.099  1.1270  0.4844 -0.0451
  519MOL0     N71536   4.944   1.604   5.133 -0.3317  0.2216 -0.0805
  519MOL0     C71537   5.793   1.402   5.550 -0.0599 -0.4732  0.2591
  519MOL0     C71538   5.918   1.443   5.527 -0.5422  0.6478 -0.4973
  519MOL0     C71539   6.381   1.434   5.454  0.0627 -0.2050  0.0199
  519MOL0     C71540   6.354   1.565   5.393 -0.3894 -0.0268  0.1337
  519MOL0     C71541   6.459   1.649   5.339 -0.0390  0.6194 -0.0921
  519MOL0     C71542   6.588   1.601   5.336 -1.0586 -0.7190 -0.0374
  519MOL0     O71543   6.703   1.660   5.282 -0.2277 -0.7419  0.0373
  519MOL0     C71544   6.694   1.788   5.212 -0.5952  0.4149  0.3996
  519MOL0     C71545   6.826   1.869   5.236  0.4688  0.4931  0.5871
  519MOL0     C71546   6.817   2.025   5.197  0.8114 -0.0362 -0.9293
  519MOL0     C71547   6.710   2.093   5.278 -0.5070 -0.4777  0.1015
  519MOL0     C71548   6.747   2.104   5.417 -0.0707 -0.7338  0.0860
  519MOL0     C71549   6.775   2.100   5.536 -0.4444 -0.2178  0.6488
  519MOL0     C71550   6.617   1.482   5.397 -0.4368 -0.1658 -0.3332
  519MOL0     C71551   6.516   1.397   5.460 -0.0992  0.8617  0.5512
  519MOL0     C71552   6.572   1.270   5.531  0.5242  0.2064 -0.3168
  519MOL0     H71553   6.077   1.147   5.512  1.9608  0.9698  1.8073
  519MOL0     H71554   5.848   1.063   5.557 -2.1026 -0.1674 -0.4486
  519MOL0     H71555   5.544   1.314   5.417 -2.4822 -1.5263 -0.7319
  519MOL0     H71556   5.507   1.375   5.587  0.1188 -1.6261  1.7017
  519MOL0     H71557   5.431   1.128   5.445 -1.7041  0.1629 -1.2132
  519MOL0     H71558   5.389   1.145   5.617 -0.8478  2.2697  0.9254
  519MOL0     H71559   5.256   1.356   5.558  4.2672  2.5898 -0.4722
  519MOL0     H71560   5.297   1.334   5.394  3.0258 -1.1804  0.2492
  519MOL0     H71561   5.182   1.121   5.376 -0.7909  0.6157 -1.2224
  519MOL0     H71562   5.132   1.124   5.546  0.8042  1.0106  1.2382
  519MOL0     H71563   5.033   1.367   5.472 -0.2712 -0.1352  0.4712
  519MOL0     H71564   4.940   1.225   5.436  0.3173  0.0815 -2.0020
  519MOL0     H71565   5.121   1.361   5.234 -0.0691  0.6624  1.1901
  519MOL0     H71566   5.063   1.199   5.216  5.1106  0.9202 -0.1836
  519MOL0     H71567   4.845   1.400   5.284 -0.3783  0.8515 -0.8965
  519MOL0     H71568   4.841   1.238   5.242  1.2212 -0.7113  1.0062
  519MOL0     H71569   4.929   1.285   5.019  0.3910 -0.8564  0.6784
  519MOL0     H71570   4.779   1.377   5.052  0.3860  0.0671  0.7531
  519MOL0     H71571   5.037   1.468   4.858  0.2751  1.3389 -1.8956
  519MOL0     H71572   5.192   1.818   4.913 -2.3192  1.2991 -2.3342
  519MOL0     H71573   5.135   1.710   4.802 -0.2998  0.3362 -0.3309
  519MOL0     H71574   5.325   1.556   4.986  1.3861  2.4250  0.4895
  519MOL0     H71575   5.326   1.579   4.809 -1.4011  0.1348 -1.0502
  519MOL0     H71576   5.408   1.787   5.008 -0.4829 -0.1059 -0.0066
  519MOL0     H71577   5.530   1.678   4.944  1.3046  2.1888 -0.7384
  519MOL0     H71578   5.396   1.761   4.716  0.9004 -1.4384 -1.2521
  519MOL0     H71579   5.406   1.904   4.818  2.5602  0.5750  2.4055
  519MOL0     H71580   5.819   1.868   4.680 -0.7549  0.7016 -0.5675
  519MOL0     H71581   6.056   1.750   4.704  1.8845 -0.9588 -0.7999
  519MOL0     H71582   6.037   1.803   4.543 -1.0751  2.7650  2.7932
  519MOL0     H71583   6.079   1.625   4.590 -0.4182  0.5770 -1.5108
  519MOL0     H71584   6.122   1.255   4.512  2.1854 -0.0034  0.4011
  519MOL0     H71585   6.262   1.114   4.383  0.1894  1.0703  2.0798
  519MOL0     H71586   6.295   0.959   4.067 -0.1490 -0.4576 -2.7346
  519MOL0     H71587   6.244   1.097   3.975 -1.3535  0.4982  0.7483
  519MOL0     H71588   6.427   0.971   3.871  1.5985  1.5622 -0.6781
  519MOL0     H71589   6.505   1.122   3.929 -2.0336  2.0063  2.8700
  519MOL0     H71590   6.509   0.841   4.059  0.8556  0.0723 -0.1114
  519MOL0     H71591   6.563   0.994   4.139  2.1805 -1.2036  0.6342
  519MOL0     H71592   6.721   1.026   3.949 -1.7398 -0.0321 -1.7786
  519MOL0     H71593   6.680   0.874   3.884 -0.5862 -0.6116  1.0224
  519MOL0     H71594   6.795   0.907   4.164  2.3292 -1.1509  1.1450
  519MOL0     H71595   6.780   0.751   4.079 -0.8301  0.5757  1.6665
  519MOL0     H71596   6.964   0.968   3.996  0.9094  0.4237  1.4230
  519MOL0     H71597   6.922   0.820   3.902 -0.0527 -1.9007 -0.0220
  519MOL0     H71598   7.035   0.676   4.042  2.5938 -0.3535  2.1290
  519MOL0     H71599   7.017   0.786   4.185 -1.5609  3.2774 -0.2302
  519MOL0     H71600   7.261   0.764   4.086  0.3463 -1.0784  1.1460
  519MOL0     H71601   7.197   0.932   4.090  1.7458  0.3396  0.3924
  519MOL0     H71602   6.218   1.346   4.033  2.1705 -0.0221  0.4706
  519MOL0     H71603   6.056   1.499   4.164  0.1180 -0.9081 -1.6147
  519MOL0     H71604   5.645   1.420   4.581  1.1299 -0.5342 -0.4596
  519MOL0     H71605   5.514   1.568   4.697 -0.9972  0.4670 -2.4046
  519MOL0     H71606   5.718   1.479   5.554  2.5275  2.2013  2.9067
  519MOL0     H71607   5.944   1.547   5.509 -0.8426  0.8145 -0.0159
  519MOL0     H71608   6.250   1.594   5.389 -0.4417 -0.1073  0.7923
  519MOL0     H71609   6.427   1.741   5.293 -3.8835 -0.3415  0.3100
  519MOL0     H71610   6.683   1.766   5.106  0.8041 -0.6696  0.4524
  519MOL0     H71611   6.602   1.842   5.236  0.5996  3.3293 -1.1413
  519MOL0     H71612   6.895   1.815   5.170  0.7546 -1.1070  2.1144
  519MOL0     H71613   6.858   1.871   5.341 -0.8702  2.8486  1.0128
  519MOL0     H71614   6.915   2.068   5.221  0.8344 -0.5445 -0.1019
  519MOL0     H71615   6.786   2.030   5.092  0.3639  0.1747 -0.7861
  519MOL0     H71616   6.613   2.045   5.267 -1.1927  1.2473 -2.1836
  519MOL0     H71617   6.699   2.196   5.244 -1.8476 -0.6607 -0.0634
  519MOL0     H71618   6.794   2.096   5.641 -2.7974  0.6232  1.1797
  519MOL0     H71619   6.722   1.455   5.403  0.4767  2.6731 -1.5786
  519MOL0     H71620   6.672   1.244   5.495  0.6501  1.6124 -1.0490
  519MOL0     H71621   6.568   1.284   5.639 -2.1198  0.7861 -0.4311
  519MOL0     H71622   6.505   1.187   5.507  1.4703 -0.3551 -1.1072
  520MOL0     O71623   4.390   8.527   4.789 -0.4146  0.1357  0.3479
  520MOL0     C71624   4.417   8.557   4.675  0.3046  0.1893 -0.9051
  520MOL0     O71625   4.340   8.638   4.594  0.6602 -0.3094  0.1317
  520MOL0     C71626   4.256   8.721   4.665  0.4183  0.3198 -0.2219
  520MOL0     C71627   4.290   8.785   4.789  0.9878 -0.4921  0.1677
  520MOL0     C71628   4.196   8.873   4.851  0.1492  0.5620  0.3774
  520MOL0     C71629   4.064   8.880   4.804  0.1357 -0.3715 -0.6998
  520MOL0     O71630   3.982   8.944   4.894 -0.5370  0.1864 -0.2689
  520MOL0     C71631   3.853   8.985   4.832 -0.2503 -1.2992 -0.6059
  520MOL0     C71632   3.817   9.131   4.868  0.2063  0.5672 -0.3905
  520MOL0     C71633   3.907   9.234   4.810  0.3071 -0.4041  0.1426
  520MOL0     C71634   3.867   9.370   4.846 -0.4832  0.1201 -0.4678
  520MOL0     C71635   3.959   9.472   4.766 -0.3557 -0.3497 -0.8985
  520MOL0     C71636   3.961   9.614   4.823 -0.6955 -0.7417 -0.1223
  520MOL0     C71637   3.850   9.700   4.762  0.5250 -0.1527 -0.6243
  520MOL0     C71638   3.806   9.812   4.852 -0.3374 -0.3452 -0.1496
  520MOL0     N71639   3.896   9.925   4.846 -0.6309  0.1973  0.4933
  520MOL0     C71640   3.986   9.951   4.938 -0.3406  0.5483  0.2234
  520MOL0     C71641   4.015  10.082   4.926 -1.1256  0.0226 -0.5641
  520MOL0     C71642   4.131  10.140   5.000 -0.2782 -0.5955  0.2188
  520MOL0     C71643   4.067  10.255   5.083 -0.1980 -0.9085 -0.5060
  520MOL0     C71644   4.150  10.306   5.199 -0.6266 -0.1646  0.1337
  520MOL0     C71645   4.289  10.347   5.161 -0.3317 -0.5148 -0.3842
  520MOL0     O71646   4.337  10.375   5.295 -0.0426  0.6587  0.6604
  520MOL0     C71647   4.460  10.438   5.311  0.5297  0.0939  0.2049
  520MOL0     C71648   4.507  10.455   5.440 -0.0993 -0.1459 -0.7810
  520MOL0     C71649   4.627  10.528   5.458 -0.0577  0.0643 -0.3508
  520MOL0     C71650   4.677  10.542   5.603  0.6020 -1.2090  0.1838
  520MOL0     C71651   4.701  10.583   5.346  0.0618 -0.6499  0.3563
  520MOL0     C71652   4.822  10.672   5.368 -0.1987  0.1597  0.2454
  520MOL0     O71653   4.840  10.732   5.488  0.6151 -0.2617 -0.3934
  520MOL0     C71654   4.968  10.763   5.513 -0.3087  0.3397 -0.4748
  520MOL0     C71655   5.068  10.664   5.539 -0.0925 -0.1805 -0.0311
  520MOL0     C71656   5.200  10.712   5.572  0.0916  0.7118 -0.2876
  520MOL0     C71657   5.226  10.848   5.592  0.3672  1.0566  0.3800
  520MOL0     O71658   5.355  10.889   5.609 -0.2787 -0.0801  0.0195
  520MOL0     C71659   5.402  11.005   5.543  0.8353  0.0917 -0.3101
  520MOL0     C71660   5.545  10.987   5.493  0.4260 -0.0444 -0.0488
  520MOL0     C71661   5.635  11.000   5.620  0.0034  0.6247  0.3630
  520MOL0     C71662   5.783  10.966   5.595 -0.5392 -0.4370  0.6925
  520MOL0     C71663   5.877  11.022   5.707 -0.0165 -0.5795 -0.5386
  520MOL0     C71664   6.024  11.020   5.684  0.1140  0.5891 -0.3939
  520MOL0     C71665   6.082  10.878   5.701 -0.3392 -0.2952 -0.4573
  520MOL0     C71666   6.224  10.860   5.649  0.8364  0.2344 -0.2636
  520MOL0    Cl71667   6.320  10.706   5.694 -0.2264 -0.0350  0.3298
  520MOL0     C71668   5.119  10.938   5.576 -0.4689 -0.4571 -0.0440
  520MOL0     C71669   4.992  10.898   5.535 -0.3919 -0.2203 -1.2054
  520MOL0     O71670   4.897  10.672   5.274  0.4535  0.6070 -0.5594
  520MOL0     C71671   4.655  10.548   5.225 -0.3241  0.1984 -0.2023
  520MOL0     C71672   4.540  10.484   5.208  0.0494 -0.6811  0.5812
  520MOL0     N71673   3.955  10.127   4.810 -0.0332  0.3513 -0.2927
  520MOL0     N71674   3.871  10.037   4.772 -0.6087  0.5213  0.1675
  520MOL0     C71675   4.033   8.818   4.685 -0.0720  0.7197  0.8305
  520MOL0     C71676   4.127   8.743   4.612  0.3434 -0.0169 -0.6528
  520MOL0     C71677   4.543   8.512   4.619  0.2163  0.9660 -0.8299
  520MOL0     C71678   4.534   8.411   4.516 -0.7621 -0.5725 -0.5371
  520MOL0     C71679   4.645   8.353   4.464 -0.6052  0.1951 -0.0374
  520MOL0     C71680   4.772   8.375   4.517  0.1701  0.0653  0.0940
  520MOL0     O71681   4.870   8.311   4.450 -0.4105  0.3398 -0.2783
  520MOL0     C71682   5.009   8.305   4.499  0.1411  0.5359  0.4165
  520MOL0     C71683   5.034   8.165   4.572  0.6454  0.0191  1.1728
  520MOL0     C71684   5.153   8.163   4.666 -0.0396 -0.6255  0.1415
  520MOL0     C71685   5.203   8.029   4.715 -0.2710 -0.6985  0.0853
  520MOL0     C71686   5.280   7.963   4.602 -0.0505 -0.3802 -0.3461
  520MOL0     C71687   5.346   7.942   4.503  0.1133  0.6432 -0.1180
  520MOL0     C71688   4.775   8.475   4.620 -0.4004 -0.3728  0.3159
  520MOL0     C71689   4.674   8.551   4.670  0.3227  0.2512  0.6977
  520MOL0     C71690   4.691   8.634   4.795  0.0703  0.1310 -0.6214
  520MOL0     H71691   4.390   8.783   4.830  0.5827 -0.8330  1.1870
  520MOL0     H71692   4.231   8.927   4.937 -2.3862  3.2531 -0.1272
  520MOL0     H71693   3.785   8.913   4.878 -0.5778 -0.3053  0.4944
  520MOL0     H71694   3.842   8.988   4.723 -1.8461  2.8571 -0.5424
  520MOL0     H71695   3.717   9.160   4.835  0.5818  1.0334 -1.1430
  520MOL0     H71696   3.818   9.126   4.978  1.5957 -2.1387 -0.4343
  520MOL0     H71697   4.010   9.218   4.844  1.1849  1.7818 -1.2498
  520MOL0     H71698   3.910   9.200   4.706  2.6251 -2.5759  0.8095
  520MOL0     H71699   3.761   9.390   4.832  0.1120  2.3138 -2.4570
  520MOL0     H71700   3.885   9.389   4.952  0.9908 -1.5995 -0.3531
  520MOL0     H71701   3.928   9.466   4.661 -3.2909 -0.8410 -0.1198
  520MOL0     H71702   4.061   9.434   4.767 -0.1980  0.0784 -0.4989
  520MOL0     H71703   3.943   9.608   4.931  0.6376 -1.7829  0.0651
  520MOL0     H71704   4.060   9.658   4.804  1.2112 -3.9917  1.4235
  520MOL0     H71705   3.758   9.640   4.763  0.4141 -0.2461  3.5459
  520MOL0     H71706   3.881   9.739   4.665 -0.6263 -0.4345 -1.1233
  520MOL0     H71707   3.705   9.836   4.818 -1.7299 -3.4863  1.3034
  520MOL0     H71708   3.784   9.780   4.955  0.9063  0.6079  0.4460
  520MOL0     H71709   4.020   9.876   5.009 -1.7481 -1.7325 -1.4046
  520MOL0     H71710   4.207  10.167   4.926 -0.7692 -0.5142 -0.2610
  520MOL0     H71711   4.182  10.069   5.067  1.3360  0.1789 -0.1408
  520MOL0     H71712   4.041  10.337   5.015 -5.4305 -1.9953 -0.2292
  520MOL0     H71713   3.977  10.219   5.134 -0.1176  2.0347  2.0920
  520MOL0     H71714   4.097  10.387   5.251 -2.7164 -1.1292 -0.3970
  520MOL0     H71715   4.150  10.224   5.272 -1.4812 -1.1952 -0.9972
  520MOL0     H71716   4.355  10.273   5.116 -0.6704 -1.5991  0.8337
  520MOL0     H71717   4.278  10.431   5.092 -0.2344 -0.5305 -0.4185
  520MOL0     H71718   4.450  10.416   5.524  0.3062  0.0799 -0.3993
  520MOL0     H71719   4.654  10.647   5.626 -2.1104 -1.1419 -2.2175
  520MOL0     H71720   4.783  10.518   5.609  0.9737  0.2753  0.0566
  520MOL0     H71721   4.621  10.486   5.678 -0.3180 -2.2128 -1.1967
  520MOL0     H71722   5.049  10.559   5.522  1.3880 -0.2206 -1.8092
  520MOL0     H71723   5.285  10.648   5.592  0.2031  1.7134  3.0745
  520MOL0     H71724   5.340  11.018   5.454  2.7576 -0.5297 -1.8035
  520MOL0     H71725   5.375  11.095   5.600  3.0764  0.6789 -0.0988
  520MOL0     H71726   5.555  10.894   5.437  0.3389  0.2723 -0.6060
  520MOL0     H71727   5.572  11.073   5.429 -2.3118 -0.1395 -1.4997
  520MOL0     H71728   5.600  10.922   5.688  0.9846 -1.2680 -1.1945
  520MOL0     H71729   5.633  11.106   5.646  1.1201  0.8902 -0.5825
  520MOL0     H71730   5.801  11.019   5.501 -1.3106 -0.1965  0.6789
  520MOL0     H71731   5.804  10.861   5.573 -3.3430 -1.2736  1.6095
  520MOL0     H71732   5.854  11.129   5.708  3.1041  0.2076  0.6496
  520MOL0     H71733   5.861  10.989   5.810 -0.6913  1.8990  0.2238
  520MOL0     H71734   6.076  11.086   5.754 -1.1471  0.8928  0.2765
  520MOL0     H71735   6.035  11.064   5.584 -1.2369 -2.6073 -2.0919
  520MOL0     H71736   6.008  10.805   5.667 -0.5013 -0.7179  0.7492
  520MOL0     H71737   6.092  10.869   5.810 -3.3822 -0.5980 -0.1210
  520MOL0     H71738   6.289  10.942   5.679  1.5045 -0.3897  0.0201
  520MOL0     H71739   6.215  10.862   5.540  0.7080 -1.9313 -0.3388
  520MOL0     H71740   5.147  11.041   5.596  0.6246 -1.4322  4.5146
  520MOL0     H71741   4.921  10.978   5.520  1.1146  1.5993  0.7052
  520MOL0     H71742   4.711  10.594   5.144 -0.7050 -1.2177 -1.3199
  520MOL0     H71743   4.512  10.475   5.103  2.0390 -0.2977 -0.0177
  520MOL0     H71744   3.931   8.820   4.647  0.3751  4.1984 -0.5820
  520MOL0     H71745   4.094   8.693   4.521 -0.5798  1.2258 -1.0379
  520MOL0     H71746   4.434   8.382   4.487 -0.1917  0.8573 -4.4906
  520MOL0     H71747   4.638   8.277   4.387  0.8507 -0.3422  0.3267
  520MOL0     H71748   5.067   8.334   4.410  1.2672  1.2200  1.3505
  520MOL0     H71749   5.038   8.384   4.569  2.4743  0.1176  0.0087
  520MOL0     H71750   5.057   8.094   4.492 -0.6160 -0.0326  0.8266
  520MOL0     H71751   4.947   8.138   4.632  0.0070 -1.4238 -0.3328
  520MOL0     H71752   5.238   8.223   4.631 -0.3221  0.1306  0.7096
  520MOL0     H71753   5.114   8.220   4.751  1.1482  0.6209 -0.1084
  520MOL0     H71754   5.118   7.966   4.743 -0.8243 -0.0638 -0.1370
  520MOL0     H71755   5.270   8.039   4.800 -0.1503 -1.6308  0.1176
  520MOL0     H71756   5.401   7.929   4.412 -0.3052  0.9432 -0.4208
  520MOL0     H71757   4.869   8.502   4.667 -2.0792  2.0328  2.5222
  520MOL0     H71758   4.793   8.671   4.809  1.0993 -2.2592 -1.2418
  520MOL0     H71759   4.632   8.724   4.778 -0.6672 -0.2351 -0.0745
  520MOL0     H71760   4.653   8.580   4.883  0.1487  1.4479  0.2444
  521MOL0     O71761   9.030  10.882   9.878 -0.6763 -0.0390  0.3108
  521MOL0     C71762   9.068  10.764   9.882  0.6177  0.4396  0.9249
  521MOL0     O71763   9.164  10.706   9.802 -0.4763  0.3132  0.6512
  521MOL0     C71764   9.245  10.785   9.722 -0.6006  0.1231  0.1025
  521MOL0     C71765   9.201  10.845   9.602 -0.1436  0.6700 -0.6050
  521MOL0     C71766   9.293  10.918   9.525  0.0485  0.1814  0.5210
  521MOL0     C71767   9.427  10.943   9.565 -0.1208 -0.4521 -0.3246
  521MOL0     O71768   9.526  11.006   9.492  0.6987 -0.1440 -0.0677
  521MOL0     C71769   9.492  11.091   9.377 -0.3126  0.5080  0.6316
  521MOL0     C71770   9.448  11.229   9.438 -0.7272  0.5356 -0.2555
  521MOL0     C71771   9.409  11.329   9.323 -0.2876  0.1482  0.2856
  521MOL0     C71772   9.303  11.432   9.368 -0.0742  0.9157  0.0888
  521MOL0     C71773   9.269  11.541   9.268  0.2775 -0.9646  0.2887
  521MOL0     C71774   9.152  11.625   9.319  0.6020  0.6962 -0.0294
  521MOL0     C71775   9.108  11.742   9.223 -0.1124  0.4125  0.6231
  521MOL0     C71776   9.218  11.844   9.204  0.3796 -0.7880  0.1472
  521MOL0     N71777   9.181  11.955   9.122  0.4803 -0.4430  0.5327
  521MOL0     C71778   9.178  11.935   8.988  0.7279 -0.7872 -0.4936
  521MOL0     C71779   9.171  12.069   8.938  0.0993  0.1662 -0.8333
  521MOL0     C71780   9.178  12.099   8.788  0.0714  0.0685  0.1764
  521MOL0     C71781   9.048  12.162   8.731 -0.3273 -0.2732  0.3260
  521MOL0     C71782   8.931  12.071   8.738 -0.3157  0.6910 -0.5507
  521MOL0     C71783   8.825  12.117   8.651  0.3729 -0.2820  0.3706
  521MOL0     O71784   8.726  12.012   8.658  0.1129  0.7550  0.9196
  521MOL0     C71785   8.612  12.027   8.575  0.2427  0.4906 -0.5200
  521MOL0     C71786   8.502  11.936   8.584  0.0013  0.1132 -0.3914
  521MOL0     C71787   8.384  11.941   8.513  0.4457 -0.4557 -0.0494
  521MOL0     C71788   8.284  11.838   8.543 -0.2934  0.0938  0.1754
  521MOL0     C71789   8.371  12.041   8.410  1.1436 -0.5027  0.1492
  521MOL0     C71790   8.252  12.071   8.329 -0.2318  0.7559 -0.3321
  521MOL0     O71791   8.280  12.112   8.203  0.2386  0.0925 -0.0358
  521MOL0     C71792   8.183  12.159   8.116 -0.6799  0.8822  0.7371
  521MOL0     C71793   8.222  12.179   7.982  0.5911  0.0628  0.1901
  521MOL0     C71794   8.139  12.240   7.888 -0.0635 -0.4863  0.2217
  521MOL0     C71795   8.014  12.283   7.924  0.0769  0.3841 -0.5948
  521MOL0     O71796   7.931  12.337   7.831  0.0403  0.4289  0.8540
  521MOL0     C71797   7.785  12.329   7.853  0.1984 -1.0415  0.7145
  521MOL0     C71798   7.713  12.393   7.733  1.0553 -1.3811 -0.3623
  521MOL0     C71799   7.740  12.547   7.740 -0.2064  0.2168 -0.2997
  521MOL0     C71800   7.684  12.633   7.628  0.2207 -1.5479  1.2442
  521MOL0     C71801   7.720  12.783   7.631  0.0025  0.3250  0.1363
  521MOL0     C71802   7.645  12.868   7.532 -0.1355 -0.2475  0.6182
  521MOL0     C71803   7.717  13.010   7.504 -0.0168 -0.4824  0.1503
  521MOL0     C71804   7.625  13.126   7.468  0.3688  0.1862  1.0467
  521MOL0    Cl71805   7.523  13.192   7.609 -0.3418  0.6661  0.1599
  521MOL0     C71806   7.980  12.278   8.064 -0.9702  0.5788  0.1975
  521MOL0     C71807   8.060  12.212   8.158  0.5240  0.4297 -0.3034
  521MOL0     O71808   8.142  12.042   8.378  0.6427  0.2357  0.1532
  521MOL0     C71809   8.482  12.127   8.393  0.5866  0.3021 -0.6463
  521MOL0     C71810   8.591  12.123   8.476  0.4103  0.1804  0.1046
  521MOL0     N71811   9.186  12.158   9.049 -0.5461 -0.4063  0.5051
  521MOL0     N71812   9.188  12.086   9.157  1.1611  0.3209  0.1889
  521MOL0     C71813   9.467  10.892   9.688 -0.6107  1.5138  0.3560
  521MOL0     C71814   9.378  10.811   9.768 -0.4138  0.3191  0.0305
  521MOL0     C71815   9.006  10.675   9.983  0.0954  0.7277  0.3266
  521MOL0     C71816   9.061  10.542   9.993  0.6156 -0.0419  0.0573
  521MOL0     C71817   9.011  10.456  10.083 -0.0088  0.4205 -0.0363
  521MOL0     C71818   8.893  10.486  10.157 -0.4992  1.2511 -0.2800
  521MOL0     O71819   8.850  10.383  10.248 -0.7025  0.1240  0.9886
  521MOL0     C71820   8.748  10.412  10.340 -0.2984  0.8803 -0.0966
  521MOL0     C71821   8.733  10.281  10.432  0.0828 -0.4175 -0.4158
  521MOL0     C71822   8.696  10.158  10.354  0.6880 -0.4441  0.4317
  521MOL0     C71823   8.710  10.037  10.442  0.3400  1.1903  0.0705
  521MOL0     C71824   8.678   9.916  10.355 -0.1884  0.5789 -1.0584
  521MOL0     C71825   8.664   9.821  10.289  0.4848  0.8308  0.0325
  521MOL0     C71826   8.832  10.611  10.145 -0.3386 -0.0529  0.0852
  521MOL0     C71827   8.895  10.712  10.062  0.3422 -0.0633 -0.2304
  521MOL0     C71828   8.822  10.845  10.063  0.5847  0.1417  0.1662
  521MOL0     H71829   9.101  10.835   9.562 -1.4445  0.3821  2.5191
  521MOL0     H71830   9.266  10.949   9.424  1.2385 -1.0566 -0.2098
  521MOL0     H71831   9.409  11.052   9.317  0.4205  0.6239 -0.4838
  521MOL0     H71832   9.573  11.099   9.304 -2.3632  1.2045 -1.7162
  521MOL0     H71833   9.360  11.203   9.497 -0.4511 -0.6839 -0.3583
  521MOL0     H71834   9.527  11.266   9.504 -0.4494 -2.1165  1.0219
  521MOL0     H71835   9.495  11.382   9.282  0.5667 -1.4652 -0.0867
  521MOL0     H71836   9.374  11.287   9.228  0.9174  1.3200 -0.7163
  521MOL0     H71837   9.211  11.374   9.386  0.3605  0.0647 -0.3755
  521MOL0     H71838   9.342  11.478   9.459  0.2504 -1.2121  1.0910
  521MOL0     H71839   9.238  11.505   9.170 -0.7310  4.5266 -1.7954
  521MOL0     H71840   9.358  11.605   9.260  0.5498 -0.8518  3.1917
  521MOL0     H71841   9.061  11.565   9.327  1.9798 -1.2578  1.9029
  521MOL0     H71842   9.163  11.666   9.419 -3.6831  2.7867 -0.1597
  521MOL0     H71843   9.013  11.794   9.240 -0.6341  0.1305 -1.1926
  521MOL0     H71844   9.089  11.711   9.120  1.0074  0.6063  0.3454
  521MOL0     H71845   9.246  11.862   9.309  1.7412 -0.4773 -0.2460
  521MOL0     H71846   9.312  11.817   9.155  1.9204  2.2996  1.1202
  521MOL0     H71847   9.179  11.839   8.938  4.6108 -0.1401 -1.9988
  521MOL0     H71848   9.209  12.014   8.727  1.7819  1.9122 -1.6747
  521MOL0     H71849   9.267  12.163   8.790 -0.6178  1.0371  1.6598
  521MOL0     H71850   9.022  12.257   8.779  0.2885  0.7284 -1.2336
  521MOL0     H71851   9.071  12.182   8.626 -1.5403  0.6873  0.2228
  521MOL0     H71852   8.957  11.968   8.712 -0.4302 -0.0354  1.9292
  521MOL0     H71853   8.899  12.079   8.842 -2.0169 -2.0239 -0.7745
  521MOL0     H71854   8.779  12.207   8.691  1.4534  0.1074  0.7990
  521MOL0     H71855   8.868  12.145   8.554  2.6291 -1.0282  1.0790
  521MOL0     H71856   8.527  11.876   8.671  0.4502  2.3277  1.0765
  521MOL0     H71857   8.251  11.794   8.449 -2.4259 -3.1896  2.2775
  521MOL0     H71858   8.202  11.882   8.601  1.5754  2.1310  1.4531
  521MOL0     H71859   8.335  11.761   8.601 -0.2497  0.2418  0.3377
  521MOL0     H71860   8.321  12.147   7.952  0.1358 -1.3629  0.1248
  521MOL0     H71861   8.176  12.238   7.786 -0.1529 -2.1356  0.1991
  521MOL0     H71862   7.744  12.229   7.868 -2.3618 -0.2796 -0.5828
  521MOL0     H71863   7.760  12.391   7.940 -1.5524 -0.7984  0.0872
  521MOL0     H71864   7.768  12.358   7.645  3.5974 -0.8037  0.8863
  521MOL0     H71865   7.604  12.387   7.731  0.5648  3.3348  0.9258
  521MOL0     H71866   7.849  12.559   7.749  0.1515 -1.5927 -1.8059
  521MOL0     H71867   7.706  12.586   7.837 -0.8187  1.8884 -1.1422
  521MOL0     H71868   7.577  12.619   7.612  0.5088 -2.4720 -0.0768
  521MOL0     H71869   7.737  12.600   7.538 -0.1521 -1.0194  0.8216
  521MOL0     H71870   7.699  12.824   7.730  2.3420  0.6706  0.5421
  521MOL0     H71871   7.826  12.798   7.607 -0.5599  0.6921 -2.3212
  521MOL0     H71872   7.546  12.880   7.576 -0.1544  1.6075  0.1593
  521MOL0     H71873   7.643  12.817   7.435 -0.1938  0.1748  0.3939
  521MOL0     H71874   7.788  12.990   7.423 -2.6967 -2.9789 -1.8052
  521MOL0     H71875   7.772  13.034   7.595  0.9259  0.1247 -0.5623
  521MOL0     H71876   7.561  13.091   7.386 -2.6124  1.7488  2.5758
  521MOL0     H71877   7.689  13.208   7.434  0.2500  1.5558  3.8965
  521MOL0     H71878   7.888  12.317   8.106  0.0349  4.6273 -0.8462
  521MOL0     H71879   8.031  12.220   8.263 -1.6306 -0.3750 -0.7981
  521MOL0     H71880   8.475  12.197   8.311  1.5503  0.3801 -0.6682
  521MOL0     H71881   8.667  12.193   8.442  2.0496 -2.1171 -1.2226
  521MOL0     H71882   9.566  10.920   9.724 -0.5633  1.0630  0.5954
  521MOL0     H71883   9.404  10.772   9.866 -0.2172 -0.2629 -0.2462
  521MOL0     H71884   9.139  10.506   9.926 -1.0242  0.2668 -2.1096
  521MOL0     H71885   9.044  10.352  10.087  2.1464  0.8219 -3.2556
  521MOL0     H71886   8.775  10.498  10.402  0.6982  0.9022 -0.5292
  521MOL0     H71887   8.654  10.438  10.290 -2.8886  0.1378  3.9442
  521MOL0     H71888   8.645  10.294  10.497  1.4788 -0.2373  1.5535
  521MOL0     H71889   8.826  10.272  10.489  2.2363  1.0153 -3.4440
  521MOL0     H71890   8.592  10.165  10.323  0.3004 -1.3749  1.4686
  521MOL0     H71891   8.764  10.143  10.269  2.7687 -1.2258  2.1162
  521MOL0     H71892   8.639  10.049  10.525 -0.7501  3.4507 -1.1176
  521MOL0     H71893   8.814  10.043  10.476  0.7736 -0.0911 -0.9500
  521MOL0     H71894   8.634   9.734  10.235 -2.0156  1.2346  0.6874
  521MOL0     H71895   8.742  10.632  10.201 -1.0015 -1.6597 -0.3116
  521MOL0     H71896   8.768  10.862   9.970  0.6420 -1.3654 -0.1643
  521MOL0     H71897   8.757  10.847  10.151  0.9237 -1.0551  0.4561
  521MOL0     H71898   8.898  10.923  10.079  1.4416 -0.6261 -0.1179
  522MOL0     O71899   5.139   4.853   4.381 -0.1472 -0.6514 -0.2994
  522MOL0     C71900   5.083   4.952   4.428  0.6247 -0.0460 -0.9459
  522MOL0     O71901   5.145   5.065   4.470 -0.1440  0.1050  0.3416
  522MOL0     C71902   5.284   5.076   4.454 -0.3637  0.5116  0.6676
  522MOL0     C71903   5.369   5.023   4.552  0.2825  0.4052 -0.5860
  522MOL0     C71904   5.508   5.022   4.539 -1.3115 -0.2016  0.3995
  522MOL0     C71905   5.571   5.072   4.422 -0.2070  0.2417 -0.2061
  522MOL0     O71906   5.708   5.070   4.400  0.4764  0.2280  0.0381
  522MOL0     C71907   5.775   4.947   4.440 -0.0298  0.3643  0.5323
  522MOL0     C71908   5.899   4.931   4.368  0.6860  0.0064  0.3579
  522MOL0     C71909   5.880   4.928   4.213  1.2438 -0.4237  0.2286
  522MOL0     C71910   5.996   4.838   4.153 -0.0836  0.4398  0.2987
  522MOL0     C71911   5.985   4.831   3.999  0.5507  0.4463  0.3427
  522MOL0     C71912   6.116   4.786   3.934 -0.3277 -0.2346  0.4172
  522MOL0     C71913   6.146   4.631   3.952  0.1481 -0.0435 -0.2175
  522MOL0     C71914   6.288   4.599   3.893  0.9470 -0.1296 -0.8823
  522MOL0     N71915   6.380   4.589   4.011 -0.0911  0.1255 -0.0370
  522MOL0     C71916   6.454   4.475   4.054  0.3372 -0.0260 -1.0182
  522MOL0     C71917   6.474   4.506   4.183  0.4635  0.4531 -0.7792
  522MOL0     C71918   6.512   4.401   4.297  0.2120 -0.3075 -0.3660
  522MOL0     C71919   6.649   4.440   4.379  0.2480  0.4781  0.1171
  522MOL0     C71920   6.707   4.314   4.470  0.8219 -0.8747  0.3612
  522MOL0     C71921   6.841   4.351   4.536 -0.1593 -0.0856 -0.3631
  522MOL0     O71922   6.812   4.464   4.624 -0.8719 -0.6633 -0.2222
  522MOL0     C71923   6.910   4.494   4.724 -0.1473 -0.4058  0.1314
  522MOL0     C71924   6.869   4.565   4.841 -0.2483 -0.4982 -0.7938
  522MOL0     C71925   6.959   4.587   4.954 -0.6325 -0.1710  0.2921
  522MOL0     C71926   6.906   4.678   5.065 -0.4156 -0.3358 -0.4376
  522MOL0     C71927   7.094   4.552   4.938  0.1354 -1.0754  0.0449
  522MOL0     C71928   7.201   4.601   5.037  0.3972 -0.3190 -0.0250
  522MOL0     O71929   7.157   4.644   5.165 -0.3914 -0.0638  0.6010
  522MOL0     C71930   7.253   4.636   5.264  1.2968  0.6673 -1.0642
  522MOL0     C71931   7.340   4.744   5.283  0.1099  0.7585 -0.0176
  522MOL0     C71932   7.435   4.746   5.381 -0.0101  0.4424  0.3179
  522MOL0     C71933   7.441   4.634   5.460 -0.7120  1.0706  0.0817
  522MOL0     O71934   7.537   4.617   5.562 -0.2480 -0.2582  0.3141
  522MOL0     C71935   7.664   4.688   5.548 -0.4763 -0.5495 -0.1269
  522MOL0     C71936   7.770   4.624   5.639  0.3353 -0.1955  0.1013
  522MOL0     C71937   7.836   4.497   5.577  0.3992  0.2565 -0.3975
  522MOL0     C71938   7.927   4.537   5.465  0.1255  0.0623  0.6661
  522MOL0     C71939   8.021   4.422   5.421  0.3702 -1.1227 -0.3721
  522MOL0     C71940   7.976   4.346   5.300 -0.0592 -0.2764  0.2642
  522MOL0     C71941   8.081   4.245   5.248 -0.0575  0.8055 -0.2777
  522MOL0     C71942   8.168   4.291   5.127 -0.4122  0.9284  0.8052
  522MOL0    Cl71943   8.281   4.417   5.159 -0.0739 -0.0410  0.0764
  522MOL0     C71944   7.359   4.522   5.444 -0.1266  0.3156  1.0815
  522MOL0     C71945   7.261   4.524   5.342 -0.4798 -1.0287 -0.0227
  522MOL0     O71946   7.321   4.576   5.004  0.3983  0.5658 -0.2281
  522MOL0     C71947   7.132   4.487   4.819 -0.2554 -1.2730 -0.3677
  522MOL0     C71948   7.040   4.458   4.718 -1.2240  0.6260  0.1806
  522MOL0     N71949   6.426   4.630   4.212 -0.1494  0.2077  0.4900
  522MOL0     N71950   6.371   4.680   4.109 -0.4017 -0.1259  0.1029
  522MOL0     C71951   5.489   5.138   4.329 -0.2910  0.7337  0.1338
  522MOL0     C71952   5.346   5.128   4.334 -0.0210 -0.8402 -0.0547
  522MOL0     C71953   4.932   4.959   4.437 -0.2349 -0.7101  0.9988
  522MOL0     C71954   4.881   5.093   4.455  0.8895 -0.1658  0.3366
  522MOL0     C71955   4.743   5.112   4.490  0.6841  0.5458 -0.0989
  522MOL0     C71956   4.656   5.007   4.512 -0.3820  0.2748  0.1661
  522MOL0     O71957   4.521   5.012   4.539 -0.0346  0.4646 -0.0437
  522MOL0     C71958   4.447   5.126   4.498  0.2546 -0.1682  0.3626
  522MOL0     C71959   4.293   5.111   4.513  1.0481 -0.1815  0.8747
  522MOL0     C71960   4.241   4.999   4.421 -0.3285  0.4118  0.8702
  522MOL0     C71961   4.087   4.967   4.443 -0.0219  0.6583 -0.2141
  522MOL0     C71962   4.009   5.089   4.442 -0.0246  0.5658  0.3943
  522MOL0     C71963   3.958   5.197   4.447 -0.0270 -0.2679 -0.6529
  522MOL0     C71964   4.709   4.880   4.489  0.3609  0.2450  0.1747
  522MOL0     C71965   4.845   4.853   4.453  0.3253 -0.3740 -0.1117
  522MOL0     C71966   4.878   4.699   4.435  0.1318 -1.2358  0.1689
  522MOL0     H71967   5.331   4.967   4.637 -1.4312  2.5835  0.1710
  522MOL0     H71968   5.571   4.985   4.619  0.2193 -0.0089 -0.6672
  522MOL0     H71969   5.724   4.852   4.421  0.7969  0.0007  0.0742
  522MOL0     H71970   5.792   4.955   4.548 -0.0514 -1.0974  0.6609
  522MOL0     H71971   5.968   5.014   4.382  2.4241 -1.1184 -1.0219
  522MOL0     H71972   5.953   4.847   4.412 -1.0421 -0.9770  0.7233
  522MOL0     H71973   5.782   4.880   4.202  0.0804  1.6110  1.1740
  522MOL0     H71974   5.860   5.026   4.170 -0.4046 -0.0941  1.6163
  522MOL0     H71975   6.094   4.885   4.167  0.2156  0.3513 -1.2506
  522MOL0     H71976   5.988   4.741   4.202  2.5976  0.8415  1.7143
  522MOL0     H71977   5.967   4.924   3.944 -0.2870  0.0925  0.0093
  522MOL0     H71978   5.897   4.771   3.977  0.1104  1.5350 -1.0311
  522MOL0     H71979   6.097   4.803   3.827 -4.4838  2.3501  1.3428
  522MOL0     H71980   6.201   4.849   3.961 -0.8209 -0.1525  1.8625
  522MOL0     H71981   6.064   4.574   3.907 -1.2937  2.8022 -1.4235
  522MOL0     H71982   6.144   4.592   4.054  0.8482 -0.9916 -0.5471
  522MOL0     H71983   6.286   4.503   3.842 -5.4173 -0.8823 -0.0197
  522MOL0     H71984   6.320   4.685   3.833 -2.6691  0.3937 -2.3490
  522MOL0     H71985   6.516   4.400   4.005  1.6685  0.1472  0.3277
  522MOL0     H71986   6.523   4.299   4.260 -0.0752 -0.7199  0.6576
  522MOL0     H71987   6.424   4.383   4.359  0.6148 -0.5682  0.1278
  522MOL0     H71988   6.732   4.471   4.316  0.2129  1.8118  0.6924
  522MOL0     H71989   6.615   4.527   4.436 -1.3259  1.1675 -1.7656
  522MOL0     H71990   6.631   4.293   4.546  0.8554  1.2821  1.0497
  522MOL0     H71991   6.725   4.229   4.403  0.9551  0.7952 -1.8128
  522MOL0     H71992   6.871   4.267   4.599  2.4045  2.0535  1.5191
  522MOL0     H71993   6.916   4.384   4.464 -1.3040  4.8567  0.2972
  522MOL0     H71994   6.764   4.592   4.853 -0.1945 -0.4385 -0.4565
  522MOL0     H71995   6.930   4.784   5.059 -0.2349 -0.3248  0.2893
  522MOL0     H71996   6.921   4.643   5.168 -0.2623  1.7336  0.2800
  522MOL0     H71997   6.797   4.676   5.056 -0.4155 -0.5541 -0.4096
  522MOL0     H71998   7.331   4.831   5.218  2.8743  0.3140 -1.1567
  522MOL0     H71999   7.503   4.830   5.381  1.7950 -0.9199 -1.0403
  522MOL0     H72000   7.693   4.690   5.442 -0.8812  1.1313 -0.2311
  522MOL0     H72001   7.638   4.787   5.585  0.9975 -0.2177  0.0710
  522MOL0     H72002   7.853   4.691   5.660 -0.6032  0.9753  0.1617
  522MOL0     H72003   7.712   4.598   5.728 -3.0904  2.5649 -1.0656
  522MOL0     H72004   7.755   4.433   5.543 -1.4679  3.2188 -1.9633
  522MOL0     H72005   7.896   4.456   5.658 -0.2187 -2.3158 -1.1678
  522MOL0     H72006   7.996   4.617   5.490  4.4871 -2.2227 -2.6728
  522MOL0     H72007   7.869   4.572   5.379  1.9055  0.1336 -0.5457
  522MOL0     H72008   8.107   4.480   5.389 -1.2339  0.1991 -2.5378
  522MOL0     H72009   8.040   4.360   5.510 -1.9923 -2.0826 -0.4593
  522MOL0     H72010   7.946   4.412   5.218 -1.1057 -0.4980  0.4618
  522MOL0     H72011   7.889   4.290   5.335 -0.6792  0.1276 -0.6183
  522MOL0     H72012   8.037   4.149   5.218  1.5742 -0.1737  0.3333
  522MOL0     H72013   8.146   4.223   5.333 -1.2718  1.7617  0.9351
  522MOL0     H72014   8.100   4.316   5.044 -0.8032  2.2626  1.5019
  522MOL0     H72015   8.220   4.196   5.112  1.0739  1.4929  2.1637
  522MOL0     H72016   7.367   4.433   5.507  0.1105 -0.6458 -0.2666
  522MOL0     H72017   7.180   4.453   5.334 -1.3446 -0.5329  3.1527
  522MOL0     H72018   7.234   4.454   4.802  0.0325 -0.3254 -0.4840
  522MOL0     H72019   7.072   4.401   4.631 -1.8018  1.0484 -0.3170
  522MOL0     H72020   5.530   5.176   4.236  1.4665  0.3451  0.7113
  522MOL0     H72021   5.290   5.176   4.254 -0.1140 -0.1592  0.4019
  522MOL0     H72022   4.940   5.183   4.445  1.0381 -0.3833 -1.0580
  522MOL0     H72023   4.712   5.213   4.513 -1.8429 -0.2618  0.3082
  522MOL0     H72024   4.475   5.203   4.570  0.2111 -1.1818  1.4960
  522MOL0     H72025   4.455   5.165   4.396 -0.7601  0.8922  0.6781
  522MOL0     H72026   4.252   5.209   4.486  1.1619 -0.2182  0.5580
  522MOL0     H72027   4.254   5.088   4.613  1.6246  0.1764  1.1826
  522MOL0     H72028   4.257   5.035   4.319  1.2650  1.6528  1.5131
  522MOL0     H72029   4.296   4.904   4.428  1.2414  1.2265  0.0996
  522MOL0     H72030   4.078   4.910   4.536  0.2476  1.6673  0.4455
  522MOL0     H72031   4.049   4.911   4.357 -0.2812  0.4277  0.0483
  522MOL0     H72032   3.915   5.295   4.444  0.8965  0.5109  3.9320
  522MOL0     H72033   4.648   4.792   4.506  2.6582 -1.5583 -0.3464
  522MOL0     H72034   4.928   4.665   4.526 -1.0023 -2.4885  0.3555
  522MOL0     H72035   4.792   4.634   4.417 -1.4139  0.6255  0.4867
  522MOL0     H72036   4.945   4.682   4.350 -1.6866 -3.2776 -0.9561
  523MOL0     O72037  10.512   0.533   5.610 -0.1969  0.4533  0.1263
  523MOL0     C72038  10.389   0.549   5.603  0.1915 -0.1220  0.2461
  523MOL0     O72039  10.337   0.671   5.632 -0.2346 -0.2400 -0.7007
  523MOL0     C72040  10.406   0.771   5.702 -0.4407 -0.6170  0.1190
  523MOL0     C72041  10.344   0.823   5.816  0.5579  0.9097  0.7313
  523MOL0     C72042  10.403   0.913   5.895 -0.1750 -0.0256 -0.0832
  523MOL0     C72043  10.529   0.970   5.856  0.4031 -0.4589 -0.3508
  523MOL0     O72044  10.596   1.062   5.933 -0.0721 -0.4882  0.1453
  523MOL0     C72045  10.510   1.169   5.983  0.5667  0.2708  0.3933
  523MOL0     C72046  10.575   1.236   6.105 -0.6288  0.4364  0.4767
  523MOL0     C72047  10.507   1.368   6.114 -0.2144  0.3964  0.2668
  523MOL0     C72048  10.586   1.438   6.228  0.1819  0.6957 -0.5533
  523MOL0     C72049  10.518   1.564   6.261  0.2901  0.3361  0.4104
  523MOL0     C72050  10.521   1.614   6.406  0.4004 -0.4392 -0.0087
  523MOL0     C72051  10.660   1.601   6.479 -0.1337 -0.2665  0.3795
  523MOL0     C72052  10.654   1.643   6.624 -0.5197 -0.3663 -0.0711
  523MOL0     N72053  10.623   1.789   6.618 -0.4416 -0.7313 -1.1501
  523MOL0     C72054  10.697   1.887   6.555 -0.5416 -0.2765  0.0704
  523MOL0     C72055  10.626   1.997   6.578  0.2919  0.5907 -0.2145
  523MOL0     C72056  10.655   2.132   6.536  0.0596 -0.0195  0.1436
  523MOL0     C72057  10.764   2.210   6.605 -0.1384  0.2867  0.8963
  523MOL0     C72058  10.739   2.354   6.613 -0.1445 -0.8986 -0.4386
  523MOL0     C72059  10.839   2.427   6.699 -0.3611 -0.1433  0.0534
  523MOL0     O72060  10.816   2.564   6.722 -0.1516  0.0267 -0.0516
  523MOL0     C72061  10.896   2.628   6.815 -0.2110 -0.1350 -0.6640
  523MOL0     C72062  11.026   2.584   6.874 -0.3815 -0.6428  0.3088
  523MOL0     C72063  11.086   2.655   6.981  0.7284  0.1520 -0.3791
  523MOL0     C72064  11.209   2.595   7.045 -0.3305  0.4436  0.5688
  523MOL0     C72065  11.023   2.776   7.019  0.0593  0.6055  0.5125
  523MOL0     C72066  11.096   2.855   7.127 -0.4983 -0.2942 -0.3508
  523MOL0     O72067  11.021   2.901   7.234  0.2056 -0.2207  0.5414
  523MOL0     C72068  11.081   2.976   7.329  0.5553  0.7321 -0.6901
  523MOL0     C72069  11.137   2.924   7.440 -0.0904 -0.8968  0.4967
  523MOL0     C72070  11.176   3.006   7.542 -0.4406  0.3722  0.0798
  523MOL0     C72071  11.167   3.147   7.542 -0.4105 -0.1508  0.6184
  523MOL0     O72072  11.221   3.240   7.627 -0.0716  0.3820  0.0638
  523MOL0     C72073  11.344   3.203   7.689  0.1580  0.3680 -0.6194
  523MOL0     C72074  11.403   3.324   7.751 -0.4242 -0.1463  0.6507
  523MOL0     C72075  11.474   3.415   7.645  0.2110 -0.4097 -0.8328
  523MOL0     C72076  11.556   3.524   7.721 -0.0761 -0.2012 -0.3006
  523MOL0     C72077  11.688   3.474   7.789  1.0014 -0.0677 -0.4644
  523MOL0     C72078  11.758   3.580   7.880 -0.4952  0.5882 -0.1356
  523MOL0     C72079  11.897   3.522   7.916 -0.2645  0.0535  1.1190
  523MOL0     C72080  11.959   3.589   8.035 -0.2441 -0.2864 -0.8788
  523MOL0    Cl72081  11.852   3.564   8.177  0.1608 -0.2053  0.2508
  523MOL0     C72082  11.121   3.197   7.420  0.1453 -0.7730  0.7706
  523MOL0     C72083  11.071   3.115   7.319  0.3994 -0.7962 -0.0856
  523MOL0     O72084  11.218   2.885   7.109  0.2955 -0.1173 -0.9443
  523MOL0     C72085  10.893   2.810   6.970 -0.2524  0.6147  0.2163
  523MOL0     C72086  10.836   2.736   6.865 -0.2089 -0.5407 -0.5214
  523MOL0     N72087  10.509   1.970   6.643  0.3013  0.7353  0.6234
  523MOL0     N72088  10.506   1.840   6.659  0.1925 -0.2523 -0.0713
  523MOL0     C72089  10.593   0.917   5.740 -0.4746 -0.4985  0.4818
  523MOL0     C72090  10.527   0.816   5.658 -0.0875 -0.5511 -0.2210
  523MOL0     C72091  10.308   0.436   5.548  0.2947  0.6399  0.5521
  523MOL0     C72092  10.381   0.342   5.472  0.8922 -0.2349  0.4475
  523MOL0     C72093  10.307   0.239   5.396  0.0342  0.1562 -0.8349
  523MOL0     C72094  10.168   0.245   5.385 -0.2580 -0.8555  0.1762
  523MOL0     O72095  10.107   0.153   5.300 -0.4330 -0.4404  0.3394
  523MOL0     C72096   9.996   0.186   5.224  0.3745  0.3663 -0.0785
  523MOL0     C72097  10.011   0.289   5.113 -0.1834 -1.0577 -0.0858
  523MOL0     C72098   9.872   0.350   5.083  0.0062  0.6039 -0.0184
  523MOL0     C72099   9.907   0.452   4.974  0.4388 -0.3513  0.2093
  523MOL0     C72100   9.789   0.531   4.921  0.1013  0.1757  0.6893
  523MOL0     C72101   9.704   0.596   4.867 -0.2582 -0.3305  0.0901
  523MOL0     C72102  10.103   0.336   5.468  0.1196  1.0463 -0.3392
  523MOL0     C72103  10.165   0.426   5.551  0.5981 -0.5038 -0.1119
  523MOL0     C72104  10.072   0.512   5.643  0.2368 -0.0603  0.6968
  523MOL0     H72105  10.240   0.797   5.829 -0.2239  4.1311  1.7292
  523MOL0     H72106  10.346   0.938   5.983 -0.6454 -1.0669 -0.0749
  523MOL0     H72107  10.413   1.128   6.014  0.0280  0.6912 -0.6863
  523MOL0     H72108  10.493   1.239   5.901 -5.4072 -2.4123 -1.2161
  523MOL0     H72109  10.552   1.175   6.193 -2.0067 -1.1582 -0.9144
  523MOL0     H72110  10.682   1.249   6.085 -0.8526  2.6855  0.5430
  523MOL0     H72111  10.520   1.424   6.022 -0.6422  1.6200  0.9299
  523MOL0     H72112  10.400   1.356   6.137 -0.1056  1.1920  1.2688
  523MOL0     H72113  10.598   1.370   6.312 -0.3854  0.3859 -0.7229
  523MOL0     H72114  10.685   1.464   6.187 -0.1383  1.3410 -0.9450
  523MOL0     H72115  10.412   1.551   6.239  0.5572 -1.2259 -0.1232
  523MOL0     H72116  10.565   1.644   6.202 -1.2535  1.1096  0.1870
  523MOL0     H72117  10.490   1.719   6.400  3.4499  0.5516 -0.3644
  523MOL0     H72118  10.455   1.555   6.469  2.0973  0.4317  2.7599
  523MOL0     H72119  10.727   1.670   6.427  0.2940 -0.9128  0.0567
  523MOL0     H72120  10.690   1.496   6.478 -2.3359 -0.9510  0.6994
  523MOL0     H72121  10.582   1.585   6.683  2.1890 -2.2686  1.6624
  523MOL0     H72122  10.755   1.614   6.657  1.1283 -0.4814 -4.5538
  523MOL0     H72123  10.792   1.872   6.506  0.4574  0.1440  1.7957
  523MOL0     H72124  10.567   2.196   6.548 -0.4229 -0.4908 -0.7172
  523MOL0     H72125  10.669   2.134   6.427 -3.7718  0.7108 -0.5123
  523MOL0     H72126  10.776   2.161   6.703  0.6984 -0.8388  0.2554
  523MOL0     H72127  10.860   2.192   6.556  0.3584 -4.5886  3.0545
  523MOL0     H72128  10.738   2.396   6.513 -2.2674  0.8452  0.2363
  523MOL0     H72129  10.642   2.378   6.658  0.3004  0.8848 -0.3582
  523MOL0     H72130  10.845   2.368   6.791 -2.7533 -1.7281 -0.7121
  523MOL0     H72131  10.933   2.422   6.643  0.4226  1.8313  1.0819
  523MOL0     H72132  11.063   2.485   6.849 -0.4301 -0.4864 -0.4355
  523MOL0     H72133  11.288   2.671   7.051 -0.6371  0.7713  0.5143
  523MOL0     H72134  11.242   2.512   6.983 -2.6397 -0.5655  0.6198
  523MOL0     H72135  11.194   2.544   7.140  0.0324 -3.4478 -1.2861
  523MOL0     H72136  11.146   2.816   7.441  0.3138 -0.8867 -0.7876
  523MOL0     H72137  11.221   2.954   7.626  0.1287 -1.6812 -1.4375
  523MOL0     H72138  11.306   3.131   7.761 -0.3330 -0.2221 -1.4589
  523MOL0     H72139  11.428   3.159   7.636  1.2137  1.0204  0.4354
  523MOL0     H72140  11.321   3.365   7.811 -0.8445 -1.0577  0.7105
  523MOL0     H72141  11.473   3.295   7.829  2.7137  5.6489  0.5354
  523MOL0     H72142  11.403   3.472   7.584  0.1447  0.1215 -0.2630
  523MOL0     H72143  11.546   3.356   7.587  1.2165 -0.8653  0.8227
  523MOL0     H72144  11.504   3.575   7.803  0.6566 -0.8387  0.5819
  523MOL0     H72145  11.584   3.598   7.646  2.2955 -2.5532 -1.9130
  523MOL0     H72146  11.664   3.396   7.861 -0.8053  1.3545  0.5707
  523MOL0     H72147  11.758   3.443   7.711  0.7559 -0.0904 -0.6779
  523MOL0     H72148  11.692   3.602   7.964 -0.9581 -2.8068  0.5287
  523MOL0     H72149  11.773   3.678   7.835 -0.3336  0.5508 -0.1646
  523MOL0     H72150  11.963   3.548   7.833 -0.3468 -1.7655  0.4321
  523MOL0     H72151  11.887   3.415   7.937  1.4708 -0.2061  0.7947
  523MOL0     H72152  11.976   3.693   8.008  0.5395 -0.1455  0.1270
  523MOL0     H72153  12.058   3.550   8.062  0.2671 -0.9857 -3.4172
  523MOL0     H72154  11.117   3.305   7.409  2.5782 -0.7568 -0.5669
  523MOL0     H72155  11.034   3.163   7.230 -2.3091  0.0574  1.3799
  523MOL0     H72156  10.837   2.890   7.016 -0.8589  1.9417 -2.6084
  523MOL0     H72157  10.747   2.775   6.819  0.7124  0.7013 -1.3058
  523MOL0     H72158  10.693   0.944   5.707 -0.2517 -1.6711  0.1463
  523MOL0     H72159  10.585   0.768   5.580 -1.3334 -1.6039 -0.5225
  523MOL0     H72160  10.490   0.345   5.469  1.0283 -1.2783 -4.6005
  523MOL0     H72161  10.380   0.184   5.337  1.1579  1.8518 -1.1019
  523MOL0     H72162   9.962   0.091   5.182  1.0554  0.4639 -0.8757
  523MOL0     H72163   9.910   0.217   5.285 -1.0033 -0.4979 -1.4861
  523MOL0     H72164  10.049   0.232   5.028 -1.8483 -1.8752 -0.3329
  523MOL0     H72165  10.084   0.363   5.145  0.3419 -1.1362 -1.0471
  523MOL0     H72166   9.792   0.282   5.051  1.9014 -0.0441 -3.9144
  523MOL0     H72167   9.835   0.408   5.168  1.4096  0.3165  0.8186
  523MOL0     H72168   9.958   0.397   4.895 -2.1328 -0.8495 -1.2158
  523MOL0     H72169   9.971   0.527   5.020  0.8727 -0.2828 -0.4870
  523MOL0     H72170   9.645   0.663   4.808  3.1248  0.5427 -2.6303
  523MOL0     H72171   9.996   0.353   5.465  0.1782  1.4143 -0.3052
  523MOL0     H72172  10.005   0.448   5.700 -1.7201  1.3641  0.0976
  523MOL0     H72173  10.117   0.586   5.709  0.7928 -0.3022  0.5981
  523MOL0     H72174  10.011   0.567   5.570 -0.4537 -3.5827 -1.6279
  524MOL0     O72175   2.155  10.864  10.337  0.6997  0.2941  0.4595
  524MOL0     C72176   2.203  10.764  10.287 -0.1124 -0.9413  0.9785
  524MOL0     O72177   2.339  10.752  10.272 -0.1617  0.2197 -0.3373
  524MOL0     C72178   2.431  10.854  10.298  0.0033 -0.4024 -0.9825
  524MOL0     C72179   2.543  10.875  10.217 -1.3602 -0.5430  0.5108
  524MOL0     C72180   2.640  10.969  10.246  0.9027  0.0749  0.4790
  524MOL0     C72181   2.634  11.046  10.360  0.4103  0.2322 -0.2092
  524MOL0     O72182   2.739  11.128  10.381 -0.5240  0.1670 -0.6219
  524MOL0     C72183   2.749  11.189  10.508 -0.6549 -0.7120  0.1868
  524MOL0     C72184   2.865  11.298  10.508  0.1099 -0.8637 -0.4552
  524MOL0     C72185   2.997  11.243  10.453  0.4188 -0.5639  0.1124
  524MOL0     C72186   3.108  11.345  10.444  0.8204 -0.2494 -0.2328
  524MOL0     C72187   3.239  11.287  10.388 -0.4707  0.0338 -0.2434
  524MOL0     C72188   3.292  11.168  10.475  0.9629  0.0625  0.3039
  524MOL0     C72189   3.443  11.150  10.436 -0.1292  0.5050 -0.5553
  524MOL0     C72190   3.534  11.249  10.520 -0.5184 -0.4965 -0.0479
  524MOL0     N72191   3.679  11.215  10.523  0.1985 -0.7754  0.1653
  524MOL0     C72192   3.745  11.111  10.582  0.7412  0.5392  0.2185
  524MOL0     C72193   3.877  11.146  10.559 -0.2693 -0.4873  0.3793
  524MOL0     C72194   3.996  11.071  10.621 -0.4122 -0.0127 -0.4204
  524MOL0     C72195   4.075  10.983  10.533 -0.0795 -0.1261  0.7499
  524MOL0     C72196   4.200  10.921  10.603  0.4265  0.4897 -0.5001
  524MOL0     C72197   4.287  10.838  10.512  0.6729  0.1181  0.0313
  524MOL0     O72198   4.359  10.909  10.416  0.3586 -0.4752  0.6173
  524MOL0     C72199   4.495  10.891  10.418 -0.2858 -0.6222  0.0557
  524MOL0     C72200   4.554  10.769  10.403  0.5832 -0.5703  0.9812
  524MOL0     C72201   4.698  10.750  10.407  1.2349 -0.2535 -0.1768
  524MOL0     C72202   4.744  10.608  10.385  0.1786  1.2922 -0.5318
  524MOL0     C72203   4.784  10.864  10.408  0.1187 -0.5087  1.0200
  524MOL0     C72204   4.928  10.866  10.383 -0.2928 -0.0310 -0.1305
  524MOL0     O72205   4.989  10.984  10.355  0.2966  0.0919 -0.7907
  524MOL0     C72206   5.117  10.984  10.311  1.1056 -0.1679 -0.3552
  524MOL0     C72207   5.191  11.097  10.351 -0.7317  0.9373 -0.1083
  524MOL0     C72208   5.322  11.103  10.315  0.0778  0.1935  0.5780
  524MOL0     C72209   5.378  11.003  10.237 -0.0220  0.0301 -0.4536
  524MOL0     O72210   5.500  11.018  10.187  0.3897 -0.4042  0.3416
  524MOL0     C72211   5.611  11.035  10.276  1.1324 -0.9392 -0.4415
  524MOL0     C72212   5.715  10.949  10.222 -0.7143 -0.2688 -0.3048
  524MOL0     C72213   5.779  11.008  10.096 -0.0359 -1.1396 -0.0530
  524MOL0     C72214   5.930  10.987  10.102  0.1708  0.4157  0.2697
  524MOL0     C72215   5.989  10.840  10.114 -0.1670 -0.3169 -0.3474
  524MOL0     C72216   6.125  10.840  10.172 -1.0345  0.3245 -0.2005
  524MOL0     C72217   6.236  10.885  10.078  0.0034 -0.4941  0.1211
  524MOL0     C72218   6.369  10.889  10.155 -0.2040 -0.4815  0.1041
  524MOL0    Cl72219   6.491  10.957  10.053  0.2479  0.2196 -0.5606
  524MOL0     C72220   5.304  10.913  10.180 -0.7222  1.1775 -0.4459
  524MOL0     C72221   5.172  10.898  10.221 -0.0003 -0.1888 -0.1138
  524MOL0     O72222   4.986  10.758  10.400 -0.0885  0.0245 -0.8154
  524MOL0     C72223   4.720  10.986  10.436  0.0487 -0.0547 -0.2015
  524MOL0     C72224   4.579  11.001  10.437 -0.3225 -0.4048  0.1091
  524MOL0     N72225   3.888  11.260  10.488  0.7793 -0.1156 -0.5366
  524MOL0     N72226   3.762  11.294  10.457  0.4045 -0.1365  0.0742
  524MOL0     C72227   2.527  11.021  10.454  0.6821  0.2382 -0.2463
  524MOL0     C72228   2.422  10.926  10.421 -0.2366 -1.0457 -0.2473
  524MOL0     C72229   2.113  10.668  10.225 -0.0251  0.7622 -0.1116
  524MOL0     C72230   2.169  10.546  10.188  1.2461  0.1295 -0.2094
  524MOL0     C72231   2.089  10.443  10.134  0.2346  0.0394 -0.0438
  524MOL0     C72232   1.949  10.458  10.124  0.1961  0.0405  0.7700
  524MOL0     O72233   1.875  10.351  10.096  0.1673 -0.8471 -0.1547
  524MOL0     C72234   1.733  10.359  10.072 -0.2873 -0.5100  0.2134
  524MOL0     C72235   1.694  10.226   9.997  0.4461  0.2153 -0.4105
  524MOL0     C72236   1.546  10.206   9.970 -0.0393 -0.0820  0.4823
  524MOL0     C72237   1.459  10.254  10.084 -0.8125 -0.3817  0.4579
  524MOL0     C72238   1.323  10.225  10.047  0.5229  0.2415 -0.5049
  524MOL0     C72239   1.213  10.203  10.013  0.4269  0.3366 -0.1773
  524MOL0     C72240   1.900  10.584  10.158  0.4258  0.1056 -0.5582
  524MOL0     C72241   1.974  10.695  10.200 -0.8330  0.0060 -0.4160
  524MOL0     C72242   1.909  10.826  10.219 -0.0807  0.2020  0.2972
  524MOL0     H72243   2.534  10.823  10.122  0.1694  0.4851 -0.2437
  524MOL0     H72244   2.718  10.987  10.173 -1.7542  2.7615 -1.9419
  524MOL0     H72245   2.774  11.109  10.577 -3.8791 -1.5623  0.5145
  524MOL0     H72246   2.661  11.248  10.533 -0.0250 -0.3596  1.6241
  524MOL0     H72247   2.841  11.383  10.444 -0.6581 -0.5808  0.1937
  524MOL0     H72248   2.899  11.334  10.606 -0.3314  1.9717 -1.2596
  524MOL0     H72249   3.031  11.168  10.525  1.5957 -2.2191 -2.0467
  524MOL0     H72250   2.983  11.189  10.358  0.6299 -6.5585  3.0182
  524MOL0     H72251   3.069  11.426  10.382 -0.8417  2.4435  3.8458
  524MOL0     H72252   3.130  11.395  10.539  1.9023 -0.7792 -0.1879
  524MOL0     H72253   3.313  11.368  10.386  1.2978 -1.5024 -0.3720
  524MOL0     H72254   3.213  11.251  10.288 -1.7427 -3.6803  1.2357
  524MOL0     H72255   3.279  11.179  10.583 -0.4073  1.3434  0.0318
  524MOL0     H72256   3.233  11.080  10.448  0.0815 -0.1867  2.7824
  524MOL0     H72257   3.458  11.161  10.328  0.3711 -2.1245 -0.8139
  524MOL0     H72258   3.468  11.046  10.457  1.9149  1.1368  0.4167
  524MOL0     H72259   3.523  11.347  10.472  0.1083 -0.2764  0.2395
  524MOL0     H72260   3.483  11.252  10.617 -0.5003 -1.5386 -0.0016
  524MOL0     H72261   3.708  11.037  10.652 -2.5756  0.7877 -1.1131
  524MOL0     H72262   3.966  11.002  10.701  2.6182 -1.0188 -0.0276
  524MOL0     H72263   4.062  11.143  10.670 -1.4247  1.1520 -0.7190
  524MOL0     H72264   4.007  10.902  10.507 -2.4221  1.6732  0.8892
  524MOL0     H72265   4.117  11.038  10.449 -0.8435  0.8709  0.9930
  524MOL0     H72266   4.258  11.001  10.651  1.4273 -1.6772  2.1830
  524MOL0     H72267   4.166  10.864  10.690 -3.3906  4.1710  0.7622
  524MOL0     H72268   4.355  10.780  10.575  0.4409  2.2303  2.3741
  524MOL0     H72269   4.225  10.758  10.471  1.4013 -0.9492  0.9640
  524MOL0     H72270   4.491  10.682  10.386 -0.3474 -0.3243  2.9294
  524MOL0     H72271   4.785  10.591  10.286 -1.6292 -3.1435 -0.7465
  524MOL0     H72272   4.669  10.533  10.414 -0.2850  1.2817 -1.7043
  524MOL0     H72273   4.826  10.595  10.457  1.0999  4.7328 -0.8044
  524MOL0     H72274   5.147  11.174  10.414  0.1329 -1.6607  4.0159
  524MOL0     H72275   5.388  11.183  10.347 -2.3214  1.7062  2.0103
  524MOL0     H72276   5.648  11.138  10.282 -0.4518 -0.1954 -2.4543
  524MOL0     H72277   5.594  11.006  10.380  0.9534  1.1405  0.1658
  524MOL0     H72278   5.796  10.933  10.293 -0.5709  0.9174 -0.1735
  524MOL0     H72279   5.678  10.850  10.195 -2.5983  0.6316 -1.2483
  524MOL0     H72280   5.756  11.115  10.087 -1.3425 -1.5256 -1.8734
  524MOL0     H72281   5.742  10.957  10.007 -0.4930 -0.2977 -0.3640
  524MOL0     H72282   5.960  11.043  10.191  0.0978  0.3930  0.3083
  524MOL0     H72283   5.982  11.030  10.016 -0.5677  0.8361  0.0312
  524MOL0     H72284   5.916  10.780  10.169 -0.4639  0.1687 -0.1994
  524MOL0     H72285   6.000  10.802  10.012 -0.2966  1.3553 -1.0220
  524MOL0     H72286   6.133  10.733  10.194  1.9151  0.4641 -0.1768
  524MOL0     H72287   6.129  10.882  10.273  0.2965 -2.6548  1.1136
  524MOL0     H72288   6.206  10.976  10.024 -0.5999 -0.2489  0.8434
  524MOL0     H72289   6.234  10.798  10.012 -0.3668 -0.8574  0.6032
  524MOL0     H72290   6.396  10.790  10.192 -2.1942 -0.7842  0.9114
  524MOL0     H72291   6.349  10.958  10.238 -5.4552  2.2997 -2.9300
  524MOL0     H72292   5.348  10.857  10.098 -1.9361  1.4041 -1.2774
  524MOL0     H72293   5.097  10.838  10.170 -0.3920 -1.4276  1.7913
  524MOL0     H72294   4.763  11.082  10.465 -1.3760  0.4932  0.1804
  524MOL0     H72295   4.530  11.094  10.466 -1.0448 -1.1394  1.3133
  524MOL0     H72296   2.529  11.058  10.556 -1.8603 -1.8783  0.6669
  524MOL0     H72297   2.347  10.905  10.496  0.0695 -1.4295 -0.0447
  524MOL0     H72298   2.275  10.523  10.201  2.3131  3.4089 -2.0085
  524MOL0     H72299   2.138  10.354  10.095 -0.2818 -0.3755  0.2367
  524MOL0     H72300   1.684  10.361  10.170 -0.5320  1.0904  0.0729
  524MOL0     H72301   1.710  10.445  10.010  1.3696  0.2333  0.5803
  524MOL0     H72302   1.725  10.132  10.044 -1.8094  0.7020  2.4236
  524MOL0     H72303   1.730  10.228   9.894  1.0593  2.1959 -0.1811
  524MOL0     H72304   1.523  10.261   9.878  0.8540 -0.1293  0.2164
  524MOL0     H72305   1.522  10.102   9.948 -0.2881 -0.6320  3.0468
  524MOL0     H72306   1.480  10.360  10.101  1.0267 -0.5968 -0.2654
  524MOL0     H72307   1.489  10.196  10.172  0.6473  0.6883  0.7003
  524MOL0     H72308   1.108  10.193   9.995  0.5959  1.3355 -1.9077
  524MOL0     H72309   1.794  10.604  10.147  0.4710  0.4462 -0.3709
  524MOL0     H72310   1.969  10.906  10.175  0.0713 -0.0150  0.1031
  524MOL0     H72311   1.808  10.828  10.177 -1.8760 -2.3040  3.9624
  524MOL0     H72312   1.888  10.831  10.326 -1.6376 -0.8790  0.0882
  525MOL0     O72313   8.743   1.199   3.717  0.6891  0.3238  0.7376
  525MOL0     C72314   8.717   1.279   3.629  0.0422 -0.4337 -0.0084
  525MOL0     O72315   8.805   1.311   3.534  0.2279  0.1190  0.0765
  525MOL0     C72316   8.925   1.236   3.539  0.5624 -0.1224 -0.0309
  525MOL0     C72317   9.048   1.287   3.590 -0.4870  0.5413  0.0937
  525MOL0     C72318   9.163   1.211   3.572 -0.2475  0.4324 -0.3409
  525MOL0     C72319   9.164   1.083   3.506 -0.5651  1.2330  0.1126
  525MOL0     O72320   9.270   1.004   3.481  0.3981  0.2076  0.4270
  525MOL0     C72321   9.388   1.031   3.559  0.1002 -0.1298  0.2020
  525MOL0     C72322   9.515   0.950   3.509 -0.1196  0.3455 -0.8309
  525MOL0     C72323   9.644   1.008   3.565  0.3832  0.6191 -0.6151
  525MOL0     C72324   9.651   1.003   3.716  0.5585 -0.1501 -0.6930
  525MOL0     C72325   9.785   1.045   3.770 -0.4370  0.2352  0.6706
  525MOL0     C72326   9.784   1.002   3.923  0.6661 -0.6465  0.3119
  525MOL0     C72327   9.695   1.101   4.004 -0.0279 -0.6909 -0.0760
  525MOL0     C72328   9.695   1.071   4.149  0.1520 -0.7273  0.3128
  525MOL0     N72329   9.825   1.084   4.211  0.7250  0.0235  0.1675
  525MOL0     C72330   9.921   0.985   4.217 -0.7213  0.1823 -0.6485
  525MOL0     C72331  10.037   1.056   4.253 -0.7741 -0.2381  0.6870
  525MOL0     C72332  10.166   1.000   4.280 -0.6230  0.1188  0.0260
  525MOL0     C72333  10.235   1.047   4.409 -0.2632 -0.0040 -0.6207
  525MOL0     C72334  10.370   0.978   4.408 -0.8649  0.2785  0.1188
  525MOL0     C72335  10.459   1.047   4.514 -0.1392 -0.4668 -0.0047
  525MOL0     O72336  10.585   0.984   4.529  1.0043  0.6476  0.1460
  525MOL0     C72337  10.677   1.032   4.614 -0.1235  0.1694  0.6772
  525MOL0     C72338  10.776   0.949   4.668  0.8688 -0.4861  0.6606
  525MOL0     C72339  10.858   0.991   4.771 -0.1846 -0.8187  0.6362
  525MOL0     C72340  10.966   0.886   4.807  0.8465  0.3015 -0.1703
  525MOL0     C72341  10.842   1.123   4.823 -0.2550 -0.5223 -1.6747
  525MOL0     C72342  10.944   1.177   4.922  0.2599 -0.2339  0.0292
  525MOL0     O72343  10.937   1.310   4.941  0.2240  0.0990 -0.0047
  525MOL0     C72344  11.027   1.379   5.026  0.0156 -0.1533  0.9401
  525MOL0     C72345  11.139   1.440   4.961 -0.1801  0.8842 -0.6714
  525MOL0     C72346  11.238   1.496   5.043  0.5708 -0.1383 -0.3972
  525MOL0     C72347  11.220   1.509   5.188 -0.1921 -0.5804  0.2601
  525MOL0     O72348  11.325   1.569   5.263  0.5584 -0.2703 -0.2941
  525MOL0     C72349  11.302   1.569   5.409 -0.8478  0.3404 -0.3440
  525MOL0     C72350  11.423   1.627   5.485 -0.4092  0.4019  0.4872
  525MOL0     C72351  11.401   1.615   5.632 -0.5881 -0.2158  0.8346
  525MOL0     C72352  11.508   1.667   5.722  0.4719 -0.1205  0.8051
  525MOL0     C72353  11.626   1.572   5.745  0.2986 -0.1196  0.3006
  525MOL0     C72354  11.742   1.654   5.800 -0.3321  0.5143  0.1056
  525MOL0     C72355  11.877   1.573   5.798 -0.1139 -0.8418  0.4794
  525MOL0     C72356  11.982   1.645   5.888 -0.3864 -0.3726 -0.5836
  525MOL0    Cl72357  12.127   1.535   5.896  0.1494  0.0602  0.3380
  525MOL0     C72358  11.107   1.451   5.242  0.4660  0.0663  0.3479
  525MOL0     C72359  11.017   1.381   5.162 -0.3365  0.0131 -0.5059
  525MOL0     O72360  11.022   1.105   4.990  0.1828 -0.2742  0.4678
  525MOL0     C72361  10.743   1.210   4.765  1.1072  0.0603  0.0750
  525MOL0     C72362  10.665   1.169   4.662 -0.0831  0.7271 -1.1428
  525MOL0     N72363  10.001   1.188   4.283  0.1982  0.0437 -0.2224
  525MOL0     N72364   9.873   1.204   4.256 -0.0400  0.5060  0.1299
  525MOL0     C72365   9.036   1.039   3.463 -0.2642 -0.0890 -0.5282
  525MOL0     C72366   8.922   1.116   3.472 -0.4295 -0.7484  0.3326
  525MOL0     C72367   8.577   1.336   3.628  0.3107 -0.6843 -0.0221
  525MOL0     C72368   8.474   1.267   3.698  0.5221 -0.2108  0.1297
  525MOL0     C72369   8.345   1.308   3.676 -0.5853 -0.5686 -0.8776
  525MOL0     C72370   8.306   1.416   3.600  0.2644 -0.4087 -0.2451
  525MOL0     O72371   8.167   1.434   3.597 -0.0107  0.5197  0.2045
  525MOL0     C72372   8.120   1.553   3.536  0.0674  0.4276 -0.0137
  525MOL0     C72373   8.119   1.566   3.383 -0.4306  0.8871 -0.1555
  525MOL0     C72374   8.048   1.449   3.306  0.3488 -0.2251 -0.2016
  525MOL0     C72375   8.135   1.329   3.336  1.2917  0.3447  1.3589
  525MOL0     C72376   8.107   1.225   3.235 -0.1173 -0.8905  0.9206
  525MOL0     C72377   8.091   1.143   3.145 -0.0671 -0.0806 -0.0904
  525MOL0     C72378   8.418   1.505   3.556 -0.0142 -0.2932  0.1654
  525MOL0     C72379   8.547   1.457   3.563 -0.0606 -0.1004 -0.1638
  525MOL0     C72380   8.646   1.548   3.509 -0.4179  0.1716  0.2820
  525MOL0     H72381   9.055   1.382   3.643  5.1454  0.8565 -0.6071
  525MOL0     H72382   9.255   1.245   3.619 -0.8486 -0.7962  1.9039
  525MOL0     H72383   9.360   1.013   3.664  0.0128 -0.1602  0.1739
  525MOL0     H72384   9.415   1.136   3.547 -1.5377  0.4655  1.3215
  525MOL0     H72385   9.505   0.850   3.553  0.5427  0.8255  0.4913
  525MOL0     H72386   9.518   0.952   3.400 -0.6183  1.7387 -0.8382
  525MOL0     H72387   9.736   0.962   3.529  0.5358  1.0483 -0.7818
  525MOL0     H72388   9.650   1.108   3.521 -1.8937  0.0394 -2.4648
  525MOL0     H72389   9.567   1.065   3.749 -2.4379 -3.5970 -1.0653
  525MOL0     H72390   9.618   0.903   3.748 -1.1081  0.9994  1.4525
  525MOL0     H72391   9.793   1.153   3.754 -1.8816  0.0787 -1.5333
  525MOL0     H72392   9.870   1.000   3.718 -0.1506  2.7616 -1.2466
  525MOL0     H72393   9.743   0.902   3.943  0.3345 -1.3440 -3.1110
  525MOL0     H72394   9.888   1.011   3.956  0.1482  2.0594  1.4191
  525MOL0     H72395   9.591   1.090   3.974 -0.9390  2.0564  1.7438
  525MOL0     H72396   9.715   1.205   3.977 -1.0632 -0.9439 -1.8964
  525MOL0     H72397   9.632   1.148   4.195 -2.6977 -2.1052 -1.0184
  525MOL0     H72398   9.655   0.974   4.180  0.9900 -1.1559  0.0862
  525MOL0     H72399   9.918   0.878   4.201  1.6030  0.0109 -0.2727
  525MOL0     H72400  10.230   1.032   4.197 -0.4617 -2.1851 -0.8089
  525MOL0     H72401  10.157   0.892   4.270 -0.3557  0.2902 -3.2560
  525MOL0     H72402  10.248   1.155   4.417  3.2804 -0.4212  1.9953
  525MOL0     H72403  10.174   1.013   4.493 -0.0950  1.2689  0.0391
  525MOL0     H72404  10.371   0.873   4.437 -0.4210  0.4147  0.6039
  525MOL0     H72405  10.420   0.969   4.311 -1.3404 -1.1708 -0.0160
  525MOL0     H72406  10.471   1.152   4.485 -1.8007 -0.1093  0.4935
  525MOL0     H72407  10.403   1.051   4.608 -1.6779  1.3746 -0.9289
  525MOL0     H72408  10.780   0.852   4.620  0.1747 -0.8390  1.2886
  525MOL0     H72409  10.971   0.873   4.915  1.3316  0.1790 -0.2018
  525MOL0     H72410  11.063   0.922   4.770  1.8137  1.8174  3.3828
  525MOL0     H72411  10.954   0.786   4.765 -1.1789  0.4764 -0.1060
  525MOL0     H72412  11.142   1.440   4.852  0.7743  4.1751 -0.7658
  525MOL0     H72413  11.319   1.545   4.991 -0.7523  0.9838 -1.4677
  525MOL0     H72414  11.218   1.628   5.446 -0.4152 -0.1953  1.6287
  525MOL0     H72415  11.282   1.469   5.448 -1.2924  0.9908  1.1717
  525MOL0     H72416  11.515   1.575   5.458 -1.0621 -0.8596  0.6327
  525MOL0     H72417  11.433   1.727   5.440  0.0525  1.7209  3.2932
  525MOL0     H72418  11.371   1.513   5.657  0.8254 -0.2287  2.6452
  525MOL0     H72419  11.314   1.677   5.657 -0.3485 -0.5762  2.6804
  525MOL0     H72420  11.469   1.696   5.820 -1.1006 -0.4153  0.2859
  525MOL0     H72421  11.535   1.754   5.661  0.8207 -1.1988 -0.6518
  525MOL0     H72422  11.606   1.491   5.815  2.0479  0.1618  1.1727
  525MOL0     H72423  11.654   1.532   5.647  0.2959  0.0004  0.2500
  525MOL0     H72424  11.724   1.664   5.907  0.9521 -3.0995  0.7755
  525MOL0     H72425  11.754   1.749   5.746  0.5859  0.7323  0.6705
  525MOL0     H72426  11.907   1.561   5.693  0.8555 -0.9171  0.7592
  525MOL0     H72427  11.874   1.472   5.840  2.3482 -1.6418 -1.0626
  525MOL0     H72428  11.953   1.669   5.991 -1.0343  2.4764 -1.3455
  525MOL0     H72429  12.012   1.744   5.851 -2.6185  0.1613 -1.0854
  525MOL0     H72430  11.105   1.465   5.350  1.0318 -0.9300  0.5028
  525MOL0     H72431  10.934   1.335   5.216  1.7397  0.1604  3.1942
  525MOL0     H72432  10.722   1.309   4.802  0.4960  0.3764 -1.0873
  525MOL0     H72433  10.605   1.246   4.615  1.0963  1.8594 -0.8252
  525MOL0     H72434   9.041   0.941   3.417  0.3668 -1.0911  1.5809
  525MOL0     H72435   8.830   1.079   3.427 -0.8981 -0.5176  1.0869
  525MOL0     H72436   8.507   1.180   3.753 -0.8890 -0.2602  0.9317
  525MOL0     H72437   8.270   1.248   3.727  0.0968  0.6290  1.7005
  525MOL0     H72438   8.015   1.552   3.566  0.3229  0.2407  0.8989
  525MOL0     H72439   8.165   1.643   3.579  0.4379 -0.5228  1.6623
  525MOL0     H72440   8.215   1.584   3.333 -2.1003 -0.5328 -4.3312
  525MOL0     H72441   8.071   1.664   3.378 -0.7690  0.8946  2.0418
  525MOL0     H72442   7.944   1.436   3.336  0.4954  1.6121  1.3608
  525MOL0     H72443   8.044   1.465   3.198  3.2544 -1.9725 -0.6705
  525MOL0     H72444   8.101   1.285   3.431  0.4852 -3.2213 -0.4044
  525MOL0     H72445   8.242   1.351   3.332  1.2947  0.3144  1.2962
  525MOL0     H72446   8.080   1.073   3.065  1.7028 -1.7271  1.0141
  525MOL0     H72447   8.393   1.600   3.510  0.5813  0.6583  1.7342
  525MOL0     H72448   8.705   1.594   3.589 -1.0712  0.4186  0.6215
  525MOL0     H72449   8.708   1.513   3.425  0.0553  0.2212  0.6022
  525MOL0     H72450   8.605   1.640   3.466 -0.9672 -0.1631  0.0843
  526MOL0     O72451   4.044   3.923   1.128 -0.2119 -0.0904  0.1493
  526MOL0     C72452   4.029   3.862   1.234 -0.4363  0.4994 -0.6391
  526MOL0     O72453   4.119   3.778   1.293  0.1922  0.4096 -0.1035
  526MOL0     C72454   4.239   3.770   1.234  0.2321  0.1975  0.3589
  526MOL0     C72455   4.336   3.868   1.263  0.3662  0.1665 -0.8733
  526MOL0     C72456   4.461   3.866   1.206  0.5087  0.6526  0.0922
  526MOL0     C72457   4.499   3.766   1.117  0.5372  0.4017 -0.4235
  526MOL0     O72458   4.622   3.785   1.058  0.1327  0.5799  0.1922
  526MOL0     C72459   4.675   3.663   1.003 -0.2302  0.1465  0.1205
  526MOL0     C72460   4.825   3.680   0.992 -0.4154 -0.6096  0.2013
  526MOL0     C72461   4.877   3.555   0.908 -0.1647 -0.4257  0.0250
  526MOL0     C72462   5.010   3.582   0.849  0.1279 -0.1859 -0.0802
  526MOL0     C72463   5.115   3.550   0.945 -0.3391  0.0618  0.2261
  526MOL0     C72464   5.265   3.582   0.905 -0.0506 -0.7852  1.0878
  526MOL0     C72465   5.285   3.729   0.858 -0.6626 -0.5482 -0.4542
  526MOL0     C72466   5.256   3.825   0.971 -0.4365 -0.3413 -0.2490
  526MOL0     N72467   5.314   3.954   0.928 -0.4782 -0.1135  0.7913
  526MOL0     C72468   5.247   4.035   0.835  0.2271  0.7873  0.3139
  526MOL0     C72469   5.325   4.145   0.820 -0.1837 -0.2841 -0.7724
  526MOL0     C72470   5.290   4.252   0.718 -0.1349  0.1492 -0.1171
  526MOL0     C72471   5.359   4.386   0.749  0.6245 -0.1774 -0.5963
  526MOL0     C72472   5.333   4.493   0.643  0.3655 -0.7303  0.1180
  526MOL0     C72473   5.420   4.626   0.661  0.9066  0.0574  0.4139
  526MOL0     O72474   5.559   4.601   0.629  0.2647 -0.0463 -0.1773
  526MOL0     C72475   5.643   4.710   0.605  0.2906  0.6871  0.2713
  526MOL0     C72476   5.599   4.846   0.583  0.7986  0.4857 -0.1291
  526MOL0     C72477   5.686   4.952   0.591 -0.3586 -0.1309  0.1336
  526MOL0     C72478   5.629   5.093   0.584 -0.0629  1.0432  0.2881
  526MOL0     C72479   5.831   4.922   0.607 -0.0613  0.4691  0.4835
  526MOL0     C72480   5.939   5.024   0.613 -0.1471 -0.2437  0.4613
  526MOL0     O72481   5.919   5.133   0.688 -0.1052  0.0263  0.0857
  526MOL0     C72482   6.021   5.200   0.749  0.0790 -0.0866  0.4726
  526MOL0     C72483   5.981   5.321   0.802  0.0252 -0.0450  0.2922
  526MOL0     C72484   6.073   5.404   0.875 -1.1117  0.1517 -0.9010
  526MOL0     C72485   6.215   5.375   0.883 -0.1421 -0.0359  0.7179
  526MOL0     O72486   6.315   5.445   0.945  0.1982  0.4449  0.6950
  526MOL0     C72487   6.304   5.588   0.959 -0.7493  0.9841  0.1143
  526MOL0     C72488   6.411   5.638   1.057 -0.5898 -0.0467  0.8563
  526MOL0     C72489   6.557   5.589   1.028  0.4567  0.6011 -0.1635
  526MOL0     C72490   6.656   5.646   1.133  0.4889 -0.0889  0.0516
  526MOL0     C72491   6.778   5.562   1.164  0.2671  0.5649 -1.0944
  526MOL0     C72492   6.868   5.506   1.055 -0.2145 -0.6459  0.4809
  526MOL0     C72493   6.914   5.615   0.950 -0.7992  0.3403  0.0589
  526MOL0     C72494   6.995   5.722   1.019 -0.5875 -0.1437 -0.3160
  526MOL0    Cl72495   7.165   5.683   1.002 -0.4023 -0.3062  0.1297
  526MOL0     C72496   6.247   5.250   0.824 -0.1834  0.8986  0.5446
  526MOL0     C72497   6.159   5.165   0.753  0.3903  0.1781 -0.2419
  526MOL0     O72498   6.041   5.000   0.546  0.6668  0.2175  0.2288
  526MOL0     C72499   5.871   4.786   0.606  0.2897  0.2127 -0.0135
  526MOL0     C72500   5.777   4.686   0.611 -0.0442  0.5569 -0.1267
  526MOL0     N72501   5.439   4.138   0.897  0.3527  1.1820  0.4058
  526MOL0     N72502   5.428   4.026   0.967  0.6734 -0.3752  0.4371
  526MOL0     C72503   4.411   3.649   1.096 -1.0828 -0.1540 -0.7061
  526MOL0     C72504   4.283   3.658   1.156  0.1413 -0.5273  0.6044
  526MOL0     C72505   3.912   3.902   1.317  0.4322 -0.2153 -0.2024
  526MOL0     C72506   3.936   3.918   1.456 -0.4368 -0.2233 -0.1995
  526MOL0     C72507   3.835   3.952   1.547 -0.6917 -0.0388 -0.8548
  526MOL0     C72508   3.705   3.978   1.501  0.2474  0.3554  0.4383
  526MOL0     O72509   3.607   4.005   1.587 -0.6702  0.2637 -0.1831
  526MOL0     C72510   3.466   4.003   1.547 -0.7167 -0.2434  0.1492
  526MOL0     C72511   3.380   4.029   1.676  0.9974 -0.5320  0.0760
  526MOL0     C72512   3.235   4.074   1.637 -0.2628 -1.0221 -0.4332
  526MOL0     C72513   3.173   4.155   1.757 -0.2186 -1.3813  1.1612
  526MOL0     C72514   3.023   4.175   1.736  0.4239  0.5823 -0.0869
  526MOL0     C72515   2.909   4.180   1.693  0.2414 -0.2541 -0.3771
  526MOL0     C72516   3.688   3.987   1.357 -0.2276  0.5221 -0.5145
  526MOL0     C72517   3.786   3.943   1.272 -0.3625 -0.1702 -0.3365
  526MOL0     C72518   3.737   3.927   1.124  0.0821 -0.3237 -0.2402
  526MOL0     H72519   4.300   3.946   1.329 -2.4009  0.6296 -2.7021
  526MOL0     H72520   4.536   3.943   1.224  2.3835 -0.8353 -0.8650
  526MOL0     H72521   4.632   3.638   0.905  1.0138 -0.4279 -0.3042
  526MOL0     H72522   4.660   3.579   1.070 -0.8316  2.4209  3.0376
  526MOL0     H72523   4.856   3.767   0.934 -1.0132  0.4179  1.3846
  526MOL0     H72524   4.873   3.679   1.091 -4.3060 -1.2090  2.2772
  526MOL0     H72525   4.879   3.467   0.974  0.6546  0.7375  1.6178
  526MOL0     H72526   4.811   3.543   0.823 -2.1487 -2.4739  1.7193
  526MOL0     H72527   5.019   3.517   0.762 -0.9954 -1.0691  0.4326
  526MOL0     H72528   5.026   3.683   0.809  0.1904 -0.8660 -1.8639
  526MOL0     H72529   5.119   3.444   0.971  2.4739  0.3256  1.1506
  526MOL0     H72530   5.099   3.608   1.037  1.7663  1.2653 -0.1072
  526MOL0     H72531   5.338   3.547   0.979 -0.0980 -1.5517  0.7756
  526MOL0     H72532   5.290   3.511   0.826  1.1156 -0.3835  1.0621
  526MOL0     H72533   5.226   3.749   0.768 -0.6681 -0.4419 -0.4272
  526MOL0     H72534   5.392   3.738   0.835 -1.3030  0.8484 -3.3205
  526MOL0     H72535   5.147   3.832   0.981 -0.2111  0.1199  2.4667
  526MOL0     H72536   5.297   3.804   1.070 -0.7449  3.2942  0.7905
  526MOL0     H72537   5.147   4.020   0.795  0.2586 -0.5607  0.6839
  526MOL0     H72538   5.182   4.271   0.711 -0.0840  0.3809 -0.2543
  526MOL0     H72539   5.309   4.220   0.615 -1.3666 -0.4061 -0.1990
  526MOL0     H72540   5.333   4.420   0.850  0.4461  0.6822 -0.9256
  526MOL0     H72541   5.468   4.372   0.753  0.5839 -1.4301 -2.5300
  526MOL0     H72542   5.354   4.457   0.542  1.1593 -0.1107  0.0530
  526MOL0     H72543   5.230   4.528   0.648  0.6839  0.6103 -1.6900
  526MOL0     H72544   5.379   4.699   0.589  0.2707 -0.3496  0.3606
  526MOL0     H72545   5.411   4.671   0.760 -3.0975  1.0625 -0.2308
  526MOL0     H72546   5.495   4.868   0.566  0.4076 -0.8698  0.3838
  526MOL0     H72547   5.695   5.169   0.541  0.3457  0.3194 -0.4043
  526MOL0     H72548   5.583   5.116   0.681 -0.0797 -1.6757  1.0123
  526MOL0     H72549   5.543   5.077   0.518  0.5008 -2.4784  0.2200
  526MOL0     H72550   5.875   5.343   0.806  0.3102  1.4602  0.0402
  526MOL0     H72551   6.044   5.499   0.919 -0.1947 -1.1203  2.7710
  526MOL0     H72552   6.324   5.641   0.865  1.6393 -2.0197 -1.2349
  526MOL0     H72553   6.204   5.621   0.990 -1.0190 -2.1230  3.1030
  526MOL0     H72554   6.405   5.747   1.052 -4.0257 -0.1426  0.5064
  526MOL0     H72555   6.371   5.604   1.153 -1.4908  0.5262  0.7064
  526MOL0     H72556   6.586   5.617   0.926 -1.8376 -0.2053 -1.0992
  526MOL0     H72557   6.567   5.480   1.031  0.1743  0.5976  1.3511
  526MOL0     H72558   6.611   5.662   1.231 -0.1812  1.2883 -0.4537
  526MOL0     H72559   6.692   5.745   1.101 -0.9968  0.1163 -1.0896
  526MOL0     H72560   6.837   5.625   1.231 -0.0237 -1.7316  1.4949
  526MOL0     H72561   6.729   5.480   1.218 -1.0089  1.4392 -0.9046
  526MOL0     H72562   6.812   5.425   1.007  3.5965 -2.2888 -1.6723
  526MOL0     H72563   6.957   5.457   1.095 -0.3447 -1.0875  0.2422
  526MOL0     H72564   6.830   5.651   0.890 -0.0207 -0.5994 -1.6867
  526MOL0     H72565   6.972   5.561   0.874  0.0593  0.5978  0.5233
  526MOL0     H72566   6.964   5.744   1.121  1.3235  1.7847 -0.0683
  526MOL0     H72567   6.988   5.818   0.966 -1.9444  0.9028  1.6202
  526MOL0     H72568   6.351   5.223   0.829  0.1010  1.0206 -2.6267
  526MOL0     H72569   6.201   5.082   0.698  1.1236  1.0490 -1.0419
  526MOL0     H72570   5.977   4.764   0.598  0.5638  1.4782 -0.0327
  526MOL0     H72571   5.813   4.584   0.609 -0.3432  0.4514 -0.1745
  526MOL0     H72572   4.419   3.563   1.030 -0.0479 -0.5267 -0.1131
  526MOL0     H72573   4.216   3.573   1.147 -1.1956  0.2363  2.6140
  526MOL0     H72574   4.036   3.895   1.493  1.3967  2.9392 -2.6314
  526MOL0     H72575   3.851   3.971   1.653  1.4080  1.2463 -1.3582
  526MOL0     H72576   3.439   4.078   1.472  0.9980 -0.1331 -0.3791
  526MOL0     H72577   3.454   3.899   1.514  5.5182 -1.6062  1.0900
  526MOL0     H72578   3.428   4.104   1.739 -0.9443  0.4838  0.4517
  526MOL0     H72579   3.371   3.934   1.729 -1.1203 -0.5534 -0.2092
  526MOL0     H72580   3.229   4.141   1.550 -2.2571  1.4849  1.4829
  526MOL0     H72581   3.176   3.984   1.618  0.8138 -2.0434  0.9055
  526MOL0     H72582   3.211   4.258   1.755 -1.9993 -0.6918 -0.9951
  526MOL0     H72583   3.199   4.114   1.855  0.4050 -0.5193  1.3727
  526MOL0     H72584   2.807   4.194   1.664  0.2212 -1.1405 -0.7691
  526MOL0     H72585   3.595   4.018   1.310 -0.2268  2.9505  0.9215
  526MOL0     H72586   3.790   3.989   1.051  2.1746 -3.1322 -1.2993
  526MOL0     H72587   3.772   3.828   1.091  0.1309  0.1743 -1.7828
  526MOL0     H72588   3.630   3.949   1.117  0.3838  0.9277 -1.3064
  527MOL0     O72589   1.031   3.446   0.001  0.2080 -0.0196 -0.2130
  527MOL0     C72590   1.129   3.376  -0.007  0.1962 -0.4326 -1.0035
  527MOL0     O72591   1.154   3.277  -0.090  0.4398  0.0681  0.3204
  527MOL0     C72592   1.051   3.257  -0.182  0.0664 -0.0604  0.2160
  527MOL0     C72593   0.941   3.185  -0.149 -0.2765  0.3055  0.0421
  527MOL0     C72594   0.844   3.141  -0.243  0.1317 -0.8590 -0.0642
  527MOL0     C72595   0.864   3.174  -0.379 -0.0758  0.8240  0.5711
  527MOL0     O72596   0.769   3.122  -0.460 -0.3526 -0.0784 -0.0044
  527MOL0     C72597   0.740   3.187  -0.579  0.2595  0.9801  0.4834
  527MOL0     C72598   0.596   3.176  -0.631  0.0872  0.1548  0.2543
  527MOL0     C72599   0.563   3.260  -0.757  0.4109  0.2613 -0.2579
  527MOL0     C72600   0.437   3.203  -0.827  0.2171  0.2154 -0.1022
  527MOL0     C72601   0.386   3.289  -0.940 -0.4400  0.2191  0.7673
  527MOL0     C72602   0.259   3.213  -1.000 -0.0776  0.5914  0.1759
  527MOL0     C72603   0.180   3.295  -1.101  0.1370 -0.3082 -0.6035
  527MOL0     C72604   0.091   3.407  -1.046  0.0683 -0.0929 -0.4144
  527MOL0     N72605  -0.007   3.364  -0.948  0.0145  0.8682 -0.7682
  527MOL0     C72606  -0.106   3.284  -0.963  0.1456 -0.1781  1.3834
  527MOL0     C72607  -0.167   3.271  -0.844  0.2196 -0.1283 -0.9767
  527MOL0     C72608  -0.289   3.186  -0.820  0.1644 -0.6922 -0.4600
  527MOL0     C72609  -0.363   3.136  -0.949  0.8768 -0.1874 -0.3927
  527MOL0     C72610  -0.485   3.048  -0.921 -0.4713 -0.9138  0.5212
  527MOL0     C72611  -0.603   3.117  -0.847 -0.4532 -0.5475 -0.4167
  527MOL0     O72612  -0.635   3.253  -0.891  0.3678 -0.7683 -0.1774
  527MOL0     C72613  -0.756   3.262  -0.951  0.2274  1.5613 -1.1722
  527MOL0     C72614  -0.866   3.328  -0.885  0.2663 -0.6132  0.1999
  527MOL0     C72615  -1.004   3.323  -0.934  0.0604 -0.6594 -0.0934
  527MOL0     C72616  -1.102   3.398  -0.844 -0.2799 -0.2572  0.0946
  527MOL0     C72617  -1.025   3.235  -1.044  0.4958  0.4219 -0.7564
  527MOL0     C72618  -1.162   3.207  -1.102  0.6700  0.1677  0.1393
  527MOL0     O72619  -1.263   3.288  -1.051  0.1124  0.1702  0.5201
  527MOL0     C72620  -1.397   3.248  -1.033 -0.4587  0.8642 -0.3643
  527MOL0     C72621  -1.444   3.117  -1.041  0.7477  0.7239  0.2374
  527MOL0     C72622  -1.584   3.085  -1.036 -0.8033  0.0697 -0.3033
  527MOL0     C72623  -1.673   3.193  -1.009 -0.5633  0.0660  0.0587
  527MOL0     O72624  -1.803   3.181  -0.979 -0.0436  0.5830 -0.2424
  527MOL0     C72625  -1.848   3.048  -0.940  0.2782  0.5111 -0.4132
  527MOL0     C72626  -1.996   3.064  -0.895 -0.0402  0.4780  0.0733
  527MOL0     C72627  -2.062   2.930  -0.859  0.0191 -0.3041 -0.6227
  527MOL0     C72628  -2.211   2.950  -0.853  0.8957 -0.2706 -0.1796
  527MOL0     C72629  -2.283   2.830  -0.799 -0.0197 -0.7517  0.7056
  527MOL0     C72630  -2.264   2.701  -0.887 -0.5760 -0.2677  0.5721
  527MOL0     C72631  -2.350   2.581  -0.830  0.2559 -0.1154  0.6415
  527MOL0     C72632  -2.499   2.591  -0.859 -0.0219 -0.2595 -0.5352
  527MOL0    Cl72633  -2.514   2.596  -1.032 -0.2942 -0.0321 -0.1532
  527MOL0     C72634  -1.625   3.328  -0.994  0.8972  0.9314  0.2528
  527MOL0     C72635  -1.492   3.351  -1.014 -0.2176 -0.0761  0.0415
  527MOL0     O72636  -1.178   3.111  -1.182 -0.0015  0.3598 -0.3920
  527MOL0     C72637  -0.912   3.171  -1.107 -0.1604 -0.7781  0.0029
  527MOL0     C72638  -0.776   3.194  -1.068 -0.0431 -0.0001  0.1181
  527MOL0     N72639  -0.106   3.351  -0.746 -0.0089 -0.0539 -0.5478
  527MOL0     N72640  -0.006   3.402  -0.814  0.0679 -0.2048 -0.4391
  527MOL0     C72641   0.979   3.258  -0.420 -0.0685 -0.3251  0.0825
  527MOL0     C72642   1.071   3.300  -0.316  0.0966 -0.3240 -0.6669
  527MOL0     C72643   1.238   3.423   0.073  0.2608  0.8552  0.2489
  527MOL0     C72644   1.351   3.466   0.011  0.4213  0.1645 -0.0509
  527MOL0     C72645   1.460   3.509   0.083  0.3269 -0.0497  0.6077
  527MOL0     C72646   1.454   3.523   0.220  0.7451 -0.6848 -1.2059
  527MOL0     O72647   1.564   3.565   0.298  0.1955  0.3440 -0.0755
  527MOL0     C72648   1.699   3.580   0.239  0.1964  0.1378  0.3868
  527MOL0     C72649   1.794   3.603   0.361  1.1817 -0.0482 -0.0699
  527MOL0     C72650   1.937   3.582   0.303  0.0899  0.0329  0.1901
  527MOL0     C72651   1.991   3.708   0.240 -0.1081 -0.5058 -0.2722
  527MOL0     C72652   1.935   3.754   0.112 -0.4176  1.1340  0.2330
  527MOL0     C72653   1.905   3.797   0.005  0.5490  0.1320  0.3029
  527MOL0     C72654   1.341   3.496   0.283 -0.8555  0.0787 -1.4318
  527MOL0     C72655   1.227   3.444   0.216  0.0673 -0.3562  0.8652
  527MOL0     C72656   1.105   3.396   0.309 -0.4498 -0.9479 -0.5135
  527MOL0     H72657   0.940   3.147  -0.047 -0.1750 -3.4120 -1.2194
  527MOL0     H72658   0.763   3.081  -0.202  0.3675 -0.0854  1.6378
  527MOL0     H72659   0.799   3.137  -0.656  0.2511  1.8296 -0.0901
  527MOL0     H72660   0.760   3.294  -0.569 -0.4515  1.0480  1.3611
  527MOL0     H72661   0.579   3.071  -0.658 -0.4412  0.6842 -1.6011
  527MOL0     H72662   0.532   3.217  -0.552  0.3034 -2.1296  1.7297
  527MOL0     H72663   0.547   3.362  -0.720  2.2166  0.4495  0.1226
  527MOL0     H72664   0.639   3.246  -0.834 -0.5700 -3.1109 -0.7790
  527MOL0     H72665   0.471   3.107  -0.868  2.1268  0.8819 -0.1610
  527MOL0     H72666   0.355   3.185  -0.757 -0.6809 -4.1261 -1.8947
  527MOL0     H72667   0.450   3.309  -1.027 -2.0179  1.7280 -0.1251
  527MOL0     H72668   0.352   3.386  -0.903 -1.7896 -0.6141  1.8175
  527MOL0     H72669   0.276   3.113  -1.041 -0.7244  0.3217  0.5548
  527MOL0     H72670   0.187   3.205  -0.918 -0.9901  1.8087 -0.4766
  527MOL0     H72671   0.130   3.222  -1.165  0.4345 -1.5969  0.5942
  527MOL0     H72672   0.252   3.343  -1.168 -1.5437  2.5049 -0.5540
  527MOL0     H72673   0.162   3.472  -0.995 -1.0729  0.9264 -0.0831
  527MOL0     H72674   0.040   3.457  -1.129 -1.3366 -0.1170  0.4113
  527MOL0     H72675  -0.136   3.249  -1.061  2.5625  1.5130 -0.0648
  527MOL0     H72676  -0.353   3.244  -0.753  0.9387 -1.3144  0.8472
  527MOL0     H72677  -0.259   3.097  -0.763  1.7103  0.6725  0.9428
  527MOL0     H72678  -0.398   3.224  -1.005 -1.2394 -2.2794 -2.5762
  527MOL0     H72679  -0.293   3.079  -1.011 -0.0295  1.5049 -3.1681
  527MOL0     H72680  -0.526   3.026  -1.019 -0.6040 -1.2588  0.6517
  527MOL0     H72681  -0.445   2.960  -0.868  2.0875 -0.0432  0.1706
  527MOL0     H72682  -0.698   3.064  -0.839 -1.4214  1.1019 -0.3920
  527MOL0     H72683  -0.562   3.126  -0.745  0.6582  0.2662 -0.9161
  527MOL0     H72684  -0.844   3.402  -0.808 -2.0887  2.5648 -1.9464
  527MOL0     H72685  -1.055   3.436  -0.753  0.2777 -0.8664  0.0635
  527MOL0     H72686  -1.179   3.327  -0.812  0.0810  0.4675  2.7700
  527MOL0     H72687  -1.149   3.480  -0.900 -2.4416  0.4896  2.7948
  527MOL0     H72688  -1.372   3.040  -1.068  0.0412  0.6176 -1.5089
  527MOL0     H72689  -1.614   2.981  -1.042 -1.4883  0.2324  0.1895
  527MOL0     H72690  -1.846   2.970  -1.017 -2.3735  0.5753 -0.6402
  527MOL0     H72691  -1.795   2.997  -0.859  2.2122  1.1497 -1.2072
  527MOL0     H72692  -2.000   3.129  -0.807  0.2679 -0.8238  1.0791
  527MOL0     H72693  -2.046   3.113  -0.979 -0.0339  1.1399  0.4519
  527MOL0     H72694  -2.028   2.903  -0.758 -0.4362  1.7172  0.1012
  527MOL0     H72695  -2.036   2.867  -0.945 -1.0301  1.9415 -2.7074
  527MOL0     H72696  -2.246   2.979  -0.953  1.7298  0.4904 -0.2743
  527MOL0     H72697  -2.225   3.040  -0.792 -0.9525  2.4920 -4.1890
  527MOL0     H72698  -2.238   2.816  -0.700  0.5108 -1.0086  0.4369
  527MOL0     H72699  -2.390   2.849  -0.798  0.0750 -0.0993 -0.1156
  527MOL0     H72700  -2.162   2.661  -0.879 -0.5670 -1.0651 -2.3559
  527MOL0     H72701  -2.285   2.722  -0.992 -1.1531  3.4878  1.3311
  527MOL0     H72702  -2.333   2.569  -0.723 -2.5936 -0.6317  1.1186
  527MOL0     H72703  -2.315   2.486  -0.872  5.6073  0.4593  3.0268
  527MOL0     H72704  -2.539   2.684  -0.819 -0.1598  0.1653 -1.6370
  527MOL0     H72705  -2.558   2.504  -0.828  0.3754 -0.9001 -1.5287
  527MOL0     H72706  -1.698   3.408  -0.984  0.5796  0.6575  0.1489
  527MOL0     H72707  -1.456   3.453  -1.027 -0.1356 -0.3608 -2.4613
  527MOL0     H72708  -0.920   3.104  -1.193  3.0317 -1.3864  0.0662
  527MOL0     H72709  -0.698   3.136  -1.116 -0.0269  1.3325 -1.5698
  527MOL0     H72710   0.991   3.287  -0.524  2.8322 -0.0302  0.4378
  527MOL0     H72711   1.152   3.368  -0.339  0.8142 -0.0651  2.1909
  527MOL0     H72712   1.363   3.462  -0.097 -0.7279  0.2889 -0.1974
  527MOL0     H72713   1.551   3.528   0.027  0.6665 -1.5969  0.6040
  527MOL0     H72714   1.727   3.489   0.185 -1.5477 -0.2088  0.0075
  527MOL0     H72715   1.696   3.666   0.172 -4.2851  0.7917  1.0978
  527MOL0     H72716   1.763   3.526   0.431  0.2115  0.1170 -0.2989
  527MOL0     H72717   1.777   3.703   0.402 -1.9855 -0.3795 -0.2990
  527MOL0     H72718   1.985   3.564   0.400 -2.3449 -2.7491  1.0237
  527MOL0     H72719   1.953   3.507   0.224  1.4938  1.1800 -0.6728
  527MOL0     H72720   2.098   3.690   0.226 -0.4493 -2.0445 -1.1358
  527MOL0     H72721   1.972   3.792   0.307 -2.4277 -0.6347 -0.6833
  527MOL0     H72722   1.879   3.853  -0.083  0.3212  4.0352  2.6477
  527MOL0     H72723   1.333   3.518   0.389 -0.8691  0.4086 -1.5003
  527MOL0     H72724   1.091   3.291   0.282 -2.1325 -1.5960  2.3928
  527MOL0     H72725   1.140   3.390   0.412  0.2323  2.8300 -0.3836
  527MOL0     H72726   1.012   3.451   0.292 -0.5290 -1.4995 -2.0744
  528MOL0     O72727   7.905   0.992   8.507 -0.6854 -0.9306  0.2892
  528MOL0     C72728   7.813   0.956   8.577  0.1917  0.5882  0.0398
  528MOL0     O72729   7.826   0.901   8.698 -0.8855 -1.3064 -0.1739
  528MOL0     C72730   7.959   0.882   8.749  0.0737 -0.5142  0.8127
  528MOL0     C72731   8.004   0.957   8.857 -1.2165  0.1930  0.3226
  528MOL0     C72732   8.132   0.942   8.908 -0.5828  0.6579  0.0571
  528MOL0     C72733   8.212   0.839   8.866  0.5671  0.1714  0.0400
  528MOL0     O72734   8.333   0.840   8.925  0.4498  0.7324  0.3301
  528MOL0     C72735   8.436   0.846   8.819 -0.2044 -0.6013 -0.6288
  528MOL0     C72736   8.546   0.943   8.871  0.2075  0.1809 -0.4196
  528MOL0     C72737   8.624   0.887   8.992 -0.2156 -0.1701 -0.4691
  528MOL0     C72738   8.740   0.983   9.026 -0.3227  0.2570  0.2024
  528MOL0     C72739   8.849   0.916   9.106  0.1836 -0.1247  0.0042
  528MOL0     C72740   8.794   0.827   9.226 -0.5546 -1.0038 -0.1288
  528MOL0     C72741   8.907   0.797   9.330 -1.1274  0.4881 -0.6233
  528MOL0     C72742   8.850   0.693   9.429  0.5572  0.5239  0.5671
  528MOL0     N72743   8.963   0.648   9.509 -0.2632  0.2841  0.3112
  528MOL0     C72744   9.019   0.746   9.596 -0.2344  0.8902  0.6017
  528MOL0     C72745   9.140   0.693   9.628 -0.4076 -0.8724 -0.4351
  528MOL0     C72746   9.233   0.740   9.736 -0.4407  0.6216 -0.2804
  528MOL0     C72747   9.375   0.708   9.722  0.2653  0.4099 -0.0553
  528MOL0     C72748   9.428   0.597   9.808 -0.6895  0.8092 -0.2899
  528MOL0     C72749   9.561   0.638   9.882 -1.4534 -0.1407  0.0057
  528MOL0     O72750   9.587   0.509   9.947 -0.0748  0.2217  0.8792
  528MOL0     C72751   9.715   0.471   9.998 -0.1740 -0.1046  0.1531
  528MOL0     C72752   9.826   0.554  10.004  0.0736  0.5064  0.1429
  528MOL0     C72753   9.944   0.520  10.065  0.3736  0.0411  1.0830
  528MOL0     C72754  10.068   0.606  10.052  0.6926 -0.7643 -0.1406
  528MOL0     C72755   9.949   0.398  10.139 -0.2029  1.0220 -0.4350
  528MOL0     C72756  10.067   0.353  10.214  0.9294 -0.6246 -0.1064
  528MOL0     O72757  10.044   0.290  10.333  0.3032  0.0336  0.4381
  528MOL0     C72758  10.145   0.225  10.401 -0.3543 -0.2452 -0.8044
  528MOL0     C72759  10.165   0.254  10.536  0.1785 -0.6739 -0.2637
  528MOL0     C72760  10.259   0.185  10.615 -0.4508  0.6717  0.6528
  528MOL0     C72761  10.325   0.082  10.559  0.1418 -0.0877 -1.8685
  528MOL0     O72762  10.423   0.010  10.623 -0.4437 -0.3680 -0.9755
  528MOL0     C72763  10.419  -0.024  10.761 -0.0775  0.5751 -0.3791
  528MOL0     C72764  10.516  -0.134  10.807 -0.2802  0.2309  0.0274
  528MOL0     C72765  10.539  -0.243  10.697 -0.2458  0.2201 -0.9949
  528MOL0     C72766  10.648  -0.352  10.730 -0.3496  0.1070 -0.3647
  528MOL0     C72767  10.688  -0.437  10.609  0.5906 -1.1589 -0.5189
  528MOL0     C72768  10.817  -0.523  10.623  0.1690 -0.7903  0.7005
  528MOL0     C72769  10.947  -0.441  10.660 -0.1418 -0.7842  0.3645
  528MOL0     C72770  10.983  -0.315  10.578 -0.8142 -0.1355 -0.0149
  528MOL0    Cl72771  11.050  -0.388  10.424 -0.0146  0.4102 -0.2223
  528MOL0     C72772  10.315   0.060  10.422 -0.5836  1.0037 -0.3817
  528MOL0     C72773  10.234   0.135  10.345  1.1350  0.0991  0.2782
  528MOL0     O72774  10.176   0.394  10.181  0.2216 -0.7772 -0.3954
  528MOL0     C72775   9.840   0.317  10.141  0.0535 -0.5893 -0.3018
  528MOL0     C72776   9.721   0.344  10.063 -0.1181  0.6900 -0.6731
  528MOL0     N72777   9.157   0.578   9.554  0.1428  0.5345 -0.3887
  528MOL0     N72778   9.057   0.559   9.474  0.1838  0.7636  0.2481
  528MOL0     C72779   8.167   0.760   8.759  0.2271  0.1495  0.5980
  528MOL0     C72780   8.042   0.788   8.697 -0.5807 -0.5249  0.1862
  528MOL0     C72781   7.669   0.976   8.531 -0.1772 -0.8716 -0.3534
  528MOL0     C72782   7.577   0.995   8.627 -0.7055  0.2523  0.1466
  528MOL0     C72783   7.439   1.028   8.598 -0.9894 -0.7618 -0.3509
  528MOL0     C72784   7.398   1.032   8.469 -0.2784  0.6338 -0.4062
  528MOL0     O72785   7.271   1.068   8.438  0.2242 -0.0307  0.2490
  528MOL0     C72786   7.165   0.983   8.499 -0.1130 -0.5541 -0.1052
  528MOL0     C72787   7.083   0.915   8.392  0.3457  0.1220 -0.9473
  528MOL0     C72788   7.057   0.985   8.260  0.2994  1.1532 -0.1441
  528MOL0     C72789   6.968   0.896   8.170  0.4614  0.8951 -0.3552
  528MOL0     C72790   6.833   0.867   8.222  0.2441  0.3370  0.5113
  528MOL0     C72791   6.717   0.861   8.263 -1.4651  0.1533 -0.6195
  528MOL0     C72792   7.491   1.001   8.366  0.2888 -0.2390 -0.2062
  528MOL0     C72793   7.626   0.973   8.398  0.5329 -0.1207  1.1043
  528MOL0     C72794   7.722   0.937   8.287  0.0108 -0.0176  0.4724
  528MOL0     H72795   7.936   1.032   8.897  0.5008  2.5184 -0.8984
  528MOL0     H72796   8.177   1.012   8.977  0.2303  0.8806 -0.6855
  528MOL0     H72797   8.392   0.888   8.728 -1.7357  0.6654  0.6208
  528MOL0     H72798   8.480   0.748   8.800 -1.5993 -0.8169 -3.1447
  528MOL0     H72799   8.620   0.944   8.790 -0.5351 -1.7365 -1.1800
  528MOL0     H72800   8.516   1.047   8.885  1.6995  0.3653  2.0952
  528MOL0     H72801   8.551   0.888   9.073 -3.6268  4.4576 -3.0808
  528MOL0     H72802   8.663   0.788   8.966  1.8915  0.7460 -1.0232
  528MOL0     H72803   8.775   1.033   8.935 -1.6523 -0.8623 -0.9773
  528MOL0     H72804   8.698   1.063   9.088 -1.5147 -0.8751  0.9101
  528MOL0     H72805   8.922   0.986   9.149 -1.4814  0.4703  1.9791
  528MOL0     H72806   8.903   0.848   9.039  0.7009  2.0124 -1.9234
  528MOL0     H72807   8.707   0.882   9.262 -0.6463 -2.1420  1.4774
  528MOL0     H72808   8.756   0.729   9.195  5.4862 -3.3390 -1.6983
  528MOL0     H72809   8.936   0.888   9.384  3.3964 -1.6116  1.0246
  528MOL0     H72810   9.005   0.774   9.287  0.9866  3.6494  2.0265
  528MOL0     H72811   8.770   0.735   9.491 -1.4584  1.0299 -2.1869
  528MOL0     H72812   8.812   0.609   9.370  0.7088  1.9513 -1.6691
  528MOL0     H72813   8.976   0.837   9.636  1.3225  1.4270  1.1253
  528MOL0     H72814   9.198   0.709   9.835  3.7817 -0.2330  1.1433
  528MOL0     H72815   9.213   0.847   9.726  0.1618  0.5687 -2.8129
  528MOL0     H72816   9.392   0.685   9.616 -2.6603  1.3964 -0.8234
  528MOL0     H72817   9.433   0.797   9.750  1.0640  1.8726 -5.2324
  528MOL0     H72818   9.360   0.558   9.884  1.6540 -2.9736  0.1149
  528MOL0     H72819   9.457   0.508   9.751 -0.0421 -1.6214  3.5126
  528MOL0     H72820   9.642   0.664   9.813 -1.1860  0.2745  0.4622
  528MOL0     H72821   9.543   0.720   9.953  1.3601  0.2978  0.3127
  528MOL0     H72822   9.820   0.654   9.962 -0.3829  0.2754 -0.3613
  528MOL0     H72823  10.052   0.699   9.998  0.0197 -1.8216 -1.8487
  528MOL0     H72824  10.158   0.562  10.008 -0.7412 -2.3951 -1.6006
  528MOL0     H72825  10.096   0.641  10.152 -0.1873  4.0032 -1.3554
  528MOL0     H72826  10.110   0.336  10.581  1.2821 -0.4506  0.7239
  528MOL0     H72827  10.261   0.193  10.723 -1.3612  0.9895  0.6577
  528MOL0     H72828  10.447   0.065  10.818  0.2940  0.7997 -0.9054
  528MOL0     H72829  10.320  -0.068  10.776  0.6478 -2.0314 -2.4916
  528MOL0     H72830  10.614  -0.088  10.824  0.5644 -1.4512 -0.1293
  528MOL0     H72831  10.473  -0.181  10.896 -2.5831 -2.2500 -2.2184
  528MOL0     H72832  10.569  -0.199  10.602  0.2820 -1.9638 -1.8862
  528MOL0     H72833  10.446  -0.294  10.671  0.5926 -1.9233 -0.0210
  528MOL0     H72834  10.613  -0.425  10.804 -0.5100  1.7447  1.2529
  528MOL0     H72835  10.734  -0.315  10.787 -2.7981  2.7502  1.9969
  528MOL0     H72836  10.609  -0.512  10.593  0.2567 -1.1716  1.0443
  528MOL0     H72837  10.687  -0.367  10.526 -2.1589  0.0225  0.3753
  528MOL0     H72838  10.835  -0.566  10.524 -0.6842  0.1959  0.0882
  528MOL0     H72839  10.803  -0.602  10.698 -1.8754 -0.6533  0.5372
  528MOL0     H72840  11.037  -0.501  10.645  1.1730  1.4645 -1.4620
  528MOL0     H72841  10.936  -0.417  10.766 -3.4661  0.1741 -0.0828
  528MOL0     H72842  11.063  -0.254  10.621 -1.3005 -0.1073  0.8587
  528MOL0     H72843  10.894  -0.255  10.561  1.2472  3.1710 -0.0253
  528MOL0     H72844  10.385  -0.015  10.386  0.9433  1.1690  1.9971
  528MOL0     H72845  10.220   0.118  10.238 -2.6473  1.5600  0.3553
  528MOL0     H72846   9.847   0.229  10.204  1.7399  1.5888  2.8679
  528MOL0     H72847   9.646   0.269  10.044  1.0166 -0.2992 -1.3723
  528MOL0     H72848   8.231   0.686   8.712  0.0944 -0.6542  1.6451
  528MOL0     H72849   8.017   0.710   8.626 -3.9734  0.5919 -0.0229
  528MOL0     H72850   7.604   0.986   8.731 -0.5172  2.9323  0.4043
  528MOL0     H72851   7.370   1.030   8.682 -0.7304 -0.7891 -0.1341
  528MOL0     H72852   7.196   0.911   8.576 -1.1805 -1.9896 -0.9569
  528MOL0     H72853   7.098   1.055   8.547  1.6053  0.4824  0.8347
  528MOL0     H72854   6.992   0.884   8.443 -0.2385  0.2116 -1.9132
  528MOL0     H72855   7.145   0.829   8.366  0.1374 -0.0304 -0.9381
  528MOL0     H72856   7.013   1.084   8.270 -2.4963  0.0746 -0.6726
  528MOL0     H72857   7.154   1.001   8.211  0.8530  0.5627  0.7371
  528MOL0     H72858   7.017   0.801   8.148 -0.8382  0.5462 -1.9294
  528MOL0     H72859   6.947   0.937   8.070 -4.3856 -0.8703 -0.3342
  528MOL0     H72860   6.615   0.850   8.293 -0.9739  1.7854  1.9755
  528MOL0     H72861   7.452   0.979   8.267  1.3504 -2.1236 -0.2551
  528MOL0     H72862   7.657   0.891   8.211  0.4899  0.6175 -0.3415
  528MOL0     H72863   7.771   1.029   8.254  3.1573 -1.8955 -0.5926
  528MOL0     H72864   7.799   0.863   8.308  0.7681 -0.4014 -3.0799
  529MOL0     O72865   1.558   2.382   9.476  0.0367  0.3168  0.0587
  529MOL0     C72866   1.469   2.293   9.447 -0.7340 -0.1704  0.3902
  529MOL0     O72867   1.478   2.157   9.472 -0.6325  0.0481  0.2589
  529MOL0     C72868   1.606   2.100   9.510  0.8133  0.1579 -0.4961
  529MOL0     C72869   1.724   2.112   9.436 -0.6047 -0.8122 -0.4804
  529MOL0     C72870   1.845   2.082   9.494 -0.0394  0.3049 -0.3027
  529MOL0     C72871   1.858   2.029   9.623  0.4812 -0.7439  0.3494
  529MOL0     O72872   1.975   1.993   9.684 -0.4173 -0.6314 -0.1221
  529MOL0     C72873   2.087   1.990   9.611  0.7247 -0.1511 -0.4330
  529MOL0     C72874   2.197   1.957   9.713  0.4148 -0.5134  0.5618
  529MOL0     C72875   2.349   1.988   9.684 -0.0163  0.2342  0.1358
  529MOL0     C72876   2.376   2.138   9.669 -0.0619 -1.1707 -0.5168
  529MOL0     C72877   2.530   2.168   9.652 -0.2586  1.2007  0.4292
  529MOL0     C72878   2.583   2.143   9.509  0.1656 -0.4270 -0.6376
  529MOL0     C72879   2.741   2.161   9.504  0.6473 -0.3063  0.1154
  529MOL0     C72880   2.782   2.306   9.485 -0.0144  0.2632  0.5434
  529MOL0     N72881   2.750   2.351   9.350 -1.7063  0.8237  0.2180
  529MOL0     C72882   2.665   2.450   9.304  0.2603  0.0472 -1.5286
  529MOL0     C72883   2.676   2.455   9.172  0.0609  0.3922  1.0195
  529MOL0     C72884   2.617   2.559   9.078  0.8986 -0.1514  0.3432
  529MOL0     C72885   2.721   2.668   9.045 -0.4021 -1.1708  0.4098
  529MOL0     C72886   2.787   2.636   8.909 -0.3807  0.2387  0.3792
  529MOL0     C72887   2.798   2.760   8.827 -0.2272 -0.3418  1.6998
  529MOL0     O72888   2.846   2.739   8.691 -0.5407 -0.5303 -0.3872
  529MOL0     C72889   2.983   2.729   8.671 -0.0391  0.0174  0.3112
  529MOL0     C72890   3.020   2.678   8.547 -0.6170 -0.7176  0.4352
  529MOL0     C72891   3.158   2.665   8.512  0.2947  0.1586 -0.8352
  529MOL0     C72892   3.195   2.603   8.370 -0.3167 -1.0691  0.6768
  529MOL0     C72893   3.253   2.695   8.611 -0.1763 -0.5333 -0.1256
  529MOL0     C72894   3.398   2.676   8.591 -0.3318 -0.1705 -0.0967
  529MOL0     O72895   3.470   2.622   8.683 -0.1286 -0.4684 -0.9720
  529MOL0     C72896   3.600   2.591   8.653 -0.7209  0.5551  0.2486
  529MOL0     C72897   3.627   2.503   8.550  0.6250 -0.4693 -0.8214
  529MOL0     C72898   3.757   2.463   8.522  0.2551  0.9110  0.4069
  529MOL0     C72899   3.871   2.509   8.594  0.7097  0.5937  0.0278
  529MOL0     O72900   3.993   2.454   8.561 -0.0264  0.0556 -1.0115
  529MOL0     C72901   4.116   2.516   8.601  0.1338 -0.1536 -0.9346
  529MOL0     C72902   4.152   2.489   8.750 -0.6922  0.7518  0.8802
  529MOL0     C72903   4.231   2.607   8.809  0.1450 -0.2695  0.8557
  529MOL0     C72904   4.380   2.609   8.764 -0.4359  0.8479  0.6391
  529MOL0     C72905   4.462   2.685   8.863  0.1372 -0.5114  0.0267
  529MOL0     C72906   4.609   2.694   8.804 -0.1248 -0.8843  0.5392
  529MOL0     C72907   4.708   2.786   8.887 -0.0792 -0.2695 -0.1416
  529MOL0     C72908   4.693   2.938   8.866  0.7811  0.6682  0.5800
  529MOL0    Cl72909   4.801   3.031   8.981 -0.0765  0.0242 -0.3173
  529MOL0     C72910   3.843   2.591   8.707 -0.3439  0.4534  0.3545
  529MOL0     C72911   3.709   2.643   8.728 -0.3951 -0.1820  0.5821
  529MOL0     O72912   3.439   2.721   8.482  1.0634  0.1530 -0.3737
  529MOL0     C72913   3.217   2.748   8.737  0.0393 -0.2330  0.5014
  529MOL0     C72914   3.084   2.751   8.771  0.4807 -0.1080  0.0663
  529MOL0     N72915   2.768   2.368   9.135  0.2981  0.0540 -0.2322
  529MOL0     N72916   2.808   2.299   9.238  0.4987  0.4771  0.8638
  529MOL0     C72917   1.739   2.019   9.702  0.5519  0.6754  0.8755
  529MOL0     C72918   1.619   2.053   9.643  1.5369 -0.2951 -0.1174
  529MOL0     C72919   1.332   2.342   9.416  0.5336 -0.9166  0.3616
  529MOL0     C72920   1.218   2.309   9.496  0.6078 -0.7532  0.2710
  529MOL0     C72921   1.089   2.360   9.459 -0.2258 -0.2727  0.0497
  529MOL0     C72922   1.060   2.432   9.339 -0.5609  0.3217  0.5749
  529MOL0     O72923   0.934   2.455   9.291 -0.3175  0.3223 -0.4819
  529MOL0     C72924   0.823   2.459   9.385 -0.0537  0.2307  0.2200
  529MOL0     C72925   0.702   2.530   9.322 -0.5910  0.0360  0.4752
  529MOL0     C72926   0.573   2.528   9.410  0.0460  0.8323 -0.8757
  529MOL0     C72927   0.476   2.642   9.374  0.7115  0.2762  0.4652
  529MOL0     C72928   0.414   2.620   9.238  0.2365  1.2507 -0.3841
  529MOL0     C72929   0.353   2.588   9.136 -0.1459 -0.9643 -1.3644
  529MOL0     C72930   1.167   2.457   9.263 -0.5097 -0.0291  0.5824
  529MOL0     C72931   1.312   2.418   9.297 -0.2310  0.6497 -0.8784
  529MOL0     C72932   1.422   2.435   9.197 -1.0824  0.6134 -0.0026
  529MOL0     H72933   1.723   2.170   9.344 -1.7196  0.8465  0.5277
  529MOL0     H72934   1.928   2.099   9.425 -1.4915 -3.4649 -3.3700
  529MOL0     H72935   2.120   2.087   9.572  1.5908  0.2771  1.2955
  529MOL0     H72936   2.098   1.914   9.533 -3.2913 -1.3521 -0.0380
  529MOL0     H72937   2.182   2.004   9.811  0.3982  2.5062 -0.7572
  529MOL0     H72938   2.190   1.850   9.733  0.0996 -0.3691  1.2710
  529MOL0     H72939   2.402   1.940   9.767 -2.4154  0.7726  2.0750
  529MOL0     H72940   2.375   1.925   9.598 -1.8668  0.0933 -0.3709
  529MOL0     H72941   2.336   2.182   9.577  4.1829  2.2657 -1.0931
  529MOL0     H72942   2.335   2.195   9.752  2.2133  0.9200 -0.6725
  529MOL0     H72943   2.592   2.108   9.719 -1.4688 -0.0935  0.4476
  529MOL0     H72944   2.540   2.264   9.703  0.9233  0.4529  1.6850
  529MOL0     H72945   2.570   2.039   9.476  0.0897  0.0925 -2.3032
  529MOL0     H72946   2.541   2.209   9.433  1.0803  1.6282  0.5561
  529MOL0     H72947   2.779   2.104   9.419 -2.4828  0.3895 -1.9186
  529MOL0     H72948   2.792   2.122   9.593 -1.0060 -0.3117  1.0999
  529MOL0     H72949   2.732   2.366   9.561 -2.8567  0.2867 -1.1789
  529MOL0     H72950   2.890   2.296   9.496 -0.0126 -1.2517 -0.4596
  529MOL0     H72951   2.608   2.526   9.357  0.9990  1.1238 -2.2272
  529MOL0     H72952   2.534   2.612   9.125  2.2630 -0.2403  3.0483
  529MOL0     H72953   2.581   2.496   8.996  1.3965  2.4133 -1.9594
  529MOL0     H72954   2.670   2.762   9.027  0.2117 -1.0092 -0.5575
  529MOL0     H72955   2.792   2.676   9.128 -3.1563 -1.6756  2.9785
  529MOL0     H72956   2.886   2.599   8.937  1.2846  2.3583 -2.3081
  529MOL0     H72957   2.741   2.556   8.850  0.6106 -0.4915  0.5668
  529MOL0     H72958   2.697   2.802   8.821 -0.0553 -0.0635  0.4022
  529MOL0     H72959   2.855   2.837   8.881  3.9316 -0.5312 -1.8273
  529MOL0     H72960   2.948   2.654   8.470 -0.9974  1.5347  0.0075
  529MOL0     H72961   3.116   2.629   8.299  0.1425 -1.2311  0.1075
  529MOL0     H72962   3.187   2.494   8.378 -2.5805 -0.8998  1.4066
  529MOL0     H72963   3.286   2.645   8.327  1.7821 -3.7038  2.2465
  529MOL0     H72964   3.544   2.460   8.495 -1.2020 -0.8200  2.0363
  529MOL0     H72965   3.771   2.390   8.443  2.2603 -0.2262  1.7411
  529MOL0     H72966   4.198   2.470   8.545  0.6373 -0.1228 -0.2458
  529MOL0     H72967   4.113   2.624   8.586  2.7555  0.3541  1.3747
  529MOL0     H72968   4.065   2.465   8.812 -2.0608 -1.8499 -1.7266
  529MOL0     H72969   4.207   2.395   8.764  2.2930  2.3682  0.6611
  529MOL0     H72970   4.220   2.592   8.916 -0.8062 -1.3267  0.6256
  529MOL0     H72971   4.185   2.700   8.776  2.6716  1.6738  2.3927
  529MOL0     H72972   4.376   2.651   8.664 -1.4946 -0.8306 -0.0698
  529MOL0     H72973   4.422   2.508   8.764 -2.4082 -0.1091 -2.4792
  529MOL0     H72974   4.420   2.784   8.881 -0.2216 -1.0301  2.2990
  529MOL0     H72975   4.471   2.624   8.954  4.1258 -0.9259 -0.4534
  529MOL0     H72976   4.604   2.747   8.708  3.1959  2.2269  1.8448
  529MOL0     H72977   4.660   2.599   8.785  4.7392  1.6874 -0.9302
  529MOL0     H72978   4.813   2.771   8.858 -0.2474 -1.9288  0.0419
  529MOL0     H72979   4.704   2.760   8.993  1.9941 -0.4882 -0.0796
  529MOL0     H72980   4.589   2.953   8.893  0.5905 -1.3857  1.2035
  529MOL0     H72981   4.713   2.959   8.760 -1.0995  1.7380  0.4094
  529MOL0     H72982   3.929   2.632   8.759  0.2671 -1.0465  0.5773
  529MOL0     H72983   3.692   2.715   8.807  1.7360 -0.4803  1.3640
  529MOL0     H72984   3.279   2.792   8.814 -0.5446  1.2025  0.1833
  529MOL0     H72985   3.064   2.784   8.873  2.5227  2.4021 -0.2511
  529MOL0     H72986   1.750   1.984   9.804  0.1611  2.9188  1.7325
  529MOL0     H72987   1.524   2.038   9.693 -0.7365  3.3128 -2.8427
  529MOL0     H72988   1.226   2.250   9.587 -0.8901  1.6890  2.1386
  529MOL0     H72989   1.002   2.344   9.522  0.7135 -2.1158  0.9615
  529MOL0     H72990   0.803   2.356   9.416  2.1156 -0.3297 -0.0666
  529MOL0     H72991   0.864   2.522   9.465  0.9821  3.6993 -2.7379
  529MOL0     H72992   0.676   2.494   9.222 -1.4971  1.5446  0.1233
  529MOL0     H72993   0.731   2.635   9.317  0.6159 -0.3224 -0.3992
  529MOL0     H72994   0.513   2.439   9.392  3.6095 -2.0776  0.4357
  529MOL0     H72995   0.600   2.531   9.516  0.9502 -2.1984 -0.9415
  529MOL0     H72996   0.530   2.737   9.380 -0.0443  0.9222 -1.8489
  529MOL0     H72997   0.401   2.657   9.452  0.6109  1.4466  0.1589
  529MOL0     H72998   0.305   2.558   9.046  0.7577 -0.5172 -2.0148
  529MOL0     H72999   1.149   2.481   9.158  2.3653 -1.5107 -0.3574
  529MOL0     H73000   1.470   2.338   9.183 -1.1548  0.1784  2.3601
  529MOL0     H73001   1.391   2.461   9.095  2.5276  3.2182 -0.6435
  529MOL0     H73002   1.490   2.516   9.226  2.0892 -1.2316 -1.6050
  530MOL0     O73003   4.487   9.411   0.776  0.0122  0.0185  0.2451
  530MOL0     C73004   4.396   9.434   0.857 -0.1097  0.1627  0.0973
  530MOL0     O73005   4.418   9.453   0.986  0.5336  0.0464  0.3168
  530MOL0     C73006   4.543   9.434   1.040 -0.1121  0.1486 -0.1756
  530MOL0     C73007   4.607   9.302   1.040  0.5038 -0.7520 -0.8230
  530MOL0     C73008   4.731   9.283   1.100  0.3501  0.2538  0.0019
  530MOL0     C73009   4.804   9.403   1.152 -0.0958  0.3719 -0.9800
  530MOL0     O73010   4.930   9.404   1.201 -0.0871 -0.5893  0.2679
  530MOL0     C73011   4.999   9.284   1.194 -0.5980 -0.2769 -0.1071
  530MOL0     C73012   5.139   9.312   1.262 -0.0165 -0.1374  0.6057
  530MOL0     C73013   5.207   9.184   1.308  0.3799 -0.2804 -0.3471
  530MOL0     C73014   5.246   9.103   1.188  0.2331 -0.2233 -0.2469
  530MOL0     C73015   5.331   8.977   1.239  0.2997  0.1904 -0.6174
  530MOL0     C73016   5.335   8.858   1.137  0.1869  0.3218  0.0309
  530MOL0     C73017   5.470   8.800   1.103 -0.1735 -0.1145 -0.5440
  530MOL0     C73018   5.542   8.906   1.017  0.1223 -0.0232 -0.9610
  530MOL0     N73019   5.672   8.849   0.977 -0.1539  0.2034 -0.2618
  530MOL0     C73020   5.699   8.775   0.865  0.0288 -0.1064  0.4570
  530MOL0     C73021   5.824   8.726   0.883  0.0408 -0.4286  1.2339
  530MOL0     C73022   5.897   8.641   0.782  0.4074 -0.5393  0.1663
  530MOL0     C73023   6.045   8.648   0.802  0.8342  0.4094  0.0783
  530MOL0     C73024   6.100   8.538   0.892 -0.0222 -0.1800  0.4787
  530MOL0     C73025   6.252   8.512   0.877  0.4092 -0.5781  0.0036
  530MOL0     O73026   6.293   8.390   0.938 -0.1051 -0.0232 -0.6786
  530MOL0     C73027   6.426   8.359   0.926 -0.1573 -0.6586  1.2801
  530MOL0     C73028   6.465   8.240   0.979 -0.7928 -0.3820 -0.3338
  530MOL0     C73029   6.596   8.194   0.977 -1.0547  0.1791  0.7075
  530MOL0     C73030   6.633   8.067   1.055  0.6436 -0.2471  0.0502
  530MOL0     C73031   6.699   8.273   0.911 -0.0018 -0.5713 -0.4958
  530MOL0     C73032   6.845   8.243   0.923  0.2975  0.3344 -0.3945
  530MOL0     O73033   6.896   8.115   0.908 -0.7528 -0.0512  0.0667
  530MOL0     C73034   7.024   8.084   0.957  1.2052 -0.3619  0.3965
  530MOL0     C73035   7.079   8.136   1.079 -0.2668  0.1874  0.2122
  530MOL0     C73036   7.188   8.072   1.140 -0.3413 -0.3299  0.1931
  530MOL0     C73037   7.257   7.959   1.087 -0.3272 -0.1297 -0.7823
  530MOL0     O73038   7.361   7.903   1.165  0.3136 -0.7446  0.4824
  530MOL0     C73039   7.418   7.783   1.128 -1.5184 -1.0069 -0.3934
  530MOL0     C73040   7.541   7.758   1.221  0.8041  0.0257 -0.2460
  530MOL0     C73041   7.627   7.645   1.163 -0.3189  0.1272  0.4087
  530MOL0     C73042   7.752   7.617   1.262  0.3182  0.4434 -0.0819
  530MOL0     C73043   7.844   7.509   1.217  0.2926  0.6390  0.1267
  530MOL0     C73044   7.964   7.505   1.307  0.0422  0.3244 -0.0831
  530MOL0     C73045   8.059   7.390   1.269 -0.6333 -0.2795 -0.2075
  530MOL0     C73046   8.172   7.376   1.370  0.5156 -0.5497  0.1911
  530MOL0    Cl73047   8.252   7.208   1.376  0.2800  0.0085  0.1777
  530MOL0     C73048   7.192   7.908   0.973 -0.1672  0.1076 -0.6258
  530MOL0     C73049   7.079   7.962   0.910  0.2320 -0.5426  0.4544
  530MOL0     O73050   6.913   8.340   0.947 -0.1713 -1.0448 -0.3973
  530MOL0     C73051   6.653   8.392   0.854 -0.0808 -0.0786 -0.3104
  530MOL0     C73052   6.523   8.439   0.854  0.7999  0.9286  0.0535
  530MOL0     N73053   5.865   8.766   1.008 -0.1940  0.6285  0.0780
  530MOL0     N73054   5.776   8.836   1.055  0.6866  0.1894 -0.1948
  530MOL0     C73055   4.723   9.519   1.180  0.4924  0.5119  0.1640
  530MOL0     C73056   4.601   9.538   1.109  0.6677  0.1107 -1.0523
  530MOL0     C73057   4.258   9.441   0.821 -0.8900  0.2460 -0.0337
  530MOL0     C73058   4.163   9.433   0.926 -0.1057  0.6197 -0.8205
  530MOL0     C73059   4.033   9.450   0.910  0.7266  0.2938  0.7360
  530MOL0     C73060   3.983   9.484   0.791  1.2550 -0.4577 -0.2304
  530MOL0     O73061   3.840   9.486   0.781 -0.9471  0.3657  0.1959
  530MOL0     C73062   3.786   9.555   0.669 -0.8500  0.0489 -0.4061
  530MOL0     C73063   3.644   9.614   0.689 -0.4022  1.2279  0.6647
  530MOL0     C73064   3.544   9.511   0.652 -0.0348  0.8011 -0.2422
  530MOL0     C73065   3.403   9.567   0.667  0.6970  0.6571 -0.2168
  530MOL0     C73066   3.311   9.455   0.661  0.4233  0.1150 -0.3117
  530MOL0     C73067   3.243   9.357   0.651 -0.0334 -0.2043  0.0460
  530MOL0     C73068   4.067   9.478   0.679  0.2275 -0.0227  0.0315
  530MOL0     C73069   4.206   9.459   0.686 -0.4576  0.3330 -0.7749
  530MOL0     C73070   4.283   9.435   0.564  0.4941 -0.3699 -0.2595
  530MOL0     H73071   4.558   9.224   0.983 -0.2908  0.0668 -1.3014
  530MOL0     H73072   4.750   9.177   1.094 -1.8541 -0.4050  2.7059
  530MOL0     H73073   5.004   9.252   1.089  1.1460  1.3790 -0.5811
  530MOL0     H73074   4.951   9.207   1.255 -3.4955  1.2280 -0.2953
  530MOL0     H73075   5.205   9.360   1.190  0.3277 -1.5716 -0.0598
  530MOL0     H73076   5.122   9.379   1.347 -1.4335  1.8760 -1.1580
  530MOL0     H73077   5.291   9.194   1.377 -0.8532 -0.3335  1.2186
  530MOL0     H73078   5.142   9.115   1.362  4.9520 -3.7444  1.4634
  530MOL0     H73079   5.155   9.071   1.136  0.1321  0.9392 -0.8163
  530MOL0     H73080   5.304   9.175   1.129 -0.5964  1.7940  1.2826
  530MOL0     H73081   5.284   8.937   1.329 -0.6875 -0.2319 -1.3076
  530MOL0     H73082   5.433   9.012   1.257  1.3064 -1.7813 -2.0505
  530MOL0     H73083   5.266   8.781   1.174 -1.2828 -0.8781 -4.5653
  530MOL0     H73084   5.273   8.882   1.050  0.3670 -2.2263 -0.8626
  530MOL0     H73085   5.457   8.703   1.056  0.1574  0.0997 -1.0847
  530MOL0     H73086   5.526   8.767   1.191 -1.4369  1.8655  1.1099
  530MOL0     H73087   5.484   8.920   0.925 -0.5870 -0.3873 -0.5774
  530MOL0     H73088   5.545   9.002   1.068 -1.6662  1.0835 -2.7528
  530MOL0     H73089   5.632   8.773   0.779 -2.1714  2.4995  1.9690
  530MOL0     H73090   5.860   8.667   0.682 -1.0166  2.1649  1.2809
  530MOL0     H73091   5.869   8.536   0.796 -3.3328  0.0257 -1.9894
  530MOL0     H73092   6.098   8.626   0.709  0.8742 -2.0001  0.6009
  530MOL0     H73093   6.073   8.751   0.826 -0.1519  0.0520  3.1304
  530MOL0     H73094   6.085   8.572   0.995 -1.2015 -0.4091  0.3960
  530MOL0     H73095   6.050   8.441   0.881 -0.0272 -0.0008 -1.2595
  530MOL0     H73096   6.267   8.501   0.769 -1.0715 -1.7701 -0.1058
  530MOL0     H73097   6.302   8.601   0.917  0.8203  0.7675 -3.2274
  530MOL0     H73098   6.387   8.181   1.027 -0.1394 -0.8295  0.1999
  530MOL0     H73099   6.548   8.036   1.117 -1.2606  1.5390 -1.5135
  530MOL0     H73100   6.720   8.087   1.118  1.4127  1.6767 -1.5026
  530MOL0     H73101   6.661   7.983   0.992  0.6338  0.0756 -0.3906
  530MOL0     H73102   7.040   8.215   1.142  0.3030  0.4693  0.2226
  530MOL0     H73103   7.228   8.111   1.233 -1.0421 -1.9578  1.2313
  530MOL0     H73104   7.353   7.698   1.145 -1.3630 -1.0280  0.1138
  530MOL0     H73105   7.438   7.783   1.021 -0.2630 -1.6273 -0.1744
  530MOL0     H73106   7.603   7.848   1.220  0.6987  0.0982 -0.2595
  530MOL0     H73107   7.514   7.740   1.326  1.7871 -0.5542 -0.0818
  530MOL0     H73108   7.671   7.666   1.065  0.4119  1.0168  0.9136
  530MOL0     H73109   7.565   7.556   1.153 -1.1494  0.9214 -3.3013
  530MOL0     H73110   7.719   7.584   1.361 -0.4659 -1.4632 -0.9172
  530MOL0     H73111   7.802   7.711   1.285  0.0657  0.4757  0.3618
  530MOL0     H73112   7.786   7.417   1.228  2.0450 -0.3397  1.7837
  530MOL0     H73113   7.896   7.526   1.122  3.3789 -3.1137  0.8751
  530MOL0     H73114   7.929   7.495   1.410 -0.7192  1.9369 -0.1515
  530MOL0     H73115   8.016   7.600   1.294 -2.7885  1.8991 -0.6233
  530MOL0     H73116   8.106   7.427   1.177  0.0358  3.3868  1.4307
  530MOL0     H73117   8.009   7.293   1.266  0.1950 -0.6980 -0.6925
  530MOL0     H73118   8.125   7.381   1.468  0.3739  1.3376  0.0677
  530MOL0     H73119   8.240   7.462   1.369  1.0836 -0.9740 -1.7215
  530MOL0     H73120   7.220   7.806   0.946 -0.3404 -0.1383  0.0991
  530MOL0     H73121   7.012   7.917   0.837  0.2249 -0.6013  0.4973
  530MOL0     H73122   6.725   8.456   0.804 -0.8724  0.9088 -0.2163
  530MOL0     H73123   6.498   8.533   0.806 -0.0562  1.2867  1.1494
  530MOL0     H73124   4.755   9.604   1.239 -1.7857  2.5940 -1.3782
  530MOL0     H73125   4.549   9.633   1.115  0.7132  0.1602 -1.4737
  530MOL0     H73126   4.196   9.400   1.024 -3.1780 -0.4401 -0.0078
  530MOL0     H73127   3.968   9.440   0.996 -0.1821 -0.9525 -0.0613
  530MOL0     H73128   3.854   9.637   0.643  1.2597 -1.4057  0.2720
  530MOL0     H73129   3.794   9.493   0.580  0.9660  3.2835 -2.6950
  530MOL0     H73130   3.639   9.693   0.614  2.9725 -0.1556 -1.2905
  530MOL0     H73131   3.626   9.641   0.793 -3.7526  0.4170  0.3884
  530MOL0     H73132   3.561   9.474   0.550 -2.7311  1.0321 -0.8627
  530MOL0     H73133   3.550   9.428   0.722 -0.5001  1.8096  1.0464
  530MOL0     H73134   3.388   9.634   0.583 -0.1104  0.9983  0.1877
  530MOL0     H73135   3.382   9.615   0.763  0.0943 -0.3449  0.1671
  530MOL0     H73136   3.180   9.271   0.643  1.8975 -1.5692 -1.0748
  530MOL0     H73137   4.018   9.483   0.582 -2.6704 -2.8519  1.1883
  530MOL0     H73138   4.356   9.514   0.543 -0.7058  0.8141 -0.1383
  530MOL0     H73139   4.339   9.341   0.561  6.5284  2.6953 -3.2781
  530MOL0     H73140   4.211   9.438   0.483  0.9249  0.4250 -0.6265
  531MOL0     O73141   7.259   2.866   9.072 -0.0536  0.9048  0.1792
  531MOL0     C73142   7.193   2.840   8.967  0.0380  0.1819 -0.0517
  531MOL0     O73143   7.241   2.809   8.848 -0.1873 -0.2380 -0.1284
  531MOL0     C73144   7.378   2.787   8.841  0.1645  0.2344 -0.2401
  531MOL0     C73145   7.467   2.896   8.836  0.3527 -0.0420 -0.7618
  531MOL0     C73146   7.604   2.870   8.844 -0.2585 -0.2404  0.2235
  531MOL0     C73147   7.650   2.733   8.843 -0.9993 -0.3116  0.9577
  531MOL0     O73148   7.779   2.704   8.835  0.1492  0.2663  0.5414
  531MOL0     C73149   7.862   2.763   8.927 -0.1038  0.4645 -0.1534
  531MOL0     C73150   7.930   2.656   9.010  0.0944 -0.1555 -0.3021
  531MOL0     C73151   8.036   2.716   9.107  0.2987  0.6765 -0.0557
  531MOL0     C73152   8.172   2.742   9.031 -0.1773  0.0044 -0.4871
  531MOL0     C73153   8.253   2.619   9.000  1.0434 -0.3344 -0.3053
  531MOL0     C73154   8.322   2.564   9.126  0.0266  0.0023  0.2788
  531MOL0     C73155   8.420   2.450   9.085  0.1459  0.1392  0.3724
  531MOL0     C73156   8.492   2.405   9.207  0.3115  0.7933  0.5909
  531MOL0     N73157   8.597   2.495   9.225 -0.4440 -0.3235  0.2228
  531MOL0     C73158   8.698   2.531   9.131  0.3546  0.5401  0.0167
  531MOL0     C73159   8.774   2.622   9.200 -0.1261  0.8635 -0.1289
  531MOL0     C73160   8.887   2.701   9.149 -0.5561  0.8777  0.2575
  531MOL0     C73161   9.018   2.616   9.145  1.1308 -0.1484 -0.2151
  531MOL0     C73162   9.125   2.711   9.088  0.3391 -0.0922 -0.6002
  531MOL0     C73163   9.169   2.842   9.164  0.4697  0.6691  0.6811
  531MOL0     O73164   9.223   2.798   9.292 -0.9180 -0.2494  0.3408
  531MOL0     C73165   9.329   2.867   9.331  0.0781 -0.0682  0.1851
  531MOL0     C73166   9.337   2.937   9.453 -0.4198  0.7343 -0.5730
  531MOL0     C73167   9.453   3.010   9.495 -0.1853  0.4757  0.8262
  531MOL0     C73168   9.445   3.101   9.619 -0.7592  0.2211  0.2829
  531MOL0     C73169   9.566   2.996   9.412 -0.1903 -1.3021  0.2015
  531MOL0     C73170   9.695   3.063   9.433  0.1137  0.4339 -0.1149
  531MOL0     O73171   9.769   3.088   9.314 -0.1388  0.3618 -0.3268
  531MOL0     C73172   9.897   3.145   9.326  0.0364 -0.0557 -0.2621
  531MOL0     C73173   9.993   3.066   9.385  0.1317  0.4303 -1.2402
  531MOL0     C73174  10.118   3.117   9.413 -0.3933 -0.2244  0.1579
  531MOL0     C73175  10.152   3.247   9.374  0.0510 -0.0198 -0.2129
  531MOL0     O73176  10.285   3.276   9.378  0.4039 -0.3591  0.2897
  531MOL0     C73177  10.342   3.323   9.501  0.2579  0.2226 -0.9900
  531MOL0     C73178  10.491   3.314   9.513  1.0748 -0.5318  0.7770
  531MOL0     C73179  10.526   3.332   9.659  0.6755  0.0355  0.1164
  531MOL0     C73180  10.675   3.305   9.684  0.3485  0.4575 -0.4843
  531MOL0     C73181  10.723   3.328   9.818 -0.4575  0.0694  0.0748
  531MOL0     C73182  10.872   3.284   9.825  0.1182 -0.6629  0.1482
  531MOL0     C73183  10.911   3.245   9.974 -0.0733 -0.6622 -0.1465
  531MOL0     C73184  11.062   3.206   9.986  0.8918  0.3186 -0.6643
  531MOL0    Cl73185  11.085   3.184  10.158  0.1403 -0.0040 -0.1070
  531MOL0     C73186  10.060   3.324   9.300  0.0931 -0.5850 -0.5110
  531MOL0     C73187   9.926   3.275   9.273 -0.4547  0.2223 -0.8361
  531MOL0     O73188   9.722   3.093   9.551  0.1683 -0.3849 -0.4394
  531MOL0     C73189   9.561   2.918   9.290 -0.1605 -0.3611 -0.9573
  531MOL0     C73190   9.443   2.858   9.256  0.8408 -0.5879  0.7278
  531MOL0     N73191   8.729   2.640   9.330 -0.1159 -0.4350 -0.2086
  531MOL0     N73192   8.619   2.566   9.343  0.1065  0.1189  0.4407
  531MOL0     C73193   7.559   2.633   8.843  0.5631  0.3427  0.6009
  531MOL0     C73194   7.421   2.659   8.840  0.1732 -0.8534 -0.2942
  531MOL0     C73195   7.042   2.853   8.969  0.2452 -0.4479  0.1039
  531MOL0     C73196   6.967   2.797   8.864 -0.8452 -0.7395  0.4759
  531MOL0     C73197   6.830   2.810   8.864  0.4021 -0.3255 -0.2241
  531MOL0     C73198   6.764   2.858   8.976  0.0810  1.0621 -0.6773
  531MOL0     O73199   6.625   2.866   8.991  0.1287  0.3953 -0.3532
  531MOL0     C73200   6.546   2.879   8.866 -0.3613  0.0016 -0.4403
  531MOL0     C73201   6.571   3.014   8.804 -0.1190  0.2544  0.0898
  531MOL0     C73202   6.538   3.119   8.911 -0.0654 -0.2512  1.2616
  531MOL0     C73203   6.437   3.229   8.862 -0.4787  0.4313  0.7757
  531MOL0     C73204   6.475   3.351   8.926  0.3839 -0.6583 -0.1522
  531MOL0     C73205   6.517   3.452   8.975  0.0461 -0.3990 -0.6335
  531MOL0     C73206   6.831   2.901   9.081  0.3149 -0.9719  0.0572
  531MOL0     C73207   6.970   2.914   9.076  0.6911 -0.1658  0.0807
  531MOL0     C73208   7.033   2.964   9.203 -0.9998  0.8581 -0.7653
  531MOL0     H73209   7.429   2.997   8.844  0.0393 -0.3292  2.2719
  531MOL0     H73210   7.670   2.955   8.844 -0.4067 -0.1250  0.0737
  531MOL0     H73211   7.805   2.827   8.995 -3.5749 -2.7872  0.3465
  531MOL0     H73212   7.939   2.816   8.869  1.6514  0.3385  1.9126
  531MOL0     H73213   7.855   2.602   9.069  0.3042  1.9292  2.0486
  531MOL0     H73214   7.970   2.581   8.941 -0.0222  1.6583 -2.4755
  531MOL0     H73215   8.006   2.814   9.144  1.9323  0.0873  3.1804
  531MOL0     H73216   8.049   2.657   9.198  1.7893  0.8363 -0.1461
  531MOL0     H73217   8.153   2.804   8.942 -1.7754  3.1298  1.8011
  531MOL0     H73218   8.232   2.811   9.091 -2.8934  0.3081  2.1465
  531MOL0     H73219   8.336   2.646   8.934  2.3887 -0.2527  1.3667
  531MOL0     H73220   8.191   2.542   8.954 -0.0142  0.0566  0.4314
  531MOL0     H73221   8.376   2.652   9.163 -2.0459  1.2097  0.5306
  531MOL0     H73222   8.257   2.534   9.208  1.9414  0.4761  2.0688
  531MOL0     H73223   8.489   2.473   9.004  0.2201 -2.2012 -0.3030
  531MOL0     H73224   8.356   2.368   9.050 -1.1796  0.6633  1.4398
  531MOL0     H73225   8.429   2.403   9.297  0.3872  2.5493  0.7091
  531MOL0     H73226   8.549   2.313   9.194  1.5458  1.4381  1.3147
  531MOL0     H73227   8.705   2.502   9.026  1.9856  2.0754 -0.3475
  531MOL0     H73228   8.895   2.779   9.226  3.6800 -2.0966  3.2894
  531MOL0     H73229   8.865   2.746   9.052 -0.8740  1.7602  0.7245
  531MOL0     H73230   9.048   2.588   9.246  1.4350  2.8379  0.6194
  531MOL0     H73231   9.017   2.524   9.087 -0.0681 -0.1676 -0.2084
  531MOL0     H73232   9.217   2.655   9.065  1.5785  0.3423  2.6254
  531MOL0     H73233   9.074   2.750   9.000 -0.8430  3.2743  1.4116
  531MOL0     H73234   9.237   2.901   9.102 -0.1549  0.6229 -0.0589
  531MOL0     H73235   9.082   2.905   9.185  0.7155  1.7338 -1.2837
  531MOL0     H73236   9.249   2.930   9.516 -0.3633 -2.4375 -0.7177
  531MOL0     H73237   9.365   3.069   9.686 -0.2443  0.2747  0.9370
  531MOL0     H73238   9.435   3.204   9.585  1.0575 -0.1460 -1.6010
  531MOL0     H73239   9.532   3.078   9.682 -0.0224 -0.7208 -1.0163
  531MOL0     H73240   9.978   2.970   9.432  0.6027  0.4889 -0.9631
  531MOL0     H73241  10.185   3.053   9.469  2.5831  0.2650 -2.5236
  531MOL0     H73242  10.312   3.423   9.536  1.2289 -0.2351  1.3473
  531MOL0     H73243  10.302   3.260   9.581  3.3242 -0.0371  0.4859
  531MOL0     H73244  10.533   3.226   9.463  0.3201 -0.9053  0.7904
  531MOL0     H73245  10.530   3.403   9.462 -0.5855  0.2397  0.7774
  531MOL0     H73246  10.467   3.262   9.719 -0.0691 -0.3435 -1.0343
  531MOL0     H73247  10.492   3.430   9.693 -0.4997  0.3576 -1.8049
  531MOL0     H73248  10.725   3.371   9.613 -0.2821  0.6718 -0.7417
  531MOL0     H73249  10.697   3.201   9.659  0.2088  0.1315  0.6667
  531MOL0     H73250  10.708   3.433   9.847  0.3700 -0.0008  0.7790
  531MOL0     H73251  10.672   3.262   9.888 -0.2644 -1.6141 -1.3164
  531MOL0     H73252  10.932   3.371   9.794  0.9469 -1.4129 -0.3912
  531MOL0     H73253  10.907   3.200   9.765  1.7916  0.0311  0.0837
  531MOL0     H73254  10.858   3.154  10.002  0.5059 -0.6021  1.2316
  531MOL0     H73255  10.881   3.328  10.039  0.5487 -0.4762 -0.0857
  531MOL0     H73256  11.118   3.290   9.943 -2.6365  3.5631  0.4612
  531MOL0     H73257  11.080   3.110   9.937  1.2542 -0.2194  0.5084
  531MOL0     H73258  10.098   3.411   9.248  2.1503 -1.9735 -1.4460
  531MOL0     H73259   9.863   3.340   9.213 -0.2918  1.9763  0.8048
  531MOL0     H73260   9.642   2.901   9.219  0.5277 -2.3019  0.2155
  531MOL0     H73261   9.440   2.819   9.155  1.4270  0.6903  0.1927
  531MOL0     H73262   7.592   2.530   8.831  0.3855  0.2003  1.2738
  531MOL0     H73263   7.340   2.586   8.846 -0.7269  0.0448 -1.1299
  531MOL0     H73264   7.017   2.762   8.774  0.7271 -0.0969  1.0636
  531MOL0     H73265   6.775   2.772   8.779  2.6469 -1.3117 -1.3198
  531MOL0     H73266   6.574   2.805   8.791 -0.7613  0.7238 -1.3173
  531MOL0     H73267   6.438   2.868   8.882 -1.2335 -0.5976 -5.1775
  531MOL0     H73268   6.506   3.022   8.717  2.2100  0.5951 -1.7155
  531MOL0     H73269   6.678   3.018   8.784 -0.0252  1.6871  0.7584
  531MOL0     H73270   6.483   3.081   8.998 -1.3913  0.8871  0.9582
  531MOL0     H73271   6.632   3.157   8.953 -0.1670  0.0446  1.2216
  531MOL0     H73272   6.334   3.200   8.884 -1.5360 -0.2867 -4.0033
  531MOL0     H73273   6.448   3.249   8.754  0.6380  0.3127  0.8529
  531MOL0     H73274   6.561   3.542   9.013  1.9260 -1.3593 -0.4352
  531MOL0     H73275   6.776   2.948   9.162  1.9563 -2.0926  1.9157
  531MOL0     H73276   7.127   3.019   9.190  0.1234 -1.0417 -1.1582
  531MOL0     H73277   6.949   3.019   9.247 -1.3672 -1.7759  2.2052
  531MOL0     H73278   7.065   2.891   9.279  0.2923  1.4490 -0.7121
  532MOL0     O73279   2.439   0.022   1.746  0.5998 -0.1974  0.1344
  532MOL0     C73280   2.433   0.037   1.866  0.3212 -0.3707  0.1433
  532MOL0     O73281   2.461   0.148   1.937 -0.4886 -0.0645 -0.4057
  532MOL0     C73282   2.506   0.254   1.866 -0.1616  0.6296 -0.6064
  532MOL0     C73283   2.411   0.334   1.796 -0.6400  0.3189  0.2971
  532MOL0     C73284   2.453   0.449   1.731  0.4529  0.4896  0.3190
  532MOL0     C73285   2.589   0.491   1.735  0.2689  0.6555 -0.0265
  532MOL0     O73286   2.623   0.605   1.659  0.2653  0.1086 -0.7842
  532MOL0     C73287   2.756   0.634   1.609  0.7141 -0.5168 -0.0401
  532MOL0     C73288   2.765   0.719   1.483  0.4484  0.8258 -0.5033
  532MOL0     C73289   2.907   0.756   1.428 -0.6017 -0.0989  0.0285
  532MOL0     C73290   2.892   0.778   1.278 -0.6788  0.4487 -0.0593
  532MOL0     C73291   3.017   0.847   1.224 -0.2125  0.2179 -0.1929
  532MOL0     C73292   3.153   0.781   1.262 -0.8776  0.8648  1.2262
  532MOL0     C73293   3.271   0.829   1.173 -0.1508  0.1820  0.3354
  532MOL0     C73294   3.406   0.789   1.230 -0.1021  0.4348 -0.4033
  532MOL0     N73295   3.432   0.868   1.349 -0.3709  0.1102 -0.0126
  532MOL0     C73296   3.394   0.853   1.476 -0.2548 -0.0140  0.3773
  532MOL0     C73297   3.454   0.956   1.542 -0.2406  0.0478 -0.2514
  532MOL0     C73298   3.439   0.974   1.691 -0.4485  0.3293 -0.3926
  532MOL0     C73299   3.372   1.105   1.727 -0.4272  0.0696 -0.5771
  532MOL0     C73300   3.336   1.099   1.880  0.5638 -0.2664  0.7712
  532MOL0     C73301   3.264   1.228   1.931  0.2327 -0.0893  0.1535
  532MOL0     O73302   3.348   1.345   1.916 -0.2290 -0.0365  0.2153
  532MOL0     C73303   3.468   1.330   1.984  0.0817 -0.0355  0.2606
  532MOL0     C73304   3.579   1.317   1.911 -0.5164  0.2159  0.0644
  532MOL0     C73305   3.705   1.287   1.972 -0.5970  0.9625  0.5773
  532MOL0     C73306   3.826   1.263   1.897 -0.0905  0.1892  0.1804
  532MOL0     C73307   3.710   1.265   2.114  1.5526  0.1536 -0.8275
  532MOL0     C73308   3.820   1.216   2.191 -0.4350 -0.0398  0.0108
  532MOL0     O73309   3.781   1.124   2.285  0.0056 -0.1555 -0.3923
  532MOL0     C73310   3.867   1.055   2.372 -0.0855 -0.8027  0.0296
  532MOL0     C73311   3.814   0.983   2.482 -0.0761  0.4740  0.2475
  532MOL0     C73312   3.906   0.899   2.560  0.2071  0.0075 -0.0758
  532MOL0     C73313   4.043   0.895   2.530  0.1909  1.1872 -0.4461
  532MOL0     O73314   4.133   0.834   2.620  0.3267 -0.3195 -0.0043
  532MOL0     C73315   4.250   0.768   2.577  0.4784 -0.1421  0.5070
  532MOL0     C73316   4.274   0.653   2.677  0.7823 -0.9499 -0.4338
  532MOL0     C73317   4.385   0.557   2.639 -0.3118  0.1299 -0.8150
  532MOL0     C73318   4.425   0.457   2.755  0.2918  0.0745 -0.1950
  532MOL0     C73319   4.551   0.379   2.714  0.1473  0.7075  0.0804
  532MOL0     C73320   4.670   0.471   2.764 -0.3524 -0.3780  0.3026
  532MOL0     C73321   4.701   0.444   2.915  1.0421  0.4957  0.0269
  532MOL0     C73322   4.812   0.526   2.970  0.5087 -0.1153 -0.4589
  532MOL0    Cl73323   4.791   0.702   2.957 -0.2906 -0.0082  0.2393
  532MOL0     C73324   4.090   0.962   2.423  0.1619  0.5453  0.4851
  532MOL0     C73325   4.002   1.039   2.341 -0.3316  0.5535 -0.1290
  532MOL0     O73326   3.930   1.276   2.184 -0.2152  0.2935 -0.0933
  532MOL0     C73327   3.583   1.279   2.182  0.1806  0.0072  0.1493
  532MOL0     C73328   3.466   1.307   2.119  0.4511 -0.4017  0.1470
  532MOL0     N73329   3.525   1.035   1.456 -0.5016  0.3719  0.2718
  532MOL0     N73330   3.508   0.981   1.340  0.5369 -0.0717 -0.8663
  532MOL0     C73331   2.681   0.417   1.808  0.3326  0.4533 -0.5022
  532MOL0     C73332   2.640   0.296   1.870  0.0855 -0.6901  0.3272
  532MOL0     C73333   2.440  -0.084   1.950 -0.1998 -0.0339  0.5052
  532MOL0     C73334   2.375  -0.078   2.072 -0.1826  0.3803 -0.2683
  532MOL0     C73335   2.382  -0.185   2.164 -0.2564 -0.4377 -0.0892
  532MOL0     C73336   2.450  -0.298   2.126 -0.1288  0.4181 -0.1942
  532MOL0     O73337   2.471  -0.416   2.203  0.0541  0.1150  0.3037
  532MOL0     C73338   2.409  -0.421   2.336  0.9118 -0.2557  1.2221
  532MOL0     C73339   2.473  -0.528   2.419 -0.2427  0.4528  0.1744
  532MOL0     C73340   2.458  -0.661   2.347 -0.0841  0.2592  0.1003
  532MOL0     C73341   2.434  -0.776   2.438 -0.4039  0.0939 -0.0438
  532MOL0     C73342   2.555  -0.796   2.526  1.0239  0.4492  0.1936
  532MOL0     C73343   2.653  -0.804   2.595 -0.6542 -0.5569  0.3965
  532MOL0     C73344   2.501  -0.315   1.993  0.1906 -0.2317 -0.2279
  532MOL0     C73345   2.508  -0.204   1.905  0.0445  0.3309  0.2429
  532MOL0     C73346   2.578  -0.220   1.781  0.5994 -0.5038  0.3453
  532MOL0     H73347   2.306   0.306   1.801 -0.3881 -0.5731  0.9467
  532MOL0     H73348   2.388   0.495   1.657  0.1140 -0.8773 -0.2715
  532MOL0     H73349   2.808   0.539   1.597  1.6916 -0.4060  2.5975
  532MOL0     H73350   2.807   0.692   1.687 -0.8731  1.2320 -0.2356
  532MOL0     H73351   2.705   0.667   1.408  0.4550 -0.4740  0.3706
  532MOL0     H73352   2.716   0.814   1.509 -0.3256  0.9012 -2.1100
  532MOL0     H73353   2.949   0.848   1.471 -1.7062  0.4231  0.0165
  532MOL0     H73354   2.980   0.676   1.445  0.3742  0.9758  1.1085
  532MOL0     H73355   2.882   0.687   1.218 -0.3383 -1.8149  3.0445
  532MOL0     H73356   2.802   0.836   1.257 -0.5571  0.4802 -0.5184
  532MOL0     H73357   3.017   0.954   1.243  0.8091  0.8476 -3.1922
  532MOL0     H73358   3.017   0.835   1.115  0.2283 -1.2340 -0.0547
  532MOL0     H73359   3.167   0.807   1.367 -0.7357  0.6383  1.2644
  532MOL0     H73360   3.147   0.672   1.250  0.9876  0.8419  0.0455
  532MOL0     H73361   3.262   0.938   1.170  0.3845  0.2267 -2.1348
  532MOL0     H73362   3.259   0.786   1.073  1.0918 -0.4943  0.4532
  532MOL0     H73363   3.412   0.683   1.257 -2.8780 -0.3674 -2.4437
  532MOL0     H73364   3.479   0.820   1.154 -0.5290 -1.6175 -1.7494
  532MOL0     H73365   3.333   0.772   1.514 -1.0432  0.1159 -0.5789
  532MOL0     H73366   3.542   0.972   1.728 -1.1885  0.8737  1.8295
  532MOL0     H73367   3.381   0.889   1.727 -2.3680  0.9534 -1.8284
  532MOL0     H73368   3.444   1.187   1.713  2.5960 -1.5446  3.4317
  532MOL0     H73369   3.275   1.109   1.677 -3.6301 -4.9750  4.1557
  532MOL0     H73370   3.264   1.018   1.893 -0.0805  0.0998 -0.3374
  532MOL0     H73371   3.427   1.074   1.934  3.3081  0.3376 -3.1234
  532MOL0     H73372   3.170   1.239   1.877 -0.0682 -0.0971  0.6696
  532MOL0     H73373   3.239   1.202   2.035 -1.4608 -0.5375 -0.3388
  532MOL0     H73374   3.574   1.337   1.804  2.4217  0.0512 -0.1751
  532MOL0     H73375   3.894   1.184   1.932 -1.2422 -2.8732 -3.7485
  532MOL0     H73376   3.888   1.352   1.886  0.3854 -0.2946 -1.2059
  532MOL0     H73377   3.793   1.219   1.803 -1.4705  1.1898  0.1765
  532MOL0     H73378   3.711   0.979   2.517  0.4186 -1.2790  1.6385
  532MOL0     H73379   3.872   0.843   2.647 -0.1955  0.0244 -0.2209
  532MOL0     H73380   4.246   0.735   2.473 -0.0429 -2.5008  1.2278
  532MOL0     H73381   4.335   0.837   2.580  2.0857 -1.9624 -0.8447
  532MOL0     H73382   4.298   0.706   2.770 -0.4938  1.7008 -1.5339
  532MOL0     H73383   4.175   0.610   2.697 -0.0202  0.9275 -0.2100
  532MOL0     H73384   4.466   0.627   2.613 -0.8874  1.5265  0.9174
  532MOL0     H73385   4.354   0.497   2.553 -0.8589  0.9753 -1.2225
  532MOL0     H73386   4.343   0.387   2.775 -0.7863  1.9998  2.8690
  532MOL0     H73387   4.440   0.508   2.850  2.2052  1.7395 -1.3221
  532MOL0     H73388   4.556   0.285   2.769  1.8445 -0.5374 -2.0049
  532MOL0     H73389   4.562   0.366   2.606  1.3074  1.2473  0.1197
  532MOL0     H73390   4.649   0.578   2.753 -1.4806 -0.7611 -1.6675
  532MOL0     H73391   4.755   0.448   2.699  0.6845 -0.8046  1.7462
  532MOL0     H73392   4.724   0.338   2.929  0.2724  0.6330  3.3122
  532MOL0     H73393   4.607   0.456   2.970 -0.5596 -1.4742 -2.0665
  532MOL0     H73394   4.893   0.499   2.903  0.6514 -0.4253 -0.1678
  532MOL0     H73395   4.834   0.508   3.076 -0.5181  0.8322 -0.0588
  532MOL0     H73396   4.194   0.969   2.391 -0.3233  3.2409 -0.8239
  532MOL0     H73397   4.043   1.089   2.254  0.5238 -0.3111 -0.2348
  532MOL0     H73398   3.564   1.283   2.289 -3.8107  0.2624 -0.4108
  532MOL0     H73399   3.373   1.320   2.173  1.2157 -0.8542  1.6144
  532MOL0     H73400   2.780   0.459   1.791  0.1212  0.8142 -0.8685
  532MOL0     H73401   2.705   0.224   1.918 -1.2447 -2.2819 -0.1791
  532MOL0     H73402   2.332   0.015   2.108 -0.3839  1.0199 -2.0388
  532MOL0     H73403   2.351  -0.156   2.263 -2.0103  0.7372 -0.9183
  532MOL0     H73404   2.447  -0.323   2.368  0.0642  2.6149 -5.0562
  532MOL0     H73405   2.300  -0.425   2.341  0.8547 -1.1130 -0.3163
  532MOL0     H73406   2.438  -0.524   2.523  0.2696  1.4166  0.3252
  532MOL0     H73407   2.579  -0.499   2.424  0.6873 -2.6752  0.9453
  532MOL0     H73408   2.376  -0.651   2.275  0.1613  0.3115 -0.1762
  532MOL0     H73409   2.550  -0.684   2.292  0.4099  1.6282  0.3315
  532MOL0     H73410   2.400  -0.862   2.379 -0.1137 -1.4321  1.9021
  532MOL0     H73411   2.355  -0.744   2.506 -0.6612  2.1377 -1.2205
  532MOL0     H73412   2.750  -0.818   2.640  0.0777 -0.2370 -1.0129
  532MOL0     H73413   2.539  -0.414   1.970 -0.2661 -1.0989  2.3708
  532MOL0     H73414   2.661  -0.292   1.783  0.3761 -0.7781 -0.1233
  532MOL0     H73415   2.518  -0.254   1.696  0.4522 -1.8580  0.9714
  532MOL0     H73416   2.626  -0.123   1.766 -0.0558  0.0624  1.7258
  533MOL0     O73417   3.255  10.639   3.290  0.1000  0.1873 -0.2691
  533MOL0     C73418   3.311  10.745   3.321 -0.0890 -0.0474  0.5969
  533MOL0     O73419   3.242  10.869   3.324 -0.5263  0.2070  0.3527
  533MOL0     C73420   3.127  10.858   3.244 -0.6544 -0.1456 -0.6883
  533MOL0     C73421   3.002  10.860   3.306 -0.3113  0.7520 -0.0150
  533MOL0     C73422   2.888  10.809   3.240  0.5726 -0.5142  0.4740
  533MOL0     C73423   2.893  10.789   3.094 -0.8384 -0.0634 -0.7125
  533MOL0     O73424   2.786  10.748   3.023  0.0893 -0.3719  0.4325
  533MOL0     C73425   2.652  10.817   3.021  0.1656 -0.1722 -0.0185
  533MOL0     C73426   2.582  10.788   2.889  0.0020 -0.0423 -0.5379
  533MOL0     C73427   2.439  10.841   2.862 -0.7393 -0.6859  0.6047
  533MOL0     C73428   2.346  10.833   2.989  0.6153 -0.4260  1.0154
  533MOL0     C73429   2.191  10.839   2.942  0.5916  0.3643  0.4446
  533MOL0     C73430   2.152  10.691   2.895  0.1830 -0.7289  0.4943
  533MOL0     C73431   2.019  10.699   2.817 -0.1887 -0.2124 -0.1479
  533MOL0     C73432   1.966  10.561   2.779 -0.8154 -0.1217  0.0742
  533MOL0     N73433   2.017  10.494   2.658  0.1718  0.2803 -0.9819
  533MOL0     C73434   2.032  10.361   2.644 -0.1070  1.0753 -0.7852
  533MOL0     C73435   2.115  10.361   2.539  0.4742 -0.1210 -1.0355
  533MOL0     C73436   2.141  10.228   2.473  0.4164  0.1924 -0.2592
  533MOL0     C73437   2.192  10.245   2.328  0.3955 -0.6147 -0.2920
  533MOL0     C73438   2.342  10.266   2.325 -0.4603  0.0161  0.0704
  533MOL0     C73439   2.406  10.299   2.186 -0.0799  0.4889 -0.5118
  533MOL0     O73440   2.520  10.389   2.199 -0.1383 -0.1271 -0.3615
  533MOL0     C73441   2.641  10.327   2.194  0.5500  0.6939  0.1909
  533MOL0     C73442   2.664  10.195   2.231 -0.1619 -0.0781 -0.3425
  533MOL0     C73443   2.797  10.152   2.232 -0.1967 -0.6116 -0.1106
  533MOL0     C73444   2.821  10.006   2.275  0.4728  0.4733  0.3289
  533MOL0     C73445   2.903  10.233   2.186 -0.3364 -1.3221  0.0263
  533MOL0     C73446   3.046  10.193   2.176 -0.3898 -0.1571 -0.0790
  533MOL0     O73447   3.090  10.110   2.282 -0.4604 -0.3418 -0.3566
  533MOL0     C73448   3.219  10.060   2.269 -0.1906 -0.1750 -0.1552
  533MOL0     C73449   3.246   9.969   2.172 -1.2443  0.3999 -0.2943
  533MOL0     C73450   3.360   9.887   2.170 -0.2587  0.5777  0.1477
  533MOL0     C73451   3.460   9.901   2.267 -0.0491  0.0656  0.2148
  533MOL0     O73452   3.562   9.811   2.282 -0.9959 -0.6464 -0.8053
  533MOL0     C73453   3.655   9.821   2.176 -0.4366  0.4403 -0.2485
  533MOL0     C73454   3.733   9.947   2.199  0.1620  0.5576  0.1104
  533MOL0     C73455   3.858   9.954   2.101  1.5026  0.0465 -0.2394
  533MOL0     C73456   3.932  10.084   2.137  0.0532  0.7240 -0.1657
  533MOL0     C73457   4.039  10.107   2.031  0.4486 -0.0854 -0.6576
  533MOL0     C73458   4.171  10.032   2.039  0.9609 -0.0550 -0.5833
  533MOL0     C73459   4.276  10.087   1.941  0.6107  0.6748 -1.1036
  533MOL0     C73460   4.399  10.147   2.018 -0.5439  0.8430  0.7595
  533MOL0    Cl73461   4.475  10.247   1.898  0.1274  0.0707 -0.2540
  533MOL0     C73462   3.436  10.003   2.362 -0.6946 -0.6683 -0.0537
  533MOL0     C73463   3.320  10.087   2.360  0.1321 -0.3301  0.3227
  533MOL0     O73464   3.125  10.248   2.097 -0.5048  0.4949 -0.5119
  533MOL0     C73465   2.873  10.364   2.149  0.0866 -0.1322 -0.3369
  533MOL0     C73466   2.746  10.410   2.152 -0.2471 -0.3541 -0.1569
  533MOL0     N73467   2.148  10.488   2.498 -1.0904 -0.1808  0.2765
  533MOL0     N73468   2.085  10.571   2.568 -0.3560 -0.8236  0.2251
  533MOL0     C73469   3.018  10.819   3.036 -0.1889  0.1514 -0.1869
  533MOL0     C73470   3.131  10.842   3.109  0.1232 -0.1430  0.3850
  533MOL0     C73471   3.452  10.747   3.374 -0.2317  0.5717 -0.0990
  533MOL0     C73472   3.510  10.869   3.404  0.1637 -0.6198  0.8023
  533MOL0     C73473   3.643  10.880   3.445 -0.1815 -0.4105  0.4680
  533MOL0     C73474   3.715  10.771   3.485 -0.6875 -0.0363 -1.5158
  533MOL0     O73475   3.843  10.801   3.516  0.3047 -0.4376  0.3353
  533MOL0     C73476   3.937  10.700   3.541  0.1434 -0.0438 -0.6479
  533MOL0     C73477   3.925  10.608   3.668  0.1590 -1.1710  0.1011
  533MOL0     C73478   3.870  10.694   3.789 -0.4730  0.0132 -0.4174
  533MOL0     C73479   3.958  10.813   3.825  0.3240  0.0446  0.8349
  533MOL0     C73480   3.893  10.873   3.940 -0.1622 -0.2276  0.6383
  533MOL0     C73481   3.845  10.906   4.048  0.5024  0.3751  0.3141
  533MOL0     C73482   3.658  10.639   3.463  0.1307 -0.0636 -0.4805
  533MOL0     C73483   3.525  10.625   3.414  0.6914  0.0647 -0.3718
  533MOL0     C73484   3.488  10.481   3.395 -0.3047  0.1753  0.2030
  533MOL0     H73485   2.990  10.878   3.413 -2.7278 -0.5238  0.0058
  533MOL0     H73486   2.794  10.805   3.294 -2.1713  2.0510 -3.5600
  533MOL0     H73487   2.664  10.925   3.036  3.1498 -0.5366  0.7235
  533MOL0     H73488   2.590  10.777   3.102 -0.6860  0.8691 -0.1181
  533MOL0     H73489   2.646  10.831   2.811 -1.9197  2.5435 -0.8044
  533MOL0     H73490   2.575  10.679   2.884 -0.5367 -0.1293  1.2407
  533MOL0     H73491   2.444  10.942   2.821  1.9411 -0.8868  0.2298
  533MOL0     H73492   2.400  10.780   2.780  1.3278  0.0410 -0.9895
  533MOL0     H73493   2.362  10.740   3.045  0.3699 -1.2393 -0.2081
  533MOL0     H73494   2.362  10.921   3.051 -0.4330 -0.4715  1.3714
  533MOL0     H73495   2.187  10.905   2.855  1.7711  0.0702  0.1461
  533MOL0     H73496   2.127  10.870   3.025  2.0948 -0.0942  1.8279
  533MOL0     H73497   2.229  10.655   2.826  0.2076 -0.1454  0.2085
  533MOL0     H73498   2.139  10.622   2.979 -1.8389 -0.0460  0.7901
  533MOL0     H73499   2.029  10.765   2.731 -0.1314  2.4170  1.7458
  533MOL0     H73500   1.940  10.744   2.878 -1.4917 -0.7409 -1.3838
  533MOL0     H73501   1.984  10.502   2.870  4.5733  1.7588  0.6261
  533MOL0     H73502   1.860  10.570   2.755 -0.2201 -0.0663 -2.9081
  533MOL0     H73503   1.990  10.282   2.706 -2.0463  0.8941 -2.2410
  533MOL0     H73504   2.042  10.188   2.451  0.8180 -0.3754 -1.1175
  533MOL0     H73505   2.183  10.148   2.535 -0.2931 -0.7647 -0.9726
  533MOL0     H73506   2.184  10.163   2.255 -0.4360  0.3631 -1.3502
  533MOL0     H73507   2.155  10.341   2.292  3.1655  0.4330 -0.5535
  533MOL0     H73508   2.378  10.342   2.395  0.3964 -2.0373  1.9470
  533MOL0     H73509   2.388  10.173   2.360  1.0723  0.1502 -1.4174
  533MOL0     H73510   2.428  10.205   2.135  2.8431  0.6088  0.3361
  533MOL0     H73511   2.333  10.347   2.120 -1.4011 -1.9386 -0.9429
  533MOL0     H73512   2.584  10.135   2.274 -0.0761  0.1491  0.1350
  533MOL0     H73513   2.839  10.011   2.383 -1.0630  0.0404  0.6277
  533MOL0     H73514   2.913   9.964   2.233  0.1244  1.0950 -1.1014
  533MOL0     H73515   2.740   9.934   2.263  1.0695 -0.0748 -0.4352
  533MOL0     H73516   3.159   9.938   2.115 -0.5251 -3.4723  0.4404
  533MOL0     H73517   3.365   9.809   2.095 -4.4606 -0.8650  1.0598
  533MOL0     H73518   3.723   9.736   2.180  0.7686  1.3291 -0.9429
  533MOL0     H73519   3.605   9.804   2.080  1.5928 -3.3770 -0.8515
  533MOL0     H73520   3.673  10.036   2.176 -0.2920  0.3052  0.3136
  533MOL0     H73521   3.772   9.949   2.301  1.4179  0.1507 -0.3343
  533MOL0     H73522   3.824   9.947   1.997  0.6740 -3.0467  0.1449
  533MOL0     H73523   3.933   9.877   2.123  1.7986  0.9339  2.2103
  533MOL0     H73524   3.970  10.067   2.238  0.3846 -1.6229 -0.6275
  533MOL0     H73525   3.860  10.166   2.135 -1.3551 -0.4131  1.2302
  533MOL0     H73526   3.986  10.104   1.935 -0.6417 -1.3252 -0.0508
  533MOL0     H73527   4.059  10.214   2.041  1.5405 -0.2187 -1.2961
  533MOL0     H73528   4.150   9.926   2.019 -1.4805  0.3505 -0.5463
  533MOL0     H73529   4.207  10.043   2.142 -0.5334  3.3494 -0.2975
  533MOL0     H73530   4.233  10.158   1.869 -1.8648  1.8382  1.3330
  533MOL0     H73531   4.313  10.003   1.882 -0.8588 -1.8214  1.2902
  533MOL0     H73532   4.474  10.077   2.055  0.5371  1.4880 -0.1547
  533MOL0     H73533   4.365  10.194   2.111 -1.2826 -0.8245  1.3853
  533MOL0     H73534   3.497  10.019   2.449  0.0432 -0.6433 -0.5694
  533MOL0     H73535   3.283  10.168   2.422 -0.6946 -0.3199 -0.1749
  533MOL0     H73536   2.945  10.426   2.096 -0.1514 -1.9735 -3.0290
  533MOL0     H73537   2.723  10.513   2.131 -2.2206 -0.7085  0.0086
  533MOL0     H73538   3.018  10.805   2.929  1.6054 -3.0508  0.0995
  533MOL0     H73539   3.216  10.855   3.042  0.0661  0.0756  0.3536
  533MOL0     H73540   3.447  10.956   3.392  0.2805 -0.7029 -0.5103
  533MOL0     H73541   3.688  10.979   3.448 -1.1084  0.1110 -1.1077
  533MOL0     H73542   3.956  10.635   3.455  0.2254  0.9447 -1.3948
  533MOL0     H73543   4.032  10.753   3.554 -1.2908  2.2953  0.9437
  533MOL0     H73544   4.024  10.566   3.690  1.4424  1.7967  0.3567
  533MOL0     H73545   3.866  10.517   3.654  1.2904 -2.0041  0.6102
  533MOL0     H73546   3.774  10.745   3.774  1.2257  3.4829 -0.4938
  533MOL0     H73547   3.849  10.629   3.875 -2.5211 -0.3724 -1.1602
  533MOL0     H73548   3.957  10.885   3.743 -1.2268  1.7938  2.2989
  533MOL0     H73549   4.062  10.788   3.849  1.3756 -1.8483 -4.4848
  533MOL0     H73550   3.811  10.927   4.147 -0.2011 -4.2297  1.2884
  533MOL0     H73551   3.713  10.547   3.479  0.4399  0.2303  0.2064
  533MOL0     H73552   3.569  10.409   3.404 -2.1067 -1.9848  0.1585
  533MOL0     H73553   3.408  10.453   3.465 -0.7692  1.5418  0.2503
  533MOL0     H73554   3.443  10.466   3.296  0.1336  0.9641 -0.1211
  534MOL0     O73555   4.218   3.374   5.594 -0.0207  0.1156 -0.4051
  534MOL0     C73556   4.128   3.434   5.538  0.2810 -0.2084  0.0649
  534MOL0     O73557   4.129   3.470   5.408  0.0751  0.0051  0.2384
  534MOL0     C73558   4.253   3.458   5.345  0.1696 -0.4913 -0.0482
  534MOL0     C73559   4.325   3.574   5.314  0.4511  0.6473  0.2739
  534MOL0     C73560   4.448   3.570   5.242  0.1330  0.5964  0.1955
  534MOL0     C73561   4.507   3.451   5.217  0.1207  0.1786  0.0051
  534MOL0     O73562   4.639   3.461   5.166  0.0477  0.2302 -0.4202
  534MOL0     C73563   4.711   3.342   5.140 -0.6112 -0.7118 -0.1970
  534MOL0     C73564   4.838   3.376   5.060  0.0857 -0.1963 -0.2002
  534MOL0     C73565   4.936   3.261   5.030  0.7822 -0.7543  0.2641
  534MOL0     C73566   5.016   3.219   5.157  0.1984  0.5482 -0.1772
  534MOL0     C73567   5.094   3.089   5.131  0.3518  0.3290  0.1448
  534MOL0     C73568   5.166   3.045   5.259  0.4594 -0.5775  0.1523
  534MOL0     C73569   5.071   3.026   5.380  0.5575  0.4091 -0.6720
  534MOL0     C73570   5.122   2.949   5.510 -0.2370  0.0450  0.4387
  534MOL0     N73571   5.258   2.893   5.500  0.1366  0.0801 -0.0956
  534MOL0     C73572   5.380   2.962   5.484 -0.6264  0.3721  0.2038
  534MOL0     C73573   5.474   2.871   5.529  0.9812 -0.4639 -0.2367
  534MOL0     C73574   5.618   2.879   5.546 -0.2179 -0.6835  0.8264
  534MOL0     C73575   5.682   2.765   5.468 -0.4703 -0.7681 -0.1320
  534MOL0     C73576   5.836   2.769   5.508 -0.2564  1.0743  0.0999
  534MOL0     C73577   5.891   2.703   5.640  0.2634  0.0022  0.3735
  534MOL0     O73578   6.029   2.723   5.641  0.3072  0.0379  0.2523
  534MOL0     C73579   6.100   2.628   5.710 -0.2084 -0.8310 -0.7362
  534MOL0     C73580   6.064   2.568   5.827 -0.9045  0.1032  0.8721
  534MOL0     C73581   6.144   2.470   5.885  0.2266 -0.5038 -0.2902
  534MOL0     C73582   6.087   2.395   6.012  0.3483  0.1445 -0.1762
  534MOL0     C73583   6.280   2.462   5.836 -0.1134  0.3021 -0.8481
  534MOL0     C73584   6.393   2.384   5.912 -0.1898  0.0200 -0.8360
  534MOL0     O73585   6.365   2.298   6.013  0.5474  0.8026 -0.1282
  534MOL0     C73586   6.468   2.219   6.058  0.2457 -0.1469  0.2752
  534MOL0     C73587   6.579   2.279   6.126 -0.4844  0.1585  0.1906
  534MOL0     C73588   6.686   2.202   6.177  0.0378  0.2386 -0.3641
  534MOL0     C73589   6.673   2.065   6.174  0.1351 -0.0538  0.2661
  534MOL0     O73590   6.778   2.002   6.231 -0.7499 -0.0796  0.3515
  534MOL0     C73591   6.749   1.867   6.286 -0.1562  0.1401  0.1060
  534MOL0     C73592   6.857   1.822   6.389 -0.2361  0.4149 -1.1524
  534MOL0     C73593   6.992   1.809   6.322  0.1042 -0.1494 -0.0547
  534MOL0     C73594   7.094   1.765   6.423  0.0587  0.2608 -0.7228
  534MOL0     C73595   7.228   1.740   6.347  0.0613 -0.3990  0.6264
  534MOL0     C73596   7.332   1.748   6.459 -0.1717  0.4474  0.4663
  534MOL0     C73597   7.473   1.717   6.415  0.4345  0.1263  0.1448
  534MOL0     C73598   7.572   1.729   6.528  0.1854 -0.1502 -1.0058
  534MOL0    Cl73599   7.743   1.720   6.458  0.2602  0.2040 -0.1619
  534MOL0     C73600   6.552   2.006   6.125 -0.1140 -0.6292 -0.4460
  534MOL0     C73601   6.452   2.077   6.068  0.4833 -0.6108  0.0804
  534MOL0     O73602   6.508   2.409   5.877 -0.0890  0.0712 -0.3392
  534MOL0     C73603   6.315   2.526   5.717 -0.1644 -0.5193 -0.1432
  534MOL0     C73604   6.225   2.609   5.655 -0.1180  0.0393  0.0416
  534MOL0     N73605   5.405   2.743   5.559  0.2394  0.3950  0.2970
  534MOL0     N73606   5.284   2.771   5.548  0.2111  0.4452  0.2647
  534MOL0     C73607   4.432   3.331   5.236 -0.8182 -0.2163  0.3465
  534MOL0     C73608   4.303   3.339   5.303  0.7675 -0.0143 -0.5618
  534MOL0     C73609   3.999   3.464   5.621  0.4941 -0.0719  0.3121
  534MOL0     C73610   3.947   3.370   5.714 -0.0682 -0.1342  0.1107
  534MOL0     C73611   3.832   3.391   5.788  0.5027  0.3849  0.1757
  534MOL0     C73612   3.766   3.511   5.769  1.0924  0.6690  0.5997
  534MOL0     O73613   3.646   3.521   5.830  0.8349 -0.0363  0.7365
  534MOL0     C73614   3.614   3.653   5.881 -0.1168  0.6391  0.4192
  534MOL0     C73615   3.499   3.644   5.978 -0.9481 -0.3177  0.2850
  534MOL0     C73616   3.388   3.548   5.937  0.1407 -0.8475 -0.4373
  534MOL0     C73617   3.249   3.610   5.960  0.0600  0.3970  0.4246
  534MOL0     C73618   3.208   3.714   5.867  0.2331 -0.0192 -0.2675
  534MOL0     C73619   3.192   3.806   5.793  0.2149 -0.5993 -0.2270
  534MOL0     C73620   3.809   3.603   5.675  0.0909 -0.2496 -0.3730
  534MOL0     C73621   3.927   3.589   5.604  0.2498  0.0771  0.8375
  534MOL0     C73622   3.977   3.704   5.525  0.3907 -0.5353  1.1570
  534MOL0     H73623   4.275   3.665   5.348 -0.3246 -0.2406  1.5853
  534MOL0     H73624   4.496   3.665   5.226  0.0054  0.8619  1.3033
  534MOL0     H73625   4.650   3.272   5.083 -0.5517 -1.4582  0.6259
  534MOL0     H73626   4.730   3.300   5.239 -2.2402  1.6874  1.2351
  534MOL0     H73627   4.791   3.407   4.966 -0.4474 -0.4728 -0.0326
  534MOL0     H73628   4.897   3.454   5.108  0.2677 -0.6073  0.2485
  534MOL0     H73629   4.888   3.172   4.988 -0.8409  0.5466 -0.8027
  534MOL0     H73630   5.009   3.292   4.955 -0.1528  0.0443 -0.3515
  534MOL0     H73631   5.078   3.291   5.210 -0.6707  1.1192  0.0849
  534MOL0     H73632   4.941   3.189   5.231  0.1457  1.3885  0.1224
  534MOL0     H73633   5.171   3.112   5.056  0.1212 -0.0310 -0.2017
  534MOL0     H73634   5.023   3.013   5.098  0.5187  1.2579 -2.6481
  534MOL0     H73635   5.220   2.950   5.250 -0.3130 -1.1746  1.5200
  534MOL0     H73636   5.236   3.126   5.283 -0.3930  0.4862 -0.8758
  534MOL0     H73637   4.977   2.976   5.356 -0.4740  1.3827  1.1301
  534MOL0     H73638   5.037   3.122   5.418 -0.6777  0.4070 -1.6890
  534MOL0     H73639   5.126   3.011   5.600  3.4378 -0.2383  0.6188
  534MOL0     H73640   5.049   2.869   5.524 -0.9503  0.8294  1.3549
  534MOL0     H73641   5.412   3.058   5.448  1.9609  0.1801  1.7263
  534MOL0     H73642   5.643   2.871   5.652  1.2774  1.2400  0.6833
  534MOL0     H73643   5.656   2.975   5.511  0.4832 -1.3722 -0.3943
  534MOL0     H73644   5.642   2.671   5.506  0.9080 -0.6402  1.8359
  534MOL0     H73645   5.663   2.782   5.362 -6.2188 -0.0851  0.6784
  534MOL0     H73646   5.885   2.710   5.430  1.8223  0.9179  1.4772
  534MOL0     H73647   5.875   2.870   5.494 -0.6739  1.2373  0.0855
  534MOL0     H73648   5.855   2.760   5.726  2.7202 -1.6904  2.6850
  534MOL0     H73649   5.863   2.598   5.654 -0.1971  0.0791  0.0514
  534MOL0     H73650   5.964   2.580   5.865 -1.9576  3.5969 -2.3771
  534MOL0     H73651   6.132   2.295   6.015  0.9514  0.4367  0.9946
  534MOL0     H73652   5.979   2.382   6.005  0.3879  0.6232 -2.8971
  534MOL0     H73653   6.109   2.435   6.111  1.4160 -0.4535 -0.1500
  534MOL0     H73654   6.572   2.387   6.132  0.1730  0.1738  0.8583
  534MOL0     H73655   6.784   2.245   6.193  0.5887 -1.1091  0.0996
  534MOL0     H73656   6.653   1.865   6.338 -0.5604 -0.8721 -0.6514
  534MOL0     H73657   6.744   1.797   6.202 -0.2629  1.9543 -1.4796
  534MOL0     H73658   6.857   1.899   6.466  0.4063 -1.9261  1.3421
  534MOL0     H73659   6.819   1.730   6.434  0.3270  0.7889  0.1368
  534MOL0     H73660   7.022   1.907   6.284  0.9579  0.0707  1.1385
  534MOL0     H73661   6.992   1.740   6.237  2.3968 -0.9633  0.5232
  534MOL0     H73662   7.058   1.671   6.466  1.4633  0.4308  0.9331
  534MOL0     H73663   7.111   1.834   6.506 -0.5501  3.5504 -3.1453
  534MOL0     H73664   7.230   1.644   6.295  0.1466  0.1792 -0.4510
  534MOL0     H73665   7.250   1.814   6.270  1.3996 -1.2576  0.1335
  534MOL0     H73666   7.304   1.684   6.543  1.0910 -1.2486 -0.3473
  534MOL0     H73667   7.325   1.852   6.491  2.0160  0.6232  0.5360
  534MOL0     H73668   7.493   1.791   6.337  0.5432  2.9640  2.6918
  534MOL0     H73669   7.476   1.616   6.372 -2.1955 -0.6819  1.6397
  534MOL0     H73670   7.550   1.642   6.591  0.2101 -1.3191 -2.5672
  534MOL0     H73671   7.550   1.819   6.587  0.2082  0.5474 -2.0286
  534MOL0     H73672   6.541   1.900   6.142  0.6121 -0.4501  1.4076
  534MOL0     H73673   6.360   2.021   6.057 -0.5286  1.2291 -1.3869
  534MOL0     H73674   6.419   2.519   5.688  0.3849  1.1905  1.2070
  534MOL0     H73675   6.245   2.658   5.560  1.9128  0.9962  0.9118
  534MOL0     H73676   4.472   3.235   5.204 -0.2870 -0.0533  0.5206
  534MOL0     H73677   4.228   3.260   5.304 -1.6357  2.1550 -0.9219
  534MOL0     H73678   4.001   3.278   5.737  0.9524 -0.1480 -2.0977
  534MOL0     H73679   3.799   3.322   5.865  0.7611  0.2725  0.1870
  534MOL0     H73680   3.702   3.703   5.923  0.0373  1.3607 -0.7399
  534MOL0     H73681   3.572   3.711   5.798 -1.6846  1.2971  1.6126
  534MOL0     H73682   3.454   3.744   5.974 -0.8842 -0.2440  1.2216
  534MOL0     H73683   3.524   3.622   6.082  0.1070  3.1355  0.9061
  534MOL0     H73684   3.377   3.520   5.831 -1.3118 -0.5370 -0.3874
  534MOL0     H73685   3.396   3.463   6.005  0.4710  0.8082  1.6863
  534MOL0     H73686   3.241   3.653   6.060 -1.3771 -0.2712  0.6306
  534MOL0     H73687   3.181   3.527   5.938 -0.2218  0.1980  1.9189
  534MOL0     H73688   3.169   3.876   5.716  1.1292  0.3034  0.3029
  534MOL0     H73689   3.752   3.695   5.664 -0.0398 -0.3073 -0.1830
  534MOL0     H73690   4.079   3.733   5.555  0.5837 -0.3388  0.3440
  534MOL0     H73691   3.969   3.692   5.417  0.4692 -0.2138  1.1123
  534MOL0     H73692   3.921   3.795   5.547  0.6021  0.1365 -0.8644
  535MOL0     O73693   2.811   7.923   2.312  0.2343 -0.2779 -0.3696
  535MOL0     C73694   2.837   8.039   2.349  0.4014  0.9978  0.6313
  535MOL0     O73695   2.952   8.105   2.337 -0.3032 -0.2362 -0.4797
  535MOL0     C73696   3.042   8.057   2.249 -1.1923 -0.3558  0.0184
  535MOL0     C73697   3.169   8.015   2.298  0.5762  0.5170 -0.2918
  535MOL0     C73698   3.268   7.975   2.213 -0.1281 -0.6419  0.0242
  535MOL0     C73699   3.247   7.963   2.074 -0.3910  0.1039  0.0508
  535MOL0     O73700   3.346   7.928   1.982  0.1353  0.3593  0.6064
  535MOL0     C73701   3.480   7.906   2.017 -0.8350 -0.7720  0.1663
  535MOL0     C73702   3.530   7.840   1.897 -0.1033 -0.2351 -0.4768
  535MOL0     C73703   3.678   7.829   1.878  0.3678  0.0335 -1.0062
  535MOL0     C73704   3.744   7.733   1.969 -0.0273  0.3556  1.0281
  535MOL0     C73705   3.887   7.709   1.915  0.2994  0.6278  0.5450
  535MOL0     C73706   3.974   7.830   1.877  0.1908 -0.0065  0.4019
  535MOL0     C73707   4.023   7.908   1.999  0.3468  0.2658  0.1223
  535MOL0     C73708   4.095   8.038   1.964 -0.5014 -0.0860 -0.4259
  535MOL0     N73709   4.209   8.015   1.872 -0.6617  0.2209  0.5898
  535MOL0     C73710   4.330   7.961   1.915 -0.3211 -0.3772 -0.1674
  535MOL0     C73711   4.389   7.923   1.798 -0.1157  0.4409 -0.0568
  535MOL0     C73712   4.509   7.824   1.782  1.1670  0.7607  0.4482
  535MOL0     C73713   4.640   7.892   1.778 -0.2117 -0.1584  0.0770
  535MOL0     C73714   4.645   7.988   1.661 -0.1840 -0.0443  0.7023
  535MOL0     C73715   4.786   8.037   1.658 -0.3643 -0.3359 -0.8144
  535MOL0     O73716   4.794   8.081   1.520  0.0387 -0.3316  0.4834
  535MOL0     C73717   4.906   8.144   1.473  0.4443 -0.5180 -0.1676
  535MOL0     C73718   4.904   8.191   1.345  0.6159  0.6276  0.5449
  535MOL0     C73719   5.018   8.255   1.280 -0.1084  0.5993 -0.1678
  535MOL0     C73720   5.002   8.335   1.156  0.1154 -0.1537  0.0467
  535MOL0     C73721   5.139   8.259   1.359 -0.2470 -0.1190 -0.4325
  535MOL0     C73722   5.273   8.314   1.303  0.4060  0.2552 -0.7081
  535MOL0     O73723   5.375   8.332   1.398  0.5652  0.0567 -0.3956
  535MOL0     C73724   5.499   8.356   1.353 -0.1502 -0.2245 -0.6162
  535MOL0     C73725   5.600   8.283   1.409 -0.1721 -0.2536  0.1078
  535MOL0     C73726   5.732   8.306   1.374  0.0640 -0.1162 -0.0575
  535MOL0     C73727   5.770   8.408   1.288 -0.0627 -0.0392 -0.9869
  535MOL0     O73728   5.895   8.437   1.265  0.6241 -0.0698  0.3905
  535MOL0     C73729   5.944   8.563   1.320  0.4607  0.5644  0.3595
  535MOL0     C73730   6.033   8.542   1.440 -0.3876  0.2626 -0.1449
  535MOL0     C73731   6.176   8.479   1.416 -0.3011  0.4752 -0.4292
  535MOL0     C73732   6.254   8.578   1.322 -0.0443  0.0854 -0.1152
  535MOL0     C73733   6.402   8.520   1.312  0.6288  0.1146  0.6906
  535MOL0     C73734   6.493   8.596   1.210 -0.2585 -0.1918  0.5483
  535MOL0     C73735   6.631   8.546   1.196  0.0927 -0.3734 -0.3650
  535MOL0     C73736   6.731   8.642   1.122 -0.2025  0.7200 -0.0775
  535MOL0    Cl73737   6.739   8.807   1.207  0.5094  0.1999  0.0641
  535MOL0     C73738   5.671   8.472   1.218 -0.0984  0.2676  0.2447
  535MOL0     C73739   5.537   8.452   1.257 -0.8422  0.1480 -0.3426
  535MOL0     O73740   5.282   8.333   1.183 -1.4050  0.5694 -0.1734
  535MOL0     C73741   5.134   8.221   1.495 -0.1658  0.2769 -0.1665
  535MOL0     C73742   5.018   8.166   1.555 -0.4263 -0.8523  0.2222
  535MOL0     N73743   4.322   7.970   1.688  0.1565  0.1548  0.3650
  535MOL0     N73744   4.216   8.022   1.740 -0.6721  0.4780  0.3979
  535MOL0     C73745   3.127   8.006   2.022 -0.3355 -0.6916 -0.2002
  535MOL0     C73746   3.024   8.047   2.116 -0.3935  0.7410  0.5206
  535MOL0     C73747   2.731   8.095   2.435  0.9348 -0.8841  0.9121
  535MOL0     C73748   2.590   8.054   2.417 -0.4972 -0.3889  0.0922
  535MOL0     C73749   2.499   8.094   2.509 -0.1456 -0.0046  0.2572
  535MOL0     C73750   2.529   8.177   2.619  0.0440  0.6800 -0.4943
  535MOL0     O73751   2.435   8.201   2.715 -0.0577 -0.1822  0.6127
  535MOL0     C73752   2.468   8.177   2.850  0.0966  0.9999 -0.0044
  535MOL0     C73753   2.356   8.205   2.951  0.6394  0.0371  0.4481
  535MOL0     C73754   2.346   8.360   2.946  0.6666 -0.4446 -0.3702
  535MOL0     C73755   2.215   8.402   3.026  0.2706 -0.3459 -0.1189
  535MOL0     C73756   2.203   8.549   3.011 -0.9832 -1.0202  0.4805
  535MOL0     C73757   2.171   8.657   2.970  0.2766 -0.2827  0.8198
  535MOL0     C73758   2.655   8.222   2.639 -0.1934  0.0340 -0.9937
  535MOL0     C73759   2.757   8.189   2.540 -0.1647  1.1088 -0.5848
  535MOL0     C73760   2.893   8.250   2.567  0.5826  0.4077 -0.2101
  535MOL0     H73761   3.185   8.028   2.405  0.2072 -4.2691  0.5703
  535MOL0     H73762   3.368   7.953   2.249  0.7599  0.3637 -1.7357
  535MOL0     H73763   3.491   7.846   2.108  1.7263  0.3352  0.6658
  535MOL0     H73764   3.521   8.007   2.028  1.3009 -1.5913  0.1283
  535MOL0     H73765   3.495   7.737   1.885 -1.2006  0.1941 -1.1362
  535MOL0     H73766   3.494   7.889   1.806 -0.2923 -2.1115 -1.4468
  535MOL0     H73767   3.705   7.824   1.772  0.2035  0.2377 -1.0598
  535MOL0     H73768   3.721   7.928   1.897 -1.4715  0.9648 -1.4779
  535MOL0     H73769   3.748   7.759   2.076 -1.0981 -0.2432  1.2245
  535MOL0     H73770   3.694   7.636   1.961  2.2664 -0.7273 -2.6889
  535MOL0     H73771   3.897   7.634   1.836  1.2118  2.2143 -0.9147
  535MOL0     H73772   3.937   7.668   2.002 -1.0361  1.5251  1.7851
  535MOL0     H73773   4.066   7.798   1.826  0.1858  0.5011  0.0725
  535MOL0     H73774   3.924   7.899   1.809  0.8327  0.6139  0.5435
  535MOL0     H73775   4.092   7.851   2.062  2.3494 -1.5700 -3.4184
  535MOL0     H73776   3.938   7.939   2.061  1.7315  0.0541  2.2562
  535MOL0     H73777   4.034   8.119   1.922  0.7320  0.3813 -1.3839
  535MOL0     H73778   4.121   8.085   2.060  2.0171  1.6919 -1.8499
  535MOL0     H73779   4.367   7.943   2.015 -0.2839  1.2436  0.1389
  535MOL0     H73780   4.497   7.770   1.688 -1.1240  1.2167  0.4117
  535MOL0     H73781   4.507   7.752   1.864 -3.0459  1.2998  1.0635
  535MOL0     H73782   4.669   7.941   1.872  1.9286  1.3265 -1.2544
  535MOL0     H73783   4.716   7.816   1.759 -0.4046 -0.7289  1.4719
  535MOL0     H73784   4.623   7.945   1.562 -1.9057  0.2707  0.9063
  535MOL0     H73785   4.567   8.065   1.668 -1.5804 -0.6437 -4.1236
  535MOL0     H73786   4.807   8.112   1.736 -2.0984 -0.6752  0.0505
  535MOL0     H73787   4.850   7.950   1.671  1.7135  1.2610  0.2077
  535MOL0     H73788   4.808   8.187   1.296  1.3226  2.5029 -1.1143
  535MOL0     H73789   5.066   8.292   1.078  1.6744  0.5703  0.8647
  535MOL0     H73790   5.029   8.441   1.157 -1.1341  0.1960 -1.0681
  535MOL0     H73791   4.899   8.327   1.120  0.2962 -0.4091 -0.4282
  535MOL0     H73792   5.557   8.212   1.479 -3.9808  1.1646 -0.5546
  535MOL0     H73793   5.805   8.231   1.403  0.0977  0.0553  0.3158
  535MOL0     H73794   6.000   8.609   1.238 -0.0776  1.1179  0.3008
  535MOL0     H73795   5.854   8.622   1.341 -0.5198 -0.1369 -1.6623
  535MOL0     H73796   6.060   8.640   1.480  0.4885  0.1786 -0.5226
  535MOL0     H73797   5.978   8.486   1.517 -2.3392  0.3960 -1.3651
  535MOL0     H73798   6.185   8.374   1.386  1.9028  1.2918 -3.0454
  535MOL0     H73799   6.233   8.484   1.509  0.0157 -2.2209 -0.4062
  535MOL0     H73800   6.254   8.680   1.361 -1.9234  0.7748 -1.7589
  535MOL0     H73801   6.197   8.586   1.229 -1.8034  0.0412  0.9049
  535MOL0     H73802   6.454   8.525   1.408  2.5357  3.3457 -0.3559
  535MOL0     H73803   6.400   8.413   1.290  3.7379 -0.2739  1.8814
  535MOL0     H73804   6.478   8.701   1.238 -2.8137 -1.5388  5.3449
  535MOL0     H73805   6.457   8.592   1.107 -1.9077  0.0691  1.0881
  535MOL0     H73806   6.632   8.451   1.141  3.2667  0.3858 -1.8417
  535MOL0     H73807   6.672   8.525   1.296 -1.7993 -0.9355  0.3406
  535MOL0     H73808   6.691   8.654   1.021  1.0595 -0.7247 -0.7937
  535MOL0     H73809   6.828   8.595   1.106 -0.4462  0.0081  0.5101
  535MOL0     H73810   5.692   8.544   1.140  1.0008  2.3512  2.3498
  535MOL0     H73811   5.456   8.504   1.206 -0.5545  2.8057  1.6598
  535MOL0     H73812   5.212   8.241   1.567 -0.0528  3.2994 -1.0131
  535MOL0     H73813   5.031   8.128   1.656  0.5411 -1.6922 -0.1997
  535MOL0     H73814   3.107   7.996   1.916  0.0461  0.7021 -0.4136
  535MOL0     H73815   2.927   8.060   2.069 -1.2434 -0.1785  1.9510
  535MOL0     H73816   2.567   8.000   2.326 -1.9507  1.4449 -0.6990
  535MOL0     H73817   2.394   8.073   2.494  0.1628 -1.1375 -0.3952
  535MOL0     H73818   2.493   8.071   2.863  1.1445  1.3048  0.5637
  535MOL0     H73819   2.557   8.229   2.886  0.7751  1.0403 -1.6227
  535MOL0     H73820   2.381   8.154   3.045  1.8341  2.3435  1.4943
  535MOL0     H73821   2.265   8.165   2.907 -0.7432  2.0728  1.3187
  535MOL0     H73822   2.425   8.407   3.004 -1.2791  1.7123  0.6811
  535MOL0     H73823   2.328   8.404   2.847  1.3179  1.8449  0.4860
  535MOL0     H73824   2.208   8.374   3.132 -3.8448 -2.6459 -0.8097
  535MOL0     H73825   2.133   8.348   2.979  1.8476 -3.1186  0.0417
  535MOL0     H73826   2.145   8.752   2.926  0.1156 -0.7053 -0.0256
  535MOL0     H73827   2.673   8.288   2.723 -0.7136  2.0065 -2.3505
  535MOL0     H73828   2.973   8.176   2.574  0.6914  0.6381  1.4839
  535MOL0     H73829   2.914   8.324   2.489 -3.4897  1.2093 -0.7894
  535MOL0     H73830   2.899   8.291   2.668 -2.0673 -1.0502  0.6654
  536MOL0     O73831   3.882   4.578   1.589  0.1696  0.4779 -0.3194
  536MOL0     C73832   3.910   4.691   1.555 -0.1734  0.9038 -0.8245
  536MOL0     O73833   4.013   4.763   1.622  0.2139 -0.6568  0.5137
  536MOL0     C73834   4.078   4.697   1.712 -0.8055 -0.0578  0.3414
  536MOL0     C73835   4.219   4.663   1.687 -0.3736 -0.5279 -0.4558
  536MOL0     C73836   4.299   4.611   1.786 -0.6882 -0.1209 -0.6454
  536MOL0     C73837   4.254   4.565   1.907  0.1278 -0.4611  0.8368
  536MOL0     O73838   4.323   4.503   2.003  0.1317  0.1643  0.0754
  536MOL0     C73839   4.452   4.449   1.967 -0.3338  0.1097 -0.7065
  536MOL0     C73840   4.504   4.365   2.091  0.0887 -0.0559  0.2926
  536MOL0     C73841   4.525   4.446   2.220 -0.0454  0.1374  0.8068
  536MOL0     C73842   4.403   4.428   2.315  0.8081 -0.0172  0.0757
  536MOL0     C73843   4.426   4.526   2.425  0.1618  0.3578 -0.6779
  536MOL0     C73844   4.325   4.497   2.531  0.1194  0.6084 -0.4361
  536MOL0     C73845   4.335   4.606   2.641 -0.9217 -0.5407  0.5219
  536MOL0     C73846   4.446   4.574   2.739  0.2912 -0.0511  0.6757
  536MOL0     N73847   4.411   4.469   2.835 -0.0073  0.6305 -0.1295
  536MOL0     C73848   4.310   4.489   2.927 -0.1523 -0.0972  0.3518
  536MOL0     C73849   4.270   4.365   2.962  0.0860  0.9201  0.9830
  536MOL0     C73850   4.156   4.310   3.045 -0.1394  0.2114  0.0605
  536MOL0     C73851   4.015   4.356   2.990  0.4312 -0.1179  0.7717
  536MOL0     C73852   3.970   4.492   3.052  0.7387  0.5720 -0.3946
  536MOL0     C73853   3.832   4.528   2.997  0.3672  0.3476 -0.5436
  536MOL0     O73854   3.731   4.461   3.074 -0.5542 -0.1416 -0.2343
  536MOL0     C73855   3.602   4.514   3.055  0.4713 -0.7874  0.1620
  536MOL0     C73856   3.528   4.552   3.168  0.1199  0.2153  0.5542
  536MOL0     C73857   3.399   4.599   3.163 -0.1479 -0.2189 -0.0691
  536MOL0     C73858   3.328   4.615   3.297 -0.2606 -0.7734 -0.3289
  536MOL0     C73859   3.347   4.628   3.035  0.7138 -0.4936  0.1284
  536MOL0     C73860   3.208   4.674   3.018  0.2908  0.0300 -1.2741
  536MOL0     O73861   3.171   4.763   2.913  0.4242 -0.1118 -0.8826
  536MOL0     C73862   3.039   4.781   2.893 -0.3976 -0.9243  0.2453
  536MOL0     C73863   2.980   4.909   2.902  0.1420 -0.4148 -0.0496
  536MOL0     C73864   2.846   4.935   2.864 -0.8388  0.4978  0.3030
  536MOL0     C73865   2.777   4.829   2.825 -0.0444  0.2755  0.6122
  536MOL0     O73866   2.641   4.831   2.797 -0.4053  0.1369 -0.2234
  536MOL0     C73867   2.609   4.907   2.683 -0.2417 -0.6611 -0.3893
  536MOL0     C73868   2.477   4.999   2.709 -0.3192  0.4043 -0.2901
  536MOL0     C73869   2.368   4.910   2.763 -0.0522  0.0265  0.3513
  536MOL0     C73870   2.326   4.799   2.676 -0.8916 -0.0381  0.2286
  536MOL0     C73871   2.197   4.742   2.733 -0.0461  0.1742 -0.2246
  536MOL0     C73872   2.150   4.620   2.660 -0.7987 -0.1730  0.6564
  536MOL0     C73873   2.002   4.598   2.681  0.1421 -0.2331  0.0692
  536MOL0     C73874   1.948   4.464   2.630  0.3305  0.2366  0.6351
  536MOL0    Cl73875   1.780   4.447   2.670 -0.3602 -0.3954 -0.6441
  536MOL0     C73876   2.837   4.703   2.807  1.1252  0.0994  0.5701
  536MOL0     C73877   2.972   4.679   2.838 -0.0981  0.5588 -0.0094
  536MOL0     O73878   3.123   4.633   3.105 -0.7412  0.0267 -0.2345
  536MOL0     C73879   3.410   4.598   2.917  0.1948 -0.1397 -0.7758
  536MOL0     C73880   3.541   4.553   2.927  0.4095 -0.2916 -0.2817
  536MOL0     N73881   4.340   4.272   2.883 -0.1165 -0.4836 -0.2754
  536MOL0     N73882   4.426   4.339   2.814 -0.8486  0.3945  0.3614
  536MOL0     C73883   4.117   4.604   1.934  0.0594  0.2841 -0.6232
  536MOL0     C73884   4.031   4.661   1.840  0.6543  0.0492  0.6233
  536MOL0     C73885   3.820   4.753   1.446 -0.3687  0.2686  0.0565
  536MOL0     C73886   3.685   4.712   1.441 -0.5031  0.6319  0.0537
  536MOL0     C73887   3.593   4.782   1.362 -0.8561  0.4254  0.4509
  536MOL0     C73888   3.639   4.884   1.273 -1.2669 -0.2918  0.3261
  536MOL0     O73889   3.566   4.945   1.172 -0.3667  0.0912 -0.3517
  536MOL0     C73890   3.423   4.904   1.169 -0.2867 -0.3240  0.3991
  536MOL0     C73891   3.357   4.981   1.048  0.8794  0.7389 -1.2342
  536MOL0     C73892   3.355   5.129   1.083  0.1974  0.1401  0.4507
  536MOL0     C73893   3.273   5.210   0.981 -0.7578 -0.3326 -1.6547
  536MOL0     C73894   3.317   5.345   1.001  0.1684  0.1982  1.0624
  536MOL0     C73895   3.361   5.449   1.039 -0.0473 -0.1702  0.9405
  536MOL0     C73896   3.776   4.916   1.270  0.3824 -0.5312  0.2334
  536MOL0     C73897   3.867   4.851   1.356  0.0081  0.2385 -0.3004
  536MOL0     C73898   4.015   4.881   1.346 -0.2043  0.0273 -0.3364
  536MOL0     H73899   4.273   4.692   1.598 -0.7774  0.9874 -0.2354
  536MOL0     H73900   4.403   4.607   1.755 -0.4167 -1.3370  0.3098
  536MOL0     H73901   4.520   4.530   1.938  2.2361 -2.0042 -0.8865
  536MOL0     H73902   4.445   4.381   1.881  0.5395  3.2885 -3.5103
  536MOL0     H73903   4.432   4.287   2.119  1.9704 -0.7329  3.7689
  536MOL0     H73904   4.595   4.308   2.071 -0.6095 -0.8631 -0.6736
  536MOL0     H73905   4.619   4.417   2.269 -0.8499  1.4857  3.3404
  536MOL0     H73906   4.537   4.550   2.190 -0.4345 -0.2315 -0.7324
  536MOL0     H73907   4.309   4.451   2.264  1.5093  0.6831 -0.9414
  536MOL0     H73908   4.407   4.327   2.357  0.2387 -0.4152 -0.7907
  536MOL0     H73909   4.415   4.630   2.390 -2.1930  0.9708  1.6049
  536MOL0     H73910   4.529   4.509   2.458 -0.1162  0.4063  0.2364
  536MOL0     H73911   4.227   4.492   2.483  0.4720  2.1823 -1.3811
  536MOL0     H73912   4.340   4.396   2.569 -0.4694  0.1374 -1.3952
  536MOL0     H73913   4.242   4.621   2.697 -0.8044 -0.7280  0.7667
  536MOL0     H73914   4.366   4.701   2.596  1.8698 -0.2185  2.8552
  536MOL0     H73915   4.533   4.554   2.676  0.9850  3.6566  0.2000
  536MOL0     H73916   4.460   4.668   2.794 -1.1475  0.7339 -0.2302
  536MOL0     H73917   4.263   4.585   2.947  1.4828  0.4407  1.7777
  536MOL0     H73918   4.171   4.352   3.145 -0.6840  0.3850  0.0702
  536MOL0     H73919   4.168   4.202   3.050  0.9799  0.2917 -0.4609
  536MOL0     H73920   4.029   4.375   2.883  0.1373  2.5659  1.1481
  536MOL0     H73921   3.940   4.277   2.995  1.3329 -1.0479  0.0898
  536MOL0     H73922   3.970   4.487   3.161  1.9456 -3.3195 -0.4252
  536MOL0     H73923   4.036   4.577   3.035  0.3171  0.7427 -1.2610
  536MOL0     H73924   3.816   4.635   3.015 -0.3788 -0.1496  2.2918
  536MOL0     H73925   3.829   4.496   2.893 -2.9748  3.2451 -1.5106
  536MOL0     H73926   3.567   4.521   3.264 -3.9704 -0.8524  2.0679
  536MOL0     H73927   3.395   4.628   3.382  0.6693  1.4814 -1.3283
  536MOL0     H73928   3.272   4.526   3.328  0.1907 -0.9113  0.1068
  536MOL0     H73929   3.260   4.701   3.297 -0.1113 -0.6561 -0.2802
  536MOL0     H73930   3.043   4.992   2.933 -1.4197  0.4982  0.7735
  536MOL0     H73931   2.810   5.036   2.878 -0.8372  0.3806  1.2237
  536MOL0     H73932   2.675   4.985   2.645 -2.8248  1.2718 -1.2412
  536MOL0     H73933   2.586   4.830   2.609 -4.4602 -0.2880  0.2526
  536MOL0     H73934   2.492   5.080   2.780 -1.8856  1.5616 -1.2205
  536MOL0     H73935   2.439   5.052   2.622 -2.1671  0.6210  0.6016
  536MOL0     H73936   2.290   4.985   2.780 -0.2417 -0.2870  0.8958
  536MOL0     H73937   2.394   4.869   2.861  1.0025  2.4957  1.1930
  536MOL0     H73938   2.395   4.713   2.673 -0.3409  0.4196 -0.8578
  536MOL0     H73939   2.313   4.832   2.573 -0.3149  1.7806  0.7110
  536MOL0     H73940   2.196   4.723   2.841  1.1528 -1.0442 -0.4021
  536MOL0     H73941   2.123   4.822   2.718 -0.6968 -0.1366  1.2037
  536MOL0     H73942   2.202   4.539   2.712  1.2228  2.0984  2.3863
  536MOL0     H73943   2.191   4.620   2.559  0.1598 -2.6482  0.9716
  536MOL0     H73944   1.943   4.673   2.628 -2.5832 -1.7241  0.7923
  536MOL0     H73945   1.975   4.597   2.788 -1.8463 -2.2122 -0.3605
  536MOL0     H73946   2.010   4.382   2.668  0.8357  1.2430  2.0801
  536MOL0     H73947   1.950   4.458   2.521  0.6749 -0.2405  0.6658
  536MOL0     H73948   2.783   4.619   2.765  1.8560 -0.1462  0.1042
  536MOL0     H73949   3.022   4.584   2.825 -0.2450  0.5478 -0.5329
  536MOL0     H73950   3.363   4.619   2.821  1.2939 -1.1518 -1.5680
  536MOL0     H73951   3.600   4.548   2.836  1.7325 -0.4382  0.5615
  536MOL0     H73952   4.082   4.579   2.033 -0.9325  2.7242 -0.2823
  536MOL0     H73953   3.929   4.686   1.868  0.8146 -0.5799  1.8498
  536MOL0     H73954   3.657   4.626   1.501 -0.3847  1.8652  2.0048
  536MOL0     H73955   3.489   4.756   1.376 -0.9925  0.0644 -1.0396
  536MOL0     H73956   3.417   4.796   1.152 -5.5327 -0.3542  0.8424
  536MOL0     H73957   3.377   4.928   1.266 -1.4332  2.5192 -0.7469
  536MOL0     H73958   3.255   4.945   1.039  0.3463  1.7725  0.2153
  536MOL0     H73959   3.408   4.952   0.956 -0.6806 -1.8154 -1.3669
  536MOL0     H73960   3.314   5.138   1.184  1.4024 -1.0580  1.0894
  536MOL0     H73961   3.458   5.165   1.082 -0.4129  1.9551  0.0521
  536MOL0     H73962   3.166   5.196   0.998 -0.8080 -0.6610 -2.2155
  536MOL0     H73963   3.297   5.180   0.879  0.3866 -1.5358 -1.0549
  536MOL0     H73964   3.397   5.540   1.082  3.1333 -0.3203 -1.0896
  536MOL0     H73965   3.806   4.996   1.202 -2.6129  1.0541  0.5816
  536MOL0     H73966   4.056   4.934   1.433  1.8225  0.2425 -1.3604
  536MOL0     H73967   4.074   4.790   1.330  0.7241  0.3407  1.0918
  536MOL0     H73968   4.038   4.946   1.261 -0.1130 -0.0217 -0.3492
  537MOL0     O73969   2.031   3.691   3.890  0.2394 -0.4462 -0.5900
  537MOL0     C73970   2.132   3.614   3.903  0.6847 -0.4280 -0.5950
  537MOL0     O73971   2.257   3.665   3.931  0.1134  0.2502  0.0468
  537MOL0     C73972   2.294   3.794   3.911 -0.3521 -0.2807 -0.2080
  537MOL0     C73973   2.386   3.848   3.999  0.0716 -0.3807 -0.3493
  537MOL0     C73974   2.436   3.976   3.993  0.3697 -0.6298 -0.1498
  537MOL0     C73975   2.374   4.061   3.899  0.4494 -0.4761 -0.0210
  537MOL0     O73976   2.410   4.195   3.884  0.3736  0.4193  0.0810
  537MOL0     C73977   2.545   4.226   3.922  0.5892 -0.3967 -1.0128
  537MOL0     C73978   2.590   4.357   3.874  0.4341  0.1862  1.0390
  537MOL0     C73979   2.651   4.424   3.978  0.1670  0.3875  1.3697
  537MOL0     C73980   2.707   4.553   3.922  0.7570  0.2412 -0.4171
  537MOL0     C73981   2.785   4.609   4.036  0.1029 -0.0340 -0.0388
  537MOL0     C73982   2.826   4.751   3.982 -0.3008 -0.1261  0.5288
  537MOL0     C73983   2.959   4.811   4.038 -0.4780  0.3301 -0.8998
  537MOL0     C73984   2.925   4.928   4.141 -0.5709 -0.0417  0.0654
  537MOL0     N73985   3.045   5.007   4.199  0.1334  0.3195 -0.3587
  537MOL0     C73986   3.178   4.984   4.189  0.6625 -0.1528 -0.3946
  537MOL0     C73987   3.246   5.088   4.247  0.3938 -0.4742 -0.0302
  537MOL0     C73988   3.396   5.102   4.264  0.4378 -0.5042  0.4405
  537MOL0     C73989   3.465   5.112   4.133  0.5538  0.2620  0.6801
  537MOL0     C73990   3.614   5.118   4.152 -1.0082 -0.3509 -0.0341
  537MOL0     C73991   3.672   5.124   4.021 -0.4355 -0.2000  1.0297
  537MOL0     O73992   3.817   5.092   4.018  0.4250  0.1318 -0.4598
  537MOL0     C73993   3.904   5.182   4.061  0.3225 -0.4059 -0.5555
  537MOL0     C73994   3.867   5.319   4.068 -0.0175 -0.1577  0.2108
  537MOL0     C73995   3.956   5.427   4.112  0.0601 -0.1007  0.3727
  537MOL0     C73996   3.905   5.572   4.094  0.2405  0.0497  0.4223
  537MOL0     C73997   4.084   5.381   4.171  0.0194 -0.5870  0.2001
  537MOL0     C73998   4.183   5.475   4.221  0.1227 -0.8533 -0.4754
  537MOL0     O73999   4.176   5.602   4.176 -0.5451  0.3866 -0.1898
  537MOL0     C74000   4.281   5.688   4.184  0.4162  0.6238 -0.5354
  537MOL0     C74001   4.413   5.648   4.166 -0.0699  0.6190  0.7638
  537MOL0     C74002   4.513   5.749   4.148 -0.5410 -0.1780  0.0696
  537MOL0     C74003   4.484   5.884   4.148  0.0641 -0.3429 -0.0478
  537MOL0     O74004   4.592   5.966   4.136 -1.0193 -0.3529 -0.2087
  537MOL0     C74005   4.556   6.102   4.110  0.2073 -1.5836  0.6265
  537MOL0     C74006   4.682   6.185   4.090  0.0249 -0.8319 -0.5024
  537MOL0     C74007   4.770   6.146   3.969  0.8879  0.6316  0.2323
  537MOL0     C74008   4.699   6.134   3.829  0.1242 -0.6262 -0.9493
  537MOL0     C74009   4.808   6.133   3.717 -0.3050  0.0511  0.2756
  537MOL0     C74010   4.899   6.012   3.725 -0.0200  0.1911  0.2246
  537MOL0     C74011   4.992   5.992   3.608 -0.5901 -0.8161  0.3526
  537MOL0     C74012   5.115   5.907   3.643 -0.3452  0.3112 -0.1003
  537MOL0    Cl74013   5.263   5.936   3.526 -0.2560 -0.0043 -0.0687
  537MOL0     C74014   4.350   5.923   4.191 -0.6073 -0.2418 -0.1846
  537MOL0     C74015   4.254   5.819   4.203  0.3927 -0.0071  0.6972
  537MOL0     O74016   4.272   5.432   4.294 -1.1040  0.6371  0.2055
  537MOL0     C74017   4.123   5.246   4.147  0.2838 -0.3845  0.3442
  537MOL0     C74018   4.039   5.151   4.081  0.0288  0.8984  0.2640
  537MOL0     N74019   3.142   5.166   4.293 -0.2886 -0.1119  0.3099
  537MOL0     N74020   3.029   5.120   4.270 -0.0520 -0.9951 -0.9227
  537MOL0     C74021   2.278   4.011   3.814 -1.2542  0.2193  1.1347
  537MOL0     C74022   2.240   3.879   3.821  0.2195  0.5796  0.3294
  537MOL0     C74023   2.120   3.471   3.925 -0.0952  0.7511 -0.3139
  537MOL0     C74024   1.998   3.422   3.955  0.1346  0.0671  0.8067
  537MOL0     C74025   1.973   3.285   3.980 -0.3969  0.4505 -0.4256
  537MOL0     C74026   2.074   3.194   3.981 -0.6482  0.1919  0.5447
  537MOL0     O74027   2.058   3.061   4.011  0.5977  0.1434 -0.2354
  537MOL0     C74028   1.922   3.011   4.027 -0.9289 -0.2085  0.1049
  537MOL0     C74029   1.917   2.863   4.072 -0.6705  0.0990 -0.1373
  537MOL0     C74030   1.777   2.815   4.112  0.0620  0.0921  0.5340
  537MOL0     C74031   1.674   2.866   4.013 -0.2698 -0.8360  0.2589
  537MOL0     C74032   1.551   2.786   4.020  0.0216 -1.0796  0.4826
  537MOL0     C74033   1.452   2.721   4.026 -0.1916  0.1527 -0.2457
  537MOL0     C74034   2.205   3.246   3.942  0.2302  0.0180 -1.0852
  537MOL0     C74035   2.225   3.378   3.915  0.1893  0.0311  0.4479
  537MOL0     C74036   2.362   3.421   3.856 -0.5611 -0.2035 -0.2316
  537MOL0     H74037   2.433   3.781   4.070  0.5242 -0.7812 -1.0199
  537MOL0     H74038   2.508   4.020   4.062 -1.4892  1.3897  0.6353
  537MOL0     H74039   2.616   4.147   3.898  0.3154 -1.0044  0.1132
  537MOL0     H74040   2.538   4.242   4.030 -2.6529  1.9675 -1.4137
  537MOL0     H74041   2.661   4.352   3.791 -0.9653  2.3412 -0.3948
  537MOL0     H74042   2.504   4.419   3.848  0.4102  0.7375  2.3452
  537MOL0     H74043   2.566   4.448   4.042 -1.3107 -1.9442  0.4077
  537MOL0     H74044   2.725   4.364   4.033 -0.3947  0.3090  2.0554
  537MOL0     H74045   2.768   4.550   3.831  0.5859 -2.3973 -0.5238
  537MOL0     H74046   2.620   4.618   3.904  0.1177  0.6818  3.3811
  537MOL0     H74047   2.868   4.541   4.060 -0.8247 -1.0177  0.4887
  537MOL0     H74048   2.725   4.609   4.127 -1.2981  1.4341 -0.9235
  537MOL0     H74049   2.844   4.755   3.875  0.4970  3.0451  0.6682
  537MOL0     H74050   2.749   4.828   3.997  0.5840  1.3631 -2.0029
  537MOL0     H74051   3.016   4.858   3.957 -0.5779 -1.8900 -2.3321
  537MOL0     H74052   3.022   4.734   4.083  1.6402  1.5894 -1.5573
  537MOL0     H74053   2.856   5.004   4.104  0.3472  0.6110 -0.3303
  537MOL0     H74054   2.878   4.880   4.228  0.2661 -0.1634  0.4594
  537MOL0     H74055   3.224   4.895   4.147  0.9333 -0.8049  1.2078
  537MOL0     H74056   3.435   5.029   4.335  0.8850  2.2163  3.2134
  537MOL0     H74057   3.402   5.194   4.323 -0.2984 -0.6890  0.8108
  537MOL0     H74058   3.446   5.020   4.076 -3.0220  2.3094 -1.7893
  537MOL0     H74059   3.420   5.195   4.078  3.2416  1.3005 -0.1138
  537MOL0     H74060   3.632   5.214   4.202 -0.7328 -1.0582  1.2745
  537MOL0     H74061   3.651   5.035   4.213  0.2627 -1.8859 -2.6867
  537MOL0     H74062   3.629   5.045   3.960  1.2923 -1.8222  1.8214
  537MOL0     H74063   3.645   5.221   3.978 -1.1533 -0.9662 -0.3079
  537MOL0     H74064   3.777   5.366   4.028  1.0775  1.7520 -0.1323
  537MOL0     H74065   3.804   5.572   4.052  0.0162 -0.1956  0.9644
  537MOL0     H74066   3.970   5.628   4.026 -0.6926  2.7742  1.6256
  537MOL0     H74067   3.904   5.631   4.186  4.3432  1.5018 -0.2491
  537MOL0     H74068   4.449   5.546   4.155  0.0629  0.9381 -2.8098
  537MOL0     H74069   4.619   5.732   4.129 -0.3070  1.8215 -0.6547
  537MOL0     H74070   4.484   6.094   4.028 -2.2427 -1.3615  2.6127
  537MOL0     H74071   4.508   6.152   4.195  1.8897  1.4259 -0.0740
  537MOL0     H74072   4.669   6.293   4.077  2.3594 -0.1339  1.9587
  537MOL0     H74073   4.733   6.190   4.186  0.3295 -0.6950 -0.6693
  537MOL0     H74074   4.809   6.045   3.981  0.6988  0.2072 -2.2056
  537MOL0     H74075   4.859   6.210   3.967  0.2559  1.7349  3.1547
  537MOL0     H74076   4.632   6.220   3.818 -1.2777 -1.3787  1.2026
  537MOL0     H74077   4.644   6.040   3.828  1.3086 -1.4368  1.9153
  537MOL0     H74078   4.757   6.138   3.620 -1.7889  1.4886  1.0723
  537MOL0     H74079   4.877   6.219   3.719  0.8930 -0.9007  1.6505
  537MOL0     H74080   4.835   5.924   3.740 -0.4634  0.2444 -1.2330
  537MOL0     H74081   4.962   6.031   3.813  0.1564  1.1776 -0.1018
  537MOL0     H74082   5.033   6.091   3.588  0.6016 -1.6849 -1.7986
  537MOL0     H74083   4.931   5.961   3.523 -1.7941  4.4397 -1.0194
  537MOL0     H74084   5.091   5.800   3.640  0.4209  0.1463 -0.8788
  537MOL0     H74085   5.141   5.928   3.747  1.3793 -2.2421  0.0789
  537MOL0     H74086   4.323   6.028   4.199  1.9778  0.5530 -1.0482
  537MOL0     H74087   4.151   5.847   4.224  1.2828  2.6124  1.9851
  537MOL0     H74088   4.227   5.218   4.159  0.6009 -1.0846 -3.0005
  537MOL0     H74089   4.083   5.058   4.046  1.9146  2.5792 -2.2108
  537MOL0     H74090   2.238   4.069   3.731  0.6450 -0.4756 -0.3568
  537MOL0     H74091   2.157   3.839   3.765 -2.1217  0.3077  3.6885
  537MOL0     H74092   1.913   3.489   3.955 -0.1604 -0.2588 -0.9947
  537MOL0     H74093   1.868   3.263   4.001  0.3366 -2.1236  0.9652
  537MOL0     H74094   1.882   3.064   4.114 -0.2110 -3.0588  2.3276
  537MOL0     H74095   1.855   3.028   3.941 -0.0514 -0.2278 -0.5989
  537MOL0     H74096   1.985   2.856   4.157 -0.3478  2.7440 -0.0825
  537MOL0     H74097   1.955   2.798   3.993 -0.3936  0.3687 -0.2321
  537MOL0     H74098   1.778   2.706   4.116  1.8654 -0.0380 -1.5996
  537MOL0     H74099   1.763   2.857   4.212  3.6028 -1.6266  1.9435
  537MOL0     H74100   1.710   2.866   3.910 -1.5027  1.1371 -0.2198
  537MOL0     H74101   1.646   2.967   4.044  0.2778 -0.8025  0.6700
  537MOL0     H74102   1.378   2.644   4.019  0.3477 -0.3538 -0.4725
  537MOL0     H74103   2.297   3.188   3.938  0.7038  0.6084  0.4908
  537MOL0     H74104   2.352   3.496   3.777  2.9855  2.8983  1.9080
  537MOL0     H74105   2.435   3.455   3.931 -0.0926 -0.0622 -0.7436
  537MOL0     H74106   2.411   3.332   3.815 -1.9001 -0.3727 -1.5629
  538MOL0     O74107  11.151   4.593   4.121  0.0166 -0.1177 -0.0775
  538MOL0     C74108  11.242   4.587   4.198 -0.3633 -0.6661  0.1894
  538MOL0     O74109  11.375   4.569   4.162  0.0956  0.0100  0.4534
  538MOL0     C74110  11.407   4.601   4.034 -0.4408 -0.5683  0.2014
  538MOL0     C74111  11.375   4.728   3.976  0.2233  0.5293  0.1932
  538MOL0     C74112  11.406   4.752   3.846 -0.1654 -0.5408 -0.0474
  538MOL0     C74113  11.471   4.658   3.764 -0.1283 -0.1744  0.3967
  538MOL0     O74114  11.470   4.679   3.629  0.9634  0.3830  1.2522
  538MOL0     C74115  11.538   4.592   3.534  0.6411  0.0746  0.9054
  538MOL0     C74116  11.692   4.614   3.518 -0.1038 -0.6588 -0.2657
  538MOL0     C74117  11.754   4.543   3.393 -0.0567 -0.3233 -0.3541
  538MOL0     C74118  11.906   4.551   3.416 -0.9293 -0.4781  0.1950
  538MOL0     C74119  11.980   4.450   3.323  0.5777 -0.5240  0.3657
  538MOL0     C74120  11.934   4.437   3.181  0.0776  0.3568  0.7524
  538MOL0     C74121  11.961   4.573   3.101  0.4788 -0.4488 -0.6438
  538MOL0     C74122  11.999   4.554   2.956  0.6549 -0.8962 -0.0592
  538MOL0     N74123  11.891   4.501   2.870  0.4639 -0.0565 -0.2803
  538MOL0     C74124  11.761   4.549   2.879  0.5781 -0.0974 -0.6229
  538MOL0     C74125  11.686   4.446   2.828  0.4965 -0.3921 -0.2998
  538MOL0     C74126  11.540   4.437   2.832  0.2349  0.0864  0.0513
  538MOL0     C74127  11.487   4.357   2.951 -0.8496 -0.2751  0.1560
  538MOL0     C74128  11.332   4.350   2.944 -0.3777 -0.1409 -0.0982
  538MOL0     C74129  11.268   4.296   2.819  0.5579  0.5307  0.7164
  538MOL0     O74130  11.344   4.202   2.746  0.3846 -0.0120  0.8381
  538MOL0     C74131  11.347   4.078   2.800  0.8671 -0.6026 -0.1322
  538MOL0     C74132  11.265   4.035   2.910  0.5162 -1.1087 -0.2021
  538MOL0     C74133  11.250   3.898   2.939  0.0696  0.0528  0.6311
  538MOL0     C74134  11.158   3.877   3.054 -0.5025  0.7558 -0.5059
  538MOL0     C74135  11.313   3.798   2.862 -0.3268  0.6561  0.4868
  538MOL0     C74136  11.310   3.647   2.888 -0.3339  0.3257 -0.6800
  538MOL0     O74137  11.279   3.605   3.016 -0.1589  0.4104 -0.1089
  538MOL0     C74138  11.259   3.473   3.044  0.3886  0.0471  0.8521
  538MOL0     C74139  11.145   3.431   3.106  0.2141 -0.5189  0.6200
  538MOL0     C74140  11.122   3.309   3.157  0.5573  0.3447 -0.2620
  538MOL0     C74141  11.217   3.209   3.145  0.1099 -0.0792  0.8040
  538MOL0     O74142  11.186   3.084   3.201  0.1046  0.4246 -0.7837
  538MOL0     C74143  11.294   2.982   3.211  0.2725 -0.7515  0.1006
  538MOL0     C74144  11.315   2.903   3.083 -0.1806  0.6420  0.8588
  538MOL0     C74145  11.217   2.778   3.068 -0.7528 -0.6363  0.1183
  538MOL0     C74146  11.067   2.789   3.107 -1.4070  0.4376  0.1840
  538MOL0     C74147  11.010   2.656   3.142  0.0647 -0.1668 -0.3614
  538MOL0     C74148  10.868   2.683   3.188  0.0796  0.3256  0.1492
  538MOL0     C74149  10.811   2.551   3.247 -1.4916  0.1241  0.0902
  538MOL0     C74150  10.664   2.555   3.273  0.5287 -0.5645  0.1390
  538MOL0    Cl74151  10.574   2.596   3.116  0.2132 -0.0791 -0.3445
  538MOL0     C74152  11.335   3.243   3.081 -0.5157 -0.4669  0.4867
  538MOL0     C74153  11.349   3.376   3.034 -0.6815  0.3463 -0.9819
  538MOL0     O74154  11.339   3.569   2.795 -0.0059  0.1040  0.8898
  538MOL0     C74155  11.397   3.843   2.758  0.1612 -0.5152  0.2232
  538MOL0     C74156  11.415   3.982   2.727 -0.7390  0.2383 -0.5204
  538MOL0     N74157  11.771   4.350   2.780 -0.2633 -1.4063 -0.2497
  538MOL0     N74158  11.887   4.388   2.803 -0.8607 -0.4867  0.9105
  538MOL0     C74159  11.512   4.541   3.824 -0.0434  0.4934  0.2408
  538MOL0     C74160  11.483   4.514   3.961  0.1862  1.1369  0.8042
  538MOL0     C74161  11.220   4.611   4.339  0.2889 -0.0814  0.9763
  538MOL0     C74162  11.321   4.651   4.417  0.3702  0.1900 -0.9944
  538MOL0     C74163  11.297   4.682   4.554  0.0398 -0.3059  0.2639
  538MOL0     C74164  11.168   4.684   4.603  1.4808 -0.1242 -0.1756
  538MOL0     O74165  11.154   4.725   4.733 -0.5473  0.0496  0.1976
  538MOL0     C74166  11.035   4.672   4.796 -0.4129 -1.2449  0.0130
  538MOL0     C74167  11.048   4.672   4.947 -0.0553  0.2377 -0.3416
  538MOL0     C74168  10.913   4.630   5.003 -0.4467  0.8944 -0.7312
  538MOL0     C74169  10.857   4.483   4.968  0.3164 -0.2557  0.6325
  538MOL0     C74170  10.954   4.384   4.992  0.4679  0.9138  0.7151
  538MOL0     C74171  11.044   4.307   5.023  0.0536  0.9623  0.5495
  538MOL0     C74172  11.059   4.651   4.516  0.4990 -0.4248 -0.9933
  538MOL0     C74173  11.086   4.605   4.388 -0.8776  0.4594 -0.0115
  538MOL0     C74174  10.964   4.555   4.317  0.4331  0.2260  0.5731
  538MOL0     H74175  11.324   4.804   4.034  0.1225 -1.8059  3.4589
  538MOL0     H74176  11.387   4.849   3.801 -2.3036 -0.4911  0.8488
  538MOL0     H74177  11.493   4.620   3.438  2.4908 -0.9457 -0.3234
  538MOL0     H74178  11.512   4.488   3.555  2.4823 -0.2377  1.8716
  538MOL0     H74179  11.706   4.721   3.496 -1.0703 -0.2619  0.9063
  538MOL0     H74180  11.749   4.586   3.607  1.6391 -1.1867 -1.5024
  538MOL0     H74181  11.716   4.440   3.392 -1.3153  0.0784  1.1109
  538MOL0     H74182  11.717   4.592   3.303 -0.7449  0.3352  0.2677
  538MOL0     H74183  11.935   4.654   3.392 -1.0570 -1.1488 -3.4949
  538MOL0     H74184  11.945   4.518   3.513  2.2291 -2.3141 -1.5332
  538MOL0     H74185  11.959   4.354   3.372 -1.5786 -1.5140 -2.2794
  538MOL0     H74186  12.086   4.475   3.322  0.4664  0.1907 -2.5958
  538MOL0     H74187  11.977   4.344   3.142 -0.3501  0.0528  0.9922
  538MOL0     H74188  11.826   4.420   3.171 -0.1486  1.7270  0.6045
  538MOL0     H74189  12.041   4.640   3.136  0.3188  0.3225 -1.7178
  538MOL0     H74190  11.868   4.630   3.102 -0.4101 -1.7737  2.0812
  538MOL0     H74191  12.014   4.651   2.908 -1.1050  0.4197  1.8704
  538MOL0     H74192  12.083   4.489   2.930  1.8120  1.2905 -2.2090
  538MOL0     H74193  11.728   4.650   2.902  1.3616 -0.0068  0.1593
  538MOL0     H74194  11.506   4.409   2.733 -1.7281 -0.3657  0.8228
  538MOL0     H74195  11.500   4.537   2.851  1.0036  0.3643  0.2433
  538MOL0     H74196  11.534   4.259   2.954  1.4312  0.7534 -0.3104
  538MOL0     H74197  11.529   4.413   3.035  0.8213 -1.9832  0.5052
  538MOL0     H74198  11.299   4.282   3.023 -0.6832  1.0991  0.8630
  538MOL0     H74199  11.285   4.444   2.972 -1.6012 -0.7882  0.0623
  538MOL0     H74200  11.167   4.261   2.844 -0.5972  0.7314 -3.0820
  538MOL0     H74201  11.257   4.370   2.740 -0.9731 -1.6010 -1.1790
  538MOL0     H74202  11.204   4.105   2.967  0.8783 -0.2391 -0.8526
  538MOL0     H74203  11.120   3.775   3.060  0.7550 -0.0224 -3.7337
  538MOL0     H74204  11.070   3.941   3.059 -1.1059 -0.1153  0.3154
  538MOL0     H74205  11.210   3.900   3.148  0.1645  0.7554 -0.8642
  538MOL0     H74206  11.077   3.515   3.102  2.8954  1.8475  1.6959
  538MOL0     H74207  11.028   3.309   3.211 -0.9375 -0.3561 -2.6946
  538MOL0     H74208  11.389   3.028   3.241 -0.9061  0.2571  2.5869
  538MOL0     H74209  11.263   2.919   3.295  1.2093 -0.7097  0.4995
  538MOL0     H74210  11.306   2.969   2.996  3.3119  1.5117  1.0182
  538MOL0     H74211  11.420   2.871   3.090  0.4095  2.4383  0.7842
  538MOL0     H74212  11.262   2.705   3.136  1.3783  1.9649  1.7307
  538MOL0     H74213  11.228   2.733   2.969  1.2027 -0.0202 -0.0009
  538MOL0     H74214  11.023   2.827   3.015  2.3089 -0.4903 -2.2207
  538MOL0     H74215  11.064   2.862   3.188  0.7716  0.6995  0.1002
  538MOL0     H74216  11.007   2.584   3.059  0.8337  1.8163 -2.1977
  538MOL0     H74217  11.065   2.610   3.224  1.9300  0.1912 -1.3496
  538MOL0     H74218  10.806   2.729   3.111 -1.3620  0.5654  1.3930
  538MOL0     H74219  10.883   2.756   3.268  2.1901  2.9708 -2.4608
  538MOL0     H74220  10.875   2.531   3.333  1.4635  4.7735 -0.6728
  538MOL0     H74221  10.837   2.475   3.172 -0.2337  0.8197 -0.2231
  538MOL0     H74222  10.639   2.635   3.344  0.7815  2.4688 -2.9232
  538MOL0     H74223  10.628   2.457   3.304  0.2284 -0.0898  1.3764
  538MOL0     H74224  11.415   3.177   3.053  0.1714  1.0012 -1.1868
  538MOL0     H74225  11.439   3.409   2.984  0.8834  1.4580  2.3118
  538MOL0     H74226  11.443   3.768   2.693  1.2493 -0.9559  1.4526
  538MOL0     H74227  11.472   4.010   2.639 -2.0441 -0.4110 -1.5919
  538MOL0     H74228  11.577   4.467   3.780  1.9325  1.0791  1.9849
  538MOL0     H74229  11.513   4.417   3.999 -3.3744 -1.2986 -1.9443
  538MOL0     H74230  11.426   4.641   4.391  1.0498 -0.4151  1.6514
  538MOL0     H74231  11.385   4.709   4.612 -0.0916  2.0128 -0.4815
  538MOL0     H74232  10.946   4.728   4.767 -0.2614 -1.0912 -0.1687
  538MOL0     H74233  11.023   4.568   4.767  1.8929 -3.1828  4.9049
  538MOL0     H74234  11.078   4.774   4.975  1.8721 -0.6747  1.1659
  538MOL0     H74235  11.130   4.605   4.974  2.2952  2.0960 -2.3359
  538MOL0     H74236  10.932   4.637   5.110 -0.3536 -2.3168 -0.4517
  538MOL0     H74237  10.843   4.711   4.979  0.8209  2.2716  0.0255
  538MOL0     H74238  10.823   4.486   4.864  0.4469  2.6669  0.5952
  538MOL0     H74239  10.775   4.455   5.035 -2.2441 -1.1531 -2.6074
  538MOL0     H74240  11.124   4.240   5.048 -0.4273  0.2618  0.2253
  538MOL0     H74241  10.956   4.669   4.545  0.6187 -0.7924 -0.3064
  538MOL0     H74242  10.991   4.478   4.244 -0.9245  0.9623 -0.7698
  538MOL0     H74243  10.895   4.522   4.394 -1.4100  1.9305 -0.2626
  538MOL0     H74244  10.927   4.645   4.268  0.2643 -1.2274 -2.2244
  539MOL0     O74245   5.635   6.788   9.838  0.5345  0.2564 -0.2729
  539MOL0     C74246   5.562   6.889   9.839  0.2382 -0.0719  0.0313
  539MOL0     O74247   5.603   7.019   9.818 -0.2313  0.6347 -0.7090
  539MOL0     C74248   5.745   7.041   9.819 -0.0558 -1.0348  0.1554
  539MOL0     C74249   5.793   7.107   9.705 -0.2469 -0.3627 -0.1373
  539MOL0     C74250   5.920   7.161   9.715 -0.4324 -0.1091  0.2305
  539MOL0     C74251   6.000   7.136   9.834  0.0287  0.8032  0.8060
  539MOL0     O74252   6.135   7.158   9.837  0.2205  0.3232 -0.0260
  539MOL0     C74253   6.209   7.164   9.714  0.0607  0.3700  0.3545
  539MOL0     C74254   6.352   7.169   9.751  0.3297 -0.2891  0.1897
  539MOL0     C74255   6.449   7.170   9.631  0.3667  0.0621 -0.2088
  539MOL0     C74256   6.423   7.049   9.545  0.7523 -1.0827 -0.0260
  539MOL0     C74257   6.545   7.043   9.453 -0.0797  0.6580 -1.1236
  539MOL0     C74258   6.553   7.154   9.345  0.0791  0.1826  0.3411
  539MOL0     C74259   6.671   7.151   9.254  0.3883  0.7852 -0.2080
  539MOL0     C74260   6.662   7.263   9.154  0.5024 -0.1132  0.6606
  539MOL0     N74261   6.788   7.285   9.081  0.4994 -0.2414 -0.0108
  539MOL0     C74262   6.816   7.217   8.968 -0.4999 -0.6217  0.1601
  539MOL0     C74263   6.949   7.241   8.938 -0.1311 -1.1478 -0.4829
  539MOL0     C74264   7.028   7.198   8.823 -0.0614 -0.5720 -0.2839
  539MOL0     C74265   7.176   7.231   8.827 -0.3337  0.5770  0.0956
  539MOL0     C74266   7.248   7.199   8.692  0.3216  0.2107  0.3899
  539MOL0     C74267   7.394   7.242   8.691 -0.0360  0.1428 -0.2745
  539MOL0     O74268   7.468   7.179   8.800 -0.1738  0.5321  0.2210
  539MOL0     C74269   7.601   7.184   8.803 -0.2082  0.7513 -0.4359
  539MOL0     C74270   7.673   7.272   8.731  0.5264 -0.2618  0.5247
  539MOL0     C74271   7.811   7.288   8.748  0.3228  0.3943  0.4108
  539MOL0     C74272   7.886   7.383   8.654 -0.4600 -0.1489  1.1791
  539MOL0     C74273   7.881   7.200   8.836 -0.0569 -0.1540 -0.2214
  539MOL0     C74274   8.032   7.194   8.853 -0.1658 -0.2425  0.6691
  539MOL0     O74275   8.076   7.097   8.927 -1.0536 -0.4342 -0.5488
  539MOL0     C74276   8.196   7.034   8.922 -0.4887  0.4490  1.1046
  539MOL0     C74277   8.265   6.981   9.037 -0.0805 -0.6434  0.6961
  539MOL0     C74278   8.389   6.923   9.027 -0.1490 -0.0079 -0.0104
  539MOL0     C74279   8.459   6.907   8.914 -0.2294  0.1415  0.7102
  539MOL0     O74280   8.587   6.864   8.880 -0.2091  0.4449  0.0511
  539MOL0     C74281   8.693   6.859   8.987 -0.6240  0.5227 -0.2939
  539MOL0     C74282   8.776   6.747   8.926  0.4589 -0.1168 -0.5552
  539MOL0     C74283   8.926   6.745   8.983  0.0264 -0.4930  0.2340
  539MOL0     C74284   9.016   6.637   8.910 -0.3222 -0.6363  0.5861
  539MOL0     C74285   9.136   6.608   9.006 -0.4947 -0.5293 -0.1185
  539MOL0     C74286   9.243   6.720   9.007  0.6052 -0.5781 -0.5658
  539MOL0     C74287   9.360   6.682   9.093 -0.1345 -0.0437 -0.5072
  539MOL0     C74288   9.484   6.760   9.062  0.4014  0.2424 -0.2161
  539MOL0    Cl74289   9.614   6.750   9.198 -0.2605  0.1290 -0.1234
  539MOL0     C74290   8.396   6.954   8.802 -0.2159 -0.2800  0.1046
  539MOL0     C74291   8.269   7.017   8.806 -0.3190  0.7882  0.5023
  539MOL0     O74292   8.103   7.277   8.803  0.8300 -0.5594 -0.0862
  539MOL0     C74293   7.804   7.103   8.905  0.0373 -0.4396 -0.1140
  539MOL0     C74294   7.672   7.099   8.892  0.2740  0.6293 -0.0228
  539MOL0     N74295   6.999   7.313   9.042 -0.6949 -0.4754 -0.3083
  539MOL0     N74296   6.901   7.336   9.126 -0.5731 -0.0993  0.6824
  539MOL0     C74297   5.949   7.060   9.939  0.1277  0.1157  0.7458
  539MOL0     C74298   5.824   7.013   9.931  1.2491 -0.0180  0.1884
  539MOL0     C74299   5.426   6.865   9.874 -1.1423  0.2452  0.9037
  539MOL0     C74300   5.362   6.758   9.809  0.8563 -0.4405 -0.4286
  539MOL0     C74301   5.240   6.703   9.854 -0.1664 -0.3366 -0.2029
  539MOL0     C74302   5.186   6.767   9.966 -0.1818  0.8721 -0.4881
  539MOL0     O74303   5.078   6.730  10.034  0.0342  0.1544  0.0153
  539MOL0     C74304   5.014   6.604  10.000 -0.0719 -0.0732 -0.1860
  539MOL0     C74305   4.959   6.535  10.127  0.0828  0.2133 -0.3109
  539MOL0     C74306   4.887   6.631  10.212  0.1523  0.3977  1.1647
  539MOL0     C74307   4.833   6.554  10.333 -0.1988 -0.2039  0.2461
  539MOL0     C74308   4.696   6.502  10.292 -0.4565  1.6650 -0.5034
  539MOL0     C74309   4.604   6.435  10.255 -0.1754  0.7908 -0.2428
  539MOL0     C74310   5.233   6.879  10.020 -0.3113 -0.2683 -0.9034
  539MOL0     C74311   5.356   6.930   9.977 -1.2940 -0.0864 -0.3278
  539MOL0     C74312   5.418   7.049  10.053 -0.5414 -0.3877  0.0345
  539MOL0     H74313   5.739   7.138   9.616  1.6337  1.4482 -0.7449
  539MOL0     H74314   5.961   7.213   9.629  0.2880 -0.9144  0.0768
  539MOL0     H74315   6.194   7.252   9.652  0.4475 -1.0848 -1.9263
  539MOL0     H74316   6.198   7.076   9.649  0.0725  0.5393  0.1234
  539MOL0     H74317   6.366   7.262   9.808  2.8184 -0.5210  0.0789
  539MOL0     H74318   6.380   7.090   9.822 -0.3859 -0.6557  0.0739
  539MOL0     H74319   6.440   7.272   9.591 -2.9740  0.1066  0.3114
  539MOL0     H74320   6.538   7.160   9.694  0.5711 -0.5685 -0.5966
  539MOL0     H74321   6.405   6.966   9.614  4.0841 -0.8737  1.3041
  539MOL0     H74322   6.335   7.068   9.483  0.4444  3.2194  1.4414
  539MOL0     H74323   6.529   6.945   9.408 -2.4997  0.7821 -0.6406
  539MOL0     H74324   6.639   7.051   9.508 -0.7009 -2.3814  0.6347
  539MOL0     H74325   6.460   7.153   9.286  0.3515 -0.7326 -0.0917
  539MOL0     H74326   6.556   7.250   9.398  1.0463  0.4350 -0.1384
  539MOL0     H74327   6.682   7.055   9.203  1.1810  0.2517  0.9120
  539MOL0     H74328   6.765   7.168   9.307  0.9575  0.3602 -1.0617
  539MOL0     H74329   6.587   7.231   9.081  0.8893  1.4036 -0.4557
  539MOL0     H74330   6.619   7.357   9.190  0.4113  0.0741  0.0861
  539MOL0     H74331   6.739   7.159   8.918 -0.8669  0.2354 -0.2861
  539MOL0     H74332   6.995   7.249   8.732  0.7941  0.9550  0.2268
  539MOL0     H74333   7.009   7.092   8.803  0.2513 -0.4205 -1.4751
  539MOL0     H74334   7.188   7.337   8.853 -1.0701  0.5833  0.4327
  539MOL0     H74335   7.222   7.169   8.905  1.3121  1.6051 -0.0054
  539MOL0     H74336   7.250   7.091   8.677  0.9446  0.3223 -0.3560
  539MOL0     H74337   7.198   7.245   8.606  1.0514 -0.1841 -0.2562
  539MOL0     H74338   7.443   7.225   8.594  1.0028 -1.1705  0.4492
  539MOL0     H74339   7.389   7.350   8.706 -0.9506 -0.1215  1.5520
  539MOL0     H74340   7.626   7.338   8.658  2.9139  1.1120  0.0925
  539MOL0     H74341   7.935   7.463   8.711 -0.9240  0.4016  0.8129
  539MOL0     H74342   7.818   7.431   8.584  1.4407 -0.5138 -1.0469
  539MOL0     H74343   7.966   7.332   8.600 -0.3863  2.2436 -1.1735
  539MOL0     H74344   8.221   7.002   9.135  2.0739  1.4583  1.2979
  539MOL0     H74345   8.430   6.890   9.122  0.6760 -1.5219 -0.8341
  539MOL0     H74346   8.735   6.960   8.988 -0.4378  0.5032  2.9025
  539MOL0     H74347   8.653   6.827   9.084  2.4558 -0.5511  0.7342
  539MOL0     H74348   8.733   6.651   8.956  0.7711  0.2137  1.0031
  539MOL0     H74349   8.777   6.759   8.817 -2.7356 -1.8840 -0.8823
  539MOL0     H74350   8.918   6.720   9.089  1.7435 -2.1330  0.0244
  539MOL0     H74351   8.970   6.845   8.973 -1.3270  0.0602 -0.5297
  539MOL0     H74352   9.060   6.676   8.818 -1.0393 -2.6964 -0.6762
  539MOL0     H74353   8.962   6.542   8.914 -0.7120 -0.3843  2.3478
  539MOL0     H74354   9.109   6.592   9.111 -4.0841  0.1762 -0.8031
  539MOL0     H74355   9.187   6.519   8.967 -0.0264 -0.6618  0.7618
  539MOL0     H74356   9.196   6.817   9.029  2.7570  0.2909  0.4747
  539MOL0     H74357   9.280   6.726   8.905  1.9181  0.1352 -0.0675
  539MOL0     H74358   9.378   6.576   9.078  0.0545  0.0657 -1.0676
  539MOL0     H74359   9.326   6.693   9.197 -1.0068 -2.4288 -0.4804
  539MOL0     H74360   9.459   6.863   9.037  0.3979  0.3994  0.4207
  539MOL0     H74361   9.523   6.708   8.974  0.3500 -0.7319  0.3191
  539MOL0     H74362   8.461   6.956   8.715  0.2536  2.2458  0.4161
  539MOL0     H74363   8.225   7.047   8.711 -1.4616 -1.9923  0.0405
  539MOL0     H74364   7.848   7.036   8.978 -1.4148  0.0720  1.2842
  539MOL0     H74365   7.612   7.027   8.946 -1.0670 -1.4617 -3.9042
  539MOL0     H74366   5.994   7.033  10.034 -2.0790 -1.2227  1.4790
  539MOL0     H74367   5.780   6.949  10.008 -2.8067  0.3724 -1.5286
  539MOL0     H74368   5.398   6.705   9.721 -0.3847 -0.5601 -0.8780
  539MOL0     H74369   5.208   6.612   9.805 -0.5657 -1.3871  1.9038
  539MOL0     H74370   4.926   6.628   9.940 -0.3919  0.8414  0.6169
  539MOL0     H74371   5.071   6.528   9.946 -1.3196 -0.1506 -1.4403
  539MOL0     H74372   5.046   6.493  10.178  1.0417 -1.0799 -2.8262
  539MOL0     H74373   4.891   6.456  10.092 -1.1610  0.6879  0.9630
  539MOL0     H74374   4.953   6.715  10.237 -0.3954  1.9410 -2.0918
  539MOL0     H74375   4.809   6.684  10.157  1.1104  0.3778 -0.2661
  539MOL0     H74376   4.842   6.617  10.422  0.6214  0.2611 -0.1598
  539MOL0     H74377   4.892   6.463  10.342 -2.3050 -1.8899 -1.6747
  539MOL0     H74378   4.515   6.386  10.221  2.0352 -2.5335 -1.6809
  539MOL0     H74379   5.183   6.918  10.108 -1.3370  0.2946 -1.7151
  539MOL0     H74380   5.418   7.128   9.978  0.5472 -2.8736 -2.7878
  539MOL0     H74381   5.367   7.070  10.148  2.6475  2.7420  1.2377
  539MOL0     H74382   5.524   7.041  10.076 -0.8668 -3.3266  1.0071
  540MOL0     O74383   4.608   1.414   8.105 -0.1405  0.3079  0.0693
  540MOL0     C74384   4.549   1.518   8.068 -0.1263  0.1014  0.3046
  540MOL0     O74385   4.609   1.639   8.054 -0.0787 -0.2827 -0.4077
  540MOL0     C74386   4.749   1.665   8.071  0.2656 -0.0023  0.2559
  540MOL0     C74387   4.858   1.579   8.035  0.5411  0.3656  0.0003
  540MOL0     C74388   4.987   1.627   8.057  0.3188 -0.2719 -0.0020
  540MOL0     C74389   5.013   1.758   8.096  0.4402 -0.0528 -0.4772
  540MOL0     O74390   5.143   1.780   8.107  0.1593  0.5538 -0.1022
  540MOL0     C74391   5.179   1.833   8.239  0.5034  0.6687  0.4177
  540MOL0     C74392   5.329   1.811   8.240 -0.1125  0.1251 -0.6825
  540MOL0     C74393   5.394   1.875   8.363 -0.6032  0.3673  0.3733
  540MOL0     C74394   5.536   1.926   8.349  0.2413 -0.2233 -0.1438
  540MOL0     C74395   5.637   1.810   8.314 -0.2418  0.0104  0.9401
  540MOL0     C74396   5.682   1.728   8.431 -0.2771 -0.3868 -0.4112
  540MOL0     C74397   5.765   1.806   8.530 -0.5489 -0.2174  0.0913
  540MOL0     C74398   5.916   1.772   8.501  0.2503  0.1205 -0.3463
  540MOL0     N74399   6.010   1.846   8.590  0.5926  0.2856 -0.4370
  540MOL0     C74400   6.143   1.861   8.572  0.1397 -0.2994  1.2039
  540MOL0     C74401   6.189   1.960   8.646  0.1330 -1.0030  0.7046
  540MOL0     C74402   6.334   2.010   8.631  0.1336 -0.0805 -0.6152
  540MOL0     C74403   6.410   1.982   8.761  0.5842  0.3947 -1.1192
  540MOL0     C74404   6.546   2.037   8.763 -0.1899  0.3056  0.6373
  540MOL0     C74405   6.635   1.997   8.885  0.8041  0.1331 -0.2613
  540MOL0     O74406   6.694   1.868   8.870 -0.3008  0.3854  0.4472
  540MOL0     C74407   6.830   1.852   8.876  0.3009 -0.3279 -0.7547
  540MOL0     C74408   6.869   1.760   8.969 -0.1060  0.0771  0.1563
  540MOL0     C74409   7.006   1.729   8.991  0.4190 -0.4474  0.5397
  540MOL0     C74410   7.046   1.623   9.100  0.7106  0.2339  0.7841
  540MOL0     C74411   7.110   1.793   8.916  0.2447  0.4819  0.2831
  540MOL0     C74412   7.257   1.754   8.928  0.2291  0.8729 -0.1491
  540MOL0     O74413   7.341   1.860   8.908  0.3743  0.4102 -0.4559
  540MOL0     C74414   7.478   1.840   8.934  0.2757  0.0647  1.1027
  540MOL0     C74415   7.566   1.898   8.841 -0.0930  1.1860 -1.1115
  540MOL0     C74416   7.698   1.902   8.874  0.3939 -0.1792 -0.2978
  540MOL0     C74417   7.743   1.854   8.994 -0.6835  0.2406  0.1496
  540MOL0     O74418   7.871   1.877   9.037 -0.0123  0.0839 -0.5427
  540MOL0     C74419   7.973   1.873   8.924  0.0443  0.7006 -0.2647
  540MOL0     C74420   8.105   1.807   8.962  0.2169 -0.2623 -0.0847
  540MOL0     C74421   8.100   1.678   9.047 -0.0320  0.2567  0.0742
  540MOL0     C74422   8.203   1.688   9.160 -0.9952  0.1400 -0.7473
  540MOL0     C74423   8.170   1.771   9.280 -0.8991 -0.0784  0.4020
  540MOL0     C74424   8.274   1.753   9.389 -0.4565 -0.9874 -0.4394
  540MOL0     C74425   8.263   1.857   9.501 -0.2251 -0.1076 -0.2494
  540MOL0     C74426   8.154   1.824   9.603  0.3070  0.0811  0.2812
  540MOL0    Cl74427   8.199   1.681   9.703  0.3863 -0.2215 -0.2095
  540MOL0     C74428   7.658   1.790   9.084  0.0796 -0.1392 -0.3568
  540MOL0     C74429   7.522   1.784   9.052  0.5130 -1.2045 -0.4687
  540MOL0     O74430   7.290   1.638   8.956  0.2607  0.8196 -0.2510
  540MOL0     C74431   7.068   1.894   8.829 -0.2700  0.2914 -0.1624
  540MOL0     C74432   6.931   1.930   8.815 -0.3169  0.8610  0.1516
  540MOL0     N74433   6.073   2.007   8.706 -0.0802 -0.3026 -0.0821
  540MOL0     N74434   5.964   1.941   8.675 -0.7724 -0.0683 -0.8636
  540MOL0     C74435   4.905   1.841   8.139  0.5093  0.2980 -0.0238
  540MOL0     C74436   4.772   1.800   8.116  0.4234 -0.1889  1.0111
  540MOL0     C74437   4.406   1.511   8.033  0.3264  0.1886  0.5980
  540MOL0     C74438   4.365   1.589   7.919 -0.0584 -1.4021 -0.6799
  540MOL0     C74439   4.228   1.587   7.876  0.3204 -0.5308 -0.8437
  540MOL0     C74440   4.133   1.501   7.938 -0.2335  0.0139 -0.4558
  540MOL0     O74441   4.000   1.509   7.914  0.0146 -0.5446 -0.3170
  540MOL0     C74442   3.956   1.584   7.802  0.2422 -0.6995 -0.7885
  540MOL0     C74443   3.800   1.585   7.800 -0.6352 -0.1535 -0.3408
  540MOL0     C74444   3.731   1.454   7.777  0.0133  0.4459 -0.5616
  540MOL0     C74445   3.609   1.434   7.850  1.0375  0.4424 -0.0720
  540MOL0     C74446   3.506   1.525   7.813 -0.9162  0.1163  0.4358
  540MOL0     C74447   3.421   1.610   7.791 -0.1887  0.7515  0.9226
  540MOL0     C74448   4.183   1.419   8.044 -0.9512  0.4495  0.4707
  540MOL0     C74449   4.319   1.422   8.091  0.5753  0.1358  0.1897
  540MOL0     C74450   4.349   1.328   8.205 -0.6375 -0.6641 -0.0218
  540MOL0     H74451   4.835   1.484   7.988  0.9871  0.0682  0.3793
  540MOL0     H74452   5.071   1.559   8.049 -0.4872 -1.2607 -0.2377
  540MOL0     H74453   5.135   1.792   8.330  0.3560 -0.5770 -0.1794
  540MOL0     H74454   5.138   1.932   8.258 -2.3058 -0.1804 -0.6448
  540MOL0     H74455   5.350   1.704   8.244  0.9207  0.3585  1.2866
  540MOL0     H74456   5.370   1.831   8.141 -0.0358 -0.6739 -0.8154
  540MOL0     H74457   5.334   1.963   8.388 -3.7000 -0.5951 -2.9408
  540MOL0     H74458   5.398   1.809   8.450  0.2852 -1.0335 -0.6806
  540MOL0     H74459   5.536   1.998   8.267  0.1483 -1.3647 -1.1770
  540MOL0     H74460   5.568   1.978   8.440  0.0770 -1.1149  0.4392
  540MOL0     H74461   5.721   1.863   8.267 -1.0557  2.5124  2.1061
  540MOL0     H74462   5.597   1.749   8.233 -1.0490  2.7084 -0.8332
  540MOL0     H74463   5.590   1.686   8.474  0.0315  0.2124  0.8976
  540MOL0     H74464   5.739   1.641   8.397  0.9352  0.2330 -0.0127
  540MOL0     H74465   5.722   1.787   8.629 -2.6858 -1.1471 -0.9561
  540MOL0     H74466   5.750   1.912   8.508  1.2166  0.1822  0.5730
  540MOL0     H74467   5.928   1.664   8.514  0.3084 -0.1601 -2.4240
  540MOL0     H74468   5.947   1.788   8.397 -0.6921  2.1703 -0.3458
  540MOL0     H74469   6.208   1.802   8.508 -1.4893 -1.2417  0.3418
  540MOL0     H74470   6.338   2.119   8.621  0.4681 -0.1599 -1.3622
  540MOL0     H74471   6.384   1.972   8.542  1.4045  1.7598 -0.7298
  540MOL0     H74472   6.363   2.024   8.850  2.0272  4.0717 -1.9140
  540MOL0     H74473   6.420   1.873   8.765  0.9253  0.4329 -0.8282
  540MOL0     H74474   6.601   2.008   8.672 -1.4110  3.1305 -1.1640
  540MOL0     H74475   6.530   2.145   8.755 -1.8769  0.1132  1.0422
  540MOL0     H74476   6.707   2.075   8.912 -0.4359  0.8578  1.1760
  540MOL0     H74477   6.573   1.997   8.976  0.1025 -0.3474 -0.7316
  540MOL0     H74478   6.799   1.704   9.030  2.5546 -1.1600  2.2731
  540MOL0     H74479   7.089   1.533   9.055 -1.9092 -0.8880  0.3166
  540MOL0     H74480   6.951   1.603   9.151  0.3726 -0.5163 -0.1156
  540MOL0     H74481   7.104   1.664   9.183 -0.0045  1.7076  0.5967
  540MOL0     H74482   7.519   1.936   8.750 -1.6357  0.4076 -0.6787
  540MOL0     H74483   7.766   1.952   8.805 -1.9430  1.8452 -1.2823
  540MOL0     H74484   7.942   1.799   8.850  0.4116 -2.0149  2.1052
  540MOL0     H74485   7.994   1.972   8.882  1.1661  0.4467 -0.3450
  540MOL0     H74486   8.164   1.795   8.870  1.1575 -0.2134  0.4967
  540MOL0     H74487   8.176   1.878   9.007 -0.4608  0.2182  0.2381
  540MOL0     H74488   8.131   1.589   8.991  1.2044  0.1096  0.9468
  540MOL0     H74489   7.997   1.664   9.080  0.0506  0.6931  0.5342
  540MOL0     H74490   8.300   1.720   9.121 -0.7303 -0.1377 -0.3264
  540MOL0     H74491   8.224   1.592   9.206 -1.3785  1.9157  3.5986
  540MOL0     H74492   8.163   1.878   9.256 -0.6360  0.4535  2.4912
  540MOL0     H74493   8.071   1.729   9.302 -1.1922  0.4016  0.0273
  540MOL0     H74494   8.368   1.765   9.335 -0.4021 -0.0483 -0.1601
  540MOL0     H74495   8.284   1.655   9.437 -0.1054 -0.9442 -0.4204
  540MOL0     H74496   8.247   1.957   9.461 -0.4074  0.8131  1.9706
  540MOL0     H74497   8.356   1.850   9.558 -2.5904  0.6050  4.1075
  540MOL0     H74498   8.066   1.792   9.547  2.4980 -4.1637 -1.1836
  540MOL0     H74499   8.131   1.909   9.667 -1.0584 -0.2544  0.2625
  540MOL0     H74500   7.697   1.756   9.180 -0.0506 -1.0688 -0.6207
  540MOL0     H74501   7.454   1.746   9.129  1.0433  1.7263  1.6407
  540MOL0     H74502   7.137   1.943   8.760 -1.4063  0.2967 -1.3217
  540MOL0     H74503   6.906   2.018   8.758 -1.0383 -0.9582 -2.5309
  540MOL0     H74504   4.924   1.930   8.199 -3.9519  2.3783 -1.2615
  540MOL0     H74505   4.687   1.854   8.157 -0.0559 -1.0305  1.1559
  540MOL0     H74506   4.434   1.651   7.863 -2.2544  1.1881 -0.6773
  540MOL0     H74507   4.203   1.649   7.790  0.6352 -0.3396 -0.8008
  540MOL0     H74508   3.984   1.688   7.821 -0.0687 -0.6585 -0.5554
  540MOL0     H74509   4.003   1.558   7.707  1.4644 -0.8414 -0.1696
  540MOL0     H74510   3.761   1.659   7.730  0.4397  0.4390 -0.3358
  540MOL0     H74511   3.768   1.626   7.897 -1.1877 -1.1960 -0.0615
  540MOL0     H74512   3.723   1.426   7.672  0.7291 -1.0617 -0.2455
  540MOL0     H74513   3.798   1.380   7.823 -2.2710 -1.5670 -0.3046
  540MOL0     H74514   3.613   1.439   7.959 -1.9351  1.7392  0.0623
  540MOL0     H74515   3.577   1.334   7.820  0.6389  1.0167 -1.6395
  540MOL0     H74516   3.344   1.684   7.786 -0.6910  0.4399  2.9756
  540MOL0     H74517   4.113   1.357   8.099 -0.1763  0.2009  1.1968
  540MOL0     H74518   4.424   1.369   8.273  0.0235  0.1093 -1.1899
  540MOL0     H74519   4.262   1.316   8.270  0.1740 -0.5611  1.1170
  540MOL0     H74520   4.371   1.227   8.169  1.0690 -0.7851  1.2406
  541MOL0     O74521   8.076   0.872   6.551  0.0255  0.1238  0.6961
  541MOL0     C74522   8.060   0.798   6.453 -0.1675 -0.8119 -1.3331
  541MOL0     O74523   8.160   0.780   6.353  0.4997 -0.0861 -0.9384
  541MOL0     C74524   8.294   0.803   6.369  0.5471  0.0553  0.2868
  541MOL0     C74525   8.386   0.750   6.280  0.6619 -0.0349  0.9399
  541MOL0     C74526   8.521   0.764   6.284 -1.2273  0.4604 -0.3246
  541MOL0     C74527   8.580   0.840   6.385  0.2194 -0.1607  0.4305
  541MOL0     O74528   8.714   0.876   6.378  0.2553  0.6424 -0.1469
  541MOL0     C74529   8.780   0.952   6.476  0.1717  0.9426  0.9465
  541MOL0     C74530   8.924   0.949   6.430 -0.6023 -0.3350 -1.9334
  541MOL0     C74531   9.009   0.887   6.538 -0.1502  0.8758 -0.6718
  541MOL0     C74532   9.156   0.879   6.498 -0.0092 -0.1432  0.1445
  541MOL0     C74533   9.234   0.788   6.591 -0.4680 -0.8898 -0.3288
  541MOL0     C74534   9.365   0.727   6.536 -0.5313  1.0216 -0.7163
  541MOL0     C74535   9.447   0.652   6.639  0.9364 -0.0914  0.1492
  541MOL0     C74536   9.581   0.619   6.591  0.0525  0.6199  0.3211
  541MOL0     N74537   9.642   0.521   6.684  0.7992  0.4436  0.1543
  541MOL0     C74538   9.629   0.524   6.822 -0.6723  0.1075 -0.3452
  541MOL0     C74539   9.692   0.410   6.861 -0.5441 -0.1783  1.5254
  541MOL0     C74540   9.722   0.367   6.999 -0.2794 -0.3731  0.5982
  541MOL0     C74541   9.834   0.453   7.061  0.1907  0.7799  0.1786
  541MOL0     C74542   9.967   0.436   6.993 -0.1901  0.0949  0.8096
  541MOL0     C74543  10.037   0.304   7.022 -0.0290 -0.2121  0.6270
  541MOL0     O74544  10.050   0.291   7.163  0.4976 -0.4206 -1.2390
  541MOL0     C74545  10.170   0.298   7.220 -0.0680 -0.1627 -0.1973
  541MOL0     C74546  10.238   0.182   7.246  0.0521  0.0964 -0.7326
  541MOL0     C74547  10.375   0.181   7.275  0.9391 -0.2961  0.6024
  541MOL0     C74548  10.430   0.043   7.293 -1.1511 -0.3727 -0.6554
  541MOL0     C74549  10.451   0.306   7.288  0.0086  0.6597  0.8154
  541MOL0     C74550  10.584   0.318   7.327 -0.1723 -0.4970  0.0082
  541MOL0     O74551  10.634   0.451   7.357  0.2421 -0.2957 -0.1836
  541MOL0     C74552  10.767   0.471   7.413 -0.2169 -0.3258  0.0752
  541MOL0     C74553  10.821   0.396   7.512  0.0202  0.2649 -0.2592
  541MOL0     C74554  10.947   0.428   7.577 -0.1811 -0.2701 -0.6919
  541MOL0     C74555  11.025   0.537   7.537  0.8502 -0.2572  0.9175
  541MOL0     O74556  11.155   0.541   7.576 -0.7272  0.5120  0.2636
  541MOL0     C74557  11.224   0.658   7.539  0.1206  1.5582  0.1382
  541MOL0     C74558  11.345   0.675   7.627  0.4698 -0.5931  0.3450
  541MOL0     C74559  11.397   0.827   7.636  0.8565  0.0676  0.0040
  541MOL0     C74560  11.459   0.870   7.496 -0.2013  0.5780 -0.5272
  541MOL0     C74561  11.437   1.019   7.466  0.6067 -0.8328 -0.3415
  541MOL0     C74562  11.306   1.037   7.403  0.0982 -0.8023 -0.3720
  541MOL0     C74563  11.259   1.182   7.384  0.5340 -0.4460 -0.6079
  541MOL0     C74564  11.110   1.196   7.403  0.1663  0.2650 -0.1382
  541MOL0    Cl74565  11.019   1.094   7.275  0.3423  0.2091  0.3013
  541MOL0     C74566  10.960   0.616   7.440  0.4939 -0.3468  0.6922
  541MOL0     C74567  10.839   0.588   7.384  0.3592  0.5076 -0.3649
  541MOL0     O74568  10.656   0.220   7.328  0.4176  0.0491 -0.2280
  541MOL0     C74569  10.373   0.419   7.271  0.2205 -0.2349 -0.0104
  541MOL0     C74570  10.236   0.419   7.243  0.1062  0.6400  0.6556
  541MOL0     N74571   9.731   0.338   6.747  0.1631 -0.5882 -0.1908
  541MOL0     N74572   9.701   0.408   6.645 -0.4730  0.3242  1.0086
  541MOL0     C74573   8.484   0.912   6.470 -0.1192  0.5562  0.1226
  541MOL0     C74574   8.351   0.884   6.470  0.4702 -0.0491  0.7594
  541MOL0     C74575   7.924   0.727   6.427 -0.7611 -0.5300  0.0701
  541MOL0     C74576   7.889   0.691   6.299 -0.4572 -1.5653  0.2497
  541MOL0     C74577   7.763   0.633   6.271 -0.0276  0.7363 -0.1657
  541MOL0     C74578   7.664   0.601   6.374  0.2793  0.2995  0.2432
  541MOL0     O74579   7.543   0.540   6.351 -0.2054 -0.2678 -0.1598
  541MOL0     C74580   7.500   0.540   6.216 -0.3756 -0.1798  0.0593
  541MOL0     C74581   7.348   0.520   6.226 -0.4902  0.1265 -0.6541
  541MOL0     C74582   7.292   0.655   6.267 -0.0004 -0.0443 -1.0565
  541MOL0     C74583   7.140   0.656   6.282 -0.2157  0.4224  0.1615
  541MOL0     C74584   7.074   0.556   6.366  0.4779 -0.5260 -0.1122
  541MOL0     C74585   7.032   0.467   6.439  0.1324 -0.7204 -0.0225
  541MOL0     C74586   7.704   0.642   6.504  0.6128 -0.4699  0.1782
  541MOL0     C74587   7.825   0.703   6.529 -0.7898 -0.3119 -0.3661
  541MOL0     C74588   7.853   0.748   6.675  0.4389 -0.4869  0.2400
  541MOL0     H74589   8.340   0.698   6.197  3.4577 -0.8157 -0.2222
  541MOL0     H74590   8.573   0.724   6.197 -2.6880 -1.3811 -0.4151
  541MOL0     H74591   8.770   0.923   6.581 -1.9923 -0.0389  0.5181
  541MOL0     H74592   8.744   1.056   6.471  0.6302  1.2063  2.6089
  541MOL0     H74593   8.932   0.900   6.333 -3.5105 -1.2550 -1.7997
  541MOL0     H74594   8.961   1.052   6.430 -0.7473 -0.2827 -1.5775
  541MOL0     H74595   9.010   0.945   6.631 -0.5300 -0.4449  0.1769
  541MOL0     H74596   8.970   0.790   6.569  0.1219  1.4086  1.4440
  541MOL0     H74597   9.161   0.841   6.396 -3.4607 -0.8655  0.1276
  541MOL0     H74598   9.206   0.976   6.488  2.5529 -1.4232 -0.3187
  541MOL0     H74599   9.171   0.706   6.624  1.0897 -0.8072  3.3871
  541MOL0     H74600   9.243   0.847   6.683  1.2615 -2.1182  0.3603
  541MOL0     H74601   9.333   0.652   6.463 -1.5406 -0.3904  1.0922
  541MOL0     H74602   9.435   0.800   6.493  0.1609  2.1312  2.0545
  541MOL0     H74603   9.382   0.579   6.688 -0.3424  1.0621  0.2250
  541MOL0     H74604   9.470   0.727   6.716  0.9671 -0.0054  0.0566
  541MOL0     H74605   9.580   0.584   6.487 -0.0731  1.3535  0.0703
  541MOL0     H74606   9.651   0.703   6.588  1.0682 -0.2148  0.2274
  541MOL0     H74607   9.592   0.606   6.883 -1.8736 -1.5948  1.3482
  541MOL0     H74608   9.743   0.260   7.001 -2.2085 -0.8005  0.0811
  541MOL0     H74609   9.634   0.380   7.062  0.5658  0.8592  1.5888
  541MOL0     H74610   9.799   0.556   7.051 -1.9076 -0.0006 -1.3088
  541MOL0     H74611   9.838   0.427   7.167  1.3854  1.7081  0.3776
  541MOL0     H74612   9.958   0.441   6.884 -0.0743  0.0619  0.7983
  541MOL0     H74613  10.042   0.511   7.016  1.5624 -1.3063 -0.1103
  541MOL0     H74614   9.970   0.228   6.980  0.1231  0.6416 -1.3044
  541MOL0     H74615  10.135   0.296   6.973 -0.0541  2.6771 -0.0783
  541MOL0     H74616  10.182   0.090   7.236  0.0425  0.1235 -0.9354
  541MOL0     H74617  10.350  -0.032   7.301 -2.2281  0.2149 -4.0942
  541MOL0     H74618  10.503   0.040   7.375 -0.1030  0.4108 -1.5368
  541MOL0     H74619  10.490   0.009   7.208  2.3217  1.4654  0.8761
  541MOL0     H74620  10.772   0.306   7.547  1.3401  0.3580  2.0448
  541MOL0     H74621  10.971   0.349   7.648 -4.3815 -1.7246 -0.6166
  541MOL0     H74622  11.250   0.646   7.434  0.1355 -0.1621  0.3085
  541MOL0     H74623  11.160   0.746   7.554 -1.2920  0.4074  1.0390
  541MOL0     H74624  11.311   0.649   7.728 -0.7151 -4.0366 -0.8217
  541MOL0     H74625  11.420   0.597   7.612  3.3473  1.6578  1.8177
  541MOL0     H74626  11.476   0.840   7.711 -0.0124  0.9789  0.7867
  541MOL0     H74627  11.315   0.892   7.668  1.7325  0.8725  0.6629
  541MOL0     H74628  11.423   0.804   7.418  0.3659  0.2722 -0.5350
  541MOL0     H74629  11.568   0.865   7.505 -0.1746  1.8705  0.2296
  541MOL0     H74630  11.447   1.084   7.553 -0.9390 -0.6374 -0.2956
  541MOL0     H74631  11.506   1.056   7.389 -2.1057  1.4071 -1.8840
  541MOL0     H74632  11.229   0.977   7.453 -1.5229  0.1913 -1.5728
  541MOL0     H74633  11.302   0.993   7.303 -0.5613 -1.1211 -0.2153
  541MOL0     H74634  11.284   1.220   7.285 -1.3423 -1.5869 -1.5795
  541MOL0     H74635  11.304   1.244   7.462 -0.0199  0.6562 -1.1495
  541MOL0     H74636  11.087   1.301   7.387  4.2607  1.7591  2.2680
  541MOL0     H74637  11.078   1.159   7.500  2.9233 -0.8608  0.4569
  541MOL0     H74638  11.020   0.701   7.409  2.3367 -0.9908  2.2670
  541MOL0     H74639  10.800   0.647   7.302 -0.4320 -0.4275 -0.6904
  541MOL0     H74640  10.410   0.515   7.305 -1.2508 -0.2772  1.9369
  541MOL0     H74641  10.186   0.514   7.225  2.2902  1.6276 -0.6432
  541MOL0     H74642   8.517   0.995   6.532  0.7113  0.9178 -0.7935
  541MOL0     H74643   8.302   0.936   6.552 -0.1033 -1.4755  1.3449
  541MOL0     H74644   7.961   0.717   6.222  1.7209  1.5681  3.0831
  541MOL0     H74645   7.749   0.601   6.168  0.8286  0.1614 -0.1163
  541MOL0     H74646   7.526   0.623   6.151 -3.1608  0.2505 -0.6623
  541MOL0     H74647   7.534   0.448   6.167  2.6287  0.2132  1.1955
  541MOL0     H74648   7.321   0.446   6.302  0.4978  1.7582  1.3938
  541MOL0     H74649   7.315   0.476   6.132 -0.3533  1.1368 -1.1825
  541MOL0     H74650   7.340   0.697   6.356 -0.6338  0.7475 -1.0733
  541MOL0     H74651   7.319   0.727   6.189  0.1295  0.6200 -0.4001
  541MOL0     H74652   7.096   0.635   6.184 -2.3343  1.8588  0.7394
  541MOL0     H74653   7.102   0.756   6.304 -1.3940  0.0565 -0.1713
  541MOL0     H74654   7.002   0.387   6.503  0.9803 -0.9383  0.1000
  541MOL0     H74655   7.630   0.641   6.583  1.3092  1.8140  0.9279
  541MOL0     H74656   7.952   0.708   6.698 -0.1176 -0.7309  2.4882
  541MOL0     H74657   7.854   0.857   6.681 -1.9105 -0.2235 -2.0466
  541MOL0     H74658   7.785   0.705   6.749  0.3875  3.1951  2.5847
  542MOL0     O74659   8.743   1.590   8.090 -0.3058  0.2102  0.8491
  542MOL0     C74660   8.633   1.533   8.065 -0.6711 -1.2491  0.6297
  542MOL0     O74661   8.616   1.411   8.020  0.6140  0.1792 -0.1492
  542MOL0     C74662   8.724   1.322   8.030 -0.6412 -0.8504 -0.0028
  542MOL0     C74663   8.751   1.241   7.920  0.2298  0.2716 -0.2685
  542MOL0     C74664   8.857   1.149   7.925 -0.4904  0.2146 -0.3704
  542MOL0     C74665   8.940   1.150   8.045  0.3006 -0.3245  0.8428
  542MOL0     O74666   9.042   1.063   8.071 -0.0651  0.5117 -0.0410
  542MOL0     C74667   9.058   0.963   7.969  0.0796  0.4392  0.3815
  542MOL0     C74668   9.175   0.868   7.986 -0.2094 -0.0805 -0.1979
  542MOL0     C74669   9.312   0.939   7.984  0.8550 -0.1013 -0.3740
  542MOL0     C74670   9.425   0.844   8.021 -0.1019  0.6857  0.2134
  542MOL0     C74671   9.518   0.910   8.130 -0.8043 -0.3736 -1.1941
  542MOL0     C74672   9.628   0.808   8.156  0.0735  0.7164  0.1358
  542MOL0     C74673   9.741   0.860   8.252 -0.6067  0.7118  0.6622
  542MOL0     C74674   9.827   0.967   8.180  0.7386 -0.0212 -0.3166
  542MOL0     N74675   9.945   0.989   8.257  0.0584  0.3125 -0.4770
  542MOL0     C74676  10.063   1.033   8.205  0.9993  0.6489 -0.0981
  542MOL0     C74677  10.161   1.017   8.301 -1.1078 -0.4185  0.4285
  542MOL0     C74678  10.299   1.064   8.288  0.1671  1.0541 -0.6820
  542MOL0     C74679  10.405   0.971   8.337 -0.1021 -0.4121  0.0496
  542MOL0     C74680  10.412   1.003   8.494 -0.6852  0.7210  0.4324
  542MOL0     C74681  10.521   1.103   8.527 -0.5073  0.0738  0.4514
  542MOL0     O74682  10.651   1.065   8.468 -0.1993  0.3361  0.0506
  542MOL0     C74683  10.743   1.160   8.457 -0.2124 -0.6127 -0.5947
  542MOL0     C74684  10.850   1.152   8.368  0.4049  0.8162  1.3256
  542MOL0     C74685  10.927   1.255   8.317 -0.1405  0.6469  0.6522
  542MOL0     C74686  11.023   1.238   8.207 -0.6511  0.3041 -0.0452
  542MOL0     C74687  10.912   1.384   8.378  0.3272  0.7822  0.1422
  542MOL0     C74688  10.980   1.515   8.346  0.7869  0.9766 -0.1893
  542MOL0     O74689  10.970   1.607   8.452 -0.2164  0.8195 -0.0703
  542MOL0     C74690  11.046   1.721   8.443  0.0579 -0.3443  0.2662
  542MOL0     C74691  11.186   1.735   8.408  0.2295  0.0722 -1.0152
  542MOL0     C74692  11.243   1.862   8.407 -0.2191 -0.0087 -0.6448
  542MOL0     C74693  11.173   1.977   8.435 -0.2153 -0.3015 -0.2591
  542MOL0     O74694  11.238   2.100   8.437  0.7310  0.7821  0.2963
  542MOL0     C74695  11.307   2.128   8.558  0.4385 -0.9453  1.8098
  542MOL0     C74696  11.277   2.276   8.591 -0.2065  0.2293  0.2549
  542MOL0     C74697  11.337   2.374   8.493 -0.6787 -0.8429 -0.3013
  542MOL0     C74698  11.481   2.400   8.490  1.0104 -0.2323 -0.2368
  542MOL0     C74699  11.554   2.412   8.625  0.4475  0.1713 -0.9094
  542MOL0     C74700  11.703   2.415   8.614  0.6338  0.2895  0.3140
  542MOL0     C74701  11.771   2.503   8.721  0.6060  0.8581 -0.2976
  542MOL0     C74702  11.928   2.494   8.726  0.5369 -0.1604 -0.2302
  542MOL0    Cl74703  11.974   2.331   8.762  0.1115  0.0407  0.1390
  542MOL0     C74704  11.035   1.963   8.463 -0.5021 -1.0477 -1.2054
  542MOL0     C74705  10.979   1.841   8.469  0.5663 -0.3933  0.4880
  542MOL0     O74706  11.022   1.535   8.239 -0.7610 -0.2838  0.9443
  542MOL0     C74707  10.829   1.384   8.496 -0.3057 -0.5473  0.4378
  542MOL0     C74708  10.752   1.279   8.534  0.7456  0.1608 -0.3377
  542MOL0     N74709  10.093   0.976   8.414  0.1010 -0.6453  0.6947
  542MOL0     N74710   9.967   0.959   8.389  0.6593 -0.0594  0.0369
  542MOL0     C74711   8.907   1.231   8.153 -0.0707 -0.0823 -0.6683
  542MOL0     C74712   8.800   1.315   8.151  0.0258 -0.3268 -0.2228
  542MOL0     C74713   8.507   1.616   8.089 -0.1814  0.7698  0.3688
  542MOL0     C74714   8.379   1.544   8.084  0.3247  0.1568 -0.6441
  542MOL0     C74715   8.250   1.604   8.108 -0.7814 -0.6026 -0.2865
  542MOL0     C74716   8.247   1.745   8.141  0.1566  0.2838 -0.4028
  542MOL0     O74717   8.125   1.795   8.179  0.3905  0.3782 -0.1691
  542MOL0     C74718   8.126   1.905   8.267 -0.0665  0.3014 -0.5611
  542MOL0     C74719   8.110   2.023   8.179  0.4888  0.5323 -0.0210
  542MOL0     C74720   8.112   2.148   8.264 -0.4718  0.4621  0.1004
  542MOL0     C74721   8.103   2.273   8.175 -0.5192 -0.6457 -0.1581
  542MOL0     C74722   8.133   2.392   8.253  0.1387  1.0312  0.1152
  542MOL0     C74723   8.144   2.497   8.317  0.3473  0.1029 -0.2102
  542MOL0     C74724   8.372   1.817   8.137 -0.0243  0.1962  0.2002
  542MOL0     C74725   8.499   1.751   8.123 -0.2228 -0.2620  0.1132
  542MOL0     C74726   8.615   1.840   8.150 -0.6997  0.2945 -0.6002
  542MOL0     H74727   8.690   1.241   7.831  1.6041 -0.6644 -1.2540
  542MOL0     H74728   8.880   1.094   7.834  1.7317  1.8962 -0.8978
  542MOL0     H74729   9.066   1.011   7.871 -0.2857 -0.1486  0.0608
  542MOL0     H74730   8.966   0.904   7.969 -0.0395  0.6234  0.3398
  542MOL0     H74731   9.169   0.820   8.085 -0.3933  3.4741  1.6666
  542MOL0     H74732   9.174   0.796   7.904 -2.0292 -0.4410  0.1019
  542MOL0     H74733   9.332   0.995   7.892 -1.6032  0.2309 -0.7701
  542MOL0     H74734   9.308   1.007   8.070 -1.2022  0.4749 -0.8761
  542MOL0     H74735   9.383   0.746   8.047  0.1453  0.2807 -0.8540
  542MOL0     H74736   9.485   0.829   7.931 -0.9361 -1.9252 -0.0117
  542MOL0     H74737   9.460   0.927   8.222  2.1007 -2.0988  1.1618
  542MOL0     H74738   9.562   1.000   8.087  0.7934 -0.6983 -0.3360
  542MOL0     H74739   9.581   0.723   8.207 -2.4244 -0.0713 -3.1661
  542MOL0     H74740   9.656   0.775   8.056 -3.6276 -0.3492 -0.7195
  542MOL0     H74741   9.814   0.779   8.263 -0.4939  0.5095 -1.1611
  542MOL0     H74742   9.698   0.891   8.347 -1.2318 -2.7058  1.6318
  542MOL0     H74743   9.855   0.916   8.087  2.0620  1.0546 -0.5357
  542MOL0     H74744   9.773   1.061   8.168  0.5109  0.3393  2.8048
  542MOL0     H74745  10.082   1.071   8.105  1.2510 -2.6974 -1.4914
  542MOL0     H74746  10.324   1.167   8.317  1.9028  0.4217  0.2402
  542MOL0     H74747  10.324   1.059   8.182  1.0010  0.0247 -0.4554
  542MOL0     H74748  10.387   0.864   8.329  0.0390 -0.6328  2.0746
  542MOL0     H74749  10.501   0.990   8.287 -1.1670  3.1516 -0.9557
  542MOL0     H74750  10.317   1.037   8.536 -0.0174  0.5748  2.1538
  542MOL0     H74751  10.426   0.913   8.554 -0.0577  0.6336  0.1728
  542MOL0     H74752  10.490   1.205   8.500 -1.7016 -0.1617  0.8999
  542MOL0     H74753  10.516   1.100   8.637 -2.8258  0.2734  0.3943
  542MOL0     H74754  10.860   1.058   8.315 -3.1903  2.2300 -2.4388
  542MOL0     H74755  11.047   1.135   8.181  1.0738  0.4762  0.7305
  542MOL0     H74756  11.125   1.274   8.223  0.0460 -1.6311  0.1365
  542MOL0     H74757  10.985   1.284   8.115 -1.4554  0.5009  0.3790
  542MOL0     H74758  11.254   1.651   8.399  0.2977 -0.0642  0.5397
  542MOL0     H74759  11.351   1.867   8.397  0.0930  0.3991  2.1145
  542MOL0     H74760  11.289   2.072   8.651 -0.7514 -0.1112  2.1092
  542MOL0     H74761  11.413   2.111   8.535  0.2619  1.2656 -1.1907
  542MOL0     H74762  11.168   2.286   8.587 -0.0097  3.3090 -0.1661
  542MOL0     H74763  11.315   2.299   8.691 -0.6631 -0.4694  0.5944
  542MOL0     H74764  11.307   2.477   8.515  1.8067  0.0552 -0.7952
  542MOL0     H74765  11.294   2.346   8.396  1.2060 -1.3587 -1.0459
  542MOL0     H74766  11.496   2.496   8.441 -1.6630  0.7331  0.7053
  542MOL0     H74767  11.534   2.322   8.433  2.1025 -0.9123  1.6041
  542MOL0     H74768  11.522   2.504   8.676  1.2776  0.3418 -0.6924
  542MOL0     H74769  11.525   2.323   8.681 -2.8073  1.4010 -0.3932
  542MOL0     H74770  11.733   2.468   8.523  0.6708  3.3516  1.9706
  542MOL0     H74771  11.741   2.313   8.610  0.2020  0.1431 -3.1938
  542MOL0     H74772  11.729   2.475   8.819 -0.5957 -0.4709 -1.1500
  542MOL0     H74773  11.751   2.607   8.696 -0.2634  1.2002  1.5683
  542MOL0     H74774  11.974   2.569   8.791  0.1626 -0.2981  0.1986
  542MOL0     H74775  11.963   2.515   8.624 -0.8096 -0.4359 -0.7666
  542MOL0     H74776  10.969   2.050   8.465 -2.2814 -2.2486 -3.1852
  542MOL0     H74777  10.876   1.841   8.504  0.1805  0.1817 -0.5968
  542MOL0     H74778  10.821   1.469   8.562  0.4915 -0.8794  0.9776
  542MOL0     H74779  10.688   1.298   8.620  0.5585  1.4437 -0.7449
  542MOL0     H74780   8.969   1.225   8.242 -1.3342  0.8506  0.3080
  542MOL0     H74781   8.781   1.376   8.238  3.0406 -2.0136  1.7897
  542MOL0     H74782   8.362   1.441   8.053 -3.0614  0.7282 -1.0149
  542MOL0     H74783   8.156   1.550   8.101 -0.2582 -1.4099 -1.3792
  542MOL0     H74784   8.039   1.888   8.330  0.1539  0.3180 -0.2460
  542MOL0     H74785   8.219   1.908   8.325  0.7864 -0.7391 -1.8076
  542MOL0     H74786   8.014   2.018   8.127  0.2868 -0.0830  0.4013
  542MOL0     H74787   8.188   2.027   8.102  1.1514 -1.2712  0.4945
  542MOL0     H74788   8.030   2.152   8.336  1.4949  3.1908  2.4074
  542MOL0     H74789   8.204   2.145   8.323 -1.1084 -3.6177  1.1678
  542MOL0     H74790   8.001   2.279   8.137 -0.5063 -0.7071 -0.2039
  542MOL0     H74791   8.177   2.267   8.094  2.4868 -3.1047  2.4858
  542MOL0     H74792   8.148   2.591   8.368 -2.2806  0.3241 -0.3029
  542MOL0     H74793   8.361   1.924   8.151 -1.8899  0.3890 -2.1157
  542MOL0     H74794   8.596   1.931   8.209  1.4640  1.8287 -2.0936
  542MOL0     H74795   8.682   1.797   8.225 -4.2928 -0.8973  2.2125
  542MOL0     H74796   8.675   1.875   8.065  1.8619  1.7684  1.6493
  543MOL0     O74797   5.986   3.907   4.367 -0.2863  0.7145  0.2426
  543MOL0     C74798   5.919   3.810   4.389 -0.3503 -0.3410 -0.0609
  543MOL0     O74799   5.957   3.702   4.458  0.0109  0.2789  0.4474
  543MOL0     C74800   6.083   3.657   4.454  0.8450 -0.6369 -0.0956
  543MOL0     C74801   6.139   3.664   4.580 -0.4714  0.3192  0.3572
  543MOL0     C74802   6.273   3.628   4.600 -0.7995  0.2123  0.1245
  543MOL0     C74803   6.342   3.587   4.488 -0.0200  0.2959  0.0772
  543MOL0     O74804   6.478   3.549   4.512  0.0481 -0.0861 -0.1990
  543MOL0     C74805   6.561   3.529   4.397 -0.1395  0.9108  0.2339
  543MOL0     C74806   6.715   3.494   4.421  0.1488  1.2185 -0.1658
  543MOL0     C74807   6.786   3.594   4.512  0.7710 -0.1984  0.4311
  543MOL0     C74808   6.911   3.532   4.573 -0.4641 -0.3981 -0.2269
  543MOL0     C74809   6.965   3.630   4.674  0.7413 -0.4047  0.4219
  543MOL0     C74810   7.101   3.595   4.724 -0.5501  0.1838 -0.1013
  543MOL0     C74811   7.153   3.700   4.833  0.2527 -0.0079 -0.1229
  543MOL0     C74812   7.292   3.663   4.891 -0.1018  0.1257  0.3617
  543MOL0     N74813   7.403   3.673   4.794  0.5891  0.3433  0.3683
  543MOL0     C74814   7.460   3.788   4.745  1.2240 -0.1315 -0.1014
  543MOL0     C74815   7.570   3.753   4.688 -0.2211 -0.1264 -0.7135
  543MOL0     C74816   7.682   3.852   4.640 -0.5353 -0.3795 -0.0253
  543MOL0     C74817   7.648   3.970   4.549 -0.1881 -0.1953 -0.0895
  543MOL0     C74818   7.782   4.042   4.509  0.5034 -0.1314  0.3275
  543MOL0     C74819   7.768   4.172   4.432  0.2072 -0.3694 -0.3632
  543MOL0     O74820   7.747   4.270   4.535  0.2514 -1.0168  0.5581
  543MOL0     C74821   7.704   4.397   4.504 -0.6089  0.3149  0.7719
  543MOL0     C74822   7.745   4.494   4.579 -0.1229 -0.1748  0.9734
  543MOL0     C74823   7.709   4.621   4.572  0.1839  0.2673 -0.7542
  543MOL0     C74824   7.769   4.718   4.680  0.6192 -0.2525 -0.5533
  543MOL0     C74825   7.624   4.660   4.465  0.5453 -0.8982 -0.7720
  543MOL0     C74826   7.587   4.801   4.438 -0.2314  0.5501 -0.6379
  543MOL0     O74827   7.456   4.835   4.427 -0.1679  0.4471 -0.2647
  543MOL0     C74828   7.433   4.958   4.377  0.6031  0.1184  0.1922
  543MOL0     C74829   7.424   4.979   4.242  0.9912 -0.1111  0.5424
  543MOL0     C74830   7.393   5.105   4.191  0.3925 -0.7944 -0.2326
  543MOL0     C74831   7.383   5.208   4.290  0.1390  0.3499 -0.1109
  543MOL0     O74832   7.374   5.346   4.272 -0.5875 -0.3683  0.3653
  543MOL0     C74833   7.389   5.408   4.143 -0.2132 -0.6399 -0.2543
  543MOL0     C74834   7.356   5.558   4.171  0.6122  0.6603 -0.6310
  543MOL0     C74835   7.208   5.575   4.204  0.0977 -0.3023  0.0361
  543MOL0     C74836   7.121   5.580   4.067  0.3845  0.3743 -0.4200
  543MOL0     C74837   6.969   5.579   4.111  1.2606 -0.4311  1.0896
  543MOL0     C74838   6.928   5.717   4.165 -0.3920  0.0355 -0.8458
  543MOL0     C74839   6.777   5.710   4.205 -0.2058 -0.1670  1.0897
  543MOL0     C74840   6.732   5.842   4.263  0.7086  0.0908  0.4955
  543MOL0    Cl74841   6.716   5.983   4.151 -0.2235 -0.3152 -0.1181
  543MOL0     C74842   7.389   5.180   4.430  0.4140 -0.0957  0.4416
  543MOL0     C74843   7.417   5.057   4.477 -0.0058  0.6242 -0.1637
  543MOL0     O74844   7.677   4.884   4.435  1.0061 -0.2253  0.3503
  543MOL0     C74845   7.578   4.565   4.377  0.3153  0.7247  0.1090
  543MOL0     C74846   7.615   4.426   4.394 -1.4169 -0.1281  0.0846
  543MOL0     N74847   7.579   3.614   4.699 -0.9037 -0.2969 -0.0630
  543MOL0     N74848   7.474   3.566   4.759 -0.1696 -0.0317  0.1493
  543MOL0     C74849   6.289   3.584   4.361  0.0463  0.5482  0.1415
  543MOL0     C74850   6.161   3.618   4.346  0.0120 -0.0121 -0.3248
  543MOL0     C74851   5.770   3.809   4.372 -0.4839 -1.1397 -0.2428
  543MOL0     C74852   5.683   3.715   4.427  0.5884  0.8692 -1.2150
  543MOL0     C74853   5.542   3.710   4.407 -0.7919  0.1848  0.4372
  543MOL0     C74854   5.480   3.801   4.320  0.0634 -0.4514 -0.3829
  543MOL0     O74855   5.345   3.789   4.303  0.0587  0.1930  0.2830
  543MOL0     C74856   5.267   3.881   4.224 -0.1916 -0.8307 -1.7415
  543MOL0     C74857   5.283   3.836   4.082  0.3342  0.0735  0.7610
  543MOL0     C74858   5.267   3.957   3.993  1.2085 -0.2264 -0.4305
  543MOL0     C74859   5.350   3.941   3.855 -0.2576 -0.3923  0.0788
  543MOL0     C74860   5.494   3.951   3.878  0.6632  0.2590 -0.2202
  543MOL0     C74861   5.618   3.967   3.875  0.4015 -0.2110 -0.7091
  543MOL0     C74862   5.560   3.904   4.267 -0.7090 -0.0390 -0.4600
  543MOL0     C74863   5.703   3.906   4.285  0.4417  0.1177  0.3908
  543MOL0     C74864   5.779   4.011   4.205 -0.2809  0.4090 -0.1746
  543MOL0     H74865   6.060   3.682   4.653 -1.7558 -1.8887 -0.4185
  543MOL0     H74866   6.316   3.629   4.699 -0.3407  0.5303 -0.0731
  543MOL0     H74867   6.559   3.618   4.334  1.5171 -0.4233 -1.8955
  543MOL0     H74868   6.514   3.455   4.331 -1.4607  0.2650  1.8366
  543MOL0     H74869   6.711   3.390   4.454  1.0655  0.3409 -2.6012
  543MOL0     H74870   6.779   3.499   4.333  3.5913  2.0380  2.1622
  543MOL0     H74871   6.799   3.684   4.451  0.8873  1.0835  2.2838
  543MOL0     H74872   6.715   3.630   4.586 -2.8182 -1.0167 -2.3226
  543MOL0     H74873   6.901   3.436   4.624 -1.5727  0.6335  1.6402
  543MOL0     H74874   6.977   3.516   4.487 -2.8420 -0.1017 -2.2043
  543MOL0     H74875   6.895   3.631   4.758  0.8240 -0.8860  0.4974
  543MOL0     H74876   6.956   3.730   4.631  1.2916 -0.1399  0.9182
  543MOL0     H74877   7.090   3.495   4.767 -1.9865 -1.2340 -3.4113
  543MOL0     H74878   7.177   3.594   4.645  0.9252  1.0746  1.2372
  543MOL0     H74879   7.072   3.697   4.907  0.4860  0.0726  0.1355
  543MOL0     H74880   7.156   3.803   4.797  0.0225  0.1122  0.2013
  543MOL0     H74881   7.304   3.742   4.967 -3.9165  0.1451  1.1672
  543MOL0     H74882   7.290   3.562   4.933 -0.6354 -0.5738 -1.2611
  543MOL0     H74883   7.422   3.889   4.763 -1.5882 -1.5868  3.4753
  543MOL0     H74884   7.752   3.791   4.582 -2.8949 -2.9657 -0.3807
  543MOL0     H74885   7.727   3.900   4.727 -3.5976  0.0024  1.5037
  543MOL0     H74886   7.598   3.929   4.461  1.5399 -2.6603 -0.0286
  543MOL0     H74887   7.580   4.037   4.603  0.0140 -0.0341 -0.0331
  543MOL0     H74888   7.848   4.059   4.594  1.3620 -0.3913 -0.2628
  543MOL0     H74889   7.845   3.976   4.448 -0.3178 -0.8627  0.2583
  543MOL0     H74890   7.862   4.205   4.386 -0.0043  1.5949  0.5369
  543MOL0     H74891   7.681   4.171   4.366 -0.9960 -0.6186  1.1752
  543MOL0     H74892   7.800   4.455   4.663 -2.4751 -1.5672  1.9608
  543MOL0     H74893   7.754   4.823   4.650 -0.0162 -0.1394  0.1376
  543MOL0     H74894   7.873   4.703   4.707  0.3136 -1.0882  0.1981
  543MOL0     H74895   7.708   4.709   4.771  1.2641 -1.8811 -0.2600
  543MOL0     H74896   7.464   4.909   4.168  1.6756 -0.5053  1.2657
  543MOL0     H74897   7.403   5.118   4.084  1.3333  0.7444  0.0132
  543MOL0     H74898   7.494   5.390   4.119  0.6680 -1.3019  3.5378
  543MOL0     H74899   7.325   5.365   4.065  1.5508 -4.4734  0.1839
  543MOL0     H74900   7.416   5.595   4.255 -1.0562 -0.7256  1.2481
  543MOL0     H74901   7.375   5.624   4.086 -0.4215  0.6521 -0.8749
  543MOL0     H74902   7.199   5.671   4.257 -0.2350 -0.9510  1.1816
  543MOL0     H74903   7.164   5.500   4.270 -1.3319  0.3264 -0.1678
  543MOL0     H74904   7.147   5.490   4.011  2.2799 -0.6749  1.9763
  543MOL0     H74905   7.153   5.673   4.019  5.4501  0.1477  1.8831
  543MOL0     H74906   6.913   5.563   4.019 -1.6142 -1.0678  2.8393
  543MOL0     H74907   6.940   5.500   4.180 -1.2471  0.9639  1.7224
  543MOL0     H74908   6.950   5.793   4.089 -0.4720 -1.4178 -2.3924
  543MOL0     H74909   6.986   5.736   4.256  1.8251 -3.5244 -1.3072
  543MOL0     H74910   6.772   5.616   4.260  2.3700  0.5928  2.7617
  543MOL0     H74911   6.724   5.695   4.110  2.9744  2.3526 -1.2931
  543MOL0     H74912   6.792   5.869   4.351 -0.5567  2.1491  0.7910
  543MOL0     H74913   6.631   5.822   4.299  0.6003 -0.0875  0.0968
  543MOL0     H74914   7.368   5.266   4.494 -0.2223  0.8703 -1.0255
  543MOL0     H74915   7.416   5.030   4.582  3.2738  3.1816  0.7128
  543MOL0     H74916   7.519   4.590   4.289 -1.1152  1.1338  1.1436
  543MOL0     H74917   7.574   4.351   4.327 -0.2118 -1.8253  1.1750
  543MOL0     H74918   6.348   3.554   4.275  0.0517  0.5941  0.1292
  543MOL0     H74919   6.121   3.594   4.248  0.7896 -1.6614 -0.2788
  543MOL0     H74920   5.717   3.654   4.510  1.3302  1.2826 -1.2080
  543MOL0     H74921   5.484   3.636   4.462  1.4421 -2.9544 -1.1387
  543MOL0     H74922   5.161   3.882   4.252 -0.3361  0.2098 -2.2747
  543MOL0     H74923   5.294   3.985   4.246 -2.2367 -0.2034 -1.9806
  543MOL0     H74924   5.204   3.764   4.058  1.4544 -1.3666  1.2284
  543MOL0     H74925   5.377   3.783   4.063 -1.0916 -1.6322 -2.4330
  543MOL0     H74926   5.159   3.957   3.975  0.8517 -1.3676  1.4820
  543MOL0     H74927   5.297   4.044   4.051 -2.5013  0.8051  0.2114
  543MOL0     H74928   5.316   4.017   3.783 -1.2531 -0.8919  0.0116
  543MOL0     H74929   5.332   3.845   3.808  0.2603 -1.0765  1.2354
  543MOL0     H74930   5.724   3.981   3.872  0.1789  2.2969  0.7868
  543MOL0     H74931   5.519   3.979   4.200 -0.8839 -0.1756 -0.5081
  543MOL0     H74932   5.849   4.066   4.269 -0.4715  0.2330  0.1883
  543MOL0     H74933   5.833   3.964   4.122  0.8097  1.2992  0.0161
  543MOL0     H74934   5.715   4.092   4.170  0.4210  1.8706  1.7547
  544MOL0     O74935   1.019   4.765   9.911  0.2092  0.5583  0.5758
  544MOL0     C74936   1.100   4.811   9.988 -0.1355 -0.5553  0.0951
  544MOL0     O74937   1.075   4.831  10.129  1.1829 -0.0269  0.8677
  544MOL0     C74938   0.949   4.812  10.166  0.1932 -0.2829  0.1750
  544MOL0     C74939   0.847   4.912  10.151  0.2296 -0.1602 -0.6739
  544MOL0     C74940   0.712   4.888  10.191 -0.1488 -1.1349  0.3042
  544MOL0     C74941   0.679   4.773  10.255 -0.3226  0.2318 -0.3923
  544MOL0     O74942   0.553   4.761  10.307  0.4695 -0.2491  1.2987
  544MOL0     C74943   0.504   4.645  10.370 -0.1338  1.2093 -0.2639
  544MOL0     C74944   0.362   4.681  10.413  0.0471  0.3025  0.3278
  544MOL0     C74945   0.340   4.760  10.535  0.4551 -0.3657  0.3132
  544MOL0     C74946   0.185   4.766  10.552 -0.3613  0.6585  0.2714
  544MOL0     C74947   0.145   4.841  10.679 -0.4091 -0.3387 -0.5945
  544MOL0     C74948   0.163   4.997  10.666 -0.5457 -0.8945  0.1193
  544MOL0     C74949   0.153   5.066  10.801 -0.1511 -0.8054  0.6888
  544MOL0     C74950   0.294   5.117  10.861  0.2325  0.0088  0.3838
  544MOL0     N74951   0.376   5.001  10.886 -0.4402 -0.5750  0.5629
  544MOL0     C74952   0.467   4.948  10.799  0.5538  0.0649  0.4527
  544MOL0     C74953   0.528   4.852  10.878  0.8709  0.6240  0.0467
  544MOL0     C74954   0.632   4.757  10.826 -0.3270 -0.4264 -0.6564
  544MOL0     C74955   0.735   4.849  10.743 -0.0812  0.3330 -0.1924
  544MOL0     C74956   0.843   4.760  10.677 -0.0359 -0.0495  0.3069
  544MOL0     C74957   0.968   4.817  10.616 -0.4654  0.8745 -0.1821
  544MOL0     O74958   0.943   4.937  10.537 -0.2990  0.0534  0.2039
  544MOL0     C74959   1.048   4.989  10.469 -0.0865 -0.9959  0.1838
  544MOL0     C74960   1.171   4.920  10.463 -0.0676 -0.2458  0.5813
  544MOL0     C74961   1.282   4.974  10.399 -0.2138 -0.1771  1.2018
  544MOL0     C74962   1.402   4.889  10.372 -0.6737  0.9221  0.2782
  544MOL0     C74963   1.271   5.108  10.349  0.1767 -0.5488  0.0657
  544MOL0     C74964   1.391   5.187  10.298  0.3349 -0.2217  0.0809
  544MOL0     O74965   1.366   5.320  10.272  0.1275  0.0664 -0.0908
  544MOL0     C74966   1.479   5.383  10.226 -0.1295 -0.1730  0.6755
  544MOL0     C74967   1.558   5.467  10.309 -1.3163 -0.0837 -0.3536
  544MOL0     C74968   1.666   5.537  10.249  0.0619 -0.0750 -0.6357
  544MOL0     C74969   1.698   5.519  10.114 -0.2578 -0.4995  0.9963
  544MOL0     O74970   1.821   5.573  10.073  0.4877 -0.6336  0.8681
  544MOL0     C74971   1.889   5.497   9.968 -0.7429  0.7531  0.4524
  544MOL0     C74972   2.015   5.566   9.931  0.5518  0.4593  0.3017
  544MOL0     C74973   2.091   5.613  10.054  0.3661 -0.1862 -0.6865
  544MOL0     C74974   2.244   5.629  10.043  0.2536  1.0562 -0.3854
  544MOL0     C74975   2.317   5.659  10.182  0.2621 -0.0383 -0.7047
  544MOL0     C74976   2.462   5.607  10.177 -0.6867 -0.7529 -1.0148
  544MOL0     C74977   2.538   5.668  10.061 -0.4941  0.3488  0.4429
  544MOL0     C74978   2.683   5.650  10.091  0.1998 -0.0747  0.8795
  544MOL0    Cl74979   2.758   5.676   9.933  0.6967  0.0082  0.2074
  544MOL0     C74980   1.601   5.451  10.029 -0.6756  0.1856 -0.2652
  544MOL0     C74981   1.495   5.381  10.083 -0.2037  0.0667 -0.9637
  544MOL0     O74982   1.500   5.136  10.292 -0.1034  0.4172 -0.1665
  544MOL0     C74983   1.142   5.167  10.350 -0.3398  0.3336 -0.3895
  544MOL0     C74984   1.033   5.110  10.413 -0.0911  0.8607  0.3987
  544MOL0     N74985   0.480   4.857  11.008  0.9119  0.6359  0.1941
  544MOL0     N74986   0.391   4.950  11.004 -0.1538  0.3079  1.2131
  544MOL0     C74987   0.782   4.671  10.270  0.1963  0.0871 -0.4904
  544MOL0     C74988   0.908   4.687  10.226 -0.4051  0.9424  0.4404
  544MOL0     C74989   1.240   4.851   9.947 -0.6143 -0.0811  0.3025
  544MOL0     C74990   1.306   4.956  10.015 -0.3271  1.0909  0.4562
  544MOL0     C74991   1.438   4.995   9.983  0.3649 -0.1888 -0.5961
  544MOL0     C74992   1.506   4.943   9.877  0.7822  0.7721  0.5603
  544MOL0     O74993   1.633   4.962   9.838  0.1904 -0.1410  1.0118
  544MOL0     C74994   1.695   5.087   9.876  0.1160  1.3071 -0.2393
  544MOL0     C74995   1.801   5.139   9.786 -0.8007  0.4007  0.4943
  544MOL0     C74996   1.936   5.064   9.814  0.2328 -0.2274 -0.0001
  544MOL0     C74997   2.061   5.150   9.762  0.2605 -0.0318  0.1636
  544MOL0     C74998   2.176   5.063   9.739 -1.0221 -0.0303 -1.1865
  544MOL0     C74999   2.264   4.977   9.713  1.3235  0.6737  0.0360
  544MOL0     C75000   1.439   4.849   9.797  1.0270  0.1671 -0.1115
  544MOL0     C75001   1.308   4.805   9.829 -0.1046  0.4924 -0.4395
  544MOL0     C75002   1.234   4.703   9.739  0.4441  0.5427 -0.1646
  544MOL0     H75003   0.860   5.010  10.107 -2.6422  0.4343 -0.4024
  544MOL0     H75004   0.639   4.968  10.179 -1.4636 -2.6563 -3.0361
  544MOL0     H75005   0.568   4.612  10.452  1.1200  1.2427 -1.1838
  544MOL0     H75006   0.475   4.567  10.299 -1.7984  1.4020  0.1556
  544MOL0     H75007   0.321   4.734  10.326  1.1534  0.3927 -0.1573
  544MOL0     H75008   0.307   4.588  10.425  0.6409 -0.1316 -0.2376
  544MOL0     H75009   0.394   4.710  10.616  2.1299 -0.2528 -0.6909
  544MOL0     H75010   0.373   4.864  10.525 -2.5838  0.5892 -0.7959
  544MOL0     H75011   0.145   4.818  10.464 -1.5257 -1.5292 -0.5873
  544MOL0     H75012   0.147   4.663  10.561  0.4978  0.4924  2.8101
  544MOL0     H75013   0.214   4.815  10.759  0.3739  2.4963 -0.2159
  544MOL0     H75014   0.040   4.825  10.706 -0.6680  2.0240  0.0348
  544MOL0     H75015   0.252   5.028  10.611  1.0591  0.8444  3.3910
  544MOL0     H75016   0.082   5.046  10.611 -0.7470  2.6265  3.1346
  544MOL0     H75017   0.104   4.993  10.866 -0.7695 -2.4033 -1.4553
  544MOL0     H75018   0.096   5.158  10.782  0.0383 -1.2316 -2.4367
  544MOL0     H75019   0.342   5.184  10.789  0.5114 -1.6116 -1.0265
  544MOL0     H75020   0.284   5.192  10.939  0.4836  0.7147 -0.2535
  544MOL0     H75021   0.483   4.967  10.693  0.3685  0.6498  0.5283
  544MOL0     H75022   0.584   4.691  10.753 -3.6460 -0.4325  1.3063
  544MOL0     H75023   0.669   4.693  10.906  0.5845  0.1532 -0.6081
  544MOL0     H75024   0.678   4.902  10.666 -1.7114  0.2443  0.9069
  544MOL0     H75025   0.779   4.923  10.812 -2.0016  0.6290  0.7712
  544MOL0     H75026   0.880   4.686  10.748 -3.3373 -1.8753  0.3152
  544MOL0     H75027   0.796   4.701  10.598  2.5423 -0.8346 -0.7318
  544MOL0     H75028   1.048   4.845  10.686 -1.1209  2.9744 -0.2043
  544MOL0     H75029   1.005   4.729  10.562  0.6383  0.0092  1.8228
  544MOL0     H75030   1.191   4.820  10.500  1.2636 -0.1311  0.1918
  544MOL0     H75031   1.501   4.925  10.403 -0.1786  2.3442 -2.5733
  544MOL0     H75032   1.409   4.850  10.269  1.0560 -2.7055  1.6026
  544MOL0     H75033   1.379   4.801  10.432 -1.2277  1.2776  0.5913
  544MOL0     H75034   1.542   5.457  10.416 -0.6441 -3.2917 -0.4583
  544MOL0     H75035   1.734   5.584  10.319  0.5120 -1.7501  0.1032
  544MOL0     H75036   1.909   5.396  10.005 -1.8779  0.2449 -0.2631
  544MOL0     H75037   1.818   5.492   9.886 -3.0731  4.7040  1.9172
  544MOL0     H75038   2.078   5.495   9.877 -0.7171 -0.5226  0.0548
  544MOL0     H75039   1.997   5.648   9.860  0.6785 -0.2199 -0.5363
  544MOL0     H75040   2.072   5.542  10.135  0.9785  0.6701  0.2311
  544MOL0     H75041   2.047   5.710  10.079 -1.9858 -1.6279  1.1554
  544MOL0     H75042   2.276   5.707   9.974  2.1829  1.3676  0.7636
  544MOL0     H75043   2.289   5.540  10.000  2.2928  1.4467  0.8289
  544MOL0     H75044   2.304   5.763  10.213 -2.1260 -0.1213 -1.2389
  544MOL0     H75045   2.287   5.595  10.265  3.4395 -0.3769  0.3283
  544MOL0     H75046   2.476   5.499  10.183 -1.1591 -0.7544  0.2526
  544MOL0     H75047   2.505   5.652  10.267  2.2748  2.1252 -3.5625
  544MOL0     H75048   2.534   5.777  10.053  3.1280  0.5476 -0.3946
  544MOL0     H75049   2.506   5.622   9.967  4.1744  0.7849 -1.6326
  544MOL0     H75050   2.705   5.546  10.118 -1.9022 -1.3235 -1.6634
  544MOL0     H75051   2.728   5.710  10.170 -0.4416  1.2620  0.2444
  544MOL0     H75052   1.630   5.431   9.926  2.7595  1.8909  0.2371
  544MOL0     H75053   1.447   5.304  10.023  1.0367 -0.4080 -1.3699
  544MOL0     H75054   1.140   5.264  10.302 -2.3470  1.4433  1.7442
  544MOL0     H75055   0.939   5.163  10.401 -1.2594 -0.8596  1.5105
  544MOL0     H75056   0.754   4.579  10.319 -3.4189  2.9856  3.6195
  544MOL0     H75057   0.987   4.614  10.244  0.1132  1.4017  0.0429
  544MOL0     H75058   1.261   5.011  10.098 -4.6815 -1.0223 -0.1926
  544MOL0     H75059   1.491   5.053  10.058  0.1840  0.8486 -1.2484
  544MOL0     H75060   1.616   5.162   9.881 -0.0118  1.1964 -0.5380
  544MOL0     H75061   1.722   5.078   9.982 -3.4108  2.8847  0.9491
  544MOL0     H75062   1.824   5.244   9.803  1.2636  0.0364  0.1795
  544MOL0     H75063   1.773   5.131   9.680  0.0582  1.5230  0.1619
  544MOL0     H75064   1.939   5.051   9.923 -0.6096 -0.3712  0.0188
  544MOL0     H75065   1.936   4.964   9.770  1.8754 -0.1919 -0.1149
  544MOL0     H75066   2.083   5.229   9.834 -1.6184 -1.1637  2.1141
  544MOL0     H75067   2.031   5.197   9.668  0.7470  2.2767  1.1073
  544MOL0     H75068   2.329   4.898   9.680  3.6323  3.2874 -2.1765
  544MOL0     H75069   1.490   4.793   9.720  2.1959 -0.7998  1.3045
  544MOL0     H75070   1.206   4.614   9.796 -5.0904  1.1697 -1.3584
  544MOL0     H75071   1.138   4.749   9.712  0.0312 -0.6751 -0.8335
  544MOL0     H75072   1.294   4.677   9.651 -1.4996 -1.6035 -0.9582
  545MOL0     O75073  11.121  11.101   3.279 -0.3143  0.4838  0.1140
  545MOL0     C75074  11.152  10.989   3.315 -0.8658 -0.2795 -0.8603
  545MOL0     O75075  11.239  10.949   3.413 -0.3292 -0.9020 -0.3692
  545MOL0     C75076  11.307  11.055   3.480  0.4270 -0.7391  0.4358
  545MOL0     C75077  11.387  11.156   3.413 -0.2154  0.5999  0.4635
  545MOL0     C75078  11.470  11.240   3.484 -0.6393  0.1684 -0.0003
  545MOL0     C75079  11.477  11.221   3.622 -0.1869  0.2059  0.1634
  545MOL0     O75080  11.561  11.307   3.687 -0.5335  0.3498 -1.0926
  545MOL0     C75081  11.579  11.299   3.829 -0.4035 -0.6890  0.6294
  545MOL0     C75082  11.669  11.408   3.883  0.2531  0.5334 -0.2478
  545MOL0     C75083  11.604  11.540   3.858  0.6979  0.5040  0.3429
  545MOL0     C75084  11.684  11.657   3.919 -0.3274  0.7404  0.7114
  545MOL0     C75085  11.616  11.799   3.893 -0.3842  0.9375 -0.1561
  545MOL0     C75086  11.671  11.858   3.761  0.0700  0.2692  0.9000
  545MOL0     C75087  11.778  11.946   3.806 -1.5862 -0.6297 -0.4085
  545MOL0     C75088  11.836  12.050   3.706  0.0942 -0.7006 -0.2131
  545MOL0     N75089  11.982  12.039   3.701  0.5029  0.4172  0.2516
  545MOL0     C75090  12.051  11.967   3.605  0.0196 -0.8728  0.2681
  545MOL0     C75091  12.177  11.985   3.636 -0.2460  0.2293  0.8298
  545MOL0     C75092  12.295  11.930   3.553  1.2498 -0.2388 -0.3516
  545MOL0     C75093  12.342  11.783   3.595  0.9536 -1.4553 -0.5858
  545MOL0     C75094  12.489  11.753   3.552  0.3872 -0.5578 -0.5565
  545MOL0     C75095  12.504  11.763   3.406 -0.3905  0.9410  0.4038
  545MOL0     O75096  12.533  11.897   3.352  0.6146  0.4598 -0.4206
  545MOL0     C75097  12.658  11.937   3.312 -0.3182 -0.8434  0.4346
  545MOL0     C75098  12.760  11.846   3.301  0.1827  0.0104 -0.2315
  545MOL0     C75099  12.884  11.872   3.241  0.0552  0.2866  0.1420
  545MOL0     C75100  12.992  11.767   3.244  0.5645 -0.0221  0.2875
  545MOL0     C75101  12.898  11.998   3.173 -0.1780  0.8132  0.2479
  545MOL0     C75102  13.019  12.036   3.099  0.0813  0.4806 -0.1631
  545MOL0     O75103  13.143  12.024   3.150 -0.1955 -0.1316 -0.3767
  545MOL0     C75104  13.251  12.041   3.063  0.8708 -0.7647 -0.9250
  545MOL0     C75105  13.255  12.003   2.931  0.7564 -0.2918 -0.0508
  545MOL0     C75106  13.367  12.012   2.860 -0.7843 -0.1448 -0.1905
  545MOL0     C75107  13.487  12.070   2.913 -0.6229 -0.1010 -0.3068
  545MOL0     O75108  13.582  12.091   2.821 -0.6534 -0.1021  0.3087
  545MOL0     C75109  13.622  12.224   2.803 -0.4771 -0.5517 -0.1582
  545MOL0     C75110  13.733  12.243   2.710 -0.1386 -0.3290  0.2511
  545MOL0     C75111  13.841  12.137   2.728 -0.3309  0.2836 -1.0313
  545MOL0     C75112  13.961  12.179   2.640 -0.1161 -0.0344  0.6143
  545MOL0     C75113  14.032  12.045   2.607  0.0660 -0.5003 -0.1667
  545MOL0     C75114  14.177  12.065   2.555  0.4610 -0.0133  0.1412
  545MOL0     C75115  14.222  11.922   2.507 -0.3733 -0.1933 -0.0118
  545MOL0     C75116  14.358  11.921   2.433 -0.4377 -1.0217 -0.7939
  545MOL0    Cl75117  14.502  12.013   2.522 -0.0310  0.7126 -0.0562
  545MOL0     C75118  13.487  12.108   3.046  0.2427  0.3090 -0.0695
  545MOL0     C75119  13.372  12.083   3.123 -1.0352  0.2556  0.0381
  545MOL0     O75120  12.991  12.090   2.996  0.3549 -0.6918  0.1104
  545MOL0     C75121  12.795  12.090   3.187  0.7152 -0.0262 -0.2425
  545MOL0     C75122  12.675  12.068   3.259 -0.2479 -0.2277 -1.0070
  545MOL0     N75123  12.186  12.060   3.747 -0.0412 -0.8698 -0.7657
  545MOL0     N75124  12.069  12.092   3.793 -0.1141  0.0207 -0.5729
  545MOL0     C75125  11.397  11.125   3.691 -0.6583  0.0038 -0.1778
  545MOL0     C75126  11.313  11.043   3.615 -0.2338  0.1844  0.3215
  545MOL0     C75127  11.068  10.878   3.272  0.9536 -0.3261 -0.1542
  545MOL0     C75128  11.007  10.892   3.147 -0.3230  0.0441  0.7733
  545MOL0     C75129  10.942  10.786   3.087  0.1848 -0.6109 -0.6257
  545MOL0     C75130  10.931  10.660   3.142 -0.4455 -0.8046 -0.3600
  545MOL0     O75131  10.875  10.561   3.070  0.1453  0.4779  0.2071
  545MOL0     C75132  10.852  10.427   3.133 -0.0530 -1.1644  0.1148
  545MOL0     C75133  10.755  10.346   3.041 -0.3685 -0.7509  0.3437
  545MOL0     C75134  10.619  10.399   3.030  0.5407 -0.7866 -0.8353
  545MOL0     C75135  10.543  10.413   3.154  1.1000 -0.4293  0.3300
  545MOL0     C75136  10.566  10.546   3.212  0.1766  1.2874  0.6876
  545MOL0     C75137  10.605  10.657   3.248  0.3554 -0.4120 -0.6338
  545MOL0     C75138  10.971  10.648   3.277  0.2467  0.6870 -0.0207
  545MOL0     C75139  11.031  10.757   3.343  0.3054  0.1807  0.0205
  545MOL0     C75140  11.059  10.743   3.494  0.0168  0.3684 -0.7207
  545MOL0     H75141  11.385  11.159   3.305  2.0323 -0.7739  0.3157
  545MOL0     H75142  11.539  11.311   3.439  0.7421 -1.6151 -0.8320
  545MOL0     H75143  11.623  11.200   3.847  0.2293 -0.4050  0.6881
  545MOL0     H75144  11.483  11.296   3.880  0.3371  2.8963  2.5258
  545MOL0     H75145  11.691  11.389   3.988  0.5876 -1.6827 -0.6651
  545MOL0     H75146  11.771  11.402   3.844  0.8037 -0.0667  1.2183
  545MOL0     H75147  11.600  11.557   3.750 -1.0245 -1.7276  0.0015
  545MOL0     H75148  11.502  11.548   3.896 -0.3315  1.5505 -2.3952
  545MOL0     H75149  11.697  11.650   4.027 -0.3495  0.2257  0.6835
  545MOL0     H75150  11.786  11.653   3.880 -1.1190  0.1307 -1.4531
  545MOL0     H75151  11.631  11.869   3.976 -3.0976 -0.5667  1.7762
  545MOL0     H75152  11.507  11.791   3.890 -0.3933  1.1657 -0.5281
  545MOL0     H75153  11.694  11.778   3.691  1.6506  0.9041  0.6590
  545MOL0     H75154  11.596  11.926   3.720 -0.0231 -0.7869 -0.7574
  545MOL0     H75155  11.856  11.880   3.846 -0.6554 -0.0980 -1.3082
  545MOL0     H75156  11.738  12.010   3.885  1.7133  0.8742  0.1971
  545MOL0     H75157  11.792  12.038   3.606 -0.1241  0.7388 -0.3090
  545MOL0     H75158  11.811  12.150   3.742  0.3740 -0.1881 -1.3996
  545MOL0     H75159  12.006  11.911   3.522 -0.3029  0.1230 -0.2447
  545MOL0     H75160  12.384  11.994   3.553  2.2188 -1.3564  3.3619
  545MOL0     H75161  12.256  11.915   3.452  2.2041 -0.0327 -0.7635
  545MOL0     H75162  12.343  11.783   3.704  0.0439 -0.5662 -0.5620
  545MOL0     H75163  12.270  11.709   3.558 -0.9850  1.1732 -2.4499
  545MOL0     H75164  12.555  11.825   3.601  0.1587 -0.5357 -0.2757
  545MOL0     H75165  12.526  11.655   3.585 -0.2527 -0.2409  1.2088
  545MOL0     H75166  12.572  11.688   3.365 -2.1654  0.3645 -1.6390
  545MOL0     H75167  12.410  11.736   3.359 -0.7446  2.5630  0.1313
  545MOL0     H75168  12.748  11.755   3.358 -1.9699  0.3036 -0.1273
  545MOL0     H75169  13.014  11.710   3.154  3.7306 -0.7661  1.3881
  545MOL0     H75170  12.977  11.694   3.324 -0.5210 -0.3991 -0.2509
  545MOL0     H75171  13.087  11.819   3.264 -0.7352  2.8131 -0.3679
  545MOL0     H75172  13.174  11.942   2.894 -0.3483  0.2208  1.4118
  545MOL0     H75173  13.352  11.974   2.759 -3.6042  0.5421 -0.1046
  545MOL0     H75174  13.534  12.283   2.777 -2.5260 -3.9486 -1.5943
  545MOL0     H75175  13.665  12.253   2.900  2.4362 -3.2830 -0.4832
  545MOL0     H75176  13.696  12.238   2.607  0.2060  0.4453  0.0756
  545MOL0     H75177  13.783  12.339   2.727  1.7298 -0.9936 -1.1719
  545MOL0     H75178  13.797  12.042   2.698 -0.4882  0.6487 -1.9807
  545MOL0     H75179  13.865  12.132   2.835 -0.1160 -0.0119 -1.0936
  545MOL0     H75180  14.018  12.244   2.707 -0.0046  1.4262 -0.8496
  545MOL0     H75181  13.931  12.230   2.549 -2.3332 -2.9912 -0.4894
  545MOL0     H75182  14.045  11.997   2.704  1.2542  2.5181  1.2873
  545MOL0     H75183  13.975  11.989   2.533  0.6252  1.6681 -2.3968
  545MOL0     H75184  14.245  12.085   2.638 -0.4802 -1.6090  1.3540
  545MOL0     H75185  14.190  12.142   2.479 -3.8719  2.7306  1.8186
  545MOL0     H75186  14.154  11.883   2.431 -1.1085 -1.3824  1.2234
  545MOL0     H75187  14.232  11.853   2.591 -0.9642 -0.8009 -0.4287
  545MOL0     H75188  14.351  11.960   2.332 -1.5969 -0.6921 -0.5988
  545MOL0     H75189  14.401  11.821   2.419  1.7027 -0.4994  1.3160
  545MOL0     H75190  13.578  12.141   3.094  1.3282  0.7743 -2.3021
  545MOL0     H75191  13.396  12.102   3.227  2.0253  2.8946 -0.9848
  545MOL0     H75192  12.808  12.185   3.136 -1.6637 -0.5913 -2.1083
  545MOL0     H75193  12.599  12.146   3.262  1.6370  1.7084  1.2012
  545MOL0     H75194  11.397  11.120   3.800  1.8695 -1.2343 -0.1629
  545MOL0     H75195  11.255  10.965   3.663  0.9191  0.8277  2.9634
  545MOL0     H75196  11.021  10.983   3.090  0.1645 -0.8363 -0.5423
  545MOL0     H75197  10.893  10.803   2.992  0.1552 -1.2620 -0.7346
  545MOL0     H75198  10.943  10.366   3.141  1.5889  0.7882 -2.3889
  545MOL0     H75199  10.805  10.433   3.232 -2.8324 -2.1590 -1.0414
  545MOL0     H75200  10.734  10.248   3.086 -1.9478 -0.5952 -0.0013
  545MOL0     H75201  10.790  10.331   2.938 -1.8620 -0.8735 -0.1615
  545MOL0     H75202  10.628  10.498   2.984  1.2030 -1.2127 -1.6462
  545MOL0     H75203  10.561  10.331   2.966 -0.0139 -1.7519  0.6382
  545MOL0     H75204  10.572  10.340   3.230 -1.4310  0.2286  2.0564
  545MOL0     H75205  10.438  10.391   3.134  0.3390  2.0237  1.2397
  545MOL0     H75206  10.639  10.758   3.262 -0.4932 -0.1517 -0.4218
  545MOL0     H75207  10.956  10.550   3.322  0.5643  1.1678  1.1721
  545MOL0     H75208  11.025  10.647   3.536  1.7320 -0.0627 -0.1998
  545MOL0     H75209  11.165  10.753   3.518  0.0883  1.4674 -1.4500
  545MOL0     H75210  11.009  10.823   3.548  0.7111  2.7936 -3.4570
  546MOL0     O75211   4.714   2.413   8.335  0.6787 -0.3047  1.0136
  546MOL0     C75212   4.607   2.350   8.352 -0.3605  0.8418  0.8179
  546MOL0     O75213   4.600   2.213   8.372 -0.0106  0.3353  0.2125
  546MOL0     C75214   4.698   2.127   8.425  0.0469 -0.1011  0.1638
  546MOL0     C75215   4.659   2.003   8.476 -0.1544  0.1313  0.1780
  546MOL0     C75216   4.758   1.909   8.517  0.0940  0.5207 -0.8247
  546MOL0     C75217   4.898   1.935   8.504  0.0433  0.4249 -0.1958
  546MOL0     O75218   5.004   1.855   8.535 -0.5630 -0.1504  0.8002
  546MOL0     C75219   4.991   1.785   8.667 -0.3994  0.7266  0.0797
  546MOL0     C75220   5.032   1.874   8.788  0.2315  0.1289  0.3049
  546MOL0     C75221   5.168   1.947   8.793  0.3967 -0.6733  0.5790
  546MOL0     C75222   5.267   1.922   8.677 -0.0589  0.1057 -0.1267
  546MOL0     C75223   5.413   1.937   8.714 -0.7392  0.1732  0.3644
  546MOL0     C75224   5.458   2.080   8.735  0.1236 -0.3892 -0.5075
  546MOL0     C75225   5.603   2.094   8.781  0.8552  0.4812 -0.6411
  546MOL0     C75226   5.615   2.132   8.927  0.5567  0.3310 -0.1976
  546MOL0     N75227   5.748   2.112   8.975  0.4495  0.2892 -0.3960
  546MOL0     C75228   5.805   1.996   9.011  0.3310  0.0892  0.3644
  546MOL0     C75229   5.915   2.026   9.071 -0.2336  0.4374 -0.8617
  546MOL0     C75230   5.996   1.922   9.143 -0.0077  0.5201  0.5126
  546MOL0     C75231   6.148   1.951   9.122 -0.9888 -0.2104 -0.7973
  546MOL0     C75232   6.230   1.853   9.204 -0.2777  0.0563  0.8373
  546MOL0     C75233   6.380   1.872   9.190 -0.1893  0.5154 -0.2019
  546MOL0     O75234   6.425   1.980   9.266 -0.0004  0.0475 -0.7654
  546MOL0     C75235   6.562   1.994   9.275 -1.1202 -0.1900  0.7467
  546MOL0     C75236   6.616   2.122   9.299  0.5512 -0.7251  1.3612
  546MOL0     C75237   6.749   2.171   9.306  0.9059  0.1247  0.2681
  546MOL0     C75238   6.768   2.317   9.322 -0.6129  0.5409  0.4817
  546MOL0     C75239   6.844   2.069   9.286  0.2822 -0.2814 -0.0608
  546MOL0     C75240   6.989   2.092   9.293 -1.4100 -0.8871 -0.1683
  546MOL0     O75241   7.079   2.011   9.229  0.3615 -0.7468  0.1325
  546MOL0     C75242   7.197   1.989   9.297 -1.0660  0.0052  0.5382
  546MOL0     C75243   7.318   2.007   9.227  0.0415  0.7083 -0.3876
  546MOL0     C75244   7.437   1.985   9.294 -0.3385  0.0450 -1.2838
  546MOL0     C75245   7.440   1.928   9.418  0.3178  0.5772 -0.1266
  546MOL0     O75246   7.547   1.884   9.494 -0.0869  0.2708 -0.5846
  546MOL0     C75247   7.682   1.916   9.443  0.6936 -0.8984 -0.1393
  546MOL0     C75248   7.782   1.899   9.556  0.0272 -0.1359  0.5947
  546MOL0     C75249   7.747   1.982   9.680 -0.0549 -0.5249  0.1310
  546MOL0     C75250   7.761   2.136   9.646 -0.3380  1.1804 -0.4124
  546MOL0     C75251   7.722   2.230   9.766  0.4059  1.0459 -0.0794
  546MOL0     C75252   7.572   2.239   9.785 -0.4981 -0.1994 -0.4507
  546MOL0     C75253   7.493   2.335   9.689 -0.2464 -0.2783  1.2625
  546MOL0     C75254   7.340   2.326   9.713 -1.1228 -0.0823  0.3566
  546MOL0    Cl75255   7.284   2.154   9.668 -0.0963 -0.2045  0.2709
  546MOL0     C75256   7.320   1.902   9.486 -0.3589 -1.2282  0.1698
  546MOL0     C75257   7.199   1.943   9.423 -0.1849  0.0807 -0.2373
  546MOL0     O75258   7.024   2.193   9.357 -0.7242  0.5711 -0.0170
  546MOL0     C75259   6.803   1.939   9.266 -0.8459  0.7368  0.0906
  546MOL0     C75260   6.669   1.900   9.252 -0.4133 -1.1060 -0.5613
  546MOL0     N75261   5.926   2.169   9.077 -0.1329 -0.3947 -0.6871
  546MOL0     N75262   5.830   2.219   9.007  0.8291 -0.0408 -1.2712
  546MOL0     C75263   4.935   2.055   8.441 -0.4171 -0.5252 -0.0689
  546MOL0     C75264   4.836   2.153   8.402  0.5390  0.2416 -0.3027
  546MOL0     C75265   4.482   2.428   8.334  1.0820 -0.5911  0.3112
  546MOL0     C75266   4.375   2.366   8.273 -0.4817  0.5834  0.0028
  546MOL0     C75267   4.250   2.419   8.267  0.0855  0.8677 -0.1732
  546MOL0     C75268   4.233   2.560   8.293 -0.6716  0.5798 -0.3380
  546MOL0     O75269   4.117   2.634   8.290 -0.3174  0.2734 -0.5738
  546MOL0     C75270   4.001   2.566   8.229 -0.2789 -0.6021 -1.3056
  546MOL0     C75271   3.889   2.669   8.225  0.5708  0.2167 -0.2967
  546MOL0     C75272   3.752   2.609   8.192  0.1734  0.9365  0.2878
  546MOL0     C75273   3.736   2.519   8.076 -0.4103 -0.0638 -0.1401
  546MOL0     C75274   3.779   2.381   8.098  0.9565 -0.6310 -0.0686
  546MOL0     C75275   3.817   2.264   8.106 -1.0403  0.2036 -0.3856
  546MOL0     C75276   4.346   2.630   8.339 -0.2328  0.3635 -0.4876
  546MOL0     C75277   4.459   2.561   8.371 -0.0313 -0.2225  0.0941
  546MOL0     C75278   4.566   2.657   8.419  0.7184 -0.2226  0.6277
  546MOL0     H75279   4.555   1.974   8.469 -0.4269  1.5180 -3.6692
  546MOL0     H75280   4.726   1.809   8.545  2.3557 -0.1961 -0.5777
  546MOL0     H75281   5.052   1.694   8.668 -0.4179  0.7052 -0.3313
  546MOL0     H75282   4.890   1.758   8.696 -0.3188  2.4759  2.2220
  546MOL0     H75283   4.958   1.955   8.780 -0.0836  0.1828  2.8955
  546MOL0     H75284   5.014   1.811   8.876 -0.8800 -1.2584 -0.8616
  546MOL0     H75285   5.151   2.053   8.811  0.6858 -0.9068  2.4282
  546MOL0     H75286   5.209   1.907   8.887 -0.4401 -0.2574  1.1353
  546MOL0     H75287   5.246   1.824   8.632  1.5027 -3.1553  5.3439
  546MOL0     H75288   5.247   1.997   8.600  1.9550  0.8480  0.0251
  546MOL0     H75289   5.472   1.906   8.627 -1.2721 -0.2227  0.1405
  546MOL0     H75290   5.441   1.868   8.794  1.5717  0.1885 -0.3567
  546MOL0     H75291   5.436   2.137   8.644 -1.8559 -1.4990 -0.7904
  546MOL0     H75292   5.398   2.114   8.819  3.3028 -1.0891  2.2506
  546MOL0     H75293   5.661   2.170   8.727  1.0876 -0.5571 -1.9073
  546MOL0     H75294   5.660   2.002   8.764  0.5026  0.5872 -2.6494
  546MOL0     H75295   5.590   2.238   8.937  0.2468  0.4321 -1.8330
  546MOL0     H75296   5.549   2.072   8.991  0.9214  2.2750  2.1569
  546MOL0     H75297   5.766   1.896   8.995 -0.4293  0.3450  0.6171
  546MOL0     H75298   5.971   1.826   9.098  1.7535  0.4277 -0.3718
  546MOL0     H75299   5.969   1.909   9.248  2.1432 -1.7278  0.8808
  546MOL0     H75300   6.171   1.941   9.016  2.2993 -3.5276  0.0425
  546MOL0     H75301   6.179   2.053   9.146 -0.5185 -0.6573  0.5881
  546MOL0     H75302   6.209   1.878   9.309 -1.4036  1.2004  0.3770
  546MOL0     H75303   6.198   1.753   9.176  0.2426  0.5815 -1.8331
  546MOL0     H75304   6.426   1.778   9.221  1.1899  0.0176 -3.2980
  546MOL0     H75305   6.432   1.875   9.093 -0.7688 -1.0875 -0.5983
  546MOL0     H75306   6.545   2.202   9.282  1.4040 -0.3810 -0.9447
  546MOL0     H75307   6.678   2.376   9.304 -2.4564 -1.6837  1.9178
  546MOL0     H75308   6.848   2.337   9.250 -0.0514 -1.2561  0.5753
  546MOL0     H75309   6.810   2.345   9.419  0.1328  1.1015  0.0144
  546MOL0     H75310   7.319   2.038   9.123  2.2197 -1.4059 -1.0886
  546MOL0     H75311   7.531   2.002   9.242  0.5366  0.9061  0.4795
  546MOL0     H75312   7.715   1.843   9.368  0.4598 -2.7080  1.4262
  546MOL0     H75313   7.691   2.014   9.395 -0.7771 -0.6595  0.0337
  546MOL0     H75314   7.769   1.792   9.577  2.8350 -0.5321  0.7115
  546MOL0     H75315   7.884   1.925   9.527 -1.0983  3.2925 -0.7344
  546MOL0     H75316   7.813   1.962   9.765  0.6449 -3.5576 -0.9879
  546MOL0     H75317   7.642   1.959   9.704 -0.1576 -1.3644 -1.0545
  546MOL0     H75318   7.692   2.163   9.565  1.4981  3.0686 -1.4554
  546MOL0     H75319   7.865   2.153   9.616  0.4972 -2.4020 -0.0895
  546MOL0     H75320   7.768   2.186   9.854  0.6118 -2.0229 -1.5882
  546MOL0     H75321   7.759   2.331   9.750  1.0223  1.0296  1.1986
  546MOL0     H75322   7.561   2.286   9.884  0.6836  0.0640 -0.4384
  546MOL0     H75323   7.538   2.135   9.788  4.0474 -1.8942 -0.3649
  546MOL0     H75324   7.517   2.303   9.587 -4.5484  0.0649 -0.0512
  546MOL0     H75325   7.536   2.435   9.701  4.6187 -2.1044  1.5035
  546MOL0     H75326   7.282   2.404   9.663 -1.4896  0.2466  1.2698
  546MOL0     H75327   7.321   2.342   9.820  1.4406  1.0360  0.7119
  546MOL0     H75328   7.307   1.853   9.582 -1.3181  2.7736  2.2760
  546MOL0     H75329   7.106   1.919   9.475 -0.4999 -0.9909 -1.2501
  546MOL0     H75330   6.874   1.856   9.260  0.8847  1.8156  3.3040
  546MOL0     H75331   6.652   1.798   9.219 -0.2700  0.1051 -5.0189
  546MOL0     H75332   5.041   2.071   8.428  0.0620  0.8690  4.0419
  546MOL0     H75333   4.875   2.245   8.360 -2.5108  1.1501 -1.3857
  546MOL0     H75334   4.393   2.261   8.253  0.9398  0.9029 -0.5346
  546MOL0     H75335   4.177   2.351   8.225  2.4658 -0.7361 -1.9527
  546MOL0     H75336   4.031   2.533   8.129 -0.6246 -0.1836 -1.5533
  546MOL0     H75337   3.968   2.482   8.291 -0.0328  0.2033 -0.0277
  546MOL0     H75338   3.920   2.750   8.159 -2.1776  0.8845 -0.9076
  546MOL0     H75339   3.879   2.708   8.327  0.5836  0.1492 -0.2696
  546MOL0     H75340   3.716   2.568   8.287  1.6115 -0.2928  0.3454
  546MOL0     H75341   3.694   2.699   8.171 -1.0830  0.7955  2.7643
  546MOL0     H75342   3.808   2.564   8.007  0.7189  0.4965  1.3384
  546MOL0     H75343   3.635   2.516   8.035 -0.9378 -3.2761  1.1380
  546MOL0     H75344   3.839   2.159   8.113 -0.3310 -0.0947 -4.4042
  546MOL0     H75345   4.335   2.735   8.362  2.0610  0.1598  2.0553
  546MOL0     H75346   4.647   2.597   8.461 -0.1787 -1.0307  1.2471
  546MOL0     H75347   4.599   2.718   8.335  1.0153 -0.3815  0.6291
  546MOL0     H75348   4.526   2.717   8.502  2.5798  0.8235  0.8132
  547MOL0     O75349   9.713  10.589   6.605 -0.0418  0.9033  0.1550
  547MOL0     C75350   9.632  10.545   6.528  0.2990  0.9627  0.2726
  547MOL0     O75351   9.656  10.530   6.390  0.4828 -0.0321  0.4478
  547MOL0     C75352   9.714  10.625   6.315 -0.2132 -0.1366  0.8270
  547MOL0     C75353   9.780  10.581   6.194 -0.1737 -0.8093 -0.4361
  547MOL0     C75354   9.866  10.677   6.133 -0.6339 -0.1454 -0.1827
  547MOL0     C75355   9.870  10.814   6.168  0.4011  0.0090 -0.5921
  547MOL0     O75356   9.931  10.903   6.079 -0.0426 -0.6950 -0.0173
  547MOL0     C75357   9.959  11.037   6.117  0.1708  0.4725  0.0492
  547MOL0     C75358  10.043  11.112   6.005  0.0149 -0.0598 -0.0179
  547MOL0     C75359  10.186  11.052   5.997  0.0402 -0.2002 -0.7037
  547MOL0     C75360  10.297  11.134   5.917  0.8146 -0.0759 -0.1882
  547MOL0     C75361  10.433  11.109   5.965 -1.0303 -0.1884 -0.9055
  547MOL0     C75362  10.520  11.220   5.900  0.2385  0.9497  0.6792
  547MOL0     C75363  10.664  11.207   5.954  1.5090  0.1964  0.5304
  547MOL0     C75364  10.676  11.286   6.085 -0.4981  0.2715  0.3310
  547MOL0     N75365  10.808  11.292   6.151 -0.2516 -0.7249 -0.6549
  547MOL0     C75366  10.884  11.413   6.152 -0.2923 -0.1372  0.2037
  547MOL0     C75367  10.980  11.393   6.240  0.1887 -0.8395  0.5796
  547MOL0     C75368  11.083  11.496   6.274  0.6313  1.0754 -1.1067
  547MOL0     C75369  11.213  11.490   6.209 -0.2178 -0.1170 -0.2935
  547MOL0     C75370  11.308  11.608   6.270 -0.1160 -0.0327 -0.0441
  547MOL0     C75371  11.445  11.563   6.317  0.3852  0.5232  1.1639
  547MOL0     O75372  11.509  11.501   6.198 -0.0783  0.1850  0.5472
  547MOL0     C75373  11.568  11.584   6.104 -0.5413  0.2218  0.2155
  547MOL0     C75374  11.630  11.513   6.002 -0.7348  0.6663 -0.1483
  547MOL0     C75375  11.713  11.577   5.910  0.4422 -0.6336 -0.1960
  547MOL0     C75376  11.784  11.509   5.803  0.6287  0.0205 -0.3583
  547MOL0     C75377  11.722  11.720   5.915  0.6815  0.3558  0.2567
  547MOL0     C75378  11.798  11.808   5.834 -1.0628  0.6553  0.3151
  547MOL0     O75379  11.773  11.943   5.854  0.5525  0.0173 -0.3466
  547MOL0     C75380  11.861  12.037   5.821  0.5132  0.3958  0.5152
  547MOL0     C75381  11.996  12.018   5.774 -0.7027 -0.3139  0.1036
  547MOL0     C75382  12.075  12.139   5.746  0.5304  0.6216 -0.4253
  547MOL0     C75383  12.019  12.266   5.773  0.9318 -0.1105  0.7710
  547MOL0     O75384  12.096  12.373   5.736  0.1237  0.0210 -0.3247
  547MOL0     C75385  12.065  12.493   5.805  0.1412 -1.0198  0.0556
  547MOL0     C75386  12.160  12.610   5.775  0.0627  0.4133 -0.1016
  547MOL0     C75387  12.286  12.596   5.858 -0.7737  0.4197 -0.1353
  547MOL0     C75388  12.391  12.698   5.809  0.0040  0.0194  0.4477
  547MOL0     C75389  12.531  12.709   5.874  0.2374  0.2651 -0.2782
  547MOL0     C75390  12.584  12.578   5.922 -0.0368 -0.0434 -0.0061
  547MOL0     C75391  12.716  12.603   6.007 -0.1375 -1.3097 -0.2535
  547MOL0     C75392  12.781  12.476   6.066  0.8054  0.6255 -0.1142
  547MOL0    Cl75393  12.944  12.513   6.150  0.1688 -0.0290  0.1914
  547MOL0     C75394  11.890  12.276   5.832  0.1772 -0.5271  0.1930
  547MOL0     C75395  11.816  12.165   5.855  0.2749  0.1447 -0.1073
  547MOL0     O75396  11.874  11.767   5.742 -0.1268 -0.0230 -0.1804
  547MOL0     C75397  11.646  11.782   6.009 -0.0741  0.0806 -1.0229
  547MOL0     C75398  11.571  11.716   6.101 -0.7376 -0.2339 -0.1399
  547MOL0     N75399  10.960  11.269   6.302  0.1368 -0.2650  0.7164
  547MOL0     N75400  10.854  11.224   6.253  0.3488  0.3014 -0.1479
  547MOL0     C75401   9.797  10.851   6.285  0.0538 -0.3749 -0.4470
  547MOL0     C75402   9.714  10.758   6.357 -0.2352  0.2358  0.6615
  547MOL0     C75403   9.507  10.490   6.580 -1.3368  0.3804  0.2962
  547MOL0     C75404   9.427  10.431   6.485  0.0744  1.0484  0.5012
  547MOL0     C75405   9.310  10.372   6.520  0.3008 -0.0870 -0.5692
  547MOL0     C75406   9.264  10.360   6.647  0.7598 -0.3208 -0.2768
  547MOL0     O75407   9.146  10.287   6.665  0.1276 -0.4448  0.3449
  547MOL0     C75408   9.095  10.281   6.802  0.1522 -0.3257  0.8961
  547MOL0     C75409   8.959  10.204   6.799  0.9580  0.1158  0.0132
  547MOL0     C75410   8.987  10.059   6.750 -0.5338 -1.0035 -0.1360
  547MOL0     C75411   8.856   9.992   6.726  0.0394  0.0839  0.9075
  547MOL0     C75412   8.863   9.850   6.686  1.3223  0.3180 -0.2289
  547MOL0     C75413   8.884   9.734   6.658  0.0903 -0.0991 -0.7740
  547MOL0     C75414   9.334  10.427   6.752 -0.5796  0.2017 -0.3703
  547MOL0     C75415   9.455  10.497   6.714 -0.1415 -0.1195  0.2960
  547MOL0     C75416   9.532  10.564   6.820 -1.2110  0.0080 -0.2154
  547MOL0     H75417   9.773  10.477   6.162 -0.0823 -0.8863 -0.2161
  547MOL0     H75418   9.909  10.649   6.038  0.1568 -1.0535  0.4156
  547MOL0     H75419  10.006  11.034   6.216 -0.1840  3.4509  0.4003
  547MOL0     H75420   9.866  11.095   6.124  0.5589  1.1499 -0.4054
  547MOL0     H75421   9.979  11.111   5.917 -0.0144  0.0445  0.0023
  547MOL0     H75422  10.062  11.212   6.044 -3.9824  1.3956 -1.3133
  547MOL0     H75423  10.211  11.055   6.103  0.1904 -0.7216 -0.7232
  547MOL0     H75424  10.194  10.949   5.962  1.5154 -0.4301  0.2331
  547MOL0     H75425  10.283  11.102   5.813 -2.7013  0.3413  0.0318
  547MOL0     H75426  10.257  11.236   5.920 -0.5272 -0.5864  0.0971
  547MOL0     H75427  10.466  11.006   5.950  0.6776  0.4280 -1.6004
  547MOL0     H75428  10.430  11.131   6.072 -0.3025 -1.4115 -0.6225
  547MOL0     H75429  10.520  11.194   5.794 -0.6285 -0.3038  0.9588
  547MOL0     H75430  10.477  11.320   5.902 -2.7287 -0.1546 -0.7624
  547MOL0     H75431  10.732  11.244   5.877  0.3918  0.5953 -0.2865
  547MOL0     H75432  10.690  11.102   5.969  1.4143  0.3049  1.5670
  547MOL0     H75433  10.645  11.390   6.067 -2.1148  0.2570  2.5605
  547MOL0     H75434  10.607  11.242   6.158 -1.1772 -1.1909 -1.1350
  547MOL0     H75435  10.884  11.493   6.078 -0.1251 -1.3817 -1.2009
  547MOL0     H75436  11.101  11.481   6.381 -1.1624  2.5649 -0.5375
  547MOL0     H75437  11.044  11.596   6.252  1.3823  0.9844 -3.0943
  547MOL0     H75438  11.259  11.394   6.236 -0.9287 -0.1780  0.7371
  547MOL0     H75439  11.200  11.494   6.101  2.1053  0.8357 -0.6122
  547MOL0     H75440  11.321  11.682   6.191 -0.5212 -1.1285 -1.1641
  547MOL0     H75441  11.258  11.659   6.353 -2.1691  0.7733 -1.6978
  547MOL0     H75442  11.507  11.644   6.357  1.3495  0.4788 -0.1847
  547MOL0     H75443  11.436  11.492   6.401  0.7140 -1.5078 -0.4266
  547MOL0     H75444  11.630  11.404   6.000 -0.3039  0.6691 -1.2108
  547MOL0     H75445  11.890  11.504   5.828  0.6552 -0.5888 -0.5895
  547MOL0     H75446  11.752  11.546   5.706 -1.2793 -1.2407 -0.2732
  547MOL0     H75447  11.739  11.409   5.804 -1.6309  0.9428 -1.6301
  547MOL0     H75448  12.043  11.921   5.760  1.5722  0.6855  0.3858
  547MOL0     H75449  12.173  12.127   5.701  0.7762  0.5705  0.1060
  547MOL0     H75450  11.966  12.529   5.774  1.5088  0.1785 -3.4684
  547MOL0     H75451  12.078  12.473   5.912  3.1608 -1.1404 -0.2373
  547MOL0     H75452  12.180  12.618   5.668 -1.7450  4.4539 -0.3410
  547MOL0     H75453  12.106  12.704   5.787 -1.4820  0.0717 -3.3425
  547MOL0     H75454  12.322  12.493   5.857 -1.2156  0.2607 -0.1779
  547MOL0     H75455  12.264  12.614   5.964 -0.8602 -0.7228  0.0570
  547MOL0     H75456  12.339  12.794   5.803  0.0099 -0.0443 -1.0980
  547MOL0     H75457  12.413  12.665   5.707 -2.1878  1.5499 -0.6101
  547MOL0     H75458  12.603  12.747   5.800 -0.7323 -0.3008 -1.5584
  547MOL0     H75459  12.519  12.785   5.951 -3.0827  1.1982 -1.5734
  547MOL0     H75460  12.612  12.519   5.834 -0.2495 -0.0304 -0.0832
  547MOL0     H75461  12.519  12.523   5.990  2.4841 -0.9117  1.8545
  547MOL0     H75462  12.682  12.663   6.091 -1.1954 -0.2689 -1.3936
  547MOL0     H75463  12.790  12.661   5.952 -1.1094  1.0613  0.8293
  547MOL0     H75464  12.794  12.410   5.980  0.1553  1.0006 -0.5004
  547MOL0     H75465  12.707  12.435   6.136  1.4379 -0.9793 -0.3349
  547MOL0     H75466  11.843  12.373   5.844  0.4489 -0.4823  0.9041
  547MOL0     H75467  11.719  12.177   5.902  0.9344 -0.2920  1.4471
  547MOL0     H75468  11.630  11.886   6.036  2.3173 -0.4751  3.5352
  547MOL0     H75469  11.521  11.770   6.180 -1.1987 -1.3991  0.3898
  547MOL0     H75470   9.791  10.956   6.312 -2.5167 -0.9105  1.4017
  547MOL0     H75471   9.660  10.801   6.441 -0.4986  3.8361 -1.1361
  547MOL0     H75472   9.448  10.427   6.379  0.8814  0.6154  0.6653
  547MOL0     H75473   9.240  10.348   6.441 -0.4547 -0.5244  0.2167
  547MOL0     H75474   9.171  10.236   6.867  1.1449 -0.8336 -0.5677
  547MOL0     H75475   9.072  10.382   6.835  1.3855  1.1494 -2.3298
  547MOL0     H75476   8.892  10.254   6.728 -1.1742 -1.6745  0.6613
  547MOL0     H75477   8.905  10.194   6.893  1.4435  1.4495  0.4544
  547MOL0     H75478   9.054  10.048   6.664  1.2989 -0.7331  1.1964
  547MOL0     H75479   9.030  10.006   6.836  0.0931  0.8796  0.7615
  547MOL0     H75480   8.804  10.037   6.640 -1.3488 -0.7568  1.2799
  547MOL0     H75481   8.787  10.006   6.810 -0.3167  1.3013  0.4374
  547MOL0     H75482   8.875   9.637   6.615  0.8134  0.3976 -2.1053
  547MOL0     H75483   9.304  10.419   6.856 -0.1360 -1.8881 -0.3557
  547MOL0     H75484   9.470  10.560   6.910  1.4675  0.8134  1.7565
  547MOL0     H75485   9.621  10.501   6.825 -1.1966 -0.2305 -2.3266
  547MOL0     H75486   9.551  10.667   6.790 -0.5402  0.0143  0.2266
  548MOL0     O75487   6.489   2.538   4.784 -0.3934 -1.0516  0.5522
  548MOL0     C75488   6.465   2.622   4.702  0.0688 -0.1651  0.6746
  548MOL0     O75489   6.557   2.669   4.604  0.8950 -0.3429 -0.0668
  548MOL0     C75490   6.692   2.666   4.636  0.4243  0.1805  0.5670
  548MOL0     C75491   6.733   2.776   4.707 -0.0097  0.5142 -0.7178
  548MOL0     C75492   6.869   2.785   4.751  0.7497 -0.8309  0.4074
  548MOL0     C75493   6.961   2.677   4.721  0.4049 -0.6831  0.0831
  548MOL0     O75494   7.089   2.683   4.765  0.2557 -0.0640  1.1713
  548MOL0     C75495   7.124   2.780   4.865 -0.2994 -0.0799 -0.6872
  548MOL0     C75496   7.265   2.751   4.919  0.1967  0.6822  0.4819
  548MOL0     C75497   7.251   2.611   4.999 -0.3476  0.1834  0.1912
  548MOL0     C75498   7.379   2.557   5.058  0.2669 -0.4919 -0.9109
  548MOL0     C75499   7.398   2.606   5.203  0.0075  0.2183  0.2303
  548MOL0     C75500   7.521   2.552   5.280 -0.5689 -0.1562  0.1245
  548MOL0     C75501   7.522   2.592   5.431 -0.4660  0.1830 -0.9639
  548MOL0     C75502   7.617   2.714   5.465 -0.1449 -0.3222  0.6596
  548MOL0     N75503   7.754   2.690   5.439 -0.0724  0.1011 -0.4791
  548MOL0     C75504   7.842   2.621   5.523  0.5437  0.2966  0.1099
  548MOL0     C75505   7.960   2.610   5.454 -0.5976  0.2035  0.6207
  548MOL0     C75506   8.088   2.543   5.501  0.4443 -1.3213 -0.3887
  548MOL0     C75507   8.134   2.452   5.391 -0.1912  0.2346 -0.6066
  548MOL0     C75508   8.226   2.335   5.436  0.2492 -0.8281 -0.7399
  548MOL0     C75509   8.362   2.379   5.500  0.4612  0.7608  0.0277
  548MOL0     O75510   8.356   2.471   5.614 -0.5717  0.1715 -0.1031
  548MOL0     C75511   8.466   2.493   5.695  0.3521 -0.4517  0.1792
  548MOL0     C75512   8.444   2.554   5.820 -0.3685  0.2407  0.2822
  548MOL0     C75513   8.551   2.572   5.910 -0.3992 -0.0764  0.2078
  548MOL0     C75514   8.528   2.661   6.027 -0.5502 -0.2655  0.7676
  548MOL0     C75515   8.679   2.524   5.882 -0.1153  0.8442  0.1126
  548MOL0     C75516   8.790   2.528   5.978 -0.3746  0.3871  0.7934
  548MOL0     O75517   8.770   2.503   6.100  0.2242  0.5795  0.0469
  548MOL0     C75518   8.859   2.523   6.200 -0.5969  1.2154 -0.7612
  548MOL0     C75519   9.001   2.525   6.185  0.5860 -0.0544 -0.4694
  548MOL0     C75520   9.077   2.553   6.305  0.8536  0.5009  0.3295
  548MOL0     C75521   9.023   2.576   6.431  0.2367 -0.3612  0.6197
  548MOL0     O75522   9.105   2.601   6.542 -0.5667  0.1716 -0.4523
  548MOL0     C75523   9.052   2.590   6.667 -1.3333  0.8164 -0.2906
  548MOL0     C75524   9.150   2.597   6.780 -0.2023 -1.3325 -0.2103
  548MOL0     C75525   9.215   2.462   6.814 -0.3029  0.3591 -0.3862
  548MOL0     C75526   9.361   2.486   6.847  0.0905  0.1516 -0.3179
  548MOL0     C75527   9.432   2.370   6.915 -0.9742  0.1171  0.8393
  548MOL0     C75528   9.585   2.396   6.921  0.9089 -0.3396  0.1445
  548MOL0     C75529   9.647   2.276   7.011  0.0243  0.0038  0.0613
  548MOL0     C75530   9.785   2.301   7.039 -0.2870 -0.0389 -0.1183
  548MOL0    Cl75531   9.818   2.470   7.086 -0.4013  0.4341 -0.1252
  548MOL0     C75532   8.888   2.573   6.443  0.8141 -0.6467  0.1326
  548MOL0     C75533   8.804   2.544   6.326  0.5357  0.4798  0.0400
  548MOL0     O75534   8.896   2.541   5.917  0.3774  0.0832 -0.3474
  548MOL0     C75535   8.699   2.453   5.764 -0.2914 -0.4947 -0.0544
  548MOL0     C75536   8.593   2.443   5.664 -0.3478  0.3191  0.6376
  548MOL0     N75537   7.936   2.657   5.323  0.6520  1.1339  0.3880
  548MOL0     N75538   7.821   2.720   5.323 -0.2368 -0.1183  0.2329
  548MOL0     C75539   6.905   2.570   4.653  0.4644 -0.1441 -0.2627
  548MOL0     C75540   6.776   2.562   4.603  0.2984 -0.6384  0.0046
  548MOL0     C75541   6.327   2.693   4.710 -1.2422  0.4650  0.4361
  548MOL0     C75542   6.319   2.804   4.629  0.0480 -0.5587  0.1413
  548MOL0     C75543   6.209   2.884   4.628  0.3523 -0.7451 -0.0493
  548MOL0     C75544   6.093   2.838   4.689  0.8879  0.5289  0.5678
  548MOL0     O75545   5.969   2.905   4.679  0.5721 -0.7335  0.1192
  548MOL0     C75546   5.933   2.992   4.573  0.5716 -0.4320  1.1753
  548MOL0     C75547   5.930   2.925   4.434 -0.8845  0.8669 -0.2568
  548MOL0     C75548   5.808   2.963   4.363 -0.2644  0.2336  0.1379
  548MOL0     C75549   5.807   3.081   4.283  0.2692  0.2929 -0.4548
  548MOL0     C75550   5.876   3.198   4.335  0.2536  0.3376 -0.3608
  548MOL0     C75551   5.946   3.286   4.384  0.5300 -0.3941 -0.2012
  548MOL0     C75552   6.098   2.720   4.765  0.2883  0.1835 -0.2869
  548MOL0     C75553   6.221   2.653   4.786 -0.4944  0.3381 -0.2148
  548MOL0     C75554   6.215   2.530   4.876  0.6312 -0.0137  0.3146
  548MOL0     H75555   6.662   2.851   4.743  0.6691  0.5462  0.6270
  548MOL0     H75556   6.890   2.873   4.811 -0.2900  0.4112 -0.9839
  548MOL0     H75557   7.057   2.771   4.951  0.8755  0.6343  0.3573
  548MOL0     H75558   7.137   2.880   4.821  4.9459 -0.0233  0.2546
  548MOL0     H75559   7.350   2.739   4.850  1.0961  1.0901  1.4973
  548MOL0     H75560   7.287   2.826   4.995  2.3456 -0.3084  0.9302
  548MOL0     H75561   7.165   2.603   5.067 -3.1864  0.0019 -3.1239
  548MOL0     H75562   7.239   2.536   4.919  2.4645 -0.6366  0.4253
  548MOL0     H75563   7.374   2.448   5.063 -0.6986 -0.5151 -1.9088
  548MOL0     H75564   7.460   2.590   4.992 -0.9311  1.0294 -1.6898
  548MOL0     H75565   7.319   2.569   5.269  1.2003 -0.4219  1.3512
  548MOL0     H75566   7.395   2.716   5.206  0.8098  0.3597 -2.0440
  548MOL0     H75567   7.502   2.444   5.273 -0.3961 -0.5140  3.5770
  548MOL0     H75568   7.609   2.593   5.229 -1.6845  1.7520 -0.3539
  548MOL0     H75569   7.551   2.508   5.494 -0.0410  1.4500  0.5997
  548MOL0     H75570   7.428   2.622   5.478  0.6480  0.2439  1.3563
  548MOL0     H75571   7.578   2.798   5.406 -3.0310 -1.0809  1.3522
  548MOL0     H75572   7.602   2.742   5.570  5.0568  0.1809  1.5308
  548MOL0     H75573   7.833   2.573   5.620  0.8249  2.8991  1.5203
  548MOL0     H75574   8.072   2.498   5.599  0.0445 -1.6756 -0.6143
  548MOL0     H75575   8.169   2.617   5.512  0.4039 -1.4829  1.1502
  548MOL0     H75576   8.044   2.407   5.349  0.4090 -0.6060 -1.0359
  548MOL0     H75577   8.171   2.513   5.308  1.9725  0.0559  0.1444
  548MOL0     H75578   8.172   2.268   5.504 -0.5035 -0.9569 -1.4462
  548MOL0     H75579   8.240   2.271   5.349  3.6703 -0.8510 -0.3048
  548MOL0     H75580   8.428   2.295   5.518  0.7362  1.2278  1.2729
  548MOL0     H75581   8.410   2.427   5.414  0.7821  0.5590  0.0932
  548MOL0     H75582   8.349   2.599   5.846 -0.0477  0.1967  1.6209
  548MOL0     H75583   8.463   2.736   5.981  0.8139 -0.2562 -1.3126
  548MOL0     H75584   8.615   2.723   6.047 -1.8124  1.5994  0.6918
  548MOL0     H75585   8.484   2.610   6.113  0.5933  1.3591  2.3712
  548MOL0     H75586   9.060   2.511   6.095 -0.8373 -0.3280 -1.3965
  548MOL0     H75587   9.185   2.551   6.306  0.8970 -0.3604  3.3645
  548MOL0     H75588   8.970   2.662   6.682 -1.3058  0.6488  0.7811
  548MOL0     H75589   9.008   2.491   6.684  2.4159 -1.2738 -1.6085
  548MOL0     H75590   9.220   2.676   6.751 -0.4753 -1.6939 -1.9851
  548MOL0     H75591   9.098   2.622   6.873 -0.9973  3.3700 -1.6404
  548MOL0     H75592   9.197   2.388   6.736 -1.5005  0.2127 -0.0001
  548MOL0     H75593   9.158   2.418   6.897  1.0710 -1.3843 -0.3236
  548MOL0     H75594   9.373   2.575   6.909  3.1833  1.5797 -2.7051
  548MOL0     H75595   9.404   2.523   6.753 -2.0070  2.0764 -0.6064
  548MOL0     H75596   9.386   2.378   7.014 -1.6333  2.4681  0.4144
  548MOL0     H75597   9.408   2.276   6.865  1.0050  0.8348 -1.6953
  548MOL0     H75598   9.590   2.487   6.982  1.7678  0.8329 -1.5921
  548MOL0     H75599   9.624   2.410   6.820 -1.3441 -1.1461 -0.9027
  548MOL0     H75600   9.638   2.179   6.963  2.0791 -0.2135  0.0015
  548MOL0     H75601   9.591   2.280   7.105  1.4106  0.3416  0.9218
  548MOL0     H75602   9.842   2.264   6.954  1.0949  2.4976 -0.4173
  548MOL0     H75603   9.816   2.234   7.120 -0.9068 -0.3057 -0.0990
  548MOL0     H75604   8.839   2.582   6.539  2.8461 -4.0978  1.6853
  548MOL0     H75605   8.696   2.540   6.328  0.5660 -2.4421  1.2465
  548MOL0     H75606   8.791   2.401   5.740 -0.5500 -1.1966  0.4432
  548MOL0     H75607   8.598   2.383   5.573  2.0477 -1.4392  1.8146
  548MOL0     H75608   6.968   2.484   4.634 -0.0540 -0.8987  1.3077
  548MOL0     H75609   6.733   2.487   4.537  0.4298 -2.0769  1.4956
  548MOL0     H75610   6.404   2.849   4.577  0.7838 -0.4550  1.3854
  548MOL0     H75611   6.202   2.976   4.570 -0.7326 -0.5817  0.3140
  548MOL0     H75612   5.833   3.035   4.584  0.0385 -0.1009 -3.2233
  548MOL0     H75613   5.997   3.080   4.561 -0.0718 -0.2229 -1.1726
  548MOL0     H75614   5.927   2.816   4.445  1.5244  0.9583  2.8644
  548MOL0     H75615   6.020   2.948   4.375 -0.2524 -0.0647  0.3194
  548MOL0     H75616   5.793   2.890   4.283  0.9034  0.0890  0.0381
  548MOL0     H75617   5.716   2.969   4.423 -1.1496 -0.6532 -1.0742
  548MOL0     H75618   5.703   3.114   4.278 -0.6631 -1.9194  2.0360
  548MOL0     H75619   5.841   3.058   4.181  2.7675 -2.4310  0.8495
  548MOL0     H75620   6.033   3.335   4.425  1.8983 -1.3200 -1.8505
  548MOL0     H75621   6.008   2.691   4.818 -3.0182  0.2257 -5.1924
  548MOL0     H75622   6.131   2.533   4.946  2.4973 -1.6794  2.8092
  548MOL0     H75623   6.213   2.432   4.827 -2.0079 -1.3821  2.8853
  548MOL0     H75624   6.298   2.542   4.946 -0.0052  3.7486  0.6395
  549MOL0     O75625  10.664  10.965   2.901  0.0762 -0.1274 -0.1150
  549MOL0     C75626  10.622  11.076   2.888 -0.2783 -0.7055 -0.9117
  549MOL0     O75627  10.701  11.188   2.877  0.4319  0.0568  0.3407
  549MOL0     C75628  10.836  11.167   2.885 -1.0451 -0.2915 -0.1031
  549MOL0     C75629  10.912  11.077   2.797 -0.0712 -0.0789 -0.1038
  549MOL0     C75630  11.057  11.068   2.814 -0.4423 -0.1637 -0.4809
  549MOL0     C75631  11.136  11.149   2.906  1.3596  1.0458  0.4272
  549MOL0     O75632  11.270  11.143   2.913  0.4359 -0.6225  0.0908
  549MOL0     C75633  11.340  11.246   2.988 -0.6843 -0.4158 -0.1678
  549MOL0     C75634  11.489  11.231   2.962  0.5369 -0.9068 -0.3554
  549MOL0     C75635  11.572  11.329   3.041  0.3833  0.4515  1.2598
  549MOL0     C75636  11.714  11.285   3.044 -0.4636  0.6063 -0.6532
  549MOL0     C75637  11.800  11.372   3.141  0.9579 -0.4719 -0.2611
  549MOL0     C75638  11.836  11.290   3.262 -0.0837  0.1809 -0.2685
  549MOL0     C75639  11.869  11.387   3.370  0.5956 -0.1753 -0.7774
  549MOL0     C75640  11.912  11.314   3.498 -0.2824 -0.4528 -0.2933
  549MOL0     N75641  11.982  11.400   3.594 -0.2312 -0.1807 -0.3228
  549MOL0     C75642  11.938  11.499   3.681  0.0201 -0.1985  1.4758
  549MOL0     C75643  12.049  11.521   3.759  0.2491  0.3465 -0.3630
  549MOL0     C75644  12.074  11.607   3.886 -0.4119 -0.4546  0.7701
  549MOL0     C75645  12.055  11.527   4.016 -0.7116  0.3071  0.3966
  549MOL0     C75646  12.061  11.635   4.128 -0.1518  0.3506  0.1515
  549MOL0     C75647  12.078  11.564   4.268  0.1298  1.2899 -0.0497
  549MOL0     O75648  11.988  11.460   4.283 -0.0601 -0.3605 -0.5187
  549MOL0     C75649  11.846  11.473   4.284 -0.7986  0.3514  0.2156
  549MOL0     C75650  11.776  11.591   4.290  0.1729 -0.9274  0.5080
  549MOL0     C75651  11.636  11.596   4.298  0.5655 -0.0178  0.6496
  549MOL0     C75652  11.578  11.738   4.293 -0.4051  0.7026 -0.4093
  549MOL0     C75653  11.563  11.480   4.269 -0.1943  0.2762 -0.2682
  549MOL0     C75654  11.416  11.470   4.255  0.6135  0.2421  0.1957
  549MOL0     O75655  11.362  11.370   4.176  0.1224 -0.2497  0.4787
  549MOL0     C75656  11.228  11.350   4.163 -0.6433 -0.1388  0.0879
  549MOL0     C75657  11.162  11.344   4.036 -0.4577 -0.2081  0.4492
  549MOL0     C75658  11.032  11.298   4.017 -0.8499  0.0679  0.2332
  549MOL0     C75659  10.960  11.255   4.132 -0.2013  0.2009  0.0524
  549MOL0     O75660  10.841  11.199   4.115  0.5813 -0.7800  0.3661
  549MOL0     C75661  10.730  11.255   4.188  0.5213  0.3140  0.3470
  549MOL0     C75662  10.620  11.246   4.091  0.9344 -0.8776 -0.1118
  549MOL0     C75663  10.481  11.262   4.161 -1.1965 -0.4922 -0.5875
  549MOL0     C75664  10.369  11.313   4.064  0.1523  0.5746  0.6641
  549MOL0     C75665  10.237  11.322   4.134  0.4965 -0.1469 -0.0567
  549MOL0     C75666  10.117  11.373   4.051 -0.3850  0.5906  0.3684
  549MOL0     C75667  10.142  11.529   4.005 -0.2427  0.7548 -0.6872
  549MOL0     C75668   9.997  11.570   3.964 -0.2202  0.3565  0.7578
  549MOL0    Cl75669   9.953  11.479   3.795 -0.0349  0.7612  0.0955
  549MOL0     C75670  11.030  11.255   4.254  0.6663  0.3802 -0.3069
  549MOL0     C75671  11.158  11.302   4.274 -0.0027 -0.2976 -0.3497
  549MOL0     O75672  11.345  11.543   4.328 -0.5638  0.1085 -0.4090
  549MOL0     C75673  11.635  11.359   4.252 -0.1401 -0.1104 -0.6203
  549MOL0     C75674  11.772  11.350   4.265 -0.3039  0.3016 -0.5876
  549MOL0     N75675  12.157  11.449   3.706 -0.7113  0.2062 -0.0875
  549MOL0     N75676  12.115  11.374   3.607 -0.2110 -1.0169 -0.4583
  549MOL0     C75677  11.055  11.239   2.978 -0.5582 -0.4529 -0.6724
  549MOL0     C75678  10.916  11.249   2.965  0.0832 -0.0219  0.7247
  549MOL0     C75679  10.480  11.112   2.896  0.6256  0.2729 -0.2948
  549MOL0     C75680  10.436  11.241   2.926 -0.2544 -0.2218  0.3307
  549MOL0     C75681  10.308  11.290   2.911  0.1450  0.4800 -0.3902
  549MOL0     C75682  10.206  11.197   2.866  0.0239  0.0519 -0.3249
  549MOL0     O75683  10.076  11.232   2.846 -1.0327  0.2465  0.6656
  549MOL0     C75684   9.978  11.186   2.944 -0.1989 -0.1197 -0.2998
  549MOL0     C75685   9.985  11.272   3.073 -0.9463 -0.1444  0.4512
  549MOL0     C75686   9.981  11.432   3.053 -1.0394  0.4506 -0.2275
  549MOL0     C75687   9.934  11.511   3.176  0.4859 -0.1752 -0.4177
  549MOL0     C75688   9.787  11.523   3.178  0.0160 -0.1718 -0.4276
  549MOL0     C75689   9.666  11.532   3.177  0.4475  0.3058 -0.3282
  549MOL0     C75690  10.240  11.066   2.856  0.0914 -0.5841  0.8511
  549MOL0     C75691  10.373  11.019   2.871 -0.3823 -0.8131  0.4511
  549MOL0     C75692  10.381  10.871   2.854 -0.3136  0.4128  0.5373
  549MOL0     H75693  10.860  11.022   2.720  2.3394  0.5122 -2.3007
  549MOL0     H75694  11.112  11.004   2.745  1.1017 -1.0646  1.4990
  549MOL0     H75695  11.325  11.224   3.094 -2.7479  0.6478 -0.1990
  549MOL0     H75696  11.302  11.344   2.959 -2.1817 -1.3194 -1.4185
  549MOL0     H75697  11.502  11.127   2.992 -2.6236 -1.1429  0.5785
  549MOL0     H75698  11.496  11.250   2.855  2.1144  2.4787  0.2348
  549MOL0     H75699  11.576  11.419   2.980 -0.4266  0.4919  1.2570
  549MOL0     H75700  11.529  11.350   3.139 -1.8371  3.1185 -0.1556
  549MOL0     H75701  11.720  11.181   3.076  1.8713  1.2011  1.1728
  549MOL0     H75702  11.766  11.288   2.948  1.9455  0.3425  0.5747
  549MOL0     H75703  11.736  11.457   3.166 -4.0076 -2.8582 -3.2034
  549MOL0     H75704  11.894  11.401   3.094  2.7197 -4.9647 -0.0131
  549MOL0     H75705  11.745  11.238   3.294 -1.3972  3.3056  1.5647
  549MOL0     H75706  11.915  11.221   3.233 -0.5135  0.5601 -2.5386
  549MOL0     H75707  11.784  11.454   3.386  1.1925  0.3166  0.5161
  549MOL0     H75708  11.943  11.457   3.330  0.5356  1.2007  1.3734
  549MOL0     H75709  11.824  11.272   3.549 -1.1573  0.8719 -0.6624
  549MOL0     H75710  11.974  11.227   3.475  0.8150  0.4493 -0.8427
  549MOL0     H75711  11.845  11.552   3.697  0.7857  1.1094  1.7210
  549MOL0     H75712  12.016  11.700   3.886  0.6921  0.2815 -0.4682
  549MOL0     H75713  12.178  11.635   3.869 -1.0418  1.2905 -0.5116
  549MOL0     H75714  11.957  11.479   4.023 -0.9570  0.7703  0.2075
  549MOL0     H75715  12.138  11.456   4.021 -0.0259  1.1530  1.6223
  549MOL0     H75716  12.144  11.703   4.105 -1.2426  0.8003 -2.9535
  549MOL0     H75717  11.969  11.692   4.130 -0.2631  0.1595  0.6554
  549MOL0     H75718  12.171  11.508   4.272  0.1659  1.0839 -2.2760
  549MOL0     H75719  12.075  11.640   4.346  3.5244  1.4215  0.0878
  549MOL0     H75720  11.829  11.686   4.292 -1.3915 -0.0119  0.3257
  549MOL0     H75721  11.586  11.774   4.190  1.5617 -0.6941 -0.8057
  549MOL0     H75722  11.641  11.801   4.355 -1.1836  1.0975 -0.0174
  549MOL0     H75723  11.472  11.738   4.323 -0.2027  0.7409  0.3243
  549MOL0     H75724  11.225  11.364   3.951 -0.8689 -0.9996 -0.0572
  549MOL0     H75725  10.986  11.289   3.920 -2.7778  0.3650  1.0692
  549MOL0     H75726  10.694  11.186   4.265 -0.3630 -0.1157 -0.4295
  549MOL0     H75727  10.734  11.356   4.230  0.9678  0.0238  1.0136
  549MOL0     H75728  10.633  11.314   4.006 -0.8504  1.3704  1.2871
  549MOL0     H75729  10.612  11.147   4.045  1.6564 -0.8455 -0.3254
  549MOL0     H75730  10.478  11.346   4.232 -1.8481  0.2258 -1.4532
  549MOL0     H75731  10.464  11.166   4.211 -1.1066  0.4375  1.3271
  549MOL0     H75732  10.377  11.248   3.977  2.9629 -0.2373  1.4179
  549MOL0     H75733  10.394  11.414   4.029  1.1483  1.1441  2.8208
  549MOL0     H75734  10.202  11.224   4.168  1.3167 -0.6223 -0.5223
  549MOL0     H75735  10.230  11.382   4.224  0.8063  0.8764 -0.6954
  549MOL0     H75736  10.025  11.367   4.109 -1.1605 -1.0560 -0.9424
  549MOL0     H75737  10.114  11.311   3.961 -0.7774  0.1063  0.7159
  549MOL0     H75738  10.211  11.541   3.921  0.3215  0.8794 -0.2121
  549MOL0     H75739  10.165  11.593   4.091 -2.2913 -0.4886  0.9019
  549MOL0     H75740  10.005  11.677   3.943  2.9543 -0.3854 -3.0802
  549MOL0     H75741   9.924  11.542   4.040 -1.5621 -0.8535 -0.8957
  549MOL0     H75742  10.975  11.205   4.333 -0.7295 -0.7021 -1.8921
  549MOL0     H75743  11.205  11.285   4.371  0.4115  0.8845 -0.3245
  549MOL0     H75744  11.587  11.267   4.221 -2.2619  1.4377 -2.1798
  549MOL0     H75745  11.810  11.249   4.259 -3.6603 -1.1890  0.9411
  549MOL0     H75746  11.094  11.299   3.060 -1.0342 -1.9960  0.7310
  549MOL0     H75747  10.863  11.318   3.031 -0.4304 -0.3024  0.6121
  549MOL0     H75748  10.515  11.310   2.953  0.3980 -2.0737  3.6745
  549MOL0     H75749  10.291  11.394   2.940  0.2799  0.2448  0.5419
  549MOL0     H75750   9.883  11.191   2.889  0.2663 -1.5358 -1.2895
  549MOL0     H75751   9.987  11.083   2.981  0.3685  0.5005  1.3992
  549MOL0     H75752  10.074  11.245   3.130  1.3328  0.0422 -2.7304
  549MOL0     H75753   9.898  11.243   3.132  0.0823 -3.0100  0.6839
  549MOL0     H75754  10.079  11.476   3.036 -0.3917  0.2667  2.6671
  549MOL0     H75755   9.932  11.442   2.955  3.9261 -1.2062 -3.2432
  549MOL0     H75756   9.966  11.616   3.179 -2.3046  0.7641 -0.3793
  549MOL0     H75757   9.979  11.465   3.264  0.6023 -1.7014 -1.2492
  549MOL0     H75758   9.560  11.544   3.174 -0.0549 -3.0321  0.0722
  549MOL0     H75759  10.157  10.999   2.836 -0.5064  0.2473  0.4882
  549MOL0     H75760  10.286  10.818   2.850  1.5989 -3.4009 -0.0866
  549MOL0     H75761  10.417  10.857   2.751 -1.1399  3.5878 -0.2884
  549MOL0     H75762  10.442  10.828   2.935 -1.0325 -0.3324  0.6936
  550MOL0     O75763   1.358   8.666   5.562  0.4083  0.1266  0.2162
  550MOL0     C75764   1.305   8.754   5.626  0.2305 -0.2848 -0.0489
  550MOL0     O75765   1.365   8.877   5.669  0.3452 -0.7368  0.5074
  550MOL0     C75766   1.482   8.907   5.612 -0.9893 -0.1879  0.0068
  550MOL0     C75767   1.602   8.830   5.632  0.6409 -0.3182  0.2885
  550MOL0     C75768   1.724   8.865   5.575 -0.1892  0.1640 -0.3656
  550MOL0     C75769   1.739   8.980   5.504 -0.0744 -0.7320  0.0720
  550MOL0     O75770   1.865   9.013   5.459  0.1375  0.3960  0.9859
  550MOL0     C75771   1.904   9.151   5.437  0.1021  0.3630  0.0810
  550MOL0     C75772   2.054   9.137   5.407 -0.1652  0.2994 -0.6317
  550MOL0     C75773   2.129   9.053   5.509  0.7510 -0.3937 -0.4539
  550MOL0     C75774   2.284   9.063   5.491 -0.4994  0.1386  0.3014
  550MOL0     C75775   2.350   8.992   5.605  0.0965  0.3402  0.0777
  550MOL0     C75776   2.460   9.078   5.667 -0.3364  0.3182 -0.2829
  550MOL0     C75777   2.406   9.196   5.754 -0.3990  0.6801  0.2363
  550MOL0     C75778   2.516   9.303   5.772 -0.0896 -0.1082 -0.4220
  550MOL0     N75779   2.557   9.347   5.642  1.0141 -0.6008  0.5255
  550MOL0     C75780   2.671   9.312   5.577  0.5489 -0.2918  0.6984
  550MOL0     C75781   2.662   9.392   5.464 -0.5250 -0.6369 -0.3064
  550MOL0     C75782   2.771   9.392   5.360 -0.3618 -0.8522 -0.1516
  550MOL0     C75783   2.747   9.287   5.247 -1.1827 -0.8929  0.3015
  550MOL0     C75784   2.796   9.146   5.259  0.6793  0.6032 -0.0354
  550MOL0     C75785   2.943   9.129   5.298 -0.9704  0.4605 -0.4574
  550MOL0     O75786   2.998   8.992   5.281  0.1665  0.0579  0.4316
  550MOL0     C75787   3.134   8.977   5.292 -0.3190  0.3307 -0.4289
  550MOL0     C75788   3.221   9.066   5.364  0.5507  0.9904 -0.8059
  550MOL0     C75789   3.354   9.041   5.383  0.1393  0.6823  0.3804
  550MOL0     C75790   3.426   9.127   5.490 -0.3417 -0.0092  0.0456
  550MOL0     C75791   3.409   8.933   5.311  0.4840 -0.3005  0.2257
  550MOL0     C75792   3.559   8.915   5.309 -0.7075 -0.1084  0.0056
  550MOL0     O75793   3.614   8.807   5.366  0.5654 -0.4311 -0.2932
  550MOL0     C75794   3.752   8.802   5.350 -0.5865  0.2646  1.0382
  550MOL0     C75795   3.803   8.767   5.221  0.8764 -0.2922  0.5131
  550MOL0     C75796   3.941   8.767   5.207  0.8634 -0.8095  0.4907
  550MOL0     C75797   4.026   8.796   5.310 -0.3500 -0.2672  0.2119
  550MOL0     O75798   4.166   8.803   5.308  0.9505  0.1996 -0.2055
  550MOL0     C75799   4.234   8.725   5.222  0.0220  0.1319 -0.5963
  550MOL0     C75800   4.379   8.758   5.227  0.1592 -0.1787 -0.1015
  550MOL0     C75801   4.448   8.727   5.367 -0.3307 -0.0043  0.1282
  550MOL0     C75802   4.601   8.739   5.332  0.0503  0.2089 -1.0012
  550MOL0     C75803   4.688   8.768   5.455 -1.4620  0.6690  0.8344
  550MOL0     C75804   4.676   8.669   5.574 -0.0688  0.5232 -0.5646
  550MOL0     C75805   4.795   8.691   5.671  0.1603 -0.1215  0.1975
  550MOL0     C75806   4.797   8.579   5.773 -1.3052  0.5794 -0.1837
  550MOL0    Cl75807   4.950   8.577   5.861 -0.3277 -0.2373  0.3131
  550MOL0     C75808   3.977   8.820   5.439  0.2262  0.1060 -0.3424
  550MOL0     C75809   3.840   8.819   5.460 -0.0620 -0.1059  0.6661
  550MOL0     O75810   3.618   9.016   5.269  0.0136 -0.4659 -0.3312
  550MOL0     C75811   3.331   8.849   5.233  0.0028 -0.5178 -0.3883
  550MOL0     C75812   3.192   8.865   5.238  0.1110  0.6568 -0.1356
  550MOL0     N75813   2.549   9.477   5.465 -0.0866 -0.0316  0.4112
  550MOL0     N75814   2.484   9.441   5.572 -0.2908  0.2217 -0.2543
  550MOL0     C75815   1.628   9.057   5.481 -0.2908  0.2806  0.4656
  550MOL0     C75816   1.502   9.017   5.528  0.4327 -1.1153 -0.5389
  550MOL0     C75817   1.171   8.735   5.680  0.1305  0.1168 -0.7759
  550MOL0     C75818   1.137   8.790   5.806 -0.5626 -0.1729  0.0578
  550MOL0     C75819   1.007   8.779   5.853  0.6576  0.8362  0.1739
  550MOL0     C75820   0.907   8.693   5.795  0.3275 -0.1189  0.1235
  550MOL0     O75821   0.787   8.680   5.867  0.0470  0.0911  0.4576
  550MOL0     C75822   0.697   8.572   5.855 -0.0204 -0.0213  0.1428
  550MOL0     C75823   0.570   8.611   5.778  0.7655 -0.3593  0.9897
  550MOL0     C75824   0.466   8.492   5.743  0.6893 -0.2298 -0.7116
  550MOL0     C75825   0.538   8.355   5.725  0.9572  0.1920  0.1068
  550MOL0     C75826   0.617   8.365   5.600 -0.1792 -0.2131 -0.5573
  550MOL0     C75827   0.708   8.379   5.517  0.5541  0.3406 -0.6064
  550MOL0     C75828   0.946   8.625   5.682 -0.0935  0.2310  0.1135
  550MOL0     C75829   1.067   8.650   5.622 -0.3396  0.5402  0.7556
  550MOL0     C75830   1.094   8.568   5.489  0.1913 -0.2442 -0.9159
  550MOL0     H75831   1.577   8.745   5.695 -0.0907  0.3408  0.9055
  550MOL0     H75832   1.807   8.795   5.587  1.9326  2.4868 -0.7302
  550MOL0     H75833   1.892   9.214   5.526 -0.6583  0.1234  0.1543
  550MOL0     H75834   1.862   9.198   5.348  1.0192 -0.7135 -0.9486
  550MOL0     H75835   2.067   9.082   5.314 -2.3870  0.4827 -1.1212
  550MOL0     H75836   2.095   9.237   5.395 -1.8460  1.0739 -0.2996
  550MOL0     H75837   2.105   9.096   5.607 -2.8377  0.4583 -1.5475
  550MOL0     H75838   2.103   8.947   5.500  1.7014 -0.7117  0.3293
  550MOL0     H75839   2.309   9.037   5.388 -1.5114 -1.5619  0.4525
  550MOL0     H75840   2.318   9.167   5.499  1.8340 -0.5393 -0.2525
  550MOL0     H75841   2.392   8.896   5.573 -2.0609 -0.8647  0.6201
  550MOL0     H75842   2.276   8.964   5.681 -0.5452  1.2816 -0.1922
  550MOL0     H75843   2.511   9.010   5.737 -0.6666  1.0522  0.6926
  550MOL0     H75844   2.530   9.106   5.588  2.4905 -0.8045  1.6702
  550MOL0     H75845   2.369   9.147   5.845 -0.2404  1.6325  0.8320
  550MOL0     H75846   2.330   9.252   5.699 -0.8548 -1.5173 -1.4819
  550MOL0     H75847   2.481   9.390   5.829  0.7950  0.2438 -0.4025
  550MOL0     H75848   2.595   9.250   5.826 -1.2702 -1.6569 -0.1168
  550MOL0     H75849   2.747   9.241   5.606  0.0777 -0.8604  0.5734
  550MOL0     H75850   2.863   9.372   5.416  0.0081 -0.6404 -0.6824
  550MOL0     H75851   2.777   9.492   5.316 -1.5239 -0.3707  0.7309
  550MOL0     H75852   2.639   9.285   5.227 -0.6314 -0.1819 -3.4020
  550MOL0     H75853   2.785   9.334   5.156 -0.9601 -0.4836  0.5992
  550MOL0     H75854   2.732   9.087   5.325  3.5833 -2.5759  0.2551
  550MOL0     H75855   2.791   9.104   5.158  3.3892  2.1950 -0.9443
  550MOL0     H75856   3.008   9.196   5.240 -2.4712  1.2777 -1.2503
  550MOL0     H75857   2.954   9.151   5.405  2.2330 -3.3456  0.2362
  550MOL0     H75858   3.182   9.151   5.419  0.0479  0.5421 -0.4619
  550MOL0     H75859   3.408   9.072   5.583 -1.2207 -1.9015 -1.1915
  550MOL0     H75860   3.390   9.230   5.494  1.7618  0.8311 -1.2306
  550MOL0     H75861   3.533   9.135   5.471 -0.1619 -0.8115  0.6789
  550MOL0     H75862   3.731   8.737   5.145  0.9934  2.4289 -0.8092
  550MOL0     H75863   3.975   8.735   5.109 -3.6625  0.8636 -1.9442
  550MOL0     H75864   4.210   8.621   5.246  1.9726 -0.4656 -1.1234
  550MOL0     H75865   4.203   8.744   5.118  0.4213  0.5504 -0.6417
  550MOL0     H75866   4.420   8.678   5.164 -0.3607 -1.3846  1.0417
  550MOL0     H75867   4.394   8.861   5.194 -0.1563 -0.4693 -1.1965
  550MOL0     H75868   4.419   8.628   5.404 -1.1304 -0.2616 -1.1488
  550MOL0     H75869   4.425   8.795   5.449  2.3843 -1.4632  2.2908
  550MOL0     H75870   4.621   8.812   5.253  0.5779  0.7926 -0.3399
  550MOL0     H75871   4.637   8.645   5.292  2.3926  0.1533  1.0046
  550MOL0     H75872   4.792   8.764   5.422 -0.8365  0.8644  2.6420
  550MOL0     H75873   4.678   8.874   5.482  0.7609  0.7012  1.7666
  550MOL0     H75874   4.674   8.568   5.533  0.5841  1.0674 -2.0060
  550MOL0     H75875   4.586   8.680   5.635 -0.1362 -0.5467 -0.4610
  550MOL0     H75876   4.781   8.792   5.710 -0.4903  0.5913 -1.7487
  550MOL0     H75877   4.887   8.684   5.612 -0.7106  1.2475 -1.4274
  550MOL0     H75878   4.793   8.482   5.722  1.9383  1.5385 -2.6166
  550MOL0     H75879   4.710   8.593   5.838 -0.9278  2.6430 -0.0737
  550MOL0     H75880   4.043   8.851   5.519  1.5896  0.9063 -1.7216
  550MOL0     H75881   3.802   8.849   5.557 -0.4618  1.6945 -0.0064
  550MOL0     H75882   3.380   8.766   5.184  0.4567 -0.8333  0.5596
  550MOL0     H75883   3.129   8.790   5.192 -0.4907  0.2017  1.3678
  550MOL0     H75884   1.636   9.141   5.412 -2.1788  0.5783  0.5560
  550MOL0     H75885   1.410   9.067   5.499  0.3801 -1.2734 -0.6416
  550MOL0     H75886   1.206   8.864   5.847 -1.0115  0.5343 -0.4310
  550MOL0     H75887   0.983   8.822   5.949  1.7795  0.5147  0.6133
  550MOL0     H75888   0.746   8.482   5.817 -2.4495 -1.6668  0.6623
  550MOL0     H75889   0.665   8.541   5.954  0.7266  0.0804  0.4229
  550MOL0     H75890   0.598   8.654   5.682 -1.2276 -1.8505 -0.3293
  550MOL0     H75891   0.516   8.686   5.837 -2.9636 -2.9060  1.1128
  550MOL0     H75892   0.401   8.481   5.830  1.4859 -1.5414 -0.2374
  550MOL0     H75893   0.399   8.521   5.662 -0.9224 -1.8394 -0.0329
  550MOL0     H75894   0.471   8.268   5.720 -1.7664  2.1441  0.5122
  550MOL0     H75895   0.599   8.330   5.812  0.5442 -2.8124 -0.3556
  550MOL0     H75896   0.787   8.391   5.446  0.3316  1.2519 -0.7143
  550MOL0     H75897   0.866   8.569   5.634 -0.3687 -0.4366  1.3234
  550MOL0     H75898   1.116   8.640   5.410  1.4874 -1.2760 -1.5150
  550MOL0     H75899   1.179   8.501   5.507  2.7073  3.3780  2.6305
  550MOL0     H75900   1.007   8.508   5.462 -0.4283 -1.6017  3.3329
  551MOL0     O75901   0.322   5.690   5.920  0.2150 -0.0868 -0.1835
  551MOL0     C75902   0.280   5.597   5.852  0.1522 -0.1657 -0.4386
  551MOL0     O75903   0.357   5.511   5.775 -0.0009 -0.1701 -0.1635
  551MOL0     C75904   0.489   5.527   5.750  0.0193  0.0451 -0.1310
  551MOL0     C75905   0.569   5.642   5.783  0.0511 -1.4288 -0.3890
  551MOL0     C75906   0.707   5.642   5.750 -0.6900  0.0062  0.1436
  551MOL0     C75907   0.763   5.542   5.668  0.8687 -0.4983 -0.3691
  551MOL0     O75908   0.892   5.559   5.637  0.2683 -0.3179  0.9507
  551MOL0     C75909   0.955   5.471   5.548  0.0322  1.0208 -0.0961
  551MOL0     C75910   1.087   5.518   5.486  0.3582  0.0774  0.3926
  551MOL0     C75911   1.202   5.521   5.592 -0.0027  0.0764  0.2851
  551MOL0     C75912   1.327   5.586   5.524 -0.7752  0.4407 -0.1746
  551MOL0     C75913   1.457   5.530   5.581  1.1833  0.6956  0.0606
  551MOL0     C75914   1.580   5.558   5.487 -1.0417 -0.2844 -0.2946
  551MOL0     C75915   1.576   5.453   5.369  0.8602 -0.5240  0.7866
  551MOL0     C75916   1.671   5.495   5.252  0.0804  0.1357  0.1217
  551MOL0     N75917   1.808   5.494   5.302  0.8491  0.6774  0.4559
  551MOL0     C75918   1.909   5.566   5.240  1.1151  0.4594 -0.4799
  551MOL0     C75919   2.023   5.529   5.307 -0.2840 -0.1946  0.0641
  551MOL0     C75920   2.157   5.576   5.267  0.2379  0.0979 -0.2740
  551MOL0     C75921   2.207   5.687   5.371 -0.3142  0.6024 -0.1441
  551MOL0     C75922   2.327   5.745   5.305  0.7209 -0.4813  0.0883
  551MOL0     C75923   2.386   5.874   5.370  0.5633 -0.7008  0.3270
  551MOL0     O75924   2.489   5.905   5.282  0.1212  0.5979  0.2066
  551MOL0     C75925   2.587   5.980   5.331  0.3122 -0.2350 -0.4494
  551MOL0     C75926   2.573   6.117   5.326  0.6659 -1.2704  0.3459
  551MOL0     C75927   2.663   6.210   5.382  0.0028  0.5721 -0.9222
  551MOL0     C75928   2.647   6.360   5.349 -0.0219  0.6855 -1.0756
  551MOL0     C75929   2.768   6.152   5.454 -1.1684 -0.1534  0.2876
  551MOL0     C75930   2.869   6.235   5.518  0.1999 -0.6612  0.2773
  551MOL0     O75931   2.868   6.371   5.513  0.1359 -1.0015 -0.2072
  551MOL0     C75932   2.952   6.441   5.599  0.2664 -0.2081 -0.2393
  551MOL0     C75933   2.897   6.509   5.704 -0.1907 -0.2887 -0.3628
  551MOL0     C75934   2.974   6.588   5.788  0.3501  0.1499 -0.3761
  551MOL0     C75935   3.113   6.599   5.776 -0.1702  0.8134  0.3408
  551MOL0     O75936   3.191   6.683   5.851  0.5535  0.0157 -0.2703
  551MOL0     C75937   3.177   6.823   5.815 -0.2519  0.3936 -0.8405
  551MOL0     C75938   3.312   6.884   5.805  0.2204  0.7533 -0.1290
  551MOL0     C75939   3.388   6.874   5.940  0.5760 -0.4633 -0.2934
  551MOL0     C75940   3.483   6.748   5.949  0.0284  0.3482  0.0683
  551MOL0     C75941   3.541   6.727   6.093  0.1283 -1.0976  0.4669
  551MOL0     C75942   3.638   6.845   6.129  0.3021 -0.5979  0.1375
  551MOL0     C75943   3.707   6.819   6.267 -0.1477  0.0723  0.3932
  551MOL0     C75944   3.803   6.949   6.293  0.5457  0.3888  0.1349
  551MOL0    Cl75945   3.863   6.938   6.470 -0.3060 -0.0794  0.2701
  551MOL0     C75946   3.167   6.527   5.666  0.3555  0.3778 -0.9197
  551MOL0     C75947   3.085   6.455   5.579  0.2972 -0.0408 -0.3074
  551MOL0     O75948   2.967   6.172   5.561  0.1618  0.5205  0.0133
  551MOL0     C75949   2.777   6.013   5.464 -0.2882 -0.0143  0.0618
  551MOL0     C75950   2.687   5.922   5.405 -0.5640 -0.2227  0.4394
  551MOL0     N75951   1.990   5.438   5.399  0.2610 -0.4971 -0.1648
  551MOL0     N75952   1.861   5.413   5.394 -0.7740  0.2439 -0.0479
  551MOL0     C75953   0.676   5.446   5.620 -0.1359  0.4737  0.0409
  551MOL0     C75954   0.549   5.436   5.662  0.2338 -0.5650 -0.3856
  551MOL0     C75955   0.134   5.593   5.852 -0.0944 -0.2704  1.0992
  551MOL0     C75956   0.061   5.655   5.961 -0.4621  0.4220  0.7712
  551MOL0     C75957  -0.076   5.653   5.959 -0.1485  0.7119 -0.2735
  551MOL0     C75958  -0.149   5.586   5.860  0.5068 -0.4690 -0.4007
  551MOL0     O75959  -0.286   5.595   5.834 -0.0240 -0.2069  0.1114
  551MOL0     C75960  -0.377   5.604   5.955 -0.5804 -0.5122  0.2271
  551MOL0     C75961  -0.519   5.573   5.898 -0.6148  0.5555 -0.0085
  551MOL0     C75962  -0.639   5.648   5.965  0.9060  0.1102 -1.3673
  551MOL0     C75963  -0.643   5.634   6.120  0.3971  0.1456 -0.2776
  551MOL0     C75964  -0.541   5.717   6.192  0.4055  0.6959  0.3697
  551MOL0     C75965  -0.480   5.785   6.273 -0.3068 -0.3352  0.2519
  551MOL0     C75966  -0.074   5.522   5.762 -0.9191  0.1285  0.1131
  551MOL0     C75967   0.065   5.518   5.759  0.2073  0.0505  0.2382
  551MOL0     C75968   0.126   5.431   5.655 -0.3057 -0.9370  0.7900
  551MOL0     H75969   0.548   5.723   5.853  0.0306 -0.5583 -1.3887
  551MOL0     H75970   0.769   5.724   5.785  0.3381 -0.9338  0.5886
  551MOL0     H75971   0.893   5.454   5.460 -0.4364 -1.2767  0.6259
  551MOL0     H75972   0.966   5.377   5.602 -0.0047  0.0000 -1.7929
  551MOL0     H75973   1.119   5.444   5.413 -0.4078  0.1986 -0.0837
  551MOL0     H75974   1.073   5.617   5.441  1.4700 -0.6958 -1.7535
  551MOL0     H75975   1.171   5.586   5.674 -0.3227  1.6518 -1.0410
  551MOL0     H75976   1.215   5.420   5.633  0.3268 -0.1206 -0.2788
  551MOL0     H75977   1.319   5.566   5.416 -4.5122  0.1884  0.0337
  551MOL0     H75978   1.325   5.692   5.550 -0.4546  0.4005  0.0300
  551MOL0     H75979   1.450   5.423   5.601  0.8635  0.4443 -1.3021
  551MOL0     H75980   1.478   5.572   5.679  1.7023  1.6345 -0.4387
  551MOL0     H75981   1.577   5.659   5.446  2.2444 -0.4342 -1.1285
  551MOL0     H75982   1.678   5.558   5.536 -0.9779  0.9817 -0.3916
  551MOL0     H75983   1.475   5.455   5.328  1.3368 -2.9021 -0.6628
  551MOL0     H75984   1.600   5.351   5.399 -0.1861 -0.6692  1.1614
  551MOL0     H75985   1.662   5.426   5.168  2.7212 -1.8625  1.3122
  551MOL0     H75986   1.647   5.595   5.216 -3.2934  0.3090  2.4024
  551MOL0     H75987   1.913   5.634   5.155 -0.5239 -1.8426 -2.5615
  551MOL0     H75988   2.136   5.628   5.173 -0.0171 -0.7639 -0.7058
  551MOL0     H75989   2.230   5.496   5.253  1.8298  0.3125  4.7326
  551MOL0     H75990   2.129   5.764   5.380 -0.9302 -0.1975  2.0687
  551MOL0     H75991   2.231   5.638   5.465 -3.4770  3.1591  2.2393
  551MOL0     H75992   2.405   5.671   5.286  2.6857  1.8642 -1.5864
  551MOL0     H75993   2.293   5.784   5.209 -2.9875  0.2929  1.5250
  551MOL0     H75994   2.309   5.951   5.377 -0.5888 -1.7928  0.0420
  551MOL0     H75995   2.414   5.845   5.471 -4.0749  0.3442  2.1546
  551MOL0     H75996   2.484   6.154   5.276 -0.1903 -0.7708  2.1707
  551MOL0     H75997   2.740   6.392   5.301  1.0513 -1.5514 -0.6308
  551MOL0     H75998   2.622   6.418   5.439 -1.5858 -0.8577 -0.4664
  551MOL0     H75999   2.576   6.370   5.266 -0.1854  0.7317 -0.9303
  551MOL0     H76000   2.791   6.499   5.728 -1.2615 -2.4984 -5.0149
  551MOL0     H76001   2.930   6.646   5.869 -0.0523 -0.5779 -0.0679
  551MOL0     H76002   3.136   6.839   5.715 -0.2620 -3.5361 -1.6556
  551MOL0     H76003   3.118   6.876   5.889 -0.6512 -0.2874 -0.6609
  551MOL0     H76004   3.362   6.819   5.732  1.4046  0.1521  1.1741
  551MOL0     H76005   3.306   6.985   5.763 -1.7510  0.7592  0.0751
  551MOL0     H76006   3.323   6.889   6.026 -0.7955 -0.5942 -1.2705
  551MOL0     H76007   3.446   6.966   5.945 -2.9663  1.9057  0.2354
  551MOL0     H76008   3.566   6.770   5.881 -1.5740  0.1901 -2.0790
  551MOL0     H76009   3.433   6.662   5.904 -1.5611  0.5973  1.2791
  551MOL0     H76010   3.472   6.729   6.178 -1.1776 -1.1512 -0.5588
  551MOL0     H76011   3.594   6.631   6.095 -0.2280 -1.3075  2.2370
  551MOL0     H76012   3.585   6.940   6.141 -0.1589 -0.7247 -0.8020
  551MOL0     H76013   3.712   6.845   6.049 -1.9432 -4.5700 -2.2818
  551MOL0     H76014   3.775   6.733   6.267 -0.0167  0.1564  1.5898
  551MOL0     H76015   3.636   6.816   6.350  0.4272 -0.8506  0.8687
  551MOL0     H76016   3.736   7.036   6.294 -0.2965 -0.2177  2.2124
  551MOL0     H76017   3.886   6.955   6.223  0.4069 -1.2043 -0.2125
  551MOL0     H76018   3.273   6.536   5.644  0.4989  1.3302  0.0718
  551MOL0     H76019   3.114   6.409   5.485 -1.1853 -2.8503  0.5058
  551MOL0     H76020   2.852   5.979   5.535  0.8140  3.9414  1.0071
  551MOL0     H76021   2.694   5.814   5.412 -0.4396 -0.5798 -3.1042
  551MOL0     H76022   0.709   5.369   5.552 -0.2655 -1.1132  1.6844
  551MOL0     H76023   0.485   5.353   5.632 -0.3750 -0.5196  0.7406
  551MOL0     H76024   0.109   5.705   6.044 -0.1052 -0.8607  1.3667
  551MOL0     H76025  -0.128   5.707   6.038  3.7001  1.9731  1.6969
  551MOL0     H76026  -0.346   5.546   6.042 -1.9764  0.0989  1.1742
  551MOL0     H76027  -0.373   5.708   5.988 -2.7677 -1.0388  2.5142
  551MOL0     H76028  -0.523   5.464   5.903  2.9306  0.3143  0.3024
  551MOL0     H76029  -0.530   5.595   5.791  0.9817 -0.5645 -0.4383
  551MOL0     H76030  -0.644   5.752   5.932 -1.2373  0.0340 -1.4313
  551MOL0     H76031  -0.733   5.601   5.933 -0.7891 -0.1233  3.1817
  551MOL0     H76032  -0.613   5.531   6.141 -0.2167  0.1479  0.6569
  551MOL0     H76033  -0.744   5.655   6.158 -0.7121 -2.1429 -1.7567
  551MOL0     H76034  -0.421   5.854   6.330 -0.0186  0.2403 -0.7373
  551MOL0     H76035  -0.133   5.476   5.684 -1.6935  0.2862  0.5869
  551MOL0     H76036   0.175   5.347   5.706  0.0140 -0.7723  0.7586
  551MOL0     H76037   0.054   5.399   5.580 -0.7229 -0.3875  0.9528
  551MOL0     H76038   0.203   5.490   5.605 -4.7202  2.7054 -2.5109
  552MOL0     O76039   4.079   4.268   6.943 -0.1536 -0.2884  0.2351
  552MOL0     C76040   4.073   4.214   7.053 -0.1707 -0.6352 -0.2477
  552MOL0     O76041   4.182   4.167   7.117 -0.2344 -0.0584  0.1475
  552MOL0     C76042   4.315   4.182   7.068  0.3467 -0.1455  0.5039
  552MOL0     C76043   4.359   4.115   6.948 -0.1115  0.2537 -0.4809
  552MOL0     C76044   4.492   4.132   6.896 -0.1574 -0.1178 -0.0689
  552MOL0     C76045   4.582   4.216   6.961  0.9114 -0.1195 -1.1754
  552MOL0     O76046   4.694   4.244   6.889 -0.4377  0.6801 -0.8142
  552MOL0     C76047   4.728   4.383   6.861 -0.4534 -0.5458 -0.0516
  552MOL0     C76048   4.865   4.416   6.916  0.3896  1.0103 -0.1566
  552MOL0     C76049   4.977   4.311   6.889  0.3286  0.4824  0.7807
  552MOL0     C76050   4.993   4.296   6.729 -0.2571 -0.0437  0.0389
  552MOL0     C76051   5.128   4.237   6.690 -0.2086  0.4265  0.6265
  552MOL0     C76052   5.142   4.087   6.730 -0.5036  0.7395  0.5829
  552MOL0     C76053   5.039   3.982   6.674 -0.7044 -1.0022  0.2076
  552MOL0     C76054   5.102   3.848   6.706  0.1209  0.0607  0.5477
  552MOL0     N76055   5.118   3.756   6.588 -0.2036  0.1356  0.2312
  552MOL0     C76056   5.017   3.665   6.544 -0.1133  0.1786  0.4379
  552MOL0     C76057   5.052   3.624   6.415 -0.0624 -0.6686 -0.4958
  552MOL0     C76058   4.977   3.514   6.332  0.3914  0.7525 -0.1659
  552MOL0     C76059   5.061   3.387   6.349  0.2259  0.0057  0.3330
  552MOL0     C76060   4.984   3.255   6.313 -0.8328  0.7600  0.3750
  552MOL0     C76061   5.092   3.149   6.276 -0.5062 -0.0650 -0.1405
  552MOL0     O76062   5.033   3.014   6.291  0.2806 -0.1783  0.2419
  552MOL0     C76063   5.108   2.906   6.270  0.1699 -0.3424  0.1256
  552MOL0     C76064   5.055   2.782   6.293 -0.0302 -0.0359 -0.7492
  552MOL0     C76065   5.117   2.657   6.261 -0.0778  0.5291 -0.8161
  552MOL0     C76066   5.034   2.533   6.274 -0.3653 -0.5496 -0.3280
  552MOL0     C76067   5.250   2.660   6.219 -0.0594  1.1012 -0.3539
  552MOL0     C76068   5.310   2.560   6.128 -0.1820  0.2234 -0.1670
  552MOL0     O76069   5.443   2.535   6.148  0.1173  0.0808  0.0857
  552MOL0     C76070   5.507   2.481   6.041 -0.1448  0.0738 -0.2830
  552MOL0     C76071   5.556   2.353   6.046  1.0234  0.5068  0.2624
  552MOL0     C76072   5.648   2.305   5.953 -0.2512 -0.2102 -0.3531
  552MOL0     C76073   5.696   2.390   5.847 -0.2074 -0.2995  0.1349
  552MOL0     O76074   5.775   2.347   5.744  0.5661 -0.1024 -0.3562
  552MOL0     C76075   5.844   2.230   5.749 -0.7358  0.0386  0.4939
  552MOL0     C76076   5.955   2.229   5.644  0.2789 -0.6104  0.1948
  552MOL0     C76077   5.882   2.221   5.506  1.0304 -0.0013  0.2969
  552MOL0     C76078   5.900   2.344   5.428 -0.3046  0.2975  0.7576
  552MOL0     C76079   5.861   2.334   5.279  0.2427 -0.9634  0.3342
  552MOL0     C76080   5.854   2.479   5.223 -0.1128 -0.6474  0.1106
  552MOL0     C76081   5.801   2.472   5.083 -0.0936 -0.1659 -0.3553
  552MOL0     C76082   5.811   2.609   5.008  0.0418 -0.0989 -1.1345
  552MOL0    Cl76083   5.760   2.582   4.846  0.2417  0.0616  0.7708
  552MOL0     C76084   5.630   2.516   5.836 -0.0144 -0.3724  0.0921
  552MOL0     C76085   5.541   2.556   5.936  0.7022  0.1416  0.0012
  552MOL0     O76086   5.243   2.520   6.031 -0.0603 -0.0651 -0.1285
  552MOL0     C76087   5.313   2.786   6.213 -0.2492 -0.7090  0.2486
  552MOL0     C76088   5.249   2.908   6.237 -0.1415  0.3393 -0.8966
  552MOL0     N76089   5.175   3.678   6.390  0.1683  0.4520 -0.4625
  552MOL0     N76090   5.210   3.767   6.477  0.2349  0.0978 -0.5839
  552MOL0     C76091   4.541   4.274   7.080  0.9276  0.4583 -0.2880
  552MOL0     C76092   4.410   4.267   7.127 -0.3793  0.3010 -0.3302
  552MOL0     C76093   3.946   4.231   7.124  0.4701  0.1203 -0.3211
  552MOL0     C76094   3.942   4.173   7.255 -0.3925  0.3150  0.5030
  552MOL0     C76095   3.821   4.167   7.331  0.2901  0.7560  0.2764
  552MOL0     C76096   3.706   4.214   7.260  0.7299  0.3465  0.0785
  552MOL0     O76097   3.581   4.208   7.315  0.2172 -0.6082  0.0023
  552MOL0     C76098   3.548   4.108   7.413  0.2866 -0.6300 -0.5231
  552MOL0     C76099   3.408   4.056   7.389  0.0271  0.2116  0.8879
  552MOL0     C76100   3.302   4.168   7.388 -0.0837  0.3901  1.0356
  552MOL0     C76101   3.163   4.105   7.370  0.4891 -0.1447  0.6571
  552MOL0     C76102   3.155   4.044   7.239 -0.0374  0.0772 -1.1958
  552MOL0     C76103   3.148   3.999   7.124  0.4478 -0.5539 -0.0144
  552MOL0     C76104   3.714   4.279   7.142 -0.1154  0.0245  0.3663
  552MOL0     C76105   3.829   4.277   7.064 -0.2705 -0.5841  0.0532
  552MOL0     C76106   3.827   4.361   6.939  0.3300 -0.3529 -0.4000
  552MOL0     H76107   4.290   4.043   6.908 -0.9589  1.4760 -1.2940
  552MOL0     H76108   4.513   4.089   6.798 -0.3993  1.0632 -0.6628
  552MOL0     H76109   4.655   4.448   6.911 -0.3840 -2.1060  2.2336
  552MOL0     H76110   4.730   4.392   6.752  2.5281 -1.3062 -0.1377
  552MOL0     H76111   4.894   4.516   6.882  0.2764  0.0252 -3.4999
  552MOL0     H76112   4.861   4.427   7.025  0.7265  3.8456 -0.3630
  552MOL0     H76113   5.072   4.340   6.935 -0.1179  2.7367  0.4198
  552MOL0     H76114   4.951   4.209   6.919  2.6437 -0.6917 -0.8298
  552MOL0     H76115   4.912   4.248   6.675 -0.6655  2.2383 -1.5123
  552MOL0     H76116   4.997   4.393   6.678  1.9032  0.1924  0.5191
  552MOL0     H76117   5.217   4.280   6.737 -0.1814  1.5358 -0.3984
  552MOL0     H76118   5.145   4.251   6.583 -0.5575 -1.4394  0.2975
  552MOL0     H76119   5.239   4.075   6.682 -1.9413  2.1154 -3.0432
  552MOL0     H76120   5.159   4.081   6.838  1.3963  2.5553  0.4504
  552MOL0     H76121   5.025   3.995   6.566  0.0619  2.5303  0.3872
  552MOL0     H76122   4.944   4.001   6.726  0.1121  1.8128  0.8551
  552MOL0     H76123   5.202   3.856   6.749 -0.3203 -1.1195  1.8422
  552MOL0     H76124   5.045   3.799   6.786  0.0385 -0.3548  0.2379
  552MOL0     H76125   4.928   3.634   6.596 -1.9433  1.3450 -1.8115
  552MOL0     H76126   4.973   3.537   6.225  1.1679 -1.1681 -0.6448
  552MOL0     H76127   4.872   3.500   6.361  1.1466 -2.8082  1.3031
  552MOL0     H76128   5.154   3.390   6.292  0.4806 -1.9210  0.6087
  552MOL0     H76129   5.071   3.384   6.457  1.5888  2.8288  0.3885
  552MOL0     H76130   4.931   3.236   6.406  0.0295 -4.0895  0.1217
  552MOL0     H76131   4.917   3.257   6.226 -0.1881 -0.8775 -0.2012
  552MOL0     H76132   5.139   3.163   6.178 -0.3781 -2.6898 -0.5263
  552MOL0     H76133   5.170   3.154   6.352 -1.8527  0.5416  1.2557
  552MOL0     H76134   4.948   2.782   6.305 -0.3351 -0.7114 -2.9618
  552MOL0     H76135   4.969   2.517   6.188 -0.5476  0.2984 -0.3597
  552MOL0     H76136   4.968   2.533   6.362  1.9596 -0.5206  1.5185
  552MOL0     H76137   5.104   2.449   6.270 -0.0029 -0.2494 -0.3425
  552MOL0     H76138   5.513   2.290   6.123  0.4104  1.1707  0.4681
  552MOL0     H76139   5.661   2.198   5.963 -2.2942 -0.5900 -1.2838
  552MOL0     H76140   5.900   2.223   5.842 -1.0141  0.9825  0.7412
  552MOL0     H76141   5.776   2.145   5.734  1.4183 -1.5978 -0.5867
  552MOL0     H76142   6.016   2.319   5.657 -0.2911 -0.4777  2.2684
  552MOL0     H76143   6.031   2.156   5.671  1.7865  1.8940  3.3232
  552MOL0     H76144   5.777   2.196   5.523  1.6439 -0.5708  4.1906
  552MOL0     H76145   5.913   2.132   5.450 -0.8623 -1.3228  1.2679
  552MOL0     H76146   6.006   2.368   5.428 -0.3108  0.3556  0.1529
  552MOL0     H76147   5.841   2.418   5.483  1.8188  1.2307  1.8680
  552MOL0     H76148   5.938   2.282   5.222 -1.5567 -2.9040 -0.4634
  552MOL0     H76149   5.770   2.274   5.265 -0.0078 -1.0097  2.0439
  552MOL0     H76150   5.954   2.524   5.228  1.2728 -3.5681  0.5038
  552MOL0     H76151   5.793   2.535   5.295  0.0324  1.8181 -1.5606
  552MOL0     H76152   5.694   2.451   5.084 -0.0546 -0.4403 -1.1895
  552MOL0     H76153   5.856   2.397   5.026 -0.0868  0.7702 -1.6401
  552MOL0     H76154   5.917   2.637   5.005 -0.6310  2.7589 -1.7978
  552MOL0     H76155   5.759   2.694   5.055  2.2325  1.1278 -0.7817
  552MOL0     H76156   5.651   2.580   5.751 -1.1343  1.4136  1.0999
  552MOL0     H76157   5.496   2.654   5.929 -0.3213 -0.0722  2.6054
  552MOL0     H76158   5.416   2.802   6.185  0.1494 -0.9737  1.5178
  552MOL0     H76159   5.319   2.990   6.222 -0.7877  0.5565 -3.0159
  552MOL0     H76160   4.605   4.344   7.132 -2.9671  3.3651  1.1174
  552MOL0     H76161   4.390   4.316   7.223 -1.8242  1.0233 -0.9604
  552MOL0     H76162   4.024   4.119   7.300  0.3787  0.7743 -0.3339
  552MOL0     H76163   3.817   4.122   7.430 -0.0511  0.0441 -0.0546
  552MOL0     H76164   3.611   4.019   7.418  0.0833 -0.7775 -0.5783
  552MOL0     H76165   3.559   4.164   7.506 -0.2054  0.6441 -1.2184
  552MOL0     H76166   3.382   3.986   7.468  1.4338  1.5573  2.6059
  552MOL0     H76167   3.410   3.999   7.295  2.1222 -0.3402  1.2201
  552MOL0     H76168   3.307   4.221   7.483 -1.2220 -0.9196  1.8502
  552MOL0     H76169   3.317   4.245   7.312  2.5103 -1.8105 -0.8894
  552MOL0     H76170   3.095   4.190   7.380  1.6414  0.8931 -0.0251
  552MOL0     H76171   3.134   4.030   7.445  1.2998  0.3997  1.5316
  552MOL0     H76172   3.141   3.941   7.034 -1.9553 -0.4954  0.0668
  552MOL0     H76173   3.624   4.328   7.106 -1.2684  0.7780  3.9002
  552MOL0     H76174   3.862   4.311   6.849  1.3732  2.9950 -2.0234
  552MOL0     H76175   3.723   4.384   6.913  0.5981 -0.5743 -1.7297
  552MOL0     H76176   3.890   4.449   6.954 -0.8563  0.7133 -1.3877
  553MOL0     O76177   7.858   9.852   2.088  0.5318 -0.9698  0.0698
  553MOL0     C76178   7.768   9.884   1.999 -1.0566  0.5402 -0.6137
  553MOL0     O76179   7.782   9.982   1.903 -0.2384  0.6244  0.1115
  553MOL0     C76180   7.883  10.074   1.918 -0.0421  0.9081  0.2357
  553MOL0     C76181   7.948  10.124   1.809 -0.8377 -0.0931  0.6541
  553MOL0     C76182   8.059  10.216   1.817 -0.2131  0.5288 -0.1859
  553MOL0     C76183   8.085  10.269   1.944 -0.5565  0.2323 -0.0767
  553MOL0     O76184   8.182  10.365   1.950 -0.4626  0.2367  0.1733
  553MOL0     C76185   8.267  10.356   2.067 -0.2151  0.3334 -0.1907
  553MOL0     C76186   8.396  10.432   2.055 -0.1303  0.7367  0.7976
  553MOL0     C76187   8.387  10.566   1.981  0.4104 -0.8498 -0.7577
  553MOL0     C76188   8.333  10.681   2.074 -0.8570 -0.4076 -0.9673
  553MOL0     C76189   8.338  10.820   2.017 -0.8180  0.5627 -0.5098
  553MOL0     C76190   8.299  10.935   2.112  0.0009  0.8161  0.0640
  553MOL0     C76191   8.377  11.059   2.070  0.7593 -0.3134 -0.4665
  553MOL0     C76192   8.318  11.177   2.151 -0.5384 -0.0233 -0.5481
  553MOL0     N76193   8.400  11.297   2.129  0.0917  1.5085  0.1625
  553MOL0     C76194   8.501  11.337   2.210 -0.3636  0.5877  0.3968
  553MOL0     C76195   8.555  11.440   2.139  0.6422  0.5658 -0.6989
  553MOL0     C76196   8.662  11.536   2.188 -0.1487  0.3963  0.0643
  553MOL0     C76197   8.799  11.485   2.145  0.1821 -0.4481 -0.6264
  553MOL0     C76198   8.860  11.377   2.234  0.6651 -0.2097 -0.0036
  553MOL0     C76199   8.956  11.297   2.157 -0.0685 -0.4188  0.3116
  553MOL0     O76200   9.014  11.191   2.235  0.3814 -0.5425  0.0664
  553MOL0     C76201   9.138  11.144   2.201  0.3977  0.4279  0.4351
  553MOL0     C76202   9.195  11.120   2.077  0.3657 -0.0345 -0.1378
  553MOL0     C76203   9.331  11.100   2.059 -0.0773 -0.3909  0.1385
  553MOL0     C76204   9.378  11.060   1.919 -0.5341  0.4436 -1.0244
  553MOL0     C76205   9.420  11.093   2.169  0.0262 -0.1344 -0.4466
  553MOL0     C76206   9.564  11.081   2.157  0.0260  0.5102  0.9937
  553MOL0     O76207   9.624  10.994   2.258 -0.2184 -0.0068 -0.5716
  553MOL0     C76208   9.756  11.004   2.287  0.0423 -0.1965  0.2126
  553MOL0     C76209   9.806  11.088   2.386 -0.1240  0.0880  0.1782
  553MOL0     C76210   9.939  11.089   2.430  0.0042 -0.0769  0.5683
  553MOL0     C76211  10.022  10.983   2.390 -0.0663 -0.1381 -0.5420
  553MOL0     O76212  10.149  10.967   2.433  0.6947  0.1291  0.0484
  553MOL0     C76213  10.222  11.081   2.483 -0.3155  0.1097  0.3078
  553MOL0     C76214  10.366  11.035   2.516  0.2381 -0.3620 -0.6351
  553MOL0     C76215  10.469  11.054   2.404  0.5831 -0.2511 -0.4253
  553MOL0     C76216  10.597  10.985   2.447  0.2381  0.2478  0.9735
  553MOL0     C76217  10.703  11.000   2.334 -0.3892 -0.4074  0.0120
  553MOL0     C76218  10.841  10.946   2.375  0.4129  0.2166 -0.4575
  553MOL0     C76219  10.944  10.969   2.267  0.0380 -0.4532  0.6864
  553MOL0     C76220  11.054  11.071   2.301  0.0804  0.0191 -0.1535
  553MOL0    Cl76221  11.119  11.046   2.466  0.0074 -0.4741 -0.6878
  553MOL0     C76222   9.977  10.896   2.290 -0.5913 -0.5392  0.3026
  553MOL0     C76223   9.844  10.909   2.238 -0.0760 -1.2233  1.2881
  553MOL0     O76224   9.622  11.130   2.065 -0.2009 -0.4208  0.3222
  553MOL0     C76225   9.366  11.098   2.300 -0.9246 -0.3264  0.9151
  553MOL0     C76226   9.229  11.126   2.313 -0.0059 -0.5402  0.1512
  553MOL0     N76227   8.487  11.447   2.016 -0.8037 -0.5048 -0.0667
  553MOL0     N76228   8.398  11.361   2.009  0.6893  0.1117 -0.3090
  553MOL0     C76229   7.992  10.242   2.051  0.1694 -0.1719  0.2265
  553MOL0     C76230   7.894  10.145   2.039 -0.2204 -0.2266  0.0299
  553MOL0     C76231   7.644   9.811   2.009  0.5019  0.3427 -0.3211
  553MOL0     C76232   7.526   9.880   1.979  0.5193 -0.7525  0.1664
  553MOL0     C76233   7.398   9.817   1.978  0.5598  0.3038 -0.8055
  553MOL0     C76234   7.386   9.682   2.007  0.5794 -1.0635 -0.3689
  553MOL0     O76235   7.256   9.630   2.004 -0.1874  0.1857  0.6232
  553MOL0     C76236   7.240   9.488   2.028 -0.4544 -0.7542  0.3828
  553MOL0     C76237   7.087   9.459   2.026  0.8895  0.5836  0.3964
  553MOL0     C76238   7.020   9.462   1.890 -0.4635 -0.4750 -0.0428
  553MOL0     C76239   6.866   9.475   1.889 -0.4091 -0.8421 -0.2971
  553MOL0     C76240   6.798   9.352   1.899 -0.7210  0.5273  0.6459
  553MOL0     C76241   6.725   9.259   1.902  0.1361  0.0209  0.9265
  553MOL0     C76242   7.505   9.612   2.024 -0.5169 -0.1491 -0.3663
  553MOL0     C76243   7.636   9.673   2.040  0.6982 -1.2475  0.2433
  553MOL0     C76244   7.753   9.578   2.072  0.1187 -0.2208  0.2457
  553MOL0     H76245   7.931  10.075   1.714 -0.3455 -0.4915  0.7688
  553MOL0     H76246   8.125  10.255   1.740  0.3975  0.6894  0.4139
  553MOL0     H76247   8.289  10.250   2.083  0.8608  0.8527  2.1918
  553MOL0     H76248   8.215  10.396   2.154  2.6482  1.1312  1.2907
  553MOL0     H76249   8.443  10.441   2.153  0.5727 -2.1433  0.7960
  553MOL0     H76250   8.461  10.364   1.999 -0.9160 -2.7437  3.7450
  553MOL0     H76251   8.486  10.594   1.942 -0.2652 -0.4797 -2.2936
  553MOL0     H76252   8.324  10.565   1.891 -0.5541 -0.1125 -0.1143
  553MOL0     H76253   8.231  10.651   2.102 -0.5090 -3.2786 -2.4540
  553MOL0     H76254   8.384  10.677   2.171 -0.3246 -2.0013 -1.2873
  553MOL0     H76255   8.270  10.822   1.932 -0.5794  3.8567 -0.7681
  553MOL0     H76256   8.443  10.836   1.989 -0.3372  1.4462  1.5858
  553MOL0     H76257   8.191  10.939   2.099 -0.1363 -3.6201 -2.1741
  553MOL0     H76258   8.312  10.913   2.218  0.2250 -1.8672 -0.4388
  553MOL0     H76259   8.366  11.083   1.964 -1.3105  2.0442  0.2001
  553MOL0     H76260   8.479  11.049   2.107 -0.0003 -0.3280  1.7819
  553MOL0     H76261   8.217  11.200   2.116 -0.8280 -1.1825 -0.5306
  553MOL0     H76262   8.309  11.151   2.257  2.9184  2.2975  0.4598
  553MOL0     H76263   8.529  11.308   2.311 -2.1710 -1.6085  0.3470
  553MOL0     H76264   8.658  11.534   2.297 -3.3834  1.2588  0.0506
  553MOL0     H76265   8.645  11.639   2.155  0.8702  0.8765  0.9738
  553MOL0     H76266   8.778  11.451   2.043 -5.2106 -2.6339  0.8997
  553MOL0     H76267   8.859  11.577   2.138 -2.4813  1.5628  1.0312
  553MOL0     H76268   8.893  11.427   2.325 -2.0260 -0.7645  1.3774
  553MOL0     H76269   8.783  11.304   2.261  1.2364  0.2041  3.0596
  553MOL0     H76270   8.898  11.262   2.072 -2.8417  2.8552  0.6411
  553MOL0     H76271   9.040  11.350   2.110  0.6146  0.0336  1.9407
  553MOL0     H76272   9.123  11.124   1.996 -0.6758  0.1045  0.7685
  553MOL0     H76273   9.284  11.034   1.870 -3.7900  0.5444  4.2803
  553MOL0     H76274   9.450  10.978   1.913 -0.6764  0.3237 -1.0789
  553MOL0     H76275   9.431  11.144   1.873  1.0399  0.2872  0.3754
  553MOL0     H76276   9.739  11.164   2.426 -2.2719 -0.8224 -1.5082
  553MOL0     H76277   9.979  11.160   2.502  1.8401  1.8104 -2.1027
  553MOL0     H76278  10.222  11.166   2.415  0.4272 -0.0709  0.0762
  553MOL0     H76279  10.177  11.113   2.577 -0.8877 -1.0133  0.4446
  553MOL0     H76280  10.399  11.088   2.606  0.1049 -0.4017 -0.5621
  553MOL0     H76281  10.369  10.928   2.538 -1.7117  0.1218  2.6251
  553MOL0     H76282  10.481  11.161   2.386 -0.6662  0.5148  2.6701
  553MOL0     H76283  10.440  11.000   2.313  0.0125 -0.2346 -0.2572
  553MOL0     H76284  10.587  10.878   2.466 -2.6200  0.3467  0.3870
  553MOL0     H76285  10.625  11.040   2.538 -1.0025  1.6692  0.5460
  553MOL0     H76286  10.665  10.944   2.249 -0.8204  1.5788 -1.1858
  553MOL0     H76287  10.703  11.106   2.304 -1.6623 -0.8169 -1.5712
  553MOL0     H76288  10.832  10.840   2.399  2.7396  0.1372  0.3845
  553MOL0     H76289  10.877  10.988   2.470  0.3856  1.9467 -1.1742
  553MOL0     H76290  10.896  11.010   2.177 -1.4182 -0.4683  1.4352
  553MOL0     H76291  10.997  10.875   2.250  2.4182  1.1919 -2.1015
  553MOL0     H76292  11.016  11.172   2.284 -0.2378 -0.1429 -0.4127
  553MOL0     H76293  11.141  11.057   2.236  1.2452  0.8434  1.1696
  553MOL0     H76294  10.041  10.820   2.246  0.2237  0.5901 -0.5334
  553MOL0     H76295   9.816  10.837   2.163  0.7990 -0.2856  0.0061
  553MOL0     H76296   9.422  11.092   2.392 -0.8176 -2.0780  0.7729
  553MOL0     H76297   9.187  11.145   2.411  0.8038  3.4020 -0.0953
  553MOL0     H76298   8.008  10.286   2.150 -0.3643  3.3080 -1.0721
  553MOL0     H76299   7.831  10.120   2.124 -1.1292 -0.0649 -0.5789
  553MOL0     H76300   7.530   9.986   1.952 -1.2175 -0.4980  0.7715
  553MOL0     H76301   7.308   9.876   1.966 -1.2548 -2.3321 -1.1156
  553MOL0     H76302   7.297   9.430   1.955  0.4799  0.4588  0.1297
  553MOL0     H76303   7.280   9.468   2.128 -0.1557 -0.0886  0.4035
  553MOL0     H76304   7.027   9.526   2.089 -1.7465 -1.6420  0.4337
  553MOL0     H76305   7.067   9.358   2.062 -1.0204 -0.0566 -2.1578
  553MOL0     H76306   7.061   9.555   1.850 -0.5800 -0.1877  0.5017
  553MOL0     H76307   7.053   9.391   1.814  0.7133  2.4486 -2.4784
  553MOL0     H76308   6.823   9.534   1.808 -3.3859 -1.8746  0.4116
  553MOL0     H76309   6.841   9.530   1.980 -1.8660 -0.8024 -0.7109
  553MOL0     H76310   6.645   9.188   1.892  0.0745  0.2172 -0.1273
  553MOL0     H76311   7.495   9.504   2.036 -2.4310  0.0850  0.4561
  553MOL0     H76312   7.725   9.474   2.053  0.8231 -0.1541 -1.2817
  553MOL0     H76313   7.840   9.599   2.009  0.0721  1.9602  0.8431
  553MOL0     H76314   7.776   9.570   2.179 -2.4725  0.6037  0.9504
  554MOL0     O76315   8.265   9.158  11.083 -0.2595  0.1858 -0.5790
  554MOL0     C76316   8.217   9.227  11.172 -0.3871  0.7833 -0.9925
  554MOL0     O76317   8.277   9.340  11.223  0.3506 -0.1156 -0.4932
  554MOL0     C76318   8.406   9.379  11.200  0.3234  1.1018 -0.5989
  554MOL0     C76319   8.445   9.512  11.199 -0.3457  0.7916 -0.0339
  554MOL0     C76320   8.583   9.548  11.173 -0.0722  0.6780 -0.2635
  554MOL0     C76321   8.678   9.454  11.151 -0.3783 -0.0925 -0.4380
  554MOL0     O76322   8.809   9.501  11.144  0.3757  0.4417  0.0072
  554MOL0     C76323   8.914   9.405  11.162  0.4675 -0.5190 -0.1789
  554MOL0     C76324   9.052   9.459  11.126 -0.5681  0.4527 -0.3781
  554MOL0     C76325   9.116   9.553  11.232 -0.3812 -0.3055  0.8092
  554MOL0     C76326   9.231   9.640  11.168  0.2327 -0.0700 -0.2642
  554MOL0     C76327   9.355   9.561  11.129  0.2200 -0.3998  0.0118
  554MOL0     C76328   9.472   9.657  11.090 -0.2777  0.1801  0.4956
  554MOL0     C76329   9.551   9.725  11.196 -0.0984  0.6367 -0.0297
  554MOL0     C76330   9.662   9.627  11.254 -0.1325 -0.8672 -0.2904
  554MOL0     N76331   9.768   9.578  11.162  0.0235 -0.2625  0.2936
  554MOL0     C76332   9.878   9.656  11.126 -0.7621 -0.0446 -0.3087
  554MOL0     C76333   9.941   9.588  11.024  0.1669  0.5011  0.3938
  554MOL0     C76334  10.071   9.610  10.950 -0.1027  1.3820 -0.7057
  554MOL0     C76335  10.176   9.502  10.985 -0.5049 -0.1468 -0.3569
  554MOL0     C76336  10.273   9.545  11.101  0.2833 -0.0681  0.0116
  554MOL0     C76337  10.398   9.463  11.096  0.6377 -0.6764 -0.2473
  554MOL0     O76338  10.487   9.477  11.212  0.7605  0.1245 -0.0054
  554MOL0     C76339  10.605   9.411  11.220 -0.2211 -0.3495 -0.7854
  554MOL0     C76340  10.665   9.334  11.123  0.3744  0.3997  0.8570
  554MOL0     C76341  10.786   9.272  11.151  0.2951 -0.3448  0.4325
  554MOL0     C76342  10.811   9.157  11.061  0.9574 -0.0473 -0.2468
  554MOL0     C76343  10.852   9.283  11.272 -0.3797  0.1360 -0.8130
  554MOL0     C76344  10.974   9.215  11.310  0.1652  0.5025 -0.1372
  554MOL0     O76345  10.987   9.184  11.440  0.5011  0.2141  0.2492
  554MOL0     C76346  11.099   9.121  11.476 -1.0045 -0.8540  0.7483
  554MOL0     C76347  11.204   9.192  11.529  0.7008  0.5110 -0.4264
  554MOL0     C76348  11.304   9.123  11.589 -0.8381 -1.3881  0.7742
  554MOL0     C76349  11.325   8.988  11.578  1.2809 -0.0430 -0.0523
  554MOL0     O76350  11.425   8.917  11.629 -0.9718 -0.0267 -0.2130
  554MOL0     C76351  11.556   8.985  11.617  1.0198  0.5108  0.7587
  554MOL0     C76352  11.665   8.893  11.683  0.0244  0.1968 -0.7052
  554MOL0     C76353  11.807   8.941  11.645  0.1840  0.3102  0.1847
  554MOL0     C76354  11.872   8.864  11.525  0.6178  0.0273 -0.0875
  554MOL0     C76355  11.989   8.916  11.451 -0.3575 -0.1614 -0.1022
  554MOL0     C76356  12.119   8.906  11.539  0.4705  0.6039  0.7794
  554MOL0     C76357  12.236   8.974  11.466 -0.1550  0.8567  0.5654
  554MOL0     C76358  12.376   8.959  11.534 -1.1019  0.1745 -0.3090
  554MOL0    Cl76359  12.453   8.803  11.509 -0.1925  0.1601 -0.2362
  554MOL0     C76360  11.232   8.918  11.493 -0.3232  0.6026  0.2280
  554MOL0     C76361  11.121   8.987  11.446  0.8733 -0.7474 -0.6723
  554MOL0     O76362  11.062   9.202  11.227  0.7666 -0.6082 -0.4392
  554MOL0     C76363  10.794   9.366  11.368  0.0101 -0.1512  0.1118
  554MOL0     C76364  10.677   9.429  11.336 -0.0091 -0.4296 -0.1501
  554MOL0     N76365   9.870   9.473  11.014 -0.3328 -0.1544  0.3013
  554MOL0     N76366   9.767   9.463  11.093  0.5373  0.5816  0.4107
  554MOL0     C76367   8.637   9.317  11.166 -0.8314 -0.3485  0.4216
  554MOL0     C76368   8.505   9.281  11.185  1.1562 -0.5381 -0.0016
  554MOL0     C76369   8.086   9.181  11.221  0.8087 -0.2690  0.6831
  554MOL0     C76370   7.994   9.283  11.263  0.0953 -0.3273  0.9083
  554MOL0     C76371   7.863   9.252  11.303 -1.0029 -1.0773 -0.5064
  554MOL0     C76372   7.810   9.127  11.289 -0.2271 -0.2766 -0.0072
  554MOL0     O76373   7.691   9.085  11.335 -0.1966 -0.6733 -0.1428
  554MOL0     C76374   7.601   9.182  11.405 -0.1934  0.5096  0.5468
  554MOL0     C76375   7.477   9.112  11.437 -0.0615 -0.1715 -0.0455
  554MOL0     C76376   7.400   9.047  11.323  0.8937  0.4181  0.4457
  554MOL0     C76377   7.360   9.139  11.202 -1.1409  0.1696 -0.1695
  554MOL0     C76378   7.235   9.206  11.234  0.3169  0.0830 -0.7169
  554MOL0     C76379   7.129   9.261  11.272  0.2861 -0.4426 -0.5803
  554MOL0     C76380   7.898   9.025  11.248  0.0537  0.4037  0.0186
  554MOL0     C76381   8.035   9.046  11.214 -0.4225  0.4013 -0.9081
  554MOL0     C76382   8.111   8.923  11.175 -1.0592 -0.2844  0.0491
  554MOL0     H76383   8.376   9.594  11.219 -0.6313  0.7360 -0.7226
  554MOL0     H76384   8.605   9.653  11.189 -1.6416  0.8337  1.1745
  554MOL0     H76385   8.905   9.318  11.096 -0.9581  0.0011 -0.7074
  554MOL0     H76386   8.907   9.378  11.268 -1.9979  1.4072  0.2409
  554MOL0     H76387   9.115   9.370  11.118 -0.4646  0.2029  2.2132
  554MOL0     H76388   9.060   9.519  11.036  0.5620  3.3355  1.5200
  554MOL0     H76389   9.043   9.623  11.274 -0.3863 -0.4556  1.0560
  554MOL0     H76390   9.159   9.506  11.321  0.2069  0.2523  0.8271
  554MOL0     H76391   9.195   9.691  11.078 -3.0491 -0.9241  0.4389
  554MOL0     H76392   9.255   9.718  11.241  1.7702  0.3273 -1.1522
  554MOL0     H76393   9.342   9.492  11.046 -2.1444 -0.1715  0.1151
  554MOL0     H76394   9.395   9.497  11.209  0.1737 -1.6417 -0.9378
  554MOL0     H76395   9.545   9.600  11.031 -0.9609  0.1513 -0.3533
  554MOL0     H76396   9.436   9.725  11.012  0.3032 -1.4102 -1.2588
  554MOL0     H76397   9.479   9.773  11.264 -0.6362 -0.5098  0.2412
  554MOL0     H76398   9.602   9.810  11.151  0.6441 -0.3506 -1.1238
  554MOL0     H76399   9.704   9.677  11.341  0.7925 -3.1886  0.6665
  554MOL0     H76400   9.603   9.545  11.296 -1.7952  1.1046  1.4616
  554MOL0     H76401   9.897   9.753  11.170  0.1544 -0.0064 -0.7741
  554MOL0     H76402  10.111   9.708  10.979  1.6552  0.6382 -0.4681
  554MOL0     H76403  10.056   9.603  10.842  3.0509  0.3540 -1.1608
  554MOL0     H76404  10.115   9.416  11.016 -2.7867  1.0328 -1.3789
  554MOL0     H76405  10.238   9.476  10.899  3.5445  1.1637  1.8758
  554MOL0     H76406  10.308   9.647  11.085  1.1889 -0.5213 -1.0088
  554MOL0     H76407  10.212   9.544  11.192  2.5991 -3.7851  1.7923
  554MOL0     H76408  10.379   9.355  11.101 -0.6723 -0.4149  0.8633
  554MOL0     H76409  10.458   9.479  11.006 -1.9499 -1.7878 -2.2747
  554MOL0     H76410  10.618   9.307  11.029  1.8998 -3.3899  0.9844
  554MOL0     H76411  10.720   9.097  11.057  0.4202  0.8217 -1.5128
  554MOL0     H76412  10.877   9.075  11.091  1.8485  0.9014  0.4719
  554MOL0     H76413  10.818   9.185  10.956  1.1825 -1.3319 -0.5995
  554MOL0     H76414  11.198   9.296  11.560  2.4063  0.2572  0.9127
  554MOL0     H76415  11.364   9.189  11.651 -3.3772  2.3951 -0.4553
  554MOL0     H76416  11.573   8.984  11.509  1.8790 -0.4937  0.8902
  554MOL0     H76417  11.562   9.088  11.653  3.8277  0.3341  1.0346
  554MOL0     H76418  11.648   8.886  11.791 -1.6112 -1.4326 -1.0211
  554MOL0     H76419  11.658   8.789  11.651 -1.7637  0.7815 -2.4684
  554MOL0     H76420  11.863   8.932  11.739  0.9716 -3.6162 -0.4985
  554MOL0     H76421  11.811   9.048  11.623  1.6322  0.5541  1.4589
  554MOL0     H76422  11.795   8.847  11.450 -1.1782  0.4705  1.5753
  554MOL0     H76423  11.884   8.762  11.563 -2.9446 -0.3547  0.3150
  554MOL0     H76424  12.002   8.853  11.362 -4.2146  1.9781 -2.4694
  554MOL0     H76425  11.982   9.018  11.412  0.8198  0.1345  0.4097
  554MOL0     H76426  12.153   8.805  11.565  1.1411  0.0586 -1.9385
  554MOL0     H76427  12.109   8.960  11.634 -0.3218 -0.1229  1.1267
  554MOL0     H76428  12.204   9.077  11.451  0.7082  0.8840 -1.3787
  554MOL0     H76429  12.239   8.925  11.368  1.0975  1.7660  0.1252
  554MOL0     H76430  12.368   8.969  11.643  1.7329  0.8420 -0.0747
  554MOL0     H76431  12.442   9.039  11.498  1.8991 -1.3860  1.3866
  554MOL0     H76432  11.244   8.811  11.481  0.9576  0.9703 -2.4601
  554MOL0     H76433  11.034   8.949  11.395 -4.0019  2.6422  4.0378
  554MOL0     H76434  10.840   9.378  11.465  0.2432  0.3828 -0.0610
  554MOL0     H76435  10.625   9.494  11.406 -0.0762  0.0854 -0.6688
  554MOL0     H76436   8.720   9.249  11.155  0.4409  1.2831 -0.5089
  554MOL0     H76437   8.475   9.177  11.197  0.9541 -0.6365 -1.2453
  554MOL0     H76438   8.019   9.388  11.253  1.9363 -0.9750 -3.1454
  554MOL0     H76439   7.808   9.335  11.345  0.2807 -0.0523 -0.7830
  554MOL0     H76440   7.645   9.218  11.498 -0.0767 -0.2571  0.7957
  554MOL0     H76441   7.565   9.265  11.343 -0.9968  0.2034  0.5825
  554MOL0     H76442   7.407   9.183  11.483  0.5991 -1.1456  2.6666
  554MOL0     H76443   7.506   9.041  11.516  3.9145  2.5013  1.1984
  554MOL0     H76444   7.472   8.974  11.286  0.5743  0.8312 -1.0557
  554MOL0     H76445   7.311   8.999  11.366 -0.6698 -0.7118 -3.6191
  554MOL0     H76446   7.324   9.081  11.117 -1.3984 -2.1323  1.4243
  554MOL0     H76447   7.452   9.195  11.183  0.3364 -1.5915  1.4031
  554MOL0     H76448   7.044   9.318  11.302  0.5812 -1.4122  2.4402
  554MOL0     H76449   7.862   8.924  11.264  0.6869  0.5590  3.0012
  554MOL0     H76450   8.194   8.910  11.245 -0.6633 -2.3290 -0.7541
  554MOL0     H76451   8.050   8.832  11.177  0.1157 -1.0808  0.5266
  554MOL0     H76452   8.138   8.942  11.071 -0.8458  2.8723  0.5748
  555MOL0     O76453   8.189   7.199   5.347  0.3618  0.0301  1.1653
  555MOL0     C76454   8.259   7.241   5.256  1.0189  0.1041  0.2034
  555MOL0     O76455   8.384   7.189   5.232 -0.4642 -0.0579 -0.3030
  555MOL0     C76456   8.456   7.120   5.325  0.0033  0.7443 -0.2128
  555MOL0     C76457   8.596   7.141   5.331  1.0277  0.1124  0.3075
  555MOL0     C76458   8.683   7.068   5.407  0.5075 -0.2237 -0.0508
  555MOL0     C76459   8.643   6.962   5.486 -0.0095 -0.3338  0.2952
  555MOL0     O76460   8.740   6.885   5.549  0.2102  0.3127  0.0167
  555MOL0     C76461   8.743   6.910   5.692 -0.0496  0.3745  0.1734
  555MOL0     C76462   8.851   7.003   5.725  0.1339 -0.0065  0.1003
  555MOL0     C76463   8.848   7.053   5.864 -0.6538  0.0567 -0.7919
  555MOL0     C76464   8.950   7.172   5.870  0.4854  0.5386 -0.0972
  555MOL0     C76465   9.080   7.116   5.925 -0.8104 -0.4883  0.3745
  555MOL0     C76466   9.173   7.216   6.002  0.1083 -0.0325 -0.0515
  555MOL0     C76467   9.288   7.143   6.070 -0.5830  0.7375  0.3960
  555MOL0     C76468   9.357   7.052   5.968 -0.4752 -0.0376  0.4604
  555MOL0     N76469   9.468   6.991   6.039 -0.0928  0.1191  0.1065
  555MOL0     C76470   9.593   6.999   5.994  0.3955 -0.3703  0.6953
  555MOL0     C76471   9.674   6.955   6.090  0.8122  0.4930 -0.2420
  555MOL0     C76472   9.822   6.967   6.094  0.2244 -0.7943  0.5209
  555MOL0     C76473   9.889   6.836   6.137 -0.2577  0.1080 -0.2678
  555MOL0     C76474   9.856   6.719   6.043  0.1637  0.1789 -0.5031
  555MOL0     C76475   9.931   6.724   5.913  0.0016  0.2916  0.4487
  555MOL0     O76476  10.069   6.688   5.929  0.0673  0.3629 -0.0422
  555MOL0     C76477  10.140   6.649   5.822 -0.6132  0.3807  0.0169
  555MOL0     C76478  10.272   6.612   5.833 -0.1654  0.4572  0.4741
  555MOL0     C76479  10.357   6.589   5.728 -0.0147  0.2499  0.4041
  555MOL0     C76480  10.496   6.556   5.755 -0.6064 -0.2206  0.2282
  555MOL0     C76481  10.297   6.589   5.604 -0.1226  0.2712  0.2418
  555MOL0     C76482  10.366   6.565   5.476 -0.5102 -0.1453  1.1847
  555MOL0     O76483  10.314   6.617   5.360  0.7208  0.4502 -0.4916
  555MOL0     C76484  10.389   6.601   5.243  0.7010  0.5333 -0.2311
  555MOL0     C76485  10.514   6.662   5.238 -0.0928  0.0130  0.6622
  555MOL0     C76486  10.591   6.650   5.121  0.5556  0.3929  0.0043
  555MOL0     C76487  10.548   6.587   5.009  0.6469 -0.2691  0.0659
  555MOL0     O76488  10.641   6.562   4.907  0.1625  0.1736  0.2006
  555MOL0     C76489  10.598   6.480   4.797 -0.3292 -0.2275  0.4697
  555MOL0     C76490  10.679   6.531   4.685 -0.0895 -0.0985  0.2274
  555MOL0     C76491  10.625   6.463   4.555 -0.3700  0.0967 -0.6949
  555MOL0     C76492  10.532   6.556   4.466  0.1304  0.1346 -0.3995
  555MOL0     C76493  10.603   6.660   4.388 -0.6186  0.1163  0.9477
  555MOL0     C76494  10.707   6.608   4.296 -0.5841  0.2831  0.5184
  555MOL0     C76495  10.719   6.704   4.182 -0.1446 -0.1390  0.0753
  555MOL0     C76496  10.813   6.653   4.071 -0.5746  0.7629 -0.4527
  555MOL0    Cl76497  10.732   6.545   3.957  0.2231  0.1434 -0.2136
  555MOL0     C76498  10.417   6.533   5.017  0.7932  0.2923  0.4905
  555MOL0     C76499  10.343   6.542   5.128  0.5086  0.6380  0.4094
  555MOL0     O76500  10.457   6.483   5.487  0.4444  0.1376 -0.0143
  555MOL0     C76501  10.164   6.626   5.583 -0.1591 -0.5068 -0.4494
  555MOL0     C76502  10.089   6.655   5.691 -0.7538  0.6942  0.1979
  555MOL0     N76503   9.591   6.900   6.183 -0.1343  0.2967  0.4146
  555MOL0     N76504   9.470   6.932   6.158  0.2546 -0.0317  0.1028
  555MOL0     C76505   8.503   6.942   5.491  0.0756 -0.4887 -0.4685
  555MOL0     C76506   8.411   7.018   5.410 -0.0435  0.5715 -0.0623
  555MOL0     C76507   8.194   7.354   5.177 -0.3701 -0.3245 -0.4138
  555MOL0     C76508   8.286   7.424   5.093 -0.8192 -0.9960  0.2082
  555MOL0     C76509   8.252   7.536   5.021  0.1676  0.1976  0.5793
  555MOL0     C76510   8.117   7.575   5.024 -0.1454 -0.2277  0.0330
  555MOL0     O76511   8.098   7.688   4.958  0.0589  0.7356  0.9778
  555MOL0     C76512   7.972   7.724   4.899 -0.2138  0.2155  0.2453
  555MOL0     C76513   7.989   7.852   4.825  0.3937  0.7981 -0.3642
  555MOL0     C76514   8.048   7.820   4.686 -1.3369 -0.0851  0.3492
  555MOL0     C76515   8.044   7.948   4.601 -1.3522  0.5099  0.1518
  555MOL0     C76516   8.078   7.900   4.466  0.2708 -0.2742 -0.6522
  555MOL0     C76517   8.089   7.842   4.366  0.5156 -0.0959 -0.2608
  555MOL0     C76518   8.027   7.515   5.113  0.7753  0.2698 -0.2655
  555MOL0     C76519   8.056   7.394   5.189  0.4489 -0.0917 -0.3369
  555MOL0     C76520   7.955   7.319   5.273 -1.4667 -0.8149 -0.0893
  555MOL0     H76521   8.642   7.214   5.266 -1.7509 -0.4171 -2.4962
  555MOL0     H76522   8.788   7.097   5.408  0.5211 -0.1546 -1.3644
  555MOL0     H76523   8.759   6.813   5.740  0.0829 -0.2977 -1.1816
  555MOL0     H76524   8.653   6.954   5.737  0.2073  2.0420 -0.8882
  555MOL0     H76525   8.944   6.950   5.702  0.1592  0.9421 -2.2065
  555MOL0     H76526   8.828   7.089   5.661 -0.4520 -0.0370  0.2631
  555MOL0     H76527   8.751   7.092   5.898 -1.3105 -2.0692 -0.0788
  555MOL0     H76528   8.879   6.979   5.938  0.7136 -1.2883 -2.6166
  555MOL0     H76529   8.969   7.216   5.772  0.7118 -0.1301 -0.3553
  555MOL0     H76530   8.904   7.249   5.933  2.1739  0.7610  0.9502
  555MOL0     H76531   9.128   7.077   5.835 -0.9006  1.9845 -0.8195
  555MOL0     H76532   9.064   7.037   5.998 -0.2703 -0.5626  0.4190
  555MOL0     H76533   9.207   7.290   5.929  1.4977 -1.3678 -0.7911
  555MOL0     H76534   9.124   7.269   6.085  0.5838 -0.1246  0.2931
  555MOL0     H76535   9.242   7.073   6.140  0.2545  0.3901  0.6096
  555MOL0     H76536   9.358   7.202   6.131  0.2900 -0.2450  0.3872
  555MOL0     H76537   9.292   6.974   5.928 -2.3050  1.9616 -0.7138
  555MOL0     H76538   9.400   7.109   5.886  0.5622  0.8628  1.5999
  555MOL0     H76539   9.628   7.052   5.907 -0.7476 -0.7193  0.0049
  555MOL0     H76540   9.846   7.043   6.168 -1.5738 -0.4698  0.8186
  555MOL0     H76541   9.854   7.002   5.996  0.9194  0.1089  1.0538
  555MOL0     H76542   9.997   6.846   6.145  0.0906 -1.5998 -2.1086
  555MOL0     H76543   9.863   6.808   6.240  3.1427 -0.7274  0.4839
  555MOL0     H76544   9.866   6.620   6.090 -1.1553  0.0095 -0.5515
  555MOL0     H76545   9.748   6.721   6.027  0.1108 -0.1585 -0.2216
  555MOL0     H76546   9.881   6.658   5.842  3.2034 -0.4915 -1.2859
  555MOL0     H76547   9.928   6.826   5.875  0.9695  0.2447  0.2133
  555MOL0     H76548  10.320   6.595   5.929  4.0644 -0.8680 -1.6286
  555MOL0     H76549  10.512   6.565   5.862 -1.7529 -0.2794  0.4192
  555MOL0     H76550  10.563   6.630   5.711 -0.7837  1.8244  3.1375
  555MOL0     H76551  10.532   6.455   5.735  3.1110  1.3876 -2.2129
  555MOL0     H76552  10.548   6.714   5.328 -0.9199  2.3652 -0.3009
  555MOL0     H76553  10.693   6.687   5.124 -0.2006  2.6120  2.3293
  555MOL0     H76554  10.621   6.374   4.812  2.3701  0.1289 -0.5058
  555MOL0     H76555  10.493   6.480   4.767  0.4934 -1.2399 -2.8801
  555MOL0     H76556  10.676   6.640   4.677  1.9617 -0.1368 -2.6426
  555MOL0     H76557  10.779   6.487   4.696 -0.9629 -2.1340  0.6234
  555MOL0     H76558  10.581   6.367   4.582  0.4494  0.1195  0.8696
  555MOL0     H76559  10.714   6.434   4.498  0.2700 -2.0414  1.2097
  555MOL0     H76560  10.463   6.614   4.527 -0.5691  0.5035 -1.5020
  555MOL0     H76561  10.487   6.498   4.385 -1.5007  1.0133 -0.1894
  555MOL0     H76562  10.527   6.710   4.327  0.2569 -0.7695 -0.9435
  555MOL0     H76563  10.642   6.739   4.453 -0.1926  1.8173 -1.2593
  555MOL0     H76564  10.676   6.509   4.263  0.1728  0.1682  0.1348
  555MOL0     H76565  10.808   6.597   4.337 -1.0215 -0.6917  1.3678
  555MOL0     H76566  10.769   6.791   4.225  1.1195 -0.9510  0.3212
  555MOL0     H76567  10.620   6.730   4.143  0.7112  2.1954 -0.7245
  555MOL0     H76568  10.908   6.609   4.103  1.0007 -0.0473 -5.4331
  555MOL0     H76569  10.848   6.739   4.013  0.4816  0.0313 -0.9349
  555MOL0     H76570  10.369   6.491   4.929  1.3152 -0.2236  0.4436
  555MOL0     H76571  10.244   6.499   5.143  0.6317  0.8884  2.1865
  555MOL0     H76572  10.111   6.635   5.489  0.3337  0.2129 -0.6656
  555MOL0     H76573   9.988   6.683   5.661 -1.1605 -1.0380 -0.1778
  555MOL0     H76574   8.477   6.850   5.542 -1.9355 -1.7072 -3.3832
  555MOL0     H76575   8.303   7.008   5.424 -0.3450  3.5871  0.4222
  555MOL0     H76576   8.390   7.395   5.089 -0.0616  1.6296 -1.4838
  555MOL0     H76577   8.320   7.585   4.952 -0.8387 -0.2867 -0.8013
  555MOL0     H76578   7.929   7.650   4.830 -0.4849  1.4873 -0.9892
  555MOL0     H76579   7.898   7.739   4.978  0.1136 -0.6353  0.7301
  555MOL0     H76580   8.056   7.908   4.890  0.4954  0.3350 -0.0608
  555MOL0     H76581   7.890   7.897   4.809  0.1025  0.0541 -0.7467
  555MOL0     H76582   8.153   7.792   4.701 -1.9513 -1.7364  1.8624
  555MOL0     H76583   7.989   7.746   4.631  0.2208 -0.8261 -0.4098
  555MOL0     H76584   8.119   8.014   4.644 -0.6176 -0.3070  0.1522
  555MOL0     H76585   7.947   7.999   4.602 -1.2292  0.7514 -0.0329
  555MOL0     H76586   8.095   7.770   4.287  1.4900  0.7977 -1.0369
  555MOL0     H76587   7.928   7.558   5.115 -0.5841 -2.4208 -2.7076
  555MOL0     H76588   7.856   7.363   5.255 -2.3075 -1.7270  2.0711
  555MOL0     H76589   7.942   7.211   5.265 -1.2015 -1.0107  1.6791
  555MOL0     H76590   7.972   7.342   5.379  1.5977 -1.8228 -0.2781
  556MOL0     O76591   1.059   9.473   7.208  0.1357  0.7501  0.4850
  556MOL0     C76592   0.954   9.525   7.230  0.4084 -0.6309 -0.3117
  556MOL0     O76593   0.946   9.632   7.312  0.0780  1.4295  0.0993
  556MOL0     C76594   1.061   9.703   7.351  0.2679  0.4682 -0.8663
  556MOL0     C76595   1.162   9.752   7.264  0.5158  0.4156 -0.9986
  556MOL0     C76596   1.284   9.802   7.309  0.6111 -0.0445 -0.0424
  556MOL0     C76597   1.315   9.802   7.444  0.6086  0.1352  0.7004
  556MOL0     O76598   1.429   9.848   7.511 -0.7026  0.0715 -0.6066
  556MOL0     C76599   1.548   9.886   7.437  0.5583  0.5320 -0.0013
  556MOL0     C76600   1.639   9.767   7.431 -0.0691  0.4369  0.2864
  556MOL0     C76601   1.786   9.808   7.413  1.5554  0.3600  0.1165
  556MOL0     C76602   1.817   9.903   7.294  0.2673  0.1390  0.5664
  556MOL0     C76603   1.968   9.903   7.259 -0.3622 -0.0081  0.8728
  556MOL0     C76604   2.054   9.940   7.373 -0.0391  0.1064  0.0992
  556MOL0     C76605   2.205   9.968   7.334  0.9564 -0.1678  0.6996
  556MOL0     C76606   2.243  10.092   7.257 -0.6565 -0.9290 -0.0332
  556MOL0     N76607   2.379  10.071   7.206 -0.5805 -0.5937  0.2197
  556MOL0     C76608   2.484  10.161   7.209  0.1263 -0.0435  0.6227
  556MOL0     C76609   2.589  10.091   7.154 -0.0823  0.6930  0.3002
  556MOL0     C76610   2.723  10.143   7.120 -0.4908  0.7424 -0.2251
  556MOL0     C76611   2.819  10.149   7.243 -0.1869  0.7948 -0.2760
  556MOL0     C76612   2.935  10.249   7.222 -0.6533 -0.4098  0.3748
  556MOL0     C76613   3.051  10.239   7.322 -0.0622  0.4869 -0.3404
  556MOL0     O76614   3.134  10.120   7.307 -0.4027 -0.3088  0.2461
  556MOL0     C76615   3.204  10.088   7.193  0.3390  0.0280  0.7688
  556MOL0     C76616   3.246  10.180   7.094 -0.4127  0.0752  0.0513
  556MOL0     C76617   3.339  10.154   6.988  0.1065 -0.2355 -0.8912
  556MOL0     C76618   3.370  10.262   6.886 -0.3383  0.1693  0.5679
  556MOL0     C76619   3.390  10.020   6.981 -0.0218 -0.8882 -0.4627
  556MOL0     C76620   3.495   9.983   6.881 -0.0392 -0.0623  0.3650
  556MOL0     O76621   3.516  10.044   6.765  1.1284 -0.5982 -0.1591
  556MOL0     C76622   3.589   9.981   6.669 -0.1758 -0.2945 -0.0501
  556MOL0     C76623   3.529   9.895   6.576 -0.3448 -1.1077 -0.7963
  556MOL0     C76624   3.603   9.843   6.465  0.1946  0.3099  0.2221
  556MOL0     C76625   3.738   9.852   6.463  0.3143 -0.8221 -0.7014
  556MOL0     O76626   3.805   9.786   6.360  0.6469  0.2673  0.5765
  556MOL0     C76627   3.911   9.697   6.390 -0.5140  0.8130  0.8577
  556MOL0     C76628   4.010   9.676   6.280 -0.1038  0.2126  0.2976
  556MOL0     C76629   4.115   9.577   6.309  0.1140  0.5221 -0.2374
  556MOL0     C76630   4.233   9.641   6.377 -0.6554 -0.5506  0.5762
  556MOL0     C76631   4.307   9.747   6.288 -0.4872 -0.4852 -0.6264
  556MOL0     C76632   4.440   9.762   6.350  0.3768  0.5153 -0.2210
  556MOL0     C76633   4.518   9.874   6.293  0.1489 -0.6503  0.1098
  556MOL0     C76634   4.659   9.899   6.342 -0.4961 -0.1886 -0.3978
  556MOL0    Cl76635   4.727  10.062   6.297  0.1079  0.2330 -0.2848
  556MOL0     C76636   3.802   9.925   6.559 -0.1687 -0.5500 -1.0802
  556MOL0     C76637   3.725   9.985   6.659  0.3104 -0.2777  0.3535
  556MOL0     O76638   3.568   9.892   6.928  0.4394 -0.6134  0.0871
  556MOL0     C76639   3.335   9.922   7.072  0.0039 -0.0317  0.4265
  556MOL0     C76640   3.257   9.956   7.182  0.3897  0.1724  0.3662
  556MOL0     N76641   2.540   9.966   7.118 -0.6816 -0.1292  0.3035
  556MOL0     N76642   2.419   9.956   7.149  0.0025 -0.1813  0.5584
  556MOL0     C76643   1.204   9.775   7.531  0.1186 -0.0837 -0.2512
  556MOL0     C76644   1.084   9.721   7.490 -0.4092  0.5532  0.0365
  556MOL0     C76645   0.830   9.476   7.173 -0.4825  0.0345  0.0555
  556MOL0     C76646   0.843   9.362   7.093  1.4256  1.0537  0.3922
  556MOL0     C76647   0.724   9.299   7.038  0.2899  0.0588 -0.4936
  556MOL0     C76648   0.594   9.356   7.058 -0.2149 -0.2006 -0.1002
  556MOL0     O76649   0.472   9.324   7.011  0.5439 -0.0140  0.5672
  556MOL0     C76650   0.446   9.186   7.035 -0.6496  0.1427 -0.3976
  556MOL0     C76651   0.434   9.153   7.185  0.5351 -0.3966  0.3111
  556MOL0     C76652   0.299   9.214   7.243 -0.1517 -0.0301  0.0296
  556MOL0     C76653   0.255   9.124   7.358 -0.4969  0.0234  0.1745
  556MOL0     C76654   0.121   9.177   7.396 -0.8551 -0.0996 -0.0488
  556MOL0     C76655   0.009   9.217   7.424 -0.3122 -0.0708  0.0752
  556MOL0     C76656   0.588   9.476   7.125 -0.4727  0.2537  0.5262
  556MOL0     C76657   0.702   9.537   7.180 -0.6566 -0.0732 -0.1076
  556MOL0     C76658   0.673   9.666   7.261 -0.0332  0.4176 -0.2110
  556MOL0     H76659   1.152   9.743   7.157  0.8658 -2.4009 -0.8681
  556MOL0     H76660   1.353   9.834   7.232  0.1948  1.5020  0.1834
  556MOL0     H76661   1.601   9.963   7.493 -0.9031  0.5584  1.4282
  556MOL0     H76662   1.531   9.926   7.336  4.0751  2.1384 -0.0839
  556MOL0     H76663   1.636   9.705   7.521  1.4069 -0.4345 -0.2260
  556MOL0     H76664   1.593   9.701   7.356 -1.2260  1.2934  0.2100
  556MOL0     H76665   1.816   9.847   7.510 -2.9910  1.5430  1.2908
  556MOL0     H76666   1.838   9.713   7.395  1.7910  0.2536  1.3133
  556MOL0     H76667   1.757   9.862   7.212 -2.1975  0.5661  2.0815
  556MOL0     H76668   1.774  10.001   7.314 -1.9297 -0.9184  1.3046
  556MOL0     H76669   1.977   9.969   7.172 -4.1553  0.7457  0.9062
  556MOL0     H76670   2.003   9.802   7.236 -0.7791  0.2926 -1.2409
  556MOL0     H76671   2.012  10.020   7.435 -2.0142 -0.0560 -0.9466
  556MOL0     H76672   2.048   9.861   7.448  0.1992 -0.2660 -0.2719
  556MOL0     H76673   2.234   9.887   7.267  2.8574  1.7057 -0.8994
  556MOL0     H76674   2.253   9.964   7.432  1.0719  0.0159  0.6507
  556MOL0     H76675   2.177  10.093   7.169 -1.2940 -2.6747  0.4001
  556MOL0     H76676   2.233  10.181   7.320  3.6224  0.1307 -0.5293
  556MOL0     H76677   2.475  10.263   7.244 -0.2343  0.0011  0.4017
  556MOL0     H76678   2.712  10.246   7.085 -2.2673  1.5285  2.2704
  556MOL0     H76679   2.765  10.077   7.044  0.0187  1.1036 -0.2624
  556MOL0     H76680   2.754  10.189   7.321  0.2875 -0.1235  0.6152
  556MOL0     H76681   2.851  10.052   7.281  1.0535  1.6817  1.0115
  556MOL0     H76682   2.971  10.232   7.120  2.1895 -1.0460  1.3969
  556MOL0     H76683   2.901  10.352   7.227 -2.8140 -1.0174 -0.7041
  556MOL0     H76684   3.117  10.326   7.314  0.8431 -0.1382  0.1276
  556MOL0     H76685   3.013  10.229   7.424  0.4035  2.1086  0.0106
  556MOL0     H76686   3.205  10.280   7.092 -2.3204 -0.6700 -2.5497
  556MOL0     H76687   3.358  10.230   6.782  0.3180 -0.9260  0.8142
  556MOL0     H76688   3.477  10.284   6.895 -0.4751  0.1722  3.0218
  556MOL0     H76689   3.303  10.348   6.895  0.6625  1.1011 -0.5096
  556MOL0     H76690   3.421   9.881   6.583 -0.6415  1.3702  0.7727
  556MOL0     H76691   3.553   9.781   6.391  1.7921 -0.0424 -0.5913
  556MOL0     H76692   3.961   9.736   6.479 -1.2549  0.2208  1.5520
  556MOL0     H76693   3.870   9.598   6.412 -0.9188  1.2021  1.9438
  556MOL0     H76694   3.960   9.643   6.189 -0.0805 -1.2739  0.7910
  556MOL0     H76695   4.047   9.777   6.257  1.6059 -0.5541 -0.5043
  556MOL0     H76696   4.145   9.528   6.216  1.0937  0.3423  0.1685
  556MOL0     H76697   4.067   9.493   6.360  2.1277 -1.6081 -1.6777
  556MOL0     H76698   4.306   9.562   6.394  1.7324  1.0055 -1.6237
  556MOL0     H76699   4.204   9.687   6.472 -0.5593 -2.3500  1.5219
  556MOL0     H76700   4.330   9.720   6.184 -0.5174  0.2527 -0.8305
  556MOL0     H76701   4.257   9.844   6.297 -0.5664 -0.6414  0.8051
  556MOL0     H76702   4.502   9.672   6.349  2.6320  1.9861 -0.6713
  556MOL0     H76703   4.422   9.774   6.457 -0.7298 -5.3612  0.5713
  556MOL0     H76704   4.465   9.960   6.336  2.2394 -0.0008  1.5100
  556MOL0     H76705   4.532   9.867   6.184  2.1480  0.0415  0.2776
  556MOL0     H76706   4.726   9.816   6.319  0.7807  0.2518  1.5043
  556MOL0     H76707   4.650   9.887   6.450  0.4471 -1.4358 -0.4435
  556MOL0     H76708   3.909   9.935   6.572 -0.5398  0.8576  1.5465
  556MOL0     H76709   3.756  10.039   6.747 -2.4983 -0.8448  1.8143
  556MOL0     H76710   3.373   9.823   7.052  0.9869  0.4062  0.0702
  556MOL0     H76711   3.237   9.890   7.266 -0.8051  0.9937  0.7488
  556MOL0     H76712   1.222   9.788   7.637  2.4260 -1.0410 -0.4603
  556MOL0     H76713   1.001   9.700   7.557 -1.4678 -2.2069 -1.9524
  556MOL0     H76714   0.941   9.324   7.066  1.0635  0.8503 -0.7189
  556MOL0     H76715   0.733   9.198   7.001 -1.1867 -0.1193 -0.3966
  556MOL0     H76716   0.358   9.150   6.982 -0.6559 -0.8453  0.2597
  556MOL0     H76717   0.530   9.128   6.995 -0.3189 -0.0630  0.5555
  556MOL0     H76718   0.517   9.188   7.247 -1.2306  3.3360  0.8637
  556MOL0     H76719   0.426   9.044   7.186 -3.2882 -0.2821 -0.4917
  556MOL0     H76720   0.313   9.318   7.274  1.7228 -0.6771  1.5077
  556MOL0     H76721   0.225   9.212   7.162  0.5451  2.2526 -0.7408
  556MOL0     H76722   0.327   9.130   7.440 -1.1370  1.4414  0.6705
  556MOL0     H76723   0.245   9.021   7.322 -0.2679  0.7595 -2.1053
  556MOL0     H76724  -0.093   9.237   7.449 -0.6183  0.2256 -1.3261
  556MOL0     H76725   0.490   9.520   7.134  0.8922  3.4375  1.2816
  556MOL0     H76726   0.574   9.707   7.239 -0.5029 -1.0999 -1.1107
  556MOL0     H76727   0.673   9.646   7.368 -1.2883  0.9188 -0.1025
  556MOL0     H76728   0.738   9.748   7.229 -1.0642  0.9188 -1.0947
  557MOL0     O76729   0.312   5.881  10.986 -0.3613 -0.6670  0.7111
  557MOL0     C76730   0.252   5.993  10.960 -1.0649  0.6822  0.8749
  557MOL0     O76731   0.309   6.114  10.935  0.5079 -0.0742  0.5936
  557MOL0     C76732   0.449   6.100  10.939 -0.3465  0.3847 -0.0080
  557MOL0     C76733   0.519   6.092  10.817  0.6168 -0.0791 -0.2945
  557MOL0     C76734   0.655   6.092  10.824 -0.3382  0.2762 -0.0423
  557MOL0     C76735   0.724   6.094  10.942 -0.3128  0.3257 -0.0202
  557MOL0     O76736   0.862   6.092  10.949 -0.5737  0.6352 -0.0204
  557MOL0     C76737   0.925   6.175  11.047 -0.7387  0.2528  0.7050
  557MOL0     C76738   1.039   6.246  10.982 -0.0817  0.0588 -0.4761
  557MOL0     C76739   1.142   6.147  10.927  1.0067  0.6343 -0.0292
  557MOL0     C76740   1.228   6.078  11.036  0.7318  0.3403 -0.1041
  557MOL0     C76741   1.331   5.983  10.982 -0.2230 -0.1587 -0.0208
  557MOL0     C76742   1.452   5.965  11.077 -0.0324  0.7132 -0.3710
  557MOL0     C76743   1.543   5.851  11.024  0.6945 -0.1912 -0.5160
  557MOL0     C76744   1.637   5.788  11.135  0.0209 -0.0537  0.3026
  557MOL0     N76745   1.752   5.737  11.071  0.1091  0.1550 -0.5518
  557MOL0     C76746   1.850   5.802  11.003  1.4003  0.3933 -0.1016
  557MOL0     C76747   1.933   5.710  10.958 -0.2198  1.0540  1.0009
  557MOL0     C76748   2.056   5.739  10.875 -0.1464  0.5567  0.1249
  557MOL0     C76749   2.179   5.780  10.951 -0.0123 -0.3267 -0.0725
  557MOL0     C76750   2.254   5.664  10.999  1.0323 -0.1031  0.1184
  557MOL0     C76751   2.374   5.617  10.924 -0.8715  0.3724  0.7004
  557MOL0     O76752   2.454   5.546  11.017 -0.1205  0.7998 -0.2340
  557MOL0     C76753   2.592   5.561  11.018 -0.2787 -0.3936  0.0279
  557MOL0     C76754   2.673   5.552  10.899  0.5410 -0.5200 -0.3222
  557MOL0     C76755   2.811   5.569  10.904  0.4210 -0.5364  0.3808
  557MOL0     C76756   2.881   5.578  10.768  0.4501  0.8262 -0.6696
  557MOL0     C76757   2.881   5.577  11.025 -0.1101  0.0177  0.2107
  557MOL0     C76758   3.022   5.596  11.027 -0.4963 -0.1268 -0.0927
  557MOL0     O76759   3.072   5.656  11.145 -0.1155 -0.1276 -0.5899
  557MOL0     C76760   3.204   5.671  11.162 -0.3591 -0.8060 -0.2881
  557MOL0     C76761   3.281   5.759  11.086  0.1568  0.6705 -0.4515
  557MOL0     C76762   3.422   5.759  11.097 -0.5117  0.2360  0.4104
  557MOL0     C76763   3.491   5.678  11.189 -0.4190  0.3271  0.3246
  557MOL0     O76764   3.626   5.686  11.191 -0.3494  0.1683  0.0118
  557MOL0     C76765   3.684   5.716  11.317 -0.5367  0.0172 -0.3415
  557MOL0     C76766   3.813   5.788  11.285 -0.1990 -0.5780 -0.0501
  557MOL0     C76767   3.899   5.811  11.408  0.2564  0.4329 -0.0264
  557MOL0     C76768   3.971   5.677  11.446  0.4806 -0.7542 -0.9906
  557MOL0     C76769   4.082   5.704  11.548  0.8570  0.4133 -0.5208
  557MOL0     C76770   4.186   5.590  11.546 -0.0142 -1.0726 -0.3840
  557MOL0     C76771   4.307   5.631  11.638 -0.3095  0.5910  0.3443
  557MOL0     C76772   4.264   5.704  11.766  0.0094  0.6016  0.0275
  557MOL0    Cl76773   4.187   5.586  11.885 -0.5705 -0.4473  0.5998
  557MOL0     C76774   3.412   5.588  11.267  0.0221  0.5330 -0.0573
  557MOL0     C76775   3.275   5.589  11.263  0.2846  0.1657 -0.4690
  557MOL0     O76776   3.099   5.551  10.942  0.2222  0.1811 -0.0673
  557MOL0     C76777   2.805   5.573  11.142 -0.0674  0.6017 -0.6717
  557MOL0     C76778   2.659   5.563  11.139 -1.1666  0.0837 -0.2953
  557MOL0     N76779   1.879   5.583  10.984  0.3509  0.8331  0.2070
  557MOL0     N76780   1.786   5.603  11.071 -0.1639  0.2512 -0.6975
  557MOL0     C76781   0.649   6.093  11.067  0.4756  0.2235 -0.7910
  557MOL0     C76782   0.508   6.109  11.066 -0.5875  1.5041  0.4643
  557MOL0     C76783   0.107   5.983  10.974  0.6242  0.6278  0.3655
  557MOL0     C76784   0.040   5.876  10.913 -0.3017 -0.5527  0.7466
  557MOL0     C76785  -0.103   5.859  10.916  0.0739 -0.2800 -0.4233
  557MOL0     C76786  -0.171   5.946  11.004 -0.8119 -0.8822 -0.5149
  557MOL0     O76787  -0.303   5.959  11.029 -0.5237  0.4477  0.2836
  557MOL0     C76788  -0.368   6.067  10.967 -0.0325  0.3528 -0.0795
  557MOL0     C76789  -0.501   6.021  10.917 -0.4843 -0.5926 -0.5247
  557MOL0     C76790  -0.484   5.930  10.798 -0.2627  0.3636  0.5624
  557MOL0     C76791  -0.603   5.940  10.705  0.1450  1.2185 -0.4540
  557MOL0     C76792  -0.600   6.065  10.622 -0.5987  0.6513  0.4580
  557MOL0     C76793  -0.593   6.162  10.552  0.0830 -0.3214  0.5143
  557MOL0     C76794  -0.097   6.044  11.070 -0.5253 -0.6842  0.2601
  557MOL0     C76795   0.030   6.067  11.050 -0.2792 -0.4658  0.5343
  557MOL0     C76796   0.087   6.200  11.115  0.1211 -0.8255  0.4384
  557MOL0     H76797   0.467   6.085  10.723 -1.0388 -2.9653  0.7334
  557MOL0     H76798   0.711   6.075  10.732  0.4399 -1.0853  0.6422
  557MOL0     H76799   0.954   6.119  11.137 -0.1509  0.9228  0.9413
  557MOL0     H76800   0.868   6.261  11.084  1.0409  1.9870 -0.4111
  557MOL0     H76801   1.001   6.313  10.904 -0.6326 -1.7538 -1.8339
  557MOL0     H76802   1.084   6.310  11.058 -4.7580  1.5374  1.3798
  557MOL0     H76803   1.092   6.069  10.868  0.2265 -0.8798  2.4890
  557MOL0     H76804   1.213   6.205  10.867  0.7966 -0.7330 -1.7152
  557MOL0     H76805   1.285   6.151  11.093  1.9627 -1.9685  1.8338
  557MOL0     H76806   1.161   6.028  11.107  1.9502  0.7455  1.3655
  557MOL0     H76807   1.376   6.024  10.891 -0.3956  0.5073  0.1935
  557MOL0     H76808   1.284   5.886  10.965 -1.3866 -0.1455  2.6236
  557MOL0     H76809   1.506   6.060  11.086  0.2735  0.3850  2.0780
  557MOL0     H76810   1.422   5.941  11.180  0.6650  0.5761 -0.1941
  557MOL0     H76811   1.608   5.887  10.943  3.6068  1.5337  2.3744
  557MOL0     H76812   1.479   5.771  10.985 -0.4283  1.1049 -1.4322
  557MOL0     H76813   1.675   5.865  11.203  0.8642  0.6108 -0.8793
  557MOL0     H76814   1.584   5.705  11.183 -1.0759 -0.4109 -1.4337
  557MOL0     H76815   1.864   5.909  10.991  0.2060  0.4014 -1.8216
  557MOL0     H76816   2.039   5.812  10.794 -1.4237  3.7772  3.0568
  557MOL0     H76817   2.081   5.646  10.824  0.6959 -0.5474  2.4209
  557MOL0     H76818   2.251   5.840  10.895 -1.4154 -0.6729 -2.3750
  557MOL0     H76819   2.150   5.840  11.038  1.4244 -1.5683  1.3211
  557MOL0     H76820   2.294   5.689  11.098 -0.1086  0.4001  0.4703
  557MOL0     H76821   2.190   5.578  11.021 -0.6794  0.8101 -1.0865
  557MOL0     H76822   2.347   5.562  10.834 -2.5390  0.1975  1.2724
  557MOL0     H76823   2.424   5.705  10.882 -2.2664  1.3367  0.9586
  557MOL0     H76824   2.614   5.547  10.808 -1.7306  1.4342  0.9132
  557MOL0     H76825   2.946   5.664  10.750 -0.4841  1.3894 -1.5348
  557MOL0     H76826   2.811   5.577  10.683 -1.9843 -1.1598  1.1875
  557MOL0     H76827   2.940   5.486  10.768 -0.0330  0.4516  1.6618
  557MOL0     H76828   3.239   5.815  11.003 -0.3980  0.6170 -0.2116
  557MOL0     H76829   3.480   5.829  11.038  0.2636 -0.9188 -0.2319
  557MOL0     H76830   3.628   5.774  11.391 -0.1424 -0.0738  0.0375
  557MOL0     H76831   3.716   5.628  11.372  1.3580  2.5378  2.9713
  557MOL0     H76832   3.866   5.727  11.211  2.5986  0.0649  1.2735
  557MOL0     H76833   3.794   5.887  11.243 -4.1625 -0.3605  1.8156
  557MOL0     H76834   3.849   5.850  11.497  1.5105  0.5135  0.6604
  557MOL0     H76835   3.980   5.876  11.373  0.2621 -0.5133 -1.8841
  557MOL0     H76836   3.996   5.642  11.345 -2.0455  0.4679 -2.1367
  557MOL0     H76837   3.897   5.617  11.501 -0.9077  2.9958  1.6321
  557MOL0     H76838   4.130   5.802  11.537  1.1423  0.6452  2.0014
  557MOL0     H76839   4.028   5.708  11.643 -1.7118 -0.9158 -1.8466
  557MOL0     H76840   4.221   5.561  11.447 -0.2845 -2.9426  0.0234
  557MOL0     H76841   4.135   5.504  11.589 -0.5221 -0.3783  0.4420
  557MOL0     H76842   4.372   5.694  11.576 -0.8453 -1.7887 -2.9139
  557MOL0     H76843   4.359   5.538  11.662  0.6514  1.4389  1.6532
  557MOL0     H76844   4.207   5.797  11.754  0.3769  0.9455  0.8781
  557MOL0     H76845   4.357   5.737  11.813  0.2448  2.1045 -1.3991
  557MOL0     H76846   3.468   5.527  11.337 -1.6982 -1.4725 -0.3002
  557MOL0     H76847   3.207   5.530  11.324 -1.1932  0.9149 -1.3181
  557MOL0     H76848   2.859   5.565  11.236 -1.3143 -1.9412 -0.0930
  557MOL0     H76849   2.593   5.564  11.225 -2.1091 -1.6136 -0.9460
  557MOL0     H76850   0.708   6.094  11.158 -0.9211  1.6530  0.1456
  557MOL0     H76851   0.448   6.120  11.156  2.1994 -1.6474  2.9728
  557MOL0     H76852   0.092   5.819  10.836 -0.4194  1.0598 -0.6036
  557MOL0     H76853  -0.142   5.785  10.848  0.6040  1.4210 -2.6996
  557MOL0     H76854  -0.390   6.139  11.047 -2.1226 -1.1390  0.8016
  557MOL0     H76855  -0.299   6.103  10.891  0.4087 -2.3866 -1.1009
  557MOL0     H76856  -0.572   6.100  10.893 -0.7846 -0.6754  0.0842
  557MOL0     H76857  -0.550   5.957  10.991 -3.1264  0.2550 -1.4370
  557MOL0     H76858  -0.395   5.963  10.745  0.0417  1.8508  1.9427
  557MOL0     H76859  -0.465   5.826  10.828  3.3828  0.5866 -0.4602
  557MOL0     H76860  -0.696   5.926  10.762 -0.4619 -3.1918 -2.0889
  557MOL0     H76861  -0.610   5.861  10.629 -1.8709  0.6839  0.2077
  557MOL0     H76862  -0.569   6.251  10.497  1.8259 -1.0605  0.0032
  557MOL0     H76863  -0.155   6.107  11.137  0.4026 -1.0701  1.4791
  557MOL0     H76864   0.056   6.198  11.219  3.1028  0.4035  1.4564
  557MOL0     H76865   0.195   6.213  11.108  0.2899 -1.7759  1.2099
  557MOL0     H76866   0.039   6.286  11.066 -1.6998 -1.7157  0.6053
  558MOL0     O76867   8.492   9.189   1.688  0.2090  0.1438  0.4072
  558MOL0     C76868   8.371   9.186   1.663  0.0793  0.0335  0.3829
  558MOL0     O76869   8.319   9.205   1.535 -0.4436 -0.1549 -0.1097
  558MOL0     C76870   8.414   9.199   1.434 -0.7711  0.2539  0.9322
  558MOL0     C76871   8.476   9.310   1.377 -0.0547 -0.2656  0.1979
  558MOL0     C76872   8.580   9.300   1.277  0.0350  0.0366 -0.5895
  558MOL0     C76873   8.620   9.163   1.242  0.1954 -1.9733  0.3105
  558MOL0     O76874   8.727   9.146   1.157 -0.0419 -0.1720 -0.2993
  558MOL0     C76875   8.690   9.082   1.034 -0.1618  0.4727 -0.4769
  558MOL0     C76876   8.814   9.003   0.987 -0.5889  0.0242  0.5038
  558MOL0     C76877   8.954   9.051   1.041  0.2612  0.2717  0.4076
  558MOL0     C76878   8.980   9.199   1.009 -0.8506 -0.4854  0.2163
  558MOL0     C76879   9.111   9.241   1.075 -0.1137 -0.3812 -0.6190
  558MOL0     C76880   9.109   9.237   1.222 -0.1921 -0.4675  0.1817
  558MOL0     C76881   9.256   9.275   1.277 -0.6885 -0.7382  0.5060
  558MOL0     C76882   9.339   9.145   1.279  0.0826 -0.3075 -0.3210
  558MOL0     N76883   9.484   9.164   1.316  0.3905 -0.4101 -2.0078
  558MOL0     C76884   9.538   9.158   1.445  0.2493 -0.4852  0.4697
  558MOL0     C76885   9.668   9.147   1.422  0.2793  0.5054  0.3435
  558MOL0     C76886   9.778   9.131   1.526 -0.8404  0.5336  0.1802
  558MOL0     C76887   9.846   9.267   1.560 -0.4287 -0.3580  0.5876
  558MOL0     C76888   9.960   9.258   1.666  0.1088 -0.6472 -0.3929
  558MOL0     C76889  10.095   9.211   1.611 -0.0326  0.3020 -0.7097
  558MOL0     O76890  10.149   9.312   1.522  0.0675 -0.6436 -0.2610
  558MOL0     C76891  10.271   9.285   1.464  0.0653 -0.4923  0.0988
  558MOL0     C76892  10.354   9.174   1.488 -0.9994  0.1660 -0.4090
  558MOL0     C76893  10.478   9.158   1.429  0.3040 -0.6657  0.1551
  558MOL0     C76894  10.555   9.036   1.481  0.2446 -0.7544  0.5848
  558MOL0     C76895  10.515   9.248   1.335 -0.5701 -0.4160 -0.6408
  558MOL0     C76896  10.652   9.242   1.276 -0.2955 -1.2001  0.4775
  558MOL0     O76897  10.702   9.124   1.236 -0.7576 -0.1761  0.3094
  558MOL0     C76898  10.836   9.115   1.221  0.1913 -0.0009  0.7882
  558MOL0     C76899  10.898   9.179   1.110  0.8009  0.3882 -1.4646
  558MOL0     C76900  11.025   9.183   1.095  0.0444 -0.7973 -0.3157
  558MOL0     C76901  11.114   9.103   1.179  0.6903 -0.5966 -0.2549
  558MOL0     O76902  11.245   9.080   1.171 -0.3475 -0.5874  0.2369
  558MOL0     C76903  11.311   9.137   1.056  0.4478  0.0662  0.0886
  558MOL0     C76904  11.396   9.255   1.086  0.6577  0.1230 -1.0535
  558MOL0     C76905  11.514   9.210   1.170  0.8827 -0.7449 -0.2888
  558MOL0     C76906  11.597   9.329   1.220  0.7304 -0.4345 -0.3786
  558MOL0     C76907  11.733   9.282   1.273 -0.7006  0.7867 -0.3970
  558MOL0     C76908  11.792   9.403   1.334  0.3535  0.4089 -0.7158
  558MOL0     C76909  11.931   9.384   1.396  0.4389  0.0661 -0.0160
  558MOL0     C76910  11.954   9.492   1.500  0.0684 -0.2307 -0.0374
  558MOL0    Cl76911  11.966   9.652   1.405  0.0865 -0.3346 -0.7523
  558MOL0     C76912  11.046   9.037   1.283  0.4170  0.1512 -0.1706
  558MOL0     C76913  10.909   9.040   1.306  0.1359  0.3346 -0.1248
  558MOL0     O76914  10.717   9.351   1.279 -0.1598  0.6017 -0.4195
  558MOL0     C76915  10.438   9.359   1.311  0.4735  0.2380 -0.2290
  558MOL0     C76916  10.313   9.375   1.368 -1.2535  0.5502  0.0352
  558MOL0     N76917   9.688   9.158   1.291 -0.4429 -0.2456  1.0268
  558MOL0     N76918   9.582   9.160   1.228  0.6839 -0.2929  0.2231
  558MOL0     C76919   8.552   9.054   1.299 -0.1878 -0.3308  0.2102
  558MOL0     C76920   8.457   9.065   1.398 -0.2915 -0.4995 -0.2640
  558MOL0     C76921   8.280   9.171   1.773 -0.9364  0.1920  0.0375
  558MOL0     C76922   8.164   9.087   1.761  0.2994  0.1193  0.5770
  558MOL0     C76923   8.074   9.074   1.863 -0.1297  1.0225 -0.2238
  558MOL0     C76924   8.089   9.138   1.982  0.6122 -0.1846  0.1799
  558MOL0     O76925   7.994   9.122   2.080  0.0457 -0.1966 -0.2616
  558MOL0     C76926   7.972   9.219   2.182  0.2654  0.2253  1.3780
  558MOL0     C76927   7.847   9.177   2.257 -0.3370 -0.1549  0.4120
  558MOL0     C76928   7.811   9.270   2.370  0.7681  0.0527  0.0981
  558MOL0     C76929   7.697   9.215   2.453  0.1242  0.3917  0.1384
  558MOL0     C76930   7.749   9.135   2.562 -0.0302 -0.3975 -0.7511
  558MOL0     C76931   7.783   9.067   2.655 -0.2615  0.0368 -0.8684
  558MOL0     C76932   8.196   9.224   1.998 -0.5457 -0.1062  0.7788
  558MOL0     C76933   8.299   9.238   1.898  0.4058 -0.2896 -0.3118
  558MOL0     C76934   8.421   9.323   1.925 -0.0296 -0.1700  0.3845
  558MOL0     H76935   8.441   9.409   1.404 -0.3426 -1.0058  2.8605
  558MOL0     H76936   8.631   9.384   1.230  1.0246 -1.1520 -1.7407
  558MOL0     H76937   8.660   9.157   0.959 -1.1182  0.7572  0.1841
  558MOL0     H76938   8.602   9.018   1.046 -1.3064  2.2162  0.8479
  558MOL0     H76939   8.796   8.897   1.005  0.2622  0.3976  4.6035
  558MOL0     H76940   8.822   9.015   0.878  0.0841 -1.0320  0.4213
  558MOL0     H76941   8.958   9.042   1.150  1.2695 -1.7752  0.2543
  558MOL0     H76942   9.030   8.988   0.993 -0.7648  0.2878 -1.3352
  558MOL0     H76943   8.975   9.226   0.903  2.7973 -0.8745 -0.1995
  558MOL0     H76944   8.897   9.255   1.054  0.0417  2.0245 -1.0343
  558MOL0     H76945   9.132   9.345   1.049  2.7325 -0.9652 -1.0274
  558MOL0     H76946   9.192   9.194   1.018  1.2359  3.1666 -1.9349
  558MOL0     H76947   9.033   9.309   1.252 -0.3059 -0.0683 -1.0206
  558MOL0     H76948   9.100   9.133   1.254  0.0791  0.2288  2.7033
  558MOL0     H76949   9.251   9.315   1.378 -4.1417 -2.5987  1.2350
  558MOL0     H76950   9.309   9.341   1.208 -0.4115 -3.6313 -2.3463
  558MOL0     H76951   9.292   9.067   1.339  2.7743 -0.3822  1.8941
  558MOL0     H76952   9.334   9.112   1.175  0.2525 -1.4696  0.0286
  558MOL0     H76953   9.474   9.157   1.533 -0.2497  0.0935  0.1259
  558MOL0     H76954   9.850   9.058   1.489 -2.1325 -0.8130  0.2388
  558MOL0     H76955   9.735   9.088   1.617  0.3202  2.0180  1.4804
  558MOL0     H76956   9.886   9.312   1.469  1.3080 -1.7820  0.5855
  558MOL0     H76957   9.773   9.343   1.591  1.0095  2.1387 -1.7109
  558MOL0     H76958   9.972   9.361   1.701 -1.2706 -0.5629 -0.1459
  558MOL0     H76959   9.928   9.202   1.754  1.5718  0.1181  0.6778
  558MOL0     H76960  10.155   9.186   1.698 -2.1818 -1.3357  0.4010
  558MOL0     H76961  10.066   9.113   1.572 -1.9110 -0.4816  2.3208
  558MOL0     H76962  10.323   9.102   1.564  0.5631 -0.6027 -0.4632
  558MOL0     H76963  10.649   9.065   1.528  0.8864  0.8195 -1.5292
  558MOL0     H76964  10.592   8.968   1.403  0.0079 -0.9656  0.6537
  558MOL0     H76965  10.501   8.975   1.554  1.7170 -0.8621  1.6320
  558MOL0     H76966  10.833   9.239   1.048 -1.0208  1.9160  1.7033
  558MOL0     H76967  11.067   9.251   1.022  1.5797 -0.2388  1.0424
  558MOL0     H76968  11.375   9.059   1.014  0.7308 -1.3209  2.8699
  558MOL0     H76969  11.245   9.183   0.982  0.1540 -0.0908  0.2511
  558MOL0     H76970  11.420   9.306   0.993  1.5737  1.4325 -0.1415
  558MOL0     H76971  11.332   9.331   1.132 -0.3509 -1.6202  0.5542
  558MOL0     H76972  11.583   9.142   1.118  1.9643  0.2766 -0.2278
  558MOL0     H76973  11.481   9.159   1.261 -0.7033  1.0032  0.1582
  558MOL0     H76974  11.538   9.378   1.298 -0.9237  1.8533 -2.9008
  558MOL0     H76975  11.609   9.407   1.144 -1.3092 -0.3136 -0.6326
  558MOL0     H76976  11.729   9.196   1.341  0.6419 -2.4956 -4.0140
  558MOL0     H76977  11.798   9.260   1.187  2.6715 -0.7846  2.3308
  558MOL0     H76978  11.728   9.434   1.418 -0.1213 -3.6458  0.6380
  558MOL0     H76979  11.809   9.483   1.261  1.5290  0.9195  0.0794
  558MOL0     H76980  12.009   9.385   1.320  1.2140  0.2670  0.7649
  558MOL0     H76981  11.933   9.283   1.440  1.0666 -0.0654 -0.3395
  558MOL0     H76982  12.053   9.483   1.547  1.6354 -2.8407 -3.3285
  558MOL0     H76983  11.874   9.496   1.574  0.7076 -3.6482  1.0313
  558MOL0     H76984  11.106   8.982   1.356  0.0866 -2.6992 -1.8833
  558MOL0     H76985  10.859   8.980   1.381  1.1640 -0.9069 -0.3985
  558MOL0     H76986  10.480   9.428   1.239  0.7148  0.7299  0.3808
  558MOL0     H76987  10.254   9.462   1.340 -0.8496  0.4586 -1.1387
  558MOL0     H76988   8.575   8.951   1.274  0.0962 -0.3868  0.6877
  558MOL0     H76989   8.403   8.984   1.446  1.2823 -1.2700  0.2574
  558MOL0     H76990   8.143   9.026   1.673  1.2176  1.0888 -0.3456
  558MOL0     H76991   7.990   9.005   1.852  2.5582 -2.4414 -0.7117
  558MOL0     H76992   8.041   9.208   2.266 -1.0656 -2.5455  2.2287
  558MOL0     H76993   7.968   9.323   2.149 -1.5320 -0.4811 -0.9171
  558MOL0     H76994   7.858   9.074   2.294  0.8361 -0.5274 -0.8708
  558MOL0     H76995   7.767   9.178   2.182  1.3395  1.9909 -1.4752
  558MOL0     H76996   7.901   9.293   2.428 -0.9177  2.7491  1.8965
  558MOL0     H76997   7.777   9.370   2.341 -1.5795 -0.8031 -0.2907
  558MOL0     H76998   7.635   9.148   2.392  1.8423 -0.9204 -0.2355
  558MOL0     H76999   7.654   9.303   2.503  1.9613  0.6669  1.3048
  558MOL0     H77000   7.821   9.010   2.738  1.8506  1.6920 -0.5982
  558MOL0     H77001   8.212   9.286   2.086  0.4276  2.7382 -1.2663
  558MOL0     H77002   8.507   9.257   1.943 -0.0457 -0.1685  0.4655
  558MOL0     H77003   8.441   9.382   1.835  1.1145  0.0969  0.7958
  558MOL0     H77004   8.414   9.393   2.009  2.7414  1.1885 -0.4083
  559MOL0     O77005   2.856   1.774   2.106  0.0894  0.0219 -0.5635
  559MOL0     C77006   2.754   1.766   2.044  0.2999  0.4767 -0.4758
  559MOL0     O77007   2.737   1.713   1.918 -0.5402 -0.2136 -0.1946
  559MOL0     C77008   2.840   1.659   1.845 -1.3285  0.0383  0.0693
  559MOL0     C77009   2.810   1.579   1.740 -1.0959 -0.1281  0.1200
  559MOL0     C77010   2.907   1.524   1.654  0.0051 -0.6063 -0.0648
  559MOL0     C77011   3.043   1.543   1.674  0.0350 -0.6839 -0.6866
  559MOL0     O77012   3.126   1.470   1.598 -0.2366  0.2539  0.2015
  559MOL0     C77013   3.260   1.519   1.591  0.2164 -0.3962 -0.4820
  559MOL0     C77014   3.334   1.460   1.472  0.7669  0.3968  0.7226
  559MOL0     C77015   3.473   1.514   1.457 -0.0300 -0.0191  0.5021
  559MOL0     C77016   3.562   1.403   1.402 -0.3126  0.0603 -0.1809
  559MOL0     C77017   3.692   1.474   1.360 -0.0908 -0.5964  0.2307
  559MOL0     C77018   3.782   1.381   1.284  0.7026  0.2824  0.7867
  559MOL0     C77019   3.855   1.264   1.356 -0.2588 -0.3694 -0.4426
  559MOL0     C77020   3.900   1.149   1.263 -0.7013  0.2938 -0.1644
  559MOL0     N77021   4.004   1.062   1.324  0.7584  0.7364  0.7898
  559MOL0     C77022   3.990   0.931   1.361 -0.1173 -0.4269 -0.0470
  559MOL0     C77023   4.117   0.879   1.369 -0.2455 -0.6777 -0.4697
  559MOL0     C77024   4.158   0.739   1.395  0.2503 -0.2390 -0.4375
  559MOL0     C77025   4.236   0.698   1.274  0.9305  0.2629  1.2608
  559MOL0     C77026   4.268   0.548   1.290  0.3500 -0.4412  0.7050
  559MOL0     C77027   4.300   0.485   1.149  0.5455 -0.1655  0.7569
  559MOL0     O77028   4.414   0.552   1.081  0.2253 -0.6534 -0.5489
  559MOL0     C77029   4.435   0.530   0.950 -0.4814 -0.3162 -0.2365
  559MOL0     C77030   4.547   0.590   0.904 -0.4905 -0.1649 -0.1231
  559MOL0     C77031   4.583   0.585   0.770  0.0252  0.2585  0.6689
  559MOL0     C77032   4.692   0.679   0.726 -0.3756  0.1168  0.1988
  559MOL0     C77033   4.496   0.505   0.687  0.2792  0.3114  0.2365
  559MOL0     C77034   4.520   0.482   0.539 -0.1537 -0.4466 -0.6544
  559MOL0     O77035   4.468   0.366   0.483  0.6135  0.5349  0.1094
  559MOL0     C77036   4.468   0.352   0.347  0.0060  0.3431 -0.9367
  559MOL0     C77037   4.587   0.335   0.275  0.6729 -1.6589 -0.2083
  559MOL0     C77038   4.582   0.324   0.139 -0.9808 -0.0663 -0.6905
  559MOL0     C77039   4.466   0.320   0.074 -0.1212 -0.5294 -0.1019
  559MOL0     O77040   4.455   0.308  -0.065  0.1694 -1.2844 -0.2918
  559MOL0     C77041   4.489   0.422  -0.144 -0.3283  0.3753  0.8241
  559MOL0     C77042   4.595   0.366  -0.247 -1.0154 -0.1572 -0.8461
  559MOL0     C77043   4.543   0.268  -0.356  0.5201  0.2907 -0.4053
  559MOL0     C77044   4.644   0.246  -0.475  0.4944 -0.8510  0.4834
  559MOL0     C77045   4.579   0.159  -0.589  0.3786 -0.6516  0.0154
  559MOL0     C77046   4.675   0.096  -0.688 -0.9566  0.4751  0.2048
  559MOL0     C77047   4.597   0.046  -0.810 -0.8723 -0.1598  0.3968
  559MOL0     C77048   4.698  -0.005  -0.911 -0.5578 -0.1583  0.5881
  559MOL0    Cl77049   4.618  -0.065  -1.056  0.0053  0.0748 -0.1030
  559MOL0     C77050   4.343   0.328   0.136 -0.0724  0.6395  0.6427
  559MOL0     C77051   4.341   0.340   0.278 -0.0271 -0.4965 -0.2448
  559MOL0     O77052   4.590   0.562   0.477  0.0864  0.4543  0.1408
  559MOL0     C77053   4.389   0.432   0.745  0.7453 -0.2158  0.2630
  559MOL0     C77054   4.350   0.458   0.873 -0.6796 -0.1177 -0.4015
  559MOL0     N77055   4.206   0.978   1.344 -0.1642 -0.2770 -0.0682
  559MOL0     N77056   4.139   1.086   1.315  0.2631  0.2786 -0.4308
  559MOL0     C77057   3.080   1.621   1.779  0.3313 -0.5125  0.4868
  559MOL0     C77058   2.985   1.689   1.858  0.3012 -0.1067 -1.0778
  559MOL0     C77059   2.620   1.814   2.102 -0.4436  0.9015  0.0210
  559MOL0     C77060   2.509   1.744   2.061  0.3596 -0.4544  0.4286
  559MOL0     C77061   2.380   1.764   2.123  0.4261  0.1109 -0.3079
  559MOL0     C77062   2.358   1.859   2.220  0.4259  0.5244 -0.3297
  559MOL0     O77063   2.234   1.898   2.272  0.3438 -0.3265 -0.2722
  559MOL0     C77064   2.111   1.843   2.222  0.1093  1.0079 -0.7981
  559MOL0     C77065   2.109   1.701   2.286  0.5159  0.0029 -0.4766
  559MOL0     C77066   2.002   1.699   2.393  0.3619 -0.5922 -0.6875
  559MOL0     C77067   2.000   1.562   2.481 -0.2106 -0.1622  0.1159
  559MOL0     C77068   2.120   1.530   2.567 -0.7732  0.4177  0.6141
  559MOL0     C77069   2.220   1.510   2.637 -0.5657 -0.9837 -0.1725
  559MOL0     C77070   2.473   1.923   2.256 -0.2430 -0.5778  1.2835
  559MOL0     C77071   2.597   1.905   2.205 -1.6500 -0.6653 -0.1911
  559MOL0     C77072   2.705   1.983   2.262 -0.2891  0.4915  0.5214
  559MOL0     H77073   2.708   1.545   1.724 -0.4375 -2.3274  0.2713
  559MOL0     H77074   2.874   1.445   1.587 -0.8468 -0.1189 -0.2358
  559MOL0     H77075   3.313   1.502   1.685 -0.0850  1.4027  0.0527
  559MOL0     H77076   3.263   1.626   1.569  2.0571 -0.2713  0.2397
  559MOL0     H77077   3.335   1.351   1.478  0.5266  0.1780 -2.0746
  559MOL0     H77078   3.279   1.482   1.380 -0.6362 -2.0785  0.8952
  559MOL0     H77079   3.465   1.603   1.394  0.9363 -0.5420 -0.3911
  559MOL0     H77080   3.509   1.551   1.553 -2.1891  3.4441  0.1568
  559MOL0     H77081   3.568   1.322   1.475 -0.3478 -0.5121 -0.8165
  559MOL0     H77082   3.524   1.357   1.311 -2.2735  0.6339  0.2985
  559MOL0     H77083   3.735   1.512   1.453  0.5588  0.0026 -0.3012
  559MOL0     H77084   3.665   1.556   1.293 -1.5262 -2.0972 -1.1234
  559MOL0     H77085   3.721   1.336   1.205 -0.7544 -0.6461  2.3651
  559MOL0     H77086   3.857   1.440   1.231 -2.2941  2.4966 -1.3176
  559MOL0     H77087   3.793   1.211   1.429  1.1178 -0.2374  0.8629
  559MOL0     H77088   3.939   1.305   1.413 -0.4409 -1.4281  0.6161
  559MOL0     H77089   3.820   1.081   1.233 -1.2197  0.1172  1.5545
  559MOL0     H77090   3.957   1.195   1.182  1.9887 -1.5646  0.5504
  559MOL0     H77091   3.894   0.889   1.387 -0.5672  0.6012  0.0171
  559MOL0     H77092   4.066   0.681   1.407 -0.3047  0.9970  1.8888
  559MOL0     H77093   4.217   0.729   1.486 -2.2130 -0.2938  1.2478
  559MOL0     H77094   4.172   0.723   1.189 -0.7216  1.1799  2.7307
  559MOL0     H77095   4.328   0.756   1.264  1.8316 -1.4119 -1.4800
  559MOL0     H77096   4.357   0.531   1.352  0.1799 -2.0730  0.5540
  559MOL0     H77097   4.183   0.494   1.332 -0.3048  1.3098  1.7257
  559MOL0     H77098   4.324   0.378   1.156 -2.1407 -1.3466 -3.9692
  559MOL0     H77099   4.213   0.493   1.084  2.1621 -2.9112 -2.0342
  559MOL0     H77100   4.604   0.645   0.978 -2.6041  2.4691 -0.2908
  559MOL0     H77101   4.661   0.765   0.666  0.7207  1.1102  1.0136
  559MOL0     H77102   4.759   0.631   0.655 -0.1960  0.3923  0.1816
  559MOL0     H77103   4.747   0.713   0.814  1.7025  1.0857 -1.3935
  559MOL0     H77104   4.675   0.331   0.339 -0.9736  3.8354  3.1350
  559MOL0     H77105   4.674   0.320   0.081 -0.0824  2.7115  0.3866
  559MOL0     H77106   4.401   0.463  -0.194 -0.3430 -0.1918  0.3759
  559MOL0     H77107   4.534   0.502  -0.084 -3.1763  1.3677  1.7909
  559MOL0     H77108   4.652   0.449  -0.290  2.9127 -3.1160 -1.9475
  559MOL0     H77109   4.670   0.314  -0.187 -0.5461 -1.2253 -2.3238
  559MOL0     H77110   4.453   0.317  -0.393  0.5296  1.6915  1.2555
  559MOL0     H77111   4.508   0.172  -0.316  0.2599  0.7462  0.4961
  559MOL0     H77112   4.738   0.203  -0.439 -0.5618 -2.6268  1.2614
  559MOL0     H77113   4.672   0.345  -0.511 -2.5046  2.0818  5.1036
  559MOL0     H77114   4.525   0.075  -0.545  2.3847 -2.0002 -0.0013
  559MOL0     H77115   4.500   0.220  -0.635  3.3763  2.9010 -0.8885
  559MOL0     H77116   4.729   0.016  -0.635 -1.5894  1.0414  1.7693
  559MOL0     H77117   4.745   0.175  -0.717 -1.8214  1.1332 -0.1129
  559MOL0     H77118   4.541   0.133  -0.846  0.2720  0.9137  1.0883
  559MOL0     H77119   4.518  -0.024  -0.783  0.5169 -0.5834  4.0655
  559MOL0     H77120   4.749  -0.087  -0.860 -0.3230 -1.7278 -1.9729
  559MOL0     H77121   4.762   0.078  -0.940 -0.6094 -0.5218 -0.6123
  559MOL0     H77122   4.249   0.338   0.084 -0.5039  4.2736  1.8165
  559MOL0     H77123   4.249   0.328   0.334  0.6548 -0.5936  0.8816
  559MOL0     H77124   4.324   0.362   0.694 -0.4428  1.1648 -0.1815
  559MOL0     H77125   4.260   0.400   0.892 -1.6727  0.5573 -2.6737
  559MOL0     H77126   3.183   1.644   1.803 -0.2149  1.9015  0.8397
  559MOL0     H77127   3.032   1.752   1.932 -1.3979 -0.9055  0.7762
  559MOL0     H77128   2.504   1.675   1.977 -3.9634 -0.2112  0.2893
  559MOL0     H77129   2.306   1.706   2.069  2.1515 -1.2523 -1.3287
  559MOL0     H77130   2.018   1.896   2.243 -0.3274  0.1653 -0.5224
  559MOL0     H77131   2.115   1.839   2.113 -1.2050  2.8585 -0.9508
  559MOL0     H77132   2.206   1.672   2.327  1.0147  3.9072  1.5726
  559MOL0     H77133   2.081   1.635   2.202 -1.3398 -2.4956  1.9127
  559MOL0     H77134   2.020   1.780   2.464 -2.4623  0.2339 -0.7749
  559MOL0     H77135   1.903   1.718   2.350 -0.4381 -3.2160 -0.1789
  559MOL0     H77136   1.977   1.475   2.420 -0.3855  0.5828 -0.9072
  559MOL0     H77137   1.908   1.560   2.540 -0.5203 -0.4299 -0.3742
  559MOL0     H77138   2.301   1.509   2.708 -1.0126  2.3285  0.5344
  559MOL0     H77139   2.463   1.997   2.335  0.0546 -1.9523  2.6550
  559MOL0     H77140   2.741   1.957   2.362  0.9452  0.4509  0.0916
  559MOL0     H77141   2.787   2.006   2.193  0.2215  1.8918  1.5529
  559MOL0     H77142   2.669   2.084   2.281 -1.4136 -0.2503  2.6022
  560MOL0     O77143   9.995   5.161   8.743 -0.2554 -0.3703 -0.1030
  560MOL0     C77144  10.054   5.069   8.683 -0.5971 -0.0731  0.1438
  560MOL0     O77145  10.179   5.026   8.718  0.2503 -0.4057  0.3261
  560MOL0     C77146  10.242   5.078   8.831 -0.0330  0.7578  0.9788
  560MOL0     C77147  10.190   5.108   8.950 -0.0710  0.7634 -1.3092
  560MOL0     C77148  10.263   5.136   9.067  0.0936 -0.0248  0.2825
  560MOL0     C77149  10.404   5.129   9.060 -1.0507  0.0004  0.2696
  560MOL0     O77150  10.474   5.156   9.169  0.0775 -0.0016 -0.2576
  560MOL0     C77151  10.573   5.268   9.158 -0.6462  0.2405 -0.4532
  560MOL0     C77152  10.622   5.293   9.303 -0.2530  0.0815  0.0285
  560MOL0     C77153  10.501   5.356   9.378 -1.1673  0.6221 -0.2751
  560MOL0     C77154  10.533   5.366   9.525 -0.1026  0.3332  0.5520
  560MOL0     C77155  10.416   5.401   9.609 -0.0861  0.0772 -0.2882
  560MOL0     C77156  10.306   5.286   9.636 -0.5215  0.2317 -0.3348
  560MOL0     C77157  10.340   5.192   9.751 -0.2868 -0.0411 -0.0776
  560MOL0     C77158  10.339   5.251   9.891  0.4686  0.7524  0.1351
  560MOL0     N77159  10.475   5.238   9.954  0.3843  0.5771 -0.5744
  560MOL0     C77160  10.502   5.160  10.066  0.1988 -1.1369 -0.3095
  560MOL0     C77161  10.631   5.161  10.080  0.1257  1.0162 -0.5163
  560MOL0     C77162  10.709   5.087  10.191  0.5181 -1.0562  0.3688
  560MOL0     C77163  10.756   4.950  10.154  0.5128  0.3290  0.5022
  560MOL0     C77164  10.838   4.883  10.265 -0.0942 -0.1071  0.9503
  560MOL0     C77165  10.972   4.953  10.295  1.4290 -0.8774 -0.3161
  560MOL0     O77166  11.022   4.899  10.419  0.1640  0.0576  0.1159
  560MOL0     C77167  11.113   4.799  10.402  0.3418 -0.7762  0.3186
  560MOL0     C77168  11.070   4.670  10.408 -0.3204 -0.0053  0.8812
  560MOL0     C77169  11.159   4.563  10.389  0.0765  0.2841  0.5322
  560MOL0     C77170  11.094   4.422  10.410  0.5605 -0.1659  0.4548
  560MOL0     C77171  11.290   4.582  10.354  0.9575 -0.5358 -0.0357
  560MOL0     C77172  11.387   4.475  10.325  0.1768 -0.4048 -0.4437
  560MOL0     O77173  11.515   4.520  10.319  0.4451 -0.1872 -0.7711
  560MOL0     C77174  11.615   4.440  10.264  0.8682  0.1554 -0.0256
  560MOL0     C77175  11.689   4.500  10.165 -0.4092 -0.5412 -0.5449
  560MOL0     C77176  11.790   4.430  10.086 -0.3080  0.2297 -1.0591
  560MOL0     C77177  11.804   4.293  10.095 -1.4788  0.2128 -0.6167
  560MOL0     O77178  11.889   4.214  10.018  0.0190 -0.2097 -0.0903
  560MOL0     C77179  11.937   4.275   9.894 -0.1717  0.2962  0.3842
  560MOL0     C77180  11.987   4.179   9.777 -0.5518  0.5665  0.5252
  560MOL0     C77181  12.002   4.254   9.643 -0.1897  0.2605  0.7300
  560MOL0     C77182  12.077   4.180   9.535 -0.2030 -0.2459  0.6808
  560MOL0     C77183  12.060   4.250   9.388  0.2150 -0.0846  0.1773
  560MOL0     C77184  12.120   4.163   9.286  0.1336 -0.1206  0.0718
  560MOL0     C77185  12.081   4.207   9.139  0.4261  0.1517  0.4552
  560MOL0     C77186  12.158   4.126   9.033 -0.6525 -0.2869 -0.2388
  560MOL0    Cl77187  12.335   4.160   9.034  0.3357  0.2387  0.4948
  560MOL0     C77188  11.716   4.229  10.195 -0.3943  1.1519 -0.9239
  560MOL0     C77189  11.634   4.296  10.278  1.0360 -0.5441  0.0185
  560MOL0     O77190  11.347   4.360  10.310 -0.5056 -0.4045  0.8699
  560MOL0     C77191  11.334   4.716  10.366  0.2781  0.4357 -0.0156
  560MOL0     C77192  11.245   4.821  10.389  0.1601 -0.4591  0.2831
  560MOL0     N77193  10.683   5.244   9.982  0.3798  0.5863  0.3219
  560MOL0     N77194  10.594   5.281   9.900  0.0857 -0.0916 -0.2481
  560MOL0     C77195  10.467   5.103   8.933  0.6162 -0.2496  0.0247
  560MOL0     C77196  10.380   5.082   8.821 -1.5791 -0.0353 -0.7729
  560MOL0     C77197   9.991   4.989   8.573  0.4218 -0.2228  1.0854
  560MOL0     C77198  10.033   4.852   8.560  0.0862 -0.1762  0.3494
  560MOL0     C77199   9.981   4.775   8.461 -0.2758 -0.3530 -0.4365
  560MOL0     C77200   9.887   4.820   8.371  0.1827  0.5129  0.0676
  560MOL0     O77201   9.825   4.743   8.273 -0.9175 -0.5548  0.0543
  560MOL0     C77202   9.859   4.606   8.263 -0.2152  0.6383 -0.2649
  560MOL0     C77203   9.774   4.519   8.176 -0.4272  0.1062 -0.5600
  560MOL0     C77204   9.632   4.495   8.224  0.0433 -0.0865 -1.0033
  560MOL0     C77205   9.615   4.417   8.351  1.0326 -0.3864  0.0736
  560MOL0     C77206   9.680   4.286   8.352  0.0144  1.1230  0.0423
  560MOL0     C77207   9.744   4.179   8.355  0.2684 -0.6668 -0.1261
  560MOL0     C77208   9.852   4.955   8.377  0.3582 -0.0217 -0.3554
  560MOL0     C77209   9.895   5.039   8.479  0.2337 -0.2769  0.1223
  560MOL0     C77210   9.841   5.192   8.480 -0.8094 -0.0977 -0.4603
  560MOL0     H77211  10.085   5.129   8.965  0.0205  0.5914 -0.3391
  560MOL0     H77212  10.221   5.162   9.163  1.4911  1.1391  0.6140
  560MOL0     H77213  10.525   5.362   9.129 -0.2186  1.0513  1.3043
  560MOL0     H77214  10.658   5.237   9.096  0.5297  1.7088  0.3508
  560MOL0     H77215  10.665   5.207   9.355 -0.0885  0.5606  0.7018
  560MOL0     H77216  10.703   5.366   9.295  2.6609 -2.5294  2.7363
  560MOL0     H77217  10.472   5.455   9.341 -0.4790  0.8311 -0.2723
  560MOL0     H77218  10.415   5.294   9.353 -2.6137  2.9640 -1.5087
  560MOL0     H77219  10.567   5.270   9.563  0.5814 -0.3338 -1.5965
  560MOL0     H77220  10.614   5.440   9.532  1.9472 -1.6786 -0.7454
  560MOL0     H77221  10.371   5.492   9.568 -1.9887  0.1514  1.7940
  560MOL0     H77222  10.464   5.440   9.699  0.7342  0.5724 -0.9258
  560MOL0     H77223  10.224   5.346   9.677  2.7002  2.9285  2.7704
  560MOL0     H77224  10.285   5.222   9.550 -1.0275 -0.2556  0.1431
  560MOL0     H77225  10.439   5.156   9.719  0.5814  2.8557 -0.9314
  560MOL0     H77226  10.270   5.108   9.752  0.4535 -0.7775 -2.4433
  560MOL0     H77227  10.323   5.359   9.885  0.5151  0.8401  1.3412
  560MOL0     H77228  10.258   5.198   9.941  0.6862  1.1351  0.9166
  560MOL0     H77229  10.429   5.119  10.135 -1.3244 -0.7156 -1.6071
  560MOL0     H77230  10.647   5.071  10.279 -2.6756  0.9309 -1.3424
  560MOL0     H77231  10.795   5.150  10.216 -0.5471  0.5810  0.0417
  560MOL0     H77232  10.667   4.889  10.139 -1.2764  3.0231 -0.6552
  560MOL0     H77233  10.815   4.954  10.062 -2.0147  0.2270 -1.2241
  560MOL0     H77234  10.790   4.883  10.363  0.4077 -1.9180  1.2324
  560MOL0     H77235  10.862   4.780  10.238 -0.8542  0.0192 -0.3016
  560MOL0     H77236  11.053   4.928  10.226  3.7425  0.9803  1.5705
  560MOL0     H77237  10.964   5.062  10.298  1.2981 -0.8989  0.1736
  560MOL0     H77238  10.962   4.660  10.412 -0.2488 -0.9348  0.6489
  560MOL0     H77239  11.085   4.376  10.311 -0.0484  1.0605 -0.0826
  560MOL0     H77240  10.995   4.437  10.455  0.1443  3.5538 -1.2632
  560MOL0     H77241  11.157   4.362  10.476  1.7027  1.5986  1.0698
  560MOL0     H77242  11.671   4.606  10.160 -0.7629 -0.5961 -0.4537
  560MOL0     H77243  11.853   4.489  10.021 -0.7865  0.3375 -1.4288
  560MOL0     H77244  11.854   4.327   9.844  0.4657 -1.2086 -2.4517
  560MOL0     H77245  12.012   4.351   9.922 -1.2568  1.8034 -0.6013
  560MOL0     H77246  12.087   4.147   9.808 -1.1805  0.2589  2.3709
  560MOL0     H77247  11.927   4.087   9.773 -1.1546  0.7791  2.9383
  560MOL0     H77248  12.058   4.348   9.647  2.1941 -0.6676 -3.9400
  560MOL0     H77249  11.905   4.275   9.597  1.3474  2.9929 -1.6250
  560MOL0     H77250  12.025   4.084   9.543  0.0234 -0.2514  2.5356
  560MOL0     H77251  12.181   4.172   9.566 -0.2764  1.8017  1.6291
  560MOL0     H77252  11.954   4.256   9.360  0.9697 -0.5397 -3.2000
  560MOL0     H77253  12.092   4.354   9.394 -3.1754  1.1736 -1.3308
  560MOL0     H77254  12.094   4.059   9.308  2.4757 -1.0107 -1.0567
  560MOL0     H77255  12.229   4.172   9.297  0.3571 -3.2598  1.5103
  560MOL0     H77256  12.114   4.310   9.127  0.7451 -0.2050 -2.4606
  560MOL0     H77257  11.973   4.210   9.123  0.3710  0.1017  0.8266
  560MOL0     H77258  12.125   4.164   8.936 -1.1015 -0.3721 -0.1230
  560MOL0     H77259  12.145   4.018   9.047  0.4237 -0.4912 -0.7468
  560MOL0     H77260  11.704   4.121  10.186 -0.7788  1.1795 -0.7295
  560MOL0     H77261  11.574   4.236  10.346 -0.6312 -0.6283 -1.4244
  560MOL0     H77262  11.437   4.742  10.345  0.6006 -0.6061  0.2022
  560MOL0     H77263  11.290   4.920  10.384 -0.3838 -0.2478 -1.3053
  560MOL0     H77264  10.574   5.104   8.920  0.6861  1.7050  0.3410
  560MOL0     H77265  10.433   5.068   8.727  0.3417  0.2855  0.2195
  560MOL0     H77266  10.110   4.818   8.628  0.5464 -0.1680 -0.1629
  560MOL0     H77267   9.999   4.668   8.463 -1.5853 -0.5873 -0.1954
  560MOL0     H77268   9.963   4.600   8.230  1.1857 -0.7568  3.8916
  560MOL0     H77269   9.855   4.555   8.359  2.7923  0.1302 -0.3202
  560MOL0     H77270   9.823   4.427   8.144  0.0960  0.0614  0.3397
  560MOL0     H77271   9.775   4.570   8.079  1.7363 -4.8412 -3.4959
  560MOL0     H77272   9.576   4.589   8.233 -1.4377 -0.9135 -1.2271
  560MOL0     H77273   9.593   4.434   8.141  1.2968 -0.1287 -1.5765
  560MOL0     H77274   9.509   4.408   8.377  0.4499 -0.1029 -1.9772
  560MOL0     H77275   9.661   4.482   8.425 -5.0123  2.3241  2.0531
  560MOL0     H77276   9.813   4.102   8.382  1.0327 -0.7921 -2.2393
  560MOL0     H77277   9.773   4.991   8.311  0.0485  2.1473  1.0737
  560MOL0     H77278   9.855   5.238   8.382 -0.8612  0.2650 -0.3006
  560MOL0     H77279   9.734   5.192   8.503 -0.7301 -1.4967 -0.0201
  560MOL0     H77280   9.887   5.261   8.552 -2.0584  3.0044 -2.4024
  561MOL0     O77281   3.199   4.619   4.274  0.5125 -0.8295  0.4113
  561MOL0     C77282   3.309   4.649   4.234 -0.7542  0.7056  0.2923
  561MOL0     O77283   3.361   4.631   4.104  0.0964  0.3266  0.3283
  561MOL0     C77284   3.278   4.587   4.000 -0.1529 -1.0611 -0.1251
  561MOL0     C77285   3.255   4.656   3.879  0.3988  0.0208  1.0808
  561MOL0     C77286   3.161   4.617   3.781  0.1625  0.2374  0.0197
  561MOL0     C77287   3.099   4.490   3.796  0.1692  0.9148  0.2301
  561MOL0     O77288   3.037   4.417   3.700  0.2900  1.0361 -0.3977
  561MOL0     C77289   3.045   4.458   3.570 -1.2547  0.0340 -0.1536
  561MOL0     C77290   2.954   4.366   3.489 -0.1949 -0.2707 -0.2069
  561MOL0     C77291   2.911   4.442   3.351  0.6110 -0.3539  1.3048
  561MOL0     C77292   2.807   4.562   3.377  0.0254  0.2664  0.3366
  561MOL0     C77293   2.662   4.516   3.400 -0.3808 -0.2824  0.3009
  561MOL0     C77294   2.580   4.613   3.482 -0.3470 -0.4684  0.0867
  561MOL0     C77295   2.426   4.570   3.479  0.2892 -0.2084  0.7322
  561MOL0     C77296   2.331   4.679   3.525  1.0634 -0.5985 -0.3417
  561MOL0     N77297   2.192   4.621   3.527  0.0307 -0.2131 -0.0796
  561MOL0     C77298   2.145   4.498   3.583  0.5513 -0.8837 -0.0648
  561MOL0     C77299   2.026   4.471   3.518  0.2776  0.1868  0.4107
  561MOL0     C77300   1.944   4.349   3.537  0.4244 -0.0916 -0.7052
  561MOL0     C77301   1.868   4.285   3.422 -0.0144 -0.1562  0.6492
  561MOL0     C77302   1.784   4.167   3.459  0.3749 -0.5175  0.3698
  561MOL0     C77303   1.726   4.096   3.340 -0.5751  0.3313  1.0082
  561MOL0     O77304   1.727   3.953   3.368  0.0653 -0.0713  0.5628
  561MOL0     C77305   1.625   3.876   3.319 -0.3806  0.6660 -0.6137
  561MOL0     C77306   1.631   3.742   3.347  0.4575 -0.5220  0.2099
  561MOL0     C77307   1.536   3.648   3.301  0.3380 -0.7783  0.5280
  561MOL0     C77308   1.544   3.510   3.366 -0.0587  0.5067  0.4219
  561MOL0     C77309   1.435   3.690   3.211 -0.1780  0.1492 -0.9966
  561MOL0     C77310   1.323   3.609   3.165 -0.1411  0.3433  0.1527
  561MOL0     O77311   1.229   3.668   3.093  0.7228  0.4116  0.6387
  561MOL0     C77312   1.107   3.608   3.069  0.3782 -0.1884  0.4210
  561MOL0     C77313   0.990   3.667   3.116  1.0937 -0.3410 -1.0338
  561MOL0     C77314   0.865   3.618   3.080 -0.3501 -0.3714 -0.4140
  561MOL0     C77315   0.841   3.499   3.009 -0.1113 -0.3390  0.1104
  561MOL0     O77316   0.713   3.446   2.994 -0.5680 -0.5501  0.2289
  561MOL0     C77317   0.599   3.504   3.060 -0.1298  1.0217 -0.0603
  561MOL0     C77318   0.478   3.428   3.011  0.0823 -0.1084  0.0279
  561MOL0     C77319   0.363   3.452   3.112 -0.3602 -1.0532 -0.4887
  561MOL0     C77320   0.353   3.349   3.223  0.2012  0.9507  1.1766
  561MOL0     C77321   0.229   3.370   3.312 -0.2408 -0.0585  0.0484
  561MOL0     C77322   0.247   3.279   3.431  1.0080 -0.2700 -0.4920
  561MOL0     C77323   0.142   3.300   3.531 -0.6616  0.4002 -0.1551
  561MOL0     C77324  -0.004   3.261   3.491 -0.5026 -0.2915  0.1651
  561MOL0    Cl77325  -0.086   3.240   3.639  0.0298  0.2203  0.1195
  561MOL0     C77326   0.960   3.435   2.979  0.6985  0.3448 -0.4295
  561MOL0     C77327   1.083   3.486   2.998 -0.0972  0.0145 -0.2449
  561MOL0     O77328   1.331   3.487   3.185 -0.0252 -0.0023 -0.0474
  561MOL0     C77329   1.443   3.824   3.168  0.5919  1.2969 -0.0578
  561MOL0     C77330   1.528   3.919   3.231  1.1104  0.0126 -0.5190
  561MOL0     N77331   2.000   4.568   3.421 -0.4776  0.7216  0.4554
  561MOL0     N77332   2.096   4.661   3.431  0.0211  0.6454 -0.4068
  561MOL0     C77333   3.123   4.416   3.914  0.8546  0.2731  0.2270
  561MOL0     C77334   3.211   4.464   4.018  0.1335  0.5831  0.0383
  561MOL0     C77335   3.409   4.698   4.343 -0.2749  0.7032 -0.5006
  561MOL0     C77336   3.545   4.673   4.315 -0.1350  0.2558  0.7063
  561MOL0     C77337   3.647   4.715   4.394  0.9142  0.9445  0.4337
  561MOL0     C77338   3.617   4.768   4.516 -0.5080  0.6939  0.5413
  561MOL0     O77339   3.720   4.817   4.587  0.2951  0.2078  0.4856
  561MOL0     C77340   3.714   4.775   4.722  0.5472  0.2168 -1.3643
  561MOL0     C77341   3.808   4.664   4.762  0.0550 -0.1925  0.2434
  561MOL0     C77342   3.954   4.683   4.696 -0.2257  1.1487 -1.3669
  561MOL0     C77343   4.037   4.561   4.724  0.4756  0.4833 -0.5609
  561MOL0     C77344   4.167   4.572   4.646  0.2123 -0.0466 -0.2617
  561MOL0     C77345   4.266   4.587   4.581 -0.3780 -0.6281  0.1633
  561MOL0     C77346   3.483   4.793   4.549  0.5575  0.2144  0.3913
  561MOL0     C77347   3.378   4.755   4.462 -0.0103 -0.6774  0.1626
  561MOL0     C77348   3.238   4.788   4.511  0.3711  0.9153 -0.4589
  561MOL0     H77349   3.316   4.743   3.861 -0.5805  0.2114 -1.6999
  561MOL0     H77350   3.164   4.666   3.684 -0.7804 -2.4816 -1.5160
  561MOL0     H77351   3.144   4.443   3.527 -0.8163  1.4102  0.3537
  561MOL0     H77352   3.019   4.564   3.560 -0.4365  0.1905 -0.7420
  561MOL0     H77353   3.021   4.281   3.471 -0.5136 -0.1762 -2.0044
  561MOL0     H77354   2.866   4.325   3.539  0.7237 -0.4401  1.3321
  561MOL0     H77355   3.000   4.491   3.312  0.2773  1.2065  2.3998
  561MOL0     H77356   2.872   4.378   3.272  1.9758  0.3183  0.0427
  561MOL0     H77357   2.852   4.617   3.461  0.8330 -0.5366  0.4458
  561MOL0     H77358   2.814   4.630   3.291  0.9031  1.1008  1.0332
  561MOL0     H77359   2.667   4.415   3.443  0.5903 -0.9140 -1.2075
  561MOL0     H77360   2.620   4.505   3.299  1.1368 -0.1230 -0.3807
  561MOL0     H77361   2.611   4.620   3.587 -3.6503  3.0412  1.0429
  561MOL0     H77362   2.588   4.713   3.439  1.7568 -0.2210  0.9226
  561MOL0     H77363   2.422   4.482   3.545 -2.0177 -2.2181 -1.8535
  561MOL0     H77364   2.387   4.545   3.380  2.8375  0.0646 -0.4278
  561MOL0     H77365   2.366   4.714   3.623  3.9385 -2.7909 -0.4468
  561MOL0     H77366   2.345   4.759   3.452  2.2264  0.7967  1.3253
  561MOL0     H77367   2.192   4.424   3.646  1.1476 -1.3484 -1.0392
  561MOL0     H77368   1.875   4.374   3.618  0.5543  1.4917 -1.0623
  561MOL0     H77369   2.017   4.279   3.578 -1.0094 -1.4728 -0.3872
  561MOL0     H77370   1.805   4.363   3.377  1.3229 -0.1413 -1.3242
  561MOL0     H77371   1.944   4.258   3.348  0.3333  0.7015  0.6738
  561MOL0     H77372   1.839   4.100   3.525 -1.0724 -1.8390  0.2766
  561MOL0     H77373   1.706   4.202   3.527  0.8013 -1.4871  1.3872
  561MOL0     H77374   1.626   4.136   3.319 -0.4900  0.9272  1.7097
  561MOL0     H77375   1.778   4.118   3.246 -0.9685 -2.2549  0.0898
  561MOL0     H77376   1.701   3.708   3.423  2.9198  2.0550 -0.7333
  561MOL0     H77377   1.464   3.507   3.440  0.8389  2.9032  1.5679
  561MOL0     H77378   1.642   3.499   3.413 -0.3922  1.5972  1.3983
  561MOL0     H77379   1.530   3.435   3.287  1.5155  0.2676  0.3440
  561MOL0     H77380   0.997   3.756   3.179 -0.6260 -1.5361  0.9687
  561MOL0     H77381   0.776   3.674   3.105 -1.6753 -2.4384 -0.2475
  561MOL0     H77382   0.622   3.491   3.166 -1.0227 -1.6077 -0.1209
  561MOL0     H77383   0.581   3.612   3.051 -0.2955  0.9225 -1.1565
  561MOL0     H77384   0.446   3.460   2.911  0.1824 -0.3239 -0.0728
  561MOL0     H77385   0.506   3.323   3.007  0.1270 -0.0883 -0.2180
  561MOL0     H77386   0.273   3.452   3.049  0.7941 -1.3086 -2.1979
  561MOL0     H77387   0.372   3.547   3.165 -0.5731 -0.8472 -0.8128
  561MOL0     H77388   0.447   3.360   3.279  2.2481  3.2973 -2.3413
  561MOL0     H77389   0.345   3.252   3.173 -1.5728  3.1291 -3.2451
  561MOL0     H77390   0.223   3.474   3.345  0.2048 -0.0417  0.0828
  561MOL0     H77391   0.132   3.356   3.262  0.1824 -0.8552 -0.5793
  561MOL0     H77392   0.342   3.309   3.476  0.5578  0.1131  0.2095
  561MOL0     H77393   0.236   3.175   3.399 -2.7910 -0.0305 -0.3702
  561MOL0     H77394   0.149   3.402   3.570 -2.1576 -0.3268  2.2091
  561MOL0     H77395   0.165   3.224   3.606 -0.2636 -2.6028 -3.0866
  561MOL0     H77396  -0.007   3.163   3.442  1.5698  0.8144 -2.4405
  561MOL0     H77397  -0.043   3.336   3.421  1.5677 -0.8067 -1.6374
  561MOL0     H77398   0.961   3.337   2.932 -0.2338  0.5210 -0.8301
  561MOL0     H77399   1.172   3.443   2.952  0.8928  1.6582  0.0503
  561MOL0     H77400   1.366   3.867   3.105 -1.6074 -0.9250  0.9187
  561MOL0     H77401   1.507   4.020   3.198 -0.6882 -1.4485 -4.5082
  561MOL0     H77402   3.098   4.311   3.921  0.7930  0.3550  1.4183
  561MOL0     H77403   3.234   4.402   4.104 -1.1381  0.3201  0.1965
  561MOL0     H77404   3.562   4.610   4.228 -1.1678  1.6786 -0.5728
  561MOL0     H77405   3.750   4.690   4.370  0.8760 -0.5380  1.6384
  561MOL0     H77406   3.731   4.861   4.787 -3.0024  2.1773 -2.7526
  561MOL0     H77407   3.619   4.739   4.763  1.1235 -0.0913 -0.2745
  561MOL0     H77408   3.767   4.577   4.711  1.2524 -0.2322 -0.6956
  561MOL0     H77409   3.810   4.642   4.869  0.4676 -2.4852 -0.1933
  561MOL0     H77410   3.951   4.704   4.589  0.5907  1.7107 -1.2884
  561MOL0     H77411   4.006   4.765   4.746 -0.4061  2.0464 -2.6130
  561MOL0     H77412   3.985   4.467   4.704  0.7743 -0.3378  2.1262
  561MOL0     H77413   4.065   4.551   4.829  1.1281 -0.6276 -0.8246
  561MOL0     H77414   4.350   4.602   4.515 -1.3404 -0.3721 -1.0464
  561MOL0     H77415   3.464   4.853   4.638  1.5521  0.4680  0.4470
  561MOL0     H77416   3.207   4.865   4.439 -2.0796  0.4132 -0.0470
  561MOL0     H77417   3.160   4.712   4.509 -0.3473  1.6364 -0.6554
  561MOL0     H77418   3.235   4.816   4.617  0.0297 -1.9814  0.3608
  562MOL0     O77419   0.289  11.241   6.428  0.6630 -0.6179  0.4908
  562MOL0     C77420   0.286  11.130   6.481  0.5961 -0.5504  0.2225
  562MOL0     O77421   0.395  11.059   6.517  0.0336 -0.3173 -0.2470
  562MOL0     C77422   0.521  11.085   6.461  0.8310  0.6081 -0.8161
  562MOL0     C77423   0.579  11.016   6.358  0.2347  0.1820  0.4433
  562MOL0     C77424   0.699  11.040   6.306 -0.6847  0.2050 -0.4821
  562MOL0     C77425   0.771  11.151   6.347 -0.2223  0.8595  0.7444
  562MOL0     O77426   0.885  11.175   6.283 -0.3407 -0.4559 -0.6284
  562MOL0     C77427   0.922  11.316   6.274 -0.2078  0.6637  0.2284
  562MOL0     C77428   1.016  11.342   6.164  0.9337 -0.7239  0.4244
  562MOL0     C77429   1.157  11.335   6.203  0.7600  0.1630 -0.1540
  562MOL0     C77430   1.247  11.342   6.083 -0.7858  0.3601 -0.6456
  562MOL0     C77431   1.391  11.306   6.123 -0.4204  0.4121 -0.2569
  562MOL0     C77432   1.471  11.273   5.999  0.5592  0.9449 -0.5994
  562MOL0     C77433   1.632  11.265   6.010 -0.2403 -0.0253 -0.0311
  562MOL0     C77434   1.700  11.203   5.883 -0.1950 -0.1492 -0.0607
  562MOL0     N77435   1.826  11.133   5.919  0.3650 -0.5920 -0.0381
  562MOL0     C77436   1.872  11.022   5.852 -0.4209 -0.0766  0.8416
  562MOL0     C77437   1.994  10.998   5.916  0.4477 -0.3363 -0.1094
  562MOL0     C77438   2.099  10.907   5.847  0.0310 -0.7477  0.0563
  562MOL0     C77439   2.218  10.868   5.945  0.4499 -0.7845  0.2190
  562MOL0     C77440   2.298  10.743   5.909 -0.1455  0.3719  0.3449
  562MOL0     C77441   2.352  10.741   5.768 -0.1548 -0.4274  0.2423
  562MOL0     O77442   2.466  10.832   5.748 -0.0355 -0.5725  0.1015
  562MOL0     C77443   2.577  10.822   5.828  0.4850 -0.3569  0.1884
  562MOL0     C77444   2.645  10.704   5.848  0.1038 -0.4040  0.5950
  562MOL0     C77445   2.760  10.697   5.925  0.3129  0.5944  0.9144
  562MOL0     C77446   2.812  10.552   5.949 -0.4534 -1.1327  0.0216
  562MOL0     C77447   2.815  10.815   5.983 -0.1081 -0.1006 -0.2588
  562MOL0     C77448   2.930  10.820   6.076 -0.5484  0.7727  0.6334
  562MOL0     O77449   2.988  10.941   6.093  0.3567 -0.3217  0.4056
  562MOL0     C77450   3.101  10.957   6.178  0.3832  0.1513  1.5144
  562MOL0     C77451   3.102  10.904   6.303  0.2232 -0.3465 -0.5004
  562MOL0     C77452   3.213  10.929   6.389 -0.4523  0.3163 -0.9748
  562MOL0     C77453   3.319  11.008   6.346 -0.4384  0.1611 -0.2613
  562MOL0     O77454   3.438  11.031   6.416  0.1632  0.0434 -0.4229
  562MOL0     C77455   3.444  11.039   6.558  0.5588  0.4888 -0.6765
  562MOL0     C77456   3.376  11.172   6.601 -0.3527 -0.8174  0.6116
  562MOL0     C77457   3.406  11.208   6.746 -0.1531 -0.0550  0.0337
  562MOL0     C77458   3.396  11.097   6.857 -0.1901 -0.8139  0.2210
  562MOL0     C77459   3.253  11.066   6.915 -0.1283  0.0762 -0.1565
  562MOL0     C77460   3.153  11.007   6.807  0.1846 -0.1335 -1.1273
  562MOL0     C77461   3.019  10.943   6.867 -0.2745  0.4120  0.3259
  562MOL0     C77462   2.934  10.884   6.756 -0.0269 -0.1855  0.3980
  562MOL0    Cl77463   2.875  11.017   6.646  0.5514 -0.2360  0.6354
  562MOL0     C77464   3.311  11.076   6.220 -0.1365 -0.2323 -0.1817
  562MOL0     C77465   3.194  11.052   6.139 -0.0230 -0.2542 -0.6651
  562MOL0     O77466   2.968  10.708   6.126  0.3733 -0.2705 -0.0367
  562MOL0     C77467   2.752  10.939   5.952  0.3344 -1.2122  0.2835
  562MOL0     C77468   2.635  10.943   5.876 -0.2834  0.0867  0.0604
  562MOL0     N77469   2.019  11.099   6.007 -0.4638  0.0073 -0.9495
  562MOL0     N77470   1.923  11.186   6.000  0.1875  0.2586  0.1311
  562MOL0     C77471   0.707  11.236   6.445 -0.5003  0.7619 -0.5952
  562MOL0     C77472   0.592  11.192   6.517 -1.1352  0.2942 -0.0259
  562MOL0     C77473   0.150  11.091   6.514 -0.5093  1.6204  0.1378
  562MOL0     C77474   0.042  11.172   6.486 -0.0299  0.0544  0.8274
  562MOL0     C77475  -0.091  11.138   6.524  0.2552  0.2969 -0.2349
  562MOL0     C77476  -0.124  11.028   6.608  0.5383 -0.0888 -0.7385
  562MOL0     O77477  -0.255  11.001   6.651 -0.2558 -0.1735 -0.4437
  562MOL0     C77478  -0.351  11.021   6.549 -0.1977  0.4979  0.6991
  562MOL0     C77479  -0.485  10.935   6.583 -0.4466  0.5395  0.0044
  562MOL0     C77480  -0.458  10.786   6.612  0.6727 -0.8897  0.1212
  562MOL0     C77481  -0.566  10.726   6.702 -0.2210  1.1520  0.4524
  562MOL0     C77482  -0.683  10.682   6.625  0.8924  0.7506  0.2314
  562MOL0     C77483  -0.785  10.656   6.563  0.0010 -0.6075 -0.0656
  562MOL0     C77484  -0.014  10.947   6.642 -0.0816  0.5562 -0.1066
  562MOL0     C77485   0.113  10.971   6.592  0.4740  0.6213 -0.0665
  562MOL0     C77486   0.221  10.870   6.636  0.0366 -0.5827  0.3568
  562MOL0     H77487   0.515  10.934   6.328 -2.3378  0.2445  4.9331
  562MOL0     H77488   0.749  10.977   6.232  2.7480  0.4769  1.4004
  562MOL0     H77489   0.959  11.347   6.372 -3.3262 -1.7831  2.3702
  562MOL0     H77490   0.834  11.378   6.253 -0.8400 -0.0529  0.7184
  562MOL0     H77491   1.005  11.281   6.074 -1.3070  2.0664 -1.3891
  562MOL0     H77492   0.989  11.441   6.126 -3.5608 -1.5477  0.8957
  562MOL0     H77493   1.178  11.418   6.271 -0.5778  1.3811 -1.1585
  562MOL0     H77494   1.168  11.234   6.244 -0.9190  0.0659  0.1253
  562MOL0     H77495   1.220  11.269   6.006 -0.9736  0.8221 -1.0251
  562MOL0     H77496   1.239  11.443   6.042 -1.2288  0.5730 -0.0477
  562MOL0     H77497   1.397  11.220   6.190 -3.8457  1.1830  1.2456
  562MOL0     H77498   1.433  11.396   6.169  2.5585 -1.7419  1.5931
  562MOL0     H77499   1.442  11.172   5.967 -3.3633  1.2538  1.4756
  562MOL0     H77500   1.446  11.352   5.928 -2.4055  0.8124  0.1647
  562MOL0     H77501   1.655  11.205   6.099 -2.8728 -0.9808  0.0897
  562MOL0     H77502   1.662  11.370   6.019 -1.9647  0.6492 -1.6407
  562MOL0     H77503   1.642  11.120   5.843  2.9014 -1.7872 -1.5315
  562MOL0     H77504   1.733  11.278   5.810 -0.5207  3.5938  3.2981
  562MOL0     H77505   1.832  10.958   5.774 -0.8617  0.0931  0.9216
  562MOL0     H77506   2.141  10.952   5.757 -2.8358 -2.5247 -2.3779
  562MOL0     H77507   2.055  10.810   5.823 -2.0204  0.3456 -0.8636
  562MOL0     H77508   2.287  10.951   5.965  0.1511 -0.4623 -0.0852
  562MOL0     H77509   2.175  10.850   6.044 -1.4651  2.5287  0.1552
  562MOL0     H77510   2.369  10.699   5.979 -0.1955 -1.6649 -0.8048
  562MOL0     H77511   2.223  10.663   5.905 -0.6344  0.8702 -1.3873
  562MOL0     H77512   2.372  10.640   5.729 -1.4918 -0.5020 -0.3019
  562MOL0     H77513   2.269  10.784   5.711  0.1055 -1.2373 -0.7887
  562MOL0     H77514   2.605  10.613   5.803 -1.7874  0.7031 -0.0424
  562MOL0     H77515   2.748  10.474   5.906 -0.8796 -1.5841  1.3985
  562MOL0     H77516   2.805  10.522   6.055  0.1858 -1.1082  0.0708
  562MOL0     H77517   2.911  10.542   5.904 -0.6682 -0.5282 -0.5927
  562MOL0     H77518   3.014  10.847   6.333 -1.0559  0.9493 -1.5809
  562MOL0     H77519   3.221  10.888   6.489 -2.3529  1.9196 -0.0956
  562MOL0     H77520   3.411  10.944   6.600 -2.0177  0.3139 -2.8068
  562MOL0     H77521   3.547  11.036   6.594 -0.6877  1.6135  3.6773
  562MOL0     H77522   3.408  11.255   6.537  1.5664 -1.0740  1.1768
  562MOL0     H77523   3.268  11.157   6.591 -0.4940  1.2360 -2.0842
  562MOL0     H77524   3.333  11.285   6.771  0.4134 -0.0867  1.9273
  562MOL0     H77525   3.507  11.251   6.749 -0.0578 -0.0286 -1.9350
  562MOL0     H77526   3.463  11.127   6.938 -0.0447  0.8546 -0.4565
  562MOL0     H77527   3.448  11.007   6.825  0.5847 -0.4137  0.3402
  562MOL0     H77528   3.272  10.999   6.999 -1.4982  0.9404  0.8833
  562MOL0     H77529   3.218  11.162   6.954 -1.2549  0.0464 -1.0337
  562MOL0     H77530   3.212  10.942   6.742  2.0849  0.2349  0.1754
  562MOL0     H77531   3.133  11.100   6.752  1.5001 -0.1647 -1.6885
  562MOL0     H77532   2.965  11.001   6.942 -0.4672 -1.0129  1.3458
  562MOL0     H77533   3.032  10.846   6.917 -0.5644 -1.4575 -2.9704
  562MOL0     H77534   2.843  10.831   6.786  0.0551  0.1237  1.2199
  562MOL0     H77535   2.997  10.813   6.701  0.1473  0.0310  0.3176
  562MOL0     H77536   3.390  11.139   6.181 -0.0979  1.4505  2.4120
  562MOL0     H77537   3.186  11.111   6.048 -1.9595 -0.3244 -0.5691
  562MOL0     H77538   2.792  11.029   5.997  0.8118 -0.4440 -1.5956
  562MOL0     H77539   2.584  11.038   5.859  0.6516  0.3786 -1.2933
  562MOL0     H77540   0.762  11.324   6.479  0.7907  0.2429 -1.2534
  562MOL0     H77541   0.549  11.254   6.594 -1.5413  2.1010 -1.6306
  562MOL0     H77542   0.067  11.263   6.432  1.3319 -0.4419  0.5846
  562MOL0     H77543  -0.168  11.212   6.504  1.5871  2.0435  0.7787
  562MOL0     H77544  -0.387  11.123   6.535  1.4537  1.0932  0.5675
  562MOL0     H77545  -0.309  10.995   6.451  0.9842 -1.9824  1.7582
  562MOL0     H77546  -0.560  10.937   6.504 -0.1358 -0.3728 -0.3275
  562MOL0     H77547  -0.524  10.980   6.675 -2.4291  0.6648 -0.8504
  562MOL0     H77548  -0.441  10.740   6.515  0.6239  0.3133 -0.4747
  562MOL0     H77549  -0.369  10.775   6.675 -0.2033 -0.5059  1.4860
  562MOL0     H77550  -0.584  10.808   6.772  0.1558  2.4642 -0.9271
  562MOL0     H77551  -0.539  10.637   6.760 -1.0519  1.0897  0.7509
  562MOL0     H77552  -0.874  10.645   6.504 -0.0516 -0.2753 -0.0535
  562MOL0     H77553  -0.020  10.870   6.717  0.7073 -1.3048 -1.8484
  562MOL0     H77554   0.263  10.896   6.734 -1.9380 -0.3790  1.1862
  562MOL0     H77555   0.176  10.777   6.671  1.2947 -0.9665  1.0471
  562MOL0     H77556   0.298  10.848   6.562 -0.6578 -2.5583  0.1754
  563MOL0     O77557   9.003   7.587   1.871 -0.8342 -0.2130 -0.1161
  563MOL0     C77558   8.977   7.604   1.754  0.8127  0.4814  0.1562
  563MOL0     O77559   9.065   7.595   1.653  0.2392 -0.0513  0.2353
  563MOL0     C77560   9.199   7.573   1.676  0.4592  0.0100 -0.2535
  563MOL0     C77561   9.264   7.457   1.703  0.1301 -0.8521  0.2613
  563MOL0     C77562   9.403   7.457   1.744 -0.4890  0.3257 -0.1740
  563MOL0     C77563   9.484   7.570   1.755  0.0049 -0.4257 -0.0926
  563MOL0     O77564   9.620   7.574   1.787 -0.2370 -0.4163  0.0030
  563MOL0     C77565   9.689   7.455   1.808  0.1864 -0.1478  0.4522
  563MOL0     C77566   9.833   7.496   1.825 -1.0187 -0.3865  0.2812
  563MOL0     C77567   9.853   7.575   1.958  0.6175  0.2269  0.4510
  563MOL0     C77568   9.845   7.484   2.081 -0.6067  0.0852  1.1328
  563MOL0     C77569   9.899   7.547   2.207 -0.2781  0.0174 -0.0204
  563MOL0     C77570  10.048   7.583   2.193 -0.5119 -0.0924  0.0302
  563MOL0     C77571  10.101   7.618   2.329 -0.1601 -0.1525 -0.0443
  563MOL0     C77572  10.138   7.495   2.409 -0.1443 -0.0325 -0.4581
  563MOL0     N77573  10.170   7.531   2.550 -0.0006  0.2984  0.2949
  563MOL0     C77574  10.118   7.633   2.634  0.4003  0.7487 -0.4555
  563MOL0     C77575  10.181   7.610   2.759 -0.0804 -0.3412  0.7215
  563MOL0     C77576  10.166   7.695   2.880  0.7194  1.5615  0.0206
  563MOL0     C77577  10.269   7.679   2.983  0.4835  0.0063 -0.0763
  563MOL0     C77578  10.237   7.772   3.103 -0.1215  0.2790 -0.6281
  563MOL0     C77579  10.300   7.908   3.088  0.2752  0.1482 -0.6744
  563MOL0     O77580  10.441   7.888   3.097 -0.3391 -0.5045 -0.1462
  563MOL0     C77581  10.529   7.991   3.072  0.2110 -0.4048 -0.0877
  563MOL0     C77582  10.503   8.109   2.998 -0.0170 -0.7671 -0.4756
  563MOL0     C77583  10.589   8.214   2.974 -0.7012 -0.1283 -0.4571
  563MOL0     C77584  10.531   8.343   2.911 -0.1633 -1.0678 -0.3737
  563MOL0     C77585  10.727   8.199   3.013  0.8466  0.1179 -0.7111
  563MOL0     C77586  10.828   8.300   3.008 -0.3395 -0.2998  0.3354
  563MOL0     O77587  10.957   8.268   3.056  0.5986  0.2514 -0.7108
  563MOL0     C77588  11.041   8.362   3.096  0.1788 -0.7139  0.2925
  563MOL0     C77589  11.175   8.331   3.095  1.0019  0.5263  0.3221
  563MOL0     C77590  11.270   8.431   3.137  0.2325  0.1378 -0.2036
  563MOL0     C77591  11.244   8.559   3.182  1.3489  0.2983  0.0519
  563MOL0     O77592  11.330   8.663   3.212  0.5524  0.4026 -0.3042
  563MOL0     C77593  11.468   8.637   3.231  0.1991  0.6553 -0.3010
  563MOL0     C77594  11.546   8.752   3.294 -0.4218  0.4236 -0.0305
  563MOL0     C77595  11.544   8.874   3.199 -0.4381 -0.7557  0.5303
  563MOL0     C77596  11.433   8.982   3.224 -0.1385 -0.4406  0.4547
  563MOL0     C77597  11.463   9.122   3.165 -0.6858 -0.2180  0.0208
  563MOL0     C77598  11.466   9.116   3.010 -0.5260 -0.3143 -0.5994
  563MOL0     C77599  11.500   9.248   2.934  0.5498 -0.1661 -0.5724
  563MOL0     C77600  11.633   9.315   2.988  0.2150  0.0319  0.3804
  563MOL0    Cl77601  11.669   9.471   2.903 -0.7449  0.2564 -0.6417
  563MOL0     C77602  11.108   8.586   3.193  0.4505  0.0185 -0.1211
  563MOL0     C77603  11.004   8.496   3.142 -1.5092 -0.1600  0.1049
  563MOL0     O77604  10.798   8.405   2.950  0.2095 -0.0959 -0.8322
  563MOL0     C77605  10.758   8.070   3.071 -0.6485  0.2846  1.1668
  563MOL0     C77606  10.664   7.972   3.102 -0.4697 -0.7085  0.0302
  563MOL0     N77607  10.261   7.498   2.754 -0.0359 -0.0115 -0.7049
  563MOL0     N77608  10.254   7.454   2.631  0.4802 -0.3547 -0.0832
  563MOL0     C77609   9.417   7.691   1.721  0.5808  0.1616  0.3888
  563MOL0     C77610   9.286   7.691   1.678 -0.3640 -0.6599  0.0968
  563MOL0     C77611   8.843   7.640   1.722  0.2556  0.0511 -0.0370
  563MOL0     C77612   8.820   7.662   1.585  0.7318 -0.1109 -0.3359
  563MOL0     C77613   8.693   7.683   1.543 -0.0641 -0.1796 -0.0241
  563MOL0     C77614   8.580   7.688   1.633 -0.0509  0.4924 -0.5231
  563MOL0     O77615   8.462   7.714   1.583  0.3853  0.1645 -0.1280
  563MOL0     C77616   8.359   7.630   1.613 -0.1156  0.3215 -0.2446
  563MOL0     C77617   8.219   7.685   1.586  0.7528 -0.0457  0.3185
  563MOL0     C77618   8.191   7.815   1.641  0.1879  0.0670 -0.4508
  563MOL0     C77619   8.041   7.855   1.633 -0.4766 -0.1257 -0.4647
  563MOL0     C77620   7.945   7.757   1.680 -0.0300 -0.2251 -0.5240
  563MOL0     C77621   7.863   7.690   1.727 -0.0787 -0.1214  0.4360
  563MOL0     C77622   8.608   7.682   1.770 -0.1799  0.7755  0.3368
  563MOL0     C77623   8.737   7.658   1.817 -0.1097  0.0683 -0.0274
  563MOL0     C77624   8.742   7.623   1.971 -0.1978 -0.2039 -0.6626
  563MOL0     H77625   9.217   7.360   1.717 -0.4346 -0.7125 -0.5763
  563MOL0     H77626   9.435   7.360   1.780 -1.3819  0.1685  0.2387
  563MOL0     H77627   9.674   7.387   1.723 -6.2927  0.5565  0.5316
  563MOL0     H77628   9.651   7.415   1.902  0.5100 -1.0488  0.2073
  563MOL0     H77629   9.901   7.411   1.820 -0.9346 -0.4942  2.3494
  563MOL0     H77630   9.869   7.562   1.745 -1.9751 -0.2298 -0.0418
  563MOL0     H77631   9.951   7.621   1.948 -0.1047  1.4608 -1.3090
  563MOL0     H77632   9.772   7.648   1.965 -1.9852 -2.3921 -0.0538
  563MOL0     H77633   9.741   7.452   2.096 -0.8221 -0.1636 -0.6821
  563MOL0     H77634   9.901   7.395   2.053 -0.5953  0.1155  1.0562
  563MOL0     H77635   9.894   7.475   2.289  2.2253 -2.5610 -1.9452
  563MOL0     H77636   9.840   7.635   2.235 -0.5813 -0.1407 -0.1456
  563MOL0     H77637  10.095   7.500   2.140 -4.3434 -1.7981 -1.0884
  563MOL0     H77638  10.070   7.663   2.122  4.2505 -1.9461 -0.9349
  563MOL0     H77639  10.020   7.672   2.378 -2.8013 -2.8936 -1.0419
  563MOL0     H77640  10.192   7.678   2.329 -1.3709  1.7948  1.1842
  563MOL0     H77641  10.046   7.440   2.427  1.7441 -2.4160  3.2115
  563MOL0     H77642  10.212   7.432   2.357 -1.7315 -2.0850 -0.3764
  563MOL0     H77643  10.048   7.712   2.611  0.3808  0.9794  0.3773
  563MOL0     H77644  10.068   7.664   2.917  2.1855 -2.2293  1.2704
  563MOL0     H77645  10.165   7.799   2.848  0.4109  0.9217 -2.2457
  563MOL0     H77646  10.275   7.576   3.021 -1.1956  0.7592  2.5490
  563MOL0     H77647  10.357   7.710   2.926  0.5560  1.4591  0.7856
  563MOL0     H77648  10.129   7.786   3.111 -0.1500  0.4437 -1.2216
  563MOL0     H77649  10.275   7.727   3.195 -1.3977 -1.1499 -0.7545
  563MOL0     H77650  10.276   7.956   2.992  0.3515  0.5482 -0.4966
  563MOL0     H77651  10.261   7.981   3.160 -1.9421 -0.0993 -1.5363
  563MOL0     H77652  10.399   8.128   2.971  0.4558  1.2457 -1.0612
  563MOL0     H77653  10.427   8.322   2.884 -0.9612  0.1843  1.4500
  563MOL0     H77654  10.589   8.370   2.823  1.3396 -1.1064  0.5707
  563MOL0     H77655  10.524   8.430   2.978  0.3165  1.2945 -3.1892
  563MOL0     H77656  11.203   8.226   3.092  0.0652  0.2691  0.1742
  563MOL0     H77657  11.374   8.400   3.131  1.0920  2.7004  0.1891
  563MOL0     H77658  11.483   8.549   3.294 -3.2507  0.6109  0.6779
  563MOL0     H77659  11.508   8.620   3.131  1.5701 -2.2264  0.6218
  563MOL0     H77660  11.519   8.783   3.395 -1.0372 -0.1560 -0.0058
  563MOL0     H77661  11.645   8.709   3.312 -0.5321 -0.7232 -1.8407
  563MOL0     H77662  11.537   8.847   3.094  0.8492  1.9628 -0.3489
  563MOL0     H77663  11.639   8.928   3.208 -1.5774  1.5315 -0.3347
  563MOL0     H77664  11.427   8.996   3.332  4.4138  2.1250  0.6451
  563MOL0     H77665  11.334   8.949   3.190 -0.3227  0.7967 -0.2922
  563MOL0     H77666  11.388   9.193   3.200 -2.1034 -2.7093  2.4496
  563MOL0     H77667  11.563   9.148   3.200 -1.1369  0.6780  0.6885
  563MOL0     H77668  11.369   9.086   2.968 -0.2611 -1.5554 -0.3369
  563MOL0     H77669  11.525   9.030   2.977 -0.8871 -0.9612  0.4124
  563MOL0     H77670  11.420   9.317   2.959 -0.2649 -2.1401  2.9207
  563MOL0     H77671  11.524   9.234   2.828 -2.7307 -0.4579 -1.3870
  563MOL0     H77672  11.716   9.244   2.980  0.2716 -0.6764  4.7389
  563MOL0     H77673  11.629   9.340   3.095 -0.7051  0.4958  0.2517
  563MOL0     H77674  11.084   8.689   3.216  1.4860  0.4362 -0.8194
  563MOL0     H77675  10.903   8.536   3.141 -1.5276  0.4016  4.7518
  563MOL0     H77676  10.855   8.046   3.112 -1.1871 -3.9755  0.4316
  563MOL0     H77677  10.697   7.883   3.154  0.7859  0.2402  0.9358
  563MOL0     H77678   9.470   7.785   1.722  0.7183  0.4206 -4.5087
  563MOL0     H77679   9.236   7.774   1.629 -3.1902 -0.1749  3.4363
  563MOL0     H77680   8.895   7.665   1.507 -0.0666  2.2664 -1.1166
  563MOL0     H77681   8.667   7.683   1.437  2.7579 -0.6972 -0.8263
  563MOL0     H77682   8.380   7.542   1.552 -1.3134  0.1105 -0.3875
  563MOL0     H77683   8.368   7.594   1.716  1.0934 -0.5277 -0.6288
  563MOL0     H77684   8.151   7.611   1.627  0.2765 -0.2658 -0.8287
  563MOL0     H77685   8.198   7.695   1.479 -2.0047 -0.3891  0.7484
  563MOL0     H77686   8.225   7.819   1.745 -1.0124  1.8356 -0.0943
  563MOL0     H77687   8.252   7.885   1.583 -0.3283  1.0957  0.2256
  563MOL0     H77688   8.012   7.867   1.528 -2.1673 -2.3616 -0.3347
  563MOL0     H77689   8.036   7.943   1.698  2.8754 -1.7372  2.3094
  563MOL0     H77690   7.798   7.624   1.781 -0.2286 -2.1342 -2.0001
  563MOL0     H77691   8.528   7.710   1.837 -1.1375 -0.2456 -0.3491
  563MOL0     H77692   8.803   7.700   2.019 -0.9178  0.3131 -0.5606
  563MOL0     H77693   8.639   7.628   2.008  0.7366  0.9371  2.0485
  563MOL0     H77694   8.785   7.530   2.010  0.0105  0.2679  0.2679
  564MOL0     O77695   8.653   2.409   3.490  0.6974 -0.4025 -0.0988
  564MOL0     C77696   8.595   2.399   3.384 -0.1424  0.1008  0.1407
  564MOL0     O77697   8.643   2.328   3.279  0.2966  0.9380 -0.7609
  564MOL0     C77698   8.780   2.292   3.277  0.5048  0.1009 -0.1410
  564MOL0     C77699   8.883   2.376   3.320  0.3697 -0.2567  1.2981
  564MOL0     C77700   9.014   2.343   3.296 -0.6337  0.0400 -0.1985
  564MOL0     C77701   9.056   2.220   3.244  0.0216  1.6223 -0.4741
  564MOL0     O77702   9.190   2.201   3.204  0.0133  0.2583 -0.4599
  564MOL0     C77703   9.244   2.066   3.210  0.4969  0.1024  0.8032
  564MOL0     C77704   9.371   2.023   3.130  0.4421 -0.0897 -0.2015
  564MOL0     C77705   9.482   2.126   3.145  0.5151 -0.8309 -0.3147
  564MOL0     C77706   9.616   2.079   3.089  0.6090 -0.4987  0.0597
  564MOL0     C77707   9.732   2.171   3.133 -0.3987 -0.5849  0.4467
  564MOL0     C77708   9.726   2.296   3.028  0.3229  1.2113 -0.2680
  564MOL0     C77709   9.832   2.409   3.046  0.1709 -0.3634 -0.5752
  564MOL0     C77710   9.866   2.495   2.918 -0.3285  0.0043 -0.6340
  564MOL0     N77711   9.982   2.440   2.852  0.0424  0.4735 -0.4980
  564MOL0     C77712  10.111   2.470   2.881  0.0159 -0.6067  0.0936
  564MOL0     C77713  10.182   2.412   2.778 -0.1540 -0.3006  0.0306
  564MOL0     C77714  10.335   2.396   2.761  0.6934  0.3158  0.0967
  564MOL0     C77715  10.383   2.284   2.846 -0.4246  0.4523  0.8090
  564MOL0     C77716  10.531   2.258   2.857 -0.6910  0.0129 -0.4761
  564MOL0     C77717  10.569   2.156   2.966 -0.2844 -0.2024 -0.0408
  564MOL0     O77718  10.714   2.158   2.979 -0.1298  0.2857 -0.8129
  564MOL0     C77719  10.770   2.100   3.085 -0.0770  0.7443 -0.1403
  564MOL0     C77720  10.899   2.139   3.117 -0.1751 -0.0808  1.0073
  564MOL0     C77721  10.969   2.086   3.225 -0.3983 -0.4152 -0.0772
  564MOL0     C77722  11.114   2.124   3.234 -0.1541  0.1298  0.4543
  564MOL0     C77723  10.906   1.988   3.309  0.0672  0.2253 -0.1497
  564MOL0     C77724  10.969   1.930   3.431  0.0075 -0.4570 -0.0569
  564MOL0     O77725  10.895   1.823   3.485 -0.1270  0.7805 -0.4987
  564MOL0     C77726  10.930   1.776   3.608 -0.0595 -0.6697  1.0600
  564MOL0     C77727  10.919   1.856   3.725 -0.3712 -0.3910 -0.5268
  564MOL0     C77728  10.950   1.812   3.853  0.1936 -0.2730 -0.5635
  564MOL0     C77729  11.002   1.683   3.863 -1.2986 -0.5836  0.3088
  564MOL0     O77730  11.069   1.644   3.980  0.3435 -0.1445  0.0244
  564MOL0     C77731  11.209   1.687   3.975 -0.2584  0.3358  0.3556
  564MOL0     C77732  11.265   1.721   4.116 -0.2424  0.3744  0.2871
  564MOL0     C77733  11.287   1.590   4.196  0.8182 -0.0488 -0.1677
  564MOL0     C77734  11.320   1.624   4.340 -0.1909 -0.4091  0.0117
  564MOL0     C77735  11.335   1.507   4.430  0.5551 -0.2319 -0.1114
  564MOL0     C77736  11.381   1.546   4.582  0.4788  0.5874  1.2952
  564MOL0     C77737  11.514   1.616   4.585 -0.1376  0.4266  0.1187
  564MOL0     C77738  11.598   1.597   4.710  0.1032 -0.0701  0.3728
  564MOL0    Cl77739  11.607   1.429   4.762  0.6667 -0.6611  0.1084
  564MOL0     C77740  11.024   1.606   3.748 -0.2395  0.0899 -1.1741
  564MOL0     C77741  10.987   1.653   3.628  0.5803  0.0790  0.7400
  564MOL0     O77742  11.072   1.980   3.484 -0.3791 -0.1583 -0.0353
  564MOL0     C77743  10.776   1.953   3.277  0.7830 -0.1536  0.0584
  564MOL0     C77744  10.712   2.001   3.160  0.9282 -0.3171 -0.1301
  564MOL0     N77745  10.098   2.356   2.688  0.2631  0.1380 -0.1893
  564MOL0     N77746   9.983   2.373   2.731 -0.2243 -0.0402 -0.3413
  564MOL0     C77747   8.949   2.120   3.211  0.0244 -0.1158 -0.5112
  564MOL0     C77748   8.815   2.166   3.227  0.0800  0.5829 -1.1105
  564MOL0     C77749   8.454   2.449   3.368  0.4226  1.1059  0.1320
  564MOL0     C77750   8.379   2.416   3.244  0.5550 -0.6209 -0.4469
  564MOL0     C77751   8.252   2.457   3.227  0.2558 -0.2720  0.5316
  564MOL0     C77752   8.188   2.530   3.322 -0.2222  0.6215  0.0999
  564MOL0     O77753   8.063   2.583   3.297  0.2888  0.1335 -0.2100
  564MOL0     C77754   7.962   2.509   3.226  0.0263 -0.6046  0.3662
  564MOL0     C77755   7.900   2.392   3.297  0.8209  0.5954 -0.0086
  564MOL0     C77756   7.876   2.417   3.441  0.8484  0.5021  0.5834
  564MOL0     C77757   7.812   2.303   3.521 -0.9129 -0.9885  0.3909
  564MOL0     C77758   7.796   2.332   3.666 -0.0914 -0.3880 -0.2851
  564MOL0     C77759   7.772   2.353   3.783  0.4008  0.7767  0.2751
  564MOL0     C77760   8.258   2.569   3.436 -0.4873 -0.7680  0.3619
  564MOL0     C77761   8.388   2.537   3.459 -0.1903 -0.5928 -0.2658
  564MOL0     C77762   8.450   2.593   3.586  0.0414 -0.2987  0.2128
  564MOL0     H77763   8.861   2.476   3.357  1.3407 -0.6888  3.1505
  564MOL0     H77764   9.092   2.416   3.316  0.2930 -1.1034  0.4956
  564MOL0     H77765   9.164   2.003   3.170  1.1129  0.9261 -1.9747
  564MOL0     H77766   9.266   2.042   3.315  1.2327 -2.1666  0.1865
  564MOL0     H77767   9.401   1.924   3.166 -1.3741 -1.3446 -1.8879
  564MOL0     H77768   9.348   2.004   3.024 -1.4376 -1.6082  0.4290
  564MOL0     H77769   9.443   2.211   3.088 -1.2817 -1.0391  0.5368
  564MOL0     H77770   9.487   2.153   3.251 -2.5349 -1.6089  0.1124
  564MOL0     H77771   9.631   1.978   3.127  1.8835 -0.6284 -0.7100
  564MOL0     H77772   9.610   2.067   2.980  0.5137 -0.6548  0.0822
  564MOL0     H77773   9.832   2.128   3.131 -0.2996 -0.4191  1.4880
  564MOL0     H77774   9.713   2.209   3.233 -0.3693  0.7714 -0.0430
  564MOL0     H77775   9.754   2.239   2.939  0.0279 -2.9511  2.0699
  564MOL0     H77776   9.625   2.333   3.008  1.2067  2.1592 -3.8614
  564MOL0     H77777   9.926   2.368   3.084  1.1343  1.3807 -0.9495
  564MOL0     H77778   9.790   2.484   3.114  1.5412  0.6303 -0.7745
  564MOL0     H77779   9.776   2.487   2.857 -1.3716 -2.7073  1.0529
  564MOL0     H77780   9.877   2.601   2.944 -0.8796  0.3568 -1.7819
  564MOL0     H77781  10.160   2.525   2.960  1.1010 -0.8612 -0.3767
  564MOL0     H77782  10.387   2.489   2.784  1.7839 -0.2033 -0.2118
  564MOL0     H77783  10.357   2.381   2.655  0.6486  2.0445 -0.1738
  564MOL0     H77784  10.360   2.305   2.951 -0.7218 -1.2360  1.0997
  564MOL0     H77785  10.335   2.193   2.810  1.5632  0.2129 -1.4682
  564MOL0     H77786  10.552   2.215   2.759 -1.2173 -0.5593 -0.3459
  564MOL0     H77787  10.584   2.352   2.871 -2.4701  1.3000 -1.7490
  564MOL0     H77788  10.511   2.187   3.054  0.8543  0.3843  0.5175
  564MOL0     H77789  10.546   2.052   2.940  1.9229 -0.3020 -1.8593
  564MOL0     H77790  10.947   2.213   3.054 -1.9422  0.0058 -0.3224
  564MOL0     H77791  11.153   2.143   3.133 -1.1012 -1.5966 -0.2925
  564MOL0     H77792  11.170   2.044   3.282  1.6111  1.4541  0.7164
  564MOL0     H77793  11.120   2.215   3.294 -2.2297 -1.1322  2.7866
  564MOL0     H77794  10.887   1.958   3.704  2.0128  0.1369 -1.9440
  564MOL0     H77795  10.954   1.883   3.934  2.2671  0.0571 -0.9007
  564MOL0     H77796  11.269   1.606   3.933  0.0446  1.3411 -1.1912
  564MOL0     H77797  11.224   1.772   3.909 -0.4422 -2.1236 -3.1379
  564MOL0     H77798  11.360   1.776   4.111 -0.0650 -0.0402 -1.7435
  564MOL0     H77799  11.192   1.782   4.171 -0.4925 -1.3352  1.9556
  564MOL0     H77800  11.366   1.529   4.151 -0.2310 -0.6675 -1.2446
  564MOL0     H77801  11.196   1.529   4.193  0.9713 -0.4299  1.8630
  564MOL0     H77802  11.237   1.685   4.379 -1.6865 -0.9274 -2.1507
  564MOL0     H77803  11.414   1.678   4.333  1.6843 -3.5277 -0.4310
  564MOL0     H77804  11.243   1.448   4.437  0.9622 -0.7877  0.7985
  564MOL0     H77805  11.415   1.443   4.392  4.1966  3.6223  0.3463
  564MOL0     H77806  11.370   1.451   4.635 -0.5433 -0.9359 -1.4218
  564MOL0     H77807  11.300   1.604   4.627  0.2223  1.0124  0.3046
  564MOL0     H77808  11.487   1.721   4.574  0.1894  0.2267 -5.0880
  564MOL0     H77809  11.577   1.589   4.500 -1.7255 -0.4932 -0.8060
  564MOL0     H77810  11.560   1.660   4.790  0.0432  0.3649  0.0092
  564MOL0     H77811  11.697   1.639   4.687  0.9951 -2.3513 -0.1857
  564MOL0     H77812  11.057   1.504   3.766 -2.3242 -0.5107 -0.3630
  564MOL0     H77813  11.014   1.600   3.538 -0.4934 -1.0286  1.0457
  564MOL0     H77814  10.712   1.889   3.337  0.0814 -0.6378 -1.1553
  564MOL0     H77815  10.614   1.958   3.142  1.3581 -1.1839 -0.4764
  564MOL0     H77816   8.969   2.030   3.154  3.0375  1.3416 -1.9835
  564MOL0     H77817   8.731   2.111   3.186 -2.0968  0.7237  2.6682
  564MOL0     H77818   8.424   2.357   3.165  0.5009  0.0828 -1.0136
  564MOL0     H77819   8.195   2.430   3.138  2.7402  0.2720 -1.3202
  564MOL0     H77820   7.883   2.584   3.217  0.0729 -0.2811  2.3193
  564MOL0     H77821   7.991   2.476   3.126  3.3976 -1.0346  1.3374
  564MOL0     H77822   7.965   2.305   3.280  1.3318  0.9337  0.1984
  564MOL0     H77823   7.804   2.370   3.250  0.2555  0.6749  1.0764
  564MOL0     H77824   7.968   2.446   3.492 -0.3585  2.3832  1.8247
  564MOL0     H77825   7.811   2.503   3.456  0.1211  0.0551  0.0570
  564MOL0     H77826   7.879   2.217   3.519 -0.8060 -0.9106 -1.2228
  564MOL0     H77827   7.717   2.269   3.479  0.6231 -2.8543 -1.8245
  564MOL0     H77828   7.758   2.368   3.888  0.8577 -1.0748  0.6299
  564MOL0     H77829   8.209   2.645   3.496  1.4204 -0.2320  1.3342
  564MOL0     H77830   8.383   2.673   3.621 -2.8596 -2.5927  0.3059
  564MOL0     H77831   8.469   2.520   3.665 -0.7215 -0.8532 -0.0942
  564MOL0     H77832   8.544   2.644   3.564 -2.1910  2.6852 -3.5590
  565MOL0     O77833   9.442   7.530   6.622 -0.6950  0.3735 -0.3787
  565MOL0     C77834   9.431   7.496   6.504  0.2012  0.2726 -0.8539
  565MOL0     O77835   9.484   7.557   6.395  0.1566  0.2870 -0.0727
  565MOL0     C77836   9.533   7.683   6.404  0.2213  0.3561 -0.8138
  565MOL0     C77837   9.480   7.787   6.484  0.9095 -0.4693  0.4328
  565MOL0     C77838   9.535   7.920   6.475 -0.4110 -0.1135  0.0740
  565MOL0     C77839   9.637   7.949   6.388  0.5962  0.3183 -0.1578
  565MOL0     O77840   9.666   8.084   6.384  0.2722 -0.5472 -0.7921
  565MOL0     C77841   9.800   8.117   6.359  0.3647  0.1228 -0.4928
  565MOL0     C77842   9.829   8.251   6.427  0.9342 -0.8037 -0.1818
  565MOL0     C77843   9.964   8.273   6.475 -0.1794  0.1800 -0.3945
  565MOL0     C77844   9.983   8.421   6.509 -0.2098 -0.3718 -0.5426
  565MOL0     C77845  10.124   8.468   6.530 -1.3783  0.1411 -0.4474
  565MOL0     C77846  10.217   8.430   6.416 -0.4337  0.2912  0.3891
  565MOL0     C77847  10.342   8.514   6.414 -0.0733 -1.1297  0.0571
  565MOL0     C77848  10.447   8.462   6.328  0.3341 -0.3368 -0.9195
  565MOL0     N77849  10.563   8.547   6.310 -0.9084 -0.2892  0.7718
  565MOL0     C77850  10.683   8.552   6.387  1.0028  0.6439  0.5450
  565MOL0     C77851  10.770   8.625   6.314 -0.2530  1.1230 -0.4597
  565MOL0     C77852  10.899   8.676   6.374  0.8104  0.6359 -0.4198
  565MOL0     C77853  10.880   8.828   6.402 -0.3024 -0.3573 -0.1215
  565MOL0     C77854  10.885   8.925   6.284  0.7554 -0.1441 -0.2888
  565MOL0     C77855  11.020   8.985   6.249 -0.0284  0.4763 -0.4243
  565MOL0     O77856  11.098   8.868   6.224 -0.1219  0.0450  0.7950
  565MOL0     C77857  11.227   8.876   6.170  0.1592  0.2925 -0.3868
  565MOL0     C77858  11.282   8.752   6.137 -0.0998 -0.3878 -0.9775
  565MOL0     C77859  11.399   8.739   6.055  0.6030  0.1089 -0.5499
  565MOL0     C77860  11.439   8.594   6.027 -0.6321 -0.1943 -0.2939
  565MOL0     C77861  11.470   8.858   6.024  0.6913 -0.3377  0.3316
  565MOL0     C77862  11.606   8.866   5.969  0.9189 -0.0391  0.7003
  565MOL0     O77863  11.653   8.992   5.920  0.7241 -0.4165 -0.5532
  565MOL0     C77864  11.782   9.022   5.886 -0.5503 -0.8671  0.1888
  565MOL0     C77865  11.894   8.966   5.948  0.0495  0.4098  0.3414
  565MOL0     C77866  12.029   9.001   5.906 -0.0819 -0.5826 -0.0524
  565MOL0     C77867  12.048   9.104   5.807 -0.5804 -0.1450  0.6709
  565MOL0     O77868  12.170   9.154   5.769 -0.1577 -0.3306 -0.1518
  565MOL0     C77869  12.283   9.087   5.813  0.5760 -0.7055 -0.1914
  565MOL0     C77870  12.416   9.130   5.743  0.1133  0.0868 -0.1459
  565MOL0     C77871  12.498   9.237   5.809 -1.0201 -0.8956  0.1040
  565MOL0     C77872  12.647   9.205   5.773  0.6913 -0.3919  0.0788
  565MOL0     C77873  12.750   9.308   5.826 -0.1070  0.4420  0.2330
  565MOL0     C77874  12.892   9.248   5.808 -0.0954  0.4269 -0.9788
  565MOL0     C77875  12.993   9.338   5.879 -0.2782 -0.5940  0.4671
  565MOL0     C77876  13.137   9.281   5.875  0.5309  0.6704  0.3514
  565MOL0    Cl77877  13.237   9.349   6.002  0.1684 -0.5150  0.1353
  565MOL0     C77878  11.931   9.171   5.765 -0.1182 -1.0093  0.3215
  565MOL0     C77879  11.811   9.138   5.810  0.2373  0.2169 -0.0939
  565MOL0     O77880  11.664   8.760   5.964  0.0488  0.5683 -0.3556
  565MOL0     C77881  11.410   8.983   6.055  0.0739 -0.3437 -0.1392
  565MOL0     C77882  11.292   8.992   6.123  0.3105 -0.3607  0.3104
  565MOL0     N77883  10.716   8.640   6.191  0.9213  0.1013  0.1463
  565MOL0     N77884  10.590   8.603   6.185 -0.2875  0.0249 -0.8626
  565MOL0     C77885   9.700   7.840   6.322 -0.1434  0.4376  0.3146
  565MOL0     C77886   9.641   7.713   6.320 -0.2577 -0.4026 -0.2498
  565MOL0     C77887   9.357   7.367   6.491 -0.1322  0.4339 -0.7411
  565MOL0     C77888   9.255   7.335   6.581  0.9474  0.2141 -0.4911
  565MOL0     C77889   9.179   7.215   6.575 -0.3404 -0.1224  0.7988
  565MOL0     C77890   9.219   7.113   6.498  0.4012 -0.4899  0.4190
  565MOL0     O77891   9.175   6.990   6.521  0.3115  0.6607  0.2701
  565MOL0     C77892   9.162   6.899   6.409  0.1264 -0.1519 -0.7805
  565MOL0     C77893   9.022   6.851   6.402  0.0051 -0.2821  0.2978
  565MOL0     C77894   8.917   6.963   6.392  0.3053  0.1715  0.0856
  565MOL0     C77895   8.868   6.961   6.245 -0.1833  0.5561 -0.6086
  565MOL0     C77896   8.796   7.089   6.218  0.1292  0.7141 -0.9057
  565MOL0     C77897   8.745   7.194   6.193 -0.1699  0.3618  0.4130
  565MOL0     C77898   9.332   7.133   6.415 -0.5419 -0.4990 -1.2349
  565MOL0     C77899   9.404   7.260   6.418  0.3401 -0.0044  0.4150
  565MOL0     C77900   9.518   7.284   6.312 -0.8989  0.1699  0.5815
  565MOL0     H77901   9.399   7.779   6.556 -0.8962 -0.7157 -1.5219
  565MOL0     H77902   9.480   7.999   6.526 -2.4964 -0.6162 -1.2601
  565MOL0     H77903   9.821   8.138   6.254  1.2713 -0.8741 -0.5218
  565MOL0     H77904   9.870   8.041   6.394 -1.2911  0.7636  5.3641
  565MOL0     H77905   9.809   8.330   6.354 -2.3062 -1.6952 -0.4015
  565MOL0     H77906   9.767   8.261   6.516  1.3461  0.4728 -0.0079
  565MOL0     H77907   9.967   8.206   6.562  0.6952  0.8020  0.0756
  565MOL0     H77908  10.035   8.235   6.402 -1.6772  0.4910 -2.0786
  565MOL0     H77909   9.944   8.483   6.427 -2.5460 -0.3612  0.4834
  565MOL0     H77910   9.923   8.448   6.597  0.5481 -2.1041  0.5609
  565MOL0     H77911  10.158   8.426   6.625 -2.1791  1.3042  0.3715
  565MOL0     H77912  10.129   8.575   6.553 -1.1551  0.5651 -2.2787
  565MOL0     H77913  10.243   8.324   6.422  2.0140  0.5920 -2.6112
  565MOL0     H77914  10.161   8.443   6.323 -1.6039 -2.0264  0.7086
  565MOL0     H77915  10.391   8.516   6.512  0.3047  0.2478 -0.1424
  565MOL0     H77916  10.316   8.617   6.388  0.0047 -0.5009  2.2420
  565MOL0     H77917  10.488   8.370   6.371  1.7131  1.3595  1.6599
  565MOL0     H77918  10.406   8.430   6.231 -1.9874  0.1193 -0.1454
  565MOL0     H77919  10.698   8.511   6.486 -1.5751 -0.2428  0.6555
  565MOL0     H77920  10.979   8.656   6.302  1.7069  2.4462  0.0052
  565MOL0     H77921  10.917   8.617   6.464  0.2521 -1.2523 -1.4906
  565MOL0     H77922  10.789   8.848   6.458 -1.2867  2.0455 -2.3808
  565MOL0     H77923  10.963   8.855   6.469  0.2910 -1.0694 -0.5467
  565MOL0     H77924  10.839   8.878   6.197 -0.3365  1.2820 -0.5184
  565MOL0     H77925  10.825   9.013   6.311  2.7076  0.4750  2.5341
  565MOL0     H77926  11.003   9.040   6.156 -1.4313 -0.6964 -0.9019
  565MOL0     H77927  11.074   9.026   6.335  1.6172 -4.4046  1.1865
  565MOL0     H77928  11.230   8.661   6.163 -1.3595  0.6870  0.4385
  565MOL0     H77929  11.496   8.559   6.113 -1.3982  0.5710  0.5483
  565MOL0     H77930  11.490   8.579   5.932  1.6985  3.0743  0.2832
  565MOL0     H77931  11.347   8.535   6.021 -1.5294  1.2678 -1.8118
  565MOL0     H77932  11.879   8.885   6.018 -1.4847 -0.4024 -0.8766
  565MOL0     H77933  12.115   8.960   5.957  1.0507  0.5900 -0.9576
  565MOL0     H77934  12.290   9.085   5.922  0.6112 -1.5569 -0.1977
  565MOL0     H77935  12.266   8.982   5.786  3.4762 -1.3553  0.1018
  565MOL0     H77936  12.471   9.036   5.733 -1.2387 -0.7035 -0.5288
  565MOL0     H77937  12.392   9.151   5.638 -1.0640  0.4114  0.1684
  565MOL0     H77938  12.490   9.239   5.918 -2.5025 -0.6368  0.0091
  565MOL0     H77939  12.459   9.323   5.754  1.4726  0.4366  0.2763
  565MOL0     H77940  12.652   9.187   5.666 -6.0106  1.4230 -0.9489
  565MOL0     H77941  12.677   9.108   5.815 -1.4167 -2.5501 -2.9820
  565MOL0     H77942  12.737   9.400   5.767 -0.1296  0.6460  0.5526
  565MOL0     H77943  12.722   9.344   5.925 -0.0320  3.8980 -0.8567
  565MOL0     H77944  12.910   9.221   5.704  1.4849 -2.1199 -0.1398
  565MOL0     H77945  12.892   9.157   5.869 -4.9935  1.0652  0.4084
  565MOL0     H77946  12.964   9.353   5.983  2.1747 -0.2172  1.1545
  565MOL0     H77947  12.995   9.429   5.818  1.0879 -1.2870 -0.5813
  565MOL0     H77948  13.176   9.306   5.776  0.2687  0.0891  0.0950
  565MOL0     H77949  13.132   9.172   5.873 -2.6857  0.7438 -0.2157
  565MOL0     H77950  11.950   9.256   5.701  5.5834 -0.8049  1.7047
  565MOL0     H77951  11.728   9.192   5.767  1.3704  0.2821 -2.3576
  565MOL0     H77952  11.457   9.076   6.025  1.9463 -0.0816  3.1824
  565MOL0     H77953  11.231   9.080   6.141  1.1629 -0.3136  3.4817
  565MOL0     H77954   9.777   7.845   6.245 -0.4827 -1.2190 -0.1691
  565MOL0     H77955   9.684   7.638   6.254  2.2433  0.7380 -0.0151
  565MOL0     H77956   9.218   7.406   6.653  1.0232 -1.5108  1.3210
  565MOL0     H77957   9.102   7.193   6.649  1.2279 -1.1181  2.2013
  565MOL0     H77958   9.180   6.943   6.310 -0.3162 -0.3916 -0.9703
  565MOL0     H77959   9.225   6.813   6.433  0.2756 -0.5518 -2.4874
  565MOL0     H77960   8.993   6.800   6.494  0.0458  2.6088  2.0301
  565MOL0     H77961   9.021   6.776   6.322 -0.3639  0.4669 -0.4087
  565MOL0     H77962   8.842   6.942   6.469 -0.2561 -1.3380 -0.8371
  565MOL0     H77963   8.957   7.061   6.418  2.2790 -1.0499  2.0478
  565MOL0     H77964   8.810   6.875   6.208  1.1404  0.1785 -1.9255
  565MOL0     H77965   8.958   6.955   6.183  0.0026  0.9421 -0.3784
  565MOL0     H77966   8.699   7.285   6.162  0.3391  0.0971 -1.1925
  565MOL0     H77967   9.370   7.044   6.366 -0.7526 -0.6376 -1.1493
  565MOL0     H77968   9.486   7.352   6.233  0.7095  0.3889  0.0772
  565MOL0     H77969   9.608   7.328   6.355 -1.1865  2.2140 -0.7393
  565MOL0     H77970   9.549   7.187   6.272  2.0105  0.7891  1.0692
  566MOL0     O77971   2.196   9.913   9.209  0.3193  0.1097 -0.4123
  566MOL0     C77972   2.215   9.807   9.269 -0.5188  0.1278  0.4927
  566MOL0     O77973   2.134   9.752   9.361 -0.2939  0.3311  0.8994
  566MOL0     C77974   2.007   9.805   9.376  0.5375  0.0259 -0.4968
  566MOL0     C77975   1.955   9.823   9.503 -0.1484 -0.8765 -0.2108
  566MOL0     C77976   1.827   9.874   9.519 -0.7413 -0.2350 -0.3354
  566MOL0     C77977   1.741   9.905   9.414  0.5504 -0.6095  0.2193
  566MOL0     O77978   1.618   9.948   9.431  0.5578  0.1153  0.5064
  566MOL0     C77979   1.575   9.987   9.563 -0.0299 -1.0636 -0.1978
  566MOL0     C77980   1.493  10.109   9.542  0.3002 -0.3378  0.2875
  566MOL0     C77981   1.353  10.087   9.474  0.4303  0.1051  0.2926
  566MOL0     C77982   1.246  10.046   9.575 -0.6235  0.4539 -0.0976
  566MOL0     C77983   1.102  10.036   9.508  0.3604  0.9307 -0.8406
  566MOL0     C77984   0.996   9.965   9.596 -0.2984  0.1743 -0.4853
  566MOL0     C77985   1.017   9.819   9.590 -1.1492  0.4999 -0.0482
  566MOL0     C77986   0.932   9.732   9.690  0.1029  0.2958 -0.2941
  566MOL0     N77987   0.956   9.770   9.829 -0.1731 -0.1083  0.2712
  566MOL0     C77988   1.065   9.723   9.903  0.3791 -0.4409 -0.5018
  566MOL0     C77989   1.059   9.795  10.024 -0.0833  0.3200 -0.3090
  566MOL0     C77990   1.138   9.791  10.157 -0.5907  0.0779  0.9798
  566MOL0     C77991   1.256   9.884  10.152 -0.5269 -0.5114  0.0950
  566MOL0     C77992   1.381   9.823  10.226  0.1779  0.1568 -0.2605
  566MOL0     C77993   1.510   9.908  10.222 -0.4463  0.0022  0.5915
  566MOL0     O77994   1.614   9.830  10.273 -0.5044  0.1851 -0.2359
  566MOL0     C77995   1.736   9.894  10.285 -0.0824  0.6511 -0.3401
  566MOL0     C77996   1.843   9.803  10.306 -0.6379  0.0986  0.0617
  566MOL0     C77997   1.969   9.855  10.315  0.1094 -0.7248 -0.1176
  566MOL0     C77998   2.077   9.748  10.322 -0.7598  0.4484  0.0894
  566MOL0     C77999   1.999   9.989  10.313  0.2488  0.1627  0.2567
  566MOL0     C78000   2.129  10.057  10.308  0.2339 -1.0011 -1.0626
  566MOL0     O78001   2.144  10.188  10.355 -0.0340 -0.7042  0.4383
  566MOL0     C78002   2.272  10.239  10.352 -0.6420 -0.8349  0.0463
  566MOL0     C78003   2.363  10.235  10.241  0.0316  0.6403  0.0469
  566MOL0     C78004   2.490  10.289  10.244  0.4692 -0.0092 -0.5935
  566MOL0     C78005   2.537  10.350  10.365  0.0127 -0.2260 -0.1359
  566MOL0     O78006   2.665  10.411  10.386 -0.2290 -0.4819  0.9961
  566MOL0     C78007   2.693  10.511  10.282  0.8548  0.0811  0.2712
  566MOL0     C78008   2.837  10.566  10.311  0.6290 -0.1602 -0.1797
  566MOL0     C78009   2.864  10.683  10.223 -0.1620 -0.9545 -0.1151
  566MOL0     C78010   3.002  10.742  10.257 -0.5020  0.1919 -0.4410
  566MOL0     C78011   3.028  10.882  10.192 -0.0027  0.5858  0.0835
  566MOL0     C78012   3.050  10.885  10.040  0.5808  0.0604 -0.5294
  566MOL0     C78013   3.201  10.905  10.003 -0.3765  0.0203  0.5604
  566MOL0     C78014   3.278  10.775  10.023 -0.4606  1.1054 -0.5608
  566MOL0    Cl78015   3.443  10.797   9.962 -0.2533  0.1250 -0.3261
  566MOL0     C78016   2.449  10.356  10.471  0.3927 -0.3754  0.1891
  566MOL0     C78017   2.320  10.305  10.458  0.7470  0.3259 -0.4900
  566MOL0     O78018   2.211   9.996  10.253  0.2933  0.4533  0.1363
  566MOL0     C78019   1.888  10.071  10.311 -0.5855 -0.5257 -0.9213
  566MOL0     C78020   1.756  10.032  10.300  0.3492 -0.0262  0.7159
  566MOL0     N78021   0.966   9.889  10.005 -0.1392  0.3672  0.2046
  566MOL0     N78022   0.900   9.870   9.892  0.0603 -0.6249  0.2689
  566MOL0     C78023   1.789   9.873   9.289 -0.0961 -0.5774 -0.1947
  566MOL0     C78024   1.918   9.828   9.272 -0.1990 -0.4025 -0.8928
  566MOL0     C78025   2.346   9.740   9.231 -0.4721  0.0365  0.0641
  566MOL0     C78026   2.361   9.600   9.269 -0.5486  0.0482 -0.0730
  566MOL0     C78027   2.477   9.535   9.237 -0.6793  0.3065 -0.2203
  566MOL0     C78028   2.588   9.597   9.178 -0.4184  0.0670  0.6721
  566MOL0     O78029   2.705   9.533   9.144  0.1852  0.1844  0.1148
  566MOL0     C78030   2.706   9.398   9.136  0.1013 -0.1510 -0.5025
  566MOL0     C78031   2.844   9.342   9.120  0.0275  0.5705  0.7233
  566MOL0     C78032   2.924   9.362   9.246  0.1755  0.0945 -0.2319
  566MOL0     C78033   3.070   9.349   9.240 -0.0976 -0.1198  0.5040
  566MOL0     C78034   3.129   9.371   9.374  0.8259  0.2909  0.1752
  566MOL0     C78035   3.182   9.377   9.483  0.0564  0.3712 -0.1197
  566MOL0     C78036   2.578   9.731   9.136 -0.1719 -1.7252  0.5114
  566MOL0     C78037   2.458   9.805   9.170 -0.6897 -0.0281  0.2927
  566MOL0     C78038   2.458   9.949   9.119  0.1227  0.7141  0.4561
  566MOL0     H78039   2.018   9.795   9.588  1.7544 -0.2783 -1.3463
  566MOL0     H78040   1.812   9.880   9.626  0.9281  0.2847 -0.1046
  566MOL0     H78041   1.651  10.017   9.635  0.0961 -2.8160  0.4548
  566MOL0     H78042   1.510   9.907   9.601 -0.2378 -1.4495 -1.3206
  566MOL0     H78043   1.467  10.143   9.643 -1.8775 -1.1433  0.0477
  566MOL0     H78044   1.546  10.196   9.501 -0.7684 -0.2258 -0.9177
  566MOL0     H78045   1.322  10.184   9.434  0.7754 -0.3575 -1.1647
  566MOL0     H78046   1.360  10.004   9.403 -0.2731 -1.4125  1.9230
  566MOL0     H78047   1.274   9.954   9.627 -1.0016  0.7660  0.6738
  566MOL0     H78048   1.245  10.131   9.645  1.8684 -0.5407  1.2801
  566MOL0     H78049   1.099  10.001   9.404  0.6040 -0.3554 -0.4436
  566MOL0     H78050   1.064  10.137   9.498  0.2656  0.9988  0.1199
  566MOL0     H78051   0.997  10.010   9.695 -0.5047  0.3711 -0.5722
  566MOL0     H78052   0.898   9.999   9.560 -1.1934  1.4531  2.7993
  566MOL0     H78053   1.123   9.793   9.598 -1.9337 -2.5691  2.2187
  566MOL0     H78054   0.983   9.773   9.498 -2.5910  1.5627 -0.0922
  566MOL0     H78055   0.826   9.750   9.670  0.2740 -0.9763 -2.7523
  566MOL0     H78056   0.952   9.625   9.675  0.2819 -0.1845  2.8133
  566MOL0     H78057   1.135   9.646   9.872 -0.2055 -1.3081  0.2797
  566MOL0     H78058   1.169   9.686  10.158 -2.7538 -0.8177 -3.2987
  566MOL0     H78059   1.066   9.814  10.237 -1.2686  2.8208 -0.2991
  566MOL0     H78060   1.287   9.896  10.048  1.0402 -2.3850  0.2781
  566MOL0     H78061   1.219   9.981  10.185  1.6230  0.0259  1.1634
  566MOL0     H78062   1.359   9.815  10.333 -1.3103  0.2260 -0.5406
  566MOL0     H78063   1.398   9.727  10.176 -0.4409 -0.0902 -0.0125
  566MOL0     H78064   1.524   9.940  10.118 -1.3786 -3.0230 -0.5637
  566MOL0     H78065   1.491  10.003  10.273 -0.6531  1.4540 -2.0296
  566MOL0     H78066   1.824   9.697  10.305  0.1663 -0.0580  0.6192
  566MOL0     H78067   2.136   9.745  10.230  0.7736 -0.4887  1.0677
  566MOL0     H78068   2.048   9.649  10.358  4.8861 -0.8436  2.0514
  566MOL0     H78069   2.150   9.777  10.397 -1.3893 -1.1544  1.3913
  566MOL0     H78070   2.329  10.182  10.153 -0.2630 -0.3702  0.7506
  566MOL0     H78071   2.549  10.289  10.153  0.0484 -0.5542 -0.8651
  566MOL0     H78072   2.694  10.468  10.181 -0.6459 -1.3877  0.8246
  566MOL0     H78073   2.622  10.592  10.298  0.6335 -0.0606  0.0085
  566MOL0     H78074   2.840  10.602  10.414  0.0327 -0.0735 -0.1907
  566MOL0     H78075   2.917  10.491  10.304  0.4722 -0.5528  1.6444
  566MOL0     H78076   2.788  10.761  10.227 -0.4691 -1.1359 -1.5865
  566MOL0     H78077   2.868  10.652  10.118 -0.7238  0.5347 -0.5991
  566MOL0     H78078   3.089  10.675  10.248  0.0091  0.2954  2.5878
  566MOL0     H78079   3.000  10.766  10.364 -0.7010  4.9921 -1.2977
  566MOL0     H78080   2.941  10.945  10.212 -1.1854 -1.2717  1.0679
  566MOL0     H78081   3.115  10.922  10.244 -0.2311  0.2788  0.7064
  566MOL0     H78082   2.999  10.976  10.008 -0.2522 -0.2923 -0.2303
  566MOL0     H78083   3.016  10.793   9.991  3.1422 -2.9777  2.8115
  566MOL0     H78084   3.242  10.991  10.056  0.1542  0.6080 -0.7630
  566MOL0     H78085   3.203  10.925   9.895  3.3820  1.4633  0.7548
  566MOL0     H78086   3.225  10.693   9.976 -0.1466  1.5411 -1.6974
  566MOL0     H78087   3.280  10.756  10.131 -1.4238 -1.0675 -0.8915
  566MOL0     H78088   2.467  10.405  10.566 -0.1532 -0.7760  0.5029
  566MOL0     H78089   2.259  10.323  10.546  2.1267 -2.7583  1.2926
  566MOL0     H78090   1.901  10.178  10.319  0.8712 -0.6591 -1.3327
  566MOL0     H78091   1.671  10.100  10.303 -0.6964 -1.2981  0.7575
  566MOL0     H78092   1.733   9.889   9.198  0.1201 -0.5835 -0.3288
  566MOL0     H78093   1.941   9.813   9.167  1.6373 -0.6782 -0.4858
  566MOL0     H78094   2.291   9.531   9.315  0.6611 -2.2826 -1.5059
  566MOL0     H78095   2.479   9.428   9.254 -1.4526  0.6573  2.7997
  566MOL0     H78096   2.661   9.349   9.224  0.6426 -1.7063 -1.0644
  566MOL0     H78097   2.651   9.366   9.047 -0.2172 -1.6789  0.1937
  566MOL0     H78098   2.901   9.386   9.037 -1.0500 -0.8359 -0.8467
  566MOL0     H78099   2.843   9.237   9.089  1.7841  1.3992 -2.7122
  566MOL0     H78100   2.899   9.461   9.286 -0.8142 -1.3461  3.0443
  566MOL0     H78101   2.888   9.295   9.324  2.4711  0.4050  1.2006
  566MOL0     H78102   3.102   9.428   9.172 -2.5371  0.7324  0.2607
  566MOL0     H78103   3.087   9.246   9.207 -1.0442 -0.3103  0.5725
  566MOL0     H78104   3.236   9.389   9.576  0.8262  0.4130 -0.5639
  566MOL0     H78105   2.656   9.788   9.087  2.1274 -2.2825  3.2770
  566MOL0     H78106   2.555   9.980   9.079  0.3209  0.5700  0.8229
  566MOL0     H78107   2.382   9.969   9.042  2.1768  1.8339 -1.3800
  566MOL0     H78108   2.427  10.006   9.208  0.1793  0.6595  0.5102
  567MOL0     O78109  10.949   8.605   7.165  0.1538 -0.9469 -0.6465
  567MOL0     C78110  10.952   8.498   7.216  0.4722  0.1097 -0.2740
  567MOL0     O78111  11.063   8.418   7.214  0.4501  1.1003 -0.0648
  567MOL0     C78112  11.176   8.466   7.163 -0.7726 -1.1936 -0.0185
  567MOL0     C78113  11.214   8.452   7.031 -0.4272  0.1391 -0.2090
  567MOL0     C78114  11.335   8.503   6.979  1.1379 -0.2775  0.9158
  567MOL0     C78115  11.417   8.581   7.062 -0.6329 -0.1514  0.1571
  567MOL0     O78116  11.532   8.642   7.021  0.0903 -0.0573 -0.3402
  567MOL0     C78117  11.536   8.676   6.883 -0.0651 -0.2126  0.3732
  567MOL0     C78118  11.642   8.784   6.867 -0.6909  0.0507  0.1693
  567MOL0     C78119  11.784   8.722   6.887 -0.4686  0.3495 -0.2997
  567MOL0     C78120  11.880   8.845   6.904  0.2179  0.4248  0.0242
  567MOL0     C78121  12.027   8.789   6.915 -0.2852  0.2867 -0.1860
  567MOL0     C78122  12.122   8.895   6.978 -0.5266 -0.6457 -0.1637
  567MOL0     C78123  12.256   8.822   6.996 -0.2160 -0.7572 -0.3199
  567MOL0     C78124  12.365   8.914   7.056 -0.1031  0.5427 -0.4782
  567MOL0     N78125  12.359   8.925   7.204  0.1763 -0.5925  0.2205
  567MOL0     C78126  12.301   9.032   7.268 -0.6903  0.2680 -0.2670
  567MOL0     C78127  12.339   9.019   7.400 -0.4049 -0.3493  0.1557
  567MOL0     C78128  12.298   9.106   7.527  0.4716  0.3036 -0.1861
  567MOL0     C78129  12.422   9.186   7.587  0.0661 -0.6293  0.0399
  567MOL0     C78130  12.448   9.317   7.505  0.5565  0.1302  0.6778
  567MOL0     C78131  12.588   9.378   7.536  0.0688 -0.7306  0.1028
  567MOL0     O78132  12.600   9.416   7.671  1.0880  0.7545  0.3639
  567MOL0     C78133  12.721   9.453   7.721 -0.5984  0.4957 -0.1941
  567MOL0     C78134  12.721   9.454   7.857 -0.8776  1.0538  0.4972
  567MOL0     C78135  12.837   9.476   7.932  0.5204 -0.6234  0.1886
  567MOL0     C78136  12.828   9.465   8.081 -0.2954 -0.3889  0.3689
  567MOL0     C78137  12.963   9.505   7.857 -0.5603  0.1883 -1.4966
  567MOL0     C78138  13.093   9.556   7.919  0.7069 -0.9127  0.4408
  567MOL0     O78139  13.180   9.599   7.827  0.1677  0.4315 -0.0578
  567MOL0     C78140  13.315   9.612   7.848  0.5683 -0.5227  0.1094
  567MOL0     C78141  13.383   9.651   7.739  0.1134  0.1368 -0.6581
  567MOL0     C78142  13.518   9.679   7.746 -0.2866 -0.2964 -0.5089
  567MOL0     C78143  13.595   9.647   7.855  0.5560 -0.6474 -0.6951
  567MOL0     O78144  13.725   9.662   7.870  0.2423 -0.4411 -0.3973
  567MOL0     C78145  13.802   9.679   7.742 -0.1400  0.6739  0.3185
  567MOL0     C78146  13.951   9.680   7.761  0.4611  0.2124 -1.0193
  567MOL0     C78147  14.010   9.781   7.860  0.2571  0.9886  0.3944
  567MOL0     C78148  14.164   9.765   7.854 -0.0892  0.6118 -0.0755
  567MOL0     C78149  14.230   9.840   7.966  0.6401 -0.5847  1.3864
  567MOL0     C78150  14.367   9.782   7.986 -0.4058  0.4522 -0.8340
  567MOL0     C78151  14.436   9.890   8.085 -0.9473  0.5046  0.4215
  567MOL0     C78152  14.585   9.853   8.082  1.0409 -0.0527  0.4394
  567MOL0    Cl78153  14.683   9.971   8.182  0.1681  0.0691 -0.5147
  567MOL0     C78154  13.528   9.601   7.968 -0.1435 -0.2785 -0.3324
  567MOL0     C78155  13.390   9.573   7.965 -0.4812 -0.3434 -0.3289
  567MOL0     O78156  13.111   9.560   8.042  0.2218  0.0809 -0.5068
  567MOL0     C78157  12.964   9.501   7.720 -0.9255 -0.4778  0.5315
  567MOL0     C78158  12.841   9.478   7.650 -0.6258  0.0081  0.2089
  567MOL0     N78159  12.413   8.901   7.406  0.4021  0.4183  0.1233
  567MOL0     N78160  12.419   8.838   7.290 -0.9843 -0.3857  0.9419
  567MOL0     C78161  11.387   8.589   7.194  0.0920 -0.4008 -0.3948
  567MOL0     C78162  11.276   8.522   7.250  0.5822  0.6223  0.7845
  567MOL0     C78163  10.832   8.450   7.284  0.5066 -0.4220  0.3425
  567MOL0     C78164  10.747   8.547   7.327  0.0397  0.0967 -0.0334
  567MOL0     C78165  10.616   8.518   7.379 -0.1337 -0.3426 -0.2479
  567MOL0     C78166  10.574   8.387   7.392  0.9000 -0.0197  1.7472
  567MOL0     O78167  10.450   8.345   7.433 -0.7662  0.9156 -0.2602
  567MOL0     C78168  10.361   8.449   7.478  0.8636 -0.2851 -0.6069
  567MOL0     C78169  10.236   8.408   7.564  0.2206  0.0122 -0.2737
  567MOL0     C78170  10.271   8.290   7.644 -0.5501  0.2470  0.2510
  567MOL0     C78171  10.166   8.228   7.732 -0.3540  0.0125  0.2823
  567MOL0     C78172  10.200   8.096   7.782  0.0632 -0.5838 -0.1057
  567MOL0     C78173  10.223   7.983   7.818 -0.0682  0.3346 -0.2431
  567MOL0     C78174  10.655   8.287   7.343  0.0791 -0.3809 -0.5651
  567MOL0     C78175  10.791   8.315   7.300  0.4399 -0.3139  1.0109
  567MOL0     C78176  10.884   8.192   7.280  0.2764 -0.8091  0.5248
  567MOL0     H78177  11.136   8.413   6.965 -0.6307  1.8309 -1.0163
  567MOL0     H78178  11.359   8.493   6.874  0.1226  0.7978  0.5626
  567MOL0     H78179  11.440   8.715   6.846  1.6121  1.5864 -2.4483
  567MOL0     H78180  11.554   8.591   6.817  1.5725  1.2889 -1.2463
  567MOL0     H78181  11.641   8.837   6.771 -0.8408  2.9404  1.6320
  567MOL0     H78182  11.639   8.871   6.934  1.2920  0.7597 -0.5854
  567MOL0     H78183  11.791   8.658   6.975 -0.0253  0.2348 -0.4155
  567MOL0     H78184  11.808   8.661   6.799 -0.3575 -1.5631  1.0025
  567MOL0     H78185  11.885   8.918   6.824  0.1063 -1.8665 -2.2091
  567MOL0     H78186  11.856   8.887   7.002 -2.4401 -0.2487 -0.2746
  567MOL0     H78187  12.063   8.763   6.815  3.0254  1.6330  0.5207
  567MOL0     H78188  12.029   8.707   6.987 -2.0767 -0.0425 -0.4738
  567MOL0     H78189  12.133   8.976   6.905 -0.2031 -0.2156  0.3498
  567MOL0     H78190  12.099   8.942   7.075  1.0195 -4.8256  2.4890
  567MOL0     H78191  12.296   8.791   6.899 -0.1950 -3.0604  0.3561
  567MOL0     H78192  12.240   8.739   7.065  1.5170 -0.9663 -0.1236
  567MOL0     H78193  12.464   8.867   7.051 -0.6021 -0.6653  0.5228
  567MOL0     H78194  12.377   9.007   7.000 -0.8483  1.2352  0.4701
  567MOL0     H78195  12.250   9.111   7.215 -0.6752 -0.7146 -1.8084
  567MOL0     H78196  12.245   9.042   7.598 -0.2453  0.8596 -0.2048
  567MOL0     H78197  12.228   9.181   7.489  1.2407  0.7373 -0.7747
  567MOL0     H78198  12.390   9.222   7.686 -1.7622 -4.9925  1.2997
  567MOL0     H78199  12.512   9.127   7.608 -1.0439 -2.7040 -0.7078
  567MOL0     H78200  12.453   9.286   7.400 -0.4049  0.9264  0.3843
  567MOL0     H78201  12.370   9.393   7.519  2.6589  2.7559 -1.0164
  567MOL0     H78202  12.660   9.296   7.527 -0.3167 -1.1144  0.4099
  567MOL0     H78203  12.606   9.463   7.471 -0.7534 -0.4906  0.1754
  567MOL0     H78204  12.627   9.416   7.895 -0.6062 -1.9596 -1.4677
  567MOL0     H78205  12.731   9.499   8.119  0.4888  0.7794  1.4034
  567MOL0     H78206  12.889   9.536   8.138  1.1221 -0.8982 -0.4783
  567MOL0     H78207  12.838   9.359   8.105  1.6294 -0.6977 -1.5491
  567MOL0     H78208  13.332   9.666   7.645 -0.5395 -1.2204 -0.5468
  567MOL0     H78209  13.567   9.706   7.653  1.1399  0.1780  0.3497
  567MOL0     H78210  13.773   9.608   7.663 -2.6671  1.8760  0.0549
  567MOL0     H78211  13.775   9.778   7.705  0.1036  0.5205 -0.2827
  567MOL0     H78212  13.987   9.582   7.792  2.9933  1.5093  0.4642
  567MOL0     H78213  13.986   9.710   7.662  1.6252  2.4742 -0.0054
  567MOL0     H78214  13.961   9.758   7.956  0.2089 -0.8262 -0.0444
  567MOL0     H78215  13.982   9.886   7.844 -0.1754  0.6492 -1.2753
  567MOL0     H78216  14.213   9.793   7.760  1.4097 -0.2515  0.4184
  567MOL0     H78217  14.193   9.661   7.873  1.3636  0.9664 -0.3050
  567MOL0     H78218  14.241   9.941   7.926  1.8648 -1.2796 -0.1865
  567MOL0     H78219  14.171   9.839   8.058 -0.2460  0.1266  0.8434
  567MOL0     H78220  14.416   9.763   7.891 -2.7924 -0.9797 -1.8672
  567MOL0     H78221  14.360   9.684   8.035 -0.4432  0.9642  0.2184
  567MOL0     H78222  14.398   9.878   8.187 -1.0637 -0.2387  0.2973
  567MOL0     H78223  14.430   9.993   8.050  1.0642  0.9634  1.2953
  567MOL0     H78224  14.612   9.869   7.978 -2.4076 -0.1807 -0.5931
  567MOL0     H78225  14.604   9.747   8.104  0.0350  0.1921  2.8850
  567MOL0     H78226  13.585   9.565   8.053  0.0737  3.7563  1.4642
  567MOL0     H78227  13.335   9.542   8.053 -2.5346 -0.9843 -1.7642
  567MOL0     H78228  13.056   9.514   7.664 -0.7594  1.7132  1.2355
  567MOL0     H78229  12.850   9.472   7.542 -0.3410  2.1172  0.0767
  567MOL0     H78230  11.453   8.655   7.250  0.9136 -1.0760 -0.5483
  567MOL0     H78231  11.259   8.541   7.356 -0.0073 -0.4913  0.8983
  567MOL0     H78232  10.770   8.653   7.317  1.0145 -0.0652  0.3593
  567MOL0     H78233  10.555   8.605   7.404  2.8675  1.9413 -0.2459
  567MOL0     H78234  10.420   8.511   7.547  0.7754 -0.1946 -0.6134
  567MOL0     H78235  10.333   8.504   7.388  0.4451 -0.0135 -0.3112
  567MOL0     H78236  10.155   8.377   7.498 -0.7968 -1.8799  1.7288
  567MOL0     H78237  10.199   8.484   7.633  0.9163 -1.9801  2.4723
  567MOL0     H78238  10.304   8.219   7.567  0.1924 -1.1725  1.8123
  567MOL0     H78239  10.359   8.303   7.708 -0.4422 -4.1174  1.3090
  567MOL0     H78240  10.085   8.212   7.659  1.3457  3.2020 -2.5701
  567MOL0     H78241  10.140   8.286   7.820  0.0615  0.0296  0.3927
  567MOL0     H78242  10.248   7.880   7.836  0.6133  0.4010 -0.7584
  567MOL0     H78243  10.615   8.189   7.368 -2.3450  0.5341 -0.5364
  567MOL0     H78244  10.828   8.098   7.285  0.8107 -1.1573  0.0330
  567MOL0     H78245  10.927   8.205   7.180 -0.4951  0.6742  0.3505
  567MOL0     H78246  10.969   8.196   7.348  3.8007  3.7089 -3.3513
  568MOL0     O78247   0.572   6.928   9.687  0.1847 -0.8979 -0.2408
  568MOL0     C78248   0.496   7.015   9.630  0.1692  0.0055  0.1047
  568MOL0     O78249   0.513   7.150   9.628 -0.2607  0.2347  0.0458
  568MOL0     C78250   0.647   7.192   9.636 -0.1645 -0.8825 -0.5371
  568MOL0     C78251   0.689   7.264   9.743  0.3293  0.0458 -0.6747
  568MOL0     C78252   0.810   7.332   9.741  0.3775  0.6272 -0.6855
  568MOL0     C78253   0.892   7.315   9.630  0.8307 -1.6579 -0.4655
  568MOL0     O78254   1.005   7.385   9.617  0.0112 -0.1925 -0.1340
  568MOL0     C78255   1.015   7.510   9.697 -0.1658 -0.1743 -0.7140
  568MOL0     C78256   1.138   7.593   9.662 -0.1867  0.1868 -0.9597
  568MOL0     C78257   1.259   7.497   9.668 -0.5003 -1.0006 -0.7682
  568MOL0     C78258   1.384   7.558   9.718 -0.8911  0.4985  0.7277
  568MOL0     C78259   1.508   7.466   9.731  0.5860 -0.3348  1.0872
  568MOL0     C78260   1.553   7.391   9.607 -0.1799  0.5482  0.6340
  568MOL0     C78261   1.670   7.296   9.631  0.0630  0.7669 -0.0494
  568MOL0     C78262   1.657   7.201   9.756 -0.0993  0.3545 -0.5966
  568MOL0     N78263   1.786   7.132   9.784  0.1921  0.3644  0.2691
  568MOL0     C78264   1.833   7.023   9.701  0.1038  0.5585 -0.4265
  568MOL0     C78265   1.948   6.987   9.760  0.4096  0.7678 -0.1020
  568MOL0     C78266   1.998   6.847   9.733  0.2860 -0.5231  0.0827
  568MOL0     C78267   2.127   6.843   9.665 -0.2649  0.2833  0.3998
  568MOL0     C78268   2.245   6.894   9.749  0.5340  0.8792  0.1196
  568MOL0     C78269   2.255   6.833   9.890  0.7402  0.6842 -0.7006
  568MOL0     O78270   2.361   6.882   9.973  0.8995  0.4189 -0.6000
  568MOL0     C78271   2.497   6.852   9.952  0.4480  0.0982 -0.3425
  568MOL0     C78272   2.538   6.741   9.882  0.4780  0.0659  0.1201
  568MOL0     C78273   2.679   6.708   9.872 -0.6930  0.1672  0.1294
  568MOL0     C78274   2.722   6.601   9.778  0.2111  0.1482  0.3466
  568MOL0     C78275   2.774   6.792   9.942 -0.1248  1.0137  1.0123
  568MOL0     C78276   2.920   6.766   9.953 -0.2375  0.8332  0.4453
  568MOL0     O78277   2.968   6.641   9.925  0.4728 -0.1002 -0.2703
  568MOL0     C78278   3.097   6.603   9.926 -1.0426  0.4707 -0.2560
  568MOL0     C78279   3.119   6.465   9.905  0.6293 -0.2549  0.4521
  568MOL0     C78280   3.247   6.403   9.895 -0.1298 -0.3432 -0.4955
  568MOL0     C78281   3.355   6.481   9.934 -0.1689 -0.7687 -0.8656
  568MOL0     O78282   3.484   6.425   9.942  0.1436 -0.4196 -0.8421
  568MOL0     C78283   3.598   6.479   9.872 -0.4940 -0.2083  0.3071
  568MOL0     C78284   3.610   6.415   9.727 -0.9122  0.0187 -0.3914
  568MOL0     C78285   3.593   6.265   9.721 -0.5680 -0.5013  0.2301
  568MOL0     C78286   3.470   6.244   9.638 -0.2928 -0.0643  0.2128
  568MOL0     C78287   3.465   6.110   9.578 -0.1143 -0.2387  0.5225
  568MOL0     C78288   3.384   6.019   9.673 -0.6020  0.0413  0.7475
  568MOL0     C78289   3.431   5.872   9.663  0.7672  0.7830 -0.7901
  568MOL0     C78290   3.360   5.767   9.765 -0.7045  0.4370  0.5097
  568MOL0    Cl78291   3.414   5.819   9.926 -0.4756  0.4189  0.1367
  568MOL0     C78292   3.341   6.615   9.974 -0.0023 -1.0839  0.5180
  568MOL0     C78293   3.213   6.675   9.962  0.1869 -0.2228  0.5993
  568MOL0     O78294   2.987   6.868   9.984  0.0026 -0.4830  0.7157
  568MOL0     C78295   2.721   6.901  10.016 -0.6643  0.7012  0.3486
  568MOL0     C78296   2.584   6.925  10.026  0.1834 -0.6045 -0.1509
  568MOL0     N78297   1.981   7.082   9.861  0.5716  0.3694  0.8941
  568MOL0     N78298   1.877   7.165   9.879 -0.3430 -0.4615  0.1598
  568MOL0     C78299   0.852   7.243   9.520  0.4507 -0.4093  1.0323
  568MOL0     C78300   0.725   7.186   9.526 -0.8213  0.6416 -0.5953
  568MOL0     C78301   0.374   6.957   9.574  0.1791 -0.0892  0.0639
  568MOL0     C78302   0.335   6.824   9.601  0.8809 -0.7410 -0.5324
  568MOL0     C78303   0.218   6.764   9.546 -0.0696 -0.3862  0.5910
  568MOL0     C78304   0.133   6.834   9.462 -0.0580 -0.1548 -0.3263
  568MOL0     O78305   0.020   6.771   9.414 -0.3190  0.0879  0.3473
  568MOL0     C78306  -0.078   6.848   9.340 -0.3499 -0.3529 -0.2651
  568MOL0     C78307  -0.151   6.958   9.419  0.6097  0.3444  0.0362
  568MOL0     C78308  -0.297   6.954   9.409  0.0174  1.1618 -0.2268
  568MOL0     C78309  -0.353   7.050   9.525 -0.1731  0.8573  0.2307
  568MOL0     C78310  -0.501   7.034   9.528 -0.0566  0.2861  0.3398
  568MOL0     C78311  -0.624   7.037   9.524  0.1864 -0.1202 -0.0762
  568MOL0     C78312   0.168   6.973   9.440 -0.5261 -0.4243 -0.0004
  568MOL0     C78313   0.289   7.032   9.485  0.3057 -0.1408 -0.2828
  568MOL0     C78314   0.328   7.167   9.434  0.4656  0.6773 -0.1854
  568MOL0     H78315   0.615   7.271   9.822  0.7738  0.6381 -0.3011
  568MOL0     H78316   0.832   7.396   9.826  0.8490  2.8135 -2.3726
  568MOL0     H78317   1.027   7.478   9.801 -1.0603 -2.7141 -1.3243
  568MOL0     H78318   0.916   7.556   9.690 -0.7911 -0.8815  2.0553
  568MOL0     H78319   1.126   7.625   9.558  1.6482 -0.0741 -1.2846
  568MOL0     H78320   1.149   7.680   9.728  2.8869  0.3780 -1.5725
  568MOL0     H78321   1.242   7.418   9.741  1.2824  1.7942  2.9955
  568MOL0     H78322   1.264   7.452   9.568  1.5086 -1.3853 -0.5330
  568MOL0     H78323   1.401   7.635   9.642  0.9259  1.2947  1.8898
  568MOL0     H78324   1.358   7.598   9.816 -3.3883 -0.1804  0.4120
  568MOL0     H78325   1.484   7.390   9.806  0.0245 -0.2476  1.0044
  568MOL0     H78326   1.588   7.532   9.762  0.0488 -0.0225  1.8369
  568MOL0     H78327   1.473   7.331   9.563  2.6339 -3.2371  0.1290
  568MOL0     H78328   1.593   7.464   9.535  1.9699 -0.5153  0.6747
  568MOL0     H78329   1.762   7.351   9.652  0.4498  0.2654 -0.4093
  568MOL0     H78330   1.696   7.244   9.539 -0.1632  0.2638  0.1658
  568MOL0     H78331   1.627   7.252   9.848  1.5433 -0.0109  0.1879
  568MOL0     H78332   1.575   7.133   9.734  0.8059 -1.3548  0.9960
  568MOL0     H78333   1.770   6.974   9.627  0.7077 -0.6041 -0.1897
  568MOL0     H78334   1.937   6.795   9.659  0.9123  0.4039 -1.1195
  568MOL0     H78335   2.014   6.793   9.827 -0.7354  1.7562  1.6574
  568MOL0     H78336   2.143   6.737   9.642 -4.3916 -0.4862  0.2295
  568MOL0     H78337   2.118   6.901   9.573 -2.8731 -0.9085 -0.1946
  568MOL0     H78338   2.340   6.865   9.704  0.1790 -0.6999  0.3233
  568MOL0     H78339   2.247   7.002   9.766  2.3493  0.7321  1.0870
  568MOL0     H78340   2.163   6.857   9.945 -0.5938  0.4582 -2.7207
  568MOL0     H78341   2.259   6.724   9.885 -1.3553  0.5781 -1.2740
  568MOL0     H78342   2.463   6.693   9.820  1.5151 -0.2309 -0.9493
  568MOL0     H78343   2.639   6.558   9.722 -0.2851  1.4890  0.0149
  568MOL0     H78344   2.792   6.528   9.820  0.5785  1.6035  2.4451
  568MOL0     H78345   2.779   6.651   9.700  1.1362 -1.9472 -0.3745
  568MOL0     H78346   3.027   6.412   9.884 -0.4015  0.3240  3.1020
  568MOL0     H78347   3.263   6.298   9.870  1.2061  0.0253 -1.2557
  568MOL0     H78348   3.587   6.587   9.860 -1.7062 -0.2236  1.1142
  568MOL0     H78349   3.687   6.444   9.925 -0.5422 -0.4808  0.2129
  568MOL0     H78350   3.533   6.469   9.671 -0.7348  0.4756 -0.2038
  568MOL0     H78351   3.705   6.454   9.690 -0.5695  2.4934  2.6678
  568MOL0     H78352   3.591   6.208   9.815  1.5623  0.4111  0.8831
  568MOL0     H78353   3.680   6.232   9.665 -0.5212  0.0650 -0.0290
  568MOL0     H78354   3.452   6.309   9.552  0.5064  0.3999  0.3846
  568MOL0     H78355   3.376   6.263   9.692 -1.4014  1.4696 -2.0965
  568MOL0     H78356   3.427   6.112   9.475  2.5621  1.3205 -0.5403
  568MOL0     H78357   3.566   6.068   9.580 -0.5191 -1.2104  2.9870
  568MOL0     H78358   3.277   6.019   9.650 -0.9615 -2.2708  2.0658
  568MOL0     H78359   3.409   6.050   9.775 -0.4575  0.1948  0.6648
  568MOL0     H78360   3.539   5.865   9.679  0.6650  0.9723  0.0417
  568MOL0     H78361   3.414   5.840   9.560 -2.1559 -0.8854  0.0765
  568MOL0     H78362   3.404   5.672   9.734  1.9972  1.6756  0.2687
  568MOL0     H78363   3.252   5.767   9.751 -0.5484  0.2394 -0.8726
  568MOL0     H78364   3.431   6.668  10.003  0.2488  0.6050 -2.8364
  568MOL0     H78365   3.208   6.782   9.982 -0.6597 -0.5265  2.2319
  568MOL0     H78366   2.790   6.962  10.075 -0.5196  0.6765  0.2059
  568MOL0     H78367   2.561   7.005  10.095  1.9592  0.5024 -0.7863
  568MOL0     H78368   0.905   7.238   9.426 -3.2026 -1.5057 -1.1694
  568MOL0     H78369   0.692   7.142   9.432 -0.4104 -2.2608  0.4895
  568MOL0     H78370   0.398   6.757   9.660  1.6862  1.2007  0.9197
  568MOL0     H78371   0.185   6.664   9.576 -0.0640 -0.3400  0.7550
  568MOL0     H78372  -0.025   6.900   9.260 -1.8991  1.2043 -0.3466
  568MOL0     H78373  -0.146   6.780   9.287  0.0843 -1.9684  1.1507
  568MOL0     H78374  -0.128   7.055   9.373 -2.3699  0.2260 -1.9692
  568MOL0     H78375  -0.128   6.952   9.525 -0.0708  0.4447  0.1932
  568MOL0     H78376  -0.331   6.982   9.309  3.5611  2.9382 -1.0745
  568MOL0     H78377  -0.333   6.852   9.427  1.2397  1.2876  3.8036
  568MOL0     H78378  -0.321   7.152   9.504 -2.4401  1.1802 -2.2250
  568MOL0     H78379  -0.309   7.019   9.620  0.8027  1.6203  0.0365
  568MOL0     H78380  -0.729   7.053   9.517  0.4841  1.1160 -3.3258
  568MOL0     H78381   0.101   7.030   9.377 -3.6705 -1.8769  1.7931
  568MOL0     H78382   0.434   7.171   9.404  0.3130 -0.0055 -0.8503
  568MOL0     H78383   0.264   7.196   9.351 -2.8856  0.4485  2.1451
  568MOL0     H78384   0.320   7.249   9.505  0.8970 -0.2049  0.9090
  569MOL0     O78385   9.209   4.154   7.097 -0.7095 -0.3215  0.0483
  569MOL0     C78386   9.297   4.241   7.122  0.6571  0.4588 -0.2176
  569MOL0     O78387   9.269   4.368   7.105  0.3421 -1.0465  0.1930
  569MOL0     C78388   9.185   4.404   7.007  0.7684  0.4316 -0.0292
  569MOL0     C78389   9.046   4.387   7.029 -0.6952 -0.6634  0.2770
  569MOL0     C78390   8.963   4.451   6.937 -0.1099  0.1240  0.3754
  569MOL0     C78391   9.009   4.534   6.830  0.3842 -0.5634 -0.3889
  569MOL0     O78392   8.913   4.589   6.738 -0.1638  1.0702 -0.1383
  569MOL0     C78393   8.824   4.488   6.692 -0.9480  0.4167 -0.2074
  569MOL0     C78394   8.780   4.559   6.561  0.4066 -0.1768  0.1032
  569MOL0     C78395   8.638   4.615   6.569 -0.8572  0.0103  0.2662
  569MOL0     C78396   8.620   4.726   6.673  0.0102  0.2097 -0.0239
  569MOL0     C78397   8.484   4.795   6.672 -1.3385  0.8875 -0.0838
  569MOL0     C78398   8.371   4.697   6.688 -0.4677  1.2091 -0.6004
  569MOL0     C78399   8.233   4.745   6.661  0.0909 -0.7187 -1.0511
  569MOL0     C78400   8.127   4.638   6.653 -0.0036 -0.2875  0.2642
  569MOL0     N78401   7.986   4.689   6.643  0.5540 -0.2252 -0.0605
  569MOL0     C78402   7.927   4.711   6.527  0.3180 -0.3350  0.6563
  569MOL0     C78403   7.808   4.770   6.569 -0.1320 -0.0740  0.4144
  569MOL0     C78404   7.689   4.809   6.474  0.6463  0.1165  0.8152
  569MOL0     C78405   7.598   4.682   6.455  0.2726 -0.0867  0.5023
  569MOL0     C78406   7.654   4.584   6.345 -0.1524 -0.2574 -0.4526
  569MOL0     C78407   7.614   4.435   6.361 -1.6015  0.0450 -1.2360
  569MOL0     O78408   7.717   4.350   6.315  0.3512 -0.3132 -0.7371
  569MOL0     C78409   7.826   4.330   6.392  0.5493  0.3627  0.8816
  569MOL0     C78410   7.946   4.287   6.331  0.5246  0.0256  0.4295
  569MOL0     C78411   8.072   4.275   6.396  0.1275 -0.2391  0.1650
  569MOL0     C78412   8.184   4.219   6.315 -0.4944 -0.2652  0.2985
  569MOL0     C78413   8.084   4.318   6.528 -0.3192  0.5903  0.4848
  569MOL0     C78414   8.202   4.316   6.606  0.4228 -0.7456  0.0026
  569MOL0     O78415   8.195   4.279   6.737 -0.8896 -0.6429 -0.2249
  569MOL0     C78416   8.312   4.278   6.820  1.1571 -0.1497  0.3250
  569MOL0     C78417   8.407   4.175   6.821  0.0323  0.0577  0.8600
  569MOL0     C78418   8.515   4.165   6.904  0.3588 -0.2194  0.0398
  569MOL0     C78419   8.529   4.273   6.995  1.0475  0.1367 -0.5660
  569MOL0     O78420   8.642   4.263   7.064 -0.1216 -0.5933 -0.3400
  569MOL0     C78421   8.624   4.282   7.208 -0.3517  1.2039 -0.5898
  569MOL0     C78422   8.656   4.148   7.271 -0.8191  1.0169 -0.8228
  569MOL0     C78423   8.804   4.154   7.301 -0.4451  0.0720 -0.6054
  569MOL0     C78424   8.877   4.020   7.314  0.1609  0.0282 -0.1161
  569MOL0     C78425   9.019   4.040   7.383 -0.2113  0.5989 -0.8922
  569MOL0     C78426   9.095   3.905   7.384  0.5374  0.1276  0.2667
  569MOL0     C78427   9.210   3.908   7.484 -0.5236  0.3382 -0.3129
  569MOL0     C78428   9.306   4.022   7.492  0.3900  0.3016 -0.2224
  569MOL0    Cl78429   9.442   3.971   7.592  0.1307 -0.4159  0.2923
  569MOL0     C78430   8.429   4.379   7.006  0.9774  0.6126 -0.6888
  569MOL0     C78431   8.316   4.376   6.922 -0.0625 -0.1751  0.3544
  569MOL0     O78432   8.301   4.357   6.549 -0.1691 -0.4968 -0.3800
  569MOL0     C78433   7.965   4.361   6.596 -0.3807  0.1960 -0.3189
  569MOL0     C78434   7.839   4.363   6.532 -0.0391  0.7806  0.3662
  569MOL0     N78435   7.812   4.776   6.715  0.1024 -0.4504  0.4584
  569MOL0     N78436   7.925   4.736   6.758  0.2139  0.2617  0.7028
  569MOL0     C78437   9.147   4.551   6.814 -0.5154 -0.6095 -1.3242
  569MOL0     C78438   9.232   4.498   6.911 -0.9287  0.6733  0.6879
  569MOL0     C78439   9.424   4.208   7.183 -0.2014 -0.9602  0.3354
  569MOL0     C78440   9.497   4.311   7.247 -0.2031 -0.7223 -0.5234
  569MOL0     C78441   9.618   4.271   7.315  0.6108 -0.7402 -0.0176
  569MOL0     C78442   9.681   4.149   7.303  0.7058 -1.2723 -0.8617
  569MOL0     O78443   9.786   4.132   7.385  0.8015 -0.1549 -0.2675
  569MOL0     C78444   9.840   4.014   7.434 -0.0008  0.4005 -0.4379
  569MOL0     C78445   9.856   4.005   7.581  0.6204  0.9859 -0.6142
  569MOL0     C78446   9.927   3.876   7.623 -0.4915 -0.3135 -0.4000
  569MOL0     C78447   9.849   3.750   7.585  0.9367  0.5122  0.5396
  569MOL0     C78448   9.893   3.641   7.667 -0.1778  0.0634  0.3793
  569MOL0     C78449   9.949   3.558   7.735 -0.5745  0.1553 -0.3882
  569MOL0     C78450   9.617   4.055   7.225 -1.2174 -0.6174 -0.2974
  569MOL0     C78451   9.491   4.081   7.169  0.8667 -0.0575  0.7975
  569MOL0     C78452   9.444   3.967   7.089  0.8116 -0.3695 -0.4955
  569MOL0     H78453   9.007   4.324   7.108 -0.3535 -2.2278 -0.7552
  569MOL0     H78454   8.855   4.445   6.946 -0.1824 -0.2945 -0.6350
  569MOL0     H78455   8.748   4.484   6.771  1.4136 -1.2228  2.1709
  569MOL0     H78456   8.878   4.393   6.677 -1.1103  0.1880  0.5891
  569MOL0     H78457   8.851   4.632   6.522  0.9003  0.0741  1.4028
  569MOL0     H78458   8.765   4.489   6.479 -2.2801  0.5103 -0.1009
  569MOL0     H78459   8.614   4.650   6.468  0.9482 -0.9010 -0.5186
  569MOL0     H78460   8.567   4.533   6.578 -1.1606 -0.1717 -2.7078
  569MOL0     H78461   8.639   4.696   6.777  1.9210 -1.0718 -0.6884
  569MOL0     H78462   8.703   4.794   6.654  0.8973 -0.2186  2.0864
  569MOL0     H78463   8.479   4.856   6.582  2.7443 -0.2379 -1.2780
  569MOL0     H78464   8.482   4.871   6.750 -0.7120 -1.4680  2.3818
  569MOL0     H78465   8.376   4.617   6.613  1.2707  2.2586 -1.6716
  569MOL0     H78466   8.383   4.660   6.790  2.1359 -0.5157 -1.4239
  569MOL0     H78467   8.247   4.794   6.564 -0.0630 -0.4854 -0.9568
  569MOL0     H78468   8.216   4.821   6.738  0.0522 -1.6826 -0.0769
  569MOL0     H78469   8.160   4.573   6.572  0.2727 -0.5862  0.6148
  569MOL0     H78470   8.135   4.575   6.742  1.6816 -2.0558 -1.0555
  569MOL0     H78471   7.965   4.681   6.429  1.1502  0.4529  0.7192
  569MOL0     H78472   7.721   4.851   6.378 -0.8509  0.8530  0.5958
  569MOL0     H78473   7.627   4.876   6.535  1.1288 -1.4846  3.1695
  569MOL0     H78474   7.577   4.625   6.546 -4.4276 -0.3487 -0.4947
  569MOL0     H78475   7.501   4.710   6.412  2.4045  0.5661 -4.6660
  569MOL0     H78476   7.616   4.625   6.251  1.5986  0.0765 -1.0506
  569MOL0     H78477   7.763   4.576   6.337 -0.0959 -0.4631  0.3939
  569MOL0     H78478   7.591   4.419   6.467 -2.0629 -0.6538 -1.4320
  569MOL0     H78479   7.523   4.409   6.307 -3.0417 -2.2249  1.9709
  569MOL0     H78480   7.951   4.261   6.225 -0.2033 -0.0335  0.4009
  569MOL0     H78481   8.166   4.214   6.207 -0.0173 -1.0794  0.2504
  569MOL0     H78482   8.203   4.118   6.352  2.4509  0.3774  0.8207
  569MOL0     H78483   8.272   4.282   6.330 -1.0916  0.3833  1.1511
  569MOL0     H78484   8.406   4.094   6.749 -1.9124 -0.6020  1.5738
  569MOL0     H78485   8.586   4.085   6.888  0.9274  0.0836  0.9500
  569MOL0     H78486   8.689   4.358   7.251  0.8881  0.1660 -0.5588
  569MOL0     H78487   8.524   4.303   7.247 -0.5718  0.8157 -0.9275
  569MOL0     H78488   8.616   4.121   7.369  1.2877  2.2482  0.4604
  569MOL0     H78489   8.641   4.062   7.204 -2.0864 -0.4917  1.2606
  569MOL0     H78490   8.818   4.210   7.394 -1.1642 -2.9742  1.4842
  569MOL0     H78491   8.857   4.217   7.229 -1.6786  0.0634 -1.5496
  569MOL0     H78492   8.892   3.974   7.216  4.0621 -2.2753  1.3137
  569MOL0     H78493   8.809   3.958   7.374 -1.3192  2.2955  0.6685
  569MOL0     H78494   9.076   4.122   7.339 -0.3585  1.5759  0.6551
  569MOL0     H78495   8.997   4.051   7.490  3.5656 -4.2558  0.7750
  569MOL0     H78496   9.135   3.890   7.283  0.3218 -0.1798  0.2250
  569MOL0     H78497   9.034   3.816   7.400  0.9366 -0.4325 -1.1560
  569MOL0     H78498   9.269   3.817   7.470  0.3812  0.8032  0.3689
  569MOL0     H78499   9.161   3.901   7.582 -1.3955  1.2451 -0.6674
  569MOL0     H78500   9.255   4.107   7.539 -1.8201 -0.6277 -0.7882
  569MOL0     H78501   9.351   4.046   7.396 -0.0881  3.0433  0.1611
  569MOL0     H78502   8.422   4.450   7.087 -2.0424  0.7290 -0.9326
  569MOL0     H78503   8.233   4.446   6.935 -0.0964 -0.4680  1.8530
  569MOL0     H78504   7.975   4.392   6.700  1.9622 -0.5627 -0.2545
  569MOL0     H78505   7.752   4.385   6.592  0.5408  1.2859  1.0448
  569MOL0     H78506   9.187   4.611   6.733  0.3950 -1.3528 -1.4445
  569MOL0     H78507   9.334   4.535   6.907 -1.3548  1.8912  0.6305
  569MOL0     H78508   9.447   4.404   7.271  1.2294 -0.0224 -0.1061
  569MOL0     H78509   9.673   4.344   7.375  2.0951 -3.1227  1.6993
  569MOL0     H78510   9.764   3.941   7.405 -1.6403  2.2808 -1.1011
  569MOL0     H78511   9.934   3.991   7.383 -0.5000 -3.0214 -0.0687
  569MOL0     H78512   9.759   4.005   7.631  1.3691  0.4381  0.9209
  569MOL0     H78513   9.908   4.099   7.599  1.4263  1.0126 -2.7981
  569MOL0     H78514  10.030   3.879   7.585 -0.2316  0.9906  0.3414
  569MOL0     H78515   9.935   3.886   7.731  1.2515 -0.1319 -0.5284
  569MOL0     H78516   9.868   3.728   7.480  1.0580 -1.0023  0.8538
  569MOL0     H78517   9.744   3.778   7.602  0.8585  0.4395  0.1888
  569MOL0     H78518   9.992   3.487   7.803 -2.2768  0.6234  1.2526
  569MOL0     H78519   9.663   3.958   7.217 -1.8945 -1.0042  0.4262
  569MOL0     H78520   9.355   3.934   7.144  0.6798  0.0132 -0.4770
  569MOL0     H78521   9.408   4.005   6.993 -1.7199 -1.2263  0.0374
  569MOL0     H78522   9.509   3.880   7.084 -0.2156 -1.1528 -0.6357
  570MOL0     O78523   4.335   8.862   0.143 -0.2864  0.0023 -0.1382
  570MOL0     C78524   4.265   8.808   0.058  0.1590 -0.3129 -0.1574
  570MOL0     O78525   4.302   8.737  -0.045  0.1755 -0.0640 -0.0551
  570MOL0     C78526   4.436   8.729  -0.057 -0.7883  0.2152  0.2018
  570MOL0     C78527   4.507   8.787  -0.165  1.0836  0.3417  0.1181
  570MOL0     C78528   4.640   8.773  -0.192  0.5546 -0.2966  0.2037
  570MOL0     C78529   4.718   8.714  -0.091  0.3738 -0.1243  0.3901
  570MOL0     O78530   4.856   8.689  -0.112  0.1931 -0.7448 -0.2431
  570MOL0     C78531   4.946   8.780  -0.045  0.4966 -1.0007 -0.1152
  570MOL0     C78532   5.004   8.880  -0.148  0.0555 -0.5079 -0.2884
  570MOL0     C78533   5.102   8.819  -0.249  0.5602  0.2093 -0.5988
  570MOL0     C78534   5.231   8.753  -0.185 -0.4262  0.2993  0.4736
  570MOL0     C78535   5.357   8.787  -0.260  0.5361  0.0812 -0.0611
  570MOL0     C78536   5.359   8.731  -0.400 -0.3935  0.3960 -0.0066
  570MOL0     C78537   5.501   8.737  -0.454 -0.3899  0.9973  0.7135
  570MOL0     C78538   5.564   8.866  -0.482  0.1399 -0.5589 -0.8177
  570MOL0     N78539   5.704   8.860  -0.521  1.1777  0.8169  0.2112
  570MOL0     C78540   5.747   8.796  -0.637  0.2730  0.1365 -0.2509
  570MOL0     C78541   5.870   8.849  -0.671 -0.0485  0.8041  0.2462
  570MOL0     C78542   5.958   8.816  -0.786 -0.3267 -0.5033 -0.2737
  570MOL0     C78543   5.958   8.676  -0.841 -0.2149 -0.4100  0.1862
  570MOL0     C78544   6.032   8.568  -0.762  0.5075 -0.2690 -0.8577
  570MOL0     C78545   5.999   8.426  -0.807  0.1763  0.0278 -0.1405
  570MOL0     O78546   5.855   8.406  -0.824 -0.1893 -0.0408 -0.5844
  570MOL0     C78547   5.780   8.378  -0.707  0.6202 -0.7207  0.5500
  570MOL0     C78548   5.644   8.397  -0.714 -0.1544 -0.0409 -0.8324
  570MOL0     C78549   5.564   8.374  -0.598  0.7757  0.3526 -0.2226
  570MOL0     C78550   5.416   8.380  -0.619 -0.0528  0.1538  0.0662
  570MOL0     C78551   5.610   8.334  -0.469  0.2571 -0.7716  0.1944
  570MOL0     C78552   5.533   8.301  -0.346 -0.0430  0.7661  0.7184
  570MOL0     O78553   5.412   8.358  -0.322 -0.3608 -0.0102  0.2474
  570MOL0     C78554   5.330   8.335  -0.212 -0.5411 -0.5827  0.3556
  570MOL0     C78555   5.203   8.388  -0.244 -0.4332 -0.3053 -0.4452
  570MOL0     C78556   5.101   8.380  -0.155 -0.3518 -0.5693 -0.0475
  570MOL0     C78557   5.115   8.315  -0.031  0.1030  0.2819 -0.7391
  570MOL0     O78558   5.013   8.294   0.056  0.2618 -0.5661  0.8437
  570MOL0     C78559   4.876   8.311   0.007  0.2685 -0.4098  0.1567
  570MOL0     C78560   4.789   8.218   0.097  0.2492 -0.3754 -0.4445
  570MOL0     C78561   4.644   8.264   0.118 -0.2058  0.1734 -0.1983
  570MOL0     C78562   4.550   8.161   0.198  0.5602  0.1967  0.0480
  570MOL0     C78563   4.405   8.220   0.203  0.0282 -0.1074 -0.4347
  570MOL0     C78564   4.298   8.122   0.248  0.0489 -1.0355 -0.4790
  570MOL0     C78565   4.160   8.190   0.219  0.3846 -0.2654 -0.1013
  570MOL0     C78566   4.081   8.233   0.348 -0.2503  0.2969  0.7568
  570MOL0    Cl78567   3.926   8.310   0.306  0.2736  0.1539 -0.2980
  570MOL0     C78568   5.239   8.251  -0.012 -0.0966 -0.2843  0.3422
  570MOL0     C78569   5.350   8.260  -0.098  0.4160  0.7707  0.6007
  570MOL0     O78570   5.588   8.225  -0.271  0.7668  0.1696  0.3465
  570MOL0     C78571   5.754   8.315  -0.468 -0.5020  0.2348 -0.2221
  570MOL0     C78572   5.837   8.348  -0.580  1.0717 -0.2923 -0.2404
  570MOL0     N78573   5.899   8.939  -0.568 -0.1849 -0.3550  0.8769
  570MOL0     N78574   5.802   8.948  -0.481 -0.0333  0.1712  0.2776
  570MOL0     C78575   4.660   8.659   0.023  0.1928  0.6194 -0.0724
  570MOL0     C78576   4.517   8.656   0.037  0.1875  0.1063 -0.0696
  570MOL0     C78577   4.120   8.820   0.080 -0.2649  0.0178  0.7564
  570MOL0     C78578   4.069   8.950   0.082 -0.8449  0.0052  0.1013
  570MOL0     C78579   3.931   8.973   0.105  0.1611 -0.0852 -0.3528
  570MOL0     C78580   3.841   8.872   0.139  0.1608 -0.1991  0.3471
  570MOL0     O78581   3.705   8.891   0.167 -0.5680  0.0298  0.1036
  570MOL0     C78582   3.647   9.014   0.145  0.1119 -0.0798  0.0607
  570MOL0     C78583   3.498   9.006   0.128 -0.0208 -0.4996  1.2338
  570MOL0     C78584   3.423   9.135   0.168 -0.3739 -0.7749  0.8183
  570MOL0     C78585   3.289   9.102   0.228  0.0806 -0.6411 -0.9766
  570MOL0     C78586   3.199   9.217   0.232  0.3821 -0.5407  0.5366
  570MOL0     C78587   3.108   9.293   0.239  0.0298 -0.4773 -0.5241
  570MOL0     C78588   3.896   8.747   0.140  0.3300  0.5453 -0.1755
  570MOL0     C78589   4.030   8.718   0.118  0.0962  1.0033 -0.0192
  570MOL0     C78590   4.075   8.580   0.143  0.1561 -0.4500  0.8862
  570MOL0     H78591   4.446   8.834  -0.241  0.7682 -1.1278 -0.5750
  570MOL0     H78592   4.685   8.802  -0.287  0.6284  0.0876  0.3589
  570MOL0     H78593   5.022   8.718   0.003  0.2604 -1.4456 -0.3078
  570MOL0     H78594   4.900   8.844   0.031 -0.1582  0.3684 -1.5950
  570MOL0     H78595   4.918   8.922  -0.200  1.9455  2.4703 -1.2990
  570MOL0     H78596   5.046   8.954  -0.079 -3.7995 -1.0800  3.0355
  570MOL0     H78597   5.057   8.748  -0.319 -0.7154  0.5422 -0.1319
  570MOL0     H78598   5.144   8.900  -0.309  1.9964  1.1787  1.5805
  570MOL0     H78599   5.236   8.786  -0.080 -2.8380  0.3628  0.6165
  570MOL0     H78600   5.219   8.644  -0.180 -2.6613  0.5119  0.5663
  570MOL0     H78601   5.439   8.743  -0.202  0.2945  0.1482  0.3353
  570MOL0     H78602   5.368   8.895  -0.262 -0.0712  0.1523  0.0022
  570MOL0     H78603   5.340   8.625  -0.382  3.2887 -0.3096  0.7069
  570MOL0     H78604   5.277   8.763  -0.465 -0.6791  0.2778  0.2927
  570MOL0     H78605   5.499   8.665  -0.537 -0.6521  0.0522  1.5262
  570MOL0     H78606   5.558   8.679  -0.381  0.9949  0.5112 -0.6888
  570MOL0     H78607   5.511   8.912  -0.566 -1.9071 -1.9340 -0.3434
  570MOL0     H78608   5.550   8.945  -0.409 -0.4682  1.2524 -2.7774
  570MOL0     H78609   5.683   8.740  -0.705 -0.6474  2.5631 -1.4893
  570MOL0     H78610   6.060   8.853  -0.769 -0.5545  0.0909 -0.1549
  570MOL0     H78611   5.928   8.885  -0.865 -1.5469 -2.5801 -1.7284
  570MOL0     H78612   5.852   8.651  -0.853  0.4901 -3.1198 -1.0456
  570MOL0     H78613   6.014   8.686  -0.934  0.8023  0.3098  0.8483
  570MOL0     H78614   6.139   8.588  -0.769  0.6759  0.3371  2.3008
  570MOL0     H78615   6.006   8.592  -0.659  0.1219  0.8603 -1.1983
  570MOL0     H78616   6.052   8.409  -0.901  0.0729  2.8683 -0.7974
  570MOL0     H78617   6.051   8.357  -0.740  1.1677  2.3975  1.6739
  570MOL0     H78618   5.587   8.419  -0.803 -2.6922 -2.5450  0.0071
  570MOL0     H78619   5.382   8.445  -0.701 -2.2201 -2.8407 -1.6203
  570MOL0     H78620   5.356   8.431  -0.543 -0.4100  4.1191 -2.6003
  570MOL0     H78621   5.365   8.284  -0.634  0.2294 -0.0101  0.1601
  570MOL0     H78622   5.192   8.448  -0.334  2.3491  3.6407  1.5127
  570MOL0     H78623   5.010   8.433  -0.182 -0.4738 -2.0730 -3.0006
  570MOL0     H78624   4.849   8.415   0.029  1.8957  0.4791 -1.8285
  570MOL0     H78625   4.851   8.289  -0.097 -1.6023  2.5277 -0.1285
  570MOL0     H78626   4.795   8.120   0.048  0.7826 -1.3060  1.3856
  570MOL0     H78627   4.824   8.202   0.199  1.5134 -1.1202 -0.9764
  570MOL0     H78628   4.598   8.266   0.018  0.4179  2.2234 -0.4878
  570MOL0     H78629   4.640   8.365   0.159  1.7335 -0.0502  0.6400
  570MOL0     H78630   4.578   8.155   0.304  0.6025  0.7408  0.0679
  570MOL0     H78631   4.561   8.070   0.138  1.2613  2.3572 -3.3634
  570MOL0     H78632   4.390   8.303   0.272 -0.6977 -0.4618 -0.1532
  570MOL0     H78633   4.384   8.249   0.100  0.7929 -2.1054 -1.2086
  570MOL0     H78634   4.306   8.101   0.355 -0.5239  4.2351  0.9242
  570MOL0     H78635   4.318   8.028   0.196  3.4428 -1.2075  0.8472
  570MOL0     H78636   4.101   8.116   0.164 -1.0446 -0.5515  1.7441
  570MOL0     H78637   4.175   8.280   0.157  0.1827  2.5949  3.6487
  570MOL0     H78638   4.129   8.301   0.419 -1.5650  0.5871  1.4048
  570MOL0     H78639   4.058   8.147   0.411  0.3526 -1.5248 -1.3482
  570MOL0     H78640   5.259   8.182   0.070  0.0448 -0.2101  0.3701
  570MOL0     H78641   5.442   8.211  -0.069  0.8477  1.5623  0.5825
  570MOL0     H78642   5.809   8.281  -0.380 -0.0094  2.6310  0.4826
  570MOL0     H78643   5.944   8.352  -0.564  0.8244 -0.0765  1.6645
  570MOL0     H78644   4.710   8.601   0.099 -0.3206 -1.1109 -0.9976
  570MOL0     H78645   4.480   8.616   0.131  0.0491  0.0499 -0.1494
  570MOL0     H78646   4.126   9.036   0.047  1.2567 -1.8275 -1.2545
  570MOL0     H78647   3.887   9.072   0.112  0.0680 -0.1572  0.1440
  570MOL0     H78648   3.675   9.082   0.226 -1.6229  0.8348 -0.0658
  570MOL0     H78649   3.688   9.053   0.051 -2.0721 -0.6958 -1.2251
  570MOL0     H78650   3.462   8.925   0.192 -2.8399  0.5626  1.1145
  570MOL0     H78651   3.482   8.983   0.022  1.4689 -0.0929  0.8990
  570MOL0     H78652   3.483   9.199   0.233 -0.6318  0.5248 -0.1817
  570MOL0     H78653   3.414   9.194   0.076 -2.5263 -0.9099  0.8917
  570MOL0     H78654   3.304   9.058   0.327 -0.1633  2.3977  0.5234
  570MOL0     H78655   3.236   9.021   0.178 -2.4669 -1.8263  3.1972
  570MOL0     H78656   3.020   9.354   0.242  0.1975 -0.2658  2.3108
  570MOL0     H78657   3.830   8.664   0.165  0.2929  0.1264 -1.5848
  570MOL0     H78658   3.998   8.508   0.115 -0.0922  1.0132 -2.6388
  570MOL0     H78659   4.160   8.551   0.081 -1.0351 -3.0515  0.3275
  570MOL0     H78660   4.095   8.557   0.248 -2.0589  0.8826  1.6624
  571MOL0     O78661  10.381   7.735   4.652  0.4350 -0.3488 -0.6167
  571MOL0     C78662  10.287   7.764   4.730  1.0653 -0.6201 -0.2308
  571MOL0     O78663  10.286   7.744   4.862  0.3968  0.8537 -0.3597
  571MOL0     C78664  10.367   7.647   4.902  0.3075 -0.0247 -0.4678
  571MOL0     C78665  10.303   7.523   4.929  0.1148 -0.0723 -0.0939
  571MOL0     C78666  10.384   7.408   4.967 -0.2653 -0.3819 -0.4308
  571MOL0     C78667  10.517   7.422   4.983 -0.4193  0.6977 -0.0438
  571MOL0     O78668  10.594   7.308   5.014  0.1134  0.5863 -0.4119
  571MOL0     C78669  10.738   7.317   5.021  0.3022  0.3085  0.1004
  571MOL0     C78670  10.796   7.175   5.031  0.2259 -0.3400  0.5071
  571MOL0     C78671  10.720   7.063   4.964 -0.5514 -0.5848 -0.1088
  571MOL0     C78672  10.727   7.064   4.809  0.5259  0.1117 -0.2452
  571MOL0     C78673  10.651   6.951   4.745 -0.0832 -0.8531 -0.6575
  571MOL0     C78674  10.505   6.948   4.782  0.1960  0.0153  0.1983
  571MOL0     C78675  10.427   6.813   4.739  0.4244 -0.5791 -0.1446
  571MOL0     C78676  10.275   6.835   4.744 -0.3277 -0.0651  0.6700
  571MOL0     N78677  10.213   6.905   4.852  0.5334 -0.8492 -0.3147
  571MOL0     C78678  10.208   6.852   4.972 -0.7240 -0.0764 -0.5611
  571MOL0     C78679  10.179   6.965   5.048  0.2640  0.1624  0.2539
  571MOL0     C78680  10.165   6.974   5.195 -0.0631 -0.1587  0.5519
  571MOL0     C78681  10.309   7.024   5.238 -0.6447 -0.4522  0.6485
  571MOL0     C78682  10.319   7.042   5.391 -0.1501 -0.4176 -0.0150
  571MOL0     C78683  10.468   7.022   5.441 -0.9008 -0.0610 -0.4542
  571MOL0     O78684  10.464   6.984   5.579 -0.5331  0.2017  0.3293
  571MOL0     C78685  10.578   6.992   5.653  0.1846  0.4092  0.7880
  571MOL0     C78686  10.581   6.931   5.774  0.1121 -0.4881 -0.2330
  571MOL0     C78687  10.688   6.923   5.862  0.6867  0.8119 -0.6491
  571MOL0     C78688  10.662   6.826   5.981  0.0666 -1.0321 -0.1739
  571MOL0     C78689  10.808   6.991   5.829  0.6101 -0.4065 -0.4144
  571MOL0     C78690  10.936   6.992   5.915 -0.0460  0.0995  0.0513
  571MOL0     O78691  11.034   7.066   5.872  1.1424 -0.8415 -0.3473
  571MOL0     C78692  11.165   7.058   5.913 -0.4486 -0.0483  0.4714
  571MOL0     C78693  11.234   7.179   5.910  0.5127 -0.7283 -0.1894
  571MOL0     C78694  11.369   7.181   5.930 -0.4618 -0.8751  0.1986
  571MOL0     C78695  11.438   7.063   5.950 -0.1763  0.6235 -0.2358
  571MOL0     O78696  11.572   7.061   5.979 -0.6027 -0.0830 -0.1380
  571MOL0     C78697  11.630   7.183   6.036  0.0754  1.0272  0.0977
  571MOL0     C78698  11.720   7.255   5.940 -0.0934  0.5055  0.6045
  571MOL0     C78699  11.820   7.352   6.012 -0.5579  0.1217 -0.0555
  571MOL0     C78700  11.867   7.472   5.928  0.5134  0.0789 -0.2027
  571MOL0     C78701  12.000   7.523   5.972  0.0759 -0.7628 -0.5525
  571MOL0     C78702  12.023   7.661   5.912 -0.2363 -0.8627 -1.0677
  571MOL0     C78703  12.164   7.705   5.936  0.4525 -0.0770  0.3382
  571MOL0     C78704  12.215   7.802   5.821  0.5155  0.2180 -0.3779
  571MOL0    Cl78705  12.257   7.703   5.690 -0.0598  0.3513 -0.0683
  571MOL0     C78706  11.370   6.942   5.960 -0.7539 -0.0847  0.2414
  571MOL0     C78707  11.227   6.941   5.948  0.3691 -0.8415  0.0282
  571MOL0     O78708  10.942   6.911   6.010 -0.5519 -0.8548 -0.3871
  571MOL0     C78709  10.807   7.074   5.713  0.0905  0.2760  0.3455
  571MOL0     C78710  10.694   7.073   5.631  0.2291  1.0346  0.0862
  571MOL0     N78711  10.176   7.074   4.967  0.6824 -0.8895  0.1519
  571MOL0     N78712  10.176   7.033   4.852 -0.4115 -0.0926  0.0483
  571MOL0     C78713  10.579   7.543   4.970  0.8335 -0.6828  0.1398
  571MOL0     C78714  10.510   7.655   4.923  0.4081  0.0094 -0.9364
  571MOL0     C78715  10.166   7.837   4.669  0.0564 -1.0334 -1.0462
  571MOL0     C78716  10.066   7.866   4.769 -0.1116  0.7568 -0.2427
  571MOL0     C78717   9.944   7.918   4.735  0.3471 -0.4634 -0.3640
  571MOL0     C78718   9.916   7.956   4.608  0.3655  0.0626  0.9531
  571MOL0     O78719   9.790   8.017   4.582  0.1462  0.4104 -0.2290
  571MOL0     C78720   9.785   8.098   4.464 -0.2054 -0.0389 -0.0150
  571MOL0     C78721   9.643   8.162   4.449 -1.0786 -0.1339 -0.2062
  571MOL0     C78722   9.577   8.171   4.584  0.0677  0.5646  0.2911
  571MOL0     C78723   9.441   8.232   4.583 -0.1560  0.2757 -0.2840
  571MOL0     C78724   9.346   8.163   4.488 -0.3097  0.1459 -0.1820
  571MOL0     C78725   9.289   8.099   4.403 -0.6842 -0.1921 -0.4505
  571MOL0     C78726  10.014   7.927   4.508  0.0312 -0.1460 -0.3598
  571MOL0     C78727  10.138   7.866   4.535 -0.4298  0.0955  0.4761
  571MOL0     C78728  10.225   7.838   4.420 -0.0012  0.1443  0.0684
  571MOL0     H78729  10.198   7.506   4.907  0.4231 -0.5307 -1.3314
  571MOL0     H78730  10.346   7.308   4.985  3.9901 -2.2908 -0.8497
  571MOL0     H78731  10.778   7.386   5.096  0.8559  0.4653 -0.3304
  571MOL0     H78732  10.775   7.346   4.922 -2.4523  1.4831 -0.6893
  571MOL0     H78733  10.898   7.179   4.992 -0.3843  0.7728 -1.0898
  571MOL0     H78734  10.792   7.150   5.137  1.2998  1.0442  0.8996
  571MOL0     H78735  10.774   6.974   4.998  2.1983  0.4072 -1.5038
  571MOL0     H78736  10.618   7.059   5.003 -0.8109 -2.1805 -0.8502
  571MOL0     H78737  10.677   7.153   4.769  0.4733 -0.5735 -1.8012
  571MOL0     H78738  10.832   7.060   4.777  1.3972  3.1271  1.7707
  571MOL0     H78739  10.703   6.858   4.770  0.7142 -1.1824 -3.2955
  571MOL0     H78740  10.661   6.963   4.637 -1.2507 -2.4812 -0.9853
  571MOL0     H78741  10.490   6.960   4.890 -0.2989 -2.7104  0.5221
  571MOL0     H78742  10.465   7.036   4.730  1.0168 -1.1321 -2.5494
  571MOL0     H78743  10.441   6.729   4.808 -1.6738 -1.2096 -0.4240
  571MOL0     H78744  10.457   6.782   4.638 -0.0481 -3.2642  0.4631
  571MOL0     H78745  10.260   6.895   4.654 -1.1248 -2.4032 -0.8443
  571MOL0     H78746  10.231   6.736   4.727 -0.5009 -0.2379  2.0443
  571MOL0     H78747  10.247   6.755   5.002  1.7493  0.9655 -0.1938
  571MOL0     H78748  10.136   6.877   5.234 -0.9666 -0.2216 -0.2331
  571MOL0     H78749  10.086   7.045   5.220 -1.3374 -1.4827  0.3606
  571MOL0     H78750  10.383   6.948   5.209 -2.2962 -1.1016 -2.2109
  571MOL0     H78751  10.341   7.109   5.177  1.0310 -1.1017  0.5458
  571MOL0     H78752  10.291   7.145   5.418  0.6226 -0.4907  1.1225
  571MOL0     H78753  10.247   6.979   5.443 -0.1362  0.2076  0.7878
  571MOL0     H78754  10.521   6.948   5.381  2.0894  1.4605  0.1329
  571MOL0     H78755  10.521   7.115   5.421  0.6936 -0.9925 -0.6701
  571MOL0     H78756  10.496   6.871   5.806 -0.4380  1.1382  1.5565
  571MOL0     H78757  10.688   6.882   6.072  1.0319  1.9505 -2.1214
  571MOL0     H78758  10.716   6.732   5.991  1.1563 -0.5095 -0.9572
  571MOL0     H78759  10.555   6.810   5.996 -0.6352  3.3358  0.9957
  571MOL0     H78760  11.184   7.273   5.888  2.0164 -0.4449 -2.8455
  571MOL0     H78761  11.416   7.278   5.919 -1.8497 -0.0808  1.0099
  571MOL0     H78762  11.553   7.253   6.070 -1.5528 -0.6737  0.0516
  571MOL0     H78763  11.695   7.156   6.119  1.3881  1.3947 -0.7796
  571MOL0     H78764  11.780   7.176   5.893 -1.3739  0.2744 -0.7052
  571MOL0     H78765  11.658   7.300   5.862  0.2472 -0.8364 -0.4969
  571MOL0     H78766  11.907   7.290   6.034 -1.6627 -2.5381 -2.5611
  571MOL0     H78767  11.767   7.392   6.100 -0.3977  3.4310 -1.3288
  571MOL0     H78768  11.785   7.544   5.938  0.5642 -0.0686  1.5981
  571MOL0     H78769  11.880   7.436   5.825 -1.9784 -1.1997 -0.1406
  571MOL0     H78770  12.016   7.522   6.080 -1.0748 -1.2656 -0.3794
  571MOL0     H78771  12.078   7.463   5.924  1.3773 -2.0811  2.9172
  571MOL0     H78772  11.948   7.729   5.953 -0.2666 -1.5713  0.1238
  571MOL0     H78773  12.016   7.662   5.803 -0.5708 -3.1980 -1.1220
  571MOL0     H78774  12.229   7.618   5.935 -0.9061 -1.1292  0.4767
  571MOL0     H78775  12.165   7.756   6.033  0.9448 -0.2361  0.4166
  571MOL0     H78776  12.292   7.866   5.865 -1.6093  2.3492  0.4431
  571MOL0     H78777  12.132   7.869   5.798  0.8442  1.4962  1.8964
  571MOL0     H78778  11.426   6.851   5.983  1.4433  0.9251 -0.8330
  571MOL0     H78779  11.173   6.847   5.956  0.6521 -1.2773 -2.3737
  571MOL0     H78780  10.896   7.132   5.690  0.4983  0.0180  1.2611
  571MOL0     H78781  10.693   7.132   5.540  2.2129  0.0898 -0.6043
  571MOL0     H78782  10.680   7.566   5.004 -0.2181  2.9606  1.2155
  571MOL0     H78783  10.562   7.748   4.903 -0.4490  0.5254 -0.7759
  571MOL0     H78784  10.080   7.836   4.872  1.7393  1.7685 -0.1593
  571MOL0     H78785   9.862   7.937   4.804  0.1963 -2.6593  0.1486
  571MOL0     H78786   9.860   8.177   4.459 -0.0940 -0.1795 -0.8113
  571MOL0     H78787   9.811   8.041   4.374  1.2452  0.7038 -0.0901
  571MOL0     H78788   9.582   8.094   4.390 -3.2823  0.8664  0.7955
  571MOL0     H78789   9.650   8.261   4.401 -1.9122  0.7579  1.4386
  571MOL0     H78790   9.563   8.074   4.633 -0.6598  0.6003  0.1690
  571MOL0     H78791   9.637   8.234   4.651  2.3902  0.2940 -1.3864
  571MOL0     H78792   9.459   8.335   4.552  0.2901 -0.3277 -2.1430
  571MOL0     H78793   9.400   8.232   4.685  2.5023  0.1509  0.8597
  571MOL0     H78794   9.248   8.048   4.318  0.6357 -1.3635 -0.4026
  571MOL0     H78795   9.997   7.945   4.402  0.1129 -0.8688 -0.5029
  571MOL0     H78796  10.203   7.890   4.326 -0.3481 -0.1085  0.0063
  571MOL0     H78797  10.327   7.875   4.436 -0.7928  2.2476  0.6475
  571MOL0     H78798  10.226   7.731   4.401  1.5235  0.0771  0.4295
  572MOL0     O78799   2.516   5.499   4.471 -0.2219 -0.0443 -1.0553
  572MOL0     C78800   2.542   5.404   4.407  0.5314  0.0090  1.0157
  572MOL0     O78801   2.660   5.345   4.403  0.0528  0.2758 -0.3454
  572MOL0     C78802   2.753   5.402   4.481  0.1062 -0.0573 -0.5342
  572MOL0     C78803   2.847   5.488   4.421 -0.4504  0.0749 -0.2057
  572MOL0     C78804   2.975   5.523   4.479  1.4636  0.5206  0.4768
  572MOL0     C78805   2.987   5.484   4.616  0.5919 -0.8486  0.7566
  572MOL0     O78806   3.105   5.509   4.685  0.1200 -0.3800  0.3164
  572MOL0     C78807   3.175   5.633   4.650 -0.1203 -0.5749  0.1897
  572MOL0     C78808   3.244   5.682   4.772 -0.3431  0.0180  0.0064
  572MOL0     C78809   3.377   5.763   4.761  0.9613  0.0269 -0.0188
  572MOL0     C78810   3.459   5.737   4.886  0.2352  0.3634  0.1406
  572MOL0     C78811   3.594   5.809   4.863  0.4461  0.1069 -0.2888
  572MOL0     C78812   3.698   5.776   4.967  0.1833 -0.1239  0.0397
  572MOL0     C78813   3.833   5.849   4.957  1.2324 -0.4609 -0.6863
  572MOL0     C78814   3.945   5.757   5.010  0.4878 -0.5271 -0.3327
  572MOL0     N78815   4.065   5.832   5.065  0.5950  0.2078 -0.5037
  572MOL0     C78816   4.190   5.791   5.036 -0.2124  0.9679 -0.2112
  572MOL0     C78817   4.283   5.886   5.078  0.3721  1.2138 -1.1118
  572MOL0     C78818   4.429   5.864   5.072  0.1336  0.7984  0.5576
  572MOL0     C78819   4.520   5.995   5.053 -0.1574  0.4790  0.2085
  572MOL0     C78820   4.660   5.963   5.033  0.0295 -0.5102 -0.5324
  572MOL0     C78821   4.745   6.097   5.031  0.4854 -0.1925  0.2568
  572MOL0     O78822   4.697   6.193   4.941  0.6937  0.2193  1.0397
  572MOL0     C78823   4.778   6.300   4.917 -0.5785 -0.9758  0.1361
  572MOL0     C78824   4.713   6.396   4.839  0.5196 -0.1094 -0.3301
  572MOL0     C78825   4.766   6.518   4.820  0.1290 -0.8283 -0.0634
  572MOL0     C78826   4.675   6.621   4.759  0.0198 -0.7369 -0.2848
  572MOL0     C78827   4.901   6.549   4.867  0.6043  0.3317  0.8968
  572MOL0     C78828   4.961   6.672   4.835 -0.3247 -0.6070  0.1194
  572MOL0     O78829   5.050   6.724   4.930 -0.1563 -0.1668  0.2163
  572MOL0     C78830   5.066   6.860   4.920 -0.1978 -0.1184 -0.4693
  572MOL0     C78831   5.201   6.907   4.951  0.5955 -0.2693 -0.5548
  572MOL0     C78832   5.229   7.046   4.966  1.2431 -0.1794 -0.6528
  572MOL0     C78833   5.126   7.133   4.927  0.6763 -0.9494  0.5656
  572MOL0     O78834   5.146   7.274   4.922  0.5293 -0.9141  0.9944
  572MOL0     C78835   5.272   7.310   4.856 -0.4147  0.2975 -0.9723
  572MOL0     C78836   5.259   7.461   4.829  0.0163  0.5622  0.8362
  572MOL0     C78837   5.137   7.507   4.742 -0.7684 -0.7025  0.0131
  572MOL0     C78838   5.169   7.641   4.682  0.1438 -0.7679  0.0397
  572MOL0     C78839   5.068   7.679   4.580  1.1258 -1.2098 -0.2880
  572MOL0     C78840   4.919   7.733   4.621 -0.5794  0.6088 -0.2125
  572MOL0     C78841   4.836   7.791   4.514  0.2697 -0.7795  0.2144
  572MOL0     C78842   4.703   7.837   4.564  0.4259  0.1998  0.3227
  572MOL0    Cl78843   4.577   7.723   4.572 -0.2886  0.4100 -0.4930
  572MOL0     C78844   4.992   7.083   4.897 -0.2190 -0.6068 -0.7274
  572MOL0     C78845   4.956   6.952   4.898 -0.1556 -0.3997  0.7193
  572MOL0     O78846   4.943   6.719   4.719  0.1528 -1.0433  0.4007
  572MOL0     C78847   4.968   6.448   4.945 -0.6203 -0.2389  0.5499
  572MOL0     C78848   4.907   6.324   4.969 -0.4451 -0.4623  0.1626
  572MOL0     N78849   4.203   5.989   5.130  0.4973  0.4645  0.0569
  572MOL0     N78850   4.078   5.952   5.139  0.1172 -0.4427  0.5687
  572MOL0     C78851   2.894   5.395   4.683  0.7323 -0.0024 -0.4889
  572MOL0     C78852   2.772   5.359   4.616 -0.4994 -0.5728 -0.2546
  572MOL0     C78853   2.444   5.375   4.299  0.6307 -0.0507 -0.1607
  572MOL0     C78854   2.475   5.257   4.216  0.2519 -0.4627 -0.1913
  572MOL0     C78855   2.398   5.230   4.110  0.6879 -0.1659 -0.0742
  572MOL0     C78856   2.281   5.286   4.092  0.5785 -0.8747  0.2421
  572MOL0     O78857   2.211   5.237   3.987 -0.5476 -0.3253  0.0845
  572MOL0     C78858   2.079   5.290   3.956 -0.7937  0.1828  0.1051
  572MOL0     C78859   2.034   5.244   3.819 -0.8022 -0.1668 -0.4869
  572MOL0     C78860   2.037   5.092   3.819 -0.2745 -0.1127  0.8019
  572MOL0     C78861   1.986   5.038   3.687 -0.3696  0.2822  0.0902
  572MOL0     C78862   1.952   4.896   3.697  0.8170 -0.7061  0.6249
  572MOL0     C78863   1.942   4.776   3.711  0.7447  0.2334  0.1075
  572MOL0     C78864   2.230   5.384   4.184  0.3461  0.4371  0.5407
  572MOL0     C78865   2.317   5.441   4.278 -0.8221 -0.3834  0.2481
  572MOL0     C78866   2.267   5.569   4.355 -1.0945 -0.2536  0.4287
  572MOL0     H78867   2.831   5.523   4.320 -3.1671 -2.7629 -0.9155
  572MOL0     H78868   3.042   5.590   4.426 -1.0456 -0.1480 -4.0363
  572MOL0     H78869   3.102   5.708   4.619  0.7449 -0.2044 -1.0703
  572MOL0     H78870   3.245   5.613   4.567 -3.1399 -1.5828 -2.3361
  572MOL0     H78871   3.166   5.727   4.834  0.5677 -1.6940  2.5743
  572MOL0     H78872   3.274   5.594   4.830  2.2683  1.6580  1.3364
  572MOL0     H78873   3.442   5.716   4.686  1.9106  1.1458  0.0798
  572MOL0     H78874   3.367   5.871   4.743  2.1996  0.1698  0.1004
  572MOL0     H78875   3.416   5.779   4.977  1.5257  0.2829  0.8046
  572MOL0     H78876   3.476   5.629   4.895 -0.4327  0.2624  0.2742
  572MOL0     H78877   3.574   5.916   4.863 -0.6324 -0.0633  1.1226
  572MOL0     H78878   3.636   5.784   4.765  2.5622 -1.1068  0.8623
  572MOL0     H78879   3.651   5.800   5.062 -1.0505 -1.3177 -0.2355
  572MOL0     H78880   3.723   5.669   4.961 -2.8537 -0.9243 -0.0658
  572MOL0     H78881   3.822   5.940   5.017 -3.1050 -1.5517  0.5673
  572MOL0     H78882   3.851   5.881   4.854  1.0576  0.1390 -0.5386
  572MOL0     H78883   3.906   5.699   5.095 -3.1826  0.4221 -1.1920
  572MOL0     H78884   3.984   5.690   4.933  0.6426  0.6720 -1.3172
  572MOL0     H78885   4.226   5.696   5.000 -1.0277 -0.4592  2.4564
  572MOL0     H78886   4.449   5.785   4.998 -2.3282  0.8149 -0.1979
  572MOL0     H78887   4.464   5.820   5.166 -1.6343 -1.7262  0.1390
  572MOL0     H78888   4.481   6.040   4.961 -0.8802  0.8168  0.6677
  572MOL0     H78889   4.501   6.061   5.138 -0.4085 -0.9247  1.2701
  572MOL0     H78890   4.704   5.897   5.108 -1.0824 -0.0900  0.5164
  572MOL0     H78891   4.675   5.906   4.941 -1.9446 -1.5020 -0.2982
  572MOL0     H78892   4.750   6.146   5.128 -3.9978  1.7105 -0.2372
  572MOL0     H78893   4.847   6.060   5.018  1.3857  1.5412  1.9594
  572MOL0     H78894   4.613   6.377   4.800  0.3229  0.8171 -0.3088
  572MOL0     H78895   4.712   6.673   4.670  0.5707  0.5064  0.6375
  572MOL0     H78896   4.650   6.699   4.832 -2.3056 -2.9817  1.5208
  572MOL0     H78897   4.582   6.578   4.722  0.2880  0.7334 -2.8846
  572MOL0     H78898   5.281   6.841   4.983  1.1390  1.2308  1.2938
  572MOL0     H78899   5.325   7.090   4.989  0.1099  2.1269 -0.0030
  572MOL0     H78900   5.362   7.288   4.914  0.3440 -1.9510 -2.8373
  572MOL0     H78901   5.279   7.243   4.770 -2.0552  0.7433 -1.4783
  572MOL0     H78902   5.256   7.519   4.921 -1.0662  0.6469  0.7623
  572MOL0     H78903   5.354   7.496   4.789 -0.1750  1.3085  1.0272
  572MOL0     H78904   5.037   7.521   4.784  0.2493  2.5660  1.6275
  572MOL0     H78905   5.125   7.434   4.661 -1.1547 -1.2272  0.5454
  572MOL0     H78906   5.273   7.649   4.650  0.7811  2.7121  2.3759
  572MOL0     H78907   5.176   7.717   4.761  2.0141  0.5832 -1.3493
  572MOL0     H78908   5.103   7.760   4.516 -1.2418 -0.0432 -0.2293
  572MOL0     H78909   5.053   7.599   4.507  0.0886 -0.6402 -0.7187
  572MOL0     H78910   4.931   7.804   4.704  4.2999 -1.8150  1.5398
  572MOL0     H78911   4.860   7.654   4.669  0.0530 -1.4264 -2.5998
  572MOL0     H78912   4.824   7.729   4.425  1.7147  0.2045 -0.7081
  572MOL0     H78913   4.893   7.879   4.485  1.1363 -0.7096  2.0227
  572MOL0     H78914   4.678   7.912   4.489  2.9584  1.2611  0.4228
  572MOL0     H78915   4.710   7.902   4.652  2.4280  1.7240 -0.8711
  572MOL0     H78916   4.922   7.162   4.876 -0.9185 -1.3951 -1.4412
  572MOL0     H78917   4.852   6.931   4.878 -0.5532  1.4572  0.6390
  572MOL0     H78918   5.063   6.466   4.993 -0.2452 -1.9493  0.5222
  572MOL0     H78919   4.965   6.263   5.037 -0.0711  0.1035  0.3656
  572MOL0     H78920   2.913   5.359   4.783 -1.3508  1.5761  0.5491
  572MOL0     H78921   2.696   5.307   4.674  1.2269 -3.2489 -0.2083
  572MOL0     H78922   2.561   5.194   4.236 -1.1917 -2.4357  0.0748
  572MOL0     H78923   2.434   5.157   4.038  0.1127  2.6006 -3.4093
  572MOL0     H78924   2.008   5.252   4.030 -2.5709  0.6267 -1.2893
  572MOL0     H78925   2.080   5.399   3.957 -0.1564  0.2139 -1.2366
  572MOL0     H78926   2.101   5.279   3.740 -2.1392 -0.2292 -1.6981
  572MOL0     H78927   1.932   5.281   3.805 -0.6282  0.3635 -0.3594
  572MOL0     H78928   2.133   5.044   3.841 -0.8456 -0.3430  3.0672
  572MOL0     H78929   1.973   5.056   3.900 -1.2645 -0.6710 -0.2007
  572MOL0     H78930   2.050   5.061   3.602 -0.6274  0.5778 -0.0257
  572MOL0     H78931   1.896   5.094   3.661  0.5438  0.7315 -2.3097
  572MOL0     H78932   1.930   4.672   3.733 -2.8339  0.9470  2.2272
  572MOL0     H78933   2.125   5.407   4.169  0.7503 -0.0070 -4.3930
  572MOL0     H78934   2.174   5.604   4.309 -1.1075 -0.8039  0.0140
  572MOL0     H78935   2.244   5.555   4.461  0.8737  1.3614  1.1270
  572MOL0     H78936   2.339   5.650   4.351 -0.7877 -0.5507 -0.5050
  573MOL0     O78937  10.496   6.102   9.072 -0.2467  0.0161  0.5783
  573MOL0     C78938  10.374   6.133   9.066 -0.1078  0.0390 -0.3014
  573MOL0     O78939  10.311   6.206   9.167  0.6572  0.3798  0.0386
  573MOL0     C78940  10.381   6.265   9.273 -0.1717  0.3968  0.0113
  573MOL0     C78941  10.325   6.381   9.320 -0.6540 -0.8423 -0.2407
  573MOL0     C78942  10.370   6.439   9.439 -0.1562  0.8292 -0.4613
  573MOL0     C78943  10.480   6.385   9.504 -0.2978 -0.6491  0.1540
  573MOL0     O78944  10.526   6.458   9.606  0.8049  0.8706  0.6619
  573MOL0     C78945  10.617   6.401   9.703  0.1218 -0.0230 -0.1824
  573MOL0     C78946  10.612   6.492   9.824 -0.8359 -0.0725  0.0098
  573MOL0     C78947  10.689   6.628   9.796  0.0329  0.2422  0.3502
  573MOL0     C78948  10.840   6.607   9.799 -0.5704  0.7334 -0.3677
  573MOL0     C78949  10.903   6.739   9.812 -1.0227  0.0721 -0.0324
  573MOL0     C78950  11.055   6.719   9.816  0.3310 -0.0903  0.0385
  573MOL0     C78951  11.121   6.671   9.686  0.1376 -0.0769  0.3511
  573MOL0     C78952  11.264   6.627   9.709  0.0037  0.1562 -0.8288
  573MOL0     N78953  11.294   6.491   9.764  0.2204  0.6929  0.0803
  573MOL0     C78954  11.368   6.463   9.877  0.2384 -0.9166  1.0222
  573MOL0     C78955  11.350   6.328   9.890  0.7018  0.0263  0.0210
  573MOL0     C78956  11.430   6.260   9.989  0.2550 -0.1290  0.6235
  573MOL0     C78957  11.567   6.205   9.944 -0.5745 -0.5723 -0.8795
  573MOL0     C78958  11.690   6.216  10.038  0.2582 -1.3038 -0.3230
  573MOL0     C78959  11.778   6.094  10.012 -0.5104  0.1178  0.5104
  573MOL0     O78960  11.886   6.083  10.113  0.1099 -0.3511  0.7238
  573MOL0     C78961  11.968   5.965  10.108  0.3406  0.3590  0.7270
  573MOL0     C78962  12.109   5.966  10.128  0.5414  0.1351 -1.4368
  573MOL0     C78963  12.198   5.850  10.112  0.4323 -0.7024 -0.6277
  573MOL0     C78964  12.343   5.884  10.129  0.1820  0.6067 -0.4283
  573MOL0     C78965  12.133   5.724  10.070 -0.0344 -0.3937  0.4217
  573MOL0     C78966  12.214   5.605  10.033  0.0656 -0.3488  0.3241
  573MOL0     O78967  12.355   5.599  10.061 -0.8143 -0.3668 -0.2042
  573MOL0     C78968  12.441   5.506  10.004 -1.0070 -0.1334  0.1693
  573MOL0     C78969  12.419   5.369  10.001 -0.0095 -0.2206  0.6293
  573MOL0     C78970  12.528   5.287   9.949 -0.3071  0.1614 -0.1599
  573MOL0     C78971  12.642   5.343   9.900  0.3920 -0.1363  0.3904
  573MOL0     O78972  12.739   5.265   9.834 -0.6052 -0.8336  0.3714
  573MOL0     C78973  12.806   5.328   9.721  0.6006  0.0404 -0.8405
  573MOL0     C78974  12.846   5.218   9.632 -0.1543  0.6143  0.0737
  573MOL0     C78975  12.737   5.181   9.521  1.0182 -0.2106 -0.4519
  573MOL0     C78976  12.625   5.107   9.600  0.1626  0.0525 -0.3118
  573MOL0     C78977  12.512   5.080   9.500  0.5852 -0.1948  0.0800
  573MOL0     C78978  12.400   5.011   9.577  0.9317  0.2026 -0.5063
  573MOL0     C78979  12.347   5.069   9.708  0.5984  0.3469 -0.0228
  573MOL0     C78980  12.206   5.009   9.743 -0.1597  0.5170  0.7995
  573MOL0    Cl78981  12.075   5.087   9.646 -1.0030 -0.1683  0.1446
  573MOL0     C78982  12.662   5.476   9.914  0.6119  1.3190 -0.0606
  573MOL0     C78983  12.563   5.559   9.958  0.0115 -0.5585 -0.2407
  573MOL0     O78984  12.160   5.517   9.966  0.0697 -0.4421 -0.6180
  573MOL0     C78985  11.992   5.723  10.048  0.4435 -0.3029  0.7818
  573MOL0     C78986  11.911   5.838  10.065 -0.2045 -1.3312 -0.2624
  573MOL0     N78987  11.269   6.274   9.788 -0.3325  0.6540 -0.0126
  573MOL0     N78988  11.252   6.373   9.702 -0.5545  0.4954  0.6929
  573MOL0     C78989  10.542   6.267   9.450  0.2895 -0.6963  0.3500
  573MOL0     C78990  10.495   6.213   9.330 -0.4989  0.1150  0.4278
  573MOL0     C78991  10.294   6.084   8.951 -0.0676  0.7629 -0.3262
  573MOL0     C78992  10.157   6.114   8.958  0.0971  0.3331  0.6526
  573MOL0     C78993  10.064   6.058   8.872  0.4515  0.3240 -0.5385
  573MOL0     C78994  10.114   5.971   8.770  0.4576 -0.1069  0.2413
  573MOL0     O78995  10.036   5.893   8.692 -0.0915 -0.2921  0.0798
  573MOL0     C78996   9.896   5.868   8.722  0.4150 -0.6473  0.7300
  573MOL0     C78997   9.819   5.781   8.626 -0.4813 -0.1492  0.2468
  573MOL0     C78998   9.674   5.798   8.647  0.8522 -0.2061 -0.4423
  573MOL0     C78999   9.585   5.727   8.562  0.4376 -0.2445  0.5372
  573MOL0     C79000   9.446   5.762   8.567 -0.4510  0.2419 -0.8188
  573MOL0     C79001   9.331   5.784   8.562  0.4023 -0.2356  1.0727
  573MOL0     C79002  10.253   5.961   8.746 -0.3619  0.6625  0.0093
  573MOL0     C79003  10.343   6.015   8.835 -0.1985  0.0690  0.7086
  573MOL0     C79004  10.487   5.992   8.802  0.2345 -0.4197  0.5046
  573MOL0     H79005  10.242   6.425   9.267  0.9943  0.8638 -1.5648
  573MOL0     H79006  10.316   6.520   9.487 -2.0566  0.1013 -1.2625
  573MOL0     H79007  10.721   6.397   9.669 -0.1154 -3.9747 -0.9425
  573MOL0     H79008  10.583   6.302   9.734  1.5642 -0.2475  0.7434
  573MOL0     H79009  10.505   6.500   9.846 -0.7539  0.0452  0.3718
  573MOL0     H79010  10.660   6.452   9.914 -0.1315  2.6240  0.9296
  573MOL0     H79011  10.658   6.673   9.702  0.9378  1.8365  0.7663
  573MOL0     H79012  10.659   6.701   9.872  2.6129  2.3288 -0.4892
  573MOL0     H79013  10.865   6.530   9.873 -0.0793  1.0749 -0.1669
  573MOL0     H79014  10.852   6.554   9.704 -0.1409  2.3722 -1.2741
  573MOL0     H79015  10.862   6.791   9.899 -1.7651 -0.6985  0.0971
  573MOL0     H79016  10.868   6.802   9.729 -1.6762  0.9983  0.9243
  573MOL0     H79017  11.102   6.812   9.848 -0.6757 -0.3318  2.3988
  573MOL0     H79018  11.080   6.645   9.893  0.0395 -0.8657 -0.5973
  573MOL0     H79019  11.124   6.750   9.610  2.1344  2.3302  2.7533
  573MOL0     H79020  11.058   6.597   9.636 -0.1428  0.1874  0.3118
  573MOL0     H79021  11.320   6.643   9.617 -0.2677 -0.0367 -1.0286
  573MOL0     H79022  11.303   6.701   9.780 -2.7775  0.2569  0.7281
  573MOL0     H79023  11.419   6.528   9.949  1.6943  0.2827 -0.9851
  573MOL0     H79024  11.359   6.183  10.020  0.8752 -0.3660  1.5093
  573MOL0     H79025  11.460   6.330  10.068  0.9283  1.0122 -0.5943
  573MOL0     H79026  11.549   6.100   9.917  1.8676 -0.8484 -1.6095
  573MOL0     H79027  11.590   6.258   9.851 -2.0288  2.8724  0.5687
  573MOL0     H79028  11.745   6.310  10.029 -0.7338 -0.5685  0.9906
  573MOL0     H79029  11.650   6.228  10.139 -2.3500  2.0499 -1.5947
  573MOL0     H79030  11.724   6.000  10.023  0.7873 -1.2260 -3.1132
  573MOL0     H79031  11.815   6.113   9.910 -4.3270  1.7823 -0.7549
  573MOL0     H79032  12.157   6.060  10.151 -0.3742  0.6759 -1.6720
  573MOL0     H79033  12.351   5.988  10.161  0.6256  0.0452  1.4255
  573MOL0     H79034  12.398   5.871  10.035  0.2149  1.5094 -0.5426
  573MOL0     H79035  12.388   5.813  10.200 -1.3217  0.0967  0.0653
  573MOL0     H79036  12.322   5.327  10.027  0.8059 -1.2345  2.1368
  573MOL0     H79037  12.519   5.179   9.954  1.2781  0.0590  1.8735
  573MOL0     H79038  12.754   5.411   9.673  0.4110 -0.2272 -1.1073
  573MOL0     H79039  12.899   5.367   9.763 -0.7438  1.5991  0.8560
  573MOL0     H79040  12.936   5.256   9.581 -0.7844  1.6234 -0.3119
  573MOL0     H79041  12.877   5.131   9.691  0.3204  1.0770  0.5220
  573MOL0     H79042  12.773   5.131   9.431 -1.1240 -0.1793 -1.3638
  573MOL0     H79043  12.698   5.276   9.483 -1.4649 -0.8571  0.3322
  573MOL0     H79044  12.585   5.178   9.673 -2.0961  1.1219 -2.4290
  573MOL0     H79045  12.660   5.010   9.635  1.8790  0.9330  0.5221
  573MOL0     H79046  12.469   5.169   9.454  1.5004  0.9154  1.3091
  573MOL0     H79047  12.539   5.021   9.412 -1.2187 -0.7204 -0.1717
  573MOL0     H79048  12.434   4.912   9.608 -1.8177  0.4073  3.9881
  573MOL0     H79049  12.315   5.013   9.508  0.1211  0.6938  0.4786
  573MOL0     H79050  12.341   5.179   9.704  2.9389  0.6280  1.8916
  573MOL0     H79051  12.423   5.050   9.784  0.3370  1.4010  0.5288
  573MOL0     H79052  12.189   5.029   9.849  2.3815 -0.8968  1.5579
  573MOL0     H79053  12.204   4.900   9.734 -2.2828  0.5266  0.6624
  573MOL0     H79054  12.760   5.509   9.881  1.2728 -1.2993 -0.9469
  573MOL0     H79055  12.586   5.664   9.969  1.8993 -0.7191 -2.0409
  573MOL0     H79056  11.946   5.632  10.012  2.3729 -0.1181 -2.5981
  573MOL0     H79057  11.807   5.810  10.047 -0.9282  2.6410 -3.8513
  573MOL0     H79058  10.625   6.226   9.505  2.2304 -0.2573 -2.0643
  573MOL0     H79059  10.540   6.125   9.285  1.3650  0.6873  1.0691
  573MOL0     H79060  10.120   6.176   9.039  2.9399  0.2548  2.1480
  573MOL0     H79061   9.957   6.069   8.887  0.7358  0.8370  1.4918
  573MOL0     H79062   9.894   5.820   8.820 -0.9035 -2.7033 -0.2353
  573MOL0     H79063   9.839   5.959   8.741 -0.1309 -0.8195 -0.0481
  573MOL0     H79064   9.837   5.676   8.648 -1.6694 -0.4446 -0.1172
  573MOL0     H79065   9.850   5.811   8.526 -0.1379  1.5522  0.8228
  573MOL0     H79066   9.650   5.754   8.744 -1.1938  1.4347 -0.1297
  573MOL0     H79067   9.655   5.905   8.637 -1.2949 -0.4232  0.7663
  573MOL0     H79068   9.591   5.618   8.570  0.2495 -0.3201 -0.2798
  573MOL0     H79069   9.602   5.750   8.457  0.2892  2.8113  1.1104
  573MOL0     H79070   9.228   5.811   8.564  0.1473 -0.9716 -0.5111
  573MOL0     H79071  10.303   5.911   8.663 -0.1141 -1.4396  1.3309
  573MOL0     H79072  10.504   5.992   8.694  1.6248 -1.6256  0.7028
  573MOL0     H79073  10.554   6.066   8.847  1.3423  0.3305 -2.1682
  573MOL0     H79074  10.508   5.893   8.844 -1.5868 -0.8058  0.6009
  574MOL0     O79075   2.321  10.835   3.874  0.3242 -0.3020 -0.6991
  574MOL0     C79076   2.405  10.781   3.802  0.0710 -0.5298 -0.0781
  574MOL0     O79077   2.366  10.712   3.690 -0.1778 -0.0533  0.4155
  574MOL0     C79078   2.237  10.680   3.666 -0.3155 -0.1686 -0.2335
  574MOL0     C79079   2.126  10.766   3.661 -0.2924 -0.3514 -0.7214
  574MOL0     C79080   2.000  10.705   3.621  0.3074  0.9231 -0.7287
  574MOL0     C79081   1.995  10.567   3.593  0.6454 -1.0638 -0.2311
  574MOL0     O79082   1.874  10.519   3.548 -0.1554 -0.0278  1.1095
  574MOL0     C79083   1.857  10.373   3.540  0.2665  0.2993  0.5098
  574MOL0     C79084   1.712  10.329   3.538 -1.2528  1.1117  0.0993
  574MOL0     C79085   1.707  10.174   3.519 -0.2912  0.6151  0.3971
  574MOL0     C79086   1.555  10.142   3.486  0.8877  0.0513  0.3444
  574MOL0     C79087   1.503  10.010   3.554  0.5235 -0.0542  0.5024
  574MOL0     C79088   1.595   9.885   3.526 -0.2924 -0.2967  0.1298
  574MOL0     C79089   1.531   9.751   3.559  0.2453  0.1310 -0.8229
  574MOL0     C79090   1.603   9.628   3.503  0.4035 -0.4961  0.2649
  574MOL0     N79091   1.742   9.633   3.545 -0.2843  0.1754 -0.3105
  574MOL0     C79092   1.790   9.578   3.663 -0.7160 -0.5190 -0.4167
  574MOL0     C79093   1.921   9.613   3.667 -0.0489  0.3637 -0.3748
  574MOL0     C79094   2.015   9.586   3.790  0.0166 -0.0758 -0.0216
  574MOL0     C79095   2.050   9.442   3.804 -0.4648 -0.1852  0.5557
  574MOL0     C79096   2.180   9.419   3.865 -1.0055  0.0666  0.0152
  574MOL0     C79097   2.236   9.280   3.827  0.0636  0.6641 -0.4063
  574MOL0     O79098   2.302   9.301   3.701 -0.0273  0.0071  0.2111
  574MOL0     C79099   2.358   9.190   3.639  0.5123  0.1382 -0.0292
  574MOL0     C79100   2.310   9.057   3.653  0.5165  0.0810 -0.0297
  574MOL0     C79101   2.374   8.951   3.594 -0.3647 -0.4255 -0.3587
  574MOL0     C79102   2.324   8.811   3.627 -0.2979 -0.1450  0.5312
  574MOL0     C79103   2.488   8.977   3.516 -0.6513 -1.4470 -0.4918
  574MOL0     C79104   2.567   8.881   3.440 -0.7545  0.7592 -0.3115
  574MOL0     O79105   2.516   8.751   3.420  0.6237  0.8801  0.7452
  574MOL0     C79106   2.601   8.666   3.361 -0.5001  0.9407  0.9812
  574MOL0     C79107   2.559   8.609   3.236 -0.3141  0.1491 -0.0037
  574MOL0     C79108   2.644   8.523   3.172 -0.2229 -0.4992 -0.2381
  574MOL0     C79109   2.769   8.489   3.221  0.2695  0.3852  0.7615
  574MOL0     O79110   2.840   8.407   3.142 -0.0258 -0.1623  0.3799
  574MOL0     C79111   2.958   8.349   3.201  0.0035  0.1322 -0.3186
  574MOL0     C79112   2.947   8.256   3.331 -0.1852 -0.0054  0.2349
  574MOL0     C79113   3.061   8.272   3.432 -0.3777 -0.5605  0.7676
  574MOL0     C79114   3.183   8.201   3.385 -0.0556  0.5724 -0.2390
  574MOL0     C79115   3.299   8.196   3.494 -0.2811 -0.5318  0.1383
  574MOL0     C79116   3.404   8.090   3.466 -0.6995 -0.0811  0.0707
  574MOL0     C79117   3.512   8.078   3.572  0.8929 -0.0538 -0.4457
  574MOL0     C79118   3.620   7.984   3.519  0.1486 -0.2348 -0.1654
  574MOL0    Cl79119   3.588   7.813   3.466  0.4429 -0.0727 -0.0142
  574MOL0     C79120   2.804   8.533   3.353  0.5801  0.0866  0.2249
  574MOL0     C79121   2.716   8.621   3.421 -0.1325  0.1569  0.2978
  574MOL0     O79122   2.666   8.923   3.381  0.1553 -0.2533 -0.3715
  574MOL0     C79123   2.530   9.113   3.497  0.2689  0.0416  0.0195
  574MOL0     C79124   2.465   9.219   3.562 -0.6722 -0.0691  0.3370
  574MOL0     N79125   1.946   9.692   3.552  0.4641  0.8153  0.2943
  574MOL0     N79126   1.835   9.715   3.489 -0.8359 -0.1201  0.5120
  574MOL0     C79127   2.110  10.492   3.595 -0.3101 -0.3799  0.5820
  574MOL0     C79128   2.224  10.546   3.640  0.0842  0.4741 -0.0848
  574MOL0     C79129   2.540  10.835   3.808 -0.6762 -0.7224 -0.2675
  574MOL0     C79130   2.642  10.802   3.710  0.5360  0.6475  0.1403
  574MOL0     C79131   2.775  10.835   3.723 -0.3982 -0.3748 -0.0805
  574MOL0     C79132   2.817  10.905   3.829  0.1685 -0.5453 -0.5560
  574MOL0     O79133   2.953  10.945   3.860 -0.1026  0.2435 -0.1835
  574MOL0     C79134   3.055  10.892   3.774  0.2158 -0.1286 -0.3184
  574MOL0     C79135   3.182  10.953   3.809 -0.1554  0.1211 -0.4467
  574MOL0     C79136   3.201  11.094   3.762 -0.0149 -0.4164  0.5245
  574MOL0     C79137   3.248  11.093   3.613 -0.5022  0.1975 -1.3660
  574MOL0     C79138   3.202  11.211   3.543 -0.0898  0.2798 -0.2685
  574MOL0     C79139   3.190  11.314   3.473  0.1152 -0.1466 -0.1762
  574MOL0     C79140   2.725  10.951   3.921  0.4374 -0.4587 -0.4664
  574MOL0     C79141   2.588  10.917   3.913  0.9102 -0.5869 -0.2461
  574MOL0     C79142   2.507  10.959   4.043  0.0440  0.0084  1.0138
  574MOL0     H79143   2.138  10.869   3.694  1.3999 -0.8203  0.2416
  574MOL0     H79144   1.907  10.761   3.620 -0.0522  0.3388 -1.5861
  574MOL0     H79145   1.897  10.330   3.632 -1.9240  3.0139  2.9371
  574MOL0     H79146   1.907  10.333   3.451  1.2013 -0.3828  1.3240
  574MOL0     H79147   1.657  10.355   3.629  0.5035 -0.4798  1.7194
  574MOL0     H79148   1.675  10.384   3.451  0.7693  3.4752  0.6223
  574MOL0     H79149   1.774  10.135   3.442  0.1764  4.1545 -1.2113
  574MOL0     H79150   1.727  10.134   3.618 -2.6073  2.9614  1.9574
  574MOL0     H79151   1.486  10.222   3.514 -1.2061 -2.0018  1.4085
  574MOL0     H79152   1.548  10.125   3.378 -2.2112 -5.1972  1.0046
  574MOL0     H79153   1.401   9.989   3.521  0.8127  0.7838 -1.0782
  574MOL0     H79154   1.496  10.039   3.659  1.5643 -0.5219  0.7156
  574MOL0     H79155   1.614   9.880   3.419 -1.9557 -0.0909 -0.1998
  574MOL0     H79156   1.684   9.903   3.587 -0.5155  2.0163 -0.1215
  574MOL0     H79157   1.426   9.747   3.528  0.5539  2.3482 -2.3223
  574MOL0     H79158   1.534   9.737   3.668  1.2273  2.8520 -0.4371
  574MOL0     H79159   1.554   9.533   3.527 -1.6430  0.6180  0.7079
  574MOL0     H79160   1.605   9.632   3.393  1.5374 -0.3095  0.2782
  574MOL0     H79161   1.741   9.532   3.748 -0.5089  1.8874  1.1032
  574MOL0     H79162   1.969   9.615   3.885  0.2585  1.5370 -0.3746
  574MOL0     H79163   2.101   9.652   3.782 -1.4342  2.0157  0.7022
  574MOL0     H79164   1.978   9.396   3.872 -1.6444  3.3866  1.9566
  574MOL0     H79165   2.055   9.393   3.707 -0.5340 -1.7711  1.3182
  574MOL0     H79166   2.253   9.493   3.830 -1.2528  0.7122  0.8266
  574MOL0     H79167   2.162   9.417   3.973 -1.8841  1.2855 -0.0814
  574MOL0     H79168   2.300   9.234   3.902 -1.3637 -0.2123  0.3110
  574MOL0     H79169   2.153   9.209   3.814  1.7079 -1.0541 -2.2197
  574MOL0     H79170   2.223   9.043   3.715 -1.1921  2.4723 -1.6821
  574MOL0     H79171   2.238   8.798   3.692 -0.3805  0.3905  0.5306
  574MOL0     H79172   2.405   8.752   3.671  0.8173  0.3360 -0.8145
  574MOL0     H79173   2.302   8.763   3.531 -0.9876 -1.5127  1.3380
  574MOL0     H79174   2.457   8.629   3.207 -0.9672 -0.7388  1.5799
  574MOL0     H79175   2.614   8.490   3.073 -1.5420 -0.2694  0.0621
  574MOL0     H79176   3.019   8.299   3.125  1.5814 -1.5596  1.9359
  574MOL0     H79177   3.018   8.436   3.229  1.5385 -1.0754  0.3087
  574MOL0     H79178   2.860   8.282   3.391 -0.2916  1.5183 -0.5272
  574MOL0     H79179   2.923   8.153   3.303 -1.3408  0.2736  0.1748
  574MOL0     H79180   3.026   8.241   3.531 -1.4323  1.3556  1.0490
  574MOL0     H79181   3.080   8.379   3.445 -4.3308  0.2901  0.9070
  574MOL0     H79182   3.216   8.258   3.298 -3.7256  0.7039 -1.7293
  574MOL0     H79183   3.162   8.098   3.354  2.0885 -0.5825  1.8796
  574MOL0     H79184   3.348   8.293   3.494  0.1841 -0.7385  1.6083
  574MOL0     H79185   3.250   8.180   3.591 -1.1117 -0.4377 -0.2560
  574MOL0     H79186   3.460   8.121   3.376 -0.2771  2.3194  1.0788
  574MOL0     H79187   3.347   7.997   3.454 -1.6690  0.4786  0.2729
  574MOL0     H79188   3.464   8.042   3.664  0.3285 -2.0768 -1.4886
  574MOL0     H79189   3.543   8.178   3.604 -0.8509 -0.3481  2.5342
  574MOL0     H79190   3.693   7.969   3.599  0.4537 -0.8281 -0.5504
  574MOL0     H79191   3.680   8.039   3.446  1.8921  1.5823  2.4636
  574MOL0     H79192   2.886   8.499   3.415 -1.2231  1.3920  3.6260
  574MOL0     H79193   2.741   8.650   3.523 -2.7640 -0.3187  1.1678
  574MOL0     H79194   2.609   9.146   3.430 -0.2689 -1.5228 -1.4424
  574MOL0     H79195   2.491   9.323   3.546  0.9387 -0.2813  1.3192
  574MOL0     H79196   2.114  10.386   3.571 -0.4070 -0.3441  0.4055
  574MOL0     H79197   2.302  10.473   3.658 -0.1071  0.3892  0.4042
  574MOL0     H79198   2.604  10.747   3.624  0.2956  1.4108 -0.2561
  574MOL0     H79199   2.829  10.795   3.638 -0.2995  0.7477 -0.5608
  574MOL0     H79200   3.047  10.784   3.787 -3.4297 -0.3038 -2.6154
  574MOL0     H79201   3.037  10.909   3.668 -1.6013 -0.5502 -0.1211
  574MOL0     H79202   3.261  10.889   3.768 -1.9375 -1.8562 -0.9806
  574MOL0     H79203   3.190  10.952   3.918  3.7254  1.1465 -0.5977
  574MOL0     H79204   3.104  11.143   3.772  0.6293  0.6545  1.8599
  574MOL0     H79205   3.278  11.148   3.818 -0.9539  2.4600 -0.7740
  574MOL0     H79206   3.229  10.997   3.565 -1.3554 -0.6590  0.5671
  574MOL0     H79207   3.357  11.100   3.606 -0.2486 -1.8038 -0.1138
  574MOL0     H79208   3.169  11.396   3.407  0.0625 -1.4917 -1.8708
  574MOL0     H79209   2.757  11.002   4.011  0.8673 -1.3559 -0.0897
  574MOL0     H79210   2.409  11.006   4.030  1.0524  2.5146  1.8129
  574MOL0     H79211   2.487  10.869   4.102  0.9569 -0.6327  0.3856
  574MOL0     H79212   2.554  11.032   4.109 -0.5193  0.9751  0.3645
  575MOL0     O79213  10.304   2.236   4.262 -0.8957  0.0820 -0.0852
  575MOL0     C79214  10.246   2.163   4.341  0.3718  0.7880 -0.2854
  575MOL0     O79215  10.296   2.054   4.399  0.7417 -0.1694 -0.3324
  575MOL0     C79216  10.438   2.047   4.413  0.3860 -0.3073 -0.2640
  575MOL0     C79217  10.502   1.947   4.341 -0.0885 -0.7405  1.1802
  575MOL0     C79218  10.634   1.919   4.360 -0.3339 -0.0098 -0.5730
  575MOL0     C79219  10.719   2.002   4.444 -0.3927  0.3385 -1.1725
  575MOL0     O79220  10.854   1.975   4.445  0.4360 -0.2799  0.1456
  575MOL0     C79221  10.946   2.066   4.511 -0.3898  0.6626 -0.3743
  575MOL0     C79222  11.091   2.018   4.484 -0.4427 -0.1272  0.4464
  575MOL0     C79223  11.184   2.099   4.569 -0.4747 -0.0766  1.0162
  575MOL0     C79224  11.328   2.065   4.536 -0.6516  1.3477 -0.1322
  575MOL0     C79225  11.367   2.093   4.384 -0.7992  1.3995  0.7790
  575MOL0     C79226  11.516   2.068   4.352  0.6928  0.0885  0.2009
  575MOL0     C79227  11.557   2.148   4.227  0.5183  0.6524 -0.7199
  575MOL0     C79228  11.700   2.123   4.190  0.5285 -0.0932 -0.6376
  575MOL0     N79229  11.737   2.196   4.070 -0.1533  0.4320 -0.0999
  575MOL0     C79230  11.860   2.234   4.034 -0.6823  0.2355  0.1423
  575MOL0     C79231  11.855   2.305   3.914 -0.2678  0.0730 -0.0464
  575MOL0     C79232  11.957   2.368   3.818  0.5273  0.2434 -0.1396
  575MOL0     C79233  11.914   2.491   3.737  0.3780  1.0731  0.3629
  575MOL0     C79234  12.009   2.529   3.616 -0.5032 -0.5425 -0.4931
  575MOL0     C79235  12.159   2.541   3.654  0.8744 -0.0851 -0.2483
  575MOL0     O79236  12.246   2.521   3.542  0.3000  0.0113 -0.2775
  575MOL0     C79237  12.343   2.621   3.510 -0.8535  0.3027  0.7464
  575MOL0     C79238  12.365   2.656   3.371 -0.3118  0.0620  0.3783
  575MOL0     C79239  12.469   2.746   3.336  0.6288  1.0235 -0.4074
  575MOL0     C79240  12.490   2.771   3.188 -0.0393  0.8789  0.1418
  575MOL0     C79241  12.551   2.800   3.439 -0.0550 -0.8717  0.5267
  575MOL0     C79242  12.669   2.884   3.408  0.0542 -0.2008 -0.4811
  575MOL0     O79243  12.672   2.947   3.287  0.1232  0.0334 -0.0244
  575MOL0     C79244  12.797   2.977   3.230 -0.4164 -0.2616 -0.2974
  575MOL0     C79245  12.824   3.102   3.178 -0.0750  0.3618  0.5447
  575MOL0     C79246  12.946   3.132   3.132  0.5919 -0.3391  1.2275
  575MOL0     C79247  13.054   3.039   3.140  0.4569  0.0463 -0.3175
  575MOL0     O79248  13.174   3.069   3.073  1.2085  0.1482  0.4208
  575MOL0     C79249  13.250   2.968   3.000  0.9282  0.0096  0.2943
  575MOL0     C79250  13.390   3.023   2.958  0.4995  0.4222  0.0378
  575MOL0     C79251  13.476   2.903   2.930  0.1043  0.5787  0.5063
  575MOL0     C79252  13.600   2.955   2.854 -0.0966 -0.6693 -0.5684
  575MOL0     C79253  13.696   2.845   2.827 -1.2931  0.0686 -0.4420
  575MOL0     C79254  13.839   2.908   2.777  0.0683  0.5247 -0.2680
  575MOL0     C79255  13.955   2.801   2.778 -0.1538 -0.1021 -0.1664
  575MOL0     C79256  14.006   2.792   2.919 -0.2763 -0.1468  0.0327
  575MOL0    Cl79257  14.067   2.951   2.977 -0.0699  0.1207 -0.1931
  575MOL0     C79258  13.021   2.911   3.189  1.0019 -0.6024 -0.0890
  575MOL0     C79259  12.891   2.884   3.231 -0.1929 -0.0201 -0.2968
  575MOL0     O79260  12.762   2.886   3.494  0.3541  0.2835  0.1689
  575MOL0     C79261  12.531   2.761   3.572 -0.9474 -0.2372 -0.4813
  575MOL0     C79262  12.433   2.676   3.608 -0.1634  0.9447 -0.7544
  575MOL0     N79263  11.723   2.307   3.877  0.6375  0.7102 -0.4535
  575MOL0     N79264  11.652   2.245   3.970 -0.2602 -0.5113  0.3607
  575MOL0     C79265  10.650   2.112   4.509 -0.0582  0.3792 -0.0468
  575MOL0     C79266  10.516   2.127   4.501  0.4531  0.4982  0.4561
  575MOL0     C79267  10.099   2.196   4.365  0.2285  0.2424  0.1305
  575MOL0     C79268  10.053   2.313   4.306  0.1419 -0.0494  0.0607
  575MOL0     C79269   9.923   2.362   4.349  0.2936 -0.2577  0.0143
  575MOL0     C79270   9.831   2.295   4.425  0.7791  0.2040  0.6309
  575MOL0     O79271   9.702   2.334   4.445 -0.2022 -0.2056 -0.3770
  575MOL0     C79272   9.637   2.433   4.355 -0.0401  0.8030 -1.1151
  575MOL0     C79273   9.491   2.410   4.393 -0.9811  0.4881 -0.9661
  575MOL0     C79274   9.404   2.515   4.317 -0.5211  0.5560 -0.1925
  575MOL0     C79275   9.257   2.498   4.347  0.5947  0.1163 -0.6243
  575MOL0     C79276   9.175   2.550   4.236  0.5386 -0.7360 -1.0103
  575MOL0     C79277   9.093   2.579   4.149  0.0428 -0.6858 -0.8018
  575MOL0     C79278   9.868   2.167   4.464 -0.7044 -0.6328 -0.2617
  575MOL0     C79279  10.005   2.118   4.441 -0.3413  0.7608 -0.4080
  575MOL0     C79280  10.039   1.982   4.491 -0.0697  0.6165 -0.1645
  575MOL0     H79281  10.451   1.886   4.267 -0.4443  0.9745 -0.0561
  575MOL0     H79282  10.677   1.827   4.321 -1.0829 -2.0418  2.9863
  575MOL0     H79283  10.928   2.066   4.619  0.7829  1.2384 -0.1542
  575MOL0     H79284  10.921   2.162   4.463 -0.9574 -0.2303 -1.9351
  575MOL0     H79285  11.096   1.920   4.532 -0.0077 -1.7279 -2.5854
  575MOL0     H79286  11.128   2.015   4.381 -3.0470 -1.2459 -0.5580
  575MOL0     H79287  11.173   2.203   4.537  1.3670 -0.4590 -1.0934
  575MOL0     H79288  11.159   2.082   4.675 -0.8546  2.8945  1.4970
  575MOL0     H79289  11.395   2.120   4.603 -0.1172 -0.1189  0.5979
  575MOL0     H79290  11.349   1.959   4.554  0.2270  1.3774 -0.8960
  575MOL0     H79291  11.348   2.195   4.353 -0.3194  1.0210 -0.8284
  575MOL0     H79292  11.315   2.024   4.317  2.7015 -0.6947 -0.0275
  575MOL0     H79293  11.573   2.106   4.437  2.2606  0.0859 -0.8243
  575MOL0     H79294  11.536   1.961   4.339 -2.6333 -0.5659 -0.5402
  575MOL0     H79295  11.552   2.257   4.241 -0.4635  0.5220  0.0220
  575MOL0     H79296  11.488   2.121   4.147  0.3493  0.9236 -0.6676
  575MOL0     H79297  11.764   2.149   4.275 -0.2363 -3.7381  1.2660
  575MOL0     H79298  11.733   2.019   4.186  1.0048 -0.0464  0.9761
  575MOL0     H79299  11.953   2.229   4.091 -0.1037  4.9429 -0.0594
  575MOL0     H79300  11.993   2.288   3.752 -0.7805 -0.2784 -0.2455
  575MOL0     H79301  12.047   2.403   3.870  2.5744  0.7092 -3.6374
  575MOL0     H79302  11.814   2.478   3.694 -0.4265  0.8258  2.2276
  575MOL0     H79303  11.922   2.575   3.805 -1.3667 -0.8160  3.1010
  575MOL0     H79304  12.003   2.448   3.543  0.3495 -0.5768 -0.5418
  575MOL0     H79305  11.969   2.620   3.569 -1.4678 -0.2199  0.9107
  575MOL0     H79306  12.194   2.624   3.717  0.0181  0.8908 -1.0395
  575MOL0     H79307  12.176   2.447   3.709  2.2327  0.4856  0.3533
  575MOL0     H79308  12.303   2.606   3.297 -0.5047 -1.0293  1.2537
  575MOL0     H79309  12.588   2.731   3.161  0.0630  0.3451  1.2731
  575MOL0     H79310  12.483   2.875   3.156  0.4616  0.4250 -1.5675
  575MOL0     H79311  12.422   2.707   3.131 -0.7971 -1.2102  3.1668
  575MOL0     H79312  12.740   3.170   3.172  1.6579  2.4861 -1.7226
  575MOL0     H79313  12.962   3.220   3.071  0.6688 -1.8319 -1.0528
  575MOL0     H79314  13.264   2.876   3.059  0.0629 -0.0507  0.4261
  575MOL0     H79315  13.193   2.949   2.908  0.9805  2.8325 -0.3974
  575MOL0     H79316  13.381   3.076   2.863  2.9479 -0.2186 -0.6443
  575MOL0     H79317  13.428   3.086   3.039 -0.3280 -0.4584  1.1452
  575MOL0     H79318  13.426   2.831   2.865  0.4579 -0.2012  1.0772
  575MOL0     H79319  13.499   2.841   3.018 -1.7827 -0.1043  0.5533
  575MOL0     H79320  13.644   3.031   2.921 -1.1332 -2.5889  2.5092
  575MOL0     H79321  13.580   3.006   2.759  0.5783  0.7595  0.0131
  575MOL0     H79322  13.714   2.791   2.920  0.5105 -1.2294 -1.4770
  575MOL0     H79323  13.653   2.772   2.757 -1.7679 -1.5527  1.4673
  575MOL0     H79324  13.865   3.002   2.827  1.7120 -1.5514  3.1327
  575MOL0     H79325  13.812   2.922   2.672  1.5874  0.1539 -0.7368
  575MOL0     H79326  14.028   2.826   2.700 -0.9633 -1.2780 -1.3590
  575MOL0     H79327  13.913   2.704   2.750 -1.9741 -0.1458  2.3563
  575MOL0     H79328  14.084   2.714   2.921  0.2138  0.3275  2.1355
  575MOL0     H79329  13.937   2.758   2.997 -0.9536 -1.0217 -0.9311
  575MOL0     H79330  13.110   2.853   3.207  1.0673  0.2317  2.7668
  575MOL0     H79331  12.873   2.786   3.274 -1.0029  0.5397  0.6914
  575MOL0     H79332  12.591   2.814   3.646  0.1704 -0.0244 -1.4980
  575MOL0     H79333  12.422   2.638   3.709 -1.7282 -0.6646 -1.4864
  575MOL0     H79334  10.692   2.208   4.538 -1.3424  0.9963 -0.1567
  575MOL0     H79335  10.454   2.208   4.538 -1.9932 -1.2819  0.4547
  575MOL0     H79336  10.118   2.380   4.252  0.2979  0.2569  0.6245
  575MOL0     H79337   9.907   2.465   4.317  2.6335 -0.4043 -2.0111
  575MOL0     H79338   9.672   2.536   4.371 -1.5693  1.0742  0.7508
  575MOL0     H79339   9.646   2.409   4.249  0.7343  3.7474 -1.8152
  575MOL0     H79340   9.478   2.429   4.500  1.3424 -0.1080 -0.5295
  575MOL0     H79341   9.462   2.308   4.364  0.2077 -0.4966  1.0540
  575MOL0     H79342   9.435   2.618   4.338 -0.5733  0.5193  0.0656
  575MOL0     H79343   9.425   2.501   4.210 -2.1510  1.7754 -0.7115
  575MOL0     H79344   9.220   2.544   4.439 -2.7079  0.6505 -2.0713
  575MOL0     H79345   9.232   2.392   4.348 -2.8768  0.7955 -2.2161
  575MOL0     H79346   9.021   2.600   4.073  0.8710  0.2324 -1.3625
  575MOL0     H79347   9.793   2.109   4.517 -0.7005  0.8876  1.4961
  575MOL0     H79348  10.135   1.972   4.543 -1.1906 -2.1880  1.6154
  575MOL0     H79349   9.971   1.954   4.572 -0.5985  1.7475 -0.2089
  575MOL0     H79350  10.039   1.903   4.415 -1.7538  0.2584  0.1674
  576MOL0     O79351   9.400   8.291   3.199 -0.1275  0.1316 -0.0801
  576MOL0     C79352   9.391   8.174   3.157  0.1044  0.3132 -0.0780
  576MOL0     O79353   9.412   8.059   3.226 -0.3764 -0.1475 -0.4117
  576MOL0     C79354   9.427   8.066   3.366 -0.5754 -0.3024  0.3597
  576MOL0     C79355   9.536   7.997   3.431  0.4588  0.2208  0.3064
  576MOL0     C79356   9.553   8.004   3.575 -0.1442 -0.7656  0.2572
  576MOL0     C79357   9.463   8.083   3.649 -0.0545  0.6529 -0.5929
  576MOL0     O79358   9.463   8.085   3.790  0.1892 -0.7075 -0.3895
  576MOL0     C79359   9.550   8.008   3.871  0.1639  0.8137 -0.2657
  576MOL0     C79360   9.702   8.038   3.862  0.0582 -0.5056  0.0147
  576MOL0     C79361   9.745   8.139   3.972 -0.5649 -0.5229 -0.2251
  576MOL0     C79362   9.669   8.272   3.980 -0.0605  0.3086  1.4368
  576MOL0     C79363   9.659   8.326   4.118 -0.9310  0.5603  0.0462
  576MOL0     C79364   9.590   8.464   4.118  0.4483  0.1598 -0.3243
  576MOL0     C79365   9.571   8.525   4.256 -0.1526  0.2211 -0.8206
  576MOL0     C79366   9.695   8.592   4.318 -0.1926  0.2865  0.0078
  576MOL0     N79367   9.648   8.624   4.455 -0.0613  0.7324  0.1761
  576MOL0     C79368   9.574   8.731   4.507 -1.2508 -0.2634  0.7483
  576MOL0     C79369   9.589   8.710   4.640 -0.2929 -0.1716 -0.4379
  576MOL0     C79370   9.511   8.775   4.747  0.2125  0.2498  0.1520
  576MOL0     C79371   9.360   8.741   4.743  0.0601  0.5454 -0.5717
  576MOL0     C79372   9.287   8.853   4.822  0.1186  0.6332  0.5228
  576MOL0     C79373   9.142   8.816   4.842 -0.5639  0.1837 -0.7019
  576MOL0     O79374   9.061   8.822   4.726  0.5801 -0.6206 -0.1126
  576MOL0     C79375   9.028   8.942   4.683 -0.0410 -0.2112  0.7300
  576MOL0     C79376   8.986   8.955   4.551 -0.7805 -0.4963  0.3766
  576MOL0     C79377   8.943   9.075   4.488  0.5675  0.1249 -0.3081
  576MOL0     C79378   8.909   9.085   4.343 -1.2998 -0.5287 -0.0870
  576MOL0     C79379   8.927   9.189   4.569 -0.1692 -0.8818  0.0823
  576MOL0     C79380   8.897   9.322   4.515  0.1135  0.7393  0.5777
  576MOL0     O79381   8.982   9.362   4.420 -0.2906 -0.5915 -1.0870
  576MOL0     C79382   8.966   9.485   4.352 -0.2492  0.7020 -0.9209
  576MOL0     C79383   9.075   9.515   4.272 -0.5991 -0.5307 -0.5528
  576MOL0     C79384   9.068   9.626   4.187 -0.5440 -0.7154 -0.8206
  576MOL0     C79385   8.965   9.715   4.192  0.2793  0.1725  0.2853
  576MOL0     O79386   8.974   9.824   4.109 -0.1163 -0.4919 -0.0005
  576MOL0     C79387   8.943   9.951   4.166 -0.2886 -0.9050 -0.0718
  576MOL0     C79388   9.020   9.993   4.291 -0.1050 -0.2862 -0.4271
  576MOL0     C79389   9.170  10.008   4.269 -0.2430 -0.5972  0.3061
  576MOL0     C79390   9.201  10.130   4.188 -0.8082 -0.0760  0.2728
  576MOL0     C79391   9.355  10.162   4.166 -0.4469 -0.4940 -0.5698
  576MOL0     C79392   9.375  10.288   4.079 -0.0732  0.3344  0.8674
  576MOL0     C79393   9.531  10.294   4.052 -0.1556  0.5834 -0.1754
  576MOL0     C79394   9.619  10.347   4.165 -0.2677  0.4345 -0.5440
  576MOL0    Cl79395   9.795  10.354   4.107  0.2051  0.1815 -0.3830
  576MOL0     C79396   8.852   9.684   4.269 -0.4021 -0.6167  0.3736
  576MOL0     C79397   8.850   9.573   4.347 -0.5962 -0.7109  0.2056
  576MOL0     O79398   8.821   9.398   4.580  0.1793 -0.2193  0.0460
  576MOL0     C79399   8.968   9.179   4.703  0.0540 -0.6812 -0.3089
  576MOL0     C79400   9.015   9.063   4.760 -0.3071  0.1808 -0.4294
  576MOL0     N79401   9.658   8.587   4.666  0.2683 -0.5584 -0.1854
  576MOL0     N79402   9.691   8.542   4.561 -0.7934 -0.1043 -0.1313
  576MOL0     C79403   9.361   8.153   3.581 -0.2778 -0.0816  0.5147
  576MOL0     C79404   9.346   8.147   3.444 -0.3198 -0.3757  0.9371
  576MOL0     C79405   9.378   8.166   3.012 -1.2093 -0.6407  0.0482
  576MOL0     C79406   9.379   8.041   2.955  0.2206 -0.5605  0.6466
  576MOL0     C79407   9.361   8.028   2.813 -0.0951 -0.0550 -1.1325
  576MOL0     C79408   9.344   8.129   2.727 -0.3907 -0.5817  0.3305
  576MOL0     O79409   9.320   8.115   2.592  1.0850 -0.3839 -0.2112
  576MOL0     C79410   9.334   7.995   2.526 -0.1607 -0.0884 -0.1910
  576MOL0     C79411   9.293   7.998   2.375 -0.7841 -0.2487 -1.0221
  576MOL0     C79412   9.154   8.060   2.368  0.1647 -0.1377  0.3367
  576MOL0     C79413   9.112   8.076   2.226  0.1213 -0.0891  0.9182
  576MOL0     C79414   8.977   8.146   2.218  0.1117 -0.6211 -0.0451
  576MOL0     C79415   8.865   8.193   2.214  0.6196 -0.0848 -0.3310
  576MOL0     C79416   9.351   8.258   2.780 -0.7842  0.2125 -0.1014
  576MOL0     C79417   9.360   8.277   2.919 -0.1135  0.0367 -0.1609
  576MOL0     C79418   9.371   8.424   2.956  0.8756  0.0425  0.5221
  576MOL0     H79419   9.595   7.928   3.371 -1.7281 -0.7684 -0.7955
  576MOL0     H79420   9.637   7.958   3.627  0.2765 -1.8358 -1.3001
  576MOL0     H79421   9.534   7.905   3.836 -0.1403  0.4824  0.8196
  576MOL0     H79422   9.521   8.009   3.976  3.7271  0.9379  0.8467
  576MOL0     H79423   9.755   7.943   3.868 -1.9606 -1.8913 -2.3187
  576MOL0     H79424   9.729   8.083   3.765  1.8587 -0.7132  0.3809
  576MOL0     H79425   9.739   8.087   4.068 -0.9640 -3.3853 -1.6846
  576MOL0     H79426   9.851   8.163   3.962 -0.6429 -1.0009 -2.8762
  576MOL0     H79427   9.710   8.336   3.901 -2.1631 -0.1408 -0.1138
  576MOL0     H79428   9.566   8.251   3.951  0.9636  1.2088 -3.8717
  576MOL0     H79429   9.754   8.349   4.166 -1.2445  0.0998  0.9230
  576MOL0     H79430   9.598   8.255   4.176 -2.6074  1.2692 -0.7729
  576MOL0     H79431   9.645   8.534   4.055  0.9645  1.6741  1.6923
  576MOL0     H79432   9.494   8.455   4.065 -0.3413  0.7131  0.9747
  576MOL0     H79433   9.535   8.449   4.326  0.3205  0.2021 -0.5946
  576MOL0     H79434   9.495   8.602   4.245 -2.0377 -1.3792  0.3528
  576MOL0     H79435   9.781   8.524   4.316 -0.3211  0.1053 -2.6375
  576MOL0     H79436   9.725   8.685   4.269  1.5704 -1.5111 -2.6300
  576MOL0     H79437   9.533   8.818   4.457  3.4139  1.8986  0.0855
  576MOL0     H79438   9.531   8.882   4.740  1.4199  0.1565  1.6047
  576MOL0     H79439   9.548   8.741   4.844 -0.1257 -2.5182 -0.6005
  576MOL0     H79440   9.330   8.730   4.639  0.0439 -1.6504 -0.3724
  576MOL0     H79441   9.337   8.637   4.769  0.8684  0.7662  1.1853
  576MOL0     H79442   9.324   8.862   4.924 -0.0852  0.8037  0.5847
  576MOL0     H79443   9.297   8.945   4.764 -0.1234  0.6281  0.4714
  576MOL0     H79444   9.130   8.716   4.885 -0.3694  0.2700 -0.4447
  576MOL0     H79445   9.103   8.883   4.919  0.2827 -1.3393  1.1284
  576MOL0     H79446   8.978   8.861   4.498  2.2245  0.7024 -2.5006
  576MOL0     H79447   8.891   8.986   4.300  0.7285 -1.0884  0.2439
  576MOL0     H79448   8.994   9.121   4.284  1.5051 -5.5452  0.3981
  576MOL0     H79449   8.820   9.146   4.322 -2.3107 -1.8685  0.1635
  576MOL0     H79450   9.161   9.453   4.248  0.4495  1.8893 -3.7502
  576MOL0     H79451   9.148   9.641   4.114 -0.7013 -0.9166 -1.0361
  576MOL0     H79452   8.946  10.022   4.082 -4.5923 -2.0082 -1.3798
  576MOL0     H79453   8.837   9.946   4.189 -0.1771  2.8577  2.1592
  576MOL0     H79454   8.990  10.086   4.339  3.2082  1.1692 -0.9231
  576MOL0     H79455   8.990   9.918   4.365 -1.3239  0.0219 -0.5882
  576MOL0     H79456   9.221   9.922   4.226  1.2738  0.9325 -1.1514
  576MOL0     H79457   9.214  10.015   4.369 -0.6344 -2.2446  0.6192
  576MOL0     H79458   9.159  10.217   4.240 -3.4042 -0.1320 -1.5396
  576MOL0     H79459   9.155  10.115   4.090  0.4562 -0.4595 -0.2852
  576MOL0     H79460   9.403  10.179   4.262  0.3218 -0.1972 -0.9977
  576MOL0     H79461   9.402  10.076   4.118  0.6525 -0.2864  0.1050
  576MOL0     H79462   9.347  10.380   4.132 -1.8735  0.5586 -0.3871
  576MOL0     H79463   9.327  10.289   3.981  0.3479 -0.7149  0.6455
  576MOL0     H79464   9.547  10.363   3.969  2.5166 -0.9761 -1.0624
  576MOL0     H79465   9.557  10.195   4.015 -1.5927 -0.0826  0.5197
  576MOL0     H79466   9.616  10.281   4.252  2.1048 -0.9380 -1.4052
  576MOL0     H79467   9.584  10.443   4.206  2.3484  2.4754 -2.6994
  576MOL0     H79468   8.770   9.755   4.276  1.9139  2.4790 -1.1187
  576MOL0     H79469   8.756   9.546   4.394  0.7552 -0.8581  3.0393
  576MOL0     H79470   8.966   9.266   4.770 -0.8328 -0.0518 -1.1204
  576MOL0     H79471   9.038   9.069   4.866 -0.2980  0.0956 -0.4266
  576MOL0     H79472   9.285   8.209   3.633 -1.0354 -0.3154 -0.3217
  576MOL0     H79473   9.269   8.206   3.395 -0.5131 -1.6184 -0.3257
  576MOL0     H79474   9.408   7.950   3.007  0.3486 -0.6916  0.3452
  576MOL0     H79475   9.371   7.932   2.765  0.4392 -0.6128  0.0691
  576MOL0     H79476   9.438   7.962   2.527 -0.1565 -0.0596  0.8251
  576MOL0     H79477   9.278   7.913   2.572  1.7398 -1.6366 -0.5269
  576MOL0     H79478   9.288   7.895   2.339 -0.8363 -0.9657  0.8822
  576MOL0     H79479   9.365   8.066   2.327  0.8406  1.1026  2.8857
  576MOL0     H79480   9.085   7.998   2.427  1.2489 -0.6336  1.1326
  576MOL0     H79481   9.160   8.159   2.414  2.3317  0.5621 -1.2615
  576MOL0     H79482   9.117   7.978   2.178  2.5825  0.3456  0.1732
  576MOL0     H79483   9.180   8.138   2.167  0.7650 -2.7291 -1.3179
  576MOL0     H79484   8.761   8.217   2.224  0.4832 -1.0415  0.7339
  576MOL0     H79485   9.335   8.346   2.719 -0.0500  1.2846  1.2106
  576MOL0     H79486   9.456   8.452   3.018 -0.3846  1.0922  1.8456
  576MOL0     H79487   9.370   8.485   2.865 -1.6492  0.0990  0.5024
  576MOL0     H79488   9.279   8.447   3.010 -1.1298 -0.0678 -2.5820
  577MOL0     O79489  11.428   6.913   0.579 -0.1455 -0.2893  0.1087
  577MOL0     C79490  11.360   6.858   0.657 -0.6872  0.0825 -0.1456
  577MOL0     O79491  11.344   6.722   0.666 -0.2124  0.3086  0.0353
  577MOL0     C79492  11.383   6.646   0.562 -0.3240  1.2048 -0.0244
  577MOL0     C79493  11.520   6.612   0.551 -0.4825  0.5606 -0.8698
  577MOL0     C79494  11.570   6.528   0.452  0.3150  0.2999  0.6709
  577MOL0     C79495  11.476   6.472   0.361 -0.3631 -0.0715 -0.3165
  577MOL0     O79496  11.495   6.376   0.271 -0.4667 -0.0615 -1.0352
  577MOL0     C79497  11.631   6.343   0.235  0.3859 -0.8101 -0.3531
  577MOL0     C79498  11.703   6.253   0.339 -0.2108 -0.2749  0.1545
  577MOL0     C79499  11.655   6.109   0.374  0.0139  0.4297 -0.3622
  577MOL0     C79500  11.753   6.031   0.445 -0.9939  0.3734  0.3359
  577MOL0     C79501  11.876   5.985   0.365 -0.0475 -0.3387 -0.5331
  577MOL0     C79502  11.978   5.901   0.443  0.9653 -0.7570  0.5550
  577MOL0     C79503  12.107   5.888   0.356 -0.0048 -0.1286  0.7254
  577MOL0     C79504  12.210   5.813   0.437 -0.4301  0.0591 -0.0205
  577MOL0     N79505  12.270   5.871   0.562  0.9230 -0.1752  0.0001
  577MOL0     C79506  12.314   5.782   0.660  0.4000 -0.6235  0.3469
  577MOL0     C79507  12.337   5.862   0.764  0.3559  0.2037  0.3448
  577MOL0     C79508  12.397   5.815   0.892  1.2453 -0.0687 -0.5134
  577MOL0     C79509  12.331   5.884   1.014  0.4900  0.3649  0.6232
  577MOL0     C79510  12.364   6.034   1.032 -0.8175 -0.1943 -0.1064
  577MOL0     C79511  12.510   6.068   1.011  0.1508 -0.2066 -0.8007
  577MOL0     O79512  12.607   5.983   1.091  0.8212  0.3600  0.7649
  577MOL0     C79513  12.741   5.993   1.065 -0.8328 -0.9384  0.2290
  577MOL0     C79514  12.836   5.925   1.146  0.3048  0.0757  0.1041
  577MOL0     C79515  12.973   5.935   1.122  0.1973  0.4331 -1.3027
  577MOL0     C79516  13.056   5.859   1.218  0.4502  0.7209 -0.4551
  577MOL0     C79517  13.022   6.010   1.018 -0.0499 -0.1221  0.1637
  577MOL0     C79518  13.171   6.031   0.985 -0.3770  0.5827 -0.8345
  577MOL0     O79519  13.251   6.010   1.095 -0.2580 -0.1115 -0.3827
  577MOL0     C79520  13.386   6.010   1.082  0.1013  0.1467  0.2609
  577MOL0     C79521  13.461   5.970   0.969  0.5415  0.2463 -0.3460
  577MOL0     C79522  13.600   5.980   0.982  0.1259  0.0625 -0.0845
  577MOL0     C79523  13.667   6.034   1.094 -0.4189 -0.1540 -0.1091
  577MOL0     O79524  13.801   6.060   1.089 -0.5026 -0.3543  0.4123
  577MOL0     C79525  13.868   6.010   1.213 -0.0253 -0.5358 -0.7902
  577MOL0     C79526  14.012   5.972   1.185  0.7290  0.1717 -0.4499
  577MOL0     C79527  14.090   5.937   1.320 -0.2610  0.6350  0.2196
  577MOL0     C79528  14.059   5.807   1.390 -0.1153  0.6291 -0.1257
  577MOL0     C79529  14.046   5.686   1.300  0.5587  1.1097  1.1187
  577MOL0     C79530  13.978   5.566   1.369  0.6079  0.3818  0.1382
  577MOL0     C79531  14.056   5.502   1.487 -0.3935 -0.1961  0.1064
  577MOL0     C79532  14.020   5.361   1.531 -0.6329  0.2725  0.1239
  577MOL0    Cl79533  14.077   5.245   1.403  0.0209 -0.3258 -0.3718
  577MOL0     C79534  13.588   6.075   1.209  0.2103  0.2948  0.2038
  577MOL0     C79535  13.450   6.060   1.200 -0.5751 -0.2166 -0.5299
  577MOL0     O79536  13.209   6.055   0.868 -0.1380  0.3807  0.4373
  577MOL0     C79537  12.933   6.068   0.929 -0.1208  0.1824 -0.2879
  577MOL0     C79538  12.799   6.068   0.956  0.3599  0.2884 -0.1667
  577MOL0     N79539  12.294   5.993   0.737 -0.6555  0.0538 -0.0545
  577MOL0     N79540  12.250   5.993   0.612  0.0953  0.2599 -1.0135
  577MOL0     C79541  11.338   6.506   0.374  0.5230 -0.4295  0.1608
  577MOL0     C79542  11.289   6.596   0.471  0.0369 -0.3190 -0.3493
  577MOL0     C79543  11.274   6.936   0.742 -0.4522  0.5726 -0.4514
  577MOL0     C79544  11.189   7.031   0.680  0.0416  0.5807 -0.2128
  577MOL0     C79545  11.093   7.102   0.751 -0.0640 -0.6078 -0.2241
  577MOL0     C79546  11.081   7.084   0.892 -0.7061  0.1340 -0.5323
  577MOL0     O79547  10.981   7.132   0.967  0.4511 -0.2199  0.1921
  577MOL0     C79548  10.869   7.223   0.928 -0.1800  0.6843  0.8541
  577MOL0     C79549  10.735   7.174   0.980  0.6470  0.1448  0.0695
  577MOL0     C79550  10.612   7.264   0.954  0.2053  0.3988 -0.2614
  577MOL0     C79551  10.484   7.208   1.015 -0.4029 -0.7035 -0.5888
  577MOL0     C79552  10.457   7.070   0.970  0.4882  0.1415  0.0228
  577MOL0     C79553  10.425   6.960   0.936  0.4306  0.8068  0.3963
  577MOL0     C79554  11.182   7.003   0.954  0.1697  0.7548  1.2436
  577MOL0     C79555  11.272   6.926   0.881  0.1641 -0.3320 -0.6588
  577MOL0     C79556  11.370   6.829   0.954  0.4116 -0.5878 -0.0154
  577MOL0     H79557  11.597   6.648   0.619 -0.3831 -1.1760 -0.0106
  577MOL0     H79558  11.677   6.509   0.444  0.1532 -0.2479 -0.3478
  577MOL0     H79559  11.693   6.430   0.213  1.3311 -0.6296  2.6797
  577MOL0     H79560  11.633   6.284   0.142  1.0403  0.7625 -1.3798
  577MOL0     H79561  11.809   6.254   0.312 -0.3986  2.5991 -0.7887
  577MOL0     H79562  11.685   6.305   0.434  1.2674  1.7979 -0.6394
  577MOL0     H79563  11.557   6.115   0.422 -0.8703  0.4901 -2.0771
  577MOL0     H79564  11.635   6.048   0.285  2.6018  1.1614 -1.5336
  577MOL0     H79565  11.800   6.094   0.521 -0.7102  0.0255  0.4500
  577MOL0     H79566  11.694   5.949   0.487  1.5046 -0.7488  1.8820
  577MOL0     H79567  11.933   6.072   0.332  1.2281 -1.7772 -2.3217
  577MOL0     H79568  11.844   5.937   0.273 -0.4600 -0.1231 -0.5030
  577MOL0     H79569  11.996   5.954   0.537  4.4269  1.1753 -1.0120
  577MOL0     H79570  11.930   5.804   0.460 -1.0577 -0.3694 -2.2496
  577MOL0     H79571  12.136   5.988   0.325 -1.5788  0.8247  2.1906
  577MOL0     H79572  12.079   5.836   0.263 -0.9508 -0.6778  1.2938
  577MOL0     H79573  12.156   5.725   0.473 -0.7835  1.1205  2.2039
  577MOL0     H79574  12.292   5.776   0.374 -0.6998  1.0326 -0.9689
  577MOL0     H79575  12.324   5.673   0.660  0.1535 -0.6703 -1.1177
  577MOL0     H79576  12.506   5.825   0.885  1.5720 -3.1113 -1.1495
  577MOL0     H79577  12.385   5.707   0.903  1.7835 -0.0882 -0.0141
  577MOL0     H79578  12.223   5.875   1.007  0.4648  1.0058  0.1472
  577MOL0     H79579  12.356   5.827   1.105 -2.2435 -3.0523 -0.5462
  577MOL0     H79580  12.305   6.098   0.966  0.2350 -1.5996 -2.5780
  577MOL0     H79581  12.339   6.054   1.136 -5.0264 -0.1693 -0.9713
  577MOL0     H79582  12.529   6.073   0.903 -0.1055  3.5398 -0.8206
  577MOL0     H79583  12.533   6.169   1.046  2.1420 -0.6555 -0.7455
  577MOL0     H79584  12.790   5.868   1.227 -0.3472 -1.4210 -1.2481
  577MOL0     H79585  13.126   5.804   1.155  0.1827  1.8496 -1.7961
  577MOL0     H79586  12.998   5.790   1.280  1.5839  0.0477 -0.1204
  577MOL0     H79587  13.104   5.919   1.296 -0.8671 -1.0810  1.8872
  577MOL0     H79588  13.421   5.929   0.877  1.5154 -1.4323 -0.0639
  577MOL0     H79589  13.664   5.954   0.898  2.0041  0.5373  1.1466
  577MOL0     H79590  13.876   6.100   1.274 -1.0321 -0.3887 -0.8527
  577MOL0     H79591  13.813   5.931   1.266 -0.3668  0.4548  0.3777
  577MOL0     H79592  14.021   5.887   1.117 -0.5276  1.4196 -2.2516
  577MOL0     H79593  14.071   6.052   1.140  0.1520  0.4850 -0.6551
  577MOL0     H79594  14.083   6.023   1.387  3.2577  3.4148 -2.6044
  577MOL0     H79595  14.196   5.917   1.302 -0.3137 -0.6421  1.1885
  577MOL0     H79596  13.963   5.830   1.439  0.4641  1.6552  0.5516
  577MOL0     H79597  14.134   5.781   1.464 -1.3304 -1.1839  0.5538
  577MOL0     H79598  13.981   5.703   1.214 -1.8579 -0.2951  2.5405
  577MOL0     H79599  14.144   5.655   1.265 -0.6682 -2.0502  0.2073
  577MOL0     H79600  13.959   5.483   1.300 -0.9208  1.7413 -1.1449
  577MOL0     H79601  13.879   5.593   1.406  1.0139  1.2631  0.6180
  577MOL0     H79602  14.052   5.573   1.571  2.3298  0.7531 -0.4420
  577MOL0     H79603  14.159   5.476   1.461 -0.0015  0.2812  1.1241
  577MOL0     H79604  13.915   5.334   1.541  0.1933 -2.8036  1.7886
  577MOL0     H79605  14.070   5.343   1.626 -0.7298  1.1926  0.3621
  577MOL0     H79606  13.639   6.119   1.294 -0.3599 -1.0819  1.2962
  577MOL0     H79607  13.387   6.104   1.276 -0.4257  0.5378 -0.8337
  577MOL0     H79608  12.973   6.115   0.840  0.7633 -1.7814 -1.0086
  577MOL0     H79609  12.729   6.113   0.887 -0.5013  0.8544  1.0436
  577MOL0     H79610  11.258   6.465   0.313 -1.8264  1.1001  1.9699
  577MOL0     H79611  11.185   6.624   0.463  0.1471 -0.2787 -1.8720
  577MOL0     H79612  11.193   7.044   0.573 -0.6459 -0.9207 -0.4334
  577MOL0     H79613  11.035   7.171   0.692  0.7945 -2.6717 -3.7944
  577MOL0     H79614  10.894   7.316   0.979  0.5092  2.0108 -1.7439
  577MOL0     H79615  10.875   7.237   0.820 -1.7719 -2.5809  0.2088
  577MOL0     H79616  10.746   7.168   1.089  0.8702  1.4871  0.1417
  577MOL0     H79617  10.718   7.073   0.942 -0.4130 -0.3344  1.7147
  577MOL0     H79618  10.631   7.361   1.000  0.4951  0.3804 -0.3393
  577MOL0     H79619  10.600   7.287   0.847 -0.6098  1.3716  0.0204
  577MOL0     H79620  10.402   7.274   0.988 -0.2458 -0.6700 -0.9770
  577MOL0     H79621  10.494   7.206   1.124  0.3147 -0.5523 -0.6458
  577MOL0     H79622  10.401   6.857   0.917 -0.8587  0.9917  0.9232
  577MOL0     H79623  11.196   6.997   1.061  0.0857  2.2539  1.3492
  577MOL0     H79624  11.348   6.723   0.936  1.4722 -0.6647 -1.0241
  577MOL0     H79625  11.473   6.834   0.917  0.1452  2.2796 -0.5796
  577MOL0     H79626  11.377   6.852   1.061  1.1087 -0.6013 -0.0531
  578MOL0     O79627   0.669  10.603   6.771  0.1957 -0.4095  0.6237
  578MOL0     C79628   0.631  10.717   6.808 -0.5373 -0.6452  0.2359
  578MOL0     O79629   0.714  10.825   6.798  0.5676 -0.7292 -0.2040
  578MOL0     C79630   0.844  10.810   6.748  0.3379  0.0315 -0.8670
  578MOL0     C79631   0.869  10.771   6.616 -0.1423 -0.7179 -0.1492
  578MOL0     C79632   1.003  10.766   6.572  0.1969  0.2754  1.3515
  578MOL0     C79633   1.107  10.784   6.655  0.0367  0.2792 -0.3916
  578MOL0     O79634   1.240  10.795   6.613 -0.5906  0.2323 -0.5956
  578MOL0     C79635   1.274  10.763   6.480  0.7131  0.7248 -0.8038
  578MOL0     C79636   1.286  10.616   6.441  0.4023 -0.7231 -0.2201
  578MOL0     C79637   1.389  10.527   6.516 -0.1701 -0.1754  0.6248
  578MOL0     C79638   1.335  10.386   6.510 -0.0286  0.2719 -0.1001
  578MOL0     C79639   1.429  10.278   6.576 -0.5637 -0.2733  0.2243
  578MOL0     C79640   1.369  10.142   6.551  1.0142 -0.1055  0.2905
  578MOL0     C79641   1.421  10.022   6.627 -0.4323  1.2399  0.9311
  578MOL0     C79642   1.565  10.007   6.582  0.0270 -0.1201  1.2562
  578MOL0     N79643   1.629   9.900   6.666  0.4326 -0.1822 -0.3357
  578MOL0     C79644   1.717   9.929   6.759  0.0962  0.3078  0.6241
  578MOL0     C79645   1.780   9.816   6.777 -0.2323 -0.1601 -0.7492
  578MOL0     C79646   1.894   9.802   6.881 -0.1196  0.8278  0.5121
  578MOL0     C79647   2.034   9.775   6.827 -0.3196  0.3854 -0.6703
  578MOL0     C79648   2.127   9.717   6.930  0.2313  0.0438  0.2723
  578MOL0     C79649   2.281   9.724   6.895 -0.6197  0.0587 -0.4592
  578MOL0     O79650   2.310   9.635   6.787  0.8994  0.7425 -0.0098
  578MOL0     C79651   2.439   9.591   6.764  0.4058 -0.0634 -0.3873
  578MOL0     C79652   2.455   9.484   6.674  0.5069  0.2045 -0.0678
  578MOL0     C79653   2.584   9.443   6.627  0.2373  0.1893  0.1396
  578MOL0     C79654   2.575   9.347   6.511 -0.3703 -0.6920 -0.1807
  578MOL0     C79655   2.703   9.502   6.684 -0.3439  0.0593 -0.0620
  578MOL0     C79656   2.845   9.460   6.662 -0.4074 -0.0628 -0.1933
  578MOL0     O79657   2.940   9.542   6.725  0.0131  0.3827 -0.4229
  578MOL0     C79658   3.074   9.533   6.709 -0.2985  0.1534  0.0848
  578MOL0     C79659   3.146   9.648   6.745 -0.2611  0.4576 -1.0579
  578MOL0     C79660   3.285   9.643   6.764 -0.0756 -1.1257  0.9006
  578MOL0     C79661   3.355   9.528   6.722 -0.3654 -0.6339 -0.3776
  578MOL0     O79662   3.488   9.507   6.729 -0.6382 -0.0159 -0.4410
  578MOL0     C79663   3.565   9.593   6.814  0.5261 -0.1470  0.8894
  578MOL0     C79664   3.697   9.518   6.862 -0.2342 -0.1297  0.3952
  578MOL0     C79665   3.783   9.604   6.939  0.4201  1.4884 -0.3194
  578MOL0     C79666   3.872   9.690   6.853  0.3143  0.3995  0.2691
  578MOL0     C79667   3.972   9.772   6.929 -0.6902  0.2867  0.2334
  578MOL0     C79668   4.085   9.799   6.826 -0.8877  0.1104 -0.1827
  578MOL0     C79669   4.181   9.905   6.881 -0.2358 -0.6098 -0.4898
  578MOL0     C79670   4.283   9.949   6.774  0.3260  0.2957 -0.3716
  578MOL0    Cl79671   4.378   9.813   6.721 -0.3055 -0.2161 -0.0787
  578MOL0     C79672   3.286   9.419   6.675 -0.0516 -0.5484  0.2867
  578MOL0     C79673   3.147   9.416   6.681 -0.4555 -0.6862  0.1668
  578MOL0     O79674   2.864   9.360   6.595 -0.3416 -1.1405  0.4979
  578MOL0     C79675   2.679   9.608   6.778 -0.9203 -0.6214  0.8336
  578MOL0     C79676   2.554   9.653   6.819  0.1707 -0.6630 -1.6980
  578MOL0     N79677   1.728   9.716   6.696  0.5236 -0.1476  0.2899
  578MOL0     N79678   1.647   9.775   6.625 -0.2243  0.5260 -0.6218
  578MOL0     C79679   1.085  10.797   6.788 -0.5500  1.1348  0.0958
  578MOL0     C79680   0.953  10.813   6.838 -0.4348 -0.5880 -0.6125
  578MOL0     C79681   0.494  10.745   6.863 -0.1205  0.3088 -0.1262
  578MOL0     C79682   0.479  10.879   6.911  0.3393  0.4560  0.5307
  578MOL0     C79683   0.369  10.922   6.972  0.7071  0.5487  0.2495
  578MOL0     C79684   0.268  10.828   7.011 -0.0756 -0.0297  0.1659
  578MOL0     O79685   0.153  10.863   7.068 -1.2843  0.0814  0.2713
  578MOL0     C79686   0.166  10.940   7.187  0.2743 -0.0382 -0.2443
  578MOL0     C79687   0.024  10.965   7.243 -0.2267 -0.3764 -0.2079
  578MOL0     C79688   0.033  11.038   7.374 -0.0923  0.0716  0.9190
  578MOL0     C79689  -0.089  11.070   7.448 -0.5670  0.2296 -0.2571
  578MOL0     C79690  -0.192  10.964   7.454  0.2328 -0.7170  0.2438
  578MOL0     C79691  -0.277  10.878   7.438  0.1270 -1.0066 -0.4555
  578MOL0     C79692   0.277  10.696   6.960 -0.4616 -0.9504 -0.1742
  578MOL0     C79693   0.391  10.654   6.886 -0.7684  0.5179 -0.5421
  578MOL0     C79694   0.386  10.517   6.842 -0.4925 -0.0454  0.2482
  578MOL0     H79695   0.792  10.770   6.540  1.3531  0.4509 -1.7702
  578MOL0     H79696   1.011  10.748   6.466 -0.6603 -0.0864  1.3376
  578MOL0     H79697   1.378  10.796   6.469  1.5570 -1.4933 -0.0851
  578MOL0     H79698   1.205  10.820   6.417 -0.7051  2.1663  1.8703
  578MOL0     H79699   1.188  10.568   6.452  1.0219 -1.5751  2.2117
  578MOL0     H79700   1.322  10.619   6.337 -1.3782 -0.8053 -0.8803
  578MOL0     H79701   1.484  10.530   6.462 -2.3510  1.8364 -3.5575
  578MOL0     H79702   1.411  10.559   6.618  1.5791 -0.9467  0.5279
  578MOL0     H79703   1.244  10.389   6.570  1.0235  2.1763  1.5140
  578MOL0     H79704   1.313  10.368   6.405 -1.8411 -0.6657  0.4027
  578MOL0     H79705   1.449  10.299   6.681  1.9834 -0.1883 -0.2054
  578MOL0     H79706   1.526  10.291   6.527 -0.7523 -1.4024 -0.4779
  578MOL0     H79707   1.265  10.159   6.580  1.3709  2.5012  0.2670
  578MOL0     H79708   1.383  10.119   6.445  0.8608 -4.1216  1.0111
  578MOL0     H79709   1.364   9.935   6.594 -0.4439  1.9532 -1.0973
  578MOL0     H79710   1.412  10.033   6.736  1.6439 -1.8392  1.5252
  578MOL0     H79711   1.583   9.984   6.476  1.0854  1.4955  1.0537
  578MOL0     H79712   1.623  10.097   6.602  4.3627 -2.4414  0.5204
  578MOL0     H79713   1.735  10.027   6.803 -0.7156  1.5614 -1.6211
  578MOL0     H79714   1.875   9.722   6.953 -4.1457 -0.7616 -1.9213
  578MOL0     H79715   1.884   9.897   6.935 -3.5495  1.3443 -0.7580
  578MOL0     H79716   2.037   9.703   6.745  1.1888 -1.4842  0.9104
  578MOL0     H79717   2.086   9.860   6.783  1.8501 -1.7475 -2.5173
  578MOL0     H79718   2.121   9.775   7.023  2.6944 -0.4346  0.7978
  578MOL0     H79719   2.098   9.614   6.952 -0.5795  0.3417  0.6627
  578MOL0     H79720   2.303   9.828   6.870 -4.1784  1.4722  1.6044
  578MOL0     H79721   2.341   9.704   6.984 -0.6935  3.0362  0.3492
  578MOL0     H79722   2.368   9.427   6.645  2.4955 -1.5703 -3.0856
  578MOL0     H79723   2.473   9.326   6.478  0.0462 -2.8295 -0.3084
  578MOL0     H79724   2.622   9.252   6.538 -0.0566 -0.5894 -0.3626
  578MOL0     H79725   2.629   9.383   6.423 -2.0309  0.7872 -0.6401
  578MOL0     H79726   3.093   9.741   6.766  0.0158  1.3205 -3.7761
  578MOL0     H79727   3.342   9.730   6.793  1.5250 -1.4903 -0.8975
  578MOL0     H79728   3.592   9.684   6.761 -0.9167  0.2972  0.8697
  578MOL0     H79729   3.508   9.628   6.900  0.1965  0.1821  0.5413
  578MOL0     H79730   3.675   9.428   6.919  0.8059 -0.5218  0.1971
  578MOL0     H79731   3.760   9.495   6.776  3.7134  1.7025  2.5444
  578MOL0     H79732   3.853   9.545   6.999  1.0932  1.1175 -1.4342
  578MOL0     H79733   3.730   9.673   7.006 -0.1861  1.0450 -0.3396
  578MOL0     H79734   3.807   9.758   6.797  0.7185  0.7344  0.2014
  578MOL0     H79735   3.923   9.631   6.778  1.5187  2.5963 -0.7351
  578MOL0     H79736   3.942   9.866   6.975 -1.6990  0.2602 -0.3452
  578MOL0     H79737   4.024   9.719   7.010  3.3768  0.6646 -1.8634
  578MOL0     H79738   4.055   9.836   6.727 -2.7337  0.3881  0.4328
  578MOL0     H79739   4.130   9.700   6.817 -0.3334  0.5033 -2.4542
  578MOL0     H79740   4.236   9.866   6.967 -3.3165  0.7055  2.3138
  578MOL0     H79741   4.119   9.991   6.910 -1.7257 -1.3176 -1.4061
  578MOL0     H79742   4.351  10.025   6.816  0.9979  1.1447 -2.8243
  578MOL0     H79743   4.230   9.993   6.690  0.0896 -2.8519 -1.9995
  578MOL0     H79744   3.327   9.321   6.649  0.3196 -0.9612  2.2510
  578MOL0     H79745   3.093   9.323   6.668  0.6630 -1.4309  0.7101
  578MOL0     H79746   2.768   9.662   6.811 -0.4139 -1.0081  0.1223
  578MOL0     H79747   2.555   9.729   6.897  1.2166 -1.2112 -1.1564
  578MOL0     H79748   1.165  10.788   6.860 -1.5194 -0.4974  1.0267
  578MOL0     H79749   0.937  10.842   6.941  3.8373  1.3951 -0.2830
  578MOL0     H79750   0.558  10.954   6.904  2.1337 -1.3035  0.7706
  578MOL0     H79751   0.372  11.028   6.995  0.8023  0.2934  1.4715
  578MOL0     H79752   0.240  10.897   7.256  1.4154  1.1857 -0.6624
  578MOL0     H79753   0.206  11.037   7.154  2.0802 -0.8058 -0.4258
  578MOL0     H79754  -0.015  10.865   7.260  2.3680 -1.7821 -1.9339
  578MOL0     H79755  -0.029  11.027   7.170  0.4294  0.4322 -0.0158
  578MOL0     H79756   0.106  10.993   7.441  3.5419 -1.2104 -3.3913
  578MOL0     H79757   0.072  11.137   7.347 -2.2166  0.8242  0.4390
  578MOL0     H79758  -0.132  11.151   7.388 -1.3747 -0.2035 -0.2773
  578MOL0     H79759  -0.056  11.099   7.548  1.9415  1.6040 -1.3944
  578MOL0     H79760  -0.350  10.801   7.423 -1.3306  0.3045 -0.3361
  578MOL0     H79761   0.186  10.638   6.974  0.5741 -1.8104  4.6236
  578MOL0     H79762   0.282  10.498   6.817  0.3379 -0.1036 -3.8377
  578MOL0     H79763   0.437  10.499   6.747  0.0408 -2.4305  0.9044
  578MOL0     H79764   0.435  10.459   6.921 -0.2036  0.4241  0.4205
  579MOL0     O79765   6.409   5.632   3.721 -0.5726  0.5481 -0.2476
  579MOL0     C79766   6.383   5.569   3.822 -0.1319 -0.6331  1.0561
  579MOL0     O79767   6.261   5.553   3.870  0.3732 -0.4346 -0.2056
  579MOL0     C79768   6.150   5.590   3.797 -0.2088 -1.2317 -0.0988
  579MOL0     C79769   6.113   5.532   3.679 -0.9240 -0.5565 -0.3674
  579MOL0     C79770   5.996   5.573   3.613  0.3216 -1.0093 -0.2508
  579MOL0     C79771   5.917   5.687   3.670 -0.5471  0.5155  0.2631
  579MOL0     O79772   5.804   5.737   3.608 -0.2452 -0.1597 -0.0461
  579MOL0     C79773   5.714   5.650   3.544  0.3493  0.3452  0.3633
  579MOL0     C79774   5.582   5.708   3.497 -0.2704 -0.7939 -0.7932
  579MOL0     C79775   5.474   5.600   3.488  0.6064 -0.3888  0.0897
  579MOL0     C79776   5.387   5.586   3.615  0.6388  0.1720 -0.7446
  579MOL0     C79777   5.244   5.530   3.602 -0.5941 -0.1439 -0.5768
  579MOL0     C79778   5.231   5.386   3.536 -0.5966 -0.5042  0.0322
  579MOL0     C79779   5.109   5.310   3.582 -1.2714 -0.2739 -0.5117
  579MOL0     C79780   4.974   5.339   3.525  0.8084 -0.8073  0.1048
  579MOL0     N79781   4.872   5.226   3.521 -0.6336 -1.3185 -0.2429
  579MOL0     C79782   4.834   5.152   3.630 -0.2164 -0.2438  1.1459
  579MOL0     C79783   4.764   5.054   3.577 -0.6060 -0.4943 -0.1942
  579MOL0     C79784   4.712   4.939   3.653 -0.6633  0.0580  0.3145
  579MOL0     C79785   4.559   4.953   3.670  0.2349  0.7425  0.5802
  579MOL0     C79786   4.515   5.081   3.751  0.8295  0.6830  0.0763
  579MOL0     C79787   4.365   5.087   3.765 -0.1601 -0.4976  0.0946
  579MOL0     O79788   4.334   5.167   3.877  0.8242  0.5786 -1.3667
  579MOL0     C79789   4.291   5.291   3.858 -0.1437 -0.7170 -0.7594
  579MOL0     C79790   4.165   5.324   3.804 -1.3318  0.1959 -0.4069
  579MOL0     C79791   4.126   5.458   3.784 -0.3125 -0.3923 -0.8032
  579MOL0     C79792   4.000   5.489   3.715 -0.0509  0.4298  0.2592
  579MOL0     C79793   4.220   5.558   3.806 -0.0845 -0.5412  0.2915
  579MOL0     C79794   4.206   5.700   3.774 -0.3634 -0.3682 -0.5273
  579MOL0     O79795   4.219   5.787   3.881 -0.5926 -0.1153  0.3598
  579MOL0     C79796   4.249   5.917   3.849  0.2411 -0.6582  0.8064
  579MOL0     C79797   4.364   5.962   3.782  0.0870  0.4509 -0.7338
  579MOL0     C79798   4.384   6.097   3.757  0.1986 -0.3640  0.3085
  579MOL0     C79799   4.289   6.194   3.793 -0.2992  0.2044 -0.8932
  579MOL0     O79800   4.313   6.322   3.762  0.0573 -0.3764 -0.3027
  579MOL0     C79801   4.206   6.374   3.675 -0.2188 -0.0410  1.1850
  579MOL0     C79802   4.276   6.478   3.580  0.3228  0.1909 -0.3249
  579MOL0     C79803   4.397   6.427   3.500  0.6635 -0.1041  1.3174
  579MOL0     C79804   4.369   6.380   3.351  0.3137  0.0947 -0.0095
  579MOL0     C79805   4.489   6.313   3.280 -0.1144  1.0349 -0.2198
  579MOL0     C79806   4.550   6.185   3.341  0.1885  0.6630  0.4039
  579MOL0     C79807   4.448   6.081   3.386  0.7058 -0.3691 -0.3201
  579MOL0     C79808   4.516   5.962   3.461  0.9464  0.3084  0.8822
  579MOL0    Cl79809   4.643   5.892   3.336 -0.2486  0.5574  0.2801
  579MOL0     C79810   4.177   6.149   3.865 -0.5684 -0.1000 -0.1773
  579MOL0     C79811   4.156   6.017   3.893  0.4832 -0.1475 -0.3243
  579MOL0     O79812   4.206   5.731   3.660 -0.2688 -0.2031 -0.2879
  579MOL0     C79813   4.337   5.526   3.871  0.6518 -1.0259 -0.9298
  579MOL0     C79814   4.371   5.398   3.908 -0.0828 -0.4389  0.3996
  579MOL0     N79815   4.755   5.063   3.445 -0.7545 -0.1494  0.4695
  579MOL0     N79816   4.823   5.168   3.412 -0.4366  0.6007 -0.2475
  579MOL0     C79817   5.966   5.744   3.786 -0.2791  0.1195 -0.3649
  579MOL0     C79818   6.074   5.696   3.857 -0.4401  0.6773 -0.3977
  579MOL0     C79819   6.487   5.483   3.891  0.0340  0.0769  0.2122
  579MOL0     C79820   6.590   5.441   3.817 -0.3851  0.1095  0.0380
  579MOL0     C79821   6.699   5.365   3.865 -0.9358  0.9499 -0.0973
  579MOL0     C79822   6.704   5.328   3.997 -0.1656 -0.3956 -0.2025
  579MOL0     O79823   6.792   5.241   4.058  0.2970  0.4528 -0.2692
  579MOL0     C79824   6.914   5.186   3.994 -0.3219  0.1281 -0.0875
  579MOL0     C79825   6.988   5.106   4.107  0.9579 -0.9251  0.3124
  579MOL0     C79826   7.043   5.200   4.212 -0.7149  0.0480  0.4250
  579MOL0     C79827   6.957   5.211   4.330 -0.9974  0.2120  0.5123
  579MOL0     C79828   7.016   5.313   4.416  0.0141 -0.1049 -0.1078
  579MOL0     C79829   7.061   5.403   4.494  0.0082  0.5336 -0.8093
  579MOL0     C79830   6.596   5.363   4.075  0.4712  0.2191 -0.5662
  579MOL0     C79831   6.491   5.449   4.026  0.2273 -0.0332 -0.1725
  579MOL0     C79832   6.373   5.493   4.114  1.1016  0.3221 -0.0044
  579MOL0     H79833   6.167   5.448   3.635  0.9594  0.9972 -1.1641
  579MOL0     H79834   5.979   5.531   3.514  0.2542  0.9609 -1.1020
  579MOL0     H79835   5.690   5.564   3.607 -1.7320 -0.1763 -1.0308
  579MOL0     H79836   5.759   5.605   3.455 -0.2370  1.6086 -0.6116
  579MOL0     H79837   5.551   5.782   3.571 -2.2072 -1.9257 -0.4059
  579MOL0     H79838   5.593   5.758   3.400 -1.4648  0.0352 -0.5195
  579MOL0     H79839   5.421   5.618   3.393 -0.6440  2.9207  1.2590
  579MOL0     H79840   5.531   5.509   3.467  1.0913  0.0134 -0.3604
  579MOL0     H79841   5.434   5.528   3.695 -2.0138  1.2780  1.8172
  579MOL0     H79842   5.371   5.687   3.656  0.4497 -1.0577  2.5118
  579MOL0     H79843   5.180   5.601   3.549 -0.2489 -0.9473 -2.0940
  579MOL0     H79844   5.204   5.531   3.704 -1.3556  2.4985 -0.8120
  579MOL0     H79845   5.247   5.391   3.428  1.2682  1.2681  0.3258
  579MOL0     H79846   5.315   5.323   3.568 -1.5872 -1.7441  0.2419
  579MOL0     H79847   5.106   5.323   3.691  3.0522  0.4337 -0.2670
  579MOL0     H79848   5.134   5.205   3.562 -0.0429  0.0801 -0.9581
  579MOL0     H79849   4.936   5.423   3.584 -0.7712 -1.4301  0.0043
  579MOL0     H79850   4.986   5.372   3.421 -1.8086  2.1265  0.5872
  579MOL0     H79851   4.867   5.163   3.733  1.3147 -0.4185  0.7034
  579MOL0     H79852   4.762   4.924   3.749  0.6842 -0.4228 -0.4427
  579MOL0     H79853   4.720   4.850   3.591 -0.3193  0.9468 -0.9653
  579MOL0     H79854   4.522   4.966   3.568  1.8518 -1.9099 -0.4546
  579MOL0     H79855   4.512   4.862   3.708  0.4275  0.9831  1.4231
  579MOL0     H79856   4.559   5.073   3.850 -0.1792 -3.4207  0.3522
  579MOL0     H79857   4.553   5.173   3.706 -1.1679  1.0441 -0.9766
  579MOL0     H79858   4.328   5.127   3.671  0.0113  0.4962  0.4429
  579MOL0     H79859   4.326   4.987   3.785 -1.8704  0.5678  2.6069
  579MOL0     H79860   4.096   5.243   3.784 -1.1828  0.6091 -2.9244
  579MOL0     H79861   3.959   5.580   3.759  0.2526  1.3037 -1.1964
  579MOL0     H79862   3.926   5.410   3.727 -2.9871  3.0604  0.6608
  579MOL0     H79863   4.006   5.486   3.606 -2.0291 -1.0532  0.1442
  579MOL0     H79864   4.437   5.884   3.763 -0.0415 -0.0080  0.5414
  579MOL0     H79865   4.474   6.129   3.706 -0.7048  1.1520 -0.4298
  579MOL0     H79866   4.152   6.300   3.616 -2.1386  0.8030  1.7921
  579MOL0     H79867   4.134   6.433   3.733 -1.3766 -1.7787  1.6045
  579MOL0     H79868   4.200   6.512   3.509 -1.5005 -0.6701  1.1103
  579MOL0     H79869   4.313   6.562   3.641 -3.5551 -0.3694  3.2383
  579MOL0     H79870   4.454   6.346   3.547  0.7903 -1.5427 -1.1050
  579MOL0     H79871   4.474   6.502   3.480  0.2634  0.6957  2.6694
  579MOL0     H79872   4.335   6.469   3.298 -2.9335 -2.4795 -2.6611
  579MOL0     H79873   4.284   6.311   3.349  0.3856 -0.0351  0.8462
  579MOL0     H79874   4.469   6.288   3.176  3.7373 -2.8267 -0.3227
  579MOL0     H79875   4.581   6.373   3.286  2.6536 -2.9508  1.6624
  579MOL0     H79876   4.592   6.227   3.433 -1.6357  1.8039  0.7947
  579MOL0     H79877   4.624   6.149   3.269 -0.6230  0.6724 -0.4709
  579MOL0     H79878   4.398   6.037   3.300 -2.0815 -1.8569  1.9006
  579MOL0     H79879   4.372   6.117   3.456 -1.0464  0.6954 -2.6642
  579MOL0     H79880   4.438   5.888   3.483  1.8221 -0.2186  2.3737
  579MOL0     H79881   4.556   5.992   3.559 -0.7199  1.3583  1.2664
  579MOL0     H79882   4.132   6.231   3.921 -0.0209  1.4365 -1.8826
  579MOL0     H79883   4.062   5.996   3.943  0.5108 -1.2255 -0.6988
  579MOL0     H79884   4.417   5.595   3.895  0.9972 -0.3483 -3.7035
  579MOL0     H79885   4.469   5.379   3.953  0.1855  0.0318  0.0173
  579MOL0     H79886   5.912   5.832   3.821 -3.5819 -1.8100 -0.1665
  579MOL0     H79887   6.106   5.728   3.956 -0.0217  0.6613 -0.5245
  579MOL0     H79888   6.605   5.469   3.713 -0.0056  3.2644  0.8411
  579MOL0     H79889   6.781   5.354   3.795  0.5401 -4.9946  1.9333
  579MOL0     H79890   6.889   5.114   3.916 -1.9074  2.8884 -2.3198
  579MOL0     H79891   6.969   5.266   3.944  1.9334 -1.1517  0.1988
  579MOL0     H79892   7.070   5.050   4.061  0.4899 -0.5428 -1.0585
  579MOL0     H79893   6.903   5.050   4.148 -0.1957 -0.2856 -1.1016
  579MOL0     H79894   7.138   5.158   4.245  0.1619  2.3092  1.0034
  579MOL0     H79895   7.061   5.299   4.169 -0.0744  0.4082  1.4765
  579MOL0     H79896   6.945   5.113   4.377 -2.3629  0.1230  0.0314
  579MOL0     H79897   6.858   5.250   4.306 -0.7900  1.2311  1.2445
  579MOL0     H79898   7.086   5.480   4.565 -3.3511 -0.8794  2.2242
  579MOL0     H79899   6.602   5.343   4.181  1.7223  0.4237 -0.5806
  579MOL0     H79900   6.333   5.590   4.085 -1.2304  0.3073  2.6506
  579MOL0     H79901   6.284   5.429   4.107 -0.9462  2.8039  1.5745
  579MOL0     H79902   6.391   5.501   4.222 -1.0610 -0.1602  0.4493
  580MOL0     O79903  10.769   8.089   5.387  0.2364 -0.2906  0.1412
  580MOL0     C79904  10.833   8.073   5.488 -0.8463  0.7401 -0.0258
  580MOL0     O79905  10.784   8.057   5.620  0.2089  0.4525 -0.3895
  580MOL0     C79906  10.664   7.996   5.630 -0.9869  0.3025 -0.1719
  580MOL0     C79907  10.639   7.860   5.589  0.4868 -0.1486  0.3119
  580MOL0     C79908  10.507   7.807   5.610 -0.4898  0.5456 -0.3535
  580MOL0     C79909  10.411   7.890   5.673  1.0677  0.0637 -0.1106
  580MOL0     O79910  10.288   7.819   5.694 -0.6520  0.1422 -0.3552
  580MOL0     C79911  10.178   7.908   5.723  0.1353  0.0617 -0.4101
  580MOL0     C79912  10.048   7.838   5.683 -0.6041  0.1752 -1.0750
  580MOL0     C79913   9.927   7.933   5.679  0.2849  0.1540  0.5331
  580MOL0     C79914   9.807   7.857   5.613 -0.3418 -0.0070  0.0603
  580MOL0     C79915   9.672   7.927   5.644 -0.1322 -1.0504  0.7485
  580MOL0     C79916   9.557   7.884   5.549  0.1681  0.4820 -0.2112
  580MOL0     C79917   9.422   7.957   5.583  0.4742  0.1715 -0.8879
  580MOL0     C79918   9.373   7.919   5.724 -0.3111 -0.4486 -0.2547
  580MOL0     N79919   9.235   7.968   5.740  0.3378  0.0908 -1.1029
  580MOL0     C79920   9.191   8.096   5.724 -0.0419  0.2408 -0.6416
  580MOL0     C79921   9.056   8.083   5.734  0.0261 -0.3259 -0.7169
  580MOL0     C79922   8.962   8.190   5.713 -0.5928 -0.1555  0.2382
  580MOL0     C79923   8.950   8.284   5.837  0.3751  0.4372  0.1128
  580MOL0     C79924   8.859   8.397   5.796 -0.7410  0.2245 -0.0554
  580MOL0     C79925   8.825   8.492   5.910  1.2682 -0.8270 -0.3490
  580MOL0     O79926   8.940   8.558   5.965 -0.3004 -0.1642  0.0016
  580MOL0     C79927   9.025   8.637   5.888 -0.0157  0.1734  0.3652
  580MOL0     C79928   9.161   8.632   5.911  0.6113 -0.2142 -0.5551
  580MOL0     C79929   9.241   8.702   5.824  0.0385  0.1988  0.8138
  580MOL0     C79930   9.384   8.704   5.862 -0.2004 -0.2246  0.2214
  580MOL0     C79931   9.195   8.775   5.718  0.0599 -0.4908 -0.2894
  580MOL0     C79932   9.276   8.863   5.628 -0.2660  0.7951 -1.5080
  580MOL0     O79933   9.414   8.888   5.671  0.1993 -0.6951  0.5191
  580MOL0     C79934   9.497   8.977   5.605  0.2317  0.2433 -0.4824
  580MOL0     C79935   9.577   8.910   5.513  0.1939  0.0575  0.2305
  580MOL0     C79936   9.651   8.991   5.418  0.6697  0.5497 -0.2344
  580MOL0     C79937   9.648   9.128   5.426  0.1134  0.1379 -0.2856
  580MOL0     O79938   9.715   9.196   5.323  0.2154  0.1400 -0.6354
  580MOL0     C79939   9.742   9.334   5.352  0.3793 -0.4125  0.2949
  580MOL0     C79940   9.824   9.390   5.232  0.0481 -0.1978 -0.4021
  580MOL0     C79941   9.889   9.527   5.258  0.3456 -0.1207 -0.5124
  580MOL0     C79942   9.996   9.567   5.154 -0.4194  0.1456 -0.7373
  580MOL0     C79943  10.034   9.710   5.196  0.1788 -0.5553  0.1355
  580MOL0     C79944  10.106   9.724   5.333  0.0883 -0.1842 -0.6678
  580MOL0     C79945  10.218   9.608   5.351  0.1894  0.0910 -0.2366
  580MOL0     C79946  10.328   9.640   5.451  0.1132  0.1251  0.4706
  580MOL0    Cl79947  10.404   9.795   5.400 -0.3038 -0.0911 -0.2772
  580MOL0     C79948   9.574   9.188   5.525  0.3786 -0.5086  0.1848
  580MOL0     C79949   9.498   9.112   5.615  0.0230  0.0264 -0.0622
  580MOL0     O79950   9.219   8.916   5.534 -0.7574  0.1570  0.1211
  580MOL0     C79951   9.060   8.773   5.696 -1.1836 -0.8118 -0.1753
  580MOL0     C79952   8.977   8.703   5.775 -0.8675  0.4350 -0.3587
  580MOL0     N79953   9.026   7.951   5.776 -0.9938  0.4354  0.1446
  580MOL0     N79954   9.130   7.886   5.760 -0.5220  0.5388 -0.5618
  580MOL0     C79955  10.438   8.022   5.706 -0.7111 -0.6399  0.0268
  580MOL0     C79956  10.569   8.070   5.691  1.3026  0.2531 -0.2140
  580MOL0     C79957  10.980   8.060   5.478  0.0155 -0.3311  0.8774
  580MOL0     C79958  11.054   8.012   5.586 -0.1959  0.4064  0.9692
  580MOL0     C79959  11.192   7.985   5.587 -0.7677 -0.7091 -0.1691
  580MOL0     C79960  11.267   8.008   5.468  0.3102 -0.5194  0.8276
  580MOL0     O79961  11.403   8.001   5.446  0.2663  0.2141  0.4777
  580MOL0     C79962  11.496   7.945   5.542 -0.3135 -0.0851  0.1574
  580MOL0     C79963  11.522   8.042   5.667  0.6166 -0.0986  0.0698
  580MOL0     C79964  11.556   7.961   5.795 -0.0698 -0.7763  0.4005
  580MOL0     C79965  11.676   7.870   5.776  0.1585  0.8848  0.7576
  580MOL0     C79966  11.803   7.933   5.731 -0.4949  0.5167  0.7752
  580MOL0     C79967  11.914   7.976   5.696 -0.5821  1.1075  0.4758
  580MOL0     C79968  11.199   8.057   5.354 -0.8111 -0.0469 -0.0263
  580MOL0     C79969  11.059   8.098   5.363  0.5238 -0.6606 -0.4381
  580MOL0     C79970  11.012   8.184   5.247 -0.2753 -0.5522 -0.3132
  580MOL0     H79971  10.709   7.797   5.535  1.7449  0.8489  0.7286
  580MOL0     H79972  10.499   7.702   5.583 -0.3128 -0.2707  2.4471
  580MOL0     H79973  10.182   7.996   5.660  4.9708 -1.2798 -2.4476
  580MOL0     H79974  10.165   7.938   5.827 -1.4414  0.3914 -0.6842
  580MOL0     H79975  10.062   7.779   5.592 -1.3021 -0.6648 -0.6426
  580MOL0     H79976  10.044   7.763   5.762  1.9922  1.3334  0.2845
  580MOL0     H79977   9.891   7.964   5.777  0.4425  1.4615  0.1892
  580MOL0     H79978   9.949   8.023   5.620 -0.2749  0.0746  0.1949
  580MOL0     H79979   9.815   7.841   5.506 -0.5457  4.2671 -0.7470
  580MOL0     H79980   9.799   7.762   5.668  2.2426 -1.1241 -1.3532
  580MOL0     H79981   9.689   8.035   5.638 -2.6937 -0.5824  0.8052
  580MOL0     H79982   9.642   7.906   5.746 -0.5130  2.7994  1.5956
  580MOL0     H79983   9.582   7.911   5.446  0.0039  0.6935 -0.1953
  580MOL0     H79984   9.543   7.776   5.545  0.5558  0.3385  1.5059
  580MOL0     H79985   9.348   7.931   5.506 -0.2954  0.5131 -0.2722
  580MOL0     H79986   9.435   8.066   5.579 -0.0359  0.2415 -0.7375
  580MOL0     H79987   9.384   7.811   5.737  1.5153 -0.3621 -0.6823
  580MOL0     H79988   9.445   7.954   5.798 -2.7117  3.0236  0.6553
  580MOL0     H79989   9.244   8.181   5.682  3.6451 -1.1137  0.8260
  580MOL0     H79990   8.863   8.157   5.680  0.2784  0.0464 -2.9298
  580MOL0     H79991   9.007   8.243   5.628  1.3421 -1.6584  0.2579
  580MOL0     H79992   8.904   8.234   5.923  3.2752  0.5523  1.8959
  580MOL0     H79993   9.048   8.322   5.870  1.3073 -1.6186 -0.1191
  580MOL0     H79994   8.905   8.446   5.709  3.2691 -3.0265 -0.0906
  580MOL0     H79995   8.766   8.356   5.757 -0.9856  1.4177 -0.7769
  580MOL0     H79996   8.756   8.565   5.865 -0.7082 -0.4215  3.0039
  580MOL0     H79997   8.768   8.436   5.985  0.9964 -1.6967 -1.1861
  580MOL0     H79998   9.190   8.572   5.997 -2.3728 -1.0921 -0.0837
  580MOL0     H79999   9.433   8.691   5.765  1.3643 -0.1497  0.9774
  580MOL0     H80000   9.403   8.618   5.926 -1.1222  0.6212  1.6934
  580MOL0     H80001   9.425   8.790   5.915 -0.4830 -0.5807  1.0267
  580MOL0     H80002   9.594   8.803   5.521  2.6772  0.4866  1.6929
  580MOL0     H80003   9.708   8.937   5.343  1.4349  1.9269 -0.6799
  580MOL0     H80004   9.646   9.387   5.355  0.2387 -0.6567  0.1193
  580MOL0     H80005   9.792   9.352   5.448 -1.8325  1.6055  1.1652
  580MOL0     H80006   9.906   9.318   5.218 -0.1604 -0.9703  1.8802
  580MOL0     H80007   9.762   9.400   5.143  0.2006 -0.9252 -0.5986
  580MOL0     H80008   9.938   9.519   5.355 -0.4414 -1.4242 -0.1991
  580MOL0     H80009   9.811   9.604   5.265  0.1885 -0.2327 -0.9962
  580MOL0     H80010   9.948   9.570   5.056  1.1206 -1.0102 -1.5664
  580MOL0     H80011  10.081   9.500   5.168  0.7306  1.5341 -0.8260
  580MOL0     H80012  10.106   9.739   5.119  2.1508 -0.1982  2.0100
  580MOL0     H80013   9.945   9.773   5.196 -0.0956 -0.9376 -0.1036
  580MOL0     H80014  10.036   9.731   5.416 -0.4924  1.6429 -1.2698
  580MOL0     H80015  10.161   9.818   5.330 -1.5778  0.8507  0.0072
  580MOL0     H80016  10.268   9.594   5.255 -0.1983 -1.4083 -0.2485
  580MOL0     H80017  10.172   9.514   5.381  3.8015 -1.0243  2.6564
  580MOL0     H80018  10.397   9.556   5.448 -0.9724 -1.0046  3.2144
  580MOL0     H80019  10.281   9.645   5.550  0.9855  0.5814  0.8704
  580MOL0     H80020   9.545   9.292   5.534  1.3612 -0.2456  0.3757
  580MOL0     H80021   9.434   9.164   5.685  0.1812  0.3378 -0.1475
  580MOL0     H80022   9.025   8.829   5.610 -1.7475  0.3345  0.7670
  580MOL0     H80023   8.876   8.703   5.736 -0.7378 -2.4685 -0.8908
  580MOL0     H80024  10.356   8.085   5.739 -0.2740 -0.8591  1.5987
  580MOL0     H80025  10.592   8.172   5.722  1.4649 -0.3597  1.7987
  580MOL0     H80026  11.003   7.975   5.675 -1.2045  0.0630  0.2785
  580MOL0     H80027  11.230   7.934   5.675 -1.3414  0.1491  0.5990
  580MOL0     H80028  11.469   7.846   5.578  1.7878 -1.7635 -2.5377
  580MOL0     H80029  11.586   7.947   5.481  0.1204  0.1434  0.7907
  580MOL0     H80030  11.427   8.091   5.693  0.1340  0.4099 -2.3931
  580MOL0     H80031  11.597   8.117   5.643  0.5545 -0.0249  0.1029
  580MOL0     H80032  11.567   8.039   5.871 -1.5943  0.2698 -0.3930
  580MOL0     H80033  11.477   7.895   5.831  1.2290 -1.4181  2.2055
  580MOL0     H80034  11.660   7.795   5.698  2.8845 -2.8330  3.4175
  580MOL0     H80035  11.699   7.814   5.867  1.7058  3.0373  1.7658
  580MOL0     H80036  12.004   8.023   5.662 -0.5919 -0.2427 -1.5549
  580MOL0     H80037  11.256   8.089   5.267 -0.5151  1.3633  0.6519
  580MOL0     H80038  10.941   8.128   5.185 -1.5014  1.7101 -1.0889
  580MOL0     H80039  10.962   8.277   5.275 -1.2244 -0.3657 -2.4256
  580MOL0     H80040  11.100   8.218   5.192  1.5960 -1.5681  1.9243
  581MOL0     O80041  10.497   7.188   8.312 -0.2297  0.1168  0.2041
  581MOL0     C80042  10.581   7.270   8.332  0.9226  0.2824 -0.4674
  581MOL0     O80043  10.688   7.258   8.422 -0.6860  0.5936  0.0924
  581MOL0     C80044  10.714   7.140   8.490  0.3161 -0.5393  0.4245
  581MOL0     C80045  10.672   7.111   8.619 -0.3782 -0.3215  0.1688
  581MOL0     C80046  10.700   6.994   8.681  0.2628 -0.5976  0.4785
  581MOL0     C80047  10.777   6.903   8.614 -0.0486  0.2144  0.3697
  581MOL0     O80048  10.814   6.792   8.685 -0.0548 -0.2903  0.4037
  581MOL0     C80049  10.836   6.664   8.616  0.7173  0.1350 -0.4797
  581MOL0     C80050  10.983   6.636   8.608  0.1548  1.0897  0.6130
  581MOL0     C80051  11.003   6.490   8.574  0.3783 -0.6224 -0.2667
  581MOL0     C80052  11.145   6.444   8.575 -0.2712  0.3723  0.6617
  581MOL0     C80053  11.133   6.290   8.567 -0.0834  0.0191 -0.3647
  581MOL0     C80054  11.270   6.222   8.562 -0.6841 -0.0246  0.3713
  581MOL0     C80055  11.356   6.271   8.689  1.2197  0.3649  0.3793
  581MOL0     C80056  11.460   6.172   8.729 -0.3495 -0.5899 -0.0080
  581MOL0     N80057  11.546   6.239   8.827 -0.0277 -0.1642 -0.1260
  581MOL0     C80058  11.676   6.205   8.844 -0.5266 -0.9332 -0.1158
  581MOL0     C80059  11.715   6.275   8.960  1.0101 -0.2198 -0.1600
  581MOL0     C80060  11.858   6.288   9.006 -0.0313 -0.1579  0.6900
  581MOL0     C80061  11.938   6.367   8.900  0.2708  0.5718  0.0452
  581MOL0     C80062  12.075   6.394   8.964 -0.2973  1.1066 -0.6831
  581MOL0     C80063  12.174   6.425   8.857 -0.0434  0.9350  1.0070
  581MOL0     O80064  12.279   6.493   8.933  0.1430  0.0542 -0.1893
  581MOL0     C80065  12.412   6.461   8.905  0.1622 -0.0800  0.0453
  581MOL0     C80066  12.466   6.340   8.856 -0.2656 -0.1256 -0.0127
  581MOL0     C80067  12.606   6.319   8.846  1.1322  0.1997 -0.0910
  581MOL0     C80068  12.644   6.188   8.782  0.6215 -0.7899  0.1579
  581MOL0     C80069  12.694   6.418   8.889  0.1248  0.0734  0.6031
  581MOL0     C80070  12.840   6.407   8.865  0.3806  0.0298 -0.0646
  581MOL0     O80071  12.886   6.337   8.753 -1.1150 -0.6638  0.7228
  581MOL0     C80072  13.015   6.307   8.738 -0.0804  0.2431 -1.0318
  581MOL0     C80073  13.055   6.278   8.605 -0.6557 -0.1856  1.1414
  581MOL0     C80074  13.189   6.239   8.576  0.0410  0.2400  0.0193
  581MOL0     C80075  13.283   6.214   8.679  0.5007  0.7787 -0.0378
  581MOL0     O80076  13.414   6.165   8.664  1.1891  0.2320 -0.0727
  581MOL0     C80077  13.494   6.281   8.641 -0.2904  0.2611 -0.3976
  581MOL0     C80078  13.600   6.262   8.541 -0.5096  0.1300  1.1597
  581MOL0     C80079  13.726   6.186   8.596 -0.1280  0.2715 -0.3338
  581MOL0     C80080  13.824   6.294   8.659 -0.2174 -0.3947  0.5796
  581MOL0     C80081  13.947   6.237   8.723 -0.5386  1.1189 -0.9420
  581MOL0     C80082  14.038   6.333   8.790  0.7663 -0.7452 -0.1542
  581MOL0     C80083  14.102   6.425   8.689  0.6162  0.0102  0.0475
  581MOL0     C80084  14.222   6.504   8.738  0.3251 -0.3843 -0.3676
  581MOL0    Cl80085  14.174   6.618   8.866 -0.0661  0.5685 -0.2769
  581MOL0     C80086  13.241   6.234   8.807  0.0507  0.2096 -0.2018
  581MOL0     C80087  13.112   6.280   8.843  0.3897 -0.5587  0.1207
  581MOL0     O80088  12.908   6.455   8.959  0.1287  0.1961  0.2367
  581MOL0     C80089  12.641   6.527   8.951  0.0797  0.1132 -0.3692
  581MOL0     C80090  12.507   6.555   8.953  0.8775  1.2261 -0.4575
  581MOL0     N80091  11.605   6.340   9.007  0.5798 -0.2615 -0.8785
  581MOL0     N80092  11.504   6.315   8.938 -0.0761 -0.5779  0.6528
  581MOL0     C80093  10.829   6.924   8.485  0.4207 -0.7339 -0.3085
  581MOL0     C80094  10.795   7.048   8.427  0.0654  1.0104 -0.6412
  581MOL0     C80095  10.570   7.391   8.260  0.1661 -0.6514 -0.2293
  581MOL0     C80096  10.692   7.476   8.251  0.3878  0.0024 -0.4442
  581MOL0     C80097  10.689   7.592   8.172  1.1943 -0.6537  0.2324
  581MOL0     C80098  10.578   7.632   8.101  0.6869 -0.4554 -0.2852
  581MOL0     O80099  10.594   7.744   8.028 -0.6709 -0.3104  0.5771
  581MOL0     C80100  10.488   7.837   8.025  0.3515  0.3026  0.0059
  581MOL0     C80101  10.532   7.969   7.978  0.0172  0.0048  0.4515
  581MOL0     C80102  10.594   7.943   7.835 -0.1450  0.2349  0.9417
  581MOL0     C80103  10.637   8.076   7.772 -0.1787 -0.3609  0.0019
  581MOL0     C80104  10.718   8.047   7.654  0.6944  0.7332  0.2619
  581MOL0     C80105  10.792   8.023   7.561 -0.3851  0.0605 -0.4359
  581MOL0     C80106  10.461   7.552   8.097 -0.5632  0.1904  0.1130
  581MOL0     C80107  10.459   7.435   8.184 -0.3132 -1.1042 -0.0135
  581MOL0     C80108  10.323   7.370   8.200  0.6358 -0.6509 -0.1009
  581MOL0     H80109  10.627   7.194   8.672  1.1997  0.3908  0.4540
  581MOL0     H80110  10.673   6.988   8.786 -1.1457  0.0571  0.1837
  581MOL0     H80111  10.794   6.658   8.515  0.5206  0.4474 -0.4184
  581MOL0     H80112  10.793   6.580   8.671  0.8197 -0.6044 -1.4891
  581MOL0     H80113  11.026   6.695   8.526 -4.4291  2.0382 -1.4277
  581MOL0     H80114  11.033   6.653   8.704 -0.1267  1.0859  0.7591
  581MOL0     H80115  10.938   6.430   8.638 -1.2886  1.2642 -0.1046
  581MOL0     H80116  10.963   6.478   8.473  1.6042  2.1967 -1.2029
  581MOL0     H80117  11.199   6.475   8.484 -1.0229  0.0609  0.1027
  581MOL0     H80118  11.195   6.479   8.666 -1.6229 -0.1001  1.6097
  581MOL0     H80119  11.088   6.276   8.468 -1.0345 -0.4712  0.1308
  581MOL0     H80120  11.071   6.251   8.648 -0.4594  1.0640 -0.1396
  581MOL0     H80121  11.258   6.113   8.553  0.0651 -0.0570 -0.3771
  581MOL0     H80122  11.316   6.261   8.470 -0.2501  1.7390  1.2992
  581MOL0     H80123  11.289   6.290   8.774  1.0170 -0.3725  0.4013
  581MOL0     H80124  11.413   6.359   8.660  2.1414 -0.8117 -1.5568
  581MOL0     H80125  11.413   6.086   8.777  1.8531 -2.0246 -0.2586
  581MOL0     H80126  11.517   6.140   8.641 -3.2489 -0.6200 -1.9997
  581MOL0     H80127  11.735   6.135   8.786 -1.6356 -2.7118  0.8222
  581MOL0     H80128  11.890   6.184   9.016  0.5112 -0.1986 -1.1073
  581MOL0     H80129  11.868   6.340   9.102  0.2864 -0.2202  0.6938
  581MOL0     H80130  11.957   6.304   8.813  0.8853  1.4172 -0.4559
  581MOL0     H80131  11.897   6.467   8.882  0.2118  0.8460  1.5897
  581MOL0     H80132  12.055   6.487   9.019 -2.6836 -0.0179  0.5394
  581MOL0     H80133  12.118   6.319   9.031  2.1252  0.9311 -2.3027
  581MOL0     H80134  12.208   6.336   8.802 -3.9142 -0.3281  0.3149
  581MOL0     H80135  12.128   6.471   8.769  1.6011 -1.8900 -1.5639
  581MOL0     H80136  12.403   6.265   8.810 -1.1008  0.0090  0.8948
  581MOL0     H80137  12.554   6.127   8.779 -0.8855  1.2962  0.4098
  581MOL0     H80138  12.717   6.128   8.838 -0.8384  0.0584  3.1417
  581MOL0     H80139  12.675   6.214   8.680 -1.3225  4.5995  0.6112
  581MOL0     H80140  12.980   6.293   8.528  0.8205 -0.2790 -0.3614
  581MOL0     H80141  13.209   6.200   8.477  0.7463 -5.3471  1.9978
  581MOL0     H80142  13.435   6.362   8.597 -0.5313  2.4345  3.4370
  581MOL0     H80143  13.548   6.314   8.730 -0.8629 -0.5534  0.2665
  581MOL0     H80144  13.560   6.203   8.459 -0.4908  2.1617 -0.3838
  581MOL0     H80145  13.623   6.357   8.492 -1.5246  0.6747  1.6991
  581MOL0     H80146  13.773   6.132   8.514  0.4779 -0.0403  0.2049
  581MOL0     H80147  13.685   6.119   8.672  2.4470 -0.2143  0.7482
  581MOL0     H80148  13.769   6.353   8.732  2.4717 -0.3180  2.7219
  581MOL0     H80149  13.852   6.362   8.578 -1.8693 -1.9433 -1.4036
  581MOL0     H80150  13.908   6.162   8.792  0.8897  0.2320 -1.0405
  581MOL0     H80151  14.004   6.175   8.653  0.7420 -1.2216  1.9660
  581MOL0     H80152  14.113   6.272   8.840 -1.3981 -1.4458  2.4687
  581MOL0     H80153  13.979   6.378   8.871  1.1592 -0.6140  0.0653
  581MOL0     H80154  14.027   6.497   8.654  1.4756  1.4293  1.0570
  581MOL0     H80155  14.141   6.365   8.606  2.6866 -0.7054  1.4641
  581MOL0     H80156  14.269   6.565   8.660 -0.0570  1.8168  1.0485
  581MOL0     H80157  14.290   6.433   8.787 -1.2277 -1.1347  0.7771
  581MOL0     H80158  13.308   6.216   8.890  0.5141 -0.6598 -0.7440
  581MOL0     H80159  13.074   6.294   8.944 -0.3154  2.5623 -0.4753
  581MOL0     H80160  12.713   6.595   8.997 -0.9262  0.5660  0.5812
  581MOL0     H80161  12.470   6.645   9.000 -1.5533 -0.5178  1.2227
  581MOL0     H80162  10.884   6.839   8.444 -0.4921 -1.4483 -0.0909
  581MOL0     H80163  10.824   7.071   8.325 -1.6843 -0.2801 -1.4809
  581MOL0     H80164  10.775   7.460   8.319  0.5251 -0.0008 -0.6117
  581MOL0     H80165  10.780   7.650   8.168  0.6402  0.2332  0.3663
  581MOL0     H80166  10.423   7.794   7.948 -0.0237  0.7445  0.0722
  581MOL0     H80167  10.433   7.854   8.118  0.7408 -1.7767  0.6780
  581MOL0     H80168  10.608   8.014   8.042  0.0617 -0.5881  0.8170
  581MOL0     H80169  10.446   8.037   7.971  1.2385  1.4850 -0.8122
  581MOL0     H80170  10.687   7.886   7.851  0.3814  0.8111  0.0551
  581MOL0     H80171  10.531   7.883   7.768  2.1129 -1.3803  0.1029
  581MOL0     H80172  10.693   8.143   7.838 -0.3913 -1.2276  1.0925
  581MOL0     H80173  10.544   8.125   7.741 -1.5921 -3.4748 -1.0577
  581MOL0     H80174  10.868   7.997   7.490 -1.0254 -1.7493 -0.5163
  581MOL0     H80175  10.377   7.586   8.037  2.1947  1.4034 -3.4349
  581MOL0     H80176  10.327   7.275   8.145 -3.1505 -0.3957 -1.0589
  581MOL0     H80177  10.306   7.360   8.307  2.6494  0.7197  0.4203
  581MOL0     H80178  10.252   7.440   8.155  1.4322 -1.7464 -3.4008
  582MOL0     O80179   1.533   1.938  10.012  0.7478  0.6114  0.8508
  582MOL0     C80180   1.486   1.997  10.108 -0.1131  0.6840  0.1026
  582MOL0     O80181   1.565   2.059  10.203  0.4472  0.0124 -0.4237
  582MOL0     C80182   1.701   2.056  10.222 -0.2392  0.8008  0.4000
  582MOL0     C80183   1.790   1.992  10.138  0.4470  0.7333 -0.2870
  582MOL0     C80184   1.924   2.000  10.165 -0.1947  0.8361  1.0890
  582MOL0     C80185   1.973   2.083  10.262 -0.0542  0.0823  0.3512
  582MOL0     O80186   2.108   2.100  10.278 -0.2120 -0.0663  0.2542
  582MOL0     C80187   2.165   2.121  10.405  0.2122 -0.0766 -0.1919
  582MOL0     C80188   2.312   2.078  10.406  0.9391  0.5265  0.1885
  582MOL0     C80189   2.399   2.175  10.323 -0.7303  0.5299 -0.1556
  582MOL0     C80190   2.544   2.117  10.343  0.5732 -0.8434  0.1743
  582MOL0     C80191   2.641   2.217  10.275 -1.1489 -0.6998 -0.1869
  582MOL0     C80192   2.607   2.280  10.144  0.0590 -0.3435  1.0188
  582MOL0     C80193   2.611   2.181  10.019  0.7873 -0.7972 -1.2183
  582MOL0     C80194   2.736   2.097  10.010  0.7654 -0.3152  0.4270
  582MOL0     N80195   2.855   2.186   9.981 -0.5014  0.3584 -0.4402
  582MOL0     C80196   2.957   2.222  10.063 -0.0747  0.5984 -0.1126
  582MOL0     C80197   3.050   2.293   9.985  0.5516  0.7291  0.0501
  582MOL0     C80198   3.170   2.366  10.031  0.6066  0.8125 -0.5223
  582MOL0     C80199   3.276   2.278  10.103  0.0858 -0.1949  0.4550
  582MOL0     C80200   3.410   2.355  10.091 -0.3971 -0.3370  0.5552
  582MOL0     C80201   3.517   2.297  10.175  0.3791 -0.0417  0.1830
  582MOL0     O80202   3.633   2.377  10.177 -0.2109 -0.7697 -0.0549
  582MOL0     C80203   3.744   2.322  10.226 -0.2656  0.3987 -0.2877
  582MOL0     C80204   3.749   2.236  10.338  0.8426  0.4184 -0.1286
  582MOL0     C80205   3.868   2.188  10.395  0.0806  0.1214  0.6494
  582MOL0     C80206   3.862   2.109  10.516 -0.2476 -0.5192  0.1193
  582MOL0     C80207   3.994   2.218  10.330  0.6739 -0.1577  0.5190
  582MOL0     C80208   4.124   2.157  10.366 -0.5801  0.1126  0.7598
  582MOL0     O80209   4.232   2.212  10.307 -0.2190 -1.0026 -0.4488
  582MOL0     C80210   4.363   2.173  10.347  0.5083 -0.2023 -0.5188
  582MOL0     C80211   4.458   2.217  10.259  0.3916 -0.4580  0.7464
  582MOL0     C80212   4.590   2.193  10.270  0.2858  0.5803 -0.0907
  582MOL0     C80213   4.636   2.123  10.380 -0.6912  0.5379  0.8160
  582MOL0     O80214   4.777   2.106  10.399  0.6077 -1.4376 -0.6342
  582MOL0     C80215   4.836   2.051  10.522  0.4817  0.1890 -0.3091
  582MOL0     C80216   4.988   2.030  10.508  0.5862  0.2107  0.4594
  582MOL0     C80217   5.052   2.162  10.477  0.8946 -0.2503  0.2842
  582MOL0     C80218   5.207   2.168  10.471 -0.4669 -0.8152 -0.2038
  582MOL0     C80219   5.247   2.307  10.418 -0.3456  0.3933 -0.3972
  582MOL0     C80220   5.400   2.324  10.421 -0.1930 -0.2001  1.7451
  582MOL0     C80221   5.456   2.452  10.367 -0.6509  0.4852 -0.0644
  582MOL0     C80222   5.431   2.582  10.457 -0.3151  0.3952  1.0348
  582MOL0    Cl80223   5.485   2.573  10.627 -0.2395  0.4148 -0.0263
  582MOL0     C80224   4.548   2.074  10.475  0.5820  1.2734 -0.3049
  582MOL0     C80225   4.402   2.090  10.454  0.3439 -0.2229 -0.9783
  582MOL0     O80226   4.123   2.059  10.429 -0.5856  0.0341  0.3760
  582MOL0     C80227   3.988   2.303  10.215  0.2894 -0.4381  0.6760
  582MOL0     C80228   3.868   2.355  10.172  0.2178  0.8133  0.2980
  582MOL0     N80229   2.985   2.321   9.862  0.1166  0.2220 -0.1739
  582MOL0     N80230   2.871   2.255   9.856 -0.0193 -0.0154 -0.5549
  582MOL0     C80231   1.883   2.152  10.350 -0.6396 -0.4013 -0.7730
  582MOL0     C80232   1.749   2.136  10.325 -0.3542  0.2179  0.5002
  582MOL0     C80233   1.342   1.987  10.125 -0.0222  0.5017  0.4468
  582MOL0     C80234   1.299   1.926  10.241 -0.2963  0.1875 -0.1394
  582MOL0     C80235   1.166   1.905  10.272 -0.2284 -0.3350 -0.2838
  582MOL0     C80236   1.067   1.960  10.188  1.3038 -1.0709  0.0381
  582MOL0     O80237   0.929   1.967  10.230 -0.3326 -0.2627  0.4503
  582MOL0     C80238   0.824   2.018  10.146  1.4281  0.5385  0.4439
  582MOL0     C80239   0.785   1.924  10.028  0.6513  0.2253  0.5184
  582MOL0     C80240   0.725   1.797  10.086  0.6423 -0.2480 -1.5404
  582MOL0     C80241   0.660   1.720   9.971  0.1775 -0.7044  0.5627
  582MOL0     C80242   0.534   1.774   9.923  0.8474  0.5575 -0.1316
  582MOL0     C80243   0.427   1.804   9.880 -0.4477  0.0861 -0.1536
  582MOL0     C80244   1.110   2.023  10.069  0.7254  0.3856 -0.8837
  582MOL0     C80245   1.244   2.025  10.025 -0.1902  0.7631 -0.6864
  582MOL0     C80246   1.280   2.103   9.898  0.2023 -0.1986 -0.7554
  582MOL0     H80247   1.766   1.930  10.052 -0.0394  2.8164 -1.7512
  582MOL0     H80248   1.984   1.949  10.090 -3.2229 -1.1500 -0.1957
  582MOL0     H80249   2.108   2.064  10.479  2.5534 -1.7437  0.4639
  582MOL0     H80250   2.164   2.226  10.437  2.8091  0.2048 -0.7727
  582MOL0     H80251   2.351   2.077  10.508  2.7576  0.9570 -0.4596
  582MOL0     H80252   2.316   1.974  10.373  2.5591  0.4380  0.5524
  582MOL0     H80253   2.373   2.170  10.217 -1.9131  0.5474  0.1114
  582MOL0     H80254   2.390   2.276  10.364 -0.3595 -0.7305  3.3819
  582MOL0     H80255   2.577   2.108  10.446  0.2890 -0.7738  0.2725
  582MOL0     H80256   2.552   2.020  10.294 -0.0852 -1.7737  1.8609
  582MOL0     H80257   2.743   2.178  10.275  0.6456  3.2640  2.8204
  582MOL0     H80258   2.650   2.302  10.344 -3.1720  0.6354 -1.4571
  582MOL0     H80259   2.511   2.331  10.146  0.2998  0.1479  4.0304
  582MOL0     H80260   2.677   2.354  10.104 -0.1267 -1.4897 -1.6654
  582MOL0     H80261   2.596   2.236   9.926 -2.4755  0.2053 -0.2314
  582MOL0     H80262   2.528   2.111  10.027  0.7013 -0.7757 -1.9352
  582MOL0     H80263   2.744   2.041  10.104  0.6610 -0.5913  0.2702
  582MOL0     H80264   2.721   2.024   9.930 -1.3103  0.6475 -0.1245
  582MOL0     H80265   2.973   2.207  10.170  0.4755  1.9035 -0.0016
  582MOL0     H80266   3.137   2.448  10.095  0.5134  1.4581 -1.3717
  582MOL0     H80267   3.213   2.414   9.942  1.5774 -0.5971 -0.8359
  582MOL0     H80268   3.251   2.251  10.206 -1.4197 -2.1668 -0.3678
  582MOL0     H80269   3.281   2.181  10.052 -2.6387 -0.1080 -0.1305
  582MOL0     H80270   3.452   2.360   9.990 -0.4139 -0.3634  0.5458
  582MOL0     H80271   3.386   2.458  10.116  2.0547  0.8205 -1.4428
  582MOL0     H80272   3.476   2.280  10.275 -2.0612 -0.8634 -0.8848
  582MOL0     H80273   3.550   2.198  10.144  2.5176  1.5083 -3.0295
  582MOL0     H80274   3.658   2.197  10.382  0.3008  1.2888 -0.4521
  582MOL0     H80275   3.874   2.002  10.494  1.5371  0.0261 -1.9047
  582MOL0     H80276   3.771   2.120  10.575 -0.3006 -1.7596  0.3111
  582MOL0     H80277   3.943   2.145  10.579  1.3292  0.0650 -2.1400
  582MOL0     H80278   4.416   2.268  10.173  1.1227  0.9794  1.2165
  582MOL0     H80279   4.662   2.225  10.195 -1.0599  1.0040 -1.2391
  582MOL0     H80280   4.801   2.117  10.602  0.8816 -3.1885  2.9004
  582MOL0     H80281   4.794   1.956  10.555  5.7209 -2.6482 -0.8995
  582MOL0     H80282   5.031   1.982  10.596  1.5219 -0.5757 -0.4049
  582MOL0     H80283   4.994   1.962  10.423 -1.6968  0.3562  0.0994
  582MOL0     H80284   5.013   2.246  10.534 -0.1129  0.2396 -1.0685
  582MOL0     H80285   5.011   2.182  10.378  0.1661 -0.2361  0.5826
  582MOL0     H80286   5.250   2.094  10.403 -1.0430 -1.0078 -0.3669
  582MOL0     H80287   5.256   2.153  10.568 -1.5477  2.3359  0.9615
  582MOL0     H80288   5.212   2.338  10.320  0.5435 -0.6702 -1.0726
  582MOL0     H80289   5.203   2.382  10.485 -0.0551  3.3101 -3.2481
  582MOL0     H80290   5.453   2.254  10.354  0.3094  1.2102  0.6179
  582MOL0     H80291   5.442   2.313  10.521  2.4190  2.1086  1.0347
  582MOL0     H80292   5.425   2.463  10.263 -0.1803 -2.1967 -0.5675
  582MOL0     H80293   5.564   2.433  10.356 -0.8355  1.0094 -4.3280
  582MOL0     H80294   5.322   2.593  10.463 -0.1123  2.9256  0.9461
  582MOL0     H80295   5.472   2.675  10.418  0.1791 -0.3308 -0.2621
  582MOL0     H80296   4.584   2.016  10.559 -3.4718  2.0492  2.2448
  582MOL0     H80297   4.335   2.045  10.526  1.1253  0.4243  0.1810
  582MOL0     H80298   4.074   2.349  10.168  2.3316 -2.0220  2.6301
  582MOL0     H80299   3.860   2.423  10.088  1.3456  0.3527 -0.1913
  582MOL0     H80300   1.920   2.215  10.430 -2.3097 -1.1425  0.6698
  582MOL0     H80301   1.684   2.194  10.390 -0.5921  0.5870 -0.0579
  582MOL0     H80302   1.365   1.903  10.324 -1.6745 -1.1020  0.6393
  582MOL0     H80303   1.133   1.852  10.361 -0.5172 -0.0608 -0.2259
  582MOL0     H80304   0.732   2.024  10.206 -1.0767  0.1181 -3.0524
  582MOL0     H80305   0.850   2.117  10.108 -1.5436  1.1023 -0.4246
  582MOL0     H80306   0.871   1.892   9.970 -0.6012  1.1242 -1.9566
  582MOL0     H80307   0.705   1.965   9.966  0.6900  0.7010  0.7767
  582MOL0     H80308   0.804   1.738  10.133 -0.8706 -1.4886 -0.4212
  582MOL0     H80309   0.652   1.821  10.164  0.0309 -0.8564 -1.9118
  582MOL0     H80310   0.654   1.613   9.995  1.6324 -0.9040  0.0961
  582MOL0     H80311   0.724   1.726   9.883  1.9619  0.7073  1.8701
  582MOL0     H80312   0.327   1.827   9.849 -1.2554 -0.1369  2.0826
  582MOL0     H80313   1.036   2.083  10.016 -0.9593  0.4807  1.4241
  582MOL0     H80314   1.349   2.049   9.832 -1.2753 -1.3082 -1.4405
  582MOL0     H80315   1.187   2.133   9.848  0.4817  2.5362  0.1753
  582MOL0     H80316   1.313   2.205   9.922  0.5839 -0.5446  0.2379
  583MOL0     O80317   1.479   9.699   5.760 -0.1539 -0.1921 -1.0625
  583MOL0     C80318   1.424   9.807   5.739 -0.6428  0.1695 -0.1786
  583MOL0     O80319   1.483   9.929   5.735 -0.6469 -0.0369 -0.0735
  583MOL0     C80320   1.618   9.944   5.765  0.0395 -0.2085 -0.7764
  583MOL0     C80321   1.707   9.985   5.664 -0.1762  0.3621  0.1318
  583MOL0     C80322   1.843  10.014   5.695  0.6734  0.8180 -0.8647
  583MOL0     C80323   1.898   9.978   5.823  0.5349 -0.3480  0.2931
  583MOL0     O80324   2.032   9.977   5.831 -0.3235 -0.7862  0.2808
  583MOL0     C80325   2.100   9.877   5.905 -0.2937 -0.0587  0.0013
  583MOL0     C80326   2.240   9.859   5.861 -0.4189  0.2163 -0.2407
  583MOL0     C80327   2.337   9.946   5.932  0.0816 -1.2350 -0.9378
  583MOL0     C80328   2.470   9.941   5.867  1.7837 -1.0342  0.0416
  583MOL0     C80329   2.543   9.802   5.857  0.3699  1.0145  0.0363
  583MOL0     C80330   2.689   9.833   5.795  0.2089  0.4664  0.0451
  583MOL0     C80331   2.795   9.729   5.830  0.2229  0.4290  0.1195
  583MOL0     C80332   2.753   9.585   5.799  0.6678  0.2453  0.2000
  583MOL0     N80333   2.873   9.500   5.779  0.8736 -0.5947  0.0341
  583MOL0     C80334   2.947   9.448   5.880 -0.0326  0.4904  0.9415
  583MOL0     C80335   3.040   9.374   5.814  0.3442 -0.8358 -0.0302
  583MOL0     C80336   3.132   9.290   5.885  0.0335  0.3555  0.2708
  583MOL0     C80337   3.274   9.353   5.878  0.5678 -0.7244  0.5480
  583MOL0     C80338   3.379   9.244   5.903 -0.8667  0.1935  0.1420
  583MOL0     C80339   3.521   9.300   5.931 -0.0326  0.0139 -0.8509
  583MOL0     O80340   3.539   9.398   5.837  0.2599 -0.9268  0.4324
  583MOL0     C80341   3.666   9.460   5.840 -0.0733  0.4696  0.0043
  583MOL0     C80342   3.778   9.420   5.924  0.2114 -0.3043  0.0006
  583MOL0     C80343   3.910   9.457   5.897 -1.1940 -0.9191  0.9788
  583MOL0     C80344   4.010   9.406   6.000 -0.3232 -0.2798 -0.4985
  583MOL0     C80345   3.925   9.557   5.799  0.0506 -0.5496 -0.2487
  583MOL0     C80346   4.056   9.606   5.769  0.0288 -0.4449 -0.0237
  583MOL0     O80347   4.083   9.621   5.638  0.3615  0.4894  0.1213
  583MOL0     C80348   4.213   9.648   5.599  0.0446 -0.1051 -0.6161
  583MOL0     C80349   4.289   9.538   5.543  1.2830 -0.4811  0.2584
  583MOL0     C80350   4.414   9.557   5.485  0.1023 -1.4954 -0.4017
  583MOL0     C80351   4.477   9.679   5.484  0.5722 -1.0042  0.0375
  583MOL0     O80352   4.605   9.692   5.428  0.7428 -0.3210  0.6680
  583MOL0     C80353   4.668   9.821   5.426 -1.0245 -0.3837 -0.1388
  583MOL0     C80354   4.800   9.796   5.356 -0.6259 -0.3950  0.1177
  583MOL0     C80355   4.900   9.906   5.391  0.0066  0.1623 -0.1811
  583MOL0     C80356   4.845  10.031   5.322  0.0240 -0.5411  0.4562
  583MOL0     C80357   4.953  10.135   5.323 -0.1011  0.0094  0.4204
  583MOL0     C80358   4.905  10.265   5.263 -0.8564 -0.4824  1.1766
  583MOL0     C80359   4.876  10.243   5.108  0.4949  0.1026 -0.6044
  583MOL0     C80360   4.932  10.357   5.020  0.2216  0.4043  0.4213
  583MOL0    Cl80361   5.114  10.351   5.028  0.1800  0.1111  0.0140
  583MOL0     C80362   4.401   9.785   5.543  0.4739 -0.9997 -0.0149
  583MOL0     C80363   4.273   9.772   5.594  0.1994  0.0630  0.0763
  583MOL0     O80364   4.145   9.628   5.853 -0.5308 -0.2972  0.9656
  583MOL0     C80365   3.816   9.586   5.712 -0.6876 -0.8962 -0.2627
  583MOL0     C80366   3.688   9.536   5.725  0.4331  0.3018  0.3594
  583MOL0     N80367   3.025   9.388   5.679  0.3735  0.4341  0.7751
  583MOL0     N80368   2.929   9.472   5.658 -0.8102  0.1304 -0.1336
  583MOL0     C80369   1.807   9.937   5.917  0.4668  0.7434  0.5041
  583MOL0     C80370   1.666   9.919   5.888  0.2618  0.0683  0.5380
  583MOL0     C80371   1.271   9.817   5.744  0.0750 -0.3388  0.3453
  583MOL0     C80372   1.208   9.911   5.833 -0.2859  0.0028  0.3567
  583MOL0     C80373   1.067   9.930   5.831 -0.7230  0.2643 -0.6148
  583MOL0     C80374   0.988   9.851   5.756 -0.3683  0.4496 -0.0906
  583MOL0     O80375   0.855   9.853   5.760 -0.0581 -0.4984 -0.3610
  583MOL0     C80376   0.787   9.853   5.882 -0.4646  1.0612  0.0088
  583MOL0     C80377   0.633   9.831   5.866 -0.1702  0.3779 -0.0172
  583MOL0     C80378   0.569   9.940   5.772 -0.1958 -0.1415  0.4383
  583MOL0     C80379   0.417   9.962   5.800  0.7977 -1.0043  0.8388
  583MOL0     C80380   0.371  10.095   5.749 -0.3149 -0.2267 -0.4342
  583MOL0     C80381   0.336  10.199   5.697 -0.3192 -0.0839  0.0518
  583MOL0     C80382   1.051   9.766   5.660  0.7097 -0.1738 -0.0670
  583MOL0     C80383   1.189   9.736   5.653 -0.1056 -0.4727  0.2051
  583MOL0     C80384   1.241   9.657   5.537 -0.3160 -0.8849 -0.6356
  583MOL0     H80385   1.661   9.987   5.566 -2.9313 -1.0384  1.2871
  583MOL0     H80386   1.898  10.055   5.611 -0.5655  2.4157 -0.9580
  583MOL0     H80387   2.048   9.782   5.890  1.4531 -1.2230  0.9360
  583MOL0     H80388   2.107   9.904   6.011 -1.0072 -0.2934  0.1147
  583MOL0     H80389   2.270   9.756   5.880  0.7411  0.6005  0.0559
  583MOL0     H80390   2.232   9.867   5.752  1.7931  1.7507 -0.3401
  583MOL0     H80391   2.288  10.043   5.941 -0.5742 -1.7501  1.9795
  583MOL0     H80392   2.343   9.907   6.034 -0.1074  1.4440  0.1670
  583MOL0     H80393   2.463   9.996   5.772 -0.9873 -1.0111  0.1898
  583MOL0     H80394   2.540  10.006   5.919  1.5443  1.9937 -3.0184
  583MOL0     H80395   2.490   9.722   5.804  0.2421  0.3087  1.1998
  583MOL0     H80396   2.553   9.766   5.960  0.2834 -4.0338 -1.4794
  583MOL0     H80397   2.686   9.837   5.686  0.1777 -2.0924 -0.1031
  583MOL0     H80398   2.712   9.934   5.831 -1.5355  1.1769 -0.7105
  583MOL0     H80399   2.819   9.741   5.936 -0.2585  0.3258  0.2439
  583MOL0     H80400   2.879   9.768   5.772  0.8339 -0.8375  0.1172
  583MOL0     H80401   2.695   9.547   5.884 -1.1521  3.3439  0.4906
  583MOL0     H80402   2.698   9.598   5.707 -0.2614  2.5043  1.0230
  583MOL0     H80403   2.938   9.455   5.988 -3.3393 -0.0743  0.7922
  583MOL0     H80404   3.136   9.189   5.842 -0.9691  0.0712  0.8055
  583MOL0     H80405   3.090   9.288   5.986 -0.7385  3.7711  0.1400
  583MOL0     H80406   3.297   9.407   5.785 -1.0980  1.5507  1.3644
  583MOL0     H80407   3.274   9.433   5.952  1.2566  0.7992 -1.0350
  583MOL0     H80408   3.348   9.187   5.992 -1.2416  0.8064  0.4084
  583MOL0     H80409   3.377   9.175   5.818 -1.1766 -0.6647  0.8188
  583MOL0     H80410   3.523   9.344   6.031  2.9774  0.3540 -0.9980
  583MOL0     H80411   3.583   9.210   5.928 -1.4142 -0.9646 -2.0055
  583MOL0     H80412   3.761   9.359   6.012 -1.4209 -0.2083 -0.2103
  583MOL0     H80413   3.958   9.394   6.095 -0.1425 -1.3690 -0.5230
  583MOL0     H80414   4.095   9.474   6.013 -0.2119 -0.9233  3.0949
  583MOL0     H80415   4.031   9.303   5.970 -0.5651 -0.2583 -0.7483
  583MOL0     H80416   4.236   9.443   5.534 -2.0387  1.0050  2.1067
  583MOL0     H80417   4.461   9.477   5.430 -0.5921 -0.5204 -2.5391
  583MOL0     H80418   4.606   9.892   5.372 -2.1975 -0.2294  1.3508
  583MOL0     H80419   4.705   9.843   5.527 -0.7448 -0.7967 -0.1469
  583MOL0     H80420   4.846   9.707   5.398  2.4105  0.6532 -0.7516
  583MOL0     H80421   4.787   9.778   5.249 -2.5683  1.9594 -0.1551
  583MOL0     H80422   4.990   9.879   5.334 -2.1944 -0.0726 -3.8520
  583MOL0     H80423   4.920   9.917   5.498 -2.1011 -3.8119  0.8397
  583MOL0     H80424   4.760  10.066   5.382  0.1125  2.6504 -1.0787
  583MOL0     H80425   4.813  10.016   5.219 -0.0793  2.3962 -0.0387
  583MOL0     H80426   4.981  10.163   5.425 -0.8684  1.4447  0.2581
  583MOL0     H80427   5.038  10.100   5.263 -1.2624  2.7091 -3.1907
  583MOL0     H80428   4.990  10.333   5.271  1.4284 -2.8239 -1.1772
  583MOL0     H80429   4.821  10.310   5.316 -2.4484  0.8337 -2.1650
  583MOL0     H80430   4.768  10.259   5.106 -0.0108 -2.5926  0.8526
  583MOL0     H80431   4.901  10.150   5.055  2.9436  0.8925 -0.9510
  583MOL0     H80432   4.896  10.457   5.047 -1.2621  0.6749 -2.1804
  583MOL0     H80433   4.907  10.329   4.917 -1.5315 -3.3131  1.6697
  583MOL0     H80434   4.440   9.883   5.570  0.0531 -1.4464  2.4865
  583MOL0     H80435   4.221   9.862   5.625  0.9839  1.0761 -1.4277
  583MOL0     H80436   3.835   9.655   5.630  2.0129  0.1716  1.1659
  583MOL0     H80437   3.610   9.566   5.655  2.0277  3.2815 -0.2988
  583MOL0     H80438   1.847   9.905   6.012  0.8002  0.7975  0.3824
  583MOL0     H80439   1.593   9.882   5.960  0.7521 -1.4719  0.2719
  583MOL0     H80440   1.257   9.983   5.898  0.2626  3.7596 -3.7525
  583MOL0     H80441   1.040  10.009   5.900  2.3879 -0.0564  1.1229
  583MOL0     H80442   0.822   9.766   5.937 -0.4495  2.0801  1.6721
  583MOL0     H80443   0.813   9.945   5.935 -0.1891  0.6511  0.5913
  583MOL0     H80444   0.595   9.840   5.968  2.5103 -1.8044  1.2990
  583MOL0     H80445   0.617   9.731   5.825  1.1875  1.7843 -4.6378
  583MOL0     H80446   0.621  10.036   5.781  0.8279 -0.7862  1.7472
  583MOL0     H80447   0.571   9.903   5.669  0.8391  1.8894 -0.3164
  583MOL0     H80448   0.390   9.957   5.906 -2.3202 -0.0973  0.2069
  583MOL0     H80449   0.347   9.888   5.759 -1.9961  1.5162  0.6693
  583MOL0     H80450   0.301  10.285   5.643 -1.4970 -0.4556  0.1917
  583MOL0     H80451   0.989   9.703   5.598 -1.4419  0.4399  1.3536
  583MOL0     H80452   1.165   9.587   5.501  0.5887 -1.4971 -1.4064
  583MOL0     H80453   1.260   9.733   5.461  0.9923  0.1401  0.6605
  583MOL0     H80454   1.329   9.600   5.570 -0.5547 -1.1513 -0.4563
  584MOL0     O80455   0.357   1.992   7.640 -0.5239  0.3514 -0.3476
  584MOL0     C80456   0.294   2.091   7.676  0.2694 -0.4310  0.9787
  584MOL0     O80457   0.341   2.199   7.738 -0.5897 -0.4578  0.1309
  584MOL0     C80458   0.479   2.212   7.763  0.1329 -0.3031  0.3715
  584MOL0     C80459   0.552   2.127   7.851  0.1313 -1.1072 -0.4562
  584MOL0     C80460   0.691   2.143   7.865 -0.0122 -0.2442  0.1122
  584MOL0     C80461   0.759   2.242   7.794  0.1884  0.2722  0.2718
  584MOL0     O80462   0.895   2.258   7.809  0.4878  0.1310 -0.6557
  584MOL0     C80463   0.944   2.388   7.845 -0.3143 -0.1827  0.5756
  584MOL0     C80464   1.062   2.359   7.939  0.5755 -0.7470 -0.1023
  584MOL0     C80465   1.112   2.485   8.004 -0.3758 -0.5452  1.0595
  584MOL0     C80466   1.219   2.564   7.920 -0.5255 -0.2685  0.9879
  584MOL0     C80467   1.234   2.707   7.984  0.3068 -0.5325 -0.2234
  584MOL0     C80468   1.294   2.802   7.890  0.8075 -0.3370  0.8008
  584MOL0     C80469   1.440   2.766   7.857  0.7951  0.0371 -0.5450
  584MOL0     C80470   1.500   2.867   7.759 -0.1111 -0.1107 -0.6954
  584MOL0     N80471   1.612   2.809   7.677 -0.1664 -0.3011  0.2569
  584MOL0     C80472   1.726   2.779   7.750 -0.7835 -1.0178 -0.1953
  584MOL0     C80473   1.817   2.737   7.660  0.3727 -0.4911  0.4838
  584MOL0     C80474   1.963   2.713   7.699 -0.0037  0.0058 -0.1700
  584MOL0     C80475   1.958   2.583   7.777 -0.9601 -0.6900 -0.7817
  584MOL0     C80476   1.942   2.464   7.688  1.2028 -0.9126 -0.1575
  584MOL0     C80477   2.057   2.442   7.594  0.6663  0.5486  0.0329
  584MOL0     O80478   2.182   2.449   7.660 -0.3378  1.1279  0.6544
  584MOL0     C80479   2.290   2.492   7.593 -0.8860 -0.7297 -0.0220
  584MOL0     C80480   2.414   2.444   7.638  0.4520  0.4559  1.0913
  584MOL0     C80481   2.532   2.482   7.580  0.1928  0.3581  0.4839
  584MOL0     C80482   2.657   2.416   7.626  0.8122  0.6468  0.6423
  584MOL0     C80483   2.526   2.577   7.472  0.3636  0.4496 -0.2358
  584MOL0     C80484   2.644   2.623   7.403 -0.0212  0.6357  0.2236
  584MOL0     O80485   2.621   2.688   7.280 -0.1313 -0.0107 -0.5799
  584MOL0     C80486   2.730   2.732   7.210 -0.2577 -0.0704 -0.0348
  584MOL0     C80487   2.755   2.665   7.095  0.2390  0.3989  0.0286
  584MOL0     C80488   2.874   2.691   7.028  0.0492 -0.2146  0.5026
  584MOL0     C80489   2.971   2.783   7.071  0.8294 -0.1471 -0.8834
  584MOL0     O80490   3.085   2.783   7.002 -0.1621  0.1940 -0.2764
  584MOL0     C80491   3.201   2.841   7.060  0.4296  0.1136 -0.5534
  584MOL0     C80492   3.322   2.828   6.963  0.3234 -0.5043  0.6018
  584MOL0     C80493   3.432   2.920   7.022 -0.4909  0.4599 -0.3380
  584MOL0     C80494   3.568   2.905   6.959 -0.1800  0.4505  0.2545
  584MOL0     C80495   3.688   2.986   7.024 -0.1867 -0.2922  0.3875
  584MOL0     C80496   3.706   3.123   6.953 -0.9126 -0.6085  0.6088
  584MOL0     C80497   3.805   3.219   7.025 -0.0803 -0.8752 -0.8581
  584MOL0     C80498   3.737   3.329   7.121 -0.0757  0.3433  0.4505
  584MOL0    Cl80499   3.667   3.249   7.270 -0.6058 -0.8061 -0.1194
  584MOL0     C80500   2.938   2.865   7.187 -0.2824 -0.4730 -0.1283
  584MOL0     C80501   2.815   2.840   7.250 -0.0790  0.6991 -0.0880
  584MOL0     O80502   2.760   2.616   7.449  0.0553 -0.2776 -0.2025
  584MOL0     C80503   2.407   2.635   7.438 -0.0747  0.0547  0.5811
  584MOL0     C80504   2.285   2.588   7.493  0.4634  0.1915 -0.3095
  584MOL0     N80505   1.759   2.732   7.530  0.1353  0.3379 -0.4063
  584MOL0     N80506   1.635   2.771   7.548 -0.0305  0.1119 -0.6808
  584MOL0     C80507   0.678   2.323   7.710 -0.9874 -0.3398 -0.4612
  584MOL0     C80508   0.542   2.308   7.688  0.1617  0.6368 -0.3218
  584MOL0     C80509   0.153   2.096   7.653 -0.8406  0.2659 -0.4635
  584MOL0     C80510   0.073   2.158   7.751  0.0384  0.2334  0.1229
  584MOL0     C80511  -0.067   2.164   7.746 -0.0597  0.3957  0.4538
  584MOL0     C80512  -0.133   2.089   7.653  0.0743 -0.0535 -0.7737
  584MOL0     O80513  -0.269   2.079   7.668 -0.2774 -0.6828 -0.0814
  584MOL0     C80514  -0.351   2.019   7.559 -0.3878 -0.1183 -0.5972
  584MOL0     C80515  -0.500   2.070   7.584 -0.0652 -0.2276 -0.3220
  584MOL0     C80516  -0.590   2.036   7.466 -0.7550  0.0838 -0.1617
  584MOL0     C80517  -0.738   2.011   7.498  0.4164 -0.5963  0.7478
  584MOL0     C80518  -0.796   2.120   7.586  0.2091  0.5554 -0.1963
  584MOL0     C80519  -0.828   2.206   7.667 -0.0634 -0.0180 -0.3538
  584MOL0     C80520  -0.057   2.014   7.563 -0.5710 -0.4078  0.3307
  584MOL0     C80521   0.084   2.020   7.557  0.0068 -0.2281 -0.2322
  584MOL0     C80522   0.160   1.948   7.455 -0.7385  0.2499 -0.4528
  584MOL0     H80523   0.497   2.046   7.898 -0.4906 -0.1373  0.5466
  584MOL0     H80524   0.740   2.083   7.942  2.9855 -0.4496 -1.8178
  584MOL0     H80525   0.872   2.454   7.894  1.7120  2.8177 -0.1955
  584MOL0     H80526   0.975   2.436   7.752 -0.5042  0.0554  0.6358
  584MOL0     H80527   1.030   2.289   8.017  2.2318 -1.6281 -0.1650
  584MOL0     H80528   1.141   2.302   7.889 -0.7444 -1.7818 -1.0363
  584MOL0     H80529   1.027   2.550   8.030  0.0767  0.3626  0.3409
  584MOL0     H80530   1.165   2.452   8.093 -2.6563 -3.3690  1.5257
  584MOL0     H80531   1.311   2.506   7.935 -0.3737  0.2342  2.0900
  584MOL0     H80532   1.197   2.559   7.813  1.8238 -0.3200  0.4565
  584MOL0     H80533   1.291   2.700   8.077 -0.8617 -1.1775  0.4574
  584MOL0     H80534   1.139   2.757   8.005  1.6616  1.1120  2.5547
  584MOL0     H80535   1.227   2.802   7.803  2.6904  0.3917 -0.7199
  584MOL0     H80536   1.284   2.900   7.937  1.0876 -0.3359  0.8573
  584MOL0     H80537   1.444   2.669   7.806  0.8215 -0.5842  0.6064
  584MOL0     H80538   1.492   2.761   7.953 -2.4294  1.1814  1.4269
  584MOL0     H80539   1.429   2.902   7.683 -0.8932  2.5106  1.1091
  584MOL0     H80540   1.530   2.960   7.807  0.7382 -1.4948  1.5870
  584MOL0     H80541   1.737   2.792   7.857 -0.7916  0.3872 -0.3374
  584MOL0     H80542   2.005   2.797   7.754 -0.5075 -0.6031  1.1923
  584MOL0     H80543   2.021   2.701   7.607 -1.7602  0.2586 -1.3651
  584MOL0     H80544   2.056   2.566   7.824 -1.8160 -1.5212  0.7992
  584MOL0     H80545   1.876   2.586   7.849 -0.5449 -2.2176 -0.2060
  584MOL0     H80546   1.929   2.376   7.753  3.3272 -2.2436 -1.4229
  584MOL0     H80547   1.855   2.466   7.622  3.0187  1.7132 -2.7065
  584MOL0     H80548   2.051   2.342   7.550 -3.0141  0.9288 -0.7035
  584MOL0     H80549   2.047   2.513   7.510 -2.8906  0.3127  0.0984
  584MOL0     H80550   2.414   2.364   7.712 -1.9840 -0.4997  0.1513
  584MOL0     H80551   2.701   2.359   7.543 -2.7442  0.1477 -1.0697
  584MOL0     H80552   2.642   2.337   7.701 -0.5330 -1.8633 -2.0617
  584MOL0     H80553   2.718   2.487   7.682  1.6365  2.6436 -2.5437
  584MOL0     H80554   2.685   2.590   7.061 -0.1470 -1.1504  3.7909
  584MOL0     H80555   2.890   2.645   6.931 -2.9374  0.5294 -0.4596
  584MOL0     H80556   3.186   2.944   7.092  0.9033 -0.3666  1.3219
  584MOL0     H80557   3.223   2.788   7.153  1.0741  3.9945  1.7020
  584MOL0     H80558   3.354   2.724   6.953 -1.1672 -0.8086 -2.0229
  584MOL0     H80559   3.294   2.865   6.864  0.1735  0.7345  1.0801
  584MOL0     H80560   3.443   2.899   7.129 -1.9093  1.0603 -0.0402
  584MOL0     H80561   3.401   3.025   7.011 -1.3211  0.1202 -1.3753
  584MOL0     H80562   3.545   2.942   6.859 -0.8218  0.6793  0.4800
  584MOL0     H80563   3.595   2.800   6.949 -3.0973 -0.3253 -0.5593
  584MOL0     H80564   3.667   3.000   7.130  0.3427  0.8627  0.3585
  584MOL0     H80565   3.780   2.929   7.008  0.6978  1.5946 -1.7112
  584MOL0     H80566   3.608   3.169   6.936 -1.3125 -1.8295 -0.5859
  584MOL0     H80567   3.741   3.101   6.851 -4.0714 -1.6282 -0.3967
  584MOL0     H80568   3.874   3.260   6.950 -0.9934  1.6775 -0.3933
  584MOL0     H80569   3.876   3.152   7.075 -0.0315 -1.0130 -1.1098
  584MOL0     H80570   3.659   3.383   7.066  0.0740  1.4583  1.3078
  584MOL0     H80571   3.808   3.406   7.150 -1.8032  1.6322  1.4275
  584MOL0     H80572   3.007   2.941   7.222  0.2922 -1.1034  0.1292
  584MOL0     H80573   2.785   2.895   7.338  3.0711 -0.2573  1.7548
  584MOL0     H80574   2.402   2.711   7.361 -0.4387  0.4968  1.0368
  584MOL0     H80575   2.201   2.640   7.449  3.1524  2.8722 -2.7578
  584MOL0     H80576   0.727   2.409   7.664 -0.1055 -0.9372 -0.6557
  584MOL0     H80577   0.484   2.370   7.621 -1.2714  0.7338  0.9471
  584MOL0     H80578   0.124   2.215   7.828 -0.0528 -0.6854  0.8942
  584MOL0     H80579  -0.128   2.212   7.822  0.1209  1.1886  0.1004
  584MOL0     H80580  -0.317   2.044   7.458 -0.4872 -0.2121 -0.6546
  584MOL0     H80581  -0.356   1.911   7.573 -0.0488  0.0643  1.2602
  584MOL0     H80582  -0.497   2.176   7.613  1.7841  0.2195 -1.9121
  584MOL0     H80583  -0.548   2.012   7.663 -2.5160  2.7682  0.5781
  584MOL0     H80584  -0.577   2.114   7.391  0.0620  0.5893  0.4940
  584MOL0     H80585  -0.541   1.951   7.416 -1.6389 -0.5111 -0.0359
  584MOL0     H80586  -0.753   1.909   7.534 -2.2732  0.0744  1.7280
  584MOL0     H80587  -0.791   2.015   7.402 -0.8117  2.1733  1.4562
  584MOL0     H80588  -0.846   2.290   7.730  0.1343 -0.7489  0.6947
  584MOL0     H80589  -0.106   1.953   7.488 -0.5164 -0.1477  0.0831
  584MOL0     H80590   0.197   1.853   7.494  1.9579  0.8777 -1.2534
  584MOL0     H80591   0.098   1.932   7.366 -0.1207  1.9024 -1.2180
  584MOL0     H80592   0.243   2.014   7.430  2.4714 -2.5414  2.0110
  585MOL0     O80593  10.941   9.616   6.714  0.7141 -0.2477  0.2844
  585MOL0     C80594  10.840   9.676   6.692 -0.1966  0.5457 -0.5990
  585MOL0     O80595  10.835   9.796   6.625  0.2830  0.6542  0.1710
  585MOL0     C80596  10.959   9.848   6.589  0.4378 -0.6207 -0.2653
  585MOL0     C80597  11.011   9.957   6.659 -0.4891 -0.0807 -0.1153
  585MOL0     C80598  11.133  10.013   6.633 -0.0226 -0.0397  0.0762
  585MOL0     C80599  11.191   9.982   6.513  0.1383  0.9282  0.6686
  585MOL0     O80600  11.312  10.037   6.484  0.4993 -0.6129 -0.4265
  585MOL0     C80601  11.355  10.055   6.353 -0.3399  0.0241 -0.0067
  585MOL0     C80602  11.497  10.113   6.356  0.4133  0.7299 -0.0002
  585MOL0     C80603  11.545  10.167   6.218 -0.0273 -0.3826 -0.3314
  585MOL0     C80604  11.687  10.197   6.249  0.1053  0.3169  0.0659
  585MOL0     C80605  11.755  10.250   6.124 -0.7246 -0.2719 -0.0792
  585MOL0     C80606  11.901  10.298   6.161  0.1291 -0.1229 -0.0427
  585MOL0     C80607  11.990  10.315   6.042 -0.2592  0.5859  0.3572
  585MOL0     C80608  11.951  10.420   5.939  1.1581  1.2236 -0.3299
  585MOL0     N80609  12.069  10.439   5.859 -0.6330  0.5701  0.0235
  585MOL0     C80610  12.110  10.365   5.747  0.1513 -0.0192 -0.9179
  585MOL0     C80611  12.236  10.398   5.731 -0.4716  0.5946  0.2985
  585MOL0     C80612  12.325  10.337   5.625  0.8673 -1.0050 -0.2148
  585MOL0     C80613  12.468  10.382   5.621 -0.2398  0.9814 -0.0778
  585MOL0     C80614  12.553  10.331   5.741 -0.2742 -0.6054  0.6727
  585MOL0     C80615  12.698  10.393   5.740 -0.0815  0.3052 -0.3958
  585MOL0     O80616  12.794  10.314   5.823 -0.1811  0.1729 -0.0942
  585MOL0     C80617  12.931  10.351   5.812 -0.0663  0.0789 -0.3573
  585MOL0     C80618  12.989  10.463   5.747  0.9284 -0.4910 -0.5700
  585MOL0     C80619  13.126  10.495   5.752  0.5130  0.1647 -0.0752
  585MOL0     C80620  13.170  10.633   5.695 -0.1053  0.8810 -0.3629
  585MOL0     C80621  13.205  10.398   5.820 -0.4298  0.5733  1.0716
  585MOL0     C80622  13.355  10.411   5.832 -0.1072 -0.2232  0.7572
  585MOL0     O80623  13.429  10.300   5.839 -0.5144  0.2713  0.6040
  585MOL0     C80624  13.567  10.307   5.840 -0.6469 -0.6816  0.0249
  585MOL0     C80625  13.626  10.228   5.746 -0.3673 -0.2886  0.2814
  585MOL0     C80626  13.766  10.246   5.736  1.0970  0.0906  0.6281
  585MOL0     C80627  13.850  10.316   5.823  0.6747  0.2704 -0.3516
  585MOL0     O80628  13.982  10.344   5.787  0.4029  0.2374 -0.3424
  585MOL0     C80629  14.045  10.272   5.675 -0.9065 -0.6553 -0.8640
  585MOL0     C80630  14.196  10.302   5.651 -1.1173  0.0758 -0.1924
  585MOL0     C80631  14.281  10.200   5.745  0.0995 -0.4161 -0.2816
  585MOL0     C80632  14.378  10.114   5.670 -0.1959 -0.5718 -0.2246
  585MOL0     C80633  14.458  10.038   5.769 -0.4420  0.4681 -0.2683
  585MOL0     C80634  14.556   9.947   5.692  0.1845  0.4688  0.4229
  585MOL0     C80635  14.682  10.021   5.670 -0.1958  0.4356  0.4282
  585MOL0     C80636  14.782   9.953   5.580 -0.2972 -0.8633  0.3468
  585MOL0    Cl80637  14.829   9.790   5.637 -0.2820 -0.3277  0.1835
  585MOL0     C80638  13.782  10.383   5.927 -0.4338 -0.7396  0.1708
  585MOL0     C80639  13.639  10.391   5.928  0.0472  0.1764  0.2748
  585MOL0     O80640  13.404  10.524   5.842 -0.6314  0.2061 -0.0687
  585MOL0     C80641  13.152  10.278   5.878 -0.0860  1.0021  0.2451
  585MOL0     C80642  13.015  10.262   5.873  0.1601  0.3003  0.5105
  585MOL0     N80643  12.272  10.494   5.819 -0.9071 -0.2277  0.9099
  585MOL0     N80644  12.174  10.515   5.892  0.1412 -0.3372  0.3142
  585MOL0     C80645  11.140   9.878   6.434 -0.8137 -0.0846 -0.2210
  585MOL0     C80646  11.028   9.803   6.479  0.5183 -0.2922 -0.7622
  585MOL0     C80647  10.713   9.611   6.735 -1.1799 -0.4301  0.3644
  585MOL0     C80648  10.602   9.663   6.661  0.1240  0.2429  0.2519
  585MOL0     C80649  10.479   9.600   6.685 -0.1196 -0.2048 -0.0226
  585MOL0     C80650  10.460   9.482   6.752  0.3247  0.8093 -0.1892
  585MOL0     O80651  10.342   9.413   6.782  0.1100 -0.2025 -0.1661
  585MOL0     C80652  10.209   9.474   6.771  0.5594 -0.5344  1.0923
  585MOL0     C80653  10.148   9.512   6.908  0.0970 -0.6740  0.1590
  585MOL0     C80654   9.999   9.554   6.890 -0.0985 -1.6232 -0.0769
  585MOL0     C80655   9.921   9.563   7.020  0.2182 -1.1115 -0.4677
  585MOL0     C80656   9.831   9.678   7.025  0.0950 -0.5385  1.1555
  585MOL0     C80657   9.753   9.768   7.050  1.1125  0.7847 -0.2431
  585MOL0     C80658  10.571   9.442   6.822  0.5636  0.1010 -0.0762
  585MOL0     C80659  10.702   9.495   6.817  0.8796 -0.7890  1.0360
  585MOL0     C80660  10.811   9.436   6.904  0.4783  0.0047 -0.0329
  585MOL0     H80661  10.950   9.984   6.745 -1.5470 -1.0204 -0.5482
  585MOL0     H80662  11.166  10.091   6.701 -3.6872 -1.0451  3.4178
  585MOL0     H80663  11.300  10.139   6.310  2.5786  2.3081  0.3809
  585MOL0     H80664  11.351   9.965   6.291 -0.2928 -0.0288  0.0662
  585MOL0     H80665  11.506  10.190   6.432  1.0349  3.4357 -2.6190
  585MOL0     H80666  11.565  10.032   6.383 -0.4212 -0.0140 -0.0871
  585MOL0     H80667  11.539  10.088   6.142  1.1188 -0.3360 -0.4855
  585MOL0     H80668  11.489  10.252   6.179  1.9084  0.9011 -0.3933
  585MOL0     H80669  11.704  10.266   6.332 -1.7824  0.6927  0.2005
  585MOL0     H80670  11.733  10.100   6.271  3.0842  1.6277  0.1269
  585MOL0     H80671  11.713  10.345   6.089 -1.0266 -0.6439 -0.7245
  585MOL0     H80672  11.756  10.183   6.038  0.4473  2.3588 -2.3011
  585MOL0     H80673  11.901  10.388   6.224 -2.1980  0.5283 -0.8659
  585MOL0     H80674  11.945  10.209   6.208 -2.4497 -2.1417 -1.2055
  585MOL0     H80675  11.981  10.223   5.985  1.1184  1.5885 -1.6040
  585MOL0     H80676  12.093  10.320   6.079 -0.7425 -0.7711  1.9975
  585MOL0     H80677  11.870  10.397   5.870  1.1530  1.7185 -0.4949
  585MOL0     H80678  11.925  10.508   5.998 -1.1320  0.6456 -0.3768
  585MOL0     H80679  12.060  10.286   5.692  2.6928 -2.3139 -0.1562
  585MOL0     H80680  12.281  10.343   5.525 -0.0089 -3.1779 -0.0261
  585MOL0     H80681  12.328  10.231   5.652 -3.7804 -0.8627  1.9033
  585MOL0     H80682  12.518  10.347   5.530  3.1347  0.7411  1.6907
  585MOL0     H80683  12.476  10.490   5.629  0.3129  0.9709 -0.4066
  585MOL0     H80684  12.499  10.337   5.836 -0.0128 -1.4811  0.8820
  585MOL0     H80685  12.569  10.225   5.721  1.2328 -0.3932  0.6070
  585MOL0     H80686  12.733  10.386   5.636 -1.1955 -3.1146 -0.6618
  585MOL0     H80687  12.709  10.496   5.774  3.0784 -0.4137  1.1424
  585MOL0     H80688  12.931  10.539   5.695  2.3164 -0.7963 -2.6546
  585MOL0     H80689  13.172  10.721   5.760  3.0834  1.9840 -1.7401
  585MOL0     H80690  13.099  10.649   5.614  1.8144  0.0458 -2.2859
  585MOL0     H80691  13.272  10.616   5.660  1.0672 -2.8550  3.8167
  585MOL0     H80692  13.567  10.165   5.681  1.2113  0.6183 -2.1821
  585MOL0     H80693  13.811  10.208   5.644  0.7453  0.6620  0.2125
  585MOL0     H80694  14.033  10.165   5.695 -0.1035 -0.4446  1.0180
  585MOL0     H80695  13.988  10.310   5.590 -1.6297  0.3371  0.0480
  585MOL0     H80696  14.218  10.299   5.544  1.5364 -0.1835  0.2861
  585MOL0     H80697  14.225  10.402   5.684 -0.2103 -0.7925  1.8301
  585MOL0     H80698  14.210  10.135   5.796  0.3750 -0.4780  0.0238
  585MOL0     H80699  14.325  10.269   5.818 -1.8878  0.3851  0.2167
  585MOL0     H80700  14.445  10.171   5.604 -1.6564 -0.1781 -1.4224
  585MOL0     H80701  14.316  10.056   5.601 -1.5718  2.3132 -1.5900
  585MOL0     H80702  14.505  10.101   5.845 -0.8981  1.1101 -0.5111
  585MOL0     H80703  14.389   9.973   5.824  0.5574  0.6591  1.2585
  585MOL0     H80704  14.505   9.922   5.599 -1.9899  4.1891  0.4420
  585MOL0     H80705  14.568   9.857   5.753 -0.9649  0.9320  1.3742
  585MOL0     H80706  14.721  10.022   5.772  3.0062 -0.4398 -0.6475
  585MOL0     H80707  14.664  10.124   5.640 -1.1520 -0.1630 -1.2246
  585MOL0     H80708  14.856  10.032   5.564 -3.3139  2.1794  0.1914
  585MOL0     H80709  14.724   9.935   5.489 -2.1912 -0.1863  1.3656
  585MOL0     H80710  13.834  10.453   5.991  1.2323 -1.6827 -0.0992
  585MOL0     H80711  13.586  10.452   6.001  0.5137  0.5047  0.3402
  585MOL0     H80712  13.205  10.208   5.941 -2.7753 -1.5103 -0.0976
  585MOL0     H80713  12.957  10.186   5.924  0.9059 -0.1586  0.6915
  585MOL0     H80714  11.194   9.845   6.347  1.6750  2.7701  0.0643
  585MOL0     H80715  10.984   9.725   6.417  1.3996  0.4924 -2.4403
  585MOL0     H80716  10.609   9.745   6.590  0.6017 -2.3315 -2.9243
  585MOL0     H80717  10.396   9.652   6.639 -0.2749 -2.1893 -2.1834
  585MOL0     H80718  10.203   9.564   6.708 -2.3206  0.0805  2.0549
  585MOL0     H80719  10.141   9.409   6.716  1.6519 -0.9906  0.2402
  585MOL0     H80720  10.200   9.597   6.952 -0.9177 -1.8627  3.9834
  585MOL0     H80721  10.148   9.429   6.980 -0.7287  0.9846  2.1653
  585MOL0     H80722   9.991   9.647   6.833  0.7894 -0.3250  1.8363
  585MOL0     H80723   9.947   9.479   6.829 -0.1989 -1.0932 -0.6542
  585MOL0     H80724   9.993   9.576   7.102 -0.1910 -2.2355  0.0854
  585MOL0     H80725   9.868   9.470   7.042 -0.8153 -0.4475 -0.1224
  585MOL0     H80726   9.676   9.841   7.067 -3.2968 -3.2452 -0.7413
  585MOL0     H80727  10.554   9.354   6.883  0.9186  0.8553  1.1560
  585MOL0     H80728  10.912   9.444   6.863  0.1040  0.8521 -0.8138
  585MOL0     H80729  10.808   9.492   6.997 -0.0752  1.2011 -0.7556
  585MOL0     H80730  10.778   9.333   6.924 -2.0005  0.2894 -2.1236
  586MOL0     O80731  10.661   6.587   8.337 -0.4012 -0.3827 -0.1948
  586MOL0     C80732  10.566   6.540   8.283  0.1773  0.0022 -0.0940
  586MOL0     O80733  10.531   6.410   8.279 -0.2156 -0.3403 -0.1096
  586MOL0     C80734  10.615   6.316   8.350 -0.6972  0.3416 -0.3131
  586MOL0     C80735  10.664   6.330   8.485  0.1067  0.4543  0.2625
  586MOL0     C80736  10.733   6.228   8.546 -0.3780 -0.2155  0.1599
  586MOL0     C80737  10.760   6.113   8.473 -0.4343  0.7054  0.3300
  586MOL0     O80738  10.809   6.008   8.545 -0.1869  0.3102 -0.5712
  586MOL0     C80739  10.916   5.938   8.480  0.0993  0.2445 -0.3803
  586MOL0     C80740  11.028   5.876   8.566  0.9662  0.2412  0.3835
  586MOL0     C80741  11.117   5.777   8.491  0.7546 -0.1507  0.1214
  586MOL0     C80742  11.212   5.705   8.574 -0.2165  0.1857  0.2140
  586MOL0     C80743  11.338   5.793   8.603 -0.2081  0.1113 -0.3444
  586MOL0     C80744  11.442   5.730   8.689  0.1117 -1.1971  0.3020
  586MOL0     C80745  11.568   5.820   8.703 -0.6333 -0.2320  0.3975
  586MOL0     C80746  11.676   5.731   8.775 -0.1821  0.2439 -0.1548
  586MOL0     N80747  11.815   5.778   8.768 -1.1155 -1.3752  0.3818
  586MOL0     C80748  11.904   5.742   8.674 -0.2021  0.2373  0.8918
  586MOL0     C80749  12.005   5.837   8.692 -0.0017 -0.7505 -0.2273
  586MOL0     C80750  12.129   5.850   8.611  0.5949 -0.2307 -0.0625
  586MOL0     C80751  12.180   5.993   8.592 -0.2974 -0.1297  0.3101
  586MOL0     C80752  12.302   6.010   8.504 -0.0451 -0.7001  0.2021
  586MOL0     C80753  12.334   6.163   8.482  0.0790 -0.6490 -0.1062
  586MOL0     O80754  12.457   6.191   8.406 -0.1574  0.0970  0.4370
  586MOL0     C80755  12.534   6.305   8.426  0.7537  0.0360 -0.0835
  586MOL0     C80756  12.502   6.404   8.522  0.7199  0.6605  0.2367
  586MOL0     C80757  12.586   6.509   8.545  0.0934 -0.5238 -0.1228
  586MOL0     C80758  12.523   6.620   8.622  0.5457  0.8171 -0.8472
  586MOL0     C80759  12.711   6.519   8.476  0.2724  0.0027  0.0388
  586MOL0     C80760  12.813   6.627   8.492  0.5522 -0.0681  0.3619
  586MOL0     O80761  12.928   6.600   8.425  0.9558  0.9879  0.4563
  586MOL0     C80762  13.038   6.677   8.457  0.6585  0.3245 -0.3171
  586MOL0     C80763  13.140   6.642   8.547  0.6398  0.1494 -0.1209
  586MOL0     C80764  13.250   6.720   8.580 -0.7553  0.9561  1.0286
  586MOL0     C80765  13.276   6.844   8.514 -0.4240  0.5988  0.4010
  586MOL0     O80766  13.378   6.932   8.546  0.1613  0.3571 -0.0800
  586MOL0     C80767  13.437   6.915   8.673 -0.5607  0.0966  0.5108
  586MOL0     C80768  13.545   7.024   8.688 -0.2736 -0.6110 -0.3427
  586MOL0     C80769  13.650   7.035   8.577 -0.3256 -0.3681  0.2259
  586MOL0     C80770  13.745   7.149   8.615  0.6698 -0.7850  1.1945
  586MOL0     C80771  13.863   7.155   8.519  0.6643 -0.0215 -0.2906
  586MOL0     C80772  13.965   7.244   8.585  0.3160  1.0722  0.2841
  586MOL0     C80773  13.923   7.391   8.610 -0.1395  0.8913  0.0270
  586MOL0     C80774  14.012   7.464   8.704  0.2441  0.3018 -0.1191
  586MOL0    Cl80775  13.946   7.444   8.871  0.1861 -0.1218 -0.1874
  586MOL0     C80776  13.174   6.876   8.415  0.6107  0.2942  0.0247
  586MOL0     C80777  13.060   6.801   8.384 -0.2049 -0.0391 -0.7062
  586MOL0     O80778  12.790   6.727   8.558  0.1914  0.3254  0.2534
  586MOL0     C80779  12.739   6.411   8.383  0.1844  0.5180 -0.2282
  586MOL0     C80780  12.656   6.300   8.364 -0.8055 -1.0709 -0.0568
  586MOL0     N80781  11.964   5.928   8.786 -0.4429 -0.1125  0.1768
  586MOL0     N80782  11.857   5.894   8.828 -0.3231 -0.0248  0.2469
  586MOL0     C80783  10.735   6.107   8.333 -0.5523  0.5896 -0.2754
  586MOL0     C80784  10.653   6.204   8.275 -0.0865  0.0537 -0.0763
  586MOL0     C80785  10.463   6.635   8.234  1.3961  0.0315  1.0101
  586MOL0     C80786  10.337   6.584   8.198 -0.5370 -0.8130 -0.0186
  586MOL0     C80787  10.220   6.649   8.157  0.7755 -0.2730 -0.2947
  586MOL0     C80788  10.233   6.790   8.151 -0.3199 -0.7309 -0.1440
  586MOL0     O80789  10.121   6.881   8.143 -0.1731  0.2197 -0.3814
  586MOL0     C80790   9.988   6.834   8.169  0.0523  0.2649  0.6615
  586MOL0     C80791   9.891   6.942   8.141  0.0591 -0.3392 -0.3048
  586MOL0     C80792   9.786   6.975   8.251  0.8827 -0.2735 -0.0579
  586MOL0     C80793   9.697   7.094   8.205  1.0686  0.0867  0.2391
  586MOL0     C80794   9.570   7.099   8.286 -0.1705 -0.0949  0.8199
  586MOL0     C80795   9.482   7.078   8.373  0.3681 -0.0815  0.3796
  586MOL0     C80796  10.354   6.852   8.189  0.5473  0.0335  0.2171
  586MOL0     C80797  10.469   6.781   8.228 -0.3037  0.7274 -0.4699
  586MOL0     C80798  10.587   6.852   8.290  0.0724  0.7400  0.1854
  586MOL0     H80799  10.635   6.410   8.552  0.8498  0.8517  0.1132
  586MOL0     H80800  10.749   6.219   8.653 -2.8599 -0.8673  0.5342
  586MOL0     H80801  10.963   6.009   8.412 -2.0129  2.2843  0.1743
  586MOL0     H80802  10.866   5.853   8.433  0.9263 -0.8978  0.7473
  586MOL0     H80803  11.094   5.955   8.603  1.0310 -0.1222  1.0656
  586MOL0     H80804  10.978   5.829   8.651  0.2662 -0.6368 -0.4865
  586MOL0     H80805  11.057   5.698   8.443 -0.1865  0.3041  0.5261
  586MOL0     H80806  11.171   5.834   8.415 -0.1346  0.5182 -0.0342
  586MOL0     H80807  11.150   5.676   8.660  0.1682  0.9515  0.7644
  586MOL0     H80808  11.249   5.616   8.524  1.4753  1.9097 -1.7907
  586MOL0     H80809  11.303   5.878   8.662  0.1108  1.0445 -1.4604
  586MOL0     H80810  11.387   5.835   8.514  2.2232 -1.4897  0.1151
  586MOL0     H80811  11.411   5.715   8.793  1.4025 -0.4127  0.8293
  586MOL0     H80812  11.469   5.634   8.646  1.8774 -1.4632  1.8592
  586MOL0     H80813  11.539   5.910   8.758 -2.7087  0.8112 -2.1917
  586MOL0     H80814  11.609   5.854   8.608  2.0319  1.5415  2.0502
  586MOL0     H80815  11.648   5.713   8.880  0.2409  1.7855  0.2443
  586MOL0     H80816  11.673   5.629   8.735 -1.1130 -0.4982  1.6735
  586MOL0     H80817  11.908   5.658   8.607 -0.5128 -0.8586  2.2041
  586MOL0     H80818  12.106   5.802   8.515 -1.6653  0.3397  0.1363
  586MOL0     H80819  12.209   5.795   8.662 -0.4223 -0.5888  1.1884
  586MOL0     H80820  12.096   6.050   8.550 -0.4476 -0.3121  0.3620
  586MOL0     H80821  12.210   6.027   8.691  3.7506 -2.0756 -0.0499
  586MOL0     H80822  12.384   5.962   8.560  0.9173  1.3775  0.6797
  586MOL0     H80823  12.286   5.971   8.403 -1.0458 -0.5331  0.2863
  586MOL0     H80824  12.254   6.214   8.427  0.9163  1.4701  0.5166
  586MOL0     H80825  12.345   6.198   8.585 -1.0652  1.3735 -0.6226
  586MOL0     H80826  12.413   6.401   8.583 -0.0090 -2.2035 -0.8590
  586MOL0     H80827  12.505   6.710   8.562  0.1264 -0.0356 -2.0314
  586MOL0     H80828  12.587   6.646   8.707 -2.5929  0.4932  1.8152
  586MOL0     H80829  12.430   6.589   8.671  2.2048 -1.7252  0.9164
  586MOL0     H80830  13.144   6.541   8.588 -1.1284 -0.4672 -1.3568
  586MOL0     H80831  13.318   6.687   8.657  0.6362  0.3193 -0.4170
  586MOL0     H80832  13.362   6.927   8.751  0.4180  1.0898  1.3355
  586MOL0     H80833  13.486   6.817   8.672  2.2703  1.3531 -2.3456
  586MOL0     H80834  13.490   7.118   8.694 -0.8588 -1.0551  2.0956
  586MOL0     H80835  13.591   7.012   8.787 -0.4125 -0.5582 -0.2721
  586MOL0     H80836  13.594   7.045   8.483  1.1487  0.6415 -0.5877
  586MOL0     H80837  13.698   6.938   8.559 -0.5293 -0.1420 -1.8041
  586MOL0     H80838  13.779   7.140   8.719  2.2153  1.5129  0.9729
  586MOL0     H80839  13.689   7.243   8.604 -0.6643 -1.5975  0.8775
  586MOL0     H80840  13.906   7.055   8.503  0.9933 -0.4854  2.8654
  586MOL0     H80841  13.830   7.203   8.427  1.7144 -0.0591 -0.6961
  586MOL0     H80842  14.057   7.246   8.525 -0.9802  2.6989 -1.7805
  586MOL0     H80843  13.997   7.199   8.679 -1.6126  1.7579  1.3053
  586MOL0     H80844  13.825   7.397   8.656  0.0893  2.3330  0.3507
  586MOL0     H80845  13.904   7.451   8.520 -1.2952  2.0682  1.0230
  586MOL0     H80846  14.021   7.569   8.676  3.5748  1.1080  3.2693
  586MOL0     H80847  14.109   7.414   8.714  0.5531  0.8349 -0.4282
  586MOL0     H80848  13.175   6.965   8.353  1.1604 -0.3056 -0.8620
  586MOL0     H80849  12.974   6.835   8.327  0.4415  3.8887  0.3874
  586MOL0     H80850  12.833   6.409   8.330 -1.0663  0.0566 -2.5372
  586MOL0     H80851  12.673   6.226   8.285 -0.6627 -1.7471  0.5984
  586MOL0     H80852  10.768   6.030   8.263  2.5101  2.0804 -0.6318
  586MOL0     H80853  10.617   6.194   8.174 -1.2013  3.0813 -0.0862
  586MOL0     H80854  10.331   6.476   8.190 -0.3407 -1.2802  4.0452
  586MOL0     H80855  10.131   6.591   8.135 -0.0625  0.7052  0.4012
  586MOL0     H80856   9.965   6.750   8.102  2.5240 -0.5046  0.6825
  586MOL0     H80857   9.980   6.802   8.273  0.3140 -0.4334  0.4719
  586MOL0     H80858   9.826   6.904   8.062 -0.3871 -1.1911  0.4551
  586MOL0     H80859   9.941   7.036   8.115 -0.9345  0.4060  0.4126
  586MOL0     H80860   9.718   6.892   8.275 -0.8639 -0.0802 -3.6756
  586MOL0     H80861   9.836   7.003   8.344 -0.4391 -0.4088  0.7148
  586MOL0     H80862   9.680   7.087   8.097 -0.7762 -1.2298  0.5556
  586MOL0     H80863   9.745   7.190   8.226  0.4354  0.8616 -1.6595
  586MOL0     H80864   9.401   7.061   8.441 -2.1505  1.4379 -2.0240
  586MOL0     H80865  10.369   6.960   8.186  0.9178  0.1278  2.9865
  586MOL0     H80866  10.584   6.842   8.399  2.0800 -1.1295  0.1182
  586MOL0     H80867  10.685   6.830   8.248 -0.2433  1.3653 -0.9233
  586MOL0     H80868  10.576   6.960   8.280  0.6710  0.8228  0.4145
  587MOL0     O80869   4.755  10.230   4.531  0.0201  0.2273 -0.9241
  587MOL0     C80870   4.799  10.303   4.624 -0.6425  1.2215  0.4280
  587MOL0     O80871   4.733  10.329   4.741 -0.5298  0.3605 -0.4003
  587MOL0     C80872   4.637  10.238   4.768  0.2480 -0.1086  0.0615
  587MOL0     C80873   4.675  10.116   4.813 -0.8328  0.7611  0.1834
  587MOL0     C80874   4.579  10.021   4.826 -0.8879  0.0506  0.4181
  587MOL0     C80875   4.448  10.040   4.798 -0.1866  0.2127  0.0586
  587MOL0     O80876   4.357   9.938   4.815 -0.1289 -0.0381  0.0100
  587MOL0     C80877   4.260   9.918   4.711 -0.1427 -0.3398  0.6896
  587MOL0     C80878   4.314   9.919   4.567 -0.2419 -0.2844  0.5182
  587MOL0     C80879   4.416   9.802   4.565  0.9457  0.2483 -0.0968
  587MOL0     C80880   4.497   9.807   4.431  0.2995  0.6275 -0.7510
  587MOL0     C80881   4.639   9.766   4.465 -0.1026  0.1101  0.6742
  587MOL0     C80882   4.654   9.618   4.503 -0.0580 -0.6901 -0.0731
  587MOL0     C80883   4.790   9.555   4.468  0.0095  0.1064  0.4411
  587MOL0     C80884   4.906   9.637   4.524 -0.5914 -0.9931  0.6205
  587MOL0     N80885   5.021   9.556   4.489 -1.3574  0.1247 -0.6314
  587MOL0     C80886   5.095   9.583   4.373  0.7098  0.3448  0.0095
  587MOL0     C80887   5.213   9.516   4.379  0.5718 -0.1006 -0.0274
  587MOL0     C80888   5.318   9.514   4.274 -0.5004 -0.3218  0.2120
  587MOL0     C80889   5.434   9.609   4.304 -0.1250 -0.8823  0.4039
  587MOL0     C80890   5.540   9.613   4.186  0.7445 -0.2028 -0.8768
  587MOL0     C80891   5.663   9.695   4.219  0.1153  0.5075  1.1905
  587MOL0     O80892   5.624   9.830   4.243 -0.1133  0.5592 -0.7348
  587MOL0     C80893   5.717   9.912   4.302 -0.3219  0.0432  0.0867
  587MOL0     C80894   5.855   9.889   4.303  0.1117 -0.7990  0.6257
  587MOL0     C80895   5.943   9.979   4.370  0.2646 -0.2465 -0.4522
  587MOL0     C80896   6.085   9.933   4.383 -1.0204  1.1683  0.0343
  587MOL0     C80897   5.899  10.099   4.426 -0.2307 -0.2598  0.0223
  587MOL0     C80898   5.977  10.216   4.482 -0.1831 -0.4387 -0.2598
  587MOL0     O80899   5.913  10.331   4.492 -0.8865 -0.3930  0.0408
  587MOL0     C80900   5.991  10.434   4.540 -0.1836 -0.1857  0.3788
  587MOL0     C80901   6.023  10.542   4.463  1.1247 -1.1999 -0.1930
  587MOL0     C80902   6.104  10.648   4.509  0.5038  0.2675 -0.7006
  587MOL0     C80903   6.140  10.646   4.642 -0.4580 -0.5713  0.8050
  587MOL0     O80904   6.197  10.761   4.686  0.0864 -0.5902 -0.3807
  587MOL0     C80905   6.200  10.793   4.826 -0.2107 -0.6820 -0.5062
  587MOL0     C80906   6.292  10.923   4.841  0.2233  0.2186 -1.0013
  587MOL0     C80907   6.201  11.040   4.790  0.7134 -0.9064 -0.0041
  587MOL0     C80908   6.283  11.176   4.767 -0.0744  0.0249 -0.3242
  587MOL0     C80909   6.351  11.160   4.632  0.8680 -0.7574  0.4700
  587MOL0     C80910   6.384  11.291   4.565 -0.2737  0.2174  0.5930
  587MOL0     C80911   6.433  11.273   4.429  0.4098 -0.4017  0.5350
  587MOL0     C80912   6.451  11.407   4.353  0.3382 -0.6146  0.6611
  587MOL0    Cl80913   6.608  11.473   4.379  0.0663  0.3656  0.2129
  587MOL0     C80914   6.098  10.541   4.727 -0.3434  0.0033  0.7234
  587MOL0     C80915   6.041  10.426   4.676 -0.2995  0.1920  0.4432
  587MOL0     O80916   6.094  10.195   4.508 -0.3906  0.2365 -0.7860
  587MOL0     C80917   5.756  10.119   4.428  0.3959 -0.5334  0.6356
  587MOL0     C80918   5.666  10.029   4.362 -0.4872 -0.2615 -1.2409
  587MOL0     N80919   5.221   9.465   4.507  0.1783 -0.1840  0.0945
  587MOL0     N80920   5.112   9.488   4.570  0.0683  0.0765 -0.3347
  587MOL0     C80921   4.404  10.165   4.756  0.2999  0.0753 -0.1428
  587MOL0     C80922   4.498  10.270   4.741 -0.6600  0.0928 -0.4068
  587MOL0     C80923   4.928  10.368   4.610  0.2090 -0.3584  0.7267
  587MOL0     C80924   4.951  10.485   4.672  1.2828  0.3545 -0.7592
  587MOL0     C80925   5.073  10.551   4.681 -0.1350  0.9443 -0.2139
  587MOL0     C80926   5.189  10.488   4.627 -0.1247 -0.6171 -0.6041
  587MOL0     O80927   5.317  10.538   4.618 -0.2714 -0.2389 -0.1503
  587MOL0     C80928   5.333  10.675   4.664  0.5937 -0.3672  0.3084
  587MOL0     C80929   5.474  10.717   4.635 -0.1655 -0.2845 -0.8934
  587MOL0     C80930   5.580  10.642   4.725 -0.1694 -0.6878  0.4483
  587MOL0     C80931   5.710  10.637   4.651  0.9942 -0.4638 -0.0576
  587MOL0     C80932   5.785  10.762   4.662 -0.4838  0.0969  1.0417
  587MOL0     C80933   5.870  10.844   4.667 -0.1688 -0.5025 -0.1991
  587MOL0     C80934   5.170  10.367   4.564 -0.1305 -0.0689  0.4545
  587MOL0     C80935   5.044  10.299   4.560 -0.3140  0.0247  0.5074
  587MOL0     C80936   5.034  10.172   4.480  0.0846  0.3537 -0.4375
  587MOL0     H80937   4.779  10.097   4.840 -2.0774 -1.2088  4.6618
  587MOL0     H80938   4.608   9.935   4.886  2.0429  0.5624 -0.1123
  587MOL0     H80939   4.198  10.009   4.715  0.7881  0.4984 -1.9524
  587MOL0     H80940   4.194   9.835   4.735 -1.6403  1.3947  3.0707
  587MOL0     H80941   4.230   9.895   4.501  0.7078 -1.4562 -0.3168
  587MOL0     H80942   4.346  10.015   4.526 -1.7820 -0.1140 -0.3772
  587MOL0     H80943   4.471   9.793   4.659  2.9949  1.7258 -1.0721
  587MOL0     H80944   4.357   9.711   4.551  0.7304  0.5838 -1.5561
  587MOL0     H80945   4.446   9.742   4.359  0.9104  1.4558 -1.9536
  587MOL0     H80946   4.500   9.911   4.399  0.0273  1.9721  3.1147
  587MOL0     H80947   4.689   9.826   4.542  0.0015  2.3270 -1.0169
  587MOL0     H80948   4.699   9.775   4.374 -0.6512  0.9187  0.3823
  587MOL0     H80949   4.623   9.604   4.607  0.1203  1.7698  0.3741
  587MOL0     H80950   4.579   9.563   4.445 -1.3052  3.8959 -3.3676
  587MOL0     H80951   4.794   9.540   4.359 -1.1076 -0.3310  0.4507
  587MOL0     H80952   4.790   9.452   4.504 -2.9553 -1.6706 -3.8099
  587MOL0     H80953   4.911   9.734   4.473 -0.8545 -0.3864  1.7165
  587MOL0     H80954   4.908   9.647   4.633  0.8634 -0.7863  0.6033
  587MOL0     H80955   5.052   9.642   4.293 -0.7580 -2.1793 -1.1826
  587MOL0     H80956   5.268   9.537   4.179  2.5524 -0.7321 -1.6047
  587MOL0     H80957   5.361   9.414   4.265 -2.0375 -0.8758 -1.7535
  587MOL0     H80958   5.408   9.713   4.327  0.9734 -1.2076  3.7572
  587MOL0     H80959   5.489   9.567   4.389  2.9378 -2.0460 -1.9611
  587MOL0     H80960   5.569   9.510   4.160  1.1713 -0.4593  0.5369
  587MOL0     H80961   5.498   9.644   4.090 -0.7147 -1.4870 -0.7030
  587MOL0     H80962   5.718   9.653   4.304 -0.1057  0.4504  1.3065
  587MOL0     H80963   5.733   9.697   4.135 -2.3216  1.1718 -0.9204
  587MOL0     H80964   5.891   9.797   4.258 -0.2753 -0.7305  0.1643
  587MOL0     H80965   6.100   9.912   4.489 -1.1438  0.1756 -0.1393
  587MOL0     H80966   6.161  10.007   4.353  3.0103 -3.5234 -2.9680
  587MOL0     H80967   6.105   9.836   4.336 -2.4173  0.5325  0.7038
  587MOL0     H80968   5.996  10.551   4.358 -2.1485  1.3862  0.6727
  587MOL0     H80969   6.132  10.724   4.437  0.0661  2.4295  1.2996
  587MOL0     H80970   6.097  10.806   4.860 -1.0082 -0.8569 -2.7018
  587MOL0     H80971   6.251  10.713   4.881  0.5399 -0.1992 -0.4744
  587MOL0     H80972   6.320  10.939   4.946  2.2946  3.3682 -1.8847
  587MOL0     H80973   6.383  10.910   4.782  1.1027 -2.8851  0.8109
  587MOL0     H80974   6.123  11.048   4.867 -0.4025 -1.1057 -1.0831
  587MOL0     H80975   6.152  11.006   4.698 -0.0151 -3.3678  1.1859
  587MOL0     H80976   6.361  11.186   4.843  0.3089  1.7128 -0.9051
  587MOL0     H80977   6.216  11.262   4.778 -0.3696 -0.2986  0.4858
  587MOL0     H80978   6.438  11.094   4.644  0.8934 -0.5982  1.2433
  587MOL0     H80979   6.282  11.103   4.569  1.5313  0.6396 -1.6134
  587MOL0     H80980   6.468  11.324   4.626  0.8233  0.7020 -1.0922
  587MOL0     H80981   6.302  11.364   4.572  0.8035  1.5980 -0.6070
  587MOL0     H80982   6.360  11.210   4.378  1.1693 -3.0549  2.5095
  587MOL0     H80983   6.521  11.209   4.420  0.2926 -0.5600  0.5177
  587MOL0     H80984   6.373  11.482   4.372 -0.3554 -1.2139  0.2284
  587MOL0     H80985   6.445  11.392   4.245 -1.0776  0.3381  0.5807
  587MOL0     H80986   6.109  10.534   4.835 -1.5947 -0.8091  0.8252
  587MOL0     H80987   6.022  10.343   4.743  1.6376 -0.7468 -0.1116
  587MOL0     H80988   5.712  10.212   4.463 -0.8174 -0.7054 -0.3308
  587MOL0     H80989   5.563  10.059   4.348 -0.1919  0.1439 -2.7370
  587MOL0     H80990   4.299  10.183   4.735  0.7087  0.6711 -1.8298
  587MOL0     H80991   4.454  10.365   4.712 -1.8680  0.1569  1.4878
  587MOL0     H80992   4.865  10.541   4.704 -0.8424 -2.8275 -0.4785
  587MOL0     H80993   5.086  10.646   4.733  1.0487  0.2694  0.7713
  587MOL0     H80994   5.260  10.749   4.628 -0.1073 -1.4617 -0.6171
  587MOL0     H80995   5.312  10.654   4.769 -1.5779  0.3111  0.0579
  587MOL0     H80996   5.496  10.821   4.661 -0.1599 -0.8251  1.5547
  587MOL0     H80997   5.487  10.703   4.527 -0.1204  1.9284 -1.2217
  587MOL0     H80998   5.589  10.701   4.816  0.3558  1.4396 -0.8978
  587MOL0     H80999   5.541  10.542   4.750 -1.9355  0.3260  2.0688
  587MOL0     H81000   5.691  10.609   4.547 -3.6312  1.6605 -0.0200
  587MOL0     H81001   5.778  10.564   4.696  1.7229 -0.0902 -0.5334
  587MOL0     H81002   5.950  10.914   4.681 -2.3738  2.4366 -1.3722
  587MOL0     H81003   5.251  10.333   4.499  0.6299  1.3603  0.6150
  587MOL0     H81004   5.000  10.088   4.540  0.4568  0.7237  0.3012
  587MOL0     H81005   4.972  10.176   4.390 -1.9454  0.5934  0.9070
  587MOL0     H81006   5.136  10.148   4.449 -0.2091 -2.0885  0.3059
  588MOL0     O81007  11.242  10.370   0.546 -0.6293 -0.5495  0.2516
  588MOL0     C81008  11.317  10.395   0.641 -0.1836  0.2107 -0.5398
  588MOL0     O81009  11.449  10.351   0.649  0.0057 -0.1146 -0.0046
  588MOL0     C81010  11.471  10.259   0.548  0.0523  0.5990 -0.2737
  588MOL0     C81011  11.489  10.293   0.418 -0.5997  0.3965 -0.5833
  588MOL0     C81012  11.524  10.201   0.316  0.2736 -0.0253  0.0125
  588MOL0     C81013  11.536  10.067   0.345 -0.0600 -0.6522 -0.3206
  588MOL0     O81014  11.568   9.962   0.264 -0.1884  0.0881  0.0508
  588MOL0     C81015  11.569   9.989   0.128  0.5462  0.6277  0.6153
  588MOL0     C81016  11.665   9.893   0.065  0.2473  0.3693  0.7954
  588MOL0     C81017  11.798   9.873   0.133 -0.6998  0.1467 -0.0464
  588MOL0     C81018  11.897   9.996   0.134  0.2464 -0.2494  0.6249
  588MOL0     C81019  12.047   9.955   0.134  0.0736  0.2101 -0.5890
  588MOL0     C81020  12.150  10.072   0.126 -0.2954  0.2031  0.4596
  588MOL0     C81021  12.296  10.014   0.106 -0.5214 -0.1837 -0.6703
  588MOL0     C81022  12.396  10.119   0.068  0.8439 -0.4188 -0.2190
  588MOL0     N81023  12.421  10.212   0.182 -0.3305 -0.1911 -0.0452
  588MOL0     C81024  12.529  10.194   0.255 -0.8980 -0.1986  0.0513
  588MOL0     C81025  12.531  10.290   0.341 -0.1312  0.1078 -0.4805
  588MOL0     C81026  12.644  10.322   0.436 -0.1941  0.1615  0.6456
  588MOL0     C81027  12.662  10.222   0.552  0.1432 -0.7244  0.7252
  588MOL0     C81028  12.576  10.243   0.686 -0.3377 -0.2445 -0.8181
  588MOL0     C81029  12.648  10.342   0.789 -0.7322  0.1026  0.0527
  588MOL0     O81030  12.739  10.269   0.876 -0.3306 -0.3568  0.3383
  588MOL0     C81031  12.698  10.222   0.997  0.1464 -0.0236 -0.1866
  588MOL0     C81032  12.800  10.180   1.090  0.6648 -0.3180 -0.4013
  588MOL0     C81033  12.762  10.131   1.213 -0.6709  0.0530  0.0267
  588MOL0     C81034  12.882  10.079   1.297 -0.9905  0.0552 -0.3852
  588MOL0     C81035  12.627  10.113   1.245 -0.5502 -0.6128 -0.0564
  588MOL0     C81036  12.587  10.066   1.382 -0.0309 -0.2916  0.4943
  588MOL0     O81037  12.460  10.022   1.387 -0.1952  1.0552 -0.3277
  588MOL0     C81038  12.405   9.968   1.501  0.2440 -0.7512 -0.8981
  588MOL0     C81039  12.434   9.996   1.638  0.9314 -0.1311  0.6834
  588MOL0     C81040  12.348   9.935   1.735 -0.6462  0.2153  0.4618
  588MOL0     C81041  12.240   9.856   1.700 -0.1568  1.2831  0.0852
  588MOL0     O81042  12.168   9.790   1.792  0.6471  0.6075 -0.8865
  588MOL0     C81043  12.057   9.873   1.843  0.3940  0.3270 -0.5837
  588MOL0     C81044  12.044   9.871   1.990 -0.2697 -0.6522 -0.6204
  588MOL0     C81045  12.163   9.953   2.056 -0.3194  0.2267 -0.0434
  588MOL0     C81046  12.129   9.981   2.201 -0.6752 -0.3622 -0.5024
  588MOL0     C81047  12.256  10.010   2.288  0.0054 -0.2391  0.1000
  588MOL0     C81048  12.272   9.918   2.414 -1.0036  0.1908  0.5501
  588MOL0     C81049  12.286   9.770   2.371  0.3275 -0.6514 -0.1231
  588MOL0     C81050  12.309   9.683   2.493 -0.1424  0.2003  0.2290
  588MOL0    Cl81051  12.308   9.505   2.444 -0.5345 -0.1047 -0.4394
  588MOL0     C81052  12.216   9.834   1.567  0.6374 -0.2100 -0.2483
  588MOL0     C81053  12.289   9.899   1.465  0.1957  0.2902  0.0150
  588MOL0     O81054  12.666  10.055   1.471  0.4209 -0.2549  0.0836
  588MOL0     C81055  12.533  10.140   1.149 -0.3709  0.5335  0.8055
  588MOL0     C81056  12.564  10.197   1.029  0.6610 -0.5383 -0.4308
  588MOL0     N81057  12.432  10.380   0.303 -0.0066 -0.6651  0.1685
  588MOL0     N81058  12.359  10.330   0.216  0.1144 -0.4504 -0.3520
  588MOL0     C81059  11.516  10.026   0.473 -0.1559  0.3370 -0.3249
  588MOL0     C81060  11.483  10.123   0.577  0.3431 -0.4584 -0.5217
  588MOL0     C81061  11.262  10.448   0.766  0.5031  0.4072  0.8970
  588MOL0     C81062  11.315  10.388   0.882 -0.4341 -0.6044 -0.4111
  588MOL0     C81063  11.270  10.434   1.007  1.1622 -0.1064  0.0200
  588MOL0     C81064  11.174  10.534   1.028  0.0763  0.9950 -0.5878
  588MOL0     O81065  11.129  10.568   1.153  0.5308  0.9459 -0.1615
  588MOL0     C81066  11.100  10.471   1.253 -0.0310  0.2720 -0.0282
  588MOL0     C81067  10.952  10.434   1.259  0.1289  0.2078 -0.1825
  588MOL0     C81068  10.865  10.551   1.313 -0.0776 -0.2860  0.5532
  588MOL0     C81069  10.714  10.521   1.296  0.1536 -0.0544 -0.2650
  588MOL0     C81070  10.670  10.549   1.164 -0.4929 -0.4556  0.1051
  588MOL0     C81071  10.650  10.591   1.054  1.2649 -0.2928 -0.5640
  588MOL0     C81072  11.119  10.588   0.906 -0.0516 -0.3203 -0.1579
  588MOL0     C81073  11.165  10.556   0.785 -0.1848 -0.0661  0.0862
  588MOL0     C81074  11.103  10.614   0.662  0.7559 -0.4733 -0.2321
  588MOL0     H81075  11.491  10.400   0.399  0.4224  0.2670 -1.2864
  588MOL0     H81076  11.521  10.239   0.214  1.1805  2.3110  0.7830
  588MOL0     H81077  11.602  10.091   0.106 -3.0665  2.1439  1.5306
  588MOL0     H81078  11.469   9.980   0.084  1.0013  0.6897 -0.4504
  588MOL0     H81079  11.608   9.801   0.052  0.7802  0.3356 -1.9611
  588MOL0     H81080  11.681   9.924  -0.039  0.4810  1.0005  1.0137
  588MOL0     H81081  11.774   9.839   0.234 -0.4272 -0.9578 -0.3401
  588MOL0     H81082  11.847   9.795   0.074  1.5287  2.2757 -1.1612
  588MOL0     H81083  11.880  10.063   0.049  0.6377  1.5587  1.9404
  588MOL0     H81084  11.884  10.070   0.212 -1.7406  1.5373 -1.2805
  588MOL0     H81085  12.050   9.901   0.039  0.4518  1.5720 -1.3733
  588MOL0     H81086  12.063   9.891   0.222 -1.8781 -2.2470 -1.8790
  588MOL0     H81087  12.127  10.133   0.038  1.0542  0.6544  0.4017
  588MOL0     H81088  12.158  10.124   0.222  0.5424 -0.2354  0.6340
  588MOL0     H81089  12.299   9.955   0.014  0.8813 -2.6660  0.8593
  588MOL0     H81090  12.329   9.943   0.183 -1.2159 -0.8928 -1.0122
  588MOL0     H81091  12.483  10.061   0.034  1.8513  0.7061  0.3361
  588MOL0     H81092  12.357  10.190  -0.005  0.2312 -1.0559 -0.5137
  588MOL0     H81093  12.596  10.109   0.253  0.6664  0.9850  0.4654
  588MOL0     H81094  12.624  10.414   0.492 -1.1404  0.5227 -0.2547
  588MOL0     H81095  12.735  10.328   0.376 -1.3886 -1.0367 -1.4473
  588MOL0     H81096  12.637  10.125   0.508  0.5255 -0.2507 -0.5898
  588MOL0     H81097  12.770  10.224   0.572  0.5028 -0.4090 -1.0899
  588MOL0     H81098  12.477  10.278   0.656 -0.7578 -0.5153  0.2033
  588MOL0     H81099  12.558  10.147   0.735 -2.0187  0.8852  0.9276
  588MOL0     H81100  12.697  10.422   0.733 -1.7939  0.0816 -0.9623
  588MOL0     H81101  12.587  10.403   0.856  1.1580  0.2277  1.7738
  588MOL0     H81102  12.907  10.186   1.069  0.8412  0.0448  0.5526
  588MOL0     H81103  12.968  10.058   1.232 -0.6694  0.7024 -0.1789
  588MOL0     H81104  12.860   9.980   1.337  1.1120 -0.7973 -1.2024
  588MOL0     H81105  12.908  10.140   1.384  1.2782 -1.7344  0.2815
  588MOL0     H81106  12.505  10.070   1.674 -2.0752  2.8741  0.9123
  588MOL0     H81107  12.365   9.955   1.840  1.7976 -0.6782  0.3079
  588MOL0     H81108  12.070   9.975   1.808 -2.1177  0.3646 -1.6077
  588MOL0     H81109  11.964   9.830   1.803 -0.8025  1.4373  0.8376
  588MOL0     H81110  11.947   9.919   2.004 -0.7959 -2.0589  0.7350
  588MOL0     H81111  12.031   9.770   2.028 -0.4521 -0.0942  0.8468
  588MOL0     H81112  12.180  10.043   1.997  1.5230 -1.1308 -1.6981
  588MOL0     H81113  12.253   9.892   2.047 -0.2260 -0.2212  2.9368
  588MOL0     H81114  12.064   9.907   2.249 -1.4221  1.6934  1.8839
  588MOL0     H81115  12.063  10.068   2.199 -0.8067 -0.4216  0.7330
  588MOL0     H81116  12.341   9.982   2.225 -0.1945 -0.3976 -0.0989
  588MOL0     H81117  12.259  10.114   2.322  2.0154 -0.2615  0.1241
  588MOL0     H81118  12.188   9.936   2.483 -0.5145 -2.1982  1.8563
  588MOL0     H81119  12.361   9.949   2.468 -0.9801  0.1137  0.5555
  588MOL0     H81120  12.372   9.769   2.303  0.7726 -1.7019  0.4313
  588MOL0     H81121  12.190   9.743   2.327 -0.6654  1.0097  0.8958
  588MOL0     H81122  12.222   9.697   2.557  0.0296  1.1254  0.2768
  588MOL0     H81123  12.397   9.719   2.548 -0.9594  0.1548  1.6080
  588MOL0     H81124  12.120   9.785   1.566 -1.8315  3.9561  1.9803
  588MOL0     H81125  12.242   9.912   1.368 -3.9625 -0.1998  1.7296
  588MOL0     H81126  12.429  10.128   1.178 -0.3336  0.7466  1.0278
  588MOL0     H81127  12.480  10.216   0.964 -0.4063 -2.0202  0.4475
  588MOL0     H81128  11.513   9.921   0.498 -0.5481  0.1719 -1.0486
  588MOL0     H81129  11.475  10.074   0.674  0.9937  2.0567  0.8845
  588MOL0     H81130  11.392  10.312   0.880  2.1662  1.8356  0.1479
  588MOL0     H81131  11.317  10.377   1.086 -1.2128 -2.4586 -0.1219
  588MOL0     H81132  11.149  10.377   1.228  0.5970  0.4982  0.3406
  588MOL0     H81133  11.138  10.509   1.348  0.4074  0.1519 -0.1553
  588MOL0     H81134  10.941  10.352   1.330 -3.8939 -0.5906 -1.4523
  588MOL0     H81135  10.913  10.406   1.160 -0.7935 -1.2826  0.5700
  588MOL0     H81136  10.890  10.563   1.419  2.3807  0.1875 -0.0094
  588MOL0     H81137  10.878  10.650   1.269 -3.4868  0.0766  0.1218
  588MOL0     H81138  10.667  10.587   1.370  2.1460  0.2606  0.7810
  588MOL0     H81139  10.690  10.420   1.331 -2.2019  1.5415  3.3029
  588MOL0     H81140  10.639  10.632   0.955  1.2542 -0.0806 -0.4764
  588MOL0     H81141  11.046  10.666   0.924  1.8475  1.1444  1.6051
  588MOL0     H81142  11.020  10.683   0.681  1.4760  0.4078 -0.1992
  588MOL0     H81143  11.174  10.676   0.607 -0.3823  0.9989 -0.1009
  588MOL0     H81144  11.055  10.543   0.594 -0.6058  1.7942 -1.7834
  589MOL0     O81145   5.242   4.254   1.533 -0.0562 -0.2526  0.1366
  589MOL0     C81146   5.179   4.329   1.601  0.0490 -0.1073  0.5033
  589MOL0     O81147   5.167   4.314   1.735  0.0094  0.0102 -0.5638
  589MOL0     C81148   5.258   4.233   1.801 -0.2592  0.3582 -0.1975
  589MOL0     C81149   5.264   4.096   1.765  0.0848  0.6228 -0.4177
  589MOL0     C81150   5.351   4.019   1.842  0.7737 -0.1866  0.1268
  589MOL0     C81151   5.435   4.060   1.952  0.0805 -0.6113  0.1315
  589MOL0     O81152   5.512   3.978   2.020 -0.8116  0.3976 -0.5744
  589MOL0     C81153   5.648   3.980   1.974  0.2320  0.2267 -0.7981
  589MOL0     C81154   5.715   3.848   2.018 -0.6944  0.5077  0.4216
  589MOL0     C81155   5.863   3.855   1.982  0.1384 -0.9556  0.4845
  589MOL0     C81156   5.903   3.828   1.838  0.3622  0.7735  0.5016
  589MOL0     C81157   6.048   3.814   1.829 -0.2282 -0.9096 -0.1914
  589MOL0     C81158   6.091   3.811   1.680  0.2117  0.0192 -0.0812
  589MOL0     C81159   6.249   3.775   1.668  1.2219  0.4470  0.1404
  589MOL0     C81160   6.285   3.633   1.677 -0.1944  0.0952  0.3010
  589MOL0     N81161   6.417   3.602   1.610  0.0675 -0.6298  0.0886
  589MOL0     C81162   6.539   3.605   1.674 -0.4723 -0.8089  0.5610
  589MOL0     C81163   6.630   3.575   1.578  0.4580 -0.9630 -0.0586
  589MOL0     C81164   6.773   3.554   1.604  0.3750 -0.5016 -0.6380
  589MOL0     C81165   6.861   3.605   1.486 -0.2567  0.0224 -0.3868
  589MOL0     C81166   7.007   3.562   1.511 -0.7752  1.1834  0.2327
  589MOL0     C81167   7.121   3.604   1.416 -0.2502  0.5040  0.7203
  589MOL0     O81168   7.089   3.557   1.283 -1.3011  0.6545  0.8620
  589MOL0     C81169   7.186   3.584   1.185  0.0940 -0.7587 -0.2585
  589MOL0     C81170   7.152   3.547   1.052  0.2688 -0.5565  0.6624
  589MOL0     C81171   7.225   3.570   0.937 -0.6465  0.4110  0.0720
  589MOL0     C81172   7.168   3.515   0.816 -0.5048  0.4957 -0.0401
  589MOL0     C81173   7.353   3.631   0.960  0.6281  0.6068  0.0229
  589MOL0     C81174   7.442   3.675   0.846  0.7055  0.0814  0.4547
  589MOL0     O81175   7.387   3.686   0.716 -0.1215  0.5043  0.1183
  589MOL0     C81176   7.404   3.794   0.629  0.4387 -0.3735  0.4602
  589MOL0     C81177   7.478   3.907   0.659  0.9202  0.2962 -0.7354
  589MOL0     C81178   7.479   4.009   0.565 -0.1586  0.6333 -0.3000
  589MOL0     C81179   7.423   3.999   0.438  0.1734  0.1355 -0.2981
  589MOL0     O81180   7.428   4.097   0.337  0.6833  0.5513 -0.2502
  589MOL0     C81181   7.462   4.227   0.381  0.3557  0.4002  0.8985
  589MOL0     C81182   7.604   4.271   0.337 -0.0657  0.6768  0.2997
  589MOL0     C81183   7.643   4.402   0.396 -0.7009  0.1609 -0.1012
  589MOL0     C81184   7.792   4.431   0.386 -0.1401 -0.3064  0.5212
  589MOL0     C81185   7.840   4.571   0.409  0.1655  0.3717 -0.0636
  589MOL0     C81186   7.970   4.615   0.324  0.1153  1.1847 -0.4352
  589MOL0     C81187   8.075   4.688   0.417  0.4357  0.3602  0.1417
  589MOL0     C81188   8.025   4.825   0.462  0.1212 -0.7734 -0.7701
  589MOL0    Cl81189   8.156   4.898   0.561  0.3746  0.0343  0.2051
  589MOL0     C81190   7.349   3.884   0.414 -1.0594  0.0369  0.1916
  589MOL0     C81191   7.342   3.780   0.503 -0.1423  0.3380 -0.2526
  589MOL0     O81192   7.548   3.718   0.875  0.5507 -0.1657 -0.2268
  589MOL0     C81193   7.388   3.673   1.086 -0.4189  0.3532 -0.3782
  589MOL0     C81194   7.311   3.642   1.205 -0.6387 -0.0581 -0.4996
  589MOL0     N81195   6.556   3.556   1.462  0.2265  0.1684  0.0659
  589MOL0     N81196   6.428   3.564   1.481  0.4411 -0.3775 -0.2340
  589MOL0     C81197   5.428   4.192   1.979  0.9716 -0.0766 -0.3230
  589MOL0     C81198   5.339   4.280   1.902 -0.7770 -0.5194 -0.7711
  589MOL0     C81199   5.078   4.415   1.539  0.2061  0.1479  1.4738
  589MOL0     C81200   4.965   4.454   1.612  0.2619  0.1105 -0.0352
  589MOL0     C81201   4.868   4.544   1.563  0.6083 -0.4979  0.8008
  589MOL0     C81202   4.875   4.585   1.423 -0.7729 -0.4276 -1.3928
  589MOL0     O81203   4.777   4.657   1.367 -0.1000  0.2864 -1.0665
  589MOL0     C81204   4.694   4.740   1.450  0.1614  0.0037  0.4998
  589MOL0     C81205   4.565   4.758   1.382 -0.3150 -0.7677 -0.2879
  589MOL0     C81206   4.574   4.840   1.246  0.6053  0.4002 -0.2697
  589MOL0     C81207   4.433   4.890   1.213 -0.4881  0.3294  0.3537
  589MOL0     C81208   4.408   5.024   1.261  0.3656 -0.2549  0.3222
  589MOL0     C81209   4.375   5.139   1.285 -0.2827  0.5312 -0.6556
  589MOL0     C81210   4.984   4.537   1.345  0.5215 -0.6271  0.6317
  589MOL0     C81211   5.081   4.459   1.403 -0.1406  0.1689  0.0025
  589MOL0     C81212   5.209   4.448   1.320 -0.1944  0.0685 -0.0079
  589MOL0     H81213   5.198   4.057   1.688 -0.3083 -1.6676  1.0227
  589MOL0     H81214   5.371   3.915   1.818  2.5141  0.5399 -1.9274
  589MOL0     H81215   5.696   4.069   2.015 -3.1818  2.5932 -1.5934
  589MOL0     H81216   5.657   3.989   1.866  1.7212  3.1047 -0.5237
  589MOL0     H81217   5.724   3.837   2.127 -1.0602  0.0084  0.4009
  589MOL0     H81218   5.664   3.760   1.977  1.5325 -0.1394 -1.1589
  589MOL0     H81219   5.901   3.956   1.999 -2.1571  0.7000 -2.9768
  589MOL0     H81220   5.917   3.790   2.053  0.0540 -2.5645 -0.8518
  589MOL0     H81221   5.855   3.732   1.819 -2.1958  1.9668  0.5967
  589MOL0     H81222   5.870   3.906   1.769  1.2380 -0.4379 -1.3648
  589MOL0     H81223   6.078   3.717   1.870  0.8635 -0.9950 -1.1375
  589MOL0     H81224   6.090   3.898   1.886  1.2374 -1.6440 -0.1453
  589MOL0     H81225   6.031   3.751   1.610  2.2111  0.4583 -2.3040
  589MOL0     H81226   6.088   3.916   1.650  1.4420  0.2899  0.6919
  589MOL0     H81227   6.310   3.834   1.737  1.8261  1.0530 -0.8871
  589MOL0     H81228   6.282   3.815   1.572 -0.8235  3.0321  0.3976
  589MOL0     H81229   6.290   3.596   1.780  1.8616 -2.3058 -0.5614
  589MOL0     H81230   6.206   3.580   1.623  0.9563 -1.9589  0.5294
  589MOL0     H81231   6.561   3.605   1.780  0.4180 -1.7374  0.4002
  589MOL0     H81232   6.801   3.450   1.623  0.2253 -0.6651 -1.3241
  589MOL0     H81233   6.803   3.607   1.696  0.0047  0.1531 -0.8879
  589MOL0     H81234   6.818   3.569   1.392 -3.0872  0.6301  0.5880
  589MOL0     H81235   6.852   3.714   1.483 -0.2289  0.0197 -2.8331
  589MOL0     H81236   7.029   3.596   1.613  0.2724  4.5523 -0.9791
  589MOL0     H81237   7.012   3.453   1.519 -1.1109  1.1760  0.3576
  589MOL0     H81238   7.151   3.710   1.418  0.4426  0.3812 -1.0232
  589MOL0     H81239   7.212   3.558   1.453  1.3637  2.0031 -1.1552
  589MOL0     H81240   7.056   3.501   1.031 -0.8831  1.1972  1.7332
  589MOL0     H81241   7.117   3.589   0.753 -1.6303 -0.7132 -0.5867
  589MOL0     H81242   7.107   3.425   0.828  0.2992 -0.1258 -0.5152
  589MOL0     H81243   7.256   3.490   0.756 -0.9465  3.2893 -2.0414
  589MOL0     H81244   7.535   3.914   0.751  0.6248  1.7477 -0.6408
  589MOL0     H81245   7.540   4.097   0.584 -0.3030  1.2779 -2.5484
  589MOL0     H81246   7.385   4.282   0.327  0.2984 -1.5440 -1.1513
  589MOL0     H81247   7.435   4.239   0.486 -0.5322 -1.1237  0.8739
  589MOL0     H81248   7.669   4.189   0.369  0.5444  1.7493  1.8910
  589MOL0     H81249   7.623   4.279   0.229 -0.4994  3.6997  0.3635
  589MOL0     H81250   7.600   4.402   0.497  1.3943 -1.7051  0.8801
  589MOL0     H81251   7.599   4.481   0.333 -1.8012  1.8358  2.5682
  589MOL0     H81252   7.823   4.399   0.287 -1.5559  0.9186 -0.3524
  589MOL0     H81253   7.849   4.368   0.456  3.6887  0.3131 -1.7475
  589MOL0     H81254   7.768   4.638   0.362 -0.7698 -1.5006 -1.4464
  589MOL0     H81255   7.846   4.588   0.517 -1.7099 -2.0080  0.5152
  589MOL0     H81256   7.929   4.682   0.247 -3.1515  2.5168  2.1975
  589MOL0     H81257   8.014   4.532   0.270  0.9621  0.8744  0.7001
  589MOL0     H81258   8.171   4.702   0.366 -0.1574  0.6229 -0.9355
  589MOL0     H81259   8.093   4.633   0.510  1.0483 -2.4835 -1.5352
  589MOL0     H81260   7.939   4.807   0.528 -1.0355 -0.5149 -2.1566
  589MOL0     H81261   7.995   4.891   0.381 -1.2794  0.3202  0.5719
  589MOL0     H81262   7.305   3.867   0.317 -2.8227 -2.0160  1.2711
  589MOL0     H81263   7.285   3.696   0.466  0.2508 -0.1081  0.1396
  589MOL0     H81264   7.477   3.731   1.104 -0.0743 -0.1126 -0.5428
  589MOL0     H81265   7.347   3.684   1.298  1.2564  0.6469 -1.4918
  589MOL0     H81266   5.484   4.236   2.061 -1.3803  2.5795 -0.0004
  589MOL0     H81267   5.335   4.381   1.942  0.3262 -1.5754  2.2463
  589MOL0     H81268   4.956   4.426   1.717  1.3105  1.4053  0.4362
  589MOL0     H81269   4.794   4.559   1.641  0.5821 -0.9473  0.8606
  589MOL0     H81270   4.674   4.689   1.544  2.2180 -3.4221 -0.7331
  589MOL0     H81271   4.752   4.833   1.459  2.7759 -0.8938 -3.8975
  589MOL0     H81272   4.502   4.805   1.458  1.4540  0.0698  0.7277
  589MOL0     H81273   4.512   4.664   1.364 -1.0731  0.0602 -2.8304
  589MOL0     H81274   4.638   4.925   1.269 -0.3780  1.0521  0.0818
  589MOL0     H81275   4.626   4.774   1.175  0.0638  0.0625 -0.3592
  589MOL0     H81276   4.352   4.826   1.246 -2.8195  2.8752 -0.0697
  589MOL0     H81277   4.426   4.889   1.103  1.9336  1.6776  0.0939
  589MOL0     H81278   4.340   5.237   1.312 -1.6775 -0.3317  0.8615
  589MOL0     H81279   4.980   4.556   1.238 -0.9426 -1.2664  0.5457
  589MOL0     H81280   5.225   4.340   1.309 -2.7105 -0.3884  0.2541
  589MOL0     H81281   5.190   4.493   1.223 -1.2143  0.2474  0.2637
  589MOL0     H81282   5.293   4.500   1.366  0.0436  0.5579 -0.9755
  590MOL0     O81283   0.879   6.845   7.344 -0.3060  0.6934 -0.1655
  590MOL0     C81284   0.790   6.930   7.347  0.8289 -0.3325 -0.2938
  590MOL0     O81285   0.787   7.051   7.283 -0.6880  0.1824  0.4234
  590MOL0     C81286   0.915   7.108   7.275  0.5106 -0.2794  0.1710
  590MOL0     C81287   0.936   7.203   7.176  0.9470 -0.0871  0.1184
  590MOL0     C81288   1.051   7.282   7.157 -0.1540 -0.0190 -0.9449
  590MOL0     C81289   1.158   7.257   7.246 -0.0230 -0.6520  0.5287
  590MOL0     O81290   1.283   7.324   7.237 -0.4333  0.7281 -0.1061
  590MOL0     C81291   1.307   7.428   7.147  0.4721  0.4030 -0.8344
  590MOL0     C81292   1.447   7.488   7.171  1.1055 -0.2796  0.2613
  590MOL0     C81293   1.447   7.561   7.304 -0.2952 -0.2080 -0.0339
  590MOL0     C81294   1.552   7.669   7.325  0.1535  0.1479  0.1477
  590MOL0     C81295   1.561   7.694   7.468 -0.5347  0.5190 -0.8314
  590MOL0     C81296   1.647   7.811   7.493  0.5480 -0.5733 -0.0212
  590MOL0     C81297   1.792   7.787   7.496  0.5065  0.6879 -0.4518
  590MOL0     C81298   1.875   7.919   7.520  0.4354 -0.3424  0.3853
  590MOL0     N81299   2.016   7.885   7.518 -0.7456 -0.5719 -0.1618
  590MOL0     C81300   2.089   7.863   7.404 -0.5821 -1.0143  0.0924
  590MOL0     C81301   2.212   7.832   7.451 -0.3988 -0.4497  0.3482
  590MOL0     C81302   2.330   7.780   7.370 -1.0852 -0.8549 -0.2188
  590MOL0     C81303   2.445   7.898   7.338 -0.0608  0.8778 -0.5599
  590MOL0     C81304   2.520   7.945   7.463  0.6445 -0.7378  0.2070
  590MOL0     C81305   2.611   7.831   7.499  0.2488 -0.2541 -0.5700
  590MOL0     O81306   2.703   7.859   7.606 -0.2669  0.3028 -0.1850
  590MOL0     C81307   2.799   7.957   7.594  0.2206  0.1375  0.6299
  590MOL0     C81308   2.855   8.012   7.476 -0.0148  0.6418  0.6327
  590MOL0     C81309   2.944   8.118   7.479 -0.2490  0.4896 -0.9852
  590MOL0     C81310   3.015   8.165   7.355 -0.2724  0.2431 -0.5213
  590MOL0     C81311   2.983   8.174   7.603  0.1325 -0.1929 -0.0042
  590MOL0     C81312   3.064   8.301   7.620  0.6417 -0.1029 -0.0164
  590MOL0     O81313   3.142   8.315   7.730 -0.3140  0.0824 -0.0748
  590MOL0     C81314   3.253   8.400   7.727  0.3108  0.2828  0.9893
  590MOL0     C81315   3.362   8.360   7.642  0.5157  1.0671  0.3908
  590MOL0     C81316   3.471   8.442   7.622 -0.3419 -0.2328  0.3718
  590MOL0     C81317   3.478   8.573   7.677  0.2331  0.0050  0.2761
  590MOL0     O81318   3.568   8.668   7.643  0.0976  1.2925 -0.0605
  590MOL0     C81319   3.690   8.635   7.579  0.9688  1.2267 -0.5979
  590MOL0     C81320   3.775   8.755   7.534  0.3337  0.5717 -0.1548
  590MOL0     C81321   3.691   8.861   7.446  0.1375  0.6680  0.0241
  590MOL0     C81322   3.770   8.996   7.425  0.1571 -0.7334  0.3905
  590MOL0     C81323   3.695   9.097   7.340  0.3200  0.7329 -0.1750
  590MOL0     C81324   3.770   9.223   7.317  0.6039  0.9201 -0.3803
  590MOL0     C81325   3.685   9.321   7.240 -0.4241 -1.4168 -0.1389
  590MOL0     C81326   3.752   9.466   7.257  0.3593  0.5472 -0.3575
  590MOL0    Cl81327   3.734   9.547   7.419  0.2224 -0.3807 -0.2125
  590MOL0     C81328   3.366   8.619   7.759 -0.5390  0.2698  0.5131
  590MOL0     C81329   3.259   8.527   7.781 -0.2387  0.7778 -0.5863
  590MOL0     O81330   3.067   8.379   7.528  0.1555 -0.8062  1.1440
  590MOL0     C81331   2.921   8.128   7.722 -0.2009 -1.1049 -0.4583
  590MOL0     C81332   2.837   8.010   7.717 -0.7650  0.2369 -0.1270
  590MOL0     N81333   2.207   7.847   7.585 -0.3917  0.4787 -0.0712
  590MOL0     N81334   2.095   7.872   7.625  0.5494  0.1503 -0.2094
  590MOL0     C81335   1.146   7.160   7.348 -0.4480  0.0847 -0.4187
  590MOL0     C81336   1.021   7.090   7.371  0.4096 -0.9095  0.0564
  590MOL0     C81337   0.666   6.887   7.406  0.4760 -0.7193 -0.2288
  590MOL0     C81338   0.548   6.944   7.343 -0.2450 -0.8746 -0.5224
  590MOL0     C81339   0.421   6.891   7.367  0.0839  0.2452 -1.5469
  590MOL0     C81340   0.408   6.793   7.469 -1.1794 -0.0797  0.0667
  590MOL0     O81341   0.280   6.751   7.488 -0.1334 -0.3491  0.0125
  590MOL0     C81342   0.249   6.679   7.608  0.3380  0.8688 -0.3359
  590MOL0     C81343   0.100   6.661   7.635  0.4994  0.2817 -0.6684
  590MOL0     C81344   0.057   6.771   7.738 -0.3703  1.0099  0.4842
  590MOL0     C81345  -0.095   6.794   7.754 -0.7435  0.0950  0.2348
  590MOL0     C81346  -0.171   6.680   7.778  0.2621  0.6153  0.1931
  590MOL0     C81347  -0.235   6.578   7.798  0.4832  0.1427  0.2048
  590MOL0     C81348   0.529   6.740   7.520  0.5282 -0.0114  0.3619
  590MOL0     C81349   0.656   6.782   7.498 -0.0331 -1.0206  0.4401
  590MOL0     C81350   0.771   6.714   7.570  0.0988  0.2430  0.6721
  590MOL0     H81351   0.855   7.220   7.107  1.0589  1.1323  0.2685
  590MOL0     H81352   1.074   7.360   7.085  1.2326  0.4112 -0.0872
  590MOL0     H81353   1.227   7.502   7.151 -1.1146 -1.3310  1.9159
  590MOL0     H81354   1.305   7.386   7.046  2.4234  2.9657 -2.0619
  590MOL0     H81355   1.516   7.404   7.159 -0.1393 -1.6550  2.1343
  590MOL0     H81356   1.470   7.557   7.089 -0.8746  0.5433  0.3500
  590MOL0     H81357   1.348   7.602   7.325 -0.1325 -1.5017  4.2140
  590MOL0     H81358   1.466   7.487   7.382  1.4890 -0.2406 -0.4559
  590MOL0     H81359   1.641   7.625   7.278 -0.5152  0.9785 -2.0362
  590MOL0     H81360   1.523   7.762   7.275 -2.3517 -0.1465  0.9462
  590MOL0     H81361   1.610   7.611   7.520  1.2592  2.3904  0.5951
  590MOL0     H81362   1.461   7.708   7.511 -1.1992 -2.6177 -1.1037
  590MOL0     H81363   1.619   7.896   7.431  4.7679  0.5801 -0.6874
  590MOL0     H81364   1.621   7.839   7.595 -1.8095  2.5690 -1.3308
  590MOL0     H81365   1.821   7.732   7.406  1.6852  1.9108 -0.8619
  590MOL0     H81366   1.831   7.728   7.579  1.1775 -0.7034 -1.7023
  590MOL0     H81367   1.857   7.985   7.435 -2.3797 -2.1142 -0.5309
  590MOL0     H81368   1.838   7.961   7.614  0.7334  0.4856  0.1429
  590MOL0     H81369   2.050   7.868   7.303  1.0584  2.2186 -0.5293
  590MOL0     H81370   2.286   7.748   7.275  2.2954 -0.8321 -1.9496
  590MOL0     H81371   2.373   7.694   7.422  0.8661  1.4025  2.1827
  590MOL0     H81372   2.517   7.870   7.260 -0.9602 -0.0934 -1.0770
  590MOL0     H81373   2.398   7.985   7.291  1.2289  2.5448  1.1189
  590MOL0     H81374   2.586   8.025   7.429  3.3924 -1.4543  3.2913
  590MOL0     H81375   2.451   7.978   7.542 -2.0856 -0.6329 -2.0605
  590MOL0     H81376   2.559   7.742   7.537  3.2157 -2.0925 -0.4563
  590MOL0     H81377   2.672   7.804   7.412  2.0780  1.7423  0.0101
  590MOL0     H81378   2.834   7.969   7.379  0.1715  6.2543 -2.3003
  590MOL0     H81379   3.011   8.087   7.278  2.5205  0.8401 -1.3882
  590MOL0     H81380   3.121   8.185   7.375 -0.3428  1.6690 -1.4515
  590MOL0     H81381   2.968   8.258   7.321 -0.2047  0.7063  0.6159
  590MOL0     H81382   3.363   8.260   7.600  0.9004  1.7107 -1.2231
  590MOL0     H81383   3.544   8.395   7.558 -0.9801 -1.7668  0.7182
  590MOL0     H81384   3.748   8.557   7.628  0.2124  0.2225 -1.2665
  590MOL0     H81385   3.657   8.586   7.487 -1.8343  2.2622 -0.2477
  590MOL0     H81386   3.802   8.805   7.628 -2.2045 -0.7235  1.3558
  590MOL0     H81387   3.861   8.720   7.477  1.9578  3.6608  0.1463
  590MOL0     H81388   3.603   8.886   7.506  1.4487 -0.7650  2.7630
  590MOL0     H81389   3.662   8.819   7.349  2.5309  0.5754 -0.7156
  590MOL0     H81390   3.870   8.975   7.386 -1.1164 -1.7673 -2.6297
  590MOL0     H81391   3.797   9.038   7.523  4.2592 -0.4989 -0.6710
  590MOL0     H81392   3.681   9.060   7.238 -2.4760  0.1621  0.3303
  590MOL0     H81393   3.601   9.122   7.389  0.6522  0.4398  0.6338
  590MOL0     H81394   3.858   9.191   7.260  1.2473 -2.3852  2.1666
  590MOL0     H81395   3.808   9.261   7.413  1.0219  1.1049 -0.6158
  590MOL0     H81396   3.581   9.316   7.275 -0.6192 -1.6623 -0.7373
  590MOL0     H81397   3.680   9.293   7.134  1.2746 -0.3674 -0.5323
  590MOL0     H81398   3.710   9.534   7.183  0.0831  0.0067 -0.7115
  590MOL0     H81399   3.860   9.460   7.238  0.4492  0.6270  0.1337
  590MOL0     H81400   3.356   8.722   7.794  3.3188  1.3876 -1.1431
  590MOL0     H81401   3.172   8.554   7.840  0.3910 -2.2101  1.9905
  590MOL0     H81402   2.963   8.163   7.816  0.5867 -1.2559 -0.7455
  590MOL0     H81403   2.803   7.948   7.800 -1.1696 -2.1747 -2.0078
  590MOL0     H81404   1.226   7.154   7.422 -2.3185 -1.3527  1.6334
  590MOL0     H81405   1.004   7.025   7.457  0.7128 -2.9755 -1.3795
  590MOL0     H81406   0.548   7.031   7.278 -2.2515 -1.7510 -1.7839
  590MOL0     H81407   0.337   6.925   7.307 -0.4202 -1.0432 -1.6071
  590MOL0     H81408   0.284   6.575   7.602 -1.6751 -0.2283  3.4078
  590MOL0     H81409   0.286   6.724   7.700  2.0425 -2.3920  0.7243
  590MOL0     H81410   0.087   6.560   7.674  1.0375 -0.5670 -2.5313
  590MOL0     H81411   0.031   6.664   7.550 -0.1604  0.4250 -0.1386
  590MOL0     H81412   0.086   6.735   7.837  1.8281 -1.4933 -0.9243
  590MOL0     H81413   0.109   6.864   7.714  1.1378 -0.4562 -2.4228
  590MOL0     H81414  -0.137   6.826   7.658  0.3549 -2.2165 -1.0901
  590MOL0     H81415  -0.108   6.866   7.836  0.3554  3.6402 -2.4537
  590MOL0     H81416  -0.301   6.498   7.826  1.0758 -0.9590 -1.3954
  590MOL0     H81417   0.515   6.661   7.593 -0.2636 -1.2423 -1.0607
  590MOL0     H81418   0.735   6.647   7.648 -3.0713  1.5918  0.5182
  590MOL0     H81419   0.824   6.646   7.502 -2.4252 -1.0228 -0.1671
  590MOL0     H81420   0.842   6.786   7.612 -0.6796  1.8073 -0.5932
  591MOL0     O81421   3.935   7.678   4.945 -1.0414  0.1061  0.0620
  591MOL0     C81422   3.879   7.706   4.843  0.0327 -0.3847 -0.4590
  591MOL0     O81423   3.919   7.797   4.747 -1.1918  0.2567  0.0583
  591MOL0     C81424   4.049   7.841   4.765 -1.3617  0.4387  0.1557
  591MOL0     C81425   4.164   7.762   4.750  0.0381  1.2999 -0.5070
  591MOL0     C81426   4.292   7.814   4.766 -0.5709 -0.1703 -0.2629
  591MOL0     C81427   4.304   7.950   4.809 -0.2989 -0.0038 -0.2333
  591MOL0     O81428   4.429   7.995   4.830  0.3175 -0.6431  0.0612
  591MOL0     C81429   4.456   8.133   4.824 -0.4993  0.8614  0.2566
  591MOL0     C81430   4.609   8.158   4.806  0.1357  0.3039 -0.0889
  591MOL0     C81431   4.701   8.096   4.924  0.5254 -0.1360 -0.0660
  591MOL0     C81432   4.699   8.195   5.045 -0.5274 -0.0098 -0.0524
  591MOL0     C81433   4.794   8.316   5.029  0.3339  0.0893  0.9213
  591MOL0     C81434   4.807   8.409   5.156  0.1782 -0.3893  0.6006
  591MOL0     C81435   4.944   8.387   5.236  1.0503 -0.1009 -0.5098
  591MOL0     C81436   4.951   8.488   5.353  0.7491 -0.4767 -0.1855
  591MOL0     N81437   5.082   8.481   5.409 -1.0243  0.8912 -0.0189
  591MOL0     C81438   5.110   8.477   5.544  1.0879 -0.7213  0.0467
  591MOL0     C81439   5.230   8.529   5.556  0.0544 -0.1693 -0.4136
  591MOL0     C81440   5.299   8.563   5.686 -0.6389  0.1711  1.3209
  591MOL0     C81441   5.363   8.435   5.749  0.1643 -0.0943  0.1310
  591MOL0     C81442   5.503   8.390   5.689 -0.0519 -0.4626 -0.7434
  591MOL0     C81443   5.602   8.509   5.715  0.9097  0.3634  0.0621
  591MOL0     O81444   5.739   8.466   5.746  0.0252  0.4918 -0.2109
  591MOL0     C81445   5.832   8.559   5.775 -0.8203 -0.8032 -0.7336
  591MOL0     C81446   5.808   8.696   5.772 -0.6993  0.0635 -0.1360
  591MOL0     C81447   5.906   8.792   5.809 -0.9385 -0.9332  1.4853
  591MOL0     C81448   5.840   8.931   5.833  0.2708  0.0021 -0.1364
  591MOL0     C81449   6.034   8.752   5.838 -0.5999  1.1316  0.1552
  591MOL0     C81450   6.151   8.846   5.867 -0.1104  0.6077 -0.4179
  591MOL0     O81451   6.128   8.976   5.852  0.0954 -0.1632  0.7080
  591MOL0     C81452   6.226   9.069   5.867 -0.2155 -0.1075  0.1079
  591MOL0     C81453   6.200   9.194   5.931  0.2944  0.4259 -1.2194
  591MOL0     C81454   6.300   9.282   5.953 -1.3691  0.0484  0.8133
  591MOL0     C81455   6.425   9.258   5.887  0.0691 -0.2760  0.1968
  591MOL0     O81456   6.526   9.350   5.887 -0.1717 -0.5627  0.7281
  591MOL0     C81457   6.546   9.436   5.998  0.0235  0.1182  0.6931
  591MOL0     C81458   6.679   9.525   5.978  0.0945 -0.4123 -0.1860
  591MOL0     C81459   6.799   9.435   5.976 -0.5839 -0.0986  0.2744
  591MOL0     C81460   6.822   9.349   6.097  0.1429  0.4779 -0.7270
  591MOL0     C81461   6.969   9.291   6.110 -0.2608  0.4027  0.4470
  591MOL0     C81462   6.968   9.150   6.175  0.6786  0.0118  0.1426
  591MOL0     C81463   7.108   9.084   6.172  0.2702 -0.4609  0.2042
  591MOL0     C81464   7.133   8.960   6.247 -0.3688 -0.0945  0.0097
  591MOL0    Cl81465   7.050   8.808   6.175 -0.1775  0.2977 -0.4870
  591MOL0     C81466   6.445   9.147   5.808 -0.7767 -0.4229 -0.5655
  591MOL0     C81467   6.349   9.051   5.805 -0.0029  0.3315  0.6012
  591MOL0     O81468   6.259   8.804   5.907  0.1108 -0.4914  0.3689
  591MOL0     C81469   6.067   8.611   5.823 -0.1753  0.3439  0.5032
  591MOL0     C81470   5.961   8.517   5.806 -0.1122  0.7590 -0.6706
  591MOL0     N81471   5.282   8.551   5.431  0.1778  0.0025 -0.2711
  591MOL0     N81472   5.185   8.537   5.346  0.4523 -0.6278  0.0793
  591MOL0     C81473   4.192   8.021   4.854 -0.3321 -0.1553  0.1233
  591MOL0     C81474   4.062   7.966   4.827  0.4803 -0.0120 -0.0996
  591MOL0     C81475   3.732   7.650   4.835  0.4175  0.2085  0.8545
  591MOL0     C81476   3.642   7.720   4.745 -0.8489 -0.0682 -0.0629
  591MOL0     C81477   3.519   7.685   4.721  0.2696  0.3830 -0.1661
  591MOL0     C81478   3.459   7.575   4.793  0.6828 -0.1573 -0.1557
  591MOL0     O81479   3.321   7.557   4.786 -0.3617 -0.3715 -0.1526
  591MOL0     C81480   3.245   7.630   4.690 -0.3247 -0.0893  0.1911
  591MOL0     C81481   3.101   7.570   4.687  0.3411  0.5769  0.0259
  591MOL0     C81482   3.020   7.618   4.818 -1.0575  1.2685  0.5961
  591MOL0     C81483   2.877   7.568   4.812  0.0364  0.4433 -0.6935
  591MOL0     C81484   2.872   7.420   4.812  0.1264  0.1753  0.1242
  591MOL0     C81485   2.863   7.303   4.830  0.0813 -0.0399 -1.0287
  591MOL0     C81486   3.534   7.514   4.881  0.3181  0.4934 -0.4487
  591MOL0     C81487   3.668   7.550   4.913  0.6709 -1.2839 -0.5397
  591MOL0     C81488   3.735   7.467   5.011 -0.3039 -0.3173  0.6562
  591MOL0     H81489   4.160   7.654   4.746 -0.6181  1.2398  0.9249
  591MOL0     H81490   4.376   7.745   4.764  0.0907  0.6213 -0.1714
  591MOL0     H81491   4.424   8.179   4.918 -0.2307  0.9553  0.3029
  591MOL0     H81492   4.405   8.170   4.735 -0.0725 -0.8866 -0.7457
  591MOL0     H81493   4.646   8.121   4.710 -1.0025 -1.7810  0.2202
  591MOL0     H81494   4.622   8.267   4.814 -2.6974  0.5908  2.2611
  591MOL0     H81495   4.652   8.001   4.949 -3.6692  1.4740 -1.2503
  591MOL0     H81496   4.802   8.090   4.885  0.9828  0.2607  1.0203
  591MOL0     H81497   4.599   8.239   5.048 -0.1986  0.7823  2.6758
  591MOL0     H81498   4.712   8.142   5.140  1.8856 -0.1994 -0.4437
  591MOL0     H81499   4.750   8.374   4.948  0.5083 -0.2198  0.6025
  591MOL0     H81500   4.894   8.277   5.006  0.4061  0.9146 -0.2655
  591MOL0     H81501   4.797   8.511   5.120  0.3225 -0.7603 -0.5340
  591MOL0     H81502   4.725   8.376   5.221  0.9257  0.3663  1.9740
  591MOL0     H81503   5.029   8.394   5.168  0.1930 -1.0207 -1.7165
  591MOL0     H81504   4.958   8.287   5.277 -0.5723 -0.9343 -1.8781
  591MOL0     H81505   4.934   8.592   5.321  2.8468  0.4517  1.4258
  591MOL0     H81506   4.884   8.466   5.436  0.2872 -0.0412 -0.4415
  591MOL0     H81507   5.043   8.448   5.625 -2.5309 -2.5740 -3.2372
  591MOL0     H81508   5.225   8.587   5.763  0.8840 -0.5019  3.0947
  591MOL0     H81509   5.368   8.648   5.685 -1.8348  1.1876 -0.7242
  591MOL0     H81510   5.368   8.456   5.856  0.5586 -2.4530  0.6143
  591MOL0     H81511   5.292   8.356   5.723  0.9052 -1.0257  0.8862
  591MOL0     H81512   5.538   8.302   5.743  4.8532  1.1161 -0.8801
  591MOL0     H81513   5.490   8.354   5.587  1.1405 -2.6336 -0.1776
  591MOL0     H81514   5.602   8.570   5.624  2.1560  1.0072  0.4677
  591MOL0     H81515   5.556   8.570   5.795  0.4491  1.2119 -0.8230
  591MOL0     H81516   5.712   8.743   5.752 -1.4180  0.1257  3.0442
  591MOL0     H81517   5.735   8.917   5.859  0.5109 -0.0844  0.8409
  591MOL0     H81518   5.834   9.001   5.749 -1.5376 -0.0639 -0.1028
  591MOL0     H81519   5.886   8.974   5.923 -0.7815 -0.6312  0.7337
  591MOL0     H81520   6.109   9.207   5.989 -0.1763  2.6178 -2.3240
  591MOL0     H81521   6.285   9.372   6.012  1.2124  0.4587  0.9600
  591MOL0     H81522   6.456   9.497   6.000  0.6631  1.2105 -1.3479
  591MOL0     H81523   6.556   9.384   6.094 -1.0166  0.0554  0.7768
  591MOL0     H81524   6.679   9.577   5.882 -3.4541 -0.0099 -0.1025
  591MOL0     H81525   6.685   9.595   6.062 -0.5749 -1.1479  0.4935
  591MOL0     H81526   6.881   9.507   5.963 -2.5176  2.3074  0.6759
  591MOL0     H81527   6.801   9.373   5.886  0.3249  1.7081 -1.0288
  591MOL0     H81528   6.749   9.268   6.100 -1.4061  1.7723  2.8003
  591MOL0     H81529   6.795   9.404   6.189 -0.2376 -0.9523  0.0425
  591MOL0     H81530   7.020   9.276   6.014 -0.4838  0.5494  0.3051
  591MOL0     H81531   7.033   9.351   6.175 -2.3313  2.5394  0.6166
  591MOL0     H81532   6.896   9.080   6.131  2.3973 -0.7472 -1.6368
  591MOL0     H81533   6.944   9.147   6.282 -1.1689 -3.7227 -0.2115
  591MOL0     H81534   7.179   9.167   6.176 -1.4049  1.4187 -3.5327
  591MOL0     H81535   7.119   9.063   6.065  0.6248 -0.4805  0.2424
  591MOL0     H81536   7.109   8.976   6.353  0.8350  3.0778 -0.1017
  591MOL0     H81537   7.241   8.950   6.231 -0.5536 -0.4392 -1.1510
  591MOL0     H81538   6.540   9.140   5.756  0.3271 -2.2396  1.5486
  591MOL0     H81539   6.355   8.971   5.731 -1.7943 -0.3957  1.1905
  591MOL0     H81540   6.169   8.579   5.840 -0.2412 -0.4709 -0.5534
  591MOL0     H81541   5.988   8.412   5.810 -2.2932  0.0874 -1.9815
  591MOL0     H81542   4.198   8.112   4.913 -3.8853  1.3692 -1.6058
  591MOL0     H81543   3.973   8.017   4.863 -0.1097  0.3305 -1.9592
  591MOL0     H81544   3.680   7.805   4.688 -1.2373 -0.2084 -0.5337
  591MOL0     H81545   3.467   7.734   4.640  0.7690 -1.2299 -1.5222
  591MOL0     H81546   3.237   7.739   4.698 -2.2719 -0.0552 -1.4846
  591MOL0     H81547   3.287   7.605   4.592 -1.2286  2.4806 -0.9181
  591MOL0     H81548   3.102   7.461   4.674  0.1542  0.4899  0.7156
  591MOL0     H81549   3.055   7.615   4.598  0.8834  0.4240 -0.3393
  591MOL0     H81550   3.059   7.573   4.910 -3.0673 -0.7215  0.5631
  591MOL0     H81551   3.018   7.727   4.812 -0.2426  1.3091  0.9114
  591MOL0     H81552   2.824   7.622   4.732 -1.8277  2.4027  1.6903
  591MOL0     H81553   2.832   7.600   4.906  1.5336 -1.2801  0.6737
  591MOL0     H81554   2.850   7.198   4.846 -2.8887  0.6580  2.4400
  591MOL0     H81555   3.488   7.429   4.931  1.7072  0.2745  0.5471
  591MOL0     H81556   3.667   7.390   5.049 -0.1223 -0.6195  0.3718
  591MOL0     H81557   3.818   7.413   4.965  0.6049  1.2375  0.4178
  591MOL0     H81558   3.773   7.525   5.096  1.9910  0.8900 -1.0740
  592MOL0     O81559   7.584   4.725   0.042  0.0123 -0.2080  0.5277
  592MOL0     C81560   7.539   4.756  -0.070 -0.4985  0.3028 -0.1361
  592MOL0     O81561   7.600   4.848  -0.155 -0.1371 -0.3071  0.2495
  592MOL0     C81562   7.719   4.906  -0.125 -0.0577 -0.5445 -0.0144
  592MOL0     C81563   7.721   5.042  -0.172  0.8097  0.3463 -0.6803
  592MOL0     C81564   7.842   5.110  -0.178 -0.2459  0.1208 -0.6072
  592MOL0     C81565   7.953   5.041  -0.126  0.3480 -0.4942 -0.1932
  592MOL0     O81566   8.077   5.105  -0.152  0.3300  0.6322  0.3193
  592MOL0     C81567   8.194   5.022  -0.157 -0.1896 -0.4968  0.4419
  592MOL0     C81568   8.290   5.115  -0.233  0.1603  0.5824  0.1022
  592MOL0     C81569   8.325   5.244  -0.152 -0.1330  0.4328  0.1725
  592MOL0     C81570   8.409   5.330  -0.236  0.0966 -0.1725 -0.9216
  592MOL0     C81571   8.454   5.457  -0.160 -0.2296 -0.7029  0.2777
  592MOL0     C81572   8.481   5.574  -0.252 -0.1666  0.3472  0.2686
  592MOL0     C81573   8.584   5.552  -0.363 -0.2013  0.2151  1.0238
  592MOL0     C81574   8.600   5.683  -0.435  0.4626  0.5266  1.1578
  592MOL0     N81575   8.698   5.667  -0.542  0.3962  0.2031 -0.0765
  592MOL0     C81576   8.822   5.616  -0.515  0.4152  0.0610 -0.3689
  592MOL0     C81577   8.881   5.606  -0.635  0.4081  0.8007  0.0564
  592MOL0     C81578   9.024   5.554  -0.664 -0.1734 -0.1041  0.0251
  592MOL0     C81579   9.130   5.617  -0.580  0.6470 -0.7856 -0.0320
  592MOL0     C81580   9.256   5.536  -0.572 -0.3025 -0.2066  0.6999
  592MOL0     C81581   9.331   5.547  -0.446  0.1033 -0.7912  0.5818
  592MOL0     O81582   9.426   5.440  -0.452  0.4244  0.3588  0.7278
  592MOL0     C81583   9.544   5.452  -0.382  0.5377  0.2104 -0.0017
  592MOL0     C81584   9.567   5.549  -0.280 -0.1170 -0.2011 -1.8702
  592MOL0     C81585   9.688   5.573  -0.218 -0.8159  0.0923  0.1521
  592MOL0     C81586   9.703   5.700  -0.123  0.1422  0.5795  0.0801
  592MOL0     C81587   9.794   5.503  -0.264 -0.3648 -0.0135  0.5400
  592MOL0     C81588   9.924   5.509  -0.196  0.8030  0.3836  0.1415
  592MOL0     O81589   9.986   5.632  -0.187  0.7646  0.6014  0.4653
  592MOL0     C81590  10.115   5.629  -0.149 -0.4154  0.3535  0.0042
  592MOL0     C81591  10.210   5.559  -0.223  0.2468 -0.6288 -0.5169
  592MOL0     C81592  10.343   5.565  -0.190  0.9201 -0.3991  0.0165
  592MOL0     C81593  10.395   5.640  -0.091  0.7255 -0.9568 -0.8096
  592MOL0     O81594  10.531   5.651  -0.070 -0.2000 -0.8395  0.2297
  592MOL0     C81595  10.585   5.702   0.061 -0.5371 -0.2858  0.8372
  592MOL0     C81596  10.612   5.585   0.161  0.7978  0.0532  0.0907
  592MOL0     C81597  10.681   5.634   0.291  0.0467 -0.0470  0.1527
  592MOL0     C81598  10.825   5.690   0.251 -0.0478 -0.2169  0.6286
  592MOL0     C81599  10.928   5.674   0.368  0.0429 -0.1095  0.1960
  592MOL0     C81600  10.903   5.784   0.465 -0.3275 -1.0783  0.5023
  592MOL0     C81601  11.008   5.794   0.576 -0.5346 -0.4080 -0.9045
  592MOL0     C81602  10.991   5.919   0.665 -0.5972  0.7872  0.5555
  592MOL0    Cl81603  10.977   6.068   0.568  0.2019  0.2360  0.3358
  592MOL0     C81604  10.305   5.717  -0.019 -0.9792 -0.2185 -0.1228
  592MOL0     C81605  10.172   5.710  -0.050  0.7582  0.2006 -0.4393
  592MOL0     O81606   9.972   5.402  -0.150  0.6379 -0.5202 -0.7756
  592MOL0     C81607   9.774   5.394  -0.350 -0.7072 -0.9774 -0.0618
  592MOL0     C81608   9.649   5.369  -0.412 -0.3884  0.3563  0.0197
  592MOL0     N81609   8.791   5.642  -0.730 -0.2737 -0.2100  0.0897
  592MOL0     N81610   8.677   5.682  -0.674 -0.0965  0.2860  0.0962
  592MOL0     C81611   7.949   4.909  -0.065  0.2080 -0.2465  0.3746
  592MOL0     C81612   7.829   4.848  -0.070  0.0478 -0.2103 -0.0151
  592MOL0     C81613   7.430   4.676  -0.111  0.1323 -0.3978 -0.4071
  592MOL0     C81614   7.335   4.745  -0.189 -0.5491 -0.2241  0.3724
  592MOL0     C81615   7.217   4.684  -0.221  0.6054  0.9050 -0.1549
  592MOL0     C81616   7.187   4.552  -0.181 -0.0880 -0.4158 -0.1501
  592MOL0     O81617   7.084   4.471  -0.219  1.0258 -0.8143  0.3807
  592MOL0     C81618   6.997   4.517  -0.327 -0.6092 -0.0122 -0.4711
  592MOL0     C81619   6.903   4.406  -0.378  0.5456 -0.2907 -0.0603
  592MOL0     C81620   6.812   4.469  -0.473  0.2508 -0.1915 -0.0903
  592MOL0     C81621   6.724   4.361  -0.528 -0.1784 -0.4084 -0.3781
  592MOL0     C81622   6.622   4.419  -0.615  0.7521 -0.5957  0.1589
  592MOL0     C81623   6.542   4.462  -0.706 -0.1860  0.2288  0.0539
  592MOL0     C81624   7.275   4.485  -0.101  0.0052 -0.5496 -1.0113
  592MOL0     C81625   7.392   4.546  -0.064 -0.1894  0.5672  0.3812
  592MOL0     C81626   7.485   4.461   0.025  0.0083  0.1181 -0.2140
  592MOL0     H81627   7.633   5.089  -0.215  0.9316 -0.1894 -1.5609
  592MOL0     H81628   7.853   5.201  -0.237 -1.2253  0.8046  0.2363
  592MOL0     H81629   8.171   4.927  -0.205 -3.1276 -1.6718  3.7315
  592MOL0     H81630   8.233   5.001  -0.057  2.7247 -1.0473 -0.7207
  592MOL0     H81631   8.379   5.055  -0.250  1.4980  1.2622  3.7810
  592MOL0     H81632   8.255   5.148  -0.331  2.6102  2.2233 -0.3150
  592MOL0     H81633   8.234   5.294  -0.120 -0.8544 -1.5003  1.2635
  592MOL0     H81634   8.370   5.215  -0.057 -2.9146  0.9634  1.7317
  592MOL0     H81635   8.498   5.270  -0.255  1.3701  0.7907  1.5799
  592MOL0     H81636   8.359   5.351  -0.331  0.3358  0.1110 -0.9828
  592MOL0     H81637   8.537   5.434  -0.092 -0.9927  0.3816  1.6234
  592MOL0     H81638   8.372   5.488  -0.095 -0.4001  0.2370 -0.3707
  592MOL0     H81639   8.388   5.591  -0.308  0.3354  1.2855 -0.3208
  592MOL0     H81640   8.513   5.663  -0.196 -0.3503  1.0607 -0.7219
  592MOL0     H81641   8.554   5.486  -0.445 -2.7550  1.8885  0.5011
  592MOL0     H81642   8.677   5.530  -0.310  0.6434  0.7457 -0.2019
  592MOL0     H81643   8.506   5.721  -0.476  1.4993 -1.1447 -3.3770
  592MOL0     H81644   8.646   5.754  -0.366 -0.4264  1.3454  0.9175
  592MOL0     H81645   8.859   5.580  -0.419 -1.2856 -3.9564 -1.0348
  592MOL0     H81646   9.062   5.586  -0.761  3.1364  2.4008  1.9235
  592MOL0     H81647   9.028   5.445  -0.656  1.0901  0.0285  2.1258
  592MOL0     H81648   9.152   5.712  -0.631 -0.0822 -1.1486 -1.0659
  592MOL0     H81649   9.105   5.639  -0.476  0.7250  1.5375 -0.4462
  592MOL0     H81650   9.219   5.433  -0.583 -0.5849  0.1931 -3.6385
  592MOL0     H81651   9.309   5.574  -0.659 -3.6107  1.0484 -0.9457
  592MOL0     H81652   9.382   5.642  -0.428 -0.8566 -0.4987  1.9825
  592MOL0     H81653   9.264   5.534  -0.360 -2.2123  0.4222 -0.9380
  592MOL0     H81654   9.486   5.609  -0.239  1.8703  0.9307  0.7085
  592MOL0     H81655   9.609   5.756  -0.113  0.1605  0.4938  0.7930
  592MOL0     H81656   9.778   5.771  -0.158  1.5132 -0.5459  0.6425
  592MOL0     H81657   9.730   5.660  -0.024  1.4784  1.7908  0.2434
  592MOL0     H81658  10.168   5.496  -0.302 -2.6667  1.1883 -0.5578
  592MOL0     H81659  10.416   5.506  -0.246  1.6158 -1.1407  1.6201
  592MOL0     H81660  10.683   5.745   0.041 -0.5227 -0.6103  0.1778
  592MOL0     H81661  10.535   5.786   0.109 -0.3488  0.6126 -0.4860
  592MOL0     H81662  10.522   5.528   0.187  1.1124  0.0684  1.2397
  592MOL0     H81663  10.674   5.514   0.105 -1.9588 -0.5232 -2.5464
  592MOL0     H81664  10.679   5.548   0.359  0.0780 -0.5342 -0.4433
  592MOL0     H81665  10.625   5.703   0.354  2.5033  1.1273  1.1813
  592MOL0     H81666  10.812   5.796   0.225  0.0176  0.2344  2.3216
  592MOL0     H81667  10.866   5.629   0.170  2.3502 -1.6889  2.8065
  592MOL0     H81668  10.917   5.579   0.421  0.5544 -0.6264 -0.6008
  592MOL0     H81669  11.029   5.688   0.329  0.2860 -2.0840  0.0373
  592MOL0     H81670  10.803   5.778   0.509 -1.0007  2.4878 -0.2257
  592MOL0     H81671  10.907   5.877   0.407 -0.8822 -0.4734  1.3971
  592MOL0     H81672  11.112   5.792   0.541  0.1075  2.4375  0.5307
  592MOL0     H81673  10.984   5.713   0.644 -1.4793  1.2705  0.8618
  592MOL0     H81674  11.079   5.912   0.729  1.4650 -2.2907 -2.3041
  592MOL0     H81675  10.900   5.905   0.724 -2.5232 -1.2441 -2.6274
  592MOL0     H81676  10.345   5.789   0.052  1.9330 -0.2429 -1.6066
  592MOL0     H81677  10.102   5.770   0.008  2.0497  0.4274  0.9397
  592MOL0     H81678   9.868   5.343  -0.366  0.1096 -0.5994  2.9742
  592MOL0     H81679   9.643   5.288  -0.484  0.2765  0.4139 -0.1078
  592MOL0     H81680   8.038   4.862  -0.024  0.2373 -0.5216  0.0012
  592MOL0     H81681   7.822   4.745  -0.038 -0.3357 -0.7352 -1.7370
  592MOL0     H81682   7.355   4.847  -0.221  0.6716 -0.8956 -1.1586
  592MOL0     H81683   7.151   4.737  -0.288 -1.8030 -2.4299 -0.6444
  592MOL0     H81684   6.940   4.605  -0.296  1.6973  1.4810 -0.2804
  592MOL0     H81685   7.069   4.546  -0.404  1.3352 -1.0715  0.8813
  592MOL0     H81686   6.838   4.379  -0.294 -2.5981  2.9769 -1.1986
  592MOL0     H81687   6.962   4.323  -0.418 -1.6906 -1.0973 -1.8467
  592MOL0     H81688   6.746   4.541  -0.425  0.0004  0.2288 -1.0446
  592MOL0     H81689   6.876   4.513  -0.550 -1.3134  0.7620 -0.8746
  592MOL0     H81690   6.681   4.326  -0.435  1.6683  1.2210  1.1883
  592MOL0     H81691   6.768   4.277  -0.583  0.3462 -1.6643  1.8609
  592MOL0     H81692   6.474   4.512  -0.772  1.0691  0.7677 -0.8784
  592MOL0     H81693   7.253   4.381  -0.079  0.8504 -0.9202 -1.8318
  592MOL0     H81694   7.591   4.475   0.000 -0.8363  3.0130 -2.8174
  592MOL0     H81695   7.469   4.499   0.127  0.4043 -0.1534 -0.0458
  592MOL0     H81696   7.463   4.355   0.012 -0.4716 -0.1360  2.1524
  593MOL0     O81697   7.980   6.966  11.282 -0.1382  0.1262  0.4398
  593MOL0     C81698   7.963   7.000  11.167  0.2293 -0.4844  0.4768
  593MOL0     O81699   8.050   7.050  11.081 -0.5372  0.1123  0.8884
  593MOL0     C81700   8.170   7.108  11.122  0.5339 -0.2892 -0.1075
  593MOL0     C81701   8.260   7.048  11.211  0.4356 -0.0065  0.1195
  593MOL0     C81702   8.384   7.096  11.237 -0.9317 -0.9280  0.7023
  593MOL0     C81703   8.431   7.210  11.168 -0.2069 -0.4363 -0.0576
  593MOL0     O81704   8.534   7.304  11.206 -0.3640 -0.1219  0.4461
  593MOL0     C81705   8.609   7.282  11.331  0.5597 -0.2358  0.0481
  593MOL0     C81706   8.727   7.191  11.306 -0.5312 -0.0003  0.3153
  593MOL0     C81707   8.860   7.265  11.334  1.0450 -0.2163  0.1308
  593MOL0     C81708   8.980   7.166  11.326 -0.1089 -0.6198  0.3854
  593MOL0     C81709   9.096   7.216  11.406  0.3238 -0.4703 -0.1257
  593MOL0     C81710   9.160   7.337  11.328 -0.5329 -0.7237 -0.1125
  593MOL0     C81711   9.283   7.402  11.393  0.4374 -0.3390  0.9259
  593MOL0     C81712   9.380   7.299  11.445  0.1740 -0.1138 -0.4925
  593MOL0     N81713   9.496   7.367  11.513  0.2077  0.4264  0.3244
  593MOL0     C81714   9.600   7.420  11.444  0.4836  0.2736  0.1870
  593MOL0     C81715   9.668   7.488  11.538  0.3913  0.2462 -0.6331
  593MOL0     C81716   9.799   7.561  11.503  0.6930 -0.3615 -0.5280
  593MOL0     C81717   9.910   7.479  11.448  0.5735 -0.0077  0.4198
  593MOL0     C81718  10.014   7.560  11.376  0.0394 -0.6690  0.7707
  593MOL0     C81719  10.154   7.490  11.380 -0.7611 -0.1790  0.1861
  593MOL0     O81720  10.254   7.586  11.326 -0.1076  0.0321  0.3402
  593MOL0     C81721  10.390   7.545  11.334 -0.3024 -0.1482 -0.4639
  593MOL0     C81722  10.457   7.472  11.432  0.1153 -0.9183 -0.3517
  593MOL0     C81723  10.590   7.433  11.427  0.4324  0.4611  0.6312
  593MOL0     C81724  10.634   7.324  11.525 -0.1685  0.3262 -0.1153
  593MOL0     C81725  10.660   7.470  11.307  0.1784 -0.1971  0.1896
  593MOL0     C81726  10.794   7.411  11.269  0.2323  0.6835 -0.1520
  593MOL0     O81727  10.875   7.488  11.183 -0.1573  0.7420 -0.0267
  593MOL0     C81728  10.997   7.430  11.137 -0.3220 -0.0302  0.2399
  593MOL0     C81729  11.040   7.439  11.009  0.6151  0.9184 -0.1621
  593MOL0     C81730  11.168   7.402  10.972  0.1154 -0.0673 -0.0465
  593MOL0     C81731  11.261   7.357  11.063  1.1552  0.1609 -0.6189
  593MOL0     O81732  11.392   7.317  11.039  0.3154 -0.4767 -0.2385
  593MOL0     C81733  11.443   7.319  10.907 -0.4159  1.1579 -0.0081
  593MOL0     C81734  11.499   7.174  10.895 -0.4447  0.1791 -0.1249
  593MOL0     C81735  11.602   7.172  10.774 -0.7739  0.6321  0.3247
  593MOL0     C81736  11.645   7.024  10.767  0.1733 -0.0292 -0.0359
  593MOL0     C81737  11.754   7.018  10.666 -0.0789  0.2940  0.8507
  593MOL0     C81738  11.847   6.908  10.707  0.2004  0.2480 -0.6588
  593MOL0     C81739  11.940   6.871  10.589 -0.4279  0.2636  0.9563
  593MOL0     C81740  11.995   6.728  10.629  0.8671  0.5238  0.8797
  593MOL0    Cl81741  12.104   6.665  10.506  0.3018  0.1268  0.0888
  593MOL0     C81742  11.215   7.338  11.192 -0.1269 -0.1812  0.2621
  593MOL0     C81743  11.092   7.377  11.234  0.1260  0.1336 -0.9702
  593MOL0     O81744  10.816   7.296  11.314  0.3625 -0.1877 -0.3692
  593MOL0     C81745  10.599   7.555  11.213  0.1211 -0.2056  0.2316
  593MOL0     C81746  10.465   7.596  11.229  0.8796  0.6555 -0.9994
  593MOL0     N81747   9.613   7.456  11.662  0.2235 -0.0928 -0.4047
  593MOL0     N81748   9.510   7.392  11.645 -0.0582  0.4134 -0.0964
  593MOL0     C81749   8.343   7.271  11.071 -0.3540 -0.2852  0.6217
  593MOL0     C81750   8.211   7.227  11.052 -0.1432 -0.5718 -0.4033
  593MOL0     C81751   7.827   6.970  11.110 -0.0352 -1.0924  0.3372
  593MOL0     C81752   7.764   6.858  11.151  0.4571 -0.0598  0.5746
  593MOL0     C81753   7.648   6.825  11.090  0.3831  0.5776 -0.7386
  593MOL0     C81754   7.585   6.905  10.999 -0.4781  0.6906 -0.1737
  593MOL0     O81755   7.462   6.862  10.948 -0.3960  0.2673 -1.3355
  593MOL0     C81756   7.376   6.962  10.913  0.0362 -0.6227  1.6396
  593MOL0     C81757   7.376   6.980  10.764  0.0243 -0.5588 -0.1305
  593MOL0     C81758   7.259   7.058  10.708  0.1141  0.0887 -0.6254
  593MOL0     C81759   7.247   7.197  10.766 -0.2575 -0.4350 -0.7210
  593MOL0     C81760   7.125   7.270  10.731 -0.4785  0.0456  0.5263
  593MOL0     C81761   7.023   7.342  10.707  0.3507  0.2372 -0.1705
  593MOL0     C81762   7.646   7.025  10.959 -0.0391  0.1276 -1.0985
  593MOL0     C81763   7.771   7.056  11.015 -0.4356  0.5513 -0.0131
  593MOL0     C81764   7.826   7.185  10.968 -0.1326  0.4848  0.6109
  593MOL0     H81765   8.228   6.967  11.275  2.1657  1.4232  3.0103
  593MOL0     H81766   8.459   7.058  11.306  0.4625  0.9594  0.3011
  593MOL0     H81767   8.545   7.246  11.412 -0.3298  1.1150 -0.0201
  593MOL0     H81768   8.646   7.380  11.363  0.7569 -0.9402  2.1448
  593MOL0     H81769   8.717   7.100  11.367  0.1635 -0.6846 -0.5724
  593MOL0     H81770   8.731   7.156  11.203 -2.1563 -0.0273  0.2380
  593MOL0     H81771   8.878   7.340  11.256 -1.1403  1.4843  1.1466
  593MOL0     H81772   8.854   7.328  11.423  0.9834  2.0958 -1.4189
  593MOL0     H81773   8.947   7.067  11.358 -2.0158 -0.1043  0.1152
  593MOL0     H81774   8.995   7.151  11.219 -3.0681 -1.6735  0.0280
  593MOL0     H81775   9.169   7.135  11.413 -2.3714 -3.2410 -1.5577
  593MOL0     H81776   9.064   7.248  11.505 -2.4967 -1.9524 -0.4396
  593MOL0     H81777   9.196   7.291  11.236  0.4229 -0.0580 -0.0902
  593MOL0     H81778   9.086   7.417  11.312 -0.1772 -0.1569  0.9681
  593MOL0     H81779   9.249   7.463  11.477  2.6499  3.3889 -0.6341
  593MOL0     H81780   9.332   7.472  11.325 -1.4717  3.0731  2.8099
  593MOL0     H81781   9.336   7.235  11.522 -2.4284 -1.3520 -2.8345
  593MOL0     H81782   9.413   7.243  11.357  0.7491 -2.5726  1.1956
  593MOL0     H81783   9.607   7.415  11.336 -0.3480 -0.6855  0.1603
  593MOL0     H81784   9.819   7.632  11.583 -1.3655  0.8064 -0.9607
  593MOL0     H81785   9.781   7.617  11.410 -3.4512 -3.3569 -1.8552
  593MOL0     H81786   9.950   7.428  11.536 -1.1623 -0.1307  1.1605
  593MOL0     H81787   9.874   7.402  11.379  0.6075 -0.6276  1.0852
  593MOL0     H81788   9.982   7.576  11.273  0.7999  1.9298  0.8773
  593MOL0     H81789  10.012   7.661  11.418 -0.8126 -0.7937  1.0455
  593MOL0     H81790  10.174   7.451  11.480  1.4820  0.6087  0.0961
  593MOL0     H81791  10.152   7.407  11.309 -0.5671 -0.3482  0.3753
  593MOL0     H81792  10.387   7.428  11.502 -0.0363  0.2631  0.2745
  593MOL0     H81793  10.691   7.380  11.600  0.5624 -0.8362  0.2227
  593MOL0     H81794  10.686   7.233  11.493  2.0512  1.5676 -0.1960
  593MOL0     H81795  10.544   7.287  11.575  0.3941 -1.1282 -0.1294
  593MOL0     H81796  10.988   7.490  10.928 -2.3141 -2.5677 -0.7225
  593MOL0     H81797  11.188   7.425  10.868 -0.0066 -1.2677 -0.3545
  593MOL0     H81798  11.387   7.349  10.818  1.0695 -0.7163 -1.6733
  593MOL0     H81799  11.516   7.401  10.911 -2.7688  3.5522 -2.0867
  593MOL0     H81800  11.538   7.140  10.991  0.6484  2.2119  0.1986
  593MOL0     H81801  11.415   7.113  10.860  0.4325 -0.5191 -1.0546
  593MOL0     H81802  11.691   7.231  10.798 -1.5139  0.8520  2.8365
  593MOL0     H81803  11.563   7.201  10.676  1.0236 -0.9386 -0.9207
  593MOL0     H81804  11.559   6.964  10.736  0.9318 -0.4019 -1.4842
  593MOL0     H81805  11.688   6.985  10.859  0.3072 -2.6861 -1.1393
  593MOL0     H81806  11.710   6.992  10.570 -1.0583 -0.7454  1.5576
  593MOL0     H81807  11.810   7.109  10.644  0.7788 -0.9823 -2.7938
  593MOL0     H81808  11.777   6.825  10.723  0.7556 -0.0112  0.5547
  593MOL0     H81809  11.907   6.927  10.796  0.5812  0.7967 -1.0297
  593MOL0     H81810  12.017   6.949  10.587 -0.3702  0.1985  0.6675
  593MOL0     H81811  11.878   6.856  10.500  1.5386  1.0343 -0.6002
  593MOL0     H81812  11.907   6.663  10.631  1.8918 -1.0859 -1.7433
  593MOL0     H81813  12.030   6.739  10.732 -1.8580  0.7367  1.8698
  593MOL0     H81814  11.291   7.296  11.258  0.3709  1.1076  0.5328
  593MOL0     H81815  11.064   7.370  11.338 -1.0983  0.2006 -1.2757
  593MOL0     H81816  10.663   7.581  11.130  0.3607  0.0080  0.4813
  593MOL0     H81817  10.416   7.666  11.161 -0.6604  1.3413  0.7256
  593MOL0     H81818   8.373   7.359  11.015 -0.2361 -0.7196 -0.0183
  593MOL0     H81819   8.144   7.262  10.974  0.9735 -0.8812 -1.5429
  593MOL0     H81820   7.810   6.788  11.219  0.4552 -1.5861 -0.9161
  593MOL0     H81821   7.599   6.731  11.114  4.7638 -2.3572 -2.1255
  593MOL0     H81822   7.271   6.932  10.927 -1.1404  2.5803  0.6072
  593MOL0     H81823   7.387   7.057  10.967 -1.2023 -0.4222  1.5732
  593MOL0     H81824   7.370   6.885  10.711 -0.6251 -1.7725  1.9879
  593MOL0     H81825   7.466   7.032  10.729  0.8692 -0.4613  2.0307
  593MOL0     H81826   7.266   7.065  10.599  0.4629 -0.2664 -0.6299
  593MOL0     H81827   7.178   6.992  10.739  0.1556 -0.8876 -2.4859
  593MOL0     H81828   7.337   7.248  10.731 -0.2620 -0.5073 -0.8388
  593MOL0     H81829   7.247   7.204  10.876 -0.9503 -1.1611 -0.6665
  593MOL0     H81830   6.925   7.383  10.695 -0.4393 -1.5583 -0.2383
  593MOL0     H81831   7.598   7.095  10.893 -1.6216  1.6636  1.5164
  593MOL0     H81832   7.737   7.236  10.931 -1.1776 -3.0198 -2.2611
  593MOL0     H81833   7.869   7.242  11.052 -0.4734  0.7687  0.5941
  593MOL0     H81834   7.893   7.174  10.883 -1.6355 -0.6677 -0.4691
  594MOL0     O81835   7.496   2.756   0.664 -0.0551  0.7205  0.6434
  594MOL0     C81836   7.539   2.659   0.732  0.1672 -0.6575 -0.7835
  594MOL0     O81837   7.663   2.600   0.711  0.6462  0.6092  0.8255
  594MOL0     C81838   7.767   2.640   0.633  0.5801  0.3741 -0.1828
  594MOL0     C81839   7.816   2.773   0.629 -1.1462  0.1127  0.0911
  594MOL0     C81840   7.941   2.797   0.557  0.4692 -0.8018 -0.0341
  594MOL0     C81841   8.009   2.690   0.492 -1.6395 -0.9268 -0.1505
  594MOL0     O81842   8.130   2.703   0.429 -0.0877  0.7042 -0.0153
  594MOL0     C81843   8.172   2.833   0.379 -0.3621  0.8668  0.6422
  594MOL0     C81844   8.270   2.795   0.272  0.0856 -0.2270 -0.2373
  594MOL0     C81845   8.374   2.903   0.267 -0.3907 -0.4695  0.2167
  594MOL0     C81846   8.494   2.867   0.171 -0.2375  0.3113  0.9375
  594MOL0     C81847   8.592   2.980   0.182  0.2421  0.0651 -0.8713
  594MOL0     C81848   8.553   3.134   0.170  0.2602  0.7822 -0.1364
  594MOL0     C81849   8.674   3.222   0.175  0.0494  0.2688 -0.0474
  594MOL0     C81850   8.735   3.239   0.313 -0.4952  0.4756  0.1957
  594MOL0     N81851   8.642   3.314   0.400  0.0622  0.2157 -0.0563
  594MOL0     C81852   8.591   3.442   0.378 -0.6684 -0.6357 -0.7289
  594MOL0     C81853   8.488   3.454   0.467 -0.9832  0.0623 -0.0754
  594MOL0     C81854   8.393   3.560   0.468  0.0024  0.0516  0.0207
  594MOL0     C81855   8.318   3.537   0.333 -0.9388 -0.1965 -0.0359
  594MOL0     C81856   8.182   3.600   0.332  0.9796 -0.0519  0.3346
  594MOL0     C81857   8.183   3.757   0.342 -0.1419  0.0261  0.2446
  594MOL0     O81858   8.232   3.808   0.218 -0.2744 -0.3969 -0.3994
  594MOL0     C81859   8.288   3.928   0.225 -0.7690  0.3852  0.4794
  594MOL0     C81860   8.240   4.040   0.149  0.8593  0.0104  0.2339
  594MOL0     C81861   8.297   4.171   0.163  0.3625  0.8868 -0.3811
  594MOL0     C81862   8.232   4.268   0.081 -0.6903 -0.3985  0.8319
  594MOL0     C81863   8.413   4.190   0.242  0.3106 -0.6399 -0.0124
  594MOL0     C81864   8.490   4.319   0.255  0.2398 -0.1073  0.6448
  594MOL0     O81865   8.626   4.291   0.271 -0.6068 -0.4142  0.1880
  594MOL0     C81866   8.716   4.393   0.237 -0.1533  0.2551 -1.2861
  594MOL0     C81867   8.810   4.444   0.325 -0.6584 -0.1580 -0.6276
  594MOL0     C81868   8.905   4.541   0.293  1.0145 -0.7881  0.3963
  594MOL0     C81869   8.883   4.604   0.171  0.3028  0.0962 -0.0485
  594MOL0     O81870   8.964   4.702   0.128 -0.3429 -0.0350 -1.0887
  594MOL0     C81871   9.000   4.803   0.222 -0.3844  0.0060 -0.1007
  594MOL0     C81872   9.086   4.923   0.166  0.4365 -0.3737 -0.1410
  594MOL0     C81873   9.239   4.889   0.130  0.9607  0.1946  0.2001
  594MOL0     C81874   9.306   4.876   0.262  0.2960 -0.4221  0.5420
  594MOL0     C81875   9.456   4.882   0.231 -0.0080  0.5471 -0.8894
  594MOL0     C81876   9.560   4.868   0.343 -0.0360 -0.3179 -0.1420
  594MOL0     C81877   9.712   4.888   0.299 -0.9731 -0.0787  0.6104
  594MOL0     C81878   9.810   4.821   0.388 -0.3533  0.7714 -0.0095
  594MOL0    Cl81879   9.968   4.849   0.326  0.0026 -0.0814  0.0969
  594MOL0     C81880   8.792   4.559   0.075  0.2438  1.3988  0.0522
  594MOL0     C81881   8.714   4.447   0.110 -0.2957  0.7091 -0.4793
  594MOL0     O81882   8.441   4.427   0.226 -0.1141  0.6119 -0.2389
  594MOL0     C81883   8.471   4.075   0.299  1.0984 -0.3977  1.0567
  594MOL0     C81884   8.411   3.946   0.291 -0.0128  0.1762 -0.3497
  594MOL0     N81885   8.488   3.347   0.548 -0.2720  0.2821  0.6398
  594MOL0     N81886   8.583   3.268   0.516 -0.2548  0.0228 -0.3354
  594MOL0     C81887   7.953   2.566   0.499 -0.9884  1.5077 -0.2137
  594MOL0     C81888   7.833   2.542   0.559 -0.7359  0.1257 -0.0690
  594MOL0     C81889   7.451   2.604   0.843  0.2154 -0.2058 -0.5478
  594MOL0     C81890   7.498   2.483   0.903  0.8568  0.4139  0.1403
  594MOL0     C81891   7.420   2.418   0.994 -0.2951 -0.0012 -0.7131
  594MOL0     C81892   7.292   2.473   1.024 -0.4668 -0.7434 -0.3126
  594MOL0     O81893   7.185   2.402   1.083 -0.0849  0.6559  0.2487
  594MOL0     C81894   7.203   2.271   1.148 -0.6045 -0.1256  0.5955
  594MOL0     C81895   7.069   2.228   1.216  0.4073  0.0202 -0.4466
  594MOL0     C81896   7.076   2.098   1.301  0.4614 -0.5802 -0.1906
  594MOL0     C81897   6.942   2.061   1.353  0.9319 -0.1295  0.1386
  594MOL0     C81898   6.962   1.934   1.430  0.4263  0.0353 -0.2600
  594MOL0     C81899   6.962   1.832   1.503  0.6182 -0.1318 -0.2509
  594MOL0     C81900   7.251   2.589   0.962  0.0068  0.4162 -0.1330
  594MOL0     C81901   7.329   2.663   0.883 -0.5696  0.5607 -0.5578
  594MOL0     C81902   7.283   2.802   0.842  0.5899 -0.3718 -0.3688
  594MOL0     H81903   7.745   2.841   0.674 -1.5171 -0.5086  0.4668
  594MOL0     H81904   7.987   2.896   0.561 -1.4085  0.1402 -0.3720
  594MOL0     H81905   8.219   2.888   0.461 -0.6839 -2.1968  3.0790
  594MOL0     H81906   8.090   2.896   0.343  0.3638  0.4973 -1.8920
  594MOL0     H81907   8.323   2.708   0.309 -2.9136 -1.2374  2.0772
  594MOL0     H81908   8.226   2.765   0.176 -0.9116 -1.3992  0.5478
  594MOL0     H81909   8.334   2.995   0.224 -2.2881 -1.7723 -0.9634
  594MOL0     H81910   8.405   2.931   0.368  0.5221  1.4427 -0.5296
  594MOL0     H81911   8.530   2.769   0.203 -1.6302 -0.3102  0.6714
  594MOL0     H81912   8.451   2.852   0.072  2.6826 -2.9836 -0.0263
  594MOL0     H81913   8.666   2.963   0.103  1.4037  1.9364 -0.2542
  594MOL0     H81914   8.648   2.959   0.274  1.3682 -1.7566 -1.9275
  594MOL0     H81915   8.502   3.148   0.075  1.0577  2.0618 -0.3966
  594MOL0     H81916   8.488   3.162   0.253 -0.8832 -1.6168 -0.1303
  594MOL0     H81917   8.651   3.321   0.134 -1.5609 -0.3031 -0.6398
  594MOL0     H81918   8.736   3.166   0.106 -1.3360 -4.4368  2.1280
  594MOL0     H81919   8.756   3.139   0.353  3.9701 -0.1508 -2.9744
  594MOL0     H81920   8.830   3.289   0.292  0.5387 -1.0989  0.8316
  594MOL0     H81921   8.620   3.514   0.302  0.0238 -0.6577 -0.4941
  594MOL0     H81922   8.442   3.657   0.468 -0.7785  0.4580 -0.4247
  594MOL0     H81923   8.332   3.570   0.558  0.1828  1.3442  0.0083
  594MOL0     H81924   8.380   3.584   0.256  1.0400  0.2187  1.7530
  594MOL0     H81925   8.306   3.431   0.310  2.2069 -0.4741 -0.7926
  594MOL0     H81926   8.132   3.566   0.242  1.5772 -0.3363  0.0992
  594MOL0     H81927   8.125   3.568   0.420  1.5721  0.6684  0.9958
  594MOL0     H81928   8.077   3.783   0.351 -0.1249  0.5140 -0.7534
  594MOL0     H81929   8.233   3.794   0.432  1.5748  1.6766 -1.3001
  594MOL0     H81930   8.166   4.015   0.074  0.7345 -1.5689  0.8343
  594MOL0     H81931   8.156   4.316   0.143 -0.0231 -0.8340  2.0239
  594MOL0     H81932   8.184   4.228  -0.009  0.2546 -0.3140  0.2740
  594MOL0     H81933   8.300   4.348   0.051 -2.5785  0.3253 -1.8780
  594MOL0     H81934   8.826   4.397   0.422 -1.6239  1.9114  0.6110
  594MOL0     H81935   8.976   4.574   0.369  0.1132 -0.7692  1.2546
  594MOL0     H81936   8.923   4.845   0.288  1.7411  1.5720  1.5211
  594MOL0     H81937   9.065   4.761   0.299  1.7133 -0.5393 -2.0641
  594MOL0     H81938   9.046   4.961   0.072 -0.2942 -0.6041  0.0710
  594MOL0     H81939   9.079   5.005   0.238  2.5875 -0.0537 -0.2225
  594MOL0     H81940   9.281   4.967   0.067  0.1547 -1.0143 -1.9389
  594MOL0     H81941   9.250   4.790   0.084 -0.1192 -0.4304  1.2119
  594MOL0     H81942   9.274   4.787   0.315  0.0343  0.2728  1.5725
  594MOL0     H81943   9.275   4.964   0.318  0.2243 -0.3087  0.3271
  594MOL0     H81944   9.480   4.799   0.165  1.8652  3.1734 -3.7844
  594MOL0     H81945   9.474   4.974   0.174 -0.6985 -0.5952 -3.0574
  594MOL0     H81946   9.560   4.765   0.379 -0.5831 -0.6094 -0.9462
  594MOL0     H81947   9.533   4.939   0.422 -0.6565  0.5820 -1.1221
  594MOL0     H81948   9.730   4.995   0.286 -0.0994 -0.0851  1.6678
  594MOL0     H81949   9.720   4.839   0.201  0.5618 -2.8038  1.9613
  594MOL0     H81950   9.796   4.712   0.386 -0.3850  0.7445  1.0697
  594MOL0     H81951   9.803   4.857   0.491 -0.1794 -1.4300  0.8255
  594MOL0     H81952   8.794   4.592  -0.028 -1.4944  0.0201 -0.4613
  594MOL0     H81953   8.656   4.396   0.033  2.4300 -1.9620 -0.9339
  594MOL0     H81954   8.553   4.095   0.366  1.6023 -1.5023  0.7913
  594MOL0     H81955   8.470   3.864   0.332  1.7489  1.0762 -0.9694
  594MOL0     H81956   8.001   2.491   0.438 -3.6190  0.5372 -1.2421
  594MOL0     H81957   7.806   2.437   0.550  1.3378 -0.4480 -0.0391
  594MOL0     H81958   7.593   2.440   0.873 -0.6272 -2.1225 -1.2336
  594MOL0     H81959   7.443   2.316   1.023  1.9880  0.9592  1.1961
  594MOL0     H81960   7.241   2.200   1.073  1.5245 -1.9878  3.2235
  594MOL0     H81961   7.280   2.293   1.222 -1.0949  0.0762  1.0542
  594MOL0     H81962   6.999   2.213   1.134  0.8630  0.3342 -0.9013
  594MOL0     H81963   7.037   2.304   1.289  1.6004 -0.7593  0.9591
  594MOL0     H81964   7.108   2.015   1.237 -1.8141 -2.1812  0.6102
  594MOL0     H81965   7.153   2.107   1.378  1.1915 -3.2764 -0.5087
  594MOL0     H81966   6.874   2.045   1.269 -1.3728  1.2202  1.6598
  594MOL0     H81967   6.902   2.135   1.423 -1.5325 -0.5722 -0.7113
  594MOL0     H81968   6.962   1.751   1.573 -3.3382 -0.4967 -0.4723
  594MOL0     H81969   7.151   2.626   0.981 -0.5311  0.3458 -2.4948
  594MOL0     H81970   7.188   2.823   0.894  2.8573  2.2876  3.1685
  594MOL0     H81971   7.353   2.882   0.868 -0.3827 -0.0391  1.4450
  594MOL0     H81972   7.257   2.802   0.735 -1.8842  1.6760  0.1093
  595MOL0     O81973   8.807   3.076  10.564 -0.0059  0.9337  0.2523
  595MOL0     C81974   8.735   3.127  10.479 -0.7684  1.2749  0.5239
  595MOL0     O81975   8.740   3.092  10.349  0.8288  0.6122  0.1960
  595MOL0     C81976   8.862   3.042  10.299  0.0184 -0.1426 -0.4766
  595MOL0     C81977   8.975   3.127  10.271  0.1047 -0.0426 -0.1562
  595MOL0     C81978   9.089   3.087  10.212  0.7030  0.9188  0.4972
  595MOL0     C81979   9.101   2.948  10.172  0.2326 -0.6324  0.5386
  595MOL0     O81980   9.212   2.903  10.105  0.2675 -0.4606 -0.0425
  595MOL0     C81981   9.338   2.981  10.105 -0.1734  0.0521  0.3699
  595MOL0     C81982   9.430   2.911  10.015  0.2843 -0.3321  0.1412
  595MOL0     C81983   9.570   2.972   9.985  0.3463 -0.2800  0.4145
  595MOL0     C81984   9.658   2.997  10.106 -0.5474  0.0286  0.4127
  595MOL0     C81985   9.806   3.023  10.072 -1.0822  0.2868  0.5266
  595MOL0     C81986   9.895   2.900  10.057 -1.1579 -0.1348 -0.0362
  595MOL0     C81987  10.037   2.937  10.026 -0.5644  0.0760  0.4534
  595MOL0     C81988  10.132   2.821  10.059  0.4152 -0.0965  0.5062
  595MOL0     N81989  10.270   2.847  10.014 -0.4846 -0.5696  0.6893
  595MOL0     C81990  10.319   2.909   9.896  0.1547  0.3354 -0.1217
  595MOL0     C81991  10.461   2.918   9.910  0.3840  1.0156 -0.6632
  595MOL0     C81992  10.548   2.964   9.798  0.0879  0.1235 -0.5467
  595MOL0     C81993  10.562   2.891   9.668  0.2271  0.4583  0.6290
  595MOL0     C81994  10.621   2.750   9.694 -0.2867 -0.0349  0.3639
  595MOL0     C81995  10.768   2.747   9.752  0.1926  0.6954  0.2112
  595MOL0     O81996  10.851   2.836   9.675  0.4327 -0.1469  0.8404
  595MOL0     C81997  10.980   2.858   9.715  0.0704  0.1371  0.5531
  595MOL0     C81998  11.041   2.969   9.659 -0.0686 -0.1643  0.4603
  595MOL0     C81999  11.171   2.996   9.691  0.4885 -0.3633  0.1612
  595MOL0     C82000  11.229   3.128   9.639  0.3430  0.4504  0.3352
  595MOL0     C82001  11.245   2.917   9.783  0.6105 -0.5347  1.3113
  595MOL0     C82002  11.382   2.944   9.826 -0.7028 -0.0243 -0.4431
  595MOL0     O82003  11.429   3.067   9.850 -0.3960  0.1435  0.6788
  595MOL0     C82004  11.553   3.083   9.915 -0.0939 -0.7654 -0.6644
  595MOL0     C82005  11.586   3.025  10.040 -0.2456  0.4624 -0.0771
  595MOL0     C82006  11.718   3.032  10.091  0.4386  0.6205 -0.2121
  595MOL0     C82007  11.808   3.133  10.044  0.5106  0.5493 -0.1236
  595MOL0     O82008  11.922   3.166  10.096  0.5529  0.3197 -0.0307
  595MOL0     C82009  11.980   3.067  10.181 -0.5774  0.0371  0.8199
  595MOL0     C82010  12.128   3.098  10.199  0.8609  0.5130  0.1986
  595MOL0     C82011  12.207   2.974  10.243  0.7913  0.3728 -0.2543
  595MOL0     C82012  12.134   2.909  10.366  0.2038 -0.4831  0.0805
  595MOL0     C82013  12.212   2.809  10.457  0.3288 -0.1054  0.3864
  595MOL0     C82014  12.329   2.894  10.516  0.6830 -0.1950 -0.3073
  595MOL0     C82015  12.385   2.830  10.648  0.0253 -0.3873 -0.2727
  595MOL0     C82016  12.528   2.878  10.693  0.0715 -0.6402 -0.1006
  595MOL0    Cl82017  12.632   2.867  10.548  0.1348  0.0466  0.0653
  595MOL0     C82018  11.776   3.194   9.926  0.0872  0.6129  0.0050
  595MOL0     C82019  11.654   3.160   9.856  0.6978 -0.7283 -0.3930
  595MOL0     O82020  11.455   2.844   9.837 -0.8296  0.8973  0.1687
  595MOL0     C82021  11.186   2.799   9.832 -0.0827 -0.7521  0.2712
  595MOL0     C82022  11.053   2.775   9.798 -0.3106 -0.4079 -0.1849
  595MOL0     N82023  10.482   2.883  10.041 -0.3692  0.3814  0.1607
  595MOL0     N82024  10.378   2.835  10.104  0.1434 -0.0988  0.6429
  595MOL0     C82025   8.993   2.868  10.196 -0.2038 -0.1172 -1.2025
  595MOL0     C82026   8.878   2.913  10.268 -0.5892  0.3394  0.1047
  595MOL0     C82027   8.626   3.235  10.518 -0.2455  0.1917  0.7002
  595MOL0     C82028   8.547   3.283  10.415 -0.0719  1.5019  0.4358
  595MOL0     C82029   8.445   3.373  10.436  0.6303  0.7320  0.3496
  595MOL0     C82030   8.440   3.438  10.557  0.0238  0.3968  0.0745
  595MOL0     O82031   8.371   3.549  10.588  0.5062  0.5387  0.4055
  595MOL0     C82032   8.294   3.623  10.488 -0.4618  0.3557  0.2761
  595MOL0     C82033   8.226   3.735  10.561  0.5834  0.4987  0.1273
  595MOL0     C82034   8.136   3.672  10.676 -0.8500 -0.2875 -0.0193
  595MOL0     C82035   8.022   3.762  10.723  0.8768  0.7195  0.3530
  595MOL0     C82036   8.069   3.894  10.762  0.1442 -0.4191 -0.4653
  595MOL0     C82037   8.109   3.994  10.814 -0.4095  0.5364 -0.7978
  595MOL0     C82038   8.523   3.395  10.664  0.3005  0.4788 -0.1789
  595MOL0     C82039   8.608   3.287  10.651  0.6537 -0.5936  0.2582
  595MOL0     C82040   8.674   3.253  10.777 -1.0665  0.5726  0.1728
  595MOL0     H82041   8.986   3.234  10.286 -0.8298  0.1736 -0.9843
  595MOL0     H82042   9.160   3.164  10.187 -1.4769  2.2051 -2.2878
  595MOL0     H82043   9.382   2.979  10.205 -2.6769  2.6333  1.6482
  595MOL0     H82044   9.316   3.083  10.074  1.6237  0.1841 -0.5972
  595MOL0     H82045   9.449   2.809  10.049 -0.7989 -0.6045 -0.0450
  595MOL0     H82046   9.375   2.902   9.921 -0.6498  0.3198  0.6114
  595MOL0     H82047   9.617   2.892   9.928 -0.0213  1.3313 -2.2695
  595MOL0     H82048   9.555   3.062   9.926  1.0526 -2.0929 -2.7354
  595MOL0     H82049   9.623   3.092  10.149 -2.3428  0.3114 -1.4980
  595MOL0     H82050   9.637   2.916  10.176 -4.8111 -1.5249 -2.2948
  595MOL0     H82051   9.859   3.071  10.155  0.3275 -1.1450  0.5041
  595MOL0     H82052   9.812   3.074   9.975  2.5583 -1.4666 -0.3537
  595MOL0     H82053   9.895   2.839  10.148  4.4294  0.2995  0.6466
  595MOL0     H82054   9.854   2.841   9.975 -1.3768 -0.2310  0.1434
  595MOL0     H82055  10.076   3.026  10.076  0.7198 -1.6267  2.6726
  595MOL0     H82056  10.037   2.943   9.917  2.9719 -0.4751  0.3297
  595MOL0     H82057  10.125   2.809  10.167  0.2236  4.1523  1.1332
  595MOL0     H82058  10.100   2.729  10.008  1.2220 -0.2156  0.2028
  595MOL0     H82059  10.264   2.921   9.804 -0.5831  0.8500  0.3719
  595MOL0     H82060  10.647   2.994   9.835  0.0821 -0.6047  0.0903
  595MOL0     H82061  10.502   3.059   9.771 -0.5842  0.2593  0.9786
  595MOL0     H82062  10.471   2.889   9.608  1.3711 -2.3526 -1.2444
  595MOL0     H82063  10.635   2.950   9.612  1.5791 -1.3168  0.3978
  595MOL0     H82064  10.564   2.696   9.770  1.2102 -1.2284  0.6792
  595MOL0     H82065  10.621   2.702   9.596 -0.0658  3.9180 -1.8007
  595MOL0     H82066  10.773   2.779   9.856 -1.6674  0.1167  0.5141
  595MOL0     H82067  10.805   2.645   9.757  1.1372  1.0306  0.2679
  595MOL0     H82068  10.976   3.025   9.592 -1.4068 -2.1224  0.0344
  595MOL0     H82069  11.242   3.210   9.711  0.4422  0.5570  0.1958
  595MOL0     H82070  11.172   3.168   9.555 -0.9578 -0.5111  0.7190
  595MOL0     H82071  11.330   3.105   9.606  0.4195  2.4798 -1.0332
  595MOL0     H82072  11.505   2.964  10.078 -0.8310  2.2086  1.6076
  595MOL0     H82073  11.745   2.980  10.182 -1.3424 -0.4743 -0.2504
  595MOL0     H82074  11.927   3.066  10.277  0.1159 -0.3657  1.2000
  595MOL0     H82075  11.977   2.968  10.134  1.6299 -0.0805  0.8443
  595MOL0     H82076  12.172   3.141  10.109  0.2787 -3.2318 -2.0780
  595MOL0     H82077  12.156   3.171  10.275  1.6903  0.0639  0.3438
  595MOL0     H82078  12.311   3.003  10.263  1.0458  2.0300 -3.3252
  595MOL0     H82079  12.215   2.899  10.164  0.9908 -0.7861  0.8339
  595MOL0     H82080  12.045   2.859  10.327 -0.0982  0.3912 -0.3977
  595MOL0     H82081  12.110   2.990  10.436  1.3566  0.0738 -0.1389
  595MOL0     H82082  12.145   2.767  10.532 -1.7210  0.1091 -1.2126
  595MOL0     H82083  12.255   2.734  10.390  2.2124 -0.2674  1.7059
  595MOL0     H82084  12.290   2.993  10.540  1.8422 -0.2829  2.2774
  595MOL0     H82085  12.411   2.914  10.446  2.2748  0.3789  1.6190
  595MOL0     H82086  12.392   2.727  10.612 -0.4710  0.8316 -4.3412
  595MOL0     H82087  12.321   2.854  10.734  0.9269  1.5964 -0.1028
  595MOL0     H82088  12.568   2.808  10.766  1.4273 -0.1542 -0.3581
  595MOL0     H82089  12.520   2.976  10.740 -1.0436 -0.6476 -0.2441
  595MOL0     H82090  11.839   3.267   9.876 -0.4428 -0.4180 -2.3434
  595MOL0     H82091  11.624   3.203   9.761  1.9781  1.2533  0.0414
  595MOL0     H82092  11.240   2.726   9.891 -0.8216 -0.3475  1.4906
  595MOL0     H82093  11.016   2.685   9.847  2.0380  1.1487  5.2296
  595MOL0     H82094   9.014   2.767  10.161  4.3732  0.9022 -2.0566
  595MOL0     H82095   8.798   2.843  10.291 -2.4922  1.1122 -3.4997
  595MOL0     H82096   8.551   3.242  10.315 -1.5426  3.8766 -0.6999
  595MOL0     H82097   8.390   3.411  10.350 -0.0408  2.7889  1.6066
  595MOL0     H82098   8.353   3.660  10.404 -1.0735 -1.1118 -0.8321
  595MOL0     H82099   8.213   3.578  10.431 -0.2315  2.2264 -1.6550
  595MOL0     H82100   8.152   3.786  10.498  0.3612  1.1522  0.8922
  595MOL0     H82101   8.297   3.805  10.608  1.5626 -0.8085  0.6755
  595MOL0     H82102   8.096   3.579  10.635  1.8622 -1.3381 -0.5629
  595MOL0     H82103   8.205   3.649  10.758 -0.8080  0.5750  0.2037
  595MOL0     H82104   7.972   3.712  10.806 -1.0787  0.7593 -0.7486
  595MOL0     H82105   7.941   3.769  10.650 -0.4552 -0.4455  1.6551
  595MOL0     H82106   8.136   4.085  10.863 -0.4258 -0.5412  1.2972
  595MOL0     H82107   8.491   3.434  10.760 -0.0485  2.7358 -1.1323
  595MOL0     H82108   8.779   3.229  10.761 -1.0405  0.5545  0.3758
  595MOL0     H82109   8.660   3.325  10.858 -0.1167  0.6042  0.3201
  595MOL0     H82110   8.630   3.162  10.818 -0.1239 -0.4116 -0.9472
  596MOL0     O82111   0.671   9.579   6.581  0.5017  0.7582 -0.5148
  596MOL0     C82112   0.610   9.647   6.664  0.3953  0.6756  0.5148
  596MOL0     O82113   0.673   9.707   6.770 -0.0673 -0.1575  0.0684
  596MOL0     C82114   0.807   9.728   6.769 -0.2081 -0.3678  0.6246
  596MOL0     C82115   0.884   9.801   6.677 -0.0443  0.5291 -0.2517
  596MOL0     C82116   1.015   9.841   6.694  1.0113  0.5094  0.3941
  596MOL0     C82117   1.084   9.779   6.795 -0.7396 -0.7246  0.2427
  596MOL0     O82118   1.215   9.814   6.811  0.0931  0.2368  0.9735
  596MOL0     C82119   1.306   9.710   6.810 -0.5484  0.3252  0.2616
  596MOL0     C82120   1.378   9.683   6.942 -0.1785  0.0140 -0.3793
  596MOL0     C82121   1.488   9.573   6.934 -0.5722 -0.5141  0.5059
  596MOL0     C82122   1.540   9.540   7.076  0.6302 -0.3917  0.4503
  596MOL0     C82123   1.624   9.411   7.084 -0.2935 -0.4535  0.0548
  596MOL0     C82124   1.716   9.400   7.209 -0.2414 -0.2814 -0.0633
  596MOL0     C82125   1.848   9.485   7.201 -0.4144 -0.2356 -0.3326
  596MOL0     C82126   1.946   9.455   7.312  0.8477  0.1675 -0.0005
  596MOL0     N82127   2.075   9.505   7.291 -0.5301 -0.4179  0.3422
  596MOL0     C82128   2.176   9.462   7.205  1.0039  0.1340  0.7911
  596MOL0     C82129   2.287   9.512   7.248  0.2484 -0.5146  0.4875
  596MOL0     C82130   2.422   9.475   7.198 -0.5427  0.0186 -0.7692
  596MOL0     C82131   2.521   9.591   7.200  0.3374 -0.7055 -0.2331
  596MOL0     C82132   2.588   9.612   7.329  0.3611  0.6121  0.1983
  596MOL0     C82133   2.684   9.723   7.315  0.4876 -0.4949 -0.1646
  596MOL0     O82134   2.797   9.696   7.232  0.4101 -1.5701 -0.6610
  596MOL0     C82135   2.905   9.625   7.279 -0.4126  0.3424  0.1087
  596MOL0     C82136   2.999   9.586   7.189  0.4734 -0.3565  0.1012
  596MOL0     C82137   3.098   9.487   7.213 -0.7826  0.1356  0.6259
  596MOL0     C82138   3.175   9.439   7.098 -0.2334  0.3021 -1.0309
  596MOL0     C82139   3.121   9.449   7.347 -0.4369 -0.2622 -0.4478
  596MOL0     C82140   3.235   9.360   7.397 -0.7157 -0.7855  0.3082
  596MOL0     O82141   3.229   9.337   7.531  0.1385 -0.1364  0.6769
  596MOL0     C82142   3.324   9.257   7.589 -0.0310  0.6354  0.6499
  596MOL0     C82143   3.462   9.252   7.556  0.2060  0.0201  0.6093
  596MOL0     C82144   3.558   9.186   7.642  0.6200  0.3247  0.6244
  596MOL0     C82145   3.508   9.112   7.751 -0.1175  0.5836  0.4046
  596MOL0     O82146   3.591   9.046   7.835 -0.4411 -0.9281  0.0934
  596MOL0     C82147   3.699   9.123   7.898  0.1403  0.1521  0.3319
  596MOL0     C82148   3.840   9.117   7.823  0.7577  0.1486 -0.0328
  596MOL0     C82149   3.962   9.094   7.915  0.2849 -0.1773 -0.3895
  596MOL0     C82150   4.099   9.096   7.843  0.1563  0.1237 -0.5971
  596MOL0     C82151   4.205   9.064   7.956 -0.9520  0.3971 -0.1866
  596MOL0     C82152   4.353   9.084   7.908  0.5933  0.0021 -0.2862
  596MOL0     C82153   4.444   9.038   8.017  0.7680  0.2714 -0.1647
  596MOL0     C82154   4.582   9.100   8.002  0.9743  0.2459 -0.7273
  596MOL0    Cl82155   4.595   9.277   8.050  0.1107 -0.1808 -0.2327
  596MOL0     C82156   3.372   9.114   7.777 -0.7285 -0.6020  0.4557
  596MOL0     C82157   3.284   9.184   7.695  0.3749 -0.1747  0.5471
  596MOL0     O82158   3.320   9.318   7.317  0.5438 -0.0437  0.0247
  596MOL0     C82159   3.030   9.497   7.445 -0.4483  0.1645  0.0930
  596MOL0     C82160   2.924   9.576   7.408 -0.1059 -0.4827 -0.2531
  596MOL0     N82161   2.265   9.600   7.351  0.0238  0.0193  0.2961
  596MOL0     N82162   2.141   9.595   7.378  0.2172  0.3647 -0.3180
  596MOL0     C82163   1.025   9.686   6.869  0.0106  0.5041 -0.5561
  596MOL0     C82164   0.883   9.672   6.867 -0.2864  0.9946 -0.1046
  596MOL0     C82165   0.462   9.662   6.638  0.4105  0.5455 -0.3207
  596MOL0     C82166   0.417   9.701   6.519  0.5557  0.2551  0.3415
  596MOL0     C82167   0.279   9.723   6.484  0.2520  0.1280  0.0405
  596MOL0     C82168   0.187   9.717   6.589 -0.4305  0.3933  0.6980
  596MOL0     O82169   0.047   9.743   6.557  0.1114  0.2315  0.2078
  596MOL0     C82170  -0.053   9.709   6.647 -0.3776 -0.1506  0.5182
  596MOL0     C82171  -0.059   9.556   6.668  0.0580 -0.6736  0.4460
  596MOL0     C82172  -0.195   9.516   6.725  0.1162 -0.1530  0.5956
  596MOL0     C82173  -0.200   9.372   6.774  0.4025 -1.1804 -0.6470
  596MOL0     C82174  -0.186   9.279   6.667  0.1797 -0.1160  0.3950
  596MOL0     C82175  -0.184   9.194   6.586  0.0126 -0.1396  0.0569
  596MOL0     C82176   0.234   9.669   6.715  0.9816 -0.9575 -0.3860
  596MOL0     C82177   0.364   9.648   6.740 -1.0277  0.0310  0.4762
  596MOL0     C82178   0.406   9.603   6.873  0.9179 -0.2661 -0.3230
  596MOL0     H82179   0.840   9.834   6.584  1.2641 -1.3252 -1.5949
  596MOL0     H82180   1.076   9.899   6.625  0.2767 -1.6483 -2.2116
  596MOL0     H82181   1.376   9.729   6.728  0.7340  0.1333  1.2750
  596MOL0     H82182   1.263   9.615   6.777  0.4753 -0.0541 -0.0042
  596MOL0     H82183   1.421   9.774   6.985 -2.6479  0.1105  2.1467
  596MOL0     H82184   1.299   9.641   7.005 -1.4031  0.2915 -1.6724
  596MOL0     H82185   1.450   9.479   6.891 -1.1251 -0.7973  1.5827
  596MOL0     H82186   1.574   9.602   6.873  1.4820 -4.9277  0.9108
  596MOL0     H82187   1.596   9.628   7.106 -0.6931  0.4810  0.4483
  596MOL0     H82188   1.453   9.530   7.141  0.0613 -0.5225 -0.3060
  596MOL0     H82189   1.686   9.411   6.994 -0.7809  1.5738 -0.3285
  596MOL0     H82190   1.559   9.323   7.076 -1.0560  0.1072  0.0201
  596MOL0     H82191   1.666   9.431   7.301  0.3384  0.2785  0.0747
  596MOL0     H82192   1.749   9.296   7.213  2.4475  0.4806 -0.5694
  596MOL0     H82193   1.825   9.591   7.184  4.2982  0.9503 -0.4927
  596MOL0     H82194   1.905   9.448   7.115  2.0197  0.1173  1.0439
  596MOL0     H82195   1.903   9.504   7.400 -2.2429  0.2931 -1.4699
  596MOL0     H82196   1.953   9.346   7.320  0.9384  0.2983  2.6050
  596MOL0     H82197   2.165   9.385   7.130  0.2809 -0.7418  1.7707
  596MOL0     H82198   2.417   9.449   7.092 -0.3358 -2.3652 -0.2361
  596MOL0     H82199   2.465   9.389   7.251  2.4372  1.3994 -0.7719
  596MOL0     H82200   2.603   9.546   7.143  0.0911 -0.4761 -0.7734
  596MOL0     H82201   2.496   9.678   7.139 -1.8157  0.7389  2.5084
  596MOL0     H82202   2.505   9.649   7.389 -0.5921  0.6521 -1.0929
  596MOL0     H82203   2.649   9.525   7.353  0.4323 -0.2108 -2.5546
  596MOL0     H82204   2.633   9.816   7.287  1.5300  0.4824  1.0324
  596MOL0     H82205   2.716   9.733   7.419  0.0199 -1.1512  0.0461
  596MOL0     H82206   2.981   9.620   7.088 -0.4982 -0.9328  0.0754
  596MOL0     H82207   3.278   9.475   7.099  0.7250 -2.1693  1.4745
  596MOL0     H82208   3.131   9.471   7.002 -0.8566 -0.8198 -1.1296
  596MOL0     H82209   3.160   9.331   7.105  1.1403  0.1300 -0.4977
  596MOL0     H82210   3.503   9.306   7.472 -0.2029 -2.1710 -1.0895
  596MOL0     H82211   3.662   9.206   7.616  1.9587 -4.1268  1.7704
  596MOL0     H82212   3.661   9.225   7.890  0.2089  0.0276 -2.5464
  596MOL0     H82213   3.709   9.092   8.003  0.7300  1.9685  0.8531
  596MOL0     H82214   3.839   9.041   7.744 -0.2895  0.8665 -0.7508
  596MOL0     H82215   3.859   9.212   7.770  0.5012 -0.8108 -1.9398
  596MOL0     H82216   3.952   9.006   7.979  2.3095  1.3773  2.2626
  596MOL0     H82217   3.968   9.179   7.983 -2.2854 -0.3508  0.1657
  596MOL0     H82218   4.115   9.196   7.802  1.5021  1.6701  3.2995
  596MOL0     H82219   4.114   9.020   7.765 -2.2492 -0.2926 -0.7293
  596MOL0     H82220   4.189   9.126   8.044 -0.9316  1.5921 -1.0088
  596MOL0     H82221   4.201   8.956   7.974  4.6291 -0.6259 -2.8034
  596MOL0     H82222   4.379   9.186   7.879  1.3952 -0.1170  0.0007
  596MOL0     H82223   4.372   9.021   7.820  0.9579 -0.7886  0.3474
  596MOL0     H82224   4.450   8.929   8.011 -2.8950 -0.2058  1.7341
  596MOL0     H82225   4.409   9.062   8.118  2.1329  1.1529  0.1121
  596MOL0     H82226   4.625   9.070   7.906  2.2428 -1.6284  0.3556
  596MOL0     H82227   4.641   9.042   8.073 -1.8805 -2.2280 -0.1966
  596MOL0     H82228   3.340   9.066   7.869  1.8753  0.5160  2.0640
  596MOL0     H82229   3.179   9.166   7.713  0.9757 -1.6123  3.0155
  596MOL0     H82230   3.037   9.466   7.549 -1.5158  0.0031  0.1297
  596MOL0     H82231   2.862   9.612   7.489  1.4182  0.1712  0.6591
  596MOL0     H82232   1.078   9.626   6.942 -0.6202  0.1616 -0.3680
  596MOL0     H82233   0.837   9.602   6.936 -1.5164  2.0816  0.2218
  596MOL0     H82234   0.483   9.708   6.433  1.3951 -0.9155  0.8614
  596MOL0     H82235   0.256   9.750   6.381  0.7824 -1.4756 -0.5323
  596MOL0     H82236  -0.023   9.761   6.738  2.6106  1.7081 -1.3685
  596MOL0     H82237  -0.146   9.742   6.600 -3.5796  1.2650  6.6858
  596MOL0     H82238   0.025   9.524   6.731  0.5183 -0.0672  0.1484
  596MOL0     H82239  -0.033   9.502   6.577  0.8027  2.4503 -1.3217
  596MOL0     H82240  -0.225   9.579   6.809 -0.0553  0.2859  0.2100
  596MOL0     H82241  -0.267   9.543   6.648  0.1345 -2.4666 -0.3151
  596MOL0     H82242  -0.295   9.355   6.827 -0.5093 -2.4803 -2.5792
  596MOL0     H82243  -0.115   9.358   6.840 -0.5986  1.0737  1.2727
  596MOL0     H82244  -0.183   9.103   6.529 -1.3593  1.1437 -2.1206
  596MOL0     H82245   0.167   9.657   6.800  1.8025 -3.7571 -0.0549
  596MOL0     H82246   0.316   9.565   6.922  1.6874 -0.3715  1.0607
  596MOL0     H82247   0.488   9.531   6.871 -0.7820 -2.2505 -1.8340
  596MOL0     H82248   0.422   9.701   6.920 -1.9771  1.7751 -3.1639
  597MOL0     O82249   9.642   4.018   4.251  0.3269 -0.1583 -0.2198
  597MOL0     C82250   9.611   4.059   4.142 -0.3433 -0.2572 -1.2978
  597MOL0     O82251   9.605   3.990   4.028  0.4105 -0.2139  0.1361
  597MOL0     C82252   9.642   3.857   4.036  0.0281 -1.0880 -0.5263
  597MOL0     C82253   9.770   3.820   3.993 -0.5406 -0.0625 -0.3912
  597MOL0     C82254   9.815   3.684   3.995  1.1759 -0.1616  0.8167
  597MOL0     C82255   9.724   3.583   4.042  0.0937 -0.4041 -0.7225
  597MOL0     O82256   9.764   3.449   4.037  0.5807 -0.3679 -0.3792
  597MOL0     C82257   9.682   3.346   4.104  0.1335 -0.7423 -0.3137
  597MOL0     C82258   9.736   3.204   4.083 -0.0819 -0.3814 -0.4615
  597MOL0     C82259   9.683   3.118   4.192  0.6146  0.2405  0.1518
  597MOL0     C82260   9.724   2.971   4.169 -0.0120  0.7167  0.6333
  597MOL0     C82261   9.685   2.873   4.277  0.2893  0.2919 -0.4884
  597MOL0     C82262   9.793   2.889   4.387  0.3169 -0.8519 -0.3986
  597MOL0     C82263   9.780   2.778   4.501  0.0630  0.1438  0.6588
  597MOL0     C82264   9.854   2.815   4.627  0.7216 -0.1606 -0.1838
  597MOL0     N82265   9.832   2.712   4.718  0.3284  1.2827 -0.5094
  597MOL0     C82266   9.873   2.581   4.705 -1.0668 -0.2859 -0.1106
  597MOL0     C82267   9.818   2.515   4.810  0.1261  0.2685  0.1649
  597MOL0     C82268   9.814   2.368   4.828  0.2206 -0.0847 -0.5269
  597MOL0     C82269   9.954   2.297   4.826  0.3240 -1.4556 -0.2506
  597MOL0     C82270   9.961   2.164   4.884  0.1334 -0.6404  0.2768
  597MOL0     C82271  10.094   2.096   4.895 -0.4499  0.7654 -0.4575
  597MOL0     O82272  10.191   2.179   4.971  0.6623 -0.2294 -0.0458
  597MOL0     C82273  10.317   2.126   4.987  0.0588 -0.0162  0.7501
  597MOL0     C82274  10.384   2.042   4.898 -0.2619  0.5797  0.3754
  597MOL0     C82275  10.512   1.994   4.912  0.0342  0.0297 -0.5822
  597MOL0     C82276  10.569   1.915   4.792  1.2772 -1.5716 -0.0936
  597MOL0     C82277  10.593   2.048   5.019 -0.8099  0.6186 -0.7456
  597MOL0     C82278  10.737   2.007   5.050  0.3204  0.0373  0.3855
  597MOL0     O82279  10.817   1.962   4.946 -0.7136  0.5466  0.2919
  597MOL0     C82280  10.948   1.915   4.954  0.0202 -0.3056  0.3521
  597MOL0     C82281  11.003   1.864   4.840 -0.6537 -0.8269  0.7604
  597MOL0     C82282  11.139   1.823   4.832  0.1080  0.1033 -0.1475
  597MOL0     C82283  11.224   1.854   4.939  0.0464 -0.4632  0.6243
  597MOL0     O82284  11.353   1.826   4.924  0.4806  0.2314  1.0075
  597MOL0     C82285  11.436   1.787   5.037 -0.5265 -0.0717 -0.3410
  597MOL0     C82286  11.554   1.891   5.051  0.9012  0.4927 -1.2099
  597MOL0     C82287  11.651   1.853   5.170 -0.4679  0.0161  0.2065
  597MOL0     C82288  11.779   1.932   5.152  0.1017  0.5006 -0.3960
  597MOL0     C82289  11.886   1.927   5.267 -0.0019 -0.1441 -0.4956
  597MOL0     C82290  11.816   1.943   5.400  0.3667 -0.2747 -0.7888
  597MOL0     C82291  11.920   1.913   5.514  0.2888 -0.3700  0.9370
  597MOL0     C82292  12.026   2.017   5.532  0.3089 -0.2663 -0.2454
  597MOL0    Cl82293  12.161   1.981   5.643 -0.7332 -0.3520 -0.3397
  597MOL0     C82294  11.172   1.918   5.047  0.1312 -0.1576 -0.3103
  597MOL0     C82295  11.037   1.946   5.060  0.6645 -0.2147  0.0927
  597MOL0     O82296  10.770   2.018   5.163 -0.0746  0.3025  0.2794
  597MOL0     C82297  10.519   2.127   5.118  0.2029 -0.4804 -0.2446
  597MOL0     C82298  10.383   2.172   5.103 -0.9612  1.1437  0.0068
  597MOL0     N82299   9.741   2.609   4.881  0.3292 -1.0672  0.7997
  597MOL0     N82300   9.750   2.725   4.825 -0.5097 -0.3376 -0.1086
  597MOL0     C82301   9.593   3.623   4.074 -0.3241 -0.2476 -0.1568
  597MOL0     C82302   9.548   3.758   4.078 -0.2095  0.1706  1.1334
  597MOL0     C82303   9.572   4.204   4.139 -0.3689 -0.0554 -0.6993
  597MOL0     C82304   9.612   4.279   4.247  0.4854  0.2831 -0.0762
  597MOL0     C82305   9.595   4.413   4.259 -0.5655 -0.7582 -0.5492
  597MOL0     C82306   9.546   4.484   4.155  0.7108 -0.5568  0.2374
  597MOL0     O82307   9.541   4.622   4.170 -0.1866  1.0933  0.6700
  597MOL0     C82308   9.514   4.717   4.069  0.8596  0.3914 -0.0978
  597MOL0     C82309   9.550   4.864   4.116  0.4572 -0.0429 -0.2606
  597MOL0     C82310   9.511   4.976   4.013 -0.2915  0.2803  0.7357
  597MOL0     C82311   9.568   5.113   4.044 -0.0200  0.4668 -0.2740
  597MOL0     C82312   9.508   5.220   3.962  0.2367 -0.0642  0.5209
  597MOL0     C82313   9.451   5.304   3.894  0.7081  0.7624  0.2535
  597MOL0     C82314   9.511   4.419   4.033 -0.1546 -0.2874  0.1428
  597MOL0     C82315   9.517   4.273   4.026  0.4081 -0.7193 -0.3113
  597MOL0     C82316   9.476   4.211   3.900 -0.6534  0.0316 -0.2503
  597MOL0     H82317   9.833   3.902   3.960  0.3721 -1.1890 -1.5590
  597MOL0     H82318   9.915   3.656   3.962  1.2519 -2.4158  2.7336
  597MOL0     H82319   9.579   3.341   4.067  0.4668 -2.2575 -1.1217
  597MOL0     H82320   9.682   3.380   4.208 -0.0012 -1.0523 -0.2111
  597MOL0     H82321   9.696   3.161   3.991 -3.7754  3.5232 -0.9989
  597MOL0     H82322   9.845   3.197   4.075  0.3620  4.1724 -1.2466
  597MOL0     H82323   9.726   3.156   4.285  0.0828  1.7867 -0.2142
  597MOL0     H82324   9.575   3.131   4.205  0.8273  1.7520  0.5097
  597MOL0     H82325   9.692   2.940   4.070 -0.6600 -0.5837  1.2245
  597MOL0     H82326   9.832   2.959   4.162 -0.3522 -4.0247 -0.1142
  597MOL0     H82327   9.677   2.766   4.255 -0.6762  0.0869  0.7470
  597MOL0     H82328   9.584   2.901   4.309  0.6945 -0.3231  1.4488
  597MOL0     H82329   9.889   2.878   4.337  0.4116  0.0483 -0.4393
  597MOL0     H82330   9.789   2.990   4.430 -0.9150 -1.4131  0.8958
  597MOL0     H82331   9.825   2.685   4.464  3.1617  1.2615  1.2987
  597MOL0     H82332   9.676   2.763   4.529  0.8767 -1.4335  3.2010
  597MOL0     H82333   9.962   2.819   4.604  0.5789  0.5061 -0.7822
  597MOL0     H82334   9.825   2.905   4.680 -0.0466 -1.2611  1.3267
  597MOL0     H82335   9.935   2.535   4.629 -0.2365 -0.6731  0.7763
  597MOL0     H82336   9.755   2.318   4.749  2.4581 -3.6662 -0.1573
  597MOL0     H82337   9.760   2.342   4.920  0.7642 -3.3508 -0.9923
  597MOL0     H82338   9.976   2.282   4.720  0.2610  2.2696 -0.9205
  597MOL0     H82339  10.021   2.365   4.880 -2.4227  2.1110 -0.9001
  597MOL0     H82340   9.921   2.163   4.986 -3.7459  2.4222 -0.9553
  597MOL0     H82341   9.896   2.104   4.820 -0.8714  0.0934  0.5735
  597MOL0     H82342  10.081   1.998   4.941 -0.4869 -0.6792 -3.3611
  597MOL0     H82343  10.131   2.077   4.794  1.3339 -2.3092  0.6363
  597MOL0     H82344  10.327   2.013   4.811 -0.6283 -1.5102  1.2444
  597MOL0     H82345  10.490   1.889   4.722 -1.2459  1.2404  1.4398
  597MOL0     H82346  10.634   1.835   4.830  1.2307 -1.8181 -0.5279
  597MOL0     H82347  10.633   1.984   4.736 -0.6862 -1.3853 -2.2660
  597MOL0     H82348  10.939   1.850   4.753  2.1619  3.3894 -2.3856
  597MOL0     H82349  11.167   1.768   4.742 -0.3965 -2.6524  1.2743
  597MOL0     H82350  11.372   1.780   5.125 -3.8298  1.0097 -2.4286
  597MOL0     H82351  11.482   1.694   5.004  1.4952  0.9759 -0.6447
  597MOL0     H82352  11.606   1.879   4.955  2.3987 -0.7328 -0.2834
  597MOL0     H82353  11.517   1.994   5.053 -0.0290  0.2734 -3.4844
  597MOL0     H82354  11.660   1.747   5.194  0.3808  0.3777  1.6175
  597MOL0     H82355  11.596   1.886   5.259  2.2912 -0.7001  2.3167
  597MOL0     H82356  11.741   2.034   5.156  0.4131  0.6078  3.1870
  597MOL0     H82357  11.824   1.906   5.056  1.2158  1.9614 -0.3052
  597MOL0     H82358  11.934   1.829   5.269  1.5410  0.5512  1.9475
  597MOL0     H82359  11.966   1.999   5.250  0.9715 -0.7812  1.1141
  597MOL0     H82360  11.741   1.863   5.404  0.5494 -0.5629 -2.3574
  597MOL0     H82361  11.765   2.039   5.410  1.3960  0.2835 -0.7693
  597MOL0     H82362  11.977   1.822   5.491  1.0162  0.5054 -0.9784
  597MOL0     H82363  11.871   1.892   5.610  0.7362 -1.6337  0.9059
  597MOL0     H82364  11.974   2.107   5.564 -0.1433 -0.5386 -0.2037
  597MOL0     H82365  12.067   2.033   5.431 -0.9561 -0.3486 -0.7947
  597MOL0     H82366  11.235   1.928   5.135 -1.7455 -1.3043  1.2259
  597MOL0     H82367  10.997   1.999   5.146 -2.3069 -2.8723  0.5190
  597MOL0     H82368  10.569   2.177   5.200  0.6328 -2.6897  0.9171
  597MOL0     H82369  10.336   2.241   5.172 -0.5906  2.9627 -1.4748
  597MOL0     H82370   9.511   3.553   4.090 -0.6840  0.1500 -0.2467
  597MOL0     H82371   9.444   3.778   4.100 -0.7931 -1.3016 -0.0584
  597MOL0     H82372   9.664   4.229   4.327  0.2781 -1.1921 -0.8322
  597MOL0     H82373   9.615   4.472   4.348 -0.5138  0.7926 -1.5519
  597MOL0     H82374   9.556   4.688   3.972 -2.1258  0.9872 -1.7021
  597MOL0     H82375   9.408   4.721   4.042  1.1255 -2.7386 -2.0090
  597MOL0     H82376   9.657   4.861   4.137  0.9270  2.0753 -2.0467
  597MOL0     H82377   9.509   4.893   4.214  1.5896  3.3576 -0.6895
  597MOL0     H82378   9.557   4.948   3.918 -0.9978  1.3937  0.0516
  597MOL0     H82379   9.402   4.977   4.006 -0.3173  0.7717  1.1305
  597MOL0     H82380   9.676   5.117   4.029  0.2820 -2.5024  0.3986
  597MOL0     H82381   9.551   5.138   4.149 -0.2550 -0.9911  0.0697
  597MOL0     H82382   9.404   5.377   3.831  0.5252  0.4813  0.0639
  597MOL0     H82383   9.492   4.479   3.945  0.9843  1.2676  0.9161
  597MOL0     H82384   9.411   4.282   3.848 -0.7196  1.4875  1.7022
  597MOL0     H82385   9.562   4.181   3.840 -0.5719 -0.0395 -0.0970
  597MOL0     H82386   9.426   4.115   3.913  0.4920 -1.1292 -3.3359
  598MOL0     O82387   1.101   9.106   2.163 -0.1929 -0.1442  0.0771
  598MOL0     C82388   1.028   9.078   2.062 -0.4658 -0.5348  0.1549
  598MOL0     O82389   1.075   9.070   1.936  0.3801  0.2378  0.3389
  598MOL0     C82390   1.197   9.120   1.919  0.4443  0.4484  0.4568
  598MOL0     C82391   1.303   9.042   1.952 -0.0097  0.4155  0.6626
  598MOL0     C82392   1.437   9.080   1.921  0.8198 -0.2745 -0.3204
  598MOL0     C82393   1.461   9.208   1.855  0.0808 -0.4445  0.0206
  598MOL0     O82394   1.583   9.252   1.812 -0.4519 -0.2743 -0.1113
  598MOL0     C82395   1.683   9.147   1.806 -0.6643 -0.3091  0.0804
  598MOL0     C82396   1.805   9.191   1.721 -0.2646 -0.4893 -0.4780
  598MOL0     C82397   1.867   9.328   1.745 -0.2135  0.1395  0.5769
  598MOL0     C82398   1.812   9.422   1.636 -0.4682 -0.6720 -0.0697
  598MOL0     C82399   1.880   9.570   1.651  0.1574 -1.3615 -0.3508
  598MOL0     C82400   1.819   9.674   1.553 -0.4061 -0.1071 -0.2855
  598MOL0     C82401   1.867   9.817   1.576 -0.1415  0.0745  0.2222
  598MOL0     C82402   1.810   9.924   1.479  0.9788  0.2670  1.2440
  598MOL0     N82403   1.875   9.918   1.350  0.8805 -0.8378 -0.0638
  598MOL0     C82404   1.804   9.905   1.232  0.4251 -0.2626 -0.1027
  598MOL0     C82405   1.900   9.934   1.138 -0.7827 -0.3213 -0.7602
  598MOL0     C82406   1.882   9.924   0.986  0.0189  0.1611  0.0697
  598MOL0     C82407   1.848  10.064   0.936  0.3328  0.0742 -0.5389
  598MOL0     C82408   1.701  10.090   0.927 -0.2948  0.0615  0.1900
  598MOL0     C82409   1.665  10.204   0.828 -0.0425 -0.4382  0.2026
  598MOL0     O82410   1.716  10.194   0.701  0.7131  0.1341  0.7270
  598MOL0     C82411   1.692  10.295   0.612 -0.0536 -0.1156 -0.2996
  598MOL0     C82412   1.794  10.316   0.514  0.9507 -0.0823  0.2197
  598MOL0     C82413   1.788  10.427   0.421 -0.8141 -1.2138  0.4574
  598MOL0     C82414   1.907  10.450   0.329 -0.4611 -0.7638  0.0951
  598MOL0     C82415   1.670  10.508   0.430 -0.2806  0.6512 -0.4767
  598MOL0     C82416   1.648  10.622   0.325 -0.1423 -0.3601 -0.0363
  598MOL0     O82417   1.598  10.739   0.371 -0.2289  0.0854 -0.4668
  598MOL0     C82418   1.566  10.850   0.291 -0.3899 -0.0741  0.3818
  598MOL0     C82419   1.659  10.920   0.214 -1.0864 -0.7150 -0.0069
  598MOL0     C82420   1.634  11.036   0.140  0.7728  0.5283 -0.3095
  598MOL0     C82421   1.496  11.071   0.135 -0.6361 -0.2195 -0.5778
  598MOL0     O82422   1.456  11.182   0.058 -0.1867 -0.3236  0.0180
  598MOL0     C82423   1.482  11.155  -0.083  0.0869 -0.0896 -0.5103
  598MOL0     C82424   1.483  11.283  -0.164  0.3608  0.2975 -0.5404
  598MOL0     C82425   1.612  11.359  -0.157 -0.2889 -1.2769  0.4873
  598MOL0     C82426   1.628  11.417  -0.009  0.1257  0.5971  0.0237
  598MOL0     C82427   1.739  11.512  -0.001 -0.6066 -0.1760  0.6125
  598MOL0     C82428   1.697  11.651   0.053 -0.3188 -0.1030 -0.4061
  598MOL0     C82429   1.823  11.724   0.101  0.2119 -0.4132 -0.2542
  598MOL0     C82430   1.804  11.878   0.127  0.6032  0.4955  0.2796
  598MOL0    Cl82431   1.953  11.961   0.193  0.4208  0.0292  0.2210
  598MOL0     C82432   1.393  11.000   0.209 -0.3848  0.0517 -0.5862
  598MOL0     C82433   1.432  10.895   0.290 -0.0092  0.6243 -0.4128
  598MOL0     O82434   1.677  10.606   0.209 -0.1347  0.5035  0.3667
  598MOL0     C82435   1.567  10.486   0.524  0.0947  0.1233  0.1564
  598MOL0     C82436   1.580  10.375   0.611  0.2544 -0.0801 -0.5289
  598MOL0     N82437   2.021   9.955   1.198  0.6025  0.1856 -0.2453
  598MOL0     N82438   2.008   9.943   1.322  0.4676  0.5458 -0.0181
  598MOL0     C82439   1.345   9.293   1.829  0.2489  1.0067 -0.2472
  598MOL0     C82440   1.223   9.244   1.867  0.2424 -1.3727  0.1474
  598MOL0     C82441   0.885   9.034   2.090  0.3871  0.6769  1.0228
  598MOL0     C82442   0.826   8.947   1.992  1.0634  0.0374 -0.6111
  598MOL0     C82443   0.696   8.895   2.008 -0.0835  0.0476  0.0367
  598MOL0     C82444   0.615   8.919   2.122  0.2355 -0.4650 -0.5779
  598MOL0     O82445   0.489   8.861   2.148 -0.3030  0.2467 -0.1536
  598MOL0     C82446   0.420   8.787   2.045  0.5399  0.1318 -0.5327
  598MOL0     C82447   0.467   8.640   2.024 -0.6168  0.9833  0.8851
  598MOL0     C82448   0.377   8.579   1.907  0.5296 -0.3424 -0.1395
  598MOL0     C82449   0.388   8.649   1.767  0.2319 -0.1360  0.7636
  598MOL0     C82450   0.525   8.676   1.731  0.6140  0.0878  0.6987
  598MOL0     C82451   0.640   8.699   1.700  0.1600 -0.5663  0.9148
  598MOL0     C82452   0.673   9.006   2.213 -0.8479 -0.0428 -1.4950
  598MOL0     C82453   0.805   9.064   2.207  0.1712  0.4106 -0.3356
  598MOL0     C82454   0.850   9.158   2.306  0.6859 -0.9398 -0.6130
  598MOL0     H82455   1.295   8.946   2.003  0.0344  0.2873  0.4338
  598MOL0     H82456   1.517   9.015   1.953 -0.8653 -2.2123  0.1491
  598MOL0     H82457   1.638   9.057   1.763 -2.8725  0.6809  0.2029
  598MOL0     H82458   1.709   9.109   1.905 -3.0421  0.6783  1.1443
  598MOL0     H82459   1.879   9.110   1.728  0.4739  0.2990  3.6187
  598MOL0     H82460   1.778   9.185   1.615  0.2748  1.4276 -0.7474
  598MOL0     H82461   1.837   9.361   1.845 -1.6366 -1.7820  0.8513
  598MOL0     H82462   1.976   9.323   1.745 -0.1528  0.7382  2.1791
  598MOL0     H82463   1.827   9.384   1.535  2.9363 -0.3497  0.2208
  598MOL0     H82464   1.706   9.431   1.661 -0.3815  1.7997 -0.3417
  598MOL0     H82465   1.986   9.570   1.623  0.0192  0.7718 -1.0783
  598MOL0     H82466   1.886   9.591   1.758  0.4760 -0.7423 -0.4840
  598MOL0     H82467   1.870   9.653   1.459 -0.9888  2.3254 -1.2423
  598MOL0     H82468   1.710   9.672   1.554 -0.4606  0.9803  1.5493
  598MOL0     H82469   1.976   9.823   1.566 -0.1900  0.5586 -0.0207
  598MOL0     H82470   1.840   9.839   1.679  1.3479  2.3125  0.1956
  598MOL0     H82471   1.701   9.924   1.468  1.0410  1.3288  0.4637
  598MOL0     H82472   1.818  10.021   1.530  0.3930  0.4495  0.9968
  598MOL0     H82473   1.698   9.886   1.217  0.1282 -0.9922  2.4811
  598MOL0     H82474   1.806   9.854   0.950  1.4851 -0.7470 -1.3849
  598MOL0     H82475   1.984   9.906   0.951 -0.0810 -0.6050  0.1497
  598MOL0     H82476   1.895  10.143   0.996  0.6236  1.0290 -1.9788
  598MOL0     H82477   1.900  10.081   0.841 -0.0020  0.6999 -0.6166
  598MOL0     H82478   1.635  10.004   0.913 -0.0462 -0.1685  0.4405
  598MOL0     H82479   1.668  10.142   1.018 -0.8057  0.9421 -0.4719
  598MOL0     H82480   1.556  10.198   0.818 -0.2752  2.1972  0.4025
  598MOL0     H82481   1.700  10.295   0.877  1.0062 -1.1858  0.8749
  598MOL0     H82482   1.877  10.247   0.522  0.5568 -0.6610 -0.5846
  598MOL0     H82483   1.999  10.392   0.340 -0.3302 -1.1776 -2.5449
  598MOL0     H82484   1.939  10.554   0.338 -2.8887  0.0008  0.7281
  598MOL0     H82485   1.873  10.430   0.227  0.8294  2.4056 -1.0796
  598MOL0     H82486   1.759  10.880   0.203 -1.1211 -1.0880  0.9344
  598MOL0     H82487   1.715  11.076   0.079 -1.5172 -1.0848 -4.9377
  598MOL0     H82488   1.581  11.112  -0.101  0.6694  0.9472  0.1676
  598MOL0     H82489   1.410  11.080  -0.120 -1.0738  1.3866 -1.3472
  598MOL0     H82490   1.478  11.250  -0.268 -0.4351 -3.2295  0.4669
  598MOL0     H82491   1.397  11.343  -0.135 -0.8157 -1.8777  0.7675
  598MOL0     H82492   1.612  11.451  -0.217  1.8738 -0.1802  2.0522
  598MOL0     H82493   1.698  11.295  -0.177  1.1327  1.0057 -1.1872
  598MOL0     H82494   1.649  11.333   0.058 -3.9965 -1.4638 -0.8702
  598MOL0     H82495   1.535  11.466   0.022 -0.6184 -0.3339 -0.6409
  598MOL0     H82496   1.809  11.467   0.071  0.1694 -2.4436 -1.4270
  598MOL0     H82497   1.782  11.524  -0.101 -4.3186  0.3747 -1.0539
  598MOL0     H82498   1.618  11.642   0.128 -0.5878 -0.2987 -0.7143
  598MOL0     H82499   1.646  11.720  -0.015 -0.5884  2.4047  2.1147
  598MOL0     H82500   1.897  11.708   0.022  0.0527 -0.5915 -0.3681
  598MOL0     H82501   1.862  11.679   0.192  1.1950 -0.5930 -0.7481
  598MOL0     H82502   1.713  11.885   0.187 -0.1827  0.0895 -0.8239
  598MOL0     H82503   1.781  11.932   0.035  2.7126 -2.4145 -2.1702
  598MOL0     H82504   1.289  11.031   0.199  0.1150  1.1312 -3.5498
  598MOL0     H82505   1.354  10.839   0.342  0.4091  0.4562  0.0384
  598MOL0     H82506   1.480  10.550   0.516  1.9645  3.2074  2.2094
  598MOL0     H82507   1.503  10.349   0.682 -1.7389  2.2068 -1.6625
  598MOL0     H82508   1.367   9.396   1.801  2.3219  0.0849 -2.2876
  598MOL0     H82509   1.131   9.301   1.862  1.2642  0.4808  1.3459
  598MOL0     H82510   0.866   8.927   1.893  1.4550 -0.4422 -0.3620
  598MOL0     H82511   0.669   8.811   1.945 -1.0291 -0.3580  0.9374
  598MOL0     H82512   0.318   8.793   2.083  1.4729  3.4984  1.9371
  598MOL0     H82513   0.421   8.841   1.951  1.2876  0.5127 -0.3161
  598MOL0     H82514   0.457   8.585   2.118 -3.0157 -1.3165 -0.6059
  598MOL0     H82515   0.573   8.634   1.995 -1.1732 -4.8481 -1.1233
  598MOL0     H82516   0.382   8.473   1.883 -1.0625  0.0355 -2.3728
  598MOL0     H82517   0.274   8.589   1.943  0.8911  0.9593  0.6067
  598MOL0     H82518   0.331   8.743   1.767  0.1491 -0.1584 -0.6904
  598MOL0     H82519   0.338   8.591   1.688 -0.6008  1.1139  0.3327
  598MOL0     H82520   0.739   8.716   1.660 -0.1465 -0.4060  0.2019
  598MOL0     H82521   0.616   9.028   2.303  1.2419 -1.5144  0.3075
  598MOL0     H82522   0.776   9.174   2.386  1.3511 -0.3773 -0.0901
  598MOL0     H82523   0.939   9.120   2.356 -0.3632 -1.3210  1.0606
  598MOL0     H82524   0.876   9.257   2.266  2.2524 -1.2371 -0.3586
  599MOL0     O82525   4.825   7.836   7.239 -1.0921  0.2087  0.2062
  599MOL0     C82526   4.903   7.774   7.168 -0.4278 -1.0189  0.2836
  599MOL0     O82527   4.870   7.681   7.076  0.3282 -0.2001  0.0700
  599MOL0     C82528   4.737   7.661   7.054  0.1981  0.5189 -1.1407
  599MOL0     C82529   4.662   7.573   7.122  0.6042  0.1776 -0.0685
  599MOL0     C82530   4.521   7.566   7.087 -0.5405  0.1970 -0.4166
  599MOL0     C82531   4.471   7.635   6.977  0.2973 -0.5166  0.1268
  599MOL0     O82532   4.334   7.617   6.946  0.1281 -0.5897  0.1090
  599MOL0     C82533   4.280   7.694   6.837  0.7211  0.1601  0.5145
  599MOL0     C82534   4.306   7.628   6.705 -0.8678  0.4257  0.9438
  599MOL0     C82535   4.299   7.727   6.597 -0.5995 -0.3038 -0.1038
  599MOL0     C82536   4.156   7.778   6.583  0.7177 -0.0240  0.4449
  599MOL0     C82537   4.125   7.860   6.454  0.0733 -0.1110 -0.7950
  599MOL0     C82538   4.193   8.000   6.450 -0.0677 -0.2106 -0.1084
  599MOL0     C82539   4.186   8.076   6.315  0.7106 -0.3625 -0.3141
  599MOL0     C82540   4.268   8.003   6.217 -0.9467 -0.2606  0.2765
  599MOL0     N82541   4.314   8.094   6.105 -0.6689  0.5877  0.0557
  599MOL0     C82542   4.230   8.146   6.008  0.1024 -0.2622 -0.1148
  599MOL0     C82543   4.300   8.237   5.937 -0.0959 -0.8464  0.1335
  599MOL0     C82544   4.244   8.308   5.809  0.0448  0.5249 -0.6566
  599MOL0     C82545   4.303   8.455   5.806 -0.5785  0.4749 -0.4661
  599MOL0     C82546   4.240   8.538   5.698  0.0177 -0.4136  0.4638
  599MOL0     C82547   4.257   8.699   5.712  0.5674  0.2248 -0.2305
  599MOL0     O82548   4.207   8.725   5.844  0.2574  0.4545  0.4225
  599MOL0     C82549   4.075   8.766   5.847  0.9129  0.3350  0.6659
  599MOL0     C82550   4.030   8.886   5.796  0.8406 -0.4335 -0.4049
  599MOL0     C82551   3.890   8.917   5.819 -0.1169 -0.2491  0.6434
  599MOL0     C82552   3.828   9.057   5.789 -0.0499 -0.1099  0.3660
  599MOL0     C82553   3.805   8.825   5.892 -0.4617 -0.2446 -0.3646
  599MOL0     C82554   3.670   8.856   5.936  0.6207 -0.1997  0.4390
  599MOL0     O82555   3.579   8.762   5.895  0.4966 -0.5712  0.0800
  599MOL0     C82556   3.445   8.798   5.882 -0.7946  0.0686  0.2634
  599MOL0     C82557   3.365   8.849   5.986 -0.4216  0.0879  0.3277
  599MOL0     C82558   3.228   8.895   5.959 -0.0634 -0.8865  0.4107
  599MOL0     C82559   3.173   8.871   5.834 -0.4187 -0.4119  0.5148
  599MOL0     O82560   3.035   8.908   5.827  0.3258  0.0526  0.0629
  599MOL0     C82561   2.992   8.948   5.691 -0.3159  0.6885 -0.4615
  599MOL0     C82562   2.938   8.838   5.598  0.0858  0.8701 -0.4588
  599MOL0     C82563   2.785   8.810   5.608 -0.0802  1.0975  0.7221
  599MOL0     C82564   2.753   8.716   5.482  0.6478 -0.0200 -0.5520
  599MOL0     C82565   2.597   8.696   5.464 -0.6593  0.7271 -0.0567
  599MOL0     C82566   2.582   8.571   5.374  0.9299 -0.6327  0.3345
  599MOL0     C82567   2.435   8.543   5.336  0.9589  0.6565 -0.0056
  599MOL0     C82568   2.422   8.393   5.283  0.0023 -0.2434 -0.6322
  599MOL0    Cl82569   2.424   8.395   5.101 -0.3080 -0.0194 -0.0575
  599MOL0     C82570   3.251   8.815   5.735  0.2144 -0.0313  0.6003
  599MOL0     C82571   3.379   8.781   5.759  0.0049  0.5069  0.1449
  599MOL0     O82572   3.641   8.961   5.999  0.5630  0.5622  0.4192
  599MOL0     C82573   3.853   8.707   5.939  0.4019  1.0591 -0.4960
  599MOL0     C82574   3.984   8.681   5.918 -0.6639 -0.8909 -0.3258
  599MOL0     N82575   4.424   8.249   5.998  0.3812 -0.3164 -1.0651
  599MOL0     N82576   4.430   8.163   6.097 -1.0379  0.0741 -0.1521
  599MOL0     C82577   4.559   7.706   6.895  0.3902  0.2099  0.6339
  599MOL0     C82578   4.691   7.723   6.941  1.0583  0.4281  0.0451
  599MOL0     C82579   5.047   7.811   7.167  0.4858  0.2661 -0.7108
  599MOL0     C82580   5.113   7.807   7.046 -0.8891 -1.2583 -0.0194
  599MOL0     C82581   5.251   7.854   7.032  0.3510 -0.0787  0.2096
  599MOL0     C82582   5.312   7.909   7.142  0.6300 -1.4387 -0.7243
  599MOL0     O82583   5.446   7.952   7.134  0.3344  0.8245  0.7845
  599MOL0     C82584   5.541   7.878   7.058  0.2336  0.1785 -0.0973
  599MOL0     C82585   5.674   7.956   7.044  0.6218  0.4551  0.8063
  599MOL0     C82586   5.663   8.104   6.994 -0.4323  0.5229 -0.3700
  599MOL0     C82587   5.598   8.219   7.070 -0.0666 -0.9353 -0.6837
  599MOL0     C82588   5.619   8.342   6.984  0.8975 -0.2391 -0.6419
  599MOL0     C82589   5.630   8.449   6.932  0.4490 -0.1434  0.0331
  599MOL0     C82590   5.250   7.915   7.266  1.4227 -0.1507 -0.5394
  599MOL0     C82591   5.122   7.850   7.282 -0.3600 -1.6666 -0.1924
  599MOL0     C82592   5.069   7.844   7.423  0.6773  0.9232  0.5028
  599MOL0     H82593   4.705   7.505   7.195  0.4576  0.0169 -0.1318
  599MOL0     H82594   4.460   7.505   7.153 -0.3268 -1.4161 -1.6414
  599MOL0     H82595   4.326   7.793   6.847 -0.6733  0.8155  0.6762
  599MOL0     H82596   4.174   7.712   6.856  0.6446  0.0836  0.1565
  599MOL0     H82597   4.409   7.592   6.691 -0.7076  1.5800 -1.4411
  599MOL0     H82598   4.237   7.544   6.699 -0.0567 -0.1525 -1.6449
  599MOL0     H82599   4.369   7.810   6.610 -0.8839  0.2882 -1.9513
  599MOL0     H82600   4.330   7.684   6.501  0.2549 -0.5245  0.2645
  599MOL0     H82601   4.088   7.693   6.571  0.4746 -0.1868  2.5990
  599MOL0     H82602   4.112   7.835   6.665 -0.0237  1.1816 -0.7507
  599MOL0     H82603   4.017   7.877   6.455  0.0209 -0.4392 -0.0888
  599MOL0     H82604   4.162   7.798   6.372 -0.9817 -1.4019 -0.3376
  599MOL0     H82605   4.141   8.057   6.527 -0.3208 -0.4339 -0.1086
  599MOL0     H82606   4.296   7.998   6.485 -0.8018 -1.7147  2.1727
  599MOL0     H82607   4.237   8.171   6.332  0.8484 -0.3516 -0.7716
  599MOL0     H82608   4.080   8.086   6.289  0.2554 -2.1907  0.6536
  599MOL0     H82609   4.358   7.964   6.265 -1.0425 -1.3616 -0.4040
  599MOL0     H82610   4.218   7.916   6.174  0.6167 -2.1029  1.9532
  599MOL0     H82611   4.122   8.134   5.997 -0.1227  0.5459  1.0981
  599MOL0     H82612   4.135   8.304   5.814 -0.1155 -1.6153 -3.4764
  599MOL0     H82613   4.285   8.254   5.723  2.5771  1.7580 -0.3104
  599MOL0     H82614   4.292   8.499   5.906 -1.0810  1.2214 -0.8419
  599MOL0     H82615   4.411   8.455   5.789 -0.2351  2.3262  1.1996
  599MOL0     H82616   4.280   8.510   5.600  0.3280 -0.6094  0.6432
  599MOL0     H82617   4.132   8.525   5.690  0.2088 -1.3646 -0.9953
  599MOL0     H82618   4.358   8.740   5.705  0.6138  0.2215  0.3741
  599MOL0     H82619   4.193   8.754   5.642 -0.0545  0.7177  0.6984
  599MOL0     H82620   4.099   8.953   5.747  1.1141 -1.1636 -1.0461
  599MOL0     H82621   3.728   9.041   5.746 -1.4273 -1.6246  3.8290
  599MOL0     H82622   3.887   9.120   5.722 -1.9744  1.5223  0.0976
  599MOL0     H82623   3.810   9.110   5.883  0.2474  1.9671 -0.6801
  599MOL0     H82624   3.404   8.851   6.087 -2.3870 -4.0506  1.3788
  599MOL0     H82625   3.179   8.963   6.027  1.3986  4.4844 -3.2201
  599MOL0     H82626   2.914   9.025   5.696 -2.8495 -1.6509 -1.4878
  599MOL0     H82627   3.070   8.998   5.632 -1.4978  1.1003 -1.7262
  599MOL0     H82628   2.974   8.849   5.495 -0.0848 -0.2213 -0.6549
  599MOL0     H82629   2.987   8.745   5.630 -0.0882  1.0814  0.4399
  599MOL0     H82630   2.728   8.902   5.593 -0.5036  0.7979  0.4627
  599MOL0     H82631   2.745   8.764   5.699  1.6540 -2.5764 -0.1382
  599MOL0     H82632   2.811   8.624   5.498 -0.6580 -0.3002  3.8216
  599MOL0     H82633   2.780   8.765   5.388 -2.7595  0.9014 -1.1862
  599MOL0     H82634   2.546   8.687   5.560 -1.5405  1.3736 -0.4493
  599MOL0     H82635   2.549   8.785   5.420 -0.7818  2.3659  3.0687
  599MOL0     H82636   2.622   8.481   5.421  0.7921 -1.3070 -0.7880
  599MOL0     H82637   2.644   8.588   5.285  1.9137 -1.6018  0.8188
  599MOL0     H82638   2.404   8.603   5.250  3.4925  0.3925 -1.2112
  599MOL0     H82639   2.365   8.549   5.419 -1.1184 -2.3635 -1.3663
  599MOL0     H82640   2.333   8.341   5.319  1.0287 -0.6063  1.5483
  599MOL0     H82641   2.504   8.327   5.315  0.0742  0.3087  0.3462
  599MOL0     H82642   3.206   8.802   5.637 -0.5819  1.6993  0.6913
  599MOL0     H82643   3.434   8.737   5.676 -2.7411  1.1205 -2.1456
  599MOL0     H82644   3.800   8.641   6.006  0.1391  2.3900  0.6620
  599MOL0     H82645   4.029   8.593   5.963 -0.9255  0.0605  1.9043
  599MOL0     H82646   4.536   7.752   6.799 -3.2721  0.4308  1.4496
  599MOL0     H82647   4.764   7.761   6.871  1.5896  1.2994  1.0500
  599MOL0     H82648   5.065   7.775   6.955 -2.4615  0.8477 -0.0050
  599MOL0     H82649   5.309   7.849   6.940 -0.3871 -0.0357 -0.2723
  599MOL0     H82650   5.567   7.783   7.106  3.0839  0.6686 -0.4770
  599MOL0     H82651   5.500   7.852   6.960  2.2171 -1.7783 -0.4862
  599MOL0     H82652   5.743   7.902   6.978  1.2411  2.5183 -0.3448
  599MOL0     H82653   5.725   7.967   7.140  2.3771  1.8443 -0.2093
  599MOL0     H82654   5.766   8.136   6.975 -0.8618  1.5930 -1.0150
  599MOL0     H82655   5.608   8.095   6.900 -1.1683  0.8529  0.0289
  599MOL0     H82656   5.635   8.221   7.173 -0.9520 -0.0215 -0.3697
  599MOL0     H82657   5.492   8.195   7.083 -0.1775 -0.1204  0.0388
  599MOL0     H82658   5.639   8.543   6.880  2.9517  0.0523  0.7025
  599MOL0     H82659   5.309   7.957   7.347  3.4199 -0.9056 -1.5504
  599MOL0     H82660   4.996   7.763   7.426 -0.8251  2.2501  1.0444
  599MOL0     H82661   5.141   7.820   7.502  1.6309  1.7113 -0.0958
  599MOL0     H82662   5.023   7.940   7.450  0.9803  1.4296 -0.6956
  600MOL0     O82663   8.595   2.906   7.228 -0.3699 -0.3246 -0.7895
  600MOL0     C82664   8.587   3.017   7.281 -0.6537  0.2552  0.5895
  600MOL0     O82665   8.665   3.051   7.388 -0.5206 -0.2150  0.0203
  600MOL0     C82666   8.762   2.976   7.446 -0.1337 -0.4695  0.1106
  600MOL0     C82667   8.735   2.878   7.541  0.0695  0.7940  0.1817
  600MOL0     C82668   8.837   2.800   7.597  0.4442 -0.2344  0.1468
  600MOL0     C82669   8.969   2.814   7.559  0.0541 -0.6161 -0.0682
  600MOL0     O82670   9.053   2.730   7.615  0.0511 -0.1473  0.1720
  600MOL0     C82671   9.185   2.728   7.563  0.0214  0.7134 -0.6603
  600MOL0     C82672   9.286   2.637   7.640  0.1186  0.6045 -0.2152
  600MOL0     C82673   9.329   2.707   7.766  0.5142 -0.0658  0.3563
  600MOL0     C82674   9.457   2.639   7.830 -0.5217 -0.6264 -0.2411
  600MOL0     C82675   9.526   2.722   7.939  0.3529  0.4171 -0.7872
  600MOL0     C82676   9.441   2.754   8.066 -0.4259  0.2391 -0.2879
  600MOL0     C82677   9.532   2.770   8.193  0.1491 -0.4669  0.7758
  600MOL0     C82678   9.459   2.805   8.320 -0.6314  0.3696  0.1448
  600MOL0     N82679   9.388   2.938   8.320 -0.2054  0.5793  0.3275
  600MOL0     C82680   9.449   3.056   8.352 -0.4651 -0.7266 -0.7961
  600MOL0     C82681   9.347   3.137   8.381 -0.2973 -0.6463  0.5485
  600MOL0     C82682   9.365   3.285   8.414 -0.2131  1.0828 -0.8272
  600MOL0     C82683   9.353   3.309   8.567 -0.4123 -0.6918 -0.0913
  600MOL0     C82684   9.390   3.456   8.592  0.2879  0.0839  0.1790
  600MOL0     C82685   9.333   3.490   8.736  0.0006  1.0905 -0.1268
  600MOL0     O82686   9.315   3.626   8.748  0.1706  0.0164 -0.4071
  600MOL0     C82687   9.185   3.671   8.737  0.3895  0.5338 -0.5209
  600MOL0     C82688   9.099   3.618   8.643  0.1388 -0.1983 -0.2686
  600MOL0     C82689   8.965   3.650   8.627 -0.5199 -0.3783 -0.1634
  600MOL0     C82690   8.894   3.565   8.531  0.4072  0.1311 -0.4626
  600MOL0     C82691   8.915   3.750   8.708 -0.0926  0.1314 -0.0663
  600MOL0     C82692   8.773   3.802   8.710  0.5788  0.0777  1.1018
  600MOL0     O82693   8.750   3.937   8.743 -0.1230 -0.3004  0.1393
  600MOL0     C82694   8.625   3.981   8.744 -0.4819  0.1385  0.1606
  600MOL0     C82695   8.577   4.083   8.658  0.2899  0.9191  0.2571
  600MOL0     C82696   8.444   4.131   8.673  0.6643  0.4225  0.0383
  600MOL0     C82697   8.347   4.076   8.761  0.0452 -0.0303  0.2567
  600MOL0     O82698   8.220   4.122   8.754  0.2261 -0.3514 -1.1482
  600MOL0     C82699   8.113   4.061   8.827  0.0262 -0.3543 -0.4384
  600MOL0     C82700   7.974   4.097   8.778 -0.8298  0.3508  0.3638
  600MOL0     C82701   7.873   4.129   8.886 -0.1334  0.2648 -0.3452
  600MOL0     C82702   7.743   4.189   8.820  0.7669  0.0209 -0.6041
  600MOL0     C82703   7.629   4.227   8.920  0.5162  0.5986 -0.4977
  600MOL0     C82704   7.509   4.296   8.852 -0.0020 -0.5748 -0.4102
  600MOL0     C82705   7.407   4.341   8.959  0.4425 -0.1282 -0.1650
  600MOL0     C82706   7.412   4.474   9.021  0.1675 -0.1719  0.7719
  600MOL0    Cl82707   7.368   4.596   8.894  0.4319 -0.0062  0.2763
  600MOL0     C82708   8.391   3.971   8.839 -0.7978 -0.0388 -0.6311
  600MOL0     C82709   8.528   3.925   8.830 -0.3640 -0.4611  0.3888
  600MOL0     O82710   8.686   3.719   8.675 -0.4407 -0.2436 -0.1779
  600MOL0     C82711   9.006   3.812   8.805  0.6578  0.4968 -0.1443
  600MOL0     C82712   9.144   3.784   8.809  0.9097  0.1407  0.1188
  600MOL0     N82713   9.223   3.077   8.351  0.1655  0.1234  0.6826
  600MOL0     N82714   9.253   2.951   8.328  0.4891 -0.7432  0.2433
  600MOL0     C82715   8.993   2.910   7.449 -0.2067 -0.2786 -0.5125
  600MOL0     C82716   8.891   2.979   7.393  0.5139  0.1924 -0.1010
  600MOL0     C82717   8.504   3.130   7.231  0.4578 -0.3180 -0.0079
  600MOL0     C82718   8.492   3.244   7.309  0.5207 -0.6941  0.2148
  600MOL0     C82719   8.419   3.352   7.255 -0.2738 -0.3351 -0.6377
  600MOL0     C82720   8.359   3.355   7.126 -0.1273  0.7250 -0.6778
  600MOL0     O82721   8.258   3.444   7.094 -0.5201 -0.5187  0.1822
  600MOL0     C82722   8.274   3.522   6.970  0.0615  0.4985 -0.3735
  600MOL0     C82723   8.367   3.639   7.007  1.4935  0.3684  0.0131
  600MOL0     C82724   8.516   3.619   6.997  0.5295  0.0964  0.1650
  600MOL0     C82725   8.595   3.744   6.988  0.4793 -0.3527  0.2428
  600MOL0     C82726   8.627   3.796   6.855 -0.4362 -0.0594  0.5163
  600MOL0     C82727   8.674   3.840   6.750  0.5209 -0.1170  0.6660
  600MOL0     C82728   8.371   3.238   7.054 -0.2962  0.4494  0.8255
  600MOL0     C82729   8.437   3.127   7.107  0.5431  0.4288 -0.2982
  600MOL0     C82730   8.446   3.004   7.018 -0.1177 -0.3778 -0.8383
  600MOL0     H82731   8.640   2.871   7.591 -0.5736 -1.6795 -1.2503
  600MOL0     H82732   8.821   2.720   7.669 -0.2950 -1.8327 -1.7052
  600MOL0     H82733   9.231   2.827   7.558  3.0658 -0.5983 -0.8921
  600MOL0     H82734   9.179   2.681   7.464  1.2626 -1.6476  0.2943
  600MOL0     H82735   9.230   2.550   7.676 -0.6763  2.7725  4.6451
  600MOL0     H82736   9.375   2.607   7.583 -1.2650  1.2968 -2.8703
  600MOL0     H82737   9.348   2.813   7.746  1.9298 -0.7623 -2.6419
  600MOL0     H82738   9.251   2.703   7.842  1.3104  0.1467  1.2071
  600MOL0     H82739   9.439   2.542   7.877  3.3298 -0.2449  2.5360
  600MOL0     H82740   9.526   2.628   7.745 -2.3261  3.6763 -2.5814
  600MOL0     H82741   9.544   2.819   7.892 -2.0701  1.6205  0.5076
  600MOL0     H82742   9.623   2.677   7.962  0.3059 -1.1585 -3.3375
  600MOL0     H82743   9.380   2.844   8.052 -0.0063  0.4820 -0.5602
  600MOL0     H82744   9.369   2.673   8.080  0.0291 -0.1528 -0.2146
  600MOL0     H82745   9.605   2.845   8.161 -2.0038  0.1430 -3.2713
  600MOL0     H82746   9.591   2.679   8.209  1.3915  0.4206  1.4580
  600MOL0     H82747   9.379   2.731   8.320 -2.6345  2.4140  0.4815
  600MOL0     H82748   9.526   2.798   8.406  0.1722 -0.6765 -0.5400
  600MOL0     H82749   9.552   3.074   8.381 -0.2956  0.1607 -1.9084
  600MOL0     H82750   9.298   3.348   8.356 -1.9468 -0.9844 -1.1964
  600MOL0     H82751   9.469   3.312   8.394  1.4429 -2.7730  1.4049
  600MOL0     H82752   9.248   3.295   8.593 -0.3879 -0.6129  0.0481
  600MOL0     H82753   9.422   3.248   8.626  0.1757 -2.1165 -2.1012
  600MOL0     H82754   9.499   3.470   8.600  0.5037 -2.2815  3.0525
  600MOL0     H82755   9.339   3.519   8.519 -0.1137 -0.9162 -0.4227
  600MOL0     H82756   9.244   3.430   8.753  0.8933 -1.2473 -2.9711
  600MOL0     H82757   9.412   3.454   8.802  1.8657  0.0521 -2.7391
  600MOL0     H82758   9.135   3.532   8.587  4.0119  0.6026  0.6904
  600MOL0     H82759   8.826   3.499   8.586  1.2513 -1.1370 -0.8881
  600MOL0     H82760   8.960   3.501   8.472 -1.2186 -3.1653  0.9953
  600MOL0     H82761   8.836   3.630   8.464 -0.8106 -0.2263  0.2122
  600MOL0     H82762   8.634   4.117   8.572  1.1723  1.3741  1.0046
  600MOL0     H82763   8.410   4.211   8.608 -1.5882 -0.9366 -0.5627
  600MOL0     H82764   8.118   3.952   8.825  1.7704 -0.2963 -2.6092
  600MOL0     H82765   8.117   4.096   8.930 -0.5993  0.6181 -0.7301
  600MOL0     H82766   7.987   4.180   8.707 -0.0373  1.2700  1.5462
  600MOL0     H82767   7.951   4.018   8.705  0.3317  0.0720  0.2774
  600MOL0     H82768   7.906   4.205   8.958 -3.4532 -0.8271  2.6670
  600MOL0     H82769   7.844   4.041   8.945  1.8501 -1.6789 -2.1214
  600MOL0     H82770   7.706   4.123   8.740  2.4057  1.3015 -2.5249
  600MOL0     H82771   7.770   4.279   8.764  0.5027 -1.1763 -2.8047
  600MOL0     H82772   7.596   4.135   8.970 -0.1846  1.5259  0.8272
  600MOL0     H82773   7.662   4.300   8.994 -0.9947  1.6227 -0.7837
  600MOL0     H82774   7.465   4.229   8.776  0.3501 -1.0943 -0.1640
  600MOL0     H82775   7.543   4.383   8.796  0.4836 -0.2304  0.4080
  600MOL0     H82776   7.413   4.274   9.046 -0.9537  1.4476  1.2192
  600MOL0     H82777   7.300   4.332   8.934 -0.5576  0.0843  3.4168
  600MOL0     H82778   7.509   4.506   9.061 -0.2066  2.1125  0.0172
  600MOL0     H82779   7.344   4.487   9.105 -0.8176 -0.4281  0.0247
  600MOL0     H82780   8.318   3.915   8.896 -0.3793 -1.4531 -1.4384
  600MOL0     H82781   8.563   3.840   8.888  1.5670  0.4216  0.6016
  600MOL0     H82782   8.960   3.882   8.874  0.2157 -0.4153  0.4991
  600MOL0     H82783   9.202   3.839   8.883 -0.8265 -0.5623  2.1020
  600MOL0     H82784   9.089   2.923   7.400  1.6021 -1.7469  2.3590
  600MOL0     H82785   8.912   3.039   7.305  3.4310 -1.5187 -0.6795
  600MOL0     H82786   8.541   3.252   7.406  1.1175 -2.1322  0.0532
  600MOL0     H82787   8.415   3.437   7.323  0.8972 -1.8858  1.5044
  600MOL0     H82788   8.312   3.461   6.887 -0.0835  0.5999 -0.5141
  600MOL0     H82789   8.184   3.573   6.935  0.2601  1.5210  0.5367
  600MOL0     H82790   8.350   3.678   7.108 -1.4012 -0.4987 -0.0309
  600MOL0     H82791   8.346   3.722   6.939  3.3800  1.1411  0.3231
  600MOL0     H82792   8.544   3.562   7.086  0.5368 -2.5846 -1.4527
  600MOL0     H82793   8.535   3.543   6.922  3.8323 -0.7691  1.7345
  600MOL0     H82794   8.694   3.719   7.028  1.1822  2.4434  0.4593
  600MOL0     H82795   8.545   3.826   7.041  2.0297  1.4903 -1.0017
  600MOL0     H82796   8.716   3.882   6.660 -0.6898 -2.3833 -1.0469
  600MOL0     H82797   8.331   3.228   6.953  0.3839  1.9539  0.3840
  600MOL0     H82798   8.392   3.021   6.925 -0.7358  2.2702 -0.1076
  600MOL0     H82799   8.551   2.988   6.991  0.5895 -2.0265  2.3445
  600MOL0     H82800   8.411   2.916   7.072  0.7123  0.0607  0.4953
  601MOL0     O82801   3.481   3.095   4.330  0.0397 -0.5379 -0.3274
  601MOL0     C82802   3.455   3.014   4.238 -0.3464  0.5859 -0.5044
  601MOL0     O82803   3.546   2.971   4.141 -0.1421  0.3854 -0.2741
  601MOL0     C82804   3.690   2.973   4.161  0.4401  0.4195 -0.1234
  601MOL0     C82805   3.755   3.007   4.289  0.0220 -0.1306  1.0045
  601MOL0     C82806   3.897   2.999   4.306  0.2706  0.2028  0.2604
  601MOL0     C82807   3.970   2.958   4.199 -0.1118  0.1528  0.3046
  601MOL0     O82808   4.113   2.968   4.204  0.4111  0.2631 -0.1576
  601MOL0     C82809   4.175   3.034   4.098 -0.1565 -0.9077  0.0330
  601MOL0     C82810   4.313   3.075   4.130 -0.3205  0.3487 -0.3090
  601MOL0     C82811   4.324   3.194   4.230 -0.5509  0.0041  0.7339
  601MOL0     C82812   4.311   3.153   4.370  0.1131  0.2070 -0.1374
  601MOL0     C82813   4.350   3.278   4.461  0.2434  0.7184 -0.1097
  601MOL0     C82814   4.357   3.237   4.608 -0.1549  0.6659 -0.0948
  601MOL0     C82815   4.374   3.344   4.721 -0.5555  0.6654 -0.2223
  601MOL0     C82816   4.359   3.291   4.866  0.4050  0.7572  0.2515
  601MOL0     N82817   4.233   3.230   4.897  0.3003 -0.6438  0.3760
  601MOL0     C82818   4.111   3.256   4.838  0.6640  0.6057 -1.4141
  601MOL0     C82819   4.030   3.152   4.878 -1.1904  0.2154 -0.1312
  601MOL0     C82820   3.885   3.134   4.867 -0.2160  0.0997 -0.4504
  601MOL0     C82821   3.828   3.245   4.955 -0.2684 -0.3595 -0.5628
  601MOL0     C82822   3.890   3.269   5.094 -0.2401 -0.1987  0.5343
  601MOL0     C82823   3.816   3.326   5.211 -0.6915 -0.8994 -0.7075
  601MOL0     O82824   3.844   3.469   5.208  0.2289  0.4081  0.0072
  601MOL0     C82825   3.748   3.550   5.256  0.4368  0.5031 -0.2142
  601MOL0     C82826   3.660   3.501   5.363 -0.2025  0.3815 -0.1161
  601MOL0     C82827   3.578   3.592   5.437  0.4454  0.3419  0.6030
  601MOL0     C82828   3.491   3.543   5.548 -0.7852  0.2232  0.2136
  601MOL0     C82829   3.573   3.730   5.388  0.3642  0.7200 -0.3687
  601MOL0     C82830   3.468   3.833   5.440 -0.7540 -0.0132  0.4654
  601MOL0     O82831   3.432   3.919   5.350  0.5923  0.1028 -0.1202
  601MOL0     C82832   3.348   4.019   5.395  0.2908 -0.4770  0.3884
  601MOL0     C82833   3.219   4.002   5.446  0.6515  0.2313  0.1193
  601MOL0     C82834   3.141   4.114   5.471 -0.5374 -0.4917 -1.6386
  601MOL0     C82835   3.189   4.244   5.470 -0.4524 -0.4564  1.1302
  601MOL0     O82836   3.105   4.345   5.505  0.2514 -0.7248 -0.0325
  601MOL0     C82837   3.148   4.479   5.472  0.2601  0.3643 -0.6137
  601MOL0     C82838   3.053   4.575   5.559 -0.8679  1.9342 -0.6480
  601MOL0     C82839   3.062   4.716   5.510 -0.1255 -0.8061  0.5334
  601MOL0     C82840   3.177   4.798   5.551 -0.3501  0.1024  0.9102
  601MOL0     C82841   3.153   4.948   5.521 -0.5824  1.1027 -0.5337
  601MOL0     C82842   3.279   5.034   5.553 -0.4399 -0.5826 -0.8246
  601MOL0     C82843   3.328   5.047   5.704 -0.0462 -0.5182 -0.3937
  601MOL0     C82844   3.483   5.056   5.715  0.1100 -0.1798  0.6755
  601MOL0    Cl82845   3.555   5.187   5.617 -0.3550 -0.0421  0.0905
  601MOL0     C82846   3.320   4.264   5.428  0.1526 -0.0673 -0.7166
  601MOL0     C82847   3.397   4.150   5.400 -0.2597  0.2126 -0.1347
  601MOL0     O82848   3.448   3.832   5.562 -0.9358 -0.0958  0.2502
  601MOL0     C82849   3.667   3.776   5.288 -0.4682  0.6876  0.2511
  601MOL0     C82850   3.746   3.691   5.219  0.2494 -0.2088  0.5680
  601MOL0     N82851   4.101   3.072   4.966 -0.3306  0.4908 -0.1606
  601MOL0     N82852   4.221   3.120   4.968  0.1976  0.1886  1.3040
  601MOL0     C82853   3.905   2.920   4.078 -0.1477 -0.9524 -0.6270
  601MOL0     C82854   3.774   2.930   4.058  0.7533 -0.0975 -0.2187
  601MOL0     C82855   3.313   2.967   4.217 -0.6676  0.1693 -0.0567
  601MOL0     C82856   3.213   3.059   4.245 -0.4029 -0.9782  0.4624
  601MOL0     C82857   3.080   3.031   4.225  0.9063 -0.3342  0.2643
  601MOL0     C82858   3.042   2.898   4.197 -0.2430  0.0201 -0.7827
  601MOL0     O82859   2.916   2.845   4.175  0.2469  0.9113 -0.1009
  601MOL0     C82860   2.798   2.927   4.192  0.4543 -0.8375  0.1846
  601MOL0     C82861   2.669   2.840   4.228 -0.3099  0.8167  0.6540
  601MOL0     C82862   2.543   2.934   4.223  0.1626  0.1742  0.5190
  601MOL0     C82863   2.432   2.887   4.320  1.2513 -0.5913 -0.2720
  601MOL0     C82864   2.386   2.750   4.294  0.6401  0.5622  0.1902
  601MOL0     C82865   2.349   2.640   4.265  0.2282  0.0882 -1.2066
  601MOL0     C82866   3.139   2.803   4.159  0.5540 -0.2216 -0.2085
  601MOL0     C82867   3.277   2.834   4.163  0.7993 -0.5611  0.1077
  601MOL0     C82868   3.382   2.728   4.138 -0.1583  0.4082 -1.3156
  601MOL0     H82869   3.698   3.035   4.378 -1.0994  1.4930 -0.1682
  601MOL0     H82870   3.941   3.034   4.399 -1.7694 -0.2281  1.4450
  601MOL0     H82871   4.119   3.126   4.076 -0.7522 -1.6981 -1.9037
  601MOL0     H82872   4.179   2.985   4.001  0.0760  0.9251 -0.9333
  601MOL0     H82873   4.368   2.984   4.153 -3.2557 -1.7209 -0.9157
  601MOL0     H82874   4.345   3.116   4.034  3.9371 -0.8586  0.3893
  601MOL0     H82875   4.421   3.243   4.218 -1.4869  2.5185  2.6973
  601MOL0     H82876   4.258   3.278   4.206 -0.9889 -0.4520  0.3143
  601MOL0     H82877   4.213   3.108   4.392  0.2384 -0.0328 -0.0643
  601MOL0     H82878   4.375   3.066   4.387 -1.5165 -0.4794  3.3686
  601MOL0     H82879   4.274   3.355   4.450 -0.9994 -0.2487  1.3862
  601MOL0     H82880   4.449   3.319   4.436  0.1490 -0.1100 -2.0544
  601MOL0     H82881   4.266   3.183   4.635 -0.2871 -0.3038 -2.3060
  601MOL0     H82882   4.435   3.161   4.612  2.3881  3.0649 -0.4281
  601MOL0     H82883   4.320   3.437   4.698  1.4760  2.0696  0.4045
  601MOL0     H82884   4.474   3.384   4.701 -0.9986  1.4470 -0.9586
  601MOL0     H82885   4.441   3.222   4.888 -1.8216 -1.2188  2.9176
  601MOL0     H82886   4.376   3.364   4.945 -1.8345  3.4245 -1.5139
  601MOL0     H82887   4.072   3.343   4.788 -2.5220 -0.1584 -0.5108
  601MOL0     H82888   3.848   3.041   4.912 -4.6084  2.4252  1.4088
  601MOL0     H82889   3.846   3.142   4.765 -0.8923 -0.7250 -0.2732
  601MOL0     H82890   3.828   3.336   4.894 -1.4330 -0.2147 -0.3693
  601MOL0     H82891   3.720   3.229   4.968 -0.7882  2.8870 -0.0477
  601MOL0     H82892   3.905   3.168   5.133 -1.0201  0.0081  1.3941
  601MOL0     H82893   3.987   3.318   5.080 -1.4400  1.9262 -0.9205
  601MOL0     H82894   3.709   3.300   5.213 -0.8207 -0.4449  1.5521
  601MOL0     H82895   3.847   3.291   5.310 -2.9057  0.4632  0.5482
  601MOL0     H82896   3.662   3.397   5.392  0.2775 -0.5293 -3.0497
  601MOL0     H82897   3.504   3.438   5.576  1.9751  0.4212  0.0419
  601MOL0     H82898   3.387   3.566   5.523 -0.7463  0.7027  0.4885
  601MOL0     H82899   3.522   3.607   5.631  0.8019  0.4833 -0.5306
  601MOL0     H82900   3.182   3.900   5.442  0.2577  0.4080 -1.7453
  601MOL0     H82901   3.039   4.093   5.501 -0.6764  1.9160 -0.1414
  601MOL0     H82902   3.248   4.487   5.516  0.2969 -0.8528 -0.4439
  601MOL0     H82903   3.147   4.493   5.364  5.3785  1.2294 -0.8130
  601MOL0     H82904   2.953   4.530   5.561 -0.4325  0.9118 -1.1340
  601MOL0     H82905   3.081   4.570   5.664 -1.7176  1.5881 -0.4258
  601MOL0     H82906   2.972   4.775   5.530 -2.6705 -4.0381 -0.5328
  601MOL0     H82907   3.053   4.713   5.401 -1.8019  0.1641  0.6037
  601MOL0     H82908   3.275   4.761   5.520 -0.4844  0.5302 -0.0489
  601MOL0     H82909   3.180   4.786   5.660 -0.6673  4.3029  1.5459
  601MOL0     H82910   3.114   4.955   5.419  1.3224  0.5444 -1.3490
  601MOL0     H82911   3.075   4.988   5.586  1.1709  0.4295  2.1747
  601MOL0     H82912   3.257   5.135   5.516 -1.7237 -1.1911 -1.8246
  601MOL0     H82913   3.353   5.000   5.480 -1.6292 -4.4902 -0.4650
  601MOL0     H82914   3.289   4.959   5.756  0.5434 -2.0226 -2.3705
  601MOL0     H82915   3.281   5.140   5.739  3.2996  1.1189  0.1088
  601MOL0     H82916   3.513   4.959   5.675 -0.2150 -0.7537  1.7652
  601MOL0     H82917   3.520   5.051   5.818  0.0083  0.1634  0.7298
  601MOL0     H82918   3.357   4.365   5.421  1.7038 -0.4212  1.4949
  601MOL0     H82919   3.493   4.153   5.349  0.7977 -0.8505  1.6936
  601MOL0     H82920   3.669   3.882   5.266 -1.4918  0.3013 -2.0254
  601MOL0     H82921   3.807   3.731   5.139 -2.4321  0.9617 -1.0169
  601MOL0     H82922   3.964   2.885   3.994  1.1024 -0.6929  0.1157
  601MOL0     H82923   3.717   2.903   3.969 -0.7993 -0.1609  0.7483
  601MOL0     H82924   3.242   3.154   4.288  0.4761 -0.2476 -1.5945
  601MOL0     H82925   3.012   3.110   4.255  1.2523  0.4748 -0.9956
  601MOL0     H82926   2.811   3.003   4.269 -0.5641 -0.6171  0.1559
  601MOL0     H82927   2.782   2.977   4.095  6.0162  1.2491 -0.0163
  601MOL0     H82928   2.667   2.807   4.332 -2.2913  1.1892  0.7646
  601MOL0     H82929   2.658   2.750   4.166  0.0723 -1.4666  3.6820
  601MOL0     H82930   2.568   3.037   4.249  0.4870  0.5760 -1.2351
  601MOL0     H82931   2.497   2.936   4.124  0.4779 -0.4092  0.3603
  601MOL0     H82932   2.347   2.955   4.317  0.7645 -1.0967  1.0897
  601MOL0     H82933   2.482   2.895   4.418 -0.8409  1.1537  0.7323
  601MOL0     H82934   2.332   2.539   4.234  0.6798  0.5310 -3.0436
  601MOL0     H82935   3.105   2.702   4.142 -1.3066  0.3193  0.0861
  601MOL0     H82936   3.465   2.725   4.209 -1.4211 -3.0307  0.2121
  601MOL0     H82937   3.340   2.627   4.138 -1.5945  0.9318  0.8515
  601MOL0     H82938   3.434   2.747   4.044  0.1443 -1.0924 -1.4760
  602MOL0     O82939  10.755   5.016   0.151 -0.7286  0.4789  0.8321
  602MOL0     C82940  10.678   5.105   0.120 -0.0215  0.6873 -0.1160
  602MOL0     O82941  10.688   5.237   0.158 -0.9848  1.0184  0.7244
  602MOL0     C82942  10.792   5.262   0.247  0.4920 -0.1811  1.0902
  602MOL0     C82943  10.921   5.286   0.206 -0.0750 -0.0379 -0.3603
  602MOL0     C82944  11.029   5.300   0.303  0.6299  1.1067  0.4206
  602MOL0     C82945  10.997   5.298   0.438  0.0235  0.5936  0.2030
  602MOL0     O82946  11.077   5.322   0.545  0.3391 -0.7147 -0.1715
  602MOL0     C82947  11.215   5.328   0.513 -0.5372  0.3280  0.6323
  602MOL0     C82948  11.317   5.380   0.633  0.1796  0.1928  0.1533
  602MOL0     C82949  11.271   5.527   0.680 -1.1439  1.0686  0.3702
  602MOL0     C82950  11.394   5.615   0.710 -0.9002 -0.3392 -0.3495
  602MOL0     C82951  11.497   5.557   0.818  0.0880  0.0796  0.3634
  602MOL0     C82952  11.434   5.494   0.939 -0.5871 -0.2455 -0.5704
  602MOL0     C82953  11.372   5.598   1.037 -0.1605  0.3320 -0.8200
  602MOL0     C82954  11.465   5.713   1.092 -0.5930  0.2465 -0.1879
  602MOL0     N82955  11.569   5.672   1.188 -0.2428  0.6089 -0.4545
  602MOL0     C82956  11.574   5.564   1.274  0.0367 -0.5069 -0.1569
  602MOL0     C82957  11.677   5.591   1.349  0.1817  0.6928 -0.6434
  602MOL0     C82958  11.691   5.502   1.471 -0.1097  0.3537 -0.2015
  602MOL0     C82959  11.802   5.571   1.557  0.6471  0.3347 -0.3988
  602MOL0     C82960  11.818   5.504   1.686 -0.0850  0.1929  0.0606
  602MOL0     C82961  11.947   5.528   1.765  0.2439  0.2825 -0.1713
  602MOL0     O82962  11.975   5.671   1.773 -0.1608  0.4869 -0.2798
  602MOL0     C82963  12.097   5.699   1.830 -0.3698  0.5346 -0.2937
  602MOL0     C82964  12.105   5.703   1.967  0.1928 -0.0484 -1.1330
  602MOL0     C82965  12.223   5.734   2.037 -0.1236 -0.5251  0.5386
  602MOL0     C82966  12.217   5.732   2.187  0.6161  0.6520 -0.5684
  602MOL0     C82967  12.340   5.769   1.956  0.2389  0.5887 -0.8732
  602MOL0     C82968  12.476   5.811   2.004 -0.0783 -0.2486 -0.4926
  602MOL0     O82969  12.566   5.860   1.915 -0.0439  0.1050  0.4944
  602MOL0     C82970  12.695   5.919   1.946  0.0727 -0.1867 -0.2743
  602MOL0     C82971  12.799   5.915   1.864  0.4066 -0.2701  0.1104
  602MOL0     C82972  12.922   5.981   1.888  0.0357  0.4833  0.1141
  602MOL0     C82973  12.935   6.055   2.004  0.1520 -0.1713  0.2429
  602MOL0     O82974  13.046   6.132   2.017 -0.4207 -0.3625 -0.6462
  602MOL0     C82975  13.068   6.212   2.132  0.0948 -1.2009  0.7336
  602MOL0     C82976  13.217   6.260   2.156 -0.2568 -0.9990 -0.3215
  602MOL0     C82977  13.224   6.369   2.273  0.7186 -0.1636 -0.3013
  602MOL0     C82978  13.254   6.312   2.413 -1.0269 -0.3640  0.9832
  602MOL0     C82979  13.387   6.233   2.424 -0.4754  0.8964 -0.3859
  602MOL0     C82980  13.412   6.163   2.559 -0.1059 -0.1897  0.8482
  602MOL0     C82981  13.518   6.051   2.556 -0.0571  0.1476 -0.1443
  602MOL0     C82982  13.611   6.045   2.669  0.0232  0.6107 -0.1796
  602MOL0    Cl82983  13.516   6.072   2.822 -0.1177 -0.1163 -0.3440
  602MOL0     C82984  12.836   6.051   2.097  0.9037  0.1626 -0.4555
  602MOL0     C82985  12.717   5.990   2.064  0.3179 -1.8136  0.1444
  602MOL0     O82986  12.489   5.809   2.126 -0.9971 -0.0721 -0.2587
  602MOL0     C82987  12.323   5.772   1.818  0.6887 -0.3020  0.4455
  602MOL0     C82988  12.207   5.735   1.759  0.6340  0.2101  0.4096
  602MOL0     N82989  11.746   5.705   1.304 -0.0361 -0.0161 -0.0143
  602MOL0     N82990  11.673   5.755   1.220 -0.3445 -0.2782 -0.5094
  602MOL0     C82991  10.862   5.289   0.473  0.6606 -0.0617 -0.0065
  602MOL0     C82992  10.767   5.268   0.381  0.7230 -0.2142  0.0814
  602MOL0     C82993  10.563   5.085   0.046 -0.0110  1.0328 -0.0282
  602MOL0     C82994  10.494   4.955   0.065  0.3170  0.5710 -0.7746
  602MOL0     C82995  10.381   4.909   0.010  0.1623  0.2114  0.6037
  602MOL0     C82996  10.318   5.007  -0.078 -0.1409  0.2403 -0.2195
  602MOL0     O82997  10.194   5.006  -0.143  0.1238  0.4114 -0.7757
  602MOL0     C82998  10.105   4.896  -0.136 -0.5460 -0.0600 -0.9632
  602MOL0     C82999   9.961   4.944  -0.170 -0.1172 -0.3427  0.6087
  602MOL0     C83000   9.903   5.027  -0.052  0.0055  0.7384  0.8590
  602MOL0     C83001   9.766   5.093  -0.093 -0.9352  0.0906 -0.2683
  602MOL0     C83002   9.672   4.977  -0.097 -0.3163 -0.5655  0.7166
  602MOL0     C83003   9.576   4.904  -0.093 -1.0345  1.3280 -0.9767
  602MOL0     C83004  10.376   5.132  -0.102  0.9841 -1.1055  0.0290
  602MOL0     C83005  10.501   5.166  -0.051 -0.5185  0.6461  0.0689
  602MOL0     C83006  10.573   5.292  -0.093  0.2190  0.2829  0.0056
  602MOL0     H83007  10.941   5.294   0.099  0.7186 -0.7710 -0.2855
  602MOL0     H83008  11.133   5.303   0.273  0.2651 -4.2268 -2.6120
  602MOL0     H83009  11.224   5.400   0.432  0.5395  0.5160  0.9043
  602MOL0     H83010  11.259   5.231   0.486  0.4353  1.5330 -2.4698
  602MOL0     H83011  11.309   5.315   0.721 -1.3750  1.2405  0.8466
  602MOL0     H83012  11.417   5.370   0.590  0.5384  3.6974 -0.1436
  602MOL0     H83013  11.214   5.583   0.605 -1.3289  0.8176  0.3245
  602MOL0     H83014  11.204   5.514   0.765  0.4277 -0.5238  1.4396
  602MOL0     H83015  11.456   5.628   0.621  0.4303  4.0167  0.9617
  602MOL0     H83016  11.375   5.717   0.744  0.5886 -1.0154  2.9028
  602MOL0     H83017  11.562   5.640   0.848  0.5721 -0.5229  1.0242
  602MOL0     H83018  11.558   5.480   0.769  1.9745  2.0613 -0.6010
  602MOL0     H83019  11.369   5.410   0.911  0.7623 -1.6459  0.3705
  602MOL0     H83020  11.520   5.450   0.990 -1.8237 -2.3933 -0.2073
  602MOL0     H83021  11.319   5.549   1.120 -1.7297  3.2441  0.0354
  602MOL0     H83022  11.295   5.645   0.976 -0.2088  1.2592 -0.0748
  602MOL0     H83023  11.514   5.767   1.011 -0.3137  0.4510  0.1167
  602MOL0     H83024  11.415   5.786   1.157  1.1204  0.4150  0.9901
  602MOL0     H83025  11.504   5.483   1.291  1.6269 -1.5384  1.9470
  602MOL0     H83026  11.720   5.402   1.440  1.3100  1.4320 -2.6528
  602MOL0     H83027  11.599   5.492   1.530  1.0299 -0.7468  1.4766
  602MOL0     H83028  11.886   5.563   1.487  0.2844 -0.4593 -0.7640
  602MOL0     H83029  11.778   5.675   1.581  0.2388 -0.0598  1.0076
  602MOL0     H83030  11.728   5.521   1.747  0.1889 -2.4678  1.3262
  602MOL0     H83031  11.816   5.398   1.662 -1.2036  0.2016  0.0664
  602MOL0     H83032  11.929   5.486   1.864 -0.6080  0.7028 -0.1368
  602MOL0     H83033  12.027   5.475   1.713  2.1243  2.5537  0.2502
  602MOL0     H83034  12.017   5.678   2.025  1.2602  2.1223  1.7064
  602MOL0     H83035  12.221   5.831   2.235 -0.6665  0.1179  0.7206
  602MOL0     H83036  12.283   5.659   2.234 -2.2776 -0.6395  1.8636
  602MOL0     H83037  12.124   5.687   2.222  1.9036  0.0816  2.4268
  602MOL0     H83038  12.789   5.851   1.777 -1.0575  1.7703 -1.3107
  602MOL0     H83039  13.004   5.974   1.818 -0.3803 -2.8135 -0.1845
  602MOL0     H83040  13.014   6.307   2.122  0.4057 -1.2342 -2.2289
  602MOL0     H83041  13.041   6.149   2.217  0.0764 -2.1628  0.0245
  602MOL0     H83042  13.289   6.183   2.183  0.6434 -0.4029 -0.9683
  602MOL0     H83043  13.252   6.314   2.067 -1.6087  1.9519  0.7768
  602MOL0     H83044  13.128   6.421   2.277  1.3016  0.8693  0.9917
  602MOL0     H83045  13.304   6.442   2.259 -0.9569  2.0733  0.9293
  602MOL0     H83046  13.171   6.249   2.445 -2.6394 -0.5440 -3.0567
  602MOL0     H83047  13.272   6.394   2.483  0.7405 -0.6388  0.8938
  602MOL0     H83048  13.408   6.159   2.347  1.0826  1.1302 -0.2279
  602MOL0     H83049  13.477   6.294   2.408  0.3540 -0.1977 -0.0461
  602MOL0     H83050  13.316   6.123   2.593 -1.1955  0.8887 -0.7928
  602MOL0     H83051  13.447   6.236   2.633  1.5595 -0.7879  0.6855
  602MOL0     H83052  13.579   6.061   2.465 -0.3305 -0.8286 -0.4430
  602MOL0     H83053  13.466   5.955   2.553 -1.2940  0.8046 -1.9626
  602MOL0     H83054  13.686   6.120   2.645  0.7055 -0.5622 -1.9595
  602MOL0     H83055  13.667   5.954   2.693 -0.6026  0.7044  1.7944
  602MOL0     H83056  12.835   6.099   2.194 -3.0719  0.4492 -0.4915
  602MOL0     H83057  12.639   5.990   2.140  2.1775 -3.1074  2.1501
  602MOL0     H83058  12.401   5.814   1.755 -0.3120  0.5261 -0.2626
  602MOL0     H83059  12.194   5.754   1.653 -1.6461  3.7750  1.1329
  602MOL0     H83060  10.833   5.309   0.576 -0.0079 -0.0429 -0.1923
  602MOL0     H83061  10.661   5.276   0.403  1.1962 -0.3156  2.7780
  602MOL0     H83062  10.539   4.880   0.130 -2.8146 -0.6114  0.2122
  602MOL0     H83063  10.331   4.813   0.018 -0.1938  0.2860 -0.5666
  602MOL0     H83064  10.137   4.817  -0.205 -1.4700 -1.4136  0.1204
  602MOL0     H83065  10.102   4.835  -0.046  1.8506  3.5844  1.9266
  602MOL0     H83066   9.894   4.861  -0.192 -0.3761 -0.6959  2.5197
  602MOL0     H83067   9.968   5.003  -0.262  0.5133 -2.2712 -0.6450
  602MOL0     H83068   9.892   4.974   0.043  0.9647  0.8644  1.0486
  602MOL0     H83069   9.969   5.113  -0.033 -0.1196  1.0568 -0.0921
  602MOL0     H83070   9.781   5.150  -0.186  1.0930  2.0181  1.1259
  602MOL0     H83071   9.753   5.162  -0.009  1.9288  0.4730 -0.0435
  602MOL0     H83072   9.489   4.843  -0.104 -0.0984 -0.3210  0.2017
  602MOL0     H83073  10.317   5.201  -0.162 -1.7990 -1.7349  1.8441
  602MOL0     H83074  10.546   5.316  -0.197  0.6412 -2.2154 -0.7642
  602MOL0     H83075  10.548   5.366  -0.017 -1.2091 -2.9792  2.9861
  602MOL0     H83076  10.681   5.278  -0.101  0.3098  0.9371  0.0697
  603MOL0     O83077   1.504   5.902   5.952 -0.1659 -0.6400 -0.7899
  603MOL0     C83078   1.456   5.917   6.067 -0.9796 -0.5099 -0.1754
  603MOL0     O83079   1.535   5.942   6.172 -0.6942 -0.0153 -0.2097
  603MOL0     C83080   1.676   5.947   6.170 -0.3802  0.2955 -0.2420
  603MOL0     C83081   1.749   5.833   6.188  0.3613  0.5380 -0.5199
  603MOL0     C83082   1.888   5.841   6.178  0.1971 -0.8400  0.2974
  603MOL0     C83083   1.948   5.961   6.135 -0.1224  0.6803  0.6311
  603MOL0     O83084   2.083   5.971   6.116  0.2948  0.4143 -0.5065
  603MOL0     C83085   2.155   5.927   6.227 -0.1207 -0.8584 -0.9136
  603MOL0     C83086   2.279   6.006   6.215 -0.1031  0.0065 -0.1518
  603MOL0     C83087   2.366   6.017   6.342  0.0207  0.4237 -0.1406
  603MOL0     C83088   2.451   6.149   6.340  0.0320 -0.3268  0.7554
  603MOL0     C83089   2.536   6.174   6.468  0.0641 -0.7634  0.5374
  603MOL0     C83090   2.622   6.304   6.477  1.0177 -0.1824 -0.9006
  603MOL0     C83091   2.709   6.332   6.355  1.2661 -0.2326 -0.3686
  603MOL0     C83092   2.811   6.214   6.330  0.3448 -0.7931  0.4908
  603MOL0     N83093   2.930   6.271   6.274 -0.6780  0.2150 -0.1734
  603MOL0     C83094   2.959   6.251   6.138  0.1502  0.2020 -0.2275
  603MOL0     C83095   3.085   6.293   6.120 -0.8344 -0.2086  0.3172
  603MOL0     C83096   3.157   6.319   5.990  0.2257 -0.0509  0.7252
  603MOL0     C83097   3.257   6.208   5.953 -0.0464 -0.1738 -0.4432
  603MOL0     C83098   3.338   6.241   5.831 -0.1095 -0.2051  0.2804
  603MOL0     C83099   3.455   6.339   5.851  0.6071  0.3074  0.5699
  603MOL0     O83100   3.502   6.374   5.719  0.2806  0.3160  0.4427
  603MOL0     C83101   3.624   6.444   5.720  0.9837 -0.3152  0.5400
  603MOL0     C83102   3.686   6.492   5.836 -0.3721 -1.4205  0.1020
  603MOL0     C83103   3.804   6.565   5.818 -0.6109 -0.3807 -0.6208
  603MOL0     C83104   3.874   6.628   5.939  1.1762  0.1533 -0.2972
  603MOL0     C83105   3.850   6.597   5.694 -0.0492  0.6915  0.4785
  603MOL0     C83106   3.976   6.671   5.655  0.1445  0.7100  0.1465
  603MOL0     O83107   3.973   6.719   5.521 -0.5377 -0.7067 -0.1181
  603MOL0     C83108   4.071   6.783   5.454 -0.0613 -0.2181  0.2049
  603MOL0     C83109   4.064   6.777   5.314  0.5740 -0.8309  0.6645
  603MOL0     C83110   4.147   6.851   5.231 -0.3965  0.9619  0.1014
  603MOL0     C83111   4.243   6.927   5.282 -0.1884  0.4628  0.4805
  603MOL0     O83112   4.332   7.000   5.195 -0.3930  0.0052 -0.7181
  603MOL0     C83113   4.449   7.056   5.250 -0.2302  0.4139 -0.2714
  603MOL0     C83114   4.517   7.101   5.123 -0.5826 -0.3549  0.1107
  603MOL0     C83115   4.656   7.163   5.142 -0.6311  0.8680  0.4239
  603MOL0     C83116   4.652   7.300   5.197 -0.1894 -0.3775 -0.0064
  603MOL0     C83117   4.795   7.348   5.253  0.4692  0.2342 -0.3727
  603MOL0     C83118   4.918   7.327   5.159  0.2590  0.1339  0.4090
  603MOL0     C83119   5.042   7.343   5.242 -0.0405  0.3123 -0.5527
  603MOL0     C83120   5.064   7.484   5.303 -0.4607 -0.0051 -0.1640
  603MOL0    Cl83121   5.220   7.525   5.360 -0.4560  0.0315 -0.6626
  603MOL0     C83122   4.264   6.930   5.420 -0.0749 -0.3057 -0.7327
  603MOL0     C83123   4.180   6.850   5.503 -0.4234 -0.5689 -0.1573
  603MOL0     O83124   4.065   6.698   5.739 -0.4341  0.6443  0.4299
  603MOL0     C83125   3.787   6.548   5.583  0.0006  0.9890 -0.0706
  603MOL0     C83126   3.682   6.467   5.592  0.0264 -0.1641  0.1625
  603MOL0     N83127   3.142   6.304   6.245 -0.6237  0.8254 -0.1950
  603MOL0     N83128   3.048   6.298   6.341  0.8579  0.4657  0.3761
  603MOL0     C83129   1.870   6.078   6.109 -0.3689 -0.0849 -0.1477
  603MOL0     C83130   1.731   6.075   6.127  0.4633  1.5554  0.4643
  603MOL0     C83131   1.307   5.925   6.086  0.3273 -0.1942 -0.0461
  603MOL0     C83132   1.250   5.966   6.211 -0.5622 -0.4438  0.1234
  603MOL0     C83133   1.110   5.990   6.234 -0.3673  0.1141 -0.2916
  603MOL0     C83134   1.024   5.956   6.132  0.7479 -0.3522  0.8941
  603MOL0     O83135   0.888   5.973   6.138 -0.0097  0.3737 -0.8230
  603MOL0     C83136   0.814   6.004   6.257 -0.0518  0.3171 -0.3994
  603MOL0     C83137   0.801   5.869   6.326  0.0964  1.0661  0.0589
  603MOL0     C83138   0.709   5.769   6.240 -0.8624  0.2331  0.0096
  603MOL0     C83139   0.557   5.798   6.263  0.5259  0.6028  0.3903
  603MOL0     C83140   0.510   5.808   6.408 -0.0344 -0.2126  0.4824
  603MOL0     C83141   0.479   5.815   6.524  0.4980  0.3431 -0.0385
  603MOL0     C83142   1.072   5.900   6.011 -0.0989 -0.6599 -0.4102
  603MOL0     C83143   1.211   5.897   5.981  0.2894  0.9771  0.2634
  603MOL0     C83144   1.250   5.842   5.844  0.7927  0.2499 -0.4426
  603MOL0     H83145   1.701   5.736   6.201  0.7205  0.0806 -2.3517
  603MOL0     H83146   1.938   5.745   6.190  0.3023 -0.9144 -0.6487
  603MOL0     H83147   2.176   5.820   6.225  1.2178 -0.6322  0.0528
  603MOL0     H83148   2.104   5.956   6.320  1.2692 -0.0098 -0.3734
  603MOL0     H83149   2.337   5.966   6.132 -0.8203 -2.7556  0.5804
  603MOL0     H83150   2.238   6.106   6.196 -1.3609 -0.1129  1.6701
  603MOL0     H83151   2.303   6.016   6.432  0.1596  0.2945 -0.0430
  603MOL0     H83152   2.436   5.933   6.350 -1.0445 -0.6040 -1.3372
  603MOL0     H83153   2.516   6.137   6.253 -0.7863  1.9483 -0.2594
  603MOL0     H83154   2.389   6.232   6.304 -0.6873  0.7979  4.2511
  603MOL0     H83155   2.606   6.091   6.473  2.3551  1.1090  2.7972
  603MOL0     H83156   2.475   6.172   6.559  1.5026  3.0805  1.8373
  603MOL0     H83157   2.550   6.385   6.487  1.0942 -0.1566 -0.5750
  603MOL0     H83158   2.682   6.296   6.568  0.4036 -0.5270 -0.5162
  603MOL0     H83159   2.750   6.428   6.387 -0.6110  0.0662  1.3357
  603MOL0     H83160   2.661   6.356   6.260 -1.0274 -2.9708 -0.0322
  603MOL0     H83161   2.838   6.181   6.430  0.4315 -0.7220  0.4908
  603MOL0     H83162   2.766   6.132   6.273 -0.7555 -1.7921  2.7004
  603MOL0     H83163   2.886   6.232   6.060  0.0405  0.6740 -0.2452
  603MOL0     H83164   3.206   6.417   5.989 -1.9750  1.1285  1.1975
  603MOL0     H83165   3.076   6.321   5.917  0.8290 -1.5326 -0.0164
  603MOL0     H83166   3.330   6.176   6.028 -0.4158 -0.2949 -0.1304
  603MOL0     H83167   3.198   6.119   5.927  1.7369 -0.4517 -4.3243
  603MOL0     H83168   3.363   6.144   5.787 -3.6401 -0.4379 -1.5515
  603MOL0     H83169   3.270   6.295   5.764  0.5641  0.1722 -0.1123
  603MOL0     H83170   3.433   6.432   5.903 -1.2737  0.1651  0.0878
  603MOL0     H83171   3.532   6.289   5.911 -1.4018 -0.4505  2.6512
  603MOL0     H83172   3.660   6.483   5.941 -0.2684  0.7991  0.3770
  603MOL0     H83173   3.832   6.580   6.028  1.2893  1.5041  0.5228
  603MOL0     H83174   3.846   6.734   5.931  0.0941  0.1018  2.0595
  603MOL0     H83175   3.983   6.619   5.942  1.0448 -2.8556 -1.7037
  603MOL0     H83176   3.979   6.732   5.263 -0.0211  0.9644  0.0098
  603MOL0     H83177   4.137   6.846   5.124 -1.7281  1.0283  0.2046
  603MOL0     H83178   4.422   7.143   5.311  0.7264  1.8696 -1.8369
  603MOL0     H83179   4.509   6.989   5.311 -0.3996  0.1976 -0.3434
  603MOL0     H83180   4.530   7.020   5.051  1.9048 -0.4561  0.5702
  603MOL0     H83181   4.462   7.178   5.069  2.1416 -1.2316 -4.4876
  603MOL0     H83182   4.696   7.153   5.041 -1.2441 -2.4772  0.4170
  603MOL0     H83183   4.714   7.098   5.207 -0.7678 -1.2812 -1.4926
  603MOL0     H83184   4.573   7.296   5.273 -3.0698 -1.8949 -2.8563
  603MOL0     H83185   4.612   7.367   5.121 -0.0320  0.9409  1.0220
  603MOL0     H83186   4.790   7.452   5.287 -3.0478 -0.0371  0.2924
  603MOL0     H83187   4.814   7.284   5.339 -0.4110 -2.6653 -2.1909
  603MOL0     H83188   4.936   7.396   5.075  2.4767  0.5006  1.1165
  603MOL0     H83189   4.898   7.230   5.112 -0.7529  0.2243  0.6335
  603MOL0     H83190   5.134   7.314   5.191 -1.2839 -2.0998 -1.5977
  603MOL0     H83191   5.025   7.283   5.333 -0.7465  2.1894  0.6228
  603MOL0     H83192   5.007   7.514   5.391  1.8246  1.3254  0.9340
  603MOL0     H83193   5.036   7.560   5.230  0.2259  0.6998  0.2963
  603MOL0     H83194   4.329   6.999   5.473 -0.6626  0.0151 -0.4149
  603MOL0     H83195   4.199   6.848   5.610  2.3520 -1.9597 -0.5796
  603MOL0     H83196   3.842   6.550   5.489  1.9618  0.4939  1.0331
  603MOL0     H83197   3.642   6.431   5.498 -0.9582  0.9073  0.1505
  603MOL0     H83198   1.920   6.174   6.101 -0.1857 -0.2254 -0.7819
  603MOL0     H83199   1.670   6.161   6.102 -1.3332 -0.2617 -1.8763
  603MOL0     H83200   1.310   5.989   6.299  1.0728  0.2223 -1.1157
  603MOL0     H83201   1.075   6.033   6.327  2.1421  0.0482  0.7317
  603MOL0     H83202   0.873   6.076   6.315 -0.3180  2.1681 -2.3004
  603MOL0     H83203   0.719   6.054   6.236 -1.3508 -1.7005  0.3487
  603MOL0     H83204   0.760   5.895   6.424  1.0883 -1.2497  1.1726
  603MOL0     H83205   0.902   5.827   6.332  0.5198  2.1283  0.5061
  603MOL0     H83206   0.728   5.782   6.133 -2.1383  0.5514 -0.1903
  603MOL0     H83207   0.734   5.665   6.264 -0.4484  0.5851  1.1498
  603MOL0     H83208   0.511   5.709   6.220  0.7978 -0.6983  2.5943
  603MOL0     H83209   0.526   5.885   6.205 -1.6682  0.6686  1.5413
  603MOL0     H83210   0.462   5.808   6.630 -2.7102 -1.9133 -0.5405
  603MOL0     H83211   0.995   5.881   5.936 -0.7844 -1.0232  0.3716
  603MOL0     H83212   1.270   5.735   5.856 -0.4692  0.0782  0.2941
  603MOL0     H83213   1.182   5.855   5.760  1.8853  0.5789 -1.3070
  603MOL0     H83214   1.339   5.889   5.800 -0.4690  2.7609 -0.4840
  604MOL0     O83215   7.427   1.665   6.802  0.1947  0.5303  0.8705
  604MOL0     C83216   7.461   1.720   6.904  0.0169  0.1398  0.2188
  604MOL0     O83217   7.593   1.721   6.949  0.2162 -0.2008 -0.5190
  604MOL0     C83218   7.688   1.656   6.881 -1.2553  0.3082  0.6610
  604MOL0     C83219   7.710   1.522   6.933 -0.3632 -0.4671  0.1645
  604MOL0     C83220   7.828   1.454   6.892 -0.5269  0.7791 -0.6163
  604MOL0     C83221   7.915   1.514   6.796 -0.3778  0.0317  0.4765
  604MOL0     O83222   8.021   1.435   6.746 -0.3832 -0.2291  0.1280
  604MOL0     C83223   8.155   1.453   6.811 -0.1216 -0.3852  0.3917
  604MOL0     C83224   8.243   1.501   6.697  0.3309 -0.5429 -0.5993
  604MOL0     C83225   8.243   1.405   6.579 -0.8166 -0.6142 -0.1454
  604MOL0     C83226   8.356   1.454   6.491  0.8216 -0.7737 -0.2091
  604MOL0     C83227   8.407   1.333   6.392  0.4240  0.0844  0.4692
  604MOL0     C83228   8.536   1.368   6.319  0.9776 -0.0514 -0.6426
  604MOL0     C83229   8.580   1.237   6.248 -0.6125  0.1178 -0.6911
  604MOL0     C83230   8.662   1.256   6.119 -0.5456 -0.1878  0.8938
  604MOL0     N83231   8.789   1.321   6.129 -0.6617 -0.5817 -0.1171
  604MOL0     C83232   8.859   1.360   6.244 -0.7650  0.2440  0.2263
  604MOL0     C83233   8.974   1.407   6.188 -0.3130  0.4983  0.3163
  604MOL0     C83234   9.062   1.495   6.265 -0.4979  0.1214  0.2008
  604MOL0     C83235   9.195   1.423   6.284  0.5437  0.7183 -0.2223
  604MOL0     C83236   9.199   1.342   6.422  1.1344 -0.6431  1.0234
  604MOL0     C83237   9.321   1.251   6.436  0.0475  0.3576  0.6647
  604MOL0     O83238   9.315   1.188   6.563 -0.4908  0.0715 -0.4877
  604MOL0     C83239   9.434   1.122   6.605  0.6321  0.9218  0.1526
  604MOL0     C83240   9.549   1.105   6.528  0.5789 -0.7629 -0.0077
  604MOL0     C83241   9.663   1.039   6.576 -0.3365 -0.6116  0.5220
  604MOL0     C83242   9.781   1.026   6.477  0.3333 -1.1310 -0.4503
  604MOL0     C83243   9.668   0.997   6.713  0.1653 -0.2297 -0.3813
  604MOL0     C83244   9.787   0.922   6.771  0.4684 -0.8910 -0.4747
  604MOL0     O83245   9.910   0.932   6.718 -0.3010 -0.6643  0.0721
  604MOL0     C83246  10.003   0.885   6.803  0.5216 -0.3718 -0.8126
  604MOL0     C83247  10.047   0.758   6.824  0.1317  0.0554  0.2233
  604MOL0     C83248  10.164   0.734   6.903 -0.3975 -0.5475 -0.3315
  604MOL0     C83249  10.223   0.833   6.979 -0.3622 -0.5329  0.6052
  604MOL0     O83250  10.330   0.820   7.060 -1.1831 -0.5624 -0.3242
  604MOL0     C83251  10.426   0.712   7.028  0.3422 -0.6053 -0.0685
  604MOL0     C83252  10.556   0.775   7.021 -0.3658  0.0501 -0.0674
  604MOL0     C83253  10.666   0.667   7.020  0.2240  0.4898  0.4748
  604MOL0     C83254  10.809   0.696   6.972 -0.4732 -0.3903 -0.1950
  604MOL0     C83255  10.908   0.582   6.991 -1.1036  1.0655 -0.1130
  604MOL0     C83256  11.053   0.597   6.926 -0.1408 -0.3508 -0.6935
  604MOL0     C83257  11.104   0.735   6.956  0.2395  0.4218 -0.8386
  604MOL0     C83258  11.117   0.774   7.107  1.4657  0.0619 -0.0262
  604MOL0    Cl83259  11.265   0.699   7.167 -0.3499 -0.3706  0.3495
  604MOL0     C83260  10.158   0.958   6.976 -0.4052  0.0255 -0.6687
  604MOL0     C83261  10.057   0.991   6.887  0.6003  0.0533 -0.3033
  604MOL0     O83262   9.752   0.848   6.870  0.1550  0.2506  0.1628
  604MOL0     C83263   9.552   1.017   6.790  0.2321 -0.6085 -0.7009
  604MOL0     C83264   9.444   1.082   6.737  0.5854 -0.4918 -0.0607
  604MOL0     N83265   8.981   1.400   6.048  0.3967 -1.1408 -0.5703
  604MOL0     N83266   8.868   1.345   6.016 -0.1088 -0.4092  0.1531
  604MOL0     C83267   7.885   1.641   6.743 -0.9700 -0.1184 -1.3013
  604MOL0     C83268   7.780   1.717   6.792  0.6399 -0.6464  0.6174
  604MOL0     C83269   7.349   1.793   6.971  0.5506  0.0452  0.1807
  604MOL0     C83270   7.356   1.795   7.114 -0.2334 -0.1506  0.2465
  604MOL0     C83271   7.263   1.873   7.193  0.5401  0.4818 -0.3009
  604MOL0     C83272   7.158   1.939   7.128  0.2924  0.3923 -0.8756
  604MOL0     O83273   7.066   2.009   7.202  0.4273  0.0603 -0.5345
  604MOL0     C83274   6.942   1.937   7.219  0.4192  0.4052 -0.5186
  604MOL0     C83275   6.826   2.029   7.221 -0.5395 -0.7445 -0.4898
  604MOL0     C83276   6.688   1.962   7.215  0.0590 -0.2346 -0.2769
  604MOL0     C83277   6.657   1.865   7.329  0.5382 -0.1178  0.2906
  604MOL0     C83278   6.554   1.773   7.290 -0.2124 -0.3709 -0.3512
  604MOL0     C83279   6.465   1.695   7.274  0.2077 -0.5328 -0.1865
  604MOL0     C83280   7.157   1.944   6.987  0.2899  0.3626 -0.3571
  604MOL0     C83281   7.256   1.882   6.909  0.0325  1.1473 -0.2582
  604MOL0     C83282   7.274   1.911   6.762 -0.4265 -0.1260 -0.0374
  604MOL0     H83283   7.642   1.469   7.000 -2.0605  0.5902 -0.6405
  604MOL0     H83284   7.846   1.358   6.940 -4.6009  0.6784  1.1287
  604MOL0     H83285   8.197   1.362   6.855  1.3143  0.6785  1.3075
  604MOL0     H83286   8.140   1.528   6.890  1.3802  0.6073 -0.2229
  604MOL0     H83287   8.214   1.604   6.672  3.0012  0.1162 -1.2513
  604MOL0     H83288   8.345   1.501   6.736  0.1314  0.9073  0.0000
  604MOL0     H83289   8.277   1.312   6.626  2.1009  1.8191  3.1108
  604MOL0     H83290   8.147   1.397   6.528 -2.8077  1.0959  3.0004
  604MOL0     H83291   8.326   1.533   6.421  1.3102 -1.7235 -1.5301
  604MOL0     H83292   8.440   1.481   6.555 -0.6515  0.9967  1.1112
  604MOL0     H83293   8.333   1.311   6.314 -0.5939  2.8757  0.5163
  604MOL0     H83294   8.421   1.245   6.454  0.2974  0.9097  1.7132
  604MOL0     H83295   8.514   1.438   6.238  0.2194  0.5000  0.0335
  604MOL0     H83296   8.610   1.410   6.387  0.0659  0.9083 -0.2202
  604MOL0     H83297   8.497   1.176   6.210  0.5370 -1.7494 -0.3151
  604MOL0     H83298   8.624   1.167   6.319 -1.3872  0.8383  0.5282
  604MOL0     H83299   8.673   1.160   6.068 -1.7826 -0.7688  1.6761
  604MOL0     H83300   8.604   1.317   6.049 -0.1240 -1.0209 -0.2213
  604MOL0     H83301   8.832   1.369   6.349  0.8992 -0.8414  0.7831
  604MOL0     H83302   9.018   1.518   6.362 -1.4562  3.3809 -0.8926
  604MOL0     H83303   9.072   1.586   6.206 -0.7525 -0.5653 -0.9343
  604MOL0     H83304   9.215   1.355   6.201  2.3984  2.5884 -1.4339
  604MOL0     H83305   9.278   1.493   6.269 -0.7863  1.7894 -3.7544
  604MOL0     H83306   9.198   1.412   6.506  0.2572  1.1514 -0.4036
  604MOL0     H83307   9.109   1.282   6.433  1.6193 -2.1690 -2.1787
  604MOL0     H83308   9.317   1.170   6.362  0.1700  2.4685 -1.7824
  604MOL0     H83309   9.414   1.309   6.431  1.8353 -2.2109  1.8505
  604MOL0     H83310   9.553   1.136   6.424 -0.1185  0.9204  0.4392
  604MOL0     H83311   9.864   1.086   6.515  0.1027 -0.8358 -0.4132
  604MOL0     H83312   9.754   1.046   6.373  1.0645 -2.0777 -0.8329
  604MOL0     H83313   9.811   0.921   6.482  2.1911 -0.7300 -1.8713
  604MOL0     H83314  10.016   0.676   6.761 -3.2061  0.0762  1.6597
  604MOL0     H83315  10.204   0.633   6.895 -1.9962 -1.4012  1.4386
  604MOL0     H83316  10.431   0.637   7.108  4.3123 -0.6394 -0.1467
  604MOL0     H83317  10.412   0.659   6.933 -0.2184  0.3176 -0.5127
  604MOL0     H83318  10.565   0.843   6.936 -1.6252 -0.0835 -0.3287
  604MOL0     H83319  10.563   0.827   7.117 -2.5668 -0.1564  0.2550
  604MOL0     H83320  10.639   0.579   6.961  2.1300 -2.0863  3.0994
  604MOL0     H83321  10.655   0.619   7.118 -2.3659 -0.5420 -0.2410
  604MOL0     H83322  10.845   0.781   7.031  0.9343 -0.9734 -0.1811
  604MOL0     H83323  10.800   0.717   6.865  1.7140 -1.7343 -0.7032
  604MOL0     H83324  10.915   0.556   7.097 -2.6178 -1.4811 -0.5560
  604MOL0     H83325  10.874   0.488   6.945  0.5378  0.4259 -0.1022
  604MOL0     H83326  11.035   0.580   6.820 -0.2932 -0.4950 -0.6444
  604MOL0     H83327  11.123   0.532   6.979 -0.4585 -0.9858 -1.0383
  604MOL0     H83328  11.052   0.817   6.905  1.5395  0.8487 -1.5407
  604MOL0     H83329  11.206   0.738   6.915  1.8165 -1.8383  2.4773
  604MOL0     H83330  11.027   0.744   7.160  1.1264  1.3636  0.1825
  604MOL0     H83331  11.122   0.883   7.114 -0.0710  0.4389 -3.1933
  604MOL0     H83332  10.199   1.031   7.045  2.2016 -1.2275 -0.7741
  604MOL0     H83333  10.021   1.093   6.882  1.3057  0.3234  0.1083
  604MOL0     H83334   9.558   0.998   6.897  2.5877 -2.1173 -1.0374
  604MOL0     H83335   9.360   1.107   6.801 -1.0865  0.6658 -2.5363
  604MOL0     H83336   7.954   1.690   6.675  0.1944 -0.7579 -0.6248
  604MOL0     H83337   7.767   1.813   6.744 -0.3869 -1.1523 -0.1671
  604MOL0     H83338   7.431   1.740   7.169  1.3404  0.5275 -1.1275
  604MOL0     H83339   7.283   1.872   7.300  1.2413  0.0882 -0.4303
  604MOL0     H83340   6.929   1.862   7.141  1.2322 -0.0075 -0.2684
  604MOL0     H83341   6.950   1.883   7.313  0.6207  3.1218  1.1229
  604MOL0     H83342   6.843   2.112   7.151 -0.0171 -1.3972 -1.1548
  604MOL0     H83343   6.834   2.074   7.320 -1.1944 -1.1170 -0.2664
  604MOL0     H83344   6.607   2.035   7.209  0.8711  0.7415  0.2818
  604MOL0     H83345   6.689   1.903   7.122  1.3112 -1.0829  0.2379
  604MOL0     H83346   6.615   1.917   7.415 -1.5482 -1.2788  0.0410
  604MOL0     H83347   6.749   1.812   7.356 -0.1198 -1.0817  0.6842
  604MOL0     H83348   6.391   1.618   7.277  1.1757 -1.4743  1.0363
  604MOL0     H83349   7.084   2.017   6.953 -0.6299  1.2605  3.1812
  604MOL0     H83350   7.192   1.983   6.748  0.4604  0.8189 -0.5298
  604MOL0     H83351   7.371   1.959   6.744 -0.2676  0.0090  1.0949
  604MOL0     H83352   7.255   1.828   6.694  0.2638  1.2578 -1.9953
  605MOL0     O83353   6.525   1.165   8.145 -0.0468  0.0207  0.0546
  605MOL0     C83354   6.483   1.206   8.029  0.0266 -0.3618  0.3891
  605MOL0     O83355   6.562   1.271   7.944  0.1067  0.0743  0.7755
  605MOL0     C83356   6.691   1.310   7.993 -0.8887 -0.2272  0.0404
  605MOL0     C83357   6.696   1.411   8.084 -0.3978 -0.3409 -0.7222
  605MOL0     C83358   6.818   1.466   8.126 -0.4589  0.4666 -0.3840
  605MOL0     C83359   6.941   1.400   8.090  0.7090 -0.0438  0.3201
  605MOL0     O83360   7.065   1.441   8.137  0.2569  0.1821 -0.7829
  605MOL0     C83361   7.072   1.450   8.278  0.0346  0.1809 -0.4994
  605MOL0     C83362   7.223   1.438   8.309  0.1484 -0.6967 -0.2512
  605MOL0     C83363   7.261   1.492   8.451 -0.5287 -0.5278 -0.6357
  605MOL0     C83364   7.400   1.421   8.487 -0.6404  0.0816  0.5828
  605MOL0     C83365   7.527   1.490   8.428  0.0542  0.5847  0.3885
  605MOL0     C83366   7.597   1.597   8.509  0.1195 -0.5426 -0.2168
  605MOL0     C83367   7.737   1.629   8.477  0.0658 -0.1989  0.0512
  605MOL0     C83368   7.804   1.720   8.584  0.1381 -0.2991 -0.6951
  605MOL0     N83369   7.944   1.755   8.556 -0.2854  0.4774 -0.7356
  605MOL0     C83370   8.045   1.663   8.540 -0.8094  0.1338 -0.2209
  605MOL0     C83371   8.160   1.732   8.558 -0.1813 -0.4757  0.4914
  605MOL0     C83372   8.288   1.667   8.564 -0.4466  0.0847 -0.9490
  605MOL0     C83373   8.371   1.717   8.689 -0.3639  0.2138  0.2824
  605MOL0     C83374   8.516   1.664   8.673  0.2554  0.4813 -0.5531
  605MOL0     C83375   8.589   1.750   8.562 -0.5619  0.3615  0.6691
  605MOL0     O83376   8.666   1.672   8.476 -0.0878  0.5393 -1.0015
  605MOL0     C83377   8.795   1.656   8.513  0.4905 -0.1826  0.6832
  605MOL0     C83378   8.871   1.606   8.411  0.3976 -0.3982 -0.1799
  605MOL0     C83379   8.998   1.559   8.434 -0.3130  0.5320  0.1826
  605MOL0     C83380   9.081   1.521   8.309  0.4773  0.2020 -0.3303
  605MOL0     C83381   9.050   1.564   8.567 -0.4565 -0.4139 -1.2780
  605MOL0     C83382   9.196   1.532   8.599 -0.3444  0.2276 -0.6314
  605MOL0     O83383   9.250   1.589   8.717  0.7016 -0.7457  0.2365
  605MOL0     C83384   9.376   1.561   8.749 -0.9973 -0.1837  0.7412
  605MOL0     C83385   9.448   1.675   8.786 -0.5713  0.8417  0.5911
  605MOL0     C83386   9.570   1.665   8.855 -0.0937  0.6833 -1.0664
  605MOL0     C83387   9.627   1.534   8.872 -0.0846 -1.1319 -0.7222
  605MOL0     O83388   9.745   1.526   8.939 -0.8444  0.3338 -0.0839
  605MOL0     C83389   9.865   1.596   8.876 -0.5130 -0.9028  0.4499
  605MOL0     C83390   9.984   1.544   8.948  0.2278  0.2609 -0.0405
  605MOL0     C83391  10.103   1.623   8.902  0.1432 -0.1113  0.0052
  605MOL0     C83392  10.214   1.628   9.001 -0.4529 -0.2788 -0.8252
  605MOL0     C83393  10.331   1.719   8.945  0.1645 -0.2694 -1.0856
  605MOL0     C83394  10.294   1.859   8.875 -0.2597  0.2003 -1.0032
  605MOL0     C83395  10.252   1.975   8.961  0.0222  0.2762  0.1450
  605MOL0     C83396  10.301   2.110   8.916 -0.7402  0.3313  0.5770
  605MOL0    Cl83397  10.479   2.105   8.904 -0.3555  0.0695  0.1972
  605MOL0     C83398   9.558   1.420   8.831  0.0238 -0.1948 -0.0564
  605MOL0     C83399   9.431   1.429   8.773 -0.1774 -1.0114 -0.6419
  605MOL0     O83400   9.246   1.449   8.529 -0.2320 -0.3056 -0.0325
  605MOL0     C83401   8.984   1.625   8.670  0.1761 -0.8736 -0.6855
  605MOL0     C83402   8.849   1.672   8.646  0.0210  0.1946 -0.3930
  605MOL0     N83403   8.128   1.862   8.577 -0.7994 -0.0402 -0.5072
  605MOL0     N83404   8.002   1.874   8.581 -0.2892  0.2073 -0.2240
  605MOL0     C83405   6.925   1.286   8.003  0.2977  0.3103  0.7377
  605MOL0     C83406   6.806   1.244   7.955 -0.3141  0.1958 -0.7644
  605MOL0     C83407   6.337   1.198   8.003 -0.7384  0.0135  0.3354
  605MOL0     C83408   6.281   1.297   7.928  0.2281 -0.2832 -0.0523
  605MOL0     C83409   6.145   1.296   7.891 -0.4554 -0.9515 -0.2755
  605MOL0     C83410   6.059   1.201   7.946  0.6420 -0.8101  0.8092
  605MOL0     O83411   5.921   1.209   7.922 -0.2458  0.6233 -0.6413
  605MOL0     C83412   5.837   1.109   7.971  0.6267 -0.1475  0.6665
  605MOL0     C83413   5.695   1.116   7.922  0.5745 -0.3278 -0.4243
  605MOL0     C83414   5.661   1.263   7.883  0.8059  0.0304  0.1481
  605MOL0     C83415   5.517   1.283   7.817 -0.0318 -0.2433 -0.0716
  605MOL0     C83416   5.409   1.233   7.903 -0.7538  0.7774  0.7052
  605MOL0     C83417   5.324   1.192   7.967 -0.0108  1.0719  0.2021
  605MOL0     C83418   6.121   1.111   8.030  0.4634  0.8177  0.4469
  605MOL0     C83419   6.258   1.099   8.045  0.6784  0.7918 -0.2663
  605MOL0     C83420   6.306   0.970   8.110 -0.3689 -1.4779 -0.5360
  605MOL0     H83421   6.605   1.460   8.119  0.2540  1.2054 -1.1185
  605MOL0     H83422   6.829   1.544   8.200  2.7518  0.6424 -0.9009
  605MOL0     H83423   7.013   1.376   8.332 -0.8343  1.6524  0.6554
  605MOL0     H83424   7.038   1.551   8.305 -2.9540 -1.1189  1.0647
  605MOL0     H83425   7.268   1.340   8.293 -0.2371 -0.9607  0.2636
  605MOL0     H83426   7.276   1.507   8.242 -0.6730 -0.6760 -0.9057
  605MOL0     H83427   7.270   1.601   8.442  0.4424 -0.5978 -0.6299
  605MOL0     H83428   7.185   1.449   8.518  0.9250 -2.8361 -0.3600
  605MOL0     H83429   7.393   1.432   8.596 -0.6466  1.7609  0.4358
  605MOL0     H83430   7.412   1.316   8.459 -1.1046 -0.4645  2.2849
  605MOL0     H83431   7.508   1.530   8.328  0.9501 -1.0800 -0.4961
  605MOL0     H83432   7.592   1.402   8.418 -1.4431 -0.2670 -3.4054
  605MOL0     H83433   7.533   1.685   8.495  1.1124  0.2704  0.1928
  605MOL0     H83434   7.587   1.565   8.614 -2.1428 -0.7799 -0.4540
  605MOL0     H83435   7.736   1.677   8.379  4.9295 -1.7929 -1.0395
  605MOL0     H83436   7.806   1.546   8.458  1.1777  0.7113 -0.0129
  605MOL0     H83437   7.746   1.812   8.595  2.3512  1.4367 -2.3964
  605MOL0     H83438   7.787   1.672   8.680 -0.8584 -1.5889 -1.4841
  605MOL0     H83439   8.041   1.555   8.535  0.0861  0.1051 -0.4474
  605MOL0     H83440   8.344   1.695   8.474 -0.6837  1.6548 -0.6321
  605MOL0     H83441   8.276   1.559   8.578 -0.5321  0.4018  1.9776
  605MOL0     H83442   8.364   1.825   8.699 -0.5695  0.4048 -1.6668
  605MOL0     H83443   8.320   1.676   8.778 -1.7677  1.9137  0.3140
  605MOL0     H83444   8.565   1.689   8.768 -1.6831  1.9721  0.1254
  605MOL0     H83445   8.506   1.559   8.644 -0.8399  0.5311 -0.3914
  605MOL0     H83446   8.521   1.802   8.493 -1.2910 -1.1612  0.2075
  605MOL0     H83447   8.652   1.825   8.609  0.2436 -0.7269  1.3520
  605MOL0     H83448   8.834   1.623   8.311  0.5893  4.8150  0.3689
  605MOL0     H83449   9.017   1.530   8.221 -2.0958 -2.3330  1.1200
  605MOL0     H83450   9.110   1.416   8.302  2.3555  0.7365 -1.6071
  605MOL0     H83451   9.175   1.576   8.296 -0.1954  1.9087  1.5866
  605MOL0     H83452   9.404   1.775   8.784  0.6615  1.3902 -0.8873
  605MOL0     H83453   9.607   1.757   8.899 -1.7256  2.3295 -2.8985
  605MOL0     H83454   9.878   1.562   8.773  1.0116 -2.0782  0.9972
  605MOL0     H83455   9.851   1.704   8.889  1.7596 -0.7184  1.8782
  605MOL0     H83456   9.969   1.557   9.056  1.0623 -3.0976  0.5875
  605MOL0     H83457   9.990   1.437   8.931 -0.9714  0.0979  0.4372
  605MOL0     H83458  10.064   1.726   8.903 -1.0395 -0.5006  2.0983
  605MOL0     H83459  10.132   1.594   8.801 -1.6538  1.6959 -1.1072
  605MOL0     H83460  10.246   1.526   9.028  1.2478  1.0004  2.6750
  605MOL0     H83461  10.174   1.670   9.093 -1.5814  0.3902 -1.6001
  605MOL0     H83462  10.404   1.740   9.024  1.1906  1.0460 -2.3384
  605MOL0     H83463  10.369   1.651   8.869 -1.9509 -3.4218  0.4830
  605MOL0     H83464  10.212   1.846   8.804 -0.0165 -0.0797 -1.2312
  605MOL0     H83465  10.382   1.885   8.816  0.5510 -0.8257 -0.2723
  605MOL0     H83466  10.289   1.958   9.063 -0.9448  0.8714  0.6102
  605MOL0     H83467  10.143   1.975   8.974 -0.2011 -2.2075 -1.2667
  605MOL0     H83468  10.280   2.190   8.987 -1.8852  1.0713 -0.5604
  605MOL0     H83469  10.256   2.134   8.819  0.7304  0.4930 -0.0939
  605MOL0     H83470   9.602   1.324   8.856 -1.5605 -0.9146  0.0890
  605MOL0     H83471   9.373   1.341   8.746  1.1288 -2.1174  0.0080
  605MOL0     H83472   9.025   1.644   8.769  0.5313  0.4397 -1.0644
  605MOL0     H83473   8.786   1.713   8.723  0.2898 -0.2000  0.0454
  605MOL0     H83474   7.019   1.233   7.987 -0.0230 -0.1707  0.4268
  605MOL0     H83475   6.807   1.162   7.884 -1.9670 -1.3902  0.9234
  605MOL0     H83476   6.342   1.374   7.883 -1.0086 -0.2322 -1.7100
  605MOL0     H83477   6.112   1.369   7.818 -1.0776 -0.6896  0.2570
  605MOL0     H83478   5.878   1.009   7.955 -0.0584 -0.2821 -0.3452
  605MOL0     H83479   5.836   1.116   8.080 -1.2517  2.2787  0.5676
  605MOL0     H83480   5.629   1.083   8.003  2.7141 -0.8836  1.2219
  605MOL0     H83481   5.681   1.047   7.838  1.5224  0.7379 -1.4889
  605MOL0     H83482   5.684   1.327   7.969  0.8005  0.3274 -0.0748
  605MOL0     H83483   5.738   1.283   7.809  2.4946 -1.7441  1.2929
  605MOL0     H83484   5.507   1.223   7.727 -4.4734 -0.8551  0.5637
  605MOL0     H83485   5.499   1.387   7.789  0.2878 -0.6205 -1.7860
  605MOL0     H83486   5.227   1.172   8.007 -0.6265 -0.5011 -1.8930
  605MOL0     H83487   6.058   1.042   8.085  0.4134  1.9102  1.8249
  605MOL0     H83488   6.256   0.892   8.053  0.0939 -1.0647 -1.5280
  605MOL0     H83489   6.411   0.946   8.096 -0.6234 -2.4631 -0.8126
  605MOL0     H83490   6.280   0.974   8.216  0.3978 -1.9458 -0.3245
  606MOL0     O83491   6.684   6.924   3.736 -1.0510 -0.2207  0.3870
  606MOL0     C83492   6.599   7.009   3.738  0.7722 -0.2838  0.5089
  606MOL0     O83493   6.623   7.139   3.719  0.0015 -0.0361 -0.5848
  606MOL0     C83494   6.748   7.171   3.682  0.2421  0.1221  0.4574
  606MOL0     C83495   6.794   7.141   3.550  1.0057 -0.2155  0.7368
  606MOL0     C83496   6.922   7.189   3.509 -0.4641  0.0208 -0.1362
  606MOL0     C83497   6.997   7.263   3.590 -0.5480  0.4135 -0.4168
  606MOL0     O83498   7.110   7.300   3.524 -0.5551  0.2465  0.4362
  606MOL0     C83499   7.216   7.341   3.607  0.2680  0.4403 -0.0557
  606MOL0     C83500   7.344   7.336   3.520 -0.4270 -0.6685 -0.4746
  606MOL0     C83501   7.470   7.343   3.613  0.0551 -0.3074 -0.0824
  606MOL0     C83502   7.592   7.326   3.523  0.0844 -0.3023  0.2067
  606MOL0     C83503   7.726   7.336   3.594  0.9383  0.1515 -0.1721
  606MOL0     C83504   7.753   7.218   3.683  0.0137 -0.1487  0.1952
  606MOL0     C83505   7.886   7.212   3.753 -0.8619 -0.6728  0.7475
  606MOL0     C83506   7.938   7.347   3.794 -0.5433  0.7018 -0.7758
  606MOL0     N83507   8.070   7.339   3.866  0.4486 -0.2675  0.4345
  606MOL0     C83508   8.105   7.296   3.993 -0.6309  0.4290  0.0938
  606MOL0     C83509   8.233   7.336   4.019  0.2985 -0.1438 -0.6286
  606MOL0     C83510   8.309   7.317   4.142  0.0713 -0.4555 -0.2922
  606MOL0     C83511   8.458   7.270   4.120 -0.3985  0.1822 -0.0872
  606MOL0     C83512   8.552   7.374   4.183 -0.2820  0.3038 -0.1160
  606MOL0     C83513   8.700   7.324   4.177 -1.0399  0.2958  1.4262
  606MOL0     O83514   8.794   7.402   4.256 -0.1338  0.9018 -0.0919
  606MOL0     C83515   8.834   7.527   4.207 -0.1886  0.3695  0.3130
  606MOL0     C83516   8.813   7.575   4.075 -0.3879 -0.8806 -0.5900
  606MOL0     C83517   8.868   7.698   4.031  0.0710  0.6206  0.4178
  606MOL0     C83518   8.842   7.733   3.884  0.0147  0.5431 -0.1379
  606MOL0     C83519   8.952   7.774   4.117 -0.1471  0.2898  0.4151
  606MOL0     C83520   9.026   7.905   4.080 -0.3435 -0.0613  0.3702
  606MOL0     O83521   9.004   7.961   3.960  0.1559  0.7943 -0.3431
  606MOL0     C83522   9.040   8.095   3.931  0.0140  1.2081  0.3735
  606MOL0     C83523   9.175   8.134   3.930  0.0298  0.2255 -0.0914
  606MOL0     C83524   9.220   8.257   3.888  1.1597  0.0392 -0.1074
  606MOL0     C83525   9.128   8.348   3.835 -0.1764  0.7831 -0.1118
  606MOL0     O83526   9.164   8.474   3.801 -0.0725  0.2288 -0.0791
  606MOL0     C83527   9.303   8.513   3.811  0.5525  0.2007 -0.7965
  606MOL0     C83528   9.327   8.659   3.772  0.2565 -0.0819 -0.3121
  606MOL0     C83529   9.472   8.701   3.806  0.8404  0.3182  0.0115
  606MOL0     C83530   9.505   8.828   3.719 -0.4805 -0.0440  0.0050
  606MOL0     C83531   9.663   8.844   3.717  0.4481  0.0376  0.6013
  606MOL0     C83532   9.713   8.949   3.605  0.6513  0.2326  0.1219
  606MOL0     C83533   9.865   8.952   3.597 -1.1036 -0.0381 -0.1209
  606MOL0     C83534   9.917   9.042   3.471  0.9881 -0.0690 -0.8126
  606MOL0    Cl83535  10.090   9.013   3.450  0.1739  0.0498  0.1100
  606MOL0     C83536   8.995   8.313   3.836  0.6090  0.0248  0.1488
  606MOL0     C83537   8.955   8.186   3.872  0.0467  0.1041 -0.5335
  606MOL0     O83538   9.092   7.957   4.168 -0.8631 -0.0728 -0.2983
  606MOL0     C83539   8.971   7.721   4.245 -0.0023 -0.2361  0.5660
  606MOL0     C83540   8.917   7.594   4.289  0.6300  0.0222  0.3051
  606MOL0     N83541   8.278   7.414   3.915  0.3105  0.4647  0.1850
  606MOL0     N83542   8.176   7.420   3.833 -0.4151 -0.3336  0.3637
  606MOL0     C83543   6.952   7.283   3.721 -0.3555  0.5295 -0.4379
  606MOL0     C83544   6.832   7.233   3.768  0.3827  0.4153 -0.1422
  606MOL0     C83545   6.467   6.975   3.790 -0.8212 -0.7678  0.3255
  606MOL0     C83546   6.386   7.073   3.848 -0.1170  1.0025  0.0253
  606MOL0     C83547   6.258   7.047   3.909 -0.4584  0.9318  0.5132
  606MOL0     C83548   6.209   6.918   3.920  0.3693 -0.5248 -0.4337
  606MOL0     O83549   6.081   6.893   3.976  0.0038 -0.3122  0.5542
  606MOL0     C83550   6.018   6.760   3.964  0.4718  0.2128  0.8169
  606MOL0     C83551   5.876   6.758   4.023 -0.4391  0.1786 -0.7317
  606MOL0     C83552   5.806   6.632   3.989 -0.1090  0.1185  0.5609
  606MOL0     C83553   5.651   6.646   3.993 -0.2078 -0.6317  0.2756
  606MOL0     C83554   5.615   6.701   3.862  0.1130  0.4062 -0.1078
  606MOL0     C83555   5.605   6.746   3.751  0.1765 -0.3413 -0.0161
  606MOL0     C83556   6.291   6.821   3.858  0.2922  0.3236  0.1818
  606MOL0     C83557   6.407   6.849   3.790  0.0327  0.3696 -0.4212
  606MOL0     C83558   6.473   6.728   3.735  0.0540  0.3812  0.1735
  606MOL0     H83559   6.725   7.084   3.489 -0.1958 -0.6514  2.4203
  606MOL0     H83560   6.962   7.176   3.409  1.4326  0.6259  0.4947
  606MOL0     H83561   7.227   7.289   3.703 -1.7188  1.8425  0.9894
  606MOL0     H83562   7.191   7.442   3.641 -0.7460 -0.0632  0.7451
  606MOL0     H83563   7.350   7.235   3.480 -0.4046 -0.7306 -0.3157
  606MOL0     H83564   7.353   7.412   3.442 -0.6372  0.4168  0.5259
  606MOL0     H83565   7.470   7.432   3.676 -1.9676  0.7000 -1.3915
  606MOL0     H83566   7.463   7.251   3.671  1.1378  0.8313  1.9675
  606MOL0     H83567   7.585   7.227   3.476 -3.6873  0.2824 -0.8660
  606MOL0     H83568   7.592   7.404   3.446 -0.2614 -0.7243 -0.2295
  606MOL0     H83569   7.722   7.431   3.648  1.5426  1.1666 -1.8543
  606MOL0     H83570   7.809   7.341   3.523  2.0384  0.1226  1.0763
  606MOL0     H83571   7.688   7.230   3.771 -0.0195  0.6949  0.0637
  606MOL0     H83572   7.717   7.123   3.643 -1.4220 -1.2227  3.6392
  606MOL0     H83573   7.959   7.171   3.682 -0.3018 -0.7225  1.3355
  606MOL0     H83574   7.875   7.154   3.845 -0.8335  0.4128  1.4600
  606MOL0     H83575   7.944   7.422   3.714 -2.3842 -1.0999 -2.7309
  606MOL0     H83576   7.862   7.377   3.867 -0.3026  0.1759 -0.3025
  606MOL0     H83577   8.049   7.226   4.054  2.0555 -2.6575 -0.6848
  606MOL0     H83578   8.269   7.250   4.219 -0.2821  0.1958  0.0987
  606MOL0     H83579   8.297   7.415   4.188  1.5894  0.3664 -1.5525
  606MOL0     H83580   8.463   7.175   4.173  0.6916 -1.9757 -3.7235
  606MOL0     H83581   8.476   7.257   4.013 -1.5830 -0.9597 -0.1707
  606MOL0     H83582   8.544   7.467   4.126  0.7247  0.7512  0.4591
  606MOL0     H83583   8.502   7.391   4.279  0.7520  0.6299  0.3759
  606MOL0     H83584   8.698   7.221   4.214  3.3957  0.5671  2.9788
  606MOL0     H83585   8.733   7.313   4.074 -0.9547  1.9132  1.2555
  606MOL0     H83586   8.738   7.522   4.016 -3.4917  2.4629 -0.0582
  606MOL0     H83587   8.803   7.651   3.823  1.3926 -0.6832  0.5674
  606MOL0     H83588   8.943   7.749   3.844 -0.0230 -2.4687 -1.7275
  606MOL0     H83589   8.775   7.820   3.878  0.6354  0.9495 -1.5961
  606MOL0     H83590   9.242   8.054   3.960 -1.4711 -0.1387  2.6918
  606MOL0     H83591   9.323   8.287   3.901  1.2128 -0.6299  1.2205
  606MOL0     H83592   9.334   8.500   3.915 -0.0056 -0.3226 -0.6826
  606MOL0     H83593   9.375   8.455   3.752 -0.5086 -1.0774 -0.8981
  606MOL0     H83594   9.305   8.666   3.665  2.2283 -1.0948 -0.8310
  606MOL0     H83595   9.260   8.720   3.834  1.1115 -0.6797  1.2568
  606MOL0     H83596   9.543   8.622   3.779  0.2776  1.1410 -4.7805
  606MOL0     H83597   9.483   8.733   3.910  1.9246 -0.1338  0.0521
  606MOL0     H83598   9.457   8.918   3.759 -3.5582 -1.7923  0.5387
  606MOL0     H83599   9.476   8.829   3.613  1.2948  1.0929 -0.5021
  606MOL0     H83600   9.700   8.874   3.816  2.3933  2.0240 -0.6304
  606MOL0     H83601   9.715   8.751   3.691  0.0039  0.2468 -1.1508
  606MOL0     H83602   9.680   9.049   3.637  0.2475  1.1526 -2.8996
  606MOL0     H83603   9.666   8.930   3.509  0.5650  1.0379 -0.0001
  606MOL0     H83604   9.896   8.849   3.580  0.1903  0.2343  0.4416
  606MOL0     H83605   9.908   8.990   3.690  0.6204 -2.4815  0.1571
  606MOL0     H83606   9.901   9.149   3.483  2.6663  0.2643 -1.2987
  606MOL0     H83607   9.860   9.000   3.387 -0.6346 -1.3383  0.8363
  606MOL0     H83608   8.924   8.383   3.793  0.0580 -0.1578  0.7254
  606MOL0     H83609   8.847   8.173   3.864 -0.2070 -0.3723  2.5682
  606MOL0     H83610   9.030   7.783   4.312 -0.3442 -0.7543  1.3464
  606MOL0     H83611   8.933   7.554   4.388  1.8696 -1.7853 -0.5717
  606MOL0     H83612   7.029   7.324   3.786  1.7356 -1.4210 -1.5129
  606MOL0     H83613   6.806   7.242   3.874 -2.2472  1.3987 -0.7801
  606MOL0     H83614   6.430   7.171   3.867 -4.0764  2.3119  4.3532
  606MOL0     H83615   6.196   7.123   3.956 -1.9813  0.2327 -0.2793
  606MOL0     H83616   6.007   6.738   3.857  1.2217  0.5991  0.6557
  606MOL0     H83617   6.084   6.684   4.006  2.5157  1.1301 -0.5685
  606MOL0     H83618   5.828   6.844   3.976  0.8123  0.4077 -1.6365
  606MOL0     H83619   5.880   6.789   4.128 -0.9963 -1.9577 -0.0176
  606MOL0     H83620   5.831   6.581   3.896 -0.1759 -0.7838  1.0307
  606MOL0     H83621   5.828   6.551   4.059  1.4903 -2.1891 -2.3703
  606MOL0     H83622   5.617   6.711   4.074 -0.8337  1.2158 -1.3805
  606MOL0     H83623   5.601   6.550   4.008 -3.5472  0.9723  0.3885
  606MOL0     H83624   5.588   6.786   3.653  0.8622 -1.0076 -0.4239
  606MOL0     H83625   6.263   6.716   3.862  0.8250  0.1318 -0.7752
  606MOL0     H83626   6.490   6.737   3.627 -0.5122 -1.4840 -0.0945
  606MOL0     H83627   6.560   6.688   3.787  0.7935  0.8514 -0.6751
  606MOL0     H83628   6.408   6.641   3.741  0.0929  0.3973  0.8182
  607MOL0     O83629  10.131   0.988   2.266  0.2606 -0.0940  0.1803
  607MOL0     C83630  10.146   1.093   2.205  0.2646 -0.4374 -0.4416
  607MOL0     O83631  10.257   1.133   2.141 -0.2518 -0.3164 -0.1268
  607MOL0     C83632  10.357   1.039   2.133  0.8911  0.4066 -0.4588
  607MOL0     C83633  10.369   0.962   2.018 -0.1961  0.5781  0.0542
  607MOL0     C83634  10.479   0.872   1.990  0.5447 -0.0409  0.0122
  607MOL0     C83635  10.577   0.873   2.086 -0.4426  0.6473  0.2863
  607MOL0     O83636  10.683   0.784   2.065  0.5780  0.2668 -0.3358
  607MOL0     C83637  10.801   0.799   2.146  0.4483  0.3380 -0.9396
  607MOL0     C83638  10.911   0.730   2.069 -1.3010  0.8351 -0.4210
  607MOL0     C83639  11.057   0.765   2.111  0.4275  0.0319  0.4687
  607MOL0     C83640  11.172   0.721   2.015 -0.2787  0.2109 -0.9165
  607MOL0     C83641  11.301   0.792   2.061 -0.0761  0.3466  0.4365
  607MOL0     C83642  11.420   0.779   1.967 -0.3793  0.3361  0.2844
  607MOL0     C83643  11.540   0.825   2.049  0.6351  1.6558  0.0484
  607MOL0     C83644  11.664   0.858   1.964  0.5017  0.3315  0.4912
  607MOL0     N83645  11.786   0.797   2.025 -0.7417 -0.5035  0.0386
  607MOL0     C83646  11.872   0.853   2.119  0.0724  0.1372  0.0571
  607MOL0     C83647  11.957   0.754   2.155 -0.3180  0.4415 -0.4948
  607MOL0     C83648  12.056   0.764   2.268  0.0330  0.1884  0.1849
  607MOL0     C83649  12.168   0.853   2.233 -0.7913 -0.4833  0.8043
  607MOL0     C83650  12.251   0.886   2.363  0.8515  0.5743 -0.3849
  607MOL0     C83651  12.390   0.944   2.326 -0.8054  0.6012 -0.6405
  607MOL0     O83652  12.471   0.826   2.278 -0.5961  0.1036 -0.1090
  607MOL0     C83653  12.602   0.850   2.233  1.3309  0.4574  0.5343
  607MOL0     C83654  12.694   0.927   2.293  0.1569  0.6923 -0.7594
  607MOL0     C83655  12.824   0.940   2.244 -0.1390  0.8177 -0.1167
  607MOL0     C83656  12.911   1.009   2.340 -0.4737 -0.6563 -0.1858
  607MOL0     C83657  12.855   0.890   2.116  0.4959  0.2111 -0.1689
  607MOL0     C83658  12.990   0.910   2.061  0.3270 -0.3599  0.7275
  607MOL0     O83659  13.080   0.803   2.072 -0.0731  0.3656  0.3972
  607MOL0     C83660  13.210   0.807   2.031 -0.0174 -0.3595  0.0893
  607MOL0     C83661  13.288   0.927   2.022 -1.2363 -0.3907  0.0070
  607MOL0     C83662  13.425   0.923   1.988 -0.3841  0.1477 -0.3614
  607MOL0     C83663  13.482   0.797   1.966 -0.5985  0.9414 -0.1260
  607MOL0     O83664  13.617   0.782   1.925  1.0097  0.0321 -0.2048
  607MOL0     C83665  13.726   0.874   1.941  0.0179  0.4043  0.8748
  607MOL0     C83666  13.828   0.859   1.829  0.3446 -0.2578  0.9295
  607MOL0     C83667  13.778   0.914   1.699  0.3986 -0.0644  0.8049
  607MOL0     C83668  13.874   0.880   1.585 -0.3500  0.1214 -0.2855
  607MOL0     C83669  13.873   0.983   1.464 -0.3566 -0.8456 -0.7582
  607MOL0     C83670  13.970   0.951   1.351  0.1858 -0.1540 -0.4650
  607MOL0     C83671  13.926   1.027   1.228 -0.2094  0.1998 -0.0126
  607MOL0     C83672  14.029   1.006   1.118  0.4238  0.2931 -0.7091
  607MOL0    Cl83673  14.031   0.847   1.037 -0.2389 -0.3884 -0.6444
  607MOL0     C83674  13.407   0.680   1.978 -0.0020  0.0756 -0.2619
  607MOL0     C83675  13.276   0.688   2.015  0.2147 -0.4220 -1.1699
  607MOL0     O83676  13.013   1.023   2.007  0.2284  0.5450  0.2457
  607MOL0     C83677  12.751   0.811   2.051 -0.9631  0.2564  0.2928
  607MOL0     C83678  12.631   0.783   2.117  0.2172 -0.5498  0.3333
  607MOL0     N83679  11.927   0.646   2.069  0.5979  0.3485 -0.1612
  607MOL0     N83680  11.829   0.676   1.984 -0.2471 -0.6637 -0.7845
  607MOL0     C83681  10.570   0.955   2.203 -0.6964  0.1908  0.5311
  607MOL0     C83682  10.466   1.041   2.225  0.6310  0.0813  0.5428
  607MOL0     C83683  10.050   1.198   2.250  0.3959 -0.6172  1.0158
  607MOL0     C83684  10.099   1.323   2.290 -0.3719 -0.4082 -0.1610
  607MOL0     C83685  10.019   1.416   2.342 -0.3862 -0.1880 -0.5729
  607MOL0     C83686   9.886   1.394   2.352  0.6542  0.3810  0.0150
  607MOL0     O83687   9.809   1.491   2.409  0.1019  0.3083  0.5209
  607MOL0     C83688   9.666   1.470   2.409  0.3114 -0.1106  0.1398
  607MOL0     C83689   9.590   1.587   2.463 -0.0422  0.2445 -0.2400
  607MOL0     C83690   9.432   1.575   2.435  0.1852  0.2707  1.2859
  607MOL0     C83691   9.369   1.713   2.424 -0.7815  0.2132 -0.5282
  607MOL0     C83692   9.223   1.703   2.408  1.1614 -0.1319  0.0250
  607MOL0     C83693   9.098   1.691   2.394  0.4803  0.3008  1.0702
  607MOL0     C83694   9.832   1.267   2.313  0.6099 -0.4031 -0.3606
  607MOL0     C83695   9.913   1.173   2.265  0.1601 -0.2345 -0.0697
  607MOL0     C83696   9.857   1.043   2.214 -0.2127  1.0641  0.2716
  607MOL0     H83697  10.293   0.970   1.941  0.5625 -0.1444 -0.7971
  607MOL0     H83698  10.477   0.805   1.905  3.0621 -0.8190  0.4937
  607MOL0     H83699  10.785   0.760   2.247 -0.5841 -0.8552 -1.5281
  607MOL0     H83700  10.822   0.906   2.156 -2.9776  0.9702  1.0419
  607MOL0     H83701  10.897   0.622   2.071 -0.7601  0.6888 -2.7619
  607MOL0     H83702  10.885   0.743   1.964  1.4142  2.0314 -1.0297
  607MOL0     H83703  11.068   0.872   2.126  2.2124  0.0214 -0.5490
  607MOL0     H83704  11.075   0.718   2.208 -0.4309  0.9601  1.0944
  607MOL0     H83705  11.184   0.615   2.038  2.6065  0.4255 -1.0155
  607MOL0     H83706  11.143   0.744   1.912 -0.0244  2.4540 -0.5373
  607MOL0     H83707  11.341   0.745   2.152 -2.2472 -0.6098  0.9656
  607MOL0     H83708  11.288   0.899   2.077 -2.5301  0.1077  0.4296
  607MOL0     H83709  11.432   0.677   1.928 -0.7385 -1.2944  3.9976
  607MOL0     H83710  11.392   0.845   1.885 -0.5157 -1.4675 -1.2050
  607MOL0     H83711  11.564   0.740   2.113 -0.6092  0.5165 -0.9688
  607MOL0     H83712  11.511   0.915   2.106 -0.8412  1.5082 -0.4352
  607MOL0     H83713  11.644   0.830   1.860 -2.3047  1.9958  0.4868
  607MOL0     H83714  11.684   0.965   1.969  2.5448  0.0750 -0.7752
  607MOL0     H83715  11.874   0.952   2.163  0.3365  0.2506 -0.2106
  607MOL0     H83716  12.104   0.668   2.289  0.7836 -0.2249 -2.9600
  607MOL0     H83717  11.997   0.793   2.355 -1.3787 -1.1000 -0.2946
  607MOL0     H83718  12.229   0.801   2.159  1.5046  0.3093  2.0537
  607MOL0     H83719  12.130   0.950   2.198 -0.0990 -0.6685 -0.5383
  607MOL0     H83720  12.201   0.960   2.427 -0.4626 -0.7498  0.1597
  607MOL0     H83721  12.259   0.799   2.428 -2.2995  0.1569 -0.3802
  607MOL0     H83722  12.371   1.022   2.252 -0.7586 -0.3266 -1.6511
  607MOL0     H83723  12.446   0.981   2.412  2.3172 -0.2805 -2.1592
  607MOL0     H83724  12.675   0.973   2.389  0.8702 -0.1805 -0.1810
  607MOL0     H83725  13.006   1.035   2.293 -0.3287 -0.9096 -0.0316
  607MOL0     H83726  12.929   0.946   2.427  0.9550 -0.6528 -0.4536
  607MOL0     H83727  12.869   1.106   2.369  1.6083 -0.4694  2.6179
  607MOL0     H83728  13.240   1.023   2.039  1.0794  0.2142  4.8729
  607MOL0     H83729  13.472   1.018   1.967 -3.4231  1.4426 -1.9166
  607MOL0     H83730  13.702   0.980   1.958  0.6497  0.3992  1.8425
  607MOL0     H83731  13.784   0.843   2.029 -1.9676  0.1291  2.1467
  607MOL0     H83732  13.909   0.927   1.857 -0.9957  1.3898  1.0046
  607MOL0     H83733  13.859   0.755   1.817 -0.4246 -0.4507  0.5500
  607MOL0     H83734  13.775   1.022   1.716 -2.0715  0.5946 -2.7583
  607MOL0     H83735  13.678   0.878   1.674  1.0785  0.4548 -3.3381
  607MOL0     H83736  13.852   0.780   1.546  0.3181 -0.8289  1.6374
  607MOL0     H83737  13.972   0.875   1.634 -0.2680 -2.5180 -0.6131
  607MOL0     H83738  13.776   1.012   1.425 -0.6563  0.3608  0.7764
  607MOL0     H83739  13.912   1.077   1.505 -0.9316  0.3125 -2.7713
  607MOL0     H83740  13.957   0.843   1.338 -3.5684 -0.2741  2.5192
  607MOL0     H83741  14.075   0.970   1.375 -0.5191  1.6251  1.6590
  607MOL0     H83742  13.911   1.135   1.239 -3.0000 -0.2882  2.1183
  607MOL0     H83743  13.827   0.985   1.208  0.5226 -1.2795 -0.7306
  607MOL0     H83744  14.127   1.038   1.153 -0.1819  3.0991 -1.3477
  607MOL0     H83745  14.015   1.076   1.035 -0.5237  1.6236  0.5184
  607MOL0     H83746  13.453   0.588   1.943 -1.0698  0.7595 -3.8545
  607MOL0     H83747  13.232   0.590   2.026  1.2220 -1.1723 -3.2473
  607MOL0     H83748  12.767   0.791   1.946  0.2825  0.0704  0.4972
  607MOL0     H83749  12.557   0.727   2.061  1.0597 -0.0111 -1.3943
  607MOL0     H83750  10.643   0.953   2.283  0.8701  1.0073 -0.8297
  607MOL0     H83751  10.455   1.105   2.312  0.5353  2.5489 -1.1968
  607MOL0     H83752  10.202   1.350   2.270 -0.2162 -1.5470 -1.0337
  607MOL0     H83753  10.055   1.513   2.377  1.4571 -0.3132 -2.0212
  607MOL0     H83754   9.629   1.452   2.308  0.5387 -0.6699  0.1551
  607MOL0     H83755   9.643   1.373   2.453  1.1772 -0.4754 -0.1794
  607MOL0     H83756   9.625   1.684   2.428  0.9639 -0.0833 -0.1691
  607MOL0     H83757   9.606   1.583   2.571 -0.9185 -0.3024 -0.1147
  607MOL0     H83758   9.429   1.522   2.339 -0.7270  0.3563  1.2540
  607MOL0     H83759   9.377   1.516   2.509  0.4041  1.9188  2.8189
  607MOL0     H83760   9.423   1.771   2.348  0.3183  0.3550  0.3451
  607MOL0     H83761   9.381   1.765   2.520 -2.0991  0.1708 -0.3206
  607MOL0     H83762   8.997   1.676   2.363  2.2899 -2.1441 -5.2212
  607MOL0     H83763   9.728   1.239   2.328  0.7427 -0.7269 -0.0244
  607MOL0     H83764   9.750   1.061   2.203 -0.6889 -0.0708  2.5123
  607MOL0     H83765   9.899   1.025   2.114 -1.2217 -0.5547  0.1158
  607MOL0     H83766   9.876   0.958   2.281 -0.2377 -1.3877 -2.6284
  608MOL0     O83767   4.392   4.342   7.492 -0.7509 -0.6477  0.0131
  608MOL0     C83768   4.319   4.256   7.540 -0.3633 -0.9283  0.1847
  608MOL0     O83769   4.360   4.134   7.580  0.4386 -0.5793  0.0410
  608MOL0     C83770   4.479   4.081   7.545  0.5460  0.2779  0.7500
  608MOL0     C83771   4.479   4.021   7.412 -0.5034 -0.1415 -0.0784
  608MOL0     C83772   4.584   3.965   7.360  0.3236 -0.2163  0.7012
  608MOL0     C83773   4.711   3.971   7.435  0.1876  0.8560 -0.8120
  608MOL0     O83774   4.835   3.936   7.385  0.3127  0.2686 -0.1954
  608MOL0     C83775   4.848   3.937   7.243  0.3572 -0.9802  0.4121
  608MOL0     C83776   4.992   3.952   7.203 -0.4297  0.1767 -0.6657
  608MOL0     C83777   5.042   4.088   7.259 -1.0814 -0.4863  0.0601
  608MOL0     C83778   5.191   4.123   7.214  0.3243  0.2205 -0.3373
  608MOL0     C83779   5.253   4.258   7.262  0.0848 -0.3913 -1.0263
  608MOL0     C83780   5.209   4.370   7.169 -1.1018 -0.4896 -0.2086
  608MOL0     C83781   5.241   4.505   7.226  0.3875 -1.0303  1.0169
  608MOL0     C83782   5.182   4.609   7.132  0.4752 -0.6007 -0.9465
  608MOL0     N83783   5.222   4.745   7.154  0.6249  1.1856  0.1536
  608MOL0     C83784   5.322   4.806   7.088 -0.2607 -0.9180 -0.7230
  608MOL0     C83785   5.336   4.931   7.145 -0.8520 -0.5551  0.1514
  608MOL0     C83786   5.447   5.028   7.106  0.7205  0.3530  0.0236
  608MOL0     C83787   5.579   5.003   7.181 -0.1010 -0.3723  0.2999
  608MOL0     C83788   5.660   4.885   7.128 -0.0063 -0.3508 -0.4364
  608MOL0     C83789   5.794   4.876   7.207  0.7971 -0.1432 -0.2274
  608MOL0     O83790   5.823   4.992   7.299  0.3517 -0.1648  0.4862
  608MOL0     C83791   5.945   5.030   7.344  1.5709  0.9199  0.1578
  608MOL0     C83792   6.060   4.990   7.275  0.4859  0.2839  0.0123
  608MOL0     C83793   6.190   5.000   7.328  0.0694  0.0737  0.9595
  608MOL0     C83794   6.301   4.969   7.231 -0.7953 -0.2668  0.6639
  608MOL0     C83795   6.196   5.035   7.470 -0.4716 -0.1167 -0.6115
  608MOL0     C83796   6.320   5.036   7.559 -0.1815 -0.9553  0.0388
  608MOL0     O83797   6.436   5.013   7.498 -0.1243 -0.9614 -0.6579
  608MOL0     C83798   6.554   5.058   7.555  0.0202  0.3077  0.3647
  608MOL0     C83799   6.652   5.118   7.480  0.0273  0.2026  0.5966
  608MOL0     C83800   6.777   5.144   7.522  0.1540  0.6330  1.2416
  608MOL0     C83801   6.816   5.109   7.654  0.4020  0.9176  1.0173
  608MOL0     O83802   6.940   5.122   7.704 -0.3042 -0.8059 -0.1401
  608MOL0     C83803   7.054   5.107   7.607 -0.0487 -0.0654 -0.7255
  608MOL0     C83804   7.175   5.100   7.697 -0.5124 -0.4846 -0.0826
  608MOL0     C83805   7.216   5.237   7.775  0.3226  0.1640  0.4583
  608MOL0     C83806   7.336   5.203   7.863  0.2398 -0.0179  0.9045
  608MOL0     C83807   7.358   5.289   7.986  0.0967  0.1677 -0.2118
  608MOL0     C83808   7.492   5.254   8.065  1.0832 -0.2952 -0.3657
  608MOL0     C83809   7.525   5.379   8.142 -0.0201  0.1156  0.1007
  608MOL0     C83810   7.636   5.363   8.236  0.3331 -0.0087  0.1222
  608MOL0    Cl83811   7.787   5.352   8.143  0.2196 -0.0300 -0.4234
  608MOL0     C83812   6.726   5.056   7.733  0.3081 -0.5084 -0.1236
  608MOL0     C83813   6.592   5.031   7.684 -0.0645  0.3837  0.4848
  608MOL0     O83814   6.302   5.071   7.677 -0.3501 -0.3684  0.1496
  608MOL0     C83815   6.078   5.073   7.538  0.9609 -0.1936  1.2279
  608MOL0     C83816   5.954   5.073   7.478  0.4047 -0.4253  0.2297
  608MOL0     N83817   5.223   4.948   7.230 -0.5134  0.1955 -0.2658
  608MOL0     N83818   5.158   4.844   7.224  0.1806 -0.2006 -0.0761
  608MOL0     C83819   4.712   4.037   7.559 -0.3320  0.6928  0.1139
  608MOL0     C83820   4.594   4.087   7.619 -0.4377 -1.0030 -0.4846
  608MOL0     C83821   4.180   4.295   7.589  0.6474 -0.2714  1.0350
  608MOL0     C83822   4.124   4.217   7.692 -0.2768 -0.4051  0.6977
  608MOL0     C83823   4.007   4.251   7.749  0.8028 -0.1215 -0.5494
  608MOL0     C83824   3.925   4.348   7.690 -0.1064 -0.3587  0.7038
  608MOL0     O83825   3.805   4.351   7.740  0.9913 -0.4312 -0.6323
  608MOL0     C83826   3.697   4.431   7.681  0.5364  1.0408 -0.0990
  608MOL0     C83827   3.558   4.405   7.743 -0.1652  0.0077  0.0028
  608MOL0     C83828   3.549   4.391   7.899  0.4156 -0.0979 -0.3591
  608MOL0     C83829   3.404   4.356   7.946  0.1597 -0.4081 -1.3672
  608MOL0     C83830   3.402   4.358   8.095  0.1144 -1.1621  0.4873
  608MOL0     C83831   3.405   4.368   8.220  0.3911  0.7191  0.5870
  608MOL0     C83832   3.967   4.417   7.576 -0.9984 -0.8830  0.2231
  608MOL0     C83833   4.100   4.396   7.531 -0.1658 -0.4511 -0.3808
  608MOL0     C83834   4.150   4.469   7.412  0.3794  0.6326 -1.2136
  608MOL0     H83835   4.387   4.005   7.357 -1.6474  1.0970  1.3953
  608MOL0     H83836   4.573   3.911   7.267  0.5203 -0.6363  0.9197
  608MOL0     H83837   4.783   4.019   7.212 -2.5682 -3.5088 -0.7680
  608MOL0     H83838   4.812   3.841   7.204 -3.1806 -0.8902  3.0368
  608MOL0     H83839   5.049   3.876   7.256 -1.0689  0.8771  1.1118
  608MOL0     H83840   5.002   3.966   7.095  1.0799  2.6216 -0.3046
  608MOL0     H83841   4.979   4.169   7.222 -2.7178 -1.4837  0.5611
  608MOL0     H83842   5.034   4.082   7.368  2.4194  0.5749  0.4991
  608MOL0     H83843   5.258   4.045   7.252 -0.2901 -0.4583 -0.6245
  608MOL0     H83844   5.199   4.128   7.105  1.6331 -1.3978 -0.3595
  608MOL0     H83845   5.360   4.237   7.261 -0.0736 -1.2508 -2.4559
  608MOL0     H83846   5.220   4.284   7.363 -0.2799  1.3267 -1.5404
  608MOL0     H83847   5.262   4.357   7.074  3.2190 -2.7663  2.1796
  608MOL0     H83848   5.101   4.357   7.153 -1.5176 -1.8539  2.9609
  608MOL0     H83849   5.349   4.525   7.225  0.0311  1.9042 -3.1788
  608MOL0     H83850   5.202   4.532   7.325  0.4265 -1.1112  1.0545
  608MOL0     H83851   5.208   4.581   7.029  0.4311 -0.7000 -0.9309
  608MOL0     H83852   5.076   4.608   7.156  0.8001 -0.7267  0.5986
  608MOL0     H83853   5.388   4.760   7.015  1.0085  0.7377 -0.6702
  608MOL0     H83854   5.431   5.133   7.130  1.1108 -0.3672  4.2043
  608MOL0     H83855   5.460   5.016   6.998 -1.5336  2.4754 -0.5747
  608MOL0     H83856   5.631   5.099   7.175 -1.7786  0.6240  1.0408
  608MOL0     H83857   5.549   4.992   7.286  1.0436 -3.6118  0.4066
  608MOL0     H83858   5.600   4.794   7.139  1.3380 -1.1801  0.1992
  608MOL0     H83859   5.685   4.893   7.021 -1.2551  0.5456 -0.6916
  608MOL0     H83860   5.792   4.787   7.271  0.9278  1.2390  1.8044
  608MOL0     H83861   5.875   4.866   7.134  0.3600  3.3497 -1.3441
  608MOL0     H83862   6.050   4.951   7.174  0.1475  2.2593 -0.7701
  608MOL0     H83863   6.266   4.907   7.148  1.4572  0.8444 -1.2462
  608MOL0     H83864   6.392   4.923   7.273 -0.1191  0.8869  0.5222
  608MOL0     H83865   6.338   5.066   7.198 -1.6522  0.2215  1.1143
  608MOL0     H83866   6.626   5.145   7.378  0.2291  0.6859  0.6693
  608MOL0     H83867   6.845   5.183   7.446  1.0598 -3.0639 -0.0573
  608MOL0     H83868   7.031   5.014   7.554  0.5355 -1.4329  1.3119
  608MOL0     H83869   7.063   5.192   7.539 -3.4566  2.9469  2.0913
  608MOL0     H83870   7.168   5.010   7.759  0.8722 -2.0130 -2.0180
  608MOL0     H83871   7.262   5.076   7.635 -1.1147 -2.0423 -0.3604
  608MOL0     H83872   7.133   5.267   7.839  0.2756 -2.3153  1.7115
  608MOL0     H83873   7.243   5.311   7.699 -1.7398  1.4534  0.9185
  608MOL0     H83874   7.422   5.199   7.796 -0.1812  1.0850  0.2651
  608MOL0     H83875   7.324   5.100   7.898 -0.5589 -0.1666  0.2122
  608MOL0     H83876   7.350   5.394   7.955 -4.2147 -0.0488 -0.4902
  608MOL0     H83877   7.269   5.279   8.049 -0.2480  1.1087 -0.5295
  608MOL0     H83878   7.570   5.222   7.995  1.8064 -2.3131  1.2529
  608MOL0     H83879   7.472   5.178   8.142  1.9682  1.0793  1.3038
  608MOL0     H83880   7.432   5.405   8.192 -0.8785  1.3872 -2.0168
  608MOL0     H83881   7.545   5.463   8.075  1.0322  0.5803  0.9657
  608MOL0     H83882   7.618   5.275   8.298 -0.8021  1.0279  1.3147
  608MOL0     H83883   7.649   5.454   8.296 -0.1808  1.4826 -1.9042
  608MOL0     H83884   6.756   5.025   7.833 -0.9973 -0.9177  0.1592
  608MOL0     H83885   6.518   4.974   7.739  0.2970 -1.0116 -0.4197
  608MOL0     H83886   6.081   5.114   7.638 -0.7367  0.7646  0.9329
  608MOL0     H83887   5.867   5.100   7.538  1.1155  1.4645  0.4806
  608MOL0     H83888   4.804   4.057   7.614 -0.9040  0.9120  1.0137
  608MOL0     H83889   4.596   4.143   7.712 -0.1367 -0.5247 -0.7718
  608MOL0     H83890   4.182   4.135   7.732  0.5923 -0.0939  0.1194
  608MOL0     H83891   3.962   4.207   7.837 -2.8314 -1.3779 -2.8086
  608MOL0     H83892   3.718   4.535   7.706 -1.9143  1.3656  0.8387
  608MOL0     H83893   3.680   4.430   7.573 -0.5357  0.8295  0.0638
  608MOL0     H83894   3.523   4.317   7.688 -0.6944 -0.2770  0.7845
  608MOL0     H83895   3.492   4.485   7.708  0.7987  2.7899  3.8448
  608MOL0     H83896   3.621   4.316   7.936  0.4388  1.5896  3.5570
  608MOL0     H83897   3.583   4.482   7.949 -2.1519  0.4565  0.5103
  608MOL0     H83898   3.387   4.251   7.922  1.5289 -1.5819  2.0822
  608MOL0     H83899   3.330   4.419   7.897 -1.0792  0.8350  1.8026
  608MOL0     H83900   3.413   4.353   8.326  2.8353 -0.1153  0.3317
  608MOL0     H83901   3.904   4.489   7.523  2.0807  1.5008 -0.4952
  608MOL0     H83902   4.214   4.552   7.444 -0.1662  0.4116  0.5135
  608MOL0     H83903   4.189   4.400   7.336 -1.2446  0.0545 -1.5577
  608MOL0     H83904   4.078   4.523   7.349  0.0353 -0.0141 -1.3828
  609MOL0     O83905   3.473  10.572   1.416  0.9802  0.1912 -0.3062
  609MOL0     C83906   3.351  10.596   1.393 -0.8121  0.0062 -0.6620
  609MOL0     O83907   3.298  10.655   1.283 -0.4525 -0.0820 -0.8458
  609MOL0     C83908   3.384  10.727   1.204 -0.4894  0.8686 -0.0781
  609MOL0     C83909   3.475  10.652   1.119  0.0157 -0.0487 -0.1229
  609MOL0     C83910   3.561  10.725   1.033 -0.5512  0.0358  0.1335
  609MOL0     C83911   3.557  10.862   1.037  0.2753 -0.6757  0.3318
  609MOL0     O83912   3.632  10.927   0.938 -0.2537 -0.3528  0.0367
  609MOL0     C83913   3.597  11.062   0.901  0.3288  0.2721  0.6605
  609MOL0     C83914   3.676  11.090   0.766  0.4783 -0.1757  0.1214
  609MOL0     C83915   3.661  11.007   0.644 -0.1110 -0.6112 -0.4304
  609MOL0     C83916   3.699  11.078   0.515  0.4795  0.1629 -0.1840
  609MOL0     C83917   3.843  11.134   0.498 -0.0360  0.2239 -0.9592
  609MOL0     C83918   3.942  11.011   0.507 -0.1410 -0.7731  0.9453
  609MOL0     C83919   4.090  11.052   0.538  0.5843  0.2137  0.5744
  609MOL0     C83920   4.161  10.925   0.577  0.4404 -0.8402  0.2673
  609MOL0     N83921   4.298  10.965   0.627  0.0382  0.2014 -0.3231
  609MOL0     C83922   4.313  11.026   0.754 -0.5931 -0.1507 -0.5768
  609MOL0     C83923   4.446  11.055   0.752  0.0015 -0.1832  0.5783
  609MOL0     C83924   4.501  11.136   0.867 -0.5418 -0.6317 -0.1078
  609MOL0     C83925   4.653  11.113   0.885  0.1426 -0.0472  0.4041
  609MOL0     C83926   4.700  11.216   0.975  1.3247 -0.5180  0.1587
  609MOL0     C83927   4.852  11.194   0.996  0.0341  0.3797 -0.2917
  609MOL0     O83928   4.873  11.068   1.060  0.1164  0.2009 -0.6007
  609MOL0     C83929   4.999  11.021   1.079 -0.1402  0.5070 -0.3076
  609MOL0     C83930   5.014  10.886   1.113  0.2391  0.6496  0.2520
  609MOL0     C83931   5.133  10.825   1.141  0.1256  0.6863  0.6241
  609MOL0     C83932   5.123  10.678   1.162  0.1122 -0.4387 -0.0924
  609MOL0     C83933   5.252  10.909   1.128  1.4391  0.2085  0.7363
  609MOL0     C83934   5.389  10.854   1.154  0.5793  0.7800  0.1608
  609MOL0     O83935   5.496  10.930   1.099 -0.0388  0.5181 -0.5385
  609MOL0     C83936   5.626  10.894   1.118 -0.5068  0.4278  0.0281
  609MOL0     C83937   5.684  10.840   1.231  0.0881  0.6202  0.0866
  609MOL0     C83938   5.815  10.813   1.244 -0.6289 -0.1955  0.5766
  609MOL0     C83939   5.901  10.845   1.144 -0.4544 -0.9583 -1.0932
  609MOL0     O83940   6.036  10.807   1.164 -0.4318  0.0850 -0.7081
  609MOL0     C83941   6.118  10.773   1.054 -0.3377  0.5373 -0.5038
  609MOL0     C83942   6.257  10.713   1.097  0.5683  0.7327  0.5557
  609MOL0     C83943   6.367  10.746   1.009 -0.9158  0.1262 -0.0262
  609MOL0     C83944   6.492  10.664   1.035 -0.3634  0.7236 -0.4841
  609MOL0     C83945   6.589  10.682   0.909 -0.4234 -0.4824 -0.0573
  609MOL0     C83946   6.735  10.628   0.928 -1.4147 -0.4848  0.7750
  609MOL0     C83947   6.819  10.710   1.024  0.2396 -0.8403 -0.5686
  609MOL0     C83948   6.964  10.669   1.010 -0.3744 -0.1873 -0.9157
  609MOL0    Cl83949   7.061  10.694   1.153  0.1696 -0.0087 -0.0566
  609MOL0     C83950   5.847  10.891   1.024 -0.9459 -0.9922 -0.4393
  609MOL0     C83951   5.713  10.922   1.015 -0.0655  0.4193  0.1451
  609MOL0     O83952   5.396  10.757   1.229 -0.3746 -0.1834 -0.1714
  609MOL0     C83953   5.235  11.046   1.089  0.4240  0.3010 -0.3520
  609MOL0     C83954   5.115  11.102   1.068 -0.5251 -0.3293 -0.6141
  609MOL0     N83955   4.506  11.007   0.637 -0.3768  0.2667 -0.7587
  609MOL0     N83956   4.415  10.942   0.562 -0.3531 -0.2508  0.4255
  609MOL0     C83957   3.467  10.935   1.120  0.6250 -0.7174 -0.7104
  609MOL0     C83958   3.382  10.865   1.211  0.5595  0.0594  0.0134
  609MOL0     C83959   3.257  10.548   1.488  0.3124  0.3266 -0.1043
  609MOL0     C83960   3.274  10.428   1.559 -0.4762  0.1550 -0.4586
  609MOL0     C83961   3.180  10.366   1.628  0.1049 -0.6233 -0.4507
  609MOL0     C83962   3.054  10.415   1.633  0.5575  1.0024 -0.2650
  609MOL0     O83963   2.952  10.346   1.690  0.4017 -0.6293 -0.0163
  609MOL0     C83964   2.979  10.250   1.787 -0.1427  0.0218  0.1445
  609MOL0     C83965   2.843  10.212   1.849 -0.5856  0.1122  0.5828
  609MOL0     C83966   2.724  10.180   1.759  1.0856  0.1440 -0.5334
  609MOL0     C83967   2.592  10.178   1.842  1.0487 -0.5092  0.4183
  609MOL0     C83968   2.553  10.055   1.920  0.3678 -0.5617  0.7392
  609MOL0     C83969   2.531   9.952   1.979 -0.1860 -0.9021 -0.7001
  609MOL0     C83970   3.036  10.542   1.581  0.8937  0.8529  0.4188
  609MOL0     C83971   3.131  10.608   1.505 -0.0328 -0.8530  0.0891
  609MOL0     C83972   3.089  10.748   1.466 -0.0698  0.1741 -0.0048
  609MOL0     H83973   3.479  10.544   1.129  2.3269  0.1807  2.3258
  609MOL0     H83974   3.620  10.680   0.954 -1.5960 -0.5420 -0.3354
  609MOL0     H83975   3.619  11.149   0.964  0.7754  0.8989 -0.3307
  609MOL0     H83976   3.489  11.060   0.885  0.4024  2.3572 -0.5253
  609MOL0     H83977   3.637  11.189   0.738 -2.6735 -0.0851  3.9377
  609MOL0     H83978   3.782  11.112   0.784  0.7095 -2.7812  2.6400
  609MOL0     H83979   3.715  10.913   0.655  1.7553  0.0021 -3.2796
  609MOL0     H83980   3.555  10.980   0.650  0.4455 -2.7131  1.1938
  609MOL0     H83981   3.686  10.999   0.439  1.9124  0.3127 -0.6081
  609MOL0     H83982   3.627  11.157   0.492  0.6235  0.8241  1.5607
  609MOL0     H83983   3.860  11.216   0.569  2.0783 -0.7773 -0.1978
  609MOL0     H83984   3.859  11.185   0.403 -0.2776  2.3403  0.0675
  609MOL0     H83985   3.912  10.940   0.585 -0.3313  0.0367  1.6293
  609MOL0     H83986   3.942  10.949   0.417  0.9033  2.6801 -1.6551
  609MOL0     H83987   4.076  11.121   0.622 -0.2546  0.3838  0.3058
  609MOL0     H83988   4.135  11.099   0.450 -1.7522  0.7041 -0.4469
  609MOL0     H83989   4.101  10.882   0.657 -4.0461  3.7229 -0.1458
  609MOL0     H83990   4.173  10.859   0.491  1.6198 -0.2690 -0.0289
  609MOL0     H83991   4.237  11.053   0.826  0.0493 -3.0822  1.3890
  609MOL0     H83992   4.445  11.090   0.949 -0.2949 -2.6735 -1.0115
  609MOL0     H83993   4.478  11.241   0.850 -0.6540 -0.1551  2.5773
  609MOL0     H83994   4.677  11.014   0.925 -2.5442 -1.4844 -1.2809
  609MOL0     H83995   4.706  11.125   0.790  0.2107 -1.0152  0.3156
  609MOL0     H83996   4.685  11.318   0.939 -0.2817 -0.2567  1.4565
  609MOL0     H83997   4.653  11.220   1.074  1.3284  0.4584  0.1334
  609MOL0     H83998   4.910  11.199   0.903  0.5264 -0.9091 -0.0851
  609MOL0     H83999   4.890  11.272   1.062  1.3966  1.0813 -1.8334
  609MOL0     H84000   4.924  10.828   1.094 -1.2012  3.3845 -2.0021
  609MOL0     H84001   5.028  10.628   1.181  0.0390 -0.8588 -1.4092
  609MOL0     H84002   5.185  10.648   1.247  0.6773 -0.0358 -0.3528
  609MOL0     H84003   5.151  10.629   1.068  0.6969 -0.2764 -0.0101
  609MOL0     H84004   5.607  10.828   1.307  0.9695  0.2237  0.9326
  609MOL0     H84005   5.848  10.759   1.333 -1.8652 -1.7316  0.1457
  609MOL0     H84006   6.051  10.707   0.998  2.1857 -1.6070 -1.1800
  609MOL0     H84007   6.133  10.863   0.995 -2.0531 -0.9746 -3.5122
  609MOL0     H84008   6.281  10.713   1.204  0.5169 -2.8951  0.6719
  609MOL0     H84009   6.232  10.608   1.081 -2.8165  1.2068  1.7863
  609MOL0     H84010   6.396  10.849   1.028 -0.2421 -0.2346  0.9992
  609MOL0     H84011   6.336  10.727   0.906  0.5255 -2.1343 -0.1081
  609MOL0     H84012   6.471  10.558   1.045  1.5095  0.5864  4.3176
  609MOL0     H84013   6.546  10.686   1.127  0.7961 -2.8279 -0.1761
  609MOL0     H84014   6.553  10.624   0.824 -0.5169 -0.3293 -0.1211
  609MOL0     H84015   6.592  10.786   0.876  1.2862 -0.6303 -0.4554
  609MOL0     H84016   6.778  10.634   0.828 -0.3421  0.3446  1.2773
  609MOL0     H84017   6.735  10.522   0.955  0.4678 -0.4092  1.1470
  609MOL0     H84018   6.789  10.691   1.128 -1.3510  1.4281 -0.5583
  609MOL0     H84019   6.800  10.817   1.012  1.9084 -0.5108 -0.5925
  609MOL0     H84020   7.002  10.720   0.921 -2.2010  3.2244  0.0774
  609MOL0     H84021   6.967  10.562   0.986 -0.1778  0.2051 -2.7643
  609MOL0     H84022   5.915  10.914   0.943  1.0348  1.3250  1.6933
  609MOL0     H84023   5.684  10.963   0.919 -2.4598  1.0682  1.0685
  609MOL0     H84024   5.311  11.123   1.078  0.6741  0.0668 -0.2804
  609MOL0     H84025   5.099  11.208   1.054  1.0553  0.2281  1.3987
  609MOL0     H84026   3.454  11.042   1.112 -1.8336 -1.0852 -2.8590
  609MOL0     H84027   3.329  10.910   1.294  0.8864 -1.7780  1.3019
  609MOL0     H84028   3.368  10.375   1.569 -1.9717 -2.2429  3.7209
  609MOL0     H84029   3.213  10.272   1.671  3.3823  0.2582 -0.7490
  609MOL0     H84030   3.027  10.159   1.748  2.2042  1.6006 -0.8802
  609MOL0     H84031   3.037  10.288   1.872 -2.4058  1.4909  1.1133
  609MOL0     H84032   2.822  10.294   1.919  1.9721  0.0647  1.5330
  609MOL0     H84033   2.868  10.126   1.913  1.7952 -0.3645 -0.8580
  609MOL0     H84034   2.705  10.252   1.678 -0.9096 -0.0279 -0.2676
  609MOL0     H84035   2.728  10.082   1.712  0.2140  1.1079 -2.7998
  609MOL0     H84036   2.502  10.193   1.780  2.7548  1.3526 -1.7914
  609MOL0     H84037   2.603  10.263   1.909  1.8733  0.5129 -0.9390
  609MOL0     H84038   2.503   9.856   2.017 -2.2512 -0.2154 -0.3698
  609MOL0     H84039   2.937  10.576   1.612 -0.2739 -0.9190 -1.1433
  609MOL0     H84040   3.001  10.780   1.523 -1.7079 -2.1279 -1.0718
  609MOL0     H84041   3.175  10.809   1.494 -0.1680  0.2114  0.2198
  609MOL0     H84042   3.073  10.767   1.360  4.6656 -1.8177 -1.3191
  610MOL0     O84043   9.916   7.394   9.036 -0.2242  0.2145  0.2268
  610MOL0     C84044   9.904   7.298   9.114  0.4021  0.0069  0.3686
  610MOL0     O84045  10.007   7.223   9.162  0.0077  0.2491  0.7056
  610MOL0     C84046  10.134   7.219   9.125 -0.1183  0.0221  0.7998
  610MOL0     C84047  10.172   7.237   8.985  0.0982  1.1306  0.0264
  610MOL0     C84048  10.308   7.241   8.952 -1.3102  0.6599 -0.9780
  610MOL0     C84049  10.410   7.214   9.049 -0.0652 -0.3808  0.7395
  610MOL0     O84050  10.541   7.228   9.009  0.1158 -0.1287 -0.2768
  610MOL0     C84051  10.652   7.192   9.091  0.5124  0.2984 -0.2321
  610MOL0     C84052  10.777   7.172   9.012 -0.3862  0.8079  0.6044
  610MOL0     C84053  10.789   7.288   8.911 -0.5494 -0.5033  0.7343
  610MOL0     C84054  10.916   7.263   8.826  0.6820  0.0314  0.3368
  610MOL0     C84055  10.916   7.370   8.718  0.7269 -0.0285  0.3821
  610MOL0     C84056  11.026   7.341   8.618  0.0489 -0.3596  0.3955
  610MOL0     C84057  11.048   7.468   8.526 -0.4035 -0.1141  0.0865
  610MOL0     C84058  11.140   7.414   8.413 -0.3757  0.8585 -0.0952
  610MOL0     N84059  11.152   7.499   8.295 -0.2681 -0.7009 -0.2748
  610MOL0     C84060  11.267   7.569   8.266  0.1533  0.0762  0.6382
  610MOL0     C84061  11.241   7.616   8.138 -0.6773  0.2784  0.4598
  610MOL0     C84062  11.341   7.696   8.051 -0.1248  0.2133 -0.9408
  610MOL0     C84063  11.464   7.622   7.993 -0.5994 -0.3915  0.6900
  610MOL0     C84064  11.522   7.703   7.881  0.5241 -0.2462  0.0556
  610MOL0     C84065  11.633   7.618   7.803  1.0468  0.0972 -0.6449
  610MOL0     O84066  11.719   7.544   7.886  0.2046  0.2338 -0.3525
  610MOL0     C84067  11.834   7.592   7.939 -0.3571 -0.2180  0.2362
  610MOL0     C84068  11.914   7.486   7.985 -1.5959  0.4345 -0.3139
  610MOL0     C84069  12.047   7.508   8.029  0.8202  0.6944 -0.3944
  610MOL0     C84070  12.122   7.390   8.090  0.8984  1.0423 -0.7608
  610MOL0     C84071  12.097   7.642   8.033  0.3611 -0.2071  0.5218
  610MOL0     C84072  12.227   7.675   8.080  0.3605  0.5400 -0.5720
  610MOL0     O84073  12.250   7.644   8.212 -0.1585 -0.6793 -0.0920
  610MOL0     C84074  12.377   7.639   8.258  0.3850  0.0993  0.1100
  610MOL0     C84075  12.427   7.754   8.329 -0.3651  0.2490  0.1368
  610MOL0     C84076  12.556   7.752   8.371  0.1910 -0.0195 -0.0563
  610MOL0     C84077  12.643   7.648   8.360 -0.6171  0.6800 -0.1446
  610MOL0     O84078  12.773   7.669   8.391  0.1254  0.2082 -0.2709
  610MOL0     C84079  12.841   7.561   8.469 -0.2254 -0.9237 -0.9267
  610MOL0     C84080  12.971   7.625   8.516  0.2719 -0.1569 -0.2950
  610MOL0     C84081  12.942   7.722   8.644  0.3864  0.5638  0.4346
  610MOL0     C84082  13.070   7.789   8.693  0.3848 -0.3658  0.2647
  610MOL0     C84083  13.160   7.854   8.582 -0.5083 -0.0957 -0.2968
  610MOL0     C84084  13.250   7.954   8.644 -0.4081 -0.3084  0.0674
  610MOL0     C84085  13.354   7.884   8.722  0.3485 -0.4465 -0.7518
  610MOL0     C84086  13.460   7.985   8.773  0.2260 -0.2809  0.4601
  610MOL0    Cl84087  13.561   7.898   8.886 -0.0018  0.0136 -0.0216
  610MOL0     C84088  12.585   7.533   8.306 -0.9083  0.2873 -0.8475
  610MOL0     C84089  12.453   7.528   8.253 -0.6795  0.4672 -0.0081
  610MOL0     O84090  12.311   7.689   7.988 -0.1807  0.1486  0.2835
  610MOL0     C84091  12.020   7.742   7.983  0.1026  1.2376  1.0906
  610MOL0     C84092  11.887   7.718   7.937 -0.5246 -1.0733  0.1916
  610MOL0     N84093  11.113   7.592   8.106  0.3460 -0.6935 -0.0571
  610MOL0     N84094  11.054   7.524   8.202  0.2292 -1.1053 -0.2587
  610MOL0     C84095  10.369   7.189   9.175 -0.1875  0.0796 -0.3612
  610MOL0     C84096  10.237   7.187   9.214  0.1065  0.1578  0.2400
  610MOL0     C84097   9.760   7.275   9.154 -0.5022 -0.3468  0.0398
  610MOL0     C84098   9.657   7.361   9.113 -0.5809 -0.3470  0.1901
  610MOL0     C84099   9.527   7.339   9.156  0.1906  0.3158  0.3324
  610MOL0     C84100   9.490   7.238   9.239  0.8312 -0.8680 -0.6264
  610MOL0     O84101   9.363   7.231   9.299  0.5147  0.0715 -0.3676
  610MOL0     C84102   9.243   7.282   9.229 -0.0486 -0.0807 -0.0932
  610MOL0     C84103   9.123   7.223   9.301 -0.3409  0.1425  0.8244
  610MOL0     C84104   9.111   7.071   9.266  0.1182  0.5007 -0.0409
  610MOL0     C84105   8.993   7.000   9.322  0.4331 -0.5256 -0.4032
  610MOL0     C84106   8.868   7.055   9.285  0.1944  0.3777 -0.5164
  610MOL0     C84107   8.761   7.101   9.262 -0.6214  0.0738  0.4423
  610MOL0     C84108   9.593   7.153   9.279  0.3972 -0.3892  0.0301
  610MOL0     C84109   9.721   7.167   9.238 -0.5865  0.1159  0.5966
  610MOL0     C84110   9.817   7.062   9.300  0.1989 -0.3028 -0.6143
  610MOL0     H84111  10.093   7.250   8.912  0.4359 -1.6139 -0.9671
  610MOL0     H84112  10.330   7.270   8.849 -1.0209 -0.8158 -1.3524
  610MOL0     H84113  10.637   7.102   9.152  1.3141 -0.5463 -1.2348
  610MOL0     H84114  10.670   7.277   9.157  0.5365  0.9330 -1.0323
  610MOL0     H84115  10.860   7.185   9.082 -1.0468  0.6410  1.4388
  610MOL0     H84116  10.762   7.077   8.959 -1.3721  1.2782  0.0030
  610MOL0     H84117  10.703   7.292   8.843  0.3227 -0.1672 -0.3778
  610MOL0     H84118  10.804   7.385   8.960  0.1389 -0.6310  0.7894
  610MOL0     H84119  11.008   7.250   8.884  0.8532  1.4753  0.4319
  610MOL0     H84120  10.896   7.170   8.771 -2.7147  1.4252 -1.0761
  610MOL0     H84121  10.944   7.463   8.768  0.9661 -0.6360  1.4159
  610MOL0     H84122  10.821   7.378   8.664  0.7580 -0.4592  0.2567
  610MOL0     H84123  11.123   7.318   8.664  0.7716 -0.0157 -0.9157
  610MOL0     H84124  10.997   7.260   8.551 -0.8912 -0.7809  1.2836
  610MOL0     H84125  11.096   7.541   8.592  0.6260  0.1338 -0.9025
  610MOL0     H84126  10.948   7.497   8.493  0.4546  3.3292  0.1210
  610MOL0     H84127  11.237   7.378   8.449 -1.2122 -3.4791 -1.5097
  610MOL0     H84128  11.091   7.328   8.367  1.7688 -0.2022 -0.5445
  610MOL0     H84129  11.351   7.592   8.330 -0.8517  1.0802  1.6453
  610MOL0     H84130  11.382   7.771   8.118 -1.0950 -0.2679  0.2343
  610MOL0     H84131  11.281   7.745   7.973 -1.2245 -2.9616 -2.2633
  610MOL0     H84132  11.539   7.594   8.068 -0.2027  3.4911  1.9223
  610MOL0     H84133  11.417   7.530   7.956  2.4477 -2.3900  1.4007
  610MOL0     H84134  11.430   7.719   7.824 -0.7894 -0.9519  1.8676
  610MOL0     H84135  11.566   7.792   7.928 -1.7204  2.0846 -1.9475
  610MOL0     H84136  11.593   7.544   7.734 -0.6700  1.3011 -0.9949
  610MOL0     H84137  11.696   7.686   7.744  1.0410 -0.9909 -1.9577
  610MOL0     H84138  11.873   7.386   7.978  0.0817 -0.1615 -2.9242
  610MOL0     H84139  12.223   7.398   8.048 -0.6869 -1.0700 -5.7279
  610MOL0     H84140  12.081   7.295   8.056  1.3144  0.7000 -0.3282
  610MOL0     H84141  12.129   7.399   8.199  1.7125  2.0424 -0.8761
  610MOL0     H84142  12.375   7.848   8.342  2.1722  1.8160 -0.5085
  610MOL0     H84143  12.594   7.841   8.421 -2.0385  0.8349  0.2027
  610MOL0     H84144  12.783   7.531   8.557  1.4505  1.2655  1.0381
  610MOL0     H84145  12.858   7.479   8.400  2.5360  0.6184 -2.2440
  610MOL0     H84146  13.035   7.538   8.533 -1.9955 -1.7610  0.4664
  610MOL0     H84147  13.001   7.687   8.430  2.8125 -2.5804 -1.2861
  610MOL0     H84148  12.908   7.659   8.726 -0.3410 -1.9896 -1.6830
  610MOL0     H84149  12.866   7.796   8.618 -0.0246 -0.4377 -1.3984
  610MOL0     H84150  13.132   7.715   8.746 -1.7555 -1.1375  1.8508
  610MOL0     H84151  13.047   7.867   8.766 -0.3819 -0.0583 -0.2942
  610MOL0     H84152  13.218   7.782   8.523  0.4354  0.9921 -0.7546
  610MOL0     H84153  13.096   7.906   8.511 -0.4664  0.1608 -0.1462
  610MOL0     H84154  13.183   8.020   8.700 -1.6741 -1.8960  0.4840
  610MOL0     H84155  13.302   8.013   8.568  1.3776 -1.7482  0.1164
  610MOL0     H84156  13.402   7.798   8.673 -3.0955 -2.9633 -0.0908
  610MOL0     H84157  13.301   7.840   8.808  1.1437 -0.3563 -0.1986
  610MOL0     H84158  13.425   8.067   8.836 -2.0631 -0.9879  0.2225
  610MOL0     H84159  13.527   8.014   8.693 -0.4538  1.9205  0.6331
  610MOL0     H84160  12.653   7.449   8.307  1.0954  1.7602  2.0095
  610MOL0     H84161  12.413   7.434   8.217 -2.4706  0.4533  1.8127
  610MOL0     H84162  12.067   7.840   7.984  2.5452  0.1405  0.7282
  610MOL0     H84163  11.828   7.797   7.892  2.0347 -0.4589 -2.3413
  610MOL0     H84164  10.446   7.172   9.249 -0.8728  0.1397  0.3688
  610MOL0     H84165  10.219   7.169   9.319 -2.3183  1.4677  0.1297
  610MOL0     H84166   9.679   7.447   9.050  1.0094  1.3532  2.8568
  610MOL0     H84167   9.451   7.413   9.132 -1.2498 -0.9577  0.8330
  610MOL0     H84168   9.233   7.389   9.251  2.1752 -0.4362  3.5555
  610MOL0     H84169   9.235   7.256   9.124 -3.8289  0.9548 -0.2092
  610MOL0     H84170   9.037   7.280   9.265 -0.6853 -0.8494  0.0431
  610MOL0     H84171   9.125   7.229   9.411  4.2196 -1.2782  1.0199
  610MOL0     H84172   9.118   7.051   9.158 -1.5339  0.3213 -0.1423
  610MOL0     H84173   9.200   7.018   9.301 -0.8489 -0.2852  1.3073
  610MOL0     H84174   9.010   7.020   9.428  1.2828  1.8099 -0.9075
  610MOL0     H84175   8.979   6.893   9.307  1.0994 -0.5632 -0.7837
  610MOL0     H84176   8.667   7.149   9.243  0.5344  2.7169  0.9250
  610MOL0     H84177   9.561   7.068   9.339  0.7036 -0.0290  0.7131
  610MOL0     H84178   9.878   7.115   9.374 -2.8245 -0.5223  2.2926
  610MOL0     H84179   9.752   6.985   9.342 -0.3191 -0.2128 -1.2334
  610MOL0     H84180   9.874   7.017   9.219  0.0007  0.3357 -1.1147
  611MOL0     O84181   5.992   1.442   1.778  0.4458  0.4496 -0.2363
  611MOL0     C84182   5.871   1.446   1.803 -0.3046 -0.9640  0.0112
  611MOL0     O84183   5.809   1.544   1.869 -0.4024  0.3521  0.0230
  611MOL0     C84184   5.878   1.651   1.923 -0.1439 -0.8965 -0.3310
  611MOL0     C84185   5.973   1.733   1.856  0.8644 -0.2486 -0.7716
  611MOL0     C84186   6.015   1.860   1.911 -0.3055  0.0658  0.4466
  611MOL0     C84187   5.972   1.907   2.031 -0.5761 -0.6125 -0.4564
  611MOL0     O84188   6.022   2.033   2.068  0.2178  0.8720 -0.3413
  611MOL0     C84189   6.039   2.055   2.206  0.8735  1.1501 -0.1314
  611MOL0     C84190   6.169   1.984   2.244  0.0395  0.0634 -0.1112
  611MOL0     C84191   6.290   2.067   2.214 -0.7374  0.6269  0.4123
  611MOL0     C84192   6.417   1.993   2.256  1.2732 -0.0687 -0.5794
  611MOL0     C84193   6.544   2.078   2.215  0.5420 -0.3113 -0.7469
  611MOL0     C84194   6.682   2.009   2.232  0.3548 -0.6864 -0.1801
  611MOL0     C84195   6.800   2.103   2.188  0.2561  0.0691  0.1337
  611MOL0     C84196   6.941   2.053   2.226 -0.2825 -0.3293 -0.3308
  611MOL0     N84197   7.033   2.166   2.193 -0.8311 -0.2442 -0.7989
  611MOL0     C84198   7.086   2.203   2.070 -0.1404  0.2818 -0.3619
  611MOL0     C84199   7.149   2.316   2.097 -0.4068  0.3374 -0.2032
  611MOL0     C84200   7.201   2.400   1.988  0.1455  0.1200 -0.4052
  611MOL0     C84201   7.349   2.376   1.944  0.9780 -0.6504 -0.4699
  611MOL0     C84202   7.430   2.369   2.078  0.6329 -0.3893  0.7501
  611MOL0     C84203   7.572   2.390   2.046 -0.0611  0.4029  0.0153
  611MOL0     O84204   7.602   2.307   1.931 -0.4716  0.7462 -0.2645
  611MOL0     C84205   7.720   2.333   1.873 -0.4429  0.4879  0.2690
  611MOL0     C84206   7.843   2.326   1.932 -0.0566  0.1292  0.2773
  611MOL0     C84207   7.957   2.358   1.863 -0.0828 -0.4006 -0.1461
  611MOL0     C84208   8.084   2.332   1.936 -0.6845 -0.3198 -0.0128
  611MOL0     C84209   7.943   2.424   1.737 -0.1849 -0.1884  1.3450
  611MOL0     C84210   8.054   2.493   1.671 -0.8049 -0.4778  0.3473
  611MOL0     O84211   8.068   2.492   1.528  0.2818 -0.1677  0.1100
  611MOL0     C84212   8.176   2.558   1.473  0.5340  0.1675 -0.0517
  611MOL0     C84213   8.256   2.495   1.369  0.1866  0.6955 -0.1407
  611MOL0     C84214   8.368   2.565   1.326 -0.6746 -0.5322  0.7037
  611MOL0     C84215   8.401   2.693   1.358  0.2852 -0.0368  0.3614
  611MOL0     O84216   8.498   2.762   1.283  0.0256 -0.0020 -0.3565
  611MOL0     C84217   8.477   2.896   1.252  0.6816 -0.4333  0.7644
  611MOL0     C84218   8.586   2.949   1.156  0.0012 -0.2681  0.2365
  611MOL0     C84219   8.724   2.946   1.223  0.8756 -0.1544  0.4431
  611MOL0     C84220   8.802   3.049   1.148 -0.3337 -0.4166  0.3627
  611MOL0     C84221   8.941   3.066   1.201 -1.7533  0.3458  0.4857
  611MOL0     C84222   9.044   3.070   1.088 -0.1922 -0.0407 -0.4782
  611MOL0     C84223   9.060   2.933   1.023 -0.2372 -0.1769  1.3395
  611MOL0     C84224   9.130   2.946   0.883  0.2894  0.4559 -0.3517
  611MOL0    Cl84225   9.296   3.019   0.880  0.1376 -0.2855  0.0966
  611MOL0     C84226   8.330   2.750   1.456 -0.7697 -0.1473 -0.5300
  611MOL0     C84227   8.214   2.689   1.514  0.2374  0.1661  0.5109
  611MOL0     O84228   8.138   2.541   1.743  0.1062 -0.2910 -0.1839
  611MOL0     C84229   7.822   2.420   1.675  0.4203 -0.5130  0.3586
  611MOL0     C84230   7.710   2.382   1.745  0.1470 -0.5918 -0.2833
  611MOL0     N84231   7.149   2.348   2.233  0.7766 -0.7070  0.1808
  611MOL0     N84232   7.066   2.265   2.287  0.2093  0.1985 -0.3364
  611MOL0     C84233   5.879   1.831   2.098  0.3639 -0.0792  0.0029
  611MOL0     C84234   5.824   1.714   2.042 -0.2667  0.2827 -0.5190
  611MOL0     C84235   5.789   1.334   1.755  0.1212 -0.2589 -0.8705
  611MOL0     C84236   5.653   1.351   1.749 -0.5693  0.2062  0.0408
  611MOL0     C84237   5.572   1.234   1.740  0.0796  0.3131  0.6336
  611MOL0     C84238   5.627   1.110   1.713 -0.3463 -0.8019 -0.3844
  611MOL0     O84239   5.531   1.021   1.680 -0.6392  0.2524  0.7420
  611MOL0     C84240   5.574   0.887   1.637  0.6615 -0.4588  0.0534
  611MOL0     C84241   5.459   0.788   1.629  0.9237  0.2347 -0.2516
  611MOL0     C84242   5.358   0.824   1.529  0.1378 -0.2682  0.3190
  611MOL0     C84243   5.227   0.732   1.543  0.5654  0.4629  0.1922
  611MOL0     C84244   5.254   0.599   1.498  0.8903  0.2005  0.5617
  611MOL0     C84245   5.283   0.493   1.446  0.2503 -0.1954 -0.0276
  611MOL0     C84246   5.769   1.096   1.705 -0.1839 -0.0784  1.0268
  611MOL0     C84247   5.847   1.211   1.725  0.0724 -0.3572  0.2780
  611MOL0     C84248   5.993   1.180   1.708 -0.4481  0.0536  0.1185
  611MOL0     H84249   6.000   1.703   1.755 -0.3687 -0.2494 -1.1109
  611MOL0     H84250   6.078   1.922   1.848 -0.7990 -0.7127 -0.8798
  611MOL0     H84251   5.955   2.019   2.266  1.1602  4.2964  2.4668
  611MOL0     H84252   6.046   2.163   2.226  2.7970  1.2115 -0.9402
  611MOL0     H84253   6.171   1.959   2.350  1.8888 -2.8514 -0.7325
  611MOL0     H84254   6.160   1.889   2.191  1.5106  1.0819 -2.3582
  611MOL0     H84255   6.292   2.088   2.106 -1.8069  1.8458  0.6008
  611MOL0     H84256   6.287   2.160   2.273  1.0462  1.3182 -0.4960
  611MOL0     H84257   6.419   2.000   2.365 -2.2450 -0.3175 -0.3840
  611MOL0     H84258   6.407   1.891   2.220  0.3900  0.4224 -1.8183
  611MOL0     H84259   6.545   2.179   2.258  0.9593  0.4848 -2.5191
  611MOL0     H84260   6.528   2.095   2.108 -2.8277 -2.3892 -0.6912
  611MOL0     H84261   6.690   1.990   2.340 -1.8558  1.0791  0.3634
  611MOL0     H84262   6.682   1.920   2.168  1.9891 -1.2752  0.5832
  611MOL0     H84263   6.792   2.202   2.236  0.4122  0.2343 -0.1832
  611MOL0     H84264   6.784   2.118   2.081 -2.2503  0.4639  0.4800
  611MOL0     H84265   6.939   2.031   2.334  1.2117 -0.4035 -0.2962
  611MOL0     H84266   6.978   1.965   2.173 -0.6014 -0.3714 -0.4843
  611MOL0     H84267   7.078   2.140   1.982  0.7251  1.3314 -1.2088
  611MOL0     H84268   7.197   2.506   2.015 -1.6166  0.8400 -3.0901
  611MOL0     H84269   7.127   2.400   1.907  1.5175 -1.8239 -1.7458
  611MOL0     H84270   7.352   2.278   1.898 -2.6261 -1.1072 -0.0659
  611MOL0     H84271   7.387   2.447   1.870 -1.4945  1.1587 -0.1379
  611MOL0     H84272   7.395   2.453   2.139  0.1950 -1.3062  1.7853
  611MOL0     H84273   7.412   2.274   2.130 -2.6085  0.2414  0.9659
  611MOL0     H84274   7.577   2.493   2.010 -0.0694 -0.3772 -2.4352
  611MOL0     H84275   7.642   2.371   2.127 -1.0682  1.3534  1.1382
  611MOL0     H84276   7.836   2.276   2.028 -1.8930 -1.6187 -0.6725
  611MOL0     H84277   8.093   2.227   1.967 -0.1579 -1.6844 -4.2467
  611MOL0     H84278   8.074   2.396   2.024 -1.6166  1.6137 -1.4465
  611MOL0     H84279   8.178   2.352   1.885  1.1713 -3.7208  1.7133
  611MOL0     H84280   8.233   2.399   1.324 -0.6050  0.9343 -0.2644
  611MOL0     H84281   8.428   2.525   1.245 -1.3657  2.4617 -1.4966
  611MOL0     H84282   8.379   2.908   1.205  1.8216 -0.7367 -1.8714
  611MOL0     H84283   8.469   2.958   1.341 -2.7340  0.4753 -0.0163
  611MOL0     H84284   8.598   2.892   1.063  2.1169  0.8477 -0.2404
  611MOL0     H84285   8.557   3.050   1.124  2.3578 -0.0190 -1.4071
  611MOL0     H84286   8.773   2.848   1.229 -0.7436 -0.9674  0.8716
  611MOL0     H84287   8.709   2.976   1.327 -0.4956 -1.9030  0.8013
  611MOL0     H84288   8.763   3.151   1.158  0.6917  0.1831 -1.3734
  611MOL0     H84289   8.789   3.021   1.043  1.3370  1.4204 -0.3904
  611MOL0     H84290   8.941   3.157   1.261 -0.1216  0.3683  0.5011
  611MOL0     H84291   8.966   2.984   1.269 -0.6692 -1.1696 -1.6369
  611MOL0     H84292   9.135   3.106   1.136 -1.2820  1.2439  0.6851
  611MOL0     H84293   9.018   3.144   1.011 -1.0343  0.1050 -0.0669
  611MOL0     H84294   8.963   2.884   1.015 -0.0630 -0.4988  1.1375
  611MOL0     H84295   9.114   2.855   1.078 -1.2802 -1.2293  0.9159
  611MOL0     H84296   9.052   3.000   0.828 -0.9649 -1.2309 -0.2935
  611MOL0     H84297   9.124   2.850   0.831  2.7826 -2.0791  3.5202
  611MOL0     H84298   8.354   2.848   1.494 -0.6853 -0.1151 -0.6670
  611MOL0     H84299   8.144   2.741   1.578 -2.8824 -0.2521 -2.2865
  611MOL0     H84300   7.817   2.451   1.571  0.4162  0.8667  0.7448
  611MOL0     H84301   7.610   2.391   1.702  0.4940  0.9932 -0.8235
  611MOL0     H84302   5.842   1.862   2.196  1.3137 -0.5968  0.5301
  611MOL0     H84303   5.748   1.661   2.098  1.9544 -2.7014 -0.1072
  611MOL0     H84304   5.609   1.449   1.763 -1.2667  0.1862 -1.7604
  611MOL0     H84305   5.463   1.237   1.741 -0.0322 -1.0005 -1.8017
  611MOL0     H84306   5.614   0.904   1.537 -1.5531  0.1326 -0.7921
  611MOL0     H84307   5.650   0.847   1.705  0.6522 -0.2374  0.1912
  611MOL0     H84308   5.419   0.797   1.731  0.9380 -0.2702 -0.1983
  611MOL0     H84309   5.493   0.685   1.611 -1.3675 -1.2717  3.0389
  611MOL0     H84310   5.320   0.923   1.555 -1.1720 -0.8705  0.8564
  611MOL0     H84311   5.397   0.816   1.428 -1.4752  1.1815 -0.4581
  611MOL0     H84312   5.136   0.759   1.489 -0.7542 -3.8735 -0.0852
  611MOL0     H84313   5.189   0.721   1.645 -2.6538 -1.7579 -1.1130
  611MOL0     H84314   5.299   0.404   1.388  0.4242  0.5354 -1.1295
  611MOL0     H84315   5.813   1.004   1.669  2.9461  0.7061  2.5256
  611MOL0     H84316   6.050   1.197   1.800  0.9032 -1.6274 -0.3590
  611MOL0     H84317   6.010   1.075   1.680  0.1820  0.4079 -0.8874
  611MOL0     H84318   6.039   1.243   1.632  1.5891  0.8719  1.9274
  612MOL0     O84319   0.443   2.515   6.738 -0.3517 -0.0464  0.3557
  612MOL0     C84320   0.347   2.568   6.675  0.0256  1.4660  0.5148
  612MOL0     O84321   0.362   2.672   6.594  0.2356  0.2613 -0.9754
  612MOL0     C84322   0.487   2.710   6.553  0.1043  0.5686  0.3074
  612MOL0     C84323   0.583   2.628   6.483 -0.0889 -0.2358 -0.1995
  612MOL0     C84324   0.701   2.691   6.441  0.3419  0.2235  0.6532
  612MOL0     C84325   0.744   2.813   6.495  0.0290 -0.1918  0.1034
  612MOL0     O84326   0.863   2.874   6.473  0.5217  0.2635  0.4966
  612MOL0     C84327   0.898   2.888   6.335 -0.8264  0.2032 -0.1029
  612MOL0     C84328   1.051   2.851   6.322  0.9283 -0.0845  0.7254
  612MOL0     C84329   1.135   2.975   6.350  0.5166 -0.2680 -0.1342
  612MOL0     C84330   1.278   2.944   6.310  0.1813  0.1437 -0.1419
  612MOL0     C84331   1.370   3.064   6.322 -0.3992  0.1500 -0.0189
  612MOL0     C84332   1.522   3.033   6.315 -0.7811 -0.1971 -1.1167
  612MOL0     C84333   1.598   3.153   6.351 -0.6806 -0.2849  0.2304
  612MOL0     C84334   1.751   3.116   6.334 -0.2366  0.6222  0.2591
  612MOL0     N84335   1.835   3.227   6.373  0.2633 -0.6449  0.7864
  612MOL0     C84336   1.833   3.272   6.505  0.3725 -0.2586 -0.7516
  612MOL0     C84337   1.930   3.363   6.508 -0.7036 -0.0203  0.0471
  612MOL0     C84338   1.983   3.442   6.629  0.1388 -0.6743 -0.3423
  612MOL0     C84339   2.130   3.497   6.601  0.0996 -0.1114  0.8531
  612MOL0     C84340   2.175   3.567   6.728 -0.3107  0.0475  0.0679
  612MOL0     C84341   2.315   3.613   6.717 -0.9168  0.0551 -0.0237
  612MOL0     O84342   2.402   3.507   6.681 -0.4146 -0.3463  0.3159
  612MOL0     C84343   2.537   3.523   6.707  0.0929 -0.3038 -0.0692
  612MOL0     C84344   2.620   3.427   6.662  0.2327  0.4127 -0.5598
  612MOL0     C84345   2.760   3.444   6.659 -0.1005  0.2027 -1.2682
  612MOL0     C84346   2.831   3.332   6.588  0.5116  0.3843  0.4030
  612MOL0     C84347   2.822   3.566   6.697 -0.1744 -0.6608 -0.0437
  612MOL0     C84348   2.976   3.595   6.713 -0.1528 -0.5535 -0.5302
  612MOL0     O84349   3.017   3.722   6.741 -0.2334  0.0274 -0.8263
  612MOL0     C84350   3.149   3.762   6.760  0.4268  0.8376 -0.6251
  612MOL0     C84351   3.222   3.720   6.871 -0.1769 -0.2427  0.2238
  612MOL0     C84352   3.341   3.790   6.892 -0.1984  0.3710 -0.4364
  612MOL0     C84353   3.379   3.903   6.826  0.1147 -0.1652  0.6591
  612MOL0     O84354   3.482   3.966   6.876  0.0588 -0.2457 -1.1231
  612MOL0     C84355   3.526   4.099   6.831  0.2908  1.2647  0.7531
  612MOL0     C84356   3.622   4.102   6.715  0.8230 -0.0603 -0.7880
  612MOL0     C84357   3.753   4.043   6.778  0.6967 -0.0306 -0.1205
  612MOL0     C84358   3.873   4.056   6.688  0.0932 -0.3217  0.5040
  612MOL0     C84359   4.000   3.985   6.722 -0.2158  0.0782 -0.8089
  612MOL0     C84360   4.096   3.992   6.602 -0.5138 -0.3098 -0.0651
  612MOL0     C84361   4.230   3.925   6.645 -0.3980 -0.3509 -0.5193
  612MOL0     C84362   4.318   3.882   6.527  0.2728  0.6190  0.1032
  612MOL0    Cl84363   4.323   4.028   6.423 -0.2572  0.0873 -0.5252
  612MOL0     C84364   3.311   3.941   6.710  0.2871 -0.1209  0.3053
  612MOL0     C84365   3.195   3.870   6.683 -0.2454 -0.0862  0.2830
  612MOL0     O84366   3.047   3.499   6.687 -0.1795 -0.2164  0.2228
  612MOL0     C84367   2.736   3.664   6.746 -0.0727 -0.5142 -0.4445
  612MOL0     C84368   2.597   3.641   6.754  0.6993 -0.7159 -0.3215
  612MOL0     N84369   2.001   3.361   6.388 -0.3114  0.3129  0.3577
  612MOL0     N84370   1.943   3.281   6.311 -0.4832 -0.6852  0.5725
  612MOL0     C84371   0.649   2.890   6.565  0.3875 -0.7929 -0.7993
  612MOL0     C84372   0.520   2.837   6.597 -0.4640  0.1629  0.6892
  612MOL0     C84373   0.215   2.515   6.702 -0.2664 -0.0611  0.6318
  612MOL0     C84374   0.147   2.480   6.587  0.7494  0.6570  0.7460
  612MOL0     C84375   0.010   2.415   6.598 -0.1711 -0.5187 -0.0610
  612MOL0     C84376  -0.037   2.389   6.733  0.0141 -0.1545  0.0932
  612MOL0     O84377  -0.160   2.335   6.770 -0.0548  0.0592  0.0313
  612MOL0     C84378  -0.230   2.257   6.666 -0.1182 -0.6528  0.5900
  612MOL0     C84379  -0.171   2.130   6.622 -0.1680 -0.6022  0.5010
  612MOL0     C84380  -0.135   2.046   6.746 -0.5041  0.1142  0.2830
  612MOL0     C84381  -0.247   1.993   6.828 -0.0201  0.4750  0.6263
  612MOL0     C84382  -0.339   1.912   6.751  0.4833  1.0619 -0.1521
  612MOL0     C84383  -0.418   1.843   6.685  0.3756  0.0486  0.9140
  612MOL0     C84384   0.039   2.433   6.840  0.9429  0.4731 -0.9845
  612MOL0     C84385   0.163   2.499   6.827 -0.4311 -0.4435  0.3901
  612MOL0     C84386   0.230   2.544   6.953 -0.3361  0.4196  0.0204
  612MOL0     H84387   0.545   2.527   6.467  0.3966 -0.7313  1.5647
  612MOL0     H84388   0.772   2.630   6.387 -1.4195 -1.4977  0.1640
  612MOL0     H84389   0.887   2.992   6.304 -0.6965  0.7680  1.6451
  612MOL0     H84390   0.831   2.827   6.273  0.8854 -0.2653 -1.5885
  612MOL0     H84391   1.074   2.773   6.395 -0.8732 -1.2276  0.1169
  612MOL0     H84392   1.066   2.812   6.221 -0.0874  0.1804  0.4587
  612MOL0     H84393   1.090   3.055   6.291 -0.7414 -0.9765 -0.1685
  612MOL0     H84394   1.134   3.002   6.457  2.0733 -2.4817  0.5183
  612MOL0     H84395   1.312   2.871   6.383  1.7054  2.0607  1.1490
  612MOL0     H84396   1.270   2.909   6.206  3.2747  2.7776 -1.4402
  612MOL0     H84397   1.357   3.111   6.420  2.2964 -1.9088  1.4640
  612MOL0     H84398   1.337   3.132   6.242 -1.5312 -1.5455 -1.0576
  612MOL0     H84399   1.549   2.953   6.386  0.6289  3.1656  2.5534
  612MOL0     H84400   1.551   2.993   6.218  0.5292 -0.3319 -0.6966
  612MOL0     H84401   1.574   3.190   6.451 -0.4757  0.0627  0.1539
  612MOL0     H84402   1.569   3.236   6.284 -0.3973  0.7915  1.4032
  612MOL0     H84403   1.785   3.034   6.398  2.6828  3.4262  2.6088
  612MOL0     H84404   1.775   3.084   6.232 -0.4211  1.1538  0.0413
  612MOL0     H84405   1.775   3.242   6.592 -0.1833  2.1611 -0.2060
  612MOL0     H84406   1.976   3.380   6.719  0.4425  0.5836  0.5811
  612MOL0     H84407   1.916   3.527   6.646 -1.9238 -1.6951 -2.6605
  612MOL0     H84408   2.195   3.412   6.578 -0.6324 -0.7621  1.1604
  612MOL0     H84409   2.141   3.573   6.524 -0.3574 -1.0312 -0.1377
  612MOL0     H84410   2.124   3.658   6.758  1.0812  1.1701 -0.8111
  612MOL0     H84411   2.181   3.495   6.810 -1.8326 -1.0290 -0.7192
  612MOL0     H84412   2.335   3.688   6.639  0.1192  0.3317  0.4829
  612MOL0     H84413   2.349   3.649   6.815 -3.0157 -0.2638  0.8742
  612MOL0     H84414   2.583   3.339   6.610 -2.9469  1.4322 -0.2840
  612MOL0     H84415   2.777   3.239   6.607 -3.0348  2.5171  1.8005
  612MOL0     H84416   2.936   3.324   6.619  1.6355 -0.0381 -3.1076
  612MOL0     H84417   2.821   3.344   6.480 -0.4088 -0.7371  0.3475
  612MOL0     H84418   3.186   3.636   6.928  1.9597 -1.0561  0.4916
  612MOL0     H84419   3.402   3.767   6.979 -0.5090 -0.0631 -0.3338
  612MOL0     H84420   3.440   4.155   6.794  0.1339 -0.2103 -1.2423
  612MOL0     H84421   3.569   4.157   6.914 -1.6436 -0.2248  2.9166
  612MOL0     H84422   3.589   4.036   6.634 -1.6134 -0.4326  0.4184
  612MOL0     H84423   3.633   4.206   6.684  2.0757  1.0543  2.9116
  612MOL0     H84424   3.739   3.937   6.802 -2.0244  0.3934  0.4042
  612MOL0     H84425   3.783   4.098   6.868  0.2358  1.0944 -0.6430
  612MOL0     H84426   3.895   4.163   6.678 -0.8997  0.0205  1.6318
  612MOL0     H84427   3.847   4.026   6.586 -2.5069  0.1083  0.9693
  612MOL0     H84428   4.044   4.010   6.819 -1.1788 -0.6277 -0.1648
  612MOL0     H84429   3.972   3.880   6.732 -2.5937  0.7876  0.9602
  612MOL0     H84430   4.118   4.096   6.574 -1.7014 -0.3233 -1.1320
  612MOL0     H84431   4.045   3.948   6.516 -0.0138  1.5748 -1.4086
  612MOL0     H84432   4.210   3.837   6.706  2.7549  1.3364  3.3559
  612MOL0     H84433   4.299   3.991   6.698 -2.6614  0.0843  2.0652
  612MOL0     H84434   4.278   3.792   6.478 -2.1766  1.3219  0.6655
  612MOL0     H84435   4.419   3.851   6.556  1.6284  1.7159 -3.0084
  612MOL0     H84436   3.329   4.029   6.648 -2.7690 -0.8647 -1.8311
  612MOL0     H84437   3.123   3.888   6.604 -0.6667 -0.0835  0.6572
  612MOL0     H84438   2.765   3.761   6.785  0.2125 -1.0563  0.7295
  612MOL0     H84439   2.530   3.721   6.784 -0.9040 -1.3168 -2.0564
  612MOL0     H84440   0.687   2.981   6.608  0.3670 -0.2319 -1.9149
  612MOL0     H84441   0.450   2.907   6.643 -1.3128  0.0928 -0.4303
  612MOL0     H84442   0.185   2.500   6.487  0.0436 -1.0450  0.1020
  612MOL0     H84443  -0.043   2.367   6.517  1.1637 -1.4863 -0.4023
  612MOL0     H84444  -0.334   2.248   6.701 -1.5976  0.5812 -2.9479
  612MOL0     H84445  -0.251   2.312   6.574 -1.4821 -2.4566 -0.2618
  612MOL0     H84446  -0.091   2.156   6.552 -0.9765  4.1256  1.0106
  612MOL0     H84447  -0.234   2.062   6.563 -0.0388  0.0765 -0.4379
  612MOL0     H84448  -0.057   1.978   6.712 -0.8593  0.2385 -0.8365
  612MOL0     H84449  -0.082   2.115   6.812 -0.6465 -0.5555  1.1145
  612MOL0     H84450  -0.302   2.077   6.870 -1.9338  0.3842 -1.5551
  612MOL0     H84451  -0.203   1.935   6.910 -1.2614 -0.8138  0.4127
  612MOL0     H84452  -0.478   1.792   6.611  0.5795  1.9654 -0.6581
  612MOL0     H84453  -0.006   2.407   6.935 -0.0262 -1.9123 -2.0080
  612MOL0     H84454   0.307   2.477   6.992 -0.5347 -1.9548 -3.2311
  612MOL0     H84455   0.267   2.646   6.939 -0.7933  0.8491  1.7378
  612MOL0     H84456   0.163   2.549   7.039  1.0773 -0.3305  1.2014
  613MOL0     O84457  10.957  10.471   4.967  0.3270 -0.3066 -0.1964
  613MOL0     C84458  10.953  10.359   4.913 -0.0642 -0.2879 -0.1333
  613MOL0     O84459  11.048  10.258   4.930 -0.3907 -0.8615 -0.2176
  613MOL0     C84460  11.168  10.297   4.984 -0.3977 -0.4045  0.1996
  613MOL0     C84461  11.257  10.387   4.928  0.1817 -1.3261  0.1436
  613MOL0     C84462  11.373  10.425   4.986 -0.6069 -0.1511  0.3878
  613MOL0     C84463  11.406  10.377   5.108 -1.3907 -0.2288  0.2619
  613MOL0     O84464  11.527  10.426   5.163  0.1591  0.3287 -0.9298
  613MOL0     C84465  11.560  10.381   5.303 -0.3691 -0.0592  0.4115
  613MOL0     C84466  11.666  10.467   5.367 -0.2671  0.3653  0.3044
  613MOL0     C84467  11.806  10.454   5.309  0.4688  0.2562 -0.2355
  613MOL0     C84468  11.905  10.366   5.393  1.1307  0.2294 -0.2958
  613MOL0     C84469  12.037  10.335   5.319 -0.9376  0.8222 -0.1785
  613MOL0     C84470  12.123  10.455   5.295  0.4801  0.2228  0.9013
  613MOL0     C84471  12.243  10.441   5.198  0.7359  0.1264  0.7071
  613MOL0     C84472  12.201  10.385   5.063  0.2370 -0.0772  0.0026
  613MOL0     N84473  12.316  10.394   4.975  0.7506 -0.2034  0.3520
  613MOL0     C84474  12.409  10.293   4.969  1.0208 -0.2614 -0.9804
  613MOL0     C84475  12.482  10.313   4.863 -0.8074 -0.3948  0.1738
  613MOL0     C84476  12.572  10.216   4.806 -0.8210 -0.0721  1.1586
  613MOL0     C84477  12.721  10.254   4.792  0.5367  0.1524 -0.6717
  613MOL0     C84478  12.811  10.134   4.771  0.2686 -0.0271 -0.2282
  613MOL0     C84479  12.941  10.179   4.713  0.5955  0.1418 -0.3644
  613MOL0     O84480  12.997  10.281   4.793  0.0635  0.8066  0.1021
  613MOL0     C84481  13.132  10.263   4.825 -0.0095 -0.3355  0.5120
  613MOL0     C84482  13.225  10.366   4.808  1.0809  0.9548  0.3235
  613MOL0     C84483  13.359  10.355   4.823  0.6327 -0.6574  0.1387
  613MOL0     C84484  13.435  10.490   4.813  0.2127 -0.3051 -0.2214
  613MOL0     C84485  13.420  10.229   4.834  0.0185  0.1967 -0.5368
  613MOL0     C84486  13.568  10.204   4.831 -0.0468  0.0766  0.4066
  613MOL0     O84487  13.650  10.304   4.791  0.2338 -0.0714  0.2284
  613MOL0     C84488  13.790  10.278   4.806 -0.2376  0.0670 -0.1317
  613MOL0     C84489  13.850  10.241   4.931  0.5975  0.8467  0.1460
  613MOL0     C84490  13.984  10.235   4.940  0.1219 -0.0452 -0.0693
  613MOL0     C84491  14.063  10.260   4.833 -0.2057 -1.0873  0.3865
  613MOL0     O84492  14.197  10.258   4.859  0.1720  0.1021  0.4168
  613MOL0     C84493  14.266  10.178   4.762  0.4551 -0.1607  1.0605
  613MOL0     C84494  14.403  10.145   4.822  0.1480 -0.6234  0.5549
  613MOL0     C84495  14.452  10.035   4.728  0.8908  0.6036  0.7572
  613MOL0     C84496  14.588   9.975   4.733 -0.2906  0.9790 -0.4031
  613MOL0     C84497  14.700  10.045   4.661  0.3413 -0.2813 -0.5632
  613MOL0     C84498  14.821   9.962   4.700  0.5523 -0.8031  0.3585
  613MOL0     C84499  14.949  10.041   4.676 -0.0303 -1.0943 -0.0423
  613MOL0     C84500  14.986  10.056   4.528 -0.0287  0.2813  0.0368
  613MOL0    Cl84501  15.053   9.898   4.482  0.0271  0.0632 -0.3905
  613MOL0     C84502  14.005  10.300   4.715 -0.5531  0.6638 -0.4231
  613MOL0     C84503  13.868  10.308   4.700  0.1619  0.0470  0.6538
  613MOL0     O84504  13.606  10.092   4.862  0.1968  0.0846  0.4146
  613MOL0     C84505  13.335  10.116   4.854  0.1671 -0.4110  0.9757
  613MOL0     C84506  13.196  10.140   4.856 -0.4493 -0.3019  0.6250
  613MOL0     N84507  12.445  10.431   4.800 -0.0234  0.8120 -0.6017
  613MOL0     N84508  12.342  10.477   4.872 -0.4537  0.4260 -0.8816
  613MOL0     C84509  11.323  10.280   5.170  0.5094  0.4115 -0.0184
  613MOL0     C84510  11.201  10.244   5.115 -0.0588 -0.2440 -0.0147
  613MOL0     C84511  10.829  10.338   4.834 -0.5227 -0.1193 -0.3027
  613MOL0     C84512  10.711  10.312   4.907 -0.2305  0.4319  0.9916
  613MOL0     C84513  10.592  10.296   4.838 -0.9423  0.3560 -0.1212
  613MOL0     C84514  10.581  10.315   4.700  0.0055 -0.7424 -0.5673
  613MOL0     O84515  10.454  10.302   4.647 -0.0886 -0.9127 -0.3996
  613MOL0     C84516  10.423  10.368   4.522 -0.4553  0.1964 -0.4705
  613MOL0     C84517  10.274  10.359   4.478  0.0252  0.4671 -0.2276
  613MOL0     C84518  10.261  10.422   4.335 -0.6104  0.1908 -0.8289
  613MOL0     C84519  10.114  10.443   4.309 -0.7130  0.3288 -0.8508
  613MOL0     C84520  10.098  10.497   4.182  0.6037  0.0220  0.0060
  613MOL0     C84521  10.088  10.557   4.081 -0.6573 -0.1761  0.2334
  613MOL0     C84522  10.702  10.336   4.626  0.7787 -0.0368 -0.2924
  613MOL0     C84523  10.820  10.357   4.694  0.0498  0.8487  0.0562
  613MOL0     C84524  10.944  10.370   4.608 -0.4136 -0.2705 -0.2128
  613MOL0     H84525  11.226  10.422   4.830  2.4371 -0.8588 -0.4772
  613MOL0     H84526  11.444  10.474   4.920 -0.5766 -0.4049  0.2302
  613MOL0     H84527  11.574  10.273   5.297  1.9889  0.2437 -0.4579
  613MOL0     H84528  11.479  10.402   5.373  0.3213  0.5764  1.0341
  613MOL0     H84529  11.637  10.573   5.360  2.8884  1.2537 -1.2158
  613MOL0     H84530  11.662  10.448   5.475  0.5792 -0.7996  0.1415
  613MOL0     H84531  11.796  10.415   5.207  0.6440  1.3056 -0.6689
  613MOL0     H84532  11.848  10.555   5.303  1.2128  0.0033  0.4925
  613MOL0     H84533  11.934  10.415   5.487  0.1601 -1.4418  0.9285
  613MOL0     H84534  11.846  10.282   5.430  0.1135  0.9984 -0.1286
  613MOL0     H84535  12.007  10.295   5.221  1.5273  0.0999 -0.7065
  613MOL0     H84536  12.101  10.265   5.373 -2.0986 -2.4588 -2.6821
  613MOL0     H84537  12.072  10.543   5.256 -0.3982 -0.0192  1.4747
  613MOL0     H84538  12.173  10.485   5.389 -0.1046 -0.9709  1.6085
  613MOL0     H84539  12.319  10.370   5.232  0.2898 -1.7109 -1.8634
  613MOL0     H84540  12.293  10.538   5.188  1.7789 -0.2844  1.7005
  613MOL0     H84541  12.158  10.285   5.069  2.5280 -1.2714 -1.9809
  613MOL0     H84542  12.119  10.446   5.023 -0.3137 -1.8908 -1.8555
  613MOL0     H84543  12.392  10.199   5.021 -4.5605 -0.4788 -2.5782
  613MOL0     H84544  12.540  10.221   4.702  2.3921 -0.3460  0.0653
  613MOL0     H84545  12.562  10.114   4.847 -0.7084 -1.1422 -1.3359
  613MOL0     H84546  12.724  10.320   4.705 -1.9351 -1.4049 -2.0856
  613MOL0     H84547  12.759  10.312   4.876  1.9025 -1.3943 -0.1594
  613MOL0     H84548  12.832  10.072   4.858  1.9797  0.9650  0.0990
  613MOL0     H84549  12.771  10.066   4.694 -1.2379 -0.1231  0.5859
  613MOL0     H84550  12.997  10.085   4.709 -1.4408 -1.1684  0.0115
  613MOL0     H84551  12.933  10.218   4.612  1.6773  0.3439 -0.3825
  613MOL0     H84552  13.171  10.454   4.776  0.1292 -0.9088 -3.9118
  613MOL0     H84553  13.537  10.484   4.852  0.5722 -1.3893 -1.2869
  613MOL0     H84554  13.378  10.570   4.861 -0.4406 -0.7513 -0.2423
  613MOL0     H84555  13.452  10.516   4.708 -1.4221 -2.3984 -1.0723
  613MOL0     H84556  13.778  10.219   5.008  0.9162  2.1785  0.8518
  613MOL0     H84557  14.023  10.192   5.032 -1.4067 -0.5764  0.3561
  613MOL0     H84558  14.209  10.088   4.735 -2.2007  0.8594  2.7544
  613MOL0     H84559  14.277  10.247   4.678  2.8004 -2.7841 -0.9372
  613MOL0     H84560  14.475  10.227   4.820 -0.4277 -0.1149 -1.3626
  613MOL0     H84561  14.390  10.097   4.919  2.9722 -1.2846  0.7038
  613MOL0     H84562  14.430  10.068   4.626 -0.5892  0.0338  0.8659
  613MOL0     H84563  14.388   9.949   4.751  3.0183 -1.8252 -1.6516
  613MOL0     H84564  14.590   9.877   4.685  0.8456  0.0586  1.4025
  613MOL0     H84565  14.620   9.970   4.838  1.0934 -1.2021 -0.8935
  613MOL0     H84566  14.689  10.037   4.552  0.2240 -1.0372 -0.4999
  613MOL0     H84567  14.698  10.145   4.703 -0.0327 -0.6106  0.2211
  613MOL0     H84568  14.826   9.872   4.638 -0.8367 -0.7203  0.0771
  613MOL0     H84569  14.818   9.932   4.805 -2.8865  0.1174  0.6458
  613MOL0     H84570  15.040  10.006   4.725  1.7896  1.8862 -0.9873
  613MOL0     H84571  14.939  10.139   4.724 -1.2590 -1.1370 -0.2016
  613MOL0     H84572  15.058  10.138   4.519 -0.1485  0.6141  1.8568
  613MOL0     H84573  14.890  10.077   4.480 -0.5197 -2.4507 -0.3421
  613MOL0     H84574  14.074  10.323   4.635  0.4518 -2.8805 -0.7500
  613MOL0     H84575  13.828  10.323   4.600  0.2894 -1.7640  0.2958
  613MOL0     H84576  13.370  10.014   4.862  2.7542  0.2345 -1.0143
  613MOL0     H84577  13.133  10.054   4.876  1.2421 -1.2787  2.0851
  613MOL0     H84578  11.349  10.239   5.267  3.1985 -1.7671 -1.5132
  613MOL0     H84579  11.123  10.183   5.158 -0.2623 -0.0043 -0.0412
  613MOL0     H84580  10.724  10.306   5.015  2.5158  1.0817  0.7802
  613MOL0     H84581  10.506  10.288   4.903 -1.8550 -0.1185 -1.3485
  613MOL0     H84582  10.459  10.471   4.523 -0.5192  0.2690  2.0574
  613MOL0     H84583  10.477  10.312   4.445 -1.6466  0.9590 -1.9086
  613MOL0     H84584  10.209  10.405   4.553  0.5639 -0.3913  0.8028
  613MOL0     H84585  10.244  10.254   4.466 -1.4694  0.9085 -0.4489
  613MOL0     H84586  10.309  10.520   4.341  2.3453 -1.1950  3.2291
  613MOL0     H84587  10.308  10.372   4.249 -1.7535  2.2991 -2.7735
  613MOL0     H84588  10.072  10.514   4.381 -3.8183 -2.3577  0.2720
  613MOL0     H84589  10.058  10.349   4.318  0.4430 -0.5805 -2.5831
  613MOL0     H84590  10.063  10.608   3.990  0.0412 -1.2788 -0.6087
  613MOL0     H84591  10.689  10.313   4.521 -0.6255  0.0378 -0.1515
  613MOL0     H84592  10.981  10.473   4.609 -1.8925  0.2760 -0.3128
  613MOL0     H84593  11.029  10.310   4.641  1.2608 -0.2764 -3.9665
  613MOL0     H84594  10.928  10.338   4.504 -0.4500  0.7158 -0.5223
  614MOL0     O84595   7.212   6.780   3.510 -0.2038 -0.6741  0.2378
  614MOL0     C84596   7.225   6.816   3.395 -0.0989  0.2838 -0.1677
  614MOL0     O84597   7.345   6.845   3.343  0.3021  0.0409 -0.7593
  614MOL0     C84598   7.442   6.755   3.368 -0.2808 -0.5182  0.0902
  614MOL0     C84599   7.428   6.617   3.383  0.1027  0.4336  0.8443
  614MOL0     C84600   7.530   6.531   3.406 -0.1427 -0.4759 -0.0328
  614MOL0     C84601   7.661   6.582   3.421 -0.5820 -0.7552 -0.6920
  614MOL0     O84602   7.778   6.507   3.436 -0.1300 -0.4574  0.8028
  614MOL0     C84603   7.778   6.410   3.542  0.9272 -0.4895 -0.2339
  614MOL0     C84604   7.913   6.353   3.565 -0.1984 -0.4016  0.1239
  614MOL0     C84605   8.014   6.461   3.600  0.3947  0.2146 -0.6612
  614MOL0     C84606   8.108   6.393   3.702 -0.1225 -0.0560  0.1189
  614MOL0     C84607   8.248   6.473   3.712 -0.2860 -0.3218 -0.4843
  614MOL0     C84608   8.338   6.495   3.587 -0.1411  0.7958  0.7286
  614MOL0     C84609   8.380   6.357   3.520 -1.1087 -0.1432 -0.4764
  614MOL0     C84610   8.482   6.284   3.615  0.6402  0.0744 -0.4367
  614MOL0     N84611   8.618   6.340   3.619 -0.2200  0.6658  0.2223
  614MOL0     C84612   8.708   6.334   3.516  0.1068 -0.0671 -1.1800
  614MOL0     C84613   8.820   6.401   3.549  0.3779 -1.1924 -0.1367
  614MOL0     C84614   8.926   6.435   3.450 -0.3822  0.0933  0.8245
  614MOL0     C84615   9.057   6.371   3.483  0.4979 -0.7755 -0.7660
  614MOL0     C84616   9.143   6.458   3.578  0.1947 -0.7669  0.6884
  614MOL0     C84617   9.297   6.455   3.568 -0.0265  0.7766  0.7209
  614MOL0     O84618   9.346   6.538   3.454 -0.2010 -0.3511 -0.1439
  614MOL0     C84619   9.482   6.556   3.442 -0.2079 -0.4235  0.1784
  614MOL0     C84620   9.579   6.479   3.502  0.3300  0.3385 -0.5214
  614MOL0     C84621   9.714   6.498   3.470 -0.2342 -1.2946 -0.7827
  614MOL0     C84622   9.805   6.382   3.503 -0.3434  0.3585  0.3972
  614MOL0     C84623   9.755   6.614   3.409 -0.3429  0.3044 -0.2807
  614MOL0     C84624   9.897   6.664   3.393 -0.6968  0.3106  0.9334
  614MOL0     O84625   9.936   6.790   3.347 -0.4448  0.0334  0.1366
  614MOL0     C84626  10.073   6.827   3.348  0.3680  0.7369  0.8346
  614MOL0     C84627  10.164   6.770   3.260 -0.2429 -0.0165  0.1645
  614MOL0     C84628  10.302   6.794   3.268  1.1907  0.2159  0.1418
  614MOL0     C84629  10.362   6.865   3.377 -0.6055 -0.4797  1.1848
  614MOL0     O84630  10.501   6.887   3.378 -0.1986 -0.2626  0.1821
  614MOL0     C84631  10.557   6.780   3.458  0.1740 -0.4124 -0.4839
  614MOL0     C84632  10.591   6.645   3.385  0.6718 -0.7837  0.9230
  614MOL0     C84633  10.673   6.552   3.471 -0.3250 -0.1681  0.5478
  614MOL0     C84634  10.690   6.417   3.399 -0.9537  0.2092  0.2741
  614MOL0     C84635  10.790   6.331   3.485  0.0426  0.0514  0.4408
  614MOL0     C84636  10.796   6.192   3.421 -1.0404  1.1426  0.1159
  614MOL0     C84637  10.881   6.208   3.300  0.9978  0.3027 -0.5782
  614MOL0     C84638  10.941   6.075   3.261  0.4577 -0.0311  0.0180
  614MOL0    Cl84639  10.824   5.956   3.217 -0.2728 -0.1078  0.0673
  614MOL0     C84640  10.279   6.919   3.468 -0.7012 -0.2185 -0.1539
  614MOL0     C84641  10.137   6.896   3.455  0.0043 -0.4267 -0.8338
  614MOL0     O84642   9.981   6.574   3.405  0.6233 -0.1286  0.0214
  614MOL0     C84643   9.658   6.701   3.351  0.3822  0.5433 -1.3377
  614MOL0     C84644   9.519   6.671   3.365  0.4800 -0.7399  0.6990
  614MOL0     N84645   8.802   6.443   3.679 -0.1547  0.5255  0.8253
  614MOL0     N84646   8.682   6.411   3.715  0.3522 -0.2793 -0.0634
  614MOL0     C84647   7.675   6.723   3.414 -0.4308  0.9045  0.3329
  614MOL0     C84648   7.569   6.810   3.386  0.3836  0.6059 -0.7321
  614MOL0     C84649   7.096   6.854   3.317  0.3180  0.0729 -0.8135
  614MOL0     C84650   7.107   6.907   3.182 -0.2286  0.5553  0.5921
  614MOL0     C84651   7.005   6.936   3.099  0.2040  0.3374 -0.2047
  614MOL0     C84652   6.879   6.939   3.157 -0.0836 -0.7279  0.4650
  614MOL0     O84653   6.781   6.986   3.086  0.2839 -0.8242 -0.4598
  614MOL0     C84654   6.795   7.125   3.054 -0.5586 -0.6167 -0.7353
  614MOL0     C84655   6.703   7.178   2.933  0.6423  0.0137 -0.1050
  614MOL0     C84656   6.550   7.153   2.962 -0.0168  0.5626  0.4277
  614MOL0     C84657   6.460   7.229   2.861 -0.4806 -0.1906  0.5825
  614MOL0     C84658   6.455   7.372   2.901  0.0218 -0.1742  0.3645
  614MOL0     C84659   6.465   7.487   2.949 -0.1491 -0.0296 -0.5007
  614MOL0     C84660   6.848   6.869   3.275  0.2416 -0.6846  0.8913
  614MOL0     C84661   6.961   6.831   3.356 -0.4537  0.1512  0.2300
  614MOL0     C84662   6.928   6.762   3.481 -0.3578  0.0450 -0.6091
  614MOL0     H84663   7.330   6.573   3.372  0.1280 -0.8166  4.2857
  614MOL0     H84664   7.505   6.426   3.417  0.0562 -0.4815  0.4248
  614MOL0     H84665   7.722   6.319   3.516  3.2046 -1.9893 -0.2565
  614MOL0     H84666   7.741   6.456   3.634 -1.8338 -1.6925 -0.6503
  614MOL0     H84667   7.907   6.275   3.642  0.8603 -0.8007 -0.1691
  614MOL0     H84668   7.953   6.306   3.475  0.2600  1.5159 -0.7115
  614MOL0     H84669   8.066   6.493   3.509  0.8232  3.7836  0.6517
  614MOL0     H84670   7.960   6.547   3.642  1.2050  0.9991 -1.1797
  614MOL0     H84671   8.066   6.373   3.801 -1.2036  2.3599  0.2212
  614MOL0     H84672   8.130   6.289   3.676  1.6366  0.7058 -1.6111
  614MOL0     H84673   8.311   6.421   3.785  1.8505 -1.7671 -3.1728
  614MOL0     H84674   8.216   6.573   3.740 -2.5628 -1.1406  0.0671
  614MOL0     H84675   8.284   6.553   3.511 -0.4802 -1.0584 -0.5209
  614MOL0     H84676   8.430   6.551   3.603  0.8156 -0.9144  1.4613
  614MOL0     H84677   8.415   6.369   3.417  0.7580  0.2078  0.1426
  614MOL0     H84678   8.301   6.282   3.514  2.1388 -4.0148  0.5358
  614MOL0     H84679   8.452   6.283   3.720  0.8529  1.8947 -0.3303
  614MOL0     H84680   8.493   6.181   3.580  0.1391 -0.5891  1.2810
  614MOL0     H84681   8.682   6.291   3.420  0.1995  2.0150 -2.1922
  614MOL0     H84682   8.931   6.544   3.444 -1.9718  0.1781  0.6750
  614MOL0     H84683   8.905   6.405   3.347  1.5016  0.6085  0.2449
  614MOL0     H84684   9.050   6.279   3.542  2.3066  0.3819  1.3793
  614MOL0     H84685   9.123   6.356   3.397 -0.3257  1.8897 -1.9735
  614MOL0     H84686   9.106   6.561   3.575  1.7589 -0.1811  0.3837
  614MOL0     H84687   9.129   6.431   3.683  1.6112  2.9498  1.9713
  614MOL0     H84688   9.339   6.507   3.654 -0.1204  3.3021 -0.6535
  614MOL0     H84689   9.331   6.351   3.570 -2.1587  0.0497  1.9945
  614MOL0     H84690   9.546   6.398   3.566  0.0022 -0.9246 -2.2046
  614MOL0     H84691   9.863   6.352   3.416 -0.5143 -0.4943  0.5698
  614MOL0     H84692   9.757   6.287   3.529  0.9588 -0.1557  1.0517
  614MOL0     H84693   9.881   6.405   3.579  1.1950  0.9397 -1.2521
  614MOL0     H84694  10.120   6.716   3.176 -2.0633  4.9470 -2.5078
  614MOL0     H84695  10.371   6.740   3.205  1.2866 -1.3452  1.5051
  614MOL0     H84696  10.647   6.832   3.492 -0.4813  1.9965 -2.1752
  614MOL0     H84697  10.506   6.763   3.553 -0.5742 -1.8542 -1.1103
  614MOL0     H84698  10.492   6.603   3.361 -0.1967  1.6418 -0.0654
  614MOL0     H84699  10.636   6.675   3.290 -1.5020 -4.5925 -1.5871
  614MOL0     H84700  10.654   6.548   3.579 -0.8694  0.3249  0.4765
  614MOL0     H84701  10.773   6.595   3.464  0.2745 -1.2229  2.1319
  614MOL0     H84702  10.719   6.433   3.295  1.8093  2.0849  1.2449
  614MOL0     H84703  10.594   6.364   3.408 -1.2154  0.8401  1.2377
  614MOL0     H84704  10.887   6.380   3.498 -0.6272  1.2862  0.9972
  614MOL0     H84705  10.753   6.314   3.586 -1.3360 -2.5090 -0.4102
  614MOL0     H84706  10.702   6.140   3.400 -1.3948  2.5350 -1.9754
  614MOL0     H84707  10.853   6.124   3.486 -0.0250  0.7608 -1.1248
  614MOL0     H84708  10.962   6.281   3.312  0.7619  0.7567 -1.6396
  614MOL0     H84709  10.813   6.244   3.223  0.1332  1.0794  0.5095
  614MOL0     H84710  11.007   6.038   3.340  2.4054 -0.1277 -1.5700
  614MOL0     H84711  11.012   6.093   3.180  0.7965  0.3886  0.3993
  614MOL0     H84712  10.307   6.982   3.552  2.9042  1.2489 -2.1988
  614MOL0     H84713  10.067   6.932   3.530  0.4466 -0.7143 -0.2820
  614MOL0     H84714   9.688   6.792   3.299 -0.8751 -0.4419 -3.9423
  614MOL0     H84715   9.437   6.731   3.325  0.9874 -0.0373  0.7028
  614MOL0     H84716   7.777   6.759   3.423  0.8896 -2.4017 -0.2833
  614MOL0     H84717   7.598   6.914   3.379 -1.4854  1.0976 -2.1048
  614MOL0     H84718   7.205   6.928   3.141  0.2361 -0.7095  1.0207
  614MOL0     H84719   7.044   6.978   3.006  0.6391  1.6080  0.5236
  614MOL0     H84720   6.777   7.170   3.152 -1.0697 -3.2769  0.4708
  614MOL0     H84721   6.897   7.148   3.022 -0.8324  1.2516 -0.3717
  614MOL0     H84722   6.737   7.122   2.845 -0.8931 -2.9726  1.0444
  614MOL0     H84723   6.721   7.286   2.925  0.5953  0.3734  3.2812
  614MOL0     H84724   6.526   7.046   2.961 -0.0948  0.5787  0.5727
  614MOL0     H84725   6.525   7.189   3.062  0.9189  0.2996  0.7723
  614MOL0     H84726   6.362   7.181   2.861 -1.0598  0.8715 -1.3323
  614MOL0     H84727   6.505   7.224   2.761 -1.3735  0.3640  0.1445
  614MOL0     H84728   6.463   7.586   2.988 -0.2653  0.1723 -1.0186
  614MOL0     H84729   6.745   6.869   3.308 -0.3187 -0.3338 -0.7501
  614MOL0     H84730   7.003   6.690   3.516 -0.3784  0.6010  0.6314
  614MOL0     H84731   6.917   6.840   3.557  1.7877 -2.3208  2.4142
  614MOL0     H84732   6.829   6.716   3.482 -0.2842 -0.1167 -0.6222
  615MOL0     O84733   6.034   5.223   3.233 -0.4966  0.0822  0.5345
  615MOL0     C84734   6.035   5.347   3.231 -0.3164 -0.2091  0.6061
  615MOL0     O84735   6.144   5.422   3.226 -0.0695  0.0846  0.2868
  615MOL0     C84736   6.266   5.356   3.232  0.8249 -0.3266  0.5667
  615MOL0     C84737   6.322   5.305   3.110  0.4820 -0.4069 -0.7882
  615MOL0     C84738   6.442   5.228   3.120 -0.3506 -0.6627 -0.5684
  615MOL0     C84739   6.504   5.200   3.242  0.3134  0.7686 -0.4874
  615MOL0     O84740   6.623   5.124   3.255  0.3083 -0.5423 -0.5077
  615MOL0     C84741   6.646   5.032   3.148  0.2797  0.0043 -0.1344
  615MOL0     C84742   6.746   4.932   3.195 -0.0362 -0.0793 -0.4468
  615MOL0     C84743   6.699   4.839   3.317  0.3801 -0.9136 -0.5868
  615MOL0     C84744   6.820   4.750   3.360  0.5354  0.6085 -0.4493
  615MOL0     C84745   6.785   4.625   3.452  0.5561 -0.5466 -0.5407
  615MOL0     C84746   6.898   4.525   3.485  0.7137  0.5372  0.0842
  615MOL0     C84747   6.835   4.420   3.578 -0.7284  0.6691 -0.3265
  615MOL0     C84748   6.890   4.447   3.720  1.6200 -0.1212  0.0224
  615MOL0     N84749   6.839   4.340   3.809 -0.5598 -0.2451 -1.1254
  615MOL0     C84750   6.907   4.219   3.824  0.2536 -0.3496  1.0125
  615MOL0     C84751   6.858   4.179   3.945  0.3982  0.0284  0.1132
  615MOL0     C84752   6.921   4.061   4.023 -0.0527  0.4660  0.4557
  615MOL0     C84753   6.811   4.009   4.124  0.2950 -0.2389  0.5346
  615MOL0     C84754   6.877   3.912   4.222 -0.7403 -0.0765 -0.2546
  615MOL0     C84755   6.904   3.963   4.363  0.3588  0.7550 -0.3056
  615MOL0     O84756   7.021   4.050   4.354  0.8262 -0.0208 -0.1987
  615MOL0     C84757   7.084   4.068   4.474 -0.1343 -0.4635  0.0581
  615MOL0     C84758   7.026   4.065   4.605 -0.2549 -0.8508 -0.5118
  615MOL0     C84759   7.104   4.097   4.713  0.1842  0.6221  0.0154
  615MOL0     C84760   7.034   4.103   4.846 -0.5000 -0.1547 -0.4296
  615MOL0     C84761   7.239   4.138   4.704  0.2781 -0.9244  0.3052
  615MOL0     C84762   7.327   4.160   4.824 -0.1527 -0.3001 -0.0810
  615MOL0     O84763   7.307   4.089   4.941 -0.3638  0.4282 -0.9745
  615MOL0     C84764   7.394   4.122   5.038 -0.3006  0.4334 -0.4330
  615MOL0     C84765   7.376   4.218   5.139  0.7765  0.6998  0.9708
  615MOL0     C84766   7.458   4.222   5.247  0.1318  0.0186 -0.0421
  615MOL0     C84767   7.555   4.123   5.265  0.0951 -0.2265 -0.1695
  615MOL0     O84768   7.625   4.120   5.384 -0.2598  0.2825  0.2811
  615MOL0     C84769   7.718   4.016   5.405 -0.4638 -0.3024  0.8091
  615MOL0     C84770   7.767   4.013   5.545  0.2842 -0.9763  0.4394
  615MOL0     C84771   7.868   3.903   5.571 -0.5477  0.2237  0.2246
  615MOL0     C84772   8.017   3.925   5.528  0.2560  0.3351 -0.1760
  615MOL0     C84773   8.083   3.787   5.539  0.3906 -1.2581  0.0857
  615MOL0     C84774   8.233   3.811   5.508  0.9844 -0.3920 -0.4115
  615MOL0     C84775   8.331   3.698   5.526 -0.3094  0.0579 -0.4088
  615MOL0     C84776   8.302   3.566   5.454  0.5838 -0.1947 -0.1516
  615MOL0    Cl84777   8.330   3.599   5.274 -0.1006 -0.2487 -0.7329
  615MOL0     C84778   7.591   4.037   5.157 -0.3671  0.6229  0.6712
  615MOL0     C84779   7.509   4.037   5.044  0.7276 -0.6890 -0.0293
  615MOL0     O84780   7.422   4.237   4.802 -0.3896  0.5516  0.0123
  615MOL0     C84781   7.290   4.123   4.578  0.9662 -1.1038  0.0286
  615MOL0     C84782   7.216   4.099   4.461 -0.3177 -0.4494 -0.7124
  615MOL0     N84783   6.773   4.277   3.994 -0.1624  1.0088  0.0983
  615MOL0     N84784   6.753   4.369   3.910  0.6196  0.4554  1.2485
  615MOL0     C84785   6.441   5.252   3.356 -1.0270  0.0485  0.6861
  615MOL0     C84786   6.332   5.341   3.350 -0.3814  0.3841  0.3333
  615MOL0     C84787   5.901   5.415   3.215 -0.6150  0.3449 -1.4542
  615MOL0     C84788   5.782   5.339   3.202 -0.5956 -0.2644  0.9441
  615MOL0     C84789   5.660   5.397   3.181  0.1529 -0.4602 -0.8021
  615MOL0     C84790   5.651   5.536   3.166  0.3146 -0.3397 -0.3731
  615MOL0     O84791   5.528   5.606   3.155  0.2542 -0.1900  0.7039
  615MOL0     C84792   5.412   5.536   3.101 -0.7087 -0.9864 -0.2963
  615MOL0     C84793   5.435   5.501   2.950  0.2417 -0.0360  0.5411
  615MOL0     C84794   5.387   5.618   2.850 -0.8201 -0.2203 -0.1574
  615MOL0     C84795   5.242   5.603   2.829  0.1092  0.1005  1.4114
  615MOL0     C84796   5.175   5.711   2.746 -0.1383 -0.3334  1.1284
  615MOL0     C84797   5.110   5.799   2.701  0.4921  0.0536 -0.7465
  615MOL0     C84798   5.766   5.618   3.164 -0.0913 -0.0170  0.3121
  615MOL0     C84799   5.896   5.561   3.201  0.8884 -0.1442 -0.1572
  615MOL0     C84800   6.009   5.665   3.234 -1.2020 -0.6176  0.1611
  615MOL0     H84801   6.267   5.322   3.018  0.6291  1.6399 -0.5360
  615MOL0     H84802   6.485   5.184   3.030  0.6638  0.0770 -0.4601
  615MOL0     H84803   6.684   5.077   3.056 -1.3495  0.6469 -0.5280
  615MOL0     H84804   6.554   4.984   3.113  0.0539 -0.2225  0.7597
  615MOL0     H84805   6.772   4.868   3.111  1.8881  0.1377 -0.0685
  615MOL0     H84806   6.838   4.977   3.233 -0.6343 -0.0213  0.9976
  615MOL0     H84807   6.659   4.904   3.396  0.2780  0.0776 -1.4361
  615MOL0     H84808   6.623   4.768   3.283  1.2588 -2.8069  1.2131
  615MOL0     H84809   6.878   4.728   3.270 -1.0627  0.7353 -1.5514
  615MOL0     H84810   6.884   4.812   3.424  1.1626  2.0116 -2.3493
  615MOL0     H84811   6.693   4.586   3.407  0.0382 -1.6837  1.4062
  615MOL0     H84812   6.754   4.667   3.548  1.1847  1.0587 -0.9960
  615MOL0     H84813   6.931   4.465   3.400 -0.6028  0.1685 -0.1942
  615MOL0     H84814   6.980   4.573   3.540  0.3597 -0.3217  1.4074
  615MOL0     H84815   6.875   4.321   3.557  1.0374  1.3488 -0.3274
  615MOL0     H84816   6.726   4.417   3.575 -0.7547  0.6612  0.3722
  615MOL0     H84817   6.998   4.447   3.710  1.5843  2.1893 -0.7708
  615MOL0     H84818   6.852   4.538   3.767  1.5752 -0.8697  1.5155
  615MOL0     H84819   6.986   4.176   3.764  0.0716  2.1433 -1.2001
  615MOL0     H84820   7.006   4.107   4.074  1.7016 -0.0724 -1.8070
  615MOL0     H84821   6.966   3.987   3.957  1.9544  2.3319 -0.3973
  615MOL0     H84822   6.767   4.091   4.182 -2.1064  0.8405 -2.5278
  615MOL0     H84823   6.731   3.966   4.063  1.7580 -0.3844 -1.3929
  615MOL0     H84824   6.805   3.831   4.236 -1.2542  0.5200  0.6479
  615MOL0     H84825   6.973   3.871   4.188  0.5487  1.4739  1.3038
  615MOL0     H84826   6.824   4.019   4.412  0.9432 -1.4017  3.5042
  615MOL0     H84827   6.926   3.873   4.422 -0.7623  0.1818 -0.7287
  615MOL0     H84828   6.924   4.043   4.633  0.5377  0.3097  4.0569
  615MOL0     H84829   7.007   4.000   4.872  1.6511 -1.6259 -3.4327
  615MOL0     H84830   6.937   4.153   4.842 -0.9377 -0.7688  1.2658
  615MOL0     H84831   7.093   4.132   4.933  0.7227 -0.3699 -1.1584
  615MOL0     H84832   7.288   4.282   5.132  0.7969  0.6906  0.6544
  615MOL0     H84833   7.435   4.300   5.319 -2.6890 -0.0237 -0.8092
  615MOL0     H84834   7.674   3.920   5.376 -1.3354  0.5320 -0.7523
  615MOL0     H84835   7.806   4.041   5.345  0.8626 -2.3177  1.7979
  615MOL0     H84836   7.815   4.110   5.558 -1.1886  0.0122 -1.0272
  615MOL0     H84837   7.683   4.016   5.615 -1.1804  1.0368 -1.2967
  615MOL0     H84838   7.838   3.806   5.530  1.7555 -0.3073 -0.3242
  615MOL0     H84839   7.856   3.887   5.678 -2.1022 -0.7734 -0.0573
  615MOL0     H84840   8.056   4.008   5.587 -0.3665  1.2583 -1.0380
  615MOL0     H84841   8.027   3.964   5.427 -1.5871  3.2026  0.6381
  615MOL0     H84842   8.068   3.761   5.644  1.3213 -1.3812  0.1938
  615MOL0     H84843   8.046   3.705   5.477  2.5002 -2.5809  0.4685
  615MOL0     H84844   8.271   3.894   5.569 -1.1881  0.9672 -0.8005
  615MOL0     H84845   8.247   3.846   5.406 -1.5365  2.4197  0.0620
  615MOL0     H84846   8.353   3.675   5.630 -1.6373  3.0733  0.6424
  615MOL0     H84847   8.427   3.732   5.486 -0.4814  0.8134 -0.1897
  615MOL0     H84848   8.197   3.542   5.474  0.4035  0.9305  0.2979
  615MOL0     H84849   8.373   3.485   5.474  2.1122  1.2351  0.4199
  615MOL0     H84850   7.674   3.968   5.168  0.8604  2.3552  3.3992
  615MOL0     H84851   7.519   3.972   4.958  2.5766  0.0044 -0.3847
  615MOL0     H84852   7.395   4.150   4.566  0.7076  0.4023  0.8585
  615MOL0     H84853   7.266   4.093   4.365  1.2972 -2.9175  0.1920
  615MOL0     H84854   6.488   5.241   3.454  0.6112  0.6340  0.0027
  615MOL0     H84855   6.287   5.393   3.434  0.7359  2.6746 -0.4202
  615MOL0     H84856   5.779   5.231   3.208  0.4372 -0.4942 -1.6657
  615MOL0     H84857   5.570   5.336   3.192  0.0944 -0.0058  1.8306
  615MOL0     H84858   5.400   5.440   3.152  1.6009 -1.7405 -1.0641
  615MOL0     H84859   5.325   5.600   3.121  0.1083  0.2311 -0.5639
  615MOL0     H84860   5.379   5.411   2.920 -0.9856  1.3507 -1.6512
  615MOL0     H84861   5.541   5.487   2.926  0.4146 -0.3284  1.4493
  615MOL0     H84862   5.411   5.717   2.890 -0.1558 -0.2681 -0.4111
  615MOL0     H84863   5.444   5.617   2.756  0.1781  1.2427  0.3891
  615MOL0     H84864   5.199   5.596   2.929  0.0184  1.2397  1.4711
  615MOL0     H84865   5.230   5.510   2.772 -1.9695  0.6887  0.7643
  615MOL0     H84866   5.042   5.876   2.667  0.3168 -0.4599 -1.5978
  615MOL0     H84867   5.761   5.724   3.140 -0.2169 -0.3387 -1.2201
  615MOL0     H84868   6.082   5.673   3.153 -0.1204  0.8315  1.2216
  615MOL0     H84869   5.957   5.761   3.241 -1.9723 -1.0102 -0.0694
  615MOL0     H84870   6.061   5.658   3.329 -1.4114 -1.2331  0.2342
  616MOL0     O84871   6.710   4.451   6.165  0.0602 -0.2623  0.0270
  616MOL0     C84872   6.589   4.457   6.186  0.2403 -0.3880 -0.0261
  616MOL0     O84873   6.519   4.406   6.293  0.2451  0.2885 -0.0981
  616MOL0     C84874   6.598   4.331   6.381  0.3555 -0.0957  0.7195
  616MOL0     C84875   6.650   4.386   6.499  0.0335  0.0410  0.3996
  616MOL0     C84876   6.724   4.315   6.596  0.2575  0.9004 -1.4078
  616MOL0     C84877   6.758   4.183   6.571  0.1160  0.8659  0.2119
  616MOL0     O84878   6.839   4.122   6.657 -0.0786  0.2029  0.0065
  616MOL0     C84879   6.873   3.979   6.648  0.7831  0.2034  0.3665
  616MOL0     C84880   7.013   3.963   6.708 -1.0165  0.8488 -0.5093
  616MOL0     C84881   7.008   4.027   6.852 -0.3497  0.8937  0.5359
  616MOL0     C84882   7.106   3.942   6.944 -0.1984 -0.5693 -0.4783
  616MOL0     C84883   7.253   3.967   6.909 -0.4576 -0.4054  0.4408
  616MOL0     C84884   7.350   3.857   6.956 -0.6744  0.7350  0.0837
  616MOL0     C84885   7.497   3.895   6.933  0.0399  0.0020  0.4981
  616MOL0     C84886   7.601   3.778   6.969  0.0125  0.6479 -0.2029
  616MOL0     N84887   7.745   3.808   6.967  0.5204  0.0782  0.2787
  616MOL0     C84888   7.821   3.831   7.081  0.1671  0.6721  0.3655
  616MOL0     C84889   7.950   3.837   7.035 -0.3026  0.3610 -1.0114
  616MOL0     C84890   8.059   3.839   7.140 -1.0490  0.1649  0.1521
  616MOL0     C84891   8.174   3.939   7.083  0.0570 -0.0666  0.7575
  616MOL0     C84892   8.140   4.082   7.129 -0.8913 -0.7907  1.0086
  616MOL0     C84893   8.028   4.151   7.059  0.8436 -0.5880  0.2130
  616MOL0     O84894   8.011   4.291   7.093 -0.8999  0.5716  0.2457
  616MOL0     C84895   7.908   4.351   7.030  1.0786  0.0214  0.7817
  616MOL0     C84896   7.790   4.277   6.979  0.4586  1.1837  0.1158
  616MOL0     C84897   7.678   4.349   6.933 -0.4869  0.9997 -0.0836
  616MOL0     C84898   7.579   4.265   6.865  1.3274 -0.8662 -1.1756
  616MOL0     C84899   7.665   4.490   6.942  0.1001 -0.0912 -0.7715
  616MOL0     C84900   7.548   4.570   6.897 -0.0987 -0.8872 -0.6798
  616MOL0     O84901   7.566   4.712   6.906  0.1271  0.2968  0.6010
  616MOL0     C84902   7.472   4.808   6.862 -0.4454 -0.0301  0.3585
  616MOL0     C84903   7.335   4.795   6.849  0.1448  0.0049 -0.5012
  616MOL0     C84904   7.251   4.901   6.808 -0.6025 -0.2402 -0.0966
  616MOL0     C84905   7.310   5.032   6.788  0.2849 -0.3484 -0.0461
  616MOL0     O84906   7.230   5.140   6.769 -0.1839 -0.1021  0.3196
  616MOL0     C84907   7.092   5.139   6.806 -0.9304  0.5028  0.5293
  616MOL0     C84908   7.011   5.104   6.682  0.9283 -0.7720 -0.1906
  616MOL0     C84909   7.003   5.210   6.573  0.6185 -0.3112 -0.0450
  616MOL0     C84910   6.877   5.216   6.487  0.4608  0.0929  0.1767
  616MOL0     C84911   6.892   5.331   6.382  0.7344  0.6733 -0.3276
  616MOL0     C84912   6.751   5.378   6.346 -0.4748 -0.3282 -0.3986
  616MOL0     C84913   6.768   5.493   6.246  0.3108  0.2496  0.4892
  616MOL0     C84914   6.640   5.505   6.163  0.7998  0.7608  0.3893
  616MOL0    Cl84915   6.672   5.414   6.008  0.1130  0.3279  0.1872
  616MOL0     C84916   7.443   5.044   6.814  0.0324 -1.0078 -0.9795
  616MOL0     C84917   7.522   4.939   6.854  0.7105 -0.2362 -0.8949
  616MOL0     O84918   7.450   4.516   6.863 -0.4870  0.2667  0.1339
  616MOL0     C84919   7.785   4.556   6.986  0.1148  0.3241  0.9997
  616MOL0     C84920   7.902   4.490   7.026 -0.0871 -0.2240  0.3290
  616MOL0     N84921   7.967   3.825   6.899  0.4584  0.0538 -0.1115
  616MOL0     N84922   7.835   3.793   6.861 -0.3562 -0.1808  0.3770
  616MOL0     C84923   6.701   4.123   6.452 -0.2536 -0.0032  0.0186
  616MOL0     C84924   6.616   4.196   6.362  0.5968  0.8907 -0.6199
  616MOL0     C84925   6.504   4.544   6.100  0.0041 -0.5483  0.0928
  616MOL0     C84926   6.376   4.571   6.143  0.3480  0.1935  0.2379
  616MOL0     C84927   6.283   4.645   6.074 -0.0457  0.9643  0.1357
  616MOL0     C84928   6.309   4.686   5.939 -0.1356 -0.5748 -1.1271
  616MOL0     O84929   6.204   4.742   5.869  0.6456  0.2305  0.1132
  616MOL0     C84930   6.248   4.817   5.754 -0.4284  0.0522 -1.0875
  616MOL0     C84931   6.118   4.878   5.697 -0.2074  0.3700  0.7475
  616MOL0     C84932   6.154   4.953   5.565 -0.4018 -0.9353  0.6974
  616MOL0     C84933   6.236   5.085   5.600  0.2262  0.5176 -0.3374
  616MOL0     C84934   6.214   5.183   5.489  0.1590 -0.1255 -0.0342
  616MOL0     C84935   6.218   5.253   5.390  0.1700 -0.5719 -0.1102
  616MOL0     C84936   6.440   4.662   5.895 -0.2458  0.3081  0.4960
  616MOL0     C84937   6.544   4.596   5.976  0.1347 -0.8338  1.2361
  616MOL0     C84938   6.677   4.570   5.908 -0.4090  0.2963  0.5196
  616MOL0     H84939   6.624   4.490   6.512 -0.7913 -0.4346  3.0268
  616MOL0     H84940   6.759   4.352   6.692  1.5328  0.0584 -1.5254
  616MOL0     H84941   6.883   3.951   6.543 -1.1953 -4.4268  1.1857
  616MOL0     H84942   6.807   3.904   6.692 -0.2171 -0.3162 -1.8876
  616MOL0     H84943   7.028   3.854   6.708 -2.5213  0.6141  0.4166
  616MOL0     H84944   7.092   3.994   6.639  0.8570  0.4319  1.3261
  616MOL0     H84945   7.053   4.127   6.853  1.6246  0.0634  0.0014
  616MOL0     H84946   6.910   4.029   6.899  0.6799 -3.3052  3.4636
  616MOL0     H84947   7.089   3.967   7.049 -1.6373 -3.4207  0.0720
  616MOL0     H84948   7.078   3.837   6.928 -0.6257 -0.2928 -1.6897
  616MOL0     H84949   7.281   4.060   6.959 -0.5861  0.7792 -1.5667
  616MOL0     H84950   7.261   3.979   6.801 -1.6733  2.5240  0.5912
  616MOL0     H84951   7.336   3.835   7.062 -0.0626 -1.4076 -0.2270
  616MOL0     H84952   7.323   3.764   6.904  0.9238 -0.0258  0.5744
  616MOL0     H84953   7.522   3.988   6.984  1.0382 -0.9149  1.7534
  616MOL0     H84954   7.513   3.935   6.833  2.6207  1.6775  1.4686
  616MOL0     H84955   7.576   3.738   7.067 -1.4825 -0.8637 -1.1401
  616MOL0     H84956   7.585   3.690   6.905 -0.6412 -0.5263  1.4941
  616MOL0     H84957   7.790   3.836   7.185 -0.3798 -0.2457  0.2547
  616MOL0     H84958   8.115   3.745   7.144  2.0433  1.7549 -1.3765
  616MOL0     H84959   8.026   3.872   7.239  0.1652  0.4161  0.4961
  616MOL0     H84960   8.272   3.915   7.125  1.4389  1.4303 -1.4028
  616MOL0     H84961   8.187   3.932   6.975  1.8113 -1.0185  1.0072
  616MOL0     H84962   8.135   4.090   7.238  1.7111  1.8085  1.0515
  616MOL0     H84963   8.234   4.132   7.102  0.3250 -2.0938  2.5827
  616MOL0     H84964   8.044   4.155   6.951  0.2293  0.2055  0.1428
  616MOL0     H84965   7.934   4.099   7.082 -0.7001  1.8791 -0.1033
  616MOL0     H84966   7.784   4.169   6.985 -1.6839  1.0076 -2.8381
  616MOL0     H84967   7.484   4.265   6.919  1.4683  0.6291 -0.8651
  616MOL0     H84968   7.621   4.165   6.852  2.4210 -0.4727 -0.7968
  616MOL0     H84969   7.563   4.308   6.765 -0.5731 -1.6510 -1.2430
  616MOL0     H84970   7.283   4.701   6.867 -1.5288  0.9457 -0.1643
  616MOL0     H84971   7.150   4.870   6.785 -0.4638 -0.5266 -0.3459
  616MOL0     H84972   7.069   5.058   6.877 -1.6899  0.5566  0.3531
  616MOL0     H84973   7.058   5.230   6.857 -1.7877  0.5955 -0.1692
  616MOL0     H84974   7.049   5.013   6.633 -0.3818 -0.3317 -2.1558
  616MOL0     H84975   6.907   5.076   6.699  0.6731  0.8342  1.1157
  616MOL0     H84976   7.092   5.204   6.510 -0.5839  1.5486 -2.0800
  616MOL0     H84977   7.012   5.300   6.634  2.4736 -0.5589  0.0829
  616MOL0     H84978   6.787   5.227   6.548  0.3703  0.0849  0.0441
  616MOL0     H84979   6.861   5.128   6.424 -1.9180  1.8871 -1.9418
  616MOL0     H84980   6.959   5.408   6.421 -0.1158  1.2317  0.0796
  616MOL0     H84981   6.944   5.288   6.296  1.3312 -1.6648  1.0862
  616MOL0     H84982   6.699   5.414   6.435  2.4505 -1.2030  1.8330
  616MOL0     H84983   6.693   5.299   6.297  3.4477 -2.5925 -1.8278
  616MOL0     H84984   6.858   5.483   6.183  0.0100  0.6034 -0.0096
  616MOL0     H84985   6.775   5.591   6.294  0.1144  0.0067  1.0127
  616MOL0     H84986   6.619   5.607   6.130 -2.2790  0.4069  0.9533
  616MOL0     H84987   6.548   5.473   6.212 -0.3210 -2.2210 -3.2028
  616MOL0     H84988   7.487   5.141   6.796 -2.1459  0.1002 -0.5997
  616MOL0     H84989   7.629   4.955   6.866  0.3038  2.3716 -0.1764
  616MOL0     H84990   7.781   4.665   6.982 -3.3456  0.2492 -0.1255
  616MOL0     H84991   7.981   4.545   7.076  1.4111 -1.5956 -0.4350
  616MOL0     H84992   6.709   4.017   6.430 -2.2771 -0.5229  1.5440
  616MOL0     H84993   6.580   4.142   6.275  0.1851  1.0096 -0.5267
  616MOL0     H84994   6.333   4.525   6.232 -3.3954  0.8143 -1.0364
  616MOL0     H84995   6.185   4.646   6.122  0.4181 -2.2105  1.4260
  616MOL0     H84996   6.321   4.890   5.791 -0.8980 -1.1000  2.5912
  616MOL0     H84997   6.292   4.760   5.672 -1.4392  0.6528 -2.0664
  616MOL0     H84998   6.074   4.943   5.773 -0.9860  1.8788 -0.9316
  616MOL0     H84999   6.049   4.796   5.676  1.1578 -0.5433 -0.4396
  616MOL0     H85000   6.209   4.891   5.493  0.0050 -2.1262  1.9787
  616MOL0     H85001   6.062   4.975   5.510  1.2595  0.5818 -1.6448
  616MOL0     H85002   6.342   5.066   5.621  0.0013  0.5606  0.9277
  616MOL0     H85003   6.206   5.127   5.697  3.3903 -0.4217  1.1763
  616MOL0     H85004   6.223   5.312   5.301 -1.3589 -0.3103 -0.0422
  616MOL0     H85005   6.467   4.675   5.791 -2.0522  0.2958  0.0045
  616MOL0     H85006   6.753   4.633   5.955  0.0660  1.2019 -1.3436
  616MOL0     H85007   6.715   4.467   5.911 -0.0336  0.2706 -2.1476
  616MOL0     H85008   6.664   4.597   5.803  0.8261 -2.5632 -0.4984
  617MOL0     O85009   4.262  10.681   3.766  0.3316 -0.5775 -0.3573
  617MOL0     C85010   4.355  10.615   3.799  0.4132 -0.2946 -0.1093
  617MOL0     O85011   4.361  10.543   3.909  1.0336  0.0599 -0.0012
  617MOL0     C85012   4.238  10.499   3.959 -0.4280 -0.2997  1.1079
  617MOL0     C85013   4.173  10.585   4.051 -0.5757 -0.3284 -0.5028
  617MOL0     C85014   4.047  10.546   4.092  0.9964 -0.2855  0.1991
  617MOL0     C85015   3.995  10.418   4.061  0.3276  0.6779  0.4632
  617MOL0     O85016   3.882  10.360   4.113 -0.3504 -0.9400 -0.4399
  617MOL0     C85017   3.785  10.451   4.170  0.6516 -0.4474 -0.0725
  617MOL0     C85018   3.669  10.379   4.250  0.7830 -0.4861 -0.5364
  617MOL0     C85019   3.603  10.482   4.350  0.6811  0.1821 -0.4855
  617MOL0     C85020   3.486  10.408   4.430  0.3714 -0.1219  0.6803
  617MOL0     C85021   3.399  10.514   4.510  0.1022  0.6679  0.1860
  617MOL0     C85022   3.265  10.463   4.578 -0.4101  0.0140 -0.1061
  617MOL0     C85023   3.275  10.500   4.726 -0.5510 -0.2716 -0.3784
  617MOL0     C85024   3.270  10.659   4.740 -1.1923  0.0189 -0.2592
  617MOL0     N85025   3.318  10.696   4.875  0.4867  0.2181  0.8487
  617MOL0     C85026   3.437  10.752   4.889  0.0588  0.0592  0.4408
  617MOL0     C85027   3.437  10.805   5.012  0.6821 -0.4772 -0.0111
  617MOL0     C85028   3.549  10.879   5.082 -0.7418 -0.6262 -0.6845
  617MOL0     C85029   3.678  10.812   5.046 -0.8338  0.2888 -0.1438
  617MOL0     C85030   3.793  10.867   5.129  0.1367 -0.3245 -0.1745
  617MOL0     C85031   3.920  10.793   5.107 -0.1329 -0.1668 -0.6315
  617MOL0     O85032   3.953  10.784   4.966 -0.1250 -0.5707  0.1096
  617MOL0     C85033   4.082  10.769   4.935  0.2199  0.1804  0.5601
  617MOL0     C85034   4.185  10.858   4.964 -0.7702 -0.4074 -0.6938
  617MOL0     C85035   4.314  10.847   4.913  0.2989  0.6246 -0.3303
  617MOL0     C85036   4.405  10.957   4.949 -0.2664  0.3512  0.3230
  617MOL0     C85037   4.338  10.729   4.830 -0.7783  1.2991 -0.2971
  617MOL0     C85038   4.477  10.707   4.772  0.1994  0.3966 -0.7607
  617MOL0     O85039   4.574  10.795   4.799 -1.3197  0.0598  0.0787
  617MOL0     C85040   4.685  10.801   4.718 -0.0084  0.7715  0.8656
  617MOL0     C85041   4.674  10.791   4.577  0.0021  0.8202  0.5505
  617MOL0     C85042   4.790  10.807   4.498  0.2694 -0.1569 -0.2321
  617MOL0     C85043   4.914  10.828   4.563  0.3999 -0.4358  0.7919
  617MOL0     O85044   5.028  10.859   4.492  0.4707 -0.2922  0.3927
  617MOL0     C85045   5.037  10.861   4.348 -0.1321  0.6677 -1.0756
  617MOL0     C85046   5.165  10.940   4.284 -0.0981 -0.2171 -0.7155
  617MOL0     C85047   5.296  10.871   4.313  0.0545 -0.1657  0.7168
  617MOL0     C85048   5.405  10.909   4.206 -0.8413 -0.3958 -0.3652
  617MOL0     C85049   5.533  10.830   4.208 -0.8575  0.0161  0.0982
  617MOL0     C85050   5.632  10.886   4.106 -0.0112  0.8933 -0.1655
  617MOL0     C85051   5.754  10.797   4.111 -0.7417  0.1602 -0.7952
  617MOL0     C85052   5.837  10.827   4.233 -0.8898  0.4242 -0.6870
  617MOL0    Cl85053   6.008  10.765   4.198 -0.6229 -0.4921  0.4495
  617MOL0     C85054   4.916  10.861   4.704 -0.2929  0.6417  0.1800
  617MOL0     C85055   4.795  10.845   4.775 -0.4613 -0.0517  0.2303
  617MOL0     O85056   4.488  10.614   4.693  0.5881 -0.1311 -0.2882
  617MOL0     C85057   4.234  10.635   4.805  0.6741  0.2867  1.7743
  617MOL0     C85058   4.106  10.656   4.852  0.4982  0.0754  0.0624
  617MOL0     N85059   3.311  10.783   5.069  0.2202  0.1138  0.6516
  617MOL0     N85060   3.237  10.715   4.982 -0.0592 -0.4680 -0.6998
  617MOL0     C85061   4.064  10.334   3.973 -0.3822 -0.5259 -0.0371
  617MOL0     C85062   4.187  10.376   3.918  0.4423  0.3093  0.6595
  617MOL0     C85063   4.471  10.612   3.719 -1.7301  0.0582  0.8929
  617MOL0     C85064   4.595  10.600   3.784 -0.1858  0.7043  0.1840
  617MOL0     C85065   4.716  10.597   3.718  0.4980  0.4489 -0.2827
  617MOL0     C85066   4.712  10.622   3.578 -0.4753 -0.2494  0.3206
  617MOL0     O85067   4.840  10.640   3.518 -0.4452 -0.2841  0.6165
  617MOL0     C85068   4.844  10.626   3.376  0.8467  0.1281  0.5909
  617MOL0     C85069   4.982  10.575   3.348  0.3636  0.1892 -0.8720
  617MOL0     C85070   5.022  10.461   3.440  0.4940 -0.1312  0.1574
  617MOL0     C85071   4.929  10.340   3.430 -0.4661  1.1249 -0.2047
  617MOL0     C85072   4.916  10.287   3.300 -0.2323 -0.1159  0.7493
  617MOL0     C85073   4.904  10.249   3.179  0.6359  0.5760 -0.2026
  617MOL0     C85074   4.592  10.641   3.510 -0.4120  0.6758  0.6219
  617MOL0     C85075   4.471  10.631   3.575 -0.3423  1.0804  0.5506
  617MOL0     C85076   4.349  10.643   3.493 -0.0927  0.2300  0.1084
  617MOL0     H85077   4.216  10.678   4.086 -1.4433  0.8518 -2.4265
  617MOL0     H85078   4.013  10.615   4.168  1.9839  0.2868  0.1398
  617MOL0     H85079   3.741  10.523   4.101  1.5139 -0.6891 -0.8927
  617MOL0     H85080   3.834  10.514   4.246  1.2720 -0.8733 -0.1117
  617MOL0     H85081   3.592  10.332   4.188 -0.0310  0.9874 -0.6909
  617MOL0     H85082   3.715  10.305   4.316  2.3914  2.5568  2.0744
  617MOL0     H85083   3.678  10.515   4.422 -0.6745 -2.2241  2.2028
  617MOL0     H85084   3.553  10.562   4.295  1.5199 -0.1619 -1.8187
  617MOL0     H85085   3.420  10.355   4.361 -1.3511  2.5381  0.1436
  617MOL0     H85086   3.519  10.345   4.513 -0.1857  2.8575  3.3545
  617MOL0     H85087   3.382  10.604   4.450 -0.0022  0.0747 -0.6959
  617MOL0     H85088   3.471  10.546   4.585 -0.3136 -3.0008  2.3856
  617MOL0     H85089   3.176  10.512   4.535  1.4330  2.0253 -1.8585
  617MOL0     H85090   3.247  10.356   4.561 -0.2269 -0.0304 -0.0145
  617MOL0     H85091   3.366  10.451   4.763 -0.3484 -1.0953 -1.9094
  617MOL0     H85092   3.192  10.470   4.790 -0.1058  0.6059  0.6679
  617MOL0     H85093   3.331  10.707   4.663 -1.7176 -1.9374 -1.9652
  617MOL0     H85094   3.166  10.690   4.728 -1.0308  0.6202 -0.1826
  617MOL0     H85095   3.526  10.736   4.828  0.2691  0.5867  0.5974
  617MOL0     H85096   3.532  10.880   5.190  2.3985 -0.4517 -0.0798
  617MOL0     H85097   3.562  10.980   5.042  1.1065  0.1161  1.5426
  617MOL0     H85098   3.670  10.703   5.060 -3.5040  0.3386 -0.7312
  617MOL0     H85099   3.701  10.837   4.942  1.4320  2.9126  0.8722
  617MOL0     H85100   3.811  10.968   5.092 -0.2331 -0.8786 -1.9205
  617MOL0     H85101   3.761  10.862   5.234 -3.4487 -2.2285 -1.2114
  617MOL0     H85102   4.007  10.832   5.161  0.1606 -1.0447 -0.4556
  617MOL0     H85103   3.907  10.691   5.144  0.7640  0.1726  0.6868
  617MOL0     H85104   4.166  10.947   5.023 -0.7757 -0.3005 -0.8584
  617MOL0     H85105   4.355  11.042   4.996  1.4281  2.5327 -1.6007
  617MOL0     H85106   4.457  10.997   4.862 -0.8199  1.1635  0.3596
  617MOL0     H85107   4.479  10.925   5.023 -1.0951 -2.1760  0.1601
  617MOL0     H85108   4.587  10.782   4.513  0.5028  2.0496 -0.3312
  617MOL0     H85109   4.794  10.792   4.391  0.0238 -0.6765 -0.1729
  617MOL0     H85110   5.045  10.754   4.328  2.5138  0.7578 -0.8133
  617MOL0     H85111   4.941  10.898   4.309 -2.2233 -1.7336  1.4622
  617MOL0     H85112   5.157  10.947   4.175  0.7909  1.8335 -0.6763
  617MOL0     H85113   5.170  11.042   4.321 -0.2370 -0.4420 -0.0609
  617MOL0     H85114   5.287  10.763   4.297  0.3143  0.2916 -4.6712
  617MOL0     H85115   5.325  10.883   4.417 -2.3861 -1.2582  1.5982
  617MOL0     H85116   5.429  11.015   4.208  1.4368 -0.8530 -0.3134
  617MOL0     H85117   5.351  10.904   4.112 -1.5130 -1.2727  0.0495
  617MOL0     H85118   5.573  10.838   4.309 -0.3920  1.5205 -0.1689
  617MOL0     H85119   5.512  10.726   4.183 -0.8948 -0.3827  1.7227
  617MOL0     H85120   5.666  10.990   4.118 -0.1488  0.6525  3.2547
  617MOL0     H85121   5.587  10.894   4.007  0.1083  0.7517 -0.2294
  617MOL0     H85122   5.822  10.810   4.026  2.2795 -2.1544  1.0631
  617MOL0     H85123   5.736  10.690   4.104  0.8517 -0.1904 -0.0738
  617MOL0     H85124   5.799  10.778   4.323  1.4658 -1.7082 -0.7408
  617MOL0     H85125   5.826  10.931   4.263 -3.0673  0.6394 -2.0530
  617MOL0     H85126   5.007  10.898   4.751 -0.0998  0.7494 -0.2682
  617MOL0     H85127   4.799  10.843   4.884 -0.7209 -1.5396  0.2413
  617MOL0     H85128   4.249  10.544   4.748 -1.6962  0.2382  1.1212
  617MOL0     H85129   4.027  10.582   4.839  0.2781  0.0171  1.5373
  617MOL0     H85130   4.033  10.231   3.958  0.7783 -1.0414  0.9316
  617MOL0     H85131   4.238  10.302   3.856 -1.4564 -1.8351  1.5060
  617MOL0     H85132   4.594  10.565   3.886 -0.6191  0.6278  0.1527
  617MOL0     H85133   4.807  10.568   3.769  0.0371 -3.7892 -1.4458
  617MOL0     H85134   4.765  10.556   3.348  0.6617  0.9178 -0.9643
  617MOL0     H85135   4.814  10.715   3.321 -3.2816 -2.5880 -2.0736
  617MOL0     H85136   5.054  10.654   3.370 -0.0180  0.0096  1.2333
  617MOL0     H85137   4.991  10.549   3.243 -0.6535 -2.3606 -0.4084
  617MOL0     H85138   5.120  10.427   3.404 -0.2508 -1.5817 -0.5917
  617MOL0     H85139   5.041  10.474   3.547 -1.3978 -0.5975  0.5882
  617MOL0     H85140   4.830  10.369   3.465 -1.4633 -0.6653 -1.3871
  617MOL0     H85141   4.966  10.271   3.507 -1.7994  0.5469 -0.0618
  617MOL0     H85142   4.908  10.212   3.078  1.9196 -2.3781  0.8198
  617MOL0     H85143   4.592  10.657   3.402  2.0497 -1.6171  0.1549
  617MOL0     H85144   4.315  10.540   3.485  0.1878 -0.0153  1.6732
  617MOL0     H85145   4.269  10.708   3.530  0.1878  0.4102  0.4030
  617MOL0     H85146   4.379  10.677   3.393 -4.4591 -0.8286 -1.8007
  618MOL0     O85147   6.624   7.335   5.286 -0.1233 -0.6379  0.2689
  618MOL0     C85148   6.640   7.435   5.220  0.6809 -1.0046 -0.4003
  618MOL0     O85149   6.757   7.466   5.145 -0.5651  0.1019  0.6390
  618MOL0     C85150   6.883   7.447   5.201 -0.1542  0.2743  0.2993
  618MOL0     C85151   6.962   7.560   5.189 -0.9572  0.5619 -0.6389
  618MOL0     C85152   7.093   7.549   5.228 -0.5814  0.0176 -1.1374
  618MOL0     C85153   7.145   7.426   5.275 -0.4739 -0.8422  0.7753
  618MOL0     O85154   7.278   7.433   5.309 -0.2072  0.1469  0.2536
  618MOL0     C85155   7.358   7.312   5.310  0.9327 -0.5542  0.1903
  618MOL0     C85156   7.490   7.361   5.362 -0.4889 -0.1061  0.1763
  618MOL0     C85157   7.606   7.262   5.335 -0.3936 -0.1577  0.3528
  618MOL0     C85158   7.575   7.111   5.372  0.2240  0.4140  0.3423
  618MOL0     C85159   7.694   7.009   5.383 -0.1282  0.5920  0.1074
  618MOL0     C85160   7.754   6.991   5.246  0.4749  0.4192 -0.3371
  618MOL0     C85161   7.886   6.913   5.255  0.1938  0.1598 -0.3115
  618MOL0     C85162   7.912   6.858   5.116  0.1579  0.2659 -0.6452
  618MOL0     N85163   8.031   6.770   5.132 -0.0537 -0.4032  0.9593
  618MOL0     C85164   8.160   6.809   5.179 -0.0351 -0.5669 -0.5313
  618MOL0     C85165   8.239   6.700   5.188  0.3655  0.6572 -0.0592
  618MOL0     C85166   8.376   6.696   5.240  0.2469  1.1433 -0.2944
  618MOL0     C85167   8.437   6.549   5.227 -0.8183 -0.2271  0.0377
  618MOL0     C85168   8.473   6.525   5.079 -0.3066  0.2360  0.3044
  618MOL0     C85169   8.512   6.384   5.047 -0.5393 -0.1589 -1.3096
  618MOL0     O85170   8.647   6.375   5.101 -0.7654  0.3198 -0.2560
  618MOL0     C85171   8.684   6.249   5.075 -0.3311  0.1043  0.6010
  618MOL0     C85172   8.742   6.208   4.953 -1.2612 -0.1672  0.1591
  618MOL0     C85173   8.780   6.077   4.918 -0.6033 -0.3570 -0.3597
  618MOL0     C85174   8.831   6.059   4.775 -0.6426 -0.7265 -0.5221
  618MOL0     C85175   8.771   5.980   5.017  0.2817 -0.4884 -0.4424
  618MOL0     C85176   8.805   5.834   4.992  0.1001 -0.3596 -1.1955
  618MOL0     O85177   8.796   5.750   5.098 -0.3515  0.7624  0.7324
  618MOL0     C85178   8.842   5.621   5.072 -1.3088 -0.2978 -0.0686
  618MOL0     C85179   8.759   5.519   5.069  0.6259  0.4458  1.9782
  618MOL0     C85180   8.812   5.396   5.016 -0.1568 -0.3400  0.4113
  618MOL0     C85181   8.940   5.374   4.970  0.5536 -0.1594  0.4652
  618MOL0     O85182   8.971   5.249   4.936  0.2140 -0.2332  0.3631
  618MOL0     C85183   9.091   5.225   4.865  0.1002  0.2260  0.1477
  618MOL0     C85184   9.194   5.143   4.943 -0.6188  0.7534  0.0704
  618MOL0     C85185   9.138   5.019   5.017 -0.0321  0.1268 -1.0127
  618MOL0     C85186   9.173   4.898   4.937 -0.3773  0.8477  0.2472
  618MOL0     C85187   9.314   4.844   4.970 -0.2835 -0.3241 -0.1752
  618MOL0     C85188   9.373   4.752   4.858 -0.2535 -0.0340  0.5882
  618MOL0     C85189   9.327   4.604   4.864 -0.1335 -0.2960  0.2293
  618MOL0     C85190   9.411   4.505   4.779  0.5337 -0.0885  0.5868
  618MOL0    Cl85191   9.448   4.568   4.618  0.3061 -0.1000  0.1142
  618MOL0     C85192   9.025   5.478   4.982 -0.6194  0.3928  0.4658
  618MOL0     C85193   8.980   5.604   5.029  0.2976  0.7417 -0.1502
  618MOL0     O85194   8.826   5.801   4.876 -0.3997  0.0396 -0.3131
  618MOL0     C85195   8.717   6.020   5.146 -0.4437  0.4936 -0.8843
  618MOL0     C85196   8.672   6.150   5.176 -0.1238 -0.4091  0.8547
  618MOL0     N85197   8.156   6.595   5.163  0.6526  0.6532 -0.1998
  618MOL0     N85198   8.027   6.635   5.143  0.0675 -0.5050  0.2415
  618MOL0     C85199   7.072   7.311   5.285 -0.2149 -0.0324  0.2432
  618MOL0     C85200   6.938   7.317   5.249  0.2369  0.0427 -0.1186
  618MOL0     C85201   6.518   7.529   5.205 -0.0458  0.1072  0.3706
  618MOL0     C85202   6.514   7.616   5.090  0.5791  0.1464  0.3418
  618MOL0     C85203   6.382   7.650   5.056 -0.7619  0.1779  1.8581
  618MOL0     C85204   6.275   7.639   5.140 -0.4902 -0.2411  1.0357
  618MOL0     O85205   6.149   7.690   5.110  0.4910  0.5032 -1.0535
  618MOL0     C85206   6.106   7.740   4.983  0.1462 -0.5776  0.4433
  618MOL0     C85207   5.963   7.801   4.992 -0.0909  0.5324  0.1631
  618MOL0     C85208   5.864   7.707   5.040 -0.2640  0.9781  0.8129
  618MOL0     C85209   5.840   7.727   5.185 -0.0608  0.2164  1.0032
  618MOL0     C85210   5.732   7.644   5.233  0.3059  0.3898 -0.0214
  618MOL0     C85211   5.629   7.588   5.263 -0.3095  1.0255  0.4770
  618MOL0     C85212   6.289   7.597   5.273 -0.9321  0.5713 -1.0052
  618MOL0     C85213   6.414   7.532   5.307 -0.0258 -0.5704  0.4958
  618MOL0     C85214   6.428   7.459   5.442  0.2733  0.1050  0.4984
  618MOL0     H85215   6.914   7.641   5.136 -1.5787  0.2509 -0.5676
  618MOL0     H85216   7.162   7.627   5.196 -0.5251  0.6686  0.4894
  618MOL0     H85217   7.362   7.262   5.213  0.7249  0.6610 -0.4674
  618MOL0     H85218   7.310   7.241   5.378  0.1819  2.1073  2.6241
  618MOL0     H85219   7.524   7.458   5.325  3.7038 -1.6560 -0.6071
  618MOL0     H85220   7.495   7.370   5.471  0.8408 -1.8715  0.3110
  618MOL0     H85221   7.632   7.268   5.228  1.0640  1.3619  0.7460
  618MOL0     H85222   7.699   7.288   5.386  0.0629  1.6679 -1.2803
  618MOL0     H85223   7.533   7.107   5.473 -2.2185 -3.2957 -0.6111
  618MOL0     H85224   7.495   7.068   5.312 -0.4136  2.8259 -0.6739
  618MOL0     H85225   7.658   6.912   5.417  3.2587 -0.5277  0.9102
  618MOL0     H85226   7.768   7.049   5.454  0.4200 -0.0229 -0.1089
  618MOL0     H85227   7.682   6.931   5.189 -1.4288  1.2311  1.0952
  618MOL0     H85228   7.761   7.086   5.191 -4.6193  0.9428 -0.5432
  618MOL0     H85229   7.883   6.842   5.338  0.9024 -0.8909 -1.1484
  618MOL0     H85230   7.959   6.992   5.275  1.4166 -0.4303 -2.1486
  618MOL0     H85231   7.829   6.796   5.078 -0.2008 -0.4396  1.1896
  618MOL0     H85232   7.939   6.940   5.049 -0.8631  1.3981  0.2793
  618MOL0     H85233   8.189   6.911   5.201  1.2846 -0.8982 -0.6381
  618MOL0     H85234   8.381   6.706   5.349  0.1544 -2.8928  0.2299
  618MOL0     H85235   8.447   6.769   5.199  0.1159  1.1708 -0.4727
  618MOL0     H85236   8.523   6.547   5.294 -0.2665  1.0120 -0.6007
  618MOL0     H85237   8.363   6.476   5.261 -1.8393  1.4609  1.5699
  618MOL0     H85238   8.393   6.549   5.008  0.3609  0.6858 -0.3222
  618MOL0     H85239   8.562   6.585   5.054 -1.3212  0.5710 -2.9898
  618MOL0     H85240   8.443   6.315   5.098 -0.3135  1.7444  1.8049
  618MOL0     H85241   8.500   6.360   4.941 -1.5166  3.6881 -2.2215
  618MOL0     H85242   8.754   6.282   4.875  4.3223 -2.2585 -1.4599
  618MOL0     H85243   8.927   6.010   4.758  0.5883  1.5223 -0.5723
  618MOL0     H85244   8.844   6.154   4.722 -2.6536  0.2046  0.5385
  618MOL0     H85245   8.758   6.007   4.713 -1.2552  1.0791 -1.3891
  618MOL0     H85246   8.655   5.515   5.101  0.1814  0.3613  0.5806
  618MOL0     H85247   8.738   5.316   5.015 -2.2380  1.4513  1.5315
  618MOL0     H85248   9.073   5.166   4.774 -3.1196  1.9414 -0.5008
  618MOL0     H85249   9.141   5.313   4.825  2.6477 -3.1667 -5.4038
  618MOL0     H85250   9.276   5.119   4.873 -0.8238  1.5918 -0.4761
  618MOL0     H85251   9.228   5.209   5.023 -3.1002 -0.3731  2.1749
  618MOL0     H85252   9.029   5.023   5.024  0.0109  2.0345 -0.9288
  618MOL0     H85253   9.176   5.017   5.119 -0.2984  1.1537 -0.8927
  618MOL0     H85254   9.163   4.912   4.829  0.9645 -0.9739 -0.1590
  618MOL0     H85255   9.107   4.815   4.963  1.5324 -1.6255 -2.2557
  618MOL0     H85256   9.371   4.935   4.992  0.0715 -0.9002  1.4938
  618MOL0     H85257   9.315   4.788   5.064  0.2547 -2.0134 -1.1481
  618MOL0     H85258   9.482   4.751   4.864 -0.0824 -1.4843 -1.6581
  618MOL0     H85259   9.358   4.797   4.759  0.8474 -0.1962  0.3308
  618MOL0     H85260   9.227   4.591   4.824 -0.2446  1.9601 -0.3846
  618MOL0     H85261   9.332   4.566   4.966 -0.7760 -1.8851 -0.3114
  618MOL0     H85262   9.355   4.411   4.782 -0.7927  0.7228  2.0592
  618MOL0     H85263   9.501   4.478   4.835  0.6890 -1.8699 -0.4307
  618MOL0     H85264   9.132   5.463   4.967 -1.2243 -2.3010 -1.8989
  618MOL0     H85265   9.046   5.688   5.049 -1.2399  2.0971 -0.5017
  618MOL0     H85266   8.725   5.957   5.234  1.8591  2.8234  0.7268
  618MOL0     H85267   8.637   6.181   5.274 -2.3248  1.2631 -0.3772
  618MOL0     H85268   7.101   7.216   5.330  0.9114  1.0172  1.8627
  618MOL0     H85269   6.873   7.231   5.261  0.3031 -0.5063 -3.0038
  618MOL0     H85270   6.596   7.624   5.019 -1.3938 -3.2503 -2.6975
  618MOL0     H85271   6.373   7.688   4.955  0.6701  0.8835  1.9658
  618MOL0     H85272   6.173   7.820   4.949 -2.3925  1.1037 -0.8325
  618MOL0     H85273   6.111   7.654   4.916 -0.9397 -1.0420  0.9319
  618MOL0     H85274   5.931   7.833   4.892 -2.0695 -0.4630  0.4335
  618MOL0     H85275   5.964   7.893   5.051  2.1503 -2.0501  4.6779
  618MOL0     H85276   5.773   7.717   4.979  1.7770  0.6988 -2.5009
  618MOL0     H85277   5.906   7.609   5.016 -0.1973  1.1962  0.0306
  618MOL0     H85278   5.831   7.835   5.199  2.3765  0.4812  1.0989
  618MOL0     H85279   5.928   7.685   5.236 -0.3681 -1.6440  0.0823
  618MOL0     H85280   5.545   7.532   5.299 -1.3660  2.5427  0.5152
  618MOL0     H85281   6.206   7.613   5.341 -0.3096  1.0052 -0.3274
  618MOL0     H85282   6.424   7.350   5.438 -0.6089  0.1328  0.4435
  618MOL0     H85283   6.525   7.492   5.481 -0.3167  3.6479 -0.7126
  618MOL0     H85284   6.344   7.484   5.507 -1.8852 -1.9725 -1.3059
  619MOL0     O85285   9.236   7.664   2.565 -0.3713  0.2755  0.4432
  619MOL0     C85286   9.130   7.673   2.626 -0.3386 -0.0506  0.2323
  619MOL0     O85287   9.116   7.701   2.759  0.6611  0.3035  0.4120
  619MOL0     C85288   9.216   7.669   2.851 -0.2989 -0.0503  0.5353
  619MOL0     C85289   9.313   7.569   2.841  0.0707 -0.7235 -0.1623
  619MOL0     C85290   9.406   7.543   2.951  0.2665  0.2009 -0.2085
  619MOL0     C85291   9.393   7.627   3.065  0.7129 -1.0033 -1.2055
  619MOL0     O85292   9.467   7.616   3.185  0.1870 -0.5288  0.5078
  619MOL0     C85293   9.569   7.512   3.189 -0.6080  0.0963  0.9359
  619MOL0     C85294   9.633   7.506   3.329  0.8184  0.5215 -0.8458
  619MOL0     C85295   9.747   7.616   3.341  0.6212  0.3748  0.4260
  619MOL0     C85296   9.824   7.593   3.468 -0.3372  0.7669 -0.3828
  619MOL0     C85297   9.943   7.701   3.470  0.2703  0.3450 -0.8780
  619MOL0     C85298  10.059   7.665   3.575 -0.6249 -0.7089 -0.3235
  619MOL0     C85299  10.026   7.675   3.720  0.6373 -0.1972  0.3260
  619MOL0     C85300  10.143   7.662   3.815 -0.7035  0.9452  0.3178
  619MOL0     N85301  10.107   7.704   3.958 -0.0197  0.6554  0.2195
  619MOL0     C85302  10.003   7.645   4.024  0.0041  0.3577 -0.7314
  619MOL0     C85303   9.975   7.732   4.121  0.5794  0.1671  0.0723
  619MOL0     C85304   9.866   7.721   4.225 -0.1911 -0.3771  0.7292
  619MOL0     C85305   9.736   7.656   4.180  0.2907 -0.7650  0.3513
  619MOL0     C85306   9.644   7.751   4.105  0.4705 -0.2567 -1.0024
  619MOL0     C85307   9.550   7.821   4.200  0.1754  0.3544 -0.5888
  619MOL0     O85308   9.452   7.732   4.253 -0.1751  0.1590  0.4725
  619MOL0     C85309   9.369   7.659   4.159  0.8001  0.2533  0.1291
  619MOL0     C85310   9.323   7.538   4.205 -0.0359 -0.0813 -0.5020
  619MOL0     C85311   9.215   7.476   4.150  0.4893  0.0722 -0.7850
  619MOL0     C85312   9.157   7.367   4.238  0.1382 -0.6186  0.7726
  619MOL0     C85313   9.172   7.504   4.024  0.7544  0.7822  0.1369
  619MOL0     C85314   9.083   7.407   3.942  0.3020 -0.6251 -0.9086
  619MOL0     O85315   9.123   7.409   3.811 -0.2562 -0.0609 -0.3529
  619MOL0     C85316   9.035   7.367   3.715  0.3834  0.2742  0.1691
  619MOL0     C85317   9.072   7.278   3.615  0.2300  0.1827 -0.3548
  619MOL0     C85318   8.976   7.223   3.527 -0.0852 -0.0630 -0.7946
  619MOL0     C85319   8.849   7.278   3.515  0.4173  0.5410 -0.2094
  619MOL0     O85320   8.758   7.255   3.417 -0.7155  0.4364 -0.2721
  619MOL0     C85321   8.798   7.208   3.294  0.1097 -0.0489 -0.2693
  619MOL0     C85322   8.728   7.274   3.178  0.1105  0.4321  0.0601
  619MOL0     C85323   8.589   7.209   3.170  0.5330 -0.5149 -0.2187
  619MOL0     C85324   8.489   7.297   3.083 -0.1175  0.3817 -1.1393
  619MOL0     C85325   8.375   7.210   3.030  0.3928 -0.1115  0.5375
  619MOL0     C85326   8.271   7.289   2.955 -0.0764  0.5095  0.2874
  619MOL0     C85327   8.157   7.204   2.889 -0.4923  0.4890 -0.2927
  619MOL0     C85328   8.074   7.292   2.804  0.4947  0.4949 -0.4325
  619MOL0    Cl85329   8.021   7.432   2.898  0.0949  0.5089 -0.0357
  619MOL0     C85330   8.810   7.356   3.622 -0.3285  0.1795  0.1340
  619MOL0     C85331   8.898   7.398   3.720  0.7257  0.4468 -0.4173
  619MOL0     O85332   8.987   7.344   3.987  0.7276  0.7885  0.3451
  619MOL0     C85333   9.225   7.617   3.964  0.4544  0.2794  0.0821
  619MOL0     C85334   9.310   7.704   4.039 -0.1383 -0.3712  0.4721
  619MOL0     N85335  10.057   7.839   4.116  0.3408 -0.1154  0.1357
  619MOL0     N85336  10.141   7.824   4.017 -0.2604  0.0422 -0.2974
  619MOL0     C85337   9.283   7.717   3.072 -0.6209  1.0595 -0.2021
  619MOL0     C85338   9.196   7.740   2.974  0.0883  0.1818 -0.4751
  619MOL0     C85339   9.000   7.684   2.561 -0.2231 -0.5306 -0.2679
  619MOL0     C85340   8.918   7.794   2.590 -0.1348 -0.0758 -0.8423
  619MOL0     C85341   8.795   7.826   2.523 -0.5267  0.2823 -0.8742
  619MOL0     C85342   8.759   7.738   2.420 -0.1325 -0.1192  0.3369
  619MOL0     O85343   8.640   7.757   2.351 -0.4780  0.0450  0.1016
  619MOL0     C85344   8.586   7.885   2.325 -0.2767 -0.2680 -0.3925
  619MOL0     C85345   8.496   7.858   2.212 -0.0767 -0.1061  0.4223
  619MOL0     C85346   8.383   7.961   2.213  0.5301 -0.1367 -0.0899
  619MOL0     C85347   8.303   7.965   2.072  0.4299  0.1088 -0.9020
  619MOL0     C85348   8.247   7.831   2.044 -0.2852 -0.3503  0.9821
  619MOL0     C85349   8.213   7.726   2.013 -0.6878 -0.1391 -0.8075
  619MOL0     C85350   8.850   7.639   2.379 -0.1359 -0.5501 -0.2892
  619MOL0     C85351   8.970   7.611   2.447 -0.0485  0.4917 -0.0896
  619MOL0     C85352   9.058   7.500   2.397 -0.2493  0.3605 -0.1791
  619MOL0     H85353   9.327   7.521   2.745  1.2719  1.1930 -1.0024
  619MOL0     H85354   9.479   7.463   2.954 -0.2946 -0.2975  0.6405
  619MOL0     H85355   9.638   7.530   3.106 -1.3765  0.7609  0.4330
  619MOL0     H85356   9.512   7.422   3.163 -0.3638  0.7930 -2.5234
  619MOL0     H85357   9.556   7.525   3.404  1.9996  2.4645 -0.0225
  619MOL0     H85358   9.677   7.406   3.336 -1.2965 -0.4008  0.2379
  619MOL0     H85359   9.820   7.599   3.262 -0.1574 -2.6993  0.2400
  619MOL0     H85360   9.711   7.720   3.342  1.9614  0.8676  1.9337
  619MOL0     H85361   9.764   7.607   3.559  1.9743  1.5532  1.0947
  619MOL0     H85362   9.860   7.490   3.471 -1.1519  0.4840  0.2291
  619MOL0     H85363   9.910   7.802   3.493  0.7417  0.1630  0.7470
  619MOL0     H85364   9.985   7.702   3.369 -0.3531  1.2801 -1.1331
  619MOL0     H85365  10.080   7.560   3.553  1.1956 -0.2690 -0.8589
  619MOL0     H85366  10.143   7.734   3.560 -0.6637 -0.5053  0.3583
  619MOL0     H85367   9.955   7.593   3.736  0.8289 -0.8530 -1.9210
  619MOL0     H85368   9.979   7.771   3.742  1.0166 -0.2379  1.3950
  619MOL0     H85369  10.181   7.559   3.818 -2.8773  0.1318  1.5138
  619MOL0     H85370  10.226   7.723   3.777  1.8145 -3.2120 -1.6351
  619MOL0     H85371   9.965   7.545   4.005  0.1609  0.2590 -0.5257
  619MOL0     H85372   9.841   7.825   4.251 -0.0830 -0.1850  0.0718
  619MOL0     H85373   9.892   7.676   4.321 -1.0201 -0.1060  1.0935
  619MOL0     H85374   9.757   7.575   4.110  1.9646  2.0319 -2.6414
  619MOL0     H85375   9.685   7.619   4.270 -0.7172  1.3885  0.7344
  619MOL0     H85376   9.700   7.833   4.060 -0.1018  0.9882  0.4627
  619MOL0     H85377   9.588   7.708   4.022 -2.0833  0.4214  0.2473
  619MOL0     H85378   9.609   7.856   4.285 -0.4991  1.8907 -0.7091
  619MOL0     H85379   9.498   7.913   4.168 -2.4378  0.6721  3.8226
  619MOL0     H85380   9.359   7.515   4.305  0.5723  0.6263 -0.5425
  619MOL0     H85381   9.052   7.342   4.217  0.4489 -1.5874  0.3209
  619MOL0     H85382   9.162   7.393   4.344 -1.7553  2.6115  0.1999
  619MOL0     H85383   9.223   7.281   4.224  3.2656  1.6434  0.5138
  619MOL0     H85384   9.177   7.251   3.611  0.6016  1.1699  1.4118
  619MOL0     H85385   9.008   7.151   3.453  1.2655 -1.2802  0.8936
  619MOL0     H85386   8.903   7.229   3.269 -0.9087  1.5694 -4.0016
  619MOL0     H85387   8.773   7.102   3.297 -0.0979 -0.1009 -2.1900
  619MOL0     H85388   8.721   7.381   3.201  0.8211  0.0875  2.1509
  619MOL0     H85389   8.762   7.267   3.075  0.8892 -0.1905  0.3411
  619MOL0     H85390   8.540   7.192   3.266 -1.5890  0.1417 -1.1291
  619MOL0     H85391   8.602   7.110   3.126 -4.7018 -0.7731 -1.9470
  619MOL0     H85392   8.537   7.346   2.998  0.8644  0.7628 -0.3909
  619MOL0     H85393   8.444   7.372   3.150  0.3221 -0.8076  0.5689
  619MOL0     H85394   8.416   7.139   2.957 -2.5080 -1.2321 -0.1257
  619MOL0     H85395   8.330   7.152   3.110 -1.1714 -1.8015 -1.4645
  619MOL0     H85396   8.325   7.336   2.872  3.6438  1.1659  2.8696
  619MOL0     H85397   8.242   7.368   3.025 -0.6553  0.1706  0.4357
  619MOL0     H85398   8.094   7.159   2.966  0.2951 -0.7924 -0.3581
  619MOL0     H85399   8.197   7.125   2.825 -2.5747  0.5912 -1.8044
  619MOL0     H85400   7.994   7.228   2.767 -1.0306  2.9760 -1.7418
  619MOL0     H85401   8.123   7.338   2.717 -0.5846 -2.2332 -2.6403
  619MOL0     H85402   8.703   7.372   3.625 -0.2045  1.0575  0.2921
  619MOL0     H85403   8.853   7.450   3.804 -1.6019  0.4183 -1.5670
  619MOL0     H85404   9.187   7.647   3.868 -2.0659  3.3895  1.8498
  619MOL0     H85405   9.335   7.801   3.999 -0.8763 -0.6907 -0.8116
  619MOL0     H85406   9.262   7.761   3.169 -2.4675 -2.8129  1.3943
  619MOL0     H85407   9.109   7.803   2.990 -1.1355 -1.2408 -1.3441
  619MOL0     H85408   8.950   7.859   2.670  1.2266  0.5801 -1.8792
  619MOL0     H85409   8.727   7.910   2.534 -0.2465  0.7903 -2.6407
  619MOL0     H85410   8.532   7.923   2.412 -0.1147 -1.5026  0.2746
  619MOL0     H85411   8.663   7.951   2.283 -0.7753 -0.6490 -1.9711
  619MOL0     H85412   8.456   7.756   2.214  0.6987 -0.6917 -3.6355
  619MOL0     H85413   8.550   7.879   2.119  0.7369  2.3521  1.3488
  619MOL0     H85414   8.313   7.958   2.298  0.6859  0.8939  0.0800
  619MOL0     H85415   8.436   8.056   2.210  1.0700 -0.4323 -3.6792
  619MOL0     H85416   8.369   7.999   1.992  2.2191  1.8097  1.1401
  619MOL0     H85417   8.226   8.041   2.084  2.4164  2.2986 -1.2278
  619MOL0     H85418   8.186   7.629   1.975 -1.7824  0.2150 -0.9463
  619MOL0     H85419   8.823   7.572   2.298 -1.8217  0.6807 -0.7918
  619MOL0     H85420   9.121   7.530   2.314  0.6230  0.3630  0.4721
  619MOL0     H85421   9.120   7.456   2.475  0.9988  1.5579 -0.4611
  619MOL0     H85422   8.993   7.418   2.363  0.4570  0.0557 -0.8097
  620MOL0     O85423   5.742   9.921   9.546 -0.0542  0.3355 -0.1353
  620MOL0     C85424   5.683  10.020   9.509  0.1913 -0.1131  0.2869
  620MOL0     O85425   5.719  10.147   9.556  0.8937  0.3763  0.2701
  620MOL0     C85426   5.832  10.163   9.621 -0.1665 -0.2299 -1.1057
  620MOL0     C85427   5.839  10.186   9.765  0.9538 -0.1925  0.1308
  620MOL0     C85428   5.957  10.244   9.825  0.1430  0.0778  0.9399
  620MOL0     C85429   6.068  10.279   9.739 -0.5520 -0.0244 -0.9349
  620MOL0     O85430   6.183  10.344   9.776 -1.0097 -0.0580 -0.0221
  620MOL0     C85431   6.176  10.455   9.864  0.3153 -1.1977  0.0441
  620MOL0     C85432   6.234  10.583   9.793 -0.5380  0.1063 -0.3679
  620MOL0     C85433   6.376  10.557   9.738 -0.1837 -0.3898  0.2216
  620MOL0     C85434   6.467  10.682   9.731 -0.5590  0.0924  0.1462
  620MOL0     C85435   6.616  10.640   9.696 -0.7945 -0.1444  0.7341
  620MOL0     C85436   6.697  10.589   9.822 -0.7515 -0.1089 -0.4177
  620MOL0     C85437   6.838  10.544   9.780 -0.5962 -0.8848  0.0594
  620MOL0     C85438   6.910  10.456   9.895  0.9781 -0.2093  0.6575
  620MOL0     N85439   7.047  10.454   9.865 -0.2328  0.4201 -0.3506
  620MOL0     C85440   7.122  10.352   9.809 -0.5281  0.1877 -0.5779
  620MOL0     C85441   7.249  10.400   9.802 -0.1789 -0.1301 -0.9069
  620MOL0     C85442   7.356  10.317   9.742  0.7776  0.0403 -0.3202
  620MOL0     C85443   7.429  10.244   9.847 -0.3981 -0.1528 -0.6361
  620MOL0     C85444   7.535  10.166   9.790  0.1845  0.4323  0.0099
  620MOL0     C85445   7.613  10.094   9.896 -0.5120  0.0906  0.5189
  620MOL0     O85446   7.747  10.120   9.860 -0.6909 -0.1951  1.0604
  620MOL0     C85447   7.825  10.214   9.920 -0.8854  0.0124  0.3658
  620MOL0     C85448   7.789  10.343   9.957 -0.0994  0.7949 -0.8256
  620MOL0     C85449   7.876  10.423  10.013 -0.8616 -0.1495 -0.0587
  620MOL0     C85450   7.823  10.563  10.031 -0.0841 -0.5494  0.7636
  620MOL0     C85451   8.005  10.380  10.054  0.4107 -0.0018  0.2744
  620MOL0     C85452   8.104  10.458  10.135  0.3425  0.4121 -0.5818
  620MOL0     O85453   8.232  10.426  10.142  0.2247  0.7136  0.1875
  620MOL0     C85454   8.310  10.521  10.207 -0.2105 -0.1182 -0.2695
  620MOL0     C85455   8.312  10.514  10.344 -0.7857  0.7865 -0.2362
  620MOL0     C85456   8.407  10.603  10.406 -0.0861  0.7713  0.3378
  620MOL0     C85457   8.485  10.693  10.336 -0.3925 -0.0713 -0.5057
  620MOL0     O85458   8.581  10.768  10.398 -0.5341 -0.1334  0.2358
  620MOL0     C85459   8.530  10.841  10.509  0.1706  1.0545 -0.6304
  620MOL0     C85460   8.629  10.927  10.588 -0.2095 -0.0334  0.4994
  620MOL0     C85461   8.747  10.852  10.657  0.1058 -0.2696  0.2080
  620MOL0     C85462   8.777  10.922  10.790  0.7414 -0.6704  0.0987
  620MOL0     C85463   8.874  10.848  10.879 -0.7706 -0.3168 -0.3320
  620MOL0     C85464   9.011  10.850  10.811  0.1887  0.5423  0.6098
  620MOL0     C85465   9.122  10.804  10.898  0.7399  0.1682  0.4394
  620MOL0     C85466   9.254  10.881  10.868  0.4869  0.3332  0.2021
  620MOL0    Cl85467   9.320  10.846  10.701  0.3385 -0.0424 -0.1507
  620MOL0     C85468   8.467  10.703  10.196 -0.3985  0.1336 -0.0499
  620MOL0     C85469   8.392  10.615  10.132  0.8662  0.6359  0.2840
  620MOL0     O85470   8.050  10.541  10.210 -0.8416  0.3951 -0.4023
  620MOL0     C85471   8.041  10.249  10.010  0.0373  0.4518  0.2303
  620MOL0     C85472   7.951  10.164   9.952  0.4524 -0.4752 -0.4043
  620MOL0     N85473   7.249  10.533   9.831  0.2549  0.2499  0.2946
  620MOL0     N85474   7.130  10.565   9.869 -0.1427 -0.0604 -0.0230
  620MOL0     C85475   6.065  10.239   9.606  0.4539  0.1693 -0.4377
  620MOL0     C85476   5.944  10.182   9.545 -0.9618 -0.6685 -0.4392
  620MOL0     C85477   5.588  10.011   9.393 -0.0941 -0.5663  0.2641
  620MOL0     C85478   5.555  10.132   9.315 -0.8434  0.6322  0.1889
  620MOL0     C85479   5.475  10.123   9.195 -0.3266  0.6068 -0.3324
  620MOL0     C85480   5.431   9.997   9.155  0.6295  0.1507 -0.0926
  620MOL0     O85481   5.375   9.999   9.035 -0.0140 -0.1137  0.2328
  620MOL0     C85482   5.316   9.884   8.978  1.0233  0.3122 -0.1903
  620MOL0     C85483   5.217   9.923   8.867 -0.8158 -0.1106 -0.1525
  620MOL0     C85484   5.121  10.031   8.919  0.4489  0.1592 -0.7436
  620MOL0     C85485   5.041   9.969   9.040  0.0643 -0.5731  0.6745
  620MOL0     C85486   4.923  10.049   9.070 -0.5918  1.3166  0.7999
  620MOL0     C85487   4.828  10.108   9.102  0.1101  0.6538 -1.1803
  620MOL0     C85488   5.445   9.880   9.230  0.0542 -1.0310 -0.6290
  620MOL0     C85489   5.524   9.891   9.348 -0.4899  0.0096 -0.1407
  620MOL0     C85490   5.511   9.774   9.432 -0.7400  0.1654 -0.6091
  620MOL0     H85491   5.749  10.171   9.824  1.2003 -2.3482  0.0378
  620MOL0     H85492   5.961  10.263   9.931 -1.7128 -0.7921  1.2002
  620MOL0     H85493   6.221  10.434   9.961  0.8124  0.2850  0.1599
  620MOL0     H85494   6.072  10.473   9.894  1.0840 -0.7093  2.5969
  620MOL0     H85495   6.163  10.609   9.714  0.8278 -0.4487 -1.8334
  620MOL0     H85496   6.244  10.666   9.863  1.1664  3.0669 -3.8038
  620MOL0     H85497   6.417  10.486   9.811 -0.4685 -0.4572  0.3163
  620MOL0     H85498   6.367  10.502   9.643  1.3284  0.4820 -0.4579
  620MOL0     H85499   6.423  10.747   9.655 -3.7559 -1.9991  0.0051
  620MOL0     H85500   6.466  10.736   9.827  0.3252 -0.7415  0.6430
  620MOL0     H85501   6.657  10.728   9.645 -1.3155 -1.5097 -2.2476
  620MOL0     H85502   6.608  10.558   9.624  0.7843  1.1116 -0.9648
  620MOL0     H85503   6.707  10.682   9.878  1.5956  0.0230 -0.9790
  620MOL0     H85504   6.652  10.507   9.879  0.8939 -2.2726 -2.0523
  620MOL0     H85505   6.901  10.631   9.764  2.0832 -2.9308 -1.3740
  620MOL0     H85506   6.827  10.494   9.683 -1.2173  1.4916 -1.1594
  620MOL0     H85507   6.893  10.496   9.995 -0.6026 -0.6048  0.5770
  620MOL0     H85508   6.869  10.354   9.891  1.7261 -0.4895 -0.5310
  620MOL0     H85509   7.086  10.253   9.785  0.0259 -0.4343  1.0400
  620MOL0     H85510   7.432  10.380   9.695  1.9993  1.2393  2.9274
  620MOL0     H85511   7.316  10.236   9.680 -0.4718 -0.8085  1.4909
  620MOL0     H85512   7.471  10.310   9.922 -1.6631 -0.1391  0.0943
  620MOL0     H85513   7.368  10.167   9.895  0.9299 -0.0156  1.3436
  620MOL0     H85514   7.497  10.103   9.710 -0.0048  4.3714 -3.3428
  620MOL0     H85515   7.597  10.231   9.727 -0.0304 -2.0275 -2.9432
  620MOL0     H85516   7.606  10.127   9.999  1.0281  1.6279  0.1756
  620MOL0     H85517   7.609   9.984   9.890  2.9918 -0.1540  0.1742
  620MOL0     H85518   7.686  10.369   9.935 -0.3516 -0.0300 -0.6626
  620MOL0     H85519   7.908  10.631  10.039 -0.4484  0.1705 -1.0351
  620MOL0     H85520   7.759  10.576  10.118  1.1765 -0.2032  1.6676
  620MOL0     H85521   7.776  10.598   9.938  1.7779 -1.2376 -0.4999
  620MOL0     H85522   8.244  10.449  10.399  0.4150 -1.9631 -1.7614
  620MOL0     H85523   8.422  10.588  10.513 -1.1049  2.9292  0.8299
  620MOL0     H85524   8.448  10.906  10.476 -0.3759  0.1303 -1.1256
  620MOL0     H85525   8.493  10.769  10.583  1.0652  3.2703  2.1801
  620MOL0     H85526   8.654  11.013  10.525 -5.2121  0.4915 -1.2769
  620MOL0     H85527   8.561  10.969  10.663 -1.8055  0.5071 -1.1600
  620MOL0     H85528   8.833  10.845  10.591 -0.0200 -0.9364  0.1044
  620MOL0     H85529   8.711  10.751  10.681 -0.2011 -0.1707  0.1668
  620MOL0     H85530   8.683  10.931  10.845 -0.0768 -2.3200 -0.9321
  620MOL0     H85531   8.813  11.025  10.783  1.3461 -0.8616  0.3013
  620MOL0     H85532   8.872  10.902  10.974 -0.6214  0.7980 -0.9525
  620MOL0     H85533   8.840  10.744  10.891 -1.1613  0.0207  1.9633
  620MOL0     H85534   9.035  10.956  10.796  1.3003  0.1031 -0.9766
  620MOL0     H85535   9.022  10.792  10.719  2.7590 -1.5212  2.0749
  620MOL0     H85536   9.139  10.697  10.878  0.3657  0.4215 -1.4510
  620MOL0     H85537   9.097  10.820  11.003  0.6634  1.7408  0.1981
  620MOL0     H85538   9.327  10.852  10.944  1.9639 -2.6465 -2.1576
  620MOL0     H85539   9.237  10.989  10.875 -0.5574  0.2677 -0.9050
  620MOL0     H85540   8.530  10.769  10.138 -0.2889  0.3001  0.2536
  620MOL0     H85541   8.384  10.602  10.025 -2.2357 -1.6211  0.6471
  620MOL0     H85542   8.134  10.207  10.048 -0.9580 -2.4985 -0.3132
  620MOL0     H85543   7.981  10.060   9.947  0.5417 -0.5098  0.5730
  620MOL0     H85544   6.153  10.256   9.545  0.1373  1.7986 -0.4761
  620MOL0     H85545   5.956  10.160   9.439  4.0056 -0.4489 -0.1738
  620MOL0     H85546   5.592  10.229   9.347  1.3110  0.4990 -1.6529
  620MOL0     H85547   5.451  10.203   9.125 -2.9947 -2.4536 -3.2470
  620MOL0     H85548   5.393   9.815   8.942 -0.2715 -1.5009  0.4034
  620MOL0     H85549   5.254   9.837   9.055  0.6686  2.2803  0.7898
  620MOL0     H85550   5.170   9.836   8.818  0.2639 -1.5199  1.2210
  620MOL0     H85551   5.284   9.960   8.789 -0.8026  0.8602  0.3107
  620MOL0     H85552   5.173  10.121   8.952 -0.2430 -0.3427  1.9787
  620MOL0     H85553   5.052  10.061   8.839 -0.1362  1.6533  0.2815
  620MOL0     H85554   5.106   9.974   9.128  3.7461  0.0324 -1.8277
  620MOL0     H85555   5.018   9.863   9.034  2.6267 -1.3268  2.2880
  620MOL0     H85556   4.737  10.165   9.114  1.4206  2.5596  0.2667
  620MOL0     H85557   5.404   9.784   9.199  1.1038 -1.0687 -1.9929
  620MOL0     H85558   5.593   9.704   9.410 -2.0473 -1.1656 -1.3949
  620MOL0     H85559   5.513   9.806   9.536 -3.0727 -4.1213  1.0303
  620MOL0     H85560   5.422   9.712   9.417 -1.6778  1.5458 -0.8481
  621MOL0     O85561   4.588   4.364  10.760 -0.3723 -0.0495 -0.0418
  621MOL0     C85562   4.501   4.327  10.686  0.5436  0.0649 -0.3749
  621MOL0     O85563   4.519   4.274  10.562  0.8722 -0.0035  0.4880
  621MOL0     C85564   4.639   4.229  10.520 -0.0853  0.0858  0.4080
  621MOL0     C85565   4.727   4.319  10.469 -0.6007  0.0675 -0.1456
  621MOL0     C85566   4.848   4.278  10.410  0.4016 -0.1751  0.6965
  621MOL0     C85567   4.886   4.140  10.404 -0.5296  0.2068 -0.4311
  621MOL0     O85568   5.008   4.107  10.360  0.8879 -0.3407  1.1798
  621MOL0     C85569   5.042   3.971  10.333 -0.9683 -0.6327  0.3966
  621MOL0     C85570   5.164   3.979  10.240  0.0681 -0.4400 -0.2705
  621MOL0     C85571   5.276   4.081  10.277 -0.5080 -0.0085 -0.1661
  621MOL0     C85572   5.376   4.062  10.168 -0.2021 -0.6224  0.5660
  621MOL0     C85573   5.501   4.139  10.205 -0.2483  0.5499  0.1376
  621MOL0     C85574   5.624   4.077  10.130  0.0789  0.0634  0.1967
  621MOL0     C85575   5.608   4.088   9.975 -0.3079 -0.2972  0.5548
  621MOL0     C85576   5.726   4.012   9.911  0.1457 -0.8106  0.3386
  621MOL0     N85577   5.857   4.086   9.898  0.8628 -0.6733 -0.3372
  621MOL0     C85578   5.953   4.089   9.994 -0.4311  0.8162  0.4203
  621MOL0     C85579   6.058   4.158   9.941  0.4451  0.4224  0.4706
  621MOL0     C85580   6.185   4.179  10.014 -0.6676 -0.5149  0.5880
  621MOL0     C85581   6.299   4.174   9.921  0.0624 -0.0716 -0.5535
  621MOL0     C85582   6.334   4.308   9.863  0.5516 -1.0563  0.8091
  621MOL0     C85583   6.471   4.326   9.800  0.6059 -0.3439  0.2767
  621MOL0     O85584   6.510   4.189   9.751  0.2667  0.1203  0.2386
  621MOL0     C85585   6.638   4.177   9.718 -0.0911 -0.0767  0.1054
  621MOL0     C85586   6.676   4.152   9.589 -0.0787  0.1574  1.1273
  621MOL0     C85587   6.814   4.128   9.558 -0.0179 -0.2416 -0.0213
  621MOL0     C85588   6.845   4.106   9.407 -0.7702  0.3055 -0.2299
  621MOL0     C85589   6.910   4.135   9.656  0.1338 -0.6572 -0.6379
  621MOL0     C85590   7.059   4.129   9.630  0.0633 -0.1952 -0.1912
  621MOL0     O85591   7.137   4.158   9.735  0.6200 -0.1842 -0.3450
  621MOL0     C85592   7.272   4.139   9.723  0.5434 -0.4375 -0.2257
  621MOL0     C85593   7.350   4.258   9.745  0.3608  1.3423 -0.1551
  621MOL0     C85594   7.488   4.249   9.738  0.8143 -0.2381 -0.3968
  621MOL0     C85595   7.555   4.129   9.705  0.1226 -1.3007  0.8198
  621MOL0     O85596   7.692   4.107   9.698  0.4039 -0.0529 -0.6305
  621MOL0     C85597   7.780   4.212   9.730 -0.1351  0.0840 -0.5064
  621MOL0     C85598   7.922   4.153   9.738  0.2558  0.4007 -0.6624
  621MOL0     C85599   8.036   4.252   9.726  0.0346 -0.1047 -0.0911
  621MOL0     C85600   8.168   4.173   9.741  1.5959  0.9371  0.7043
  621MOL0     C85601   8.275   4.275   9.703  0.1579 -0.0855  1.0785
  621MOL0     C85602   8.410   4.198   9.707 -0.5876  0.2561  0.7391
  621MOL0     C85603   8.526   4.290   9.663 -0.5801  0.3178  0.1676
  621MOL0     C85604   8.506   4.377   9.538  0.8712  0.3704  0.6273
  621MOL0    Cl85605   8.648   4.461   9.482 -0.0801 -0.3819  0.1818
  621MOL0     C85606   7.474   4.018   9.686 -0.4359  0.0859  0.1379
  621MOL0     C85607   7.332   4.020   9.695 -0.6088 -0.5311  0.0547
  621MOL0     O85608   7.094   4.094   9.518  0.0752  0.2297  0.4023
  621MOL0     C85609   6.873   4.179   9.781  0.4442  0.0437 -0.4386
  621MOL0     C85610   6.737   4.194   9.810  0.5879  0.4384 -0.2818
  621MOL0     N85611   6.013   4.217   9.826 -0.5519  1.0674  0.5329
  621MOL0     N85612   5.894   4.171   9.802  0.1625 -0.3116  0.3415
  621MOL0     C85613   4.796   4.042  10.459 -0.2601 -1.1602 -0.0421
  621MOL0     C85614   4.671   4.091  10.517 -0.0839  0.4460  0.6769
  621MOL0     C85615   4.365   4.303  10.732 -0.5931  0.3441  0.7627
  621MOL0     C85616   4.309   4.174  10.711  0.0847  0.4903 -0.5669
  621MOL0     C85617   4.171   4.152  10.747  0.2886  0.5773  0.5155
  621MOL0     C85618   4.091   4.243  10.802  0.1591 -0.1996  0.3810
  621MOL0     O85619   3.961   4.209  10.828 -0.3023 -0.3216 -0.2165
  621MOL0     C85620   3.871   4.318  10.877 -0.4143 -0.2955 -0.6905
  621MOL0     C85621   3.728   4.268  10.870 -0.6449  0.3357 -0.7160
  621MOL0     C85622   3.674   4.254  10.729  0.1202  0.3700 -0.6099
  621MOL0     C85623   3.526   4.263  10.717 -0.9011 -0.0887  0.1759
  621MOL0     C85624   3.452   4.173  10.809  0.1790  0.4198 -0.0987
  621MOL0     C85625   3.393   4.100  10.895 -0.6510  0.3842  0.3440
  621MOL0     C85626   4.148   4.368  10.828 -0.5936  0.5229 -0.2968
  621MOL0     C85627   4.284   4.396  10.792  0.5317  0.0509 -0.5426
  621MOL0     C85628   4.324   4.543  10.805  0.4964  0.0865  0.2501
  621MOL0     H85629   4.692   4.421  10.465 -1.6698 -0.2665  0.3740
  621MOL0     H85630   4.912   4.355  10.369  0.9447 -0.8480  0.2696
  621MOL0     H85631   4.963   3.910  10.288 -0.5651  0.2548 -1.6445
  621MOL0     H85632   5.064   3.916  10.425 -2.1043 -0.6831  0.6556
  621MOL0     H85633   5.197   3.876  10.230  1.9451  0.2289 -1.5706
  621MOL0     H85634   5.118   4.008  10.145 -3.0003  0.8067  1.4344
  621MOL0     H85635   5.246   4.185  10.292 -1.1712  0.3537 -3.2580
  621MOL0     H85636   5.311   4.051  10.376 -3.0374 -0.5771  0.6279
  621MOL0     H85637   5.397   3.955  10.157  0.8002 -0.4404  0.6146
  621MOL0     H85638   5.320   4.092  10.079 -3.8287 -1.0093  2.5195
  621MOL0     H85639   5.523   4.140  10.312  0.8029 -2.8005  0.0529
  621MOL0     H85640   5.483   4.243  10.175 -0.6618  0.6258  0.6405
  621MOL0     H85641   5.708   4.140  10.159  0.1672  0.1248 -0.1951
  621MOL0     H85642   5.633   3.974  10.165  0.7875  0.5238  1.4520
  621MOL0     H85643   5.592   4.187   9.933 -0.2280 -1.1202 -1.5074
  621MOL0     H85644   5.521   4.028   9.946  1.0076 -2.3175  0.5502
  621MOL0     H85645   5.747   3.927   9.976 -1.8759 -1.3914  0.2876
  621MOL0     H85646   5.697   3.981   9.811 -2.9507 -1.8662  1.4608
  621MOL0     H85647   5.954   4.025  10.082 -0.4998  0.1226 -0.0788
  621MOL0     H85648   6.208   4.102  10.089  1.8880  0.8456  1.3326
  621MOL0     H85649   6.184   4.275  10.067 -2.4490 -0.8133  1.1567
  621MOL0     H85650   6.387   4.138   9.976  0.2765  1.2075 -0.0335
  621MOL0     H85651   6.265   4.103   9.845 -0.3651  0.5805 -0.9836
  621MOL0     H85652   6.254   4.336   9.794  1.7411 -1.2837 -0.7499
  621MOL0     H85653   6.336   4.374   9.950  0.6009 -0.7072  0.5429
  621MOL0     H85654   6.462   4.383   9.707  1.6758 -2.3544 -1.1334
  621MOL0     H85655   6.529   4.372   9.880 -1.7310  0.9776  1.3109
  621MOL0     H85656   6.614   4.153   9.501  0.3836 -1.9178  0.7418
  621MOL0     H85657   6.872   4.001   9.390 -2.0983 -0.1292  0.2458
  621MOL0     H85658   6.920   4.175   9.368  1.0770 -0.9576  0.9082
  621MOL0     H85659   6.753   4.111   9.348  0.0897 -1.5293 -1.8312
  621MOL0     H85660   7.290   4.348   9.753 -2.7430 -0.2213 -3.1678
  621MOL0     H85661   7.541   4.342   9.757 -0.3684  0.2338  0.6505
  621MOL0     H85662   7.773   4.286   9.650  1.1242  0.6915 -0.0898
  621MOL0     H85663   7.760   4.267   9.822  2.5236  1.6165 -0.7215
  621MOL0     H85664   7.946   4.096   9.828  2.6658  2.8775  0.3931
  621MOL0     H85665   7.917   4.077   9.659 -2.6447 -1.2453  0.9262
  621MOL0     H85666   8.026   4.329   9.803 -1.3750 -3.1908  3.0531
  621MOL0     H85667   8.034   4.294   9.625 -0.0090 -2.0348 -0.9372
  621MOL0     H85668   8.176   4.093   9.667  0.7011  0.0135  1.5658
  621MOL0     H85669   8.182   4.123   9.838  2.2269 -2.9111 -1.1631
  621MOL0     H85670   8.263   4.309   9.600 -2.3131 -0.3022  1.2374
  621MOL0     H85671   8.267   4.358   9.775  0.9064  0.3331  0.6882
  621MOL0     H85672   8.400   4.109   9.644 -1.6371 -0.1624  1.4769
  621MOL0     H85673   8.434   4.160   9.806 -2.3932 -1.3020  0.6433
  621MOL0     H85674   8.625   4.244   9.663 -0.1495  1.1912 -0.9658
  621MOL0     H85675   8.538   4.366   9.741 -0.3182  0.0762  0.3665
  621MOL0     H85676   8.421   4.444   9.554 -1.0727 -1.3402 -1.6098
  621MOL0     H85677   8.476   4.309   9.457 -0.0339 -0.5325  1.6841
  621MOL0     H85678   7.508   3.916   9.666 -2.4469 -0.2615 -1.9261
  621MOL0     H85679   7.265   3.936   9.686 -1.7369  0.0676  2.3902
  621MOL0     H85680   6.947   4.198   9.858 -1.4358  0.1823  1.4023
  621MOL0     H85681   6.707   4.220   9.910 -0.7787  0.6053 -0.7180
  621MOL0     H85682   4.824   3.938  10.464  0.8953 -0.8289  0.7955
  621MOL0     H85683   4.610   4.019  10.570 -1.0622 -1.1331 -2.3318
  621MOL0     H85684   4.365   4.088  10.676  1.8348  1.0716  0.6993
  621MOL0     H85685   4.120   4.057  10.734 -1.9988  0.8708  5.3130
  621MOL0     H85686   3.910   4.338  10.977 -1.2770  0.4379 -0.4937
  621MOL0     H85687   3.891   4.401  10.809  2.3753  0.6423  1.1216
  621MOL0     H85688   3.656   4.321  10.933 -3.2988 -0.9187 -2.4908
  621MOL0     H85689   3.724   4.168  10.915  0.0170 -0.6505 -2.7529
  621MOL0     H85690   3.712   4.327  10.657 -3.7142  2.9328 -0.3315
  621MOL0     H85691   3.710   4.154  10.702  1.8249  0.5852  0.6850
  621MOL0     H85692   3.491   4.246  10.615 -1.7558  1.2002  0.2282
  621MOL0     H85693   3.489   4.365  10.730 -2.6016 -0.7924  1.2264
  621MOL0     H85694   3.342   4.049  10.975 -1.7818  1.0299  0.0634
  621MOL0     H85695   4.082   4.449  10.858 -1.5700 -0.6420  0.7874
  621MOL0     H85696   4.298   4.601  10.716  0.6344 -0.5753 -0.2254
  621MOL0     H85697   4.265   4.586  10.887 -2.4400 -2.9179 -0.0519
  621MOL0     H85698   4.432   4.549  10.824 -0.0427 -1.2970  5.1014
  622MOL0     O85699   8.093  10.437   5.147  0.0955  0.2949 -0.2694
  622MOL0     C85700   8.172  10.513   5.190  0.5325 -0.0965 -0.0430
  622MOL0     O85701   8.248  10.498   5.304  0.2454 -0.3668  0.0134
  622MOL0     C85702   8.245  10.387   5.386 -0.4405  0.7565  0.8550
  622MOL0     C85703   8.143  10.290   5.390  0.2509  0.0751  0.0735
  622MOL0     C85704   8.156  10.170   5.463 -0.3390  0.3985  0.1048
  622MOL0     C85705   8.280  10.142   5.525  0.3642 -0.7425 -0.5677
  622MOL0     O85706   8.300  10.026   5.585 -0.3108 -0.8104 -1.5633
  622MOL0     C85707   8.191   9.928   5.582 -1.3710  0.4464  0.4309
  622MOL0     C85708   8.250   9.785   5.616 -0.3488  0.1538 -0.0178
  622MOL0     C85709   8.275   9.762   5.769 -0.6829  1.1784  0.9238
  622MOL0     C85710   8.283   9.612   5.814 -0.1447  0.6269  1.0578
  622MOL0     C85711   8.309   9.592   5.963 -0.4299 -0.0173 -0.4800
  622MOL0     C85712   8.322   9.446   6.016 -0.7855  1.1842  0.8134
  622MOL0     C85713   8.348   9.435   6.164 -0.1779 -0.4269  0.1456
  622MOL0     C85714   8.370   9.298   6.231 -0.2831  0.0971  0.0548
  622MOL0     N85715   8.498   9.244   6.194  0.0331  0.0992 -1.2316
  622MOL0     C85716   8.616   9.294   6.255  0.0990 -0.2052 -0.3701
  622MOL0     C85717   8.720   9.247   6.179  0.6049  0.2889 -0.3553
  622MOL0     C85718   8.870   9.271   6.194 -0.3234 -0.1010  0.2734
  622MOL0     C85719   8.887   9.405   6.263 -0.7204  0.6575  0.1195
  622MOL0     C85720   9.030   9.433   6.305  0.0669 -0.1187  0.1478
  622MOL0     C85721   9.056   9.558   6.397  0.3625  0.2413  1.0306
  622MOL0     O85722   9.120   9.549   6.527 -0.4769  0.1412  0.1445
  622MOL0     C85723   9.258   9.529   6.529  0.2072 -0.3750 -0.0943
  622MOL0     C85724   9.320   9.546   6.654  0.6589 -0.0521 -0.2975
  622MOL0     C85725   9.456   9.555   6.670  0.5171 -0.2494  0.3637
  622MOL0     C85726   9.501   9.590   6.802  0.1404 -0.3988  0.2923
  622MOL0     C85727   9.540   9.548   6.555 -0.0912 -0.2919  1.2984
  622MOL0     C85728   9.690   9.565   6.561 -0.3843  0.1326  0.0463
  622MOL0     O85729   9.739   9.632   6.448 -0.5187  0.1900  0.1100
  622MOL0     C85730   9.866   9.678   6.457 -0.1915  0.5594 -1.4502
  622MOL0     C85731   9.956   9.644   6.363  0.3678 -0.4929 -0.2559
  622MOL0     C85732  10.087   9.690   6.365 -1.2498  0.3254  0.8483
  622MOL0     C85733  10.131   9.770   6.465  0.0317  0.6460  1.3058
  622MOL0     O85734  10.260   9.819   6.457 -0.3788 -0.3935 -0.1291
  622MOL0     C85735  10.297   9.952   6.505  0.1028 -0.4915  0.0298
  622MOL0     C85736  10.418   9.984   6.434 -0.1623 -0.0845  0.3467
  622MOL0     C85737  10.498  10.088   6.499 -0.0474 -0.3541 -0.2284
  622MOL0     C85738  10.635  10.102   6.420  0.0222  0.6633  0.8583
  622MOL0     C85739  10.707  10.232   6.465 -0.2605 -1.4823  0.7148
  622MOL0     C85740  10.857  10.225   6.442  1.1354 -0.2129 -1.2931
  622MOL0     C85741  10.914  10.340   6.522  0.1160 -0.7392 -0.2894
  622MOL0     C85742  11.067  10.365   6.501 -1.1789  1.2216 -0.3028
  622MOL0    Cl85743  11.093  10.368   6.326 -0.0135  0.4370  0.2897
  622MOL0     C85744  10.035   9.813   6.560 -0.6587 -0.0264 -0.0968
  622MOL0     C85745   9.905   9.774   6.557 -0.1754  0.4847  0.3894
  622MOL0     O85746   9.762   9.517   6.655  0.4834  0.1338  0.4172
  622MOL0     C85747   9.478   9.528   6.435 -0.0822  0.1677  0.4436
  622MOL0     C85748   9.340   9.515   6.419  0.6890 -0.0328  0.0831
  622MOL0     N85749   8.662   9.161   6.080  0.2692  0.0283 -0.6485
  622MOL0     N85750   8.531   9.163   6.092  0.4072  0.1732 -0.4680
  622MOL0     C85751   8.381  10.244   5.530  0.0244 -0.0260  0.5933
  622MOL0     C85752   8.364  10.360   5.464  0.2723  0.8901  0.6491
  622MOL0     C85753   8.187  10.646   5.120  0.1726  0.7873  0.1218
  622MOL0     C85754   8.084  10.697   5.036 -0.2082 -0.6340  0.7541
  622MOL0     C85755   8.095  10.819   4.962  0.2069  0.7744  0.4500
  622MOL0     C85756   8.220  10.889   4.971  0.1854  0.2702  1.6224
  622MOL0     O85757   8.233  10.993   4.879 -0.1417 -0.0545  0.3389
  622MOL0     C85758   8.327  11.105   4.911  0.3261  0.4067  0.3019
  622MOL0     C85759   8.302  11.177   5.050 -0.5520  0.2102 -0.1562
  622MOL0     C85760   8.176  11.254   5.045 -0.0719  0.8872 -0.2785
  622MOL0     C85761   8.170  11.348   5.164  0.4915  0.2750 -0.2946
  622MOL0     C85762   8.092  11.466   5.128 -0.2525 -0.2200  0.5809
  622MOL0     C85763   8.017  11.556   5.094  0.3835 -0.0840 -1.4338
  622MOL0     C85764   8.325  10.837   5.051  0.5781  0.0114  0.9695
  622MOL0     C85765   8.315  10.715   5.115 -0.0643  0.7600  0.0030
  622MOL0     C85766   8.442  10.673   5.192  0.2380 -0.0740  0.3620
  622MOL0     H85767   8.046  10.321   5.354  1.9385  1.6941 -3.5350
  622MOL0     H85768   8.062  10.116   5.468 -0.2061 -0.1634 -2.3017
  622MOL0     H85769   8.150   9.920   5.481 -0.3758 -0.8416  0.1005
  622MOL0     H85770   8.121   9.966   5.657 -1.2009 -0.7991  1.2661
  622MOL0     H85771   8.176   9.710   5.585 -0.4549 -0.0829  0.7865
  622MOL0     H85772   8.348   9.770   5.571  0.1725  1.7469  0.5370
  622MOL0     H85773   8.371   9.805   5.798  1.4172 -1.4300 -1.5929
  622MOL0     H85774   8.186   9.803   5.818 -2.2563 -1.7333  0.7441
  622MOL0     H85775   8.188   9.563   5.789  0.9649 -1.1560  0.0775
  622MOL0     H85776   8.368   9.567   5.762  0.5464  3.6914 -0.7178
  622MOL0     H85777   8.239   9.643   6.030  0.0201 -0.1643  0.1197
  622MOL0     H85778   8.402   9.649   5.977 -0.2617  0.3865 -2.8306
  622MOL0     H85779   8.231   9.390   5.995 -0.1796  1.2756 -2.5674
  622MOL0     H85780   8.404   9.403   5.958 -3.8440  0.2120 -3.1717
  622MOL0     H85781   8.266   9.484   6.219  1.2002  1.4189  0.6629
  622MOL0     H85782   8.431   9.501   6.190 -2.8319  2.5369  1.9845
  622MOL0     H85783   8.364   9.309   6.339  1.2085  0.1125  0.1610
  622MOL0     H85784   8.290   9.228   6.205 -0.1767 -0.1778  0.4613
  622MOL0     H85785   8.635   9.368   6.331 -0.3180  0.0882 -0.5471
  622MOL0     H85786   8.904   9.279   6.090 -0.8089 -1.1135  0.0244
  622MOL0     H85787   8.911   9.184   6.246 -0.0894  0.0854  0.4018
  622MOL0     H85788   8.853   9.485   6.196 -1.1153  0.3893 -0.0014
  622MOL0     H85789   8.842   9.403   6.362  2.3906  1.8557  1.7227
  622MOL0     H85790   9.078   9.346   6.352  0.3314 -0.1677 -0.2040
  622MOL0     H85791   9.087   9.442   6.212  1.5545 -1.5016  0.8529
  622MOL0     H85792   9.120   9.627   6.341 -1.2139  2.2148  1.5284
  622MOL0     H85793   8.956   9.602   6.400  0.8440  2.1330 -3.1258
  622MOL0     H85794   9.252   9.568   6.736 -0.4470  2.2706 -1.7320
  622MOL0     H85795   9.414   9.594   6.869  0.8712  2.6932  1.2038
  622MOL0     H85796   9.554   9.685   6.808  1.1437 -0.7544 -1.9748
  622MOL0     H85797   9.565   9.507   6.835  0.8564  0.6139  1.5611
  622MOL0     H85798   9.924   9.570   6.290  0.2529  0.7985 -1.5432
  622MOL0     H85799  10.147   9.667   6.278 -0.8473  0.3415  1.1201
  622MOL0     H85800  10.220  10.027   6.486  1.4046  0.8980  0.0169
  622MOL0     H85801  10.311   9.940   6.613 -0.2711  3.2814  0.6352
  622MOL0     H85802  10.475   9.891   6.443  0.4199  0.0827 -1.1609
  622MOL0     H85803  10.390  10.000   6.329 -1.6294 -2.7658  0.2366
  622MOL0     H85804  10.523  10.066   6.603 -0.1109 -0.1569 -0.1719
  622MOL0     H85805  10.449  10.185   6.502  0.4784 -0.0834  2.9294
  622MOL0     H85806  10.611  10.096   6.314 -0.0224 -0.4763  0.9148
  622MOL0     H85807  10.703  10.017   6.432 -0.7954  0.1076  1.8394
  622MOL0     H85808  10.662  10.317   6.412  2.5634 -0.9936 -1.0987
  622MOL0     H85809  10.693  10.248   6.572  4.4877  2.4954  1.0749
  622MOL0     H85810  10.877  10.239   6.336 -1.1898 -0.6757 -1.8573
  622MOL0     H85811  10.905  10.131   6.473 -0.0665 -0.9092 -1.4793
  622MOL0     H85812  10.889  10.327   6.627 -1.1711  2.1790 -0.1626
  622MOL0     H85813  10.873  10.429   6.472 -0.1364 -0.8651 -0.3118
  622MOL0     H85814  11.130  10.287   6.543 -1.0704  1.6423  0.3336
  622MOL0     H85815  11.092  10.458   6.554 -0.5746  0.7124  0.3139
  622MOL0     H85816  10.067   9.891   6.629 -1.0454 -0.1223  0.1919
  622MOL0     H85817   9.828   9.792   6.631 -2.3199 -2.2302 -1.0170
  622MOL0     H85818   9.545   9.531   6.349 -0.9387  1.2176 -0.2161
  622MOL0     H85819   9.291   9.506   6.323 -4.2239 -2.2107  2.4412
  622MOL0     H85820   8.474  10.236   5.584  2.4548 -0.8582 -3.3214
  622MOL0     H85821   8.453  10.421   5.476  2.1709 -1.3909 -0.8355
  622MOL0     H85822   7.988  10.646   5.038 -0.0684 -0.9053  0.6369
  622MOL0     H85823   8.006  10.850   4.909  2.2119  3.1738 -1.7975
  622MOL0     H85824   8.429  11.068   4.920 -0.2253 -1.2379  0.0897
  622MOL0     H85825   8.319  11.187   4.839  2.3742  0.6779  0.3197
  622MOL0     H85826   8.380  11.252   5.064  2.3051 -2.3225 -1.4176
  622MOL0     H85827   8.309  11.104   5.131 -4.1607 -0.9640 -0.7324
  622MOL0     H85828   8.166  11.316   4.956 -3.3525 -2.3601 -2.4411
  622MOL0     H85829   8.090  11.187   5.048  0.6588 -0.0821 -0.6959
  622MOL0     H85830   8.271  11.377   5.194  0.5590 -0.0960 -0.1481
  622MOL0     H85831   8.123  11.300   5.251  0.6092  0.3016 -0.2162
  622MOL0     H85832   7.952  11.639   5.073  1.7035  1.1875 -0.6670
  622MOL0     H85833   8.413  10.899   5.056  0.8906 -0.4713  1.6852
  622MOL0     H85834   8.464  10.566   5.186 -0.3268 -0.2103  0.7064
  622MOL0     H85835   8.536  10.711   5.150  2.0799 -2.5137  1.9756
  622MOL0     H85836   8.433  10.706   5.296  1.3271  0.7848  0.2094
  623MOL0     O85837   0.964  11.052   7.938 -0.5369 -0.7417 -0.1736
  623MOL0     C85838   0.995  10.961   7.866 -0.6407  0.1120  0.5807
  623MOL0     O85839   1.123  10.906   7.852  0.6693 -0.2431  0.5203
  623MOL0     C85840   1.221  10.982   7.903 -0.7728 -0.2086 -0.2675
  623MOL0     C85841   1.271  11.102   7.856 -0.7374 -0.3795  0.1590
  623MOL0     C85842   1.379  11.168   7.912  0.8912  0.0500 -0.1872
  623MOL0     C85843   1.454  11.116   8.018 -0.0646  0.1927 -0.3328
  623MOL0     O85844   1.563  11.189   8.060  0.3267  0.1718  0.5685
  623MOL0     C85845   1.673  11.097   8.075 -0.9484 -0.3677  0.8347
  623MOL0     C85846   1.811  11.169   8.119 -0.6960  0.1374  0.2984
  623MOL0     C85847   1.798  11.235   8.257  0.4559 -0.3275 -0.3215
  623MOL0     C85848   1.931  11.321   8.291  0.5832  0.4982 -0.0730
  623MOL0     C85849   1.943  11.387   8.425 -0.6893 -0.3209  0.2487
  623MOL0     C85850   2.084  11.453   8.439  0.5090  0.5132 -0.9675
  623MOL0     C85851   2.125  11.469   8.584 -0.1924 -0.1637 -0.7609
  623MOL0     C85852   2.186  11.340   8.641  0.3225  0.4501  0.2298
  623MOL0     N85853   2.323  11.315   8.595  0.0982 -0.0579  0.3762
  623MOL0     C85854   2.383  11.190   8.575 -0.3848 -0.0378  0.6472
  623MOL0     C85855   2.509  11.224   8.535  0.2410  0.5281  0.2539
  623MOL0     C85856   2.628  11.127   8.519 -1.0684  0.3434 -0.4485
  623MOL0     C85857   2.637  11.041   8.650 -0.3561  0.1492  0.1803
  623MOL0     C85858   2.720  10.918   8.621  0.1759 -0.4382  0.4650
  623MOL0     C85859   2.784  10.852   8.739 -0.1527 -0.2598  0.1774
  623MOL0     O85860   2.690  10.750   8.786  0.2893  0.1197  0.3273
  623MOL0     C85861   2.713  10.619   8.752  0.4732 -0.1380  0.0157
  623MOL0     C85862   2.635  10.523   8.827 -0.2808 -0.6679 -0.3514
  623MOL0     C85863   2.655  10.386   8.808 -0.4614 -0.4794  0.8431
  623MOL0     C85864   2.556  10.298   8.880 -0.2100  0.7353  0.1034
  623MOL0     C85865   2.754  10.339   8.720 -0.0026  0.8749 -0.3115
  623MOL0     C85866   2.790  10.199   8.687 -0.0107 -1.3734  0.1309
  623MOL0     O85867   2.839  10.180   8.566 -0.5135  0.5732  0.3018
  623MOL0     C85868   2.877  10.050   8.523 -0.6754 -1.8819  0.0409
  623MOL0     C85869   2.777   9.946   8.504 -0.0695  0.0474 -0.4340
  623MOL0     C85870   2.813   9.819   8.468  0.0244  0.2149  0.0167
  623MOL0     C85871   2.943   9.788   8.425 -0.2797 -0.9081  0.0252
  623MOL0     O85872   2.969   9.670   8.365 -0.4075  0.2022 -0.2695
  623MOL0     C85873   3.047   9.581   8.451  0.6158  0.3134 -0.6979
  623MOL0     C85874   3.002   9.435   8.415  0.6799  0.2882 -0.1053
  623MOL0     C85875   3.034   9.392   8.270  0.6358  0.5229 -0.6904
  623MOL0     C85876   3.180   9.428   8.235  0.7047 -0.7853 -0.9002
  623MOL0     C85877   3.219   9.357   8.109  0.0254  0.4123 -0.1718
  623MOL0     C85878   3.370   9.380   8.091 -0.3212 -0.2097 -0.6310
  623MOL0     C85879   3.469   9.292   8.171 -0.5867  0.2799 -1.1577
  623MOL0     C85880   3.433   9.139   8.162 -0.1681  0.1716 -0.5283
  623MOL0    Cl85881   3.539   9.057   8.278 -0.2548  0.2066 -0.4789
  623MOL0     C85882   3.037   9.887   8.439 -0.2212 -0.1650 -0.6962
  623MOL0     C85883   3.006  10.015   8.486  0.4772  0.3528 -0.4243
  623MOL0     O85884   2.768  10.116   8.768  0.3085  0.0368  0.3899
  623MOL0     C85885   2.825  10.436   8.644  0.2333  0.1943 -0.3625
  623MOL0     C85886   2.801  10.572   8.651 -1.1019 -0.1808  0.3952
  623MOL0     N85887   2.514  11.358   8.516 -1.0031 -0.0798  0.0761
  623MOL0     N85888   2.408  11.414   8.554  0.2628 -0.1747  0.6342
  623MOL0     C85889   1.401  10.999   8.076 -0.5991  0.0463  0.6865
  623MOL0     C85890   1.296  10.930   8.021 -0.2023 -0.0596  0.4319
  623MOL0     C85891   0.887  10.910   7.777  0.0484  1.4060 -0.5314
  623MOL0     C85892   0.931  10.841   7.654 -0.1065  0.8100 -0.1776
  623MOL0     C85893   0.829  10.786   7.575  0.1193 -0.0236  0.7144
  623MOL0     C85894   0.696  10.771   7.611 -0.2870 -0.2481 -0.3836
  623MOL0     O85895   0.612  10.701   7.535  0.3893  0.2088 -0.0824
  623MOL0     C85896   0.487  10.759   7.513 -0.1273 -0.0362 -0.4752
  623MOL0     C85897   0.365  10.692   7.565 -0.4626  0.1633 -0.2366
  623MOL0     C85898   0.233  10.779   7.560 -0.0888  0.3058 -0.0551
  623MOL0     C85899   0.215  10.865   7.687 -0.0944  0.0425 -0.1194
  623MOL0     C85900   0.288  10.994   7.690  0.1180  0.4895  0.0275
  623MOL0     C85901   0.355  11.094   7.708  0.0574 -0.4259 -0.3050
  623MOL0     C85902   0.652  10.828   7.727 -0.2142 -0.3634 -0.6968
  623MOL0     C85903   0.745  10.905   7.808  0.2845  1.2577  0.0507
  623MOL0     C85904   0.683  10.958   7.937  0.0888  0.2691 -0.4711
  623MOL0     H85905   1.229  11.153   7.770 -2.6306  0.0071  1.2517
  623MOL0     H85906   1.414  11.257   7.860 -0.2704 -0.4678 -1.9441
  623MOL0     H85907   1.685  11.032   7.988 -1.7521 -0.3158  0.6735
  623MOL0     H85908   1.651  11.031   8.160  0.2049 -3.3965 -1.0294
  623MOL0     H85909   1.891  11.095   8.134 -1.3990 -0.7006  0.0166
  623MOL0     H85910   1.842  11.245   8.047 -1.6182  1.0095  0.8004
  623MOL0     H85911   1.705  11.290   8.243  0.5728  0.0969  0.5468
  623MOL0     H85912   1.784  11.160   8.335 -1.8985 -1.3437 -1.6048
  623MOL0     H85913   2.008  11.245   8.275 -0.6440 -0.2620 -3.4011
  623MOL0     H85914   1.942  11.391   8.208  3.4550 -0.4099 -0.5706
  623MOL0     H85915   1.928  11.311   8.503  3.5068  0.6930  2.2965
  623MOL0     H85916   1.861  11.459   8.429 -3.0970 -2.7831 -0.9307
  623MOL0     H85917   2.156  11.388   8.388 -1.8767 -2.0702 -1.2427
  623MOL0     H85918   2.078  11.543   8.376  0.5685  0.5647 -0.9014
  623MOL0     H85919   2.039  11.495   8.646  1.6764 -2.6365  3.2857
  623MOL0     H85920   2.196  11.552   8.593 -0.9569  0.4388 -0.1809
  623MOL0     H85921   2.198  11.360   8.747  1.2649 -0.8332  0.4005
  623MOL0     H85922   2.114  11.259   8.623  0.3521  0.2127  1.1248
  623MOL0     H85923   2.342  11.092   8.598  0.5083 -1.1688 -2.1845
  623MOL0     H85924   2.716  11.192   8.513 -1.7052  1.3039  0.2897
  623MOL0     H85925   2.625  11.072   8.425  0.3322 -2.2156  0.8983
  623MOL0     H85926   2.678  11.093   8.738  2.4975  1.7288 -1.9301
  623MOL0     H85927   2.537  11.005   8.676  1.1230 -4.4372  0.3345
  623MOL0     H85928   2.654  10.844   8.574 -0.3004 -0.4651  1.1643
  623MOL0     H85929   2.805  10.941   8.556  0.7859 -1.9610  0.6866
  623MOL0     H85930   2.884  10.813   8.716  1.3915  3.3385  0.2562
  623MOL0     H85931   2.802  10.927   8.816 -1.7810 -0.0176  0.3442
  623MOL0     H85932   2.571  10.560   8.907  1.1313  0.9761  0.0606
  623MOL0     H85933   2.540  10.206   8.825  3.3029 -0.9513  1.5665
  623MOL0     H85934   2.461  10.347   8.903 -0.6071 -0.3801  0.9239
  623MOL0     H85935   2.602  10.277   8.977  0.6029  1.0117 -0.2111
  623MOL0     H85936   2.671   9.964   8.515 -0.6136 -2.2616 -1.3580
  623MOL0     H85937   2.743   9.737   8.460  0.2794 -0.2128  1.7536
  623MOL0     H85938   3.155   9.597   8.449  0.2740  4.1896  1.5152
  623MOL0     H85939   3.019   9.606   8.554  0.1862 -0.9367 -0.4870
  623MOL0     H85940   3.047   9.362   8.483  0.8205 -0.0043 -0.5066
  623MOL0     H85941   2.895   9.425   8.433  1.0476  0.1584  2.3495
  623MOL0     H85942   2.959   9.443   8.208  0.5052  0.0852 -0.8931
  623MOL0     H85943   3.026   9.283   8.260 -0.3598  0.3525  1.4999
  623MOL0     H85944   3.251   9.404   8.315  0.3744 -1.6750 -0.8680
  623MOL0     H85945   3.191   9.536   8.218  1.0401 -0.9266 -1.6315
  623MOL0     H85946   3.186   9.253   8.112  2.1990 -0.3844 -1.4771
  623MOL0     H85947   3.170   9.407   8.024 -1.7374  1.6862  1.5002
  623MOL0     H85948   3.383   9.485   8.118 -1.0831  0.0407 -1.1998
  623MOL0     H85949   3.394   9.377   7.984 -3.1696  0.4112 -1.3701
  623MOL0     H85950   3.453   9.319   8.276 -2.4612  1.1455 -1.6131
  623MOL0     H85951   3.573   9.319   8.149 -0.4471  2.1571  1.3138
  623MOL0     H85952   3.431   9.097   8.061 -0.5854  2.8167 -1.6981
  623MOL0     H85953   3.330   9.118   8.192  0.3609 -2.0894 -0.1550
  623MOL0     H85954   3.137   9.857   8.409 -0.8643 -0.1721 -2.9427
  623MOL0     H85955   3.082  10.092   8.495  1.1096 -0.4218  1.1813
  623MOL0     H85956   2.910  10.406   8.585  0.5597 -1.8570  1.0463
  623MOL0     H85957   2.872  10.637   8.602  1.3609 -0.3829  3.3615
  623MOL0     H85958   1.434  10.942   8.162  0.4788 -1.9327 -0.9501
  623MOL0     H85959   1.264  10.839   8.070 -2.3367  1.1863  1.5334
  623MOL0     H85960   1.031  10.835   7.613 -0.2430  0.5617 -0.4745
  623MOL0     H85961   0.861  10.746   7.479  2.2357 -0.3237  1.4743
  623MOL0     H85962   0.480  10.865   7.538 -2.1963 -0.7223  2.4061
  623MOL0     H85963   0.480  10.760   7.404 -1.7826  0.0721 -0.3907
  623MOL0     H85964   0.379  10.691   7.674 -0.3398  0.2522 -0.2517
  623MOL0     H85965   0.354  10.589   7.530  1.0631 -0.1295  0.1009
  623MOL0     H85966   0.246  10.851   7.478  0.6392  0.6209  0.3298
  623MOL0     H85967   0.153  10.706   7.541  0.3881 -0.5212  1.0247
  623MOL0     H85968   0.235  10.817   7.783 -2.7409  2.9102  2.0749
  623MOL0     H85969   0.107  10.883   7.695  0.0291  0.4806  0.6746
  623MOL0     H85970   0.413  11.181   7.732  1.7158 -1.5392 -0.1584
  623MOL0     H85971   0.546  10.829   7.750 -0.7256  3.5397 -2.4297
  623MOL0     H85972   0.574  10.944   7.939 -0.3812  3.0313  2.5386
  623MOL0     H85973   0.723  10.907   8.025  3.9498 -0.2650 -2.3321
  623MOL0     H85974   0.690  11.067   7.948  0.8393 -0.0060  3.3794
  624MOL0     O85975   4.110   4.638  11.077  0.6266  0.3628 -0.6124
  624MOL0     C85976   4.127   4.556  11.171  1.0307 -0.2024  0.1397
  624MOL0     O85977   4.241   4.508  11.218 -0.4886 -0.0086 -0.8429
  624MOL0     C85978   4.353   4.584  11.179  0.0403  0.2732 -0.5726
  624MOL0     C85979   4.450   4.508  11.119 -0.4508 -0.1955  0.1418
  624MOL0     C85980   4.573   4.566  11.083  0.2927 -0.7748  0.8742
  624MOL0     C85981   4.591   4.704  11.101 -0.7049  0.2272  0.3195
  624MOL0     O85982   4.703   4.771  11.051  0.6236 -0.1336 -0.2736
  624MOL0     C85983   4.757   4.742  10.928 -0.2907 -1.1427  0.6586
  624MOL0     C85984   4.887   4.664  10.938 -0.0988  0.1090 -0.3621
  624MOL0     C85985   5.010   4.733  10.986 -0.4503 -0.0117  0.4632
  624MOL0     C85986   5.136   4.643  11.017  0.8362  0.8745 -0.0405
  624MOL0     C85987   5.113   4.566  11.147  0.8520  0.2942  0.2045
  624MOL0     C85988   5.237   4.504  11.201 -0.5158  0.3869 -0.4043
  624MOL0     C85989   5.203   4.403  11.301  0.4491  0.3267  0.2206
  624MOL0     C85990   5.318   4.336  11.363  0.7051  0.4614  0.4490
  624MOL0     N85991   5.402   4.269  11.271  0.7066 -0.5167  0.5784
  624MOL0     C85992   5.371   4.169  11.182  0.7783 -0.0435 -0.2817
  624MOL0     C85993   5.481   4.143  11.113  0.1808 -0.2715 -0.3534
  624MOL0     C85994   5.494   4.025  11.018 -0.0485 -0.7244  0.0145
  624MOL0     C85995   5.523   3.885  11.089 -0.0739  0.1066 -0.6597
  624MOL0     C85996   5.653   3.871  11.167 -0.0363  0.1560 -0.1281
  624MOL0     C85997   5.779   3.906  11.093 -0.7683  0.8502  1.0583
  624MOL0     O85998   5.784   3.826  10.979  0.6039  0.5229  0.3017
  624MOL0     C85999   5.902   3.835  10.904  0.1675  0.2779 -1.0720
  624MOL0     C86000   5.997   3.929  10.924 -0.4655  0.3910  0.3993
  624MOL0     C86001   6.109   3.939  10.832 -0.1396 -0.1582  0.5783
  624MOL0     C86002   6.208   4.049  10.885  0.0124 -0.0126  0.2000
  624MOL0     C86003   6.124   3.853  10.718 -0.3864 -0.5509 -0.0620
  624MOL0     C86004   6.229   3.860  10.612 -0.9760  0.1106  0.3755
  624MOL0     O86005   6.330   3.951  10.634 -0.1601 -0.3764 -0.2467
  624MOL0     C86006   6.441   3.967  10.553  0.8800  0.9274  0.1094
  624MOL0     C86007   6.456   3.926  10.421  0.7494  0.5620 -0.1856
  624MOL0     C86008   6.577   3.935  10.345  0.0028  0.8830  0.0824
  624MOL0     C86009   6.691   3.973  10.413  0.4722 -0.2120  0.3103
  624MOL0     O86010   6.822   3.977  10.363  0.9750  0.4050 -0.3954
  624MOL0     C86011   6.840   3.996  10.229 -0.0241  0.0282 -0.3825
  624MOL0     C86012   6.977   4.054  10.195 -0.2409 -0.3371 -0.3670
  624MOL0     C86013   7.050   4.177  10.253  0.3577  0.9172 -0.3711
  624MOL0     C86014   7.203   4.146  10.254  0.5707 -0.4302  0.4489
  624MOL0     C86015   7.270   4.275  10.287  0.2003  0.1516 -0.0294
  624MOL0     C86016   7.422   4.267  10.260  0.3178  0.6946 -0.3997
  624MOL0     C86017   7.499   4.405  10.279  1.0382  0.1441 -0.1055
  624MOL0     C86018   7.648   4.385  10.249 -0.0883  0.4277  0.2031
  624MOL0    Cl86019   7.683   4.347  10.081 -0.1354  0.4300 -0.2370
  624MOL0     C86020   6.683   3.998  10.553 -0.2625  0.0828 -0.3208
  624MOL0     C86021   6.560   4.008  10.621  0.0202  0.8324  0.5876
  624MOL0     O86022   6.231   3.767  10.528  0.0423  0.1229  0.0059
  624MOL0     C86023   6.021   3.764  10.695  0.2502  0.2944  0.5082
  624MOL0     C86024   5.914   3.754  10.787 -0.2360  0.3109  1.0811
  624MOL0     N86025   5.576   4.229  11.165  0.3749 -0.5758  0.0457
  624MOL0     N86026   5.531   4.308  11.254  0.2019  0.0413 -0.2050
  624MOL0     C86027   4.489   4.777  11.167  0.3624 -0.3646 -0.4438
  624MOL0     C86028   4.371   4.716  11.216 -0.2038  0.0214 -0.4413
  624MOL0     C86029   4.000   4.492  11.227 -0.2728  0.0480  0.2844
  624MOL0     C86030   4.014   4.371  11.307 -0.0453  0.1249  0.1094
  624MOL0     C86031   3.900   4.302  11.364 -0.8032 -0.7334 -0.0654
  624MOL0     C86032   3.769   4.342  11.323 -0.2151 -0.0274 -0.0147
  624MOL0     O86033   3.669   4.273  11.395  0.0196 -0.4505  0.1893
  624MOL0     C86034   3.533   4.294  11.354  0.2582 -0.4297  0.9938
  624MOL0     C86035   3.441   4.250  11.462 -0.6181  1.3698  0.0993
  624MOL0     C86036   3.295   4.254  11.423  0.0688 -0.1884 -0.6406
  624MOL0     C86037   3.253   4.399  11.448  1.2772  0.0908  0.1691
  624MOL0     C86038   3.108   4.421  11.428  0.7224  0.1628  0.0139
  624MOL0     C86039   2.988   4.453  11.411  0.2104  0.2457 -0.5671
  624MOL0     C86040   3.755   4.457  11.248  0.0105 -0.0673  0.2395
  624MOL0     C86041   3.867   4.530  11.196  0.0223  0.1944  0.5226
  624MOL0     C86042   3.832   4.657  11.112  0.7430 -0.4906 -0.4644
  624MOL0     H86043   4.459   4.400  11.112  1.0926 -0.0446 -0.4597
  624MOL0     H86044   4.655   4.502  11.055  0.6805 -1.3774  3.1432
  624MOL0     H86045   4.777   4.840  10.883 -0.3676 -0.5711  1.8224
  624MOL0     H86046   4.685   4.693  10.861 -0.0664  4.6769 -4.7784
  624MOL0     H86047   4.871   4.583  11.010 -0.2172 -3.2132 -3.7787
  624MOL0     H86048   4.902   4.611  10.844 -2.9148  1.7875 -1.8881
  624MOL0     H86049   5.040   4.813  10.918 -0.2642  0.0191  0.5822
  624MOL0     H86050   4.987   4.776  11.084 -1.1721  1.4528 -0.3179
  624MOL0     H86051   5.148   4.575  10.933  0.0012  0.9461 -0.2315
  624MOL0     H86052   5.227   4.703  11.025  2.2583 -1.2868  1.1616
  624MOL0     H86053   5.039   4.487  11.134  1.7528 -0.4013 -0.9366
  624MOL0     H86054   5.076   4.638  11.221  0.9162  0.0457  0.4773
  624MOL0     H86055   5.291   4.449  11.123  0.0261 -0.9927  0.8858
  624MOL0     H86056   5.302   4.583  11.239 -2.1251  1.9779 -0.8075
  624MOL0     H86057   5.128   4.332  11.263  0.1339  0.1485  1.1554
  624MOL0     H86058   5.158   4.463  11.380  0.8783  1.3362 -0.2825
  624MOL0     H86059   5.370   4.409  11.427 -1.3280  1.9065  0.5496
  624MOL0     H86060   5.282   4.258  11.430  3.5931 -0.5790  0.9051
  624MOL0     H86061   5.278   4.113  11.182 -0.6869  2.1654  2.2133
  624MOL0     H86062   5.579   4.048  10.953 -0.2925 -0.7128 -0.3069
  624MOL0     H86063   5.405   4.021  10.954 -0.0522  0.5693 -0.0952
  624MOL0     H86064   5.447   3.867  11.166  0.6475  0.1065  0.0607
  624MOL0     H86065   5.514   3.805  11.015 -0.3456 -2.2291  1.7113
  624MOL0     H86066   5.641   3.928  11.260 -0.8328 -1.8763  1.0688
  624MOL0     H86067   5.669   3.768  11.199 -0.2564  0.4272  0.8979
  624MOL0     H86068   5.778   4.013  11.071  1.6256  0.9953  1.3638
  624MOL0     H86069   5.867   3.887  11.156 -0.5559  1.6391  1.0162
  624MOL0     H86070   5.984   4.004  11.001  0.9933  2.2430 -1.0327
  624MOL0     H86071   6.198   4.085  10.988 -0.9426  0.7399 -0.1312
  624MOL0     H86072   6.198   4.135  10.817 -1.0859 -0.0523  0.2933
  624MOL0     H86073   6.308   4.005  10.877 -0.0550 -0.0516 -0.5712
  624MOL0     H86074   6.371   3.878  10.373  0.8333 -2.7601  2.5968
  624MOL0     H86075   6.573   3.904  10.241  1.4788 -4.8812  1.3955
  624MOL0     H86076   6.822   3.905  10.172  1.1727 -0.8939  0.6595
  624MOL0     H86077   6.767   4.071  10.195  3.0877  4.1528  1.0902
  624MOL0     H86078   7.038   3.964  10.202 -0.1918 -0.2737 -0.0030
  624MOL0     H86079   6.974   4.092  10.092 -0.2618 -2.2329 -1.1128
  624MOL0     H86080   7.018   4.197  10.355  0.3137  1.3553 -0.4672
  624MOL0     H86081   7.025   4.263  10.189 -1.9772  1.7382  1.4783
  624MOL0     H86082   7.239   4.102  10.161  0.4471 -2.6182  1.3736
  624MOL0     H86083   7.232   4.076  10.333 -0.7189 -0.5615  0.8368
  624MOL0     H86084   7.223   4.348  10.220  1.5773  0.8469 -0.2719
  624MOL0     H86085   7.255   4.304  10.392 -0.1942 -0.2618  0.0327
  624MOL0     H86086   7.434   4.242  10.154 -0.0655 -1.8026  0.0701
  624MOL0     H86087   7.471   4.192  10.324  0.4975  0.0454 -1.2672
  624MOL0     H86088   7.474   4.440  10.380 -0.3463  0.3281 -0.4872
  624MOL0     H86089   7.466   4.480  10.207 -3.2401  0.0260  1.4341
  624MOL0     H86090   7.687   4.303  10.310 -0.9389 -1.4822 -1.6938
  624MOL0     H86091   7.704   4.476  10.270  0.0989  1.0486 -2.5474
  624MOL0     H86092   6.776   4.023  10.603  0.3781 -2.2624 -0.2390
  624MOL0     H86093   6.537   4.026  10.726 -2.9015 -1.7824  0.5423
  624MOL0     H86094   6.024   3.692  10.613  0.0103 -0.3637  1.0712
  624MOL0     H86095   5.835   3.682  10.768 -0.0611  0.0519  1.3372
  624MOL0     H86096   4.506   4.883  11.182  1.3069 -0.5816  0.0835
  624MOL0     H86097   4.293   4.772  11.265 -0.5091 -2.1695  1.7459
  624MOL0     H86098   4.119   4.348  11.325  0.9659  2.1393 -2.6136
  624MOL0     H86099   3.913   4.219  11.432 -1.8419 -0.7475  0.1327
  624MOL0     H86100   3.505   4.397  11.334 -1.3415 -1.0607 -0.2261
  624MOL0     H86101   3.516   4.233  11.265 -0.7952 -1.2119  1.6939
  624MOL0     H86102   3.457   4.298  11.559 -2.4062 -0.2199  1.2579
  624MOL0     H86103   3.459   4.143  11.471  0.1171  1.4307 -0.5944
  624MOL0     H86104   3.285   4.243  11.315 -0.6836  2.7415 -0.9538
  624MOL0     H86105   3.236   4.187  11.486  0.7462  0.8294  1.1723
  624MOL0     H86106   3.316   4.466  11.389  1.9116 -0.9594 -0.3837
  624MOL0     H86107   3.259   4.425  11.554  1.8784  3.0151 -0.5077
  624MOL0     H86108   2.885   4.469  11.385  0.3857  1.1522 -0.7596
  624MOL0     H86109   3.655   4.495  11.232  0.6163  2.0177  1.0970
  624MOL0     H86110   3.884   4.645  11.016  2.9597 -2.4579  0.8825
  624MOL0     H86111   3.724   4.673  11.103  0.3791 -2.2507  0.3445
  624MOL0     H86112   3.873   4.748  11.156  3.2145 -1.3925 -0.7366
  625MOL0     O86113   5.835   0.595   5.243 -0.2441  0.0243  1.0248
  625MOL0     C86114   5.938   0.531   5.221  0.5897 -0.6813  0.8510
  625MOL0     O86115   5.989   0.432   5.305  0.1069  0.5109  0.6088
  625MOL0     C86116   5.907   0.360   5.391 -0.0057 -0.4392 -0.3476
  625MOL0     C86117   5.966   0.239   5.438  0.2055 -0.4347  0.5913
  625MOL0     C86118   5.898   0.161   5.536  0.4825 -0.7938 -1.1528
  625MOL0     C86119   5.776   0.206   5.599 -0.1886 -0.6893  0.1239
  625MOL0     O86120   5.716   0.156   5.713  0.9340 -0.3426 -0.2718
  625MOL0     C86121   5.745   0.025   5.741  0.2659  1.2247 -0.2003
  625MOL0     C86122   5.658  -0.026   5.854  0.3503 -0.5199  0.9212
  625MOL0     C86123   5.697   0.020   6.002  0.6127  0.0197  0.5775
  625MOL0     C86124   5.805  -0.069   6.063 -0.1291 -0.2253 -0.4028
  625MOL0     C86125   5.835  -0.015   6.207 -0.1543  0.1761 -0.4032
  625MOL0     C86126   5.919  -0.105   6.294 -0.5333 -0.0725 -0.1714
  625MOL0     C86127   6.049  -0.154   6.239 -0.2460  0.1618  0.5980
  625MOL0     C86128   6.140  -0.210   6.352  0.4954 -0.1521  0.1841
  625MOL0     N86129   6.082  -0.324   6.417  0.4198 -0.4970 -0.2025
  625MOL0     C86130   6.074  -0.454   6.371 -0.8413 -0.4246 -0.0322
  625MOL0     C86131   6.001  -0.516   6.463 -0.2029 -0.2757 -0.8228
  625MOL0     C86132   5.945  -0.647   6.449  0.4061 -0.6261 -0.2918
  625MOL0     C86133   6.053  -0.746   6.441 -0.0038  0.1500 -0.1826
  625MOL0     C86134   6.022  -0.895   6.469 -0.6682 -0.1724 -0.0211
  625MOL0     C86135   6.150  -0.977   6.450 -0.2724 -0.9049 -0.4340
  625MOL0     O86136   6.257  -0.937   6.552  0.3038  0.0619 -0.2273
  625MOL0     C86137   6.389  -0.994   6.543  0.9735 -0.2425  0.5651
  625MOL0     C86138   6.421  -1.083   6.437  0.0718  0.1682 -0.2705
  625MOL0     C86139   6.555  -1.124   6.413 -0.1512 -0.3157  0.6933
  625MOL0     C86140   6.579  -1.198   6.291 -0.9268  0.3907  0.0165
  625MOL0     C86141   6.651  -1.088   6.509 -0.8259  0.4143 -0.5993
  625MOL0     C86142   6.802  -1.131   6.514 -0.7246  0.0256 -0.1382
  625MOL0     O86143   6.883  -1.082   6.618 -0.0631 -0.0866 -0.3410
  625MOL0     C86144   7.012  -1.134   6.639  0.1290 -0.0839  0.3046
  625MOL0     C86145   7.047  -1.170   6.767  0.1668 -0.4660 -0.4372
  625MOL0     C86146   7.177  -1.214   6.802 -0.5842  0.2439  0.0562
  625MOL0     C86147   7.281  -1.227   6.708  0.8359 -0.3007  0.1188
  625MOL0     O86148   7.414  -1.254   6.734 -0.0392  0.4399 -0.4087
  625MOL0     C86149   7.452  -1.281   6.870 -0.9035 -0.9003 -0.4567
  625MOL0     C86150   7.604  -1.270   6.884  0.2810 -0.6288 -0.2193
  625MOL0     C86151   7.649  -1.125   6.872 -0.8139  0.5202 -0.5275
  625MOL0     C86152   7.794  -1.105   6.910 -0.1832  1.0714 -0.6950
  625MOL0     C86153   7.843  -0.957   6.900 -0.7777 -0.3755 -0.3039
  625MOL0     C86154   7.995  -0.939   6.923  0.1273 -0.5151  0.4072
  625MOL0     C86155   8.026  -0.954   7.078 -0.4045  0.4812 -0.2776
  625MOL0     C86156   8.150  -0.885   7.128  0.9433 -0.5817 -0.2758
  625MOL0    Cl86157   8.311  -0.930   7.045  0.3237 -0.6871 -0.2037
  625MOL0     C86158   7.243  -1.199   6.575 -0.4610 -0.9785  0.0786
  625MOL0     C86159   7.113  -1.157   6.544 -0.4684 -0.3020  1.1116
  625MOL0     O86160   6.847  -1.198   6.421  0.2559  0.4662 -0.2696
  625MOL0     C86161   6.611  -1.012   6.619 -0.7658  0.4061 -0.2761
  625MOL0     C86162   6.478  -0.970   6.645 -0.1366  0.0194 -0.0615
  625MOL0     N86163   5.973  -0.432   6.568 -0.0058 -0.1952 -0.3133
  625MOL0     N86164   6.029  -0.312   6.544 -0.1886 -0.0397 -0.0953
  625MOL0     C86165   5.721   0.315   5.548 -0.7341 -0.9187  0.0473
  625MOL0     C86166   5.784   0.392   5.450  0.5949  0.8278 -0.7961
  625MOL0     C86167   6.003   0.565   5.091 -0.5722  0.1413  0.3840
  625MOL0     C86168   6.136   0.520   5.078  0.1939  0.0768  0.5877
  625MOL0     C86169   6.212   0.552   4.966  0.1215 -0.1081 -0.0401
  625MOL0     C86170   6.163   0.622   4.862  0.3570  0.0274 -0.5721
  625MOL0     O86171   6.230   0.632   4.740  0.7083 -0.2683 -0.2389
  625MOL0     C86172   6.274   0.771   4.703  0.1467 -0.0772 -0.2409
  625MOL0     C86173   6.401   0.764   4.619  0.5995  0.0905  0.2780
  625MOL0     C86174   6.426   0.897   4.540 -0.6198 -1.0955  0.4708
  625MOL0     C86175   6.459   0.880   4.387 -0.0669 -1.2349  0.3613
  625MOL0     C86176   6.573   0.788   4.377  0.3351  0.8359  0.2381
  625MOL0     C86177   6.670   0.711   4.374 -0.1312 -0.4749 -0.1378
  625MOL0     C86178   6.037   0.675   4.866 -0.5345 -0.3418  0.9581
  625MOL0     C86179   5.957   0.647   4.980  1.4994 -0.3279  0.3855
  625MOL0     C86180   5.812   0.687   4.968  0.2828 -0.1229 -0.5768
  625MOL0     H86181   6.063   0.204   5.404  0.0928 -0.6795  0.5177
  625MOL0     H86182   5.939   0.071   5.581 -0.5728 -0.9810 -0.5403
  625MOL0     H86183   5.851   0.016   5.769 -0.3797 -1.9884  1.7198
  625MOL0     H86184   5.736  -0.037   5.651  1.6743  0.1318  0.3605
  625MOL0     H86185   5.558   0.009   5.827  0.4328 -0.7980  0.2173
  625MOL0     H86186   5.651  -0.134   5.842  1.6078 -0.4447 -0.8912
  625MOL0     H86187   5.737   0.121   5.995  0.8613 -0.1707 -1.2563
  625MOL0     H86188   5.607   0.012   6.064  1.4222  0.6854  1.8718
  625MOL0     H86189   5.774  -0.174   6.069 -1.9212 -0.1170 -4.2719
  625MOL0     H86190   5.891  -0.065   5.995  0.1874 -1.4095 -0.0990
  625MOL0     H86191   5.743   0.010   6.259 -0.5599  0.9284 -1.4469
  625MOL0     H86192   5.895   0.077   6.210  0.1311 -0.0411  1.3422
  625MOL0     H86193   5.934  -0.067   6.395  1.1918 -1.9248  0.3585
  625MOL0     H86194   5.865  -0.200   6.305 -2.2990  1.0077  0.9220
  625MOL0     H86195   6.100  -0.072   6.186 -0.7524  0.4918  0.6155
  625MOL0     H86196   6.023  -0.237   6.173 -0.0694  0.1147  0.5873
  625MOL0     H86197   6.237  -0.233   6.307  0.7690 -0.1233  0.7554
  625MOL0     H86198   6.156  -0.135   6.430  1.4460  0.0700 -0.2115
  625MOL0     H86199   6.113  -0.497   6.280  3.5064  1.2229  0.8073
  625MOL0     H86200   5.880  -0.658   6.362 -0.3471  0.9242  0.0298
  625MOL0     H86201   5.886  -0.672   6.537  0.1891  3.4924  0.9642
  625MOL0     H86202   6.096  -0.730   6.342 -1.0504  0.7010 -0.5679
  625MOL0     H86203   6.123  -0.716   6.519  0.3020 -1.7158  0.3033
  625MOL0     H86204   5.983  -0.905   6.571 -0.8391  0.0168 -0.0664
  625MOL0     H86205   5.943  -0.935   6.405 -0.6979 -1.2586  0.6762
  625MOL0     H86206   6.136  -1.086   6.451 -0.8728 -0.8462 -1.1721
  625MOL0     H86207   6.194  -0.960   6.351  2.2655 -1.3163  0.5648
  625MOL0     H86208   6.345  -1.117   6.367 -2.2774  1.2884  1.5922
  625MOL0     H86209   6.573  -1.304   6.318 -1.8601 -0.0312 -1.6968
  625MOL0     H86210   6.675  -1.165   6.250 -0.8595 -2.0066 -2.0456
  625MOL0     H86211   6.512  -1.175   6.207  1.3912  1.6381 -1.5934
  625MOL0     H86212   6.981  -1.167   6.854  1.8418 -0.1035  0.8765
  625MOL0     H86213   7.199  -1.221   6.908  0.8643 -1.5162 -0.3139
  625MOL0     H86214   7.412  -1.202   6.933  1.2265 -1.1641  1.3777
  625MOL0     H86215   7.426  -1.380   6.908 -0.1295 -0.6209  0.8916
  625MOL0     H86216   7.640  -1.314   6.977 -1.5146 -0.6310  0.5051
  625MOL0     H86217   7.650  -1.326   6.802  2.7368  1.8062 -0.6712
  625MOL0     H86218   7.598  -1.063   6.946  0.5451 -0.0958  1.0025
  625MOL0     H86219   7.630  -1.095   6.769 -2.7223 -1.3119 -0.7708
  625MOL0     H86220   7.844  -1.172   6.839 -1.0562  0.6882 -0.9599
  625MOL0     H86221   7.814  -1.153   7.007  1.3073 -0.5078 -1.7084
  625MOL0     H86222   7.822  -0.935   6.795  1.1550  0.9594 -0.4529
  625MOL0     H86223   7.792  -0.887   6.967  0.8999 -0.2459  0.9007
  625MOL0     H86224   8.018  -0.841   6.881 -0.5663 -0.9894 -1.1334
  625MOL0     H86225   8.038  -1.015   6.857 -3.0330 -2.3668  0.3045
  625MOL0     H86226   8.035  -1.060   7.104 -1.5001  0.7368  1.2490
  625MOL0     H86227   7.940  -0.926   7.140 -1.9664 -0.3536 -1.9509
  625MOL0     H86228   8.162  -0.910   7.234  2.8045 -0.5974 -0.4581
  625MOL0     H86229   8.117  -0.782   7.115 -2.0266 -1.2096  1.3982
  625MOL0     H86230   7.317  -1.203   6.496  0.5039 -5.0233  0.9694
  625MOL0     H86231   7.104  -1.136   6.438 -0.0584  1.7206  1.4380
  625MOL0     H86232   6.667  -1.002   6.711 -2.1254 -0.4810  0.6807
  625MOL0     H86233   6.456  -0.913   6.735  2.1431 -0.1959  0.6919
  625MOL0     H86234   5.626   0.338   5.597 -0.5106  0.7892 -0.2614
  625MOL0     H86235   5.739   0.488   5.428  3.9457  2.5905 -0.5906
  625MOL0     H86236   6.192   0.461   5.149 -1.5638 -2.2366  0.1831
  625MOL0     H86237   6.311   0.509   4.956  0.2069 -0.4194  1.7668
  625MOL0     H86238   6.205   0.822   4.635 -0.1278  0.9517  0.7717
  625MOL0     H86239   6.284   0.834   4.792  0.2767  2.5363 -1.9882
  625MOL0     H86240   6.393   0.683   4.545 -0.2927  1.2561 -0.9488
  625MOL0     H86241   6.492   0.747   4.678 -0.2107  0.7158  1.7523
  625MOL0     H86242   6.351   0.975   4.556  1.2003  1.2754 -1.7724
  625MOL0     H86243   6.511   0.947   4.587 -1.6603 -1.2077  2.5793
  625MOL0     H86244   6.489   0.974   4.342  2.2064 -1.5597  1.0537
  625MOL0     H86245   6.368   0.841   4.339 -0.8271  0.6684  0.1841
  625MOL0     H86246   6.765   0.663   4.383 -0.7922 -1.4631  2.3857
  625MOL0     H86247   6.010   0.730   4.776  1.3778  0.5062  0.8468
  625MOL0     H86248   5.775   0.718   5.066 -2.3123  0.9324 -1.7919
  625MOL0     H86249   5.787   0.772   4.904 -0.5053  0.8075  0.9012
  625MOL0     H86250   5.754   0.606   4.923  1.2550 -0.2805 -1.5824
  626MOL0     O86251   7.716   7.309   1.524 -0.8783 -0.3748 -0.0684
  626MOL0     C86252   7.629   7.259   1.457 -0.4518 -0.6111 -0.3835
  626MOL0     O86253   7.638   7.128   1.410  0.5584 -0.0029  0.2291
  626MOL0     C86254   7.748   7.060   1.458 -0.1449 -0.1645 -0.4867
  626MOL0     C86255   7.853   7.052   1.374 -0.3239  0.3657  0.1797
  626MOL0     C86256   7.963   6.970   1.410  0.3463  0.8744 -0.6663
  626MOL0     C86257   7.971   6.905   1.539  0.2329  0.0457  0.3034
  626MOL0     O86258   8.084   6.827   1.556 -1.1695  0.2689 -0.1114
  626MOL0     C86259   8.163   6.853   1.670  0.5503  0.1222  0.4046
  626MOL0     C86260   8.310   6.805   1.663  0.8328 -0.2842  0.1171
  626MOL0     C86261   8.401   6.903   1.584  0.1094 -0.1644 -0.4221
  626MOL0     C86262   8.535   6.840   1.539  0.9609  0.5547 -0.1711
  626MOL0     C86263   8.639   6.922   1.475  0.0315 -0.0011 -0.1958
  626MOL0     C86264   8.640   6.914   1.322  0.2948 -0.0033  0.1194
  626MOL0     C86265   8.521   6.987   1.256 -0.2567  0.7007 -0.4458
  626MOL0     C86266   8.522   6.977   1.100  0.3161  0.4790 -0.1107
  626MOL0     N86267   8.396   7.031   1.053 -0.6694  0.1470  0.4994
  626MOL0     C86268   8.285   6.960   1.053  0.4638  0.2957  0.4847
  626MOL0     C86269   8.192   7.053   1.010  0.3764 -0.0049 -0.2597
  626MOL0     C86270   8.038   7.029   1.026  0.0043 -0.5856 -0.1395
  626MOL0     C86271   7.989   7.016   0.888  0.5069 -1.1769  0.4400
  626MOL0     C86272   7.834   7.027   0.890  0.0831 -0.4761 -0.2565
  626MOL0     C86273   7.801   7.182   0.902  0.6636 -0.5990 -0.5165
  626MOL0     O86274   7.695   7.190   0.995  0.4019  0.2992 -0.2844
  626MOL0     C86275   7.583   7.239   0.951  0.7289 -0.5165  0.2609
  626MOL0     C86276   7.569   7.375   0.924  0.2112  0.1308  1.3056
  626MOL0     C86277   7.452   7.433   0.874 -0.0921 -0.1601 -0.5427
  626MOL0     C86278   7.452   7.574   0.846 -0.1421 -0.5868  1.1817
  626MOL0     C86279   7.339   7.353   0.859  0.7348  0.1209  0.0348
  626MOL0     C86280   7.195   7.399   0.820  0.0953  0.1802  0.1608
  626MOL0     O86281   7.098   7.298   0.821 -0.3806 -0.4895 -0.7896
  626MOL0     C86282   6.995   7.284   0.725  0.3122 -1.0523  0.3340
  626MOL0     C86283   6.892   7.197   0.748  0.5914 -0.4031 -0.1820
  626MOL0     C86284   6.780   7.181   0.663 -0.3105  0.6533 -0.7463
  626MOL0     C86285   6.776   7.240   0.541 -0.4974 -0.0863  0.5570
  626MOL0     O86286   6.655   7.235   0.475 -0.4245 -0.1297 -0.2647
  626MOL0     C86287   6.641   7.304   0.348 -0.2025 -0.9006  0.1256
  626MOL0     C86288   6.584   7.438   0.376 -0.7481 -0.9430 -0.6851
  626MOL0     C86289   6.426   7.445   0.377  0.2988 -0.5348 -0.0903
  626MOL0     C86290   6.337   7.402   0.500  0.2498  0.6585  0.0897
  626MOL0     C86291   6.337   7.515   0.614  0.3184 -0.8724  0.3140
  626MOL0     C86292   6.280   7.460   0.742  0.4950 -0.6171  0.0684
  626MOL0     C86293   6.286   7.550   0.852 -0.1482 -0.0839 -0.4315
  626MOL0     C86294   6.230   7.492   0.976  0.1113  0.2956 -0.1620
  626MOL0    Cl86295   6.226   7.625   1.089  0.2683 -0.2820  0.1028
  626MOL0     C86296   6.887   7.333   0.506  1.0960 -0.1154 -0.9786
  626MOL0     C86297   6.994   7.349   0.601 -0.5654  0.1284  0.1016
  626MOL0     O86298   7.173   7.513   0.790  0.4363 -0.0807  1.0680
  626MOL0     C86299   7.353   7.214   0.884  0.0689 -0.2254 -0.7225
  626MOL0     C86300   7.474   7.156   0.928 -0.2406 -0.4617 -0.3660
  626MOL0     N86301   8.253   7.173   0.993 -0.6392  0.0040 -0.2151
  626MOL0     N86302   8.377   7.157   1.013 -0.2174  0.2456  0.6973
  626MOL0     C86303   7.867   6.917   1.623  0.8476 -0.8257  0.2374
  626MOL0     C86304   7.751   6.996   1.584  0.7153  0.1957 -0.4924
  626MOL0     C86305   7.507   7.341   1.429 -0.2410 -0.9458  0.1180
  626MOL0     C86306   7.440   7.305   1.307  0.1987  0.4805  0.4270
  626MOL0     C86307   7.330   7.370   1.263  0.2112  0.4192  0.4136
  626MOL0     C86308   7.289   7.490   1.329  0.2742 -0.4094 -0.1718
  626MOL0     O86309   7.184   7.551   1.259 -0.1222  0.9923 -0.1383
  626MOL0     C86310   7.117   7.648   1.342 -0.1139 -0.2636  0.4346
  626MOL0     C86311   6.992   7.675   1.266 -0.5424  0.2260 -0.4486
  626MOL0     C86312   6.939   7.804   1.325 -0.1656  0.2825 -0.1977
  626MOL0     C86313   6.810   7.844   1.246 -0.1425 -0.5805  0.6679
  626MOL0     C86314   6.690   7.769   1.275  0.1455 -0.1795 -0.4968
  626MOL0     C86315   6.582   7.715   1.275 -0.7725  0.6828  0.9307
  626MOL0     C86316   7.351   7.528   1.450  1.3503  0.8504 -0.2866
  626MOL0     C86317   7.453   7.448   1.509 -0.0415 -0.1695 -0.1019
  626MOL0     C86318   7.528   7.507   1.630  0.6702 -0.2733  1.2086
  626MOL0     H86319   7.852   7.096   1.275  1.6984 -0.1957 -0.1322
  626MOL0     H86320   8.037   6.948   1.335 -0.5523 -1.0529 -1.0521
  626MOL0     H86321   8.124   6.786   1.747 -2.1535  1.1681  0.0840
  626MOL0     H86322   8.157   6.961   1.692  1.0025  1.5158 -4.9831
  626MOL0     H86323   8.349   6.789   1.764  0.0698 -0.5540  0.3814
  626MOL0     H86324   8.307   6.706   1.617  1.9067 -0.1554 -0.2558
  626MOL0     H86325   8.342   6.945   1.503 -2.4545 -2.4928  0.0804
  626MOL0     H86326   8.410   6.978   1.664  1.2186 -1.1706  0.4392
  626MOL0     H86327   8.583   6.798   1.628 -0.3310 -1.0284 -0.1782
  626MOL0     H86328   8.506   6.764   1.465  1.0733 -0.4133  0.7485
  626MOL0     H86329   8.738   6.889   1.506 -0.5977 -1.9618 -0.1290
  626MOL0     H86330   8.636   7.025   1.511 -0.5806  0.0094 -0.2596
  626MOL0     H86331   8.736   6.961   1.299  1.5568 -2.1560  0.7436
  626MOL0     H86332   8.642   6.814   1.279 -2.3006  1.2187 -3.3288
  626MOL0     H86333   8.540   7.094   1.272  1.8407  0.1784  0.9348
  626MOL0     H86334   8.425   6.955   1.298 -0.3323  1.6745  0.1598
  626MOL0     H86335   8.611   7.029   1.062  1.1971  0.4219  1.7691
  626MOL0     H86336   8.524   6.871   1.072 -0.5033  0.7388 -1.2028
  626MOL0     H86337   8.274   6.857   1.087 -0.6230  0.9511  2.2241
  626MOL0     H86338   8.006   7.113   1.089 -0.1065 -0.8849  0.2049
  626MOL0     H86339   8.012   6.938   1.080 -0.2082  0.2066  1.1639
  626MOL0     H86340   8.019   7.101   0.825  0.9423 -1.5925  0.0740
  626MOL0     H86341   8.020   6.922   0.842 -0.1862 -0.3205 -1.9926
  626MOL0     H86342   7.792   6.991   0.796 -1.2409  0.7770 -0.1763
  626MOL0     H86343   7.796   6.965   0.971 -0.4797  0.2342  0.0396
  626MOL0     H86344   7.885   7.232   0.951  0.0035  0.7374 -0.6761
  626MOL0     H86345   7.788   7.241   0.811  3.1543 -1.0973 -1.2590
  626MOL0     H86346   7.657   7.438   0.933 -0.9220  1.7489  1.5614
  626MOL0     H86347   7.363   7.622   0.887 -0.6189  0.3216 -0.8155
  626MOL0     H86348   7.453   7.595   0.739  1.0328  0.8287  1.4400
  626MOL0     H86349   7.544   7.623   0.879 -0.9106  2.5976 -0.9954
  626MOL0     H86350   6.890   7.138   0.840 -2.3226 -2.3187 -1.3082
  626MOL0     H86351   6.704   7.115   0.704 -2.5756  1.5529 -3.2584
  626MOL0     H86352   6.734   7.312   0.291 -0.5978  2.0108 -0.2725
  626MOL0     H86353   6.575   7.244   0.287  2.3527 -2.7661 -0.9813
  626MOL0     H86354   6.632   7.472   0.468 -2.9222 -0.8643  0.5006
  626MOL0     H86355   6.616   7.506   0.296  0.5766  0.2777  0.8227
  626MOL0     H86356   6.397   7.382   0.292 -0.7098 -2.2846  1.4795
  626MOL0     H86357   6.398   7.545   0.343 -2.0991 -0.4260  1.9762
  626MOL0     H86358   6.369   7.303   0.534 -2.4076  0.7973  3.4686
  626MOL0     H86359   6.241   7.372   0.457  0.4867 -0.5926  0.4087
  626MOL0     H86360   6.440   7.545   0.632  0.3169 -1.6914  1.7587
  626MOL0     H86361   6.290   7.604   0.572  2.2412  0.3788  0.7143
  626MOL0     H86362   6.349   7.381   0.776  1.5627 -0.1334 -0.9026
  626MOL0     H86363   6.180   7.423   0.718 -0.3452  0.5438  1.6076
  626MOL0     H86364   6.223   7.635   0.824  0.2777 -0.2026 -1.8156
  626MOL0     H86365   6.385   7.596   0.868 -0.1641 -0.0510 -0.4285
  626MOL0     H86366   6.300   7.412   1.004 -1.4197 -0.5887  1.3149
  626MOL0     H86367   6.126   7.460   0.963 -0.2422  1.8750 -1.4748
  626MOL0     H86368   6.877   7.399   0.420 -0.6928  0.6848 -0.1934
  626MOL0     H86369   7.071   7.423   0.581 -0.8327  1.7490  4.0961
  626MOL0     H86370   7.273   7.143   0.869  1.2191 -2.5816  2.9109
  626MOL0     H86371   7.501   7.051   0.936 -1.3891 -0.8357 -1.1528
  626MOL0     H86372   7.874   6.861   1.715  2.9659 -1.6798 -0.3748
  626MOL0     H86373   7.656   7.000   1.636  0.5903  0.5066 -0.7383
  626MOL0     H86374   7.482   7.223   1.250  1.3269  0.5966  1.0531
  626MOL0     H86375   7.269   7.343   1.178  0.8677  1.9643 -0.5846
  626MOL0     H86376   7.091   7.619   1.444  1.6054  0.9841  1.2738
  626MOL0     H86377   7.183   7.735   1.339 -0.9634  0.3694 -0.2293
  626MOL0     H86378   6.913   7.599   1.273 -2.8352  2.4579 -0.8398
  626MOL0     H86379   7.020   7.699   1.163  0.7161  2.3048  0.3315
  626MOL0     H86380   6.911   7.786   1.429  0.3542 -1.3908 -0.3188
  626MOL0     H86381   7.016   7.882   1.324  0.8894 -0.6806  1.3982
  626MOL0     H86382   6.836   7.846   1.139  0.9285 -1.8653  0.8678
  626MOL0     H86383   6.797   7.947   1.280 -1.9577 -1.0780  1.5789
  626MOL0     H86384   6.480   7.681   1.268 -1.0718  1.8496 -2.5356
  626MOL0     H86385   7.315   7.618   1.498 -0.8802 -0.3133  0.3453
  626MOL0     H86386   7.564   7.436   1.705  1.0423 -0.7920  0.5484
  626MOL0     H86387   7.620   7.555   1.596 -0.0857 -1.1050 -2.5293
  626MOL0     H86388   7.464   7.573   1.688 -2.0044 -2.4279  0.9277
  627MOL0     O86389   6.647   2.058   2.933 -0.2029  0.6295 -0.2184
  627MOL0     C86390   6.661   2.169   2.977  0.0776 -0.0185  0.7082
  627MOL0     O86391   6.770   2.219   3.047  0.0353 -0.1647 -0.4653
  627MOL0     C86392   6.844   2.144   3.125 -0.4727  0.8981  0.0545
  627MOL0     C86393   6.949   2.085   3.055 -0.1642 -0.1280  0.1763
  627MOL0     C86394   7.055   2.029   3.122 -0.5572  0.9342  0.7900
  627MOL0     C86395   7.047   2.009   3.263 -0.0013  0.1011  1.5916
  627MOL0     O86396   7.146   1.942   3.323  0.0748  0.2494  0.5334
  627MOL0     C86397   7.123   1.898   3.463  0.9340  0.2748  0.8279
  627MOL0     C86398   7.236   1.818   3.521 -0.0174  0.5153 -0.3412
  627MOL0     C86399   7.345   1.906   3.565 -0.0642  0.0178 -0.2467
  627MOL0     C86400   7.473   1.832   3.612  0.3042 -0.3026 -0.5292
  627MOL0     C86401   7.580   1.928   3.654  1.0575 -0.2858  0.3997
  627MOL0     C86402   7.712   1.862   3.672 -0.3954 -0.0452  0.0681
  627MOL0     C86403   7.823   1.954   3.741  0.0554 -0.3720 -0.3867
  627MOL0     C86404   7.955   1.887   3.731  0.0478  0.5148 -0.1089
  627MOL0     N86405   8.034   1.949   3.623  0.2135 -0.1854 -0.1485
  627MOL0     C86406   8.127   2.048   3.642 -0.0568 -0.5511  0.1735
  627MOL0     C86407   8.180   2.080   3.524  1.0967  0.8608 -0.3505
  627MOL0     C86408   8.283   2.180   3.501  0.2467 -1.6239  1.3594
  627MOL0     C86409   8.430   2.136   3.544 -0.0611 -1.0443  0.2583
  627MOL0     C86410   8.501   2.036   3.447  0.1174  0.6832 -0.3524
  627MOL0     C86411   8.644   2.010   3.508  0.1573 -0.6286  0.0164
  627MOL0     O86412   8.698   1.893   3.435  0.1779 -0.7576  0.0704
  627MOL0     C86413   8.823   1.858   3.431  0.2880 -0.8000  0.5578
  627MOL0     C86414   8.852   1.739   3.364  0.4164 -0.0923 -0.5259
  627MOL0     C86415   8.984   1.690   3.371 -0.3710  1.0351 -0.1500
  627MOL0     C86416   9.002   1.562   3.293 -0.0830 -0.0070 -0.5768
  627MOL0     C86417   9.077   1.744   3.452 -0.3763  1.1873  0.3974
  627MOL0     C86418   9.213   1.700   3.461 -0.5209  0.6313 -0.0815
  627MOL0     O86419   9.277   1.658   3.348 -0.5402 -0.0436  0.2496
  627MOL0     C86420   9.396   1.592   3.368 -0.5880  0.7692 -0.2581
  627MOL0     C86421   9.509   1.676   3.374 -0.2282  0.1720 -0.9081
  627MOL0     C86422   9.640   1.618   3.394  0.5460  0.1292  0.7114
  627MOL0     C86423   9.652   1.480   3.423 -0.0063 -0.2666  0.7594
  627MOL0     O86424   9.770   1.411   3.442 -0.5056  0.1074 -0.4574
  627MOL0     C86425   9.899   1.477   3.447  0.6304 -0.5421 -0.0687
  627MOL0     C86426   9.990   1.357   3.484  0.6837 -0.7857  0.2590
  627MOL0     C86427  10.141   1.392   3.497  0.2799  0.2319 -0.3591
  627MOL0     C86428  10.204   1.269   3.444 -0.3855 -0.6546  0.4469
  627MOL0     C86429  10.352   1.270   3.457  0.3218  0.3431  0.3152
  627MOL0     C86430  10.414   1.138   3.423  0.4058  0.6897  0.3798
  627MOL0     C86431  10.566   1.140   3.464 -0.4579 -0.3084 -0.1351
  627MOL0     C86432  10.629   1.016   3.413 -0.3736 -0.1606 -0.6394
  627MOL0    Cl86433  10.766   0.970   3.517 -0.5164 -0.0876  0.1801
  627MOL0     C86434   9.545   1.396   3.411  0.6390  0.8920 -0.1766
  627MOL0     C86435   9.416   1.446   3.381 -0.1397 -0.6372 -0.8359
  627MOL0     O86436   9.260   1.711   3.573 -0.2257 -0.4920 -0.2578
  627MOL0     C86437   9.050   1.866   3.516 -0.7823  0.0450  0.7463
  627MOL0     C86438   8.919   1.923   3.500 -1.3188  0.4619  0.2947
  627MOL0     N86439   8.105   2.015   3.427 -0.2036  0.5384 -0.5720
  627MOL0     N86440   8.019   1.935   3.487  0.7437  0.5085 -0.8191
  627MOL0     C86441   6.936   2.068   3.332 -0.6939 -0.3421 -0.5387
  627MOL0     C86442   6.833   2.134   3.261  0.0130  0.8213 -0.4302
  627MOL0     C86443   6.548   2.265   2.964  0.2372 -0.2695  0.6995
  627MOL0     C86444   6.578   2.408   2.973  0.4598 -0.0334 -0.0396
  627MOL0     C86445   6.479   2.506   2.983  0.3444 -0.6115 -0.5814
  627MOL0     C86446   6.346   2.467   2.976  0.7599  0.9301  0.4867
  627MOL0     O86447   6.258   2.567   2.982  0.5198  0.3229  0.5709
  627MOL0     C86448   6.118   2.540   2.948 -0.2143  0.1297  0.0132
  627MOL0     C86449   6.035   2.661   2.984  0.7123 -0.6773 -0.0281
  627MOL0     C86450   5.881   2.646   2.964  0.2587 -0.3432 -0.6348
  627MOL0     C86451   5.809   2.777   3.009  0.0926  0.2948  0.4011
  627MOL0     C86452   5.665   2.767   3.015 -0.1671  0.2642 -0.0249
  627MOL0     C86453   5.544   2.770   3.008 -0.5085  0.0058 -0.1699
  627MOL0     C86454   6.311   2.334   2.934 -0.1227  0.2393  0.6516
  627MOL0     C86455   6.412   2.229   2.921  0.5309  0.0600  0.1791
  627MOL0     C86456   6.372   2.093   2.870  0.0627 -0.3383  0.4215
  627MOL0     H86457   6.950   2.079   2.946  1.6517 -0.3345  0.1681
  627MOL0     H86458   7.138   1.990   3.063 -1.3500 -1.1225  0.9597
  627MOL0     H86459   7.035   1.834   3.452 -0.5756  2.0005  2.0453
  627MOL0     H86460   7.110   1.987   3.526 -0.2262  0.6732  0.0625
  627MOL0     H86461   7.210   1.757   3.608  0.4241  2.4129  1.2122
  627MOL0     H86462   7.275   1.755   3.441  0.0534 -0.0984  0.1700
  627MOL0     H86463   7.368   1.969   3.479  0.3796 -0.2053 -0.2960
  627MOL0     H86464   7.313   1.967   3.650 -0.1282 -0.1627 -0.1404
  627MOL0     H86465   7.451   1.761   3.693  1.4368  1.0202  0.9894
  627MOL0     H86466   7.512   1.788   3.520  1.3312  0.0317 -0.2648
  627MOL0     H86467   7.542   1.965   3.750 -0.2469 -2.7735  0.9394
  627MOL0     H86468   7.578   2.007   3.579  0.9127 -0.1341  0.5620
  627MOL0     H86469   7.708   1.764   3.721  1.6286  0.0332  0.5043
  627MOL0     H86470   7.753   1.846   3.571  0.8546 -1.8774  0.7948
  627MOL0     H86471   7.795   1.960   3.847 -2.7581  1.8051 -1.1220
  627MOL0     H86472   7.827   2.052   3.694 -0.1072  0.4253  1.1923
  627MOL0     H86473   8.011   1.895   3.825 -1.3757  2.1263  0.6611
  627MOL0     H86474   7.931   1.781   3.721  0.1053  0.3496  1.3346
  627MOL0     H86475   8.166   2.076   3.739  0.2453 -0.0168 -0.1009
  627MOL0     H86476   8.256   2.279   3.539  1.7153 -1.7367  2.8479
  627MOL0     H86477   8.291   2.200   3.394  0.0727  1.3612  1.8337
  627MOL0     H86478   8.485   2.230   3.531 -2.4635  0.1399 -3.3118
  627MOL0     H86479   8.436   2.094   3.644 -1.6587  0.0506  0.8618
  627MOL0     H86480   8.454   1.937   3.444 -1.9561  1.6252 -0.1373
  627MOL0     H86481   8.508   2.075   3.346 -3.1751  1.6309 -0.3265
  627MOL0     H86482   8.702   2.103   3.504 -2.3897  1.0242 -0.6743
  627MOL0     H86483   8.646   1.974   3.611  2.2344  0.9503  0.6014
  627MOL0     H86484   8.776   1.691   3.303  0.3601 -0.3422 -0.2592
  627MOL0     H86485   8.920   1.531   3.226 -0.0367  0.4906 -0.8676
  627MOL0     H86486   9.035   1.475   3.351 -1.1288  2.0598  3.4427
  627MOL0     H86487   9.081   1.587   3.221  0.5328  0.1373  0.1419
  627MOL0     H86488   9.489   1.782   3.362  1.0628  0.4251 -0.9496
  627MOL0     H86489   9.731   1.676   3.398  0.2474  0.5294  2.5081
  627MOL0     H86490   9.916   1.514   3.345 -0.3857 -0.5381 -0.2429
  627MOL0     H86491   9.904   1.553   3.526  2.0806 -1.1477  0.4559
  627MOL0     H86492   9.954   1.319   3.580 -1.5104 -0.5480 -0.3966
  627MOL0     H86493   9.971   1.274   3.415 -0.3231 -0.8481  0.5916
  627MOL0     H86494  10.177   1.416   3.598  0.8399 -0.2074 -0.4511
  627MOL0     H86495  10.174   1.478   3.437 -1.5643  1.7257  0.6430
  627MOL0     H86496  10.191   1.265   3.336  2.8923 -3.0009 -0.0256
  627MOL0     H86497  10.159   1.185   3.498 -0.4991 -0.4674  0.6458
  627MOL0     H86498  10.390   1.344   3.385  1.1892 -0.7927 -0.4297
  627MOL0     H86499  10.379   1.297   3.559  1.0102 -2.7745  1.0601
  627MOL0     H86500  10.397   1.100   3.321 -1.1371 -0.7060  1.1099
  627MOL0     H86501  10.371   1.068   3.496  1.4265  0.7779  1.0856
  627MOL0     H86502  10.562   1.143   3.573 -4.1648 -3.2118 -0.0020
  627MOL0     H86503  10.621   1.227   3.428 -0.8577  0.1605  0.3640
  627MOL0     H86504  10.667   1.035   3.312 -1.0865  2.1138 -0.5442
  627MOL0     H86505  10.559   0.932   3.403  2.0887 -2.3011 -0.9228
  627MOL0     H86506   9.557   1.289   3.417 -1.0871  0.6366 -0.8944
  627MOL0     H86507   9.332   1.378   3.379  0.9015 -2.1141  1.4733
  627MOL0     H86508   9.120   1.919   3.581  2.5555 -1.1266 -1.6494
  627MOL0     H86509   8.916   2.005   3.572 -0.4339 -0.5693  1.5656
  627MOL0     H86510   6.921   2.068   3.439  3.0997  1.8214  0.1292
  627MOL0     H86511   6.756   2.186   3.316  1.5656  0.7525  1.9564
  627MOL0     H86512   6.674   2.452   2.995 -0.2392  0.2649  2.8357
  627MOL0     H86513   6.504   2.610   3.000  1.7298 -0.6540 -2.0596
  627MOL0     H86514   6.106   2.521   2.841  1.1095 -0.3416 -0.0712
  627MOL0     H86515   6.074   2.459   3.008 -0.6401  1.8125  2.0889
  627MOL0     H86516   6.069   2.745   2.922 -2.1391 -0.6123 -1.6562
  627MOL0     H86517   6.053   2.696   3.086  2.7553  0.8360 -0.8369
  627MOL0     H86518   5.856   2.622   2.860 -0.0958  2.5631 -1.3250
  627MOL0     H86519   5.845   2.567   3.029 -0.1639 -0.0886 -0.5596
  627MOL0     H86520   5.824   2.848   2.927  1.0445 -3.1982 -2.6755
  627MOL0     H86521   5.857   2.813   3.100  1.1577  1.2941 -0.5226
  627MOL0     H86522   5.440   2.787   2.991 -0.6436 -2.3424 -2.0670
  627MOL0     H86523   6.208   2.305   2.916  0.3956  0.4014 -3.7607
  627MOL0     H86524   6.437   2.072   2.784  0.4091 -2.4440  1.1579
  627MOL0     H86525   6.391   2.019   2.947 -0.7393  1.9921  3.0229
  627MOL0     H86526   6.267   2.087   2.841  0.3551 -0.2838 -0.7161
  628MOL0     O86527  11.333   2.530   3.306  0.2319 -0.0249  0.7037
  628MOL0     C86528  11.299   2.602   3.401 -0.2752  0.7843  0.8813
  628MOL0     O86529  11.368   2.705   3.456  0.0384 -0.5044 -0.2201
  628MOL0     C86530  11.486   2.755   3.403 -0.6947 -0.5919 -0.4214
  628MOL0     C86531  11.556   2.721   3.288  0.0156 -0.0107  0.4554
  628MOL0     C86532  11.685   2.773   3.269  0.2427 -0.3072  0.3641
  628MOL0     C86533  11.740   2.872   3.345  0.2035  0.3736 -0.0197
  628MOL0     O86534  11.869   2.920   3.345  0.2267 -0.2320  0.4310
  628MOL0     C86535  11.959   2.865   3.246  0.2161 -1.0205  0.0755
  628MOL0     C86536  12.085   2.941   3.238 -0.7906 -0.4438 -0.2336
  628MOL0     C86537  12.070   3.076   3.185  1.0093  0.9265  0.1724
  628MOL0     C86538  12.198   3.147   3.159 -0.0751 -0.5403 -0.4543
  628MOL0     C86539  12.274   3.179   3.283 -0.5897  0.0819 -0.4694
  628MOL0     C86540  12.389   3.269   3.276 -0.0444  0.2078  0.5292
  628MOL0     C86541  12.453   3.271   3.414  0.4413  1.0696 -0.1248
  628MOL0     C86542  12.590   3.339   3.413  0.5853  0.4499  0.3980
  628MOL0     N86543  12.656   3.317   3.537  0.2576  0.0692 -1.0860
  628MOL0     C86544  12.757   3.218   3.565  0.3789 -0.0524 -0.2017
  628MOL0     C86545  12.793   3.239   3.690  0.4852 -0.0987  0.6548
  628MOL0     C86546  12.889   3.163   3.758 -1.2457  0.3148 -0.3696
  628MOL0     C86547  13.036   3.194   3.704  0.0382 -0.4950 -0.4746
  628MOL0     C86548  13.065   3.343   3.677 -0.6171 -0.9637 -0.1483
  628MOL0     C86549  13.058   3.432   3.807 -0.1316  0.5357  0.1799
  628MOL0     O86550  13.123   3.555   3.793  0.6295 -0.0235 -0.3472
  628MOL0     C86551  13.052   3.671   3.753 -0.4389  0.6003  0.5529
  628MOL0     C86552  12.926   3.657   3.688 -0.2150 -0.3941  1.5602
  628MOL0     C86553  12.857   3.770   3.635  0.0267  0.2702  0.2352
  628MOL0     C86554  12.715   3.746   3.580 -0.5198  0.4480 -0.5432
  628MOL0     C86555  12.912   3.900   3.641  0.1891  0.5177  0.9535
  628MOL0     C86556  12.832   4.022   3.597  1.1128  0.8119  0.1078
  628MOL0     O86557  12.735   4.062   3.678  0.0595 -0.0805 -0.8448
  628MOL0     C86558  12.673   4.178   3.658  0.8767  0.4533  0.5692
  628MOL0     C86559  12.737   4.300   3.637 -0.4334  0.1597  0.6412
  628MOL0     C86560  12.659   4.414   3.616 -0.1036 -0.3354  0.1132
  628MOL0     C86561  12.524   4.419   3.590  0.4165 -0.7084 -0.4676
  628MOL0     O86562  12.459   4.529   3.555 -0.5712 -0.5123  0.0040
  628MOL0     C86563  12.312   4.530   3.556  0.4357  0.8690  0.0527
  628MOL0     C86564  12.258   4.661   3.498  0.3262 -0.4940  0.3897
  628MOL0     C86565  12.314   4.700   3.367  0.2582 -1.0119 -0.7519
  628MOL0     C86566  12.269   4.829   3.298  0.0773 -0.2240 -0.1661
  628MOL0     C86567  12.361   4.951   3.316 -0.6334  0.6188  0.3928
  628MOL0     C86568  12.489   4.939   3.238 -1.4704  0.1117  0.3818
  628MOL0     C86569  12.597   5.053   3.263 -0.6556  0.3411  0.0212
  628MOL0     C86570  12.695   5.060   3.137  0.1087  0.1339  0.5086
  628MOL0    Cl86571  12.795   4.908   3.138  0.1744 -0.2366  0.1767
  628MOL0     C86572  12.463   4.295   3.607  0.6189  0.3628  0.0473
  628MOL0     C86573  12.534   4.175   3.645  0.2334  0.4011  0.1742
  628MOL0     O86574  12.886   4.081   3.509 -0.6957  0.6466  0.4313
  628MOL0     C86575  13.048   3.909   3.688  0.4768 -0.7621  0.4438
  628MOL0     C86576  13.110   3.797   3.743 -0.1124 -0.3586 -0.9100
  628MOL0     N86577  12.710   3.343   3.747 -0.9022 -0.4525 -0.0068
  628MOL0     N86578  12.634   3.389   3.649  0.4806  0.1357  0.3152
  628MOL0     C86579  11.661   2.926   3.453  0.4407 -0.0180 -0.2609
  628MOL0     C86580  11.543   2.860   3.486  0.8388 -0.0165 -0.1833
  628MOL0     C86581  11.179   2.560   3.471 -0.7749  0.2197  0.3990
  628MOL0     C86582  11.158   2.423   3.493 -0.2715  0.2145  0.2613
  628MOL0     C86583  11.044   2.383   3.582  0.5346 -0.0560 -0.0095
  628MOL0     C86584  10.956   2.473   3.638  0.2765 -0.2695 -0.2509
  628MOL0     O86585  10.854   2.433   3.722 -0.4431 -0.1545  0.1594
  628MOL0     C86586  10.742   2.389   3.646 -0.0849  0.8165  0.3152
  628MOL0     C86587  10.734   2.236   3.649  0.1200 -0.1683  0.4185
  628MOL0     C86588  10.651   2.183   3.534  0.5759 -0.0143 -0.1184
  628MOL0     C86589  10.564   2.064   3.579  0.4231  0.6010  0.3417
  628MOL0     C86590  10.489   1.999   3.468  0.0895 -0.4272 -0.1800
  628MOL0     C86591  10.425   1.950   3.370 -0.3507 -0.5108  0.9919
  628MOL0     C86592  10.985   2.611   3.621 -0.1086  0.4363  0.2929
  628MOL0     C86593  11.089   2.655   3.533 -0.4497  0.1314  0.0291
  628MOL0     C86594  11.098   2.798   3.500  0.3415 -0.6932  0.2412
  628MOL0     H86595  11.531   2.632   3.231  0.3615 -0.1165  0.4643
  628MOL0     H86596  11.737   2.716   3.193  0.7257 -1.0230  1.2125
  628MOL0     H86597  11.913   2.859   3.148  1.9140 -5.7414 -0.7166
  628MOL0     H86598  11.985   2.763   3.279  2.0526 -0.9666 -1.0836
  628MOL0     H86599  12.134   2.955   3.334  0.5849 -0.4186 -0.9183
  628MOL0     H86600  12.149   2.881   3.172  3.1090  0.2169  2.6249
  628MOL0     H86601  12.024   3.064   3.087  0.1503 -1.2216  0.7860
  628MOL0     H86602  12.007   3.142   3.244 -1.1194  0.0830 -1.0653
  628MOL0     H86603  12.269   3.092   3.097  0.1073 -1.6685  0.7150
  628MOL0     H86604  12.178   3.245   3.114 -0.1530  0.7449  2.1285
  628MOL0     H86605  12.303   3.082   3.324  0.8243  1.5192  2.1740
  628MOL0     H86606  12.196   3.224   3.345 -1.3013 -1.8351  0.1004
  628MOL0     H86607  12.458   3.231   3.201  2.1593  2.1833  1.4156
  628MOL0     H86608  12.358   3.370   3.248 -0.0382  0.3956  1.1671
  628MOL0     H86609  12.472   3.167   3.443  0.6925  1.3536  0.7329
  628MOL0     H86610  12.385   3.312   3.489  0.7117 -0.9481  1.2882
  628MOL0     H86611  12.645   3.291   3.331 -0.1103  0.3114  0.0011
  628MOL0     H86612  12.581   3.444   3.386 -0.9310  0.2029 -0.2191
  628MOL0     H86613  12.797   3.146   3.495 -0.1004  0.7259 -1.3241
  628MOL0     H86614  12.863   3.056   3.756 -0.8283  0.1869  0.6168
  628MOL0     H86615  12.893   3.203   3.859  0.0447 -0.1002 -0.2386
  628MOL0     H86616  13.108   3.137   3.764  0.0708 -0.5070 -0.5244
  628MOL0     H86617  13.047   3.147   3.606 -2.1848 -0.2499 -0.9040
  628MOL0     H86618  13.166   3.366   3.642  0.0880 -0.0548  2.2614
  628MOL0     H86619  13.001   3.382   3.598  0.2090 -1.1410 -0.9269
  628MOL0     H86620  12.953   3.436   3.835 -1.9568 -0.4805 -5.2691
  628MOL0     H86621  13.113   3.373   3.881  0.8489  0.7689 -0.3337
  628MOL0     H86622  12.875   3.562   3.684 -0.2603 -0.3524  1.0133
  628MOL0     H86623  12.722   3.780   3.477 -1.0730  2.8492  0.1522
  628MOL0     H86624  12.641   3.809   3.632  1.3113  1.4887  0.9182
  628MOL0     H86625  12.677   3.644   3.595  2.0636 -0.6606 -0.9898
  628MOL0     H86626  12.844   4.303   3.654 -0.4610 -0.6820  0.9805
  628MOL0     H86627  12.701   4.514   3.617  1.0852 -0.7963 -1.3417
  628MOL0     H86628  12.273   4.459   3.482  0.3693  1.6538 -0.6872
  628MOL0     H86629  12.278   4.516   3.659  2.3436  1.8008  0.8575
  628MOL0     H86630  12.151   4.639   3.496  0.0465  0.8792 -0.3151
  628MOL0     H86631  12.288   4.734   3.574  4.0103 -0.1434 -1.1730
  628MOL0     H86632  12.276   4.627   3.295 -1.0382  0.6099 -1.7774
  628MOL0     H86633  12.423   4.696   3.367  0.3477  0.5813  0.4412
  628MOL0     H86634  12.172   4.864   3.335  1.2687  0.6463  2.3922
  628MOL0     H86635  12.267   4.821   3.189 -0.8851  3.1040 -0.5262
  628MOL0     H86636  12.304   5.034   3.274 -1.0854 -0.6288 -1.5708
  628MOL0     H86637  12.391   4.973   3.419  1.4442  0.6249 -0.1559
  628MOL0     H86638  12.478   4.936   3.129 -0.9518  0.5394  0.3148
  628MOL0     H86639  12.533   4.840   3.253 -1.3587 -0.7666 -4.3668
  628MOL0     H86640  12.650   5.035   3.356  2.2555  2.4052 -1.0731
  628MOL0     H86641  12.538   5.144   3.278 -0.0159  0.9642 -1.0496
  628MOL0     H86642  12.755   5.151   3.132 -2.8069  2.2367  1.3537
  628MOL0     H86643  12.652   5.046   3.038  2.1496  1.0353 -0.5628
  628MOL0     H86644  12.359   4.292   3.576  0.1933  4.5455  0.3829
  628MOL0     H86645  12.474   4.085   3.653 -0.6141  1.0638  1.6978
  628MOL0     H86646  13.101   4.003   3.694  2.6199 -1.9395  1.0064
  628MOL0     H86647  13.209   3.821   3.781 -1.5457  1.1910  2.2508
  628MOL0     H86648  11.701   3.011   3.507  0.3382 -0.0118 -0.1936
  628MOL0     H86649  11.482   2.892   3.570  0.1138 -1.3598 -0.1698
  628MOL0     H86650  11.226   2.352   3.448 -1.0905  0.8532 -2.1110
  628MOL0     H86651  11.029   2.275   3.587 -0.3924  0.1238  1.7530
  628MOL0     H86652  10.651   2.429   3.692  0.6366  0.5890  2.0089
  628MOL0     H86653  10.751   2.421   3.542 -1.0107  1.7852  0.5209
  628MOL0     H86654  10.686   2.206   3.742 -0.5346  0.2710  0.2261
  628MOL0     H86655  10.835   2.195   3.659  0.1066 -0.0594  1.0308
  628MOL0     H86656  10.576   2.249   3.489 -0.7599 -0.4551  1.3934
  628MOL0     H86657  10.725   2.162   3.456  1.8208 -0.2483  1.1031
  628MOL0     H86658  10.485   2.100   3.645 -1.7332 -0.5029 -1.4932
  628MOL0     H86659  10.623   1.986   3.628  0.7548 -0.3004 -1.3860
  628MOL0     H86660  10.384   1.900   3.285 -0.0326 -2.2982  1.8434
  628MOL0     H86661  10.924   2.679   3.678 -2.9838 -1.4479 -0.3294
  628MOL0     H86662  11.116   2.814   3.393 -3.3878  4.3407  0.0147
  628MOL0     H86663  11.007   2.855   3.522 -1.8253 -3.2014 -1.6528
  628MOL0     H86664  11.173   2.843   3.566 -0.1639  0.2507  0.1889
  629MOL0     O86665   5.602   4.494   3.351 -0.2278  0.6800 -0.4381
  629MOL0     C86666   5.608   4.435   3.242  0.3805 -0.0051  0.5100
  629MOL0     O86667   5.656   4.314   3.221 -0.1736 -0.2745 -0.1662
  629MOL0     C86668   5.729   4.258   3.329 -0.7342 -0.0195  0.9989
  629MOL0     C86669   5.652   4.195   3.431  0.2729 -0.6266  0.4984
  629MOL0     C86670   5.717   4.123   3.525 -0.7458  0.0069  0.1620
  629MOL0     C86671   5.855   4.100   3.520  0.8213  0.1346 -0.5571
  629MOL0     O86672   5.903   4.016   3.620 -0.1809 -0.0461 -0.0149
  629MOL0     C86673   6.045   3.982   3.607 -0.3386 -0.1599 -0.4172
  629MOL0     C86674   6.080   3.883   3.723  0.0008  0.2571 -0.4300
  629MOL0     C86675   6.056   3.920   3.867 -0.5491  0.0719  0.2488
  629MOL0     C86676   6.188   3.977   3.917 -0.2387  0.1007  0.6085
  629MOL0     C86677   6.192   3.963   4.065  0.0083 -0.5989  0.7653
  629MOL0     C86678   6.306   4.060   4.118  0.4538 -0.3056  0.7832
  629MOL0     C86679   6.311   4.059   4.265 -0.9418  0.5537  0.2470
  629MOL0     C86680   6.384   3.930   4.316  0.7161 -0.4034 -0.8713
  629MOL0     N86681   6.443   3.949   4.448  0.4079  0.3932  0.0756
  629MOL0     C86682   6.370   3.990   4.557 -1.2491  0.1678 -0.1506
  629MOL0     C86683   6.471   4.015   4.648  0.5927  0.1281 -0.6884
  629MOL0     C86684   6.455   4.053   4.791 -0.0980  0.8340 -0.1154
  629MOL0     C86685   6.428   3.927   4.872  0.8419  0.7055 -0.1448
  629MOL0     C86686   6.542   3.838   4.881  0.4239 -0.3806 -0.2263
  629MOL0     C86687   6.639   3.882   4.989 -0.0483  0.2344  0.6278
  629MOL0     O86688   6.642   3.785   5.101 -0.0458  0.9256  0.5022
  629MOL0     C86689   6.752   3.709   5.112  0.6040  0.8431  0.1022
  629MOL0     C86690   6.758   3.588   5.053  0.7202 -0.1691  0.1265
  629MOL0     C86691   6.862   3.503   5.055 -0.1659  0.2099 -0.0779
  629MOL0     C86692   6.877   3.377   4.971  0.4207 -0.1287  0.0705
  629MOL0     C86693   6.969   3.539   5.137 -0.3094 -0.1151 -0.1445
  629MOL0     C86694   7.097   3.464   5.160  0.3449  0.4913 -0.0641
  629MOL0     O86695   7.200   3.526   5.230 -0.4676  0.3170 -0.1207
  629MOL0     C86696   7.326   3.466   5.231 -0.0454  0.1596  0.8241
  629MOL0     C86697   7.337   3.349   5.304  0.6522  0.6211  0.9369
  629MOL0     C86698   7.457   3.285   5.317 -0.2015  0.5600  0.5719
  629MOL0     C86699   7.569   3.337   5.254 -0.4105  0.5529 -0.1153
  629MOL0     O86700   7.678   3.257   5.254 -0.0796 -0.0805 -0.0755
  629MOL0     C86701   7.793   3.303   5.181 -0.3693 -0.1286  0.1372
  629MOL0     C86702   7.903   3.197   5.215 -0.3748 -0.9086 -0.2163
  629MOL0     C86703   7.945   3.201   5.361 -0.6434  0.0035 -0.7634
  629MOL0     C86704   8.012   3.068   5.397  0.0523 -0.1812 -0.7605
  629MOL0     C86705   8.110   3.073   5.524 -0.3930 -0.7744 -0.7835
  629MOL0     C86706   8.244   3.141   5.506 -0.2305 -0.1655 -0.5041
  629MOL0     C86707   8.327   3.139   5.636  0.5550  0.8470 -0.5699
  629MOL0     C86708   8.429   3.246   5.648  0.8933  0.4442 -0.0495
  629MOL0    Cl86709   8.533   3.254   5.504 -0.3738 -0.2285  0.4768
  629MOL0     C86710   7.565   3.453   5.178  1.1384 -0.2283  0.2467
  629MOL0     C86711   7.440   3.517   5.167 -0.2898 -0.0062 -0.6809
  629MOL0     O86712   7.104   3.344   5.122 -0.7471  0.0334 -0.2054
  629MOL0     C86713   6.967   3.660   5.206 -0.2915 -0.4949 -0.3684
  629MOL0     C86714   6.856   3.745   5.194 -0.2484  0.4650 -0.5032
  629MOL0     N86715   6.587   3.996   4.584 -0.2186  0.0053  0.2081
  629MOL0     N86716   6.572   3.955   4.465  0.2596 -0.0837 -0.2518
  629MOL0     C86717   5.933   4.159   3.418 -0.5142  0.2812 -0.2390
  629MOL0     C86718   5.874   4.238   3.317 -0.5805  1.0625 -0.3856
  629MOL0     C86719   5.537   4.476   3.119 -0.8411 -0.3963 -0.2590
  629MOL0     C86720   5.546   4.398   2.997  0.2927 -0.0042 -0.2868
  629MOL0     C86721   5.469   4.434   2.894  1.4825  1.0254 -0.2692
  629MOL0     C86722   5.389   4.551   2.888 -0.6212 -0.7163 -0.6173
  629MOL0     O86723   5.322   4.596   2.788  0.6634 -0.3104  0.0030
  629MOL0     C86724   5.287   4.517   2.671 -0.3014  0.0049 -0.2285
  629MOL0     C86725   5.167   4.587   2.610 -0.3870  0.7216 -0.7150
  629MOL0     C86726   5.041   4.582   2.687  1.1563  0.2625 -0.2470
  629MOL0     C86727   4.991   4.431   2.703 -0.0189 -0.2672  0.4805
  629MOL0     C86728   4.860   4.427   2.765 -0.0631  0.2580 -0.4539
  629MOL0     C86729   4.752   4.408   2.814 -0.0486 -0.2278  0.9196
  629MOL0     C86730   5.393   4.628   3.005  0.3475 -0.7167  0.5269
  629MOL0     C86731   5.467   4.598   3.121  0.5345  0.5461  0.8606
  629MOL0     C86732   5.449   4.696   3.230 -0.0620  0.4180 -0.1642
  629MOL0     H86733   5.544   4.198   3.437  0.0084 -0.5719 -2.5862
  629MOL0     H86734   5.666   4.073   3.607  0.4247 -3.2232 -0.9387
  629MOL0     H86735   6.103   4.074   3.616 -2.5402  1.2765 -0.1827
  629MOL0     H86736   6.055   3.931   3.511 -1.1485 -1.2954  0.0763
  629MOL0     H86737   6.016   3.795   3.716 -0.4645  0.1447  3.5011
  629MOL0     H86738   6.177   3.839   3.697 -0.0482  0.1692 -0.4631
  629MOL0     H86739   5.979   3.997   3.879  1.6762  2.0205  3.6984
  629MOL0     H86740   6.022   3.826   3.912 -0.1926  0.3467  1.1228
  629MOL0     H86741   6.277   3.924   3.881  0.9917  1.7455  1.1174
  629MOL0     H86742   6.201   4.080   3.882 -1.5334  0.7210  1.8874
  629MOL0     H86743   6.212   3.859   4.092 -2.2972 -1.4118 -0.3710
  629MOL0     H86744   6.097   3.991   4.111  0.5576  0.6415  1.1881
  629MOL0     H86745   6.398   4.022   4.072 -0.2856 -1.7644  0.4443
  629MOL0     H86746   6.284   4.160   4.079 -0.6225 -0.1270  1.7841
  629MOL0     H86747   6.208   4.060   4.300 -1.1894  1.9500 -0.4276
  629MOL0     H86748   6.358   4.153   4.298  1.5154 -0.4019 -0.3488
  629MOL0     H86749   6.303   3.857   4.318  0.8061 -0.4816  0.0157
  629MOL0     H86750   6.451   3.880   4.245 -0.4211 -3.5735  0.1110
  629MOL0     H86751   6.263   3.992   4.575 -1.1954 -1.0483  0.3733
  629MOL0     H86752   6.368   4.119   4.795 -1.0570 -0.3757 -0.3520
  629MOL0     H86753   6.554   4.089   4.821  1.7633 -3.5842 -0.2132
  629MOL0     H86754   6.386   3.947   4.971 -0.5271  0.1787 -0.5861
  629MOL0     H86755   6.357   3.863   4.820  1.2555  1.4897 -1.7439
  629MOL0     H86756   6.506   3.736   4.898  1.8424 -1.0517 -1.0848
  629MOL0     H86757   6.592   3.826   4.784  1.5883  3.0515 -0.1958
  629MOL0     H86758   6.740   3.889   4.947 -0.8844  2.3391 -1.2557
  629MOL0     H86759   6.607   3.978   5.030 -0.4715  0.8266 -1.0159
  629MOL0     H86760   6.669   3.554   5.000  1.2971  0.0297 -1.0079
  629MOL0     H86761   6.978   3.376   4.930 -0.1388 -0.6254 -1.3873
  629MOL0     H86762   6.816   3.369   4.880 -0.4179 -1.1343  0.6916
  629MOL0     H86763   6.866   3.290   5.036 -0.5481  1.9569  2.8881
  629MOL0     H86764   7.247   3.310   5.350  1.7963  1.9569  4.6509
  629MOL0     H86765   7.472   3.197   5.378 -1.3428 -0.5826 -0.7215
  629MOL0     H86766   7.766   3.295   5.075 -2.2558 -0.8759  0.6361
  629MOL0     H86767   7.830   3.400   5.214 -1.3211 -0.1150  1.2543
  629MOL0     H86768   7.867   3.095   5.198  1.3370 -1.7914  1.0885
  629MOL0     H86769   7.994   3.216   5.157 -0.9615  2.9263 -0.1161
  629MOL0     H86770   7.865   3.223   5.431  0.7758  2.2090  0.2581
  629MOL0     H86771   8.011   3.285   5.387 -1.2466  0.3266 -0.2568
  629MOL0     H86772   8.072   3.044   5.309  0.2634 -1.0826 -0.3795
  629MOL0     H86773   7.942   2.988   5.422 -2.3331  2.2957  1.0816
  629MOL0     H86774   8.071   3.118   5.615  1.5241  0.3589 -0.4677
  629MOL0     H86775   8.122   2.969   5.553 -0.8192 -0.6582 -0.1632
  629MOL0     H86776   8.242   3.245   5.472  1.0926 -0.1579 -0.6297
  629MOL0     H86777   8.302   3.092   5.427 -0.4119  0.3046 -0.9351
  629MOL0     H86778   8.385   3.047   5.641  0.0828  0.6039  1.5716
  629MOL0     H86779   8.272   3.146   5.731  3.0733  0.0131  1.0471
  629MOL0     H86780   8.479   3.232   5.744 -0.8237  0.6762  0.9160
  629MOL0     H86781   8.374   3.341   5.650  0.7798  0.3748  0.0550
  629MOL0     H86782   7.649   3.492   5.121  1.9628 -3.0613 -0.6074
  629MOL0     H86783   7.431   3.618   5.129 -0.6272  0.2502  0.0583
  629MOL0     H86784   7.043   3.697   5.274 -3.1346  2.2204  1.5807
  629MOL0     H86785   6.855   3.836   5.252  0.6657  1.6528 -2.2429
  629MOL0     H86786   6.039   4.138   3.413 -0.2817  0.8388  1.5086
  629MOL0     H86787   5.915   4.284   3.228 -0.1892  1.6033  0.0706
  629MOL0     H86788   5.598   4.304   2.984 -0.6062 -0.6265  0.4054
  629MOL0     H86789   5.484   4.380   2.801 -1.6226 -2.0163  0.7964
  629MOL0     H86790   5.368   4.519   2.598  1.6476 -2.0354  1.7117
  629MOL0     H86791   5.288   4.410   2.695 -0.0831  0.5672  2.6007
  629MOL0     H86792   5.160   4.544   2.510  2.5493 -2.4341  0.2332
  629MOL0     H86793   5.200   4.692   2.606  1.1831  0.2585 -0.6834
  629MOL0     H86794   5.049   4.632   2.783 -2.8687 -1.1271  1.0106
  629MOL0     H86795   4.966   4.632   2.625  2.4035  2.1752 -0.2729
  629MOL0     H86796   5.063   4.385   2.772 -0.4406  0.9533  1.7807
  629MOL0     H86797   4.984   4.373   2.611 -0.4417 -0.8856  0.8871
  629MOL0     H86798   4.657   4.371   2.848 -1.2078 -1.1458 -2.8527
  629MOL0     H86799   5.335   4.720   3.010  1.1183 -0.2878  2.2087
  629MOL0     H86800   5.369   4.765   3.203 -0.3022 -0.2874 -1.3010
  629MOL0     H86801   5.420   4.642   3.320  0.6419  1.1732  0.5435
  629MOL0     H86802   5.544   4.749   3.247  0.6790 -0.1006 -2.3835
  630MOL0     O86803   5.822   4.567   8.082  0.4761  0.4705 -0.2590
  630MOL0     C86804   5.856   4.665   8.021  0.5373  0.5399 -0.7000
  630MOL0     O86805   5.774   4.751   7.957  0.3224  0.2561  0.3649
  630MOL0     C86806   5.631   4.750   7.967  0.0288 -0.8649 -0.1840
  630MOL0     C86807   5.549   4.635   7.988  0.4209 -0.6810 -1.0159
  630MOL0     C86808   5.415   4.652   8.011 -0.2195 -0.0563  0.3651
  630MOL0     C86809   5.349   4.776   8.006 -0.0030 -0.3880  0.2455
  630MOL0     O86810   5.218   4.800   8.037  0.4426 -0.3980 -0.1275
  630MOL0     C86811   5.130   4.693   8.064  0.2176 -0.9226  0.2862
  630MOL0     C86812   4.987   4.750   8.085 -0.2814 -0.5087 -0.1765
  630MOL0     C86813   4.971   4.858   8.194 -0.1570  0.3363 -0.7739
  630MOL0     C86814   4.833   4.926   8.191 -0.7349 -1.1399 -0.2384
  630MOL0     C86815   4.704   4.856   8.236 -0.2470  0.2403  0.4022
  630MOL0     C86816   4.684   4.860   8.394 -0.9725  0.1506  0.4350
  630MOL0     C86817   4.791   4.784   8.478 -0.0829  0.2101 -0.0526
  630MOL0     C86818   4.817   4.637   8.437 -0.4349 -0.5997  0.7376
  630MOL0     N86819   4.935   4.592   8.501 -0.5627  0.2283 -0.9255
  630MOL0     C86820   4.953   4.568   8.634 -0.0494  0.4329 -0.3524
  630MOL0     C86821   5.085   4.527   8.647  0.1837  0.8137  0.7809
  630MOL0     C86822   5.176   4.485   8.766  0.4328 -0.3720 -0.4240
  630MOL0     C86823   5.313   4.534   8.770 -0.2353  0.4746 -0.2778
  630MOL0     C86824   5.390   4.463   8.887 -0.4689 -0.2007  0.0449
  630MOL0     C86825   5.536   4.459   8.864 -0.7941 -0.1775 -0.2146
  630MOL0     O86826   5.596   4.358   8.945 -0.3067  0.0152 -0.7606
  630MOL0     C86827   5.730   4.358   8.984 -0.8967 -0.3054 -0.6518
  630MOL0     C86828   5.805   4.241   8.970  0.2034  0.3532 -0.3852
  630MOL0     C86829   5.947   4.243   8.986  0.7982  0.0055 -0.6617
  630MOL0     C86830   6.023   4.116   8.953  0.1454 -0.1713  0.1138
  630MOL0     C86831   6.009   4.361   9.029 -0.1440  0.6831 -0.3818
  630MOL0     C86832   6.155   4.385   9.031  0.1649  0.5069 -0.1898
  630MOL0     O86833   6.190   4.495   9.097 -0.2035 -0.2782 -0.0910
  630MOL0     C86834   6.317   4.536   9.087  0.5387  0.9152 -1.1087
  630MOL0     C86835   6.344   4.618   8.974 -0.4689 -0.2109  0.3435
  630MOL0     C86836   6.478   4.654   8.946 -0.1369  0.1559  0.6841
  630MOL0     C86837   6.583   4.603   9.030  0.7096  0.4265  0.1312
  630MOL0     O86838   6.704   4.635   8.982  0.2806  0.4632 -0.0408
  630MOL0     C86839   6.831   4.595   9.038  0.0432 -0.5285 -0.0733
  630MOL0     C86840   6.944   4.626   8.941 -0.6664 -0.6181 -0.3813
  630MOL0     C86841   6.960   4.777   8.931 -0.6953 -1.0775 -0.0340
  630MOL0     C86842   7.069   4.801   8.828  0.1208  0.3736 -0.4514
  630MOL0     C86843   7.112   4.951   8.816  0.0277  0.4436  0.6641
  630MOL0     C86844   7.208   4.971   8.708 -0.8529  0.0282 -0.0557
  630MOL0     C86845   7.262   5.114   8.707 -0.1839 -0.0015 -0.0425
  630MOL0     C86846   7.355   5.127   8.584  0.5619  0.1061 -0.3016
  630MOL0    Cl86847   7.415   5.291   8.575 -0.0974 -0.4703 -0.1982
  630MOL0     C86848   6.559   4.525   9.137  0.3506  0.1234  0.1187
  630MOL0     C86849   6.426   4.486   9.171  0.6961 -0.8569 -0.3539
  630MOL0     O86850   6.229   4.323   8.957 -0.2978 -0.1707  0.1182
  630MOL0     C86851   5.926   4.468   9.075 -0.9161  0.0308  0.1879
  630MOL0     C86852   5.789   4.470   9.051 -0.6641 -0.2399  0.1675
  630MOL0     N86853   5.136   4.546   8.520 -0.1146 -0.7543  0.6781
  630MOL0     N86854   5.052   4.583   8.434  0.3314  0.3061  0.2105
  630MOL0     C86855   5.424   4.890   7.974  0.2494  0.6920 -0.4277
  630MOL0     C86856   5.566   4.876   7.969  0.6017 -0.6563  0.7468
  630MOL0     C86857   6.000   4.698   8.008 -0.1477  0.5214 -0.8682
  630MOL0     C86858   6.037   4.824   7.960  0.0313  0.0432  0.4618
  630MOL0     C86859   6.164   4.856   7.926 -0.3717  0.2277  0.0999
  630MOL0     C86860   6.272   4.767   7.950  0.0489  0.2210  0.5116
  630MOL0     O86861   6.398   4.813   7.931  0.4582  0.3818 -0.2880
  630MOL0     C86862   6.510   4.737   7.985  0.6094 -0.4277  0.1385
  630MOL0     C86863   6.638   4.803   7.950  0.7169 -0.0769  0.0087
  630MOL0     C86864   6.763   4.712   7.971  0.4391  0.2680 -0.3236
  630MOL0     C86865   6.895   4.800   7.954  0.7706 -0.3794 -0.2354
  630MOL0     C86866   6.925   4.902   8.054 -0.1215 -1.1618 -0.5838
  630MOL0     C86867   6.960   4.992   8.127  0.1006  0.4753 -0.6058
  630MOL0     C86868   6.236   4.644   8.004 -0.5124  0.7921 -0.2152
  630MOL0     C86869   6.107   4.610   8.029  0.5853 -0.4871 -0.8391
  630MOL0     C86870   6.081   4.476   8.086  0.1725  0.4657 -0.0798
  630MOL0     H86871   5.592   4.535   7.986  1.2996 -0.3040 -1.5681
  630MOL0     H86872   5.363   4.557   8.002 -0.5058  0.2492 -1.5949
  630MOL0     H86873   5.168   4.631   8.146 -0.9984 -2.1103 -0.0251
  630MOL0     H86874   5.122   4.620   7.983  0.9852 -2.2193  1.3298
  630MOL0     H86875   4.948   4.790   7.991 -2.6341 -1.1845  0.4326
  630MOL0     H86876   4.929   4.664   8.119  2.5110 -3.3353 -2.0031
  630MOL0     H86877   4.994   4.812   8.290  0.7962 -0.2890 -1.2922
  630MOL0     H86878   5.038   4.939   8.165 -0.6258  0.6602 -0.9647
  630MOL0     H86879   4.838   5.024   8.239  1.7091 -0.8696 -0.9107
  630MOL0     H86880   4.830   4.958   8.086  0.3313 -2.5251 -0.7361
  630MOL0     H86881   4.711   4.753   8.199  3.1540  0.2613  0.6089
  630MOL0     H86882   4.626   4.908   8.180 -0.3223  0.1064  0.3814
  630MOL0     H86883   4.674   4.963   8.428 -1.6405  0.8590 -1.7774
  630MOL0     H86884   4.591   4.812   8.426 -0.8893 -0.2399  0.0981
  630MOL0     H86885   4.768   4.790   8.584 -1.5083 -4.4983  0.1427
  630MOL0     H86886   4.890   4.831   8.473  0.4248 -0.8565 -0.3044
  630MOL0     H86887   4.733   4.574   8.466 -1.2730  0.8805  1.6333
  630MOL0     H86888   4.830   4.632   8.328 -0.8233 -4.4158  0.7536
  630MOL0     H86889   4.889   4.577   8.721 -0.4453  0.1359 -0.6097
  630MOL0     H86890   5.173   4.376   8.759 -1.1517 -0.4320  0.6709
  630MOL0     H86891   5.129   4.522   8.857  0.3994 -1.0169 -0.1782
  630MOL0     H86892   5.348   4.507   8.670 -0.2216 -3.1050  0.5777
  630MOL0     H86893   5.315   4.643   8.783 -1.4580  0.4201  0.5699
  630MOL0     H86894   5.378   4.524   8.977  2.4508 -0.2863  0.5818
  630MOL0     H86895   5.355   4.361   8.905  0.4963 -0.6606 -0.6364
  630MOL0     H86896   5.556   4.431   8.760  3.4875  0.8668  0.1229
  630MOL0     H86897   5.585   4.557   8.871  0.8386 -1.0121  0.8369
  630MOL0     H86898   5.753   4.150   8.943  0.4633 -0.0267  0.3723
  630MOL0     H86899   5.953   4.032   8.943 -0.2211  0.3965 -2.7865
  630MOL0     H86900   6.101   4.102   9.029 -1.8774  2.8189  3.0449
  630MOL0     H86901   6.070   4.108   8.855  1.3259  1.0375  0.5459
  630MOL0     H86902   6.253   4.648   8.924 -0.4520  2.6538  1.8230
  630MOL0     H86903   6.491   4.722   8.863 -0.6364 -0.9431 -0.3255
  630MOL0     H86904   6.847   4.653   9.129  0.1844  1.6658 -1.4235
  630MOL0     H86905   6.827   4.487   9.057  1.7901 -0.4918  0.6995
  630MOL0     H86906   7.030   4.565   8.969 -0.4632 -0.4013 -0.5228
  630MOL0     H86907   6.910   4.599   8.840 -0.1666  2.6602 -1.5440
  630MOL0     H86908   7.005   4.817   9.022  1.2330 -1.8698 -0.5779
  630MOL0     H86909   6.873   4.832   8.895  0.7446  0.7755 -0.8773
  630MOL0     H86910   7.031   4.781   8.727  0.5152  0.0214 -0.5311
  630MOL0     H86911   7.150   4.728   8.841 -0.3044 -0.5414 -2.5054
  630MOL0     H86912   7.024   5.014   8.800  0.8855  1.7240  0.8167
  630MOL0     H86913   7.150   4.976   8.915  1.5045 -0.2372  0.2857
  630MOL0     H86914   7.169   4.951   8.608  1.3161  0.2177 -0.9889
  630MOL0     H86915   7.292   4.904   8.726  1.6442  2.3770 -2.1616
  630MOL0     H86916   7.313   5.119   8.804 -0.2109  0.9576 -0.0686
  630MOL0     H86917   7.183   5.190   8.706 -1.3972 -1.0783  2.5930
  630MOL0     H86918   7.303   5.096   8.493  0.9283  0.2260 -0.5570
  630MOL0     H86919   7.439   5.057   8.582  1.6480  1.3569 -1.5782
  630MOL0     H86920   6.642   4.493   9.199  1.0888 -0.1194 -0.9706
  630MOL0     H86921   6.399   4.415   9.249 -2.1300 -1.1243 -1.4935
  630MOL0     H86922   5.966   4.557   9.123  0.1230 -0.4771  0.2820
  630MOL0     H86923   5.737   4.555   9.093 -1.1245 -0.4060 -0.0490
  630MOL0     H86924   5.378   4.988   7.965  0.6064  1.3456  3.1691
  630MOL0     H86925   5.623   4.968   7.964 -1.8530  1.0479  2.2887
  630MOL0     H86926   5.954   4.893   7.949 -1.2385 -1.3108  1.1004
  630MOL0     H86927   6.186   4.954   7.885  0.7599 -0.1260 -0.1740
  630MOL0     H86928   6.486   4.728   8.091  1.0741 -0.0137  0.2811
  630MOL0     H86929   6.506   4.633   7.952  2.6138  0.0141 -1.7959
  630MOL0     H86930   6.653   4.892   8.011 -0.8228  0.3704 -0.2100
  630MOL0     H86931   6.647   4.822   7.842  1.3876 -1.8700 -0.2805
  630MOL0     H86932   6.768   4.667   8.071 -1.6787 -1.5498 -0.9654
  630MOL0     H86933   6.756   4.632   7.897 -2.4135  0.7989 -0.7412
  630MOL0     H86934   6.905   4.846   7.855  0.7964  2.0812  0.8415
  630MOL0     H86935   6.978   4.728   7.960  0.7396 -0.2979  1.5683
  630MOL0     H86936   6.996   5.076   8.182 -1.1261  0.2597  0.5520
  630MOL0     H86937   6.304   4.564   8.032 -1.4084 -0.2333 -0.8936
  630MOL0     H86938   6.059   4.497   8.191 -2.1921 -1.1762 -0.1625
  630MOL0     H86939   5.999   4.416   8.046  0.6104  0.1972 -0.5936
  630MOL0     H86940   6.167   4.408   8.090 -1.0127 -1.1389 -0.5278
  631MOL0     O86941   1.086   2.499   6.073  0.0068 -0.0899 -0.8620
  631MOL0     C86942   1.076   2.444   6.185 -0.4481 -1.7127 -0.2151
  631MOL0     O86943   1.171   2.443   6.282 -0.7010  0.2025 -0.0044
  631MOL0     C86944   1.302   2.494   6.266  0.1751 -0.6172  0.5128
  631MOL0     C86945   1.353   2.597   6.178  0.3348 -0.3433 -0.2508
  631MOL0     C86946   1.491   2.619   6.172  0.3611 -0.0335 -0.1983
  631MOL0     C86947   1.577   2.565   6.266  0.1244  0.1074 -0.7662
  631MOL0     O86948   1.707   2.590   6.287 -0.0519 -0.2338 -0.5638
  631MOL0     C86949   1.774   2.699   6.210 -0.2922  0.6075  0.1015
  631MOL0     C86950   1.925   2.665   6.207  0.4519  0.1258 -0.4971
  631MOL0     C86951   1.997   2.730   6.091  0.7870 -0.4024 -0.0073
  631MOL0     C86952   2.028   2.879   6.116 -0.4194 -0.1470  0.0654
  631MOL0     C86953   2.080   2.951   5.990 -0.4749 -0.4470  0.0897
  631MOL0     C86954   2.091   3.100   6.004 -0.0380  0.4253  0.5584
  631MOL0     C86955   2.155   3.144   5.867 -0.6368 -0.5221 -1.1006
  631MOL0     C86956   2.200   3.293   5.884  0.3968 -0.4401 -0.4537
  631MOL0     N86957   2.313   3.308   5.975  0.3788 -0.0310 -0.2359
  631MOL0     C86958   2.314   3.353   6.107  0.3609 -0.5014  0.2155
  631MOL0     C86959   2.444   3.379   6.127  0.0022  0.1211  0.2888
  631MOL0     C86960   2.522   3.433   6.238 -0.1069  0.7202  0.1335
  631MOL0     C86961   2.449   3.558   6.299  0.3692 -0.5079 -0.4984
  631MOL0     C86962   2.553   3.645   6.377  0.1759 -0.3555  0.7039
  631MOL0     C86963   2.648   3.733   6.296 -0.1280  0.2573 -0.0894
  631MOL0     O86964   2.751   3.650   6.242  0.0947  0.3090 -0.7541
  631MOL0     C86965   2.885   3.694   6.251  1.4262 -0.7556 -0.2923
  631MOL0     C86966   2.976   3.619   6.319  0.0930  0.4175  0.8812
  631MOL0     C86967   3.110   3.661   6.336 -0.7682  0.4256  0.1490
  631MOL0     C86968   3.205   3.576   6.419 -0.0002  0.2017  0.0429
  631MOL0     C86969   3.150   3.783   6.273 -0.5090  0.2106  0.1584
  631MOL0     C86970   3.288   3.841   6.284 -0.4775 -0.3395 -0.0110
  631MOL0     O86971   3.302   3.966   6.226  0.4241  0.8450  0.5500
  631MOL0     C86972   3.424   4.022   6.226 -0.4132 -0.5766  0.3214
  631MOL0     C86973   3.484   4.094   6.328  0.0118  0.2050 -0.0632
  631MOL0     C86974   3.605   4.161   6.317  0.8622  0.6938 -0.3622
  631MOL0     C86975   3.681   4.154   6.202 -0.2086  0.1261  0.5756
  631MOL0     O86976   3.808   4.219   6.196 -0.1106 -0.5298 -0.2771
  631MOL0     C86977   3.910   4.133   6.239 -0.0004 -0.1054  0.8447
  631MOL0     C86978   4.056   4.172   6.206  0.1789  0.0160  1.1853
  631MOL0     C86979   4.071   4.193   6.058  0.6697  0.0912 -0.5608
  631MOL0     C86980   4.224   4.219   6.026 -0.4641  0.9682 -0.1321
  631MOL0     C86981   4.224   4.215   5.872  0.9319 -0.4852 -0.3641
  631MOL0     C86982   4.366   4.218   5.815 -0.2390 -0.0512  0.5381
  631MOL0     C86983   4.364   4.270   5.670  0.2166 -0.4161 -0.4371
  631MOL0     C86984   4.282   4.173   5.573  0.4033  0.0885 -0.3798
  631MOL0    Cl86985   4.299   4.215   5.402  0.1162  0.3801 -0.1517
  631MOL0     C86986   3.616   4.095   6.093  1.0237  0.2080 -1.1917
  631MOL0     C86987   3.496   4.028   6.102 -0.3608  1.0253 -0.5553
  631MOL0     O86988   3.365   3.793   6.365 -0.4806  0.7143  0.2163
  631MOL0     C86989   3.055   3.857   6.202 -0.3991  0.6085  0.3204
  631MOL0     C86990   2.924   3.812   6.190 -0.8112  0.1445 -0.4993
  631MOL0     N86991   2.511   3.336   6.019  0.2495  0.7149  0.3906
  631MOL0     N86992   2.435   3.295   5.922 -0.0064  0.4221 -0.9010
  631MOL0     C86993   1.530   2.472   6.362 -0.5801  0.3549  0.8817
  631MOL0     C86994   1.393   2.432   6.349  0.2409  0.6463  0.1812
  631MOL0     C86995   0.940   2.390   6.235 -0.3314 -0.0287  0.8445
  631MOL0     C86996   0.915   2.386   6.374  0.2082  0.6008  0.0825
  631MOL0     C86997   0.793   2.336   6.429 -1.0502 -1.1541 -0.6521
  631MOL0     C86998   0.692   2.298   6.348  0.2549  0.6024  0.3681
  631MOL0     O86999   0.564   2.266   6.378  1.1592  0.1217 -0.1174
  631MOL0     C87000   0.530   2.230   6.512  0.1923 -0.2165  0.0523
  631MOL0     C87001   0.382   2.201   6.508 -0.5154 -0.3252 -0.3139
  631MOL0     C87002   0.317   2.139   6.631 -0.1412 -0.5235 -0.6009
  631MOL0     C87003   0.238   2.005   6.622 -0.3461 -0.0100 -0.3717
  631MOL0     C87004   0.255   1.927   6.742  0.0255 -0.4703  0.6520
  631MOL0     C87005   0.269   1.882   6.848  0.3578  0.5724 -0.0074
  631MOL0     C87006   0.709   2.304   6.217 -0.3629 -0.4503  0.4988
  631MOL0     C87007   0.827   2.352   6.150  0.0542  0.9146 -0.2897
  631MOL0     C87008   0.836   2.348   6.001 -0.6738 -0.1039  0.4365
  631MOL0     H87009   1.289   2.665   6.124 -0.9896 -0.4904  1.0684
  631MOL0     H87010   1.526   2.698   6.107  0.1585  1.5347  1.5393
  631MOL0     H87011   1.749   2.798   6.248 -2.0325  0.5247 -0.7130
  631MOL0     H87012   1.737   2.692   6.107 -2.1584  1.1873  0.6905
  631MOL0     H87013   1.972   2.696   6.301  2.9756  2.1469 -2.2793
  631MOL0     H87014   1.940   2.557   6.199 -0.3559 -0.3920  3.1956
  631MOL0     H87015   2.093   2.681   6.074  0.9437  0.1981 -0.9338
  631MOL0     H87016   1.936   2.740   6.000 -1.1895  2.3618  1.4818
  631MOL0     H87017   1.932   2.928   6.136 -0.5519 -1.0830  1.9286
  631MOL0     H87018   2.100   2.896   6.197 -2.5673  4.0161  1.3539
  631MOL0     H87019   2.011   2.923   5.910 -0.9851  2.2773 -0.5069
  631MOL0     H87020   2.181   2.922   5.959  0.8868  3.2144  0.6946
  631MOL0     H87021   1.992   3.145   6.016 -0.5119  0.1168 -1.6876
  631MOL0     H87022   2.154   3.115   6.093 -0.5401  1.2373  0.7841
  631MOL0     H87023   2.094   3.139   5.777  1.2194 -2.8221 -2.3486
  631MOL0     H87024   2.242   3.084   5.837 -0.6456 -0.7712 -0.6412
  631MOL0     H87025   2.216   3.326   5.781 -2.1779 -0.5653 -0.9761
  631MOL0     H87026   2.114   3.352   5.919  1.7133  0.6012  1.1999
  631MOL0     H87027   2.234   3.366   6.179  1.3155 -1.2986  1.4675
  631MOL0     H87028   2.622   3.461   6.205  0.6322  0.8689  2.3853
  631MOL0     H87029   2.533   3.358   6.316 -1.0105  0.9385  0.4850
  631MOL0     H87030   2.404   3.624   6.224 -1.7058 -0.5696  0.6098
  631MOL0     H87031   2.368   3.529   6.367  0.7090 -1.3696 -0.4459
  631MOL0     H87032   2.504   3.713   6.448 -3.1247 -2.3180  0.5054
  631MOL0     H87033   2.619   3.586   6.441 -0.1260  0.3959  1.7450
  631MOL0     H87034   2.600   3.779   6.209  0.4827  1.8961  0.3953
  631MOL0     H87035   2.694   3.815   6.353 -2.2240  0.6092  1.1800
  631MOL0     H87036   2.937   3.533   6.373  0.7348  0.8302  2.0480
  631MOL0     H87037   3.237   3.619   6.514  0.3004  0.4082 -0.1514
  631MOL0     H87038   3.290   3.537   6.362  0.4465 -0.4910  1.1493
  631MOL0     H87039   3.146   3.489   6.449 -0.3415  1.5934  3.9351
  631MOL0     H87040   3.425   4.098   6.419 -0.1241 -3.3278  0.1419
  631MOL0     H87041   3.639   4.224   6.399 -3.5340  1.4886  1.1620
  631MOL0     H87042   3.897   4.115   6.346 -2.1255 -0.3835  0.5899
  631MOL0     H87043   3.890   4.045   6.177  2.5461  0.0566 -0.3174
  631MOL0     H87044   4.081   4.265   6.259 -2.6384  1.6603 -0.1180
  631MOL0     H87045   4.125   4.091   6.231  0.2467 -0.7411 -1.1684
  631MOL0     H87046   4.008   4.281   6.043  1.1297  0.3739 -0.8535
  631MOL0     H87047   4.034   4.106   6.004  0.9794 -0.3341 -0.0949
  631MOL0     H87048   4.290   4.143   6.068  0.4582  1.8900  0.1468
  631MOL0     H87049   4.251   4.321   6.055 -0.0323  1.1830 -1.2396
  631MOL0     H87050   4.169   4.126   5.841  0.3003 -0.1418 -0.2384
  631MOL0     H87051   4.171   4.309   5.855  0.1449 -0.4458  1.9559
  631MOL0     H87052   4.398   4.114   5.819 -2.2783 -0.6816  1.6524
  631MOL0     H87053   4.437   4.274   5.877  0.7312  2.0157 -2.2048
  631MOL0     H87054   4.466   4.278   5.630  1.1716 -0.3329  1.8142
  631MOL0     H87055   4.321   4.370   5.677  0.9032 -0.2064  1.9956
  631MOL0     H87056   4.175   4.181   5.595  0.5650  1.7248 -0.0409
  631MOL0     H87057   4.304   4.068   5.594 -1.4445  0.3487  3.7838
  631MOL0     H87058   3.668   4.100   5.998  2.2470  1.1311 -0.5034
  631MOL0     H87059   3.434   3.989   6.021 -0.4022 -1.1374  0.4531
  631MOL0     H87060   3.081   3.950   6.153  1.0790  1.1185  1.9854
  631MOL0     H87061   2.858   3.868   6.126  1.7694  1.0770 -2.5241
  631MOL0     H87062   1.594   2.412   6.426  0.4548 -1.2411 -1.4799
  631MOL0     H87063   1.340   2.357   6.406 -2.1010  1.9382 -0.1377
  631MOL0     H87064   0.991   2.420   6.443  0.1498  0.4921  0.1996
  631MOL0     H87065   0.771   2.343   6.535  0.6122 -0.3814 -0.3281
  631MOL0     H87066   0.588   2.145   6.549  1.0334  0.0667 -0.6120
  631MOL0     H87067   0.545   2.319   6.575 -5.9020  0.6552  0.8895
  631MOL0     H87068   0.346   2.148   6.419 -2.2242 -0.3967  0.3830
  631MOL0     H87069   0.337   2.300   6.496 -0.4082  0.0954  2.3316
  631MOL0     H87070   0.402   2.121   6.697  0.9267 -0.5145 -1.9271
  631MOL0     H87071   0.250   2.217   6.669 -1.0733 -0.0984 -2.9330
  631MOL0     H87072   0.272   1.954   6.532 -0.9311 -0.5267 -0.3046
  631MOL0     H87073   0.131   2.024   6.614 -0.9447 -2.8266  0.0762
  631MOL0     H87074   0.266   1.833   6.943 -0.0229  0.1431 -0.2380
  631MOL0     H87075   0.633   2.269   6.147  0.1108 -1.7604  0.6071
  631MOL0     H87076   0.931   2.323   5.952 -2.2966 -0.0916 -3.0018
  631MOL0     H87077   0.769   2.271   5.964 -0.8016 -0.5721  1.6072
  631MOL0     H87078   0.815   2.444   5.953 -1.5971 -0.8103 -0.6251
  632MOL0     O87079  10.506   7.754  10.002 -0.5525 -0.2651 -0.2639
  632MOL0     C87080  10.414   7.806  10.060  0.8228  0.5492 -0.3430
  632MOL0     O87081  10.425   7.912  10.145  0.2024  0.5149 -0.2028
  632MOL0     C87082  10.529   7.998  10.129 -0.5743  0.0236 -0.7047
  632MOL0     C87083  10.667   7.968  10.160  0.7959 -0.1012  0.2261
  632MOL0     C87084  10.767   8.066  10.144  0.2472  0.3684 -0.5780
  632MOL0     C87085  10.737   8.198  10.097  0.9415 -1.3307 -0.6422
  632MOL0     O87086  10.832   8.296  10.093  0.1443  0.1825 -0.3768
  632MOL0     C87087  10.811   8.389   9.987 -0.5449 -0.2721 -0.3275
  632MOL0     C87088  10.938   8.465   9.973 -0.2171  0.1205  0.1455
  632MOL0     C87089  10.943   8.579   9.868 -0.7383 -0.3706 -0.5765
  632MOL0     C87090  11.088   8.611   9.837 -0.2354 -0.3704 -0.3479
  632MOL0     C87091  11.074   8.713   9.716 -0.1075 -0.6605  0.3413
  632MOL0     C87092  11.210   8.746   9.657 -0.4591 -0.7487  0.6286
  632MOL0     C87093  11.269   8.628   9.588 -0.5314  1.1275 -0.4571
  632MOL0     C87094  11.412   8.645   9.542  0.6382 -0.3201  0.0552
  632MOL0     N87095  11.497   8.672   9.662 -0.3786 -0.2295 -0.0656
  632MOL0     C87096  11.537   8.579   9.753  0.6141 -0.6208  0.3667
  632MOL0     C87097  11.615   8.651   9.839  1.0055 -0.0401  0.7191
  632MOL0     C87098  11.702   8.623   9.962 -0.1766  0.6362  0.1158
  632MOL0     C87099  11.851   8.622   9.916 -0.2872 -0.3091  0.4943
  632MOL0     C87100  11.885   8.492   9.833 -0.0430 -0.7393  0.2679
  632MOL0     C87101  12.031   8.492   9.792  0.4180 -0.2455 -0.0972
  632MOL0     O87102  12.056   8.591   9.684 -0.1452  0.0936 -0.3203
  632MOL0     C87103  12.182   8.614   9.659  0.4836 -0.8840  0.3095
  632MOL0     C87104  12.207   8.692   9.545  0.4314 -0.4722  0.0379
  632MOL0     C87105  12.331   8.702   9.485  0.1731 -0.9029 -0.6308
  632MOL0     C87106  12.340   8.790   9.357  0.1186  0.7729  0.2337
  632MOL0     C87107  12.438   8.630   9.544 -0.0130  0.3570  0.5995
  632MOL0     C87108  12.578   8.637   9.497 -0.0426  0.1496  0.1956
  632MOL0     O87109  12.673   8.648   9.593 -0.3380  0.7619  1.4911
  632MOL0     C87110  12.801   8.684   9.545 -0.4184  0.3367 -0.0027
  632MOL0     C87111  12.873   8.797   9.600  0.5056 -0.4458  0.0303
  632MOL0     C87112  13.011   8.818   9.569 -0.6584  0.5923  0.2275
  632MOL0     C87113  13.086   8.727   9.501 -0.8181  0.3366 -0.1700
  632MOL0     O87114  13.215   8.736   9.458  0.1462 -0.0096  0.4729
  632MOL0     C87115  13.291   8.858   9.459  0.0010 -0.2886 -0.7203
  632MOL0     C87116  13.368   8.868   9.593 -0.2016 -0.1238  0.0018
  632MOL0     C87117  13.514   8.816   9.563  0.4617  0.0989 -0.1928
  632MOL0     C87118  13.595   8.830   9.687  0.9201  0.6747 -0.2433
  632MOL0     C87119  13.742   8.781   9.671 -0.2416 -0.0506 -0.1540
  632MOL0     C87120  13.819   8.811   9.801 -0.1999  0.8114  0.4883
  632MOL0     C87121  13.957   8.736   9.831 -0.3405  0.0953  0.2311
  632MOL0     C87122  14.074   8.792   9.748 -0.2546 -0.6404  0.4443
  632MOL0    Cl87123  14.221   8.698   9.761  0.1525 -0.2584  0.1237
  632MOL0     C87124  13.014   8.616   9.444 -0.3147 -0.3633 -1.2093
  632MOL0     C87125  12.879   8.596   9.468  0.3397 -0.5574  0.7924
  632MOL0     O87126  12.602   8.639   9.374  0.1188  1.1929 -0.4424
  632MOL0     C87127  12.416   8.564   9.664  0.9894  0.2047  0.7292
  632MOL0     C87128  12.291   8.555   9.718 -0.0003 -0.0908 -0.4873
  632MOL0     N87129  11.603   8.785   9.800 -0.7851 -0.1232 -0.1692
  632MOL0     N87130  11.551   8.793   9.688  0.0147 -0.0809 -0.4291
  632MOL0     C87131  10.601   8.220  10.059  0.1494  0.1231  0.0083
  632MOL0     C87132  10.505   8.115  10.062  0.2597 -0.3082 -0.4001
  632MOL0     C87133  10.276   7.744  10.062 -1.1032  1.2047 -0.4223
  632MOL0     C87134  10.182   7.769  10.160  0.5489  0.3887  0.2123
  632MOL0     C87135  10.061   7.701  10.153  0.0413 -0.7314 -0.0580
  632MOL0     C87136  10.026   7.617  10.048  0.5168 -0.6495  0.0987
  632MOL0     O87137   9.897   7.567  10.029 -0.0216  0.2017 -0.3093
  632MOL0     C87138   9.810   7.566  10.146  0.6568  0.2644  0.4815
  632MOL0     C87139   9.674   7.495  10.113 -0.3928  0.0039 -0.3161
  632MOL0     C87140   9.600   7.566  10.004  0.3367 -0.0428 -0.0486
  632MOL0     C87141   9.485   7.472   9.953 -0.0901 -0.3375 -0.2301
  632MOL0     C87142   9.384   7.545   9.881 -0.3178 -0.0330 -0.2063
  632MOL0     C87143   9.306   7.626   9.831 -0.1492  0.6057 -0.7120
  632MOL0     C87144  10.114   7.598   9.948 -0.4145 -0.7197  0.8208
  632MOL0     C87145  10.240   7.652   9.950 -0.3810 -0.4254  0.0774
  632MOL0     C87146  10.327   7.601   9.842 -0.4178 -0.0701  0.4180
  632MOL0     H87147  10.706   7.879  10.207  1.6380 -0.0669 -0.3864
  632MOL0     H87148  10.868   8.041  10.173 -0.1373  0.4477  0.9077
  632MOL0     H87149  10.727   8.459   9.991 -0.8014 -0.4357 -1.9160
  632MOL0     H87150  10.795   8.329   9.897  1.7901 -0.7517 -0.5034
  632MOL0     H87151  10.970   8.511  10.067 -0.6043  2.0928 -0.6361
  632MOL0     H87152  11.019   8.394   9.951 -1.5322 -0.3701 -3.9260
  632MOL0     H87153  10.888   8.559   9.776  0.9990  2.3928 -2.3789
  632MOL0     H87154  10.905   8.668   9.918  3.4943  0.2460  2.0240
  632MOL0     H87155  11.153   8.652   9.914  0.3980 -1.9662  0.0242
  632MOL0     H87156  11.135   8.516   9.807  1.5799 -0.1941  1.7541
  632MOL0     H87157  11.045   8.804   9.771  2.2498  0.0039  0.5961
  632MOL0     H87158  11.003   8.676   9.642 -0.4790 -1.7264  1.2073
  632MOL0     H87159  11.189   8.826   9.586  2.2706  1.0108  1.6186
  632MOL0     H87160  11.272   8.776   9.742 -1.6438 -0.4473  1.4016
  632MOL0     H87161  11.205   8.600   9.504  0.0898  1.2147 -0.9648
  632MOL0     H87162  11.279   8.548   9.662  0.8353 -0.6899 -2.4925
  632MOL0     H87163  11.434   8.562   9.474  1.4275  1.9286 -2.6535
  632MOL0     H87164  11.414   8.738   9.483 -0.1366  1.9055  3.2487
  632MOL0     H87165  11.527   8.472   9.764  0.1567 -0.4720  1.4986
  632MOL0     H87166  11.692   8.531  10.020 -0.1986  0.4641 -0.1605
  632MOL0     H87167  11.682   8.699  10.038  0.6139  0.5211  0.4415
  632MOL0     H87168  11.859   8.717   9.863 -0.5023 -0.0726  0.8847
  632MOL0     H87169  11.920   8.632  10.000  0.0339 -1.0107  0.3297
  632MOL0     H87170  11.868   8.401   9.892 -3.0823 -0.6575 -0.3269
  632MOL0     H87171  11.811   8.491   9.752 -1.4191 -1.5567  1.4773
  632MOL0     H87172  12.092   8.510   9.881  0.5300 -0.9801 -0.0227
  632MOL0     H87173  12.060   8.393   9.758 -1.1790 -1.4416  1.7745
  632MOL0     H87174  12.120   8.749   9.512 -2.2345 -1.0097  5.1158
  632MOL0     H87175  12.430   8.849   9.373  0.6221 -0.2947  1.6415
  632MOL0     H87176  12.250   8.849   9.336  0.6813  1.0077 -1.6659
  632MOL0     H87177  12.354   8.726   9.269 -2.0641 -0.0867  0.4233
  632MOL0     H87178  12.813   8.877   9.643 -3.6382 -1.6628 -2.8585
  632MOL0     H87179  13.058   8.907   9.609 -0.3268  0.9410 -0.9045
  632MOL0     H87180  13.366   8.863   9.379  0.0886  0.1088 -0.6123
  632MOL0     H87181  13.212   8.932   9.450 -0.6786 -0.7377  1.2047
  632MOL0     H87182  13.384   8.971   9.628  1.9874 -0.5524  0.4582
  632MOL0     H87183  13.319   8.809   9.671  0.8807 -1.8146 -0.5359
  632MOL0     H87184  13.556   8.876   9.482 -0.7994 -0.6056 -1.3975
  632MOL0     H87185  13.498   8.712   9.536 -1.8514  0.1164  0.8841
  632MOL0     H87186  13.544   8.774   9.766 -0.0195  0.5118 -0.9534
  632MOL0     H87187  13.594   8.938   9.706  2.6248  0.4289  1.7286
  632MOL0     H87188  13.729   8.675   9.646 -2.9344  0.0992  0.3357
  632MOL0     H87189  13.801   8.837   9.598 -0.3245  1.5526  0.9547
  632MOL0     H87190  13.760   8.775   9.885  0.2488 -1.1959  0.0097
  632MOL0     H87191  13.828   8.917   9.823  0.5795  0.5193  1.6467
  632MOL0     H87192  13.949   8.627   9.818  1.2423  0.0840 -1.0046
  632MOL0     H87193  13.981   8.757   9.936  0.6396 -0.2636  0.0858
  632MOL0     H87194  14.104   8.894   9.775  0.9468 -1.0941  0.8934
  632MOL0     H87195  14.053   8.791   9.641 -0.6421  0.5771  0.4873
  632MOL0     H87196  13.072   8.545   9.386 -1.1902 -1.3924 -0.8702
  632MOL0     H87197  12.837   8.503   9.430  3.0672 -1.7834  0.5216
  632MOL0     H87198  12.489   8.502   9.716  1.2108 -1.0271 -0.9519
  632MOL0     H87199  12.285   8.486   9.801 -2.4577 -0.1146 -0.6089
  632MOL0     H87200  10.564   8.310  10.011 -1.2660  0.8867  2.3558
  632MOL0     H87201  10.406   8.138  10.026 -0.8653  1.6375  3.3258
  632MOL0     H87202  10.197   7.844  10.237 -0.2714  1.2991 -0.4952
  632MOL0     H87203   9.978   7.737  10.213 -2.0138 -3.8393 -0.8172
  632MOL0     H87204   9.856   7.503  10.223  1.5716 -0.5101 -0.6545
  632MOL0     H87205   9.794   7.668  10.183  1.1235  0.5743 -0.1535
  632MOL0     H87206   9.619   7.492  10.208  3.2495 -1.7493  1.9541
  632MOL0     H87207   9.700   7.393  10.082 -0.7087  0.7375 -3.2550
  632MOL0     H87208   9.555   7.659  10.039  0.4716 -0.3244  0.8916
  632MOL0     H87209   9.672   7.592   9.926  2.2847 -0.7905  1.3952
  632MOL0     H87210   9.436   7.427  10.040 -1.2618  2.7176  0.8186
  632MOL0     H87211   9.533   7.388   9.901 -2.9075 -2.7624  0.8147
  632MOL0     H87212   9.245   7.711   9.806 -0.7527  0.2069 -0.6200
  632MOL0     H87213  10.088   7.545   9.857  0.1674  0.4664 -0.0648
  632MOL0     H87214  10.358   7.683   9.776  1.1247 -0.8480  0.1257
  632MOL0     H87215  10.414   7.546   9.880 -0.2410  0.7184  1.1939
  632MOL0     H87216  10.281   7.524   9.779  0.3014  0.5634 -0.9330
  633MOL0     O87217   0.053   0.203   3.047 -0.0712 -0.0100  0.4594
  633MOL0     C87218  -0.023   0.257   2.971  0.4930 -0.0811  0.2511
  633MOL0     O87219   0.001   0.346   2.871  0.3829 -0.1215 -0.2236
  633MOL0     C87220   0.125   0.395   2.863  0.3761 -0.5010  0.0262
  633MOL0     C87221   0.142   0.534   2.886 -0.0418 -0.3493  0.5047
  633MOL0     C87222   0.265   0.586   2.862 -0.4065  0.3424 -0.2210
  633MOL0     C87223   0.374   0.507   2.818 -0.1569 -0.4805  0.2117
  633MOL0     O87224   0.497   0.558   2.785  0.6792  0.2376  0.0934
  633MOL0     C87225   0.489   0.690   2.729 -0.1151 -0.2355  0.3020
  633MOL0     C87226   0.621   0.729   2.656  0.2652  0.2877  0.1059
  633MOL0     C87227   0.747   0.719   2.756 -0.0051  0.1914 -0.3296
  633MOL0     C87228   0.870   0.776   2.694  0.0295 -0.2455  0.1227
  633MOL0     C87229   0.981   0.782   2.800  0.2175 -0.6775 -0.4390
  633MOL0     C87230   1.108   0.859   2.746  0.8500 -0.5182  0.3916
  633MOL0     C87231   1.231   0.829   2.826  0.1865  0.5180 -1.0197
  633MOL0     C87232   1.366   0.881   2.758  0.0347 -0.0060  0.6659
  633MOL0     N87233   1.370   1.027   2.750 -0.4910 -0.9876 -0.5356
  633MOL0     C87234   1.396   1.116   2.853 -0.1257  0.0852 -0.0061
  633MOL0     C87235   1.370   1.239   2.808  0.1384 -0.0831  1.2563
  633MOL0     C87236   1.392   1.359   2.897 -0.0218  0.0543  0.3271
  633MOL0     C87237   1.544   1.382   2.911 -0.2357 -0.7657  0.4645
  633MOL0     C87238   1.602   1.472   2.795 -0.0286  0.3064  0.1396
  633MOL0     C87239   1.756   1.506   2.826 -0.3766 -0.3613  1.4394
  633MOL0     O87240   1.751   1.598   2.936 -0.2801 -0.2354 -0.2383
  633MOL0     C87241   1.867   1.633   2.996  0.5159  0.5855 -0.4396
  633MOL0     C87242   1.844   1.709   3.109  0.9096 -0.5065  0.4037
  633MOL0     C87243   1.950   1.732   3.200  0.0283 -1.1083  0.0080
  633MOL0     C87244   1.908   1.820   3.314  0.3131 -0.1500 -0.6259
  633MOL0     C87245   2.074   1.677   3.185 -0.4972  0.0702 -0.0080
  633MOL0     C87246   2.182   1.701   3.283 -0.0420  0.5610  0.2055
  633MOL0     O87247   2.190   1.816   3.357  0.1739 -0.0324  0.7139
  633MOL0     C87248   2.305   1.862   3.418  0.0350  0.6859  0.0571
  633MOL0     C87249   2.285   1.930   3.539  0.0834 -0.4505  0.5425
  633MOL0     C87250   2.397   1.994   3.597 -0.9572 -0.3856 -0.9620
  633MOL0     C87251   2.522   1.975   3.544 -0.7105  0.3071  0.7921
  633MOL0     O87252   2.626   2.047   3.587  0.3355  0.2680  0.4014
  633MOL0     C87253   2.748   1.983   3.623  0.9274 -0.5279  0.5123
  633MOL0     C87254   2.858   2.064   3.540  0.2339  0.0286  0.1618
  633MOL0     C87255   3.001   2.015   3.579  0.0581 -0.1742  0.4443
  633MOL0     C87256   3.113   2.075   3.499  0.3977 -0.3640  0.4636
  633MOL0     C87257   3.245   2.025   3.548 -0.2522 -0.5018  0.1343
  633MOL0     C87258   3.355   2.077   3.467  0.9255  0.0350  0.7206
  633MOL0     C87259   3.472   1.980   3.494  0.0924 -0.5005 -0.2931
  633MOL0     C87260   3.500   1.951   3.642 -0.0039 -0.0132  1.0758
  633MOL0    Cl87261   3.558   2.107   3.727 -0.4766  0.1177 -0.1204
  633MOL0     C87262   2.540   1.884   3.439 -0.6499 -0.2839 -0.6904
  633MOL0     C87263   2.433   1.831   3.371 -0.0008  0.5418  0.2784
  633MOL0     O87264   2.261   1.611   3.291  0.1347 -0.3094 -0.2236
  633MOL0     C87265   2.094   1.599   3.066 -1.0216 -0.2787  0.0555
  633MOL0     C87266   1.988   1.571   2.978  0.0946 -0.1662  0.3855
  633MOL0     N87267   1.307   1.225   2.690  0.6386  0.0067 -0.7353
  633MOL0     N87268   1.319   1.100   2.650  0.4883 -0.3150  0.1500
  633MOL0     C87269   0.365   0.371   2.802  0.0454 -0.6197 -0.1956
  633MOL0     C87270   0.237   0.311   2.832 -0.5153 -0.2928 -0.6087
  633MOL0     C87271  -0.165   0.215   2.987 -0.5587  0.3299 -0.5176
  633MOL0     C87272  -0.251   0.227   2.874  0.5941 -0.4583 -0.1089
  633MOL0     C87273  -0.389   0.212   2.895 -1.2793  0.5570 -0.0866
  633MOL0     C87274  -0.447   0.177   3.014  0.1111 -0.0169 -0.6638
  633MOL0     O87275  -0.580   0.155   3.008 -0.4151  0.1059  0.1689
  633MOL0     C87276  -0.656   0.140   3.131 -0.3445  0.9008  0.3535
  633MOL0     C87277  -0.804   0.147   3.092  0.3538  0.0998 -0.3855
  633MOL0     C87278  -0.897   0.190   3.208  0.2513 -0.7584 -0.3750
  633MOL0     C87279  -1.035   0.115   3.199 -0.6014 -0.1794 -0.4231
  633MOL0     C87280  -1.105   0.143   3.323  1.0374 -0.8586 -0.4126
  633MOL0     C87281  -1.176   0.165   3.419  0.6450 -0.6210 -0.7297
  633MOL0     C87282  -0.365   0.156   3.126  0.1137  0.2591 -0.1384
  633MOL0     C87283  -0.224   0.173   3.115 -0.0435 -1.4851 -0.9956
  633MOL0     C87284  -0.146   0.152   3.247  0.1491  0.4873  0.0351
  633MOL0     H87285   0.061   0.602   2.912 -0.4326  0.1603 -1.7644
  633MOL0     H87286   0.269   0.694   2.868 -0.1320  0.2720  1.2567
  633MOL0     H87287   0.463   0.765   2.804 -0.9415 -0.4845  0.2757
  633MOL0     H87288   0.412   0.691   2.651 -0.0640 -1.5022  0.2158
  633MOL0     H87289   0.644   0.672   2.565  2.1755  0.0423  0.7114
  633MOL0     H87290   0.617   0.834   2.623 -1.3956 -0.6733 -3.2889
  633MOL0     H87291   0.725   0.774   2.848  2.9715  1.8587 -0.4540
  633MOL0     H87292   0.772   0.617   2.785  2.2084  0.7823  0.0456
  633MOL0     H87293   0.902   0.721   2.605  0.7041  2.2795 -1.3124
  633MOL0     H87294   0.846   0.877   2.659  0.9930  0.2761  0.9253
  633MOL0     H87295   1.014   0.680   2.822  0.1506 -0.9309 -1.4721
  633MOL0     H87296   0.952   0.829   2.894  0.9265  0.7132 -0.8892
  633MOL0     H87297   1.132   0.832   2.643 -0.6276  2.1115 -0.7456
  633MOL0     H87298   1.075   0.963   2.745 -2.0068 -1.2415 -2.8403
  633MOL0     H87299   1.242   0.723   2.847  1.6230  0.9665  0.7280
  633MOL0     H87300   1.215   0.879   2.922  0.4882  0.5890 -1.0071
  633MOL0     H87301   1.448   0.838   2.818  1.5231  0.4502 -0.9694
  633MOL0     H87302   1.364   0.826   2.663 -2.6298 -1.8744  1.6591
  633MOL0     H87303   1.428   1.101   2.955  2.0076  1.9775 -0.2912
  633MOL0     H87304   1.343   1.352   2.994 -3.5400  0.6565 -1.2420
  633MOL0     H87305   1.358   1.449   2.845  0.7412 -0.4598 -1.1202
  633MOL0     H87306   1.573   1.428   3.006  2.4074 -1.3173  0.0110
  633MOL0     H87307   1.600   1.288   2.899  1.3837  0.2560 -0.3758
  633MOL0     H87308   1.597   1.423   2.697 -1.4853 -0.2785  0.4738
  633MOL0     H87309   1.547   1.566   2.781  3.2166  2.1154 -1.6775
  633MOL0     H87310   1.813   1.413   2.835 -0.0789 -0.3468 -0.1515
  633MOL0     H87311   1.806   1.558   2.745  3.2673 -0.8429  3.1762
  633MOL0     H87312   1.741   1.742   3.118 -0.1138 -2.6958 -1.9706
  633MOL0     H87313   1.938   1.925   3.300 -0.6747  0.7148  2.7500
  633MOL0     H87314   1.943   1.778   3.408 -1.3110 -1.3276 -0.5149
  633MOL0     H87315   1.799   1.822   3.325  0.3662 -0.0789 -0.1040
  633MOL0     H87316   2.180   1.933   3.566 -0.3894 -0.8532 -1.1503
  633MOL0     H87317   2.391   2.059   3.684  1.1568 -2.5354  0.9177
  633MOL0     H87318   2.769   1.998   3.730 -0.8056 -1.3266  0.9808
  633MOL0     H87319   2.744   1.875   3.614 -2.5528 -0.6914  2.2406
  633MOL0     H87320   2.832   2.036   3.437 -2.7662  0.2434  0.7613
  633MOL0     H87321   2.836   2.171   3.550 -0.1674 -0.0874  0.5559
  633MOL0     H87322   3.022   1.909   3.559  1.2990  0.3009 -0.9569
  633MOL0     H87323   3.016   2.041   3.684 -3.8998  0.3371  1.0594
  633MOL0     H87324   3.100   2.183   3.516  1.3625 -0.1353 -0.2124
  633MOL0     H87325   3.093   2.058   3.393  2.7596 -2.8071  0.2935
  633MOL0     H87326   3.256   2.064   3.649  1.1928  1.7720 -0.8364
  633MOL0     H87327   3.241   1.915   3.551 -0.1464 -0.5063  0.1314
  633MOL0     H87328   3.385   2.176   3.501  0.8249  0.0943  0.6358
  633MOL0     H87329   3.339   2.085   3.359  0.8440 -0.0956  0.7225
  633MOL0     H87330   3.563   2.007   3.439 -0.0241 -0.0076 -0.2484
  633MOL0     H87331   3.443   1.889   3.440 -0.9936 -1.0944  1.2286
  633MOL0     H87332   3.584   1.881   3.649  0.6290  0.6764  0.5675
  633MOL0     H87333   3.416   1.903   3.693  0.3298 -0.9344  0.7807
  633MOL0     H87334   2.641   1.874   3.402 -0.4776  2.2391 -1.0821
  633MOL0     H87335   2.441   1.777   3.277 -1.6199 -1.1860  1.0471
  633MOL0     H87336   2.193   1.560   3.046 -0.1701  0.3066  2.7076
  633MOL0     H87337   2.012   1.513   2.890  1.8009  0.8450  0.1234
  633MOL0     H87338   0.453   0.317   2.769  0.8088 -1.7517  3.3042
  633MOL0     H87339   0.235   0.204   2.816  1.6724 -0.4153 -0.3623
  633MOL0     H87340  -0.216   0.254   2.775  1.1890  0.6489  0.3795
  633MOL0     H87341  -0.459   0.229   2.814 -3.0494 -1.7622  0.8466
  633MOL0     H87342  -0.633   0.049   3.186 -3.2640  0.8042  1.6134
  633MOL0     H87343  -0.632   0.229   3.190 -1.1864  3.4219 -2.7756
  633MOL0     H87344  -0.838   0.048   3.061 -0.8887  0.5228 -0.4109
  633MOL0     H87345  -0.823   0.217   3.010 -2.5372 -2.0843 -1.7140
  633MOL0     H87346  -0.841   0.161   3.297 -0.6049  1.6022  1.0129
  633MOL0     H87347  -0.905   0.300   3.211  0.4705 -0.7556  0.0863
  633MOL0     H87348  -1.019   0.007   3.189 -0.0396 -0.2234  0.8029
  633MOL0     H87349  -1.085   0.151   3.108 -1.3899  2.6284  1.0058
  633MOL0     H87350  -1.226   0.180   3.513  0.3914  0.8181 -1.0631
  633MOL0     H87351  -0.425   0.119   3.208  0.6512 -1.2389 -0.3933
  633MOL0     H87352  -0.081   0.064   3.244  0.6018  0.7026  2.1081
  633MOL0     H87353  -0.099   0.247   3.271 -4.0171  2.3420  1.7747
  633MOL0     H87354  -0.218   0.129   3.326 -1.2175  0.0284 -1.2769
  634MOL0     O87355  10.589   9.352   5.488  0.0036 -0.1590 -0.1428
  634MOL0     C87356  10.583   9.247   5.423  0.3256  0.1844 -1.4201
  634MOL0     O87357  10.468   9.180   5.395 -0.1547 -0.1873  0.5033
  634MOL0     C87358  10.340   9.206   5.455 -0.5947  0.0494 -0.0591
  634MOL0     C87359  10.319   9.280   5.570  0.1859  0.5667 -0.3245
  634MOL0     C87360  10.193   9.301   5.627 -1.4514 -0.8757  0.5352
  634MOL0     C87361  10.082   9.223   5.586  0.6850  0.3101  0.5609
  634MOL0     O87362   9.967   9.242   5.650  0.1322  0.1419 -0.4299
  634MOL0     C87363   9.894   9.124   5.666  0.0373  0.7850 -0.4073
  634MOL0     C87364   9.935   9.064   5.794 -0.2813 -0.6396 -0.4046
  634MOL0     C87365   9.850   8.953   5.830 -0.0784 -0.3345 -0.6260
  634MOL0     C87366   9.867   8.917   5.980 -0.1147  0.0039  0.2397
  634MOL0     C87367   9.754   8.833   6.039 -1.0114  0.1505  0.0772
  634MOL0     C87368   9.720   8.702   5.970  0.0002 -0.9375 -0.1642
  634MOL0     C87369   9.831   8.601   5.972  0.0418 -0.6160 -0.2163
  634MOL0     C87370   9.796   8.456   5.931 -0.7368 -0.6117  0.6852
  634MOL0     N87371   9.892   8.351   5.974  0.0949  0.9382 -0.4358
  634MOL0     C87372   9.978   8.350   6.083  0.6731 -0.4759 -0.9731
  634MOL0     C87373  10.039   8.232   6.067  0.3920  0.4059 -0.7872
  634MOL0     C87374  10.144   8.180   6.151 -0.1287  0.2173  0.1690
  634MOL0     C87375  10.279   8.190   6.077 -0.6688  0.3242 -0.0817
  634MOL0     C87376  10.390   8.106   6.158 -0.2062 -0.7886 -0.5352
  634MOL0     C87377  10.524   8.111   6.088  0.0999 -0.0604  0.5087
  634MOL0     O87378  10.595   8.226   6.124 -0.1925 -0.0039  0.3219
  634MOL0     C87379  10.730   8.220   6.138 -0.3593  0.4141  0.2717
  634MOL0     C87380  10.813   8.199   6.026 -0.0791  0.2894  0.8827
  634MOL0     C87381  10.952   8.195   6.043 -1.1336  0.7373 -0.7715
  634MOL0     C87382  11.054   8.159   5.928 -0.1552  0.1319  0.2413
  634MOL0     C87383  11.008   8.213   6.175  0.4886 -0.1582 -0.0791
  634MOL0     C87384  11.148   8.232   6.210 -0.0684  0.8423 -0.2906
  634MOL0     O87385  11.167   8.232   6.350 -0.4797 -0.0175 -0.5872
  634MOL0     C87386  11.294   8.260   6.402  0.4567 -0.6697 -0.3636
  634MOL0     C87387  11.404   8.343   6.352  0.4807 -0.3910 -0.5975
  634MOL0     C87388  11.510   8.385   6.440  0.6095  0.2697 -0.8554
  634MOL0     C87389  11.525   8.338   6.574  0.7835  0.2468  0.2110
  634MOL0     O87390  11.630   8.391   6.658  0.5032  0.3488 -0.2389
  634MOL0     C87391  11.679   8.296   6.760 -0.2205 -1.0121 -0.4815
  634MOL0     C87392  11.766   8.178   6.717 -0.0731  0.7594 -0.4614
  634MOL0     C87393  11.871   8.212   6.621  0.3705 -0.7019 -0.9272
  634MOL0     C87394  11.908   8.091   6.529 -0.1746  0.1230  0.3950
  634MOL0     C87395  12.029   8.115   6.433  0.1051  0.2141  0.3639
  634MOL0     C87396  12.156   8.126   6.519  0.4445 -0.5004  0.0688
  634MOL0     C87397  12.280   8.118   6.424 -0.0547  0.1105 -0.6327
  634MOL0     C87398  12.408   8.163   6.489  0.5768  0.8509 -0.0959
  634MOL0    Cl87399  12.557   8.131   6.391 -0.0993  0.4577  0.2634
  634MOL0     C87400  11.415   8.260   6.618 -0.1396  1.1845 -0.4109
  634MOL0     C87401  11.302   8.229   6.538 -1.4465  0.7610 -0.6537
  634MOL0     O87402  11.240   8.244   6.126  0.0204  0.3046 -0.3763
  634MOL0     C87403  10.914   8.226   6.280  1.1393  0.0131 -0.0078
  634MOL0     C87404  10.774   8.228   6.266 -0.3721 -0.2608 -0.5543
  634MOL0     N87405   9.988   8.164   5.954 -0.1620 -0.2456 -0.0578
  634MOL0     N87406   9.910   8.240   5.896 -0.6261  0.0692  0.4846
  634MOL0     C87407  10.095   9.157   5.467  0.3058 -0.0746 -0.2715
  634MOL0     C87408  10.220   9.152   5.396  1.1605 -0.0393  0.0889
  634MOL0     C87409  10.707   9.188   5.363 -0.2005 -0.5768 -0.1148
  634MOL0     C87410  10.834   9.228   5.409  0.7726 -0.3508 -0.1575
  634MOL0     C87411  10.946   9.174   5.354  0.2492 -0.2641 -0.4020
  634MOL0     C87412  10.939   9.086   5.246 -0.7400  0.3741  0.0804
  634MOL0     O87413  11.046   9.015   5.192  0.6287 -0.5055  0.0766
  634MOL0     C87414  11.129   9.089   5.111 -0.8293 -0.1049  0.0441
  634MOL0     C87415  11.265   9.129   5.189  0.3635  0.5456  0.0378
  634MOL0     C87416  11.375   9.167   5.093 -0.3083  0.4870 -0.0744
  634MOL0     C87417  11.498   9.231   5.168  0.0496  0.1097 -0.4491
  634MOL0     C87418  11.607   9.266   5.075 -0.2790 -0.1195  0.3760
  634MOL0     C87419  11.708   9.285   5.009 -0.4104  0.0423 -0.6068
  634MOL0     C87420  10.818   9.051   5.194 -0.0801 -0.0184  0.6293
  634MOL0     C87421  10.700   9.102   5.250  0.0276 -0.4065  0.1353
  634MOL0     C87422  10.583   9.048   5.188  0.1000  0.7234  0.5345
  634MOL0     H87423  10.404   9.328   5.617  2.0337 -1.2826 -1.5790
  634MOL0     H87424  10.195   9.367   5.712 -0.1500  0.8593 -0.7700
  634MOL0     H87425   9.902   9.053   5.584 -1.0765 -0.0094  0.1509
  634MOL0     H87426   9.789   9.155   5.672 -0.4266 -0.0737 -2.9086
  634MOL0     H87427  10.040   9.035   5.779  0.2902  2.1157 -2.8141
  634MOL0     H87428   9.942   9.138   5.874  1.1012  0.4387 -1.4629
  634MOL0     H87429   9.743   8.971   5.815 -0.9970 -3.2236  1.4396
  634MOL0     H87430   9.869   8.862   5.773  1.8655  1.2532 -2.6917
  634MOL0     H87431   9.968   8.881   5.999  1.1285  2.8918 -0.3660
  634MOL0     H87432   9.868   9.009   6.039  1.5586 -1.3090  2.3713
  634MOL0     H87433   9.662   8.892   6.041 -1.4701 -0.5196 -0.5433
  634MOL0     H87434   9.777   8.816   6.145  0.0047 -0.8798 -0.2817
  634MOL0     H87435   9.635   8.653   6.017  0.8971 -1.5044  0.9040
  634MOL0     H87436   9.691   8.743   5.872 -2.5261  0.6176  1.1446
  634MOL0     H87437   9.848   8.594   6.080  0.8797 -2.8169 -0.4265
  634MOL0     H87438   9.914   8.647   5.918 -0.4192  0.8877  0.3241
  634MOL0     H87439   9.699   8.417   5.964 -2.6532  1.5615 -1.9417
  634MOL0     H87440   9.797   8.449   5.822 -2.6898 -0.2683  0.6033
  634MOL0     H87441  10.006   8.431   6.150 -1.3662 -1.3123  1.0248
  634MOL0     H87442  10.121   8.074   6.165  0.5534 -0.0010 -0.3002
  634MOL0     H87443  10.145   8.233   6.247  0.6408 -0.0282  0.3084
  634MOL0     H87444  10.269   8.167   5.971  2.2730 -2.4360  0.0944
  634MOL0     H87445  10.307   8.296   6.072 -1.4143  0.4604 -2.0129
  634MOL0     H87446  10.405   8.154   6.256 -0.4991 -0.0745 -0.8360
  634MOL0     H87447  10.347   8.006   6.175 -1.9087  0.0849  0.6487
  634MOL0     H87448  10.581   8.024   6.119 -0.0551 -1.1389 -1.9749
  634MOL0     H87449  10.519   8.105   5.979 -3.3705 -0.2833  0.5628
  634MOL0     H87450  10.774   8.205   5.925 -2.4606  1.2243  1.7912
  634MOL0     H87451  11.108   8.246   5.893  0.5993 -0.0625  0.8989
  634MOL0     H87452  11.011   8.097   5.848 -0.1588 -1.2224  1.2397
  634MOL0     H87453  11.131   8.094   5.971  0.7769  1.8152  1.1956
  634MOL0     H87454  11.398   8.384   6.252 -0.0001  2.4404  0.5054
  634MOL0     H87455  11.585   8.461   6.424 -0.2549  1.6756  1.2642
  634MOL0     H87456  11.740   8.355   6.829  0.0697 -2.4178  0.5260
  634MOL0     H87457  11.600   8.258   6.826  0.2976 -1.5257 -0.1479
  634MOL0     H87458  11.806   8.126   6.804  0.7558  1.9788 -0.0852
  634MOL0     H87459  11.693   8.117   6.664 -1.1083  0.1838  1.5129
  634MOL0     H87460  11.964   8.238   6.673 -0.8018 -0.8990  1.4126
  634MOL0     H87461  11.842   8.298   6.560  0.8251  0.8141  0.9042
  634MOL0     H87462  11.823   8.065   6.466 -0.6097 -0.5990  1.2707
  634MOL0     H87463  11.931   8.005   6.592  2.5295  1.0401  0.8225
  634MOL0     H87464  12.034   8.026   6.369 -1.1019 -0.1110  0.6928
  634MOL0     H87465  12.012   8.206   6.376  1.4981 -0.0809 -0.5715
  634MOL0     H87466  12.146   8.045   6.592 -1.7246  0.5651  1.0452
  634MOL0     H87467  12.153   8.221   6.572  1.2233 -0.2609 -0.3036
  634MOL0     H87468  12.268   8.188   6.341 -0.3055  4.2806  2.5848
  634MOL0     H87469  12.282   8.018   6.381 -0.8171 -0.8674  1.4489
  634MOL0     H87470  12.421   8.114   6.586 -3.2099  1.3859  0.8479
  634MOL0     H87471  12.383   8.268   6.510 -0.1056  0.3749  1.7250
  634MOL0     H87472  11.424   8.215   6.717  0.4786 -1.8737 -1.7275
  634MOL0     H87473  11.231   8.169   6.594 -1.1227  0.8486 -0.1446
  634MOL0     H87474  10.950   8.224   6.383 -0.6239  0.6070  0.6673
  634MOL0     H87475  10.702   8.251   6.343 -2.3318  3.0843 -3.0965
  634MOL0     H87476  10.002   9.117   5.429 -1.1045  0.3033  2.5124
  634MOL0     H87477  10.224   9.098   5.302  0.1158 -1.1060  0.6393
  634MOL0     H87478  10.838   9.308   5.482 -0.7140  0.1729 -0.6050
  634MOL0     H87479  11.048   9.187   5.389  0.6906 -0.2389 -1.6477
  634MOL0     H87480  11.151   9.017   5.031  0.2574 -0.9847  1.0809
  634MOL0     H87481  11.091   9.182   5.068 -0.8775  0.3181  0.9649
  634MOL0     H87482  11.299   9.043   5.247 -1.8147 -1.0556 -0.9525
  634MOL0     H87483  11.246   9.206   5.264 -1.1949 -1.2392  1.5660
  634MOL0     H87484  11.409   9.088   5.025 -0.5405 -0.5480  0.9884
  634MOL0     H87485  11.333   9.239   5.021 -0.3950 -1.1096 -1.6854
  634MOL0     H87486  11.538   9.158   5.239  2.2264  0.2692 -1.4276
  634MOL0     H87487  11.461   9.321   5.217  3.5650  1.3776  0.1966
  634MOL0     H87488  11.805   9.296   4.964  1.6670 -1.8179  2.9068
  634MOL0     H87489  10.815   8.973   5.119  0.9472 -1.0184  1.5745
  634MOL0     H87490  10.522   8.998   5.264  0.3576  0.1064  0.3451
  634MOL0     H87491  10.524   9.125   5.138 -2.4879 -1.2683  0.2972
  634MOL0     H87492  10.603   8.971   5.113 -1.4856  1.6746 -0.9385
  635MOL0     O87493   2.129   9.134   7.242  0.5714  0.2248  0.1406
  635MOL0     C87494   2.067   9.125   7.138 -0.8261  0.0810  0.3807
  635MOL0     O87495   2.136   9.150   7.026 -0.6823 -0.2323 -0.0257
  635MOL0     C87496   2.274   9.143   7.011  0.2337  0.7233 -0.5288
  635MOL0     C87497   2.349   9.041   7.067 -0.1333  0.4529  0.7979
  635MOL0     C87498   2.482   9.033   7.060 -0.0687  0.2847  0.1424
  635MOL0     C87499   2.549   9.139   6.998 -0.4815  0.6802  0.4605
  635MOL0     O87500   2.686   9.142   6.985  0.1619 -0.1096 -0.5506
  635MOL0     C87501   2.729   9.242   7.075  0.3917 -0.8639  0.2902
  635MOL0     C87502   2.869   9.220   7.126  0.3711 -0.0539  0.4845
  635MOL0     C87503   2.893   9.083   7.189 -0.2505 -0.2383  0.3093
  635MOL0     C87504   3.024   9.089   7.269  0.1118  0.3478  0.0455
  635MOL0     C87505   3.077   8.955   7.296 -0.4001 -0.4163 -0.1341
  635MOL0     C87506   3.190   8.982   7.395  0.5337 -1.1451 -0.1416
  635MOL0     C87507   3.258   8.858   7.452  0.2529  0.3476  0.4648
  635MOL0     C87508   3.335   8.777   7.344 -0.3449 -0.4228 -1.5712
  635MOL0     N87509   3.269   8.722   7.228  0.0248 -0.3913  0.0633
  635MOL0     C87510   3.170   8.630   7.225 -0.2734  0.0853  0.7567
  635MOL0     C87511   3.138   8.611   7.096 -0.5807 -0.4594  0.0988
  635MOL0     C87512   3.025   8.523   7.039 -0.3441  0.8133  0.7590
  635MOL0     C87513   2.888   8.558   7.095  0.2027  0.2357  0.3368
  635MOL0     C87514   2.847   8.702   7.054  0.0406 -0.2441 -0.3789
  635MOL0     C87515   2.722   8.702   6.977  0.3213  0.4938  0.1874
  635MOL0     O87516   2.745   8.643   6.849 -0.4895  0.0567 -0.5327
  635MOL0     C87517   2.636   8.639   6.759  0.3910 -0.1254  0.7738
  635MOL0     C87518   2.644   8.582   6.630  0.4687 -0.5664 -0.7021
  635MOL0     C87519   2.543   8.583   6.535  0.6262  0.6335  0.1497
  635MOL0     C87520   2.557   8.497   6.417  0.2705  0.1035  0.5904
  635MOL0     C87521   2.420   8.646   6.572  0.0870  0.4570 -0.7167
  635MOL0     C87522   2.303   8.650   6.488  0.1425 -0.0162  0.8615
  635MOL0     O87523   2.185   8.682   6.549 -0.5995  0.5286 -0.0346
  635MOL0     C87524   2.064   8.680   6.473  0.2858  0.0443  0.2944
  635MOL0     C87525   2.036   8.574   6.379  0.4842 -1.1472 -0.4456
  635MOL0     C87526   1.926   8.574   6.292 -0.3225 -0.5678 -0.8578
  635MOL0     C87527   1.841   8.687   6.294 -0.4470  0.2175 -0.2972
  635MOL0     O87528   1.743   8.684   6.193 -0.5923  0.7950  0.4414
  635MOL0     C87529   1.654   8.796   6.179 -0.7218  0.4045 -0.4700
  635MOL0     C87530   1.562   8.779   6.061  0.4846  0.9835 -0.0853
  635MOL0     C87531   1.483   8.907   6.052 -0.0911  0.0342  0.7963
  635MOL0     C87532   1.399   8.931   6.183  0.2302 -0.2268  0.3274
  635MOL0     C87533   1.293   9.046   6.156  0.1723  0.2409 -0.3690
  635MOL0     C87534   1.173   9.031   6.244  0.0792  0.4189 -1.0027
  635MOL0     C87535   1.087   8.908   6.207  0.1977  0.6574  0.6414
  635MOL0     C87536   0.946   8.928   6.259 -0.0586  0.2582  0.6957
  635MOL0    Cl87537   0.848   8.795   6.231  0.6166  0.1211  0.0257
  635MOL0     C87538   1.863   8.792   6.386  0.1840 -0.0333  0.5754
  635MOL0     C87539   1.972   8.785   6.473  0.4907  0.1715  0.7598
  635MOL0     O87540   2.310   8.631   6.362 -0.6980  0.0914  0.0244
  635MOL0     C87541   2.405   8.703   6.699  0.0601 -0.2123 -0.5743
  635MOL0     C87542   2.511   8.691   6.788  0.2557 -0.0124 -1.0166
  635MOL0     N87543   3.228   8.684   7.021  0.0640  0.4202 -0.0491
  635MOL0     N87544   3.295   8.757   7.095 -0.4786 -0.6421 -0.0377
  635MOL0     C87545   2.479   9.245   6.935 -0.2126  0.9232 -0.1901
  635MOL0     C87546   2.337   9.245   6.941 -0.2670  0.2754 -0.0659
  635MOL0     C87547   1.921   9.101   7.131 -0.9462 -0.1543  0.3726
  635MOL0     C87548   1.869   9.037   7.246  0.5017 -0.1960 -0.1809
  635MOL0     C87549   1.735   9.006   7.246 -0.7256 -0.2168  0.6742
  635MOL0     C87550   1.654   9.032   7.135 -0.7022  0.1405 -0.5537
  635MOL0     O87551   1.517   9.009   7.134  0.4807  0.4008  0.3773
  635MOL0     C87552   1.431   9.025   7.251  0.4032 -0.1298 -0.2429
  635MOL0     C87553   1.282   9.005   7.211  0.2162 -0.1580  0.0619
  635MOL0     C87554   1.223   9.136   7.156 -0.2436  0.6697 -0.2410
  635MOL0     C87555   1.274   9.161   7.012 -0.0361 -0.9482 -0.0094
  635MOL0     C87556   1.203   9.277   6.953 -0.5108  0.2774 -0.0717
  635MOL0     C87557   1.150   9.361   6.890  0.8257 -0.3347 -0.0189
  635MOL0     C87558   1.710   9.084   7.025 -1.0475  0.3324  0.4182
  635MOL0     C87559   1.843   9.118   7.020 -0.1260 -1.0383  0.3909
  635MOL0     C87560   1.905   9.180   6.893  0.3426  0.1694  0.0194
  635MOL0     H87561   2.294   8.969   7.127  0.3684 -0.1875  0.5057
  635MOL0     H87562   2.535   8.961   7.121 -1.3122 -0.3169  0.5363
  635MOL0     H87563   2.659   9.256   7.158  0.5582  1.5427  0.1136
  635MOL0     H87564   2.740   9.336   7.019 -1.0959 -0.3749  0.7867
  635MOL0     H87565   2.939   9.233   7.044  1.7522  3.4611  2.0434
  635MOL0     H87566   2.903   9.296   7.197 -0.0055  1.1519 -0.6037
  635MOL0     H87567   2.807   9.045   7.246 -1.7672  0.2358 -1.5807
  635MOL0     H87568   2.904   9.016   7.104  1.1509  0.1195  0.1779
  635MOL0     H87569   3.099   9.124   7.198  0.7301 -2.2133 -0.6686
  635MOL0     H87570   3.001   9.155   7.353  0.5731  1.2046 -0.4866
  635MOL0     H87571   3.108   8.898   7.208 -1.6456 -0.8601 -0.3077
  635MOL0     H87572   2.995   8.897   7.339 -1.2717  2.1314  1.9582
  635MOL0     H87573   3.272   9.042   7.353 -0.0143 -0.5129 -0.3360
  635MOL0     H87574   3.158   9.048   7.476 -2.8544 -1.5861 -0.9770
  635MOL0     H87575   3.187   8.789   7.498 -1.0993  0.2020 -1.6706
  635MOL0     H87576   3.330   8.892   7.527  1.1510 -1.8008  0.6582
  635MOL0     H87577   3.414   8.839   7.301  0.3205  0.2202  0.4628
  635MOL0     H87578   3.388   8.701   7.403 -1.9333  0.2405  0.8285
  635MOL0     H87579   3.115   8.587   7.309 -3.4493 -2.0141 -2.1180
  635MOL0     H87580   3.047   8.418   7.056 -2.3992  0.3109  0.5814
  635MOL0     H87581   3.030   8.544   6.932  1.6130 -0.6210  0.5155
  635MOL0     H87582   2.825   8.477   7.058 -1.0582  1.6388 -0.7089
  635MOL0     H87583   2.889   8.558   7.204  1.5775  2.4821  0.3987
  635MOL0     H87584   2.842   8.772   7.137 -0.4953  2.5878 -2.6384
  635MOL0     H87585   2.919   8.753   6.989 -1.1137  0.5500 -1.0755
  635MOL0     H87586   2.650   8.638   7.030 -2.1934 -1.2354 -4.7108
  635MOL0     H87587   2.678   8.801   6.965 -3.7961 -1.4333 -3.6712
  635MOL0     H87588   2.740   8.534   6.610  0.6469 -1.4815  1.8792
  635MOL0     H87589   2.604   8.555   6.337  1.9688  1.1581  2.2641
  635MOL0     H87590   2.462   8.445   6.404  0.2719  0.3090 -0.3137
  635MOL0     H87591   2.636   8.424   6.440  1.5668  0.3550 -2.5516
  635MOL0     H87592   2.112   8.499   6.360  0.7351 -0.8159 -0.7627
  635MOL0     H87593   1.922   8.502   6.211  1.1987  0.7173 -2.1387
  635MOL0     H87594   1.602   8.795   6.276 -0.7208  0.0320 -0.4711
  635MOL0     H87595   1.718   8.885   6.178  0.2583 -0.2794 -0.2695
  635MOL0     H87596   1.607   8.768   5.962 -3.1891  0.2554 -1.8676
  635MOL0     H87597   1.504   8.689   6.084  2.1250  0.0066  0.3432
  635MOL0     H87598   1.411   8.903   5.969  1.6564  1.5279 -0.8735
  635MOL0     H87599   1.550   8.993   6.043 -0.1524  0.0856  0.8266
  635MOL0     H87600   1.454   8.947   6.275 -0.8291  1.4245  0.7279
  635MOL0     H87601   1.340   8.842   6.206  1.0069 -0.9165 -0.3392
  635MOL0     H87602   1.340   9.138   6.192 -0.3063 -0.5972  2.6330
  635MOL0     H87603   1.253   9.065   6.056  0.7858  2.1319 -0.2990
  635MOL0     H87604   1.122   9.127   6.235  0.3359  0.6492 -0.0859
  635MOL0     H87605   1.210   9.032   6.347  3.1988  2.2921 -2.0295
  635MOL0     H87606   1.140   8.824   6.252 -1.3592 -0.8038 -0.1271
  635MOL0     H87607   1.094   8.891   6.100  0.3875 -0.2691  0.7879
  635MOL0     H87608   0.916   9.011   6.195 -1.1269 -0.0029  0.8422
  635MOL0     H87609   0.933   8.966   6.360  0.5729 -0.5807  1.1048
  635MOL0     H87610   1.800   8.881   6.381  0.8909  0.4763  0.5290
  635MOL0     H87611   1.996   8.868   6.539  1.0553  1.4144 -0.9525
  635MOL0     H87612   2.312   8.746   6.735 -0.0528  0.8654 -2.0638
  635MOL0     H87613   2.498   8.724   6.891 -1.3261  0.0313 -1.2116
  635MOL0     H87614   2.535   9.320   6.880  1.2723  0.0274  0.0312
  635MOL0     H87615   2.276   9.322   6.894 -1.7130  0.0127  1.2899
  635MOL0     H87616   1.934   9.021   7.331  0.1349  2.5198  0.7216
  635MOL0     H87617   1.696   8.964   7.338  2.2377 -0.4116  1.9542
  635MOL0     H87618   1.456   8.950   7.327 -0.3484 -1.2851 -1.0933
  635MOL0     H87619   1.439   9.127   7.290 -0.3734  0.7707 -2.3045
  635MOL0     H87620   1.233   8.964   7.299 -0.4620 -3.2159 -1.6061
  635MOL0     H87621   1.276   8.932   7.129  1.8477  0.3907 -0.5898
  635MOL0     H87622   1.114   9.129   7.155 -0.2492  0.2992 -2.0461
  635MOL0     H87623   1.246   9.222   7.219  1.4192  0.5895 -0.6835
  635MOL0     H87624   1.268   9.079   6.940  0.3667 -1.2018  0.2382
  635MOL0     H87625   1.375   9.200   7.027  0.8158 -3.0616  0.0551
  635MOL0     H87626   1.105   9.439   6.832  0.3245 -0.5273  0.1067
  635MOL0     H87627   1.644   9.110   6.943 -1.2783  1.6513  1.0034
  635MOL0     H87628   1.963   9.269   6.919 -2.5993  2.3731 -0.3414
  635MOL0     H87629   1.964   9.106   6.838  1.1268 -0.4170  1.5916
  635MOL0     H87630   1.825   9.219   6.829 -0.6586  3.0077  2.7328
  636MOL0     O87631   3.534   0.024   6.214  0.0232 -0.0924 -0.0543
  636MOL0     C87632   3.432   0.083   6.185  0.3220 -0.2481 -0.7257
  636MOL0     O87633   3.402   0.110   6.061 -0.3406 -0.0003  0.5304
  636MOL0     C87634   3.504   0.119   5.961  0.1876  0.2525  0.5598
  636MOL0     C87635   3.508   0.027   5.850 -0.7986  0.8304  0.3522
  636MOL0     C87636   3.615   0.036   5.748  0.5271 -0.0995  0.3784
  636MOL0     C87637   3.720   0.129   5.759  0.0276  0.5275  0.4398
  636MOL0     O87638   3.818   0.149   5.674 -0.7774  0.0420 -0.0505
  636MOL0     C87639   3.863   0.041   5.593  0.6752  0.5747 -0.3576
  636MOL0     C87640   3.955   0.096   5.492  0.9572  0.6274  0.1686
  636MOL0     C87641   4.074   0.152   5.568 -0.2766 -0.5231  0.7527
  636MOL0     C87642   4.126   0.258   5.458 -0.0225  1.0839  0.2032
  636MOL0     C87643   4.265   0.308   5.501  0.4009  0.0061 -0.0130
  636MOL0     C87644   4.375   0.203   5.465 -0.8645 -0.0135 -1.0419
  636MOL0     C87645   4.503   0.288   5.472  0.2273 -0.5912  0.1755
  636MOL0     C87646   4.621   0.197   5.435 -0.3766  0.6331 -0.2024
  636MOL0     N87647   4.751   0.275   5.439  0.2645  0.5211  0.4797
  636MOL0     C87648   4.866   0.231   5.502 -0.0293  0.0827 -0.2691
  636MOL0     C87649   4.963   0.305   5.448  0.1590 -1.2583  0.1404
  636MOL0     C87650   5.110   0.288   5.466 -0.1502  0.4376  0.0400
  636MOL0     C87651   5.146   0.299   5.609  0.7357  0.4529 -0.9342
  636MOL0     C87652   5.079   0.425   5.673  0.1067  0.2295 -0.5509
  636MOL0     C87653   5.107   0.423   5.819 -0.2606 -0.2133 -0.4063
  636MOL0     O87654   5.246   0.458   5.843  0.0613 -0.1745 -0.1508
  636MOL0     C87655   5.297   0.420   5.964  0.6691  0.1832 -0.2000
  636MOL0     C87656   5.433   0.443   5.985 -0.0510  0.1328  0.5579
  636MOL0     C87657   5.502   0.395   6.100 -0.2567  0.1868  0.8664
  636MOL0     C87658   5.649   0.403   6.090 -0.0312  0.2564 -0.0181
  636MOL0     C87659   5.432   0.339   6.209  0.3097 -0.8090  0.8943
  636MOL0     C87660   5.495   0.281   6.332 -0.3310  0.2868  0.4677
  636MOL0     O87661   5.611   0.340   6.375 -0.1679 -0.4841  0.2111
  636MOL0     C87662   5.691   0.268   6.464  0.5843  0.1461  0.7113
  636MOL0     C87663   5.651   0.210   6.582 -0.0569  0.1638  0.0875
  636MOL0     C87664   5.735   0.154   6.668  0.3921 -0.2496 -0.0111
  636MOL0     C87665   5.875   0.163   6.640  0.0555  0.1075  0.1388
  636MOL0     O87666   5.967   0.115   6.730  0.0783  0.3808  0.5431
  636MOL0     C87667   6.108   0.118   6.696  0.1127 -0.0120 -0.2492
  636MOL0     C87668   6.171   0.036   6.810 -0.4260  0.4301 -1.0904
  636MOL0     C87669   6.319   0.049   6.812 -1.4696 -0.6963  0.2409
  636MOL0     C87670   6.389   0.020   6.671  0.3644  0.6495  0.1834
  636MOL0     C87671   6.545   0.042   6.663  1.1439 -1.5911 -0.9181
  636MOL0     C87672   6.592   0.193   6.681  0.2398  0.2322  0.6518
  636MOL0     C87673   6.746   0.209   6.654  0.7043 -0.3754  0.1403
  636MOL0     C87674   6.769   0.250   6.507  0.7843 -0.2916 -0.6496
  636MOL0    Cl87675   6.674   0.170   6.380 -0.4459  0.3394  0.1376
  636MOL0     C87676   5.916   0.227   6.521  0.3676 -0.0782  0.1595
  636MOL0     C87677   5.827   0.278   6.433 -0.2945  0.0960 -0.2419
  636MOL0     O87678   5.436   0.198   6.397 -0.1426  0.4010 -0.5130
  636MOL0     C87679   5.288   0.332   6.200 -0.1625  0.3749 -1.0143
  636MOL0     C87680   5.230   0.373   6.079  0.7865  0.1735  0.1356
  636MOL0     N87681   4.900   0.416   5.380 -1.1039  0.0107  0.0588
  636MOL0     N87682   4.778   0.392   5.386 -0.4365  0.6430 -0.0500
  636MOL0     C87683   3.716   0.213   5.876 -0.1238 -0.3141 -0.0805
  636MOL0     C87684   3.609   0.211   5.970  1.0013 -0.0647  0.0740
  636MOL0     C87685   3.338   0.117   6.295 -0.8745 -0.0646  0.1661
  636MOL0     C87686   3.283   0.021   6.376  0.0944 -0.0185  0.2298
  636MOL0     C87687   3.219   0.059   6.497  0.8240  0.9891  0.0738
  636MOL0     C87688   3.216   0.195   6.526 -0.2003  0.8298 -0.0468
  636MOL0     O87689   3.155   0.228   6.646  0.6318 -0.1811  0.1620
  636MOL0     C87690   3.051   0.330   6.643  0.5271  0.2658  0.6837
  636MOL0     C87691   3.098   0.459   6.704 -0.0340 -0.1268 -0.5329
  636MOL0     C87692   3.083   0.447   6.856  1.0580 -0.3277 -0.1401
  636MOL0     C87693   3.088   0.584   6.932 -1.0160  0.1046 -0.7468
  636MOL0     C87694   3.203   0.669   6.893 -0.2171 -0.3066  0.5527
  636MOL0     C87695   3.292   0.747   6.870 -0.3461 -0.2028 -0.4505
  636MOL0     C87696   3.270   0.292   6.439 -0.2079  0.3477 -0.0280
  636MOL0     C87697   3.328   0.251   6.325 -0.0425 -0.6307  0.4966
  636MOL0     C87698   3.385   0.366   6.242  0.2702  0.4375 -0.3556
  636MOL0     H87699   3.416  -0.029   5.837 -1.5222  1.2490  3.0959
  636MOL0     H87700   3.604  -0.033   5.664  2.1302  0.8370 -0.6537
  636MOL0     H87701   3.783  -0.020   5.550 -0.3199  0.8695  1.0003
  636MOL0     H87702   3.925  -0.030   5.648 -0.9711 -2.1649 -1.8209
  636MOL0     H87703   3.983   0.022   5.417 -0.0677  1.3939 -1.0114
  636MOL0     H87704   3.896   0.174   5.443  1.2920 -0.6810 -2.4741
  636MOL0     H87705   4.048   0.205   5.660  0.2322 -0.6643  0.9841
  636MOL0     H87706   4.148   0.074   5.590  0.5181 -0.3311 -1.0339
  636MOL0     H87707   4.133   0.203   5.364 -2.0672  2.4113 -0.7839
  636MOL0     H87708   4.061   0.343   5.436  1.4985  1.5751 -2.8194
  636MOL0     H87709   4.276   0.345   5.604  1.7013 -0.3683  0.0021
  636MOL0     H87710   4.270   0.402   5.446  0.0939 -1.3035 -2.4325
  636MOL0     H87711   4.375   0.123   5.539 -3.6622 -0.8901 -1.8440
  636MOL0     H87712   4.360   0.166   5.363  1.0930  0.8205 -1.6820
  636MOL0     H87713   4.520   0.329   5.572 -2.9349 -0.4367  0.7309
  636MOL0     H87714   4.490   0.365   5.394 -0.5349 -0.8575  0.0318
  636MOL0     H87715   4.619   0.125   5.518  1.3605  0.5173 -0.2382
  636MOL0     H87716   4.616   0.143   5.340  2.9133  1.9482 -1.2513
  636MOL0     H87717   4.876   0.149   5.573 -0.0219  0.1436 -0.2003
  636MOL0     H87718   5.170   0.370   5.425  2.3061 -2.3261 -2.3945
  636MOL0     H87719   5.143   0.197   5.416 -1.7255  1.8257 -3.8863
  636MOL0     H87720   5.115   0.203   5.652  2.3249  0.1035 -0.5126
  636MOL0     H87721   5.255   0.307   5.612  0.7187  0.4620  0.3234
  636MOL0     H87722   5.128   0.514   5.633  1.5645 -0.1605  0.2707
  636MOL0     H87723   4.971   0.415   5.660 -0.0880  2.5782 -1.0640
  636MOL0     H87724   5.053   0.499   5.877  0.8090  2.0068 -2.1545
  636MOL0     H87725   5.079   0.326   5.862 -1.7164  0.2279 -0.2943
  636MOL0     H87726   5.480   0.475   5.893  1.6745 -2.1254  0.5572
  636MOL0     H87727   5.683   0.490   6.146  1.5412 -1.4950  1.8867
  636MOL0     H87728   5.683   0.394   5.986  0.9283  1.3000  0.1879
  636MOL0     H87729   5.700   0.320   6.138 -1.9590 -0.0930  1.5474
  636MOL0     H87730   5.546   0.205   6.610 -0.9203  0.7339 -2.6571
  636MOL0     H87731   5.694   0.107   6.757  0.7242 -2.6588 -1.0695
  636MOL0     H87732   6.124   0.070   6.599  2.0857 -1.1776  0.6014
  636MOL0     H87733   6.156   0.216   6.697  1.7903 -0.7994  0.0219
  636MOL0     H87734   6.133   0.073   6.905  0.2466 -3.8606  1.1008
  636MOL0     H87735   6.146  -0.069   6.789 -1.7514  0.9004 -1.9988
  636MOL0     H87736   6.364  -0.020   6.884  1.7724  0.2163 -0.7205
  636MOL0     H87737   6.361   0.142   6.852  0.9786 -1.3974 -0.5002
  636MOL0     H87738   6.343   0.082   6.594 -0.7706  0.1169  0.3954
  636MOL0     H87739   6.367  -0.082   6.639  2.7291  0.7725 -2.1111
  636MOL0     H87740   6.597  -0.020   6.738 -0.5909 -2.0825 -0.0800
  636MOL0     H87741   6.583  -0.006   6.572 -3.2149 -2.9500 -2.2337
  636MOL0     H87742   6.566   0.229   6.781 -1.3196  1.0178 -0.0023
  636MOL0     H87743   6.550   0.252   6.600  2.1346 -1.0028 -1.3527
  636MOL0     H87744   6.799   0.114   6.667 -0.9091 -1.2191  0.8360
  636MOL0     H87745   6.775   0.286   6.726 -0.5022 -0.4677  0.7391
  636MOL0     H87746   6.877   0.233   6.499  0.9730 -0.8001  1.9872
  636MOL0     H87747   6.758   0.359   6.496  1.4802 -0.1914 -0.4403
  636MOL0     H87748   6.022   0.242   6.504  0.6098 -2.4510 -0.8040
  636MOL0     H87749   5.864   0.332   6.346  0.7282 -1.9748 -1.1844
  636MOL0     H87750   5.227   0.302   6.284  3.2547 -2.6119  0.6734
  636MOL0     H87751   5.122   0.367   6.068  0.9065  1.3190 -1.9481
  636MOL0     H87752   3.800   0.278   5.896  2.1761 -1.7625 -4.0535
  636MOL0     H87753   3.602   0.274   6.058 -0.1679  1.2593 -0.9318
  636MOL0     H87754   3.298  -0.085   6.355  1.7204 -0.6627  3.9885
  636MOL0     H87755   3.169  -0.011   6.564  4.4737  0.0791  2.1089
  636MOL0     H87756   3.018   0.332   6.539  1.8600  1.6620  0.2346
  636MOL0     H87757   2.972   0.285   6.703  1.8206 -3.2554 -0.0279
  636MOL0     H87758   3.058   0.551   6.661  2.3207  1.8058  1.1270
  636MOL0     H87759   3.203   0.472   6.677 -0.0429  1.0257 -0.0643
  636MOL0     H87760   2.987   0.399   6.879  1.0250 -0.3112 -0.2402
  636MOL0     H87761   3.162   0.378   6.886  0.2113 -1.7890 -1.1578
  636MOL0     H87762   3.123   0.556   7.032  4.6963 -0.2928 -2.4660
  636MOL0     H87763   2.990   0.632   6.927 -0.9030  1.0855  3.0808
  636MOL0     H87764   3.365   0.824   6.854  1.1174 -2.1853 -4.5272
  636MOL0     H87765   3.269   0.396   6.470 -0.0320  0.5250 -0.6052
  636MOL0     H87766   3.493   0.364   6.225  0.1447 -0.5530 -1.1024
  636MOL0     H87767   3.332   0.355   6.147 -1.1409  0.8013  0.3552
  636MOL0     H87768   3.351   0.463   6.279 -0.3563 -0.1794  0.7722
  637MOL0     O87769   6.376   8.720   3.645 -0.1893  0.2451  0.2247
  637MOL0     C87770   6.327   8.771   3.747 -0.1969  0.5567  0.0039
  637MOL0     O87771   6.394   8.802   3.860 -0.2617 -0.0910  0.5611
  637MOL0     C87772   6.530   8.813   3.846 -0.5223 -0.1211 -0.6756
  637MOL0     C87773   6.605   8.761   3.950 -0.0774  0.6601  0.6249
  637MOL0     C87774   6.746   8.783   3.958 -0.3449 -0.0127  0.6987
  637MOL0     C87775   6.804   8.848   3.854 -0.5884  0.2097  0.4377
  637MOL0     O87776   6.939   8.875   3.868 -0.7140  0.8494  0.7497
  637MOL0     C87777   7.017   8.877   3.750 -0.2093  0.2589  0.9246
  637MOL0     C87778   7.173   8.865   3.771  0.3075  0.6456  0.4883
  637MOL0     C87779   7.196   8.750   3.865  0.1737 -0.6890 -0.0246
  637MOL0     C87780   7.334   8.691   3.848 -0.6757 -0.0499  0.1239
  637MOL0     C87781   7.350   8.558   3.931 -0.0125  0.1850  0.3221
  637MOL0     C87782   7.323   8.567   4.081  0.6991  0.1513 -0.0834
  637MOL0     C87783   7.175   8.529   4.104  0.4881  0.3932  0.3233
  637MOL0     C87784   7.127   8.532   4.261  0.2598  0.3381  0.3500
  637MOL0     N87785   7.237   8.501   4.353 -0.3723  0.0026 -0.4664
  637MOL0     C87786   7.312   8.596   4.427  0.3292  0.3068  0.0535
  637MOL0     C87787   7.407   8.520   4.488  0.4482 -0.6811 -0.8122
  637MOL0     C87788   7.512   8.560   4.586  0.0211 -0.2188 -0.0694
  637MOL0     C87789   7.563   8.702   4.587  0.5882 -0.3942  0.3328
  637MOL0     C87790   7.693   8.726   4.664 -0.5519 -0.2697 -0.0352
  637MOL0     C87791   7.691   8.718   4.814  0.3429 -0.1626 -0.0208
  637MOL0     O87792   7.821   8.761   4.856  0.3539  0.2744 -0.4590
  637MOL0     C87793   7.913   8.659   4.868 -0.0769 -0.0910  0.5888
  637MOL0     C87794   7.907   8.526   4.822 -0.3858 -0.5895  0.8365
  637MOL0     C87795   8.005   8.430   4.849 -0.3077 -0.6656 -0.0175
  637MOL0     C87796   7.983   8.289   4.808 -0.1127 -0.1412 -0.2249
  637MOL0     C87797   8.120   8.466   4.927  1.0884  0.4543 -0.0495
  637MOL0     C87798   8.233   8.377   4.965  0.4544  0.7632  0.5842
  637MOL0     O87799   8.206   8.261   5.017  0.3872 -0.4991 -0.1485
  637MOL0     C87800   8.308   8.175   5.036 -0.1126  0.3157  0.1321
  637MOL0     C87801   8.335   8.079   4.936 -0.8808  0.5242  0.2050
  637MOL0     C87802   8.450   7.995   4.949  0.5913  0.3253 -0.6808
  637MOL0     C87803   8.524   7.995   5.073  0.2721  0.2856  0.1246
  637MOL0     O87804   8.619   7.892   5.101 -0.2466  0.3098  0.2423
  637MOL0     C87805   8.581   7.751   5.083 -0.1787 -0.5331 -0.2242
  637MOL0     C87806   8.652   7.661   5.180  0.3376  0.1635 -0.6395
  637MOL0     C87807   8.587   7.663   5.318 -0.0712  0.4108 -0.3110
  637MOL0     C87808   8.620   7.533   5.393  0.2506 -0.4354  0.1448
  637MOL0     C87809   8.555   7.550   5.533  0.3446  0.4457  0.1110
  637MOL0     C87810   8.560   7.407   5.590 -0.0563  0.4164 -0.1175
  637MOL0     C87811   8.539   7.409   5.739 -0.7135 -1.8031  0.0056
  637MOL0     C87812   8.529   7.273   5.798  0.1918 -0.9135  0.1885
  637MOL0    Cl87813   8.525   7.290   5.966 -0.0988  0.4692  0.1763
  637MOL0     C87814   8.488   8.094   5.171  0.0176 -0.6040 -0.5211
  637MOL0     C87815   8.380   8.186   5.147 -0.1691 -0.5045 -0.1767
  637MOL0     O87816   8.343   8.415   4.934 -0.0418  1.0866  0.1802
  637MOL0     C87817   8.135   8.603   4.959 -0.3048 -0.4402  0.7425
  637MOL0     C87818   8.032   8.690   4.937 -0.1245  0.0336 -0.3930
  637MOL0     N87819   7.399   8.389   4.436 -0.8034 -0.0665 -0.3469
  637MOL0     N87820   7.295   8.375   4.362 -0.6144 -0.2113  0.6647
  637MOL0     C87821   6.734   8.892   3.739 -0.1030  0.5767 -0.4872
  637MOL0     C87822   6.601   8.869   3.739  0.5336  0.0401  0.7964
  637MOL0     C87823   6.175   8.770   3.748 -0.6439  0.1160 -0.0650
  637MOL0     C87824   6.095   8.702   3.656  0.3722 -0.1938 -0.4163
  637MOL0     C87825   5.956   8.710   3.657 -0.0821  0.7462 -0.5519
  637MOL0     C87826   5.890   8.789   3.747  0.0223  0.2262 -0.2224
  637MOL0     O87827   5.757   8.786   3.748  0.4836 -0.4538 -0.2615
  637MOL0     C87828   5.695   8.893   3.814  0.3654  0.2015 -0.1370
  637MOL0     C87829   5.555   8.905   3.763  0.3743  0.5557  0.6883
  637MOL0     C87830   5.464   8.789   3.810  0.1824  0.1186  0.5599
  637MOL0     C87831   5.339   8.782   3.728  0.5474 -0.2489 -0.0414
  637MOL0     C87832   5.243   8.689   3.786  0.3022  0.5389  0.2650
  637MOL0     C87833   5.169   8.600   3.832  0.0633  0.0012  0.4572
  637MOL0     C87834   5.969   8.857   3.846 -0.3248 -0.9267  0.6089
  637MOL0     C87835   6.110   8.860   3.837  0.0413  0.4292 -0.1410
  637MOL0     C87836   6.177   8.938   3.943  0.5983  0.2607 -0.4214
  637MOL0     H87837   6.556   8.718   4.037  1.2361 -0.3701  0.8896
  637MOL0     H87838   6.802   8.751   4.045  0.1911  2.1357  1.2008
  637MOL0     H87839   6.997   8.979   3.716 -4.4132 -0.1790  1.5529
  637MOL0     H87840   6.998   8.801   3.673 -3.1270  3.7372 -2.1448
  637MOL0     H87841   7.215   8.856   3.671 -0.7509 -0.7997  0.1417
  637MOL0     H87842   7.214   8.952   3.823  0.9489 -0.9524  2.8087
  637MOL0     H87843   7.186   8.793   3.964  0.2525 -2.4265  0.7769
  637MOL0     H87844   7.123   8.670   3.847  0.1583 -0.2316 -2.3870
  637MOL0     H87845   7.334   8.658   3.744  1.6937 -1.3557  0.4550
  637MOL0     H87846   7.418   8.756   3.875 -1.7269  0.8625  1.3406
  637MOL0     H87847   7.453   8.524   3.914  0.6131  2.7592 -1.7661
  637MOL0     H87848   7.281   8.483   3.891 -2.3714  1.6980  1.3516
  637MOL0     H87849   7.383   8.497   4.139 -0.7801 -0.5521  0.6644
  637MOL0     H87850   7.325   8.669   4.118  1.9389 -0.5160  1.7839
  637MOL0     H87851   7.172   8.423   4.079 -1.5295 -0.2691  2.8609
  637MOL0     H87852   7.101   8.580   4.041 -0.7177 -2.6554 -0.9060
  637MOL0     H87853   7.089   8.632   4.281  0.0003  0.1608  0.7747
  637MOL0     H87854   7.042   8.462   4.265 -0.3092  0.9897 -0.1038
  637MOL0     H87855   7.310   8.703   4.439 -1.9630  0.7068 -2.7965
  637MOL0     H87856   7.601   8.497   4.582  2.7303  3.2987  0.0049
  637MOL0     H87857   7.465   8.542   4.683  2.0804 -1.0195  0.8234
  637MOL0     H87858   7.573   8.736   4.484  0.5780 -0.7853  0.2001
  637MOL0     H87859   7.488   8.772   4.626  0.0812  0.7171 -2.3909
  637MOL0     H87860   7.760   8.650   4.623  0.2804 -0.1236  1.0086
  637MOL0     H87861   7.723   8.828   4.637 -0.5049 -0.3114 -0.1393
  637MOL0     H87862   7.608   8.781   4.847  0.5139  0.3521 -0.5485
  637MOL0     H87863   7.665   8.619   4.851  0.5909 -0.4559 -0.6134
  637MOL0     H87864   7.818   8.491   4.769 -0.6614  0.4184  0.6170
  637MOL0     H87865   8.048   8.261   4.725 -1.5504 -1.8062 -0.8375
  637MOL0     H87866   7.884   8.274   4.763  0.1528 -1.4487 -0.4065
  637MOL0     H87867   7.994   8.223   4.894  1.1945  0.3134 -0.0217
  637MOL0     H87868   8.268   8.072   4.851 -0.3219  2.3888 -0.4242
  637MOL0     H87869   8.469   7.915   4.879  0.9641  0.9966 -1.3540
  637MOL0     H87870   8.475   7.730   5.101 -0.0227  1.2155  3.9336
  637MOL0     H87871   8.620   7.729   4.984 -0.1918  0.0399 -0.3581
  637MOL0     H87872   8.664   7.556   5.153 -2.4260 -1.8434  4.4010
  637MOL0     H87873   8.756   7.694   5.193 -0.2739  1.5781  1.1053
  637MOL0     H87874   8.477   7.663   5.312 -0.0170  1.0760 -1.5772
  637MOL0     H87875   8.627   7.748   5.374 -0.0767  1.0237 -1.2078
  637MOL0     H87876   8.728   7.521   5.402  0.5299  2.5153  2.2597
  637MOL0     H87877   8.581   7.443   5.344 -0.2835 -0.2260  0.1744
  637MOL0     H87878   8.624   7.615   5.587  0.1002  2.2655 -1.6475
  637MOL0     H87879   8.449   7.576   5.531  0.0490  0.0551  3.6188
  637MOL0     H87880   8.662   7.378   5.564  1.4682  3.0801  2.3822
  637MOL0     H87881   8.492   7.335   5.543 -3.5991  3.6861 -0.4836
  637MOL0     H87882   8.456   7.475   5.763  1.5186  1.5332 -0.8560
  637MOL0     H87883   8.633   7.450   5.777 -1.4847 -1.0695  1.1895
  637MOL0     H87884   8.625   7.226   5.776  1.6161  1.0746  1.7285
  637MOL0     H87885   8.441   7.219   5.763 -0.5436  1.4544 -1.9347
  637MOL0     H87886   8.536   8.083   5.268 -1.9055 -2.3890  0.2971
  637MOL0     H87887   8.359   8.268   5.216  0.4271 -0.8649  0.4512
  637MOL0     H87888   8.228   8.652   4.985  0.3222  0.4580 -2.7240
  637MOL0     H87889   8.045   8.796   4.957  2.3325 -0.3249  0.2036
  637MOL0     H87890   6.782   8.938   3.652  0.1729  0.3541 -0.4551
  637MOL0     H87891   6.540   8.902   3.656  1.4765 -0.7794 -0.2632
  637MOL0     H87892   6.130   8.639   3.575  1.3846  1.2997 -1.1694
  637MOL0     H87893   5.892   8.665   3.582 -0.8800  0.5294  0.2568
  637MOL0     H87894   5.703   8.888   3.923  1.3351  1.0875 -0.1522
  637MOL0     H87895   5.751   8.983   3.788  2.9337 -1.1746  0.2343
  637MOL0     H87896   5.564   8.905   3.654 -1.5186 -1.6090  0.4442
  637MOL0     H87897   5.515   9.002   3.793  1.1374  2.3521 -3.5012
  637MOL0     H87898   5.519   8.695   3.805 -0.7027 -0.4045  0.4858
  637MOL0     H87899   5.433   8.791   3.914 -1.1923 -0.2557  0.1794
  637MOL0     H87900   5.363   8.759   3.624 -0.4727 -0.9141 -0.1509
  637MOL0     H87901   5.287   8.878   3.731  1.7631  0.4100  0.4398
  637MOL0     H87902   5.120   8.525   3.891  0.3598 -0.4226  0.1730
  637MOL0     H87903   5.921   8.913   3.926  2.9219  2.7907  0.2509
  637MOL0     H87904   6.246   9.012   3.901  1.0060  1.2944  1.9348
  637MOL0     H87905   6.104   8.983   4.011 -2.2619 -2.2755 -1.6151
  637MOL0     H87906   6.226   8.872   4.015 -1.0674  0.4155  0.9196
  638MOL0     O87907  10.465   7.903   2.157  0.2191 -0.3464  0.0222
  638MOL0     C87908  10.458   7.943   2.043  0.5169 -0.1820  0.3480
  638MOL0     O87909  10.548   8.026   1.977 -0.2879  0.1514  0.0651
  638MOL0     C87910  10.666   8.074   2.037  0.4874 -0.0241  0.5563
  638MOL0     C87911  10.668   8.111   2.174  0.0175 -0.2317 -0.2740
  638MOL0     C87912  10.784   8.161   2.222 -0.6543  0.5145 -0.3070
  638MOL0     C87913  10.903   8.142   2.158 -0.3691  0.3374  0.8852
  638MOL0     O87914  11.030   8.171   2.212  0.1238 -1.2647  0.2165
  638MOL0     C87915  11.056   8.132   2.348  0.8879  0.1282  0.6333
  638MOL0     C87916  11.202   8.101   2.361  0.1705 -0.5549 -0.1733
  638MOL0     C87917  11.288   8.232   2.377  0.7473 -0.5222 -0.3742
  638MOL0     C87918  11.427   8.184   2.409 -0.4622 -0.1452 -0.3439
  638MOL0     C87919  11.526   8.302   2.416 -0.5875 -0.2842  0.1980
  638MOL0     C87920  11.667   8.245   2.444  0.5315 -0.8193 -0.0996
  638MOL0     C87921  11.761   8.359   2.481  0.5157 -0.5409 -0.7250
  638MOL0     C87922  11.908   8.312   2.486 -0.2937 -0.0890 -0.4079
  638MOL0     N87923  11.995   8.428   2.498 -0.6695  0.0949  0.4235
  638MOL0     C87924  12.024   8.523   2.408 -0.0035 -1.0253  0.7265
  638MOL0     C87925  12.124   8.591   2.466  0.0173 -0.4405 -0.3491
  638MOL0     C87926  12.197   8.695   2.388  0.9687  0.4873 -0.0776
  638MOL0     C87927  12.349   8.700   2.426  0.8066 -0.0297 -0.7342
  638MOL0     C87928  12.409   8.819   2.365  0.3983  0.6943 -0.8236
  638MOL0     C87929  12.551   8.848   2.417  0.3006  1.2394 -0.0486
  638MOL0     O87930  12.633   8.747   2.367  0.6716 -1.5610  1.4631
  638MOL0     C87931  12.767   8.782   2.353 -0.3069 -0.3046  0.2844
  638MOL0     C87932  12.828   8.885   2.425 -0.4002  0.4745 -0.0843
  638MOL0     C87933  12.967   8.912   2.406  0.1452  0.5574  0.2678
  638MOL0     C87934  13.033   9.029   2.468  0.8001  0.2753 -0.4348
  638MOL0     C87935  13.036   8.842   2.303  0.2417  0.5124  0.4375
  638MOL0     C87936  13.177   8.866   2.259  0.2243 -0.0166  0.4207
  638MOL0     O87937  13.204   9.000   2.247 -0.7458 -1.0712 -0.5435
  638MOL0     C87938  13.327   9.037   2.201 -0.4640  0.1885 -0.3374
  638MOL0     C87939  13.328   9.148   2.121 -0.9461  0.0913  0.8667
  638MOL0     C87940  13.453   9.204   2.072  0.2690 -0.1042 -0.7711
  638MOL0     C87941  13.584   9.148   2.119  0.1287  0.0353 -1.2927
  638MOL0     O87942  13.697   9.213   2.089 -0.3434  0.4489  0.5276
  638MOL0     C87943  13.804   9.219   2.191  0.8868 -0.7265 -0.8878
  638MOL0     C87944  13.777   9.307   2.314  0.0381  0.2860  0.3781
  638MOL0     C87945  13.697   9.440   2.281  0.6778 -0.2026 -0.2257
  638MOL0     C87946  13.795   9.547   2.224  0.1152 -0.2311 -0.1524
  638MOL0     C87947  13.730   9.685   2.192  0.0751  0.2001  0.3737
  638MOL0     C87948  13.647   9.678   2.063  0.1106 -0.1110 -0.0123
  638MOL0     C87949  13.620   9.825   2.015 -0.0267 -0.9963  0.4858
  638MOL0     C87950  13.499   9.828   1.923  0.9734  0.7734 -0.0967
  638MOL0    Cl87951  13.485   9.966   1.802 -0.0112  0.0470 -0.1400
  638MOL0     C87952  13.575   9.035   2.206  0.1670  0.4446 -0.0720
  638MOL0     C87953  13.451   8.982   2.253 -0.8382 -0.2618  0.0707
  638MOL0     O87954  13.249   8.774   2.219 -0.0884 -0.0184  0.5546
  638MOL0     C87955  12.964   8.758   2.218  0.9458  0.2196  0.4748
  638MOL0     C87956  12.830   8.727   2.247 -0.4326  0.9175 -0.5126
  638MOL0     N87957  12.152   8.537   2.592  0.4956  0.0480 -0.3333
  638MOL0     N87958  12.077   8.436   2.608  0.1363 -0.1491  0.4412
  638MOL0     C87959  10.897   8.099   2.021 -0.0942 -0.8287 -0.0163
  638MOL0     C87960  10.779   8.076   1.956  0.5652 -0.9095 -0.2676
  638MOL0     C87961  10.329   7.923   1.975  0.0195 -0.3409 -0.0017
  638MOL0     C87962  10.218   7.984   2.033 -0.3243  0.7352 -1.4332
  638MOL0     C87963  10.090   7.972   1.974 -0.0828  0.4740  0.5027
  638MOL0     C87964  10.078   7.904   1.855 -0.0474 -1.0108  0.5007
  638MOL0     O87965   9.954   7.897   1.785 -0.5039  0.4986  0.3191
  638MOL0     C87966   9.828   7.935   1.837  0.0912  0.6233  0.3663
  638MOL0     C87967   9.710   7.908   1.742  0.4376  0.0077  0.5882
  638MOL0     C87968   9.713   8.005   1.625  0.0984  0.0530  0.3939
  638MOL0     C87969   9.772   7.945   1.495 -0.1014  0.5058 -0.3072
  638MOL0     C87970   9.781   8.039   1.382 -0.2297 -1.5424  0.0249
  638MOL0     C87971   9.790   8.118   1.291 -0.3135  0.0790  0.4380
  638MOL0     C87972  10.183   7.841   1.799 -0.3030  0.2233 -0.9662
  638MOL0     C87973  10.312   7.840   1.860  0.1584 -0.0028 -0.0430
  638MOL0     C87974  10.425   7.782   1.791 -0.5331 -0.9889  0.0853
  638MOL0     H87975  10.581   8.117   2.238  0.3915 -1.6747  0.4319
  638MOL0     H87976  10.802   8.209   2.318  0.4018  0.7748 -0.6187
  638MOL0     H87977  10.985   8.051   2.366  1.3314 -0.1320  1.2433
  638MOL0     H87978  11.021   8.215   2.410 -1.7320  1.1454 -1.9900
  638MOL0     H87979  11.216   8.034   2.447 -2.9352 -1.6033 -0.3591
  638MOL0     H87980  11.243   8.038   2.282  0.7595 -2.1267  1.3076
  638MOL0     H87981  11.289   8.305   2.296  4.4811  0.6203  0.5192
  638MOL0     H87982  11.256   8.287   2.466 -0.7184  0.0228 -1.2151
  638MOL0     H87983  11.439   8.125   2.501 -0.7991 -1.3158 -1.0320
  638MOL0     H87984  11.461   8.119   2.328 -0.0968  1.0184 -1.1488
  638MOL0     H87985  11.490   8.373   2.491 -0.7397 -1.1862  0.9965
  638MOL0     H87986  11.529   8.344   2.315  3.0699 -1.4385 -0.3360
  638MOL0     H87987  11.670   8.179   2.532  2.7563  0.0910  0.5788
  638MOL0     H87988  11.697   8.183   2.359 -0.2980 -1.0683 -0.2192
  638MOL0     H87989  11.730   8.418   2.567  0.9135 -2.0793  0.5182
  638MOL0     H87990  11.759   8.438   2.405 -1.0198 -0.4144 -0.5817
  638MOL0     H87991  11.907   8.250   2.576 -0.1299  0.1186 -0.2631
  638MOL0     H87992  11.931   8.251   2.398  1.4689  0.3684 -0.2994
  638MOL0     H87993  11.979   8.534   2.310  0.2842 -0.9106  0.6042
  638MOL0     H87994  12.142   8.790   2.393 -0.4186 -0.1467 -2.0688
  638MOL0     H87995  12.188   8.692   2.279 -1.1653  0.2696  0.0551
  638MOL0     H87996  12.364   8.692   2.535 -1.5738  0.3867 -0.3146
  638MOL0     H87997  12.403   8.613   2.388  1.1727  1.1338 -2.9966
  638MOL0     H87998  12.430   8.809   2.258  0.8428 -0.5915 -0.6331
  638MOL0     H87999  12.348   8.909   2.375  1.0610  1.2126 -1.3540
  638MOL0     H88000  12.576   8.943   2.369 -0.1342  0.9071 -0.9621
  638MOL0     H88001  12.544   8.842   2.526  1.3587  0.0033 -0.0181
  638MOL0     H88002  12.776   8.940   2.503 -0.4384 -0.6704  0.7243
  638MOL0     H88003  12.964   9.076   2.540  0.3642 -0.0753 -0.6215
  638MOL0     H88004  13.038   9.097   2.382  0.5752 -0.7497 -1.2766
  638MOL0     H88005  13.128   8.999   2.514  1.1647  3.0275  0.8074
  638MOL0     H88006  13.239   9.201   2.086  1.1727  2.9234 -0.6567
  638MOL0     H88007  13.458   9.293   2.010  2.9553  0.1960 -0.2765
  638MOL0     H88008  13.828   9.117   2.222  1.9863 -0.7113 -1.6064
  638MOL0     H88009  13.885   9.255   2.126  0.7649  0.4194 -0.4266
  638MOL0     H88010  13.704   9.254   2.376 -1.3003  0.2620 -1.1619
  638MOL0     H88011  13.864   9.323   2.378 -0.7702 -1.2617  1.9736
  638MOL0     H88012  13.655   9.490   2.369  2.9571 -1.4112  1.6615
  638MOL0     H88013  13.614   9.417   2.214  0.0681  2.4175 -0.4781
  638MOL0     H88014  13.831   9.508   2.129  0.9511  1.4320 -0.5660
  638MOL0     H88015  13.888   9.560   2.281 -0.3536 -0.7578  0.7647
  638MOL0     H88016  13.672   9.714   2.280 -1.6479 -2.0439  0.0430
  638MOL0     H88017  13.811   9.757   2.174  1.2747 -0.7395  1.7038
  638MOL0     H88018  13.550   9.629   2.071  1.2044 -3.0253 -2.4550
  638MOL0     H88019  13.711   9.632   1.987  1.0970  0.5388  0.4049
  638MOL0     H88020  13.704   9.855   1.951 -0.8932 -1.4360 -0.8924
  638MOL0     H88021  13.609   9.893   2.100 -2.4500 -1.3079  0.4748
  638MOL0     H88022  13.409   9.809   1.981  1.5344 -0.6131  0.3715
  638MOL0     H88023  13.511   9.738   1.862 -2.3423 -0.1211  0.3976
  638MOL0     H88024  13.663   8.984   2.244  0.7125  1.3309 -0.1106
  638MOL0     H88025  13.460   8.912   2.335 -0.5324  0.3340  0.5503
  638MOL0     H88026  12.994   8.713   2.124 -1.6350  1.7723 -1.1901
  638MOL0     H88027  12.789   8.648   2.185  0.4955  0.9341 -1.1691
  638MOL0     H88028  10.992   8.080   1.972 -0.9798 -4.2675 -0.6971
  638MOL0     H88029  10.777   8.050   1.851 -1.9498  0.8388 -0.7522
  638MOL0     H88030  10.217   8.038   2.127 -2.4095  0.2241 -1.1088
  638MOL0     H88031  10.015   8.036   2.018 -0.5094  0.3735 -0.0648
  638MOL0     H88032   9.810   7.889   1.935  0.0814 -0.4315 -0.1210
  638MOL0     H88033   9.834   8.043   1.859 -2.1228  1.0244 -0.7184
  638MOL0     H88034   9.617   7.911   1.800 -0.4222  0.3940 -0.7554
  638MOL0     H88035   9.722   7.812   1.692  0.0762 -1.7719  3.7181
  638MOL0     H88036   9.612   8.040   1.601 -0.3753 -1.0480  0.7435
  638MOL0     H88037   9.773   8.093   1.650  3.0216 -1.2550 -1.5219
  638MOL0     H88038   9.711   7.859   1.465  0.5330 -1.1056  2.6155
  638MOL0     H88039   9.868   7.899   1.521 -0.5554  0.7707  2.0676
  638MOL0     H88040   9.795   8.167   1.196 -1.2020 -1.7427 -0.5907
  638MOL0     H88041  10.154   7.781   1.713 -1.2820 -0.3692 -0.2456
  638MOL0     H88042  10.397   7.725   1.701  1.8624  0.8660 -1.9859
  638MOL0     H88043  10.500   7.848   1.746  0.1004 -1.1576  0.8786
  638MOL0     H88044  10.461   7.703   1.857 -0.0891 -0.8486  0.0149
  639MOL0     O88045   2.207   2.797   1.871 -0.0858  0.0478 -0.5844
  639MOL0     C88046   2.156   2.904   1.912 -0.7259  0.2010 -0.0455
  639MOL0     O88047   2.209   3.026   1.905  0.2167  0.4993  0.1279
  639MOL0     C88048   2.344   3.041   1.905 -0.5961 -0.0393  1.3519
  639MOL0     C88049   2.432   2.952   1.959  0.4154  0.0087 -0.5517
  639MOL0     C88050   2.573   2.980   1.974 -0.1303 -0.3398  0.3477
  639MOL0     C88051   2.624   3.102   1.942 -0.9487  0.2467  0.8658
  639MOL0     O88052   2.754   3.130   1.958 -0.6103 -0.9103  0.3577
  639MOL0     C88053   2.790   3.263   2.000  0.1697  0.5923 -0.0632
  639MOL0     C88054   2.946   3.262   2.022 -0.3312 -0.1259  0.3732
  639MOL0     C88055   2.989   3.149   2.113  0.7691  0.1505 -0.5407
  639MOL0     C88056   3.142   3.162   2.143  0.4903  0.5803  0.5102
  639MOL0     C88057   3.189   3.017   2.188  0.6854 -0.0034  0.7302
  639MOL0     C88058   3.342   3.005   2.187 -0.0440 -0.5910  0.8257
  639MOL0     C88059   3.404   3.121   2.248 -0.4933  0.0743  0.3692
  639MOL0     C88060   3.557   3.096   2.267 -0.2703 -0.0476  0.4377
  639MOL0     N88061   3.635   3.204   2.322 -0.5975 -0.1237  0.4419
  639MOL0     C88062   3.654   3.227   2.455 -0.2890 -0.3067 -0.4957
  639MOL0     C88063   3.721   3.338   2.460  0.3896  0.1900 -0.9772
  639MOL0     C88064   3.773   3.408   2.584  1.0241 -0.3417  0.0113
  639MOL0     C88065   3.917   3.385   2.604 -0.3711 -0.3028  0.8824
  639MOL0     C88066   3.950   3.240   2.650  0.5199  0.0883 -0.1842
  639MOL0     C88067   4.108   3.229   2.663  0.5389 -0.5905  0.2865
  639MOL0     O88068   4.180   3.231   2.539  0.0460  0.5910 -0.1099
  639MOL0     C88069   4.305   3.185   2.525 -0.4538  0.1584 -1.1626
  639MOL0     C88070   4.373   3.190   2.402 -0.1670  0.2363 -0.3010
  639MOL0     C88071   4.500   3.122   2.395 -0.0599  1.8388 -1.1447
  639MOL0     C88072   4.546   3.086   2.254 -0.7028 -0.4377  0.1931
  639MOL0     C88073   4.565   3.072   2.510 -0.1093  0.1477 -0.6214
  639MOL0     C88074   4.707   3.031   2.514  0.3218  0.4613 -0.0240
  639MOL0     O88075   4.740   2.943   2.614 -0.5417  0.0247 -0.5790
  639MOL0     C88076   4.873   2.920   2.641  0.5183  0.0137  0.8104
  639MOL0     C88077   4.923   2.953   2.764 -0.1574 -0.4935  0.5966
  639MOL0     C88078   5.061   2.936   2.802 -0.2752 -0.5026  0.5831
  639MOL0     C88079   5.145   2.873   2.709 -0.8990  0.5816 -0.3829
  639MOL0     O88080   5.279   2.866   2.744  0.0619 -0.5169  1.1275
  639MOL0     C88081   5.368   2.855   2.633 -0.5877  0.2170  0.4044
  639MOL0     C88082   5.518   2.875   2.669 -0.0206 -0.1766 -0.1262
  639MOL0     C88083   5.543   3.015   2.736 -1.3895 -0.0486  0.3234
  639MOL0     C88084   5.695   3.053   2.735  0.8655  0.1728  0.7379
  639MOL0     C88085   5.723   3.193   2.794 -0.6536 -0.5537  0.1249
  639MOL0     C88086   5.679   3.321   2.709  0.5781  0.4792 -0.4687
  639MOL0     C88087   5.742   3.316   2.569  0.6024 -0.6276  0.0438
  639MOL0     C88088   5.891   3.348   2.588  0.8494 -0.6360  0.5212
  639MOL0    Cl88089   5.975   3.394   2.431  0.0904  0.6407  0.0511
  639MOL0     C88090   5.088   2.822   2.588 -0.7893  0.9083 -0.0095
  639MOL0     C88091   4.953   2.847   2.555  0.0916 -0.3050  0.0464
  639MOL0     O88092   4.782   3.057   2.418 -0.2029 -0.1762 -0.2867
  639MOL0     C88093   4.496   3.080   2.633  0.5152 -0.2551  0.0712
  639MOL0     C88094   4.365   3.133   2.640  0.1290  0.8221  0.3177
  639MOL0     N88095   3.740   3.390   2.326  0.3462 -0.1557  0.0259
  639MOL0     N88096   3.682   3.304   2.244 -0.9366  0.1226  0.6947
  639MOL0     C88097   2.535   3.195   1.874 -0.4063  0.9388 -0.0651
  639MOL0     C88098   2.399   3.164   1.850  0.3020  0.5431 -0.2182
  639MOL0     C88099   2.020   2.902   1.968 -0.7845  0.4017  0.8113
  639MOL0     C88100   1.956   3.030   1.986  0.1816  1.1375 -0.6560
  639MOL0     C88101   1.834   3.032   2.041  0.3817  0.4072  0.2957
  639MOL0     C88102   1.767   2.920   2.077 -1.4560  0.9095 -0.0003
  639MOL0     O88103   1.639   2.931   2.121  0.1770  0.1672  0.6443
  639MOL0     C88104   1.575   2.818   2.176  0.1625 -0.1836 -0.5576
  639MOL0     C88105   1.439   2.869   2.220 -0.7912  0.3771 -0.9140
  639MOL0     C88106   1.350   2.774   2.299 -0.1394  0.5452  0.5569
  639MOL0     C88107   1.209   2.835   2.289 -0.4411  0.1734 -0.1469
  639MOL0     C88108   1.121   2.776   2.381 -0.0047  0.4242  0.2753
  639MOL0     C88109   1.042   2.723   2.455  0.2604 -1.3181 -1.0063
  639MOL0     C88110   1.824   2.793   2.054  0.5766 -1.0998  0.0917
  639MOL0     C88111   1.953   2.782   2.005 -1.2414  0.8827  1.1307
  639MOL0     C88112   2.010   2.648   1.999 -0.1748  0.0588  0.7440
  639MOL0     H88113   2.401   2.852   1.986  1.4152 -1.6293 -4.7218
  639MOL0     H88114   2.648   2.907   2.003 -0.4477 -0.5611  0.6279
  639MOL0     H88115   2.746   3.296   2.094  2.9931 -0.2439  1.6549
  639MOL0     H88116   2.767   3.332   1.918 -0.1185  1.5509  0.8156
  639MOL0     H88117   2.996   3.244   1.927 -0.1845 -0.7424  0.5669
  639MOL0     H88118   2.971   3.364   2.054  0.3252 -0.8904  2.4677
  639MOL0     H88119   2.926   3.135   2.202 -2.0026  1.4594 -2.1664
  639MOL0     H88120   2.982   3.061   2.048 -1.8758  0.7951 -1.2541
  639MOL0     H88121   3.192   3.202   2.055 -0.9200 -1.9622 -1.5918
  639MOL0     H88122   3.155   3.232   2.226  0.0941  2.9978 -1.3737
  639MOL0     H88123   3.154   2.938   2.121  2.5508  0.3479 -0.7589
  639MOL0     H88124   3.149   3.003   2.288 -0.9733  0.9424  0.2307
  639MOL0     H88125   3.367   2.919   2.251 -1.1799 -1.1780  0.4969
  639MOL0     H88126   3.372   2.990   2.083  0.3568 -2.6879  1.2017
  639MOL0     H88127   3.356   3.145   2.343  0.7851  1.0530  0.8004
  639MOL0     H88128   3.399   3.211   2.185  0.5419  0.5011  0.8730
  639MOL0     H88129   3.587   3.005   2.320 -0.7946 -0.0630  0.7056
  639MOL0     H88130   3.598   3.093   2.165 -2.7219 -0.5487 -0.5936
  639MOL0     H88131   3.642   3.157   2.537 -0.4120 -1.0943 -1.1728
  639MOL0     H88132   3.723   3.373   2.675 -0.5561 -1.3395 -1.1928
  639MOL0     H88133   3.750   3.515   2.576 -1.4607 -0.7353  0.8179
  639MOL0     H88134   3.970   3.408   2.511  2.1399 -2.3291  1.6896
  639MOL0     H88135   3.944   3.450   2.687 -3.7479  1.7760  0.5447
  639MOL0     H88136   3.899   3.216   2.744  1.1331  0.5768  0.2836
  639MOL0     H88137   3.917   3.166   2.577  0.4354  0.3047 -0.3648
  639MOL0     H88138   4.146   3.312   2.723 -1.0273  0.8942 -0.6993
  639MOL0     H88139   4.125   3.133   2.712 -0.6915 -1.6713 -1.3165
  639MOL0     H88140   4.328   3.234   2.313 -0.1249  0.0126 -0.4340
  639MOL0     H88141   4.495   3.130   2.168  1.8006 -0.2887 -1.2940
  639MOL0     H88142   4.560   2.978   2.246  4.0876 -0.0802  0.6902
  639MOL0     H88143   4.643   3.137   2.248  0.2113 -2.1604 -0.3384
  639MOL0     H88144   4.858   2.995   2.839  0.8991 -1.1465  1.9161
  639MOL0     H88145   5.100   2.990   2.887  0.1914  2.7983 -1.5423
  639MOL0     H88146   5.356   2.751   2.601 -0.9805  0.4135 -0.1070
  639MOL0     H88147   5.345   2.936   2.563  2.3477  1.8449  1.1707
  639MOL0     H88148   5.551   2.798   2.739 -0.2564  1.5136  1.9447
  639MOL0     H88149   5.578   2.875   2.578  0.1547 -0.2114 -0.0102
  639MOL0     H88150   5.497   3.022   2.834 -2.3021  3.9149 -0.2226
  639MOL0     H88151   5.488   3.093   2.682 -2.8884 -0.7214  0.8472
  639MOL0     H88152   5.726   3.048   2.630 -1.7818  1.5204 -0.2229
  639MOL0     H88153   5.764   2.982   2.780  2.3187  0.1294 -1.3968
  639MOL0     H88154   5.658   3.200   2.882 -0.7182  1.2044 -0.0265
  639MOL0     H88155   5.827   3.197   2.828 -0.4846  2.1439 -0.5609
  639MOL0     H88156   5.696   3.407   2.774 -0.8945  0.3783  0.0881
  639MOL0     H88157   5.571   3.324   2.696  0.6755  0.6988 -1.2137
  639MOL0     H88158   5.696   3.388   2.499 -0.3977 -1.4767 -0.1995
  639MOL0     H88159   5.742   3.220   2.516 -1.8424 -0.4620 -0.3865
  639MOL0     H88160   5.935   3.255   2.624  0.3745 -0.9397  0.3263
  639MOL0     H88161   5.905   3.426   2.664 -2.7406  0.8189 -0.0915
  639MOL0     H88162   5.148   2.776   2.510 -1.2897 -0.0920  0.1793
  639MOL0     H88163   4.913   2.809   2.462  2.1556 -0.8353 -0.6642
  639MOL0     H88164   4.532   3.039   2.727 -0.4442 -1.0238  0.1200
  639MOL0     H88165   4.311   3.117   2.733  0.0725  3.2916  0.7895
  639MOL0     H88166   2.569   3.297   1.856 -1.2488  1.1612 -0.4188
  639MOL0     H88167   2.330   3.234   1.805 -0.0802  0.4196  0.1776
  639MOL0     H88168   1.987   3.131   1.963 -1.9565  1.8693 -0.5629
  639MOL0     H88169   1.795   3.127   2.076 -0.7419  0.7196 -1.6696
  639MOL0     H88170   1.539   2.747   2.101 -1.1192 -0.3915  0.2290
  639MOL0     H88171   1.627   2.781   2.265 -0.8095  0.2302  0.1992
  639MOL0     H88172   1.375   2.890   2.134 -2.6015 -1.7623 -0.1818
  639MOL0     H88173   1.452   2.958   2.282  0.2725  0.1792 -0.8393
  639MOL0     H88174   1.352   2.673   2.258 -3.4530  0.3942  0.5429
  639MOL0     H88175   1.386   2.772   2.402  2.2840 -1.3399 -0.2253
  639MOL0     H88176   1.169   2.825   2.188 -1.1657 -1.3115  0.2436
  639MOL0     H88177   1.216   2.940   2.317 -2.3035  0.1451  0.6029
  639MOL0     H88178   0.972   2.699   2.533  1.2032  3.4178  1.7454
  639MOL0     H88179   1.768   2.701   2.070 -0.6811 -0.1246  1.6787
  639MOL0     H88180   1.934   2.574   2.026 -0.3952  0.3692  0.9685
  639MOL0     H88181   2.048   2.623   1.900  1.1688  0.7422  1.0627
  639MOL0     H88182   2.090   2.629   2.071  0.0405 -4.0569 -0.3236
  640MOL0     O88183   4.107   3.978   8.628 -0.4997  0.5179  0.6013
  640MOL0     C88184   4.101   4.068   8.550 -0.5276  0.2535  0.0644
  640MOL0     O88185   4.210   4.151   8.530  1.0919 -1.1037  0.4796
  640MOL0     C88186   4.309   4.145   8.623  0.5335 -0.1994  0.2892
  640MOL0     C88187   4.307   4.234   8.729 -0.0106  0.5104 -0.0617
  640MOL0     C88188   4.428   4.261   8.804  0.9030  0.0587  0.6859
  640MOL0     C88189   4.542   4.190   8.782  0.2360  0.7948  1.1488
  640MOL0     O88190   4.655   4.200   8.870 -0.0979  0.1015  0.4235
  640MOL0     C88191   4.653   4.305   8.969  0.0838  0.1328  0.1394
  640MOL0     C88192   4.777   4.283   9.064 -0.1348 -0.1100 -0.3171
  640MOL0     C88193   4.905   4.297   8.985 -0.4065 -0.2647 -0.1447
  640MOL0     C88194   5.033   4.321   9.060 -0.9613  0.1157 -0.4083
  640MOL0     C88195   5.052   4.201   9.150 -0.2688  0.1256 -0.3350
  640MOL0     C88196   5.188   4.222   9.221 -0.3294 -0.9637 -1.0964
  640MOL0     C88197   5.187   4.134   9.342 -0.0564  0.2229 -0.6593
  640MOL0     C88198   5.178   3.977   9.318 -0.5701 -0.5645  1.0068
  640MOL0     N88199   5.185   3.910   9.451 -0.3182  0.9316 -0.0018
  640MOL0     C88200   5.263   3.935   9.560 -0.6723  0.6941  0.8944
  640MOL0     C88201   5.249   3.839   9.651  0.1702  0.8953 -0.4899
  640MOL0     C88202   5.317   3.840   9.782 -0.3656 -0.3419 -0.1893
  640MOL0     C88203   5.465   3.827   9.762  0.0082  0.4051 -0.2127
  640MOL0     C88204   5.522   3.742   9.879 -0.1023 -0.0602  0.0829
  640MOL0     C88205   5.666   3.691   9.854  0.0902 -0.6476 -0.1273
  640MOL0     O88206   5.723   3.645   9.979 -0.3660 -0.4829 -0.0199
  640MOL0     C88207   5.862   3.656   9.997 -0.0489  0.0744  0.2288
  640MOL0     C88208   5.909   3.613  10.123 -0.6373 -0.5530  0.2767
  640MOL0     C88209   6.048   3.615  10.148 -0.6878 -0.2137 -0.4539
  640MOL0     C88210   6.081   3.583  10.292  0.5283  0.3492  0.2341
  640MOL0     C88211   6.149   3.675  10.069  0.8738  0.0510  0.1839
  640MOL0     C88212   6.292   3.675  10.091  0.7516  0.7322  0.6264
  640MOL0     O88213   6.341   3.577  10.168  0.1075  0.3250 -0.9854
  640MOL0     C88214   6.474   3.573  10.199  0.7707  0.6551  0.1581
  640MOL0     C88215   6.517   3.603  10.331 -0.1724  0.0318  0.0539
  640MOL0     C88216   6.652   3.587  10.351 -0.1937 -0.6954  0.3277
  640MOL0     C88217   6.741   3.554  10.249  0.9010 -0.4518  1.0238
  640MOL0     O88218   6.864   3.525  10.292 -0.3981  0.0909  0.4313
  640MOL0     C88219   6.950   3.638  10.284 -0.4094  0.1959  0.9787
  640MOL0     C88220   7.080   3.573  10.317  0.4157  0.3576 -0.0250
  640MOL0     C88221   7.187   3.679  10.341 -0.4359  0.4030  0.5152
  640MOL0     C88222   7.326   3.615  10.361  0.1575 -0.2868 -0.6798
  640MOL0     C88223   7.427   3.716  10.396 -0.1882  0.9120  0.0055
  640MOL0     C88224   7.569   3.656  10.422  0.5293 -0.5284 -0.4321
  640MOL0     C88225   7.634   3.565  10.308  0.7594 -0.2313  0.6566
  640MOL0     C88226   7.744   3.480  10.364 -0.2913  0.6381 -0.0021
  640MOL0    Cl88227   7.893   3.572  10.414  0.0377 -0.0149  0.6176
  640MOL0     C88228   6.694   3.536  10.122 -0.3577 -0.0747 -0.6646
  640MOL0     C88229   6.559   3.551  10.097 -0.0818 -0.3592 -0.6750
  640MOL0     O88230   6.355   3.755  10.031  1.0691  0.2924 -0.2512
  640MOL0     C88231   6.094   3.711   9.938 -0.1712  0.3917 -0.5813
  640MOL0     C88232   5.959   3.694   9.904 -0.4988 -0.3326 -1.0581
  640MOL0     N88233   5.152   3.753   9.599  0.0568 -0.1809 -0.1899
  640MOL0     N88234   5.118   3.801   9.479 -0.2156  0.2778  0.4578
  640MOL0     C88235   4.538   4.090   8.678  0.6678 -0.4502 -0.0202
  640MOL0     C88236   4.426   4.075   8.590  0.5309  0.5587 -0.1371
  640MOL0     C88237   3.982   4.081   8.454 -0.2729  0.6896 -0.2085
  640MOL0     C88238   3.964   4.201   8.383  0.1746  0.2001 -0.3103
  640MOL0     C88239   3.866   4.221   8.281 -0.5759  0.2803 -0.2944
  640MOL0     C88240   3.785   4.113   8.245  0.0977  0.0291  0.1540
  640MOL0     O88241   3.686   4.141   8.153  0.5156  0.0205 -0.1264
  640MOL0     C88242   3.608   4.041   8.084  0.6070  0.1389  0.6894
  640MOL0     C88243   3.687   4.001   7.957 -0.1491 -0.6843  0.2651
  640MOL0     C88244   3.626   3.875   7.883  0.0036 -0.3688 -0.1101
  640MOL0     C88245   3.625   3.897   7.732  0.3660 -0.0888 -0.1655
  640MOL0     C88246   3.749   3.904   7.653  0.4811 -0.1432 -0.1889
  640MOL0     C88247   3.859   3.915   7.601  0.6272 -0.3086 -0.5322
  640MOL0     C88248   3.796   3.992   8.316 -0.3870  0.1351 -0.1163
  640MOL0     C88249   3.891   3.976   8.417 -0.3092  0.8142 -0.2689
  640MOL0     C88250   3.900   3.840   8.480 -0.4498 -0.1853  0.2081
  640MOL0     H88251   4.220   4.286   8.768 -0.8015 -0.4093 -0.5616
  640MOL0     H88252   4.421   4.336   8.881  0.6362  0.0955  0.6275
  640MOL0     H88253   4.560   4.307   9.025 -1.0727 -1.6136 -1.5928
  640MOL0     H88254   4.653   4.400   8.914 -2.8610 -0.5872 -1.2895
  640MOL0     H88255   4.782   4.370   9.130 -0.5699  1.0181 -1.6895
  640MOL0     H88256   4.773   4.193   9.125  2.6486 -0.8354 -1.0822
  640MOL0     H88257   4.910   4.202   8.930  2.7369  1.6588 -3.6153
  640MOL0     H88258   4.899   4.373   8.907 -0.8099  2.0380  2.0106
  640MOL0     H88259   5.111   4.316   8.983  0.6690 -1.7118  1.2593
  640MOL0     H88260   5.033   4.416   9.114 -0.5365 -0.3937  0.5006
  640MOL0     H88261   5.065   4.113   9.087  0.4989  0.9440 -1.3636
  640MOL0     H88262   4.975   4.198   9.228  1.6988  0.2686  1.7214
  640MOL0     H88263   5.275   4.198   9.159  1.0976 -0.1822  0.5495
  640MOL0     H88264   5.204   4.325   9.252 -1.8947 -1.2381  0.8034
  640MOL0     H88265   5.111   4.155   9.417  1.1295 -2.1706  1.3603
  640MOL0     H88266   5.276   4.165   9.397  0.1411 -0.5173 -0.5545
  640MOL0     H88267   5.083   3.951   9.271  0.4822 -0.0147 -1.6196
  640MOL0     H88268   5.251   3.949   9.241 -0.9009  0.2451  0.3869
  640MOL0     H88269   5.337   4.014   9.568  0.6012 -0.3961  0.3031
  640MOL0     H88270   5.271   3.762   9.843  0.7931  0.0998  1.3217
  640MOL0     H88271   5.314   3.930   9.843  1.3747 -0.6179  0.3609
  640MOL0     H88272   5.480   3.779   9.665  0.9636 -0.3600  0.2915
  640MOL0     H88273   5.504   3.929   9.761 -0.6653  0.6767 -1.7971
  640MOL0     H88274   5.529   3.791   9.976  1.5246  1.3630 -0.7131
  640MOL0     H88275   5.462   3.650   9.881  2.4150 -1.8869 -1.3932
  640MOL0     H88276   5.672   3.612   9.779 -1.6662 -3.3663  2.3889
  640MOL0     H88277   5.721   3.774   9.808  1.6379 -1.6590 -0.1749
  640MOL0     H88278   5.835   3.585  10.197 -2.0310  1.1376 -0.4007
  640MOL0     H88279   6.156   3.654  10.329  0.9467  0.0060  0.0510
  640MOL0     H88280   6.111   3.478  10.298  0.1707  0.0683 -1.9430
  640MOL0     H88281   5.996   3.596  10.359  0.5080 -2.5822  0.8753
  640MOL0     H88282   6.457   3.634  10.416  0.5115  1.3716  0.0732
  640MOL0     H88283   6.698   3.615  10.446  1.2231  1.0807 -0.8021
  640MOL0     H88284   6.946   3.686  10.186  0.9622 -0.0621  0.7811
  640MOL0     H88285   6.921   3.701  10.369 -1.7123  0.0930  0.6437
  640MOL0     H88286   7.067   3.508  10.405  1.9260  1.2497  0.8928
  640MOL0     H88287   7.105   3.510  10.231 -1.1018 -0.0799 -0.1828
  640MOL0     H88288   7.165   3.730  10.436 -0.5355 -1.7208  1.6978
  640MOL0     H88289   7.195   3.753  10.261  0.4477  2.3006  2.2450
  640MOL0     H88290   7.355   3.561  10.271  0.1326  1.1911 -1.6040
  640MOL0     H88291   7.319   3.543  10.443  0.9505 -0.5810 -0.8671
  640MOL0     H88292   7.435   3.786  10.312 -0.8625  0.6581 -0.2785
  640MOL0     H88293   7.400   3.783  10.479 -0.7953  0.4845  0.1599
  640MOL0     H88294   7.563   3.599  10.515  4.2639 -0.9106 -0.2627
  640MOL0     H88295   7.640   3.738  10.438  2.2414 -2.3559  2.1386
  640MOL0     H88296   7.671   3.638  10.236 -0.2628  1.8349  2.1221
  640MOL0     H88297   7.554   3.500  10.270 -1.8267  3.6908 -1.2205
  640MOL0     H88298   7.782   3.417  10.283  1.9919  0.2110  1.3317
  640MOL0     H88299   7.723   3.413  10.447  1.4278 -0.3913 -0.3457
  640MOL0     H88300   6.764   3.516  10.042 -0.2636 -0.8379 -0.3940
  640MOL0     H88301   6.534   3.559   9.991  2.3139 -2.0623 -1.4481
  640MOL0     H88302   6.156   3.730   9.851  0.4137  0.0705 -0.2399
  640MOL0     H88303   5.923   3.701   9.802  1.0270 -0.6569 -1.6318
  640MOL0     H88304   4.626   4.027   8.681 -0.5944 -2.3008 -0.5593
  640MOL0     H88305   4.415   4.011   8.504 -1.8877  0.9364 -0.1548
  640MOL0     H88306   4.030   4.286   8.399 -0.3413  0.4487  0.5579
  640MOL0     H88307   3.858   4.315   8.227  1.8825  0.8201  0.1484
  640MOL0     H88308   3.580   3.958   8.149 -1.8838  1.4776  1.4531
  640MOL0     H88309   3.516   4.087   8.049  1.3139  2.7212  1.9667
  640MOL0     H88310   3.791   3.973   7.978  0.0718  0.1133  0.2524
  640MOL0     H88311   3.684   4.090   7.893  0.3301  1.3492  2.8798
  640MOL0     H88312   3.686   3.792   7.922  0.8434  0.9868  1.6112
  640MOL0     H88313   3.520   3.857   7.904 -0.5424 -1.1539 -3.0026
  640MOL0     H88314   3.581   3.996   7.723 -0.3663 -0.3512  0.4645
  640MOL0     H88315   3.557   3.825   7.685 -1.1570  1.2545 -0.0736
  640MOL0     H88316   3.955   3.943   7.562  0.5525 -0.4668 -0.8300
  640MOL0     H88317   3.720   3.917   8.295 -2.0409  1.4816  0.7911
  640MOL0     H88318   3.992   3.790   8.447  0.6196  2.7831 -1.7569
  640MOL0     H88319   3.886   3.849   8.588  0.1082 -3.9096  0.7227
  640MOL0     H88320   3.819   3.771   8.453 -0.9884 -0.2425  1.8362
  641MOL0     O88321   5.008   1.075   4.806  0.1730 -0.1467  0.4940
  641MOL0     C88322   4.921   0.989   4.794 -0.2393  0.4560 -0.0944
  641MOL0     O88323   4.801   1.002   4.749  0.5765 -0.4597  0.0067
  641MOL0     C88324   4.735   1.120   4.707 -0.6905 -0.7484  0.3361
  641MOL0     C88325   4.705   1.139   4.568  0.0489  0.7874  0.0133
  641MOL0     C88326   4.644   1.260   4.528 -0.0116  0.4922  0.0758
  641MOL0     C88327   4.608   1.357   4.620  0.1844 -0.2785  0.0476
  641MOL0     O88328   4.576   1.477   4.556 -0.5596 -0.4313  0.2462
  641MOL0     C88329   4.561   1.602   4.632  0.0423  0.3213  0.0449
  641MOL0     C88330   4.697   1.672   4.660 -0.2227  0.3345  0.0253
  641MOL0     C88331   4.691   1.804   4.745  0.2350 -0.7661  0.3987
  641MOL0     C88332   4.828   1.864   4.779 -0.3319 -0.2902  0.1351
  641MOL0     C88333   4.809   1.993   4.867  0.3811 -0.1466  0.8270
  641MOL0     C88334   4.748   2.113   4.803 -0.2966  0.2772  0.6346
  641MOL0     C88335   4.720   2.220   4.901 -0.0605 -0.1657  0.6459
  641MOL0     C88336   4.670   2.349   4.831 -0.4617  0.2230 -0.3693
  641MOL0     N88337   4.742   2.391   4.708  0.5523  0.0330 -1.1633
  641MOL0     C88338   4.853   2.466   4.707 -1.0335  0.2741 -0.9418
  641MOL0     C88339   4.898   2.460   4.579  0.9038 -0.8895  0.4676
  641MOL0     C88340   5.028   2.523   4.527 -0.5460  0.3965 -0.6145
  641MOL0     C88341   5.070   2.435   4.409 -0.3878 -0.3384  0.4234
  641MOL0     C88342   5.174   2.507   4.323 -0.8161  0.2170  1.1261
  641MOL0     C88343   5.160   2.470   4.178 -0.8576  1.1028  0.3947
  641MOL0     O88344   5.275   2.516   4.097  0.0941  0.4490  0.1735
  641MOL0     C88345   5.380   2.430   4.083  0.0515  0.5887 -0.4388
  641MOL0     C88346   5.460   2.436   3.974 -0.2957 -0.8920 -0.2330
  641MOL0     C88347   5.570   2.356   3.951 -0.7951 -0.2828 -0.2816
  641MOL0     C88348   5.652   2.375   3.824 -0.3930 -0.1341 -0.3889
  641MOL0     C88349   5.605   2.254   4.055 -0.1555 -0.3394 -0.1825
  641MOL0     C88350   5.714   2.158   4.037  0.5072 -0.7109 -0.5078
  641MOL0     O88351   5.747   2.096   4.148 -0.5381  0.3204  0.0464
  641MOL0     C88352   5.854   2.011   4.161  0.1742  0.1193 -0.7498
  641MOL0     C88353   5.856   1.906   4.253 -0.9084  0.0923 -0.6145
  641MOL0     C88354   5.968   1.829   4.281  0.2582 -0.9245 -0.2946
  641MOL0     C88355   6.090   1.842   4.214  0.1840 -0.0902  0.1238
  641MOL0     O88356   6.192   1.760   4.253 -0.4401  0.0975 -0.1383
  641MOL0     C88357   6.281   1.715   4.146  0.5603 -0.7821 -0.2467
  641MOL0     C88358   6.396   1.637   4.209  0.7826 -0.5172  0.9894
  641MOL0     C88359   6.481   1.547   4.113 -0.3672 -0.0273  0.6812
  641MOL0     C88360   6.583   1.470   4.203 -0.4901  0.2503 -0.3228
  641MOL0     C88361   6.671   1.367   4.130 -0.6162  0.2601 -0.3731
  641MOL0     C88362   6.764   1.446   4.033 -0.7502 -0.1915 -1.1422
  641MOL0     C88363   6.867   1.350   3.981 -0.1300  1.1644 -0.0694
  641MOL0     C88364   6.979   1.313   4.093 -0.3526 -0.2272 -0.1674
  641MOL0    Cl88365   7.084   1.215   4.008 -0.0495 -0.1605 -0.4651
  641MOL0     C88366   6.096   1.944   4.120  0.5039 -0.1597  0.1369
  641MOL0     C88367   5.979   2.030   4.100 -0.5657 -0.4958 -0.5724
  641MOL0     O88368   5.755   2.129   3.927  0.1998  0.6269  0.3281
  641MOL0     C88369   5.526   2.244   4.164  1.2596 -0.6261  0.0744
  641MOL0     C88370   5.410   2.326   4.171  0.5458  0.2241  0.0513
  641MOL0     N88371   4.804   2.396   4.498 -0.0174  0.6458  0.6926
  641MOL0     N88372   4.713   2.355   4.582  0.2660 -0.3974  0.4122
  641MOL0     C88373   4.638   1.338   4.755  0.0191 -0.7006  0.2877
  641MOL0     C88374   4.695   1.219   4.796  0.4907 -0.4363  0.2881
  641MOL0     C88375   4.956   0.851   4.838 -0.8071  0.2656  0.2354
  641MOL0     C88376   5.087   0.826   4.863 -0.1424 -0.0664 -0.6415
  641MOL0     C88377   5.140   0.698   4.887 -0.4666 -0.0182 -0.2586
  641MOL0     C88378   5.058   0.588   4.912 -0.7068 -0.1081 -0.0626
  641MOL0     O88379   5.102   0.468   4.961  1.0413 -0.1910  0.2666
  641MOL0     C88380   5.239   0.431   4.948  0.8491  0.5307  0.3445
  641MOL0     C88381   5.300   0.467   5.086 -0.1958 -0.4126  0.4618
  641MOL0     C88382   5.435   0.386   5.102  0.7552  0.3587  0.0707
  641MOL0     C88383   5.523   0.430   5.215 -0.4873 -0.0067  0.9357
  641MOL0     C88384   5.472   0.531   5.310 -1.2709 -0.3289  0.4608
  641MOL0     C88385   5.412   0.587   5.405  0.7734  0.1212  0.3012
  641MOL0     C88386   4.918   0.613   4.900 -0.3357  0.1893  0.1327
  641MOL0     C88387   4.868   0.743   4.860 -0.2002  0.2924 -0.0255
  641MOL0     C88388   4.721   0.749   4.830 -0.3065  0.2355  0.5770
  641MOL0     H88389   4.726   1.059   4.498 -2.2024  0.1387 -0.0006
  641MOL0     H88390   4.616   1.276   4.424  2.2919 -2.1150 -1.0794
  641MOL0     H88391   4.516   1.577   4.728 -1.9942  1.8123 -0.4423
  641MOL0     H88392   4.489   1.663   4.576 -0.5041 -2.1157 -2.1460
  641MOL0     H88393   4.748   1.595   4.718  1.0419 -0.3371 -1.8905
  641MOL0     H88394   4.752   1.688   4.567 -0.4376 -3.6745 -0.9982
  641MOL0     H88395   4.630   1.877   4.691  0.6546 -1.8969 -1.7210
  641MOL0     H88396   4.620   1.788   4.827 -0.7515 -0.0725 -0.3000
  641MOL0     H88397   4.884   1.799   4.847 -0.5831 -1.0525 -0.3641
  641MOL0     H88398   4.892   1.874   4.691  1.3740 -0.1474  1.3454
  641MOL0     H88399   4.909   2.014   4.904  1.0291  0.1028 -0.9813
  641MOL0     H88400   4.741   1.969   4.949 -0.0558 -0.3758  0.4053
  641MOL0     H88401   4.819   2.165   4.738 -0.1710 -1.4207 -0.6384
  641MOL0     H88402   4.655   2.090   4.750 -0.4142  1.2155  0.4046
  641MOL0     H88403   4.817   2.243   4.945 -0.2455 -0.1461  1.0447
  641MOL0     H88404   4.644   2.183   4.971  0.8237  0.4612  1.9664
  641MOL0     H88405   4.564   2.337   4.806 -1.7112  2.2731  3.2244
  641MOL0     H88406   4.679   2.425   4.909 -0.1521 -0.9551  0.7746
  641MOL0     H88407   4.898   2.519   4.790 -3.6359  1.7776 -0.3955
  641MOL0     H88408   5.104   2.533   4.604  3.3000 -4.3580 -3.2434
  641MOL0     H88409   4.994   2.620   4.490  0.6371  0.3742 -1.7981
  641MOL0     H88410   5.117   2.339   4.431 -2.1900 -0.9474  1.8512
  641MOL0     H88411   4.984   2.410   4.347  0.3581 -0.7945 -0.4487
  641MOL0     H88412   5.169   2.614   4.344  1.0945 -0.2177  4.7078
  641MOL0     H88413   5.277   2.490   4.356 -0.6363  0.6290  0.7886
  641MOL0     H88414   5.135   2.365   4.158  2.7042  0.1409  0.2124
  641MOL0     H88415   5.080   2.534   4.141 -0.2068  2.1935  0.8348
  641MOL0     H88416   5.439   2.512   3.900  3.3399  1.1519  0.5885
  641MOL0     H88417   5.758   2.372   3.852 -0.4096 -2.0663 -0.4504
  641MOL0     H88418   5.630   2.471   3.775  1.7418  0.2261 -0.7295
  641MOL0     H88419   5.626   2.298   3.752  1.0189 -0.0550 -1.0209
  641MOL0     H88420   5.767   1.874   4.307 -0.3767  0.2927  0.4185
  641MOL0     H88421   5.955   1.745   4.349  0.0642 -0.5703  0.1133
  641MOL0     H88422   6.226   1.639   4.091 -1.0850  0.2371 -0.0792
  641MOL0     H88423   6.314   1.806   4.095 -0.3554  1.3885  2.7451
  641MOL0     H88424   6.465   1.712   4.248 -0.6491  1.8688 -0.7794
  641MOL0     H88425   6.351   1.575   4.287 -0.9885 -0.2705  0.2148
  641MOL0     H88426   6.529   1.610   4.037 -2.8860 -1.3416 -2.2160
  641MOL0     H88427   6.417   1.471   4.068 -0.5150 -1.9492  3.8392
  641MOL0     H88428   6.523   1.426   4.283 -1.0411 -0.6842 -1.2207
  641MOL0     H88429   6.649   1.537   4.259 -0.5085 -0.0334  0.0395
  641MOL0     H88430   6.726   1.311   4.206  0.8491  2.2236  0.0787
  641MOL0     H88431   6.599   1.297   4.086 -2.6928  0.2954  2.6629
  641MOL0     H88432   6.817   1.521   4.092 -1.1355 -0.0363 -0.9873
  641MOL0     H88433   6.714   1.490   3.947 -1.8551 -2.4383 -1.7270
  641MOL0     H88434   6.910   1.395   3.891  1.2542  1.2431  0.6081
  641MOL0     H88435   6.822   1.255   3.951 -0.9431  0.8624  1.9256
  641MOL0     H88436   6.935   1.261   4.178  0.3831  0.1947  0.4765
  641MOL0     H88437   7.035   1.393   4.142  1.7399 -2.4481  1.2902
  641MOL0     H88438   6.185   1.973   4.064  0.4968  0.7730  0.5847
  641MOL0     H88439   5.999   2.125   4.051  2.7841  0.9296  3.0268
  641MOL0     H88440   5.535   2.161   4.234 -1.9263 -0.4399  0.8754
  641MOL0     H88441   5.341   2.299   4.251  1.7666  1.8786  1.7693
  641MOL0     H88442   4.625   1.424   4.820 -1.0867  0.4336 -1.3610
  641MOL0     H88443   4.722   1.212   4.901  3.7068  0.3693 -0.3649
  641MOL0     H88444   5.168   0.898   4.864  0.7853 -1.0719 -1.1146
  641MOL0     H88445   5.247   0.687   4.893 -0.5685 -0.1097  2.6052
  641MOL0     H88446   5.246   0.323   4.930 -0.6937  0.5576 -0.5465
  641MOL0     H88447   5.279   0.487   4.863 -1.2103 -2.1557 -2.5934
  641MOL0     H88448   5.246   0.443   5.178  1.1406  1.5971  1.8785
  641MOL0     H88449   5.324   0.574   5.094 -1.6907 -0.1459  2.1889
  641MOL0     H88450   5.417   0.279   5.105  1.8309  0.0668 -1.8523
  641MOL0     H88451   5.490   0.387   5.007  0.2985 -3.6161 -0.3731
  641MOL0     H88452   5.618   0.470   5.177 -1.4897  0.8486 -0.7770
  641MOL0     H88453   5.537   0.342   5.278 -2.8476 -2.0310 -1.1269
  641MOL0     H88454   5.357   0.632   5.486 -0.9629 -2.6133  0.7981
  641MOL0     H88455   4.850   0.533   4.925 -1.2874  1.6834  2.7370
  641MOL0     H88456   4.672   0.671   4.889  0.2024  0.1074  0.8356
  641MOL0     H88457   4.676   0.841   4.867 -2.0945 -0.8225  1.1560
  641MOL0     H88458   4.705   0.729   4.724 -1.4964 -3.7809  1.3474
  642MOL0     O88459   4.029   6.158   3.340 -0.0923 -0.3216  0.0037
  642MOL0     C88460   3.959   6.249   3.393 -0.2662  0.6263 -0.8361
  642MOL0     O88461   3.949   6.369   3.344  0.2786  0.0176  0.7237
  642MOL0     C88462   4.017   6.413   3.229  0.6264  1.2560 -0.3004
  642MOL0     C88463   4.027   6.345   3.110  0.1742 -0.3245  0.4255
  642MOL0     C88464   4.080   6.412   2.997 -0.1181 -0.4922  0.4688
  642MOL0     C88465   4.135   6.540   3.013 -0.0758 -0.4652 -0.2037
  642MOL0     O88466   4.202   6.612   2.916  0.1496  0.3276  0.4617
  642MOL0     C88467   4.227   6.554   2.788 -0.4381  0.4108  0.1753
  642MOL0     C88468   4.275   6.664   2.688 -0.5959 -0.4045  0.5729
  642MOL0     C88469   4.423   6.714   2.705  0.3592  0.2384 -0.0887
  642MOL0     C88470   4.437   6.854   2.650 -0.3770 -0.1044  1.1282
  642MOL0     C88471   4.540   6.934   2.723  0.5308 -0.2074  0.3478
  642MOL0     C88472   4.562   7.078   2.671 -0.4720  0.5571  0.1832
  642MOL0     C88473   4.701   7.124   2.718 -0.2493 -0.8294  0.2409
  642MOL0     C88474   4.722   7.279   2.687 -0.1234  0.1746  0.4110
  642MOL0     N88475   4.758   7.314   2.550 -0.7398  0.1853  0.3643
  642MOL0     C88476   4.842   7.239   2.476  0.2930  1.1198  0.6378
  642MOL0     C88477   4.834   7.280   2.349 -0.4344  0.4073 -0.5071
  642MOL0     C88478   4.902   7.235   2.223 -0.0453 -0.2882  0.8524
  642MOL0     C88479   4.990   7.113   2.239  0.3198  0.0889 -1.3329
  642MOL0     C88480   5.073   7.064   2.124 -0.2059 -0.3511 -0.6033
  642MOL0     C88481   5.185   7.166   2.092  0.5970  0.8013  0.2514
  642MOL0     O88482   5.272   7.180   2.211  0.6044  0.3123  0.4309
  642MOL0     C88483   5.396   7.240   2.188 -0.5417  1.1091 -0.1400
  642MOL0     C88484   5.484   7.246   2.299 -0.2068 -0.2141 -0.3994
  642MOL0     C88485   5.607   7.321   2.301  0.3671  1.5229 -0.2405
  642MOL0     C88486   5.685   7.329   2.431 -0.6399 -0.6946  1.3528
  642MOL0     C88487   5.649   7.367   2.174 -0.2747 -1.5665  0.1918
  642MOL0     C88488   5.763   7.457   2.150 -0.4299  0.2797  0.6326
  642MOL0     O88489   5.878   7.434   2.231 -0.1660 -0.4174  0.4067
  642MOL0     C88490   5.995   7.490   2.187 -0.5362 -0.1625  0.5929
  642MOL0     C88491   6.047   7.592   2.254 -0.2372 -0.0136  0.5106
  642MOL0     C88492   6.165   7.665   2.214 -0.1968 -0.1132  0.0317
  642MOL0     C88493   6.228   7.624   2.092  0.1846  0.4279  0.1564
  642MOL0     O88494   6.344   7.694   2.052 -0.0445 -0.0292 -0.8322
  642MOL0     C88495   6.467   7.639   2.102  0.1810 -0.2089 -0.1838
  642MOL0     C88496   6.596   7.682   2.030  0.2306 -0.7305 -0.1701
  642MOL0     C88497   6.600   7.836   2.048  0.2468  0.2881 -0.1391
  642MOL0     C88498   6.701   7.898   1.950  0.5782 -0.5078  0.8866
  642MOL0     C88499   6.847   7.876   1.985  0.0896  0.1384 -0.2637
  642MOL0     C88500   6.945   7.910   1.871 -0.0185  0.1978 -0.2682
  642MOL0     C88501   7.081   7.867   1.915 -0.6418  0.0947  1.1234
  642MOL0     C88502   7.179   7.878   1.801  0.1366 -0.4749 -1.6301
  642MOL0    Cl88503   7.159   7.761   1.663 -0.2967  0.0555 -0.0987
  642MOL0     C88504   6.170   7.523   2.014 -0.2597 -0.3944 -0.6862
  642MOL0     C88505   6.053   7.450   2.062  0.4225 -0.5744 -0.2391
  642MOL0     O88506   5.757   7.533   2.049  0.3161  0.2383  0.9710
  642MOL0     C88507   5.558   7.364   2.065 -0.4162  0.1570 -0.4141
  642MOL0     C88508   5.441   7.302   2.075  0.7484 -0.5802  1.0908
  642MOL0     N88509   4.744   7.382   2.356  0.1192 -1.2557  0.1828
  642MOL0     N88510   4.704   7.410   2.475 -0.5829 -0.6142  0.0007
  642MOL0     C88511   4.118   6.603   3.130  0.0163 -0.5984 -0.8434
  642MOL0     C88512   4.063   6.541   3.241  0.1167  0.4141 -0.4068
  642MOL0     C88513   3.878   6.201   3.515  0.4590 -0.4408 -0.0295
  642MOL0     C88514   3.773   6.287   3.554 -0.5204  0.8445  0.3676
  642MOL0     C88515   3.684   6.250   3.646  0.2900 -0.0784  0.9537
  642MOL0     C88516   3.687   6.129   3.710 -0.1382  0.5972  0.2976
  642MOL0     O88517   3.586   6.110   3.800 -0.5008  0.1584 -0.4226
  642MOL0     C88518   3.578   5.995   3.885  0.1029 -0.7370  0.2223
  642MOL0     C88519   3.677   6.006   4.000  0.1214  0.1112  0.6451
  642MOL0     C88520   3.654   6.131   4.080 -1.0287 -0.3094  1.0589
  642MOL0     C88521   3.699   6.119   4.220  0.6226 -0.3606  0.5450
  642MOL0     C88522   3.846   6.118   4.215  0.0452  0.3363 -0.2895
  642MOL0     C88523   3.963   6.101   4.201 -0.5924  0.0279  0.7700
  642MOL0     C88524   3.794   6.046   3.679 -0.3442  0.2536 -0.3921
  642MOL0     C88525   3.885   6.081   3.577 -1.0202 -0.0911  1.0160
  642MOL0     C88526   3.984   5.971   3.539  0.1073 -0.1576 -0.1499
  642MOL0     H88527   3.987   6.244   3.107 -1.3731  0.2352  0.9279
  642MOL0     H88528   4.085   6.359   2.903  0.6086  1.4772 -0.6575
  642MOL0     H88529   4.132   6.525   2.742  0.5328 -0.8502 -1.0893
  642MOL0     H88530   4.283   6.460   2.790 -0.8784  0.1336  1.8898
  642MOL0     H88531   4.278   6.622   2.587 -0.1573 -0.7414  0.7245
  642MOL0     H88532   4.200   6.740   2.713 -1.7014 -1.5777  0.8909
  642MOL0     H88533   4.445   6.727   2.811 -0.4778  1.8811 -0.0840
  642MOL0     H88534   4.486   6.639   2.656 -1.7158 -0.8879 -1.1963
  642MOL0     H88535   4.448   6.853   2.541 -2.5655 -1.2663  0.8698
  642MOL0     H88536   4.343   6.903   2.676  1.1141  2.3172  2.3523
  642MOL0     H88537   4.631   6.873   2.730  0.7612 -0.2551 -2.1253
  642MOL0     H88538   4.503   6.947   2.825 -0.5713  1.6360 -0.2442
  642MOL0     H88539   4.558   7.083   2.561 -0.5309  0.3339  0.1752
  642MOL0     H88540   4.482   7.143   2.705  2.6610  3.7743  2.1318
  642MOL0     H88541   4.778   7.064   2.670  1.0313 -1.7531  3.2107
  642MOL0     H88542   4.705   7.109   2.827 -0.8157 -1.0153  0.2378
  642MOL0     H88543   4.636   7.335   2.725 -0.0112 -0.2349  1.2846
  642MOL0     H88544   4.805   7.322   2.744 -1.7774  0.0550  3.1018
  642MOL0     H88545   4.901   7.153   2.507  0.8913  1.1812 -0.2938
  642MOL0     H88546   4.964   7.314   2.179  1.2691 -1.3115  0.7927
  642MOL0     H88547   4.825   7.212   2.149 -0.7979  1.1352  1.1525
  642MOL0     H88548   5.061   7.130   2.320 -1.2731  0.3441  0.0699
  642MOL0     H88549   4.918   7.036   2.268  0.2326  0.4424 -0.6003
  642MOL0     H88550   5.109   6.965   2.153 -1.1445 -0.3994  0.4724
  642MOL0     H88551   5.000   7.044   2.046  0.2561  1.2899 -1.5068
  642MOL0     H88552   5.238   7.122   2.007 -3.1451 -1.0258 -1.3683
  642MOL0     H88553   5.141   7.260   2.056 -2.0883 -1.0783 -1.8732
  642MOL0     H88554   5.448   7.212   2.396  1.5035  1.7495  1.0020
  642MOL0     H88555   5.622   7.302   2.516 -0.5477 -0.9596  1.3381
  642MOL0     H88556   5.712   7.435   2.437 -0.3501 -0.5823 -0.8804
  642MOL0     H88557   5.771   7.262   2.430 -0.8923 -1.1592 -1.9153
  642MOL0     H88558   6.003   7.610   2.351 -2.5917  0.6929 -0.6045
  642MOL0     H88559   6.200   7.746   2.277  1.5148 -0.1421 -0.8299
  642MOL0     H88560   6.475   7.654   2.210 -0.7503  0.8839 -0.2552
  642MOL0     H88561   6.470   7.530   2.093 -0.6319 -0.1698 -0.9711
  642MOL0     H88562   6.678   7.618   2.062  1.1302  0.8960  0.8749
  642MOL0     H88563   6.578   7.662   1.924 -2.0615  0.7617 -0.1451
  642MOL0     H88564   6.632   7.861   2.149  0.9606  0.0675 -0.3059
  642MOL0     H88565   6.500   7.869   2.018 -0.7616 -2.2017  0.3311
  642MOL0     H88566   6.678   8.005   1.956  1.1877 -0.3710  0.7919
  642MOL0     H88567   6.689   7.860   1.848 -0.3398  1.8624  0.0283
  642MOL0     H88568   6.886   7.913   2.080  0.7303 -0.5514 -0.2506
  642MOL0     H88569   6.852   7.769   2.004  0.0919  0.4047  1.3861
  642MOL0     H88570   6.955   8.019   1.861  1.8918 -0.0870 -1.7762
  642MOL0     H88571   6.903   7.869   1.779 -3.3854 -0.5381  1.4397
  642MOL0     H88572   7.085   7.764   1.951 -1.8359 -0.0572  0.8644
  642MOL0     H88573   7.129   7.928   1.992  0.7499  0.0188  0.3551
  642MOL0     H88574   7.271   7.855   1.857 -0.5103  1.7292  0.5500
  642MOL0     H88575   7.195   7.978   1.759  2.7277 -0.1187 -0.0261
  642MOL0     H88576   6.211   7.514   1.914  1.0727 -0.1355 -0.1823
  642MOL0     H88577   5.998   7.383   1.997 -2.4957 -0.2713  1.7354
  642MOL0     H88578   5.586   7.400   1.967  0.8370  0.7411  0.1349
  642MOL0     H88579   5.375   7.303   1.989  1.5162  0.0404  0.4862
  642MOL0     H88580   4.142   6.709   3.140 -0.2160 -0.6909  1.3193
  642MOL0     H88581   4.071   6.584   3.341 -0.0855 -2.1223  0.7666
  642MOL0     H88582   3.766   6.387   3.512  0.6682  0.4880 -0.7614
  642MOL0     H88583   3.600   6.316   3.665  0.0978 -0.2521  0.7143
  642MOL0     H88584   3.475   5.987   3.921 -0.8673 -2.3295 -2.5768
  642MOL0     H88585   3.596   5.902   3.829 -3.6843 -1.6393  0.2265
  642MOL0     H88586   3.774   5.989   3.951 -0.5559  0.0529 -0.7449
  642MOL0     H88587   3.655   5.917   4.060 -1.4599 -0.2501 -0.4020
  642MOL0     H88588   3.704   6.220   4.041  2.5130 -1.9657  1.4911
  642MOL0     H88589   3.544   6.137   4.083 -1.1254 -0.7186 -0.7212
  642MOL0     H88590   3.651   6.030   4.263 -1.2644 -1.2627 -3.0270
  642MOL0     H88591   3.672   6.209   4.276  1.6621  0.3747 -0.0997
  642MOL0     H88592   4.065   6.078   4.179 -0.9330  0.1997 -1.2575
  642MOL0     H88593   3.807   5.949   3.725 -0.4899  1.4400  2.3279
  642MOL0     H88594   3.954   5.918   3.449  1.7455 -1.3562 -0.0342
  642MOL0     H88595   4.083   6.019   3.536  0.3295  0.2952  4.7926
  642MOL0     H88596   3.993   5.888   3.610 -1.5330  1.1432  1.6822
  643MOL0     O88597   4.124   4.854   2.669  0.0235  0.2431 -0.2240
  643MOL0     C88598   4.088   4.960   2.612 -0.4389  0.2057 -0.1692
  643MOL0     O88599   4.173   5.059   2.571 -0.0828 -0.4295  0.4345
  643MOL0     C88600   4.315   5.048   2.572  0.5233 -0.5341 -0.4114
  643MOL0     C88601   4.390   5.150   2.615 -0.1586 -0.5993  0.4510
  643MOL0     C88602   4.535   5.136   2.615  0.7442  0.3431 -0.7333
  643MOL0     C88603   4.594   5.039   2.537  0.4253  0.4532 -0.1458
  643MOL0     O88604   4.729   5.021   2.526 -0.0636 -0.4067  0.8545
  643MOL0     C88605   4.811   5.014   2.642  1.1012 -0.2311 -0.0529
  643MOL0     C88606   4.758   4.911   2.746 -0.1032  0.0686 -0.3244
  643MOL0     C88607   4.873   4.892   2.857 -0.3098  0.0664  0.3568
  643MOL0     C88608   4.832   4.795   2.975  0.0936 -0.1344  0.7609
  643MOL0     C88609   4.946   4.776   3.076  0.4784  0.4508  0.3531
  643MOL0     C88610   4.978   4.914   3.151  0.0384  0.0567  0.3133
  643MOL0     C88611   5.118   4.916   3.217  1.0218 -0.5781  0.4378
  643MOL0     C88612   5.151   5.056   3.270  0.5830 -0.5223 -1.0144
  643MOL0     N88613   5.287   5.065   3.317 -0.5000 -0.0969  0.0854
  643MOL0     C88614   5.339   5.020   3.437 -0.4286  0.5291  0.2866
  643MOL0     C88615   5.465   5.080   3.443 -0.6675 -1.0757 -0.3960
  643MOL0     C88616   5.566   5.053   3.545  0.5919  0.9267  0.1881
  643MOL0     C88617   5.596   5.171   3.630 -0.0703  0.1917 -1.2356
  643MOL0     C88618   5.700   5.266   3.563 -0.8390 -0.9427  0.0212
  643MOL0     C88619   5.840   5.209   3.537  0.1041  0.3915 -1.1914
  643MOL0     O88620   5.897   5.168   3.663  0.1827  0.2674  0.3090
  643MOL0     C88621   6.031   5.133   3.666  0.2820  0.8194  0.7687
  643MOL0     C88622   6.094   5.126   3.794 -0.4694  0.1138  0.4647
  643MOL0     C88623   6.231   5.097   3.801  0.3279  0.0929  0.0841
  643MOL0     C88624   6.297   5.102   3.931 -0.1898 -0.9301 -0.3862
  643MOL0     C88625   6.302   5.065   3.680  0.1006 -0.7796 -0.0043
  643MOL0     C88626   6.440   5.009   3.676 -0.7059 -0.4840  0.0349
  643MOL0     O88627   6.536   5.037   3.775 -0.3151 -0.6646  0.6071
  643MOL0     C88628   6.652   4.972   3.752 -0.2704  0.3028  0.8197
  643MOL0     C88629   6.676   4.857   3.815 -0.1692  0.2706 -0.3924
  643MOL0     C88630   6.805   4.807   3.821  0.9624 -0.2321  0.2290
  643MOL0     C88631   6.903   4.864   3.748 -0.6468 -0.7676 -0.1037
  643MOL0     O88632   7.039   4.843   3.760 -0.0511  0.1239 -0.0098
  643MOL0     C88633   7.087   4.727   3.833  0.4915  0.3891 -0.5266
  643MOL0     C88634   7.222   4.748   3.895 -0.5619  0.3017  0.2714
  643MOL0     C88635   7.317   4.806   3.787 -0.3519 -0.6312 -0.4922
  643MOL0     C88636   7.469   4.823   3.825 -0.6499  0.4129  0.1087
  643MOL0     C88637   7.558   4.706   3.860 -0.3036 -0.1720  0.3449
  643MOL0     C88638   7.546   4.590   3.759 -0.1727 -0.7344 -0.3670
  643MOL0     C88639   7.677   4.498   3.781  0.1942  0.6097  0.3228
  643MOL0     C88640   7.664   4.363   3.705  0.1082  0.0168 -0.7318
  643MOL0    Cl88641   7.686   4.385   3.532  0.5240 -0.2174  0.1735
  643MOL0     C88642   6.877   4.980   3.675  0.2550  0.2146  0.0473
  643MOL0     C88643   6.749   5.036   3.682 -0.8442  0.2311 -0.5734
  643MOL0     O88644   6.452   4.926   3.583 -0.4677 -0.3841 -0.5308
  643MOL0     C88645   6.223   5.063   3.559 -0.9349  0.6461 -0.5301
  643MOL0     C88646   6.096   5.102   3.553  0.1990 -0.2054 -0.5978
  643MOL0     N88647   5.489   5.133   3.318 -0.8945  0.2859 -0.9524
  643MOL0     N88648   5.378   5.130   3.252  0.2755  0.1551 -0.0116
  643MOL0     C88649   4.518   4.947   2.470 -0.1084  0.4541  0.3333
  643MOL0     C88650   4.376   4.950   2.489 -0.6662 -0.1157  0.0811
  643MOL0     C88651   3.947   4.982   2.604  0.2095  0.3562 -0.5133
  643MOL0     C88652   3.900   5.112   2.570 -1.0034  0.0187  0.4874
  643MOL0     C88653   3.770   5.148   2.560  0.5380  0.1604 -0.5320
  643MOL0     C88654   3.664   5.051   2.575  0.8237 -0.4306 -0.4727
  643MOL0     O88655   3.526   5.076   2.568 -0.7998  0.5071 -0.5862
  643MOL0     C88656   3.480   5.198   2.633 -0.5853  0.1974 -0.3500
  643MOL0     C88657   3.346   5.151   2.690  0.1588 -0.1307 -0.2725
  643MOL0     C88658   3.270   5.265   2.754  0.3546 -0.3721 -0.2914
  643MOL0     C88659   3.334   5.292   2.894  0.0891 -0.4203 -0.4539
  643MOL0     C88660   3.295   5.423   2.950 -0.0451  0.1359  0.4157
  643MOL0     C88661   3.248   5.524   3.001 -0.3285  0.2760  0.5153
  643MOL0     C88662   3.705   4.919   2.596  0.5654  0.2655  0.1795
  643MOL0     C88663   3.841   4.883   2.616 -0.5897  0.1242 -1.3122
  643MOL0     C88664   3.875   4.738   2.645 -0.4977 -0.3001 -0.1132
  643MOL0     H88665   4.348   5.235   2.668  1.2093 -0.4698  1.3846
  643MOL0     H88666   4.584   5.216   2.670 -0.1165  2.6099 -3.0274
  643MOL0     H88667   4.839   5.107   2.692 -1.8066 -0.2818  1.9329
  643MOL0     H88668   4.906   4.982   2.599  0.7933  2.3735 -3.0255
  643MOL0     H88669   4.671   4.950   2.800 -0.2785  2.2550 -2.0603
  643MOL0     H88670   4.740   4.820   2.689 -1.0706  0.6102 -0.9112
  643MOL0     H88671   4.954   4.839   2.806 -0.3219  0.9345 -0.6116
  643MOL0     H88672   4.910   4.993   2.880  0.8477 -0.4845  0.9464
  643MOL0     H88673   4.738   4.828   3.021 -0.8732 -1.2038 -0.3911
  643MOL0     H88674   4.801   4.697   2.938 -1.5740 -0.2311  2.2496
  643MOL0     H88675   5.035   4.744   3.020  1.8048  0.5677  2.2826
  643MOL0     H88676   4.922   4.703   3.154  1.6514 -0.1342  0.1937
  643MOL0     H88677   4.972   5.000   3.084  2.5157  2.3938  2.8390
  643MOL0     H88678   4.897   4.924   3.224 -2.2729 -0.5378 -2.0223
  643MOL0     H88679   5.193   4.875   3.149 -1.6503 -1.1535 -2.3959
  643MOL0     H88680   5.093   4.848   3.300 -1.3524 -0.2469  0.0827
  643MOL0     H88681   5.141   5.123   3.185  0.0780 -1.3203 -1.5969
  643MOL0     H88682   5.091   5.082   3.357 -1.4226 -3.1679 -1.4853
  643MOL0     H88683   5.281   4.963   3.510 -0.1885 -1.9355 -1.3290
  643MOL0     H88684   5.653   5.007   3.497 -0.7962 -1.8788  0.1249
  643MOL0     H88685   5.528   4.972   3.608  4.4465 -4.2808 -3.3815
  643MOL0     H88686   5.500   5.217   3.656 -0.3750 -1.4701  0.8190
  643MOL0     H88687   5.646   5.148   3.724  0.0772  2.4388 -0.6903
  643MOL0     H88688   5.657   5.303   3.470 -0.3705 -1.3404 -0.3567
  643MOL0     H88689   5.715   5.350   3.632 -0.5266  0.2624 -1.4536
  643MOL0     H88690   5.833   5.130   3.462 -0.5890  0.1346 -0.8654
  643MOL0     H88691   5.904   5.287   3.493 -0.2582  1.0259 -0.6146
  643MOL0     H88692   6.035   5.164   3.877  1.7082  0.6921  1.8123
  643MOL0     H88693   6.368   5.185   3.920 -1.8082  0.7030  0.8916
  643MOL0     H88694   6.343   5.008   3.961  1.5002 -0.2123 -0.6487
  643MOL0     H88695   6.232   5.137   4.012  1.4235  1.5243 -0.0333
  643MOL0     H88696   6.605   4.808   3.881  3.0413 -1.3357  2.1698
  643MOL0     H88697   6.820   4.727   3.893  4.8890 -1.7292 -1.9201
  643MOL0     H88698   7.015   4.692   3.908  1.5238  0.9082  0.7462
  643MOL0     H88699   7.090   4.638   3.769  1.4140 -0.1387  0.2304
  643MOL0     H88700   7.226   4.822   3.976  3.3722  0.1129  0.4642
  643MOL0     H88701   7.267   4.660   3.941 -1.8745  0.5830  2.2506
  643MOL0     H88702   7.266   4.889   3.737  0.1864  0.1337  0.2101
  643MOL0     H88703   7.324   4.735   3.704  0.1463 -0.8960 -0.2310
  643MOL0     H88704   7.471   4.893   3.910 -1.8282 -1.8849  2.1560
  643MOL0     H88705   7.522   4.876   3.746  1.4767 -1.1169  0.4205
  643MOL0     H88706   7.662   4.740   3.855  0.5172 -2.6284 -1.7837
  643MOL0     H88707   7.531   4.661   3.956 -0.4762 -0.5085  0.1437
  643MOL0     H88708   7.536   4.625   3.656  2.1823  0.1311 -0.3632
  643MOL0     H88709   7.457   4.531   3.785 -1.1165  1.4026  1.5498
  643MOL0     H88710   7.687   4.486   3.889 -0.1021 -1.1208  0.1987
  643MOL0     H88711   7.764   4.551   3.742 -0.5747 -0.1789 -2.7889
  643MOL0     H88712   7.563   4.322   3.713 -0.6109  0.9904 -3.6702
  643MOL0     H88713   7.742   4.295   3.740 -0.5714 -1.1785 -1.4804
  643MOL0     H88714   6.959   5.031   3.625  2.0424 -3.1475 -0.8001
  643MOL0     H88715   6.746   5.136   3.639  0.1044  0.1650 -0.8074
  643MOL0     H88716   6.278   5.032   3.471  0.5872  1.1969  0.1937
  643MOL0     H88717   6.051   5.098   3.455 -1.4422 -1.2892  0.1564
  643MOL0     H88718   4.568   4.873   2.408 -0.0982 -0.6288  1.5986
  643MOL0     H88719   4.316   4.878   2.436  2.5067 -0.3676 -3.6525
  643MOL0     H88720   3.977   5.185   2.543  0.4586 -1.3379  0.8231
  643MOL0     H88721   3.742   5.249   2.532  0.4660  0.2412 -0.1791
  643MOL0     H88722   3.551   5.229   2.710  0.1216 -1.7957 -0.1571
  643MOL0     H88723   3.468   5.271   2.552  0.5519  0.8003 -0.0026
  643MOL0     H88724   3.344   5.067   2.759 -0.7604 -0.6341 -0.8955
  643MOL0     H88725   3.286   5.110   2.609 -0.8370 -1.6201  1.1665
  643MOL0     H88726   3.275   5.360   2.700  2.2965  0.7064  1.6653
  643MOL0     H88727   3.167   5.227   2.762 -1.2791  3.4658 -0.7340
  643MOL0     H88728   3.442   5.297   2.876 -0.1102 -0.2758 -1.6970
  643MOL0     H88729   3.302   5.211   2.960  0.4955  0.9253  1.4591
  643MOL0     H88730   3.205   5.601   3.061 -0.2354 -0.8704  2.1043
  643MOL0     H88731   3.636   4.836   2.607  0.4620 -0.2066 -2.9936
  643MOL0     H88732   3.949   4.693   2.579 -0.2007 -1.1522  0.7761
  643MOL0     H88733   3.907   4.720   2.748  3.1520 -1.4765 -1.3025
  643MOL0     H88734   3.786   4.680   2.619 -1.7908  2.2805 -1.9350
  644MOL0     O88735   7.772   3.394   9.146  0.4555 -0.6867  0.6589
  644MOL0     C88736   7.678   3.327   9.098 -0.1735 -0.1818  0.3635
  644MOL0     O88737   7.680   3.247   8.991  0.1016 -0.5500  0.7164
  644MOL0     C88738   7.804   3.206   8.947  0.7152 -0.1566  0.5844
  644MOL0     C88739   7.846   3.251   8.826  0.2439 -0.1098  0.4172
  644MOL0     C88740   7.967   3.217   8.761 -1.0699 -0.0071 -0.6544
  644MOL0     C88741   8.051   3.131   8.834  0.5648  0.4814 -1.0138
  644MOL0     O88742   8.171   3.095   8.787 -0.3824 -0.0238 -0.2558
  644MOL0     C88743   8.257   3.211   8.751  0.2666  0.0476 -0.1640
  644MOL0     C88744   8.292   3.221   8.604  0.2936 -0.0277  0.4315
  644MOL0     C88745   8.446   3.221   8.581 -0.0199  0.2935  0.5573
  644MOL0     C88746   8.488   3.131   8.474  0.0713 -0.4313  0.0021
  644MOL0     C88747   8.640   3.125   8.472 -1.1518 -0.7432  0.1118
  644MOL0     C88748   8.697   2.992   8.412 -0.3772 -0.1318 -0.2880
  644MOL0     C88749   8.853   2.977   8.399 -0.2815  0.6214  0.2245
  644MOL0     C88750   8.905   2.839   8.419 -0.8699  0.8064 -0.0137
  644MOL0     N88751   8.861   2.755   8.305  0.2779  0.0926  0.6568
  644MOL0     C88752   8.932   2.731   8.188 -0.7051  0.6538 -0.1023
  644MOL0     C88753   8.842   2.656   8.109 -0.3855  0.2911  0.4022
  644MOL0     C88754   8.869   2.608   7.965 -0.4963  0.5381 -0.7470
  644MOL0     C88755   9.021   2.562   7.954 -0.5819  0.3264  0.1953
  644MOL0     C88756   9.042   2.425   8.021  0.0481  0.3749 -0.4659
  644MOL0     C88757   9.177   2.371   7.991  0.0487 -0.4298  0.1561
  644MOL0     O88758   9.239   2.337   8.119  0.0548  1.0117 -0.3650
  644MOL0     C88759   9.373   2.346   8.122 -0.4518 -0.2838  0.2987
  644MOL0     C88760   9.427   2.398   8.240 -0.0138  0.8049  0.3504
  644MOL0     C88761   9.571   2.408   8.251  0.9243  0.3155 -0.3583
  644MOL0     C88762   9.610   2.442   8.396 -0.5021  0.6283 -0.1502
  644MOL0     C88763   9.659   2.369   8.139  0.1614  0.3454  0.0960
  644MOL0     C88764   9.809   2.372   8.149  1.2409  0.0135  0.7302
  644MOL0     O88765   9.874   2.300   8.048 -0.1666 -0.5371 -0.5347
  644MOL0     C88766  10.001   2.261   8.070  0.3292  0.5364 -0.7941
  644MOL0     C88767  10.099   2.295   7.983  0.2830 -0.3396 -1.3406
  644MOL0     C88768  10.228   2.257   8.017  1.0880 -0.0495  0.2370
  644MOL0     C88769  10.269   2.185   8.131 -0.0149  0.6883  0.0808
  644MOL0     O88770  10.397   2.147   8.169  0.2724 -0.1131  0.3569
  644MOL0     C88771  10.498   2.221   8.106  0.0433  0.5235 -0.9252
  644MOL0     C88772  10.626   2.193   8.186 -0.0272 -0.0900 -0.4746
  644MOL0     C88773  10.612   2.241   8.333 -0.4622 -0.3559 -0.0796
  644MOL0     C88774  10.731   2.229   8.428  0.9286  0.3032  0.0745
  644MOL0     C88775  10.704   2.290   8.574 -0.4929 -0.9458 -0.4920
  644MOL0     C88776  10.819   2.244   8.671  0.1282 -0.0490 -0.2524
  644MOL0     C88777  10.792   2.310   8.807 -0.4528  0.5774  0.3143
  644MOL0     C88778  10.880   2.260   8.920  0.5113 -0.5348  0.7375
  644MOL0    Cl88779  11.040   2.242   8.874 -0.1207 -0.3277  0.0767
  644MOL0     C88780  10.165   2.150   8.215 -0.3367 -0.4632  0.5945
  644MOL0     C88781  10.034   2.188   8.189 -0.1035  0.0797  0.0048
  644MOL0     O88782   9.859   2.433   8.238 -0.4254  0.1727  1.0235
  644MOL0     C88783   9.597   2.322   8.018 -0.3659  0.4760 -1.0905
  644MOL0     C88784   9.459   2.306   8.014  0.4019  0.7625 -0.0676
  644MOL0     N88785   8.725   2.628   8.171 -0.3213  0.1848 -0.5956
  644MOL0     N88786   8.741   2.680   8.284  0.2898 -1.0357 -0.5854
  644MOL0     C88787   8.015   3.078   8.963 -0.6431 -0.1412  0.1433
  644MOL0     C88788   7.891   3.118   9.019 -0.4012  0.3210  0.2590
  644MOL0     C88789   7.550   3.355   9.169 -0.4393 -0.3196 -0.9431
  644MOL0     C88790   7.547   3.479   9.250 -0.4178 -0.6199  0.3155
  644MOL0     C88791   7.427   3.523   9.305  0.2531  0.3369 -0.2955
  644MOL0     C88792   7.312   3.450   9.301 -0.1502  0.6510  0.6287
  644MOL0     O88793   7.218   3.488   9.387  0.5460 -0.0439  0.1435
  644MOL0     C88794   7.126   3.395   9.441 -0.0705  0.0399  0.5077
  644MOL0     C88795   6.990   3.378   9.360  0.3247 -1.1743  0.4861
  644MOL0     C88796   6.908   3.509   9.331 -0.1382  0.1537 -0.7603
  644MOL0     C88797   6.995   3.632   9.289  0.3829  0.2833  0.2146
  644MOL0     C88798   6.900   3.730   9.236 -0.9765 -0.5669  0.1029
  644MOL0     C88799   6.815   3.806   9.198 -0.5832  0.8540  0.2198
  644MOL0     C88800   7.314   3.326   9.235 -0.7644  0.5044  0.2184
  644MOL0     C88801   7.432   3.283   9.165 -0.1971 -0.8073 -0.3557
  644MOL0     C88802   7.436   3.145   9.089 -0.0814  0.0680  0.6133
  644MOL0     H88803   7.789   3.320   8.764  3.1126  2.2740  0.2160
  644MOL0     H88804   7.989   3.245   8.659 -3.1204  0.2961 -1.0722
  644MOL0     H88805   8.347   3.199   8.812 -0.6709 -0.7941  1.0906
  644MOL0     H88806   8.210   3.304   8.786  0.9435  0.8459 -1.2882
  644MOL0     H88807   8.239   3.154   8.536  0.4179 -0.8576  1.1405
  644MOL0     H88808   8.256   3.319   8.573 -0.2749 -0.8758 -1.7481
  644MOL0     H88809   8.482   3.322   8.560 -1.6235  0.5440 -1.2642
  644MOL0     H88810   8.498   3.179   8.668  0.2301  0.3667  0.4444
  644MOL0     H88811   8.450   3.031   8.500 -2.7314 -0.2513 -2.8748
  644MOL0     H88812   8.443   3.162   8.380  0.1580 -0.3816 -0.0229
  644MOL0     H88813   8.678   3.127   8.575  1.8941 -2.5240 -0.8277
  644MOL0     H88814   8.692   3.207   8.422  1.6498 -2.7978 -0.6366
  644MOL0     H88815   8.657   2.916   8.480 -0.3125  1.7214  1.9571
  644MOL0     H88816   8.651   2.970   8.316 -3.1172 -0.6657  1.0445
  644MOL0     H88817   8.900   3.050   8.466  1.0293  0.2620 -0.2901
  644MOL0     H88818   8.874   3.011   8.297 -0.1988  2.3070  0.7586
  644MOL0     H88819   9.014   2.845   8.427 -0.3678 -1.1503 -3.5790
  644MOL0     H88820   8.878   2.793   8.514  1.6451  2.4711  1.6350
  644MOL0     H88821   9.031   2.772   8.168 -1.4607  2.6586 -0.0198
  644MOL0     H88822   8.852   2.688   7.893  1.6115  1.4149 -0.3324
  644MOL0     H88823   8.804   2.523   7.940  1.2785 -1.1013 -0.0527
  644MOL0     H88824   9.034   2.558   7.846 -1.9202  1.2569 -0.0174
  644MOL0     H88825   9.086   2.642   7.991 -1.7946  2.3994 -1.9255
  644MOL0     H88826   9.032   2.427   8.130 -1.3081 -2.0272 -0.4711
  644MOL0     H88827   8.966   2.349   7.999 -1.9262  1.1159  2.9765
  644MOL0     H88828   9.162   2.278   7.936  0.7844 -0.0577 -0.6973
  644MOL0     H88829   9.234   2.441   7.930 -2.8790  1.2273 -0.9096
  644MOL0     H88830   9.361   2.437   8.317 -1.5213 -0.5180 -0.2154
  644MOL0     H88831   9.527   2.443   8.466 -0.0629 -0.9199  0.4405
  644MOL0     H88832   9.667   2.536   8.397 -2.6064  1.9851 -1.1056
  644MOL0     H88833   9.682   2.369   8.435 -1.1447  0.5673  0.9463
  644MOL0     H88834  10.094   2.370   7.904  0.0506  0.0427 -0.9628
  644MOL0     H88835  10.301   2.308   7.954 -0.6751  0.9194 -1.1210
  644MOL0     H88836  10.515   2.197   8.000  4.5250 -0.0527 -0.2933
  644MOL0     H88837  10.485   2.329   8.121  2.0373  0.8583 -1.2716
  644MOL0     H88838  10.653   2.087   8.184 -0.6487 -0.3412  1.7121
  644MOL0     H88839  10.698   2.257   8.134  0.9046  0.5498  1.4892
  644MOL0     H88840  10.535   2.173   8.370  0.4555 -0.8839  0.8931
  644MOL0     H88841  10.592   2.349   8.331  3.6794  0.5791 -1.2888
  644MOL0     H88842  10.814   2.284   8.383 -1.7271  2.6221 -2.4579
  644MOL0     H88843  10.759   2.125   8.444  0.3577  0.2887  1.0798
  644MOL0     H88844  10.713   2.398   8.559 -0.0083 -0.7678  0.8587
  644MOL0     H88845  10.607   2.262   8.616 -0.0678 -1.4756  0.1605
  644MOL0     H88846  10.914   2.279   8.632  1.8843 -0.7379  3.0514
  644MOL0     H88847  10.827   2.136   8.686 -1.7566  0.0943  2.6902
  644MOL0     H88848  10.687   2.296   8.833 -0.6501 -0.7188 -1.0437
  644MOL0     H88849  10.812   2.418   8.810  3.7517  0.0148 -0.6765
  644MOL0     H88850  10.844   2.163   8.953  1.3861 -0.7057  1.2178
  644MOL0     H88851  10.868   2.323   9.009 -1.6589  1.1440 -0.6261
  644MOL0     H88852  10.176   2.095   8.308 -2.6127  0.1362  1.2820
  644MOL0     H88853   9.952   2.158   8.254 -1.5507  3.0152 -0.2889
  644MOL0     H88854   9.651   2.309   7.925 -1.3629 -0.1985 -1.5933
  644MOL0     H88855   9.402   2.264   7.932 -0.4693 -2.1448  1.8738
  644MOL0     H88856   8.083   3.008   9.010  0.5628  1.0576  0.2630
  644MOL0     H88857   7.856   3.071   9.110 -2.0653 -1.2096 -1.0958
  644MOL0     H88858   7.638   3.538   9.260 -0.0205 -0.9112 -1.2726
  644MOL0     H88859   7.420   3.607   9.374  1.0118  0.3680 -0.2488
  644MOL0     H88860   7.173   3.297   9.429  2.3728  1.3749 -1.5782
  644MOL0     H88861   7.095   3.416   9.544 -2.4389 -0.6040 -0.0016
  644MOL0     H88862   6.925   3.306   9.409 -2.8414 -0.0193 -1.6941
  644MOL0     H88863   7.017   3.329   9.266  1.1658  0.2867 -0.0768
  644MOL0     H88864   6.835   3.483   9.254 -1.3407 -0.4398  0.5290
  644MOL0     H88865   6.845   3.534   9.417 -2.5358  0.5109 -2.5274
  644MOL0     H88866   7.082   3.609   9.226 -1.5658 -1.0525 -2.1624
  644MOL0     H88867   7.043   3.676   9.377 -2.9552  0.2982  2.1729
  644MOL0     H88868   6.729   3.854   9.157  0.2937  1.5412 -0.8807
  644MOL0     H88869   7.241   3.246   9.243  1.1640 -1.3941 -0.4091
  644MOL0     H88870   7.403   3.163   8.986 -0.2485 -1.5128  0.3601
  644MOL0     H88871   7.535   3.099   9.097  0.1656  0.1260 -1.4825
  644MOL0     H88872   7.362   3.075   9.129 -1.7164  1.9562  1.0563
  645MOL0     O88873   1.818   5.003   1.444  0.2574 -0.1168  0.0430
  645MOL0     C88874   1.832   5.027   1.323  0.2238  0.2783  0.7704
  645MOL0     O88875   1.952   5.030   1.262 -0.0422  0.2450 -0.1207
  645MOL0     C88876   2.061   4.999   1.334 -0.2199 -0.4097  0.3724
  645MOL0     C88877   2.117   5.091   1.415  0.6334  0.3468  0.3033
  645MOL0     C88878   2.214   5.052   1.510 -0.2657  0.2638  0.2914
  645MOL0     C88879   2.272   4.922   1.510  0.4549 -0.5948  0.5031
  645MOL0     O88880   2.378   4.874   1.578  0.2672 -1.0788 -0.1686
  645MOL0     C88881   2.483   4.962   1.614 -0.0583  0.1573  0.2271
  645MOL0     C88882   2.599   4.866   1.640  0.5066  1.0510 -0.0355
  645MOL0     C88883   2.743   4.922   1.658 -0.5226 -0.2430  0.1278
  645MOL0     C88884   2.771   4.962   1.798  0.4337  0.1797 -1.0946
  645MOL0     C88885   2.917   5.012   1.811  1.5001 -0.8164 -0.3743
  645MOL0     C88886   2.947   5.105   1.926  0.4881 -0.2376  0.1147
  645MOL0     C88887   2.899   5.241   1.890 -0.1186 -0.1556  0.8578
  645MOL0     C88888   2.960   5.348   1.979 -0.6140 -0.1567  0.0790
  645MOL0     N88889   2.896   5.474   1.973 -0.3024  0.3466  1.0008
  645MOL0     C88890   2.828   5.528   1.864  0.7145  0.8010 -0.1588
  645MOL0     C88891   2.791   5.649   1.912  0.6345  0.2460  0.3086
  645MOL0     C88892   2.717   5.748   1.829 -0.6131  0.0734  0.3527
  645MOL0     C88893   2.569   5.720   1.844  0.3544  0.5433 -0.5637
  645MOL0     C88894   2.477   5.838   1.820 -0.2221  0.5862  0.3152
  645MOL0     C88895   2.331   5.798   1.840  0.0630  0.4237  0.1661
  645MOL0     O88896   2.309   5.728   1.969  0.2077  0.8177 -0.4816
  645MOL0     C88897   2.189   5.672   1.981  0.0437  1.0647 -0.6577
  645MOL0     C88898   2.071   5.681   1.901 -0.0342  0.9729  0.0581
  645MOL0     C88899   1.955   5.600   1.918 -0.2340  0.4909 -0.1348
  645MOL0     C88900   1.840   5.639   1.835  0.7651 -0.2006  0.2232
  645MOL0     C88901   1.951   5.500   2.026  0.1408 -0.3170 -0.1229
  645MOL0     C88902   1.849   5.397   2.046  0.2092 -0.8948 -0.0139
  645MOL0     O88903   1.845   5.334   2.163 -0.1657  0.4891  0.0621
  645MOL0     C88904   1.742   5.245   2.178 -0.8381  0.4552  0.7327
  645MOL0     C88905   1.630   5.280   2.246 -0.9736 -0.1507 -0.5635
  645MOL0     C88906   1.521   5.202   2.245 -0.2033 -0.0425 -0.2894
  645MOL0     C88907   1.506   5.078   2.170 -0.1725 -0.3740 -0.2152
  645MOL0     O88908   1.388   5.013   2.170  0.0143 -0.1182  0.1734
  645MOL0     C88909   1.376   4.893   2.089  0.1801 -0.4532 -0.0223
  645MOL0     C88910   1.236   4.836   2.128  0.5209  0.0359  0.6092
  645MOL0     C88911   1.242   4.694   2.091 -0.2190  0.4064 -0.9303
  645MOL0     C88912   1.097   4.638   2.117 -0.1199  0.1841  0.0273
  645MOL0     C88913   1.096   4.490   2.100  0.0938 -0.1982 -0.4795
  645MOL0     C88914   0.951   4.440   2.127  0.0967 -0.9738 -0.4328
  645MOL0     C88915   0.920   4.290   2.107 -0.4962 -0.8578 -0.2088
  645MOL0     C88916   0.775   4.243   2.094  0.2618  0.1440  0.0137
  645MOL0    Cl88917   0.765   4.087   2.004 -0.3746 -0.1899 -0.1851
  645MOL0     C88918   1.631   5.041   2.110  0.4221  0.0913 -0.0389
  645MOL0     C88919   1.749   5.123   2.114 -0.0640  0.7006 -0.3292
  645MOL0     O88920   1.763   5.380   1.954 -0.4077  0.0222  0.6354
  645MOL0     C88921   2.075   5.491   2.104  0.3875  0.0536 -0.0305
  645MOL0     C88922   2.186   5.577   2.085 -0.7839 -1.2094  0.6355
  645MOL0     N88923   2.836   5.668   2.038 -0.7332 -0.2844  0.4084
  645MOL0     N88924   2.898   5.560   2.075  0.3356  0.6373 -0.9715
  645MOL0     C88925   2.211   4.827   1.418 -0.0905  0.6448 -0.2359
  645MOL0     C88926   2.109   4.863   1.334  0.2747 -0.3901  0.3560
  645MOL0     C88927   1.701   5.058   1.251 -0.1932 -0.8359  0.6198
  645MOL0     C88928   1.586   4.988   1.296  0.1015 -0.1666 -0.0503
  645MOL0     C88929   1.473   5.004   1.223  0.0123  0.1927 -0.5076
  645MOL0     C88930   1.457   5.069   1.100  0.4750  0.2702 -0.1508
  645MOL0     O88931   1.340   5.090   1.026 -0.2814  0.4176 -1.0237
  645MOL0     C88932   1.232   4.997   1.054  0.6588 -0.0028  0.5552
  645MOL0     C88933   1.125   4.998   0.939  0.4000 -0.4600 -0.1134
  645MOL0     C88934   0.997   4.905   0.954 -0.3311 -0.4714  1.1715
  645MOL0     C88935   0.872   4.945   0.868 -0.2500 -0.1113 -0.1313
  645MOL0     C88936   0.793   4.830   0.833 -0.0528 -0.8156  0.1379
  645MOL0     C88937   0.743   4.732   0.778  0.3268 -0.0947 -0.3871
  645MOL0     C88938   1.569   5.138   1.064  1.0929  1.1988 -0.0093
  645MOL0     C88939   1.685   5.139   1.136 -1.0223 -0.5731  0.9080
  645MOL0     C88940   1.802   5.214   1.073  0.3137 -0.1958 -0.5337
  645MOL0     H88941   2.072   5.190   1.412 -2.5558 -0.9846  0.4894
  645MOL0     H88942   2.259   5.132   1.569  0.8862 -1.2816  1.5824
  645MOL0     H88943   2.451   5.015   1.704 -0.2297  2.3036 -1.0243
  645MOL0     H88944   2.502   5.031   1.531 -2.4719  0.1872 -0.3803
  645MOL0     H88945   2.566   4.806   1.725 -2.7478 -0.2571 -1.9933
  645MOL0     H88946   2.596   4.800   1.552 -1.0789 -0.8003  1.3121
  645MOL0     H88947   2.812   4.840   1.640 -2.1202 -1.6872  0.3827
  645MOL0     H88948   2.765   5.002   1.586 -5.4843  0.8915 -0.4710
  645MOL0     H88949   2.696   5.038   1.820  0.5816 -0.2447  1.0596
  645MOL0     H88950   2.748   4.887   1.874 -1.1064  1.7213  0.0412
  645MOL0     H88951   2.940   5.067   1.720  0.6044  4.6203  2.2490
  645MOL0     H88952   2.975   4.921   1.825  1.2908 -0.9948 -0.6667
  645MOL0     H88953   2.891   5.074   2.014 -2.8551  1.4419 -1.2439
  645MOL0     H88954   3.053   5.105   1.952  0.5730  0.1517 -0.2239
  645MOL0     H88955   2.796   5.252   1.925  0.3177  3.4198  1.4521
  645MOL0     H88956   2.911   5.260   1.783 -0.0346 -4.3245 -0.0189
  645MOL0     H88957   2.945   5.314   2.083 -3.0921  2.4344  0.6775
  645MOL0     H88958   3.069   5.350   1.971 -0.0800 -3.2736  3.5411
  645MOL0     H88959   2.792   5.487   1.770 -0.0239  1.3268 -0.1135
  645MOL0     H88960   2.753   5.739   1.727 -2.8739 -1.6506 -0.3730
  645MOL0     H88961   2.729   5.851   1.864 -2.2057  0.3759  0.0914
  645MOL0     H88962   2.542   5.649   1.766 -1.7342  0.0699  0.5056
  645MOL0     H88963   2.553   5.672   1.942  0.0538 -0.5792 -1.1473
  645MOL0     H88964   2.506   5.927   1.877 -1.1890  0.8796  0.3593
  645MOL0     H88965   2.485   5.860   1.713 -2.5725 -0.4214 -0.1238
  645MOL0     H88966   2.261   5.882   1.827 -2.0117 -1.2664 -0.0748
  645MOL0     H88967   2.301   5.742   1.751  0.6846 -0.7148  0.6637
  645MOL0     H88968   2.081   5.764   1.832  0.2966  0.8499 -0.0475
  645MOL0     H88969   1.858   5.738   1.792  1.8344 -0.7054 -0.5688
  645MOL0     H88970   1.744   5.640   1.886  1.6247 -0.7892  1.9210
  645MOL0     H88971   1.817   5.567   1.755  0.6699  1.4421 -1.2850
  645MOL0     H88972   1.632   5.362   2.318  0.3881 -0.6223 -0.0497
  645MOL0     H88973   1.440   5.214   2.317 -1.1161 -0.9531 -1.1301
  645MOL0     H88974   1.380   4.914   1.982 -2.0046  2.7314  0.4093
  645MOL0     H88975   1.468   4.835   2.102  0.0233 -0.6612  0.1642
  645MOL0     H88976   1.216   4.841   2.236 -1.4841 -4.5240  0.6616
  645MOL0     H88977   1.152   4.876   2.070  1.1366  2.1797  1.0864
  645MOL0     H88978   1.307   4.636   2.157 -3.5791 -0.8875  1.4787
  645MOL0     H88979   1.279   4.685   1.988 -1.5746 -0.7462 -1.3338
  645MOL0     H88980   1.026   4.694   2.055  0.1817  2.4183  1.5710
  645MOL0     H88981   1.071   4.656   2.222 -3.4442  1.0064 -0.8097
  645MOL0     H88982   1.125   4.487   1.995  1.7580 -0.0809 -0.0486
  645MOL0     H88983   1.174   4.447   2.163 -0.5244 -2.7451 -1.3730
  645MOL0     H88984   0.879   4.490   2.062 -0.0103 -1.1309 -0.4361
  645MOL0     H88985   0.919   4.468   2.227 -3.2945 -0.8332 -1.4346
  645MOL0     H88986   0.962   4.234   2.191 -2.3100 -1.2899  0.4433
  645MOL0     H88987   0.982   4.267   2.019  1.5846 -0.6696  1.1263
  645MOL0     H88988   0.710   4.323   2.057 -0.4668 -0.1083  0.7403
  645MOL0     H88989   0.730   4.224   2.191  1.1015 -0.7963  0.2366
  645MOL0     H88990   1.621   4.953   2.047 -0.5748  0.6605 -0.7062
  645MOL0     H88991   1.837   5.087   2.062 -0.1872 -1.5561  0.8978
  645MOL0     H88992   2.071   5.404   2.168 -2.0386 -1.7763 -2.4042
  645MOL0     H88993   2.275   5.568   2.147  0.0275 -0.2337 -0.3579
  645MOL0     H88994   2.254   4.728   1.413  1.4558  1.2159  0.7967
  645MOL0     H88995   2.052   4.789   1.278 -0.9932  1.4944 -0.9749
  645MOL0     H88996   1.591   4.922   1.382 -1.8853 -0.1665  0.1074
  645MOL0     H88997   1.381   4.966   1.267 -0.3135  1.9944  0.4685
  645MOL0     H88998   1.269   4.894   1.061  1.4657  0.2608  0.2407
  645MOL0     H88999   1.187   5.029   1.149 -1.3945 -0.1957 -0.3034
  645MOL0     H89000   1.180   4.968   0.850  0.4393 -0.4528 -0.0913
  645MOL0     H89001   1.093   5.099   0.910 -0.0377  0.0332  1.9163
  645MOL0     H89002   1.031   4.805   0.925  1.6521  0.5473 -0.2651
  645MOL0     H89003   0.967   4.910   1.059  2.2012  0.7610  1.9091
  645MOL0     H89004   0.908   4.986   0.773  1.8667  1.2675  1.1804
  645MOL0     H89005   0.813   5.018   0.924  2.0508 -0.1902  2.5899
  645MOL0     H89006   0.708   4.641   0.735 -2.2508 -0.0291  1.3369
  645MOL0     H89007   1.577   5.203   0.978 -0.6380  0.0422 -1.0955
  645MOL0     H89008   1.887   5.148   1.052  1.7131  0.7996  1.6973
  645MOL0     H89009   1.777   5.263   0.978  0.8936 -0.5313 -0.8669
  645MOL0     H89010   1.829   5.298   1.137 -0.9193 -0.5805  0.5364
  646MOL0     O89011   9.602   3.826   6.827 -0.5483  0.1496 -0.7184
  646MOL0     C89012   9.673   3.910   6.878 -0.1398 -0.5043 -0.2422
  646MOL0     O89013   9.778   3.885   6.959 -0.1780  0.4431 -0.2526
  646MOL0     C89014   9.806   3.762   7.019  0.0625 -0.0795  1.0113
  646MOL0     C89015   9.926   3.752   7.080 -0.0166 -0.4629 -0.9327
  646MOL0     C89016   9.966   3.635   7.150 -0.0274  0.0036  0.2403
  646MOL0     C89017   9.878   3.526   7.154 -0.3037 -0.7635  0.0775
  646MOL0     O89018   9.901   3.409   7.226  0.5290  0.5255  0.2174
  646MOL0     C89019   9.847   3.425   7.362  0.4543 -0.3896 -0.3995
  646MOL0     C89020   9.921   3.328   7.455  0.0877 -0.3261  0.4531
  646MOL0     C89021  10.077   3.333   7.453  0.6497 -0.9986 -0.7717
  646MOL0     C89022  10.133   3.255   7.568 -0.1924  0.2809 -0.5189
  646MOL0     C89023  10.281   3.229   7.553 -0.8213  0.1456  0.7249
  646MOL0     C89024  10.353   3.166   7.671  0.6516  0.6078 -0.1533
  646MOL0     C89025  10.282   3.040   7.736 -0.5462 -0.4277 -0.2151
  646MOL0     C89026  10.385   2.955   7.812  0.6712 -0.1799 -0.8699
  646MOL0     N89027  10.333   2.851   7.903  0.2715  0.1718 -0.3687
  646MOL0     C89028  10.226   2.863   7.989  0.1907  0.7022  1.0226
  646MOL0     C89029  10.181   2.741   8.010  0.8380  0.6217  0.0141
  646MOL0     C89030  10.059   2.700   8.088  0.0840  0.2342  0.2091
  646MOL0     C89031  10.093   2.694   8.239 -0.2059 -0.0030 -0.5908
  646MOL0     C89032  10.179   2.572   8.280 -0.1406  0.5199 -0.6186
  646MOL0     C89033  10.294   2.607   8.376  0.3299 -0.3216 -0.3036
  646MOL0     O89034  10.371   2.722   8.317 -0.2926 -0.1243 -0.3176
  646MOL0     C89035  10.507   2.729   8.312 -0.5853  0.7227 -0.3247
  646MOL0     C89036  10.545   2.794   8.195  0.7275 -0.2021 -0.2944
  646MOL0     C89037  10.677   2.795   8.153  0.2000 -0.6422 -0.0328
  646MOL0     C89038  10.701   2.877   8.035  0.5980  0.4643  0.1786
  646MOL0     C89039  10.777   2.740   8.230  0.1361  0.1442  0.3676
  646MOL0     C89040  10.922   2.747   8.195  0.0169 -0.7259 -0.1945
  646MOL0     O89041  10.955   2.766   8.062  0.2824 -0.0435  0.6039
  646MOL0     C89042  11.082   2.804   8.034  0.4041  0.1296 -0.3371
  646MOL0     C89043  11.146   2.911   8.096  0.4097 -0.2202  0.9304
  646MOL0     C89044  11.274   2.952   8.053  0.7504 -0.8078  0.5004
  646MOL0     C89045  11.344   2.880   7.961  0.2058  0.5663  0.2328
  646MOL0     O89046  11.475   2.905   7.925 -1.1594  0.4481 -0.3998
  646MOL0     C89047  11.547   3.013   7.984  0.5052 -1.0165  0.7331
  646MOL0     C89048  11.680   3.042   7.902  0.5706  0.1404  0.1983
  646MOL0     C89049  11.784   3.139   7.962 -0.4316 -1.0049 -0.3220
  646MOL0     C89050  11.881   3.060   8.050 -0.3781  0.4395 -0.3127
  646MOL0     C89051  11.955   3.171   8.129 -0.4031  0.8915 -0.4511
  646MOL0     C89052  12.079   3.101   8.202 -0.1036 -0.0526 -0.3703
  646MOL0     C89053  12.187   3.068   8.105 -0.1263 -0.3893 -1.2487
  646MOL0     C89054  12.254   3.186   8.025 -0.0394 -0.0903 -0.4256
  646MOL0    Cl89055  12.286   3.335   8.138 -0.0837  0.4342  0.2467
  646MOL0     C89056  11.284   2.769   7.904 -0.4614 -0.2273 -0.4182
  646MOL0     C89057  11.151   2.739   7.934 -0.7688 -0.1314  0.1894
  646MOL0     O89058  10.995   2.725   8.287  0.1546 -0.6661  0.3328
  646MOL0     C89059  10.736   2.675   8.346  0.4314  0.6254  0.2194
  646MOL0     C89060  10.600   2.673   8.400 -0.0316  0.2945 -0.5812
  646MOL0     N89061  10.270   2.653   7.952 -0.6582 -0.0744 -0.5372
  646MOL0     N89062  10.362   2.716   7.895  0.5181 -0.4620 -0.3831
  646MOL0     C89063   9.756   3.537   7.092  0.1161  0.2276  0.3449
  646MOL0     C89064   9.722   3.654   7.021  0.7296  0.2104 -0.1789
  646MOL0     C89065   9.650   4.044   6.835 -0.0573 -0.5551 -0.9088
  646MOL0     C89066   9.737   4.150   6.876 -0.0397  0.9786 -0.3712
  646MOL0     C89067   9.713   4.286   6.839  0.3692  0.9754  0.3542
  646MOL0     C89068   9.600   4.328   6.782 -0.3225 -0.2499 -0.1112
  646MOL0     O89069   9.565   4.456   6.753 -0.1623 -0.1267  0.7638
  646MOL0     C89070   9.648   4.566   6.783  0.3488 -0.0222  0.0684
  646MOL0     C89071   9.597   4.694   6.714 -0.8341 -0.8962 -0.1871
  646MOL0     C89072   9.600   4.680   6.569  0.0303  0.3197  0.4223
  646MOL0     C89073   9.695   4.778   6.506 -0.0589  0.0476  0.0073
  646MOL0     C89074   9.834   4.741   6.552  0.0491 -0.1160 -0.6037
  646MOL0     C89075   9.945   4.695   6.592  0.6492  0.1273  0.1314
  646MOL0     C89076   9.512   4.226   6.743  0.3510 -0.2899  0.7479
  646MOL0     C89077   9.535   4.089   6.760  0.5193 -0.2393  0.5260
  646MOL0     C89078   9.440   3.995   6.686  0.1974  0.5079 -0.4025
  646MOL0     H89079   9.984   3.843   7.070 -0.8711  0.1237 -0.6323
  646MOL0     H89080  10.066   3.639   7.192  1.1733 -0.2130 -2.4027
  646MOL0     H89081   9.742   3.394   7.368  0.4007 -0.1695 -0.1933
  646MOL0     H89082   9.865   3.527   7.398  3.3089 -1.5664  1.9865
  646MOL0     H89083   9.884   3.332   7.558 -4.6012  0.2033 -1.0167
  646MOL0     H89084   9.907   3.223   7.425  2.8024 -0.9651  1.0791
  646MOL0     H89085  10.101   3.290   7.355 -0.3543 -3.7723  0.1070
  646MOL0     H89086  10.107   3.438   7.463  0.1729 -1.0928  2.3722
  646MOL0     H89087  10.126   3.301   7.667 -2.6030  0.2584 -0.6197
  646MOL0     H89088  10.080   3.160   7.574  1.1292 -0.4285  0.5367
  646MOL0     H89089  10.330   3.321   7.518  2.0710 -1.8037 -0.8366
  646MOL0     H89090  10.288   3.151   7.476  2.1700 -0.7203  1.7367
  646MOL0     H89091  10.453   3.133   7.642  0.3573 -0.1454 -0.3583
  646MOL0     H89092  10.373   3.231   7.756  0.1098 -0.0770  0.5120
  646MOL0     H89093  10.258   2.977   7.650  3.1732  0.0165 -1.7590
  646MOL0     H89094  10.185   3.057   7.784 -0.3880 -0.9711  0.3078
  646MOL0     H89095  10.450   2.906   7.738  5.1781  0.3013  2.3615
  646MOL0     H89096  10.445   3.023   7.873 -0.5085  0.2527 -0.1643
  646MOL0     H89097  10.174   2.949   8.030 -2.3634  0.1319 -0.7097
  646MOL0     H89098  10.031   2.598   8.059 -1.0840 -0.8198  4.3721
  646MOL0     H89099   9.970   2.762   8.076 -0.2468 -0.1595  0.5721
  646MOL0     H89100  10.139   2.785   8.279 -2.0429  1.0330 -0.7310
  646MOL0     H89101  10.001   2.675   8.294 -0.3377 -0.2388 -0.8904
  646MOL0     H89102  10.111   2.498   8.325 -1.2568  1.9252  0.0671
  646MOL0     H89103  10.220   2.515   8.196 -1.4032  0.9668 -1.5688
  646MOL0     H89104  10.246   2.642   8.468  0.9245 -0.6445  0.1346
  646MOL0     H89105  10.362   2.522   8.389 -0.3567 -1.5083 -3.4662
  646MOL0     H89106  10.474   2.834   8.123  1.0719  0.1054 -0.4668
  646MOL0     H89107  10.762   2.816   7.968 -0.2733  0.2153 -0.4024
  646MOL0     H89108  10.752   2.969   8.066  0.9608 -0.1565  1.5016
  646MOL0     H89109  10.611   2.900   7.977  1.8207 -1.1047 -2.5368
  646MOL0     H89110  11.092   2.968   8.171 -1.9831 -1.6449  0.3644
  646MOL0     H89111  11.311   3.040   8.105  1.7465 -2.5191  2.8530
  646MOL0     H89112  11.489   3.106   7.972 -1.3150 -2.3273 -1.3959
  646MOL0     H89113  11.564   3.005   8.091  0.9290  1.6071  0.9314
  646MOL0     H89114  11.729   2.950   7.870 -0.2290  0.2363 -1.4092
  646MOL0     H89115  11.664   3.096   7.808  1.7403  1.5727  0.7809
  646MOL0     H89116  11.733   3.221   8.014  0.6983  1.0937 -2.3109
  646MOL0     H89117  11.830   3.190   7.876 -1.2080 -0.0011 -0.1694
  646MOL0     H89118  11.949   3.004   7.986  1.7630  0.8993  1.4263
  646MOL0     H89119  11.830   2.992   8.120 -1.9773  4.1546  2.4706
  646MOL0     H89120  11.987   3.246   8.057 -1.0397  1.5748 -0.0328
  646MOL0     H89121  11.898   3.224   8.206  2.0012  0.1673  2.0275
  646MOL0     H89122  12.046   3.012   8.258 -0.8661  1.2090  1.2735
  646MOL0     H89123  12.127   3.171   8.271 -0.3949  3.0052 -3.0624
  646MOL0     H89124  12.148   2.997   8.031  0.3081 -0.7567 -1.1264
  646MOL0     H89125  12.264   3.011   8.157  0.9770  2.0708 -0.0487
  646MOL0     H89126  12.184   3.214   7.946 -0.9976 -3.5444 -0.9488
  646MOL0     H89127  12.349   3.154   7.982 -0.6579 -4.5508  1.0849
  646MOL0     H89128  11.335   2.710   7.829 -1.3455  0.1197 -1.3120
  646MOL0     H89129  11.101   2.656   7.886 -0.0863 -0.5676  0.2178
  646MOL0     H89130  10.807   2.634   8.417 -0.4919  0.4594  1.0660
  646MOL0     H89131  10.567   2.636   8.496 -0.4859 -2.3902 -1.6852
  646MOL0     H89132   9.683   3.459   7.108 -0.9159  1.4405  1.8899
  646MOL0     H89133   9.621   3.658   6.981 -0.4517  3.1372  2.6335
  646MOL0     H89134   9.828   4.138   6.933 -0.6661  2.8628  1.1397
  646MOL0     H89135   9.792   4.352   6.873 -0.0303 -0.1176  3.8690
  646MOL0     H89136   9.627   4.595   6.886  1.3127  0.0509  0.2584
  646MOL0     H89137   9.754   4.554   6.757  1.1125  2.0545  1.9203
  646MOL0     H89138   9.648   4.784   6.749 -1.1724 -1.6399  2.5054
  646MOL0     H89139   9.493   4.711   6.743 -1.2602 -2.0929 -0.9322
  646MOL0     H89140   9.623   4.579   6.533 -2.5339  0.2884 -1.4395
  646MOL0     H89141   9.496   4.689   6.537 -0.3733 -2.7070  0.5412
  646MOL0     H89142   9.673   4.883   6.524 -3.6721 -0.3714 -1.2363
  646MOL0     H89143   9.694   4.761   6.397 -2.5945 -3.5850  0.4240
  646MOL0     H89144  10.035   4.661   6.636 -0.1493  1.7685  3.3552
  646MOL0     H89145   9.427   4.269   6.691  2.8890  1.9793 -1.8655
  646MOL0     H89146   9.383   4.039   6.604  0.7154 -1.4637 -1.8800
  646MOL0     H89147   9.497   3.915   6.637 -0.2227 -0.5483  0.7851
  646MOL0     H89148   9.369   3.952   6.758  1.8012 -2.5066 -0.4653
  647MOL0     O89149   2.472   1.086   2.888 -0.5309 -0.4131 -0.4141
  647MOL0     C89150   2.443   1.204   2.895  1.0979 -0.2533 -0.4490
  647MOL0     O89151   2.522   1.307   2.873  0.1413  0.1958 -0.4821
  647MOL0     C89152   2.655   1.264   2.839  0.1983  0.0101  1.1796
  647MOL0     C89153   2.684   1.217   2.710 -0.2293  0.1587 -0.3592
  647MOL0     C89154   2.815   1.166   2.688 -0.7929  0.3246 -0.0714
  647MOL0     C89155   2.916   1.159   2.785  1.0123  0.7583  0.4954
  647MOL0     O89156   3.046   1.123   2.749 -0.7155  0.8344  0.2717
  647MOL0     C89157   3.115   1.040   2.842 -0.1323 -0.3690  0.6482
  647MOL0     C89158   3.223   0.941   2.764  1.0096 -0.2502  0.4752
  647MOL0     C89159   3.310   0.873   2.865 -0.2691  1.0052 -1.2821
  647MOL0     C89160   3.395   0.967   2.944 -0.2970  0.8668  0.0176
  647MOL0     C89161   3.524   0.888   2.995  0.7197  0.3900  0.3625
  647MOL0     C89162   3.617   0.983   3.077  1.1160  1.2287 -0.0430
  647MOL0     C89163   3.750   0.917   3.125 -0.1551 -0.7018 -0.2761
  647MOL0     C89164   3.830   1.023   3.208 -0.0302 -0.3129 -0.3741
  647MOL0     N89165   3.783   1.037   3.347 -0.1389  0.0517 -0.3802
  647MOL0     C89166   3.837   1.000   3.465 -0.1958  0.8488  0.5599
  647MOL0     C89167   3.740   1.032   3.558  0.0719  0.3900 -0.0991
  647MOL0     C89168   3.767   1.014   3.707  0.3383 -0.5397  0.6316
  647MOL0     C89169   3.721   0.882   3.766 -0.5714  1.1696  0.0596
  647MOL0     C89170   3.700   0.891   3.924 -0.4092 -0.1177  0.1363
  647MOL0     C89171   3.697   0.746   3.994 -0.3318 -0.7204 -0.2610
  647MOL0     O89172   3.825   0.684   3.966 -0.0775  1.0535 -0.2673
  647MOL0     C89173   3.830   0.549   3.978 -0.0879  0.1627  0.3006
  647MOL0     C89174   3.775   0.472   4.084 -0.5868 -0.4276  0.2248
  647MOL0     C89175   3.804   0.340   4.111 -0.1378 -0.2227 -0.4510
  647MOL0     C89176   3.755   0.280   4.238  0.5581 -0.1709 -0.6265
  647MOL0     C89177   3.887   0.270   4.022  0.1878  0.6212 -0.7589
  647MOL0     C89178   3.943   0.129   4.042 -0.4228  0.2267  0.0554
  647MOL0     O89179   4.067   0.106   3.983 -0.0327  0.2661 -0.4294
  647MOL0     C89180   4.136  -0.010   3.990  0.1382  0.9875 -0.4244
  647MOL0     C89181   4.087  -0.145   4.017  0.5643  0.9377  0.5885
  647MOL0     C89182   4.170  -0.254   4.011  0.1381 -0.2484  0.1780
  647MOL0     C89183   4.303  -0.238   3.967  0.0762  0.9017 -0.2408
  647MOL0     O89184   4.377  -0.347   3.953 -1.0168  0.2906 -0.1010
  647MOL0     C89185   4.341  -0.438   3.844  0.1881 -1.0094  0.3460
  647MOL0     C89186   4.396  -0.385   3.704 -0.2784 -0.2446  0.7886
  647MOL0     C89187   4.551  -0.417   3.689  0.9259 -0.5949  0.2197
  647MOL0     C89188   4.612  -0.409   3.550 -0.1955 -0.4269 -0.4926
  647MOL0     C89189   4.762  -0.444   3.562 -0.0444 -0.5326 -0.8285
  647MOL0     C89190   4.835  -0.414   3.429 -0.1314  0.4744  0.0431
  647MOL0     C89191   4.980  -0.466   3.427 -0.0948 -0.1505  1.1217
  647MOL0     C89192   5.030  -0.490   3.281 -0.8311 -0.7789  0.0978
  647MOL0    Cl89193   5.100  -0.350   3.227  0.2053  0.3747  0.8896
  647MOL0     C89194   4.348  -0.114   3.947 -0.5507  0.4476 -0.1189
  647MOL0     C89195   4.274  -0.001   3.947  0.3211 -0.1342 -0.7164
  647MOL0     O89196   3.879   0.045   4.107 -0.6317 -0.3808  0.4794
  647MOL0     C89197   3.932   0.338   3.916 -0.0640 -0.0378  0.2892
  647MOL0     C89198   3.915   0.475   3.894  0.0119 -0.0723 -0.5526
  647MOL0     N89199   3.639   1.102   3.498 -0.5299 -0.1543 -1.1680
  647MOL0     N89200   3.667   1.095   3.374  0.2173  0.2148  0.0099
  647MOL0     C89201   2.889   1.218   2.904 -0.9688 -0.4149  0.0317
  647MOL0     C89202   2.751   1.258   2.929 -0.3636  0.0025 -0.5176
  647MOL0     C89203   2.314   1.241   2.962  0.8080 -0.0462 -0.1923
  647MOL0     C89204   2.315   1.265   3.098 -0.5849 -0.4949  0.0957
  647MOL0     C89205   2.199   1.279   3.163  0.8728 -1.0063  0.6458
  647MOL0     C89206   2.075   1.274   3.109 -0.7187  0.3899  0.6164
  647MOL0     O89207   1.954   1.288   3.169  0.1087 -0.3624 -0.1796
  647MOL0     C89208   1.954   1.319   3.310  0.7055 -0.3283  0.9082
  647MOL0     C89209   1.817   1.394   3.328 -0.2777  0.8947  0.7904
  647MOL0     C89210   1.811   1.481   3.450 -0.0334 -0.9905  0.3357
  647MOL0     C89211   1.668   1.548   3.448 -0.6584  0.7327  0.3565
  647MOL0     C89212   1.560   1.451   3.486  0.1619  0.2845 -0.4142
  647MOL0     C89213   1.468   1.375   3.525  0.6973  0.0295  0.1683
  647MOL0     C89214   2.071   1.243   2.966 -0.7660 -0.4370  0.5822
  647MOL0     C89215   2.192   1.235   2.892  0.1248 -1.0981  0.2292
  647MOL0     C89216   2.189   1.188   2.758 -0.1041 -0.2920  0.0653
  647MOL0     H89217   2.613   1.228   2.628  0.8258  2.2188 -1.0577
  647MOL0     H89218   2.846   1.126   2.591  0.1997  0.8235  0.0231
  647MOL0     H89219   3.044   0.965   2.877 -0.3714 -0.2252  0.4737
  647MOL0     H89220   3.153   1.098   2.927  0.6672  0.0100  0.0480
  647MOL0     H89221   3.173   0.871   2.698 -1.3724 -0.3562  2.2780
  647MOL0     H89222   3.282   1.000   2.693 -0.4466 -2.5774 -2.8832
  647MOL0     H89223   3.262   0.803   2.934  2.3155  0.0619 -0.3373
  647MOL0     H89224   3.378   0.809   2.810  0.5965 -2.5636  3.3057
  647MOL0     H89225   3.439   1.040   2.876 -0.5029  1.1200  0.1579
  647MOL0     H89226   3.339   1.021   3.021 -0.6450  1.7563 -0.8450
  647MOL0     H89227   3.579   0.853   2.907  0.7483  2.7969 -0.6516
  647MOL0     H89228   3.510   0.802   3.061  3.2569 -1.5689 -1.4435
  647MOL0     H89229   3.632   1.068   3.009 -3.8041  1.5238 -1.1479
  647MOL0     H89230   3.566   1.017   3.168  2.8748  1.7718  0.8071
  647MOL0     H89231   3.805   0.888   3.035  0.6460 -0.3337  0.0823
  647MOL0     H89232   3.720   0.831   3.185 -1.5424 -0.1043 -0.0911
  647MOL0     H89233   3.937   1.002   3.210  0.1224  0.4327 -0.6884
  647MOL0     H89234   3.816   1.122   3.164 -0.2498  0.7682  1.9461
  647MOL0     H89235   3.933   0.949   3.461  1.5963  4.0468 -1.8055
  647MOL0     H89236   3.701   1.088   3.752 -0.6971  0.1728 -1.8836
  647MOL0     H89237   3.873   1.036   3.723  0.2826  2.0680 -1.7489
  647MOL0     H89238   3.630   0.842   3.722  0.9770 -1.4659 -1.0016
  647MOL0     H89239   3.799   0.813   3.731 -1.2733  1.0810 -1.4174
  647MOL0     H89240   3.782   0.950   3.966 -1.4086  0.2360  1.6493
  647MOL0     H89241   3.609   0.946   3.949 -0.9736 -1.4472  1.0878
  647MOL0     H89242   3.675   0.757   4.100  0.2601  0.2636 -0.2338
  647MOL0     H89243   3.611   0.696   3.948 -1.5733 -1.3417  2.5370
  647MOL0     H89244   3.712   0.523   4.156  0.0264  0.1982  0.3327
  647MOL0     H89245   3.653   0.243   4.231 -0.4768  1.5088  2.9765
  647MOL0     H89246   3.748   0.352   4.321  0.3974  0.3983 -1.1295
  647MOL0     H89247   3.819   0.202   4.281  4.1061  0.8952 -3.4981
  647MOL0     H89248   3.979  -0.146   4.027  0.6081 -2.0468  1.8078
  647MOL0     H89249   4.136  -0.349   4.050  0.7727  0.1140  1.6781
  647MOL0     H89250   4.389  -0.532   3.870  2.1454  0.3006  1.7560
  647MOL0     H89251   4.234  -0.461   3.845  0.4529 -2.3659  1.9301
  647MOL0     H89252   4.333  -0.445   3.638 -0.2507  0.5835 -0.0035
  647MOL0     H89253   4.385  -0.280   3.674  0.1423  0.1102  1.8202
  647MOL0     H89254   4.577  -0.517   3.724  3.7004  0.3349  1.0208
  647MOL0     H89255   4.602  -0.349   3.758 -1.8475  2.5962 -0.5947
  647MOL0     H89256   4.587  -0.309   3.513  1.2156  0.3427  0.5617
  647MOL0     H89257   4.557  -0.480   3.487 -3.8320  0.4137  1.4807
  647MOL0     H89258   4.816  -0.389   3.640 -1.2464 -1.3467  0.6311
  647MOL0     H89259   4.773  -0.551   3.585  1.1242 -0.1475  0.6026
  647MOL0     H89260   4.829  -0.308   3.402  0.4462  0.8434  1.2417
  647MOL0     H89261   4.786  -0.480   3.357 -2.0195 -0.0140  1.6900
  647MOL0     H89262   4.978  -0.563   3.478 -0.2669  0.5156  2.4244
  647MOL0     H89263   5.037  -0.386   3.475  0.4569  2.6789 -3.6698
  647MOL0     H89264   4.951  -0.537   3.222 -1.7441 -0.3840  0.9817
  647MOL0     H89265   5.111  -0.563   3.293  0.2053  0.5669  1.8568
  647MOL0     H89266   4.455  -0.113   3.928 -0.2807 -0.3758  1.1780
  647MOL0     H89267   4.327   0.090   3.920  2.0365 -0.0746  2.3941
  647MOL0     H89268   4.009   0.298   3.851 -1.3782 -2.3244  0.0345
  647MOL0     H89269   3.973   0.530   3.819  0.1966 -0.8633 -0.9965
  647MOL0     H89270   2.956   1.217   2.989 -2.9221  1.0473  1.6952
  647MOL0     H89271   2.728   1.291   3.030 -1.8239 -1.9882 -0.1386
  647MOL0     H89272   2.414   1.266   3.143 -1.1178 -0.8890  1.3132
  647MOL0     H89273   2.200   1.298   3.270  4.0193  0.2755  0.5067
  647MOL0     H89274   1.963   1.230   3.373 -0.5762 -0.4048  1.0026
  647MOL0     H89275   2.032   1.394   3.329 -1.9832  3.4533 -1.5645
  647MOL0     H89276   1.740   1.319   3.348  1.3845 -0.7042  1.4757
  647MOL0     H89277   1.793   1.447   3.235  1.0729 -0.5492 -0.4371
  647MOL0     H89278   1.817   1.424   3.543  1.7695 -0.7914  0.3652
  647MOL0     H89279   1.895   1.551   3.447 -0.6194 -0.3055 -1.0650
  647MOL0     H89280   1.648   1.580   3.345 -1.3400 -2.3838 -0.6171
  647MOL0     H89281   1.679   1.627   3.523 -0.9263 -1.9297  3.4300
  647MOL0     H89282   1.396   1.310   3.571  0.4421  0.7269  0.7782
  647MOL0     H89283   1.971   1.239   2.925 -1.2210 -0.0863  1.6269
  647MOL0     H89284   2.187   1.079   2.761 -3.4220 -0.3902 -1.3934
  647MOL0     H89285   2.106   1.234   2.705  1.2721 -0.1031 -2.0471
  647MOL0     H89286   2.282   1.197   2.700 -0.1558 -2.5314 -0.4539
  648MOL0     O89287   3.945   7.363  10.926  0.4585 -0.2815 -0.1061
  648MOL0     C89288   3.932   7.460  10.850 -0.1894  0.3427 -0.3805
  648MOL0     O89289   4.029   7.511  10.774 -0.5079 -1.2600  0.9156
  648MOL0     C89290   4.146   7.447  10.750  0.0130 -0.0832 -0.6816
  648MOL0     C89291   4.262   7.514  10.778 -0.0383  0.8068 -0.3756
  648MOL0     C89292   4.391   7.461  10.746 -0.5091  1.0129  0.8663
  648MOL0     C89293   4.398   7.345  10.666 -0.4747 -0.5192 -0.9900
  648MOL0     O89294   4.508   7.285  10.606  0.6529 -0.0600  0.0488
  648MOL0     C89295   4.643   7.345  10.616  0.9971  0.0767  0.6465
  648MOL0     C89296   4.672   7.452  10.509 -0.4292  0.0087 -1.2035
  648MOL0     C89297   4.699   7.407  10.368  0.8110  1.1964  0.1522
  648MOL0     C89298   4.568   7.361  10.291 -0.5054 -1.5917 -0.2701
  648MOL0     C89299   4.607   7.330  10.145 -0.1320 -0.2186 -0.0035
  648MOL0     C89300   4.498   7.255  10.082  0.4338  0.6823 -0.4066
  648MOL0     C89301   4.551   7.185   9.959  0.5426 -0.6818  0.5615
  648MOL0     C89302   4.443   7.135   9.864  0.2583  0.5647  0.6367
  648MOL0     N89303   4.377   7.012   9.892 -0.2893  0.5928  0.2272
  648MOL0     C89304   4.427   6.897   9.950  0.6180  0.5053 -0.5277
  648MOL0     C89305   4.328   6.799   9.940  0.0549  0.4460  0.6231
  648MOL0     C89306   4.354   6.655   9.979 -1.0380 -0.4077 -0.0110
  648MOL0     C89307   4.393   6.574   9.856  0.5646  0.4608 -0.3378
  648MOL0     C89308   4.472   6.445   9.912 -0.1646 -0.3982 -0.8078
  648MOL0     C89309   4.498   6.347   9.794  0.0019  0.7826  0.0184
  648MOL0     O89310   4.608   6.385   9.712 -0.1895 -0.8303 -0.7195
  648MOL0     C89311   4.737   6.351   9.731 -0.1208 -0.0574 -0.0562
  648MOL0     C89312   4.829   6.415   9.647  0.1373 -0.4620 -0.5842
  648MOL0     C89313   4.971   6.393   9.667  0.3949 -0.2486 -0.2866
  648MOL0     C89314   5.063   6.464   9.567  0.6802 -0.8186  1.0351
  648MOL0     C89315   5.019   6.308   9.775  0.0568 -0.7591 -0.2589
  648MOL0     C89316   5.159   6.281   9.803 -0.0358  0.0606 -0.4173
  648MOL0     O89317   5.244   6.365   9.739 -0.1774  0.0077 -0.2985
  648MOL0     C89318   5.369   6.342   9.751 -0.4995  0.5515 -0.8432
  648MOL0     C89319   5.422   6.241   9.670 -0.3756  0.0133  0.7451
  648MOL0     C89320   5.552   6.218   9.681  0.2711  0.6971  1.1420
  648MOL0     C89321   5.648   6.289   9.757 -0.2175  0.0055  0.0827
  648MOL0     O89322   5.776   6.244   9.769 -0.6647  0.3395 -0.4854
  648MOL0     C89323   5.885   6.344   9.766 -0.1626  0.1876  0.6195
  648MOL0     C89324   6.018   6.278   9.764 -0.0859 -0.3287 -0.1490
  648MOL0     C89325   6.037   6.226   9.624 -0.3516 -0.6904  0.3039
  648MOL0     C89326   6.164   6.155   9.624 -0.3436  0.4690  0.2061
  648MOL0     C89327   6.202   6.085   9.500  1.0737 -0.6965  0.3204
  648MOL0     C89328   6.342   6.048   9.506 -1.2910 -0.3014 -0.1529
  648MOL0     C89329   6.389   5.944   9.404  0.2074  0.2737  0.3600
  648MOL0     C89330   6.540   5.936   9.407  0.3351 -0.1822 -0.4169
  648MOL0    Cl89331   6.623   5.878   9.264 -0.1779 -0.2343  0.6153
  648MOL0     C89332   5.592   6.389   9.845  0.5216 -0.4216 -0.6190
  648MOL0     C89333   5.454   6.410   9.843 -0.3896  1.0756 -0.4673
  648MOL0     O89334   5.195   6.208   9.893 -0.2957  0.1442  0.0506
  648MOL0     C89335   4.921   6.252   9.865 -1.0668 -0.1855  1.0439
  648MOL0     C89336   4.783   6.266   9.839 -0.4657 -0.8935  0.6010
  648MOL0     N89337   4.217   6.863   9.887  0.1782  0.2255  0.5698
  648MOL0     N89338   4.253   6.983   9.858 -0.1013 -0.4102  0.4168
  648MOL0     C89339   4.273   7.287  10.625  0.0182 -0.0753  0.0598
  648MOL0     C89340   4.158   7.331  10.671 -0.7091  0.3373 -0.4862
  648MOL0     C89341   3.808   7.541  10.867 -0.3465  0.1856 -0.0733
  648MOL0     C89342   3.823   7.678  10.861  0.5732 -0.1410  0.3542
  648MOL0     C89343   3.715   7.759  10.893  0.2514 -0.6857  0.7131
  648MOL0     C89344   3.601   7.707  10.934 -0.2240 -0.3420  0.5779
  648MOL0     O89345   3.512   7.797  10.971  0.5576  0.4846 -0.1811
  648MOL0     C89346   3.397   7.745  11.028  1.5506 -0.1373  0.5445
  648MOL0     C89347   3.291   7.856  11.058 -0.4411 -0.5062 -0.7436
  648MOL0     C89348   3.349   7.962  11.157 -0.1769 -0.2183  0.5702
  648MOL0     C89349   3.253   8.079  11.172  0.8388  0.0831  0.8196
  648MOL0     C89350   3.293   8.165  11.286 -0.3730 -0.5003  0.0085
  648MOL0     C89351   3.335   8.254  11.362 -0.2552 -0.1752  0.3818
  648MOL0     C89352   3.575   7.567  10.924  0.0882  0.0497 -0.2497
  648MOL0     C89353   3.680   7.484  10.884 -0.2489 -0.3373 -0.2149
  648MOL0     C89354   3.671   7.328  10.870 -0.2093  0.1586  0.3561
  648MOL0     H89355   4.261   7.603  10.840 -1.7742  0.8426 -0.4175
  648MOL0     H89356   4.471   7.526  10.781 -2.3400  3.2367  1.1473
  648MOL0     H89357   4.712   7.265  10.585 -0.9432 -0.9992 -1.1076
  648MOL0     H89358   4.669   7.376  10.718  0.8078  1.8174  0.1996
  648MOL0     H89359   4.583   7.515  10.512 -2.1705 -2.3245 -0.4007
  648MOL0     H89360   4.759   7.511  10.538 -1.6105  2.3357 -2.1730
  648MOL0     H89361   4.751   7.483  10.310  2.1121 -0.1648 -0.5469
  648MOL0     H89362   4.770   7.324  10.372  0.3646  0.8552  2.2290
  648MOL0     H89363   4.520   7.282  10.348 -0.2270 -0.3320  1.8042
  648MOL0     H89364   4.497   7.445  10.295 -2.0315 -2.7621 -1.4238
  648MOL0     H89365   4.706   7.285  10.130 -0.4731 -1.2152  0.6029
  648MOL0     H89366   4.624   7.422  10.089  1.6088  1.1094  2.5089
  648MOL0     H89367   4.458   7.174  10.144 -0.5972  2.3864  1.2949
  648MOL0     H89368   4.412   7.321  10.064  1.0615  1.1479 -1.8144
  648MOL0     H89369   4.609   7.096   9.985  1.8642 -0.5614 -1.7884
  648MOL0     H89370   4.614   7.255   9.904 -0.0357  0.7151  1.6256
  648MOL0     H89371   4.363   7.210   9.866 -0.1081  0.3533 -1.9082
  648MOL0     H89372   4.473   7.137   9.758 -1.7778  0.3353  0.0194
  648MOL0     H89373   4.526   6.888   9.993  0.3954 -0.7704 -0.2597
  648MOL0     H89374   4.268   6.611  10.030 -0.2102 -0.9209  0.9802
  648MOL0     H89375   4.436   6.652  10.051 -0.8867  0.9730 -0.0891
  648MOL0     H89376   4.310   6.547   9.791 -1.2014  2.6531  0.8733
  648MOL0     H89377   4.461   6.634   9.795 -0.8367  2.3278 -0.1552
  648MOL0     H89378   4.570   6.470   9.956  0.0535 -2.2076 -0.1932
  648MOL0     H89379   4.427   6.396   9.998  1.7511  0.4067  0.7484
  648MOL0     H89380   4.520   6.246   9.831  0.3788  1.7598  2.6843
  648MOL0     H89381   4.407   6.345   9.733 -0.2124  1.2874  0.3138
  648MOL0     H89382   4.789   6.476   9.567  1.5471  0.8775 -0.3123
  648MOL0     H89383   5.006   6.534   9.507  0.8582 -1.7132 -0.2093
  648MOL0     H89384   5.113   6.392   9.502 -0.5668 -0.4981 -0.3103
  648MOL0     H89385   5.143   6.522   9.615 -0.4596  2.0629 -0.3946
  648MOL0     H89386   5.352   6.196   9.600 -1.7706 -0.4616  2.3629
  648MOL0     H89387   5.592   6.140   9.616  0.0817  2.3467 -1.0632
  648MOL0     H89388   5.862   6.409   9.681 -0.8311 -0.2858  0.4280
  648MOL0     H89389   5.890   6.398   9.861  0.7108 -1.3780  1.5058
  648MOL0     H89390   6.098   6.348   9.791 -1.0851  0.0859  2.0052
  648MOL0     H89391   6.023   6.195   9.835  0.7492 -1.2481 -1.2678
  648MOL0     H89392   6.037   6.311   9.555 -2.0248 -2.0385 -1.4469
  648MOL0     H89393   5.958   6.156   9.594  0.3378 -2.3983  2.2387
  648MOL0     H89394   6.165   6.072   9.696 -2.2593  0.9716  0.8952
  648MOL0     H89395   6.242   6.225   9.655 -0.2770  1.0181 -1.1349
  648MOL0     H89396   6.137   5.999   9.480  0.4583 -0.0191 -0.6950
  648MOL0     H89397   6.195   6.151   9.413 -0.1211 -2.0332 -0.6530
  648MOL0     H89398   6.370   6.008   9.603 -0.5986  0.4107 -0.0540
  648MOL0     H89399   6.396   6.142   9.490  3.1034 -2.1850  2.0226
  648MOL0     H89400   6.344   5.970   9.308  1.6698  2.4667  0.1720
  648MOL0     H89401   6.348   5.845   9.423  2.7077 -1.2267 -1.3903
  648MOL0     H89402   6.575   5.877   9.492 -0.3428  0.4732  0.3373
  648MOL0     H89403   6.593   6.031   9.421  2.5849 -1.3696 -0.3738
  648MOL0     H89404   5.660   6.442   9.911  0.8965  1.5118 -2.4494
  648MOL0     H89405   5.407   6.480   9.912 -0.6889 -1.4043  2.0505
  648MOL0     H89406   4.952   6.193   9.951  2.5277  0.9435  0.7216
  648MOL0     H89407   4.713   6.230   9.913 -1.7875 -0.4933 -0.4003
  648MOL0     H89408   4.271   7.199  10.561  1.9866  0.7697 -1.2585
  648MOL0     H89409   4.064   7.283  10.645  0.6221 -1.6070 -1.9171
  648MOL0     H89410   3.913   7.735  10.840 -0.5524  1.2993 -0.8440
  648MOL0     H89411   3.724   7.867  10.900 -1.3700 -0.2832 -2.1951
  648MOL0     H89412   3.355   7.686  10.946 -0.7774  2.1544 -0.0193
  648MOL0     H89413   3.409   7.677  11.114 -2.8711  0.1858  1.6503
  648MOL0     H89414   3.209   7.806  11.109  0.6570 -2.2794 -0.6243
  648MOL0     H89415   3.253   7.905  10.968 -0.8884 -1.4637 -1.0813
  648MOL0     H89416   3.366   7.907  11.250  0.9071 -0.9793 -0.0561
  648MOL0     H89417   3.445   7.996  11.117  0.3055 -1.5233  0.5916
  648MOL0     H89418   3.153   8.036  11.189  0.0832  0.1283 -2.7173
  648MOL0     H89419   3.247   8.133  11.077  0.2514 -1.0420  0.1834
  648MOL0     H89420   3.376   8.331  11.425 -2.0324  0.3175  1.0005
  648MOL0     H89421   3.481   7.514  10.935 -0.2197  0.0522 -2.4015
  648MOL0     H89422   3.716   7.285  10.781 -0.2370 -0.1799  0.5060
  648MOL0     H89423   3.716   7.276  10.955 -1.3093 -0.3261  0.6681
  648MOL0     H89424   3.564   7.305  10.878  0.2442 -1.9055  1.0333
  649MOL0     O89425   5.391   9.111   8.178 -0.6283  0.0625  0.3071
  649MOL0     C89426   5.278   9.093   8.134 -0.0653  0.0596  0.1696
  649MOL0     O89427   5.221   8.976   8.088 -0.6230 -0.3350 -0.2359
  649MOL0     C89428   5.313   8.876   8.081  0.0963  0.0882 -0.4975
  649MOL0     C89429   5.373   8.819   8.192  0.0903 -0.7517  0.2315
  649MOL0     C89430   5.454   8.703   8.187 -0.2744 -0.1068 -0.3755
  649MOL0     C89431   5.505   8.663   8.063  0.4695 -0.1322 -0.3746
  649MOL0     O89432   5.579   8.553   8.034  0.1360  0.6442 -0.0489
  649MOL0     C89433   5.639   8.483   8.142  0.6643  0.1007  0.0404
  649MOL0     C89434   5.665   8.340   8.096  0.0679 -0.4985 -0.0777
  649MOL0     C89435   5.768   8.274   8.181  1.3182  0.0856 -1.0701
  649MOL0     C89436   5.909   8.320   8.163  0.4005 -1.2110 -0.1523
  649MOL0     C89437   6.009   8.213   8.227 -0.0041 -0.5574 -0.0311
  649MOL0     C89438   6.151   8.275   8.234 -0.5217 -0.5666  1.1025
  649MOL0     C89439   6.172   8.364   8.357 -0.0191 -0.0876 -0.5259
  649MOL0     C89440   6.308   8.410   8.377 -0.0439 -0.7584 -0.5378
  649MOL0     N89441   6.324   8.510   8.266 -0.4817 -0.2210 -0.1621
  649MOL0     C89442   6.377   8.482   8.142  0.7731  1.0700 -0.2096
  649MOL0     C89443   6.402   8.599   8.089 -0.8689  0.5124 -0.0180
  649MOL0     C89444   6.476   8.624   7.953  0.0004  0.6389  0.1161
  649MOL0     C89445   6.623   8.680   7.972  0.7333  0.6353  0.7931
  649MOL0     C89446   6.700   8.728   7.844  0.4328 -0.6615  0.0730
  649MOL0     C89447   6.850   8.764   7.888 -0.0363 -0.7220  0.4181
  649MOL0     O89448   6.855   8.839   8.011 -0.2350 -0.0902  1.0684
  649MOL0     C89449   6.941   8.942   8.003 -0.4815  0.3437 -0.7258
  649MOL0     C89450   6.897   9.075   7.986 -0.4203 -0.1240  1.2288
  649MOL0     C89451   6.988   9.178   7.945 -0.2318  0.0896 -0.3816
  649MOL0     C89452   6.946   9.322   7.950  0.5423 -0.4349  0.0720
  649MOL0     C89453   7.127   9.149   7.924  0.9765  0.8533 -0.5997
  649MOL0     C89454   7.228   9.248   7.890  0.1495  0.3961 -0.0668
  649MOL0     O89455   7.331   9.262   7.977  0.0982  0.5508 -0.5774
  649MOL0     C89456   7.439   9.321   7.922  0.2021  0.1540  0.1229
  649MOL0     C89457   7.522   9.248   7.827  0.1733 -0.0768 -0.1146
  649MOL0     C89458   7.646   9.299   7.793  0.3263  0.8280  0.5114
  649MOL0     C89459   7.694   9.424   7.833  1.1912 -0.2700 -0.4269
  649MOL0     O89460   7.804   9.484   7.776 -0.0408 -0.8117 -1.0198
  649MOL0     C89461   7.794   9.625   7.750  0.6199  0.5082  0.2879
  649MOL0     C89462   7.875   9.661   7.618 -0.1231 -0.3246 -0.2765
  649MOL0     C89463   8.023   9.688   7.661  0.0223  0.8066  0.5126
  649MOL0     C89464   8.111   9.679   7.533  0.5853  0.1848  0.2430
  649MOL0     C89465   8.236   9.755   7.570  0.3054  0.4726  0.1143
  649MOL0     C89466   8.345   9.733   7.466  0.1357  0.4195 -0.7145
  649MOL0     C89467   8.476   9.810   7.499 -0.2772  0.1978  0.5512
  649MOL0     C89468   8.551   9.759   7.620 -0.1874  0.4818 -0.7621
  649MOL0    Cl89469   8.585   9.577   7.616 -0.1101  0.3724 -0.0545
  649MOL0     C89470   7.614   9.493   7.931 -0.1990 -0.1301 -0.2969
  649MOL0     C89471   7.491   9.441   7.980  0.3941 -0.8431 -0.9566
  649MOL0     O89472   7.215   9.300   7.778 -0.5713  0.1295 -0.0137
  649MOL0     C89473   7.167   9.018   7.956  0.3017  0.3235  0.3365
  649MOL0     C89474   7.076   8.916   7.996 -0.6295  0.5962 -0.8708
  649MOL0     N89475   6.369   8.698   8.178  0.3436  0.0251  0.0826
  649MOL0     N89476   6.320   8.646   8.286 -0.6551  0.0915  0.1760
  649MOL0     C89477   5.450   8.731   7.953 -0.3081  0.4825  0.9310
  649MOL0     C89478   5.354   8.835   7.955 -0.2595  0.4061 -0.2785
  649MOL0     C89479   5.185   9.217   8.135 -0.3191 -1.1329  0.3046
  649MOL0     C89480   5.246   9.335   8.104  0.3337  0.3272 -0.2035
  649MOL0     C89481   5.169   9.453   8.100  0.0674  1.1671 -0.4110
  649MOL0     C89482   5.024   9.448   8.134  0.5981 -0.4593 -0.0057
  649MOL0     O89483   4.927   9.558   8.131 -0.4314  0.1233  0.2631
  649MOL0     C89484   4.984   9.697   8.126  0.4416 -0.1097 -0.5120
  649MOL0     C89485   5.049   9.737   8.257 -0.6537 -0.2024 -0.4231
  649MOL0     C89486   4.958   9.718   8.379  1.0291 -0.7955 -0.2920
  649MOL0     C89487   5.027   9.775   8.506  0.0228 -0.2097  0.0042
  649MOL0     C89488   4.926   9.774   8.613  0.5943  0.7160  1.3068
  649MOL0     C89489   4.835   9.797   8.686  0.3399  0.2112  0.3434
  649MOL0     C89490   4.977   9.328   8.169  0.3553 -0.1066 -0.0631
  649MOL0     C89491   5.051   9.210   8.166  0.2696 -0.1945 -0.4866
  649MOL0     C89492   4.978   9.070   8.187  0.2511  0.0724 -1.0435
  649MOL0     H89493   5.364   8.865   8.290  4.8641  0.8245  0.1598
  649MOL0     H89494   5.480   8.650   8.278  0.3976 -1.3010 -1.2393
  649MOL0     H89495   5.561   8.481   8.219  1.2165  0.7794  0.6267
  649MOL0     H89496   5.732   8.527   8.180  1.3427  0.8126 -2.3181
  649MOL0     H89497   5.577   8.275   8.089  1.1637 -2.1778  0.7799
  649MOL0     H89498   5.715   8.349   7.999  0.6953  1.1295  0.3682
  649MOL0     H89499   5.751   8.273   8.289 -1.2583 -0.3102 -1.4091
  649MOL0     H89500   5.761   8.168   8.155 -0.2182 -0.0425 -0.2367
  649MOL0     H89501   5.933   8.350   8.060 -1.5361  1.1726  0.0369
  649MOL0     H89502   5.904   8.405   8.231 -3.3630 -1.7232  0.4171
  649MOL0     H89503   6.000   8.126   8.161 -0.4600  0.8345 -1.8773
  649MOL0     H89504   5.986   8.181   8.329 -1.0450  0.8474  0.2081
  649MOL0     H89505   6.212   8.184   8.239  0.5804 -0.2684 -3.1652
  649MOL0     H89506   6.168   8.331   8.141 -3.6003  0.9518  1.3478
  649MOL0     H89507   6.137   8.306   8.443  1.8852  0.9290  1.0083
  649MOL0     H89508   6.103   8.449   8.357 -0.8202 -0.5679  3.1242
  649MOL0     H89509   6.320   8.468   8.468  3.1678 -2.6602  0.4006
  649MOL0     H89510   6.381   8.329   8.376  1.6696  0.6987  0.9093
  649MOL0     H89511   6.393   8.387   8.091  1.0891  1.5608 -1.0299
  649MOL0     H89512   6.420   8.705   7.905  3.4306  2.0701 -1.8310
  649MOL0     H89513   6.474   8.526   7.904  0.1001  0.0404  1.2635
  649MOL0     H89514   6.624   8.770   8.034 -1.4267  2.2818 -1.3831
  649MOL0     H89515   6.674   8.598   8.023 -1.8085  0.0950  2.6548
  649MOL0     H89516   6.696   8.651   7.766 -0.9891  1.1441 -1.7268
  649MOL0     H89517   6.650   8.816   7.803  0.1411 -0.6702  0.4048
  649MOL0     H89518   6.912   8.677   7.912 -0.0755 -0.3808  1.8471
  649MOL0     H89519   6.901   8.813   7.804  2.2440  0.0677  2.1488
  649MOL0     H89520   6.791   9.096   7.991 -0.2327  2.4540 -2.0991
  649MOL0     H89521   6.837   9.327   7.949  0.5015  2.2321 -3.5094
  649MOL0     H89522   6.980   9.394   7.875 -0.6961  0.5010  0.3909
  649MOL0     H89523   6.985   9.354   8.047 -1.1878 -0.6052  0.8504
  649MOL0     H89524   7.490   9.151   7.789  1.0639 -0.4247  0.0068
  649MOL0     H89525   7.695   9.245   7.713  0.6239 -1.1245  1.9511
  649MOL0     H89526   7.688   9.652   7.743  0.0087 -1.7173  0.2271
  649MOL0     H89527   7.832   9.683   7.835  2.6608 -1.1695  0.5684
  649MOL0     H89528   7.871   9.574   7.552  1.0061 -1.3811  0.9848
  649MOL0     H89529   7.829   9.749   7.573 -2.8239 -1.5709 -0.1516
  649MOL0     H89530   8.064   9.628   7.743  0.0821 -1.4593 -1.0667
  649MOL0     H89531   8.019   9.792   7.693 -0.4313  1.1997 -0.7414
  649MOL0     H89532   8.062   9.711   7.441  0.9837  0.0941 -0.0074
  649MOL0     H89533   8.149   9.578   7.509 -1.5611 -0.5178 -0.4243
  649MOL0     H89534   8.215   9.862   7.576  2.0384  0.9674 -1.5481
  649MOL0     H89535   8.284   9.721   7.662  1.1553 -1.2432 -0.9037
  649MOL0     H89536   8.302   9.761   7.370 -0.5235  0.3243 -0.4535
  649MOL0     H89537   8.369   9.628   7.448  0.1458  0.1726  0.6289
  649MOL0     H89538   8.460   9.918   7.510  1.1883  0.4239  0.5794
  649MOL0     H89539   8.542   9.794   7.414 -1.2098 -0.4369 -0.0762
  649MOL0     H89540   8.493   9.782   7.710  0.9710 -0.0776  0.1647
  649MOL0     H89541   8.638   9.824   7.628 -0.6060  1.2997 -2.4208
  649MOL0     H89542   7.649   9.589   7.967  1.6445 -1.3371  1.3449
  649MOL0     H89543   7.435   9.478   8.066  0.5786 -0.7651 -0.8708
  649MOL0     H89544   7.274   8.998   7.948  1.0522  2.9610  2.5628
  649MOL0     H89545   7.111   8.814   8.009 -2.0496  0.1957  0.0297
  649MOL0     H89546   5.484   8.684   7.861 -2.8869 -3.2200  1.6274
  649MOL0     H89547   5.309   8.875   7.865 -1.4314  0.9257  0.5155
  649MOL0     H89548   5.353   9.337   8.091  0.4984 -1.7243  0.4936
  649MOL0     H89549   5.228   9.541   8.077  2.4943 -0.7587 -2.2252
  649MOL0     H89550   5.061   9.697   8.048  0.8429 -1.0239 -0.1195
  649MOL0     H89551   4.898   9.762   8.107 -2.1678 -2.7601  1.3821
  649MOL0     H89552   5.091   9.838   8.250 -0.2529 -0.4116 -1.1405
  649MOL0     H89553   5.132   9.668   8.278 -0.3090  0.2301 -0.3383
  649MOL0     H89554   4.865   9.773   8.362 -0.2157 -2.6343  0.2470
  649MOL0     H89555   4.937   9.612   8.395  4.0386 -1.3536  0.6353
  649MOL0     H89556   5.067   9.876   8.490 -1.0933  0.4949  1.4542
  649MOL0     H89557   5.113   9.709   8.523 -0.7774 -0.9316  1.3929
  649MOL0     H89558   4.750   9.790   8.750 -1.5093 -0.4428 -2.0275
  649MOL0     H89559   4.872   9.312   8.188  0.0560 -0.4661 -1.8699
  649MOL0     H89560   5.034   8.997   8.245 -0.0973  0.3783 -0.3121
  649MOL0     H89561   4.887   9.079   8.248 -1.2480 -1.5734 -2.8754
  649MOL0     H89562   4.942   9.027   8.093 -1.7547 -0.8221  0.0643
  650MOL0     O89563   7.198   3.959   3.857 -0.1271 -0.4344  0.3930
  650MOL0     C89564   7.309   3.927   3.827  0.2171 -0.0503  0.5169
  650MOL0     O89565   7.395   4.000   3.753 -0.1416 -1.1809  0.4540
  650MOL0     C89566   7.343   4.099   3.676  0.3620 -0.3705  0.3392
  650MOL0     C89567   7.313   4.233   3.716  0.0149  1.0967  0.3463
  650MOL0     C89568   7.270   4.330   3.620  0.5512 -0.2543 -0.5347
  650MOL0     C89569   7.255   4.298   3.485 -0.0163 -0.3343 -0.6919
  650MOL0     O89570   7.198   4.393   3.405 -0.5977 -0.3649 -0.2589
  650MOL0     C89571   7.286   4.464   3.315  0.6094  0.2314 -0.2004
  650MOL0     C89572   7.224   4.597   3.298  0.7975  0.1857 -0.2363
  650MOL0     C89573   7.269   4.693   3.415  0.1868 -0.1255  0.1462
  650MOL0     C89574   7.250   4.833   3.357 -0.9579 -0.5722  0.3923
  650MOL0     C89575   7.310   4.943   3.432 -0.2283  0.0435 -0.0459
  650MOL0     C89576   7.275   5.080   3.373 -0.3005  0.2413 -0.1441
  650MOL0     C89577   7.127   5.115   3.390 -0.1116  0.0427  0.5340
  650MOL0     C89578   7.120   5.269   3.362 -0.4644  0.2356  0.2985
  650MOL0     N89579   6.983   5.310   3.371 -0.8655  0.0005 -0.5815
  650MOL0     C89580   6.905   5.352   3.267  0.2287 -0.2546  0.0880
  650MOL0     C89581   6.792   5.409   3.322 -0.3775 -0.0693  0.4419
  650MOL0     C89582   6.698   5.507   3.258  0.1430 -0.2973  0.5112
  650MOL0     C89583   6.602   5.580   3.361 -0.4187  0.1702  1.3055
  650MOL0     C89584   6.512   5.675   3.279 -0.2646 -0.4813 -0.2938
  650MOL0     C89585   6.402   5.752   3.365  0.0800 -0.4104 -0.3320
  650MOL0     O89586   6.325   5.830   3.278 -0.3848  0.1151 -0.3563
  650MOL0     C89587   6.231   5.909   3.336  0.6124 -0.3275 -0.0497
  650MOL0     C89588   6.199   6.003   3.243  0.3082 -0.1960 -0.3224
  650MOL0     C89589   6.087   6.091   3.259 -0.6911  0.0876  0.3707
  650MOL0     C89590   6.069   6.202   3.155 -0.5747  0.4080 -0.4145
  650MOL0     C89591   6.010   6.082   3.382 -0.2120  0.1749 -0.0593
  650MOL0     C89592   5.905   6.173   3.419 -0.2847 -0.0275  0.5760
  650MOL0     O89593   5.888   6.203   3.550  0.3104 -1.0617 -0.3976
  650MOL0     C89594   5.754   6.230   3.588 -0.0182  0.1118  0.0657
  650MOL0     C89595   5.654   6.127   3.599 -1.6710 -0.2955  0.1977
  650MOL0     C89596   5.525   6.163   3.626  0.0547 -0.8330  0.9437
  650MOL0     C89597   5.496   6.298   3.631 -0.1201 -0.6873 -0.5979
  650MOL0     O89598   5.363   6.337   3.650 -0.6859  0.2018 -0.2684
  650MOL0     C89599   5.313   6.469   3.683  0.5963  0.7467 -0.2436
  650MOL0     C89600   5.174   6.447   3.725  0.7540 -0.4083  0.0199
  650MOL0     C89601   5.129   6.560   3.808  0.9078 -0.4373  0.8428
  650MOL0     C89602   4.997   6.533   3.871  0.0634 -0.7002 -0.1270
  650MOL0     C89603   4.894   6.544   3.770  0.1910  0.3138 -0.1710
  650MOL0     C89604   4.750   6.547   3.832 -0.5622  0.1166 -0.4188
  650MOL0     C89605   4.636   6.562   3.731  0.6377 -0.1543 -0.6194
  650MOL0     C89606   4.642   6.682   3.633  0.3120  0.5585 -0.4778
  650MOL0    Cl89607   4.627   6.835   3.715  0.0691  0.2027 -0.1876
  650MOL0     C89608   5.593   6.400   3.615 -0.4523 -0.3488 -0.1560
  650MOL0     C89609   5.726   6.361   3.588  0.8344 -0.4613  0.6737
  650MOL0     O89610   5.831   6.214   3.333  0.0708 -0.2662  0.8796
  650MOL0     C89611   6.045   5.981   3.480 -0.6698 -0.0857  0.5029
  650MOL0     C89612   6.162   5.896   3.458  0.2075 -0.4962 -0.5322
  650MOL0     N89613   6.814   5.399   3.458 -0.3827  0.2559 -0.9214
  650MOL0     N89614   6.924   5.332   3.483  0.5349  1.3971 -0.5656
  650MOL0     C89615   7.289   4.171   3.447 -0.2970  0.1653 -1.0202
  650MOL0     C89616   7.328   4.070   3.540 -0.2959  0.6476  0.0241
  650MOL0     C89617   7.354   3.777   3.847  1.0810 -0.0817  0.4778
  650MOL0     C89618   7.488   3.737   3.808 -0.0651 -1.0616 -0.1247
  650MOL0     C89619   7.545   3.615   3.825 -0.4627 -0.5384 -0.9421
  650MOL0     C89620   7.481   3.522   3.903  0.6117  0.4397 -0.4666
  650MOL0     O89621   7.531   3.407   3.943 -0.3590  0.1307 -0.6665
  650MOL0     C89622   7.662   3.366   3.889 -0.3551 -0.0046 -0.6197
  650MOL0     C89623   7.648   3.282   3.757  0.2870  0.8909 -0.9413
  650MOL0     C89624   7.541   3.167   3.756 -0.1152  0.4921 -0.5645
  650MOL0     C89625   7.512   3.120   3.617  0.6581 -0.3225 -0.0682
  650MOL0     C89626   7.374   3.063   3.607 -0.2535  0.1821  0.5415
  650MOL0     C89627   7.269   3.006   3.588 -0.0690 -0.1814 -0.0031
  650MOL0     C89628   7.346   3.548   3.943 -0.0217  0.9820  1.4151
  650MOL0     C89629   7.282   3.666   3.906  0.3244 -0.7052 -0.5271
  650MOL0     C89630   7.143   3.684   3.963  1.8490 -0.6407 -0.2614
  650MOL0     H89631   7.319   4.261   3.821 -2.2514  1.9209  0.3163
  650MOL0     H89632   7.252   4.434   3.643 -2.2410 -1.1746  2.2262
  650MOL0     H89633   7.277   4.414   3.218  1.2905  0.9681 -0.6534
  650MOL0     H89634   7.392   4.459   3.338  0.7803  0.2099 -0.9619
  650MOL0     H89635   7.265   4.632   3.203  1.6649 -1.4313 -0.4988
  650MOL0     H89636   7.115   4.589   3.301  0.8045  0.4072  1.9221
  650MOL0     H89637   7.199   4.670   3.496  0.6624 -2.5725 -0.0480
  650MOL0     H89638   7.370   4.671   3.451 -0.3155 -0.9625  1.0965
  650MOL0     H89639   7.312   4.838   3.267 -0.2102 -0.5776  0.8944
  650MOL0     H89640   7.143   4.848   3.338 -0.5799 -1.7152 -3.4727
  650MOL0     H89641   7.419   4.934   3.442 -0.0947 -0.5270 -1.7761
  650MOL0     H89642   7.265   4.947   3.532  2.4821 -0.5740  1.2953
  650MOL0     H89643   7.341   5.152   3.423  1.6200  0.3807 -2.6691
  650MOL0     H89644   7.317   5.097   3.273  0.6235  0.1035  0.2095
  650MOL0     H89645   7.106   5.101   3.497  3.0679  1.5466  1.4826
  650MOL0     H89646   7.067   5.055   3.321  1.6055 -4.0672  2.2654
  650MOL0     H89647   7.189   5.313   3.435  1.0493  0.5246 -1.2396
  650MOL0     H89648   7.159   5.284   3.261  0.5695  0.2620  0.6949
  650MOL0     H89649   6.929   5.350   3.161 -0.8510 -2.0569 -0.1694
  650MOL0     H89650   6.637   5.454   3.183  1.6552 -0.2486 -0.8190
  650MOL0     H89651   6.764   5.576   3.205  1.2170 -0.8596  1.0785
  650MOL0     H89652   6.527   5.512   3.403 -2.4262  1.1533 -0.5102
  650MOL0     H89653   6.663   5.627   3.439  0.6704 -2.1337  1.9244
  650MOL0     H89654   6.584   5.744   3.234  1.8180 -2.9915 -1.0357
  650MOL0     H89655   6.465   5.620   3.197 -2.8932  1.1988 -0.0116
  650MOL0     H89656   6.335   5.682   3.415  0.1729 -0.6736 -0.5765
  650MOL0     H89657   6.444   5.818   3.442 -1.3188  1.7871 -1.3421
  650MOL0     H89658   6.263   6.019   3.157 -0.6776  1.8467 -0.7413
  650MOL0     H89659   6.111   6.179   3.056  2.2807 -0.8066  0.9624
  650MOL0     H89660   6.124   6.288   3.194  2.4891 -1.7755  0.5209
  650MOL0     H89661   5.967   6.223   3.124 -0.7442  0.0626 -0.0946
  650MOL0     H89662   5.683   6.024   3.580  1.0103  0.4466 -0.0523
  650MOL0     H89663   5.445   6.089   3.623  0.3131 -1.1292 -1.8487
  650MOL0     H89664   5.364   6.509   3.771 -2.1622  1.9234  0.9421
  650MOL0     H89665   5.318   6.532   3.594  0.4071  0.1282 -0.7025
  650MOL0     H89666   5.106   6.431   3.641  1.1916 -1.1818 -0.1969
  650MOL0     H89667   5.156   6.361   3.791  0.6016 -0.0282  0.4780
  650MOL0     H89668   5.110   6.648   3.746  2.2083 -0.3725  0.5197
  650MOL0     H89669   5.205   6.588   3.882  0.4547  0.2270  1.0638
  650MOL0     H89670   4.979   6.612   3.945  0.8972 -2.5283  2.1599
  650MOL0     H89671   4.994   6.444   3.935 -0.4687  0.5161  1.5922
  650MOL0     H89672   4.910   6.643   3.726 -0.5713  1.9679  2.9514
  650MOL0     H89673   4.898   6.471   3.689  0.1304 -0.9549  0.9428
  650MOL0     H89674   4.743   6.635   3.896 -2.7308  0.2498 -0.7390
  650MOL0     H89675   4.740   6.457   3.893  0.9434 -2.5445 -3.7691
  650MOL0     H89676   4.546   6.566   3.793  1.9817 -0.9121  1.4572
  650MOL0     H89677   4.628   6.477   3.663 -2.7554 -1.5314  1.2767
  650MOL0     H89678   4.553   6.678   3.570 -1.7011  0.1199  2.2209
  650MOL0     H89679   4.734   6.669   3.575  0.1610  0.4326 -0.6897
  650MOL0     H89680   5.573   6.504   3.639 -2.1835 -0.9844  1.4276
  650MOL0     H89681   5.806   6.435   3.587 -0.3031  0.8168  1.0263
  650MOL0     H89682   5.983   5.973   3.568  2.0426  1.5155  2.6982
  650MOL0     H89683   6.186   5.826   3.537  0.5274 -1.9943 -1.9203
  650MOL0     H89684   7.272   4.140   3.344  1.2175 -0.5188 -1.0803
  650MOL0     H89685   7.344   3.969   3.506 -0.6168 -0.3455  2.6141
  650MOL0     H89686   7.546   3.820   3.769 -0.7724 -0.3301  0.3383
  650MOL0     H89687   7.643   3.598   3.781 -0.6002  0.6541 -1.7714
  650MOL0     H89688   7.727   3.454   3.894  0.4530 -0.6710  1.6909
  650MOL0     H89689   7.717   3.297   3.954  0.9136  1.4108 -0.1535
  650MOL0     H89690   7.739   3.227   3.733 -2.0022 -1.9935 -3.9705
  650MOL0     H89691   7.625   3.355   3.679  2.5307  5.4412  2.1735
  650MOL0     H89692   7.567   3.074   3.806 -2.8235 -1.1266 -1.9116
  650MOL0     H89693   7.458   3.206   3.815  0.0617 -0.4128  0.2999
  650MOL0     H89694   7.589   3.047   3.590  0.3772 -1.6175  2.4049
  650MOL0     H89695   7.506   3.198   3.539 -0.0409  1.5588  1.7694
  650MOL0     H89696   7.186   2.941   3.570  0.5495 -1.6832  2.1381
  650MOL0     H89697   7.285   3.475   3.996 -0.3678  1.9713  2.4148
  650MOL0     H89698   7.071   3.714   3.886  4.2534  0.2669 -2.2641
  650MOL0     H89699   7.105   3.585   3.991 -2.7237  1.0672  0.4011
  650MOL0     H89700   7.135   3.756   4.045 -0.6474 -0.5426 -0.4900
  651MOL0     O89701  11.288   1.944   7.239 -0.3388 -0.5363 -0.4014
  651MOL0     C89702  11.246   2.050   7.188  0.3165 -0.4060  0.6567
  651MOL0     O89703  11.316   2.167   7.146 -0.3232 -0.2538  0.6734
  651MOL0     C89704  11.454   2.178   7.179  0.5847 -0.3609 -0.3409
  651MOL0     C89705  11.494   2.209   7.313  0.5298  0.0871  0.0103
  651MOL0     C89706  11.629   2.243   7.344  0.0506 -0.0176  0.1370
  651MOL0     C89707  11.726   2.217   7.242  0.5818  0.8364  0.7724
  651MOL0     O89708  11.859   2.224   7.264 -0.3144  0.6464  0.6504
  651MOL0     C89709  11.919   2.128   7.343 -0.6126  0.0593  0.6467
  651MOL0     C89710  12.063   2.172   7.371  1.4353  0.0134  0.8709
  651MOL0     C89711  12.149   2.066   7.444 -0.3987  0.2096 -0.0897
  651MOL0     C89712  12.188   1.959   7.343  0.6843 -0.7281  0.6712
  651MOL0     C89713  12.281   1.850   7.398 -0.5630  0.6556  0.3189
  651MOL0     C89714  12.362   1.780   7.285  0.1863  0.3800 -0.0311
  651MOL0     C89715  12.283   1.736   7.163  0.2680 -0.1608  0.3670
  651MOL0     C89716  12.345   1.610   7.098 -0.2354  0.0478  0.1147
  651MOL0     N89717  12.485   1.647   7.040  0.2781  0.2161  0.2433
  651MOL0     C89718  12.501   1.735   6.929 -0.3664 -0.6411 -0.1715
  651MOL0     C89719  12.633   1.733   6.902 -0.0738  0.3760  0.4251
  651MOL0     C89720  12.707   1.807   6.781  0.3683  0.8475 -0.4060
  651MOL0     C89721  12.796   1.916   6.839 -0.5173  0.1624  0.0016
  651MOL0     C89722  12.841   1.990   6.712 -0.2910  0.4299 -0.3642
  651MOL0     C89723  12.969   2.070   6.743  0.3771  0.2201  0.0216
  651MOL0     O89724  12.992   2.156   6.636  0.1390  0.4518  0.3000
  651MOL0     C89725  13.120   2.202   6.616 -0.7545 -0.3829  0.5606
  651MOL0     C89726  13.211   2.244   6.709 -0.6253 -0.5568  0.6425
  651MOL0     C89727  13.326   2.325   6.676  0.4540  0.2499  0.1128
  651MOL0     C89728  13.390   2.395   6.802 -0.0486 -0.0134  0.5462
  651MOL0     C89729  13.356   2.344   6.540  0.6718 -0.3092 -0.2959
  651MOL0     C89730  13.477   2.411   6.497  1.1452  0.4415  0.3610
  651MOL0     O89731  13.510   2.397   6.363 -0.4027  0.1987 -0.8389
  651MOL0     C89732  13.639   2.426   6.327  0.2755 -0.2219  1.3953
  651MOL0     C89733  13.705   2.332   6.246 -0.3332 -0.8797 -0.1364
  651MOL0     C89734  13.837   2.350   6.201 -0.3344  0.2554 -0.4355
  651MOL0     C89735  13.901   2.464   6.244  0.0993 -0.1102 -0.0749
  651MOL0     O89736  14.027   2.489   6.211 -0.6414 -0.6372 -0.3527
  651MOL0     C89737  14.125   2.386   6.202  0.0571 -0.4921  0.2192
  651MOL0     C89738  14.265   2.442   6.200  0.0951 -0.0195 -0.4518
  651MOL0     C89739  14.370   2.346   6.247  0.2607 -0.4671  0.2688
  651MOL0     C89740  14.519   2.372   6.208 -0.4309 -1.2487  0.1289
  651MOL0     C89741  14.568   2.510   6.268  0.2038 -0.8691  0.5197
  651MOL0     C89742  14.722   2.535   6.277 -0.1171 -0.0057  0.8643
  651MOL0     C89743  14.747   2.689   6.299  0.6780 -0.0536 -0.1611
  651MOL0     C89744  14.891   2.738   6.295  0.4708 -0.3997 -0.6523
  651MOL0    Cl89745  14.952   2.722   6.122 -0.2371 -0.0194 -0.0006
  651MOL0     C89746  13.840   2.553   6.319 -0.3213  0.4006  0.1619
  651MOL0     C89747  13.708   2.546   6.356 -0.0475 -0.2112  0.3494
  651MOL0     O89748  13.536   2.476   6.578 -0.0721 -0.0464 -0.1111
  651MOL0     C89749  13.282   2.280   6.440 -0.1332  0.8687  0.2896
  651MOL0     C89750  13.157   2.216   6.480  0.6918 -0.6371  0.5511
  651MOL0     N89751  12.690   1.630   6.976 -0.3381  0.2644 -0.4823
  651MOL0     N89752  12.606   1.574   7.062  0.4017  0.2267 -0.4319
  651MOL0     C89753  11.690   2.157   7.118 -0.0396 -1.0577  1.0247
  651MOL0     C89754  11.553   2.145   7.090  0.1618 -0.2094  0.7461
  651MOL0     C89755  11.100   2.050   7.151  0.2729 -0.6153 -0.8265
  651MOL0     C89756  11.040   2.162   7.096  0.5066  0.1960  0.2718
  651MOL0     C89757  10.908   2.170   7.056 -0.2549  0.8500  0.9079
  651MOL0     C89758  10.823   2.062   7.064 -0.3405  1.0199 -0.8864
  651MOL0     O89759  10.701   2.071   7.012  0.5012  0.3410  0.4749
  651MOL0     C89760  10.610   1.961   6.986 -0.1220  0.1809 -0.2586
  651MOL0     C89761  10.481   2.030   6.945  0.7897 -0.1004  0.2552
  651MOL0     C89762  10.397   2.111   7.049  0.3650 -0.0294  0.8600
  651MOL0     C89763  10.248   2.110   7.012  0.1541 -0.7973 -0.0319
  651MOL0     C89764  10.171   2.179   7.117 -0.8167  0.0114 -0.0823
  651MOL0     C89765  10.101   2.242   7.194 -0.2806 -0.3197  0.1174
  651MOL0     C89766  10.877   1.939   7.120  0.2708  0.6811 -0.1142
  651MOL0     C89767  11.010   1.933   7.155 -0.4843 -0.0781  0.5336
  651MOL0     C89768  11.047   1.804   7.225  0.1091 -0.5254  0.8192
  651MOL0     H89769  11.418   2.194   7.389 -0.3095  1.9969 -0.4031
  651MOL0     H89770  11.662   2.269   7.444  1.3674 -2.6719  0.4712
  651MOL0     H89771  11.917   2.030   7.295  0.7683  0.6390 -0.6819
  651MOL0     H89772  11.865   2.129   7.439 -5.3945  0.7433 -1.7649
  651MOL0     H89773  12.107   2.199   7.274  0.0175  1.0785  0.4795
  651MOL0     H89774  12.058   2.263   7.431  2.0650  0.7438 -0.1431
  651MOL0     H89775  12.237   2.111   7.490 -0.5520 -0.3099  0.7428
  651MOL0     H89776  12.095   2.016   7.525  1.3226  1.0648  1.6507
  651MOL0     H89777  12.093   1.916   7.310 -0.0818  1.0268  0.4769
  651MOL0     H89778  12.235   2.006   7.257  0.5353  0.8071  1.3938
  651MOL0     H89779  12.224   1.767   7.441 -0.7436  2.0958  3.0681
  651MOL0     H89780  12.346   1.890   7.476 -0.7485 -0.5668  1.1309
  651MOL0     H89781  12.439   1.848   7.246 -1.4576  1.9382 -0.6678
  651MOL0     H89782  12.420   1.705   7.339  1.4841  1.3807  0.0232
  651MOL0     H89783  12.283   1.819   7.093  2.3394 -0.4172 -0.0025
  651MOL0     H89784  12.182   1.707   7.193  0.5486 -2.3973 -0.5972
  651MOL0     H89785  12.351   1.528   7.170 -0.2303  0.8351  1.0322
  651MOL0     H89786  12.282   1.573   7.016 -0.1644  1.8869 -0.8415
  651MOL0     H89787  12.423   1.783   6.871  0.9316  2.5260  0.5458
  651MOL0     H89788  12.639   1.848   6.706  0.2852 -1.0745 -1.4498
  651MOL0     H89789  12.762   1.724   6.735 -2.9719 -1.2435 -1.0562
  651MOL0     H89790  12.742   1.996   6.890 -0.5630  2.4886 -3.3490
  651MOL0     H89791  12.871   1.877   6.908 -2.2863 -1.9567  0.8291
  651MOL0     H89792  12.863   1.916   6.634 -3.4612 -1.6453  0.5535
  651MOL0     H89793  12.753   2.048   6.682 -0.9633 -0.5454 -0.3209
  651MOL0     H89794  12.944   2.126   6.833 -0.1587  0.2282 -0.1280
  651MOL0     H89795  13.053   2.001   6.758 -1.4255 -2.1243 -0.0442
  651MOL0     H89796  13.186   2.228   6.814  0.5484 -0.2052  0.9903
  651MOL0     H89797  13.367   2.500   6.781 -0.3324 -0.2686 -0.4969
  651MOL0     H89798  13.498   2.378   6.804  0.0314  0.4229  0.1660
  651MOL0     H89799  13.351   2.358   6.897  3.1251  0.5015  2.2008
  651MOL0     H89800  13.649   2.246   6.210  0.8332 -1.4882 -0.5668
  651MOL0     H89801  13.894   2.277   6.145  0.7753  0.7295  0.0538
  651MOL0     H89802  14.123   2.315   6.285 -0.8861 -0.0045  0.6316
  651MOL0     H89803  14.112   2.339   6.104  1.0446 -1.9215  0.7428
  651MOL0     H89804  14.278   2.469   6.095  5.0417  0.2754 -0.0469
  651MOL0     H89805  14.269   2.534   6.261  2.5834 -0.7987  0.7240
  651MOL0     H89806  14.345   2.255   6.191  1.0147  1.5820 -3.7188
  651MOL0     H89807  14.362   2.338   6.356 -0.0085 -3.9045  0.1030
  651MOL0     H89808  14.518   2.370   6.098  1.3116 -2.2064  0.0794
  651MOL0     H89809  14.584   2.287   6.233  0.7883 -0.8632 -1.5063
  651MOL0     H89810  14.524   2.586   6.203 -0.1583  0.4773  2.2736
  651MOL0     H89811  14.525   2.513   6.369 -0.0926 -4.7208  0.6747
  651MOL0     H89812  14.771   2.511   6.183  0.5312  1.0866  0.9146
  651MOL0     H89813  14.766   2.466   6.350 -2.0653 -2.0655  0.2352
  651MOL0     H89814  14.698   2.727   6.389 -2.2892 -3.2892 -0.2332
  651MOL0     H89815  14.697   2.745   6.220 -4.5108  0.5619  3.1075
  651MOL0     H89816  14.948   2.677   6.366 -1.0000 -2.0373 -0.8099
  651MOL0     H89817  14.890   2.843   6.327  0.7529 -0.6410  0.1699
  651MOL0     H89818  13.886   2.648   6.346  0.1107  0.4901 -0.8574
  651MOL0     H89819  13.664   2.613   6.428 -2.7561 -1.7479  0.2248
  651MOL0     H89820  13.298   2.289   6.333  1.3724  3.5753  0.6419
  651MOL0     H89821  13.081   2.195   6.405 -0.3923  2.4309  0.6238
  651MOL0     H89822  11.770   2.116   7.056  1.3089 -0.7028  2.4736
  651MOL0     H89823  11.519   2.127   6.988  0.8573  1.9544  0.0636
  651MOL0     H89824  11.087   2.259   7.087  1.1657  0.0213  1.5008
  651MOL0     H89825  10.870   2.259   7.007 -0.7087  0.9103  1.3676
  651MOL0     H89826  10.649   1.897   6.907  2.4870  1.0233  0.2212
  651MOL0     H89827  10.597   1.905   7.079 -0.0058  0.3180 -0.1577
  651MOL0     H89828  10.408   1.951   6.922  0.2862 -0.0579  1.6188
  651MOL0     H89829  10.493   2.087   6.853 -1.3764 -1.0757 -0.7317
  651MOL0     H89830  10.411   2.053   7.141 -0.0207  0.4606  1.2337
  651MOL0     H89831  10.444   2.209   7.065 -0.3386  0.1178  2.1718
  651MOL0     H89832  10.218   2.005   7.005 -0.5065 -0.7468  1.6369
  651MOL0     H89833  10.227   2.170   6.923  2.4485  2.7669  1.5853
  651MOL0     H89834  10.049   2.299   7.269  0.5002 -0.0664  0.4757
  651MOL0     H89835  10.806   1.857   7.124  2.3126 -1.1715  1.1008
  651MOL0     H89836  11.058   1.819   7.332  0.5362  0.3939  0.6612
  651MOL0     H89837  10.961   1.737   7.211  1.3256 -1.9916  0.0982
  651MOL0     H89838  11.128   1.745   7.182 -0.8912 -1.3206 -0.0473
  652MOL0     O89839  10.576   5.044  10.926  0.8079 -0.7366 -0.2787
  652MOL0     C89840  10.459   5.029  10.966 -0.0169  0.6978  0.6333
  652MOL0     O89841  10.409   4.908  11.022  0.2050  0.4620  0.4547
  652MOL0     C89842  10.504   4.811  11.052  1.1563 -0.2837  0.4770
  652MOL0     C89843  10.525   4.697  10.974  0.3387  0.0356  0.0927
  652MOL0     C89844  10.604   4.590  11.017 -0.0194  0.8497  0.2581
  652MOL0     C89845  10.678   4.615  11.135  0.1984 -0.4093 -0.0971
  652MOL0     O89846  10.762   4.523  11.188 -0.5168  0.1945  0.4539
  652MOL0     C89847  10.711   4.382  11.182 -0.1134  0.1150  0.3885
  652MOL0     C89848  10.737   4.317  11.318 -0.7996  0.2969 -0.0183
  652MOL0     C89849  10.889   4.326  11.353 -0.1787 -1.2091  0.0441
  652MOL0     C89850  10.932   4.268  11.484 -1.0509  0.1880 -0.5555
  652MOL0     C89851  11.080   4.266  11.510 -0.0114  0.0303  0.2195
  652MOL0     C89852  11.113   4.188  11.637 -0.0350 -0.0472 -0.1607
  652MOL0     C89853  11.264   4.168  11.656  0.0422  0.2064 -0.0769
  652MOL0     C89854  11.338   4.073  11.562 -0.2874  0.0075  0.5640
  652MOL0     N89855  11.476   4.054  11.610  0.0500 -0.1026 -0.1519
  652MOL0     C89856  11.507   3.965  11.712 -0.3494 -0.3143  0.2203
  652MOL0     C89857  11.642   3.952  11.715 -0.5994  0.4572  0.1904
  652MOL0     C89858  11.722   3.863  11.805 -0.3375 -0.6871  0.5207
  652MOL0     C89859  11.635   3.808  11.915  0.8251  0.6872 -0.0371
  652MOL0     C89860  11.715   3.711  12.012  0.5973  0.4210  0.4238
  652MOL0     C89861  11.841   3.771  12.069 -0.0505 -0.1579 -0.0674
  652MOL0     O89862  11.804   3.891  12.129  0.5874 -0.1314  0.2369
  652MOL0     C89863  11.911   3.982  12.140  0.2647  0.2633 -0.2281
  652MOL0     C89864  11.872   4.117  12.143 -0.4282 -0.4736  0.6288
  652MOL0     C89865  11.967   4.218  12.146  0.5009 -0.0652  0.7900
  652MOL0     C89866  11.912   4.354  12.143  0.3565 -0.2176  0.1842
  652MOL0     C89867  12.100   4.186  12.130 -0.3900  0.0302 -0.6254
  652MOL0     C89868  12.210   4.281  12.117 -0.0566 -0.2581 -0.1454
  652MOL0     O89869  12.333   4.255  12.166  0.2677  0.3467  0.8763
  652MOL0     C89870  12.435   4.343  12.185 -0.1074 -0.3111 -0.9003
  652MOL0     C89871  12.560   4.290  12.239 -0.2601  0.1463  0.6278
  652MOL0     C89872  12.663   4.375  12.286 -0.1002  0.7340  0.0992
  652MOL0     C89873  12.654   4.515  12.268  1.0008  0.6688  0.6235
  652MOL0     O89874  12.752   4.604  12.306  0.3178 -0.4636  0.2155
  652MOL0     C89875  12.876   4.570  12.247 -0.4164 -0.5976  0.0030
  652MOL0     C89876  12.980   4.597  12.363 -1.0752  0.3481 -0.3554
  652MOL0     C89877  13.117   4.572  12.309  0.0054  0.6438  0.4538
  652MOL0     C89878  13.229   4.623  12.394  0.3086 -0.5367  0.1030
  652MOL0     C89879  13.360   4.639  12.315 -0.3019 -0.3046 -0.3159
  652MOL0     C89880  13.445   4.754  12.342  0.0988 -0.1600 -0.7908
  652MOL0     C89881  13.586   4.738  12.285 -0.3409  1.0112 -0.8652
  652MOL0     C89882  13.668   4.865  12.309 -0.0105  0.0704  0.0690
  652MOL0    Cl89883  13.837   4.848  12.228  0.1854 -0.1453 -0.3885
  652MOL0     C89884  12.541   4.558  12.194 -0.6291  0.1518 -1.1495
  652MOL0     C89885  12.428   4.484  12.165 -0.0597  0.6062 -0.0626
  652MOL0     O89886  12.186   4.382  12.054 -0.4443 -0.2632  0.4960
  652MOL0     C89887  12.142   4.051  12.114  0.9507 -0.3466  0.0281
  652MOL0     C89888  12.047   3.949  12.141 -0.1633  0.3383  1.1450
  652MOL0     N89889  11.692   4.033  11.617  0.3326  0.2327  0.7427
  652MOL0     N89890  11.597   4.093  11.550  0.3827 -0.4732  0.5633
  652MOL0     C89891  10.675   4.736  11.210 -0.3084 -0.1437  0.4784
  652MOL0     C89892  10.583   4.825  11.167  0.1531 -0.4046  0.5590
  652MOL0     C89893  10.357   5.135  10.945 -0.7517  0.3319  0.5749
  652MOL0     C89894  10.224   5.104  10.924  0.0606  0.1260  1.0034
  652MOL0     C89895  10.129   5.207  10.894 -0.0663 -0.4396  0.7649
  652MOL0     C89896  10.157   5.337  10.904  0.4376 -0.6777  0.0260
  652MOL0     O89897  10.055   5.425  10.881 -0.2251  0.5858 -0.0775
  652MOL0     C89898  10.096   5.564  10.845  0.0537  0.5196 -0.3852
  652MOL0     C89899   9.962   5.640  10.857 -0.7619 -0.1218  0.1393
  652MOL0     C89900   9.967   5.769  10.772 -0.9145  0.0188  0.5925
  652MOL0     C89901   9.863   5.871  10.817 -0.9024 -0.5577 -0.1007
  652MOL0     C89902   9.732   5.807  10.794 -0.6216 -0.3864  0.1959
  652MOL0     C89903   9.625   5.775  10.756  1.1240 -0.1882 -0.2084
  652MOL0     C89904  10.298   5.373  10.923  0.4820 -0.0276  0.8311
  652MOL0     C89905  10.392   5.272  10.936  0.6506  0.1214  0.9368
  652MOL0     C89906  10.530   5.329  10.951  0.0537 -0.0887  0.2633
  652MOL0     H89907  10.457   4.688  10.890 -0.1914 -2.6574  0.6913
  652MOL0     H89908  10.603   4.506  10.948 -0.2295  0.7242  0.4136
  652MOL0     H89909  10.769   4.337  11.100 -1.1400 -2.0450  0.7786
  652MOL0     H89910  10.604   4.373  11.159 -0.4861  2.0252  1.1762
  652MOL0     H89911  10.686   4.381  11.391 -0.3756  1.5547 -0.8004
  652MOL0     H89912  10.688   4.220  11.331 -2.4262  0.6888 -2.6005
  652MOL0     H89913  10.943   4.277  11.271  1.8636  0.6838  0.1728
  652MOL0     H89914  10.914   4.432  11.360  1.1740 -1.5413  0.4416
  652MOL0     H89915  10.884   4.318  11.569  2.5927  0.2110  1.7279
  652MOL0     H89916  10.904   4.163  11.478 -1.3136  0.1765  0.5577
  652MOL0     H89917  11.115   4.369  11.508  0.1960 -0.0518 -1.3786
  652MOL0     H89918  11.127   4.223  11.422 -1.9565  0.3313 -1.0456
  652MOL0     H89919  11.075   4.236  11.728  1.4772  2.5617 -0.7920
  652MOL0     H89920  11.077   4.086  11.622  0.1058  0.0852 -1.4808
  652MOL0     H89921  11.277   4.123  11.754  2.6110 -3.1677 -1.7850
  652MOL0     H89922  11.327   4.257  11.660  1.5156 -0.6152 -2.5896
  652MOL0     H89923  11.290   3.976  11.549 -0.8506  0.1574  1.4195
  652MOL0     H89924  11.345   4.123  11.465 -2.0316 -2.2084 -0.7910
  652MOL0     H89925  11.444   3.907  11.779  0.1270  1.3105  2.2057
  652MOL0     H89926  11.811   3.921  11.832 -0.2456  0.3458 -1.7626
  652MOL0     H89927  11.764   3.788  11.736  1.8421  2.7017 -2.1965
  652MOL0     H89928  11.593   3.895  11.965 -0.7445  0.5019 -0.9762
  652MOL0     H89929  11.553   3.749  11.874 -0.0389  2.4138 -0.8798
  652MOL0     H89930  11.645   3.685  12.091 -1.5104 -0.7037 -1.6779
  652MOL0     H89931  11.751   3.620  11.962  1.5633 -0.5365  2.7244
  652MOL0     H89932  11.889   3.701  12.138  1.3467  0.4339 -0.4008
  652MOL0     H89933  11.903   3.794  11.982 -1.4523 -2.5060 -1.7849
  652MOL0     H89934  11.765   4.134  12.144 -0.0464  2.3125  0.8758
  652MOL0     H89935  11.817   4.357  12.197 -0.4064 -3.9328 -0.6446
  652MOL0     H89936  11.895   4.376  12.037 -1.4514  1.6826  0.8143
  652MOL0     H89937  11.982   4.424  12.191 -1.2482  3.0109 -1.8620
  652MOL0     H89938  12.588   4.185  12.242  2.4204  0.8141  2.4561
  652MOL0     H89939  12.748   4.319  12.324  1.4886  3.0680  0.1999
  652MOL0     H89940  12.883   4.466  12.213  0.8715 -0.1332 -1.2611
  652MOL0     H89941  12.884   4.626  12.154 -1.6919 -1.5033 -0.6801
  652MOL0     H89942  12.972   4.705  12.379 -1.5788  0.4789 -1.4289
  652MOL0     H89943  12.961   4.545  12.457  2.4239  0.6850  0.6936
  652MOL0     H89944  13.119   4.636  12.220 -0.9745 -0.1315 -0.1588
  652MOL0     H89945  13.130   4.466  12.283 -2.8913  0.3745 -0.3301
  652MOL0     H89946  13.247   4.549  12.473  2.3491 -0.5117 -0.2640
  652MOL0     H89947  13.206   4.719  12.440  1.2877  0.2374 -0.9840
  652MOL0     H89948  13.421   4.552  12.341  1.0156  0.4429 -0.7833
  652MOL0     H89949  13.336   4.630  12.209 -0.4451 -0.1907 -0.2925
  652MOL0     H89950  13.443   4.760  12.451 -0.5883  1.9350 -0.8841
  652MOL0     H89951  13.403   4.847  12.305  2.9222  1.4322 -0.2886
  652MOL0     H89952  13.582   4.710  12.179 -1.5925 -3.2373  0.1280
  652MOL0     H89953  13.644   4.661  12.337 -3.0879  1.2547  2.9353
  652MOL0     H89954  13.680   4.882  12.416  3.2342 -0.0006 -0.1761
  652MOL0     H89955  13.624   4.955  12.264 -1.7174 -0.4157  0.7118
  652MOL0     H89956  12.530   4.665  12.175  0.3790  0.1153 -2.0303
  652MOL0     H89957  12.340   4.541  12.138 -2.5316 -1.5875  2.6354
  652MOL0     H89958  12.242   4.023  12.082  0.9217 -0.2446 -0.1534
  652MOL0     H89959  12.073   3.844  12.134 -3.2525 -0.4335 -0.4398
  652MOL0     H89960  10.748   4.765  11.285  0.5556 -0.2515 -0.3034
  652MOL0     H89961  10.565   4.917  11.222 -1.8269 -0.3266 -0.1478
  652MOL0     H89962  10.193   5.000  10.932 -1.5891  0.7114  2.9061
  652MOL0     H89963  10.028   5.178  10.867 -0.9111  1.3422  1.7809
  652MOL0     H89964  10.166   5.620  10.907 -1.1420  1.3310  0.2767
  652MOL0     H89965  10.139   5.564  10.744  1.6696  0.5889  0.2750
  652MOL0     H89966   9.944   5.652  10.965  3.8002 -0.9404  1.2228
  652MOL0     H89967   9.891   5.578  10.803 -1.4014 -0.3052  1.1605
  652MOL0     H89968  10.062   5.822  10.782  0.5608 -1.6877 -2.8554
  652MOL0     H89969   9.964   5.751  10.664 -0.6128  0.6659  0.4772
  652MOL0     H89970   9.875   5.964  10.762  2.3317 -0.3474  0.7442
  652MOL0     H89971   9.881   5.893  10.923  2.4937  0.7661 -0.8369
  652MOL0     H89972   9.530   5.750  10.714  0.3052  0.0371  1.4412
  652MOL0     H89973  10.335   5.473  10.939  0.1584 -0.0964  2.1661
  652MOL0     H89974  10.584   5.271  11.027  0.2412 -1.3894 -0.8290
  652MOL0     H89975  10.589   5.333  10.859  1.9303 -0.0374  1.4182
  652MOL0     H89976  10.522   5.431  10.990  0.0507 -0.4012  1.1109
  653MOL0     O89977   5.319   9.213  10.384 -0.0091 -0.0264  0.0775
  653MOL0     C89978   5.210   9.232  10.434 -0.2056 -0.0256  0.1646
  653MOL0     O89979   5.109   9.300  10.370  0.0769  0.2714 -0.4768
  653MOL0     C89980   5.124   9.336  10.237 -0.3339  1.1145 -0.0226
  653MOL0     C89981   5.054   9.267  10.132  0.0928 -0.0438 -0.4043
  653MOL0     C89982   5.080   9.313  10.004 -0.1533 -0.7452 -0.6266
  653MOL0     C89983   5.152   9.429   9.976 -0.2626 -0.2468 -0.3252
  653MOL0     O89984   5.171   9.474   9.848  0.6506 -0.3878  0.0379
  653MOL0     C89985   5.113   9.400   9.736  0.6123  0.3534 -0.7533
  653MOL0     C89986   5.147   9.480   9.609  0.6975  0.3943 -0.0931
  653MOL0     C89987   5.301   9.466   9.565  0.5526  0.0458 -0.2671
  653MOL0     C89988   5.312   9.401   9.433  0.4898 -0.3326  0.3438
  653MOL0     C89989   5.280   9.250   9.432  0.4177  0.2671 -0.2413
  653MOL0     C89990   5.326   9.183   9.308  0.1181  0.4240  0.2564
  653MOL0     C89991   5.289   9.249   9.169 -0.2609  0.4650 -1.2298
  653MOL0     C89992   5.312   9.144   9.050  0.2998  0.1240 -0.0306
  653MOL0     N89993   5.455   9.110   9.046  1.0117 -0.1617 -0.5145
  653MOL0     C89994   5.563   9.168   8.982 -0.5240 -0.0347 -0.2667
  653MOL0     C89995   5.660   9.072   8.970  0.8390  0.2016 -0.8443
  653MOL0     C89996   5.791   9.093   8.902 -0.3812 -0.5664 -0.0279
  653MOL0     C89997   5.876   9.175   8.991 -0.1265  0.3004 -0.2341
  653MOL0     C89998   5.983   9.263   8.907 -0.1527  0.9385 -0.7112
  653MOL0     C89999   6.069   9.173   8.804 -0.4981 -0.3593  0.6663
  653MOL0     O90000   6.204   9.218   8.786  0.0177 -0.7386 -0.0467
  653MOL0     C90001   6.297   9.190   8.879  0.3532  0.0750  0.5376
  653MOL0     C90002   6.287   9.123   9.000 -0.4367 -0.0841  0.2370
  653MOL0     C90003   6.398   9.109   9.083 -0.0568  0.3735 -0.0989
  653MOL0     C90004   6.367   9.027   9.208 -0.2472  0.5509  0.3494
  653MOL0     C90005   6.528   9.156   9.057  1.1357  0.9166 -0.4989
  653MOL0     C90006   6.655   9.133   9.131 -0.4740 -0.2172 -0.5792
  653MOL0     O90007   6.646   9.052   9.240  0.1719 -0.6812  0.0150
  653MOL0     C90008   6.752   9.013   9.317 -0.5830  0.2977 -0.0366
  653MOL0     C90009   6.725   8.986   9.443  0.3836  0.5495 -0.0123
  653MOL0     C90010   6.821   8.931   9.537  0.3221  0.5512  0.8335
  653MOL0     C90011   6.954   8.922   9.499 -0.4004 -0.5389 -0.8496
  653MOL0     O90012   7.035   8.864   9.590  0.6572 -0.5798  0.4602
  653MOL0     C90013   7.171   8.927   9.619 -0.2429 -0.1523  0.2665
  653MOL0     C90014   7.168   9.055   9.696 -0.0963 -0.3466  0.0112
  653MOL0     C90015   7.107   9.035   9.837 -0.2437 -0.0892 -0.2535
  653MOL0     C90016   7.165   9.139   9.940  0.1248  0.2459  0.1459
  653MOL0     C90017   7.131   9.088  10.075 -0.2191 -0.1037 -0.5195
  653MOL0     C90018   7.182   9.184  10.185 -0.4709 -0.3988 -0.1620
  653MOL0     C90019   7.146   9.133  10.330  0.0893 -0.1972 -0.8662
  653MOL0     C90020   6.999   9.118  10.348 -0.1907 -0.8932  1.2827
  653MOL0    Cl90021   6.915   9.282  10.328 -0.4966 -0.0217  0.1836
  653MOL0     C90022   6.995   8.962   9.373 -1.2121 -0.9709 -0.2442
  653MOL0     C90023   6.894   9.005   9.280  0.4140  0.3986  0.2145
  653MOL0     O90024   6.759   9.185   9.091  0.5181  0.0892  0.7696
  653MOL0     C90025   6.527   9.227   8.936  0.2760  0.5130  0.3892
  653MOL0     C90026   6.420   9.248   8.843 -0.1754 -0.0226 -1.1152
  653MOL0     N90027   5.613   8.959   9.038  0.6352  0.2968  0.2519
  653MOL0     N90028   5.492   8.983   9.069  0.9292 -0.1545  0.9569
  653MOL0     C90029   5.210   9.504  10.085 -0.1679  0.4697 -0.8217
  653MOL0     C90030   5.195   9.456  10.219 -0.1397 -0.7808  0.5218
  653MOL0     C90031   5.191   9.204  10.582 -0.7236  0.0416 -0.3333
  653MOL0     C90032   5.070   9.245  10.641  0.1148  0.3972  0.5119
  653MOL0     C90033   5.041   9.242  10.769  0.7146 -0.0597  0.0374
  653MOL0     C90034   5.136   9.198  10.858 -0.3298  0.5998  0.2805
  653MOL0     O90035   5.117   9.194  10.990  0.5029 -0.1807  0.0928
  653MOL0     C90036   5.112   9.316  11.070 -0.9700  0.3044  0.7227
  653MOL0     C90037   5.210   9.292  11.190  0.1549 -0.0832 -0.2779
  653MOL0     C90038   5.357   9.277  11.143  0.1916 -0.3340 -0.6325
  653MOL0     C90039   5.443   9.264  11.263  0.2787  0.0823 -0.0448
  653MOL0     C90040   5.401   9.148  11.337  0.1774  0.2195 -0.4689
  653MOL0     C90041   5.367   9.044  11.404  0.5215 -0.4270 -0.2805
  653MOL0     C90042   5.264   9.156  10.815  0.1115  0.1897 -0.2350
  653MOL0     C90043   5.285   9.157  10.676  0.4051  0.6608 -0.0039
  653MOL0     C90044   5.410   9.095  10.630 -0.4273 -0.2115  0.1411
  653MOL0     H90045   4.993   9.180  10.154  1.1012 -0.6871 -0.0923
  653MOL0     H90046   5.022   9.271   9.923  0.0137  0.8183 -1.6037
  653MOL0     H90047   5.004   9.388   9.730  0.6803  0.0307 -1.4141
  653MOL0     H90048   5.154   9.298   9.738  0.7348  0.4109  0.3950
  653MOL0     H90049   5.084   9.462   9.521  3.4936 -2.0098 -1.7741
  653MOL0     H90050   5.146   9.587   9.634  2.2674  1.1852 -2.9392
  653MOL0     H90051   5.344   9.565   9.549 -2.5754  1.3517 -1.6925
  653MOL0     H90052   5.354   9.412   9.643 -2.3459 -0.9256  1.1960
  653MOL0     H90053   5.248   9.459   9.366  2.1949  2.1616  0.7461
  653MOL0     H90054   5.411   9.416   9.389  1.4353  4.0240  3.3494
  653MOL0     H90055   5.173   9.231   9.447  1.3191 -3.6947  3.4352
  653MOL0     H90056   5.328   9.188   9.509 -0.0009 -2.3671 -1.9645
  653MOL0     H90057   5.434   9.169   9.314  0.0786 -1.3681 -1.9969
  653MOL0     H90058   5.283   9.083   9.299 -1.0137  0.6899  2.0438
  653MOL0     H90059   5.343   9.344   9.159  3.7651 -1.1436  2.1828
  653MOL0     H90060   5.181   9.267   9.169 -0.1258  1.7340  1.5625
  653MOL0     H90061   5.248   9.057   9.060 -1.9944  1.8422  1.1556
  653MOL0     H90062   5.286   9.200   8.959  0.7274 -1.6608 -1.3095
  653MOL0     H90063   5.555   9.267   8.939 -1.0913 -0.1500 -0.4382
  653MOL0     H90064   5.772   9.139   8.804 -2.2653 -0.8891  0.1506
  653MOL0     H90065   5.845   8.999   8.888  1.5771  0.6140 -0.9470
  653MOL0     H90066   5.810   9.239   9.051 -1.5437 -1.6114  0.3412
  653MOL0     H90067   5.926   9.104   9.057  0.6618  1.8326  0.8695
  653MOL0     H90068   5.922   9.340   8.858 -2.0596  1.4243  2.1605
  653MOL0     H90069   6.050   9.317   8.975 -0.7281  0.7329  0.0345
  653MOL0     H90070   6.078   9.077   8.855  1.3408  0.0977  1.2770
  653MOL0     H90071   6.014   9.167   8.710  0.1119  0.1437  0.2741
  653MOL0     H90072   6.186   9.098   9.029 -0.5683  0.5123  0.3120
  653MOL0     H90073   6.408   9.075   9.297  2.1042 -2.6156  1.1376
  653MOL0     H90074   6.393   8.921   9.205 -2.6197 -0.1153  0.8595
  653MOL0     H90075   6.258   9.026   9.218 -0.8614 -0.0786 -4.2761
  653MOL0     H90076   6.621   8.982   9.476 -0.7229  0.2002 -3.1988
  653MOL0     H90077   6.791   8.883   9.630  2.3651  1.8584  2.2295
  653MOL0     H90078   7.229   8.858   9.680  0.9390  1.0696  0.5673
  653MOL0     H90079   7.221   8.938   9.523  1.0168  2.1374  1.0957
  653MOL0     H90080   7.267   9.101   9.694 -0.8369  1.2993 -1.1741
  653MOL0     H90081   7.116   9.127   9.632 -0.9043 -0.4782  0.4994
  653MOL0     H90082   7.123   8.939   9.886  0.8572  0.8617  1.3689
  653MOL0     H90083   6.998   9.049   9.835  0.0913  3.9855 -0.1313
  653MOL0     H90084   7.129   9.241   9.925  3.4333  1.6787  1.0010
  653MOL0     H90085   7.272   9.152   9.927  0.2348 -1.2036 -0.6344
  653MOL0     H90086   7.023   9.077  10.080 -0.3671  1.5742  1.4375
  653MOL0     H90087   7.159   8.983  10.088  0.5599  0.0983 -0.4661
  653MOL0     H90088   7.149   9.288  10.173 -1.6474 -0.5890  1.1609
  653MOL0     H90089   7.289   9.197  10.169 -0.2680 -0.8201  0.8004
  653MOL0     H90090   7.169   9.203  10.411 -2.6283 -0.6895  0.4766
  653MOL0     H90091   7.200   9.039  10.344  1.4575  0.7273  0.3173
  653MOL0     H90092   6.975   9.075  10.446 -0.9493 -1.7897  0.7225
  653MOL0     H90093   6.968   9.048  10.270  1.6829 -0.2378 -0.1346
  653MOL0     H90094   7.099   8.954   9.345 -0.7604  2.2782  0.0594
  653MOL0     H90095   6.928   9.026   9.179 -2.3223 -0.2105 -0.9056
  653MOL0     H90096   6.617   9.286   8.919  0.2197  1.1489  2.0946
  653MOL0     H90097   6.439   9.310   8.756 -0.4273  1.6552 -0.0151
  653MOL0     H90098   5.275   9.589  10.068  1.4415 -0.0568  2.1086
  653MOL0     H90099   5.240   9.512  10.300  0.6966  0.6781 -0.8967
  653MOL0     H90100   4.991   9.275  10.572  1.0181  0.6901 -0.4221
  653MOL0     H90101   4.948   9.280  10.811  0.3896  0.2464 -0.9497
  653MOL0     H90102   5.131   9.409  11.015  1.3193  0.1977  1.2200
  653MOL0     H90103   5.013   9.331  11.113 -2.2253 -1.9751 -1.1471
  653MOL0     H90104   5.170   9.199  11.231  1.0553  0.8999  3.1135
  653MOL0     H90105   5.209   9.380  11.254  2.7754  0.5944 -1.0483
  653MOL0     H90106   5.376   9.200  11.068  1.1590  0.5355 -1.3021
  653MOL0     H90107   5.376   9.373  11.094 -2.0818  0.6318  0.2020
  653MOL0     H90108   5.432   9.355  11.323  0.6321  0.2860 -0.2845
  653MOL0     H90109   5.549   9.250  11.242 -0.0524 -1.3378 -0.9208
  653MOL0     H90110   5.325   8.952  11.440  1.7681 -0.4716  1.1646
  653MOL0     H90111   5.322   9.097  10.885 -0.5114  0.9441  0.9603
  653MOL0     H90112   5.376   9.026  10.552  1.8164  0.5313 -1.6097
  653MOL0     H90113   5.488   9.162  10.594 -1.2209  1.8002  1.9569
  653MOL0     H90114   5.456   9.038  10.711  1.6641 -0.2118 -0.9839
  654MOL0     O90115   4.501   6.548  10.786 -0.2692 -0.3266  0.3416
  654MOL0     C90116   4.411   6.490  10.853 -1.5199 -0.5799  1.2193
  654MOL0     O90117   4.412   6.480  10.990 -0.3860 -0.2317  0.5040
  654MOL0     C90118   4.516   6.535  11.064 -0.1802 -0.0648  0.0119
  654MOL0     C90119   4.507   6.656  11.132 -0.2572  0.6416  0.6081
  654MOL0     C90120   4.616   6.708  11.202 -0.1290  0.5139  0.0150
  654MOL0     C90121   4.737   6.635  11.217 -0.3931  0.5161 -0.4173
  654MOL0     O90122   4.848   6.679  11.283  0.2284 -0.1419  0.2158
  654MOL0     C90123   4.886   6.819  11.260  0.5764  0.7541  0.4417
  654MOL0     C90124   5.020   6.842  11.331  0.3353  0.1018  0.2837
  654MOL0     C90125   5.127   6.893  11.225 -0.2118 -0.3546  0.9080
  654MOL0     C90126   5.123   6.792  11.101 -0.0646  0.3867  0.2367
  654MOL0     C90127   5.264   6.785  11.034 -0.3938 -0.5912  0.5960
  654MOL0     C90128   5.377   6.718  11.121  0.6400 -0.5277  0.5350
  654MOL0     C90129   5.497   6.693  11.025  0.4027 -0.0622 -1.0127
  654MOL0     C90130   5.596   6.807  11.008 -0.2984 -1.0191 -0.1370
  654MOL0     N90131   5.534   6.903  10.913  0.5990  0.6135 -0.3742
  654MOL0     C90132   5.479   6.881  10.790  1.0406  0.6671 -0.2808
  654MOL0     C90133   5.437   7.000  10.745 -0.0455 -0.0216  0.0841
  654MOL0     C90134   5.366   7.027  10.617 -1.3177 -0.1230 -0.2431
  654MOL0     C90135   5.464   7.126  10.539 -0.5730  0.1972  0.8521
  654MOL0     C90136   5.541   7.060  10.427 -0.6169 -0.4553 -0.0772
  654MOL0     C90137   5.677   7.126  10.385 -0.1977 -0.2865 -0.3850
  654MOL0     O90138   5.661   7.267  10.376  0.4146 -0.7271  0.6558
  654MOL0     C90139   5.776   7.335  10.400 -0.0998 -0.0400 -0.9209
  654MOL0     C90140   5.884   7.300  10.326 -0.4187 -1.0545  0.9094
  654MOL0     C90141   6.004   7.372  10.340 -0.1222  0.3973  0.0188
  654MOL0     C90142   6.105   7.320  10.240 -0.0960  0.6118  0.6313
  654MOL0     C90143   6.020   7.465  10.446  0.2187 -0.6208  0.3629
  654MOL0     C90144   6.149   7.522  10.490 -0.6862  0.0195 -0.4799
  654MOL0     O90145   6.237   7.565  10.390  1.0177 -0.6206 -0.1282
  654MOL0     C90146   6.362   7.604  10.421 -0.2347 -0.2049  0.1184
  654MOL0     C90147   6.395   7.737  10.411  0.1043  0.0674  0.7248
  654MOL0     C90148   6.517   7.789  10.448 -0.1505  1.1248 -0.3565
  654MOL0     C90149   6.617   7.711  10.513  0.8547 -0.2919  0.5922
  654MOL0     O90150   6.742   7.746  10.550 -0.0623  0.3751 -0.8569
  654MOL0     C90151   6.760   7.888  10.560  0.3936 -0.0784 -0.0918
  654MOL0     C90152   6.892   7.912  10.621 -0.2718  0.3359 -1.0211
  654MOL0     C90153   7.013   7.889  10.531 -0.2788 -0.6740 -0.7035
  654MOL0     C90154   7.151   7.903  10.600 -0.0057 -0.3057  0.6696
  654MOL0     C90155   7.189   7.783  10.688  0.0806  0.9304  0.3991
  654MOL0     C90156   7.328   7.785  10.740 -0.1319 -0.2171 -0.9351
  654MOL0     C90157   7.434   7.736  10.629  0.2241  0.1361 -0.5874
  654MOL0     C90158   7.537   7.638  10.680 -0.3688 -0.1297 -0.8213
  654MOL0    Cl90159   7.449   7.485  10.739 -0.1424  0.2464  0.2317
  654MOL0     C90160   6.582   7.581  10.540  1.3283 -0.4656  0.2628
  654MOL0     C90161   6.455   7.526  10.497 -0.3950 -0.1653 -0.2585
  654MOL0     O90162   6.167   7.535  10.611 -0.3734  0.1151 -0.2567
  654MOL0     C90163   5.909   7.502  10.520  0.0718 -0.0380  0.0279
  654MOL0     C90164   5.786   7.439  10.499  0.7984  0.0348  0.1909
  654MOL0     N90165   5.459   7.093  10.854  0.1777  0.0807 -0.0084
  654MOL0     N90166   5.510   7.028  10.949 -0.3051  0.5473  0.7315
  654MOL0     C90167   4.733   6.506  11.156  0.3002 -0.2132 -0.1571
  654MOL0     C90168   4.627   6.461  11.074 -0.0202  0.5917  0.3612
  654MOL0     C90169   4.308   6.404  10.784  0.0840 -0.0685  0.3301
  654MOL0     C90170   4.210   6.335  10.856 -1.0482 -0.2061  0.3603
  654MOL0     C90171   4.122   6.245  10.797 -0.3070  0.6651 -0.7745
  654MOL0     C90172   4.137   6.212  10.661 -0.3770 -0.1084 -0.2144
  654MOL0     O90173   4.058   6.126  10.593 -0.2299  0.4195  0.5962
  654MOL0     C90174   3.942   6.058  10.646 -0.1248  0.3404  0.3302
  654MOL0     C90175   3.857   5.962  10.557 -0.8405  0.1163  0.7648
  654MOL0     C90176   3.729   6.025  10.493 -0.9060 -0.2706  0.2008
  654MOL0     C90177   3.629   6.060  10.602  0.0897 -0.4439 -0.6209
  654MOL0     C90178   3.523   6.153  10.575 -0.1278 -0.0495  0.7105
  654MOL0     C90179   3.428   6.219  10.529  0.8310  0.2542  0.5516
  654MOL0     C90180   4.232   6.281  10.587  0.5005  0.7957 -0.3368
  654MOL0     C90181   4.314   6.378  10.646 -0.9113 -0.8720  0.6891
  654MOL0     C90182   4.408   6.436  10.541 -0.5309 -0.7024  0.5703
  654MOL0     H90183   4.406   6.695  11.128 -1.0563 -1.3488  0.3112
  654MOL0     H90184   4.609   6.803  11.253  1.6845  0.6110  0.1587
  654MOL0     H90185   4.813   6.879  11.316  1.1222 -0.8384  3.0087
  654MOL0     H90186   4.889   6.840  11.153 -2.0402 -2.3602 -0.4082
  654MOL0     H90187   4.998   6.921  11.404 -3.6871 -1.8134  1.3958
  654MOL0     H90188   5.054   6.762  11.398  2.2184 -0.8347 -1.6922
  654MOL0     H90189   5.106   6.996  11.195 -1.0522 -1.5137 -3.2231
  654MOL0     H90190   5.230   6.894  11.262 -0.2627  0.5757  1.0573
  654MOL0     H90191   5.093   6.689  11.122 -0.0106 -0.0632 -1.7182
  654MOL0     H90192   5.062   6.839  11.024 -0.8242 -1.5255 -0.3944
  654MOL0     H90193   5.300   6.885  11.007 -1.3387 -0.5334 -0.5187
  654MOL0     H90194   5.253   6.741  10.934 -1.0010  3.1560 -1.1685
  654MOL0     H90195   5.408   6.792  11.196 -2.1432  0.1040  1.1784
  654MOL0     H90196   5.338   6.623  11.158 -0.4548 -0.2960  0.0054
  654MOL0     H90197   5.469   6.671  10.922  1.7649  2.7901 -2.1063
  654MOL0     H90198   5.553   6.605  11.056 -0.3922 -0.2202  0.0113
  654MOL0     H90199   5.614   6.863  11.100 -2.0702  3.6233 -2.3043
  654MOL0     H90200   5.690   6.773  10.963 -0.4795 -0.0383 -1.2883
  654MOL0     H90201   5.480   6.791  10.728  2.6257 -0.3595  1.1408
  654MOL0     H90202   5.270   7.077  10.630 -1.5197  0.2303 -2.5642
  654MOL0     H90203   5.335   6.936  10.564  0.3338 -1.8179  1.5674
  654MOL0     H90204   5.406   7.204  10.489  0.9171 -0.0761 -1.4695
  654MOL0     H90205   5.529   7.177  10.610  1.2348 -1.9517  0.8651
  654MOL0     H90206   5.568   6.957  10.451  1.6665  0.0479 -0.2734
  654MOL0     H90207   5.483   7.068  10.334  2.1133 -0.9845 -1.9499
  654MOL0     H90208   5.754   7.092  10.455  0.8192  0.7405 -0.9556
  654MOL0     H90209   5.718   7.082  10.293  0.0353  0.0389 -0.4385
  654MOL0     H90210   5.869   7.219  10.257 -2.6370  0.3335 -0.3733
  654MOL0     H90211   6.051   7.260  10.167  0.7803  1.3944 -0.6938
  654MOL0     H90212   6.177   7.253  10.288  0.1386 -1.6645 -2.5597
  654MOL0     H90213   6.165   7.396  10.190 -0.4459 -0.2873 -1.2371
  654MOL0     H90214   6.319   7.801  10.366 -0.3116 -0.5410  0.5554
  654MOL0     H90215   6.539   7.891  10.416 -0.5545  1.5356  0.6597
  654MOL0     H90216   6.744   7.926  10.459 -0.2040 -1.5129 -0.5554
  654MOL0     H90217   6.689   7.922  10.636  2.2920  4.5822 -0.1062
  654MOL0     H90218   6.887   8.011  10.667  0.6179 -0.7846  1.6462
  654MOL0     H90219   6.899   7.842  10.705 -2.1689 -0.3042 -1.3496
  654MOL0     H90220   7.004   7.958  10.447  0.4237  0.5576  0.1986
  654MOL0     H90221   7.020   7.786  10.494  2.4721 -1.7058  2.2185
  654MOL0     H90222   7.163   7.993  10.660  1.4415 -0.1612  0.2053
  654MOL0     H90223   7.228   7.906  10.522  0.2974 -0.5022  0.9615
  654MOL0     H90224   7.119   7.793  10.771 -2.2558 -3.5114 -0.7081
  654MOL0     H90225   7.169   7.695  10.627  0.3507  1.3427 -0.2948
  654MOL0     H90226   7.334   7.720  10.827 -2.4945 -1.3224 -1.5336
  654MOL0     H90227   7.353   7.889  10.765  0.3226 -0.8727  1.5740
  654MOL0     H90228   7.484   7.825  10.592  0.4814  0.4006  0.3776
  654MOL0     H90229   7.370   7.683  10.558 -4.0892  0.8206  2.3948
  654MOL0     H90230   7.609   7.683  10.749 -0.3712 -1.4833  0.1226
  654MOL0     H90231   7.601   7.609  10.596  3.0557  1.8073  0.9146
  654MOL0     H90232   6.648   7.513  10.592 -0.3206  0.0109  3.1685
  654MOL0     H90233   6.433   7.422  10.514 -0.7555 -0.1489 -0.6046
  654MOL0     H90234   5.917   7.569  10.605  1.4115  0.9604 -0.8194
  654MOL0     H90235   5.697   7.461  10.557  0.8011  0.6068 -0.0228
  654MOL0     H90236   4.821   6.445  11.172  0.7518  0.7778  1.3852
  654MOL0     H90237   4.634   6.365  11.025 -1.2427  0.8320 -0.3157
  654MOL0     H90238   4.207   6.345  10.965 -0.2169 -1.7655  0.5490
  654MOL0     H90239   4.052   6.201  10.867  1.3719 -0.1392  0.5035
  654MOL0     H90240   3.976   5.989  10.724 -2.6535  2.5717  3.6797
  654MOL0     H90241   3.880   6.135  10.691 -0.5563  0.9157 -1.1962
  654MOL0     H90242   3.829   5.870  10.609  0.2742  0.7237  2.5186
  654MOL0     H90243   3.910   5.923  10.470 -2.3608 -1.5951  0.5378
  654MOL0     H90244   3.753   6.120  10.445 -3.0288  0.4353  0.4254
  654MOL0     H90245   3.681   5.963  10.416 -0.7429 -0.3538  0.1651
  654MOL0     H90246   3.677   6.098  10.693  0.3558 -0.9187 -0.5609
  654MOL0     H90247   3.585   5.962  10.622  0.8563 -1.0105 -1.6301
  654MOL0     H90248   3.341   6.268  10.490 -0.7175 -0.1385  3.2715
  654MOL0     H90249   4.228   6.256  10.482 -1.5156  2.0409 -0.6081
  654MOL0     H90250   4.509   6.394  10.542 -0.4544 -0.5160  0.6863
  654MOL0     H90251   4.365   6.434  10.440  1.4416  0.1715 -0.3508
  654MOL0     H90252   4.418   6.543  10.562  2.3743 -1.3646  3.4920
  655MOL0     O90253   2.011   2.916   9.896 -0.8957 -0.1454  0.5445
  655MOL0     C90254   1.933   2.995   9.844 -0.3862  0.0889  0.2567
  655MOL0     O90255   1.973   3.127   9.802  0.5134  0.5018 -0.1585
  655MOL0     C90256   2.071   3.176   9.889 -0.8077 -0.6521  0.1047
  655MOL0     C90257   2.058   3.190  10.031 -0.9406 -0.7531  0.3419
  655MOL0     C90258   2.170   3.221  10.105 -0.2120  0.0031 -1.0961
  655MOL0     C90259   2.294   3.245  10.044 -0.6683 -0.0707 -0.4180
  655MOL0     O90260   2.411   3.283  10.110 -0.1547 -0.4609 -0.0148
  655MOL0     C90261   2.441   3.195  10.214  0.2095  0.1717 -0.4645
  655MOL0     C90262   2.521   3.261  10.330 -0.3226 -0.4929  0.6275
  655MOL0     C90263   2.564   3.160  10.435  0.8394 -1.0850 -0.1147
  655MOL0     C90264   2.642   3.223  10.549 -0.1512  0.3957 -0.2257
  655MOL0     C90265   2.739   3.120  10.616 -0.4568 -0.3125 -0.4787
  655MOL0     C90266   2.824   3.211  10.708 -0.6538 -0.1708  0.4748
  655MOL0     C90267   2.936   3.134  10.773 -0.4229 -0.7507  0.2379
  655MOL0     C90268   3.067   3.113  10.696 -0.1209  0.0453  0.4373
  655MOL0     N90269   3.150   3.230  10.674  0.0714 -0.5849  0.2639
  655MOL0     C90270   3.120   3.345  10.604 -0.2820 -0.0112 -0.2024
  655MOL0     C90271   3.231   3.422  10.617 -0.6443  0.3910  0.2393
  655MOL0     C90272   3.247   3.559  10.569 -0.0409  0.4276  0.0144
  655MOL0     C90273   3.362   3.582  10.471 -0.4176  0.4523 -0.2945
  655MOL0     C90274   3.396   3.737  10.446 -0.2204  0.0423 -0.5744
  655MOL0     C90275   3.506   3.750  10.348 -0.3321  0.0581  0.3696
  655MOL0     O90276   3.539   3.885  10.342 -0.5206  0.1747 -0.0564
  655MOL0     C90277   3.667   3.912  10.308 -0.1245 -0.6609  0.1631
  655MOL0     C90278   3.738   4.006  10.379 -0.1982 -0.7218 -0.0283
  655MOL0     C90279   3.870   4.035  10.353 -0.6441 -0.2335 -0.1681
  655MOL0     C90280   3.926   4.155  10.430  0.5108  0.3372 -0.3169
  655MOL0     C90281   3.942   3.955  10.255  0.2731  0.2144 -0.5666
  655MOL0     C90282   4.092   3.973  10.231 -1.0024 -0.0130 -0.0275
  655MOL0     O90283   4.166   4.073  10.288  0.2165 -0.8403 -1.0976
  655MOL0     C90284   4.298   4.066  10.264  0.2061 -2.2359  0.8776
  655MOL0     C90285   4.357   4.145  10.164  0.2921  0.4819 -0.3049
  655MOL0     C90286   4.493   4.138  10.143  0.1892  0.0393 -0.0926
  655MOL0     C90287   4.571   4.041  10.208  0.2230 -0.0773  0.1493
  655MOL0     O90288   4.703   4.019  10.184 -0.3381 -0.6174  0.2959
  655MOL0     C90289   4.734   4.007  10.046  0.8363 -0.8780 -0.6402
  655MOL0     C90290   4.657   3.894   9.975 -0.2463  0.6917 -0.0174
  655MOL0     C90291   4.675   3.882   9.831 -0.8608 -0.1683  0.3034
  655MOL0     C90292   4.634   3.754   9.752  0.8995  0.3615  0.4738
  655MOL0     C90293   4.721   3.701   9.640  0.7426  0.3048 -0.2101
  655MOL0     C90294   4.759   3.812   9.550  1.0212  0.3321  0.8297
  655MOL0     C90295   4.640   3.896   9.495 -1.4585 -0.0882  0.7291
  655MOL0     C90296   4.713   4.024   9.429 -0.9068 -0.7293  0.4757
  655MOL0    Cl90297   4.597   4.146   9.366 -0.5404 -0.2729 -0.0247
  655MOL0     C90298   4.507   3.963  10.301 -0.4023  0.3974 -0.3417
  655MOL0     C90299   4.380   3.982  10.333  0.0655  0.3098 -0.6563
  655MOL0     O90300   4.142   3.889  10.154 -0.2277 -0.2160 -0.6311
  655MOL0     C90301   3.862   3.866  10.180  0.1017  0.1041  0.5603
  655MOL0     C90302   3.728   3.846  10.199 -0.2191  0.9828 -0.2174
  655MOL0     N90303   3.329   3.357  10.693  0.4415 -0.2176  0.0180
  655MOL0     N90304   3.271   3.252  10.728  0.4870 -0.6579 -0.1161
  655MOL0     C90305   2.301   3.249   9.902 -0.7071  0.5185 -0.7308
  655MOL0     C90306   2.194   3.208   9.827 -0.1838 -1.0417 -0.2468
  655MOL0     C90307   1.804   2.944   9.791  0.0354  0.0296 -0.2446
  655MOL0     C90308   1.756   3.006   9.673  0.9594 -1.2802  0.0451
  655MOL0     C90309   1.636   2.973   9.611  0.4915  0.2386  0.6643
  655MOL0     C90310   1.555   2.871   9.664  0.1694 -0.1927 -0.2033
  655MOL0     O90311   1.437   2.853   9.594 -0.3274  0.2914  0.2180
  655MOL0     C90312   1.360   2.728   9.615  0.0555  0.1163 -0.3375
  655MOL0     C90313   1.250   2.698   9.512  0.5687  0.4109 -0.1517
  655MOL0     C90314   1.145   2.809   9.515 -0.0306 -0.1429 -0.3982
  655MOL0     C90315   1.053   2.800   9.400  0.9587  0.4788  0.0545
  655MOL0     C90316   0.954   2.904   9.404  0.2838 -0.3177  0.1835
  655MOL0     C90317   0.869   2.989   9.421 -0.3985 -0.7700 -0.4343
  655MOL0     C90318   1.584   2.813   9.787 -0.2053 -0.1173 -0.4979
  655MOL0     C90319   1.712   2.850   9.851 -0.0707 -0.0636 -0.0983
  655MOL0     C90320   1.758   2.769   9.967 -0.2525 -0.3604 -1.1199
  655MOL0     H90321   1.961   3.169  10.074 -0.7456 -0.4846  0.9201
  655MOL0     H90322   2.161   3.228  10.213 -2.1549 -0.6348 -1.1851
  655MOL0     H90323   2.499   3.116  10.164  1.4674  1.6397 -1.4465
  655MOL0     H90324   2.354   3.148  10.259  0.1438 -0.6173 -1.3787
  655MOL0     H90325   2.603   3.313  10.280 -2.5026 -0.1180 -2.9081
  655MOL0     H90326   2.463   3.341  10.378 -0.9805 -1.0899  0.8531
  655MOL0     H90327   2.478   3.109  10.479  0.0723 -2.1199 -2.6305
  655MOL0     H90328   2.621   3.080  10.388  1.8352 -0.2285 -0.4033
  655MOL0     H90329   2.692   3.304  10.495 -2.2026  0.5280 -2.0717
  655MOL0     H90330   2.572   3.266  10.621 -3.0289  0.1834 -2.6921
  655MOL0     H90331   2.803   3.066  10.546  1.3973 -0.4491  1.2382
  655MOL0     H90332   2.692   3.046  10.682 -1.8790  0.3025 -0.7721
  655MOL0     H90333   2.870   3.289  10.647 -1.9385 -0.3684 -0.7901
  655MOL0     H90334   2.764   3.259  10.786 -0.6827 -1.1487  1.0875
  655MOL0     H90335   2.895   3.037  10.804 -4.6309  1.0454  0.9584
  655MOL0     H90336   2.958   3.183  10.868 -1.7686  2.0535 -0.8074
  655MOL0     H90337   3.128   3.038  10.748 -1.5539 -1.3697  0.1840
  655MOL0     H90338   3.054   3.073  10.595  2.6263 -1.9273  0.7592
  655MOL0     H90339   3.031   3.366  10.544 -1.1406  0.1851  1.0986
  655MOL0     H90340   3.260   3.618  10.660 -1.5474 -2.4411  2.2592
  655MOL0     H90341   3.159   3.582  10.508 -0.9907  0.7455  1.4517
  655MOL0     H90342   3.448   3.538  10.522 -0.8850  1.3009  1.3141
  655MOL0     H90343   3.343   3.528  10.378  0.3162  2.3878 -1.6205
  655MOL0     H90344   3.304   3.787  10.414 -0.1154  0.9107  0.4386
  655MOL0     H90345   3.417   3.786  10.542  2.0708 -1.3961 -0.2572
  655MOL0     H90346   3.596   3.692  10.371 -0.0515  1.1297  2.1199
  655MOL0     H90347   3.461   3.719  10.253  0.1694 -1.3466  0.5703
  655MOL0     H90348   3.684   4.044  10.465  0.6916  0.2137  0.1302
  655MOL0     H90349   3.964   4.228  10.357 -1.4239  1.4790 -0.2549
  655MOL0     H90350   4.015   4.132  10.488  0.0203 -0.6653  0.0571
  655MOL0     H90351   3.866   4.220  10.494  3.6608  3.8539 -0.5540
  655MOL0     H90352   4.312   4.220  10.100  4.4217  1.5746 -2.2643
  655MOL0     H90353   4.539   4.212  10.079  0.8898 -1.7372 -1.7240
  655MOL0     H90354   4.714   4.102   9.996 -0.1976 -0.1760  1.0325
  655MOL0     H90355   4.842   3.991  10.036  0.8752 -0.6494 -0.5926
  655MOL0     H90356   4.693   3.807  10.030  0.3715 -0.2458 -1.8623
  655MOL0     H90357   4.551   3.910   9.998  0.3306  2.5198  1.6883
  655MOL0     H90358   4.784   3.893   9.820 -0.7009  0.5176  2.2728
  655MOL0     H90359   4.617   3.967   9.794 -1.6213  0.7428  3.3652
  655MOL0     H90360   4.532   3.769   9.715  0.7158 -0.5339  0.5941
  655MOL0     H90361   4.635   3.674   9.827  0.9037  0.4333  0.5505
  655MOL0     H90362   4.806   3.656   9.694 -0.2918  3.0629  4.2007
  655MOL0     H90363   4.671   3.617   9.591 -1.7443 -0.1107  2.7388
  655MOL0     H90364   4.809   3.759   9.468  1.4269  1.5794  0.2303
  655MOL0     H90365   4.832   3.882   9.593 -0.2711  2.0640  0.3223
  655MOL0     H90366   4.573   3.942   9.568 -0.8558  0.8080  0.7401
  655MOL0     H90367   4.581   3.833   9.428  0.3320 -1.7115  0.5900
  655MOL0     H90368   4.776   3.988   9.347 -2.1015 -3.3956  0.6293
  655MOL0     H90369   4.782   4.076   9.496 -2.0556  1.7362 -0.1695
  655MOL0     H90370   4.564   3.890  10.359 -1.6096 -0.5061 -0.2554
  655MOL0     H90371   4.334   3.926  10.414  1.1078 -3.0827 -2.1942
  655MOL0     H90372   3.907   3.805  10.103 -0.4336 -0.7604  0.9175
  655MOL0     H90373   3.677   3.772  10.137  2.0945 -1.4246  0.5340
  655MOL0     H90374   2.396   3.268   9.854  0.4821 -1.5255  0.6605
  655MOL0     H90375   2.192   3.196   9.720 -2.0508 -1.4656 -0.2086
  655MOL0     H90376   1.805   3.091   9.627 -1.4074 -0.7657 -1.6974
  655MOL0     H90377   1.613   3.028   9.520 -0.7829  0.7243  1.2535
  655MOL0     H90378   1.429   2.644   9.624 -0.2155 -0.0865 -0.1493
  655MOL0     H90379   1.312   2.731   9.713 -0.5513  0.5504 -0.6392
  655MOL0     H90380   1.211   2.599   9.539  2.2238 -0.0829  0.5794
  655MOL0     H90381   1.292   2.690   9.412  0.7812  2.2266 -0.2253
  655MOL0     H90382   1.090   2.799   9.610  0.4143 -0.5558 -0.1751
  655MOL0     H90383   1.191   2.906   9.531  0.3248 -0.3390 -0.2144
  655MOL0     H90384   1.007   2.703   9.378  0.5218  0.5447  0.6529
  655MOL0     H90385   1.106   2.820   9.307  0.6199 -2.7363 -0.9344
  655MOL0     H90386   0.818   3.069   9.470  1.1084 -0.1904  0.2695
  655MOL0     H90387   1.520   2.733   9.823  1.5416 -1.7030 -0.7576
  655MOL0     H90388   1.677   2.708  10.006  0.6510  0.3273  2.0906
  655MOL0     H90389   1.836   2.702   9.930 -0.1897 -1.1116  0.2923
  655MOL0     H90390   1.799   2.824  10.052 -0.6730 -0.2966 -0.9564
  656MOL0     O90391   3.373   9.852   1.804 -0.0412 -0.3997  0.2586
  656MOL0     C90392   3.295   9.925   1.747  0.1352 -0.3191 -0.3808
  656MOL0     O90393   3.314  10.058   1.725 -0.2830  0.4125  1.1678
  656MOL0     C90394   3.424  10.122   1.766 -0.2171 -1.3783  0.1194
  656MOL0     C90395   3.515  10.172   1.668 -0.2714  0.1689  0.1591
  656MOL0     C90396   3.630  10.245   1.708  1.2229  0.1871  0.1595
  656MOL0     C90397   3.657  10.277   1.845 -0.4206  0.6452  0.2567
  656MOL0     O90398   3.774  10.342   1.882  0.0076 -0.5739  0.1017
  656MOL0     C90399   3.812  10.448   1.790  0.7652 -0.0430 -0.0436
  656MOL0     C90400   3.900  10.561   1.852 -0.1199 -0.6114 -0.1793
  656MOL0     C90401   4.005  10.497   1.941 -0.7515  0.2057 -1.5268
  656MOL0     C90402   4.105  10.599   1.994 -0.4022  0.1851  0.3129
  656MOL0     C90403   4.237  10.529   2.025 -0.0353  0.0247 -0.2734
  656MOL0     C90404   4.346  10.618   2.083 -0.1861 -0.2086  0.2155
  656MOL0     C90405   4.473  10.537   2.103 -1.0227  0.5805 -0.3481
  656MOL0     C90406   4.583  10.634   2.141  0.2180 -0.0244 -0.3179
  656MOL0     N90407   4.709  10.569   2.190 -0.1797 -0.5088  0.2689
  656MOL0     C90408   4.820  10.542   2.121 -0.9122  0.5287 -0.6714
  656MOL0     C90409   4.898  10.472   2.202 -0.4284 -0.2441 -0.3357
  656MOL0     C90410   5.034  10.422   2.175 -0.4245 -0.1617  0.2707
  656MOL0     C90411   5.127  10.536   2.213  0.2666  0.7938 -0.0228
  656MOL0     C90412   5.271  10.488   2.225  0.0395  0.2339  0.2009
  656MOL0     C90413   5.357  10.606   2.271 -0.3124  0.1408 -0.6707
  656MOL0     O90414   5.495  10.581   2.249 -0.2792 -0.1664 -0.7553
  656MOL0     C90415   5.582  10.656   2.328  0.7762 -0.4666  0.6358
  656MOL0     C90416   5.711  10.623   2.328 -0.9198 -0.4512 -0.9139
  656MOL0     C90417   5.813  10.684   2.400  0.1086  0.1423 -0.3819
  656MOL0     C90418   5.952  10.619   2.396 -0.8123 -0.4313 -0.2412
  656MOL0     C90419   5.782  10.810   2.469  0.2594  0.1798 -0.3789
  656MOL0     C90420   5.879  10.882   2.541 -0.5531 -0.7648 -0.2242
  656MOL0     O90421   6.008  10.881   2.491 -0.5329  0.4509  0.0398
  656MOL0     C90422   6.105  10.944   2.561  0.5819 -0.1526 -0.6784
  656MOL0     C90423   6.166  10.868   2.658 -0.9712  0.5940  0.1906
  656MOL0     C90424   6.275  10.920   2.739  0.0448 -0.2790 -0.3198
  656MOL0     C90425   6.331  11.049   2.711 -0.5955 -0.6128  0.1224
  656MOL0     O90426   6.447  11.102   2.770 -0.2030  0.6176  0.1798
  656MOL0     C90427   6.466  11.247   2.795  0.0475  0.2628  0.3340
  656MOL0     C90428   6.613  11.254   2.830 -0.5138 -0.0107 -0.1584
  656MOL0     C90429   6.656  11.398   2.874 -0.2827  0.1553 -0.4224
  656MOL0     C90430   6.800  11.405   2.920  0.7634  0.1387  0.1225
  656MOL0     C90431   6.857  11.550   2.935 -0.2662 -0.4789 -0.7633
  656MOL0     C90432   6.857  11.604   3.080 -0.1222  0.0287 -1.1614
  656MOL0     C90433   6.937  11.518   3.177  0.0323  0.5384  0.0827
  656MOL0     C90434   7.094  11.545   3.179 -0.3939 -0.4181 -0.5425
  656MOL0    Cl90435   7.159  11.454   3.315 -0.0274 -0.3695  0.1625
  656MOL0     C90436   6.263  11.127   2.610 -0.0999 -0.1352 -0.9266
  656MOL0     C90437   6.147  11.080   2.536  0.3771  0.5360 -0.7521
  656MOL0     O90438   5.837  10.938   2.645  0.5394 -0.3409 -0.0501
  656MOL0     C90439   5.651  10.849   2.475  0.7211  0.6328  0.3803
  656MOL0     C90440   5.548  10.775   2.402 -0.3164 -0.5207  0.1358
  656MOL0     N90441   4.848  10.462   2.326 -0.1909 -0.2455 -0.6308
  656MOL0     N90442   4.731  10.521   2.320  0.1981 -0.5247 -0.0799
  656MOL0     C90443   3.572  10.216   1.935 -0.7412 -0.4303 -0.2719
  656MOL0     C90444   3.452  10.153   1.899  0.5248 -0.0829 -0.3129
  656MOL0     C90445   3.164   9.864   1.711 -0.6473 -0.4631  0.0108
  656MOL0     C90446   3.084   9.932   1.619 -0.2298  0.4168 -0.0721
  656MOL0     C90447   2.962   9.887   1.583 -0.4614  0.3156 -0.0693
  656MOL0     C90448   2.898   9.774   1.637  0.0935 -0.1869  0.5612
  656MOL0     O90449   2.778   9.719   1.608 -0.8882 -0.1882  0.4494
  656MOL0     C90450   2.670   9.802   1.557 -0.0513 -0.6607 -0.2168
  656MOL0     C90451   2.553   9.728   1.524 -0.6623  0.0400  0.5061
  656MOL0     C90452   2.466   9.692   1.649  0.3289 -0.2593 -0.2087
  656MOL0     C90453   2.348   9.604   1.605 -0.2352  0.0063  0.2903
  656MOL0     C90454   2.301   9.527   1.717 -0.3742  1.4850 -0.8968
  656MOL0     C90455   2.265   9.449   1.809  0.1170  0.1880  0.2184
  656MOL0     C90456   2.978   9.705   1.726 -0.3575 -0.5553 -0.5255
  656MOL0     C90457   3.112   9.741   1.759  0.6922  0.0356 -0.4003
  656MOL0     C90458   3.196   9.655   1.851  0.0418  0.2623  0.7875
  656MOL0     H90459   3.491  10.152   1.564  2.8468  1.5995 -0.9532
  656MOL0     H90460   3.695  10.277   1.627 -0.6918 -1.6560 -2.2883
  656MOL0     H90461   3.723  10.492   1.745 -1.1656 -2.1723  1.4339
  656MOL0     H90462   3.861  10.385   1.714 -0.2049 -2.2601  1.0918
  656MOL0     H90463   3.949  10.625   1.778 -0.3916  1.5409  1.3801
  656MOL0     H90464   3.842  10.626   1.918 -0.5407 -0.8388 -0.3181
  656MOL0     H90465   3.964  10.438   2.023  1.5463 -0.6915 -0.9289
  656MOL0     H90466   4.050  10.416   1.883 -1.4843 -0.8193 -0.7032
  656MOL0     H90467   4.123  10.682   1.926 -2.8626  1.6797  1.3792
  656MOL0     H90468   4.058  10.639   2.084  0.1120 -1.6399  1.4500
  656MOL0     H90469   4.283  10.479   1.939  1.6894 -0.6879  1.0048
  656MOL0     H90470   4.223  10.454   2.104 -1.3087 -1.2209 -1.6259
  656MOL0     H90471   4.372  10.699   2.014 -0.8837 -1.4461 -1.5712
  656MOL0     H90472   4.316  10.669   2.175 -4.1952 -3.0291  0.7198
  656MOL0     H90473   4.516  10.481   2.019  2.4000 -0.2875  1.7883
  656MOL0     H90474   4.462  10.470   2.188  1.2534  0.9854  0.3371
  656MOL0     H90475   4.602  10.679   2.043 -0.6094  0.0705 -0.4425
  656MOL0     H90476   4.536  10.706   2.209 -0.7746 -1.5462  0.6593
  656MOL0     H90477   4.832  10.549   2.013  0.6334 -0.4988 -0.5921
  656MOL0     H90478   5.051  10.413   2.068 -0.5138 -1.2077  0.3366
  656MOL0     H90479   5.053  10.333   2.235 -2.0321 -0.3627  0.5484
  656MOL0     H90480   5.127  10.615   2.138  0.4357 -0.0174 -0.8870
  656MOL0     H90481   5.099  10.580   2.310  0.3909  1.5782 -0.3404
  656MOL0     H90482   5.280  10.412   2.302  0.3756 -0.0113 -0.0802
  656MOL0     H90483   5.294  10.433   2.133  1.4480  1.7639 -0.4096
  656MOL0     H90484   5.340  10.702   2.221  0.7490  1.0389  0.6020
  656MOL0     H90485   5.341  10.623   2.378  2.5863 -0.3384 -0.0669
  656MOL0     H90486   5.737  10.535   2.271 -2.0233 -0.4725 -1.4098
  656MOL0     H90487   6.017  10.682   2.336 -1.7631  1.0595  0.2456
  656MOL0     H90488   5.952  10.525   2.340 -1.7936 -0.6090  0.0418
  656MOL0     H90489   5.991  10.611   2.498  0.2227  1.5020 -0.4450
  656MOL0     H90490   6.125  10.769   2.674 -3.0559  1.2920 -0.4578
  656MOL0     H90491   6.301  10.857   2.824 -1.9990 -1.1435 -0.2677
  656MOL0     H90492   6.439  11.303   2.705 -0.2039  2.7776  1.8916
  656MOL0     H90493   6.407  11.292   2.876 -0.3414  0.8807 -0.2828
  656MOL0     H90494   6.633  11.178   2.906 -0.3845 -0.5838 -0.7507
  656MOL0     H90495   6.676  11.225   2.745  3.1698 -1.7889  2.9126
  656MOL0     H90496   6.594  11.427   2.959 -0.9264 -0.8774 -0.5179
  656MOL0     H90497   6.635  11.472   2.797  0.4480 -0.3575 -1.1265
  656MOL0     H90498   6.865  11.355   2.848  2.5747 -0.2487  1.9197
  656MOL0     H90499   6.822  11.356   3.015  0.0084 -0.4325  0.0046
  656MOL0     H90500   6.960  11.559   2.902  0.6931  0.1844  2.1103
  656MOL0     H90501   6.795  11.605   2.864  0.6251  1.4751 -0.0705
  656MOL0     H90502   6.753  11.622   3.108  0.4798  2.4426 -0.2577
  656MOL0     H90503   6.895  11.706   3.084  1.0861 -0.3898 -1.6104
  656MOL0     H90504   6.913  11.412   3.171  0.3473  0.4626  0.1241
  656MOL0     H90505   6.902  11.549   3.276  1.0196  0.7031  0.3935
  656MOL0     H90506   7.110  11.653   3.190  1.5593 -0.8422  1.1810
  656MOL0     H90507   7.135  11.508   3.085 -0.9164  0.2575 -1.0482
  656MOL0     H90508   6.293  11.224   2.570 -0.9256  0.0652 -1.0865
  656MOL0     H90509   6.093  11.135   2.459 -2.8461 -2.5438 -0.9489
  656MOL0     H90510   5.625  10.936   2.534 -2.9745 -0.6256  0.8828
  656MOL0     H90511   5.448  10.818   2.406  0.2021  0.6534  1.6482
  656MOL0     H90512   3.612  10.217   2.036 -0.1565  1.1599 -0.4973
  656MOL0     H90513   3.386  10.120   1.980  0.1358  2.2051  0.3656
  656MOL0     H90514   3.129  10.019   1.573  1.9762  0.1413  1.3939
  656MOL0     H90515   2.901   9.943   1.513 -2.2845 -1.6480 -0.1668
  656MOL0     H90516   2.652   9.873   1.638 -1.1405 -1.2053  0.0450
  656MOL0     H90517   2.702   9.859   1.470 -2.0527  0.4794 -0.2551
  656MOL0     H90518   2.587   9.630   1.490 -0.3233 -0.4197  2.0602
  656MOL0     H90519   2.492   9.789   1.457 -0.1372  1.4319  1.2604
  656MOL0     H90520   2.516   9.653   1.737 -1.2981 -0.2339  0.7746
  656MOL0     H90521   2.415   9.784   1.680  3.2358  0.5977  2.4559
  656MOL0     H90522   2.395   9.546   1.526  0.4352  3.6497 -2.2674
  656MOL0     H90523   2.275   9.668   1.554  1.7773  0.4162 -2.2840
  656MOL0     H90524   2.232   9.367   1.869  0.5399 -1.2744 -1.4754
  656MOL0     H90525   2.945   9.613   1.775 -0.2962 -1.5658 -2.3131
  656MOL0     H90526   3.128   9.587   1.904  2.2438 -1.5493  1.4428
  656MOL0     H90527   3.267   9.591   1.797 -0.6624 -1.1871  1.5167
  656MOL0     H90528   3.260   9.704   1.925  0.9226  4.9605 -2.6301
  657MOL0     O90529   8.749   0.208  10.072  0.2467 -0.1321  0.4100
  657MOL0     C90530   8.782   0.093  10.038 -0.0216 -0.5958  0.0672
  657MOL0     O90531   8.902   0.034  10.059 -0.3136  0.2283  0.7903
  657MOL0     C90532   9.008   0.108  10.111 -0.1319 -0.4231 -0.2964
  657MOL0     C90533   9.053   0.074  10.246 -0.3689 -0.5305  0.3012
  657MOL0     C90534   9.150   0.153  10.308 -0.3474 -0.0768 -0.5713
  657MOL0     C90535   9.197   0.266  10.242  0.0752 -0.0932  0.4166
  657MOL0     O90536   9.286   0.352  10.298  0.3813 -0.5891  0.2267
  657MOL0     C90537   9.381   0.432  10.212 -0.2979 -0.0343  0.2876
  657MOL0     C90538   9.479   0.483  10.316 -0.1449  0.6259 -0.3773
  657MOL0     C90539   9.551   0.368  10.393 -1.8882 -0.0462 -0.6422
  657MOL0     C90540   9.664   0.432  10.483 -0.5497 -0.9874 -0.3693
  657MOL0     C90541   9.779   0.333  10.528 -0.7240 -0.3794 -0.8193
  657MOL0     C90542   9.729   0.246  10.637  0.0963 -0.8314  0.0141
  657MOL0     C90543   9.841   0.147  10.677  0.0092  0.3575 -0.1259
  657MOL0     C90544   9.793   0.060  10.798  0.2445  0.3023 -0.3780
  657MOL0     N90545   9.897  -0.007  10.868 -0.1966 -0.2577 -0.1943
  657MOL0     C90546   9.915  -0.143  10.871  0.5699  0.6958  0.1229
  657MOL0     C90547  10.042  -0.167  10.910  0.5779  0.2335 -0.1047
  657MOL0     C90548  10.100  -0.303  10.929 -0.7486 -0.4320  0.5085
  657MOL0     C90549  10.141  -0.347  10.788 -0.8778 -0.8639 -0.6241
  657MOL0     C90550  10.186  -0.498  10.791 -0.4512 -0.4369 -0.5055
  657MOL0     C90551  10.314  -0.527  10.871  0.3777  0.7463 -0.2596
  657MOL0     O90552  10.344  -0.664  10.840 -0.0519 -0.6225  0.4556
  657MOL0     C90553  10.463  -0.708  10.889 -0.8286  0.2260 -0.3048
  657MOL0     C90554  10.525  -0.674  11.011  0.1412 -0.6157  0.7521
  657MOL0     C90555  10.647  -0.708  11.051  0.2302 -0.5296  0.1219
  657MOL0     C90556  10.682  -0.691  11.199  0.2910 -0.4351 -0.1152
  657MOL0     C90557  10.716  -0.797  10.960 -0.5720 -0.5910  0.0439
  657MOL0     C90558  10.851  -0.851  10.998 -0.2587 -0.6347 -1.0874
  657MOL0     O90559  10.892  -0.945  10.906 -0.3447  0.0876  0.3653
  657MOL0     C90560  11.024  -0.959  10.883 -0.4539 -0.8031 -0.6047
  657MOL0     C90561  11.095  -1.072  10.914  0.3449 -0.0432 -0.3806
  657MOL0     C90562  11.235  -1.083  10.905  0.1101  0.1185  0.5255
  657MOL0     C90563  11.309  -0.980  10.853 -1.0750 -0.7516  0.2233
  657MOL0     O90564  11.442  -1.017  10.816  0.0789 -0.1107 -0.0777
  657MOL0     C90565  11.466  -1.021  10.677 -0.1133 -0.1120 -0.6505
  657MOL0     C90566  11.587  -1.106  10.651 -0.3490  1.2026  0.0237
  657MOL0     C90567  11.719  -1.045  10.686  0.3062 -0.0701  0.0443
  657MOL0     C90568  11.820  -1.149  10.646 -0.6584 -0.2695 -0.7577
  657MOL0     C90569  11.961  -1.092  10.675 -0.8452 -0.3212 -0.6991
  657MOL0     C90570  12.076  -1.175  10.624  0.5074  0.4303 -0.2718
  657MOL0     C90571  12.077  -1.314  10.692 -0.9382  1.9339 -0.5017
  657MOL0     C90572  12.220  -1.395  10.660 -0.4732  0.4957  0.7673
  657MOL0    Cl90573  12.239  -1.555  10.741 -0.2302  0.1424 -0.4958
  657MOL0     C90574  11.246  -0.864  10.813  0.1191  0.1986  0.0971
  657MOL0     C90575  11.111  -0.853  10.847 -0.4501  0.0662  0.7562
  657MOL0     O90576  10.923  -0.812  11.091 -0.6872  0.0386 -0.9056
  657MOL0     C90577  10.661  -0.833  10.831  0.9416 -1.1837  0.3705
  657MOL0     C90578  10.536  -0.774  10.794 -0.4541 -0.0755 -0.5021
  657MOL0     N90579  10.100  -0.047  10.947  0.3902  0.4367 -0.2611
  657MOL0     N90580  10.004   0.047  10.938  0.1004 -0.2536  0.6596
  657MOL0     C90581   9.149   0.304  10.107 -0.9184  0.4099  0.6892
  657MOL0     C90582   9.059   0.220  10.040  0.0555 -0.1912  0.6313
  657MOL0     C90583   8.685   0.010   9.966 -0.3683  0.2974  0.4701
  657MOL0     C90584   8.733  -0.113   9.918 -0.2236 -0.2332  0.2243
  657MOL0     C90585   8.642  -0.202   9.863 -0.1164 -0.0458  0.4126
  657MOL0     C90586   8.503  -0.173   9.839  0.1195 -0.6507 -0.7789
  657MOL0     O90587   8.429  -0.267   9.768 -0.6471  0.1923  0.0826
  657MOL0     C90588   8.348  -0.211   9.661 -0.7090  0.2801  0.2586
  657MOL0     C90589   8.434  -0.149   9.553 -0.5729 -0.1871 -0.3480
  657MOL0     C90590   8.553  -0.231   9.501 -0.2519 -0.4216 -0.9566
  657MOL0     C90591   8.519  -0.377   9.477  0.5733 -0.2909 -0.6376
  657MOL0     C90592   8.415  -0.395   9.382 -0.7484  0.4184  0.3451
  657MOL0     C90593   8.323  -0.397   9.301 -0.3233 -0.0802  0.9016
  657MOL0     C90594   8.454  -0.057   9.896 -0.5034 -0.2869 -0.1187
  657MOL0     C90595   8.545   0.035   9.959 -0.5486 -1.1242  0.4654
  657MOL0     C90596   8.479   0.145  10.036 -0.7387 -0.1344  1.0642
  657MOL0     H90597   9.005  -0.006  10.302  1.1681 -2.2355 -0.7135
  657MOL0     H90598   9.188   0.121  10.404  0.1361  2.4940  0.1677
  657MOL0     H90599   9.319   0.509  10.167 -0.5570 -1.7487 -2.5650
  657MOL0     H90600   9.436   0.382  10.131 -2.4564 -2.2193  0.0367
  657MOL0     H90601   9.537   0.564  10.270  0.5705 -0.4267 -1.3861
  657MOL0     H90602   9.416   0.528  10.394 -0.9976 -0.5995 -0.3201
  657MOL0     H90603   9.482   0.308  10.453 -0.2432 -2.0107 -0.5885
  657MOL0     H90604   9.595   0.298  10.322  2.5206  1.2013  0.5532
  657MOL0     H90605   9.720   0.510  10.431  0.6519 -1.5630  0.0396
  657MOL0     H90606   9.619   0.473  10.574  2.0571 -0.3923  0.7530
  657MOL0     H90607   9.868   0.394  10.548 -1.1259  0.2575 -0.9442
  657MOL0     H90608   9.816   0.271  10.445  2.3898  0.8207 -0.4538
  657MOL0     H90609   9.685   0.311  10.713  1.5916  1.2916 -0.8286
  657MOL0     H90610   9.654   0.177  10.598  1.1658 -1.6101 -0.7519
  657MOL0     H90611   9.931   0.204  10.701 -0.0920  1.3217 -1.8455
  657MOL0     H90612   9.865   0.085  10.590  1.0059 -0.9087  0.9965
  657MOL0     H90613   9.754   0.131  10.872  0.2387 -0.8552  0.7545
  657MOL0     H90614   9.708  -0.006  10.780 -0.5306  0.5046  2.1110
  657MOL0     H90615   9.844  -0.216  10.834 -0.6404  1.7105  0.3444
  657MOL0     H90616  10.033  -0.376  10.975 -2.7961 -1.1912 -3.2753
  657MOL0     H90617  10.191  -0.287  10.987  0.3656  0.2045 -1.3400
  657MOL0     H90618  10.058  -0.339  10.716 -0.8715 -1.2930 -0.6820
  657MOL0     H90619  10.225  -0.293  10.744 -1.5722 -0.9408 -2.1031
  657MOL0     H90620  10.112  -0.561  10.840 -2.0089 -0.2849 -2.5546
  657MOL0     H90621  10.205  -0.517  10.685  0.2627 -2.1059 -0.1082
  657MOL0     H90622  10.400  -0.462  10.852  2.9108 -1.9550  1.0580
  657MOL0     H90623  10.291  -0.531  10.978 -1.0334 -0.5774 -0.5730
  657MOL0     H90624  10.462  -0.613  11.076  2.4770 -1.5178  4.1392
  657MOL0     H90625  10.771  -0.629  11.211 -1.6420  2.2399  1.5741
  657MOL0     H90626  10.687  -0.785  11.256 -0.8661  1.7260  3.9148
  657MOL0     H90627  10.608  -0.633  11.256  1.4119  1.9888 -1.0180
  657MOL0     H90628  11.042  -1.163  10.939  1.9825 -2.2338 -4.0791
  657MOL0     H90629  11.276  -1.182  10.921 -1.1635 -0.5829 -0.4081
  657MOL0     H90630  11.382  -1.064  10.622  0.8413 -2.7896 -0.1542
  657MOL0     H90631  11.474  -0.919  10.637  0.2724  0.0410 -0.1883
  657MOL0     H90632  11.570  -1.205  10.695 -0.0957  0.0026 -2.4235
  657MOL0     H90633  11.582  -1.130  10.544 -0.6114  2.1454 -0.1848
  657MOL0     H90634  11.727  -1.024  10.793  1.0591  0.8953 -0.1883
  657MOL0     H90635  11.726  -0.959  10.619 -0.7381  0.5315  0.6813
  657MOL0     H90636  11.812  -1.189  10.545 -1.6153  0.8133 -1.1342
  657MOL0     H90637  11.807  -1.231  10.718  4.0130  1.7068  2.9279
  657MOL0     H90638  11.968  -0.997  10.621  0.5671  0.8177  1.3532
  657MOL0     H90639  11.965  -1.078  10.783 -2.6908 -1.4436 -0.4470
  657MOL0     H90640  12.175  -1.128  10.631  0.8966  0.0528 -2.5390
  657MOL0     H90641  12.053  -1.194  10.519 -1.6616  1.0406  0.0385
  657MOL0     H90642  11.992  -1.372  10.655 -1.3766  1.8512  0.5723
  657MOL0     H90643  12.063  -1.302  10.800  0.3839 -1.1246  0.1174
  657MOL0     H90644  12.309  -1.334  10.680 -1.1580  0.9380  2.7727
  657MOL0     H90645  12.223  -1.408  10.552 -0.4711  0.9476  0.7107
  657MOL0     H90646  11.301  -0.785  10.762  0.7869 -0.0975  0.3441
  657MOL0     H90647  11.070  -0.753  10.836  0.7290  0.4964 -0.0059
  657MOL0     H90648  10.705  -0.887  10.748  0.7089 -1.9161  0.7179
  657MOL0     H90649  10.504  -0.806  10.695  2.0681 -0.5401 -1.2637
  657MOL0     H90650   9.181   0.398  10.065 -2.8557 -0.0455 -2.1218
  657MOL0     H90651   9.012   0.242   9.944 -2.5880  1.1875  2.1417
  657MOL0     H90652   8.839  -0.136   9.912 -0.1964 -0.1711  0.4693
  657MOL0     H90653   8.671  -0.304   9.838  0.6371  0.0029  1.0356
  657MOL0     H90654   8.293  -0.298   9.625  0.6785 -1.0095  1.1478
  657MOL0     H90655   8.277  -0.138   9.702 -0.4651 -0.5397  2.2382
  657MOL0     H90656   8.472  -0.055   9.596  1.0021 -1.1177  0.3942
  657MOL0     H90657   8.373  -0.111   9.471 -2.7538  0.7878  1.5789
  657MOL0     H90658   8.592  -0.187   9.409  2.4195 -0.2884  0.1466
  657MOL0     H90659   8.637  -0.216   9.570  0.5655 -1.6807 -1.6350
  657MOL0     H90660   8.480  -0.421   9.569  0.8328  1.0272  0.1236
  657MOL0     H90661   8.606  -0.442   9.461 -0.4286 -1.6704 -0.6453
  657MOL0     H90662   8.230  -0.406   9.248  0.4560  2.2996 -1.0425
  657MOL0     H90663   8.348  -0.035   9.891  0.1739  3.5992 -0.7779
  657MOL0     H90664   8.371   0.128  10.042 -1.3233  1.3553 -2.5807
  657MOL0     H90665   8.514   0.155  10.139  2.5216 -0.6125  0.1128
  657MOL0     H90666   8.489   0.241   9.983  0.9869 -0.9247 -0.1092
  658MOL0     O90667   3.839   7.049   0.241  0.5342  0.0558  0.4795
  658MOL0     C90668   3.771   7.078   0.141 -0.6723 -0.7383 -0.2526
  658MOL0     O90669   3.652   7.134   0.136  0.8759 -0.2409  0.1504
  658MOL0     C90670   3.581   7.134   0.254  0.2557  0.0731  0.1853
  658MOL0     C90671   3.608   7.221   0.362  0.3522  0.2919  0.3785
  658MOL0     C90672   3.536   7.239   0.476 -0.8252  0.3116  0.2314
  658MOL0     C90673   3.408   7.170   0.478  0.5724  0.2684 -0.7385
  658MOL0     O90674   3.338   7.188   0.594 -0.5012 -0.0044 -0.1931
  658MOL0     C90675   3.266   7.068   0.646 -0.6261 -0.0353 -0.9350
  658MOL0     C90676   3.271   7.054   0.804 -0.5808 -0.5658 -0.4296
  658MOL0     C90677   3.404   7.016   0.873  0.8546  0.0503  0.3158
  658MOL0     C90678   3.525   7.084   0.808  0.4177 -0.9986 -0.5599
  658MOL0     C90679   3.656   7.060   0.877 -0.3188 -1.2513  0.5947
  658MOL0     C90680   3.766   7.117   0.784 -0.1935 -0.2133  0.2431
  658MOL0     C90681   3.922   7.080   0.831 -0.5260  0.8288 -1.4409
  658MOL0     C90682   3.969   6.933   0.785  0.3807  0.8181 -0.0590
  658MOL0     N90683   4.100   6.891   0.833  0.0750 -0.4278  0.0890
  658MOL0     C90684   4.127   6.839   0.949 -0.3081 -0.5632 -0.3633
  658MOL0     C90685   4.257   6.826   0.956 -0.3100  0.0861 -0.0326
  658MOL0     C90686   4.331   6.788   1.079 -0.7137 -0.2005  0.1772
  658MOL0     C90687   4.414   6.663   1.065 -0.2153 -0.1118 -0.3217
  658MOL0     C90688   4.531   6.661   0.968  0.6913  0.1279 -0.5481
  658MOL0     C90689   4.650   6.745   1.007  0.0783 -0.0018 -0.0941
  658MOL0     O90690   4.726   6.686   1.113  0.2369 -0.1143  0.2306
  658MOL0     C90691   4.860   6.708   1.119  0.1786  0.6233  0.1735
  658MOL0     C90692   4.925   6.813   1.053  0.3106  0.0865  0.2552
  658MOL0     C90693   5.067   6.819   1.054  0.1510  0.1595 -0.2054
  658MOL0     C90694   5.127   6.910   0.950  0.1045  0.1942 -0.5363
  658MOL0     C90695   5.135   6.728   1.144  0.4923  0.5244  0.0205
  658MOL0     C90696   5.289   6.711   1.159 -0.3334 -0.6292  0.5004
  658MOL0     O90697   5.339   6.609   1.241  0.2873  0.4623  0.2092
  658MOL0     C90698   5.476   6.600   1.252  0.3154  0.6600 -0.2189
  658MOL0     C90699   5.562   6.559   1.153 -0.0455 -0.2089 -0.0605
  658MOL0     C90700   5.692   6.546   1.192  0.4663 -0.4446 -0.1248
  658MOL0     C90701   5.743   6.584   1.314  0.9067 -0.2492 -0.9825
  658MOL0     O90702   5.878   6.569   1.327  0.4270 -0.4226  0.7759
  658MOL0     C90703   5.938   6.574   1.459 -0.5100 -0.3825  1.1306
  658MOL0     C90704   6.088   6.584   1.446  0.5467  0.0568  0.2855
  658MOL0     C90705   6.162   6.567   1.582  0.5438 -0.8134 -0.4821
  658MOL0     C90706   6.308   6.567   1.565 -0.3951 -0.2503  0.3362
  658MOL0     C90707   6.362   6.453   1.481 -0.4211  0.1475 -0.0894
  658MOL0     C90708   6.512   6.444   1.481 -0.2626  0.1083  0.0164
  658MOL0     C90709   6.583   6.582   1.437 -0.1054  0.9303 -0.6236
  658MOL0     C90710   6.741   6.554   1.447  0.3584 -0.5792  0.1206
  658MOL0    Cl90711   6.828   6.721   1.435 -0.1686 -0.0728 -0.0946
  658MOL0     C90712   5.661   6.654   1.396  0.2907  1.7996 -0.1054
  658MOL0     C90713   5.523   6.652   1.377  0.2573 -0.8096 -0.2995
  658MOL0     O90714   5.363   6.777   1.083 -0.4115 -1.0439 -0.2247
  658MOL0     C90715   5.061   6.639   1.227  0.1434 -0.5017 -0.0426
  658MOL0     C90716   4.925   6.624   1.213 -0.1298 -0.0386  0.0075
  658MOL0     N90717   4.304   6.855   0.829  0.0941  0.2270 -0.1509
  658MOL0     N90718   4.211   6.891   0.759 -0.4203  0.0253 -0.1569
  658MOL0     C90719   3.372   7.090   0.373 -0.0412  0.2535 -0.6659
  658MOL0     C90720   3.453   7.075   0.261 -0.3393  0.4755  0.5379
  658MOL0     C90721   3.834   7.051   0.004 -0.2229  0.0492  0.3898
  658MOL0     C90722   3.857   6.916  -0.040 -0.4772 -0.5284 -0.3469
  658MOL0     C90723   3.908   6.887  -0.165  0.2918  0.4274  0.3821
  658MOL0     C90724   3.913   6.982  -0.265 -0.0307 -0.3385  0.3982
  658MOL0     O90725   3.937   6.932  -0.388  0.0373 -0.0332  0.2521
  658MOL0     C90726   3.977   7.022  -0.484  0.6593 -1.2336  0.3414
  658MOL0     C90727   4.017   6.957  -0.609 -0.4994 -0.5558 -0.2375
  658MOL0     C90728   4.159   6.882  -0.600  0.2777 -0.1109 -0.4365
  658MOL0     C90729   4.166   6.785  -0.484 -0.6288  0.1239  0.5069
  658MOL0     C90730   4.070   6.674  -0.495 -0.1594 -0.2033  0.3482
  658MOL0     C90731   3.981   6.590  -0.511 -0.5540  0.2750  0.3949
  658MOL0     C90732   3.892   7.116  -0.222  0.3779  0.0777 -0.5417
  658MOL0     C90733   3.856   7.151  -0.092 -0.3904 -0.0310  0.5868
  658MOL0     C90734   3.833   7.298  -0.037 -0.8174 -0.1661 -1.7823
  658MOL0     H90735   3.701   7.273   0.344 -0.6369  1.2378 -2.5505
  658MOL0     H90736   3.580   7.286   0.563  1.3043 -0.1193 -0.5385
  658MOL0     H90737   3.308   6.979   0.599 -0.8706 -2.0936  2.4585
  658MOL0     H90738   3.162   7.077   0.614 -0.4626  0.9365 -1.2396
  658MOL0     H90739   3.250   7.153   0.845  2.9353  0.1129  0.1082
  658MOL0     H90740   3.194   6.980   0.829 -2.0822  0.0901 -2.8473
  658MOL0     H90741   3.401   7.050   0.977  2.1314 -2.6906  1.3275
  658MOL0     H90742   3.408   6.907   0.871 -1.6634 -0.1204  1.3042
  658MOL0     H90743   3.542   7.066   0.701  3.0580  0.2816 -0.4180
  658MOL0     H90744   3.503   7.191   0.806  0.5958 -0.9709 -1.3997
  658MOL0     H90745   3.668   6.953   0.896 -0.2678 -1.2631  0.4981
  658MOL0     H90746   3.655   7.117   0.970  1.2397  0.4343 -0.3633
  658MOL0     H90747   3.748   7.086   0.680 -2.1017  2.3847 -0.3108
  658MOL0     H90748   3.744   7.224   0.791  0.7907 -0.0555  1.0373
  658MOL0     H90749   3.923   7.080   0.940  2.3419  1.2692 -1.3884
  658MOL0     H90750   3.997   7.152   0.798 -0.5959  0.6041 -2.1101
  658MOL0     H90751   3.888   6.864   0.810 -0.6937  2.6961  2.0257
  658MOL0     H90752   3.976   6.941   0.676  1.8405  0.9273  0.0274
  658MOL0     H90753   4.064   6.812   1.033 -0.2071 -0.8974 -0.3951
  658MOL0     H90754   4.254   6.780   1.156  0.2950 -2.2928  1.0456
  658MOL0     H90755   4.405   6.865   1.107  0.5879 -1.5756  0.6669
  658MOL0     H90756   4.445   6.640   1.167 -1.6487 -1.8781 -0.2244
  658MOL0     H90757   4.354   6.581   1.025  0.9116 -0.0899 -2.1821
  658MOL0     H90758   4.551   6.554   0.954  0.3127 -0.2047  1.1185
  658MOL0     H90759   4.495   6.700   0.873 -1.8161  0.5304  0.4820
  658MOL0     H90760   4.711   6.757   0.917  0.4141  1.4790  0.3007
  658MOL0     H90761   4.612   6.841   1.042 -1.0520 -0.3701 -0.2638
  658MOL0     H90762   4.874   6.888   0.993 -0.9668  0.4694  1.7401
  658MOL0     H90763   5.168   6.854   0.865  0.0454  1.6285 -1.5474
  658MOL0     H90764   5.208   6.979   0.978  2.2816  0.1143 -5.5284
  658MOL0     H90765   5.045   6.964   0.903 -0.2690  2.1259  2.1140
  658MOL0     H90766   5.536   6.524   1.054  3.0910 -0.9652 -0.7480
  658MOL0     H90767   5.771   6.508   1.128  1.3709 -0.5682  1.0359
  658MOL0     H90768   5.905   6.668   1.504 -1.9102 -1.0964  1.6319
  658MOL0     H90769   5.903   6.500   1.530 -1.9686 -1.2744 -0.4399
  658MOL0     H90770   6.121   6.494   1.394  1.1925  0.9069 -0.8251
  658MOL0     H90771   6.118   6.673   1.390 -1.5423 -0.0569 -1.0949
  658MOL0     H90772   6.129   6.476   1.632  0.6475  0.8904  3.0187
  658MOL0     H90773   6.128   6.648   1.648  2.4425  0.2418 -0.7383
  658MOL0     H90774   6.354   6.583   1.663 -0.0748  2.3296 -0.1511
  658MOL0     H90775   6.327   6.657   1.505 -4.2692  0.6757  0.2485
  658MOL0     H90776   6.309   6.361   1.509  1.4025 -0.7276  0.6260
  658MOL0     H90777   6.335   6.472   1.377  1.9214 -3.6651 -1.6099
  658MOL0     H90778   6.544   6.361   1.417  1.1532 -0.1379  0.9844
  658MOL0     H90779   6.547   6.413   1.580  0.4024 -0.2014 -0.3069
  658MOL0     H90780   6.557   6.659   1.511 -0.0566 -0.6045  1.0605
  658MOL0     H90781   6.552   6.608   1.335 -0.9060  1.3335 -0.2847
  658MOL0     H90782   6.772   6.493   1.361  0.8605  0.7352 -0.6696
  658MOL0     H90783   6.765   6.503   1.540  1.3839  2.2601  1.5290
  658MOL0     H90784   5.693   6.695   1.492  3.4385 -2.5159  1.0076
  658MOL0     H90785   5.455   6.686   1.454  1.5618 -0.1109  0.5866
  658MOL0     H90786   5.112   6.573   1.296  0.7531 -3.0352 -2.7306
  658MOL0     H90787   4.877   6.553   1.279  2.7824 -0.3729  1.9204
  658MOL0     H90788   3.274   7.043   0.375  0.1775 -0.2762 -1.5823
  658MOL0     H90789   3.398   7.015   0.189 -1.9308 -0.4947  2.4747
  658MOL0     H90790   3.862   6.833   0.030 -0.3818 -1.4433 -1.4131
  658MOL0     H90791   3.940   6.785  -0.183 -0.0051  0.3921  0.0515
  658MOL0     H90792   3.889   7.082  -0.509  3.4567  2.2667 -2.1583
  658MOL0     H90793   4.052   7.096  -0.455 -0.1800  0.5866 -1.8708
  658MOL0     H90794   4.029   7.035  -0.685 -0.3267  0.4099  0.7465
  658MOL0     H90795   3.941   6.880  -0.624  0.4750 -1.2277 -2.0493
  658MOL0     H90796   4.171   6.822  -0.691  1.8581  0.7527 -0.8226
  658MOL0     H90797   4.223   6.970  -0.602  0.0527  0.0848  0.5828
  658MOL0     H90798   4.153   6.845  -0.393 -0.1493 -0.0832  0.7136
  658MOL0     H90799   4.268   6.746  -0.481  1.0738  4.0268  0.6660
  658MOL0     H90800   3.906   6.514  -0.524 -0.0700 -0.0533 -0.5964
  658MOL0     H90801   3.903   7.199  -0.291 -2.1985  2.6472  1.8409
  658MOL0     H90802   3.725   7.315  -0.033 -0.5242  1.8012 -0.5593
  658MOL0     H90803   3.880   7.316   0.060 -1.9602 -0.7367 -1.1035
  658MOL0     H90804   3.876   7.368  -0.110  1.4584 -0.4290 -0.7668
  659MOL0     O90805  11.234   7.220  10.411 -0.0619  0.2470 -0.0861
  659MOL0     C90806  11.230   7.263  10.523 -0.4139  0.3570 -0.5344
  659MOL0     O90807  11.294   7.378  10.569 -0.1233 -0.1441 -0.0232
  659MOL0     C90808  11.390   7.437  10.497 -0.0638 -0.3044 -0.4196
  659MOL0     C90809  11.412   7.579  10.474  0.0185  0.9853 -0.1164
  659MOL0     C90810  11.515   7.619  10.393  0.1082 -0.1137  1.3100
  659MOL0     C90811  11.600   7.532  10.327  0.1759  0.7818  0.0684
  659MOL0     O90812  11.703   7.585  10.254 -0.3378  0.3494 -0.3926
  659MOL0     C90813  11.710   7.538  10.112 -0.6848  0.1469  0.2637
  659MOL0     C90814  11.641   7.623  10.022  0.2163 -0.3297  0.1577
  659MOL0     C90815  11.705   7.761  10.009 -0.1634 -0.4561 -0.1034
  659MOL0     C90816  11.619   7.869   9.939 -0.3102 -0.4345  1.0515
  659MOL0     C90817  11.477   7.892   9.987 -0.4868 -0.2066 -0.5525
  659MOL0     C90818  11.425   8.016   9.924  0.1104 -0.1409  0.4790
  659MOL0     C90819  11.278   8.045   9.964  0.4693 -0.7871 -0.8943
  659MOL0     C90820  11.224   8.174   9.902  0.4853  0.9058  0.0111
  659MOL0     N90821  11.275   8.287   9.976 -0.8158  0.4831 -0.1596
  659MOL0     C90822  11.229   8.329  10.097 -0.0361 -0.1577  0.2095
  659MOL0     C90823  11.316   8.431  10.130 -0.5249 -0.4324 -0.0733
  659MOL0     C90824  11.316   8.500  10.263  0.0344  0.4778  0.7298
  659MOL0     C90825  11.437   8.451  10.352 -0.8626  0.2476  0.4420
  659MOL0     C90826  11.578   8.504  10.312 -0.3759 -0.1618 -0.4480
  659MOL0     C90827  11.680   8.472  10.421 -0.6576 -0.9778 -0.6735
  659MOL0     O90828  11.790   8.554  10.380 -0.0545  0.2478 -0.8280
  659MOL0     C90829  11.891   8.503  10.311  0.5374 -0.1553  0.3789
  659MOL0     C90830  12.009   8.580  10.285  0.2631 -0.7180  0.4995
  659MOL0     C90831  12.126   8.521  10.246  0.4420 -0.7609 -0.3603
  659MOL0     C90832  12.244   8.610  10.242  0.3472 -1.1563 -0.2929
  659MOL0     C90833  12.130   8.386  10.211  0.1812  0.1654 -0.4089
  659MOL0     C90834  12.253   8.312  10.160  0.4492 -1.3052  0.5552
  659MOL0     O90835  12.380   8.347  10.207  0.0826  0.2363 -0.3722
  659MOL0     C90836  12.485   8.321  10.119 -0.3864  0.3748 -1.1564
  659MOL0     C90837  12.604   8.297  10.181  0.8417  0.2292 -0.6017
  659MOL0     C90838  12.717   8.282  10.115 -0.5802 -0.6545  0.4509
  659MOL0     C90839  12.719   8.285   9.978  0.3749  0.6793  0.1191
  659MOL0     O90840  12.830   8.246   9.913  0.0773  0.2240 -0.4784
  659MOL0     C90841  12.839   8.260   9.768 -0.4277  0.6851 -0.4612
  659MOL0     C90842  12.976   8.218   9.711 -0.1613 -0.9110 -0.1857
  659MOL0     C90843  13.091   8.279   9.795  1.1456 -0.3170  0.0569
  659MOL0     C90844  13.234   8.259   9.739  0.5322  0.6252 -0.1475
  659MOL0     C90845  13.274   8.354   9.628 -0.7001 -0.2640 -1.0654
  659MOL0     C90846  13.406   8.303   9.560  0.1941  0.5203  0.1135
  659MOL0     C90847  13.536   8.277   9.642  0.1270  0.1989  0.9331
  659MOL0     C90848  13.602   8.169   9.568 -1.0914  0.0063 -0.3668
  659MOL0    Cl90849  13.512   8.008   9.576 -0.1818 -0.3266  0.0968
  659MOL0     C90850  12.598   8.299   9.902  0.6383  0.7472 -0.2233
  659MOL0     C90851  12.482   8.317   9.975 -0.1183 -0.8549 -0.0101
  659MOL0     O90852  12.227   8.235  10.068 -0.5317  0.2975 -0.0933
  659MOL0     C90853  12.010   8.309  10.211 -0.0529  0.8443 -0.2753
  659MOL0     C90854  11.892   8.367  10.260 -0.2598  0.6443  0.2400
  659MOL0     N90855  11.402   8.449  10.022 -0.0474 -0.3128 -0.3438
  659MOL0     N90856  11.391   8.350   9.946 -0.8832 -0.4105  0.8429
  659MOL0     C90857  11.587   7.393  10.353 -0.5426 -0.1192 -1.5675
  659MOL0     C90858  11.486   7.351  10.436  1.0070 -0.1857 -0.9254
  659MOL0     C90859  11.155   7.174  10.623 -0.0163  0.0249 -0.5271
  659MOL0     C90860  11.205   7.042  10.652  0.2948  0.0323  0.7775
  659MOL0     C90861  11.141   6.959  10.745 -0.6107  0.2262  0.3629
  659MOL0     C90862  11.032   7.010  10.820  0.4304 -0.0857 -0.8536
  659MOL0     O90863  10.974   6.916  10.906  0.0739  0.0426  0.5362
  659MOL0     C90864  10.924   6.953  11.042  0.2458  0.5381  0.3143
  659MOL0     C90865  11.029   6.915  11.145  0.4574  0.7695 -0.0073
  659MOL0     C90866  11.171   6.974  11.135 -0.4773 -0.0358  0.1824
  659MOL0     C90867  11.243   6.975  11.265 -0.5130  0.5249  0.3159
  659MOL0     C90868  11.377   7.031  11.244  0.2475  0.8435 -0.5001
  659MOL0     C90869  11.487   7.077  11.246 -0.4327  0.4245  0.6256
  659MOL0     C90870  10.990   7.141  10.796 -0.5358 -0.0513 -0.6279
  659MOL0     C90871  11.042   7.224  10.695 -0.2732  0.8454 -0.3927
  659MOL0     C90872  10.974   7.358  10.678  0.3729  0.1690  0.7729
  659MOL0     H90873  11.348   7.655  10.516 -2.6511  0.2594 -2.4950
  659MOL0     H90874  11.534   7.725  10.387  0.3666 -0.2306 -0.5179
  659MOL0     H90875  11.662   7.439  10.113 -2.4417  0.9548 -0.3760
  659MOL0     H90876  11.813   7.533  10.075 -0.2788  3.5866  0.6380
  659MOL0     H90877  11.645   7.584   9.920  2.0049  3.2364 -1.3422
  659MOL0     H90878  11.536   7.634  10.052 -0.5520 -0.8506 -2.1742
  659MOL0     H90879  11.730   7.802  10.107 -1.6340 -0.5037  0.3173
  659MOL0     H90880  11.797   7.760   9.949  2.1927  2.1179  3.1066
  659MOL0     H90881  11.678   7.960   9.955 -0.2863 -0.0722 -0.8218
  659MOL0     H90882  11.607   7.848   9.833 -0.3498 -0.2929  1.0267
  659MOL0     H90883  11.472   7.915  10.094 -1.1437 -0.2043 -0.5824
  659MOL0     H90884  11.411   7.812   9.954 -1.0120  0.9980 -2.5611
  659MOL0     H90885  11.485   8.108   9.924 -0.3275  0.1537  0.8430
  659MOL0     H90886  11.412   7.990   9.819  0.5653 -0.7887  0.5827
  659MOL0     H90887  11.257   8.050  10.071 -2.0803  3.2959 -1.3719
  659MOL0     H90888  11.218   7.961   9.926  0.2512 -0.6747 -0.7994
  659MOL0     H90889  11.262   8.185   9.799  1.0951 -0.3352  0.0811
  659MOL0     H90890  11.115   8.177   9.902  0.3602 -1.1377  2.2311
  659MOL0     H90891  11.148   8.286  10.156  1.0073 -1.1021  0.9898
  659MOL0     H90892  11.221   8.499  10.317 -0.8243 -0.6982 -0.7222
  659MOL0     H90893  11.334   8.607  10.251  1.6884  0.3743  1.8495
  659MOL0     H90894  11.418   8.488  10.453 -2.7923  0.5965 -0.0033
  659MOL0     H90895  11.429   8.342  10.349  0.1985  0.1195  1.5105
  659MOL0     H90896  11.607   8.445  10.225 -1.8727 -3.4402  1.1052
  659MOL0     H90897  11.572   8.612  10.292 -1.2729 -0.0330  0.4831
  659MOL0     H90898  11.657   8.516  10.518  2.3042  0.9495 -0.7080
  659MOL0     H90899  11.705   8.366  10.434  0.3046 -1.0173 -2.4284
  659MOL0     H90900  12.007   8.683  10.320  0.5562 -0.3368 -0.5639
  659MOL0     H90901  12.312   8.586  10.325  0.9998 -1.2163 -0.8420
  659MOL0     H90902  12.218   8.716  10.242  0.9048 -1.0007 -2.0139
  659MOL0     H90903  12.310   8.586  10.159  2.4144 -1.7638  1.4282
  659MOL0     H90904  12.604   8.309  10.288 -1.7149  1.4841 -0.6471
  659MOL0     H90905  12.811   8.261  10.166 -0.6513  0.2161  0.9706
  659MOL0     H90906  12.762   8.214   9.704  0.5755  0.1280 -1.2873
  659MOL0     H90907  12.829   8.367   9.748  1.9713  1.0611  0.0656
  659MOL0     H90908  12.993   8.110   9.710  2.6090 -0.6403  2.4626
  659MOL0     H90909  12.973   8.256   9.609  1.2892  1.2234  0.5086
  659MOL0     H90910  13.094   8.230   9.893 -1.3244 -2.1361 -0.6868
  659MOL0     H90911  13.087   8.388   9.801 -0.0405 -0.1945 -2.1190
  659MOL0     H90912  13.231   8.155   9.705  4.4436 -0.6467  2.6765
  659MOL0     H90913  13.311   8.275   9.815 -0.6788 -0.2201  1.2884
  659MOL0     H90914  13.186   8.375   9.566 -1.3857 -0.8528 -0.3182
  659MOL0     H90915  13.294   8.452   9.672 -3.6404  0.6434 -1.5429
  659MOL0     H90916  13.421   8.372   9.477 -3.4742  0.2467 -0.9837
  659MOL0     H90917  13.363   8.211   9.518  0.4564 -0.6989  2.3448
  659MOL0     H90918  13.498   8.249   9.740 -1.3364  1.9485  0.9158
  659MOL0     H90919  13.599   8.367   9.644 -1.3300  1.5508 -3.2444
  659MOL0     H90920  13.703   8.149   9.605 -1.1339 -1.8644 -1.1449
  659MOL0     H90921  13.612   8.195   9.462 -0.4066  0.9556 -0.0882
  659MOL0     H90922  12.585   8.296   9.794  0.9544 -0.8673 -0.2391
  659MOL0     H90923  12.389   8.330   9.920 -0.6974 -2.5604  0.4827
  659MOL0     H90924  12.009   8.205  10.183 -1.0362  0.5762  0.6902
  659MOL0     H90925  11.802   8.307  10.270  1.0004 -1.5475 -0.7356
  659MOL0     H90926  11.665   7.320  10.330  1.1230  0.8569  0.6860
  659MOL0     H90927  11.478   7.243  10.450  0.8173 -0.1854 -1.0166
  659MOL0     H90928  11.286   6.995  10.597 -1.4896 -2.1575 -0.1414
  659MOL0     H90929  11.181   6.864  10.778  0.1240  0.8973  1.4349
  659MOL0     H90930  10.896   7.058  11.054 -0.0963  0.6778 -1.4278
  659MOL0     H90931  10.830   6.899  11.049  0.8739 -0.3968  2.5749
  659MOL0     H90932  11.037   6.807  11.160 -0.7916  0.9869  2.7886
  659MOL0     H90933  10.974   6.942  11.235 -0.7503 -2.9597  0.5445
  659MOL0     H90934  11.231   6.913  11.067  0.9279  1.1632  0.2935
  659MOL0     H90935  11.186   7.073  11.090 -1.6359  0.4887  0.9050
  659MOL0     H90936  11.248   6.872  11.302  0.1573  0.3025 -0.3698
  659MOL0     H90937  11.201   7.044  11.339  2.3326  2.5995  0.1846
  659MOL0     H90938  11.591   7.105  11.253  0.0364 -0.9485 -0.4215
  659MOL0     H90939  10.904   7.178  10.852  0.7436  0.1236  1.3196
  659MOL0     H90940  10.896   7.361  10.755  0.7334  1.8429  1.1296
  659MOL0     H90941  11.031   7.447  10.706  1.8128 -0.6583  0.5514
  659MOL0     H90942  10.928   7.375  10.580  1.3142  2.0739  0.6071
  660MOL0     O90943   5.268   9.600   7.641  0.3618  0.0389  0.7171
  660MOL0     C90944   5.209   9.510   7.684 -0.2128 -0.5172 -0.2805
  660MOL0     O90945   5.262   9.411   7.769  0.6779  0.4882  0.0318
  660MOL0     C90946   5.380   9.425   7.825  0.3322 -0.2178  1.0784
  660MOL0     C90947   5.439   9.540   7.885  1.5712  0.2199  0.5237
  660MOL0     C90948   5.562   9.520   7.947  0.3288 -0.2968  0.0487
  660MOL0     C90949   5.641   9.396   7.946  0.5417 -0.4199 -0.8710
  660MOL0     O90950   5.758   9.396   8.019  0.0544  0.4331 -0.5381
  660MOL0     C90951   5.824   9.267   8.020 -0.0259 -0.4018  0.1939
  660MOL0     C90952   5.942   9.283   8.117  0.5696  0.2733  0.5179
  660MOL0     C90953   5.901   9.337   8.255  0.3173 -0.5277  0.0536
  660MOL0     C90954   5.797   9.256   8.322 -0.0647  0.3236 -0.4867
  660MOL0     C90955   5.749   9.302   8.452  0.0081 -0.8765  0.4406
  660MOL0     C90956   5.608   9.361   8.462 -0.0519  0.4725 -0.4021
  660MOL0     C90957   5.590   9.477   8.364  0.3664 -0.5254  0.0858
  660MOL0     C90958   5.467   9.551   8.392  0.1506 -0.1806 -0.2949
  660MOL0     N90959   5.485   9.658   8.499  0.2557  0.0229  0.0655
  660MOL0     C90960   5.525   9.790   8.486 -0.7082  0.4096  0.3808
  660MOL0     C90961   5.499   9.842   8.609 -0.1014 -0.3008  0.4697
  660MOL0     C90962   5.534   9.982   8.635  0.4644 -0.0626  0.3253
  660MOL0     C90963   5.650   9.988   8.735 -0.2555  0.3345  0.1209
  660MOL0     C90964   5.685  10.129   8.765 -0.8658  0.0085  0.6441
  660MOL0     C90965   5.810  10.143   8.846 -0.2236  0.2176 -0.8956
  660MOL0     O90966   5.798  10.073   8.972  0.6006 -0.6154 -0.2324
  660MOL0     C90967   5.918  10.084   9.044 -0.1556  0.7064  1.4097
  660MOL0     C90968   5.923   9.987   9.149 -0.3707  0.4543 -0.0422
  660MOL0     C90969   6.038   9.973   9.232  0.8480  0.2674 -0.5883
  660MOL0     C90970   6.035   9.868   9.338  0.1188 -0.8023  0.2251
  660MOL0     C90971   6.151  10.058   9.220  0.3175  0.1825  0.0345
  660MOL0     C90972   6.278  10.054   9.291 -0.3614  0.7830  0.3676
  660MOL0     O90973   6.275  10.046   9.423  0.0997 -0.0610 -0.1308
  660MOL0     C90974   6.392  10.010   9.494 -0.8419 -0.1315  0.3803
  660MOL0     C90975   6.421   9.874   9.491 -0.2954  0.1063  0.1074
  660MOL0     C90976   6.544   9.832   9.531  0.1717  0.0667  0.2265
  660MOL0     C90977   6.637   9.916   9.588 -0.0955  0.1262  0.1149
  660MOL0     O90978   6.756   9.854   9.613 -0.4540  0.9012 -0.2212
  660MOL0     C90979   6.830   9.919   9.716 -0.1474  0.4348 -0.1189
  660MOL0     C90980   6.931   9.822   9.790  0.3709 -0.8303  0.5262
  660MOL0     C90981   7.030   9.757   9.699  0.3228  0.6561 -0.2596
  660MOL0     C90982   7.148   9.847   9.661 -0.2986 -0.1005  1.3102
  660MOL0     C90983   7.275   9.775   9.671 -0.7757 -0.8769 -1.1953
  660MOL0     C90984   7.352   9.809   9.802 -0.6724  0.2454 -0.2753
  660MOL0     C90985   7.479   9.721   9.810 -0.4992  0.0041  0.8982
  660MOL0     C90986   7.582   9.749   9.703  0.1619  0.9072 -0.1626
  660MOL0    Cl90987   7.730   9.647   9.709  0.0885 -0.1116 -0.0324
  660MOL0     C90988   6.602  10.050   9.607  0.4226  0.2478 -0.3008
  660MOL0     C90989   6.478  10.099   9.553 -0.0553 -0.4714  0.0978
  660MOL0     O90990   6.380  10.055   9.220 -0.2431 -0.0374 -0.5852
  660MOL0     C90991   6.141  10.143   9.112 -0.0584  0.3069  0.1147
  660MOL0     C90992   6.032  10.154   9.023  0.0985  0.0890 -0.8088
  660MOL0     N90993   5.448   9.751   8.698 -0.1592 -0.5675  0.0307
  660MOL0     N90994   5.437   9.640   8.624  0.3610  0.3336 -0.2835
  660MOL0     C90995   5.580   9.285   7.883  0.4808  0.1624  0.6295
  660MOL0     C90996   5.451   9.304   7.827  0.3453  0.1737  0.2779
  660MOL0     C90997   5.060   9.508   7.670 -0.3685 -0.6687 -0.8464
  660MOL0     C90998   4.974   9.431   7.757 -0.2252  0.2969  0.4605
  660MOL0     C90999   4.835   9.431   7.735  0.1487 -0.7532  0.1200
  660MOL0     C91000   4.777   9.500   7.628  0.3926 -0.0843  0.3109
  660MOL0     O91001   4.645   9.496   7.593 -0.0723  0.2924  0.4378
  660MOL0     C91002   4.553   9.395   7.627 -0.8292 -0.3942  1.2832
  660MOL0     C91003   4.541   9.292   7.520 -0.2439 -0.1843  0.1747
  660MOL0     C91004   4.439   9.182   7.560  0.0773 -0.3339  0.5834
  660MOL0     C91005   4.452   9.063   7.469  0.1701 -0.3846  0.7273
  660MOL0     C91006   4.578   8.988   7.507  0.6300  0.3518 -0.3886
  660MOL0     C91007   4.684   8.939   7.534  0.6264 -0.6332 -0.3635
  660MOL0     C91008   4.856   9.567   7.539  0.3592  0.5052  0.2015
  660MOL0     C91009   5.001   9.586   7.556  0.9362  0.1753 -0.4023
  660MOL0     C91010   5.074   9.654   7.444 -0.1801 -0.1999  0.2983
  660MOL0     H91011   5.401   9.642   7.887  2.1955  0.4790  3.5650
  660MOL0     H91012   5.618   9.600   7.993  0.6962  0.7240 -2.0527
  660MOL0     H91013   5.869   9.251   7.922 -0.0240  0.7719 -0.0068
  660MOL0     H91014   5.757   9.183   8.042  0.4776 -0.7413  0.4687
  660MOL0     H91015   5.990   9.184   8.120 -2.4773 -1.4069 -0.9964
  660MOL0     H91016   6.013   9.349   8.069  0.8812 -0.9616 -0.7915
  660MOL0     H91017   5.986   9.341   8.324  0.6545  1.7618 -0.3817
  660MOL0     H91018   5.869   9.441   8.240  1.5228  0.0902  1.4867
  660MOL0     H91019   5.713   9.245   8.252 -0.9972  1.0169  0.4817
  660MOL0     H91020   5.833   9.154   8.338 -2.2056 -0.5085 -0.5747
  660MOL0     H91021   5.813   9.384   8.486 -0.3609 -1.3600  2.4600
  660MOL0     H91022   5.755   9.229   8.534 -2.8047 -1.5858  0.1281
  660MOL0     H91023   5.543   9.278   8.437 -0.7097  1.2775 -1.4251
  660MOL0     H91024   5.600   9.396   8.566 -1.6216 -3.0086  0.8023
  660MOL0     H91025   5.585   9.434   8.264  0.6262  3.3025 -1.7748
  660MOL0     H91026   5.678   9.542   8.362 -0.0957  0.1689  1.0450
  660MOL0     H91027   5.422   9.578   8.296 -2.4549 -0.7751  0.6613
  660MOL0     H91028   5.398   9.490   8.451 -1.2236  0.4206 -1.2236
  660MOL0     H91029   5.570   9.829   8.395 -1.3142 -2.4350 -1.2618
  660MOL0     H91030   5.443  10.024   8.681  0.7509 -0.2655  1.1005
  660MOL0     H91031   5.562  10.040   8.547 -0.2259 -1.4579 -0.8442
  660MOL0     H91032   5.607   9.946   8.826 -2.3515  1.0746 -0.4770
  660MOL0     H91033   5.730   9.922   8.699  0.4574  1.8969 -1.2912
  660MOL0     H91034   5.692  10.177   8.668 -3.8997 -2.2260 -0.8636
  660MOL0     H91035   5.612  10.170   8.835  0.1490 -1.5748  2.7550
  660MOL0     H91036   5.901  10.116   8.792  0.9668  0.1588  1.0361
  660MOL0     H91037   5.814  10.251   8.863  2.4884  0.1449 -0.7009
  660MOL0     H91038   5.837   9.925   9.171 -1.3056  1.7718  0.1798
  660MOL0     H91039   6.123   9.804   9.320  1.5914  1.0521  0.5503
  660MOL0     H91040   5.957   9.792   9.342 -1.2103  0.5731  3.3062
  660MOL0     H91041   6.031   9.906   9.440  2.3056 -3.9499  1.6622
  660MOL0     H91042   6.348   9.805   9.449 -1.2261  1.7967 -1.1729
  660MOL0     H91043   6.566   9.727   9.514 -0.0413  0.2404 -1.2645
  660MOL0     H91044   6.884  10.002   9.667  0.6252 -0.9254 -1.6909
  660MOL0     H91045   6.774   9.966   9.797  2.6805  1.5745  1.3522
  660MOL0     H91046   6.991   9.890   9.852  0.3298 -0.0616 -0.2551
  660MOL0     H91047   6.883   9.751   9.857 -0.2046 -1.9856 -1.0503
  660MOL0     H91048   6.980   9.730   9.605 -1.2278  4.9343 -0.8807
  660MOL0     H91049   7.069   9.675   9.759 -0.0218  2.4105  2.5026
  660MOL0     H91050   7.151   9.942   9.714 -0.2485  0.7087 -0.1000
  660MOL0     H91051   7.139   9.868   9.554  0.1921 -2.9589  0.6200
  660MOL0     H91052   7.266   9.666   9.672  0.5465 -1.0618  1.4025
  660MOL0     H91053   7.348   9.807   9.596  1.5331  0.7460  1.5245
  660MOL0     H91054   7.286   9.783   9.885 -0.0804 -1.1753 -0.2222
  660MOL0     H91055   7.380   9.914   9.807 -0.4028  0.1395  0.6030
  660MOL0     H91056   7.451   9.616   9.810 -0.0095 -0.1343  0.1289
  660MOL0     H91057   7.543   9.750   9.895 -0.1279  2.8829 -0.2386
  660MOL0     H91058   7.618   9.851   9.684  2.1593  0.1235 -0.8745
  660MOL0     H91059   7.525   9.709   9.618 -0.9742  2.7930 -0.3476
  660MOL0     H91060   6.678  10.111   9.655 -1.9379  3.3256 -0.1463
  660MOL0     H91061   6.470  10.207   9.564 -2.3354 -0.5975  0.2268
  660MOL0     H91062   6.234  10.198   9.103  1.3429 -2.1616 -1.7844
  660MOL0     H91063   6.039  10.218   8.935  1.2056  2.8693  1.1564
  660MOL0     H91064   5.611   9.182   7.868 -1.8674 -0.3670 -1.0532
  660MOL0     H91065   5.400   9.219   7.784 -2.2132  1.2952  0.9091
  660MOL0     H91066   5.019   9.385   7.845  2.7025 -0.5617 -1.3553
  660MOL0     H91067   4.773   9.389   7.814  1.5226 -2.3657  0.4004
  660MOL0     H91068   4.572   9.352   7.726  0.4643  1.1081  1.7231
  660MOL0     H91069   4.457   9.446   7.633 -1.4840 -0.7856 -2.9427
  660MOL0     H91070   4.644   9.254   7.513  0.6993  2.3534 -0.8329
  660MOL0     H91071   4.506   9.341   7.429 -3.2098 -3.1153 -0.4578
  660MOL0     H91072   4.457   9.147   7.662 -0.5610 -1.9434  0.1707
  660MOL0     H91073   4.337   9.219   7.549 -0.0059 -0.3417  1.2931
  660MOL0     H91074   4.456   9.081   7.361 -2.6168 -1.0940  0.4182
  660MOL0     H91075   4.363   8.999   7.479 -0.5726  0.5368  0.2199
  660MOL0     H91076   4.779   8.903   7.569  1.9046  0.2989 -2.6122
  660MOL0     H91077   4.796   9.614   7.461  0.2607  1.5310  0.8723
  660MOL0     H91078   5.004   9.670   7.361 -0.2078 -1.4843  0.0643
  660MOL0     H91079   5.106   9.754   7.474 -1.8192  0.2813  0.5487
  660MOL0     H91080   5.163   9.597   7.420  0.2163  0.4187  0.2739
  661MOL0     O91081   2.834   0.674   4.177  0.8403  0.9362 -0.1248
  661MOL0     C91082   2.722   0.623   4.165 -0.9432  0.1948  0.2595
  661MOL0     O91083   2.611   0.687   4.192  0.3431 -0.3648  0.3091
  661MOL0     C91084   2.627   0.805   4.255  0.9067 -0.2022 -0.1757
  661MOL0     C91085   2.622   0.922   4.175 -0.0144 -0.0942  0.3780
  661MOL0     C91086   2.618   1.045   4.235  0.3360 -0.6610  0.0480
  661MOL0     C91087   2.620   1.057   4.378 -0.2572 -0.7705  0.2314
  661MOL0     O91088   2.614   1.180   4.432 -0.2810  0.4620  0.1102
  661MOL0     C91089   2.549   1.197   4.555 -0.2989  0.1936 -0.2398
  661MOL0     C91090   2.593   1.327   4.617 -0.5075  0.5756  0.2162
  661MOL0     C91091   2.723   1.314   4.693  0.6043  0.1092  0.0371
  661MOL0     C91092   2.776   1.447   4.746  0.5290  0.1141  0.0602
  661MOL0     C91093   2.895   1.441   4.839  1.5453 -0.0331 -0.0813
  661MOL0     C91094   3.026   1.392   4.767 -0.1923  0.3742  0.1645
  661MOL0     C91095   3.139   1.420   4.873  1.0503 -0.1830  0.4567
  661MOL0     C91096   3.274   1.358   4.831 -0.3059 -0.3606 -0.4236
  661MOL0     N91097   3.386   1.360   4.932 -0.4973 -0.9261  0.4742
  661MOL0     C91098   3.416   1.474   5.004  0.6057  0.2631  1.4957
  661MOL0     C91099   3.522   1.440   5.082  0.2695  0.1906 -1.1849
  661MOL0     C91100   3.584   1.529   5.186 -0.5465  0.2980  0.3048
  661MOL0     C91101   3.736   1.533   5.173 -0.2670 -0.6650 -0.1039
  661MOL0     C91102   3.778   1.563   5.035 -0.1891  0.9018 -0.9654
  661MOL0     C91103   3.733   1.701   4.975  1.3446 -0.2883 -0.2512
  661MOL0     O91104   3.786   1.813   5.063  0.0867  0.3148 -0.1959
  661MOL0     C91105   3.921   1.835   5.075 -0.4075 -0.2290  0.5995
  661MOL0     C91106   3.961   1.913   5.189  0.5783  0.7636 -0.3513
  661MOL0     C91107   4.091   1.955   5.211  0.4947  0.0085 -0.6078
  661MOL0     C91108   4.110   2.025   5.338  0.3404  0.6356  0.0011
  661MOL0     C91109   4.186   1.916   5.116  0.2286 -0.4190 -0.2977
  661MOL0     C91110   4.336   1.952   5.127 -0.3316  0.1366 -0.7947
  661MOL0     O91111   4.391   2.006   5.238 -0.1793  0.5308  0.3137
  661MOL0     C91112   4.525   2.050   5.226  0.1271 -0.7450 -0.4470
  661MOL0     C91113   4.640   1.970   5.211 -0.5717 -0.3140 -0.1929
  661MOL0     C91114   4.772   2.019   5.215 -0.2613 -0.1225 -0.4739
  661MOL0     C91115   4.794   2.151   5.232  0.1947  0.0182 -0.6373
  661MOL0     O91116   4.913   2.215   5.254 -0.3275 -0.0671  0.4467
  661MOL0     C91117   5.031   2.135   5.293  0.2740 -0.0927  0.1521
  661MOL0     C91118   5.130   2.148   5.185  0.2143 -0.0018 -0.1825
  661MOL0     C91119   5.257   2.067   5.218  0.6091  0.3965  0.4524
  661MOL0     C91120   5.355   2.088   5.109  0.0911  0.3683  0.9983
  661MOL0     C91121   5.486   2.015   5.142 -1.0867 -1.0257 -0.5555
  661MOL0     C91122   5.590   2.026   5.030 -0.3838 -0.1382 -0.3393
  661MOL0     C91123   5.716   1.944   5.062 -0.2758 -0.5391  1.0036
  661MOL0     C91124   5.848   2.022   5.047 -0.4223 -0.1175  0.0753
  661MOL0    Cl91125   5.986   1.930   5.113 -0.1464 -0.5007 -0.0821
  661MOL0     C91126   4.679   2.234   5.242  0.7245  0.5717 -0.3770
  661MOL0     C91127   4.548   2.188   5.238 -0.6909 -0.2659  0.0026
  661MOL0     O91128   4.398   1.945   5.019  0.2586 -0.2355  0.5595
  661MOL0     C91129   4.145   1.838   5.006 -0.7805 -0.1892 -0.4477
  661MOL0     C91130   4.017   1.788   4.977 -0.7527 -0.4731 -0.3012
  661MOL0     N91131   3.555   1.309   5.048 -0.4130  0.1310  0.0721
  661MOL0     N91132   3.469   1.259   4.966  0.4027 -0.1607 -0.1243
  661MOL0     C91133   2.624   0.939   4.452 -1.0486 -0.2097 -0.6752
  661MOL0     C91134   2.621   0.816   4.394  0.3239  0.4072 -0.1393
  661MOL0     C91135   2.715   0.482   4.132 -0.0551  1.1097  1.1055
  661MOL0     C91136   2.630   0.392   4.213  0.0589 -0.0754  0.5472
  661MOL0     C91137   2.609   0.253   4.188  0.0771  0.3007 -0.4134
  661MOL0     C91138   2.687   0.194   4.095 -0.1799 -0.5236  0.7098
  661MOL0     O91139   2.671   0.062   4.074  0.0750  0.3064  0.9211
  661MOL0     C91140   2.720  -0.003   3.955 -0.9216 -0.6155 -0.1243
  661MOL0     C91141   2.669   0.036   3.818 -0.3536 -0.2114  0.1637
  661MOL0     C91142   2.729  -0.067   3.705 -0.3429 -0.6084 -0.0744
  661MOL0     C91143   2.877  -0.079   3.703 -0.5044 -1.0136  0.5798
  661MOL0     C91144   2.937   0.058   3.706  0.3390 -0.1932  0.4637
  661MOL0     C91145   2.994   0.172   3.706  0.8728  0.0976  0.1090
  661MOL0     C91146   2.774   0.274   4.017 -0.0216 -0.0499 -0.0848
  661MOL0     C91147   2.793   0.415   4.034 -0.0469 -0.1651  0.3751
  661MOL0     C91148   2.899   0.481   3.955 -0.6409 -0.4824  0.3062
  661MOL0     H91149   2.619   0.910   4.067 -2.8804  2.8514 -0.0384
  661MOL0     H91150   2.617   1.135   4.174  3.0439  0.6303  1.6607
  661MOL0     H91151   2.575   1.120   4.629  2.5128 -0.3705 -1.6975
  661MOL0     H91152   2.442   1.186   4.534 -0.2985 -0.5125  0.0890
  661MOL0     H91153   2.613   1.403   4.541  0.8372  0.0468  0.0187
  661MOL0     H91154   2.512   1.358   4.684  0.0877 -2.2734  2.4728
  661MOL0     H91155   2.707   1.245   4.776 -0.1867 -1.2660 -1.2289
  661MOL0     H91156   2.796   1.266   4.628  1.6223  0.3812  0.9476
  661MOL0     H91157   2.812   1.505   4.660  0.5564 -0.5311 -0.3681
  661MOL0     H91158   2.687   1.485   4.798 -1.1336 -1.4212 -1.5008
  661MOL0     H91159   2.873   1.359   4.907 -0.1161  0.0956 -0.4102
  661MOL0     H91160   2.900   1.537   4.891 -1.2968  1.7813 -2.8020
  661MOL0     H91161   3.013   1.289   4.734 -1.9777  0.7015 -0.2696
  661MOL0     H91162   3.045   1.447   4.674  0.3986 -0.2956 -0.1169
  661MOL0     H91163   3.116   1.378   4.971  1.2522 -1.2450  0.0593
  661MOL0     H91164   3.146   1.527   4.896  1.9427 -0.4122  1.3310
  661MOL0     H91165   3.245   1.256   4.804 -2.9726 -0.0510  1.0241
  661MOL0     H91166   3.303   1.414   4.741 -0.1688  2.0374  1.0386
  661MOL0     H91167   3.366   1.569   4.985 -1.6409 -1.1074  0.1227
  661MOL0     H91168   3.556   1.495   5.287 -2.5869  0.8549 -0.0259
  661MOL0     H91169   3.552   1.633   5.177  1.2408  0.7211 -1.9486
  661MOL0     H91170   3.774   1.605   5.245 -0.5423 -0.4704 -0.1521
  661MOL0     H91171   3.777   1.434   5.196 -1.7152 -1.6580 -1.6205
  661MOL0     H91172   3.887   1.568   5.042 -0.2752  0.5789  1.2183
  661MOL0     H91173   3.752   1.483   4.965  1.6786 -1.3225  0.7504
  661MOL0     H91174   3.766   1.726   4.874  2.6886  2.3194  0.7268
  661MOL0     H91175   3.624   1.702   4.984  1.3145  1.3319 -0.5020
  661MOL0     H91176   3.876   1.948   5.246  0.9203  0.3612  0.4163
  661MOL0     H91177   4.085   2.128   5.310 -0.2929  0.9645  1.6757
  661MOL0     H91178   4.215   2.027   5.370  0.8678 -2.2472 -1.2436
  661MOL0     H91179   4.038   2.014   5.419 -1.2085  1.3817 -1.2272
  661MOL0     H91180   4.632   1.863   5.197  2.2458 -0.4685 -1.1715
  661MOL0     H91181   4.850   1.944   5.208  0.6514  0.9656 -2.8301
  661MOL0     H91182   5.069   2.183   5.384  2.3777  0.6360 -1.0299
  661MOL0     H91183   5.011   2.030   5.316  0.5802 -0.3442 -0.7049
  661MOL0     H91184   5.091   2.103   5.093  0.6931 -2.7869  0.8971
  661MOL0     H91185   5.159   2.252   5.166 -0.3941 -0.2346 -2.6940
  661MOL0     H91186   5.228   1.962   5.210 -0.7200  0.8719 -2.2603
  661MOL0     H91187   5.292   2.086   5.320 -0.2792 -1.3442  1.1329
  661MOL0     H91188   5.375   2.195   5.098 -0.2665  0.4544  1.1696
  661MOL0     H91189   5.303   2.052   5.020 -0.6733  1.9736  0.7466
  661MOL0     H91190   5.537   2.048   5.232 -1.9520 -2.7314  0.6284
  661MOL0     H91191   5.468   1.908   5.158  4.3356 -1.7320  3.4327
  661MOL0     H91192   5.621   2.130   5.031  4.4661 -1.2672  2.6758
  661MOL0     H91193   5.544   1.987   4.939 -2.1558 -2.0914  1.2739
  661MOL0     H91194   5.735   1.851   5.008  2.0137  0.7430 -0.5962
  661MOL0     H91195   5.703   1.908   5.165 -2.0350 -0.7025  0.7507
  661MOL0     H91196   5.827   2.107   5.113 -3.6076  0.0876 -1.0292
  661MOL0     H91197   5.871   2.061   4.948  1.7411 -2.1804 -0.3232
  661MOL0     H91198   4.685   2.342   5.233  0.4841  0.6328  0.1581
  661MOL0     H91199   4.475   2.268   5.229  2.9718  3.2736 -2.0575
  661MOL0     H91200   4.230   1.806   4.946 -1.1545  1.1687 -1.7694
  661MOL0     H91201   3.999   1.747   4.878  0.7689  1.4167 -1.4452
  661MOL0     H91202   2.624   0.946   4.560  1.8932  0.7756 -0.6457
  661MOL0     H91203   2.603   0.723   4.447 -2.9346 -0.4255 -2.3918
  661MOL0     H91204   2.574   0.436   4.295 -1.5475 -2.9545  1.1330
  661MOL0     H91205   2.525   0.203   4.235 -0.4565  0.9082 -0.7102
  661MOL0     H91206   2.827   0.016   3.950 -1.3054  1.5339 -1.4722
  661MOL0     H91207   2.699  -0.110   3.965  0.3003 -0.7299  1.8129
  661MOL0     H91208   2.692   0.141   3.795  1.1289 -0.6065 -0.2422
  661MOL0     H91209   2.562   0.016   3.821 -0.9405  1.8952 -2.7902
  661MOL0     H91210   2.679  -0.163   3.723 -1.0238  0.0001  1.4966
  661MOL0     H91211   2.697  -0.045   3.603 -0.1209  2.0444  0.3683
  661MOL0     H91212   2.919  -0.135   3.619 -1.2323  1.7855 -1.8168
  661MOL0     H91213   2.910  -0.126   3.796  1.6064  0.8263  0.8315
  661MOL0     H91214   3.061   0.256   3.713  2.5506 -1.1923  0.0298
  661MOL0     H91215   2.835   0.230   3.940 -0.5064  0.6238 -0.8759
  661MOL0     H91216   2.982   0.494   4.025 -1.1648 -2.2450  1.3096
  661MOL0     H91217   2.924   0.425   3.864  0.3083  0.7132 -0.1999
  661MOL0     H91218   2.865   0.581   3.926  0.0600  0.9175  3.8032
  662MOL0     O91219   5.480   0.915   3.961  0.1573 -0.7076 -0.3870
  662MOL0     C91220   5.436   0.813   4.010  0.5104 -0.0487  0.5759
  662MOL0     O91221   5.472   0.694   3.964 -0.4101 -0.2942  0.0979
  662MOL0     C91222   5.605   0.664   3.954  0.2933  0.3406 -0.3498
  662MOL0     C91223   5.638   0.539   3.901 -0.5140 -0.3652  0.2008
  662MOL0     C91224   5.775   0.497   3.887  0.3233 -0.5713 -0.4998
  662MOL0     C91225   5.879   0.582   3.910 -0.2279  0.4892  0.5407
  662MOL0     O91226   6.000   0.540   3.855  0.2436  0.0059 -0.2945
  662MOL0     C91227   6.092   0.651   3.852 -0.3437  0.0983 -0.6759
  662MOL0     C91228   6.208   0.591   3.772 -0.6080  0.1711 -0.0446
  662MOL0     C91229   6.267   0.709   3.701 -0.4277 -0.6256  0.2336
  662MOL0     C91230   6.385   0.649   3.621 -0.3107  0.5893 -0.2901
  662MOL0     C91231   6.490   0.755   3.589 -0.0084  0.4405  0.4985
  662MOL0     C91232   6.599   0.704   3.493 -0.0785 -0.1481 -0.8148
  662MOL0     C91233   6.712   0.800   3.485  0.6229 -0.2769  0.2380
  662MOL0     C91234   6.789   0.808   3.356 -0.0697  0.0537  0.2987
  662MOL0     N91235   6.865   0.677   3.339 -0.3882 -0.3070 -0.0759
  662MOL0     C91236   6.999   0.660   3.375 -0.8010 -0.0085  0.0087
  662MOL0     C91237   7.033   0.535   3.342  0.3598  0.2578 -0.0529
  662MOL0     C91238   7.165   0.475   3.378  0.0536 -0.3742 -0.4245
  662MOL0     C91239   7.267   0.491   3.269  0.2933  0.8148  0.0580
  662MOL0     C91240   7.412   0.463   3.318 -0.1628  0.1006  1.0989
  662MOL0     C91241   7.530   0.475   3.217  0.4172 -0.8602  0.5676
  662MOL0     O91242   7.551   0.605   3.160 -0.6204  0.3529  0.3644
  662MOL0     C91243   7.665   0.638   3.093 -1.0533  0.3305 -0.6508
  662MOL0     C91244   7.757   0.544   3.031  0.1412 -0.3338  0.1111
  662MOL0     C91245   7.883   0.583   2.979  0.1328 -0.2517 -0.5313
  662MOL0     C91246   7.986   0.479   2.945  0.3656 -0.5450 -0.2130
  662MOL0     C91247   7.915   0.723   2.978  0.1603  0.8484 -0.0198
  662MOL0     C91248   8.043   0.778   2.934 -0.7040 -0.0406  0.1244
  662MOL0     O91249   8.161   0.726   2.984  0.7160 -0.8172 -0.1856
  662MOL0     C91250   8.276   0.781   2.939  0.1072  0.2254 -0.9053
  662MOL0     C91251   8.354   0.737   2.831  0.6138 -0.1637 -0.0068
  662MOL0     C91252   8.473   0.798   2.788 -0.0289  0.5682 -0.2990
  662MOL0     C91253   8.521   0.906   2.849 -0.1912 -0.2424 -0.3994
  662MOL0     O91254   8.635   0.951   2.802  0.1674  0.1439  0.2323
  662MOL0     C91255   8.718   1.038   2.884 -0.5143 -0.8746 -0.9203
  662MOL0     C91256   8.862   1.051   2.831  0.5818 -0.3714  0.3343
  662MOL0     C91257   8.938   0.918   2.846 -0.0717 -0.0530 -0.2636
  662MOL0     C91258   9.085   0.934   2.809  0.2927  0.0891 -0.1375
  662MOL0     C91259   9.168   0.810   2.852 -0.0230  0.9023 -0.0239
  662MOL0     C91260   9.298   0.804   2.772 -0.3297  0.6850 -0.8452
  662MOL0     C91261   9.379   0.700   2.830 -1.2424  0.0590  0.7582
  662MOL0     C91262   9.507   0.691   2.750 -0.9180  0.1240 -0.4403
  662MOL0    Cl91263   9.614   0.808   2.819  0.5494 -0.1179  0.2941
  662MOL0     C91264   8.445   0.956   2.950 -0.0733 -0.1347  0.3195
  662MOL0     C91265   8.338   0.888   3.009  0.0116  0.3624  0.4330
  662MOL0     O91266   8.033   0.883   2.876  0.2860 -0.1804  0.2103
  662MOL0     C91267   7.817   0.814   3.018 -0.4139  0.1703  1.0061
  662MOL0     C91268   7.690   0.772   3.067 -0.4914 -0.1905 -0.9457
  662MOL0     N91269   6.922   0.468   3.286  0.2565  0.1176  0.0187
  662MOL0     N91270   6.823   0.559   3.287 -0.1460  0.1782  0.1011
  662MOL0     C91271   5.850   0.708   3.967  0.0010  0.5163 -0.1982
  662MOL0     C91272   5.715   0.746   3.988 -0.4261 -0.4099  0.2831
  662MOL0     C91273   5.316   0.812   4.100  1.0745  0.2260 -0.4472
  662MOL0     C91274   5.253   0.684   4.125  0.0287  0.4986  0.0790
  662MOL0     C91275   5.129   0.686   4.195  0.1325  0.3014 -0.2913
  662MOL0     C91276   5.065   0.798   4.248 -0.0949  0.0132 -0.3192
  662MOL0     O91277   4.957   0.787   4.337 -0.0644  0.1554  0.4793
  662MOL0     C91278   4.834   0.844   4.283  0.9765 -0.1913 -1.0298
  662MOL0     C91279   4.710   0.804   4.363  0.4115  0.7187 -0.0515
  662MOL0     C91280   4.654   0.665   4.335 -0.4544 -0.1966  0.0598
  662MOL0     C91281   4.511   0.641   4.380 -0.1956  0.3246 -0.9032
  662MOL0     C91282   4.500   0.648   4.527  0.1963  0.0529 -0.0025
  662MOL0     C91283   4.474   0.666   4.646  0.6750  0.0855 -0.4273
  662MOL0     C91284   5.131   0.922   4.228 -0.3928  0.6726  0.5411
  662MOL0     C91285   5.251   0.930   4.151 -0.3203 -0.7550  0.3632
  662MOL0     C91286   5.319   1.060   4.141 -0.1344  0.0588  0.3690
  662MOL0     H91287   5.558   0.466   3.896  1.6472 -2.8356 -1.0371
  662MOL0     H91288   5.805   0.398   3.854  0.6820 -0.8017  0.5125
  662MOL0     H91289   6.128   0.684   3.950 -0.4478 -2.1917  0.2014
  662MOL0     H91290   6.043   0.732   3.798 -0.8611  1.0348  1.1266
  662MOL0     H91291   6.280   0.527   3.824  1.9384  1.3098 -1.9682
  662MOL0     H91292   6.175   0.531   3.687 -0.8063  0.2878 -0.0509
  662MOL0     H91293   6.195   0.762   3.637  0.2400  1.2864  0.9969
  662MOL0     H91294   6.299   0.785   3.773 -0.7937 -0.7361  0.5175
  662MOL0     H91295   6.438   0.574   3.680  2.6106  1.5869 -1.4589
  662MOL0     H91296   6.341   0.609   3.530  1.0682  0.1320 -0.7731
  662MOL0     H91297   6.528   0.789   3.686  0.4229 -1.2738  0.9665
  662MOL0     H91298   6.442   0.839   3.538  2.0466  1.0522 -0.5455
  662MOL0     H91299   6.640   0.610   3.530 -0.6028 -0.2233 -0.4264
  662MOL0     H91300   6.557   0.697   3.392 -1.7792 -1.7059 -0.0414
  662MOL0     H91301   6.780   0.775   3.566 -1.4104 -1.5641  1.6535
  662MOL0     H91302   6.675   0.900   3.510  0.4252 -0.2083 -0.3102
  662MOL0     H91303   6.720   0.819   3.271  0.3870 -6.2284 -1.3545
  662MOL0     H91304   6.863   0.887   3.370 -0.9964  1.3841 -1.7686
  662MOL0     H91305   7.084   0.723   3.401  2.4307 -3.5047 -1.2140
  662MOL0     H91306   7.161   0.380   3.430 -0.2965  0.2114  0.6464
  662MOL0     H91307   7.203   0.541   3.457  2.2632 -1.8753 -0.1613
  662MOL0     H91308   7.257   0.421   3.186  3.4858 -0.4121  0.5314
  662MOL0     H91309   7.256   0.591   3.227 -1.8188  0.0721 -1.2795
  662MOL0     H91310   7.439   0.530   3.400  3.0958  0.3965 -0.0457
  662MOL0     H91311   7.416   0.358   3.346  0.9044 -0.8022 -2.0138
  662MOL0     H91312   7.623   0.438   3.261  2.1069  1.7099 -0.6166
  662MOL0     H91313   7.504   0.405   3.137 -0.7635 -1.1852  1.2148
  662MOL0     H91314   7.736   0.438   3.039 -0.2362 -0.6716 -3.7993
  662MOL0     H91315   8.042   0.496   2.852 -0.2431  0.7838 -0.3551
  662MOL0     H91316   7.933   0.383   2.936  0.6010 -0.7516  0.5538
  662MOL0     H91317   8.058   0.468   3.026 -0.2438  1.6309  0.6733
  662MOL0     H91318   8.323   0.654   2.768  0.4630  1.3789 -2.0747
  662MOL0     H91319   8.529   0.758   2.703 -1.5125 -0.4814 -0.8148
  662MOL0     H91320   8.676   1.139   2.876 -0.8304 -0.6177  2.4829
  662MOL0     H91321   8.731   1.017   2.990 -0.3807  1.2420 -0.4729
  662MOL0     H91322   8.856   1.087   2.728 -1.3315  2.9019  1.4682
  662MOL0     H91323   8.923   1.128   2.878  2.3003 -0.7708 -1.1364
  662MOL0     H91324   8.907   0.841   2.775  3.4854 -2.3372  0.4242
  662MOL0     H91325   8.936   0.885   2.950  1.2004  0.7113  0.0276
  662MOL0     H91326   9.131   1.013   2.870 -0.3110  0.7271 -0.4980
  662MOL0     H91327   9.096   0.960   2.704  0.5688  1.3207  0.1765
  662MOL0     H91328   9.185   0.816   2.960  1.8922  1.8580 -0.3278
  662MOL0     H91329   9.114   0.719   2.823  1.0608  0.6419 -1.3900
  662MOL0     H91330   9.354   0.898   2.783  1.9032 -0.5894 -0.8127
  662MOL0     H91331   9.277   0.788   2.666  0.5599 -2.5249 -0.6266
  662MOL0     H91332   9.332   0.602   2.820  0.8827 -0.8346 -1.3655
  662MOL0     H91333   9.396   0.717   2.937 -1.3693  0.0741  0.7761
  662MOL0     H91334   9.490   0.714   2.645  1.9817  0.8115 -0.8477
  662MOL0     H91335   9.557   0.594   2.763 -1.7968 -0.5434 -1.8216
  662MOL0     H91336   8.483   1.048   2.992  2.5674 -0.6181 -0.7943
  662MOL0     H91337   8.287   0.924   3.098 -1.6564 -1.6510  0.3513
  662MOL0     H91338   7.832   0.921   3.020 -1.3937  0.3537 -0.1743
  662MOL0     H91339   7.622   0.854   3.090 -0.7122 -0.1513 -1.7293
  662MOL0     H91340   5.922   0.785   3.995 -1.2724  1.4952  0.5208
  662MOL0     H91341   5.687   0.843   4.029 -3.5423 -1.1463  0.1435
  662MOL0     H91342   5.279   0.590   4.077  1.5940  1.5492 -1.2486
  662MOL0     H91343   5.078   0.591   4.206 -1.0840  0.4501 -3.6245
  662MOL0     H91344   4.843   0.953   4.275 -0.4636 -0.0414 -0.8652
  662MOL0     H91345   4.818   0.812   4.179 -3.4242  1.3900 -1.0595
  662MOL0     H91346   4.625   0.870   4.345 -2.4103 -1.7446  3.0306
  662MOL0     H91347   4.729   0.813   4.470 -0.1554  0.7553  0.0485
  662MOL0     H91348   4.647   0.648   4.227 -0.5885  0.4207 -0.0308
  662MOL0     H91349   4.728   0.593   4.371 -1.4584 -0.2323  2.1819
  662MOL0     H91350   4.483   0.540   4.348 -0.1113  0.0852 -0.2370
  662MOL0     H91351   4.433   0.707   4.339 -1.2201 -0.3845 -0.1552
  662MOL0     H91352   4.446   0.676   4.749 -0.3189 -1.1995 -0.5460
  662MOL0     H91353   5.096   1.012   4.278 -3.2907  0.1024 -0.2873
  662MOL0     H91354   5.422   1.033   4.168  0.2158 -0.5639 -1.4263
  662MOL0     H91355   5.319   1.095   4.037 -2.4091 -3.6701 -1.1050
  662MOL0     H91356   5.271   1.131   4.209  1.5395 -0.3637  2.0645
  663MOL0     O91357   5.832  10.074   0.225 -0.0192  0.4536  0.1260
  663MOL0     C91358   5.897  10.024   0.134  0.6384 -0.6425  0.4886
  663MOL0     O91359   6.029  10.026   0.118 -0.1014  0.8092  0.1445
  663MOL0     C91360   6.111  10.098   0.193 -0.3847 -0.3713 -0.3342
  663MOL0     C91361   6.080  10.232   0.243 -1.0967 -0.3319 -0.9448
  663MOL0     C91362   6.181  10.311   0.303  0.8947 -0.8493 -0.0616
  663MOL0     C91363   6.310  10.267   0.315 -0.9951 -0.2551 -0.2685
  663MOL0     O91364   6.418  10.330   0.380  0.4181  0.4498 -0.0653
  663MOL0     C91365   6.396  10.434   0.470  0.4235 -0.0446 -0.3402
  663MOL0     C91366   6.522  10.520   0.474 -1.2784  0.0052 -0.4312
  663MOL0     C91367   6.654  10.438   0.502  0.1672  0.2364 -0.7638
  663MOL0     C91368   6.653  10.393   0.642  0.4559  0.0962 -0.6712
  663MOL0     C91369   6.769  10.299   0.690 -0.0325  0.6186 -1.0476
  663MOL0     C91370   6.909  10.333   0.667 -0.2764 -0.1007  1.2106
  663MOL0     C91371   7.009  10.279   0.768  0.1699 -0.0292 -0.1363
  663MOL0     C91372   7.145  10.336   0.732 -0.7984 -0.7526  1.2103
  663MOL0     N91373   7.228  10.320   0.844 -0.0508 -0.7202  0.5710
  663MOL0     C91374   7.220  10.372   0.973 -0.4436 -0.0613 -0.1936
  663MOL0     C91375   7.344  10.337   1.026  0.0682 -0.1800 -0.2654
  663MOL0     C91376   7.377  10.368   1.169 -0.3251 -0.2930  0.0219
  663MOL0     C91377   7.428  10.248   1.259  0.6402  0.8306  0.3121
  663MOL0     C91378   7.516  10.302   1.371 -0.1521  0.2886 -0.8217
  663MOL0     C91379   7.570  10.187   1.468 -0.7695 -0.5188  0.1794
  663MOL0     O91380   7.691  10.242   1.529 -0.1102 -0.0971 -0.0735
  663MOL0     C91381   7.674  10.318   1.645 -0.8753 -0.6349  0.0359
  663MOL0     C91382   7.724  10.451   1.656 -0.1153 -0.1451  0.4564
  663MOL0     C91383   7.717  10.538   1.765  0.3752  0.5079 -0.5120
  663MOL0     C91384   7.774  10.683   1.755  0.3906  0.9163  0.1813
  663MOL0     C91385   7.660  10.483   1.880 -0.5408  0.1077 -0.3842
  663MOL0     C91386   7.641  10.557   2.003 -0.3822  0.3656 -0.9117
  663MOL0     O91387   7.649  10.486   2.117 -0.4562  0.2802  0.5124
  663MOL0     C91388   7.665  10.563   2.230  0.5127 -0.1659  0.3808
  663MOL0     C91389   7.589  10.529   2.341 -0.4354 -0.0511  0.3975
  663MOL0     C91390   7.606  10.600   2.458  1.2400 -0.0453  0.5013
  663MOL0     C91391   7.703  10.700   2.469 -0.3743 -0.0550  0.8201
  663MOL0     O91392   7.718  10.773   2.592 -0.0381  0.9205  0.6159
  663MOL0     C91393   7.847  10.832   2.624  0.0519  0.1998 -0.0578
  663MOL0     C91394   7.943  10.715   2.656 -0.2477 -0.1222 -0.3036
  663MOL0     C91395   8.077  10.759   2.711  1.4088 -0.6728 -0.0660
  663MOL0     C91396   8.195  10.667   2.698 -0.0162 -0.8849 -0.7045
  663MOL0     C91397   8.197  10.561   2.800  0.8851  1.5538  0.0121
  663MOL0     C91398   8.085  10.458   2.813 -0.6224 -0.0709  0.1278
  663MOL0     C91399   8.122  10.310   2.826 -0.4803  0.2685  0.0407
  663MOL0     C91400   8.132  10.267   2.978  0.5616  0.0191 -0.3644
  663MOL0    Cl91401   8.201  10.098   2.990 -0.0750  0.1767  0.0665
  663MOL0     C91402   7.783  10.723   2.360  0.3550  0.1687 -0.2824
  663MOL0     C91403   7.763  10.656   2.235 -0.7788  0.3031 -0.3285
  663MOL0     O91404   7.613  10.676   1.995 -0.1241  0.0126  0.0266
  663MOL0     C91405   7.628  10.348   1.877  0.6989 -0.2709 -0.1468
  663MOL0     C91406   7.631  10.262   1.764 -0.1002 -0.4038  1.6454
  663MOL0     N91407   7.419  10.267   0.938  0.7546  0.2329 -0.2849
  663MOL0     N91408   7.352  10.256   0.833 -0.4174 -0.5013 -0.8150
  663MOL0     C91409   6.331  10.131   0.269 -0.2540 -0.0717  0.6867
  663MOL0     C91410   6.236  10.052   0.206 -0.0706  0.3200 -0.2237
  663MOL0     C91411   5.835   9.949   0.026 -0.4080 -0.3437 -0.1441
  663MOL0     C91412   5.888   9.960  -0.106 -0.4279  0.1590  0.3743
  663MOL0     C91413   5.838   9.894  -0.217  0.3087 -0.2257 -0.1242
  663MOL0     C91414   5.726   9.807  -0.201 -0.7224 -0.2594  0.7601
  663MOL0     O91415   5.662   9.731  -0.302 -0.2647  0.0003 -0.0112
  663MOL0     C91416   5.706   9.743  -0.439 -0.1545  0.5878 -0.0238
  663MOL0     C91417   5.628   9.644  -0.523 -0.5508 -0.1270  0.6739
  663MOL0     C91418   5.643   9.663  -0.677 -0.0367 -0.4425 -0.1801
  663MOL0     C91419   5.577   9.535  -0.742 -0.3256 -0.3636  0.5066
  663MOL0     C91420   5.560   9.556  -0.889  0.3141  1.1503  0.3642
  663MOL0     C91421   5.552   9.578  -1.012  0.6644  0.0594  0.0777
  663MOL0     C91422   5.673   9.799  -0.066 -0.3961 -0.0657  0.1725
  663MOL0     C91423   5.725   9.865   0.040  0.2345 -0.3026 -0.4332
  663MOL0     C91424   5.664   9.837   0.178 -0.2884  0.1757 -0.5316
  663MOL0     H91425   5.976  10.264   0.237 -1.3123 -0.2029  2.1478
  663MOL0     H91426   6.143  10.406   0.340 -2.6117 -2.6706  1.5479
  663MOL0     H91427   6.374  10.394   0.569 -0.3875 -0.2360 -0.5864
  663MOL0     H91428   6.317  10.501   0.435 -0.0204  0.9768  2.4284
  663MOL0     H91429   6.538  10.564   0.375  3.1692  1.1929  0.6061
  663MOL0     H91430   6.508  10.602   0.545  1.1775 -0.2556  0.4233
  663MOL0     H91431   6.669  10.350   0.440 -2.6854 -0.8487 -0.0784
  663MOL0     H91432   6.744  10.500   0.490  1.6196 -1.4742  0.6231
  663MOL0     H91433   6.632  10.468   0.718 -3.4801  0.4186 -1.8692
  663MOL0     H91434   6.565  10.330   0.658  0.7296  0.3478  2.5564
  663MOL0     H91435   6.747  10.204   0.640 -1.4869  0.4545 -0.1615
  663MOL0     H91436   6.766  10.298   0.799  3.9779  1.5132 -0.7957
  663MOL0     H91437   6.936  10.314   0.563 -0.0446 -0.0053  1.2517
  663MOL0     H91438   6.916  10.442   0.679 -1.3951  0.5958 -2.9066
  663MOL0     H91439   7.011  10.170   0.778 -0.0352  0.1186  1.8660
  663MOL0     H91440   6.974  10.323   0.862 -1.4710 -0.4913 -0.4955
  663MOL0     H91441   7.183  10.284   0.644 -0.6117  1.0524  0.1683
  663MOL0     H91442   7.144  10.442   0.704 -1.5109 -0.8292  0.9109
  663MOL0     H91443   7.137  10.429   1.014 -0.4655 -0.1700 -0.0859
  663MOL0     H91444   7.293  10.412   1.225 -0.1774 -1.2995  1.0820
  663MOL0     H91445   7.462  10.436   1.167 -0.9132  0.5883  2.1081
  663MOL0     H91446   7.340  10.198   1.302 -0.4505  0.5080 -2.1128
  663MOL0     H91447   7.480  10.174   1.197  1.0368  1.2988  0.0800
  663MOL0     H91448   7.604  10.342   1.321  0.5226 -0.3371 -0.1721
  663MOL0     H91449   7.474  10.384   1.430  0.6315  0.2014 -0.1292
  663MOL0     H91450   7.495  10.158   1.543 -0.5670 -1.6978 -0.0464
  663MOL0     H91451   7.594  10.096   1.411 -1.0578  0.6347 -1.8353
  663MOL0     H91452   7.748  10.482   1.555  1.3220  3.6157  1.8010
  663MOL0     H91453   7.688  10.751   1.757 -0.8896 -0.6775  1.0117
  663MOL0     H91454   7.827  10.697   1.660  0.9411 -0.0244  0.3371
  663MOL0     H91455   7.839  10.701   1.842  0.5062 -1.1643  0.5574
  663MOL0     H91456   7.510  10.455   2.331 -0.9248  0.4518  0.4773
  663MOL0     H91457   7.542  10.578   2.543 -1.5261 -1.1223 -1.6692
  663MOL0     H91458   7.877  10.890   2.536 -0.9664  0.4016 -0.2800
  663MOL0     H91459   7.839  10.887   2.718  2.3993  2.0157 -0.8442
  663MOL0     H91460   7.900  10.648   2.731  0.1284 -1.1304 -0.9673
  663MOL0     H91461   7.947  10.656   2.565 -2.2205  0.2289 -0.6490
  663MOL0     H91462   8.069  10.798   2.813 -0.5855 -0.0305 -0.4267
  663MOL0     H91463   8.102  10.837   2.638  0.3223 -0.7677 -0.5545
  663MOL0     H91464   8.284  10.727   2.717 -0.3549 -0.6115  0.0839
  663MOL0     H91465   8.201  10.631   2.595 -0.9117 -0.2866 -0.9857
  663MOL0     H91466   8.285  10.498   2.788 -0.3427  0.3042 -4.4527
  663MOL0     H91467   8.204  10.624   2.889 -1.8146  0.4600  1.1387
  663MOL0     H91468   8.025  10.462   2.721  0.7886  0.5618 -0.7967
  663MOL0     H91469   8.021  10.495   2.893  1.7152  1.6642  1.3192
  663MOL0     H91470   8.214  10.283   2.774 -1.4372 -0.6875 -1.2399
  663MOL0     H91471   8.051  10.246   2.772  0.3563 -0.5304 -0.1458
  663MOL0     H91472   8.031  10.270   3.019  1.1592 -0.1792  1.1984
  663MOL0     H91473   8.192  10.342   3.031  0.6661 -0.1104 -0.2973
  663MOL0     H91474   7.866  10.793   2.358  1.6366 -1.3054 -0.7307
  663MOL0     H91475   7.818  10.687   2.147 -0.6053  0.3652 -0.1981
  663MOL0     H91476   7.606  10.298   1.971 -0.7649  0.1841 -0.2231
  663MOL0     H91477   7.621  10.154   1.763  1.1718 -0.5671 -1.3410
  663MOL0     H91478   6.432  10.092   0.278 -0.2823 -0.1407  0.7036
  663MOL0     H91479   6.268   9.952   0.176 -0.0173  0.0506  0.7017
  663MOL0     H91480   5.967  10.032  -0.124 -0.7435  0.4347  0.0738
  663MOL0     H91481   5.880   9.898  -0.317 -1.2634 -1.3813 -0.8652
  663MOL0     H91482   5.697   9.845  -0.478  0.0189  0.1521 -1.2615
  663MOL0     H91483   5.811   9.716  -0.443 -0.0411  1.1690 -2.4819
  663MOL0     H91484   5.524   9.637  -0.490 -1.1543 -1.6126 -1.2730
  663MOL0     H91485   5.663   9.544  -0.495 -1.3283 -0.4061  0.6761
  663MOL0     H91486   5.593   9.755  -0.707  2.4240  0.7575 -0.9003
  663MOL0     H91487   5.750   9.674  -0.700  0.1214 -0.3006  0.6127
  663MOL0     H91488   5.481   9.514  -0.695  0.4927 -0.9876  1.9750
  663MOL0     H91489   5.644   9.451  -0.724 -1.1616 -1.4609 -1.3476
  663MOL0     H91490   5.533   9.601  -1.114 -0.4894 -2.7502 -0.4514
  663MOL0     H91491   5.593   9.729  -0.043  1.6346 -1.6007  3.5184
  663MOL0     H91492   5.581   9.908   0.186 -0.8533 -0.5203 -0.0395
  663MOL0     H91493   5.619   9.738   0.191 -0.7966  0.5928  1.2470
  663MOL0     H91494   5.733   9.846   0.262 -0.7147 -2.9986  0.3014
  664MOL0     O91495   1.281   5.294   0.161 -0.1422 -0.7472 -0.1839
  664MOL0     C91496   1.187   5.267   0.091  0.2490  0.8509 -0.3596
  664MOL0     O91497   1.163   5.151   0.023 -0.6229 -0.2808 -0.6535
  664MOL0     C91498   1.266   5.074  -0.028  0.4241 -0.1961 -0.2660
  664MOL0     C91499   1.395   5.119  -0.051 -0.1141 -0.0871 -1.2492
  664MOL0     C91500   1.507   5.036  -0.092 -0.0431 -0.1529  0.4480
  664MOL0     C91501   1.479   4.905  -0.118 -0.1057 -0.0541 -0.3599
  664MOL0     O91502   1.585   4.823  -0.155 -0.1511 -0.0981 -0.4173
  664MOL0     C91503   1.589   4.776  -0.288 -0.6170 -1.3277 -0.1070
  664MOL0     C91504   1.718   4.697  -0.329 -0.0016 -0.5385  0.0190
  664MOL0     C91505   1.847   4.783  -0.348 -0.3103  0.3691 -0.2939
  664MOL0     C91506   1.961   4.674  -0.381 -0.2067 -0.1931 -0.1486
  664MOL0     C91507   2.080   4.740  -0.463  0.7396  0.5149  1.0422
  664MOL0     C91508   2.174   4.637  -0.519 -0.7860 -0.1259 -0.2620
  664MOL0     C91509   2.285   4.712  -0.594 -0.5250 -0.1105  0.9847
  664MOL0     C91510   2.403   4.746  -0.492  0.9287 -0.0530  0.0990
  664MOL0     N91511   2.537   4.762  -0.552 -0.0521 -0.2934 -0.2592
  664MOL0     C91512   2.605   4.671  -0.623 -0.4300  0.2874  0.3737
  664MOL0     C91513   2.702   4.743  -0.673 -0.0874  0.1627  0.3409
  664MOL0     C91514   2.808   4.692  -0.773  0.4709  0.6100  0.4348
  664MOL0     C91515   2.885   4.562  -0.737 -0.1801  0.0691 -0.3856
  664MOL0     C91516   2.965   4.505  -0.858 -0.4978  0.0592  0.0197
  664MOL0     C91517   3.075   4.597  -0.935 -0.6238  1.0395  0.2086
  664MOL0     O91518   3.028   4.696  -1.029  0.5537  0.1607  0.1648
  664MOL0     C91519   3.106   4.775  -1.108 -0.6115  0.7812 -0.1182
  664MOL0     C91520   3.040   4.839  -1.209 -1.0941 -0.3585 -1.6195
  664MOL0     C91521   3.096   4.928  -1.300 -0.8253  1.4800  0.2106
  664MOL0     C91522   2.998   4.997  -1.387 -0.2286  0.5356  0.2038
  664MOL0     C91523   3.244   4.946  -1.287  0.7155  0.5931 -0.5068
  664MOL0     C91524   3.318   5.046  -1.360  0.1433 -0.2169  0.3588
  664MOL0     O91525   3.278   5.089  -1.483  0.1322 -0.0299  0.3798
  664MOL0     C91526   3.356   5.185  -1.543 -0.2991  0.1904  0.8865
  664MOL0     C91527   3.407   5.163  -1.674  0.1496  0.7740  0.4952
  664MOL0     C91528   3.485   5.253  -1.748  0.4096  0.1989  0.0016
  664MOL0     C91529   3.509   5.381  -1.687  0.3519 -0.0037  0.0670
  664MOL0     O91530   3.586   5.466  -1.758 -0.5075  0.1301  0.1016
  664MOL0     C91531   3.675   5.553  -1.684  0.1842  0.0169 -0.0307
  664MOL0     C91532   3.770   5.619  -1.796 -0.1839 -0.3240 -0.6915
  664MOL0     C91533   3.868   5.713  -1.726 -0.0417 -0.8821 -0.4574
  664MOL0     C91534   3.953   5.797  -1.817  0.4853 -0.0070  0.3029
  664MOL0     C91535   4.076   5.861  -1.760  0.3869  0.3466  0.1339
  664MOL0     C91536   4.171   5.930  -1.864 -0.5220  0.7025 -0.6427
  664MOL0     C91537   4.307   5.960  -1.800 -0.4376 -0.0302 -0.1696
  664MOL0     C91538   4.409   6.022  -1.890  0.8516 -0.3696  0.2479
  664MOL0    Cl91539   4.576   6.016  -1.815  0.2562 -0.1451  0.1556
  664MOL0     C91540   3.464   5.410  -1.556 -0.3898  0.1421 -0.3492
  664MOL0     C91541   3.386   5.315  -1.490 -0.0316  0.3959 -1.1103
  664MOL0     O91542   3.417   5.083  -1.306  0.0814  0.3293 -0.5376
  664MOL0     C91543   3.308   4.874  -1.185  0.1992  0.5939 -0.3647
  664MOL0     C91544   3.244   4.786  -1.097  0.4174 -0.7748 -0.3743
  664MOL0     N91545   2.686   4.873  -0.626 -0.1211 -0.5547 -0.5502
  664MOL0     N91546   2.587   4.890  -0.544 -0.1200 -0.2377 -0.1007
  664MOL0     C91547   1.348   4.851  -0.096 -0.5605 -0.4932 -0.1112
  664MOL0     C91548   1.246   4.937  -0.055 -0.0664  0.3607  0.3639
  664MOL0     C91549   1.078   5.365   0.081 -0.0719  0.1132 -0.3306
  664MOL0     C91550   1.023   5.407  -0.047  0.1418 -0.7553  0.1289
  664MOL0     C91551   0.926   5.511  -0.052 -0.6136 -0.6173 -0.2249
  664MOL0     C91552   0.886   5.587   0.060  0.0434  0.4014  0.7883
  664MOL0     O91553   0.797   5.695   0.047 -0.1655 -0.0265 -0.9565
  664MOL0     C91554   0.853   5.815  -0.013  0.4466  0.4908 -0.1927
  664MOL0     C91555   0.990   5.859   0.058 -0.7690  0.3036 -0.3976
  664MOL0     C91556   1.045   5.972  -0.030 -0.1618 -0.3712  0.2206
  664MOL0     C91557   1.131   6.067   0.050 -0.0994  0.0142  0.4075
  664MOL0     C91558   1.155   6.182  -0.041  0.0487 -0.6835 -0.4434
  664MOL0     C91559   1.206   6.274  -0.106 -1.1086 -0.8392 -0.4761
  664MOL0     C91560   0.939   5.548   0.176 -0.2723  0.1186 -0.2495
  664MOL0     C91561   1.032   5.439   0.189 -0.4338 -0.5805  0.3466
  664MOL0     C91562   1.066   5.412   0.334  0.6704  0.5934 -0.0494
  664MOL0     H91563   1.422   5.223  -0.045  3.7801 -1.0255  0.8428
  664MOL0     H91564   1.609   5.072  -0.105 -0.0854 -0.7902 -1.9644
  664MOL0     H91565   1.579   4.863  -0.354 -1.7125 -1.6700 -0.4271
  664MOL0     H91566   1.502   4.710  -0.299 -1.5288 -0.6803  2.4589
  664MOL0     H91567   1.740   4.641  -0.238 -1.8666 -0.6357  0.4553
  664MOL0     H91568   1.698   4.627  -0.410 -1.3018 -0.2532  0.0725
  664MOL0     H91569   1.825   4.852  -0.431 -1.2207  3.7778  2.5358
  664MOL0     H91570   1.870   4.854  -0.268  1.2099  1.1992 -1.4271
  664MOL0     H91571   1.996   4.622  -0.291  0.1652  0.1946 -0.0657
  664MOL0     H91572   1.918   4.599  -0.446  0.3043 -0.8601  0.2675
  664MOL0     H91573   2.131   4.819  -0.407 -0.3764  1.6515  0.5154
  664MOL0     H91574   2.030   4.785  -0.549  0.6386  0.2192  0.9465
  664MOL0     H91575   2.209   4.565  -0.445 -0.9999  1.0359  1.0229
  664MOL0     H91576   2.115   4.582  -0.593 -2.2914 -0.1062  0.8668
  664MOL0     H91577   2.256   4.806  -0.640  1.5994 -0.3844 -1.0986
  664MOL0     H91578   2.324   4.639  -0.666  0.0715  0.3849  0.8020
  664MOL0     H91579   2.373   4.840  -0.443  1.2350  0.2590 -0.3081
  664MOL0     H91580   2.400   4.669  -0.415 -2.5862 -0.8531 -0.6411
  664MOL0     H91581   2.593   4.566  -0.647  3.0231  0.3886 -2.7317
  664MOL0     H91582   2.878   4.775  -0.788 -0.0169  1.1364  1.0287
  664MOL0     H91583   2.742   4.671  -0.857 -1.0565  1.2599  1.4360
  664MOL0     H91584   2.952   4.565  -0.650  2.4622  1.6968 -2.3291
  664MOL0     H91585   2.812   4.489  -0.701  2.3623 -2.7840 -0.6073
  664MOL0     H91586   3.020   4.416  -0.827  0.5314  0.1905 -1.3374
  664MOL0     H91587   2.904   4.467  -0.940 -2.5579 -0.4441  1.6899
  664MOL0     H91588   3.140   4.641  -0.858 -0.1375  0.6316  0.0377
  664MOL0     H91589   3.145   4.534  -0.990  1.0172  0.4128  2.8123
  664MOL0     H91590   2.935   4.817  -1.220 -1.3235  0.4380 -1.1399
  664MOL0     H91591   2.895   5.005  -1.351 -0.4003 -0.4711 -0.0462
  664MOL0     H91592   3.007   4.927  -1.471 -0.6103 -0.6578  1.1349
  664MOL0     H91593   3.031   5.099  -1.411 -0.4395  0.2808 -1.2780
  664MOL0     H91594   3.396   5.067  -1.724 -0.8087  1.6969 -1.1655
  664MOL0     H91595   3.532   5.232  -1.843  2.0288 -1.0351  1.0362
  664MOL0     H91596   3.623   5.631  -1.628 -1.7730 -1.1783 -0.1122
  664MOL0     H91597   3.727   5.497  -1.605  1.3892 -0.4513 -1.1172
  664MOL0     H91598   3.823   5.538  -1.848  1.2159 -1.8599  2.8240
  664MOL0     H91599   3.717   5.691  -1.858  1.0946  1.4089  0.1504
  664MOL0     H91600   3.928   5.643  -1.667 -0.9787 -1.2317  0.1002
  664MOL0     H91601   3.816   5.787  -1.665  2.1819 -1.9418  2.9990
  664MOL0     H91602   3.891   5.883  -1.846 -0.1989  0.3499  2.6096
  664MOL0     H91603   3.980   5.728  -1.897 -1.4912 -3.0874  2.0917
  664MOL0     H91604   4.040   5.940  -1.694  1.6087  1.3420 -0.3551
  664MOL0     H91605   4.126   5.792  -1.692 -1.3683  0.6167  1.7860
  664MOL0     H91606   4.116   6.022  -1.888 -2.4894  0.4836  2.4364
  664MOL0     H91607   4.193   5.878  -1.957  1.4558 -2.4048  1.3998
  664MOL0     H91608   4.342   5.865  -1.759 -2.2252 -1.3897 -1.5919
  664MOL0     H91609   4.292   6.028  -1.716  2.9843  1.4439 -0.5908
  664MOL0     H91610   4.385   6.125  -1.917 -1.5927 -1.4389 -2.1340
  664MOL0     H91611   4.403   5.958  -1.979 -0.1401 -0.7205  0.5502
  664MOL0     H91612   3.485   5.507  -1.513 -2.3409  0.2019  0.6159
  664MOL0     H91613   3.334   5.351  -1.402 -0.1865  2.0270 -1.8442
  664MOL0     H91614   3.417   4.878  -1.183  0.5172 -3.4590 -1.1343
  664MOL0     H91615   3.296   4.730  -1.020 -1.9828 -1.1140  1.1044
  664MOL0     H91616   1.327   4.745  -0.095  0.2328 -0.6694  1.5373
  664MOL0     H91617   1.149   4.902  -0.022 -0.8972  3.0608  1.0915
  664MOL0     H91618   1.064   5.356  -0.134 -0.0781  0.5662 -0.7828
  664MOL0     H91619   0.896   5.548  -0.150  0.4214  2.0533  0.3724
  664MOL0     H91620   0.871   5.793  -0.119  1.4325 -2.0386  0.4279
  664MOL0     H91621   0.773   5.889  -0.009 -1.7368 -1.5395 -2.2711
  664MOL0     H91622   1.056   5.772   0.053 -0.8971  0.1445  0.4152
  664MOL0     H91623   0.973   5.881   0.164  0.1922  0.3189 -0.2368
  664MOL0     H91624   1.100   5.916  -0.106  0.2485 -0.2075  0.3978
  664MOL0     H91625   0.958   6.020  -0.075  0.5921  1.8491  1.0417
  664MOL0     H91626   1.221   6.024   0.095 -1.3349  1.1930  4.4324
  664MOL0     H91627   1.074   6.105   0.135 -2.8738  0.3052 -1.4510
  664MOL0     H91628   1.260   6.332  -0.179  1.6420 -4.2535 -1.4278
  664MOL0     H91629   0.898   5.592   0.267 -1.2017 -2.1577  0.4812
  664MOL0     H91630   1.084   5.305   0.342 -0.3177  0.5013  1.3767
  664MOL0     H91631   1.144   5.475   0.377  0.6296 -0.9379  2.4608
  664MOL0     H91632   0.981   5.439   0.398 -0.0291  2.0622 -1.5355
  665MOL0     O91633  11.392  10.743   4.062 -0.6326 -0.7704  0.0386
  665MOL0     C91634  11.355  10.843   3.998  0.4744  0.9932 -0.4631
  665MOL0     O91635  11.412  10.961   4.015 -0.3282 -0.1147 -0.5630
  665MOL0     C91636  11.484  10.985   4.129  0.2152 -1.3727  0.1320
  665MOL0     C91637  11.623  10.969   4.147 -0.7622  0.2818 -0.5866
  665MOL0     C91638  11.694  10.990   4.274 -0.1311 -0.3292 -0.1313
  665MOL0     C91639  11.613  11.029   4.384  0.2431 -0.4089  0.4252
  665MOL0     O91640  11.662  11.049   4.512  0.6456 -0.1918 -0.0402
  665MOL0     C91641  11.755  10.949   4.551 -0.0050  0.4818  0.3010
  665MOL0     C91642  11.894  11.018   4.573 -0.3062 -0.4007 -0.0668
  665MOL0     C91643  11.981  10.917   4.644 -0.9615 -0.1803 -0.2875
  665MOL0     C91644  12.124  10.971   4.662 -0.1917 -0.2324 -0.2311
  665MOL0     C91645  12.213  10.846   4.656  0.3241  0.5995 -1.4435
  665MOL0     C91646  12.366  10.880   4.634 -0.7629 -0.2345  0.7314
  665MOL0     C91647  12.433  10.970   4.742  0.1575 -0.6175 -0.3050
  665MOL0     C91648  12.578  10.959   4.766  0.0446  0.6980  0.1633
  665MOL0     N91649  12.650  11.061   4.676  0.3243  0.2104 -0.2848
  665MOL0     C91650  12.687  11.035   4.540 -0.3378 -0.5843 -0.7516
  665MOL0     C91651  12.698  11.155   4.484  0.0459  0.4932  0.0734
  665MOL0     C91652  12.730  11.197   4.342  1.4006  0.1308 -0.2604
  665MOL0     C91653  12.605  11.274   4.295 -0.6241  0.7421  0.7221
  665MOL0     C91654  12.471  11.207   4.331  0.7409 -0.6283 -0.1553
  665MOL0     C91655  12.355  11.266   4.239  0.0443 -0.5153  0.0182
  665MOL0     O91656  12.358  11.198   4.115  0.1460  0.2800  0.8554
  665MOL0     C91657  12.252  11.169   4.036  0.2207  0.2884 -0.3141
  665MOL0     C91658  12.289  11.135   3.915 -0.6844 -0.4026  0.8565
  665MOL0     C91659  12.203  11.072   3.818  1.2119 -0.9269 -0.3007
  665MOL0     C91660  12.269  11.009   3.694  0.7083 -0.6066 -0.1813
  665MOL0     C91661  12.065  11.080   3.841  0.0426 -0.1208  0.4611
  665MOL0     C91662  11.957  11.018   3.764  0.1869 -0.4833 -0.3305
  665MOL0     O91663  11.977  10.993   3.631  0.6155  0.2977  0.1786
  665MOL0     C91664  11.878  10.925   3.559 -0.7256 -0.4535 -0.3883
  665MOL0     C91665  11.910  10.804   3.502 -0.3879 -0.1705 -0.3799
  665MOL0     C91666  11.821  10.744   3.412 -0.1564 -0.0540  0.1866
  665MOL0     C91667  11.700  10.809   3.362  0.3014 -0.5961  0.0778
  665MOL0     O91668  11.630  10.751   3.264  0.8589 -0.4874  0.2254
  665MOL0     C91669  11.514  10.813   3.195 -0.2634  0.1729  0.2507
  665MOL0     C91670  11.455  10.694   3.112  0.0118  0.1452 -0.3188
  665MOL0     C91671  11.338  10.749   3.034 -0.3833  0.5352 -0.9872
  665MOL0     C91672  11.275  10.646   2.938  0.2085 -0.5211  0.4173
  665MOL0     C91673  11.167  10.693   2.845  0.9388 -0.2348 -0.7103
  665MOL0     C91674  11.138  10.591   2.736  0.5163  0.3645 -1.1624
  665MOL0     C91675  11.015  10.637   2.651  0.8971 -0.3880 -0.1814
  665MOL0     C91676  10.869  10.629   2.709  0.3728  0.0712 -0.4976
  665MOL0    Cl91677  10.801  10.462   2.687  0.4373  0.0103 -0.3797
  665MOL0     C91678  11.676  10.939   3.414 -0.9495 -0.4061 -0.9106
  665MOL0     C91679  11.761  10.995   3.516 -0.9645 -0.0934  0.0940
  665MOL0     O91680  11.858  10.980   3.831 -0.1283  1.4335 -0.6354
  665MOL0     C91681  12.027  11.133   3.966  0.7098 -0.4242  0.6405
  665MOL0     C91682  12.120  11.179   4.062  0.1966 -0.7452  0.7768
  665MOL0     N91683  12.670  11.251   4.580  0.2824  0.2678 -0.3665
  665MOL0     N91684  12.638  11.199   4.692  0.1088  0.3680 -0.9696
  665MOL0     C91685  11.473  11.053   4.365 -1.4098 -0.1851  0.2496
  665MOL0     C91686  11.418  11.030   4.240 -0.2490 -0.3938 -0.1599
  665MOL0     C91687  11.226  10.837   3.923  0.5396  0.4247  0.1680
  665MOL0     C91688  11.151  10.957   3.924  0.4823 -0.2635  0.4662
  665MOL0     C91689  11.025  10.947   3.870 -0.7864  0.1935  0.3424
  665MOL0     C91690  10.967  10.835   3.817 -0.0274 -0.6296  0.0022
  665MOL0     O91691  10.839  10.822   3.776 -0.0777  0.1438  0.6537
  665MOL0     C91692  10.768  10.947   3.760  0.5220  1.3832 -0.7722
  665MOL0     C91693  10.625  10.909   3.713 -0.0565 -0.0342  0.1850
  665MOL0     C91694  10.538  11.032   3.734  0.6718  0.3507  0.6736
  665MOL0     C91695  10.396  11.001   3.681  0.2321 -0.6095  0.0705
  665MOL0     C91696  10.310  11.117   3.713 -0.3450 -0.4667 -0.2729
  665MOL0     C91697  10.242  11.211   3.730 -0.4345 -0.4758  0.3091
  665MOL0     C91698  11.046  10.715   3.828  0.5274 -0.8721  0.4330
  665MOL0     C91699  11.172  10.712   3.879 -0.0132  0.0253 -0.0238
  665MOL0     C91700  11.250  10.585   3.858 -0.1225 -0.4603  0.0591
  665MOL0     H91701  11.680  10.940   4.059  0.2383 -0.1409  0.1909
  665MOL0     H91702  11.802  10.989   4.280 -0.1001  1.8485  0.4922
  665MOL0     H91703  11.756  10.869   4.476 -3.6830  0.6785 -0.1278
  665MOL0     H91704  11.717  10.909   4.645 -2.3366  1.4196 -0.1795
  665MOL0     H91705  11.929  11.035   4.470 -2.0415 -2.4009 -1.0652
  665MOL0     H91706  11.884  11.112   4.627  0.8566  0.6488 -1.5775
  665MOL0     H91707  11.940  10.896   4.743  2.0081 -0.9501  0.8884
  665MOL0     H91708  11.977  10.820   4.594 -3.6130  0.2032 -0.9709
  665MOL0     H91709  12.152  11.033   4.577  3.2344 -1.2793 -0.0212
  665MOL0     H91710  12.134  11.037   4.748  1.0250 -0.3409 -0.2655
  665MOL0     H91711  12.179  10.780   4.575  0.1680 -1.8416  0.4749
  665MOL0     H91712  12.205  10.786   4.748 -0.2572  1.4489 -0.9243
  665MOL0     H91713  12.415  10.782   4.632 -3.0712 -1.4705 -0.7844
  665MOL0     H91714  12.373  10.920   4.532  1.6054  0.3381  1.0590
  665MOL0     H91715  12.392  10.944   4.840  2.1820 -0.7008  0.5636
  665MOL0     H91716  12.410  11.073   4.713 -2.4819 -0.2747  2.5264
  665MOL0     H91717  12.590  10.981   4.873 -0.2354  0.1860  0.3072
  665MOL0     H91718  12.603  10.854   4.749  0.6312  0.9048 -0.2546
  665MOL0     H91719  12.705  10.939   4.493 -0.5476  0.8630 -4.1028
  665MOL0     H91720  12.744  11.116   4.270  0.6597  0.0729 -0.3543
  665MOL0     H91721  12.826  11.248   4.345  0.8313  1.2820 -0.9928
  665MOL0     H91722  12.606  11.379   4.325  4.2063  0.8913  0.9493
  665MOL0     H91723  12.609  11.289   4.186 -0.0710 -2.7255  0.1469
  665MOL0     H91724  12.489  11.101   4.315 -0.8032 -1.4103  2.5857
  665MOL0     H91725  12.449  11.214   4.438 -0.6330 -1.6931 -0.3366
  665MOL0     H91726  12.258  11.252   4.287 -0.1750  0.9757  0.0550
  665MOL0     H91727  12.371  11.372   4.220  2.3704 -0.9925 -0.9958
  665MOL0     H91728  12.395  11.148   3.894 -0.4810 -1.8759  0.8664
  665MOL0     H91729  12.376  11.026   3.686  0.1764  2.7315 -4.0749
  665MOL0     H91730  12.225  11.055   3.604  0.4357 -1.3056 -0.4102
  665MOL0     H91731  12.241  10.905   3.674  0.4270  0.1914 -5.4813
  665MOL0     H91732  12.003  10.752   3.524 -0.0544  0.3569 -0.5082
  665MOL0     H91733  11.846  10.643   3.382 -0.6364 -1.0279  2.7808
  665MOL0     H91734  11.435  10.855   3.259  0.2049 -2.8306  3.0883
  665MOL0     H91735  11.546  10.892   3.127 -2.0998  0.9390  0.2117
  665MOL0     H91736  11.532  10.675   3.036  0.4351  3.6537 -0.9450
  665MOL0     H91737  11.428  10.608   3.174  1.4703  0.6032  1.0251
  665MOL0     H91738  11.370  10.838   2.979  3.1669 -0.3773 -0.6731
  665MOL0     H91739  11.260  10.775   3.106  1.0194  1.5060  0.2606
  665MOL0     H91740  11.223  10.567   2.995 -1.1279  1.1430  1.6071
  665MOL0     H91741  11.354  10.606   2.874  1.3002  0.4809  1.1136
  665MOL0     H91742  11.073  10.714   2.898  0.6015 -1.6522 -0.6900
  665MOL0     H91743  11.201  10.784   2.796 -1.1720  0.8252 -0.3290
  665MOL0     H91744  11.119  10.491   2.776  0.2264  0.1236 -1.8852
  665MOL0     H91745  11.219  10.577   2.664  0.1802  2.0017 -1.9177
  665MOL0     H91746  11.021  10.582   2.556  0.3840  0.1561 -0.5343
  665MOL0     H91747  11.020  10.738   2.610 -3.0376 -1.2361 -3.3964
  665MOL0     H91748  10.798  10.704   2.674 -2.3486 -1.7053  0.8362
  665MOL0     H91749  10.878  10.632   2.818  2.0127 -2.0274 -0.5169
  665MOL0     H91750  11.604  11.005   3.365 -2.4327  0.0746  1.6659
  665MOL0     H91751  11.733  11.081   3.576  2.2605  0.8348  0.4635
  665MOL0     H91752  11.924  11.129   3.999  1.1982 -2.3104  2.0654
  665MOL0     H91753  12.081  11.224   4.152 -1.4297  1.3183 -0.8441
  665MOL0     H91754  11.410  11.096   4.442 -0.2395 -0.3773  1.3484
  665MOL0     H91755  11.314  11.060   4.229 -0.6123 -1.2737  0.7118
  665MOL0     H91756  11.189  11.045   3.973  0.2439 -0.2680  0.6610
  665MOL0     H91757  10.977  11.045   3.874 -2.6060 -0.6270  4.0771
  665MOL0     H91758  10.765  11.004   3.853  0.8228  3.3163 -1.9009
  665MOL0     H91759  10.811  11.019   3.690  1.7767  2.2140  0.7972
  665MOL0     H91760  10.586  10.820   3.761 -1.7327  0.3955 -0.3050
  665MOL0     H91761  10.631  10.881   3.607 -0.1789 -1.6728  0.5910
  665MOL0     H91762  10.524  11.056   3.840  1.7516 -0.4522  1.0167
  665MOL0     H91763  10.581  11.108   3.668  2.2188 -2.2990 -1.6027
  665MOL0     H91764  10.351  10.917   3.736 -0.5477 -0.2828 -0.0580
  665MOL0     H91765  10.406  10.981   3.574 -1.1298 -1.9083  0.1413
  665MOL0     H91766  10.182  11.300   3.726 -0.3526 -0.4450 -2.6477
  665MOL0     H91767  10.996  10.621   3.810 -1.0261  0.0817 -0.4808
  665MOL0     H91768  11.192  10.516   3.797  2.1934 -2.1608 -0.3452
  665MOL0     H91769  11.345  10.615   3.814  0.8752  0.8754  2.8437
  665MOL0     H91770  11.264  10.534   3.954 -1.0776 -0.1160  0.3923
  666MOL0     O91771   9.449   8.976  10.819  0.7882  0.5739 -0.3898
  666MOL0     C91772   9.521   9.071  10.807  0.3240 -0.3365  0.2501
  666MOL0     O91773   9.662   9.070  10.803  0.5341  0.0016 -0.7964
  666MOL0     C91774   9.739   8.958  10.809  1.0106  0.1696  0.3166
  666MOL0     C91775   9.835   8.936  10.707  0.6054  0.6818 -0.2188
  666MOL0     C91776   9.918   8.826  10.711 -0.0734  0.2916 -0.2094
  666MOL0     C91777   9.919   8.741  10.821  0.2600 -0.6699 -0.9170
  666MOL0     O91778  10.002   8.628  10.835  0.1469 -0.9903 -0.5667
  666MOL0     C91779  10.129   8.623  10.777 -0.5312 -0.2369  0.2417
  666MOL0     C91780  10.162   8.475  10.769  0.1700 -0.3240  0.2824
  666MOL0     C91781  10.284   8.458  10.690  0.4833  0.5158  0.3403
  666MOL0     C91782  10.325   8.314  10.675  0.6387 -0.3181  0.0193
  666MOL0     C91783  10.470   8.300  10.634 -0.1325 -0.3103 -0.1671
  666MOL0     C91784  10.511   8.157  10.585  0.9420 -0.2827 -0.7496
  666MOL0     C91785  10.636   8.149  10.500 -0.0411 -0.1963 -0.0784
  666MOL0     C91786  10.761   8.198  10.577 -0.9911 -0.2195  0.6665
  666MOL0     N91787  10.884   8.142  10.529 -0.4347 -0.0292  0.3307
  666MOL0     C91788  10.919   8.009  10.530  0.0279  0.1525  0.3360
  666MOL0     C91789  11.029   7.990  10.461 -0.1587  0.4046 -0.8476
  666MOL0     C91790  11.093   7.861  10.433  0.3564 -0.7459  0.5010
  666MOL0     C91791  11.082   7.825  10.287  0.6099  0.0600  0.2621
  666MOL0     C91792  11.166   7.701  10.260 -0.3137  0.0164  0.0175
  666MOL0     C91793  11.175   7.670  10.110 -0.5297 -0.3421  0.2592
  666MOL0     O91794  11.286   7.586  10.077  0.0952  0.2963 -0.5510
  666MOL0     C91795  11.285   7.515   9.956 -0.0765  0.7143 -0.6681
  666MOL0     C91796  11.383   7.420   9.933 -0.6854 -0.1012 -0.2552
  666MOL0     C91797  11.406   7.367   9.803  0.3233  0.3230  0.0206
  666MOL0     C91798  11.535   7.290   9.786 -0.4943 -0.2047 -0.4945
  666MOL0     C91799  11.325   7.407   9.693 -0.0795 -0.3999 -0.2922
  666MOL0     C91800  11.330   7.350   9.556  0.3578 -0.2434  0.5192
  666MOL0     O91801  11.274   7.415   9.451  0.0615 -0.3728 -0.1640
  666MOL0     C91802  11.318   7.379   9.326 -0.3708  0.0274  0.0613
  666MOL0     C91803  11.235   7.307   9.231  0.2987  0.6725  0.1223
  666MOL0     C91804  11.283   7.247   9.112  0.6962  0.4813 -0.4323
  666MOL0     C91805  11.419   7.259   9.085  0.0244  0.0778  0.0155
  666MOL0     O91806  11.482   7.218   8.971  0.2669 -0.0407  0.6586
  666MOL0     C91807  11.406   7.130   8.887 -0.0664 -0.7605 -0.5502
  666MOL0     C91808  11.495   7.069   8.781  0.1795  0.3226 -0.3681
  666MOL0     C91809  11.520   7.183   8.687 -0.2998  0.1549 -0.2151
  666MOL0     C91810  11.629   7.141   8.579  0.7660 -0.5930 -0.9481
  666MOL0     C91811  11.629   7.237   8.457 -0.1509  0.1044 -0.3029
  666MOL0     C91812  11.693   7.159   8.349  0.3460 -0.7909  0.4831
  666MOL0     C91813  11.594   7.113   8.244 -0.5193 -0.4162 -0.3449
  666MOL0     C91814  11.558   7.225   8.138 -0.0762 -0.2110  0.0787
  666MOL0    Cl91815  11.517   7.148   7.988 -0.2564  0.3655  0.1020
  666MOL0     C91816  11.502   7.332   9.172  0.1265 -0.0056 -0.3304
  666MOL0     C91817  11.455   7.387   9.290  0.7629 -0.6830 -0.2091
  666MOL0     O91818  11.369   7.232   9.553 -0.5856 -0.1546 -0.0659
  666MOL0     C91819  11.224   7.504   9.713 -0.7066 -0.8168 -0.3836
  666MOL0     C91820  11.205   7.559   9.846 -0.7075 -0.2917 -0.6266
  666MOL0     N91821  11.059   8.110  10.404  0.2581 -0.8613 -0.8291
  666MOL0     N91822  10.970   8.200  10.439  0.2321 -0.7668 -0.4435
  666MOL0     C91823   9.822   8.762  10.920 -0.3941  0.8487 -0.3940
  666MOL0     C91824   9.735   8.867  10.916  0.4899 -0.2672  0.4106
  666MOL0     C91825   9.454   9.201  10.768  0.3062  0.3537 -1.2459
  666MOL0     C91826   9.317   9.210  10.786 -0.4327  0.4012 -0.0323
  666MOL0     C91827   9.250   9.331  10.759 -0.3348 -0.5357 -1.4489
  666MOL0     C91828   9.317   9.437  10.699  0.5479 -0.2774  0.1005
  666MOL0     O91829   9.260   9.556  10.670  0.1726 -0.4302  0.0975
  666MOL0     C91830   9.130   9.541  10.612 -0.2876 -0.5762  0.0605
  666MOL0     C91831   9.105   9.679  10.553 -0.3660  0.2494 -0.1342
  666MOL0     C91832   8.962   9.702  10.503  1.3191  0.1490 -0.2482
  666MOL0     C91833   8.867   9.771  10.610  0.0387  0.1884  0.0669
  666MOL0     C91834   8.871   9.722  10.747  0.3048 -0.5871 -0.5733
  666MOL0     C91835   8.869   9.696  10.863 -0.5934  0.5063  0.2423
  666MOL0     C91836   9.451   9.431  10.691  0.3122 -0.1276  0.7011
  666MOL0     C91837   9.525   9.317  10.725  0.2094  0.1554 -0.4877
  666MOL0     C91838   9.670   9.326  10.702 -0.6796 -0.2861 -0.3339
  666MOL0     H91839   9.838   9.010  10.627 -0.0679  0.4858 -0.4296
  666MOL0     H91840   9.983   8.803  10.627 -2.4125  0.0569 -2.0748
  666MOL0     H91841  10.199   8.678  10.840 -0.1889  2.1571 -2.0310
  666MOL0     H91842  10.131   8.667  10.676  0.1608  1.9014  1.1211
  666MOL0     H91843  10.183   8.439  10.870  1.2634  1.4049  0.7232
  666MOL0     H91844  10.078   8.426  10.719 -0.0850  0.7458 -0.3763
  666MOL0     H91845  10.273   8.509  10.593 -2.4915  0.7896  0.7019
  666MOL0     H91846  10.355   8.513  10.751 -0.8291  1.0150  1.4807
  666MOL0     H91847  10.305   8.237  10.750  2.9887 -2.0058 -0.9576
  666MOL0     H91848  10.262   8.289  10.589  1.2811 -1.2842 -0.1924
  666MOL0     H91849  10.530   8.332  10.720  3.8003 -2.5852 -1.7632
  666MOL0     H91850  10.495   8.374  10.558 -0.3325 -1.2796 -1.2049
  666MOL0     H91851  10.505   8.095  10.675 -3.0333  0.9630  0.0360
  666MOL0     H91852  10.436   8.106  10.523  0.5213  2.0113 -2.2597
  666MOL0     H91853  10.625   8.203  10.405  0.2742 -1.3714 -0.7994
  666MOL0     H91854  10.642   8.043  10.473  0.2966 -0.0610 -0.5441
  666MOL0     H91855  10.762   8.306  10.563 -0.5123 -0.1902  0.9190
  666MOL0     H91856  10.751   8.174  10.683 -1.9221 -2.3816  0.1367
  666MOL0     H91857  10.856   7.931  10.573 -0.2943  0.1905 -0.0554
  666MOL0     H91858  11.046   7.788  10.500 -0.0007 -1.0779 -0.0917
  666MOL0     H91859  11.197   7.870  10.464  1.2983 -1.1714 -2.2230
  666MOL0     H91860  10.978   7.811  10.256  0.5521  1.0762 -0.0439
  666MOL0     H91861  11.116   7.907  10.223 -3.4544  0.6753 -1.4527
  666MOL0     H91862  11.268   7.733  10.283 -0.9947  2.3883  0.0599
  666MOL0     H91863  11.138   7.612  10.316 -0.5934  1.7323  2.8157
  666MOL0     H91864  11.086   7.619  10.073 -0.7926 -0.3392  0.8796
  666MOL0     H91865  11.172   7.767  10.061 -0.3731  1.3938  3.3955
  666MOL0     H91866  11.448   7.398  10.017 -0.5152 -0.2182 -0.4147
  666MOL0     H91867  11.586   7.282   9.882  2.5518  0.2657 -1.9458
  666MOL0     H91868  11.595   7.339   9.709 -0.1195  0.1552  0.0167
  666MOL0     H91869  11.508   7.185   9.774 -1.6666 -0.4861  3.2274
  666MOL0     H91870  11.129   7.298   9.249  0.5036 -2.4686  0.1812
  666MOL0     H91871  11.214   7.193   9.047 -1.5568 -0.1270  2.2471
  666MOL0     H91872  11.368   7.057   8.959  0.4389 -2.3515 -1.8473
  666MOL0     H91873  11.324   7.182   8.837 -0.2976  1.3600  1.8217
  666MOL0     H91874  11.587   7.033   8.829 -1.5750 -0.2690  2.8621
  666MOL0     H91875  11.449   6.981   8.734  1.7740 -1.0488  0.5309
  666MOL0     H91876  11.542   7.276   8.739 -2.4526  0.6805 -0.1820
  666MOL0     H91877  11.430   7.207   8.630 -0.6196  2.9107  1.2691
  666MOL0     H91878  11.607   7.042   8.538  3.4441 -0.1207 -3.9005
  666MOL0     H91879  11.724   7.139   8.633  1.2393 -0.0756 -1.7482
  666MOL0     H91880  11.525   7.246   8.425 -1.1161 -2.7657  1.5879
  666MOL0     H91881  11.672   7.336   8.474 -0.6187  0.1336  0.7951
  666MOL0     H91882  11.752   7.074   8.385  3.6910  1.6857  1.3543
  666MOL0     H91883  11.769   7.221   8.300  2.2119 -2.9315  0.5035
  666MOL0     H91884  11.503   7.080   8.296 -0.2195  1.5997  1.6445
  666MOL0     H91885  11.632   7.026   8.189  0.5721 -0.8143  0.9894
  666MOL0     H91886  11.642   7.292   8.120  1.2307 -1.9336 -0.5191
  666MOL0     H91887  11.477   7.282   8.183 -1.3307 -3.1774  1.8883
  666MOL0     H91888  11.609   7.347   9.157  0.6216 -0.9647  1.8768
  666MOL0     H91889  11.507   7.464   9.346  3.1451 -1.0699 -1.7721
  666MOL0     H91890  11.144   7.527   9.643 -0.9567  3.1695  0.9516
  666MOL0     H91891  11.118   7.623   9.856  1.7720  3.1940  0.8651
  666MOL0     H91892   9.809   8.695  11.005 -1.1136 -1.5207 -2.2464
  666MOL0     H91893   9.671   8.885  11.002  2.0229 -0.5253  1.6571
  666MOL0     H91894   9.263   9.123  10.821  0.5987 -0.6752 -0.9861
  666MOL0     H91895   9.145   9.346  10.781 -0.0861  0.1866 -0.7233
  666MOL0     H91896   9.115   9.451  10.552  0.1561 -0.8360  0.3344
  666MOL0     H91897   9.058   9.540  10.695 -0.6015  2.9331 -0.0227
  666MOL0     H91898   9.185   9.688  10.479 -0.5939  1.2605 -0.2737
  666MOL0     H91899   9.121   9.755  10.630  1.5081 -1.0162  0.7951
  666MOL0     H91900   8.955   9.765  10.414  0.2697  2.8284  1.5864
  666MOL0     H91901   8.914   9.607  10.478 -3.6769  1.0587  4.1367
  666MOL0     H91902   8.763   9.763  10.578  0.0054 -1.8206  0.5371
  666MOL0     H91903   8.902   9.874  10.616  3.4809 -0.7422 -1.6516
  666MOL0     H91904   8.868   9.685  10.970  0.0191 -2.8721  0.0151
  666MOL0     H91905   9.500   9.522  10.657 -0.3763 -1.1147 -3.5207
  666MOL0     H91906   9.717   9.308  10.799  0.7116 -0.8088 -1.0734
  666MOL0     H91907   9.703   9.255  10.626  1.2304  0.2245 -0.0257
  666MOL0     H91908   9.686   9.431  10.677 -0.9647 -0.1947 -0.1360
  667MOL0     O91909   1.131   7.889  10.883  0.2065 -0.0867 -0.2808
  667MOL0     C91910   1.164   7.772  10.851 -0.1575 -0.4229  0.7385
  667MOL0     O91911   1.287   7.728  10.825  0.0638  0.1620  0.4268
  667MOL0     C91912   1.407   7.802  10.846  0.2235 -0.3945 -0.3515
  667MOL0     C91913   1.519   7.744  10.781  0.4511 -0.2859 -0.0106
  667MOL0     C91914   1.647   7.805  10.799  0.2195 -0.7829 -1.0919
  667MOL0     C91915   1.660   7.921  10.878 -0.7717 -0.2927  0.4023
  667MOL0     O91916   1.790   7.967  10.880  0.2106  0.5266  0.6493
  667MOL0     C91917   1.827   8.078  10.964  0.1814  0.5069 -0.1756
  667MOL0     C91918   1.960   8.046  11.036 -0.4262 -0.5582  0.0955
  667MOL0     C91919   1.930   7.966  11.160  0.2943  0.6111 -0.6221
  667MOL0     C91920   2.059   7.955  11.240  0.2892 -0.1669 -0.4015
  667MOL0     C91921   2.060   7.835  11.336 -0.1463 -0.8227  0.8380
  667MOL0     C91922   1.956   7.853  11.447  0.4752 -0.4837 -0.0098
  667MOL0     C91923   1.948   7.734  11.536  0.1911  0.6810 -0.1761
  667MOL0     C91924   1.887   7.611  11.470  0.0240 -0.2460  0.3970
  667MOL0     N91925   1.749   7.640  11.423  0.2371  0.4245  1.2452
  667MOL0     C91926   1.721   7.652  11.287 -0.1554 -0.5679  0.1323
  667MOL0     C91927   1.588   7.642  11.274  0.8582  0.4671 -0.0373
  667MOL0     C91928   1.512   7.658  11.150  0.3161 -0.0078 -0.6548
  667MOL0     C91929   1.421   7.543  11.138  0.4583  0.1208 -0.2723
  667MOL0     C91930   1.450   7.428  11.050 -0.7576 -0.4263  0.0673
  667MOL0     C91931   1.581   7.356  11.074 -0.6115 -0.0050 -0.3299
  667MOL0     O91932   1.682   7.431  11.001 -0.1313 -0.2555  0.0636
  667MOL0     C91933   1.811   7.433  11.044 -0.1738  1.2018  0.2161
  667MOL0     C91934   1.898   7.541  10.997  0.1147  0.8705 -0.1842
  667MOL0     C91935   2.026   7.558  11.044  0.8668 -0.5568 -0.1100
  667MOL0     C91936   2.116   7.661  10.991  0.2090 -0.4921 -0.1021
  667MOL0     C91937   2.076   7.475  11.149  0.1924  0.8414  0.2269
  667MOL0     C91938   2.208   7.485  11.225  0.0389  1.7453 -0.3021
  667MOL0     O91939   2.302   7.537  11.158 -0.1447 -0.1355  0.2342
  667MOL0     C91940   2.425   7.564  11.221  0.2202 -0.3868 -0.1072
  667MOL0     C91941   2.529   7.466  11.214  0.4082  0.1189  0.2514
  667MOL0     C91942   2.652   7.478  11.283  0.0129  0.2574  0.1962
  667MOL0     C91943   2.671   7.597  11.357  0.0498  0.7820  0.0577
  667MOL0     O91944   2.790   7.597  11.424 -1.0238 -0.0706 -0.4087
  667MOL0     C91945   2.781   7.519  11.552 -0.6295 -1.0015  0.0598
  667MOL0     C91946   2.650   7.534  11.639 -0.6139 -0.0201 -0.1272
  667MOL0     C91947   2.674   7.498  11.791  0.2608  0.2353 -0.1781
  667MOL0     C91948   2.580   7.553  11.895  0.6624 -0.2533  1.1315
  667MOL0     C91949   2.648   7.553  12.030 -0.4123  0.8578 -0.7332
  667MOL0     C91950   2.552   7.584  12.139  0.5352 -0.2845  0.4957
  667MOL0     C91951   2.619   7.631  12.269 -0.9113 -0.2669 -0.6397
  667MOL0     C91952   2.533   7.721  12.360  1.1682 -0.0583 -0.0956
  667MOL0    Cl91953   2.375   7.649  12.414 -0.3600 -0.3688 -0.3467
  667MOL0     C91954   2.576   7.697  11.352  0.2865 -0.9484  0.4473
  667MOL0     C91955   2.448   7.679  11.293 -0.3333 -0.3646 -0.2148
  667MOL0     O91956   2.224   7.433  11.336  0.1445  0.4146 -0.8453
  667MOL0     C91957   1.986   7.366  11.198  0.6229 -0.9613  0.4657
  667MOL0     C91958   1.864   7.346  11.140  0.2070  0.7388  0.6248
  667MOL0     N91959   1.536   7.624  11.398 -0.2221  0.3586 -0.1366
  667MOL0     N91960   1.627   7.620  11.482 -0.2462  0.0045 -0.6546
  667MOL0     C91961   1.551   7.980  10.935  0.0308  0.2817  0.1971
  667MOL0     C91962   1.429   7.921  10.927  0.0231 -0.5584  0.0893
  667MOL0     C91963   1.053   7.672  10.847 -0.1792  0.4524 -0.4157
  667MOL0     C91964   1.089   7.540  10.885 -0.8764  1.4282 -0.0019
  667MOL0     C91965   0.993   7.438  10.897 -0.8526  0.4085  0.7018
  667MOL0     C91966   0.855   7.468  10.897  0.0417 -0.0700 -0.1486
  667MOL0     O91967   0.757   7.374  10.921  0.0514  0.0304  0.0835
  667MOL0     C91968   0.791   7.241  10.969  0.9651  0.9318 -0.0310
  667MOL0     C91969   0.671   7.190  11.045 -0.7286  0.4160  0.0625
  667MOL0     C91970   0.706   7.049  11.118 -0.4596  0.2261 -0.4876
  667MOL0     C91971   0.586   6.984  11.193  0.3465 -0.3054  0.4565
  667MOL0     C91972   0.507   6.897  11.103  0.3447 -0.7020  0.9543
  667MOL0     C91973   0.462   6.822  11.022 -0.3600 -0.3258  0.2575
  667MOL0     C91974   0.825   7.598  10.845  0.3973  0.1895  0.5481
  667MOL0     C91975   0.914   7.698  10.822 -0.2982 -0.4403  0.0673
  667MOL0     C91976   0.873   7.832  10.771 -0.0498 -0.1103  0.6444
  667MOL0     H91977   1.498   7.657  10.719  1.2170  0.7298 -1.7677
  667MOL0     H91978   1.735   7.755  10.761  0.7319  0.2861 -1.3467
  667MOL0     H91979   1.751   8.095  11.041  1.1429 -0.2531  0.9613
  667MOL0     H91980   1.843   8.166  10.900  0.9292  0.8773  0.5086
  667MOL0     H91981   2.027   7.996  10.966 -0.5132  1.6071 -1.6510
  667MOL0     H91982   2.003   8.139  11.073 -1.9595  0.8201 -1.3547
  667MOL0     H91983   1.851   8.012  11.219  1.4388 -0.0651  1.5574
  667MOL0     H91984   1.898   7.865  11.134  1.9482  0.1006 -0.8295
  667MOL0     H91985   2.142   7.939  11.170 -0.0346 -2.4693 -0.3617
  667MOL0     H91986   2.067   8.050  11.293 -0.6543 -1.0018  1.3598
  667MOL0     H91987   2.160   7.820  11.380  0.2213 -0.9592 -0.0287
  667MOL0     H91988   2.051   7.738  11.286 -1.5229 -0.5411  0.5024
  667MOL0     H91989   1.966   7.944  11.507 -2.2675 -1.0518  1.5027
  667MOL0     H91990   1.859   7.876  11.401  0.3312 -1.2286 -0.1007
  667MOL0     H91991   1.875   7.761  11.613 -2.1489 -3.2907 -0.7312
  667MOL0     H91992   2.043   7.720  11.588  0.4783  0.6198 -0.7055
  667MOL0     H91993   1.949   7.568  11.391  0.2138 -1.0657  0.9845
  667MOL0     H91994   1.883   7.532  11.545 -1.2425 -0.4241  0.1708
  667MOL0     H91995   1.795   7.659  11.208 -1.0914  0.0389 -0.7143
  667MOL0     H91996   1.585   7.673  11.070  1.0661 -0.9827 -0.1777
  667MOL0     H91997   1.445   7.743  11.165 -0.6545 -0.9397  0.4622
  667MOL0     H91998   1.390   7.512  11.239 -2.7545  3.5515  0.0229
  667MOL0     H91999   1.331   7.587  11.094 -0.0827  1.4739  2.0353
  667MOL0     H92000   1.376   7.349  11.063  0.4629 -1.5011  0.6244
  667MOL0     H92001   1.453   7.464  10.946  0.2266 -1.6437 -0.3512
  667MOL0     H92002   1.601   7.368  11.181 -0.1462 -0.5206 -0.3552
  667MOL0     H92003   1.577   7.249  11.051 -0.3758 -0.2860  0.8466
  667MOL0     H92004   1.855   7.608  10.924  0.7376  0.4270 -0.9735
  667MOL0     H92005   2.201   7.616  10.940  1.5427  0.2480  1.3883
  667MOL0     H92006   2.149   7.718  11.078  0.7529 -0.3539 -0.3973
  667MOL0     H92007   2.069   7.724  10.915 -0.6034 -0.7322  0.1859
  667MOL0     H92008   2.513   7.370  11.165 -0.5852  0.3952  0.0104
  667MOL0     H92009   2.736   7.410  11.287 -0.5586 -1.1023 -4.5733
  667MOL0     H92010   2.794   7.413  11.528 -1.1357 -0.8083 -1.1245
  667MOL0     H92011   2.872   7.538  11.609  0.0284 -1.0649 -0.9570
  667MOL0     H92012   2.635   7.641  11.619 -0.8498 -0.4907 -2.8642
  667MOL0     H92013   2.578   7.462  11.600 -1.4156  0.9539 -0.4902
  667MOL0     H92014   2.777   7.524  11.819  0.8308 -2.3066  0.3739
  667MOL0     H92015   2.679   7.390  11.811 -0.6093  0.6154  2.4607
  667MOL0     H92016   2.492   7.489  11.901  1.1815 -1.0997  0.0372
  667MOL0     H92017   2.555   7.655  11.864 -2.1718 -0.9520  0.8098
  667MOL0     H92018   2.694   7.455  12.044  4.4735  2.9194 -0.4870
  667MOL0     H92019   2.730   7.626  12.027  1.2878 -1.0036 -2.6436
  667MOL0     H92020   2.510   7.485  12.156 -1.4181 -0.5202 -4.2448
  667MOL0     H92021   2.473   7.652  12.106  0.9228  1.9359  3.6477
  667MOL0     H92022   2.711   7.680  12.235 -0.3078  0.8926  2.3407
  667MOL0     H92023   2.645   7.551  12.338 -3.2443  1.6038  2.7447
  667MOL0     H92024   2.524   7.817  12.307  1.8818 -0.9564 -1.9230
  667MOL0     H92025   2.583   7.735  12.457 -0.4338  0.4004  0.7007
  667MOL0     H92026   2.585   7.791  11.405 -3.2581  1.2941 -2.4938
  667MOL0     H92027   2.379   7.762  11.290 -1.3888 -1.2141 -0.1341
  667MOL0     H92028   2.032   7.308  11.277  3.7627  0.0171 -0.4669
  667MOL0     H92029   1.803   7.266  11.181 -0.1460  1.9453  2.5992
  667MOL0     H92030   1.563   8.065  11.002  0.1756  0.2029  0.2714
  667MOL0     H92031   1.345   7.968  10.978  0.0861 -0.5485  0.1827
  667MOL0     H92032   1.194   7.515  10.897 -1.2407 -0.8718 -1.0722
  667MOL0     H92033   1.031   7.338  10.913  2.3033  1.4414  0.2530
  667MOL0     H92034   0.817   7.176  10.885  3.8351 -0.3221  1.7060
  667MOL0     H92035   0.864   7.236  11.050 -0.5444  1.7357  1.4385
  667MOL0     H92036   0.591   7.180  10.971 -1.5803 -0.8017  1.1264
  667MOL0     H92037   0.648   7.265  11.121  4.0312 -0.3439  2.6161
  667MOL0     H92038   0.746   6.980  11.043 -0.4128 -1.2661  0.8566
  667MOL0     H92039   0.782   7.068  11.194 -0.0579 -0.3653 -0.7366
  667MOL0     H92040   0.517   7.053  11.242 -0.5384  0.5900 -1.8622
  667MOL0     H92041   0.612   6.921  11.278  0.7656 -0.7349  0.0171
  667MOL0     H92042   0.425   6.761  10.942  2.2741 -0.7001 -0.7902
  667MOL0     H92043   0.719   7.616  10.829  1.2538  3.0067 -3.3049
  667MOL0     H92044   0.765   7.835  10.754 -0.0753  0.5697  0.9029
  667MOL0     H92045   0.893   7.911  10.843 -0.8595  0.7232 -0.0198
  667MOL0     H92046   0.923   7.851  10.675 -3.6590 -2.8339 -2.0846
  668MOL0     O92047   2.666   6.797   3.748  0.9032 -0.7383 -0.2712
  668MOL0     C92048   2.635   6.682   3.704 -0.1164 -0.4915 -0.7367
  668MOL0     O92049   2.509   6.630   3.718 -0.0157 -0.3173 -0.3013
  668MOL0     C92050   2.398   6.710   3.744  0.5435 -0.4138  0.3469
  668MOL0     C92051   2.337   6.775   3.634  0.0576 -0.2836  0.5517
  668MOL0     C92052   2.230   6.855   3.663 -0.4627  0.3776  0.0116
  668MOL0     C92053   2.174   6.873   3.780 -0.5173  0.1921 -1.4980
  668MOL0     O92054   2.064   6.942   3.804 -0.3863 -0.3631 -0.7293
  668MOL0     C92055   1.953   6.945   3.710 -0.3067  0.0785  0.0197
  668MOL0     C92056   1.961   7.069   3.628  0.7532 -0.0382  0.7608
  668MOL0     C92057   1.958   7.189   3.727 -0.2444 -0.0308  0.0480
  668MOL0     C92058   1.976   7.331   3.656 -0.2642  1.3396  0.1633
  668MOL0     C92059   2.019   7.428   3.756 -0.0587  0.1665  0.1676
  668MOL0     C92060   2.077   7.553   3.692 -0.1095  0.1126 -0.5628
  668MOL0     C92061   2.121   7.636   3.806 -0.4427  0.5897 -0.1641
  668MOL0     C92062   2.200   7.752   3.763  0.0342 -1.4682  0.5879
  668MOL0     N92063   2.238   7.834   3.883  0.0432  0.4553  0.0824
  668MOL0     C92064   2.328   7.815   3.981 -0.0965  1.1071 -0.5645
  668MOL0     C92065   2.304   7.902   4.074  0.4076 -0.3225 -0.3370
  668MOL0     C92066   2.363   7.936   4.211  0.2260  0.3897  0.5050
  668MOL0     C92067   2.279   8.003   4.321  0.0468 -0.0439 -0.0480
  668MOL0     C92068   2.351   8.112   4.395 -0.1842 -0.2252  0.2992
  668MOL0     C92069   2.481   8.074   4.475 -0.4287  0.6125 -0.9255
  668MOL0     O92070   2.438   8.004   4.593  0.3402 -0.3174 -0.0798
  668MOL0     C92071   2.510   8.015   4.707 -0.3243  0.9806  0.7738
  668MOL0     C92072   2.454   8.003   4.830 -0.7096 -0.3843 -0.0365
  668MOL0     C92073   2.525   7.993   4.955 -0.4332 -0.5658 -0.8129
  668MOL0     C92074   2.443   8.001   5.082 -0.0594 -0.3152  0.0869
  668MOL0     C92075   2.675   7.991   4.955  0.0729 -0.0814  0.3340
  668MOL0     C92076   2.759   7.974   5.078  0.8884  0.4508 -0.1517
  668MOL0     O92077   2.890   7.955   5.049  0.2891  0.1044 -0.5099
  668MOL0     C92078   2.973   7.929   5.160 -1.1177 -0.6040  0.0753
  668MOL0     C92079   3.027   7.799   5.178  0.0835 -0.6762  0.3593
  668MOL0     C92080   3.107   7.771   5.284  0.9134  0.4703 -0.6966
  668MOL0     C92081   3.146   7.868   5.381  0.1835 -0.1690 -0.3453
  668MOL0     O92082   3.220   7.844   5.496  0.0529  1.3202 -0.7189
  668MOL0     C92083   3.288   7.709   5.511  0.1499 -0.5189  0.2032
  668MOL0     C92084   3.366   7.695   5.638 -0.1800  0.2066 -0.5279
  668MOL0     C92085   3.474   7.806   5.647  0.7497  0.9798 -0.1028
  668MOL0     C92086   3.523   7.817   5.794  0.1415  0.5614 -0.6915
  668MOL0     C92087   3.640   7.925   5.810 -0.3298  0.1274 -0.2700
  668MOL0     C92088   3.666   7.967   5.957  0.1243  0.0796 -0.5152
  668MOL0     C92089   3.659   7.859   6.069  0.0096  0.6821 -0.4939
  668MOL0     C92090   3.754   7.741   6.058  0.2899  0.8612  0.0629
  668MOL0    Cl92091   3.923   7.781   6.131  0.0268  0.0608 -0.1489
  668MOL0     C92092   3.104   7.998   5.347  0.1538 -0.1125 -1.1148
  668MOL0     C92093   3.014   8.029   5.249  0.5220  0.6190 -0.7896
  668MOL0     O92094   2.703   7.980   5.191 -0.6915 -0.0618 -1.0356
  668MOL0     C92095   2.730   8.011   4.828  0.8741  0.6159  0.7146
  668MOL0     C92096   2.651   8.019   4.705  0.0295  0.4165  0.8609
  668MOL0     N92097   2.209   7.997   4.030  0.7212  0.1075 -0.2660
  668MOL0     N92098   2.166   7.946   3.917 -0.0422 -0.1343  0.4445
  668MOL0     C92099   2.240   6.824   3.891  0.1725  0.0963  0.1119
  668MOL0     C92100   2.347   6.742   3.872  0.4706  0.2483 -1.1056
  668MOL0     C92101   2.738   6.595   3.643 -0.5642 -1.0164  0.7675
  668MOL0     C92102   2.688   6.498   3.551 -0.5437  0.5881 -0.0527
  668MOL0     C92103   2.779   6.417   3.484 -0.3194 -0.2033 -0.8123
  668MOL0     C92104   2.918   6.428   3.506  0.2391  0.2889  0.3733
  668MOL0     O92105   3.015   6.342   3.447 -0.2620 -0.6537 -0.4700
  668MOL0     C92106   2.977   6.235   3.361  0.4148  0.9124  0.2036
  668MOL0     C92107   2.963   6.293   3.218 -0.2395 -0.4234 -0.2135
  668MOL0     C92108   3.103   6.356   3.173  0.4698 -1.1245  0.0109
  668MOL0     C92109   3.108   6.373   3.026  0.4848 -0.2129 -0.6125
  668MOL0     C92110   3.177   6.263   2.954 -0.3374  0.0195  0.4755
  668MOL0     C92111   3.230   6.155   2.914 -0.8718  0.4480  1.2861
  668MOL0     C92112   2.962   6.521   3.593 -0.2672 -0.5338 -0.0595
  668MOL0     C92113   2.879   6.615   3.658 -0.0947 -0.3672 -0.3255
  668MOL0     C92114   2.940   6.719   3.749 -0.2776  0.4719 -0.1815
  668MOL0     H92115   2.380   6.766   3.535 -1.3300 -0.8217 -0.0345
  668MOL0     H92116   2.189   6.906   3.576  0.2361  1.8392  0.4994
  668MOL0     H92117   1.856   6.935   3.758 -0.7451 -0.2883 -0.9158
  668MOL0     H92118   1.961   6.856   3.646 -2.5850  1.1415 -1.8792
  668MOL0     H92119   2.057   7.068   3.575  0.9678  1.5830  1.0675
  668MOL0     H92120   1.877   7.081   3.559  0.9070 -2.1383  0.1461
  668MOL0     H92121   1.862   7.189   3.780 -0.4830  1.2651 -0.3609
  668MOL0     H92122   2.044   7.174   3.794 -0.1970 -1.3605 -0.2703
  668MOL0     H92123   2.045   7.304   3.575 -1.7183 -2.7857  0.0780
  668MOL0     H92124   1.889   7.370   3.601  0.0649 -2.0927 -3.2025
  668MOL0     H92125   2.096   7.378   3.816 -0.2565  1.6229  1.6989
  668MOL0     H92126   1.936   7.460   3.820  2.7170  5.3831  1.7051
  668MOL0     H92127   2.154   7.525   3.619 -1.0909  2.8262 -2.8325
  668MOL0     H92128   2.014   7.615   3.628 -1.0242  0.3328  0.5330
  668MOL0     H92129   2.171   7.571   3.879  0.0241  1.0335 -0.0834
  668MOL0     H92130   2.036   7.676   3.862  1.6093  0.2530  3.5463
  668MOL0     H92131   2.291   7.723   3.709  0.3727 -2.2603  1.5628
  668MOL0     H92132   2.140   7.822   3.705  0.6967 -1.7168 -0.4257
  668MOL0     H92133   2.392   7.729   3.996 -1.8168 -0.1314  0.1204
  668MOL0     H92134   2.444   7.997   4.171 -0.3751  0.5346 -0.5336
  668MOL0     H92135   2.400   7.842   4.253  0.2547 -0.6248 -1.6618
  668MOL0     H92136   2.189   8.047   4.278  0.5049  2.3094  1.2344
  668MOL0     H92137   2.237   7.930   4.391 -2.1470  0.6071 -0.6109
  668MOL0     H92138   2.369   8.196   4.327  0.7212 -0.5132  0.1623
  668MOL0     H92139   2.283   8.150   4.472 -0.5694 -1.5063  0.6159
  668MOL0     H92140   2.556   8.015   4.420  1.5235 -0.2311  2.3964
  668MOL0     H92141   2.522   8.174   4.490  0.3102  0.7699 -3.4094
  668MOL0     H92142   2.346   8.010   4.829 -0.6805  0.9912  1.9570
  668MOL0     H92143   2.436   7.898   5.118  1.6051 -0.4450  0.0996
  668MOL0     H92144   2.338   8.026   5.061 -0.6880 -2.2572  0.6857
  668MOL0     H92145   2.480   8.071   5.157  1.9771 -1.6772  0.4323
  668MOL0     H92146   3.014   7.711   5.116  2.5109 -0.4515 -0.5459
  668MOL0     H92147   3.145   7.672   5.309 -0.5887 -0.3152 -1.3641
  668MOL0     H92148   3.208   7.635   5.513 -0.3135 -0.0480  2.6018
  668MOL0     H92149   3.350   7.690   5.423  0.4459 -1.3874  0.5928
  668MOL0     H92150   3.296   7.692   5.721 -0.3125  1.8706 -0.5461
  668MOL0     H92151   3.432   7.608   5.626 -1.1709 -0.8522  1.2464
  668MOL0     H92152   3.430   7.900   5.613 -0.1499  0.7143  0.2992
  668MOL0     H92153   3.550   7.774   5.576  0.0828 -0.9286 -0.0198
  668MOL0     H92154   3.557   7.718   5.823 -2.0811  0.3422  1.5360
  668MOL0     H92155   3.434   7.852   5.848 -0.0923  0.2458 -0.8678
  668MOL0     H92156   3.741   7.895   5.781  0.3367 -1.2246  2.9843
  668MOL0     H92157   3.598   8.012   5.758 -0.3508 -0.4466 -1.2298
  668MOL0     H92158   3.593   8.042   5.989  0.5145  0.4358 -0.4488
  668MOL0     H92159   3.761   8.020   5.947 -0.0144  0.0703 -2.0078
  668MOL0     H92160   3.559   7.815   6.062  0.8386 -1.4125 -0.1602
  668MOL0     H92161   3.653   7.911   6.165  1.8656  2.5452 -1.3257
  668MOL0     H92162   3.763   7.716   5.952  0.7915  0.1906  0.2576
  668MOL0     H92163   3.701   7.659   6.106  0.8878 -0.5727 -1.6223
  668MOL0     H92164   3.134   8.081   5.410  2.3158 -0.9583 -0.9513
  668MOL0     H92165   2.993   8.133   5.228  0.4343  0.5643 -0.9743
  668MOL0     H92166   2.838   8.011   4.830  0.8752 -0.5427  2.4533
  668MOL0     H92167   2.716   8.020   4.618  1.4390  3.1231  1.8482
  668MOL0     H92168   2.198   6.835   3.991 -2.4955 -3.4081 -0.4265
  668MOL0     H92169   2.406   6.707   3.956  0.0403  0.9490 -0.5104
  668MOL0     H92170   2.583   6.477   3.533 -0.4259 -1.0300  0.9572
  668MOL0     H92171   2.733   6.338   3.425  0.5965 -1.4104  0.0503
  668MOL0     H92172   3.051   6.154   3.361 -0.3590  0.1870  0.4815
  668MOL0     H92173   2.882   6.189   3.389 -0.5405  0.6497 -3.1053
  668MOL0     H92174   2.897   6.380   3.227  0.3086 -0.0995  0.8929
  668MOL0     H92175   2.932   6.217   3.147 -0.0845 -1.4956  0.8354
  668MOL0     H92176   3.115   6.448   3.230 -2.2297 -0.7199  0.0736
  668MOL0     H92177   3.190   6.295   3.198  1.0383  0.0288  0.9747
  668MOL0     H92178   3.167   6.464   3.007 -1.6774  1.7221  1.3196
  668MOL0     H92179   3.009   6.380   2.980 -0.2011  0.5708  0.9148
  668MOL0     H92180   3.274   6.063   2.881 -1.8927  0.4957 -0.2928
  668MOL0     H92181   3.068   6.536   3.608 -0.6069  0.3557  1.8495
  668MOL0     H92182   3.046   6.735   3.725  0.1961 -1.2996  0.5711
  668MOL0     H92183   2.894   6.818   3.745  2.6882  1.9417 -1.5622
  668MOL0     H92184   2.943   6.685   3.853  0.5277 -2.9641 -1.1922
  669MOL0     O92185   2.233  10.968   8.421  0.6366  0.2481  0.0774
  669MOL0     C92186   2.195  10.879   8.346  0.3537  0.1549  0.0942
  669MOL0     O92187   2.268  10.807   8.257 -0.1620  0.5759 -0.2328
  669MOL0     C92188   2.398  10.783   8.301  1.3785  0.0618 -0.1905
  669MOL0     C92189   2.423  10.664   8.368 -0.0605  0.0053 -0.7925
  669MOL0     C92190   2.554  10.626   8.392 -0.0377 -0.5738 -0.4267
  669MOL0     C92191   2.659  10.697   8.334 -0.1140 -0.1529 -0.6348
  669MOL0     O92192   2.784  10.647   8.347 -0.2529 -0.3761 -0.0877
  669MOL0     C92193   2.895  10.730   8.308 -0.1878  0.2555 -0.2670
  669MOL0     C92194   3.022  10.654   8.339 -0.1536 -0.4560  0.3325
  669MOL0     C92195   3.064  10.551   8.241  0.4306 -0.3713 -0.3377
  669MOL0     C92196   3.189  10.481   8.278  0.7304  0.0497  0.1564
  669MOL0     C92197   3.233  10.386   8.162 -0.6259  0.7790  0.2433
  669MOL0     C92198   3.315  10.459   8.056 -0.3351 -0.6357 -1.1300
  669MOL0     C92199   3.385  10.366   7.958  0.1720  0.4042 -0.2888
  669MOL0     C92200   3.291  10.261   7.905 -0.3851  0.0400  0.3589
  669MOL0     N92201   3.364  10.202   7.792 -0.3879 -0.1195 -0.2504
  669MOL0     C92202   3.358  10.242   7.659  0.2094 -1.2647 -0.0848
  669MOL0     C92203   3.433  10.151   7.597  0.5661 -0.4667  0.4570
  669MOL0     C92204   3.448  10.151   7.445 -0.2354 -0.6141 -0.0335
  669MOL0     C92205   3.597  10.195   7.405 -0.0082 -0.7818  0.3618
  669MOL0     C92206   3.619  10.165   7.258 -1.2384 -0.0413  0.5763
  669MOL0     C92207   3.755  10.217   7.209 -0.7171  0.4493  0.4893
  669MOL0     O92208   3.856  10.130   7.271  0.6973  0.3616 -0.5045
  669MOL0     C92209   3.978  10.174   7.264 -0.7111 -0.3700  0.3673
  669MOL0     C92210   4.039  10.269   7.354  0.6281  0.8110  0.9557
  669MOL0     C92211   4.167  10.316   7.339  0.5839 -0.8131  0.4084
  669MOL0     C92212   4.214  10.411   7.443 -0.3846  0.1781  0.1744
  669MOL0     C92213   4.246  10.261   7.240 -0.9290  0.0909 -0.0876
  669MOL0     C92214   4.381  10.296   7.204 -0.0677  0.5902  0.3740
  669MOL0     O92215   4.477  10.203   7.166  0.5986 -0.4047 -0.4929
  669MOL0     C92216   4.603  10.249   7.150 -0.4864 -0.5997 -0.4806
  669MOL0     C92217   4.677  10.314   7.251 -0.3407  0.8374  0.0224
  669MOL0     C92218   4.817  10.357   7.229  0.2364  0.2260  0.5049
  669MOL0     C92219   4.873  10.331   7.104 -0.0577 -0.9241 -0.2724
  669MOL0     O92220   5.007  10.361   7.076  0.0697  0.3129  0.8194
  669MOL0     C92221   5.104  10.345   7.178 -0.3818 -0.0573  0.8447
  669MOL0     C92222   5.142  10.489   7.227  0.0918  0.6855 -0.6269
  669MOL0     C92223   5.268  10.488   7.305 -1.3892  0.8722  0.2665
  669MOL0     C92224   5.403  10.492   7.227  0.3111 -0.4643 -0.9857
  669MOL0     C92225   5.503  10.399   7.299 -0.1637 -0.0205  0.2186
  669MOL0     C92226   5.643  10.389   7.215 -0.3558  0.8856  0.4416
  669MOL0     C92227   5.764  10.334   7.304 -0.1605  0.3996 -0.3790
  669MOL0     C92228   5.873  10.266   7.225 -0.4434 -0.3484  0.2190
  669MOL0    Cl92229   5.967  10.370   7.116 -0.2372 -0.1315 -0.0509
  669MOL0     C92230   4.795  10.276   7.004 -0.0782 -0.3938 -0.1377
  669MOL0     C92231   4.662  10.235   7.024  0.2719  0.5305 -0.5551
  669MOL0     O92232   4.397  10.418   7.202 -0.0205  0.7158  0.3364
  669MOL0     C92233   4.196  10.153   7.161  0.1592  0.3499 -0.6970
  669MOL0     C92234   4.063  10.121   7.169  0.0379 -0.6314 -1.0565
  669MOL0     N92235   3.492  10.064   7.686 -0.1879 -0.7295  0.2476
  669MOL0     N92236   3.442  10.090   7.804  0.3543  1.3980  0.5670
  669MOL0     C92237   2.630  10.819   8.273 -0.2259 -0.5664 -0.2355
  669MOL0     C92238   2.496  10.858   8.250 -0.2246  0.0691  0.5222
  669MOL0     C92239   2.047  10.851   8.338  0.5134 -0.0689  0.3730
  669MOL0     C92240   1.994  10.762   8.239  0.3350  0.2866 -0.1119
  669MOL0     C92241   1.857  10.732   8.225  1.0161  0.1771  0.0827
  669MOL0     C92242   1.774  10.767   8.332  0.2602 -0.7833  0.1566
  669MOL0     O92243   1.649  10.701   8.328  0.3920 -0.3086  0.5524
  669MOL0     C92244   1.593  10.672   8.451 -0.0983 -0.8863  0.0865
  669MOL0     C92245   1.475  10.585   8.424  0.5985  0.4788 -0.6418
  669MOL0     C92246   1.384  10.662   8.323  0.3554 -0.0579  0.1343
  669MOL0     C92247   1.250  10.592   8.313 -0.4448 -0.9128 -0.3167
  669MOL0     C92248   1.274  10.453   8.289  0.4342  1.0530  0.5178
  669MOL0     C92249   1.273  10.335   8.256 -0.4554 -0.4221  0.0642
  669MOL0     C92250   1.823  10.856   8.431  0.1445 -0.0856 -0.6728
  669MOL0     C92251   1.956  10.906   8.436  1.0536 -1.0771  0.8845
  669MOL0     C92252   1.979  11.017   8.534  0.2624 -0.3406 -0.2497
  669MOL0     H92253   2.345  10.595   8.398  0.2445  0.1336  0.3409
  669MOL0     H92254   2.573  10.533   8.445  0.0102 -0.3470 -0.0460
  669MOL0     H92255   2.896  10.818   8.373  0.4817  1.3171 -1.6629
  669MOL0     H92256   2.900  10.751   8.201  0.6009 -0.7125 -0.4331
  669MOL0     H92257   3.105  10.725   8.332 -0.2451 -0.1928  1.7122
  669MOL0     H92258   3.026  10.632   8.446 -1.5829  2.8131  1.1921
  669MOL0     H92259   2.986  10.476   8.228 -1.7885  0.9490  3.5696
  669MOL0     H92260   3.070  10.605   8.146 -0.3231 -0.8335 -0.6579
  669MOL0     H92261   3.265  10.557   8.291 -0.5911  1.2495  1.0986
  669MOL0     H92262   3.165  10.419   8.365  0.9527  0.1300  0.2720
  669MOL0     H92263   3.138  10.350   8.122  0.0472  0.0842 -0.7629
  669MOL0     H92264   3.292  10.302   8.199 -0.8746 -0.8982 -2.8608
  669MOL0     H92265   3.251  10.528   8.001 -0.1060 -0.1111 -0.7520
  669MOL0     H92266   3.385  10.518   8.116 -0.3387 -1.3352 -0.4135
  669MOL0     H92267   3.462  10.307   8.008 -1.4936 -2.6008 -1.0275
  669MOL0     H92268   3.433  10.428   7.882  0.6624 -0.0828 -0.3892
  669MOL0     H92269   3.262  10.188   7.982  1.1517  0.6234  1.5392
  669MOL0     H92270   3.197  10.306   7.873 -0.6383 -0.8577 -0.1937
  669MOL0     H92271   3.313  10.333   7.621  0.7000 -1.2553 -0.6426
  669MOL0     H92272   3.370  10.213   7.399  0.7134  0.7280  0.1106
  669MOL0     H92273   3.428  10.059   7.390 -3.1034  1.0237 -2.0738
  669MOL0     H92274   3.599  10.304   7.416 -1.5077 -0.9180  2.7155
  669MOL0     H92275   3.669  10.141   7.466 -0.2584  1.8565  3.2849
  669MOL0     H92276   3.620  10.058   7.237 -0.0024  0.0787 -0.0927
  669MOL0     H92277   3.536  10.194   7.192 -0.0472 -1.4960 -1.6964
  669MOL0     H92278   3.765  10.213   7.100  1.5296 -4.1248  0.6240
  669MOL0     H92279   3.763  10.319   7.248 -0.6782  0.1282  1.3275
  669MOL0     H92280   3.974  10.305   7.432 -1.3216 -0.1002 -0.1572
  669MOL0     H92281   4.141  10.479   7.490  0.0774 -1.0687  2.9448
  669MOL0     H92282   4.300  10.470   7.412  1.1229 -2.0263 -0.0655
  669MOL0     H92283   4.246  10.353   7.530  1.7202  1.1508  0.0990
  669MOL0     H92284   4.629  10.342   7.344 -0.0902  4.5475 -0.8008
  669MOL0     H92285   4.881  10.403   7.304  1.0940 -0.3708  0.1532
  669MOL0     H92286   5.078  10.281   7.263  0.3124 -1.1741  0.2311
  669MOL0     H92287   5.196  10.305   7.135 -0.7533 -1.6178  1.4534
  669MOL0     H92288   5.153  10.556   7.141  1.6345 -1.0806 -1.8764
  669MOL0     H92289   5.070  10.525   7.301  0.3194  0.5530 -0.3382
  669MOL0     H92290   5.268  10.401   7.371  0.3386 -0.2227 -1.1037
  669MOL0     H92291   5.276  10.571   7.376 -0.9676  0.0347  1.2311
  669MOL0     H92292   5.434  10.596   7.212 -0.8421  0.3105  1.5532
  669MOL0     H92293   5.391  10.448   7.127 -0.7660  0.1285 -1.1360
  669MOL0     H92294   5.524  10.433   7.401  2.4749  1.6418 -0.7512
  669MOL0     H92295   5.456  10.301   7.303  1.3135 -0.8333 -1.3185
  669MOL0     H92296   5.682  10.481   7.170 -1.3949  1.2078  0.1462
  669MOL0     H92297   5.625  10.312   7.140 -0.4803 -1.5966  2.8937
  669MOL0     H92298   5.726  10.268   7.383  1.7853  2.9585  2.9959
  669MOL0     H92299   5.808  10.422   7.353  0.3408  1.7584 -3.0976
  669MOL0     H92300   5.835  10.181   7.169  0.2041  0.8014 -2.1110
  669MOL0     H92301   5.945  10.229   7.298 -0.1347 -0.2321 -0.0229
  669MOL0     H92302   4.836  10.266   6.904 -1.0853 -0.4710 -0.5539
  669MOL0     H92303   4.600  10.200   6.943 -0.8277  0.5036  0.2734
  669MOL0     H92304   4.258  10.098   7.090 -0.5630  1.4930 -2.2957
  669MOL0     H92305   4.023  10.054   7.094 -0.7152  0.2463 -1.4551
  669MOL0     H92306   2.703  10.886   8.227 -0.8122 -0.5457 -1.1493
  669MOL0     H92307   2.469  10.940   8.184  0.2549 -0.6882 -0.6364
  669MOL0     H92308   2.067  10.721   8.170  0.1173  2.3440 -1.6958
  669MOL0     H92309   1.824  10.656   8.154  1.2533 -0.7177  0.9084
  669MOL0     H92310   1.656  10.612   8.517  0.7902 -1.8487 -1.5747
  669MOL0     H92311   1.560  10.760   8.508 -2.0136 -1.1458 -0.5701
  669MOL0     H92312   1.418  10.562   8.514  0.7367 -0.2434 -0.7347
  669MOL0     H92313   1.513  10.485   8.402  2.4802  0.2644  2.8726
  669MOL0     H92314   1.367  10.763   8.361  0.3350 -0.0498  0.1011
  669MOL0     H92315   1.429  10.643   8.226 -2.1889 -2.2548 -0.7248
  669MOL0     H92316   1.188  10.638   8.235  1.5266 -0.1475 -1.4962
  669MOL0     H92317   1.192  10.601   8.406 -2.2778  0.6527 -1.5288
  669MOL0     H92318   1.272  10.228   8.262 -0.0852 -0.3361  2.6668
  669MOL0     H92319   1.754  10.888   8.509  3.1932  1.5015  1.5729
  669MOL0     H92320   1.888  11.036   8.592 -0.1824 -1.1511 -0.6570
  669MOL0     H92321   2.050  10.987   8.611 -1.2343 -0.9487  0.9476
  669MOL0     H92322   2.021  11.111   8.496  0.1792  0.1168  0.7556
  670MOL0     O92323   6.283   6.275   4.886 -0.4475  0.3624 -0.0365
  670MOL0     C92324   6.259   6.158   4.905  0.7804 -0.1970  0.0769
  670MOL0     O92325   6.349   6.054   4.908 -0.6195  0.4270 -0.7316
  670MOL0     C92326   6.476   6.067   4.862 -0.1312  0.2782  0.4294
  670MOL0     C92327   6.565   6.164   4.886 -0.8889 -1.0907 -0.1954
  670MOL0     C92328   6.681   6.167   4.808 -0.5702 -0.4115  0.8105
  670MOL0     C92329   6.718   6.068   4.719  0.3798 -0.4441  0.6175
  670MOL0     O92330   6.833   6.065   4.647 -0.4788  0.2398  0.0569
  670MOL0     C92331   6.934   6.151   4.667  0.6685 -0.9670 -0.2734
  670MOL0     C92332   7.058   6.114   4.584  0.2640  0.2790 -0.7331
  670MOL0     C92333   7.024   6.094   4.439 -1.0481 -0.4067 -0.0830
  670MOL0     C92334   7.139   6.148   4.353  0.2096 -0.1345  0.6295
  670MOL0     C92335   7.097   6.128   4.206  0.6619  0.0820  0.8920
  670MOL0     C92336   7.221   6.121   4.116 -0.5313 -0.6593 -0.1052
  670MOL0     C92337   7.291   5.987   4.133  0.7981  0.7269  0.4939
  670MOL0     C92338   7.446   6.001   4.119  0.4799 -0.2285 -0.4276
  670MOL0     N92339   7.499   6.028   3.984 -0.5381 -0.8861  0.4766
  670MOL0     C92340   7.444   5.968   3.877  0.2236  0.3873 -1.2661
  670MOL0     C92341   7.482   6.039   3.768  0.2372  0.4258 -0.2052
  670MOL0     C92342   7.445   6.008   3.624 -0.0117 -0.4226 -0.6492
  670MOL0     C92343   7.550   5.911   3.572 -1.0773 -0.4829  0.1208
  670MOL0     C92344   7.527   5.872   3.425 -0.9871 -0.0930  0.0189
  670MOL0     C92345   7.646   5.784   3.367  1.3029 -0.6775 -0.3415
  670MOL0     O92346   7.650   5.660   3.433 -0.5417 -0.2365  0.0005
  670MOL0     C92347   7.707   5.556   3.359 -0.5724  0.3553 -0.4775
  670MOL0     C92348   7.651   5.424   3.364  0.0004 -0.0235  0.5883
  670MOL0     C92349   7.695   5.318   3.292 -0.4402  0.9630 -0.1858
  670MOL0     C92350   7.614   5.185   3.310 -0.4708  0.7699 -0.2685
  670MOL0     C92351   7.813   5.329   3.216 -0.9157 -0.5213 -0.4571
  670MOL0     C92352   7.879   5.231   3.133  0.1121 -0.0731 -0.5806
  670MOL0     O92353   8.012   5.244   3.120 -0.1848 -0.1361 -0.3117
  670MOL0     C92354   8.084   5.155   3.046  0.1030 -0.0687  1.4330
  670MOL0     C92355   8.072   5.017   3.064  0.7930  0.2121  0.5002
  670MOL0     C92356   8.157   4.930   2.990  0.8145 -0.0650 -0.3223
  670MOL0     C92357   8.251   4.980   2.894  0.9654 -0.7957  0.1863
  670MOL0     O92358   8.330   4.895   2.821 -0.6536  0.0369  0.6063
  670MOL0     C92359   8.291   4.868   2.687 -0.4615 -0.3127 -0.1898
  670MOL0     C92360   8.404   4.782   2.627 -0.5658  0.0769  0.9660
  670MOL0     C92361   8.427   4.647   2.687 -0.1460 -0.4492 -0.1071
  670MOL0     C92362   8.519   4.554   2.611 -0.0105  0.0571 -0.0970
  670MOL0     C92363   8.529   4.424   2.699 -0.4371 -0.0413 -0.2048
  670MOL0     C92364   8.594   4.305   2.623 -0.1255  0.1066  0.0223
  670MOL0     C92365   8.623   4.200   2.731  0.4613 -0.3247 -1.1752
  670MOL0     C92366   8.672   4.075   2.661 -0.0226 -0.2620  0.1198
  670MOL0    Cl92367   8.536   3.997   2.578  0.3250 -0.3076 -0.3681
  670MOL0     C92368   8.261   5.113   2.877  0.0271 -0.2854 -0.2092
  670MOL0     C92369   8.183   5.197   2.955 -0.8647  0.1017 -0.0946
  670MOL0     O92370   7.807   5.140   3.089 -0.3687  0.0353  0.3290
  670MOL0     C92371   7.881   5.455   3.213  0.7012 -0.0606  0.7125
  670MOL0     C92372   7.827   5.565   3.285 -0.4604  0.9932 -0.2250
  670MOL0     N92373   7.582   6.128   3.813  0.3634 -0.2803 -0.1850
  670MOL0     N92374   7.581   6.128   3.938 -0.4214  0.4239  0.1156
  670MOL0     C92375   6.634   5.961   4.706  0.1993  0.3796 -0.2219
  670MOL0     C92376   6.514   5.966   4.772  0.4785  0.2136 -0.2293
  670MOL0     C92377   6.121   6.122   4.954  0.2371 -0.8248  0.1849
  670MOL0     C92378   6.117   6.036   5.061  1.4867  0.1145  0.8492
  670MOL0     C92379   5.998   6.012   5.118 -0.0045 -0.1687  0.1586
  670MOL0     C92380   5.875   6.049   5.060  0.2735 -0.1827  0.8726
  670MOL0     O92381   5.767   6.005   5.124  0.4236  0.3289 -0.6801
  670MOL0     C92382   5.633   6.016   5.077  1.1612  0.1824 -0.5322
  670MOL0     C92383   5.599   5.905   4.983  0.5653  0.4594 -0.8264
  670MOL0     C92384   5.456   5.925   4.923 -0.1504  0.7015 -0.0117
  670MOL0     C92385   5.343   5.912   5.029 -0.7316  0.5044 -0.6725
  670MOL0     C92386   5.337   5.783   5.092  0.0688  0.3424 -0.1534
  670MOL0     C92387   5.317   5.679   5.149 -0.7737  0.1779 -0.7358
  670MOL0     C92388   5.877   6.138   4.954 -0.7685 -0.2956 -0.3659
  670MOL0     C92389   6.000   6.173   4.899  0.4964  0.3289 -0.4065
  670MOL0     C92390   6.000   6.279   4.786 -0.2469 -0.2706  0.6242
  670MOL0     H92391   6.543   6.239   4.962 -0.8609 -0.7288 -0.5433
  670MOL0     H92392   6.742   6.256   4.821  1.5979 -1.4960 -1.1876
  670MOL0     H92393   6.964   6.158   4.772 -2.0671  3.0901  0.4433
  670MOL0     H92394   6.901   6.250   4.636  0.4139 -0.8770  0.2863
  670MOL0     H92395   7.134   6.192   4.594  0.6841 -0.2491  0.3028
  670MOL0     H92396   7.105   6.026   4.628  2.1485  0.0240 -3.0902
  670MOL0     H92397   7.006   5.987   4.429 -2.7644 -0.0941 -0.6579
  670MOL0     H92398   6.931   6.135   4.398 -0.4510 -1.0606 -2.2153
  670MOL0     H92399   7.151   6.256   4.366  0.9644 -0.1822  0.4037
  670MOL0     H92400   7.236   6.104   4.378  1.1007  1.4780  0.2051
  670MOL0     H92401   7.035   6.214   4.177 -0.6537 -0.5883  1.6265
  670MOL0     H92402   7.035   6.039   4.192  0.6185  0.1709  0.5119
  670MOL0     H92403   7.205   6.141   4.010 -1.3628  0.9883  0.3023
  670MOL0     H92404   7.284   6.204   4.148 -1.2846 -0.1776  0.1449
  670MOL0     H92405   7.244   5.925   4.057 -0.8312  1.6966  0.6534
  670MOL0     H92406   7.267   5.934   4.226  1.1337 -0.7087 -0.2044
  670MOL0     H92407   7.487   6.074   4.190  0.5611 -2.3547  1.8710
  670MOL0     H92408   7.482   5.900   4.142  1.0622  0.1307  0.2703
  670MOL0     H92409   7.377   5.883   3.885 -0.9781  1.1256 -2.8399
  670MOL0     H92410   7.445   6.098   3.561 -0.2211  0.4689  0.5752
  670MOL0     H92411   7.344   5.966   3.623  0.8629 -2.7021  0.5069
  670MOL0     H92412   7.644   5.966   3.573 -2.1759  1.5046  1.1575
  670MOL0     H92413   7.556   5.815   3.625  1.2679 -0.4514  0.0162
  670MOL0     H92414   7.428   5.826   3.422 -0.6281 -0.8160 -1.9613
  670MOL0     H92415   7.513   5.964   3.366  3.0708  0.7115  0.0454
  670MOL0     H92416   7.631   5.773   3.259 -0.5795  1.2488 -0.3484
  670MOL0     H92417   7.741   5.836   3.386  1.5403 -1.5315  0.9007
  670MOL0     H92418   7.563   5.410   3.426 -1.5530 -2.1279 -1.8796
  670MOL0     H92419   7.594   5.171   3.416 -3.0382 -1.2557 -0.9101
  670MOL0     H92420   7.666   5.097   3.272 -0.3898  1.4337 -1.7971
  670MOL0     H92421   7.524   5.203   3.249 -0.9674  1.6453  0.6926
  670MOL0     H92422   8.004   4.976   3.138 -2.6576 -0.4478 -2.7511
  670MOL0     H92423   8.143   4.822   2.990  1.5109 -0.1625  0.0944
  670MOL0     H92424   8.198   4.810   2.696  1.2424 -2.9252  4.6251
  670MOL0     H92425   8.278   4.954   2.622  0.1242  2.1276  2.7060
  670MOL0     H92426   8.374   4.769   2.523  0.3585  0.2111  0.6720
  670MOL0     H92427   8.502   4.830   2.640  1.4011 -3.8181  2.3113
  670MOL0     H92428   8.329   4.602   2.705 -0.6646  0.3623 -0.8337
  670MOL0     H92429   8.467   4.663   2.787  1.2005  0.5611 -0.7724
  670MOL0     H92430   8.612   4.611   2.608  1.4457 -2.0944  1.8215
  670MOL0     H92431   8.476   4.535   2.512  1.9775  1.9159 -1.4056
  670MOL0     H92432   8.598   4.444   2.781  1.1837 -0.2533 -1.4469
  670MOL0     H92433   8.426   4.395   2.723 -0.2722 -0.7024 -0.2871
  670MOL0     H92434   8.678   4.352   2.570  0.1268  1.3312  1.4544
  670MOL0     H92435   8.529   4.266   2.544  2.3198 -2.1765 -1.0215
  670MOL0     H92436   8.533   4.171   2.786  1.3130  0.6064  0.7942
  670MOL0     H92437   8.691   4.242   2.805 -2.4243  1.4126  0.6812
  670MOL0     H92438   8.707   4.006   2.738  2.3316  1.5035  0.7546
  670MOL0     H92439   8.753   4.096   2.590 -0.5454 -0.6025 -0.5962
  670MOL0     H92440   8.314   5.163   2.797 -3.4728  5.7384  0.5971
  670MOL0     H92441   8.200   5.304   2.950 -3.3004  0.6166  0.9780
  670MOL0     H92442   7.970   5.464   3.153  0.1838 -1.2054 -0.2611
  670MOL0     H92443   7.886   5.656   3.275  1.7633 -0.4428 -0.9896
  670MOL0     H92444   6.651   5.876   4.641 -1.2294 -0.6146  0.6693
  670MOL0     H92445   6.454   5.878   4.749  3.0551 -1.4376 -1.0454
  670MOL0     H92446   6.206   5.999   5.111  1.3717  1.0327  1.7580
  670MOL0     H92447   5.985   5.966   5.215  0.1111  2.0003  1.2603
  670MOL0     H92448   5.567   6.002   5.163  2.0785  0.1299  0.1776
  670MOL0     H92449   5.616   6.118   5.040  2.0215  1.1795  1.6062
  670MOL0     H92450   5.610   5.807   5.032  0.8570 -0.1527 -2.0793
  670MOL0     H92451   5.669   5.912   4.899  1.0561  0.1188 -0.4523
  670MOL0     H92452   5.448   6.026   4.882  1.9841 -0.2662 -3.1574
  670MOL0     H92453   5.434   5.855   4.842 -3.1142 -1.0623  2.1058
  670MOL0     H92454   5.248   5.923   4.976 -1.2175 -2.0953 -0.5009
  670MOL0     H92455   5.348   5.996   5.098  0.4405 -0.5612  0.5960
  670MOL0     H92456   5.314   5.579   5.188 -0.0110 -0.4565 -2.2514
  670MOL0     H92457   5.777   6.173   4.933 -2.3361 -2.8184  2.0787
  670MOL0     H92458   6.083   6.260   4.717 -1.4517  3.0997 -2.0530
  670MOL0     H92459   5.909   6.281   4.726  1.3103 -1.3268 -1.9361
  670MOL0     H92460   6.030   6.376   4.826 -0.1267 -0.6496  1.4707
  671MOL0     O92461   0.288   4.197   6.162  0.2742  0.4243  1.3172
  671MOL0     C92462   0.297   4.087   6.213 -0.3423  1.2457 -0.4560
  671MOL0     O92463   0.400   4.036   6.288 -0.8552  0.2035  0.1317
  671MOL0     C92464   0.510   4.113   6.316 -0.1539  0.5183 -0.3997
  671MOL0     C92465   0.494   4.252   6.347 -0.7544  0.1900  0.4422
  671MOL0     C92466   0.607   4.329   6.380 -0.0807 -0.1189 -0.4618
  671MOL0     C92467   0.733   4.269   6.408 -0.1208 -0.0115  0.2957
  671MOL0     O92468   0.832   4.356   6.457 -0.6342  0.3619  0.1545
  671MOL0     C92469   0.963   4.337   6.395 -0.6519 -0.2963 -0.2568
  671MOL0     C92470   1.047   4.469   6.415 -0.0921  0.4345 -0.2268
  671MOL0     C92471   1.174   4.476   6.342 -0.5007 -0.1080 -0.5745
  671MOL0     C92472   1.150   4.539   6.203  0.5524 -0.7983  0.6684
  671MOL0     C92473   1.265   4.502   6.113 -0.4763 -0.0079  0.0721
  671MOL0     C92474   1.261   4.573   5.976 -0.0973 -0.0887 -0.0933
  671MOL0     C92475   1.382   4.522   5.886 -0.4973 -0.3294  0.0573
  671MOL0     C92476   1.395   4.614   5.755 -0.1717 -0.7337 -0.8851
  671MOL0     N92477   1.480   4.545   5.650 -0.1414 -0.5930 -0.0891
  671MOL0     C92478   1.463   4.569   5.514 -0.1730 -0.4555  0.1643
  671MOL0     C92479   1.546   4.485   5.448  0.8841  0.1479  0.0215
  671MOL0     C92480   1.560   4.465   5.296 -0.6356  1.2933  0.0672
  671MOL0     C92481   1.618   4.593   5.250  0.7248  0.0381  0.9688
  671MOL0     C92482   1.678   4.576   5.108  0.3207  0.1233 -0.4258
  671MOL0     C92483   1.744   4.699   5.059  0.1099 -0.0029 -0.0311
  671MOL0     O92484   1.849   4.741   5.155  0.4776  0.9136 -0.5997
  671MOL0     C92485   1.976   4.700   5.149 -0.2606 -0.4716  0.7374
  671MOL0     C92486   2.015   4.574   5.087  0.6624 -0.8639  0.2476
  671MOL0     C92487   2.139   4.519   5.101  0.8835 -0.5893 -0.2996
  671MOL0     C92488   2.164   4.379   5.038 -0.3308  0.4629 -0.0068
  671MOL0     C92489   2.234   4.588   5.172 -0.6357 -0.5919 -0.3714
  671MOL0     C92490   2.377   4.548   5.189 -0.0933  0.8937 -0.9542
  671MOL0     O92491   2.412   4.422   5.160 -0.5352 -0.8113  0.8821
  671MOL0     C92492   2.540   4.388   5.159 -1.4463 -1.2883  0.4966
  671MOL0     C92493   2.607   4.392   5.280 -0.0838  0.1766  0.3645
  671MOL0     C92494   2.740   4.343   5.282 -0.9374  0.7644 -0.3564
  671MOL0     C92495   2.813   4.313   5.163  0.5012  0.2063 -1.5747
  671MOL0     O92496   2.941   4.273   5.176 -0.0200 -0.1620 -0.9845
  671MOL0     C92497   3.012   4.240   5.066  0.4764  0.6234 -0.4502
  671MOL0     C92498   3.158   4.199   5.106 -0.4845  0.6749 -0.4505
  671MOL0     C92499   3.241   4.136   4.990  0.0682 -0.6549 -1.2404
  671MOL0     C92500   3.387   4.094   5.041 -0.2823 -0.4524  0.4369
  671MOL0     C92501   3.481   4.076   4.919 -0.1911  0.0853 -0.6291
  671MOL0     C92502   3.422   3.990   4.803  0.5950 -0.5223  0.2423
  671MOL0     C92503   3.528   3.960   4.696 -1.0022 -0.3584 -0.4417
  671MOL0     C92504   3.484   3.872   4.581  0.0474  0.7545 -0.5106
  671MOL0    Cl92505   3.333   3.937   4.503 -0.2442 -0.3711  0.5689
  671MOL0     C92506   2.734   4.323   5.051  0.2352  0.3004  0.6765
  671MOL0     C92507   2.600   4.364   5.041 -0.4316  0.3022  0.7456
  671MOL0     O92508   2.454   4.639   5.231 -0.2910  0.0552  0.2171
  671MOL0     C92509   2.197   4.714   5.234 -0.4101 -0.0628  0.8527
  671MOL0     C92510   2.072   4.767   5.225 -0.4899  0.3751 -0.5472
  671MOL0     N92511   1.600   4.406   5.543  1.1089 -0.0375 -0.0430
  671MOL0     N92512   1.563   4.439   5.662 -0.5355  0.8313 -0.4206
  671MOL0     C92513   0.745   4.129   6.382 -0.5228 -0.2447  0.8648
  671MOL0     C92514   0.635   4.055   6.340 -0.4398  0.6453  0.3597
  671MOL0     C92515   0.193   3.987   6.177 -0.1587 -0.0630  0.4013
  671MOL0     C92516   0.069   4.031   6.136 -0.0855 -0.1555 -0.2681
  671MOL0     C92517  -0.037   3.941   6.108 -0.6680  0.3265  0.2988
  671MOL0     C92518  -0.013   3.808   6.108  0.0263  0.9125 -0.1811
  671MOL0     O92519  -0.116   3.736   6.057  0.6060 -0.0852 -0.0619
  671MOL0     C92520  -0.159   3.618   6.130 -1.1031  0.0706  0.3277
  671MOL0     C92521  -0.307   3.614   6.135  1.0404  1.1023  0.5289
  671MOL0     C92522  -0.379   3.544   6.020 -0.1684 -0.5995 -0.3803
  671MOL0     C92523  -0.502   3.466   6.074  0.5108  0.0715 -0.0019
  671MOL0     C92524  -0.572   3.388   5.974 -0.2007  0.4247 -0.5994
  671MOL0     C92525  -0.641   3.320   5.898  0.6627 -0.3727  0.3447
  671MOL0     C92526   0.105   3.765   6.139 -0.8589 -0.4188  0.1239
  671MOL0     C92527   0.216   3.853   6.172  0.3768 -0.1475  0.1424
  671MOL0     C92528   0.346   3.780   6.204 -0.0251 -0.2583  0.0747
  671MOL0     H92529   0.399   4.301   6.332 -1.2568 -0.6930  0.6652
  671MOL0     H92530   0.583   4.433   6.401 -0.6292 -0.2929 -0.1974
  671MOL0     H92531   0.958   4.316   6.288 -0.3333 -2.0671  0.0512
  671MOL0     H92532   1.012   4.259   6.453 -2.3748  1.6350  4.3582
  671MOL0     H92533   0.990   4.559   6.391 -0.9013  0.2600  0.9279
  671MOL0     H92534   1.061   4.463   6.524  1.0700 -2.6287 -0.4472
  671MOL0     H92535   1.244   4.550   6.382 -1.7967  0.7780  0.1037
  671MOL0     H92536   1.226   4.380   6.341 -0.3748 -0.0415 -1.9134
  671MOL0     H92537   1.053   4.510   6.164 -1.6038  1.5360  3.7818
  671MOL0     H92538   1.143   4.648   6.202 -0.5415 -0.8596 -1.1011
  671MOL0     H92539   1.262   4.396   6.084  2.6401 -0.0654 -0.3898
  671MOL0     H92540   1.363   4.519   6.159  1.3488 -2.8552 -2.3919
  671MOL0     H92541   1.168   4.559   5.919  0.3718  0.3021 -0.9775
  671MOL0     H92542   1.281   4.680   5.990 -0.8104  0.1321 -0.6904
  671MOL0     H92543   1.358   4.424   5.844  1.5289 -0.2248 -1.4842
  671MOL0     H92544   1.477   4.520   5.941 -1.0575 -1.0705  1.0450
  671MOL0     H92545   1.297   4.613   5.705  0.3469 -0.2356 -1.9352
  671MOL0     H92546   1.433   4.714   5.779 -0.6662 -1.0872  1.6296
  671MOL0     H92547   1.399   4.642   5.464 -1.5940 -1.5776  0.2922
  671MOL0     H92548   1.462   4.460   5.248  1.1012 -2.1519 -3.6070
  671MOL0     H92549   1.616   4.374   5.276  1.2747  1.9873  1.7949
  671MOL0     H92550   1.536   4.666   5.243 -0.5426 -1.3541  0.9326
  671MOL0     H92551   1.696   4.634   5.315  1.6169  0.1897 -0.1823
  671MOL0     H92552   1.743   4.488   5.110  0.2204  0.0240 -1.2214
  671MOL0     H92553   1.589   4.556   5.049  0.1007 -0.7816  0.1982
  671MOL0     H92554   1.780   4.686   4.957 -3.8167 -0.7773 -1.4930
  671MOL0     H92555   1.665   4.774   5.050 -0.1373 -0.1212  0.9971
  671MOL0     H92556   1.948   4.527   5.015 -1.5885  2.3543  0.0053
  671MOL0     H92557   2.256   4.365   4.980 -0.9271  2.8528 -1.7087
  671MOL0     H92558   2.089   4.362   4.960  0.6477  1.5028 -1.2118
  671MOL0     H92559   2.150   4.303   5.115 -0.2020  1.3580  0.9235
  671MOL0     H92560   2.547   4.416   5.367 -1.7096 -0.3277 -0.5762
  671MOL0     H92561   2.801   4.323   5.369 -0.1683 -0.2533 -1.1068
  671MOL0     H92562   2.967   4.156   5.012 -0.3709  2.1246 -2.1900
  671MOL0     H92563   3.022   4.321   4.994  1.7483  2.0068  1.1942
  671MOL0     H92564   3.195   4.292   5.151 -1.9893  0.7019  0.8090
  671MOL0     H92565   3.145   4.119   5.180  0.9078  0.0777 -0.8202
  671MOL0     H92566   3.257   4.209   4.911  1.2016  0.7010  0.1720
  671MOL0     H92567   3.180   4.054   4.951 -5.7031  0.4852  3.8166
  671MOL0     H92568   3.381   4.007   5.107 -0.2805  1.1016  2.6205
  671MOL0     H92569   3.432   4.174   5.102  2.6061 -0.3716 -1.5885
  671MOL0     H92570   3.506   4.177   4.886 -0.9853  0.7843  0.8087
  671MOL0     H92571   3.568   4.023   4.959 -2.9379 -3.6470  1.1027
  671MOL0     H92572   3.343   4.048   4.753  1.0390 -1.1425 -1.2364
  671MOL0     H92573   3.385   3.892   4.832 -0.4185 -0.3030 -0.2648
  671MOL0     H92574   3.620   3.920   4.740 -2.0282  0.9608  3.2020
  671MOL0     H92575   3.551   4.051   4.639  1.4801 -1.5525 -1.4860
  671MOL0     H92576   3.469   3.768   4.612 -2.6114  1.3491  0.5829
  671MOL0     H92577   3.554   3.884   4.499 -0.7730  1.3386 -1.1475
  671MOL0     H92578   2.770   4.281   4.957 -2.3364 -1.2636  0.2675
  671MOL0     H92579   2.545   4.379   4.949 -0.0982  0.4002  0.5600
  671MOL0     H92580   2.263   4.775   5.296 -1.8784  0.1523  2.2748
  671MOL0     H92581   2.048   4.854   5.286  0.4359 -1.4801  2.7450
  671MOL0     H92582   0.841   4.084   6.404  0.5479  1.2665 -0.4314
  671MOL0     H92583   0.656   3.949   6.338  2.9530  1.2072 -0.3061
  671MOL0     H92584   0.053   4.138   6.127  1.4190  0.1131  0.0488
  671MOL0     H92585  -0.131   3.987   6.081  1.4685  3.7966 -2.0828
  671MOL0     H92586  -0.105   3.530   6.094  2.1755  1.1745  2.1205
  671MOL0     H92587  -0.112   3.622   6.229  1.4364  3.3076 -0.8254
  671MOL0     H92588  -0.361   3.709   6.147  1.3429  1.0901  2.2356
  671MOL0     H92589  -0.340   3.552   6.219 -4.9166  0.1646 -1.9620
  671MOL0     H92590  -0.417   3.626   5.958  1.0974  1.6183  1.6064
  671MOL0     H92591  -0.307   3.488   5.960  2.2973  1.0760  0.8263
  671MOL0     H92592  -0.577   3.527   6.124 -0.8155 -2.0166  0.6943
  671MOL0     H92593  -0.470   3.390   6.146 -1.5088 -2.9071 -2.0091
  671MOL0     H92594  -0.711   3.284   5.825  1.3011 -0.5339 -0.2048
  671MOL0     H92595   0.112   3.657   6.126 -1.2304 -1.0060  3.7771
  671MOL0     H92596   0.372   3.798   6.308 -0.1761 -1.2400  0.2917
  671MOL0     H92597   0.332   3.672   6.193 -0.7175 -0.4012  1.9508
  671MOL0     H92598   0.431   3.801   6.138 -0.3317 -1.0064 -0.5786
  672MOL0     O92599   0.639   0.216   5.976  0.0214  0.6830  0.3423
  672MOL0     C92600   0.734   0.219   6.056 -0.6230  0.9116  0.9340
  672MOL0     O92601   0.868   0.252   6.023 -0.7207  0.6914  0.7226
  672MOL0     C92602   0.904   0.256   5.887 -0.0740 -0.2844  0.6826
  672MOL0     C92603   0.920   0.384   5.827  0.6805 -0.0166 -0.8245
  672MOL0     C92604   0.941   0.397   5.688  0.7394  0.0678  0.1954
  672MOL0     C92605   0.966   0.282   5.602  0.2226 -0.1412  0.8368
  672MOL0     O92606   0.991   0.288   5.462  0.5871  0.7406 -0.2392
  672MOL0     C92607   1.004   0.412   5.400 -0.6580  0.2858  0.0546
  672MOL0     C92608   1.163   0.427   5.372 -0.4028  0.1629 -0.0822
  672MOL0     C92609   1.173   0.512   5.240 -0.3204  0.2888  0.0022
  672MOL0     C92610   1.316   0.528   5.186 -0.0246  0.3995  0.1223
  672MOL0     C92611   1.328   0.643   5.096  0.1237 -0.4413  0.4715
  672MOL0     C92612   1.304   0.604   4.947 -0.1647 -0.4764 -0.1313
  672MOL0     C92613   1.315   0.732   4.862  0.7188  0.0345 -0.3559
  672MOL0     C92614   1.295   0.700   4.714  0.3547  0.0964 -0.7148
  672MOL0     N92615   1.341   0.820   4.646 -0.2315  0.2783 -0.6889
  672MOL0     C92616   1.251   0.919   4.605  0.1237 -0.5441 -0.8816
  672MOL0     C92617   1.337   1.018   4.552  0.2050 -0.0243 -0.5998
  672MOL0     C92618   1.287   1.147   4.503  0.8531 -0.7251 -0.1844
  672MOL0     C92619   1.363   1.194   4.378  0.5792  1.2366 -0.4594
  672MOL0     C92620   1.348   1.344   4.360 -0.4696 -0.5700 -0.1961
  672MOL0     C92621   1.454   1.405   4.262  0.1772  0.4756 -0.3632
  672MOL0     O92622   1.413   1.358   4.136  0.6100  0.3212 -0.1729
  672MOL0     C92623   1.497   1.353   4.034  0.3535 -0.2797 -0.3035
  672MOL0     C92624   1.477   1.255   3.934  0.0092 -0.5273 -0.7333
  672MOL0     C92625   1.573   1.227   3.841  0.2568  0.0422  0.0550
  672MOL0     C92626   1.558   1.097   3.765  0.1617  0.6644 -0.0062
  672MOL0     C92627   1.699   1.297   3.842  0.0607 -0.2116  0.4253
  672MOL0     C92628   1.822   1.260   3.758  0.6748  0.1897 -0.1074
  672MOL0     O92629   1.939   1.325   3.787  0.0088  0.0120 -0.2520
  672MOL0     C92630   2.059   1.283   3.726 -0.0640  0.4037  0.4827
  672MOL0     C92631   2.113   1.362   3.626  1.3965 -0.1829 -0.1466
  672MOL0     C92632   2.228   1.331   3.556  0.2572  0.5903  0.5372
  672MOL0     C92633   2.285   1.204   3.581 -0.0317 -1.3049  0.4185
  672MOL0     O92634   2.406   1.160   3.526 -0.0800  0.2819 -0.0839
  672MOL0     C92635   2.510   1.261   3.500 -0.5674 -0.0162  1.1553
  672MOL0     C92636   2.635   1.194   3.434 -0.0379  0.0748 -0.4329
  672MOL0     C92637   2.751   1.300   3.425  0.5560  0.7983  0.5836
  672MOL0     C92638   2.876   1.236   3.357  0.2353  1.0302 -0.1228
  672MOL0     C92639   2.993   1.326   3.361 -0.2017 -1.0469 -0.1057
  672MOL0     C92640   3.109   1.258   3.279  0.1836 -0.0499 -0.0525
  672MOL0     C92641   3.246   1.341   3.249 -0.3290  0.1034 -0.4558
  672MOL0     C92642   3.361   1.247   3.222 -1.1330 -0.0904 -0.2027
  672MOL0    Cl92643   3.454   1.310   3.080 -0.1386  0.1887 -0.5395
  672MOL0     C92644   2.229   1.121   3.671 -0.7251 -0.1446 -1.0813
  672MOL0     C92645   2.118   1.152   3.737  0.5364  0.4231 -0.4272
  672MOL0     O92646   1.815   1.170   3.678  0.1893  0.1206 -0.8885
  672MOL0     C92647   1.715   1.395   3.936 -0.6211 -0.4182  0.1609
  672MOL0     C92648   1.615   1.426   4.028 -0.7926  0.4256  0.3879
  672MOL0     N92649   1.470   0.982   4.579 -0.2111  0.0993  0.2204
  672MOL0     N92650   1.471   0.862   4.639  0.2801 -0.7116  0.7732
  672MOL0     C92651   0.973   0.157   5.664 -0.4274 -0.5010  0.1958
  672MOL0     C92652   0.939   0.146   5.801 -0.2968 -0.2375 -0.2022
  672MOL0     C92653   0.698   0.197   6.197 -0.6727  0.5054 -0.5841
  672MOL0     C92654   0.568   0.150   6.224  0.0652  1.1044 -0.3030
  672MOL0     C92655   0.529   0.129   6.357  0.1688 -0.7427  0.4654
  672MOL0     C92656   0.612   0.142   6.462  0.1310  1.2985 -0.1275
  672MOL0     O92657   0.589   0.094   6.584 -0.3364 -0.6747 -0.8531
  672MOL0     C92658   0.455   0.088   6.634  0.0403 -0.0735 -0.9186
  672MOL0     C92659   0.446   0.058   6.783  1.1678 -0.9358 -0.2332
  672MOL0     C92660   0.492  -0.084   6.819 -0.5335  0.7037 -0.3614
  672MOL0     C92661   0.476  -0.103   6.970 -0.6014 -0.5851  0.1427
  672MOL0     C92662   0.575  -0.016   7.038 -1.0239 -0.2293 -0.4094
  672MOL0     C92663   0.654   0.050   7.114  0.0425 -0.7470 -0.0931
  672MOL0     C92664   0.731   0.212   6.449 -0.3294 -0.4617  0.0060
  672MOL0     C92665   0.776   0.241   6.314 -0.4455  0.6076  0.4595
  672MOL0     C92666   0.902   0.318   6.291  0.1610 -0.2508 -0.0667
  672MOL0     H92667   0.906   0.474   5.886  2.0293  2.1241 -3.5452
  672MOL0     H92668   0.924   0.494   5.642 -3.1093 -1.1570 -1.3503
  672MOL0     H92669   0.962   0.501   5.448  3.5698  1.9011  1.2301
  672MOL0     H92670   0.968   0.399   5.298  0.0053  2.2588 -0.4826
  672MOL0     H92671   1.228   0.467   5.450  1.7684 -2.1875 -0.5175
  672MOL0     H92672   1.201   0.326   5.352  2.2198  1.4459 -2.1544
  672MOL0     H92673   1.110   0.466   5.163  2.5214  0.2913 -2.4954
  672MOL0     H92674   1.123   0.608   5.260 -1.7925 -0.4621  0.0885
  672MOL0     H92675   1.391   0.548   5.262 -0.5852  0.2755  0.7212
  672MOL0     H92676   1.341   0.431   5.142 -1.3956 -1.4922  3.1645
  672MOL0     H92677   1.432   0.678   5.096  0.8996 -2.5503 -0.7405
  672MOL0     H92678   1.263   0.728   5.117  0.2025  0.0727 -1.1991
  672MOL0     H92679   1.376   0.524   4.927 -2.0807 -3.0173  2.4655
  672MOL0     H92680   1.206   0.556   4.944  1.1242 -3.4951  1.4459
  672MOL0     H92681   1.410   0.783   4.885  0.5862 -0.1764  0.6823
  672MOL0     H92682   1.238   0.799   4.902  0.5819  0.4852 -1.3325
  672MOL0     H92683   1.363   0.618   4.689 -2.5537 -2.6578 -0.2122
  672MOL0     H92684   1.194   0.663   4.691 -1.4117  2.2222  2.8721
  672MOL0     H92685   1.143   0.911   4.609  0.2184 -1.7786  0.8727
  672MOL0     H92686   1.322   1.218   4.578  0.6188 -1.7580  0.9257
  672MOL0     H92687   1.179   1.146   4.487  1.3178 -0.8454 -4.3858
  672MOL0     H92688   1.468   1.170   4.394  0.4061 -0.0002 -1.0362
  672MOL0     H92689   1.322   1.140   4.293 -2.1990  1.1707  0.8095
  672MOL0     H92690   1.245   1.361   4.327 -0.3305  0.5749 -0.0961
  672MOL0     H92691   1.351   1.406   4.451 -0.4073  0.8541 -1.1346
  672MOL0     H92692   1.446   1.513   4.283  0.9939  0.6730 -1.0257
  672MOL0     H92693   1.556   1.373   4.283  0.0020 -0.3960 -0.7981
  672MOL0     H92694   1.384   1.200   3.930 -1.6732  1.8455  1.8549
  672MOL0     H92695   1.540   1.101   3.657  2.9475 -0.4457 -0.6238
  672MOL0     H92696   1.474   1.045   3.812 -0.7748  1.4395 -0.7807
  672MOL0     H92697   1.642   1.029   3.787 -1.3378 -1.0536  0.6365
  672MOL0     H92698   2.072   1.458   3.597 -1.0292 -1.2562 -0.4801
  672MOL0     H92699   2.257   1.393   3.472  1.9831 -0.4285  0.3364
  672MOL0     H92700   2.475   1.326   3.420 -0.0353 -0.8641  0.2180
  672MOL0     H92701   2.538   1.313   3.592 -0.8231 -0.1787  1.3267
  672MOL0     H92702   2.660   1.105   3.494  2.4406 -1.3652 -3.3396
  672MOL0     H92703   2.606   1.151   3.338  0.6963 -1.1036 -0.1500
  672MOL0     H92704   2.770   1.321   3.531 -2.5094  0.7298  1.2163
  672MOL0     H92705   2.725   1.395   3.376 -0.0620 -0.2448 -1.1865
  672MOL0     H92706   2.845   1.211   3.256 -2.8664 -0.4899  1.0624
  672MOL0     H92707   2.896   1.135   3.396 -0.7708  0.3739 -1.2407
  672MOL0     H92708   2.977   1.422   3.310  1.8501 -0.7905 -0.3362
  672MOL0     H92709   3.032   1.343   3.462 -2.4191  3.8777  0.2250
  672MOL0     H92710   3.067   1.220   3.185 -1.8254 -0.1415  0.8266
  672MOL0     H92711   3.136   1.167   3.333  0.1037 -0.8452 -1.3063
  672MOL0     H92712   3.275   1.416   3.323  1.1570  0.5367 -1.4421
  672MOL0     H92713   3.227   1.389   3.153 -1.4551 -1.8155 -1.2482
  672MOL0     H92714   3.311   1.153   3.197 -0.1537  0.0933 -3.2413
  672MOL0     H92715   3.429   1.235   3.308  1.1526 -0.2997 -1.9348
  672MOL0     H92716   2.271   1.021   3.679 -2.3535 -0.8197 -0.4319
  672MOL0     H92717   2.053   1.087   3.795 -2.5663  0.6137 -3.3941
  672MOL0     H92718   1.807   1.450   3.947  0.4967 -1.7405 -1.8679
  672MOL0     H92719   1.642   1.502   4.101  1.7023 -0.2069  0.2148
  672MOL0     H92720   0.996   0.069   5.603 -2.4481 -1.9346  1.3805
  672MOL0     H92721   0.945   0.046   5.841 -1.0279 -1.5269 -3.0432
  672MOL0     H92722   0.491   0.139   6.148 -1.4193 -1.9211  1.4137
  672MOL0     H92723   0.432   0.088   6.381 -0.5886  0.1480 -0.9861
  672MOL0     H92724   0.400   0.179   6.608  0.4161  0.9049  1.4526
  672MOL0     H92725   0.391   0.013   6.588  2.0820 -2.4871 -0.0925
  672MOL0     H92726   0.340   0.066   6.808  1.0995 -0.2494 -0.7058
  672MOL0     H92727   0.507   0.131   6.837 -0.6572  1.2001 -0.8737
  672MOL0     H92728   0.427  -0.156   6.769  0.1192  0.5755 -1.0289
  672MOL0     H92729   0.594  -0.104   6.787 -0.6864 -2.2910  0.7155
  672MOL0     H92730   0.477  -0.211   6.987 -1.3997 -0.8068 -1.0173
  672MOL0     H92731   0.375  -0.071   6.998 -0.2167 -0.3121  1.2592
  672MOL0     H92732   0.742   0.083   7.166 -0.5151  0.4764  0.1225
  672MOL0     H92733   0.791   0.233   6.537 -1.1882 -1.1541  0.7858
  672MOL0     H92734   0.945   0.356   6.384 -1.6273 -0.3526  0.8319
  672MOL0     H92735   0.973   0.252   6.239  2.3403  1.3672  0.6808
  672MOL0     H92736   0.889   0.405   6.226  2.6068 -0.6070 -1.1668
  673MOL0     O92737   3.896  10.737   4.418  0.0790  0.4428 -0.2581
  673MOL0     C92738   3.890  10.845   4.471 -0.0186  0.9987 -0.3755
  673MOL0     O92739   3.988  10.939   4.472 -0.6934  0.3285  1.0974
  673MOL0     C92740   4.108  10.896   4.406  0.0982  0.7671 -0.0876
  673MOL0     C92741   4.203  10.825   4.487 -0.0881  0.1420  0.2364
  673MOL0     C92742   4.323  10.788   4.427  0.2844  0.8525  0.1420
  673MOL0     C92743   4.353  10.827   4.293 -0.6461  0.5418 -0.1426
  673MOL0     O92744   4.470  10.775   4.245 -0.2899 -0.2553 -0.0013
  673MOL0     C92745   4.551  10.873   4.174  1.0977  0.3290 -0.4027
  673MOL0     C92746   4.675  10.812   4.112  0.5495  0.6606 -0.3940
  673MOL0     C92747   4.757  10.905   4.029 -1.0841 -0.6726  0.1063
  673MOL0     C92748   4.876  10.815   3.984 -0.2128  0.4487  0.4222
  673MOL0     C92749   4.959  10.875   3.863 -0.8516  0.4848  0.0380
  673MOL0     C92750   5.080  10.788   3.833  0.3099  1.5805 -0.6171
  673MOL0     C92751   5.172  10.850   3.725  0.1759 -0.0804  0.6153
  673MOL0     C92752   5.248  10.737   3.655  0.3435 -0.4098  0.8036
  673MOL0     N92753   5.352  10.792   3.562 -0.7144  0.1145 -0.8334
  673MOL0     C92754   5.481  10.732   3.553 -1.1790 -0.1992  0.5155
  673MOL0     C92755   5.548  10.807   3.462  0.1463  0.3889 -0.9469
  673MOL0     C92756   5.685  10.775   3.416 -0.3675  0.2765 -0.0074
  673MOL0     C92757   5.778  10.797   3.535 -0.6531  0.8797  0.1850
  673MOL0     C92758   5.850  10.675   3.592 -0.5756  0.1974  0.4278
  673MOL0     C92759   5.945  10.717   3.706 -0.0784 -0.7195 -0.8849
  673MOL0     O92760   6.044  10.797   3.639 -0.4228  0.4221 -0.1548
  673MOL0     C92761   6.126  10.883   3.707  1.0455  0.1907 -0.5487
  673MOL0     C92762   6.182  10.838   3.828 -0.1857  0.7677 -0.8306
  673MOL0     C92763   6.297  10.890   3.883 -0.0959  0.2917 -0.7926
  673MOL0     C92764   6.358  10.826   4.014 -0.5878 -0.6313 -0.9377
  673MOL0     C92765   6.355  11.010   3.826 -0.6775 -0.0714  0.5431
  673MOL0     C92766   6.490  11.063   3.860  0.6740 -0.4057  0.4786
  673MOL0     O92767   6.536  11.172   3.792 -0.1341 -0.0900 -0.2011
  673MOL0     C92768   6.645  11.247   3.824  0.2189  0.2970  0.5567
  673MOL0     C92769   6.677  11.353   3.732  0.0720 -0.7679  0.5715
  673MOL0     C92770   6.784  11.440   3.769 -0.8174 -0.3368 -0.6795
  673MOL0     C92771   6.869  11.430   3.880  0.5936 -0.2938 -0.2956
  673MOL0     O92772   6.971  11.511   3.915  0.1060  0.0086 -0.0972
  673MOL0     C92773   7.037  11.580   3.801  0.9524  0.0640 -0.9015
  673MOL0     C92774   7.154  11.672   3.846  0.3590  0.4832  0.3775
  673MOL0     C92775   7.221  11.740   3.728 -0.1563 -0.7657 -0.4058
  673MOL0     C92776   7.291  11.873   3.758  0.2373  0.3252 -0.0402
  673MOL0     C92777   7.392  11.860   3.879 -0.4430  0.7511  1.5056
  673MOL0     C92778   7.484  11.982   3.907 -0.5330  0.3254 -0.4375
  673MOL0     C92779   7.557  11.979   4.042  0.9609 -0.0570 -0.5707
  673MOL0     C92780   7.658  12.080   4.078 -0.7969  0.7458  0.3567
  673MOL0    Cl92781   7.593  12.247   4.068  0.2123  0.6195 -0.1717
  673MOL0     C92782   6.837  11.317   3.962 -0.1921 -0.0611 -0.0771
  673MOL0     C92783   6.737  11.224   3.938  0.1613 -0.5831  0.1041
  673MOL0     O92784   6.550  11.012   3.948 -0.5127  0.0879 -0.4915
  673MOL0     C92785   6.288  11.065   3.715 -0.4078  0.2021  0.7034
  673MOL0     C92786   6.176  11.003   3.658 -0.6146  0.0910  0.1972
  673MOL0     N92787   5.462  10.910   3.417 -0.3147 -0.1493 -0.5659
  673MOL0     N92788   5.345  10.900   3.486 -0.1691 -0.0288  0.1000
  673MOL0     C92789   4.265  10.908   4.227 -0.1044  0.4391 -0.1669
  673MOL0     C92790   4.148  10.949   4.279 -0.2882  0.2240  0.0816
  673MOL0     C92791   3.754  10.885   4.522  0.6836  0.6702  0.4085
  673MOL0     C92792   3.644  10.844   4.448 -0.1636 -0.1182 -0.1018
  673MOL0     C92793   3.516  10.861   4.491 -0.0083 -0.0951 -1.1355
  673MOL0     C92794   3.493  10.952   4.596  0.0364 -0.0780 -0.2489
  673MOL0     O92795   3.359  10.977   4.622  0.3723 -0.6270 -0.4064
  673MOL0     C92796   3.334  11.067   4.729  0.7128 -0.7983 -0.8279
  673MOL0     C92797   3.186  11.115   4.737 -0.3388  0.7896  0.4804
  673MOL0     C92798   3.145  11.177   4.605  0.7069 -0.4738  0.9470
  673MOL0     C92799   2.998  11.210   4.604 -0.0198  0.2660  0.2840
  673MOL0     C92800   2.921  11.078   4.581  1.0829 -0.3652 -0.2449
  673MOL0     C92801   2.851  10.984   4.561 -0.1973 -0.3689 -0.0435
  673MOL0     C92802   3.609  11.015   4.659 -0.4107  0.0565 -0.7893
  673MOL0     C92803   3.733  10.963   4.635 -0.2497  0.2713 -0.4884
  673MOL0     C92804   3.851  11.003   4.722  0.2415  0.3556  0.2646
  673MOL0     H92805   4.178  10.803   4.590 -1.9735  1.5077  0.1089
  673MOL0     H92806   4.387  10.718   4.480 -0.3805  0.1662  0.0565
  673MOL0     H92807   4.589  10.944   4.248  1.2152 -1.0066  0.8784
  673MOL0     H92808   4.491  10.921   4.096 -2.5011  2.9036  3.4661
  673MOL0     H92809   4.735  10.768   4.193 -2.7681 -1.1321  1.3167
  673MOL0     H92810   4.647  10.724   4.053 -3.2810 -0.1094  2.2003
  673MOL0     H92811   4.698  10.935   3.942  0.2961  2.6057  0.1591
  673MOL0     H92812   4.792  10.993   4.084  0.8169  0.7167 -3.0246
  673MOL0     H92813   4.943  10.797   4.069  1.9150 -1.4095 -1.4950
  673MOL0     H92814   4.847  10.711   3.963  0.7293 -0.1577  1.9412
  673MOL0     H92815   4.983  10.980   3.881  2.3617 -0.3075  1.1644
  673MOL0     H92816   4.883  10.872   3.784 -1.6725  1.4806  0.7663
  673MOL0     H92817   5.136  10.769   3.925 -0.0844 -0.2834 -0.7248
  673MOL0     H92818   5.049  10.686   3.810  1.0307  1.0368  0.7050
  673MOL0     H92819   5.236  10.928   3.767 -0.4866  0.8170 -0.0199
  673MOL0     H92820   5.116  10.893   3.642  1.0422 -1.1626 -0.5667
  673MOL0     H92821   5.283  10.656   3.720  0.6423 -1.3879 -0.5479
  673MOL0     H92822   5.189  10.675   3.587 -0.2337  2.4550 -1.5038
  673MOL0     H92823   5.507  10.644   3.612  0.2372  1.3245  2.2571
  673MOL0     H92824   5.716  10.839   3.333  0.4602 -0.5962 -0.3977
  673MOL0     H92825   5.706  10.683   3.360  1.4088  1.4529 -1.4208
  673MOL0     H92826   5.859  10.860   3.497  1.6390 -1.3754  1.0486
  673MOL0     H92827   5.729  10.843   3.621 -1.6487  1.2310 -0.5474
  673MOL0     H92828   5.768  10.622   3.643  0.6961 -0.0200  2.3523
  673MOL0     H92829   5.908  10.627   3.513  1.2586  2.7647  0.0810
  673MOL0     H92830   5.890  10.771   3.784  1.1835 -0.7663  0.0723
  673MOL0     H92831   5.985  10.630   3.759 -4.0602 -2.2622 -0.0068
  673MOL0     H92832   6.137  10.753   3.878 -1.7634  1.1610 -1.4962
  673MOL0     H92833   6.448  10.768   3.993  0.8493  0.4638  1.7663
  673MOL0     H92834   6.284  10.767   4.069 -0.1233  2.1151  3.0803
  673MOL0     H92835   6.382  10.902   4.089  0.4188 -2.5184  0.7361
  673MOL0     H92836   6.627  11.374   3.638 -0.4159  1.2738  1.2385
  673MOL0     H92837   6.795  11.523   3.700 -2.0257 -0.3005 -0.8459
  673MOL0     H92838   7.063  11.501   3.730  0.4560 -1.6511  0.7533
  673MOL0     H92839   6.961  11.647   3.760  0.3759  0.5573  0.8665
  673MOL0     H92840   7.113  11.741   3.920 -0.4573  0.2493  0.1527
  673MOL0     H92841   7.219  11.618   3.915 -1.7790  2.1989  4.0341
  673MOL0     H92842   7.148  11.755   3.647 -1.2149  0.2136  0.6887
  673MOL0     H92843   7.297  11.678   3.680  0.6478 -0.5151  0.5085
  673MOL0     H92844   7.213  11.947   3.778 -2.3253 -1.3708 -2.9247
  673MOL0     H92845   7.335  11.895   3.661 -1.2505 -3.0089 -1.6323
  673MOL0     H92846   7.332  11.842   3.968 -1.1576 -1.4695  0.6338
  673MOL0     H92847   7.454  11.773   3.856 -0.2147  1.8873 -3.4853
  673MOL0     H92848   7.419  12.069   3.900 -1.9052 -0.7362 -1.5365
  673MOL0     H92849   7.560  11.979   3.828  1.1085  0.1115  1.0864
  673MOL0     H92850   7.607  11.882   4.054 -2.1701 -1.6577  1.1342
  673MOL0     H92851   7.486  11.987   4.125  1.8554 -2.5219  0.5375
  673MOL0     H92852   7.745  12.068   4.013 -1.2102 -2.2441  0.1859
  673MOL0     H92853   7.698  12.057   4.177  1.7685 -0.1967 -0.8022
  673MOL0     H92854   6.892  11.304   4.055 -0.8779  1.9930  0.6817
  673MOL0     H92855   6.726  11.142   4.008  1.2252  0.6837  1.8367
  673MOL0     H92856   6.317  11.158   3.668  3.1355 -0.5278  1.1864
  673MOL0     H92857   6.135  11.035   3.563  2.9184 -3.0229 -2.6583
  673MOL0     H92858   4.286  10.930   4.123  1.3883  1.5916  0.3535
  673MOL0     H92859   4.080  11.016   4.229  0.6659  0.3567 -1.0623
  673MOL0     H92860   3.651  10.792   4.353  0.8062  0.4286 -0.3446
  673MOL0     H92861   3.432  10.813   4.441 -0.0936 -1.0326 -0.1368
  673MOL0     H92862   3.368  11.022   4.823 -0.6638 -1.4734 -0.6204
  673MOL0     H92863   3.398  11.154   4.713  1.6819 -1.2929  0.2089
  673MOL0     H92864   3.177  11.188   4.817  3.3318 -0.2470  2.0759
  673MOL0     H92865   3.125  11.027   4.761  0.0653 -1.1267 -4.2840
  673MOL0     H92866   3.206  11.266   4.589 -0.4820  0.0045 -1.2831
  673MOL0     H92867   3.178  11.110   4.525 -1.8738 -4.5242  2.9191
  673MOL0     H92868   2.969  11.286   4.530 -2.6543 -0.7279  0.1698
  673MOL0     H92869   2.967  11.253   4.700 -1.6734  0.1703 -0.1628
  673MOL0     H92870   2.802  10.893   4.534  2.7113 -1.7798 -1.0415
  673MOL0     H92871   3.592  11.085   4.740  2.6833 -0.5642  0.5237
  673MOL0     H92872   3.896  11.095   4.683  3.2478 -1.2491 -0.3698
  673MOL0     H92873   3.835  11.013   4.829  2.2831 -0.5050  0.7001
  673MOL0     H92874   3.922  10.923   4.701 -1.2584 -1.2503  1.0594
  674MOL0     O92875   5.575   0.532  10.206 -1.1478 -0.0128  1.2834
  674MOL0     C92876   5.511   0.627  10.246 -0.1943 -0.4075 -0.7976
  674MOL0     O92877   5.559   0.716  10.342 -0.8750  0.2356 -0.0773
  674MOL0     C92878   5.671   0.684  10.419 -0.5725 -0.5993 -0.6318
  674MOL0     C92879   5.801   0.721  10.378 -0.4103  0.8126  1.0849
  674MOL0     C92880   5.915   0.685  10.447  0.2149  0.8663 -0.2245
  674MOL0     C92881   5.906   0.603  10.558  0.0732 -0.7409  0.5741
  674MOL0     O92882   6.027   0.568  10.614  0.4605 -0.4964  0.0018
  674MOL0     C92883   6.031   0.470  10.722 -0.0576 -0.2199  0.7706
  674MOL0     C92884   6.177   0.437  10.735  0.5966 -0.1657 -0.4694
  674MOL0     C92885   6.223   0.393  10.872  1.2185  0.1678 -0.4207
  674MOL0     C92886   6.167   0.262  10.925 -0.0786  0.3411  0.2366
  674MOL0     C92887   6.113   0.275  11.070  0.2918  0.3061  0.2596
  674MOL0     C92888   6.225   0.316  11.171 -0.1832  0.0903  0.4519
  674MOL0     C92889   6.165   0.329  11.313  0.5596  0.7219  0.2585
  674MOL0     C92890   6.260   0.387  11.409  0.2982 -0.3743  0.2713
  674MOL0     N92891   6.211   0.424  11.541  0.8561  0.7023  0.1920
  674MOL0     C92892   6.147   0.537  11.575 -0.4602  1.0487  0.6705
  674MOL0     C92893   6.132   0.529  11.706  0.0910 -0.2125 -0.3642
  674MOL0     C92894   6.076   0.642  11.796  0.3064  0.8285 -0.4734
  674MOL0     C92895   6.107   0.779  11.746  0.1745  0.0735  0.5072
  674MOL0     C92896   6.073   0.884  11.857 -0.7059  0.0964 -0.1149
  674MOL0     C92897   6.043   1.022  11.796  0.4047 -0.6318 -1.1159
  674MOL0     O92898   6.145   1.065  11.701  0.5551 -0.6386  0.2405
  674MOL0     C92899   6.269   1.111  11.728  0.4480  0.4381 -1.3207
  674MOL0     C92900   6.365   1.124  11.624  0.5623 -0.5243 -0.5879
  674MOL0     C92901   6.481   1.197  11.651  1.1320 -0.4988  0.2958
  674MOL0     C92902   6.587   1.211  11.534 -0.8396  0.4455 -0.7738
  674MOL0     C92903   6.513   1.254  11.778  0.2507 -0.0003  0.7257
  674MOL0     C92904   6.628   1.331  11.809 -0.6631  0.4342  0.5092
  674MOL0     O92905   6.631   1.460  11.763  0.0264  0.4074 -0.1705
  674MOL0     C92906   6.737   1.541  11.786  0.8037  0.1390 -0.1991
  674MOL0     C92907   6.716   1.665  11.844  0.5020 -0.5239  0.5159
  674MOL0     C92908   6.829   1.736  11.874  0.2687 -0.9118 -0.1712
  674MOL0     C92909   6.961   1.703  11.833  0.5730 -1.2434  0.2513
  674MOL0     O92910   7.050   1.800  11.872  0.4010 -0.1947 -0.2677
  674MOL0     C92911   7.190   1.782  11.846  0.6257  0.1971 -0.1876
  674MOL0     C92912   7.235   1.802  11.698  0.6134  0.6974 -0.1464
  674MOL0     C92913   7.382   1.783  11.669  0.4450 -0.2923  0.5599
  674MOL0     C92914   7.432   1.860  11.547  0.0983 -1.0505 -0.5093
  674MOL0     C92915   7.578   1.858  11.530  0.2136 -1.9567 -0.3854
  674MOL0     C92916   7.610   1.963  11.418 -0.3131 -0.1195 -0.2864
  674MOL0     C92917   7.761   1.977  11.390  0.1003  0.0891 -0.5218
  674MOL0     C92918   7.785   2.014  11.245  0.0274  0.3077  0.0989
  674MOL0    Cl92919   7.969   1.996  11.217  0.2994  0.2556 -0.2617
  674MOL0     C92920   6.985   1.582  11.777  1.1640  0.1887 -0.6086
  674MOL0     C92921   6.871   1.498  11.760 -0.3537  0.4290 -0.3755
  674MOL0     O92922   6.720   1.270  11.865  0.0828 -0.4154 -0.1117
  674MOL0     C92923   6.411   1.245  11.875  0.4655 -0.0337  0.0954
  674MOL0     C92924   6.293   1.176  11.848  0.1413 -0.7713  0.2967
  674MOL0     N92925   6.166   0.403  11.754  0.5762  0.0261 -0.2358
  674MOL0     N92926   6.219   0.345  11.648  0.1028  0.2544 -0.6142
  674MOL0     C92927   5.775   0.572  10.599  0.6170 -0.3968  0.6626
  674MOL0     C92928   5.657   0.607  10.531  0.4163  0.0814  0.1679
  674MOL0     C92929   5.370   0.640  10.219 -0.7848 -0.1117 -0.2389
  674MOL0     C92930   5.299   0.736  10.280 -0.3617 -0.0030  0.2926
  674MOL0     C92931   5.157   0.748  10.282  0.0684  0.1864  0.0358
  674MOL0     C92932   5.075   0.663  10.213 -0.3931  0.4754  0.0555
  674MOL0     O92933   4.935   0.669  10.217 -1.0706  0.3000  0.1116
  674MOL0     C92934   4.879   0.788  10.142  0.2391  0.0575 -0.6861
  674MOL0     C92935   4.727   0.774  10.102 -0.4786 -0.2682 -0.3067
  674MOL0     C92936   4.638   0.722  10.216 -0.5784 -0.1046 -0.1123
  674MOL0     C92937   4.496   0.746  10.176  0.2191 -1.2982 -0.4821
  674MOL0     C92938   4.440   0.683  10.053  0.5374 -0.8249  1.2338
  674MOL0     C92939   4.388   0.660   9.942  0.3588 -0.8442 -0.5546
  674MOL0     C92940   5.151   0.577  10.127  0.3491  0.7291  0.0874
  674MOL0     C92941   5.289   0.559  10.128  0.1638  0.0437 -0.4935
  674MOL0     C92942   5.354   0.451  10.040 -0.2599 -0.3151  0.9772
  674MOL0     H92943   5.808   0.780  10.287  0.8246 -0.7615  0.0913
  674MOL0     H92944   6.010   0.719  10.407  0.7919  0.8027  1.0291
  674MOL0     H92945   5.976   0.377  10.704 -1.3309  0.8813 -1.5095
  674MOL0     H92946   5.988   0.523  10.807 -0.0283 -0.4486  0.9300
  674MOL0     H92947   6.199   0.351  10.671  1.6967  0.1439 -0.5287
  674MOL0     H92948   6.241   0.520  10.702  1.5660  0.3563  2.4755
  674MOL0     H92949   6.330   0.374  10.865  1.0281 -0.5916 -1.4539
  674MOL0     H92950   6.199   0.470  10.947  2.0342  0.2687 -0.2565
  674MOL0     H92951   6.090   0.226  10.857  0.6631  0.5688 -0.7380
  674MOL0     H92952   6.244   0.185  10.929 -1.5939 -1.2716 -0.0903
  674MOL0     H92953   6.074   0.179  11.105 -0.1233  1.8777  4.7488
  674MOL0     H92954   6.033   0.349  11.074  3.2176  3.7588  3.6714
  674MOL0     H92955   6.292   0.230  11.171 -0.9911 -0.5743  1.8858
  674MOL0     H92956   6.273   0.410  11.141 -0.2233 -0.4047 -1.2938
  674MOL0     H92957   6.114   0.235  11.337 -0.4007  1.3051  0.5639
  674MOL0     H92958   6.076   0.391  11.313 -1.3771 -1.8827  1.3147
  674MOL0     H92959   6.337   0.310  11.423 -1.7327 -3.1340 -2.3338
  674MOL0     H92960   6.298   0.475  11.358  1.7074 -1.6785 -1.0199
  674MOL0     H92961   6.121   0.609  11.498 -1.4285 -0.6439 -0.6766
  674MOL0     H92962   6.120   0.620  11.893 -0.9620  2.3359  0.5008
  674MOL0     H92963   5.968   0.625  11.801  0.5295 -0.7126 -0.3713
  674MOL0     H92964   6.214   0.790  11.726  0.2516  1.0581  1.3511
  674MOL0     H92965   6.050   0.798  11.654  0.1252  1.7126  0.8409
  674MOL0     H92966   5.991   0.850  11.920  0.7441  2.3566  3.2910
  674MOL0     H92967   6.150   0.894  11.934 -0.1571 -1.1186 -0.4760
  674MOL0     H92968   5.952   1.019  11.737  1.6158 -0.7390 -3.0633
  674MOL0     H92969   6.020   1.096  11.874  0.7033 -2.2854  0.6347
  674MOL0     H92970   6.338   1.076  11.531 -3.0465 -0.5573  0.2998
  674MOL0     H92971   6.684   1.246  11.571 -0.4898  1.1751 -2.2672
  674MOL0     H92972   6.551   1.280  11.456  1.5284  3.3782  0.5040
  674MOL0     H92973   6.590   1.109  11.494 -2.3933 -0.4505  1.2269
  674MOL0     H92974   6.617   1.709  11.846  1.0567  0.7626  0.2847
  674MOL0     H92975   6.824   1.836  11.916  3.5911 -0.5537 -0.4357
  674MOL0     H92976   7.250   1.858  11.897  1.5400 -0.6088 -0.0256
  674MOL0     H92977   7.224   1.679  11.861  0.5381 -0.3170 -3.0155
  674MOL0     H92978   7.180   1.742  11.624  0.6340 -0.6236  0.8584
  674MOL0     H92979   7.204   1.906  11.683 -0.0298  0.4215 -0.8540
  674MOL0     H92980   7.403   1.677  11.658  0.0755 -0.3596  0.4923
  674MOL0     H92981   7.440   1.815  11.756 -0.0042  1.7124  0.1785
  674MOL0     H92982   7.406   1.965  11.566 -2.1081 -2.0802  3.0490
  674MOL0     H92983   7.382   1.831  11.454 -1.4376 -0.9763  0.2534
  674MOL0     H92984   7.617   1.894  11.626 -1.6716  2.0481 -0.8887
  674MOL0     H92985   7.611   1.758  11.503 -2.3884 -3.2037  0.7254
  674MOL0     H92986   7.575   2.061  11.451 -0.5962 -0.4573  0.4318
  674MOL0     H92987   7.555   1.928  11.331 -0.8195 -0.2948  0.1044
  674MOL0     H92988   7.806   1.880  11.412 -1.4762 -0.1760  1.8468
  674MOL0     H92989   7.801   2.044  11.467  1.1960 -2.0132  0.8264
  674MOL0     H92990   7.747   2.115  11.230  2.0851  1.0513 -0.3999
  674MOL0     H92991   7.748   1.949  11.165 -0.6014 -1.2977  1.6261
  674MOL0     H92992   7.084   1.541  11.761  1.1986 -1.6567  3.2582
  674MOL0     H92993   6.887   1.396  11.728  0.1708  0.2345  0.4985
  674MOL0     H92994   6.413   1.293  11.972 -0.5945  1.9772 -0.8194
  674MOL0     H92995   6.227   1.176  11.934  1.1220  1.7720  1.1328
  674MOL0     H92996   5.762   0.504  10.683 -1.4491 -0.5801  0.2346
  674MOL0     H92997   5.557   0.576  10.560 -0.1580  1.1624 -0.5900
  674MOL0     H92998   5.353   0.821  10.320  0.4640 -0.8595  1.0451
  674MOL0     H92999   5.113   0.818  10.352 -0.6769  0.5547 -0.7771
  674MOL0     H93000   4.900   0.877  10.202  1.0887  1.7964 -3.4176
  674MOL0     H93001   4.940   0.802  10.052  1.3937 -1.7107 -0.2471
  674MOL0     H93002   4.713   0.722  10.007  1.2585  1.7347 -1.7642
  674MOL0     H93003   4.693   0.876  10.081 -0.4056 -0.1491  0.1399
  674MOL0     H93004   4.660   0.621  10.252  0.0336 -0.1740 -0.6576
  674MOL0     H93005   4.664   0.794  10.295  3.7042  1.5403 -2.6446
  674MOL0     H93006   4.490   0.855  10.169 -0.1519 -1.0944  2.1248
  674MOL0     H93007   4.425   0.719  10.255 -1.3755  0.8730 -1.0684
  674MOL0     H93008   4.350   0.651   9.842  1.1276 -1.5973 -0.7921
  674MOL0     H93009   5.095   0.502  10.072 -0.7543  0.5744  1.3599
  674MOL0     H93010   5.392   0.360  10.087 -1.3669 -1.7268 -0.7159
  674MOL0     H93011   5.289   0.424   9.956  1.6688 -0.4721 -0.5406
  674MOL0     H93012   5.432   0.493   9.975  2.7307 -4.7461  1.3107
  675MOL0     O93013   8.921   6.181   7.419 -0.0804  0.1055 -0.4403
  675MOL0     C93014   8.837   6.091   7.400  0.7579  0.4796  0.0317
  675MOL0     O93015   8.842   5.969   7.451  0.4640 -0.3356 -0.0972
  675MOL0     C93016   8.939   5.952   7.546 -0.0730 -0.0343  0.6472
  675MOL0     C93017   8.905   5.933   7.679  0.1264 -0.4315 -0.1067
  675MOL0     C93018   9.003   5.902   7.778  0.6573 -0.2565 -0.1559
  675MOL0     C93019   9.132   5.861   7.740 -0.3845 -0.2096 -0.0151
  675MOL0     O93020   9.215   5.807   7.830 -0.4856  0.1612  0.0122
  675MOL0     C93021   9.310   5.704   7.785 -0.5650  0.0815 -0.6120
  675MOL0     C93022   9.373   5.641   7.903  0.2767 -0.1414  0.0274
  675MOL0     C93023   9.385   5.484   7.894  0.2040  0.5656 -0.2814
  675MOL0     C93024   9.423   5.431   7.752 -0.8074 -0.3921 -0.5771
  675MOL0     C93025   9.479   5.284   7.756 -0.3074 -0.3118  0.0826
  675MOL0     C93026   9.372   5.182   7.779  0.0773 -1.1154  0.3717
  675MOL0     C93027   9.427   5.047   7.815  0.5166 -0.0145  0.1937
  675MOL0     C93028   9.500   4.989   7.690  0.0154 -0.4884 -0.3363
  675MOL0     N93029   9.526   4.851   7.724  1.0418 -0.6031 -0.8598
  675MOL0     C93030   9.439   4.739   7.730 -0.1605 -0.8937  0.0557
  675MOL0     C93031   9.498   4.643   7.801 -1.1473 -0.4919 -0.3444
  675MOL0     C93032   9.438   4.515   7.848  0.9547  0.0416 -0.2021
  675MOL0     C93033   9.439   4.416   7.729  0.3569  0.6103 -0.7588
  675MOL0     C93034   9.565   4.337   7.700 -0.6984  0.5448 -1.0388
  675MOL0     C93035   9.615   4.236   7.799  0.8497 -0.1194 -1.0164
  675MOL0     O93036   9.751   4.191   7.787  0.1193  1.0398  0.2804
  675MOL0     C93037   9.786   4.110   7.901  0.4551 -0.4493 -0.3210
  675MOL0     C93038   9.740   3.979   7.906 -0.2182 -0.0415 -0.5537
  675MOL0     C93039   9.781   3.886   7.996 -0.0006  0.0397 -0.6862
  675MOL0     C93040   9.727   3.747   7.973  0.9465  0.4591  0.6038
  675MOL0     C93041   9.860   3.934   8.100 -0.1661  0.6383 -0.0784
  675MOL0     C93042   9.909   3.852   8.211  0.0450 -0.5904 -0.5301
  675MOL0     O93043   9.993   3.913   8.300  0.5386 -0.4437 -0.1890
  675MOL0     C93044  10.044   3.846   8.414 -0.2400  0.7669  0.3705
  675MOL0     C93045  10.019   3.885   8.546  0.6436 -1.0497 -0.2711
  675MOL0     C93046  10.083   3.832   8.648  0.4757 -0.5723 -0.4351
  675MOL0     C93047  10.184   3.734   8.626  0.1721  0.2443  0.3653
  675MOL0     O93048  10.236   3.670   8.737 -0.1240  0.1917  0.6564
  675MOL0     C93049  10.375   3.699   8.758  0.5201 -0.6225  0.6166
  675MOL0     C93050  10.414   3.604   8.866 -0.5822 -0.1701 -0.0353
  675MOL0     C93051  10.462   3.467   8.807 -0.7014 -0.1017  0.1151
  675MOL0     C93052  10.502   3.372   8.920 -0.1229 -0.1727 -0.6158
  675MOL0     C93053  10.567   3.248   8.862 -0.2327  0.2773 -0.4173
  675MOL0     C93054  10.687   3.272   8.772 -0.4805  0.1293  0.1151
  675MOL0     C93055  10.648   3.223   8.634  0.4336 -0.4455 -0.0022
  675MOL0     C93056  10.742   3.257   8.517 -0.6137  0.0723 -0.1181
  675MOL0    Cl93057  10.758   3.432   8.463  0.1872 -0.0094  0.4447
  675MOL0     C93058  10.213   3.695   8.493  0.5647  0.2985 -0.7109
  675MOL0     C93059  10.148   3.752   8.389 -0.4055  0.3959  0.3323
  675MOL0     O93060   9.885   3.736   8.219  0.0417  0.1787 -0.9661
  675MOL0     C93061   9.915   4.063   8.094 -0.2454 -0.9002 -0.3486
  675MOL0     C93062   9.880   4.143   7.991  0.4680 -0.9424 -1.1759
  675MOL0     N93063   9.628   4.683   7.812  0.0037  0.4233 -0.3978
  675MOL0     N93064   9.637   4.804   7.779 -0.2955  0.1729  0.0740
  675MOL0     C93065   9.169   5.887   7.608 -1.0691  0.2746 -0.6738
  675MOL0     C93066   9.074   5.940   7.517  0.0460 -0.5457 -0.2580
  675MOL0     C93067   8.716   6.128   7.322  1.3391 -0.2908  0.3068
  675MOL0     C93068   8.598   6.062   7.354 -0.8642 -0.2450 -0.8295
  675MOL0     C93069   8.481   6.072   7.283 -0.8942 -0.4511 -1.6226
  675MOL0     C93070   8.482   6.150   7.172  0.1583  0.2718  0.2078
  675MOL0     O93071   8.358   6.150   7.109  0.1096 -0.3652 -0.3813
  675MOL0     C93072   8.345   6.203   6.979 -0.0003 -0.6489 -0.6834
  675MOL0     C93073   8.261   6.334   6.991  0.5329  0.3658 -0.1383
  675MOL0     C93074   8.202   6.379   6.850 -0.1805  0.0682  0.4153
  675MOL0     C93075   8.086   6.474   6.874  0.6918  0.3384  0.3969
  675MOL0     C93076   8.032   6.542   6.755 -0.2016  0.7412  0.5781
  675MOL0     C93077   7.985   6.601   6.665 -0.3873 -0.0264  0.0131
  675MOL0     C93078   8.597   6.212   7.131 -0.0071  0.2882  0.4112
  675MOL0     C93079   8.714   6.205   7.204  0.3427 -0.0431 -0.4310
  675MOL0     C93080   8.831   6.273   7.148  0.5902  0.2641  0.1343
  675MOL0     H93081   8.804   5.955   7.711 -0.6711 -1.2093 -1.9560
  675MOL0     H93082   8.966   5.873   7.876 -0.3619  0.9446 -0.1533
  675MOL0     H93083   9.398   5.739   7.730  0.1073  3.6091  2.3095
  675MOL0     H93084   9.254   5.635   7.721 -0.3437 -0.0767 -0.6358
  675MOL0     H93085   9.475   5.681   7.902  0.3815 -0.3892  0.7933
  675MOL0     H93086   9.332   5.684   7.995 -1.0390  0.4454 -0.7965
  675MOL0     H93087   9.464   5.459   7.965 -0.7952 -1.1562  0.2793
  675MOL0     H93088   9.294   5.431   7.922  0.7983 -0.3334 -0.0345
  675MOL0     H93089   9.330   5.420   7.695 -0.7952 -0.3211 -0.6097
  675MOL0     H93090   9.495   5.491   7.696 -2.1434  0.8045 -1.0826
  675MOL0     H93091   9.547   5.269   7.840 -1.6661  0.7598  1.4401
  675MOL0     H93092   9.526   5.260   7.661 -0.6631 -1.1006  0.0993
  675MOL0     H93093   9.299   5.210   7.856 -3.3586 -1.6725 -2.4241
  675MOL0     H93094   9.307   5.174   7.691  0.4443 -1.4096  0.1250
  675MOL0     H93095   9.346   4.982   7.846 -0.2332  0.3310 -0.9630
  675MOL0     H93096   9.499   5.060   7.896  0.5428  2.3373 -0.1330
  675MOL0     H93097   9.443   4.997   7.597 -0.1413  2.9934 -0.0802
  675MOL0     H93098   9.593   5.045   7.678 -0.1325  0.2042  1.4732
  675MOL0     H93099   9.336   4.742   7.697  0.5236 -0.4215 -2.2323
  675MOL0     H93100   9.335   4.536   7.876  0.3413  0.4968 -2.6215
  675MOL0     H93101   9.489   4.471   7.935 -2.2569 -1.6346  1.0060
  675MOL0     H93102   9.350   4.352   7.735 -0.1434  1.2431 -1.3720
  675MOL0     H93103   9.427   4.475   7.638  0.3475  2.7153  0.5480
  675MOL0     H93104   9.570   4.286   7.603 -1.4024 -1.2290 -0.1942
  675MOL0     H93105   9.646   4.409   7.690 -1.5774  1.6652 -0.2986
  675MOL0     H93106   9.596   4.279   7.898 -0.3940  1.9475 -2.0688
  675MOL0     H93107   9.551   4.149   7.783  0.4012  0.1463 -0.6747
  675MOL0     H93108   9.682   3.939   7.823  1.9015 -1.4636 -1.4180
  675MOL0     H93109   9.697   3.739   7.868  1.6769  0.0442  0.4152
  675MOL0     H93110   9.635   3.739   8.031  1.4019  2.7594  1.7686
  675MOL0     H93111   9.799   3.666   7.988 -0.5067 -0.6829  1.6548
  675MOL0     H93112   9.946   3.965   8.547  2.7765  1.0217  0.7207
  675MOL0     H93113  10.072   3.882   8.743  0.6608 -0.0089 -0.7031
  675MOL0     H93114  10.440   3.677   8.673 -1.1781  0.1944 -0.9749
  675MOL0     H93115  10.391   3.801   8.795  1.2522 -0.0844 -1.1159
  675MOL0     H93116  10.496   3.648   8.922  0.0858 -1.4594  0.0540
  675MOL0     H93117  10.331   3.579   8.933 -0.8442  0.1602 -0.2390
  675MOL0     H93118  10.542   3.497   8.739 -0.0395 -1.9422  0.0320
  675MOL0     H93119  10.385   3.417   8.748 -0.3894  0.4314 -0.7687
  675MOL0     H93120  10.424   3.348   8.994  3.5828 -0.9315  3.4923
  675MOL0     H93121  10.589   3.411   8.973  1.2387 -2.9361 -0.6434
  675MOL0     H93122  10.603   3.182   8.942  0.3579  1.0628 -0.0145
  675MOL0     H93123  10.481   3.200   8.817  0.6952 -1.2582 -0.6313
  675MOL0     H93124  10.777   3.218   8.803 -1.0247  0.4608  2.4602
  675MOL0     H93125  10.716   3.376   8.782  0.5022 -0.3582  3.5201
  675MOL0     H93126  10.556   3.271   8.598  0.0805 -0.4400  0.8823
  675MOL0     H93127  10.634   3.114   8.634 -0.5586 -0.3252  0.3026
  675MOL0     H93128  10.710   3.198   8.431 -0.8644  0.7156 -0.4750
  675MOL0     H93129  10.842   3.218   8.539 -0.4690  0.3153 -0.3358
  675MOL0     H93130  10.291   3.621   8.478 -2.5726 -3.5593  0.2334
  675MOL0     H93131  10.174   3.721   8.288  2.8272 -1.7972  1.6908
  675MOL0     H93132   9.987   4.111   8.160  1.0474 -0.7919 -1.7977
  675MOL0     H93133   9.918   4.244   7.973 -2.2558  0.3369 -0.3138
  675MOL0     H93134   9.269   5.866   7.572 -0.6571 -2.2035  1.6115
  675MOL0     H93135   9.112   5.966   7.419 -1.4057  3.3140  0.0250
  675MOL0     H93136   8.586   5.998   7.441 -0.9082 -0.4588 -0.9917
  675MOL0     H93137   8.393   6.013   7.304  1.0107 -2.9311  0.1470
  675MOL0     H93138   8.441   6.224   6.931  0.8134  2.0080  1.7895
  675MOL0     H93139   8.277   6.138   6.922 -0.1737 -2.1121  1.0844
  675MOL0     H93140   8.327   6.409   7.034 -2.1230  3.1528 -0.5615
  675MOL0     H93141   8.173   6.305   7.050 -0.3279 -0.3787 -1.7026
  675MOL0     H93142   8.285   6.433   6.804  1.2348 -2.2249  0.1342
  675MOL0     H93143   8.161   6.293   6.797 -2.6276  0.1630  2.0013
  675MOL0     H93144   8.125   6.554   6.938  1.2615 -0.7522  1.4566
  675MOL0     H93145   8.008   6.424   6.932  1.9162 -0.3561  1.5002
  675MOL0     H93146   7.939   6.647   6.581  1.5141  0.0495 -1.0322
  675MOL0     H93147   8.606   6.274   7.041  2.9375  1.3438  1.3169
  675MOL0     H93148   8.802   6.351   7.076 -0.0255  1.6902  1.8222
  675MOL0     H93149   8.885   6.321   7.230  0.0096 -1.6498  1.6842
  675MOL0     H93150   8.892   6.198   7.098 -3.8005 -1.3854 -3.5086
  676MOL0     O93151   4.935   5.864   1.888 -0.4549 -0.3284 -0.1889
  676MOL0     C93152   4.881   5.774   1.825  0.3954 -0.2979  0.1035
  676MOL0     O93153   4.940   5.704   1.724  0.1152 -0.3138  0.5299
  676MOL0     C93154   5.073   5.702   1.728 -0.2073 -0.1507  1.0434
  676MOL0     C93155   5.138   5.644   1.831 -0.2064  0.4283 -0.3612
  676MOL0     C93156   5.285   5.640   1.833 -0.4401 -0.2336  0.6404
  676MOL0     C93157   5.358   5.690   1.723 -0.0353 -0.5476 -0.3220
  676MOL0     O93158   5.496   5.670   1.730  0.5594 -0.0952 -0.3852
  676MOL0     C93159   5.571   5.670   1.608  1.0436 -0.8918  0.2897
  676MOL0     C93160   5.653   5.804   1.593  0.4627 -0.1829  0.2214
  676MOL0     C93161   5.776   5.813   1.676  0.3494  0.1780 -0.1553
  676MOL0     C93162   5.892   5.760   1.596  0.2644  0.3065 -0.2515
  676MOL0     C93163   6.007   5.726   1.689  0.5612 -0.5628  0.2062
  676MOL0     C93164   6.131   5.683   1.612  0.1302 -0.5623  0.7563
  676MOL0     C93165   6.180   5.788   1.499  0.1182  0.2240 -0.0060
  676MOL0     C93166   6.218   5.925   1.563 -0.5263  0.9186 -0.0617
  676MOL0     N93167   6.283   6.014   1.462 -0.5193  0.0928 -0.6277
  676MOL0     C93168   6.216   6.068   1.361 -0.4035  0.5727  0.6301
  676MOL0     C93169   6.313   6.122   1.285 -0.5021  0.0621 -0.3159
  676MOL0     C93170   6.292   6.213   1.169  0.2019 -0.3089 -0.7117
  676MOL0     C93171   6.222   6.144   1.053  0.3686 -0.5101  0.5036
  676MOL0     C93172   6.178   6.231   0.930 -0.1079  0.6621 -0.2111
  676MOL0     C93173   6.112   6.370   0.969  0.2168  0.3152 -0.9339
  676MOL0     O93174   5.985   6.354   1.030  0.4005 -0.4486  0.3107
  676MOL0     C93175   5.876   6.304   0.957  0.0024 -0.0124  0.3005
  676MOL0     C93176   5.766   6.240   1.023  0.5606 -0.8131  0.8488
  676MOL0     C93177   5.661   6.186   0.952 -0.2807  0.1112 -0.8336
  676MOL0     C93178   5.571   6.108   1.050  0.3064 -0.1005 -0.2937
  676MOL0     C93179   5.647   6.215   0.815 -0.4079  0.0377  0.2352
  676MOL0     C93180   5.535   6.154   0.745  0.1589  0.2594  0.6394
  676MOL0     O93181   5.494   6.227   0.628 -0.2442  0.3611  0.8295
  676MOL0     C93182   5.417   6.171   0.533 -0.4511 -0.1277 -0.2236
  676MOL0     C93183   5.366   6.039   0.507 -1.7245 -0.1507  0.1205
  676MOL0     C93184   5.286   6.009   0.395  0.4046 -0.4114 -0.5268
  676MOL0     C93185   5.248   6.102   0.297  0.4664  0.3053 -0.4446
  676MOL0     O93186   5.182   6.061   0.180 -0.5212 -0.1610 -0.7556
  676MOL0     C93187   5.130   6.161   0.103 -0.1199 -0.0466  0.4749
  676MOL0     C93188   5.105   6.101  -0.036 -0.7452 -0.3578  0.2819
  676MOL0     C93189   5.085   6.211  -0.147  0.5849  0.7974  0.3756
  676MOL0     C93190   5.207   6.248  -0.227 -0.6143 -0.0647  0.9451
  676MOL0     C93191   5.174   6.340  -0.344 -0.1568 -0.3403  0.5667
  676MOL0     C93192   5.145   6.275  -0.475  0.3582  0.2199  0.8407
  676MOL0     C93193   5.056   6.372  -0.564  1.1166  0.9842 -0.2349
  676MOL0     C93194   5.013   6.318  -0.700 -0.1190  1.0767  0.0766
  676MOL0    Cl93195   4.901   6.181  -0.658  0.2602  0.0479 -0.5250
  676MOL0     C93196   5.305   6.233   0.317 -0.2044 -0.3180  0.2272
  676MOL0     C93197   5.381   6.262   0.426  0.6805  0.4890  0.0544
  676MOL0     O93198   5.484   6.051   0.784 -0.4766  0.1133 -0.7553
  676MOL0     C93199   5.749   6.284   0.751 -0.6683 -0.3777 -0.0559
  676MOL0     C93200   5.864   6.327   0.822  0.2946  0.6555 -0.0984
  676MOL0     N93201   6.437   6.093   1.337 -0.8808  0.6867 -1.4208
  676MOL0     N93202   6.414   6.039   1.448 -0.5258  0.3565 -1.1561
  676MOL0     C93203   5.287   5.735   1.607  0.3463 -0.8169  0.3382
  676MOL0     C93204   5.150   5.737   1.612 -0.4810 -0.8443 -0.9259
  676MOL0     C93205   4.743   5.752   1.858  0.0712 -0.4164  0.0011
  676MOL0     C93206   4.657   5.720   1.756  0.0297  0.2084  0.5124
  676MOL0     C93207   4.525   5.686   1.778 -0.2131 -0.3741  0.2666
  676MOL0     C93208   4.468   5.689   1.899  0.5587 -0.3898 -0.0604
  676MOL0     O93209   4.337   5.667   1.918  0.1344  0.3913  0.5216
  676MOL0     C93210   4.252   5.777   1.974 -0.3656 -0.2153  0.4721
  676MOL0     C93211   4.110   5.782   1.908  0.3613  0.1857 -0.5899
  676MOL0     C93212   4.001   5.881   1.971 -0.2767 -0.1531  0.5417
  676MOL0     C93213   3.896   5.930   1.865 -0.4809 -0.6738 -0.1928
  676MOL0     C93214   3.781   5.846   1.890 -0.4641  0.1456 -0.6626
  676MOL0     C93215   3.687   5.776   1.936  0.4618  0.1244  0.6586
  676MOL0     C93216   4.552   5.711   2.009  0.4288 -0.3113 -0.3792
  676MOL0     C93217   4.694   5.744   1.988  0.1591  1.1122 -0.1924
  676MOL0     C93218   4.772   5.754   2.126  0.4263  0.5714 -0.2561
  676MOL0     H93219   5.086   5.596   1.914  1.5053  1.2795  1.2957
  676MOL0     H93220   5.334   5.581   1.910  1.1954 -4.5268 -3.1786
  676MOL0     H93221   5.509   5.659   1.519 -1.2951  3.0356  1.2031
  676MOL0     H93222   5.649   5.594   1.606  2.3798  0.4468 -1.1130
  676MOL0     H93223   5.673   5.816   1.486 -3.9005 -2.0606 -1.0648
  676MOL0     H93224   5.587   5.883   1.631  0.1300 -0.0196 -0.6768
  676MOL0     H93225   5.789   5.921   1.688  1.6473 -0.0604  0.7580
  676MOL0     H93226   5.773   5.761   1.772  0.3722 -2.7680 -1.6404
  676MOL0     H93227   5.866   5.665   1.549  1.5000  0.8074 -2.0877
  676MOL0     H93228   5.922   5.831   1.518  0.7075 -0.5059 -0.8336
  676MOL0     H93229   5.979   5.657   1.769 -1.5365  0.7443  0.6718
  676MOL0     H93230   6.035   5.817   1.742  2.9812 -0.6085 -0.8635
  676MOL0     H93231   6.211   5.674   1.686 -1.2302 -1.2549  2.1920
  676MOL0     H93232   6.102   5.583   1.578 -1.4772 -0.8951  2.9402
  676MOL0     H93233   6.103   5.798   1.423 -2.0662 -0.1665  2.0505
  676MOL0     H93234   6.271   5.768   1.441 -0.1501  1.6714 -0.9775
  676MOL0     H93235   6.124   5.978   1.581 -1.4995 -0.3086 -1.2673
  676MOL0     H93236   6.269   5.912   1.659  1.1903 -0.0486 -1.0501
  676MOL0     H93237   6.112   6.095   1.345  0.4677  2.6832 -2.2937
  676MOL0     H93238   6.379   6.275   1.146 -0.0114  0.3873  0.2891
  676MOL0     H93239   6.216   6.281   1.209 -0.4729 -2.8428  2.8627
  676MOL0     H93240   6.293   6.072   1.011 -0.1969 -0.0780 -1.2710
  676MOL0     H93241   6.141   6.080   1.091 -1.2104  0.8035 -0.5253
  676MOL0     H93242   6.269   6.249   0.873 -0.8200  0.6389 -1.4000
  676MOL0     H93243   6.110   6.171   0.869  0.6513  0.4516 -0.8711
  676MOL0     H93244   6.171   6.411   1.052 -0.7863  0.3288 -0.2107
  676MOL0     H93245   6.111   6.445   0.889  1.1238  3.9137  2.1208
  676MOL0     H93246   5.764   6.217   1.129 -3.0109 -1.6319  0.7164
  676MOL0     H93247   5.462   6.121   1.042  0.3818  2.4380  1.5252
  676MOL0     H93248   5.595   6.118   1.157  1.8512  1.7877 -0.7557
  676MOL0     H93249   5.578   6.001   1.030 -4.5709 -0.7929  0.4738
  676MOL0     H93250   5.401   5.954   0.564  0.3727 -0.4567 -1.5119
  676MOL0     H93251   5.262   5.904   0.383 -1.3008 -0.3012  1.2990
  676MOL0     H93252   5.036   6.206   0.136 -0.6484 -0.5142 -0.3595
  676MOL0     H93253   5.200   6.242   0.078 -1.5962  1.8492  2.1670
  676MOL0     H93254   5.175   6.021  -0.063 -1.3385 -1.0864  0.8401
  676MOL0     H93255   5.006   6.054  -0.030 -1.2255  0.5179 -0.5523
  676MOL0     H93256   5.032   6.297  -0.106 -3.2249 -1.0658 -0.1740
  676MOL0     H93257   5.016   6.173  -0.222  1.4531  0.7477 -0.4162
  676MOL0     H93258   5.238   6.148  -0.258 -1.1292  0.3967 -1.1965
  676MOL0     H93259   5.277   6.295  -0.158  0.4952 -1.6773  0.9742
  676MOL0     H93260   5.096   6.403  -0.300 -0.5737 -2.2104  2.7150
  676MOL0     H93261   5.264   6.390  -0.381  0.9004 -3.0177 -0.7007
  676MOL0     H93262   5.095   6.178  -0.467  1.8546 -0.5073  1.7396
  676MOL0     H93263   5.239   6.255  -0.528 -1.3925 -4.7536 -0.9923
  676MOL0     H93264   5.112   6.464  -0.583  0.2830  1.1982 -1.8539
  676MOL0     H93265   4.960   6.392  -0.515  0.8196 -0.0798 -0.3581
  676MOL0     H93266   5.087   6.274  -0.766 -2.5723 -3.7121  0.0510
  676MOL0     H93267   4.961   6.397  -0.754 -2.2058 -0.1929  0.1123
  676MOL0     H93268   5.283   6.312   0.246  3.2898  0.1816 -0.4949
  676MOL0     H93269   5.426   6.361   0.424 -1.1822  1.3697 -2.4922
  676MOL0     H93270   5.739   6.313   0.647 -1.1399 -1.6974 -0.3969
  676MOL0     H93271   5.943   6.381   0.771  0.4807 -0.4859 -1.0429
  676MOL0     H93272   5.329   5.769   1.513 -1.9341  3.3860  0.5739
  676MOL0     H93273   5.113   5.759   1.513 -0.4035 -3.9421 -1.7412
  676MOL0     H93274   4.686   5.715   1.652 -1.9504 -0.6501 -0.0489
  676MOL0     H93275   4.464   5.661   1.692 -0.0514  0.1079  0.0038
  676MOL0     H93276   4.239   5.754   2.080 -1.8156 -0.2235  0.3097
  676MOL0     H93277   4.288   5.880   1.967 -1.6299  0.2321  0.3718
  676MOL0     H93278   4.070   5.681   1.916  1.0438 -0.1320 -1.0922
  676MOL0     H93279   4.123   5.809   1.803 -2.6788  1.9880 -0.6251
  676MOL0     H93280   3.970   5.835   2.066  2.4067  0.0623  1.6164
  676MOL0     H93281   4.049   5.975   1.996  0.2581 -0.7920  2.0494
  676MOL0     H93282   3.941   5.911   1.767  2.2426 -1.5269  1.1214
  676MOL0     H93283   3.875   6.036   1.881  0.0137 -0.8499  1.8601
  676MOL0     H93284   3.591   5.744   1.969 -1.0253  1.1017 -2.3616
  676MOL0     H93285   4.507   5.705   2.108  1.6889 -1.5549  0.1529
  676MOL0     H93286   4.857   5.685   2.123  0.3592  0.4869 -0.2230
  676MOL0     H93287   4.797   5.859   2.142  0.2237  0.3739  1.6151
  676MOL0     H93288   4.705   5.720   2.206  1.1727 -0.9402 -0.2203
  677MOL0     O93289   9.001   4.477   2.515 -0.9553  0.3856 -0.4665
  677MOL0     C93290   9.045   4.364   2.541 -0.5792  0.3957  0.6676
  677MOL0     O93291   9.091   4.281   2.450  0.1315  0.5405 -0.2207
  677MOL0     C93292   9.093   4.326   2.318 -0.0077 -0.1038  0.2638
  677MOL0     C93293   9.218   4.349   2.261  0.4908 -1.0212  0.9525
  677MOL0     C93294   9.229   4.412   2.135  0.3660 -0.0103 -1.4700
  677MOL0     C93295   9.113   4.434   2.063  0.1575 -0.2990 -0.4698
  677MOL0     O93296   9.136   4.494   1.941  0.7357  0.5751 -0.1177
  677MOL0     C93297   9.061   4.611   1.901 -0.3543 -0.0367 -0.1121
  677MOL0     C93298   9.155   4.695   1.821  0.7737  0.2775  0.4674
  677MOL0     C93299   9.263   4.768   1.901  0.2005 -0.1065  0.7482
  677MOL0     C93300   9.385   4.796   1.809 -0.2248  0.2981 -0.2401
  677MOL0     C93301   9.481   4.893   1.882  0.4964  0.1248  0.4832
  677MOL0     C93302   9.625   4.903   1.814 -0.1031  0.4219 -0.1133
  677MOL0     C93303   9.725   4.992   1.902 -0.4751  0.0582  0.4964
  677MOL0     C93304   9.755   5.114   1.819  0.0100 -0.2777 -0.1169
  677MOL0     N93305   9.635   5.210   1.808  0.2128 -0.3287  0.0675
  677MOL0     C93306   9.565   5.282   1.903  0.2024  1.5807  0.3416
  677MOL0     C93307   9.449   5.334   1.845 -0.8474  0.8004  0.6717
  677MOL0     C93308   9.342   5.420   1.903 -0.3317  0.1559 -0.3520
  677MOL0     C93309   9.202   5.372   1.879 -0.8517 -0.6296 -0.3776
  677MOL0     C93310   9.174   5.245   1.964  0.5466 -0.3168 -0.8168
  677MOL0     C93311   9.140   5.284   2.103 -0.5754 -1.0043 -0.5337
  677MOL0     O93312   9.125   5.160   2.186  0.1048 -0.9435  0.4399
  677MOL0     C93313   9.226   5.081   2.213 -0.7599 -0.1265  0.6537
  677MOL0     C93314   9.194   4.963   2.273  0.3799 -0.2482  0.7990
  677MOL0     C93315   9.287   4.867   2.307  0.3597 -0.5881 -0.3521
  677MOL0     C93316   9.225   4.742   2.372 -0.0258  0.2701  0.9177
  677MOL0     C93317   9.418   4.876   2.272 -0.0005 -0.2087  0.7677
  677MOL0     C93318   9.529   4.771   2.308  1.1893  0.6330  0.9181
  677MOL0     O93319   9.651   4.796   2.261  0.2484 -0.6248  0.2943
  677MOL0     C93320   9.758   4.727   2.303 -0.4674 -0.9297  0.2524
  677MOL0     C93321   9.806   4.744   2.434 -0.2057 -1.0689  1.0054
  677MOL0     C93322   9.932   4.690   2.468  0.8200  0.2661 -0.2282
  677MOL0     C93323   9.997   4.594   2.386 -1.2981 -1.0022 -0.5296
  677MOL0     O93324  10.113   4.524   2.412 -0.4589 -0.8605 -0.2891
  677MOL0     C93325  10.178   4.542   2.545  1.1591  0.0276 -0.9611
  677MOL0     C93326  10.324   4.505   2.543 -0.9080  0.3419  0.4818
  677MOL0     C93327  10.361   4.374   2.491  0.6050  0.4546 -0.0304
  677MOL0     C93328  10.502   4.332   2.520  0.2007  1.1050  0.2744
  677MOL0     C93329  10.535   4.203   2.443 -0.2302 -0.4906 -0.4438
  677MOL0     C93330  10.688   4.181   2.432 -0.8004  0.2428  0.3691
  677MOL0     C93331  10.782   4.188   2.562 -0.2403  0.2365 -0.0913
  677MOL0     C93332  10.918   4.157   2.503 -0.3924  0.1101  0.2259
  677MOL0    Cl93333  11.046   4.181   2.624 -0.1372  0.0481  0.1431
  677MOL0     C93334   9.939   4.575   2.262 -0.4542 -0.3835  0.0568
  677MOL0     C93335   9.826   4.644   2.217  0.1077 -0.1249 -0.3072
  677MOL0     O93336   9.500   4.673   2.370 -0.2248 -0.3893 -0.5448
  677MOL0     C93337   9.457   4.998   2.202  1.1587 -0.9628  0.1148
  677MOL0     C93338   9.361   5.096   2.188  0.0719  0.3558 -0.1830
  677MOL0     N93339   9.447   5.296   1.712 -1.2092  0.6106  0.0385
  677MOL0     N93340   9.559   5.224   1.691  1.2087 -0.4022 -0.4770
  677MOL0     C93341   8.988   4.398   2.112  0.1005  0.2296  0.0413
  677MOL0     C93342   8.977   4.351   2.240 -0.0343  0.7645 -0.1906
  677MOL0     C93343   9.022   4.308   2.671 -0.6198 -0.4257 -0.6070
  677MOL0     C93344   9.063   4.179   2.700  0.6060  0.5250  0.9906
  677MOL0     C93345   9.047   4.128   2.826  0.2438  0.8097  0.1283
  677MOL0     C93346   8.995   4.202   2.928 -0.1072  0.4505 -0.5211
  677MOL0     O93347   8.996   4.151   3.060  0.0676 -0.0132 -0.4136
  677MOL0     C93348   8.877   4.149   3.138 -0.0200  0.4112 -0.6896
  677MOL0     C93349   8.791   4.042   3.074  0.1678 -0.5070 -0.1799
  677MOL0     C93350   8.666   4.004   3.157  0.2054 -0.0832  0.4239
  677MOL0     C93351   8.582   3.896   3.083  0.8465 -0.8437 -0.3864
  677MOL0     C93352   8.489   3.936   2.981  0.5124  1.1353 -0.6562
  677MOL0     C93353   8.406   3.970   2.903 -0.3044  0.6955 -0.1000
  677MOL0     C93354   8.960   4.330   2.899 -0.5621 -0.0369 -0.0510
  677MOL0     C93355   8.957   4.381   2.770  0.1089 -0.4575 -0.2034
  677MOL0     C93356   8.889   4.516   2.766 -0.5046 -0.1312  0.7605
  677MOL0     H93357   9.307   4.331   2.321  0.4584 -0.8734  1.0446
  677MOL0     H93358   9.332   4.429   2.103  0.7607 -0.3301 -0.4209
  677MOL0     H93359   9.023   4.666   1.988 -3.0906  0.2792 -1.4216
  677MOL0     H93360   8.974   4.572   1.847 -1.3196  1.8196  0.0331
  677MOL0     H93361   9.189   4.633   1.738  1.1993  1.4685 -0.2594
  677MOL0     H93362   9.096   4.769   1.767  2.6866  0.0803 -2.0509
  677MOL0     H93363   9.216   4.849   1.958  1.7503  1.6359 -0.3719
  677MOL0     H93364   9.306   4.697   1.973  0.2149 -1.0627 -0.1874
  677MOL0     H93365   9.436   4.703   1.778 -2.4790 -0.7663 -0.9546
  677MOL0     H93366   9.342   4.847   1.723 -0.8070  3.9845  2.0117
  677MOL0     H93367   9.479   4.864   1.988 -0.8740 -0.7017  0.2599
  677MOL0     H93368   9.437   4.993   1.877 -0.5189 -0.1851  2.2013
  677MOL0     H93369   9.661   4.800   1.813  1.4857  0.9144  1.5583
  677MOL0     H93370   9.629   4.938   1.710  3.6750 -2.7115 -1.2423
  677MOL0     H93371   9.814   4.928   1.912  0.4426  1.2410  0.1386
  677MOL0     H93372   9.683   5.005   2.002  0.2832 -1.4264  1.0479
  677MOL0     H93373   9.834   5.170   1.870 -0.5328 -0.5879  1.1027
  677MOL0     H93374   9.798   5.089   1.722  3.7530  0.7427  1.0922
  677MOL0     H93375   9.591   5.291   2.008 -0.9370  0.5061  0.7453
  677MOL0     H93376   9.352   5.519   1.859 -2.9690  1.5344  1.8583
  677MOL0     H93377   9.358   5.434   2.010 -1.3446  0.3584 -0.2177
  677MOL0     H93378   9.129   5.448   1.908  1.4043  2.2371 -1.6046
  677MOL0     H93379   9.200   5.361   1.770 -0.0405 -1.0906 -0.3565
  677MOL0     H93380   9.092   5.184   1.928  0.8267  0.4239 -2.8176
  677MOL0     H93381   9.264   5.183   1.964 -0.0533 -1.2206 -2.2048
  677MOL0     H93382   9.217   5.344   2.152 -0.9055 -1.6560  0.8175
  677MOL0     H93383   9.044   5.336   2.106  0.9755  2.0505  0.2969
  677MOL0     H93384   9.090   4.933   2.274  0.3714 -0.2113  1.1751
  677MOL0     H93385   9.255   4.660   2.306 -0.9423  0.7281 -0.1221
  677MOL0     H93386   9.116   4.753   2.376 -0.0653  2.9969 -2.4413
  677MOL0     H93387   9.278   4.718   2.464  3.8880  4.1493  0.0354
  677MOL0     H93388   9.754   4.815   2.498 -0.8165  0.7353 -1.3490
  677MOL0     H93389   9.965   4.708   2.570  2.7293  0.9061 -0.9180
  677MOL0     H93390  10.176   4.647   2.576  0.3618 -0.7239  1.8292
  677MOL0     H93391  10.123   4.487   2.622  0.5818  2.7690  0.7046
  677MOL0     H93392  10.374   4.582   2.484  0.4411 -1.8908 -1.5137
  677MOL0     H93393  10.354   4.507   2.648  1.5112 -2.6909  0.0228
  677MOL0     H93394  10.353   4.369   2.382  2.4937 -0.7330 -0.1683
  677MOL0     H93395  10.288   4.306   2.536 -1.3287  1.0713 -2.0407
  677MOL0     H93396  10.504   4.317   2.629  1.8308 -0.1584  0.1102
  677MOL0     H93397  10.563   4.413   2.480 -0.6456  1.5764 -0.0893
  677MOL0     H93398  10.478   4.118   2.484 -1.0818 -0.2057 -1.0284
  677MOL0     H93399  10.506   4.209   2.338  2.1255  0.4068 -1.1248
  677MOL0     H93400  10.729   4.255   2.363 -0.9469 -0.7076 -0.7767
  677MOL0     H93401  10.694   4.092   2.368  1.4957  1.7452 -1.6490
  677MOL0     H93402  10.759   4.119   2.644 -0.5332  0.1381 -0.2543
  677MOL0     H93403  10.770   4.289   2.602 -2.3472  0.6399 -1.5506
  677MOL0     H93404  10.944   4.228   2.425  0.2470  0.0045  0.3436
  677MOL0     H93405  10.930   4.055   2.464  0.7725 -0.0050  0.8570
  677MOL0     H93406   9.995   4.504   2.201  4.4135  0.4489  2.9710
  677MOL0     H93407   9.782   4.636   2.118  2.0273  1.2186 -1.3498
  677MOL0     H93408   9.562   5.022   2.195  0.9237 -0.2663 -1.4926
  677MOL0     H93409   9.392   5.191   2.147  1.4387  0.0443  0.0938
  677MOL0     H93410   8.894   4.421   2.061 -0.6257 -0.9487  0.8191
  677MOL0     H93411   8.887   4.341   2.300 -1.5942  2.6043 -2.0709
  677MOL0     H93412   9.122   4.122   2.630 -3.4927 -1.4192 -1.2890
  677MOL0     H93413   9.083   4.027   2.844  0.3186  0.7507 -0.3359
  677MOL0     H93414   8.904   4.105   3.234  4.8934  0.1792 -1.8982
  677MOL0     H93415   8.835   4.250   3.135  1.1475  0.9724  0.6236
  677MOL0     H93416   8.854   3.956   3.050  1.1766 -0.2073  1.2468
  677MOL0     H93417   8.754   4.086   2.982  1.3160  1.3903  0.2182
  677MOL0     H93418   8.692   3.957   3.253  0.4403 -0.0291  0.3868
  677MOL0     H93419   8.606   4.093   3.176  0.5275 -0.0927  1.6037
  677MOL0     H93420   8.532   3.849   3.168  1.6336  0.2374  0.7201
  677MOL0     H93421   8.637   3.814   3.035  1.5005  0.3930 -1.8698
  677MOL0     H93422   8.336   4.007   2.831 -1.3034  0.2033  0.5977
  677MOL0     H93423   8.916   4.390   2.978  0.1099  0.0170  0.2912
  677MOL0     H93424   8.824   4.540   2.850 -1.2337  2.0547 -0.3416
  677MOL0     H93425   8.960   4.599   2.769  0.9464 -1.3167  0.5838
  677MOL0     H93426   8.834   4.531   2.672 -0.0588 -2.8620 -0.0343
  678MOL0     O93427   1.950   8.369   2.710  0.0557 -0.1713  0.0512
  678MOL0     C93428   1.851   8.305   2.747 -0.6219  0.7046 -0.3506
  678MOL0     O93429   1.838   8.158   2.750  0.3035 -0.4145 -0.1927
  678MOL0     C93430   1.926   8.079   2.686 -0.2596 -0.2004 -0.1375
  678MOL0     C93431   2.067   8.084   2.699 -0.2558  0.1787 -0.2955
  678MOL0     C93432   2.152   8.001   2.615 -0.5918 -0.0203  0.0946
  678MOL0     C93433   2.102   7.912   2.522 -0.2343 -0.0193  0.3273
  678MOL0     O93434   2.193   7.828   2.468 -0.8286 -0.1385  0.1835
  678MOL0     C93435   2.146   7.698   2.432 -0.5229  0.5410 -0.2775
  678MOL0     C93436   2.191   7.690   2.290 -0.9091  0.1455 -0.3802
  678MOL0     C93437   2.171   7.556   2.231  0.2742  0.1300 -0.2637
  678MOL0     C93438   2.188   7.553   2.074 -0.9677  1.2814  0.3207
  678MOL0     C93439   2.107   7.450   1.985 -0.2551  0.7059  0.1349
  678MOL0     C93440   1.958   7.483   1.992  0.4865  0.3507 -1.0335
  678MOL0     C93441   1.913   7.605   1.910  0.7852  1.5396  0.0132
  678MOL0     C93442   1.774   7.638   1.920  1.1038  0.3437  0.2563
  678MOL0     N93443   1.732   7.706   2.043 -0.4755 -0.5308 -0.4814
  678MOL0     C93444   1.620   7.784   2.063 -0.2502 -0.4504  0.0195
  678MOL0     C93445   1.616   7.805   2.197  0.2532 -0.8214 -0.1241
  678MOL0     C93446   1.502   7.855   2.272 -0.2640 -0.0357 -0.1348
  678MOL0     C93447   1.532   7.906   2.417 -0.1716  0.0885 -0.1062
  678MOL0     C93448   1.427   7.983   2.496  0.9896  0.2521  0.6444
  678MOL0     C93449   1.281   7.916   2.485 -0.1306 -0.1976  0.6347
  678MOL0     O93450   1.267   7.785   2.536  0.4717 -0.4131  0.0010
  678MOL0     C93451   1.149   7.715   2.539  0.5956 -0.1266 -0.4323
  678MOL0     C93452   1.139   7.583   2.582 -0.4852 -0.4680  0.6480
  678MOL0     C93453   1.016   7.516   2.594 -0.4610 -0.5343 -0.3399
  678MOL0     C93454   1.025   7.379   2.652  0.0755  0.7791  0.9781
  678MOL0     C93455   0.899   7.574   2.544  1.6030 -0.6545 -0.4107
  678MOL0     C93456   0.767   7.504   2.534  0.0016  0.1722 -0.0920
  678MOL0     O93457   0.707   7.511   2.408  0.5168 -0.4973 -0.3613
  678MOL0     C93458   0.580   7.459   2.403  0.3869  0.1523 -0.0921
  678MOL0     C93459   0.543   7.325   2.419 -0.2919 -0.5624  0.4290
  678MOL0     C93460   0.411   7.285   2.432  0.3411 -0.1241 -0.0765
  678MOL0     C93461   0.308   7.377   2.432 -0.0830 -0.4541 -0.1287
  678MOL0     O93462   0.174   7.355   2.440  0.0609  0.1235  0.8294
  678MOL0     C93463   0.130   7.240   2.366 -0.0461 -0.0552 -0.2261
  678MOL0     C93464  -0.024   7.210   2.380 -0.4645  0.0101 -0.3047
  678MOL0     C93465  -0.116   7.331   2.346  0.0494 -0.5613 -0.0998
  678MOL0     C93466  -0.259   7.287   2.316  1.5403  0.6453 -0.0173
  678MOL0     C93467  -0.364   7.402   2.322  0.8167 -0.0535 -0.4650
  678MOL0     C93468  -0.327   7.510   2.221 -0.4179  0.5293 -0.6002
  678MOL0     C93469  -0.431   7.621   2.229  1.7247  0.8575  1.1106
  678MOL0     C93470  -0.379   7.745   2.169  0.7469  0.1731  0.8879
  678MOL0    Cl93471  -0.374   7.723   1.990 -0.1272  0.1517  0.2525
  678MOL0     C93472   0.346   7.514   2.419  0.5688  0.0527 -0.7705
  678MOL0     C93473   0.479   7.549   2.388 -0.4370  0.1927 -0.2733
  678MOL0     O93474   0.715   7.468   2.638 -0.2374 -0.0689 -0.0679
  678MOL0     C93475   0.903   7.710   2.508  0.2434 -0.3227  0.1949
  678MOL0     C93476   1.027   7.780   2.503 -0.2451  0.7558 -0.4539
  678MOL0     N93477   1.729   7.750   2.255  0.2224  0.7455  0.0700
  678MOL0     N93478   1.787   7.678   2.162 -0.3962  0.2656 -0.3878
  678MOL0     C93479   1.957   7.914   2.518  0.6382  0.9901  1.1784
  678MOL0     C93480   1.871   7.994   2.591  0.1908  0.7415 -0.2502
  678MOL0     C93481   1.754   8.376   2.835 -0.5155 -0.4617 -0.4440
  678MOL0     C93482   1.802   8.488   2.905  0.7534 -0.0572 -0.2316
  678MOL0     C93483   1.730   8.552   3.006  0.6888  0.9854  0.4174
  678MOL0     C93484   1.599   8.506   3.038 -0.2575  1.4310  0.1924
  678MOL0     O93485   1.533   8.581   3.132  0.1181 -0.3434 -0.1655
  678MOL0     C93486   1.447   8.521   3.225  0.2224  0.0717  1.3606
  678MOL0     C93487   1.455   8.598   3.356 -0.5962  0.1953 -0.7051
  678MOL0     C93488   1.384   8.729   3.364  1.0247  0.0075 -0.2814
  678MOL0     C93489   1.444   8.846   3.291  0.3184  0.2044 -0.2218
  678MOL0     C93490   1.583   8.880   3.336 -0.0265  0.3412  0.2981
  678MOL0     C93491   1.691   8.912   3.369  1.0029 -0.8947  0.3388
  678MOL0     C93492   1.555   8.389   2.972  0.4557 -0.6349  0.0756
  678MOL0     C93493   1.629   8.322   2.877 -0.2503 -0.1123  0.1599
  678MOL0     C93494   1.556   8.197   2.820 -0.1583 -0.5985  0.0071
  678MOL0     H93495   2.116   8.160   2.758 -1.7886 -0.3518  1.7898
  678MOL0     H93496   2.258   8.004   2.641 -0.3477 -2.4338 -0.3061
  678MOL0     H93497   2.039   7.689   2.450 -0.1757 -2.9819  0.7225
  678MOL0     H93498   2.194   7.620   2.492 -2.4378 -0.8359 -0.4839
  678MOL0     H93499   2.143   7.769   2.232  1.6124  2.9988  1.1022
  678MOL0     H93500   2.296   7.717   2.273 -1.0739  0.8825 -0.2536
  678MOL0     H93501   2.232   7.480   2.281  2.6378  1.2978 -1.2027
  678MOL0     H93502   2.067   7.536   2.260  0.4660 -2.7383 -1.2464
  678MOL0     H93503   2.157   7.650   2.033  0.4865  0.4778 -3.0494
  678MOL0     H93504   2.293   7.550   2.046 -1.7137  0.2798 -2.8799
  678MOL0     H93505   2.115   7.351   2.031  1.1682  1.7999  2.4429
  678MOL0     H93506   2.137   7.442   1.880 -0.3303  1.0032  0.0920
  678MOL0     H93507   1.918   7.385   1.967 -0.9939  0.6604 -0.0215
  678MOL0     H93508   1.920   7.484   2.094 -1.1778  3.0379 -1.5462
  678MOL0     H93509   1.929   7.582   1.805  1.0677 -0.8794  0.5291
  678MOL0     H93510   1.968   7.698   1.925 -1.5904  2.9643  0.3949
  678MOL0     H93511   1.747   7.704   1.836 -0.3089 -1.1915 -0.5649
  678MOL0     H93512   1.713   7.547   1.912  0.0650  0.9690  0.8685
  678MOL0     H93513   1.541   7.810   1.994 -0.3663  0.5460  0.5048
  678MOL0     H93514   1.433   7.771   2.279 -2.0431  1.1453 -2.3824
  678MOL0     H93515   1.458   7.931   2.207 -0.1412  0.8555  0.7820
  678MOL0     H93516   1.564   7.818   2.474 -0.0189  0.0203 -0.2943
  678MOL0     H93517   1.618   7.972   2.411 -1.0568  1.3799  1.0235
  678MOL0     H93518   1.469   7.989   2.598  3.8710  1.1659 -0.4852
  678MOL0     H93519   1.425   8.083   2.451  3.3354 -0.0995 -0.3565
  678MOL0     H93520   1.213   7.983   2.539  1.6089  2.9187 -0.7427
  678MOL0     H93521   1.243   7.909   2.382  1.2050 -3.1064  0.2489
  678MOL0     H93522   1.234   7.536   2.606 -1.2925 -1.8469  1.2929
  678MOL0     H93523   0.978   7.311   2.581  0.7949 -0.2768  1.4839
  678MOL0     H93524   0.971   7.370   2.747 -1.7975 -0.9027 -0.1840
  678MOL0     H93525   1.126   7.345   2.679  0.7877  2.4215  0.5702
  678MOL0     H93526   0.609   7.239   2.427  1.5132  0.7663  0.2390
  678MOL0     H93527   0.403   7.178   2.448 -3.3162  0.0818  0.2187
  678MOL0     H93528   0.147   7.249   2.258 -1.1383  0.1711 -0.3897
  678MOL0     H93529   0.183   7.148   2.391 -0.6948 -0.3959 -0.0698
  678MOL0     H93530  -0.051   7.138   2.302 -0.3728 -1.5490  1.0557
  678MOL0     H93531  -0.041   7.164   2.478 -0.7007 -1.8672 -1.1859
  678MOL0     H93532  -0.078   7.379   2.255 -0.8403 -3.9830 -2.5112
  678MOL0     H93533  -0.121   7.407   2.423 -1.1801  0.2505 -0.9371
  678MOL0     H93534  -0.293   7.208   2.384 -1.0726  1.7063  0.0431
  678MOL0     H93535  -0.260   7.241   2.217 -1.8061  0.9066 -0.2429
  678MOL0     H93536  -0.468   7.369   2.316  1.1120 -0.8577 -1.5383
  678MOL0     H93537  -0.360   7.450   2.420 -0.1091 -0.7038 -0.0894
  678MOL0     H93538  -0.327   7.466   2.121 -0.4278  0.5055 -0.5897
  678MOL0     H93539  -0.225   7.548   2.234 -0.8861  1.8661 -0.6720
  678MOL0     H93540  -0.460   7.648   2.331 -0.0148  0.1692  0.8342
  678MOL0     H93541  -0.522   7.580   2.184  2.3134 -2.3299  2.5338
  678MOL0     H93542  -0.279   7.775   2.202  1.0887 -1.9319  1.9454
  678MOL0     H93543  -0.455   7.817   2.197  0.4088 -0.0236  0.4812
  678MOL0     H93544   0.278   7.595   2.441  1.0870  0.1253  0.6685
  678MOL0     H93545   0.488   7.656   2.373  0.9043  0.2438  0.6967
  678MOL0     H93546   0.815   7.767   2.482 -0.8654 -0.9209  2.3724
  678MOL0     H93547   1.020   7.883   2.469  0.8946  1.3331  0.9535
  678MOL0     H93548   1.916   7.856   2.436  2.4043  0.4529  0.6094
  678MOL0     H93549   1.763   7.994   2.578  0.0759 -0.6665  0.5625
  678MOL0     H93550   1.901   8.524   2.880  0.3883  0.1259 -1.5055
  678MOL0     H93551   1.776   8.645   3.038  3.4087  0.8529 -2.5871
  678MOL0     H93552   1.347   8.531   3.183  0.4772 -0.7658  0.5017
  678MOL0     H93553   1.468   8.413   3.231 -2.3667 -0.7369 -1.3785
  678MOL0     H93554   1.562   8.614   3.369 -0.7294  0.1198  0.5996
  678MOL0     H93555   1.426   8.527   3.434  3.3812 -1.7415 -0.7724
  678MOL0     H93556   1.288   8.727   3.312  1.0624  0.5146 -0.3720
  678MOL0     H93557   1.367   8.753   3.469  0.5970  1.9726 -0.7668
  678MOL0     H93558   1.381   8.936   3.291  1.9398  1.3916 -0.7032
  678MOL0     H93559   1.457   8.821   3.186  1.4923  1.4299 -0.4015
  678MOL0     H93560   1.790   8.952   3.382  0.4782  0.4457  0.4017
  678MOL0     H93561   1.455   8.349   2.986 -0.3921  1.3180 -0.0478
  678MOL0     H93562   1.555   8.205   2.711 -1.4074 -2.7839 -0.1903
  678MOL0     H93563   1.605   8.105   2.853  1.9180  0.3515 -0.2957
  678MOL0     H93564   1.448   8.191   2.841  0.1723 -2.0521  1.5193
  679MOL0     O93565   4.282   6.250   1.079 -0.5157  0.2237  0.6173
  679MOL0     C93566   4.271   6.310   1.188  0.3215  0.5104  0.6386
  679MOL0     O93567   4.370   6.370   1.257 -0.4690 -0.3756 -0.2943
  679MOL0     C93568   4.505   6.336   1.220 -0.8245 -0.3487  0.1535
  679MOL0     C93569   4.586   6.328   1.333  0.0377 -0.1652  0.1997
  679MOL0     C93570   4.726   6.305   1.315 -0.0622  1.0789  1.2916
  679MOL0     C93571   4.785   6.278   1.181 -1.0479  0.0952 -0.2481
  679MOL0     O93572   4.928   6.246   1.177  0.8448  0.2054 -0.4083
  679MOL0     C93573   4.990   6.279   1.055  0.2546 -0.5210 -0.2060
  679MOL0     C93574   5.130   6.237   1.057  0.3945 -0.1706 -0.4327
  679MOL0     C93575   5.220   6.274   0.940  0.4672  0.4299 -0.4310
  679MOL0     C93576   5.217   6.424   0.897  0.1708 -0.4691 -0.3557
  679MOL0     C93577   5.341   6.454   0.815  0.6648  0.4547 -0.2457
  679MOL0     C93578   5.342   6.598   0.758  0.5142  0.4589  0.9236
  679MOL0     C93579   5.463   6.615   0.683 -0.4753  0.3124  1.0660
  679MOL0     C93580   5.454   6.738   0.600  0.5640  0.4023 -0.8331
  679MOL0     N93581   5.581   6.748   0.517  0.3349 -0.6964  0.0760
  679MOL0     C93582   5.654   6.647   0.456 -0.6432 -1.1986 -0.6205
  679MOL0     C93583   5.783   6.696   0.445  0.2664  1.3182  0.5268
  679MOL0     C93584   5.901   6.615   0.391  0.1989  0.2648  0.2401
  679MOL0     C93585   5.974   6.536   0.498  0.0612  0.1300  0.2866
  679MOL0     C93586   6.079   6.459   0.429  0.4597 -0.4167 -0.6143
  679MOL0     C93587   6.175   6.387   0.526  0.4914 -0.2327  0.2150
  679MOL0     O93588   6.229   6.485   0.613 -0.4138 -0.2159  1.1849
  679MOL0     C93589   6.338   6.447   0.686  0.9676  0.6203 -0.2935
  679MOL0     C93590   6.359   6.527   0.802 -0.0293  0.2072  0.3717
  679MOL0     C93591   6.457   6.494   0.903  0.0080  0.4986  0.4839
  679MOL0     C93592   6.471   6.566   1.025 -0.5200 -0.7515 -0.6843
  679MOL0     C93593   6.530   6.380   0.877 -0.0663 -0.0139 -0.0748
  679MOL0     C93594   6.639   6.326   0.964  0.0411 -0.3185  0.3321
  679MOL0     O93595   6.633   6.196   0.997 -0.1030 -0.4081 -0.3913
  679MOL0     C93596   6.738   6.142   1.069  0.2441 -1.6211 -0.0631
  679MOL0     C93597   6.870   6.172   1.041 -0.2093 -0.0843 -0.4634
  679MOL0     C93598   6.973   6.106   1.112  0.8031  0.1492  0.3580
  679MOL0     C93599   6.935   6.010   1.218 -0.4426 -0.1726  0.1855
  679MOL0     O93600   7.017   5.942   1.297  0.0084 -0.3167 -0.6338
  679MOL0     C93601   7.155   5.948   1.273 -0.3740 -0.0806 -0.2248
  679MOL0     C93602   7.226   5.858   1.379 -0.4601  0.7511  0.1555
  679MOL0     C93603   7.189   5.705   1.357 -0.4430 -0.0723 -0.3911
  679MOL0     C93604   7.159   5.648   1.495  0.2649  0.0263 -0.2142
  679MOL0     C93605   7.081   5.521   1.476  0.3687 -0.2115  0.6453
  679MOL0     C93606   7.063   5.436   1.597 -0.3226  0.3814  0.2137
  679MOL0     C93607   6.986   5.305   1.563 -0.4350  0.4469 -0.1472
  679MOL0     C93608   6.940   5.244   1.693 -0.4450 -0.2248  0.4823
  679MOL0    Cl93609   6.872   5.078   1.665 -0.6522 -0.0753 -0.4267
  679MOL0     C93610   6.797   5.981   1.245 -0.2682  0.4812  0.8203
  679MOL0     C93611   6.705   6.043   1.163 -0.2743  0.1803 -0.3182
  679MOL0     O93612   6.719   6.406   0.995 -0.2779  0.7873 -0.6349
  679MOL0     C93613   6.514   6.298   0.758  0.1833 -0.1877  0.0392
  679MOL0     C93614   6.425   6.339   0.655 -0.1166  0.4061 -0.1184
  679MOL0     N93615   5.785   6.821   0.495  0.3089 -0.0070  0.0170
  679MOL0     N93616   5.670   6.850   0.535  0.6686 -0.6967  0.4124
  679MOL0     C93617   4.697   6.290   1.077 -0.4202  0.1125 -0.0227
  679MOL0     C93618   4.560   6.316   1.092  0.1586 -0.3557  0.5572
  679MOL0     C93619   4.138   6.313   1.247 -0.4901  1.0950 -1.0497
  679MOL0     C93620   4.125   6.397   1.358  0.6133  0.0717  0.7569
  679MOL0     C93621   4.000   6.414   1.421  0.3029  0.3004 -0.4450
  679MOL0     C93622   3.881   6.346   1.387  0.2902 -0.1461  0.2923
  679MOL0     O93623   3.759   6.347   1.449  0.3270 -0.4106 -0.6954
  679MOL0     C93624   3.730   6.461   1.527 -0.6524  0.1481 -0.5753
  679MOL0     C93625   3.574   6.463   1.557 -0.3115 -0.1241  0.3117
  679MOL0     C93626   3.529   6.558   1.657 -0.2769  0.0420  0.5201
  679MOL0     C93627   3.407   6.509   1.737 -0.2211  0.6004 -0.3240
  679MOL0     C93628   3.356   6.611   1.833 -0.2567  0.2476 -0.4294
  679MOL0     C93629   3.301   6.671   1.922  0.0186  0.3038 -0.0801
  679MOL0     C93630   3.903   6.254   1.281 -0.3497 -0.6355  0.4226
  679MOL0     C93631   4.030   6.224   1.219 -0.0696  0.0878 -0.2418
  679MOL0     C93632   4.030   6.118   1.113 -0.0969 -0.5770  0.2358
  679MOL0     H93633   4.546   6.351   1.431  1.9172 -0.3470  1.0659
  679MOL0     H93634   4.802   6.307   1.393  0.5006  0.7667  0.7548
  679MOL0     H93635   4.979   6.385   1.034  0.0325 -1.1037 -3.5858
  679MOL0     H93636   4.947   6.218   0.975  2.0250  0.3152 -1.8991
  679MOL0     H93637   5.167   6.289   1.146 -1.4226 -0.0667  0.3126
  679MOL0     H93638   5.139   6.131   1.083  0.8971 -0.3740 -1.4180
  679MOL0     H93639   5.323   6.253   0.970 -0.0225 -0.7956  0.4665
  679MOL0     H93640   5.186   6.214   0.854 -1.0581  2.0653 -1.0434
  679MOL0     H93641   5.123   6.451   0.849 -0.7636 -1.9692  0.5379
  679MOL0     H93642   5.217   6.487   0.986 -1.2142  0.5232 -1.0200
  679MOL0     H93643   5.346   6.384   0.730  1.7172 -1.7342  1.5116
  679MOL0     H93644   5.428   6.432   0.877  1.1634 -1.3287 -1.4818
  679MOL0     H93645   5.260   6.625   0.690  0.9086 -0.3728  0.0859
  679MOL0     H93646   5.326   6.667   0.841 -1.4774 -0.9690  1.8159
  679MOL0     H93647   5.481   6.523   0.628  1.1480  0.7235  0.8547
  679MOL0     H93648   5.550   6.623   0.750  0.2642 -0.4526  0.2212
  679MOL0     H93649   5.363   6.733   0.539 -0.6991  1.4017  0.8701
  679MOL0     H93650   5.448   6.831   0.659  2.8171  1.3946 -2.0307
  679MOL0     H93651   5.612   6.554   0.420  0.4708 -1.5197 -1.1147
  679MOL0     H93652   5.971   6.677   0.335  2.9606 -1.9171  1.0712
  679MOL0     H93653   5.859   6.550   0.314  2.3879  1.1372 -1.8194
  679MOL0     H93654   6.027   6.597   0.571  3.5245 -0.5825 -1.4067
  679MOL0     H93655   5.901   6.468   0.544  0.3989 -1.4076 -1.3419
  679MOL0     H93656   6.034   6.382   0.365  0.3384 -0.5772 -0.3356
  679MOL0     H93657   6.137   6.531   0.371 -0.2141  2.5576  2.1489
  679MOL0     H93658   6.120   6.311   0.583  0.5473  0.1720  0.8200
  679MOL0     H93659   6.255   6.341   0.467  2.4039  0.8977  1.8169
  679MOL0     H93660   6.297   6.615   0.819  0.2156  0.1699  1.5245
  679MOL0     H93661   6.390   6.637   1.045 -3.3316 -3.6260 -0.9981
  679MOL0     H93662   6.568   6.617   1.027 -1.0879  0.3498 -0.5175
  679MOL0     H93663   6.463   6.508   1.117 -0.0381  1.0376  0.5352
  679MOL0     H93664   6.900   6.238   0.960 -0.7425 -1.3139 -1.7232
  679MOL0     H93665   7.075   6.132   1.083 -0.1007  1.9318 -1.5186
  679MOL0     H93666   7.185   5.905   1.177  1.2503 -0.5915  0.4641
  679MOL0     H93667   7.197   6.049   1.276  0.0691 -0.2737  1.9332
  679MOL0     H93668   7.334   5.866   1.372 -0.1483 -0.9531  1.9518
  679MOL0     H93669   7.193   5.897   1.476 -0.9723  2.4122 -0.6550
  679MOL0     H93670   7.281   5.651   1.330  1.9823 -0.5990  6.5980
  679MOL0     H93671   7.112   5.692   1.281  0.9756  2.3923 -2.3986
  679MOL0     H93672   7.108   5.713   1.567  1.7288 -0.8143  1.6886
  679MOL0     H93673   7.248   5.622   1.554 -1.6892 -2.8439  1.7580
  679MOL0     H93674   6.985   5.551   1.432  2.1673  1.2814 -2.5505
  679MOL0     H93675   7.123   5.453   1.402  2.0222 -1.3530  2.5363
  679MOL0     H93676   7.004   5.494   1.669 -0.0235 -0.7628  1.4142
  679MOL0     H93677   7.161   5.410   1.637  0.1202 -0.2167 -1.1870
  679MOL0     H93678   7.056   5.243   1.506 -2.9013 -0.3862 -2.4882
  679MOL0     H93679   6.892   5.322   1.511 -1.3327  0.2906  1.3595
  679MOL0     H93680   6.855   5.304   1.727 -0.7425  0.1122 -0.8058
  679MOL0     H93681   7.020   5.246   1.767  0.2529 -3.0463 -0.0664
  679MOL0     H93682   6.765   5.910   1.321  2.6853 -0.5277  1.2680
  679MOL0     H93683   6.601   6.016   1.181  0.4072 -0.2160  4.4187
  679MOL0     H93684   6.583   6.216   0.740  2.5077  1.0889  2.5424
  679MOL0     H93685   6.416   6.281   0.563  1.4476  0.1742 -0.1557
  679MOL0     H93686   4.736   6.268   0.978 -0.9408 -0.3113 -0.1408
  679MOL0     H93687   4.493   6.323   1.007 -1.0359  1.3939  1.5994
  679MOL0     H93688   4.211   6.456   1.390  0.7508 -1.6752  4.0053
  679MOL0     H93689   4.002   6.486   1.503 -1.5903  0.6041 -0.6236
  679MOL0     H93690   3.787   6.465   1.620 -0.1678  0.8839 -0.8861
  679MOL0     H93691   3.761   6.547   1.466  1.8704 -0.2179  0.0704
  679MOL0     H93692   3.547   6.361   1.587  2.0695 -1.2321 -0.9815
  679MOL0     H93693   3.525   6.479   1.461 -2.1844  1.2805  1.4567
  679MOL0     H93694   3.608   6.580   1.729 -1.9230 -5.6924  4.7758
  679MOL0     H93695   3.501   6.643   1.594  1.3257  0.3503  0.1741
  679MOL0     H93696   3.433   6.419   1.793 -0.8339 -0.4259 -1.6068
  679MOL0     H93697   3.331   6.469   1.669 -0.5662 -0.4116  0.6310
  679MOL0     H93698   3.256   6.736   1.995 -0.7760 -1.9096  1.5150
  679MOL0     H93699   3.822   6.185   1.257 -0.1363 -0.9802  0.6842
  679MOL0     H93700   3.945   6.051   1.132  1.4012 -2.3723  0.8820
  679MOL0     H93701   4.022   6.169   1.017  2.4327  1.0178  0.7838
  679MOL0     H93702   4.124   6.062   1.106 -0.4327 -0.9568 -1.6790
  680MOL0     O93703   9.404   6.429   8.305  0.5078 -0.9634  0.1843
  680MOL0     C93704   9.419   6.414   8.179 -0.1875 -0.7196 -0.9235
  680MOL0     O93705   9.535   6.403   8.107  0.2661 -0.2601  0.1464
  680MOL0     C93706   9.653   6.439   8.159 -1.0914 -0.5134 -0.0896
  680MOL0     C93707   9.674   6.528   8.264  0.3333 -0.4811 -0.0300
  680MOL0     C93708   9.803   6.537   8.320 -0.0329 -0.9401  0.0445
  680MOL0     C93709   9.904   6.450   8.270  0.4785 -0.2255 -1.1072
  680MOL0     O93710  10.030   6.459   8.317 -0.2421 -0.2373  0.0483
  680MOL0     C93711  10.055   6.491   8.459  0.5374  0.5547 -0.8173
  680MOL0     C93712  10.202   6.457   8.482 -0.2481 -0.3422 -0.7718
  680MOL0     C93713  10.217   6.429   8.638  0.2724  0.2135 -0.0018
  680MOL0     C93714  10.364   6.451   8.671 -0.8779 -0.2235  0.7014
  680MOL0     C93715  10.392   6.419   8.815  0.3939 -0.3717 -0.4789
  680MOL0     C93716  10.537   6.455   8.855  0.2378 -0.0271 -0.8156
  680MOL0     C93717  10.554   6.435   9.009 -0.0153 -0.1854 -0.2186
  680MOL0     C93718  10.701   6.447   9.061  0.0505  0.3131  0.3508
  680MOL0     N93719  10.798   6.366   8.987 -0.5257 -0.1525  0.2030
  680MOL0     C93720  10.793   6.229   8.983 -0.2226 -0.6479 -0.4605
  680MOL0     C93721  10.905   6.199   8.914  0.3046 -0.5975  0.1277
  680MOL0     C93722  10.949   6.056   8.887  0.0489  0.1540 -0.7146
  680MOL0     C93723  11.099   6.050   8.935  0.9567 -0.6380 -0.1401
  680MOL0     C93724  11.116   6.086   9.084 -0.2909 -0.5046  0.7276
  680MOL0     C93725  11.250   6.051   9.141  0.2758 -0.6386 -0.7213
  680MOL0     O93726  11.274   5.914   9.110 -0.3822  0.6914  0.2119
  680MOL0     C93727  11.396   5.850   9.140  0.0590  0.3383 -0.0523
  680MOL0     C93728  11.392   5.710   9.133  0.8008  0.1494 -0.4995
  680MOL0     C93729  11.498   5.625   9.172 -0.2291 -0.6384 -0.7610
  680MOL0     C93730  11.454   5.476   9.195 -0.5934 -0.3484  0.4034
  680MOL0     C93731  11.621   5.685   9.204  0.3105 -0.0168 -0.4535
  680MOL0     C93732  11.735   5.592   9.231  0.3043 -0.2626 -0.1393
  680MOL0     O93733  11.770   5.506   9.130  0.0593  0.0458  1.0131
  680MOL0     C93734  11.896   5.455   9.142 -0.6244 -0.0206 -0.3511
  680MOL0     C93735  11.927   5.333   9.202  0.2493  1.0089  0.0291
  680MOL0     C93736  12.059   5.289   9.205  0.5281  0.9602  0.3785
  680MOL0     C93737  12.170   5.366   9.154 -0.2005 -0.0133 -0.1200
  680MOL0     O93738  12.303   5.332   9.164  0.0819  0.5642 -0.2080
  680MOL0     C93739  12.332   5.200   9.122 -0.1279  0.4414  0.1217
  680MOL0     C93740  12.479   5.178   9.131 -0.0413  0.1614 -0.1746
  680MOL0     C93741  12.561   5.270   9.043  0.0899  0.4609 -0.1468
  680MOL0     C93742  12.711   5.218   9.049 -0.1928 -0.1970 -0.4151
  680MOL0     C93743  12.788   5.314   8.963 -0.2772 -0.3364  0.4218
  680MOL0     C93744  12.933   5.263   8.957  0.2181 -0.4042 -0.2882
  680MOL0     C93745  13.031   5.358   8.890 -0.2449  0.2366  0.5199
  680MOL0     C93746  13.170   5.296   8.877  0.9734 -0.4077 -0.2981
  680MOL0    Cl93747  13.280   5.376   8.769  0.0299 -0.3261  0.2754
  680MOL0     C93748  12.138   5.484   9.083  0.4952  0.2185 -0.6881
  680MOL0     C93749  12.001   5.527   9.086  0.6504  0.2563  0.1063
  680MOL0     O93750  11.800   5.618   9.326 -0.8535  0.0191  0.3086
  680MOL0     C93751  11.637   5.825   9.192  0.7961  0.7226 -0.6617
  680MOL0     C93752  11.518   5.907   9.171 -0.9419 -0.6124 -0.1865
  680MOL0     N93753  10.959   6.308   8.851  0.1429 -0.3419  0.1756
  680MOL0     N93754  10.893   6.415   8.895  0.3653 -0.2169 -0.6406
  680MOL0     C93755   9.879   6.368   8.158 -0.0287  0.2660  0.4030
  680MOL0     C93756   9.752   6.359   8.111  0.2477 -0.0276 -0.0826
  680MOL0     C93757   9.294   6.419   8.090 -0.6122  0.5734  0.7285
  680MOL0     C93758   9.296   6.354   7.969 -1.0086  0.3243 -0.4260
  680MOL0     C93759   9.202   6.368   7.873  0.2013 -0.2751  0.2115
  680MOL0     C93760   9.084   6.434   7.900 -0.9016 -0.1522  0.7831
  680MOL0     O93761   8.970   6.421   7.819  0.0701 -0.7079  0.0569
  680MOL0     C93762   8.971   6.364   7.691  0.4616 -0.4522  0.0594
  680MOL0     C93763   9.034   6.462   7.584 -0.4562  0.3503  0.0559
  680MOL0     C93764   9.038   6.616   7.611 -0.0887 -0.3202  0.2699
  680MOL0     C93765   9.076   6.703   7.492  0.0240  0.2577  0.6848
  680MOL0     C93766   8.988   6.689   7.374  0.0790  0.1721 -0.0934
  680MOL0     C93767   8.934   6.657   7.268  0.9717 -0.2288  0.8995
  680MOL0     C93768   9.072   6.488   8.023 -0.1131 -0.2497  0.0967
  680MOL0     C93769   9.173   6.480   8.122  0.4642  0.7084 -0.0130
  680MOL0     C93770   9.145   6.550   8.254  0.0792  0.0031 -0.3706
  680MOL0     H93771   9.590   6.588   8.295 -0.1363 -1.4847  0.6877
  680MOL0     H93772   9.814   6.603   8.405  0.6700 -0.4750 -0.3969
  680MOL0     H93773   9.987   6.429   8.518 -0.8193 -0.8039 -3.6361
  680MOL0     H93774  10.036   6.595   8.487 -1.8691  0.0340 -0.2712
  680MOL0     H93775  10.231   6.368   8.425 -0.9969 -2.4363  1.8800
  680MOL0     H93776  10.259   6.542   8.445  0.6218 -0.0873  1.0319
  680MOL0     H93777  10.159   6.505   8.692 -3.6562 -1.8772 -0.9183
  680MOL0     H93778  10.176   6.331   8.661  1.2990 -0.5020 -1.0951
  680MOL0     H93779  10.434   6.387   8.617  1.0428  3.0220 -0.9476
  680MOL0     H93780  10.395   6.552   8.640  0.5200 -0.4512  1.3131
  680MOL0     H93781  10.382   6.311   8.829  0.7165 -0.3233  0.1473
  680MOL0     H93782  10.314   6.466   8.876 -0.6809 -1.7984 -0.7001
  680MOL0     H93783  10.596   6.385   8.795  0.7434 -1.0259  0.7930
  680MOL0     H93784  10.570   6.555   8.826  2.5216  0.1905  2.1268
  680MOL0     H93785  10.520   6.335   9.036 -0.8378 -0.2561 -1.4243
  680MOL0     H93786  10.499   6.518   9.056  0.3333 -0.5847  0.9222
  680MOL0     H93787  10.727   6.553   9.054  0.1303  0.2103 -1.5336
  680MOL0     H93788  10.721   6.401   9.158 -2.0696 -3.0178 -0.6087
  680MOL0     H93789  10.727   6.170   9.046  0.9737 -1.3651  0.1597
  680MOL0     H93790  10.943   6.030   8.782  1.2090  0.2273 -0.8178
  680MOL0     H93791  10.892   5.985   8.947  0.8817  0.3024  0.2788
  680MOL0     H93792  11.114   5.943   8.916 -1.2070 -1.0517  0.2273
  680MOL0     H93793  11.158   6.120   8.875 -1.1121 -0.8552 -2.5630
  680MOL0     H93794  11.099   6.192   9.102  2.6238 -0.1990  2.2577
  680MOL0     H93795  11.046   6.026   9.143 -0.3554 -0.5283  0.6276
  680MOL0     H93796  11.339   6.102   9.103  1.2390  0.5242  2.7004
  680MOL0     H93797  11.241   6.058   9.250  1.8805 -2.4466 -0.4394
  680MOL0     H93798  11.301   5.670   9.090  1.0706 -0.3290 -0.6333
  680MOL0     H93799  11.447   5.419   9.101  0.5852 -0.5829  0.4510
  680MOL0     H93800  11.352   5.471   9.236  0.0611  0.4506  2.2139
  680MOL0     H93801  11.512   5.417   9.266  0.2097  0.7171  0.6460
  680MOL0     H93802  11.857   5.268   9.253 -0.9740  2.2835  0.0451
  680MOL0     H93803  12.069   5.188   9.245 -2.3390 -0.7292 -2.6062
  680MOL0     H93804  12.275   5.115   9.160  1.2421 -1.3478 -1.5960
  680MOL0     H93805  12.315   5.193   9.014  2.4252 -0.9466 -0.2761
  680MOL0     H93806  12.506   5.201   9.235  1.2811 -2.3853  0.1220
  680MOL0     H93807  12.493   5.070   9.120 -1.6517 -0.6852  3.9976
  680MOL0     H93808  12.550   5.376   9.069 -0.5300  0.3415  0.1009
  680MOL0     H93809  12.526   5.277   8.940  1.5507 -2.1969 -0.8922
  680MOL0     H93810  12.720   5.118   9.006  2.0062 -0.5439  0.7199
  680MOL0     H93811  12.760   5.220   9.146 -0.0687  2.1382 -0.4681
  680MOL0     H93812  12.751   5.314   8.860 -1.6877  1.7584  0.8632
  680MOL0     H93813  12.782   5.419   8.995 -4.1230  0.0303 -1.0470
  680MOL0     H93814  12.932   5.169   8.901  0.1461  0.5853 -2.0214
  680MOL0     H93815  12.963   5.237   9.059  0.4130 -0.0295 -0.2495
  680MOL0     H93816  13.042   5.459   8.930  5.6667  1.1179 -2.1979
  680MOL0     H93817  12.995   5.377   8.788 -0.5038 -0.4262  0.4811
  680MOL0     H93818  13.167   5.191   8.846  0.7152 -0.4818 -0.0246
  680MOL0     H93819  13.215   5.299   8.977 -2.0267 -1.6515  1.2243
  680MOL0     H93820  12.220   5.536   9.033  1.7240 -1.3083 -0.3253
  680MOL0     H93821  11.981   5.620   9.033  1.5621 -1.1087 -2.8738
  680MOL0     H93822  11.735   5.862   9.219  1.2163 -1.1051  0.4972
  680MOL0     H93823  11.538   6.014   9.178  1.2978 -1.0595  1.3613
  680MOL0     H93824   9.956   6.321   8.098 -0.2644  1.7108 -1.0935
  680MOL0     H93825   9.726   6.284   8.037  0.2656 -0.7877  0.6669
  680MOL0     H93826   9.378   6.296   7.927  0.3351  3.0770 -1.8757
  680MOL0     H93827   9.213   6.324   7.775 -0.9462 -1.2403  0.4894
  680MOL0     H93828   9.018   6.267   7.670  0.9612 -0.1577 -0.2276
  680MOL0     H93829   8.868   6.340   7.664  0.9273  0.3683 -2.8288
  680MOL0     H93830   8.980   6.429   7.494  4.3731 -4.3757 -1.6549
  680MOL0     H93831   9.136   6.424   7.579 -0.3573  0.2814  1.9723
  680MOL0     H93832   8.939   6.651   7.641  0.2036  0.3794  0.4468
  680MOL0     H93833   9.098   6.644   7.698  0.5187  0.6011 -0.4128
  680MOL0     H93834   9.176   6.675   7.457  0.1943  0.1821  1.2331
  680MOL0     H93835   9.090   6.811   7.509  2.5701  0.5296 -2.1316
  680MOL0     H93836   8.888   6.635   7.174 -2.1225  0.8231  2.0396
  680MOL0     H93837   8.978   6.539   8.045  0.5555  0.2308  1.9522
  680MOL0     H93838   9.195   6.647   8.262  0.8081 -0.1971 -2.0340
  680MOL0     H93839   9.037   6.569   8.262  0.2309  0.9933 -0.6148
  680MOL0     H93840   9.163   6.491   8.344 -1.3950 -0.3142 -0.2453
  681MOL0     O93841   0.024   2.923   4.142  0.0953 -0.3999 -0.6838
  681MOL0     C93842   0.085   2.969   4.241  0.5067  0.4913  0.7882
  681MOL0     O93843   0.220   2.996   4.240  0.1465  0.0013  0.0719
  681MOL0     C93844   0.290   2.969   4.124  0.1389  0.6307 -0.0214
  681MOL0     C93845   0.244   3.013   3.996  0.1935 -0.0890  0.0144
  681MOL0     C93846   0.313   2.978   3.881 -0.7148  0.3898  0.2657
  681MOL0     C93847   0.429   2.894   3.893 -0.2165 -0.0823  1.0896
  681MOL0     O93848   0.510   2.865   3.786  0.0636  0.4008  0.5870
  681MOL0     C93849   0.532   2.964   3.680 -0.1644  0.9464 -0.2441
  681MOL0     C93850   0.569   3.097   3.731  0.6834 -0.1147  0.7545
  681MOL0     C93851   0.697   3.103   3.815  0.7773 -0.3218 -0.2476
  681MOL0     C93852   0.828   3.070   3.744  1.0372 -0.3869 -0.4416
  681MOL0     C93853   0.952   3.072   3.830  0.6873  0.4158  0.1276
  681MOL0     C93854   0.946   2.948   3.911 -0.1403  0.4159 -1.4416
  681MOL0     C93855   1.093   2.913   3.954  0.3782 -0.0583  0.0110
  681MOL0     C93856   1.094   2.794   4.048  0.1919  0.6223 -0.3664
  681MOL0     N93857   1.075   2.665   3.978  1.3073 -0.1775  0.4450
  681MOL0     C93858   0.982   2.567   4.002 -0.4513  0.6203 -0.4928
  681MOL0     C93859   1.024   2.463   3.930 -0.5213  0.6059 -0.4337
  681MOL0     C93860   0.968   2.331   3.921  0.0570  0.3508 -0.0591
  681MOL0     C93861   1.020   2.232   4.026  0.8799  0.1769 -0.4771
  681MOL0     C93862   0.908   2.130   4.056 -0.0870 -0.4757  0.5598
  681MOL0     C93863   0.954   2.002   4.122 -0.1675 -0.2989 -0.1538
  681MOL0     O93864   1.027   2.032   4.247  0.6746  0.2801 -0.2183
  681MOL0     C93865   1.159   2.004   4.263 -0.4147  0.2003  0.0877
  681MOL0     C93866   1.252   1.951   4.164 -0.4505  0.0282 -0.7747
  681MOL0     C93867   1.388   1.916   4.197  0.8426  0.5223  0.0528
  681MOL0     C93868   1.466   1.858   4.084  0.2571  0.0110  0.2617
  681MOL0     C93869   1.443   1.954   4.320 -0.0301 -0.8249  0.0935
  681MOL0     C93870   1.581   1.929   4.363 -0.3827 -0.1344  0.0248
  681MOL0     O93871   1.669   1.854   4.281 -0.0194  0.3036 -0.5464
  681MOL0     C93872   1.803   1.870   4.306  0.1461 -0.0862 -0.2926
  681MOL0     C93873   1.852   1.986   4.248 -0.1377  0.2813  0.0019
  681MOL0     C93874   1.984   2.023   4.263  0.0805 -0.1958 -0.5497
  681MOL0     C93875   2.063   1.940   4.336 -0.6351 -0.2707  0.5221
  681MOL0     O93876   2.200   1.958   4.320  0.1192 -0.6348 -0.3480
  681MOL0     C93877   2.275   1.904   4.425  0.6017 -0.2762  0.3698
  681MOL0     C93878   2.404   1.978   4.436 -0.5808 -0.1964  0.2538
  681MOL0     C93879   2.401   2.132   4.481  0.1632  0.4922 -0.4342
  681MOL0     C93880   2.514   2.199   4.415  0.1035 -0.3026  0.6451
  681MOL0     C93881   2.504   2.345   4.445  0.6034  0.0357  0.3091
  681MOL0     C93882   2.639   2.406   4.447  0.3469 -0.9626  0.1517
  681MOL0     C93883   2.703   2.406   4.311  0.4191  0.0015  0.5366
  681MOL0     C93884   2.817   2.504   4.309  0.0284 -0.6147  0.9223
  681MOL0    Cl93885   2.954   2.434   4.380 -0.4889  0.2305 -0.5787
  681MOL0     C93886   2.009   1.829   4.404  0.3610  0.5088  1.3938
  681MOL0     C93887   1.878   1.796   4.397  0.6365 -0.2643 -0.2426
  681MOL0     O93888   1.619   1.977   4.468 -0.0861 -0.3232 -0.8134
  681MOL0     C93889   1.354   2.008   4.409 -0.0154 -0.4531 -0.1165
  681MOL0     C93890   1.217   2.039   4.389 -0.2117  0.0088  0.0834
  681MOL0     N93891   1.138   2.509   3.854 -0.2842 -0.1106 -0.7245
  681MOL0     N93892   1.172   2.619   3.900 -0.1142  0.5700  0.0289
  681MOL0     C93893   0.472   2.850   4.016  1.6246  0.2579 -0.6140
  681MOL0     C93894   0.399   2.877   4.134 -0.7300 -0.1750 -0.4453
  681MOL0     C93895   0.019   3.013   4.368 -0.5715  0.5621  0.5382
  681MOL0     C93896   0.108   3.030   4.477 -0.8472 -0.0409  0.0869
  681MOL0     C93897   0.057   3.059   4.601 -0.2666  0.1360  0.3577
  681MOL0     C93898  -0.078   3.082   4.622 -0.7500 -0.0914  0.9954
  681MOL0     O93899  -0.113   3.137   4.742 -0.0547  0.0807  1.0206
  681MOL0     C93900  -0.251   3.162   4.765 -0.0563 -0.4189 -0.5175
  681MOL0     C93901  -0.331   3.035   4.802  0.7370 -0.2604  0.6062
  681MOL0     C93902  -0.270   2.940   4.907  0.1353  1.0458 -0.1408
  681MOL0     C93903  -0.371   2.835   4.953 -0.1817 -0.0702  0.5631
  681MOL0     C93904  -0.295   2.751   5.053  0.0432  0.2478  0.2367
  681MOL0     C93905  -0.243   2.701   5.152  0.0708  0.1327 -0.5254
  681MOL0     C93906  -0.166   3.061   4.523 -0.5920 -0.2063  0.9961
  681MOL0     C93907  -0.122   3.040   4.385  0.1902 -0.0555 -0.5659
  681MOL0     C93908  -0.219   3.053   4.269 -0.3142  0.6476  0.4587
  681MOL0     H93909   0.156   3.076   3.998 -0.9078 -1.5662  0.9121
  681MOL0     H93910   0.281   3.003   3.780 -0.7908 -1.4773 -0.2051
  681MOL0     H93911   0.448   2.967   3.610  0.5140  2.4093 -1.0494
  681MOL0     H93912   0.612   2.928   3.615 -2.3547 -1.9919 -1.5060
  681MOL0     H93913   0.578   3.167   3.647  1.6560 -3.8666 -2.5291
  681MOL0     H93914   0.486   3.138   3.789 -0.6139 -1.0142 -0.4069
  681MOL0     H93915   0.703   3.208   3.845  1.6238 -0.7302  1.0620
  681MOL0     H93916   0.680   3.044   3.905  1.6729 -0.5492 -0.2214
  681MOL0     H93917   0.811   2.971   3.703 -0.6188 -0.0722 -0.6039
  681MOL0     H93918   0.830   3.128   3.651 -0.0629 -1.1121 -0.9375
  681MOL0     H93919   0.950   3.166   3.886  0.3044  1.1392 -1.0447
  681MOL0     H93920   1.036   3.058   3.761  0.1859 -0.3079 -0.3542
  681MOL0     H93921   0.879   2.945   3.997  2.1719  0.7930  0.4572
  681MOL0     H93922   0.912   2.861   3.854 -1.4821  0.0821 -0.1826
  681MOL0     H93923   1.121   3.007   4.002 -4.2311  0.4267  2.2543
  681MOL0     H93924   1.171   2.902   3.877  1.7369  3.6931  0.6281
  681MOL0     H93925   1.185   2.785   4.108 -0.7930 -1.3518  0.9468
  681MOL0     H93926   1.018   2.804   4.126 -0.6278 -0.5729 -0.9745
  681MOL0     H93927   0.909   2.571   4.082 -0.1333  1.5013 -0.2358
  681MOL0     H93928   0.992   2.286   3.825 -1.6762 -2.6210  0.7828
  681MOL0     H93929   0.860   2.332   3.933 -0.1538 -0.1372 -1.7303
  681MOL0     H93930   1.106   2.180   3.982 -1.0888 -2.2396 -1.6549
  681MOL0     H93931   1.044   2.285   4.119 -1.0328 -0.6753  0.5439
  681MOL0     H93932   0.838   2.187   4.118  1.2989  0.8720  0.9524
  681MOL0     H93933   0.843   2.113   3.970 -0.9992  2.6646  0.5036
  681MOL0     H93934   0.864   1.947   4.148  0.3264 -0.3988  1.4385
  681MOL0     H93935   1.012   1.939   4.054  0.0430 -2.8819  2.2554
  681MOL0     H93936   1.222   1.939   4.061  0.0601  3.3720 -1.4186
  681MOL0     H93937   1.395   1.843   4.002  0.7517 -0.5971 -0.0573
  681MOL0     H93938   1.510   1.758   4.089  1.7744  0.4522 -2.3701
  681MOL0     H93939   1.545   1.931   4.065  0.9427 -0.6402  0.5476
  681MOL0     H93940   1.787   2.056   4.197 -0.1390  1.1375  1.1421
  681MOL0     H93941   2.020   2.115   4.218  2.6548 -0.1364  1.4108
  681MOL0     H93942   2.220   1.917   4.519 -2.0989 -0.5387 -1.0597
  681MOL0     H93943   2.315   1.804   4.406  2.3224  0.3925  0.3513
  681MOL0     H93944   2.470   1.917   4.498  0.0851 -1.0328 -1.2137
  681MOL0     H93945   2.452   1.980   4.337  0.8791 -2.0082  0.8578
  681MOL0     H93946   2.414   2.137   4.589  1.1070 -1.0013 -0.4470
  681MOL0     H93947   2.300   2.172   4.467 -0.2549 -0.8920 -1.6287
  681MOL0     H93948   2.512   2.195   4.305 -1.3757  1.4362  0.5462
  681MOL0     H93949   2.607   2.149   4.444 -0.3383 -2.9831 -2.0237
  681MOL0     H93950   2.445   2.391   4.365 -1.6038 -1.7582  0.8137
  681MOL0     H93951   2.462   2.368   4.544  3.9843  0.0148  1.8865
  681MOL0     H93952   2.711   2.350   4.507  1.3239 -0.2718 -0.3443
  681MOL0     H93953   2.636   2.509   4.482  1.1024 -1.4658  1.7552
  681MOL0     H93954   2.638   2.423   4.225  1.4216  0.5541 -0.1258
  681MOL0     H93955   2.736   2.304   4.287  0.3966  0.3947 -1.2526
  681MOL0     H93956   2.792   2.604   4.345  1.8860 -0.1606  1.0184
  681MOL0     H93957   2.851   2.513   4.205  0.2395 -1.9634  0.8531
  681MOL0     H93958   2.078   1.763   4.456  2.4387  0.6560 -0.9983
  681MOL0     H93959   1.839   1.702   4.435 -0.6570  1.1013  2.0098
  681MOL0     H93960   1.401   2.042   4.501  0.2772  2.0062 -1.1003
  681MOL0     H93961   1.165   2.095   4.467  1.8144  0.5800  1.0890
  681MOL0     H93962   0.565   2.794   4.020  1.2031 -0.4063  0.2662
  681MOL0     H93963   0.441   2.848   4.230  0.1623  0.0623 -0.7532
  681MOL0     H93964   0.213   3.003   4.470 -0.8971 -0.2519  0.1632
  681MOL0     H93965   0.119   3.076   4.688  0.0118  1.3322 -0.0537
  681MOL0     H93966  -0.243   3.218   4.859 -1.5980  0.6059 -0.9621
  681MOL0     H93967  -0.319   3.207   4.692 -3.3161 -3.1948  0.5149
  681MOL0     H93968  -0.350   2.971   4.715  0.8795  2.5460 -1.6696
  681MOL0     H93969  -0.430   3.069   4.832  0.3517 -0.8352  0.0112
  681MOL0     H93970  -0.192   2.882   4.858 -0.5186  1.4527 -1.7415
  681MOL0     H93971  -0.237   3.000   4.992  1.5512  1.7568 -1.1532
  681MOL0     H93972  -0.400   2.772   4.868 -0.0424 -0.6342  0.9304
  681MOL0     H93973  -0.453   2.886   5.003  0.9914  2.7571 -0.2214
  681MOL0     H93974  -0.206   2.647   5.237 -1.1317 -1.7208 -1.1046
  681MOL0     H93975  -0.273   3.074   4.534 -0.7761 -1.2448  0.5387
  681MOL0     H93976  -0.225   2.959   4.213 -0.3932  2.9984 -3.9019
  681MOL0     H93977  -0.317   3.085   4.306  0.2561  1.7345  1.0779
  681MOL0     H93978  -0.188   3.129   4.197 -1.0746  0.0753 -0.4846
  682MOL0     O93979   1.051   7.865   3.718  0.6259 -0.4664  0.0618
  682MOL0     C93980   1.019   7.848   3.598  0.4254  0.9004  0.3617
  682MOL0     O93981   1.062   7.923   3.494 -0.1009  0.1984 -0.2923
  682MOL0     C93982   1.167   8.004   3.511 -0.5646  0.2027  0.3109
  682MOL0     C93983   1.290   7.964   3.582  0.6670 -0.5317  0.3621
  682MOL0     C93984   1.389   8.060   3.603 -0.2319 -0.1414 -0.1729
  682MOL0     C93985   1.370   8.190   3.553 -0.3858  0.7412 -0.3070
  682MOL0     O93986   1.480   8.269   3.552  0.0232 -0.1206  0.2216
  682MOL0     C93987   1.559   8.283   3.664  0.3199 -0.1051  0.8151
  682MOL0     C93988   1.648   8.407   3.654  0.6346  1.2831 -0.0994
  682MOL0     C93989   1.607   8.528   3.729 -0.1489 -0.9002  0.6809
  682MOL0     C93990   1.704   8.638   3.699 -0.0789 -0.6171 -0.2254
  682MOL0     C93991   1.694   8.762   3.789 -0.3530 -1.1222  0.0581
  682MOL0     C93992   1.806   8.868   3.741 -0.5182 -0.1169  0.7274
  682MOL0     C93993   1.773   9.000   3.802  0.2724  0.3189 -0.1293
  682MOL0     C93994   1.881   9.095   3.828 -0.2654 -0.2676 -0.2243
  682MOL0     N93995   1.968   9.067   3.942  0.5590  0.5655  0.4932
  682MOL0     C93996   2.052   8.966   3.961 -0.0894 -0.1517 -0.0823
  682MOL0     C93997   2.127   8.998   4.064 -0.5939 -0.3664  0.1668
  682MOL0     C93998   2.248   8.921   4.104 -0.9315  0.3817  0.9842
  682MOL0     C93999   2.354   8.950   3.998 -0.8772  0.7376 -0.5114
  682MOL0     C94000   2.491   8.897   4.051  0.0088 -0.1815 -0.3363
  682MOL0     C94001   2.599   8.966   3.963 -0.1061  0.5506 -0.2640
  682MOL0     O94002   2.633   8.888   3.851 -0.0993  0.3201  0.6893
  682MOL0     C94003   2.713   8.775   3.879  0.5588 -1.1010 -0.6812
  682MOL0     C94004   2.815   8.775   3.978 -0.0420  1.1074  0.3000
  682MOL0     C94005   2.910   8.668   3.980  0.5821  0.1834  0.3640
  682MOL0     C94006   3.023   8.684   4.087  0.2958 -0.6338  0.7035
  682MOL0     C94007   2.913   8.558   3.890  0.5809 -0.5352  0.2995
  682MOL0     C94008   3.001   8.450   3.871 -0.8885  0.6070  0.1474
  682MOL0     O94009   3.068   8.410   3.980  0.2600  0.0775  0.1658
  682MOL0     C94010   3.178   8.336   3.973 -0.0267  0.4810  0.6583
  682MOL0     C94011   3.167   8.199   3.963 -0.0705  0.5567 -0.5791
  682MOL0     C94012   3.299   8.130   3.956  0.5144  0.2419  0.0191
  682MOL0     C94013   3.421   8.197   3.952 -0.4964 -0.4196  0.0018
  682MOL0     O94014   3.536   8.117   3.948 -0.2550 -0.2012 -0.0560
  682MOL0     C94015   3.651   8.177   3.887 -0.3714  0.2232  0.2858
  682MOL0     C94016   3.765   8.197   3.991 -0.4418  0.4332 -0.4855
  682MOL0     C94017   3.802   8.066   4.068  0.2053 -1.2272 -0.0349
  682MOL0     C94018   3.953   8.066   4.115  0.9501  0.3569  0.9903
  682MOL0     C94019   4.060   8.023   4.007 -0.0319  0.7165  0.2004
  682MOL0     C94020   4.016   7.881   3.946 -0.4925  0.1673  0.6055
  682MOL0     C94021   3.955   7.907   3.805 -0.0059 -0.2750 -0.4331
  682MOL0     C94022   3.925   7.786   3.724  0.7605 -0.7142  0.4307
  682MOL0    Cl94023   4.080   7.727   3.677  0.0470  0.1622  0.0853
  682MOL0     C94024   3.426   8.339   3.969  0.6372 -1.3283  1.2834
  682MOL0     C94025   3.304   8.404   3.977 -0.3582  0.4255 -0.0049
  682MOL0     O94026   3.014   8.400   3.753 -1.0782  0.1263  0.1324
  682MOL0     C94027   2.810   8.560   3.794  0.5541  1.0710  0.1189
  682MOL0     C94028   2.714   8.666   3.785 -0.2333 -0.1738 -0.0035
  682MOL0     N94029   2.081   9.118   4.113  0.5094  0.2824  0.3148
  682MOL0     N94030   1.983   9.152   4.048  0.6857 -0.0581  0.5478
  682MOL0     C94031   1.256   8.223   3.481 -0.0854 -0.4197  0.3898
  682MOL0     C94032   1.159   8.127   3.456  0.7368  0.3491 -0.7825
  682MOL0     C94033   0.902   7.754   3.554  0.4507  0.0777 -0.8235
  682MOL0     C94034   0.846   7.673   3.657  0.1975  0.2087  0.4177
  682MOL0     C94035   0.750   7.579   3.623  0.3727  0.5877 -0.4548
  682MOL0     C94036   0.684   7.569   3.507 -0.4902 -0.2738 -0.8131
  682MOL0     O94037   0.582   7.486   3.483  0.0251 -0.2345 -0.1658
  682MOL0     C94038   0.557   7.374   3.575  0.2537 -0.0257  0.4013
  682MOL0     C94039   0.425   7.299   3.526  0.5431  0.2017  0.0222
  682MOL0     C94040   0.447   7.234   3.389  0.0278 -0.3061 -0.1946
  682MOL0     C94041   0.391   7.323   3.268 -0.1373 -0.2425  0.3412
  682MOL0     C94042   0.242   7.332   3.258 -0.4212  0.2030  0.1737
  682MOL0     C94043   0.121   7.324   3.258 -0.2763 -1.5815 -0.1214
  682MOL0     C94044   0.724   7.667   3.415  0.4759 -0.3201  0.7305
  682MOL0     C94045   0.838   7.748   3.426 -0.1508 -0.2306  0.1011
  682MOL0     C94046   0.896   7.827   3.305  0.4845 -0.6742  0.3802
  682MOL0     H94047   1.301   7.872   3.638 -2.2842  0.0901  2.1874
  682MOL0     H94048   1.479   8.033   3.657  1.5939  2.9608 -1.3685
  682MOL0     H94049   1.628   8.200   3.681 -1.1301 -1.4134  0.4954
  682MOL0     H94050   1.496   8.285   3.753 -1.1439  0.7197 -0.1857
  682MOL0     H94051   1.748   8.376   3.685 -0.0770 -1.5261 -0.3977
  682MOL0     H94052   1.659   8.438   3.550 -0.5859 -0.5570 -0.8317
  682MOL0     H94053   1.504   8.559   3.709  0.2604  0.6512  0.8463
  682MOL0     H94054   1.616   8.507   3.835 -0.7414  1.9129  1.3778
  682MOL0     H94055   1.805   8.601   3.718  1.2281  2.3110 -0.9048
  682MOL0     H94056   1.701   8.657   3.591  0.1232 -0.9188 -0.2851
  682MOL0     H94057   1.700   8.741   3.896  0.3374 -0.2311  0.2041
  682MOL0     H94058   1.598   8.808   3.764 -0.0534 -0.9113 -0.7642
  682MOL0     H94059   1.903   8.827   3.771  0.2214 -0.1311 -1.5484
  682MOL0     H94060   1.803   8.881   3.633 -0.4611 -1.3683  0.5591
  682MOL0     H94061   1.719   8.990   3.896  0.4985  1.7362  0.1786
  682MOL0     H94062   1.698   9.043   3.734 -0.5186  2.1116  1.7920
  682MOL0     H94063   1.944   9.123   3.743  1.2244  5.7252  2.3029
  682MOL0     H94064   1.834   9.189   3.859 -0.5893  0.3261 -2.3224
  682MOL0     H94065   2.060   8.888   3.885  0.6494 -0.7109  0.5578
  682MOL0     H94066   2.233   8.813   4.112  3.3010 -0.6069 -1.3449
  682MOL0     H94067   2.281   8.969   4.196 -0.2662  3.0562 -0.5289
  682MOL0     H94068   2.332   8.908   3.899  0.7913 -1.1748 -0.1340
  682MOL0     H94069   2.349   9.059   3.998  0.2526  0.8004 -0.7581
  682MOL0     H94070   2.516   8.907   4.157  0.4372 -1.3978 -0.3100
  682MOL0     H94071   2.490   8.789   4.036 -1.2322 -0.6195  2.3240
  682MOL0     H94072   2.548   9.056   3.928  1.0466  1.8612  1.2597
  682MOL0     H94073   2.685   9.007   4.018  1.6060 -1.3027 -1.4003
  682MOL0     H94074   2.839   8.858   4.043 -1.3802  0.4553  1.7004
  682MOL0     H94075   3.121   8.678   4.039 -0.9088 -0.8968 -1.9472
  682MOL0     H94076   3.025   8.619   4.174  0.2785 -1.3278  0.1910
  682MOL0     H94077   3.020   8.778   4.144 -0.7244 -1.9150  2.8739
  682MOL0     H94078   3.077   8.140   3.971 -1.5683  2.7027 -0.7248
  682MOL0     H94079   3.298   8.022   3.961 -1.0158  0.2010 -0.5230
  682MOL0     H94080   3.697   8.106   3.817  0.7454  0.3738  0.8511
  682MOL0     H94081   3.632   8.264   3.822  0.3843 -0.5348 -1.0020
  682MOL0     H94082   3.853   8.237   3.940  0.5470  2.6205  2.6088
  682MOL0     H94083   3.734   8.270   4.066 -1.2917 -1.9061  1.5744
  682MOL0     H94084   3.771   7.980   4.008 -3.2848  0.5907 -1.1110
  682MOL0     H94085   3.729   8.061   4.150  0.5255  3.4570  0.8022
  682MOL0     H94086   3.953   7.995   4.198 -0.5730  0.7547  1.3641
  682MOL0     H94087   3.984   8.162   4.158 -1.6397  1.7203  0.1111
  682MOL0     H94088   4.080   8.099   3.931 -0.5237 -2.2333 -3.1632
  682MOL0     H94089   4.156   8.009   4.058 -1.4193 -3.3720  2.1540
  682MOL0     H94090   3.943   7.842   4.019 -1.7893  0.5928 -0.4267
  682MOL0     H94091   4.103   7.814   3.952  0.4978  0.9076 -3.1432
  682MOL0     H94092   4.033   7.962   3.752 -1.4948  2.0161 -0.3584
  682MOL0     H94093   3.865   7.968   3.817  0.4531  0.1841  0.8689
  682MOL0     H94094   3.870   7.814   3.633  0.4231 -1.2946  0.4484
  682MOL0     H94095   3.860   7.718   3.780 -0.6534 -0.3612 -0.7073
  682MOL0     H94096   3.509   8.409   3.973 -0.4992  0.3482 -1.2750
  682MOL0     H94097   3.303   8.513   3.981  1.4046  0.4116  1.8800
  682MOL0     H94098   2.796   8.485   3.718 -2.9002  0.9890  0.6319
  682MOL0     H94099   2.641   8.664   3.706  0.0487 -2.8812 -0.2874
  682MOL0     H94100   1.247   8.324   3.440  0.0364 -1.2833 -1.9150
  682MOL0     H94101   1.070   8.147   3.397  0.6341 -2.3474 -1.6710
  682MOL0     H94102   0.874   7.684   3.761  0.1209  3.7539  0.1867
  682MOL0     H94103   0.722   7.507   3.699  0.0856  1.3171  0.1427
  682MOL0     H94104   0.638   7.301   3.571 -0.4151 -0.7743  0.0230
  682MOL0     H94105   0.546   7.414   3.676 -0.1279  1.8617 -0.3390
  682MOL0     H94106   0.337   7.365   3.525 -0.5324 -1.1584  1.0776
  682MOL0     H94107   0.408   7.219   3.599 -1.4511  0.9993  0.4934
  682MOL0     H94108   0.556   7.225   3.378 -0.0508 -1.0387 -0.4043
  682MOL0     H94109   0.413   7.130   3.379 -0.2156 -0.2443 -0.0024
  682MOL0     H94110   0.428   7.285   3.172  2.0879 -0.4108  1.1990
  682MOL0     H94111   0.433   7.424   3.275 -0.5788 -0.1264  1.4667
  682MOL0     H94112   0.019   7.330   3.291 -0.6063  3.7470 -1.2246
  682MOL0     H94113   0.673   7.680   3.320 -0.1129  1.7501  1.2828
  682MOL0     H94114   1.002   7.814   3.281  0.5640 -0.9993  0.8845
  682MOL0     H94115   0.844   7.814   3.210  1.2247  2.8262 -0.6280
  682MOL0     H94116   0.873   7.931   3.327 -0.1622 -0.3020 -1.8448
  683MOL0     O94117   9.699   3.511   4.618  0.4064  0.2843 -0.5994
  683MOL0     C94118   9.584   3.467   4.586  0.2286 -0.3020 -0.4076
  683MOL0     O94119   9.527   3.343   4.623 -0.3241  0.6636  0.1971
  683MOL0     C94120   9.582   3.264   4.717 -0.7264  0.7065 -0.1814
  683MOL0     C94121   9.714   3.231   4.735  0.6899 -0.0939  0.3039
  683MOL0     C94122   9.767   3.147   4.841 -0.3840 -0.6869  0.4167
  683MOL0     C94123   9.671   3.093   4.932 -0.5260 -0.0830  0.7858
  683MOL0     O94124   9.709   3.003   5.031  0.3212 -0.4236  0.1114
  683MOL0     C94125   9.832   3.002   5.103  0.3776 -0.5518 -0.1199
  683MOL0     C94126   9.842   3.117   5.199 -0.2247 -0.7427 -1.0316
  683MOL0     C94127   9.979   3.128   5.268 -0.1255  0.7012  1.0152
  683MOL0     C94128  10.004   3.271   5.318  0.5533  0.4730 -0.3620
  683MOL0     C94129  10.125   3.269   5.419  0.0855  0.4174  0.3823
  683MOL0     C94130  10.089   3.231   5.569  0.9133 -0.1036  0.2255
  683MOL0     C94131   9.950   3.283   5.612 -0.1713 -0.3357  0.4086
  683MOL0     C94132   9.914   3.269   5.759  0.4857  0.3096  0.7367
  683MOL0     N94133   9.901   3.122   5.786 -0.5429  0.2533  0.4439
  683MOL0     C94134   9.804   3.045   5.730  0.5090  0.7488  0.3858
  683MOL0     C94135   9.845   2.915   5.747  0.5088  0.1682  0.4718
  683MOL0     C94136   9.761   2.794   5.716  0.6891  0.6216  1.1465
  683MOL0     C94137   9.756   2.766   5.568 -0.0179 -0.1874 -0.0736
  683MOL0     C94138   9.611   2.726   5.529 -0.0913  0.1237  0.8615
  683MOL0     C94139   9.606   2.714   5.375  0.1588 -0.1466 -0.0581
  683MOL0     O94140   9.475   2.674   5.331 -0.4856  0.0361 -0.5832
  683MOL0     C94141   9.436   2.714   5.206 -0.4205 -0.1394 -0.5927
  683MOL0     C94142   9.298   2.711   5.181 -0.4135  1.9792  0.1651
  683MOL0     C94143   9.247   2.771   5.059  0.0246 -0.2017  0.2704
  683MOL0     C94144   9.104   2.762   5.032  0.2887 -0.0295  0.4193
  683MOL0     C94145   9.336   2.809   4.963  0.8637 -1.1032 -0.0439
  683MOL0     C94146   9.292   2.874   4.837 -0.7411 -0.3386 -0.0478
  683MOL0     O94147   9.353   2.826   4.725 -0.2272  0.4355 -0.3706
  683MOL0     C94148   9.312   2.883   4.608  0.5697 -0.2731  0.1665
  683MOL0     C94149   9.207   2.829   4.533  0.1618 -0.1533 -0.6024
  683MOL0     C94150   9.178   2.890   4.412 -0.3132 -0.1558 -0.0955
  683MOL0     C94151   9.266   2.986   4.355 -0.0642  0.0208 -1.0051
  683MOL0     O94152   9.276   3.035   4.222  0.1021 -0.8008  0.3472
  683MOL0     C94153   9.178   2.979   4.129  0.1413  0.8078 -0.8714
  683MOL0     C94154   9.222   2.991   3.983 -0.0703 -0.0971 -0.5000
  683MOL0     C94155   9.353   2.904   3.970  0.3665  0.7185 -0.4504
  683MOL0     C94156   9.370   2.867   3.814 -0.0352 -0.7992  0.0445
  683MOL0     C94157   9.490   2.776   3.782 -0.2067 -0.5092  1.2717
  683MOL0     C94158   9.617   2.864   3.786 -0.0202 -0.0113 -0.0146
  683MOL0     C94159   9.736   2.779   3.812 -0.3086  0.2436 -0.2248
  683MOL0     C94160   9.865   2.836   3.759 -0.3187 -0.7033 -0.3030
  683MOL0    Cl94161   9.881   3.000   3.846 -0.0739  0.3082 -0.0725
  683MOL0     C94162   9.370   3.043   4.427 -0.7389 -0.0094 -0.5743
  683MOL0     C94163   9.392   2.987   4.555  0.4159  0.1855 -0.7415
  683MOL0     O94164   9.217   2.970   4.834 -0.2107 -0.3418 -0.2690
  683MOL0     C94165   9.470   2.803   4.977 -0.3568 -0.8115 -0.7036
  683MOL0     C94166   9.518   2.757   5.101  0.1359 -0.3437 -0.9323
  683MOL0     N94167   9.964   2.919   5.817 -0.3326 -0.2667 -0.4329
  683MOL0     N94168   9.999   3.036   5.827  0.6928 -0.3259 -0.6438
  683MOL0     C94169   9.541   3.135   4.924  0.2182  0.1438 -0.5624
  683MOL0     C94170   9.502   3.205   4.808  0.0438 -0.1558 -0.0468
  683MOL0     C94171   9.499   3.562   4.510  0.2628  0.1327  0.2641
  683MOL0     C94172   9.502   3.700   4.539 -0.2325 -0.8690 -0.0165
  683MOL0     C94173   9.415   3.786   4.486 -0.2466  0.9463 -0.4417
  683MOL0     C94174   9.335   3.754   4.380 -0.4661 -0.8732  0.3342
  683MOL0     O94175   9.247   3.835   4.329 -0.1495  0.3660  0.4692
  683MOL0     C94176   9.288   3.969   4.318  0.4868 -0.2198 -0.4760
  683MOL0     C94177   9.221   4.040   4.209 -0.7761 -0.3796  0.2880
  683MOL0     C94178   9.071   4.053   4.228 -0.0011 -0.4436  0.7038
  683MOL0     C94179   9.008   4.129   4.105  0.0461  0.4094  0.2439
  683MOL0     C94180   9.015   4.271   4.097  0.0204  0.3555  0.0583
  683MOL0     C94181   9.009   4.394   4.079  0.3276  0.4213  0.0330
  683MOL0     C94182   9.336   3.622   4.333 -0.3133 -0.0385  0.2912
  683MOL0     C94183   9.415   3.526   4.397 -0.2540  0.2667  0.1990
  683MOL0     C94184   9.393   3.380   4.352  0.1640  0.7155 -0.1617
  683MOL0     H94185   9.788   3.270   4.665 -0.7738  3.0751  0.3437
  683MOL0     H94186   9.872   3.125   4.852 -0.2774 -0.7118 -0.5315
  683MOL0     H94187   9.922   2.992   5.041  1.6833  3.1632  0.9057
  683MOL0     H94188   9.833   2.913   5.168 -1.1306 -0.9495 -0.6061
  683MOL0     H94189   9.811   3.209   5.148  0.9576 -0.9350 -2.1422
  683MOL0     H94190   9.771   3.102   5.281 -0.3384  0.5306 -0.8668
  683MOL0     H94191   9.963   3.047   5.339  0.2179  0.9639  1.4055
  683MOL0     H94192  10.062   3.111   5.199  0.2828  2.3892  1.0341
  683MOL0     H94193  10.030   3.322   5.224  0.9013  0.6857 -0.1478
  683MOL0     H94194   9.909   3.309   5.358  0.6808 -1.2392  1.7033
  683MOL0     H94195  10.172   3.367   5.423  2.5358 -0.6908  0.7930
  683MOL0     H94196  10.207   3.207   5.381  1.2945  1.3455  1.4023
  683MOL0     H94197  10.092   3.123   5.582 -3.0249 -0.6161 -1.7123
  683MOL0     H94198  10.171   3.285   5.617 -1.0099  4.6821 -1.3055
  683MOL0     H94199   9.879   3.231   5.546  1.0860  0.7218 -1.8965
  683MOL0     H94200   9.952   3.390   5.589  1.2411 -0.2912  0.6683
  683MOL0     H94201   9.988   3.317   5.823 -0.0956 -0.3173  1.9297
  683MOL0     H94202   9.822   3.312   5.802  1.0496  1.8723  0.4299
  683MOL0     H94203   9.715   3.071   5.673  1.4921  0.3275 -1.4181
  683MOL0     H94204   9.666   2.818   5.765  1.1267  1.8065  1.4304
  683MOL0     H94205   9.800   2.701   5.760  0.7502 -0.7705 -1.6677
  683MOL0     H94206   9.781   2.856   5.511  0.5908 -1.1256 -1.3231
  683MOL0     H94207   9.831   2.687   5.556 -0.5433 -1.0457  1.8661
  683MOL0     H94208   9.582   2.631   5.575 -1.0758 -1.3792 -2.5368
  683MOL0     H94209   9.548   2.806   5.567  0.4522  1.4878 -0.9804
  683MOL0     H94210   9.648   2.810   5.342  4.3977 -0.0873  4.3244
  683MOL0     H94211   9.669   2.633   5.336 -0.5730 -1.5314  1.4981
  683MOL0     H94212   9.241   2.664   5.259  2.3021 -0.3977  0.8994
  683MOL0     H94213   9.052   2.858   5.035  0.3365  0.0016  0.2813
  683MOL0     H94214   9.056   2.691   5.100 -2.2736  1.4813  0.3042
  683MOL0     H94215   9.074   2.716   4.938 -2.5564  1.9014  0.2924
  683MOL0     H94216   9.135   2.759   4.574  0.3948 -1.3973 -2.1962
  683MOL0     H94217   9.087   2.866   4.358  0.2400  0.1514 -1.2100
  683MOL0     H94218   9.178   2.871   4.145  0.0257  1.1424  1.8742
  683MOL0     H94219   9.079   3.025   4.136  1.2550  3.1302  0.9223
  683MOL0     H94220   9.137   2.955   3.924 -0.8276 -3.2932  2.2050
  683MOL0     H94221   9.233   3.095   3.951 -4.1720  1.1402  1.4523
  683MOL0     H94222   9.352   2.806   4.019  1.9696 -0.5422 -2.7476
  683MOL0     H94223   9.433   2.964   4.015 -0.9053  0.7331  1.9561
  683MOL0     H94224   9.375   2.954   3.747  2.0541 -1.9474 -1.3985
  683MOL0     H94225   9.281   2.810   3.784  0.2821 -1.3109  0.0795
  683MOL0     H94226   9.500   2.700   3.859  0.2576 -1.7514  0.0260
  683MOL0     H94227   9.470   2.727   3.686 -0.6215  1.5798  0.2246
  683MOL0     H94228   9.603   2.938   3.865 -2.2473 -1.1520  0.7293
  683MOL0     H94229   9.632   2.926   3.697 -2.3885  0.2195 -0.3253
  683MOL0     H94230   9.720   2.680   3.766 -0.7006 -0.0555  0.5356
  683MOL0     H94231   9.748   2.756   3.918  0.7225 -1.2569 -0.6345
  683MOL0     H94232   9.862   2.863   3.652  0.2617  0.8662  0.0480
  683MOL0     H94233   9.953   2.773   3.772  3.5167  4.0714 -0.0484
  683MOL0     H94234   9.426   3.126   4.385 -1.3075  0.9956  0.6167
  683MOL0     H94235   9.476   3.016   4.618  0.7163 -3.5953  0.8594
  683MOL0     H94236   9.537   2.836   4.899  1.7538 -3.2280 -0.0204
  683MOL0     H94237   9.626   2.755   5.112  0.0947  2.6978  1.3219
  683MOL0     H94238   9.460   3.107   4.992 -1.1001  1.6405 -1.4464
  683MOL0     H94239   9.399   3.234   4.791  0.7831  1.6069 -2.0291
  683MOL0     H94240   9.570   3.740   4.614  1.0728 -0.9506 -1.1265
  683MOL0     H94241   9.433   3.887   4.521  0.8208  0.3253  0.8830
  683MOL0     H94242   9.270   4.030   4.407 -1.7114  0.3641 -1.2562
  683MOL0     H94243   9.394   3.978   4.294  1.4019 -1.1974  2.7575
  683MOL0     H94244   9.236   3.980   4.118 -1.4463  0.5592 -0.4726
  683MOL0     H94245   9.265   4.139   4.199 -1.4219 -0.1136 -0.0207
  683MOL0     H94246   9.027   3.952   4.233 -1.9793  0.2681 -0.7993
  683MOL0     H94247   9.046   4.092   4.327  2.0186  2.5568  0.1482
  683MOL0     H94248   8.901   4.108   4.106 -0.1181  0.9662 -1.7527
  683MOL0     H94249   9.038   4.094   4.006 -1.0034  2.3041 -0.8021
  683MOL0     H94250   9.015   4.495   4.044 -1.1382  0.2596 -0.7400
  683MOL0     H94251   9.281   3.588   4.246  3.3120 -3.9354 -0.7900
  683MOL0     H94252   9.489   3.328   4.359 -1.0357 -1.3788  2.0567
  683MOL0     H94253   9.325   3.334   4.424  2.8474 -2.9531  0.2903
  683MOL0     H94254   9.355   3.364   4.251  1.0932 -3.6225  0.0130
  684MOL0     O94255  10.063   1.829   1.464  0.0703  0.4125 -0.2474
  684MOL0     C94256  10.054   1.712   1.505  0.3349 -0.9333  0.4747
  684MOL0     O94257  10.160   1.633   1.545 -0.3887  0.4629  0.5091
  684MOL0     C94258  10.290   1.681   1.549 -0.2111 -0.5113  0.2460
  684MOL0     C94259  10.348   1.807   1.535 -0.1715 -0.5598 -0.2488
  684MOL0     C94260  10.481   1.838   1.575 -0.6796  0.3946 -0.1016
  684MOL0     C94261  10.561   1.741   1.636 -0.2502 -0.4730  1.0108
  684MOL0     O94262  10.691   1.790   1.648 -0.3961 -0.2328  0.1161
  684MOL0     C94263  10.782   1.715   1.732  0.1350  0.4137  0.4864
  684MOL0     C94264  10.925   1.773   1.716  0.3027  0.2440  0.4185
  684MOL0     C94265  11.024   1.670   1.767  0.4259  0.1282 -0.5446
  684MOL0     C94266  11.158   1.704   1.717 -0.5008 -0.7997  0.3308
  684MOL0     C94267  11.267   1.626   1.785  0.2017 -0.7354 -0.5727
  684MOL0     C94268  11.408   1.676   1.756  0.3079 -0.8121 -0.1086
  684MOL0     C94269  11.518   1.569   1.754  0.0342 -0.2139  0.0040
  684MOL0     C94270  11.660   1.617   1.693 -0.1863 -0.2788 -0.1995
  684MOL0     N94271  11.728   1.705   1.793 -0.4135  0.0497 -0.2618
  684MOL0     C94272  11.836   1.680   1.878 -0.2592  0.0404 -0.8389
  684MOL0     C94273  11.840   1.799   1.951 -0.7667 -0.8196  0.2738
  684MOL0     C94274  11.936   1.839   2.062  0.9755 -0.3894  0.0398
  684MOL0     C94275  12.072   1.762   2.035  0.4929  0.1846 -0.3650
  684MOL0     C94276  12.195   1.783   2.126 -0.5521  0.5366  0.2725
  684MOL0     C94277  12.156   1.765   2.275  0.0332 -0.2069 -0.1915
  684MOL0     O94278  12.289   1.735   2.328  0.5038 -0.3704  1.2272
  684MOL0     C94279  12.291   1.672   2.450 -0.0222  0.3997 -0.8086
  684MOL0     C94280  12.416   1.668   2.510 -0.4209  0.0810 -0.0896
  684MOL0     C94281  12.432   1.603   2.633  1.2849  0.7612  0.0206
  684MOL0     C94282  12.570   1.577   2.688 -0.1300 -0.1405 -0.0885
  684MOL0     C94283  12.317   1.542   2.699 -0.2225  0.2133 -1.1717
  684MOL0     C94284  12.322   1.461   2.839  0.9410  0.0033  0.0487
  684MOL0     O94285  12.223   1.360   2.855  0.0769 -0.2415  0.3254
  684MOL0     C94286  12.263   1.265   2.946 -0.7097 -0.0944  0.0542
  684MOL0     C94287  12.166   1.223   3.041 -0.2424  0.1047  0.5189
  684MOL0     C94288  12.203   1.109   3.119  0.6552 -0.0929 -0.4304
  684MOL0     C94289  12.330   1.046   3.116  0.0764 -0.1833  0.0024
  684MOL0     O94290  12.367   0.933   3.181  0.1516 -0.0992  0.4859
  684MOL0     C94291  12.284   0.861   3.268 -0.5292 -0.3686  0.3999
  684MOL0     C94292  12.187   0.784   3.173 -0.2181  0.5231 -0.4191
  684MOL0     C94293  12.144   0.649   3.242 -0.2315  0.4093  0.1899
  684MOL0     C94294  12.074   0.568   3.126  0.1907 -1.2655  0.5514
  684MOL0     C94295  12.016   0.438   3.182  0.2197 -0.2071  1.2466
  684MOL0     C94296  11.872   0.467   3.231  0.0868  0.4243  0.5025
  684MOL0     C94297  11.821   0.335   3.283  0.2961 -0.9190 -0.4444
  684MOL0     C94298  11.668   0.358   3.324 -1.2770  0.4878  0.1478
  684MOL0    Cl94299  11.612   0.203   3.368  0.0352 -0.4258  0.0755
  684MOL0     C94300  12.422   1.089   3.024  0.2659 -0.5841  0.0036
  684MOL0     C94301  12.387   1.199   2.941  0.6387 -0.4075  0.3944
  684MOL0     O94302  12.407   1.492   2.927  0.5833  0.6274  0.4440
  684MOL0     C94303  12.193   1.559   2.640 -0.2286 -0.1576 -0.9601
  684MOL0     C94304  12.184   1.615   2.518  0.0376 -1.1410 -0.4914
  684MOL0     N94305  11.752   1.893   1.905  0.4379  0.4365 -0.2553
  684MOL0     N94306  11.681   1.834   1.815 -0.5980  0.0786  0.0648
  684MOL0     C94307  10.511   1.616   1.648 -0.4947 -0.1489  0.7014
  684MOL0     C94308  10.378   1.590   1.599 -0.6466  0.2296  0.3823
  684MOL0     C94309   9.926   1.647   1.525  0.5435  0.0218  0.2796
  684MOL0     C94310   9.817   1.737   1.537  0.3592  0.1186 -0.4084
  684MOL0     C94311   9.682   1.693   1.536 -1.4345 -0.3874  1.1380
  684MOL0     C94312   9.652   1.557   1.530 -0.2319  0.1264  0.4728
  684MOL0     O94313   9.528   1.500   1.552  0.3955 -0.0491  0.3590
  684MOL0     C94314   9.406   1.579   1.583 -0.3371  0.7977 -0.6849
  684MOL0     C94315   9.278   1.490   1.596  0.6485  0.6137  0.0016
  684MOL0     C94316   9.148   1.576   1.617 -0.3216 -0.4883  0.5575
  684MOL0     C94317   9.073   1.618   1.489  0.7579 -0.1905  0.5037
  684MOL0     C94318   9.140   1.734   1.429  0.4233  0.1371 -0.0701
  684MOL0     C94319   9.206   1.826   1.382 -0.0562  0.0659  0.1953
  684MOL0     C94320   9.757   1.467   1.502 -0.0272  0.1761 -0.6028
  684MOL0     C94321   9.892   1.509   1.505  0.0330  0.3013  0.6797
  684MOL0     C94322   9.993   1.405   1.456 -0.6393 -0.8113  0.2538
  684MOL0     H94323  10.303   1.888   1.479  2.1314  3.2253  2.8498
  684MOL0     H94324  10.511   1.941   1.556  0.1490  0.2082  0.1677
  684MOL0     H94325  10.785   1.612   1.697  2.1635  0.8078 -0.6691
  684MOL0     H94326  10.752   1.724   1.836  0.1219  1.6566  0.3905
  684MOL0     H94327  10.945   1.799   1.612  2.1690 -1.1933  0.3611
  684MOL0     H94328  10.934   1.870   1.767 -0.1492  0.1770  0.6272
  684MOL0     H94329  11.018   1.669   1.876 -3.3184  1.0265 -0.6012
  684MOL0     H94330  10.995   1.570   1.735 -0.3013  0.0197  0.4157
  684MOL0     H94331  11.164   1.695   1.609  1.1966 -2.4497  0.5275
  684MOL0     H94332  11.182   1.810   1.732  1.4081 -1.1487 -0.0171
  684MOL0     H94333  11.263   1.522   1.753  0.2554 -0.9849  0.2023
  684MOL0     H94334  11.240   1.619   1.891  0.7207  0.5573 -0.3375
  684MOL0     H94335  11.402   1.731   1.661 -2.7563  1.7849  1.3965
  684MOL0     H94336  11.431   1.746   1.837 -1.3153  0.6074 -0.8174
  684MOL0     H94337  11.495   1.500   1.673  1.3687 -2.2442  1.2715
  684MOL0     H94338  11.531   1.515   1.849 -0.9487 -0.1747  0.1697
  684MOL0     H94339  11.724   1.529   1.687  0.3047 -0.4745  4.3770
  684MOL0     H94340  11.644   1.676   1.602 -0.2927 -1.0488 -0.6890
  684MOL0     H94341  11.908   1.600   1.890 -0.4899  0.2162  2.6400
  684MOL0     H94342  11.884   1.837   2.158 -2.3781  2.8751 -1.4598
  684MOL0     H94343  11.971   1.941   2.047  1.9466 -0.7368 -0.1813
  684MOL0     H94344  12.045   1.656   2.038 -0.0102  0.3195 -0.0738
  684MOL0     H94345  12.099   1.790   1.932  1.6511  3.0503  0.6272
  684MOL0     H94346  12.258   1.698   2.100 -1.8435 -0.6984  1.0141
  684MOL0     H94347  12.255   1.871   2.103  1.4434 -1.0154 -0.7780
  684MOL0     H94348  12.106   1.855   2.312 -1.4763 -2.0407  2.5224
  684MOL0     H94349  12.097   1.674   2.277 -0.4073 -0.1710 -4.1274
  684MOL0     H94350  12.500   1.707   2.454 -2.0387  2.3276 -1.1061
  684MOL0     H94351  12.583   1.474   2.722  1.6132 -0.1263 -0.6326
  684MOL0     H94352  12.594   1.651   2.765 -3.3020  0.2414  0.6784
  684MOL0     H94353  12.648   1.600   2.615  1.6130  0.0221  1.7399
  684MOL0     H94354  12.077   1.283   3.057 -0.7058 -0.9243  2.0401
  684MOL0     H94355  12.137   1.065   3.192 -0.4345 -0.0748 -1.3805
  684MOL0     H94356  12.339   0.788   3.328 -1.6044 -2.6864 -1.2555
  684MOL0     H94357  12.227   0.928   3.334 -1.7754  0.8185 -1.7577
  684MOL0     H94358  12.097   0.839   3.142 -1.2000 -0.8651 -0.1298
  684MOL0     H94359  12.240   0.759   3.081 -0.1192  0.1277 -0.2561
  684MOL0     H94360  12.081   0.661   3.331 -0.0591  0.4368  0.3073
  684MOL0     H94361  12.232   0.589   3.265 -1.2351 -0.7108  1.2442
  684MOL0     H94362  12.144   0.563   3.042  1.6010  2.3163  1.3306
  684MOL0     H94363  11.998   0.631   3.078 -1.4086 -1.3375  2.8439
  684MOL0     H94364  12.024   0.367   3.099 -0.8962 -0.1555  1.0768
  684MOL0     H94365  12.076   0.397   3.264  0.0661  1.7669  2.4052
  684MOL0     H94366  11.816   0.505   3.145  0.6438 -0.0281 -0.0660
  684MOL0     H94367  11.880   0.541   3.311  0.4937 -0.0077  0.8678
  684MOL0     H94368  11.875   0.301   3.372 -1.6779 -2.5353  0.2312
  684MOL0     H94369  11.813   0.266   3.198 -0.6328 -1.0224 -0.2853
  684MOL0     H94370  11.608   0.395   3.240  0.7148  1.5395 -0.8815
  684MOL0     H94371  11.664   0.425   3.410 -0.9691  0.6488  0.0399
  684MOL0     H94372  12.521   1.044   3.019  1.4594  1.2807  3.4143
  684MOL0     H94373  12.462   1.238   2.873 -0.6034 -0.1924 -0.9055
  684MOL0     H94374  12.110   1.511   2.690  1.0369 -1.4927 -0.0486
  684MOL0     H94375  12.084   1.617   2.476  0.4815 -3.0251 -1.7512
  684MOL0     H94376  10.562   1.526   1.680  1.7275  0.3017 -1.2275
  684MOL0     H94377  10.352   1.491   1.634  3.6085 -0.7243  1.4129
  684MOL0     H94378   9.843   1.842   1.537 -0.7618  0.4314 -2.0584
  684MOL0     H94379   9.603   1.768   1.536  1.3767  2.8967 -1.3063
  684MOL0     H94380   9.419   1.638   1.673 -1.6818  1.0834 -0.6490
  684MOL0     H94381   9.389   1.646   1.499 -2.4058 -1.4210 -2.1890
  684MOL0     H94382   9.281   1.434   1.690 -1.9194  2.7110  1.4587
  684MOL0     H94383   9.253   1.409   1.527  0.1480 -0.7730  1.7352
  684MOL0     H94384   9.085   1.509   1.675  1.4811 -1.7556  1.1474
  684MOL0     H94385   9.166   1.667   1.675 -0.3289  0.3036 -0.6392
  684MOL0     H94386   8.972   1.651   1.517  0.6631  1.0428 -1.1232
  684MOL0     H94387   9.050   1.533   1.425  1.1157  0.8018 -0.9979
  684MOL0     H94388   9.267   1.906   1.344  1.1615  0.0641  1.9993
  684MOL0     H94389   9.728   1.366   1.475 -0.4546  0.0444  0.3102
  684MOL0     H94390  10.068   1.401   1.535  0.1072  1.8878 -0.2327
  684MOL0     H94391   9.951   1.308   1.429  0.8572 -0.5333 -3.7134
  684MOL0     H94392  10.040   1.440   1.363 -1.0801 -1.0939 -0.0774
  685MOL0     O94393  11.374   6.327   8.056  0.0042  0.5976 -0.3260
  685MOL0     C94394  11.347   6.271   7.951  0.4724 -0.9551  0.0707
  685MOL0     O94395  11.441   6.222   7.862  0.3788 -0.1547 -0.2330
  685MOL0     C94396  11.566   6.230   7.901  0.6603 -0.1340  0.4944
  685MOL0     C94397  11.628   6.356   7.905 -0.8471  0.3147  0.2704
  685MOL0     C94398  11.763   6.362   7.953  0.4643 -0.1997  0.1981
  685MOL0     C94399  11.828   6.247   7.992  0.5585  0.6917  0.2550
  685MOL0     O94400  11.959   6.271   8.031  0.5256  0.9108 -0.5507
  685MOL0     C94401  12.035   6.150   8.063  0.3098 -0.2081  0.6223
  685MOL0     C94402  12.173   6.185   8.121  0.0682  0.3748  0.1559
  685MOL0     C94403  12.276   6.093   8.064  0.4585  0.3264 -0.3071
  685MOL0     C94404  12.413   6.118   8.126 -0.3347 -0.5415 -0.3862
  685MOL0     C94405  12.526   6.128   8.016 -0.7215  0.3743  0.6191
  685MOL0     C94406  12.551   6.000   7.944 -0.4696  0.6447  0.7760
  685MOL0     C94407  12.671   5.996   7.836 -0.3168  0.4430  0.0486
  685MOL0     C94408  12.808   5.980   7.899 -0.4022 -1.3711  0.1901
  685MOL0     N94409  12.910   5.954   7.802  0.8308  0.2536  0.0285
  685MOL0     C94410  12.911   5.840   7.723  0.1322 -0.0258  0.1164
  685MOL0     C94411  13.010   5.862   7.633  0.3830  0.6322  0.1436
  685MOL0     C94412  13.078   5.762   7.544 -0.0874 -0.3190 -0.1254
  685MOL0     C94413  13.136   5.642   7.620  0.3424  0.0432  0.3548
  685MOL0     C94414  13.189   5.540   7.513 -0.4934 -0.8313 -1.2733
  685MOL0     C94415  13.288   5.445   7.569  0.9543  1.0910 -0.1193
  685MOL0     O94416  13.323   5.340   7.472  0.3944 -0.6061  0.0555
  685MOL0     C94417  13.425   5.370   7.382 -0.2883 -0.3343  0.1436
  685MOL0     C94418  13.414   5.311   7.260 -0.0698 -0.4956  0.7805
  685MOL0     C94419  13.524   5.304   7.167 -0.2227 -0.4042 -0.3027
  685MOL0     C94420  13.514   5.222   7.038 -0.1891 -0.8772  0.2504
  685MOL0     C94421  13.640   5.371   7.201 -0.1791  0.0979 -0.7309
  685MOL0     C94422  13.758   5.390   7.108  0.1923  0.2662 -0.4038
  685MOL0     O94423  13.841   5.491   7.141 -0.2561 -0.4414 -0.3375
  685MOL0     C94424  13.954   5.515   7.056 -0.7020 -0.6017 -0.0497
  685MOL0     C94425  13.938   5.565   6.921  0.3742  0.5503 -0.2305
  685MOL0     C94426  14.048   5.610   6.851 -1.2701  1.0331 -0.0283
  685MOL0     C94427  14.179   5.597   6.918  0.0183 -0.8933  0.4705
  685MOL0     O94428  14.305   5.644   6.872  0.6879  0.3026  0.2233
  685MOL0     C94429  14.305   5.747   6.773  0.3675  0.1592 -0.5777
  685MOL0     C94430  14.320   5.671   6.639  0.9142 -0.9549  0.0544
  685MOL0     C94431  14.314   5.779   6.526 -0.1555 -0.6911 -1.0783
  685MOL0     C94432  14.327   5.728   6.385 -0.6887 -0.0737  0.2032
  685MOL0     C94433  14.360   5.849   6.290  0.0879 -0.2830  0.3638
  685MOL0     C94434  14.353   5.805   6.144 -0.2006 -0.0426 -0.8804
  685MOL0     C94435  14.382   5.926   6.053 -0.1328 -0.4016 -0.1075
  685MOL0     C94436  14.408   5.888   5.900 -0.1777  0.7737 -0.7239
  685MOL0    Cl94437  14.294   5.759   5.836  0.4926  0.0612  0.3469
  685MOL0     C94438  14.188   5.552   7.045  0.1988  0.2646  0.4610
  685MOL0     C94439  14.080   5.507   7.119 -0.6941 -0.0041  0.2540
  685MOL0     O94440  13.774   5.312   7.012  0.2356 -0.4343  0.8552
  685MOL0     C94441  13.660   5.432   7.329 -0.3147  0.3069 -0.0577
  685MOL0     C94442  13.552   5.426   7.415  0.2205 -0.0045 -0.3975
  685MOL0     N94443  13.062   5.978   7.660 -0.3272  0.6249 -0.0885
  685MOL0     N94444  12.985   6.045   7.746  0.1144 -0.2461  0.6015
  685MOL0     C94445  11.761   6.124   7.976  0.5317 -0.4236  0.6190
  685MOL0     C94446  11.631   6.114   7.949 -0.0616 -0.6287  1.1399
  685MOL0     C94447  11.205   6.238   7.930  0.7625  0.1304 -0.8225
  685MOL0     C94448  11.167   6.160   7.819  0.1875 -0.3319  0.4284
  685MOL0     C94449  11.038   6.129   7.781  0.6791  1.0851 -0.2437
  685MOL0     C94450  10.942   6.156   7.873  0.5148 -0.2054  0.7020
  685MOL0     O94451  10.815   6.109   7.840 -0.1154 -0.5348  0.2818
  685MOL0     C94452  10.707   6.147   7.928  0.0199  0.7415 -0.7151
  685MOL0     C94453  10.582   6.112   7.848  1.0896  0.0930 -0.1766
  685MOL0     C94454  10.458   6.122   7.931 -0.4835 -0.8623  0.4589
  685MOL0     C94455  10.335   6.122   7.845  0.3921 -0.1745 -0.0750
  685MOL0     C94456  10.212   6.109   7.924  0.1374 -0.7876 -0.4877
  685MOL0     C94457  10.111   6.080   7.993  0.3692 -0.7679  0.2409
  685MOL0     C94458  10.973   6.225   7.995  0.8810 -0.6657  0.3751
  685MOL0     C94459  11.102   6.271   8.024  0.1213  0.8421  0.4999
  685MOL0     C94460  11.106   6.352   8.154 -0.5931 -0.6337  0.1535
  685MOL0     H94461  11.583   6.451   7.876  0.7055  1.6220  1.9156
  685MOL0     H94462  11.814   6.457   7.962 -0.2439  0.2150 -0.0357
  685MOL0     H94463  12.037   6.096   7.968 -1.6160  1.2281 -0.3111
  685MOL0     H94464  11.978   6.085   8.129 -0.2830 -2.8240 -2.2232
  685MOL0     H94465  12.189   6.290   8.097 -2.1132  0.2649 -2.0975
  685MOL0     H94466  12.171   6.167   8.229 -0.3411  0.1411  0.1121
  685MOL0     H94467  12.243   5.989   8.071  2.4108 -0.5008 -2.2588
  685MOL0     H94468  12.281   6.114   7.957 -2.0808 -0.4265 -0.6454
  685MOL0     H94469  12.406   6.213   8.180  3.5680 -1.8491  2.9445
  685MOL0     H94470  12.443   6.042   8.198 -0.1342 -1.4924 -1.4329
  685MOL0     H94471  12.623   6.146   8.062 -0.1577  1.4718 -0.9418
  685MOL0     H94472  12.497   6.201   7.940 -0.6349 -0.0158  0.2002
  685MOL0     H94473  12.556   5.925   8.023  0.5570 -1.7096 -1.3879
  685MOL0     H94474  12.462   5.982   7.882 -0.5349 -0.8245  1.2797
  685MOL0     H94475  12.665   6.091   7.783 -2.4968  0.6702  0.6054
  685MOL0     H94476  12.638   5.922   7.762 -2.0948  2.2043 -1.0416
  685MOL0     H94477  12.820   6.072   7.957 -0.0958 -1.0972 -0.2983
  685MOL0     H94478  12.798   5.896   7.968  2.3868 -1.3883  0.6773
  685MOL0     H94479  12.856   5.750   7.749  0.6792 -0.1338  0.9468
  685MOL0     H94480  13.161   5.821   7.503  0.0407 -2.3845 -3.1847
  685MOL0     H94481  13.017   5.731   7.459  0.2482 -0.0912 -0.4508
  685MOL0     H94482  13.219   5.661   7.688  1.6717 -1.7821 -0.6593
  685MOL0     H94483  13.059   5.586   7.673 -1.2333  0.4989 -1.3475
  685MOL0     H94484  13.106   5.485   7.468 -0.9916 -1.3730  0.2384
  685MOL0     H94485  13.236   5.600   7.435  2.4381 -1.0674  0.1769
  685MOL0     H94486  13.381   5.496   7.595  3.2101 -1.2478 -2.8876
  685MOL0     H94487  13.253   5.402   7.663  0.2605  3.0371  0.5708
  685MOL0     H94488  13.320   5.269   7.225  0.9824 -1.4959 -0.9942
  685MOL0     H94489  13.416   5.175   7.025 -2.4026  2.3092  3.4769
  685MOL0     H94490  13.600   5.155   7.039 -0.6092 -1.5138 -2.1078
  685MOL0     H94491  13.519   5.294   6.956 -4.4956 -0.3302  0.2606
  685MOL0     H94492  13.840   5.568   6.875  1.4419  0.9993 -2.6064
  685MOL0     H94493  14.053   5.648   6.750 -2.0115 -1.9162 -1.2833
  685MOL0     H94494  14.214   5.807   6.775  0.6559  0.6401 -1.4082
  685MOL0     H94495  14.386   5.819   6.788  0.0893  0.3943 -0.2030
  685MOL0     H94496  14.411   5.611   6.639  1.4819 -0.0963 -0.4683
  685MOL0     H94497  14.232   5.609   6.618  0.5888 -0.4479 -0.0897
  685MOL0     H94498  14.395   5.850   6.545 -0.7512 -0.6687  1.7075
  685MOL0     H94499  14.213   5.821   6.534 -0.1159 -0.6931 -0.5433
  685MOL0     H94500  14.236   5.676   6.354  0.9588 -2.8557 -0.3281
  685MOL0     H94501  14.410   5.657   6.374  0.7540  1.7658 -1.6610
  685MOL0     H94502  14.285   5.926   6.308 -0.6780 -0.9787  0.2228
  685MOL0     H94503  14.463   5.883   6.301  0.3597 -0.6858 -0.7719
  685MOL0     H94504  14.256   5.761   6.120 -1.0153  1.6361 -0.8044
  685MOL0     H94505  14.431   5.729   6.135  1.0859  0.6765  2.6333
  685MOL0     H94506  14.466   5.989   6.083 -1.4365  2.2008 -1.4872
  685MOL0     H94507  14.296   5.993   6.044  1.2844  1.4520 -0.4959
  685MOL0     H94508  14.513   5.860   5.884 -0.0147  1.9374 -1.8160
  685MOL0     H94509  14.394   5.976   5.836 -1.0657  1.0291 -0.1830
  685MOL0     H94510  14.287   5.559   7.087  0.3286  0.8650  0.0554
  685MOL0     H94511  14.094   5.470   7.220 -1.6359 -1.1268 -0.0024
  685MOL0     H94512  13.756   5.466   7.365  1.2671 -1.2258 -2.5136
  685MOL0     H94513  13.576   5.455   7.517 -1.4731 -2.1144  0.6856
  685MOL0     H94514  11.815   6.033   8.003  0.8287 -1.5846 -3.2975
  685MOL0     H94515  11.584   6.016   7.949 -2.3933  0.4228  0.5138
  685MOL0     H94516  11.244   6.130   7.750  3.6993  3.6406  2.1679
  685MOL0     H94517  11.000   6.090   7.687 -2.0789  0.5747  1.0034
  685MOL0     H94518  10.702   6.087   8.020  0.5382 -0.9534 -1.7453
  685MOL0     H94519  10.700   6.250   7.962  1.0084  0.3396  0.8257
  685MOL0     H94520  10.585   6.011   7.808  3.7468  0.4530 -1.0635
  685MOL0     H94521  10.571   6.183   7.766  3.7923  0.4245 -0.3524
  685MOL0     H94522  10.467   6.041   8.003  0.3570 -0.9941  0.2219
  685MOL0     H94523  10.481   6.214   7.985  3.4588 -2.0649  1.1841
  685MOL0     H94524  10.330   6.028   7.789 -3.8575  1.1442 -2.3563
  685MOL0     H94525  10.331   6.197   7.766 -0.7776  0.2632  0.3793
  685MOL0     H94526  10.018   6.066   8.043 -0.5314 -1.5550 -1.5934
  685MOL0     H94527  10.894   6.241   8.067  2.3911 -3.6532  2.9397
  685MOL0     H94528  11.121   6.293   8.245 -2.4895  1.7265  2.1288
  685MOL0     H94529  11.171   6.439   8.145  2.1273 -2.6287 -1.5133
  685MOL0     H94530  11.007   6.396   8.165 -0.6166  0.0509 -2.1543
  686MOL0     O94531   3.542   9.298   9.057  0.3999  0.1776  0.1249
  686MOL0     C94532   3.619   9.263   8.970 -0.3160 -0.1180 -0.0330
  686MOL0     O94533   3.738   9.325   8.948  0.1365  0.6462  0.4424
  686MOL0     C94534   3.795   9.413   9.040  0.0858 -0.2825  1.0104
  686MOL0     C94535   3.783   9.407   9.178  0.4313  0.1388 -0.2288
  686MOL0     C94536   3.867   9.485   9.263  1.2996 -0.6258 -0.0569
  686MOL0     C94537   3.954   9.571   9.208 -0.1902  0.0372 -0.1199
  686MOL0     O94538   4.035   9.625   9.308  0.2849  0.0548  0.3514
  686MOL0     C94539   4.107   9.751   9.272  0.1904 -0.5225 -0.3128
  686MOL0     C94540   4.172   9.814   9.388 -0.3529 -0.6481  0.1873
  686MOL0     C94541   4.285   9.906   9.332  0.4594 -0.1123 -0.5942
  686MOL0     C94542   4.359   9.968   9.443 -0.1763 -0.2506  0.1451
  686MOL0     C94543   4.495  10.029   9.405 -0.8455 -0.2460 -0.8541
  686MOL0     C94544   4.561  10.118   9.513 -0.0838  0.3988  0.2547
  686MOL0     C94545   4.702  10.158   9.482  0.0856  0.4526  0.9219
  686MOL0     C94546   4.763  10.259   9.582 -0.2987 -0.2684  0.1182
  686MOL0     N94547   4.899  10.282   9.542  0.4296  0.9610 -0.8500
  686MOL0     C94548   4.942  10.346   9.435 -0.6600  0.3078  0.2436
  686MOL0     C94549   5.074  10.320   9.417  0.3755  0.1131 -0.1344
  686MOL0     C94550   5.171  10.364   9.315  0.9341 -0.6184 -0.2895
  686MOL0     C94551   5.146  10.309   9.180 -0.6463 -0.6326 -0.6955
  686MOL0     C94552   5.162  10.415   9.066  0.5527 -0.1674 -1.2759
  686MOL0     C94553   5.312  10.466   9.060 -0.0297  0.9879  0.1674
  686MOL0     O94554   5.332  10.484   8.923 -0.4866 -0.5529 -0.0312
  686MOL0     C94555   5.463  10.493   8.886 -0.5683 -0.3141  0.7762
  686MOL0     C94556   5.480  10.505   8.753 -1.0153 -0.3408 -0.6898
  686MOL0     C94557   5.604  10.507   8.695  0.9052  0.0256  0.7489
  686MOL0     C94558   5.603  10.495   8.541  0.1119  0.1556  0.1582
  686MOL0     C94559   5.724  10.498   8.774  0.8527 -0.8454 -0.1438
  686MOL0     C94560   5.862  10.502   8.714  0.7426  0.7548  0.0190
  686MOL0     O94561   5.886  10.577   8.606  0.0880 -0.1267  0.3661
  686MOL0     C94562   6.014  10.579   8.565  0.1715 -0.4838 -0.2741
  686MOL0     C94563   6.063  10.488   8.473  0.3982 -0.2321  0.1786
  686MOL0     C94564   6.186  10.507   8.416 -0.6013 -0.9709 -0.5182
  686MOL0     C94565   6.265  10.624   8.446 -0.4542  0.5109  0.0188
  686MOL0     O94566   6.391  10.657   8.395 -0.0216 -0.5282 -0.1063
  686MOL0     C94567   6.445  10.588   8.282  0.5999 -0.0613  0.1972
  686MOL0     C94568   6.395  10.660   8.157  0.2514 -0.0613  0.4183
  686MOL0     C94569   6.486  10.645   8.036  0.3668 -0.5739  1.0529
  686MOL0     C94570   6.403  10.652   7.912 -0.6765 -0.0804  0.3495
  686MOL0     C94571   6.346  10.526   7.857  0.3936  0.4973  0.1156
  686MOL0     C94572   6.236  10.455   7.941  0.0028  0.2048 -0.0683
  686MOL0     C94573   6.102  10.533   7.926 -1.0571  0.5708 -0.3972
  686MOL0     C94574   6.014  10.539   8.052  0.2240  0.7111  0.8690
  686MOL0    Cl94575   5.950  10.373   8.097 -0.0409 -0.0714 -0.2649
  686MOL0     C94576   6.213  10.716   8.533 -0.9676 -0.7292 -0.3792
  686MOL0     C94577   6.094  10.692   8.601  0.2325  0.2717  0.2557
  686MOL0     O94578   5.946  10.448   8.783  0.5057  0.2948  0.2887
  686MOL0     C94579   5.709  10.503   8.913  0.1149  0.2294  0.3141
  686MOL0     C94580   5.577  10.497   8.966  0.5562 -0.7630  0.6002
  686MOL0     N94581   5.110  10.223   9.526 -0.3616  0.7398  0.7215
  686MOL0     N94582   5.005  10.221   9.598 -0.3351 -0.7540 -0.5383
  686MOL0     C94583   3.962   9.583   9.066  0.4455  0.7467 -0.3144
  686MOL0     C94584   3.877   9.510   8.992  1.5336 -0.4329  0.3753
  686MOL0     C94585   3.596   9.124   8.895 -0.1689 -0.0297 -1.1795
  686MOL0     C94586   3.698   9.072   8.815 -0.1700  0.4411  0.3341
  686MOL0     C94587   3.699   8.945   8.755  0.0902 -0.3174  0.7548
  686MOL0     C94588   3.583   8.868   8.766 -0.6752 -0.0638 -0.4866
  686MOL0     O94589   3.582   8.762   8.683  0.1367 -0.5601 -0.5142
  686MOL0     C94590   3.456   8.686   8.668  0.5583  0.0123  0.1382
  686MOL0     C94591   3.465   8.577   8.563 -0.3661  0.0928  0.4103
  686MOL0     C94592   3.574   8.473   8.595  0.6526 -0.2967  0.0247
  686MOL0     C94593   3.550   8.331   8.544 -0.3793 -0.0795  0.9304
  686MOL0     C94594   3.447   8.262   8.618  0.3940 -0.6556 -0.2580
  686MOL0     C94595   3.362   8.198   8.678  0.5201  0.5322  0.0427
  686MOL0     C94596   3.483   8.913   8.851  0.6884 -0.3906 -0.0489
  686MOL0     C94597   3.487   9.034   8.922 -0.6743 -0.0925  0.0968
  686MOL0     C94598   3.355   9.070   9.003 -0.2732 -0.6225  0.0848
  686MOL0     H94599   3.715   9.333   9.218 -0.6684  1.4834  0.4931
  686MOL0     H94600   3.878   9.472   9.370 -1.5644  0.9441  0.5134
  686MOL0     H94601   4.024   9.812   9.236  0.9090  0.9815  0.4909
  686MOL0     H94602   4.177   9.723   9.192 -3.2491  1.4104 -4.3865
  686MOL0     H94603   4.115   9.895   9.434  2.0596  3.6688 -3.5938
  686MOL0     H94604   4.218   9.743   9.456  3.3480  1.2575 -0.0687
  686MOL0     H94605   4.364   9.858   9.274  1.2212  1.0586 -0.5676
  686MOL0     H94606   4.242   9.979   9.263  2.3371  0.2491 -1.4569
  686MOL0     H94607   4.296  10.050   9.479  0.3128  1.7279 -3.1320
  686MOL0     H94608   4.387   9.901   9.524 -0.0669  0.3266  0.5947
  686MOL0     H94609   4.491  10.096   9.318  0.0103  2.4276  1.0531
  686MOL0     H94610   4.562   9.945   9.382 -1.1548 -0.9714  0.7572
  686MOL0     H94611   4.496  10.201   9.542 -2.3225 -2.0850  3.0800
  686MOL0     H94612   4.558  10.055   9.603 -0.7233  0.6235  0.3955
  686MOL0     H94613   4.714  10.203   9.383  0.4493  0.5692  1.0169
  686MOL0     H94614   4.764  10.068   9.483  0.5326  0.6985 -0.8465
  686MOL0     H94615   4.709  10.354   9.576  3.4153  1.9618 -0.4699
  686MOL0     H94616   4.761  10.222   9.685 -0.1632 -1.2006 -0.2021
  686MOL0     H94617   4.879  10.404   9.368  0.5087  2.2575  0.7546
  686MOL0     H94618   5.270  10.331   9.345  0.5162 -1.6053  0.0216
  686MOL0     H94619   5.164  10.474   9.313 -2.4133 -0.6829  1.2592
  686MOL0     H94620   5.203  10.219   9.154  0.2836 -0.5889  1.0409
  686MOL0     H94621   5.040  10.283   9.188 -1.3836  2.3120  0.4403
  686MOL0     H94622   5.133  10.375   8.969 -1.1074 -0.3273 -0.7397
  686MOL0     H94623   5.098  10.498   9.095  0.4916 -0.5345 -0.3203
  686MOL0     H94624   5.334  10.555   9.119  0.3282  1.3954 -0.5705
  686MOL0     H94625   5.377  10.392   9.108  1.2701 -0.2788 -3.2607
  686MOL0     H94626   5.390  10.510   8.693 -0.2038 -0.9666 -1.9999
  686MOL0     H94627   5.661  10.576   8.495  0.3682  0.6526  1.3139
  686MOL0     H94628   5.504  10.513   8.501 -0.2187  1.7580  1.5855
  686MOL0     H94629   5.635  10.396   8.508 -2.2462 -0.4813 -0.3857
  686MOL0     H94630   6.009  10.399   8.446  1.0702 -0.2149 -1.3305
  686MOL0     H94631   6.236  10.429   8.359  0.5492  0.4206 -1.4899
  686MOL0     H94632   6.554  10.584   8.285  0.6099  0.1926  2.5045
  686MOL0     H94633   6.415  10.483   8.272  0.1269 -0.1517  2.1651
  686MOL0     H94634   6.289  10.638   8.140  0.3907  0.1420 -0.8378
  686MOL0     H94635   6.387  10.767   8.180  0.1715 -0.0305  0.2437
  686MOL0     H94636   6.546  10.554   8.032 -0.1869 -0.9385 -2.5259
  686MOL0     H94637   6.545  10.737   8.044 -0.4172  0.0456  0.0796
  686MOL0     H94638   6.464  10.698   7.834  0.6560  0.1362  1.4778
  686MOL0     H94639   6.322  10.723   7.930 -2.2200 -0.8032 -2.8542
  686MOL0     H94640   6.311  10.540   7.754 -2.9909 -3.3675  0.4855
  686MOL0     H94641   6.422  10.448   7.853  0.8101  0.7044  2.5857
  686MOL0     H94642   6.274  10.455   8.044 -0.3523 -1.0795  0.0815
  686MOL0     H94643   6.226  10.351   7.908 -2.3308  0.0113  1.0271
  686MOL0     H94644   6.051  10.489   7.839  0.5580 -2.3703  0.0066
  686MOL0     H94645   6.132  10.634   7.897  2.6160 -0.0525  0.6755
  686MOL0     H94646   5.935  10.610   8.027  0.9136  1.5424  1.0103
  686MOL0     H94647   6.071  10.581   8.135  0.7303  1.1626  0.2975
  686MOL0     H94648   6.268  10.805   8.563 -0.5260 -1.4507  1.0440
  686MOL0     H94649   6.051  10.758   8.676 -1.1927  0.7885 -0.9512
  686MOL0     H94650   5.794  10.489   8.978 -0.0635 -0.6062  0.3836
  686MOL0     H94651   5.550  10.493   9.071 -4.8007  1.5432 -0.3459
  686MOL0     H94652   4.029   9.652   9.016  2.2958 -0.4046  0.5069
  686MOL0     H94653   3.874   9.537   8.886  0.1315  3.0076  1.1679
  686MOL0     H94654   3.787   9.131   8.796  0.8256 -0.5734  1.6552
  686MOL0     H94655   3.783   8.897   8.706 -0.7934 -0.2987 -0.8622
  686MOL0     H94656   3.414   8.650   8.763  0.6737  1.6144  0.8390
  686MOL0     H94657   3.376   8.756   8.640 -0.7611 -1.3454  0.3935
  686MOL0     H94658   3.478   8.633   8.470  0.4484  1.3043  1.2193
  686MOL0     H94659   3.368   8.529   8.548 -0.5513 -0.1959  2.2735
  686MOL0     H94660   3.659   8.518   8.542  0.0421  1.5947  0.5878
  686MOL0     H94661   3.597   8.482   8.701  3.3052 -0.9034 -0.4165
  686MOL0     H94662   3.643   8.281   8.573 -0.0046 -0.9762 -1.5103
  686MOL0     H94663   3.539   8.330   8.435 -0.9916 -2.0831  0.9681
  686MOL0     H94664   3.278   8.159   8.731  1.1859 -2.3078 -0.8119
  686MOL0     H94665   3.388   8.862   8.862  1.8086 -2.8126 -1.0298
  686MOL0     H94666   3.273   8.997   8.998 -2.8454  1.9908  1.2426
  686MOL0     H94667   3.375   9.105   9.104 -2.9613  4.0841 -0.7389
  686MOL0     H94668   3.306   9.151   8.947 -1.2891 -1.6311 -0.5390
  687MOL0     O94669   0.462  11.201  10.818  0.1104 -0.1242 -0.1666
  687MOL0     C94670   0.558  11.184  10.889  0.1127 -0.1527 -0.2389
  687MOL0     O94671   0.690  11.202  10.855 -0.6116 -0.2374 -0.9054
  687MOL0     C94672   0.735  11.235  10.733  0.1042  0.0511 -0.2375
  687MOL0     C94673   0.665  11.232  10.614  0.9976 -1.0483  0.0505
  687MOL0     C94674   0.730  11.264  10.493  0.0204  0.0038 -0.2341
  687MOL0     C94675   0.866  11.299  10.483  0.4092  0.7596 -0.0008
  687MOL0     O94676   0.914  11.333  10.358 -0.0596  0.0112 -0.4654
  687MOL0     C94677   1.030  11.417  10.356  0.0385  0.1933 -0.8182
  687MOL0     C94678   1.156  11.328  10.344  0.4946 -0.3318 -0.1603
  687MOL0     C94679   1.177  11.274  10.203  0.1126 -0.2976 -0.2124
  687MOL0     C94680   1.079  11.165  10.151 -0.0492 -0.1181  0.2986
  687MOL0     C94681   1.082  11.032  10.226 -0.2661  0.3648  0.5762
  687MOL0     C94682   0.978  10.928  10.176  0.3502  0.3497 -0.3638
  687MOL0     C94683   0.982  10.798  10.263 -0.1807 -0.2053  0.7096
  687MOL0     C94684   0.875  10.699  10.215  0.6901  0.1565  0.0950
  687MOL0     N94685   0.881  10.577  10.296 -1.0374  0.0931 -0.5752
  687MOL0     C94686   0.957  10.470  10.263  0.2179 -0.0432 -0.1158
  687MOL0     C94687   0.932  10.374  10.355 -0.7094 -0.1934  0.4122
  687MOL0     C94688   0.995  10.240  10.337  0.6438  0.5159 -0.4188
  687MOL0     C94689   1.099  10.224  10.453  0.6148  1.0625  0.2674
  687MOL0     C94690   1.153  10.082  10.461  0.7060 -0.1801  0.2172
  687MOL0     C94691   1.279  10.078  10.531  0.4153 -0.6853  0.1861
  687MOL0     O94692   1.381  10.140  10.456 -0.4919 -0.7449 -0.6661
  687MOL0     C94693   1.504  10.170  10.516  0.6654 -1.2358 -0.6136
  687MOL0     C94694   1.584  10.268  10.465  0.3227  1.2065  0.6470
  687MOL0     C94695   1.707  10.310  10.526 -0.4888  1.1911  0.3142
  687MOL0     C94696   1.788  10.417  10.459 -0.1809  0.5250 -0.2486
  687MOL0     C94697   1.752  10.235  10.643  0.2044 -0.4376  0.1754
  687MOL0     C94698   1.871  10.266  10.716 -0.1977 -0.5348 -1.2250
  687MOL0     O94699   1.957  10.367  10.679 -0.1774  0.6072  0.3506
  687MOL0     C94700   2.074  10.381  10.742 -0.6151 -0.2195  0.2458
  687MOL0     C94701   2.118  10.513  10.741  0.3262  0.2811  0.4920
  687MOL0     C94702   2.239  10.543  10.800 -0.9506 -0.0946  1.3402
  687MOL0     C94703   2.314  10.448  10.860 -0.3217  0.1436  0.3010
  687MOL0     O94704   2.432  10.476  10.921 -1.0663 -0.1047  0.9273
  687MOL0     C94705   2.430  10.589  11.007 -0.9853 -0.5425 -0.0456
  687MOL0     C94706   2.511  10.560  11.135  0.1750  0.1552  0.4034
  687MOL0     C94707   2.492  10.670  11.239  0.1350  0.6537  0.4732
  687MOL0     C94708   2.548  10.806  11.180 -0.2058  0.4011  0.3297
  687MOL0     C94709   2.552  10.913  11.287  0.4771  0.7465 -0.4841
  687MOL0     C94710   2.632  11.037  11.242 -0.3349 -0.0466 -0.6245
  687MOL0     C94711   2.648  11.128  11.358  0.0068 -0.3804 -0.6284
  687MOL0     C94712   2.673  11.277  11.319  0.7730  0.0182  0.0535
  687MOL0    Cl94713   2.793  11.297  11.185  0.2330 -0.4227  0.0432
  687MOL0     C94714   2.273  10.319  10.845  0.0857  0.2793 -0.1610
  687MOL0     C94715   2.154  10.276  10.791 -0.1741  0.2991 -0.0296
  687MOL0     O94716   1.872  10.213  10.827  1.1331 -0.0184  0.0235
  687MOL0     C94717   1.677  10.121  10.684 -0.4167 -0.5740  0.2211
  687MOL0     C94718   1.554  10.098  10.626 -0.9043 -0.9914 -0.7773
  687MOL0     N94719   0.829  10.423  10.430  0.4332 -0.0653  0.0379
  687MOL0     N94720   0.799  10.543  10.395 -0.4533 -0.6468  0.1273
  687MOL0     C94721   0.935  11.290  10.600  0.1766  0.3750  0.2156
  687MOL0     C94722   0.871  11.278  10.722 -0.8838 -0.2862  0.7666
  687MOL0     C94723   0.545  11.169  11.038  0.9946  0.1785 -0.4953
  687MOL0     C94724   0.656  11.122  11.110  0.5275  0.1759 -0.7330
  687MOL0     C94725   0.650  11.109  11.243  0.3602 -0.2857  0.8774
  687MOL0     C94726   0.535  11.155  11.319 -0.9129  1.7610  0.7730
  687MOL0     O94727   0.541  11.125  11.456  0.1439 -0.1185 -0.5249
  687MOL0     C94728   0.412  11.068  11.518  0.1020 -0.3744  0.5849
  687MOL0     C94729   0.435  11.009  11.656 -0.4396  0.1047  0.0432
  687MOL0     C94730   0.538  10.910  11.656  0.6337  0.5516  0.0961
  687MOL0     C94731   0.524  10.819  11.776 -0.5382  0.1639 -0.1327
  687MOL0     C94732   0.628  10.717  11.767  0.3769 -0.0918  0.3878
  687MOL0     C94733   0.714  10.634  11.742 -0.0926 -0.6098  0.2241
  687MOL0     C94734   0.428  11.213  11.245 -0.0128  0.7321 -0.4751
  687MOL0     C94735   0.425  11.205  11.112 -0.6296 -0.7364  1.2287
  687MOL0     C94736   0.295  11.246  11.048 -0.3057 -0.2548  0.2472
  687MOL0     H94737   0.558  11.215  10.607  0.9435  0.0093 -2.5916
  687MOL0     H94738   0.666  11.291  10.409 -1.3971  0.0361  0.8175
  687MOL0     H94739   1.039  11.488  10.439  2.1669  1.2513 -1.8930
  687MOL0     H94740   1.026  11.486  10.271  2.8416 -0.0130 -1.2154
  687MOL0     H94741   1.238  11.397  10.367 -0.6740  1.0063  0.2073
  687MOL0     H94742   1.156  11.245  10.415 -2.4698 -2.1864 -2.0939
  687MOL0     H94743   1.172  11.356  10.131  1.9724  1.6007  1.6945
  687MOL0     H94744   1.276  11.228  10.199  0.9469  1.4112 -0.0094
  687MOL0     H94745   0.978  11.206  10.159 -0.4351 -1.0187  0.1294
  687MOL0     H94746   1.094  11.157  10.044 -2.0511  0.5515 -0.0868
  687MOL0     H94747   1.070  11.055  10.333 -1.4245  0.6739  0.3932
  687MOL0     H94748   1.182  10.990  10.210 -1.5998 -2.2811 -1.6205
  687MOL0     H94749   0.881  10.973  10.195  0.6841  1.0421 -0.2588
  687MOL0     H94750   0.991  10.897  10.072  0.9564 -6.0007  1.1456
  687MOL0     H94751   0.968  10.812  10.370  1.1327 -0.9681  1.0065
  687MOL0     H94752   1.081  10.752  10.254  0.9354  2.0987  0.2247
  687MOL0     H94753   0.779  10.750  10.216  0.7091  0.1929  0.0903
  687MOL0     H94754   0.874  10.671  10.110  0.5673  1.6730 -0.3336
  687MOL0     H94755   1.037  10.465  10.190  2.5195 -0.0414  2.2434
  687MOL0     H94756   1.041  10.224  10.239 -1.3223 -1.7932 -1.0506
  687MOL0     H94757   0.911  10.173  10.358  0.3565  1.5587  2.0871
  687MOL0     H94758   1.185  10.290  10.437  1.0875  0.2459 -0.6811
  687MOL0     H94759   1.051  10.248  10.548 -1.7494  2.0929 -1.1195
  687MOL0     H94760   1.080  10.027  10.522  0.0150  2.1167  1.5689
  687MOL0     H94761   1.175  10.032  10.366  2.2151  1.6122 -0.4310
  687MOL0     H94762   1.266  10.138  10.622  3.0131  2.5709 -1.3402
  687MOL0     H94763   1.319   9.980  10.557  2.8935  0.8027  2.6160
  687MOL0     H94764   1.538  10.320  10.382  0.7930  1.4949  0.5608
  687MOL0     H94765   1.886  10.384  10.424 -0.1703 -0.9056  1.0219
  687MOL0     H94766   1.803  10.489  10.540  2.4734 -1.5621  1.2600
  687MOL0     H94767   1.733  10.467  10.378 -0.0547 -0.2373 -0.8142
  687MOL0     H94768   2.059  10.579  10.678 -1.5269 -0.6574  1.1611
  687MOL0     H94769   2.274  10.644  10.778 -0.8212 -0.5521 -0.7447
  687MOL0     H94770   2.463  10.672  10.944  1.3605 -0.1493  1.5951
  687MOL0     H94771   2.328  10.615  11.040  0.6377 -0.1538  5.7791
  687MOL0     H94772   2.467  10.461  11.151 -1.2741  0.3072 -2.1549
  687MOL0     H94773   2.617  10.542  11.118 -0.4652 -0.8105 -3.3932
  687MOL0     H94774   2.533  10.641  11.336  1.4869  1.4989  0.1803
  687MOL0     H94775   2.386  10.689  11.255 -0.4292 -2.1055  0.5723
  687MOL0     H94776   2.493  10.846  11.094  2.1415  0.9586 -1.0060
  687MOL0     H94777   2.649  10.782  11.146 -0.9947 -0.9867 -1.2109
  687MOL0     H94778   2.453  10.943  11.323  0.8026  2.8894 -1.2068
  687MOL0     H94779   2.598  10.865  11.374 -1.7890 -3.0477 -1.1538
  687MOL0     H94780   2.583  11.089  11.160  0.2240  1.9442  0.2292
  687MOL0     H94781   2.736  11.010  11.220  0.6694  2.2432  0.7922
  687MOL0     H94782   2.732  11.096  11.420 -0.9942 -2.3479 -0.2105
  687MOL0     H94783   2.560  11.130  11.422 -1.8127  1.8896 -2.9608
  687MOL0     H94784   2.708  11.335  11.406 -0.4316 -0.3093  0.7777
  687MOL0     H94785   2.574  11.317  11.298 -0.0762 -0.9365  1.9664
  687MOL0     H94786   2.345  10.243  10.876 -1.1334 -0.1902  1.7023
  687MOL0     H94787   2.134  10.173  10.762  2.0230  0.4566 -2.3783
  687MOL0     H94788   1.711  10.042  10.750  0.0968 -2.9901 -2.6655
  687MOL0     H94789   1.497  10.012  10.660 -1.6308  1.1092  4.0974
  687MOL0     H94790   1.043  11.296  10.605  0.4764 -3.2339  3.7257
  687MOL0     H94791   0.935  11.281  10.810 -0.2026 -2.2820  0.3918
  687MOL0     H94792   0.748  11.088  11.064  0.3325 -1.5482  0.0586
  687MOL0     H94793   0.745  11.077  11.285  2.0156  0.4989 -1.9366
  687MOL0     H94794   0.345  11.154  11.529 -2.2291 -1.8168 -1.4819
  687MOL0     H94795   0.361  10.995  11.455 -1.1057 -0.2224  1.3581
  687MOL0     H94796   0.343  10.965  11.697  1.2093  0.3580  4.6471
  687MOL0     H94797   0.459  11.088  11.728 -1.9956  2.7501 -2.1691
  687MOL0     H94798   0.529  10.846  11.568  0.0797  2.8181 -1.5863
  687MOL0     H94799   0.637  10.957  11.655  1.9006 -1.9565  0.6564
  687MOL0     H94800   0.431  10.763  11.791  0.0170 -0.5113  0.8839
  687MOL0     H94801   0.541  10.881  11.864 -2.1263  0.5539 -0.0676
  687MOL0     H94802   0.788  10.556  11.746 -0.4807 -0.9725  0.3054
  687MOL0     H94803   0.337  11.243  11.298 -1.1254  1.3554 -2.6365
  687MOL0     H94804   0.317  11.351  11.023  0.6613 -0.6381 -0.5735
  687MOL0     H94805   0.281  11.190  10.955  1.6323 -0.1163 -0.1527
  687MOL0     H94806   0.204  11.233  11.108 -0.4162 -1.3653 -0.1412
  688MOL0     O94807   3.986   2.587   5.228 -0.0332  0.5077 -0.1513
  688MOL0     C94808   3.898   2.544   5.296 -0.3782  0.2319  1.2214
  688MOL0     O94809   3.920   2.477   5.413  0.5074 -0.1416  0.5150
  688MOL0     C94810   4.045   2.450   5.467  0.3964  0.5270  0.6122
  688MOL0     C94811   4.034   2.374   5.583  0.7010  0.8346  0.1627
  688MOL0     C94812   4.150   2.326   5.641 -0.4787 -0.0897 -0.9574
  688MOL0     C94813   4.277   2.363   5.601 -0.5072 -0.3673  0.0174
  688MOL0     O94814   4.387   2.323   5.668  0.4901  0.1235  0.2754
  688MOL0     C94815   4.456   2.442   5.723 -0.5327  1.1472  0.9335
  688MOL0     C94816   4.571   2.372   5.785  0.2527 -0.1513 -0.9052
  688MOL0     C94817   4.669   2.304   5.686  0.3560 -0.2147 -0.2532
  688MOL0     C94818   4.806   2.371   5.668 -0.1324 -0.0857 -0.5392
  688MOL0     C94819   4.798   2.480   5.564  0.1873 -0.2162  0.3344
  688MOL0     C94820   4.936   2.511   5.487  0.6886  0.3461  0.7959
  688MOL0     C94821   4.885   2.576   5.349 -0.7494  0.4865  0.8335
  688MOL0     C94822   4.996   2.641   5.262 -0.8103  0.0034 -0.0747
  688MOL0     N94823   4.939   2.703   5.130 -0.5502 -0.2405 -0.4048
  688MOL0     C94824   4.817   2.750   5.099 -0.5211  0.5989 -0.0097
  688MOL0     C94825   4.816   2.762   4.961  0.1289  0.3649  0.2289
  688MOL0     C94826   4.698   2.787   4.873 -0.5080  0.4465 -0.9755
  688MOL0     C94827   4.661   2.932   4.880  1.4107  0.4827  1.1076
  688MOL0     C94828   4.760   3.023   4.808 -0.2068 -0.0227  0.3461
  688MOL0     C94829   4.774   2.987   4.653  0.0379 -0.2480 -0.1010
  688MOL0     O94830   4.650   2.976   4.579 -0.2688 -0.5307  0.6654
  688MOL0     C94831   4.666   2.912   4.463  0.5590  1.0517  0.1726
  688MOL0     C94832   4.663   2.973   4.342 -0.0309  0.2004  0.2876
  688MOL0     C94833   4.674   2.914   4.221  0.0508 -0.0305  0.4311
  688MOL0     C94834   4.685   3.012   4.101 -0.2953  0.6724  0.6707
  688MOL0     C94835   4.697   2.773   4.216  0.3691 -0.6209 -0.7935
  688MOL0     C94836   4.731   2.700   4.091 -0.1845  0.3483  0.4628
  688MOL0     O94837   4.749   2.565   4.106  0.0607  0.3873  0.9033
  688MOL0     C94838   4.806   2.473   4.011  0.0338 -0.0660  1.0350
  688MOL0     C94839   4.864   2.505   3.886 -0.3184  0.1127 -0.4949
  688MOL0     C94840   4.927   2.409   3.805  1.0706 -0.0889  0.3526
  688MOL0     C94841   4.945   2.277   3.858 -0.3526 -0.2517 -0.1049
  688MOL0     O94842   5.005   2.174   3.792 -0.2583  0.2297  0.2354
  688MOL0     C94843   5.136   2.192   3.727  0.7293 -0.3730 -0.6318
  688MOL0     C94844   5.247   2.188   3.828  0.2756  0.4562  0.3620
  688MOL0     C94845   5.274   2.047   3.877 -0.2274 -0.3480 -0.7810
  688MOL0     C94846   5.414   2.008   3.860 -0.6748 -0.6554  0.2150
  688MOL0     C94847   5.447   1.874   3.918  0.1384  0.1116  0.2173
  688MOL0     C94848   5.597   1.840   3.881 -1.2698  0.0473 -0.3713
  688MOL0     C94849   5.660   1.758   3.990 -0.3632 -0.2764  0.3481
  688MOL0     C94850   5.798   1.719   3.940 -0.3279  0.4490 -0.6097
  688MOL0    Cl94851   5.866   1.602   4.057 -0.2816 -0.2897 -0.1657
  688MOL0     C94852   4.895   2.251   3.989 -0.1970 -0.3477  0.5618
  688MOL0     C94853   4.818   2.346   4.055 -0.6447 -0.0408 -0.5477
  688MOL0     O94854   4.752   2.762   3.989 -0.4283 -0.0844  0.1031
  688MOL0     C94855   4.694   2.709   4.338 -0.6502 -0.0619  0.3321
  688MOL0     C94856   4.682   2.774   4.456 -0.6135 -0.3898 -0.0038
  688MOL0     N94857   4.939   2.721   4.915 -0.2577  0.4963  0.7420
  688MOL0     N94858   5.013   2.694   5.014 -1.3232 -0.0082  0.6057
  688MOL0     C94859   4.288   2.451   5.490  0.9823 -0.7924 -0.8854
  688MOL0     C94860   4.172   2.499   5.432  0.6023 -0.1891 -0.4912
  688MOL0     C94861   3.754   2.564   5.249 -0.1324 -0.0371  0.6947
  688MOL0     C94862   3.658   2.527   5.350  0.4638  0.9836  0.0435
  688MOL0     C94863   3.519   2.540   5.318 -0.6079 -0.0027  0.4962
  688MOL0     C94864   3.473   2.592   5.196  0.4768  0.5309  0.1982
  688MOL0     O94865   3.340   2.595   5.176  0.6936 -0.8864 -0.6435
  688MOL0     C94866   3.295   2.695   5.082  0.5891  0.3611  0.3678
  688MOL0     C94867   3.142   2.705   5.106  0.2932  0.6496 -0.7571
  688MOL0     C94868   3.117   2.727   5.260 -0.2934  0.0844 -0.0756
  688MOL0     C94869   3.001   2.828   5.282 -0.6894 -0.7523  0.9004
  688MOL0     C94870   2.871   2.790   5.231  1.3395 -0.4137 -0.5542
  688MOL0     C94871   2.763   2.750   5.197 -0.0271  0.0122  0.1331
  688MOL0     C94872   3.567   2.644   5.113  1.0733 -0.3626 -0.1713
  688MOL0     C94873   3.709   2.626   5.135  0.6391 -1.2095  0.2350
  688MOL0     C94874   3.797   2.688   5.031 -0.4065 -0.0916 -0.2077
  688MOL0     H94875   3.935   2.338   5.612 -0.2656  1.7949 -1.7656
  688MOL0     H94876   4.144   2.259   5.727  0.2433  2.8052  1.5532
  688MOL0     H94877   4.404   2.493   5.804 -0.1739  3.1435 -0.0265
  688MOL0     H94878   4.489   2.510   5.644 -1.3211  1.2986  0.7281
  688MOL0     H94879   4.634   2.445   5.837  1.1005 -0.7446 -1.0670
  688MOL0     H94880   4.545   2.300   5.863  1.5272  0.4632  0.1388
  688MOL0     H94881   4.704   2.214   5.739 -1.7831 -1.1555 -0.3320
  688MOL0     H94882   4.627   2.285   5.587 -0.9548  0.9986  0.0447
  688MOL0     H94883   4.855   2.410   5.758 -1.7738  1.3913 -0.2328
  688MOL0     H94884   4.874   2.298   5.623  1.0591 -0.2995  1.4808
  688MOL0     H94885   4.764   2.572   5.611  1.8038  1.1340 -0.9960
  688MOL0     H94886   4.723   2.454   5.488 -0.6100 -1.8573  1.6288
  688MOL0     H94887   4.999   2.577   5.548  1.8697 -0.4002  0.4009
  688MOL0     H94888   4.991   2.417   5.475 -0.7536 -0.2688 -1.8764
  688MOL0     H94889   4.810   2.650   5.378 -1.1779 -0.1496  1.3823
  688MOL0     H94890   4.840   2.503   5.281  3.3665 -2.4022  0.8602
  688MOL0     H94891   5.041   2.720   5.323 -2.5380  2.1291 -1.3775
  688MOL0     H94892   5.072   2.570   5.229 -0.0428  0.4570  0.6769
  688MOL0     H94893   4.728   2.762   5.160 -1.8604 -1.8642 -1.3315
  688MOL0     H94894   4.617   2.715   4.885  0.1028 -0.1821 -0.6185
  688MOL0     H94895   4.720   2.765   4.768 -3.4549 -0.0489 -1.5729
  688MOL0     H94896   4.553   2.932   4.862  1.4610 -2.4945  0.1007
  688MOL0     H94897   4.661   2.962   4.985 -0.0363 -0.6503  1.4656
  688MOL0     H94898   4.733   3.128   4.820  1.8652  0.5631  0.2801
  688MOL0     H94899   4.855   3.021   4.862 -1.0919  3.9942  2.4119
  688MOL0     H94900   4.822   3.075   4.609  1.9166 -0.5308  1.2691
  688MOL0     H94901   4.830   2.893   4.645  0.7214  0.2171 -0.9381
  688MOL0     H94902   4.631   3.077   4.340  2.2547  0.9345 -0.0198
  688MOL0     H94903   4.639   3.106   4.133  0.0505  1.0637  0.0400
  688MOL0     H94904   4.632   2.970   4.015 -0.0509  0.3102  0.6937
  688MOL0     H94905   4.791   3.034   4.081 -0.5488  2.0149  0.7089
  688MOL0     H94906   4.865   2.608   3.851  3.2255  0.6728  0.8422
  688MOL0     H94907   4.969   2.440   3.710 -0.4951  3.4028  0.6239
  688MOL0     H94908   5.158   2.121   3.647 -0.0628 -0.9475 -0.3428
  688MOL0     H94909   5.153   2.291   3.682 -0.8110 -0.3919 -1.3207
  688MOL0     H94910   5.337   2.229   3.781  0.2120 -0.9444 -1.0440
  688MOL0     H94911   5.217   2.258   3.907  0.8523  3.7819 -2.1147
  688MOL0     H94912   5.206   1.980   3.824  0.2303  0.0783 -1.9257
  688MOL0     H94913   5.240   2.047   3.981  0.0806  1.2137 -0.6615
  688MOL0     H94914   5.480   2.075   3.915  0.7480 -0.6792 -1.3554
  688MOL0     H94915   5.437   2.009   3.753 -0.4607 -3.3126  0.1504
  688MOL0     H94916   5.444   1.888   4.026  1.5048  1.1171  0.1417
  688MOL0     H94917   5.375   1.807   3.870 -0.3204 -0.2054  1.3354
  688MOL0     H94918   5.656   1.930   3.864  0.0589 -0.6059  0.5943
  688MOL0     H94919   5.592   1.776   3.793 -0.4732 -1.5728  0.7108
  688MOL0     H94920   5.595   1.674   4.016  0.3613 -0.4945  1.5523
  688MOL0     H94921   5.670   1.820   4.079 -0.1204  1.7327 -1.0161
  688MOL0     H94922   5.867   1.804   3.945 -0.2226  0.2936  1.6036
  688MOL0     H94923   5.793   1.678   3.838  0.9958  0.2132 -0.6032
  688MOL0     H94924   4.920   2.155   4.033  1.1322  0.1046  0.8301
  688MOL0     H94925   4.775   2.315   4.150  1.0433 -3.3651 -0.6980
  688MOL0     H94926   4.717   2.603   4.341  2.5910  0.4908 -0.7970
  688MOL0     H94927   4.686   2.719   4.550  0.7912  0.9400  0.7629
  688MOL0     H94928   4.379   2.490   5.445 -0.2515 -0.6011 -3.4201
  688MOL0     H94929   4.182   2.568   5.349  0.2064 -2.5319 -2.5798
  688MOL0     H94930   3.682   2.479   5.445 -1.7275  0.3000  0.3068
  688MOL0     H94931   3.454   2.502   5.396  0.0919  0.0005  1.0922
  688MOL0     H94932   3.344   2.789   5.108 -0.8997  0.8742  1.4494
  688MOL0     H94933   3.320   2.667   4.979 -0.3295  0.2997  0.1510
  688MOL0     H94934   3.091   2.613   5.075  0.3735  1.0200 -2.0492
  688MOL0     H94935   3.102   2.782   5.040  0.8125  2.0982  0.5293
  688MOL0     H94936   3.106   2.636   5.320  0.2697  0.2309  0.2561
  688MOL0     H94937   3.203   2.774   5.308  0.4358  0.3498 -1.5885
  688MOL0     H94938   3.037   2.918   5.233 -1.3061  0.4249  2.5312
  688MOL0     H94939   2.992   2.849   5.389 -1.6207 -2.7918  1.2727
  688MOL0     H94940   2.666   2.719   5.162  0.5525  0.1434 -1.7118
  688MOL0     H94941   3.539   2.696   5.022  1.6983 -0.2197 -0.2870
  688MOL0     H94942   3.832   2.600   4.975  1.3360 -1.2736  2.5078
  688MOL0     H94943   3.746   2.750   4.956  1.1734  0.1052 -1.1596
  688MOL0     H94944   3.876   2.748   5.076 -1.8342  0.4910  1.6483
  689MOL0     O94945  11.042   3.775   7.806 -0.2112  1.3367 -1.2943
  689MOL0     C94946  10.923   3.758   7.781 -0.2273  0.3506 -0.1019
  689MOL0     O94947  10.827   3.857   7.799 -0.4937 -0.5327  0.3381
  689MOL0     C94948  10.860   3.966   7.874 -0.1480  0.0177 -0.1697
  689MOL0     C94949  10.901   4.084   7.802 -0.5662 -0.1765  0.5309
  689MOL0     C94950  10.934   4.202   7.869 -0.1357 -0.1204 -0.8681
  689MOL0     C94951  10.941   4.202   8.010  0.4077 -0.1943  0.1839
  689MOL0     O94952  10.995   4.310   8.060 -0.0795 -0.9757  0.0691
  689MOL0     C94953  11.080   4.299   8.182 -0.3617 -0.2720  0.5565
  689MOL0     C94954  11.220   4.234   8.156  0.6780  0.5421  0.2005
  689MOL0     C94955  11.282   4.307   8.029 -0.9618 -0.2591  0.0410
  689MOL0     C94956  11.386   4.223   7.954  0.8713  0.0687 -0.1510
  689MOL0     C94957  11.485   4.319   7.884  0.3871 -0.1341  0.0997
  689MOL0     C94958  11.608   4.367   7.977  0.2626  0.4540  0.0187
  689MOL0     C94959  11.666   4.502   7.930 -0.1104 -0.3900  0.0487
  689MOL0     C94960  11.781   4.544   8.025  0.1127 -0.0317 -0.7235
  689MOL0     N94961  11.906   4.596   7.964  0.4587  0.6194  0.3735
  689MOL0     C94962  11.988   4.521   7.885 -0.1597 -0.0230  0.0155
  689MOL0     C94963  12.109   4.586   7.887 -0.3343  0.2447 -0.1753
  689MOL0     C94964  12.236   4.537   7.827 -0.8705 -0.2636 -0.3881
  689MOL0     C94965  12.313   4.425   7.905 -0.0497 -0.6221  0.4795
  689MOL0     C94966  12.420   4.351   7.814  0.0914 -0.2978 -0.6138
  689MOL0     C94967  12.504   4.441   7.719  0.3489  0.1433 -0.2482
  689MOL0     O94968  12.582   4.533   7.791  0.0851  0.1774  0.0513
  689MOL0     C94969  12.702   4.482   7.845  0.6727 -0.3476  0.6837
  689MOL0     C94970  12.719   4.487   7.984 -0.4678 -0.0962 -0.2649
  689MOL0     C94971  12.846   4.445   8.036  0.4122 -0.4811  0.3884
  689MOL0     C94972  12.875   4.465   8.183 -0.5265  0.0794  0.8042
  689MOL0     C94973  12.946   4.384   7.960 -0.5386  0.6802  0.3120
  689MOL0     C94974  13.073   4.319   8.008 -0.8465  0.1320 -0.2456
  689MOL0     O94975  13.140   4.237   7.918  0.1647  0.1608 -0.2899
  689MOL0     C94976  13.262   4.179   7.962 -0.2777  0.6694  0.1147
  689MOL0     C94977  13.375   4.257   7.964  0.1861 -0.7333  0.6989
  689MOL0     C94978  13.500   4.206   7.997 -0.0587 -0.4163 -0.5782
  689MOL0     C94979  13.522   4.068   8.000  0.6571 -0.7454  0.3240
  689MOL0     O94980  13.642   4.007   8.011  0.0741  0.6446  0.7513
  689MOL0     C94981  13.758   4.097   7.992 -1.1256  0.1217  0.6402
  689MOL0     C94982  13.892   4.021   8.002 -0.2195 -0.9901 -0.1724
  689MOL0     C94983  13.920   3.936   7.883 -0.0617 -0.4162  0.3575
  689MOL0     C94984  14.071   3.883   7.881  0.5678 -0.1840  0.6381
  689MOL0     C94985  14.173   3.984   7.836  0.6206  0.4043  1.1325
  689MOL0     C94986  14.314   3.934   7.878  0.1605  0.2222  1.0767
  689MOL0     C94987  14.408   4.028   7.804  0.2578 -0.9189 -0.0282
  689MOL0     C94988  14.547   4.000   7.862  0.0449  0.1908  1.0202
  689MOL0    Cl94989  14.679   4.064   7.757 -0.3638  0.1807 -0.3995
  689MOL0     C94990  13.406   3.987   7.991 -0.3151  0.6024  0.0848
  689MOL0     C94991  13.283   4.043   7.969 -0.4528  0.4323 -0.8003
  689MOL0     O94992  13.113   4.342   8.124 -0.2580 -0.3428 -0.3397
  689MOL0     C94993  12.918   4.391   7.817  0.3932  0.2812 -0.3377
  689MOL0     C94994  12.805   4.438   7.763  0.2383 -0.4319 -0.4440
  689MOL0     N94995  12.093   4.702   7.964  0.6973  1.0753  0.7222
  689MOL0     N94996  11.969   4.703   8.009 -0.9389 -0.2410 -0.2947
  689MOL0     C94997  10.884   4.090   8.081  0.1025  0.0650  0.1575
  689MOL0     C94998  10.837   3.972   8.008  0.1230 -0.2049 -0.4540
  689MOL0     C94999  10.872   3.623   7.726 -0.2441 -0.4895 -0.8216
  689MOL0     C95000  10.733   3.601   7.724 -0.2808  1.1826  0.3682
  689MOL0     C95001  10.677   3.482   7.677  0.4297  1.1387  0.3790
  689MOL0     C95002  10.748   3.382   7.617 -0.5893  0.1396 -1.0584
  689MOL0     O95003  10.687   3.269   7.576  0.5959 -0.1971  0.5037
  689MOL0     C95004  10.765   3.164   7.530  0.6524  0.7359  0.3423
  689MOL0     C95005  10.687   3.041   7.498  0.4451 -0.3341  0.0642
  689MOL0     C95006  10.617   3.063   7.361 -1.0868 -0.3682 -0.0483
  689MOL0     C95007  10.538   2.941   7.341  0.1719  0.2757 -0.0431
  689MOL0     C95008  10.433   2.956   7.238  0.4044  0.0520  0.4326
  689MOL0     C95009  10.334   2.943   7.165  0.0728 -0.4231  0.5316
  689MOL0     C95010  10.890   3.406   7.612 -0.3940 -1.3086  0.5477
  689MOL0     C95011  10.955   3.517   7.673  0.7394 -0.5344 -0.2130
  689MOL0     C95012  11.107   3.532   7.673 -0.3747  0.2138  0.6402
  689MOL0     H95013  10.915   4.075   7.695  2.9293 -2.1616  1.0021
  689MOL0     H95014  10.972   4.291   7.819  1.6413  1.1278  2.3775
  689MOL0     H95015  11.017   4.245   8.253 -0.6174 -0.9173 -0.1489
  689MOL0     H95016  11.097   4.401   8.216  1.1387 -1.1812  2.7351
  689MOL0     H95017  11.285   4.245   8.244 -0.3533 -3.6026  1.7397
  689MOL0     H95018  11.212   4.129   8.125 -3.6470  0.7400  0.1060
  689MOL0     H95019  11.205   4.326   7.955 -0.0020  0.0944 -0.8837
  689MOL0     H95020  11.322   4.406   8.052  0.0524 -0.2321 -1.6757
  689MOL0     H95021  11.434   4.162   8.032  1.0589  2.5759  1.8601
  689MOL0     H95022  11.333   4.166   7.878  2.0289 -1.8590  0.4139
  689MOL0     H95023  11.421   4.399   7.844 -0.5785  0.1232  2.0431
  689MOL0     H95024  11.530   4.267   7.799 -0.2069 -2.1873  0.9860
  689MOL0     H95025  11.571   4.388   8.078 -2.8796  2.0379 -1.3339
  689MOL0     H95026  11.687   4.291   7.983  2.2215  2.3689  0.1331
  689MOL0     H95027  11.585   4.575   7.933 -1.0308 -1.2136 -2.3117
  689MOL0     H95028  11.692   4.490   7.824 -0.8952 -1.4618 -0.0419
  689MOL0     H95029  11.733   4.618   8.090  0.1123 -0.1046 -0.6402
  689MOL0     H95030  11.807   4.465   8.096 -0.6516  0.8901  0.6268
  689MOL0     H95031  11.967   4.425   7.839  0.2445 -0.3350  0.4601
  689MOL0     H95032  12.300   4.623   7.806  1.0829 -1.8677 -1.3893
  689MOL0     H95033  12.215   4.486   7.732 -1.2517 -1.9191  0.5393
  689MOL0     H95034  12.357   4.472   7.994  1.2943  2.2648 -1.5488
  689MOL0     H95035  12.229   4.366   7.942 -0.2665 -0.0477  0.9247
  689MOL0     H95036  12.494   4.312   7.885  1.4704  1.2107 -1.1526
  689MOL0     H95037  12.369   4.275   7.754 -1.0577 -1.3530  1.5811
  689MOL0     H95038  12.568   4.371   7.664 -1.0262 -1.8399  0.5667
  689MOL0     H95039  12.441   4.501   7.653  0.2506  0.8158  0.4410
  689MOL0     H95040  12.657   4.538   8.057  0.9863  0.2652  0.7743
  689MOL0     H95041  12.973   4.513   8.190 -0.7190  0.7932 -0.8019
  689MOL0     H95042  12.875   4.367   8.232 -2.8704 -0.1290  0.4960
  689MOL0     H95043  12.810   4.541   8.228 -0.9114 -0.0210  0.4267
  689MOL0     H95044  13.357   4.364   7.959  1.6625 -0.3473  2.5252
  689MOL0     H95045  13.584   4.275   8.000  1.6911 -2.4842  0.7552
  689MOL0     H95046  13.755   4.151   7.897  1.4480  2.1163  1.5542
  689MOL0     H95047  13.753   4.176   8.067 -1.0757 -0.0397  0.8142
  689MOL0     H95048  13.959   4.108   8.003  0.2420 -1.3373 -0.6374
  689MOL0     H95049  13.887   3.973   8.100 -1.7921 -0.4610  0.0352
  689MOL0     H95050  13.885   3.995   7.798 -1.4869 -0.9540  0.5413
  689MOL0     H95051  13.854   3.850   7.885 -1.2568  0.4860  1.2348
  689MOL0     H95052  14.089   3.796   7.816  0.4899  1.5882 -1.8956
  689MOL0     H95053  14.102   3.841   7.977  0.0013  0.5074  1.1253
  689MOL0     H95054  14.176   4.004   7.728 -1.9531 -0.6389  0.8068
  689MOL0     H95055  14.155   4.084   7.876 -0.8090  0.8604 -0.5578
  689MOL0     H95056  14.323   3.832   7.841 -1.6385 -0.2733  1.8804
  689MOL0     H95057  14.341   3.940   7.984  1.0952 -0.7525  0.9040
  689MOL0     H95058  14.380   4.133   7.821  1.8560 -0.6462  1.2412
  689MOL0     H95059  14.398   4.007   7.697 -0.4235  2.1708 -0.6816
  689MOL0     H95060  14.562   3.892   7.871 -3.1258 -0.3330  1.3951
  689MOL0     H95061  14.547   4.055   7.957 -1.7066 -0.1804  1.2682
  689MOL0     H95062  13.415   3.880   8.004  0.8276  0.7188  0.3373
  689MOL0     H95063  13.209   3.968   7.945  1.4709 -1.9035  0.1342
  689MOL0     H95064  12.991   4.351   7.748  1.9352 -1.2298  2.0427
  689MOL0     H95065  12.800   4.440   7.655 -2.0163 -0.2655 -0.3983
  689MOL0     H95066  10.875   4.097   8.189  0.9216  0.6435  0.1944
  689MOL0     H95067  10.789   3.893   8.065 -0.4262  0.0220 -0.6015
  689MOL0     H95068  10.659   3.673   7.759 -0.8919  1.4140 -1.2958
  689MOL0     H95069  10.569   3.469   7.680  0.6694 -1.5724 -0.2248
  689MOL0     H95070  10.827   3.182   7.441 -0.2679  0.0064 -0.4758
  689MOL0     H95071  10.831   3.131   7.611 -2.0703 -2.5477  1.4904
  689MOL0     H95072  10.618   3.012   7.578  2.2062  1.9636  2.6246
  689MOL0     H95073  10.757   2.959   7.478 -0.7315 -1.7335  1.3737
  689MOL0     H95074  10.555   3.153   7.357  0.0025  0.3928 -3.5140
  689MOL0     H95075  10.689   3.073   7.279  0.7871  2.4751  1.7380
  689MOL0     H95076  10.491   2.902   7.432 -1.3939 -1.1235 -1.3783
  689MOL0     H95077  10.605   2.866   7.299 -0.3879  0.5293 -1.4728
  689MOL0     H95078  10.251   2.937   7.097  1.4491  2.0877 -1.5497
  689MOL0     H95079  10.959   3.341   7.559 -0.9683 -2.2098  0.8851
  689MOL0     H95080  11.145   3.500   7.771 -1.8102  0.8980  1.4584
  689MOL0     H95081  11.153   3.469   7.596  4.1590  3.7202  0.0751
  689MOL0     H95082  11.142   3.626   7.630  1.5159 -0.6453  0.2055
  690MOL0     O95083   1.051   1.141   1.451  0.2228 -0.4438  0.1155
  690MOL0     C95084   1.025   1.073   1.347 -0.4136 -0.1290  0.2651
  690MOL0     O95085   1.107   0.974   1.293 -0.3296 -0.2682 -0.0211
  690MOL0     C95086   1.235   0.961   1.344  0.0970 -0.4033  0.2896
  690MOL0     C95087   1.342   1.009   1.260  0.1667 -0.8357 -0.4083
  690MOL0     C95088   1.475   1.010   1.308 -0.0702 -0.4369 -0.7664
  690MOL0     C95089   1.504   0.949   1.428 -1.1433  0.1712  0.1249
  690MOL0     O95090   1.636   0.968   1.464 -0.1978  0.0739  0.7257
  690MOL0     C95091   1.673   0.916   1.594  1.0664  0.4309 -0.4722
  690MOL0     C95092   1.819   0.941   1.630  0.5131  0.2164 -0.3314
  690MOL0     C95093   1.862   1.100   1.633  0.7018  0.1407 -0.0537
  690MOL0     C95094   2.008   1.110   1.664 -0.2276  0.7776 -0.2239
  690MOL0     C95095   2.055   1.234   1.725 -0.0743 -0.1206  0.2619
  690MOL0     C95096   2.028   1.367   1.655  0.1608 -0.0151  0.0091
  690MOL0     C95097   2.061   1.374   1.504 -0.1880  0.0763  0.2128
  690MOL0     C95098   2.209   1.434   1.492  0.0890  0.3637 -0.2926
  690MOL0     N95099   2.258   1.412   1.359 -0.3010 -0.8891  0.6687
  690MOL0     C95100   2.233   1.503   1.261  0.0043  0.2801  0.1400
  690MOL0     C95101   2.317   1.462   1.160  0.4559 -0.2891 -0.9650
  690MOL0     C95102   2.321   1.530   1.029  0.2625 -0.3158  0.5317
  690MOL0     C95103   2.426   1.651   1.039  0.9534  0.0110 -1.3278
  690MOL0     C95104   2.500   1.684   0.910 -0.2415  0.2712  0.4292
  690MOL0     C95105   2.630   1.759   0.950 -0.5588  0.0658  0.4242
  690MOL0     O95106   2.734   1.737   0.856 -0.3547 -0.1943  0.8710
  690MOL0     C95107   2.840   1.829   0.858  0.0604  0.5270  0.6825
  690MOL0     C95108   2.868   1.933   0.947 -0.3108 -0.2342 -0.4954
  690MOL0     C95109   2.980   2.013   0.939  0.5974  0.1766 -0.3262
  690MOL0     C95110   3.004   2.114   1.057 -0.5287  1.1059  0.0909
  690MOL0     C95111   3.074   1.995   0.840 -0.0688 -0.3743  0.3964
  690MOL0     C95112   3.186   2.095   0.810  0.7223 -0.0069 -0.9968
  690MOL0     O95113   3.157   2.234   0.822  0.0433 -0.0430  0.4288
  690MOL0     C95114   3.248   2.331   0.784  0.8049  0.4896 -0.5840
  690MOL0     C95115   3.268   2.444   0.867 -0.1501 -0.3962  0.3735
  690MOL0     C95116   3.365   2.548   0.846 -1.1392 -0.2697  0.6432
  690MOL0     C95117   3.442   2.538   0.723  0.3320 -0.6914  0.4721
  690MOL0     O95118   3.523   2.645   0.693 -0.4574  0.0262 -0.5099
  690MOL0     C95119   3.622   2.639   0.593 -0.4568 -0.1678  0.4593
  690MOL0     C95120   3.763   2.609   0.660  0.2331 -0.0867 -0.0908
  690MOL0     C95121   3.877   2.637   0.555  0.5435 -0.2405  0.2275
  690MOL0     C95122   3.890   2.532   0.452  1.3529  0.9886  0.3707
  690MOL0     C95123   4.008   2.547   0.363 -0.2354 -0.0894  0.8776
  690MOL0     C95124   4.125   2.456   0.404 -0.2165 -0.6859 -0.4352
  690MOL0     C95125   4.261   2.497   0.332  0.3492  0.2959  0.4715
  690MOL0     C95126   4.362   2.393   0.367  0.3233 -0.1631  0.3894
  690MOL0    Cl95127   4.363   2.365   0.547 -0.3509  0.5633 -0.1883
  690MOL0     C95128   3.437   2.413   0.663 -1.2210  0.4163  0.1679
  690MOL0     C95129   3.346   2.314   0.687 -0.5819 -0.6676 -0.6193
  690MOL0     O95130   3.286   2.048   0.761  0.2047  1.2966 -0.5740
  690MOL0     C95131   3.058   1.883   0.755 -0.4545 -0.0421 -0.3240
  690MOL0     C95132   2.943   1.802   0.771  0.1108  0.1618 -0.2767
  690MOL0     N95133   2.404   1.371   1.204 -0.4239 -0.3473 -0.0039
  690MOL0     N95134   2.363   1.328   1.316  0.1899 -0.3357  0.4562
  690MOL0     C95135   1.400   0.890   1.500  0.0691  0.1056  0.3057
  690MOL0     C95136   1.268   0.890   1.457  0.0434 -0.2532  0.0532
  690MOL0     C95137   0.883   1.073   1.292  0.9119 -0.2305  0.8334
  690MOL0     C95138   0.843   0.972   1.198  0.5663  0.3949  0.1979
  690MOL0     C95139   0.716   0.974   1.134 -1.1870  0.7300  0.5893
  690MOL0     C95140   0.628   1.066   1.165  0.8617 -0.4299  0.0141
  690MOL0     O95141   0.511   1.075   1.093 -0.1147 -0.7753  0.7609
  690MOL0     C95142   0.388   1.101   1.156 -0.5297  0.9164 -0.2876
  690MOL0     C95143   0.292   1.004   1.082  0.8502  0.2505 -0.0739
  690MOL0     C95144   0.159   0.997   1.152  0.0685  0.0366  0.0286
  690MOL0     C95145   0.058   0.929   1.056 -0.5876 -0.2061  0.3260
  690MOL0     C95146  -0.080   0.936   1.109 -0.2990  0.7345 -1.0646
  690MOL0     C95147  -0.193   0.938   1.154 -0.2041 -0.0373  0.0157
  690MOL0     C95148   0.653   1.165   1.259 -0.7583 -0.5108 -0.8406
  690MOL0     C95149   0.778   1.166   1.328 -0.2818 -0.7423 -0.4180
  690MOL0     C95150   0.812   1.293   1.415 -0.1765 -0.4098 -0.3607
  690MOL0     H95151   1.317   1.045   1.161 -0.9363 -3.4915 -1.1729
  690MOL0     H95152   1.555   1.055   1.249  1.4718 -1.8751  0.1433
  690MOL0     H95153   1.650   0.809   1.597  1.0142  0.4607  0.4301
  690MOL0     H95154   1.617   0.974   1.668 -1.0886 -0.5356 -1.2697
  690MOL0     H95155   1.841   0.898   1.728 -2.0838  0.4500  0.4182
  690MOL0     H95156   1.881   0.880   1.563 -0.4918 -2.8884  1.3955
  690MOL0     H95157   1.829   1.162   1.549  1.2265  0.4815 -0.0097
  690MOL0     H95158   1.815   1.148   1.719 -2.6581 -0.8221 -1.1931
  690MOL0     H95159   2.032   1.018   1.718 -0.9834  0.8088  0.1761
  690MOL0     H95160   2.071   1.099   1.575  1.0688 -0.6107  0.8200
  690MOL0     H95161   2.163   1.218   1.730 -0.0871 -0.6190 -0.6286
  690MOL0     H95162   2.001   1.239   1.819 -0.2787 -0.5415  0.1701
  690MOL0     H95163   1.921   1.384   1.669  0.4221  1.0150  0.8301
  690MOL0     H95164   2.071   1.446   1.717  0.9332 -0.9018  0.6287
  690MOL0     H95165   1.992   1.431   1.441  0.3255 -0.1959 -0.6240
  690MOL0     H95166   2.068   1.276   1.455  1.1116 -0.6456  1.7677
  690MOL0     H95167   2.202   1.542   1.500  0.2000  0.4614 -1.3028
  690MOL0     H95168   2.281   1.390   1.562  0.2845  1.4090  0.1824
  690MOL0     H95169   2.153   1.576   1.262  1.0255  1.4385  2.0468
  690MOL0     H95170   2.221   1.555   0.994  0.1016 -2.4961 -0.7427
  690MOL0     H95171   2.359   1.453   0.961  1.6923  0.3782  0.5082
  690MOL0     H95172   2.367   1.737   1.071 -0.4226 -0.1797 -3.1876
  690MOL0     H95173   2.497   1.624   1.117 -2.9505  0.6126  2.8232
  690MOL0     H95174   2.521   1.596   0.848  1.3045  3.1387 -3.5782
  690MOL0     H95175   2.449   1.745   0.835  2.4026 -0.1488 -1.8754
  690MOL0     H95176   2.600   1.863   0.965 -0.7805  0.0007  0.4354
  690MOL0     H95177   2.662   1.718   1.046  0.1576  1.3579  0.7696
  690MOL0     H95178   2.805   1.952   1.033 -3.6995  2.0629 -3.1581
  690MOL0     H95179   3.021   2.216   1.023 -3.1421  0.7242 -2.8601
  690MOL0     H95180   3.097   2.071   1.095  0.0091 -0.4101 -2.6213
  690MOL0     H95181   2.935   2.107   1.142 -0.1360  1.3574  0.4334
  690MOL0     H95182   3.205   2.449   0.955  0.7566  0.6301  0.9861
  690MOL0     H95183   3.363   2.641   0.902 -0.8634  0.4121 -0.4528
  690MOL0     H95184   3.595   2.569   0.514  1.2795  1.9596 -2.2180
  690MOL0     H95185   3.623   2.739   0.547  2.3309 -0.1813  0.3182
  690MOL0     H95186   3.773   2.669   0.751  1.6035 -0.8363  0.2823
  690MOL0     H95187   3.770   2.501   0.680  1.1867 -0.1076 -0.4615
  690MOL0     H95188   3.971   2.634   0.611  0.0526 -2.5917  1.0279
  690MOL0     H95189   3.853   2.729   0.501  2.8225  0.5942  0.5281
  690MOL0     H95190   3.800   2.545   0.391 -0.2446 -0.7773  2.2063
  690MOL0     H95191   3.883   2.432   0.495  1.7039  0.5071 -0.6613
  690MOL0     H95192   3.984   2.532   0.258  4.2288 -3.2677  0.0393
  690MOL0     H95193   4.050   2.648   0.357 -0.5540  0.0092  0.1806
  690MOL0     H95194   4.095   2.359   0.364  0.1771 -1.2812  0.6542
  690MOL0     H95195   4.126   2.462   0.514  0.4660 -0.2497 -0.4540
  690MOL0     H95196   4.288   2.600   0.359 -0.2413  0.4954  0.3212
  690MOL0     H95197   4.263   2.494   0.222  1.8656  0.5707  0.4777
  690MOL0     H95198   4.463   2.424   0.340 -0.4192  1.1622 -1.0048
  690MOL0     H95199   4.353   2.297   0.315 -2.0189 -0.3075  0.9390
  690MOL0     H95200   3.494   2.379   0.578  0.1602 -0.6619  1.4786
  690MOL0     H95201   3.339   2.230   0.618 -1.2479 -1.2136  0.0931
  690MOL0     H95202   3.130   1.858   0.679 -1.0395  0.1206 -0.9421
  690MOL0     H95203   2.936   1.708   0.718  2.1270 -1.3102  1.9060
  690MOL0     H95204   1.422   0.842   1.594  2.8196  1.4183  0.4401
  690MOL0     H95205   1.192   0.835   1.512 -0.9928 -1.2489 -2.2694
  690MOL0     H95206   0.911   0.897   1.158 -1.3248  0.9349 -4.6679
  690MOL0     H95207   0.708   0.886   1.071  0.6291  0.1541  1.0965
  690MOL0     H95208   0.393   1.075   1.262  1.5990  0.8497 -0.3611
  690MOL0     H95209   0.356   1.205   1.141  2.4535  2.2375  1.5421
  690MOL0     H95210   0.334   0.904   1.071  0.6516  0.1142  0.3779
  690MOL0     H95211   0.275   1.042   0.981 -2.0506 -2.2755 -0.6666
  690MOL0     H95212   0.161   0.941   1.246 -0.5842  2.3520  1.5216
  690MOL0     H95213   0.134   1.097   1.187  0.2747  0.2627 -0.4597
  690MOL0     H95214   0.082   0.824   1.036  0.4650  0.2062 -0.6734
  690MOL0     H95215   0.077   0.991   0.968 -0.9951  1.4402  1.3524
  690MOL0     H95216  -0.290   0.966   1.191 -0.5976  2.7922 -2.7533
  690MOL0     H95217   0.583   1.243   1.288  0.5761  0.2307  0.5353
  690MOL0     H95218   0.858   1.264   1.509  1.2814 -1.0164 -1.2298
  690MOL0     H95219   0.891   1.348   1.362  0.9124 -1.7423 -0.1699
  690MOL0     H95220   0.718   1.349   1.423  0.6486  1.5079 -2.6854
  691MOL0     O95221   1.815   3.252   4.330 -0.2800 -0.4074 -0.4623
  691MOL0     C95222   1.782   3.286   4.448 -0.3262 -0.1136  0.4018
  691MOL0     O95223   1.808   3.212   4.555  0.3248 -0.1071 -0.4193
  691MOL0     C95224   1.898   3.110   4.559  1.7871  1.4864 -0.3337
  691MOL0     C95225   1.885   3.019   4.677  0.3838 -0.9949  0.2736
  691MOL0     C95226   1.965   2.912   4.698  1.0529  0.4313  0.5112
  691MOL0     C95227   2.072   2.886   4.620 -0.2402 -0.7969  1.1197
  691MOL0     O95228   2.153   2.794   4.671  0.3746 -0.1725 -0.0106
  691MOL0     C95229   2.280   2.769   4.608 -0.2623 -0.2519 -0.0361
  691MOL0     C95230   2.354   2.652   4.686 -0.2390  0.0617  0.4077
  691MOL0     C95231   2.267   2.522   4.700 -0.5101 -0.0774  0.2044
  691MOL0     C95232   2.190   2.468   4.577 -0.1565 -0.1151 -0.0395
  691MOL0     C95233   2.115   2.341   4.613  0.3056  0.7383  0.7304
  691MOL0     C95234   2.011   2.296   4.506 -0.4164 -0.9197  1.1065
  691MOL0     C95235   1.918   2.183   4.557 -0.2822  0.1513  0.3870
  691MOL0     C95236   1.833   2.214   4.688  0.0621 -0.3926 -0.4819
  691MOL0     N95237   1.757   2.341   4.653 -0.4365  0.6439 -0.0973
  691MOL0     C95238   1.784   2.469   4.697 -0.7739 -0.5620  0.1641
  691MOL0     C95239   1.667   2.530   4.667  0.7411 -0.2804  0.2704
  691MOL0     C95240   1.641   2.675   4.695 -0.3137  0.0235  1.3785
  691MOL0     C95241   1.652   2.769   4.568  0.0751 -0.2471  0.1161
  691MOL0     C95242   1.573   2.739   4.439 -0.6250  0.2254  0.3048
  691MOL0     C95243   1.441   2.804   4.436  0.5260 -1.3350  0.6628
  691MOL0     O95244   1.453   2.948   4.403  0.7306 -0.6039  0.4321
  691MOL0     C95245   1.343   3.028   4.370  0.7105 -0.4729  0.0313
  691MOL0     C95246   1.360   3.137   4.290 -0.4694 -0.1127 -0.6147
  691MOL0     C95247   1.259   3.222   4.242 -0.0299 -0.2552  0.3589
  691MOL0     C95248   1.314   3.343   4.161  0.4596  0.6241 -0.9542
  691MOL0     C95249   1.123   3.195   4.270 -0.0935  0.6899  0.1298
  691MOL0     C95250   1.005   3.262   4.223 -0.6935 -0.8442  0.2296
  691MOL0     O95251   0.898   3.266   4.299  1.1666 -0.0941 -0.0223
  691MOL0     C95252   0.779   3.321   4.249 -0.0105  0.6733 -0.7697
  691MOL0     C95253   0.680   3.239   4.204  0.1441  0.4265 -0.1782
  691MOL0     C95254   0.556   3.288   4.157  0.3858  0.4129  1.0794
  691MOL0     C95255   0.535   3.427   4.135 -0.8019  0.4771  1.2329
  691MOL0     O95256   0.419   3.478   4.077 -0.4028 -0.1979  0.3322
  691MOL0     C95257   0.324   3.392   4.008 -0.2551 -0.5316 -0.6537
  691MOL0     C95258   0.199   3.477   3.967  0.0219  0.0844 -1.3869
  691MOL0     C95259   0.223   3.608   3.883 -0.4044  0.7109 -0.0339
  691MOL0     C95260   0.090   3.664   3.857 -0.0024  0.2167 -0.5174
  691MOL0     C95261   0.097   3.784   3.777 -0.5291  0.8175 -0.2784
  691MOL0     C95262   0.142   3.913   3.859  0.1698  0.3909  0.2137
  691MOL0     C95263   0.191   4.011   3.748 -0.3503  0.9750 -0.2260
  691MOL0     C95264   0.214   4.152   3.806 -0.2456  0.3579 -0.7186
  691MOL0    Cl95265   0.291   4.235   3.674 -0.1828  0.1246  0.1983
  691MOL0     C95266   0.637   3.514   4.176 -0.1818 -0.4034  0.8451
  691MOL0     C95267   0.751   3.458   4.229  0.2083  0.2287 -0.4962
  691MOL0     O95268   1.009   3.316   4.112  0.4047 -0.4684 -0.4892
  691MOL0     C95269   1.105   3.080   4.349 -0.0327  0.5076  0.0599
  691MOL0     C95270   1.213   3.000   4.399  0.8868 -0.8344 -0.4116
  691MOL0     N95271   1.578   2.439   4.607  0.0354 -0.6234 -0.1837
  691MOL0     N95272   1.634   2.323   4.599  0.0997 -0.2469  1.3592
  691MOL0     C95273   2.096   2.970   4.512  0.5294 -0.7167  0.1256
  691MOL0     C95274   2.009   3.083   4.483 -0.9268 -0.2341 -0.3835
  691MOL0     C95275   1.670   3.380   4.444  0.0978  0.0882 -0.4822
  691MOL0     C95276   1.592   3.384   4.557  1.0142  0.2374 -0.0030
  691MOL0     C95277   1.490   3.484   4.572 -0.1456  0.1198  0.8033
  691MOL0     C95278   1.452   3.567   4.466 -1.1828  0.4329  0.4300
  691MOL0     O95279   1.325   3.622   4.470 -0.0885  0.0552 -0.0163
  691MOL0     C95280   1.272   3.691   4.357 -0.0083  0.6640  0.9356
  691MOL0     C95281   1.124   3.729   4.392  0.8779  0.1671 -0.1963
  691MOL0     C95282   1.044   3.752   4.263 -0.0020 -0.6863 -0.1037
  691MOL0     C95283   0.907   3.806   4.298 -0.6870 -0.1564  0.0272
  691MOL0     C95284   0.821   3.847   4.185 -0.3612 -0.3829  0.2827
  691MOL0     C95285   0.754   3.867   4.089  0.8872 -0.4238 -0.2178
  691MOL0     C95286   1.534   3.564   4.356 -0.6496 -0.0301  0.8201
  691MOL0     C95287   1.639   3.474   4.340 -0.8741 -0.3000  0.8192
  691MOL0     C95288   1.722   3.499   4.217 -1.0510 -0.4121  0.3128
  691MOL0     H95289   1.800   3.037   4.742 -2.4215 -2.1634 -2.8267
  691MOL0     H95290   1.939   2.860   4.790 -0.1493 -0.3678 -0.2485
  691MOL0     H95291   2.342   2.859   4.609 -1.5565  0.7029 -1.2375
  691MOL0     H95292   2.260   2.740   4.504  2.6557  1.7453 -1.2806
  691MOL0     H95293   2.437   2.626   4.619  1.0338  0.1211  1.9271
  691MOL0     H95294   2.403   2.680   4.779  0.4882 -0.1142  0.0872
  691MOL0     H95295   2.339   2.446   4.733  0.8416  2.2283  3.0612
  691MOL0     H95296   2.193   2.537   4.779 -2.4419  0.2738 -1.5762
  691MOL0     H95297   2.134   2.559   4.554  0.6427  0.2769 -0.5106
  691MOL0     H95298   2.259   2.457   4.493  0.1870  0.7240  0.1154
  691MOL0     H95299   2.057   2.351   4.706  1.2015 -0.6177  1.4773
  691MOL0     H95300   2.187   2.263   4.638  0.4945  1.0140  1.0632
  691MOL0     H95301   1.956   2.386   4.476  2.3971  1.5808  2.8752
  691MOL0     H95302   2.060   2.273   4.410 -2.4243 -2.4705  0.3990
  691MOL0     H95303   1.993   2.114   4.597  1.1382  2.1645  1.4384
  691MOL0     H95304   1.864   2.131   4.477 -1.1586  1.6042 -0.0193
  691MOL0     H95305   1.763   2.133   4.710  1.1191 -1.4311 -0.8274
  691MOL0     H95306   1.895   2.221   4.777 -0.2257 -1.9421 -0.1240
  691MOL0     H95307   1.873   2.515   4.739 -0.0204 -0.7592 -1.1798
  691MOL0     H95308   1.720   2.713   4.761 -0.0651  1.7077  0.1887
  691MOL0     H95309   1.545   2.701   4.739  0.1448  2.3483  1.1618
  691MOL0     H95310   1.615   2.871   4.584  0.4895  0.1881 -1.5034
  691MOL0     H95311   1.760   2.773   4.548  0.2066 -1.2209  0.5699
  691MOL0     H95312   1.628   2.784   4.355 -4.4809 -0.5311 -2.9159
  691MOL0     H95313   1.568   2.632   4.415 -3.3430  0.3746 -0.0496
  691MOL0     H95314   1.373   2.747   4.373 -1.7827  1.8602  0.0104
  691MOL0     H95315   1.403   2.798   4.539  0.6089  2.2122  1.0604
  691MOL0     H95316   1.463   3.163   4.267  0.5810 -1.4238  2.0859
  691MOL0     H95317   1.237   3.421   4.154  0.3276  0.5525 -0.3385
  691MOL0     H95318   1.337   3.309   4.060  2.0733 -0.8297 -0.1386
  691MOL0     H95319   1.407   3.380   4.205  0.8801 -2.2543  0.8293
  691MOL0     H95320   0.703   3.135   4.224 -1.2664  0.4215  1.7200
  691MOL0     H95321   0.475   3.221   4.131  2.9792 -1.4583 -3.3152
  691MOL0     H95322   0.376   3.354   3.920  0.7367  0.4612 -0.5122
  691MOL0     H95323   0.284   3.311   4.070  0.3349 -0.7686 -0.5743
  691MOL0     H95324   0.135   3.402   3.921  0.9161 -0.1219 -2.3329
  691MOL0     H95325   0.155   3.503   4.064  1.5741 -1.1136 -0.2973
  691MOL0     H95326   0.278   3.580   3.793  2.8276 -0.2183  2.0404
  691MOL0     H95327   0.278   3.688   3.934 -2.1438  1.0460  1.4124
  691MOL0     H95328   0.051   3.683   3.958 -0.7329 -1.9625 -0.3372
  691MOL0     H95329   0.019   3.590   3.819 -1.4177  0.6449  1.1636
  691MOL0     H95330   0.153   3.761   3.686  1.7372 -0.6070  1.3934
  691MOL0     H95331  -0.005   3.809   3.745 -0.8723  0.3444  0.4252
  691MOL0     H95332   0.221   3.890   3.931  1.3091 -2.5456 -1.7755
  691MOL0     H95333   0.051   3.948   3.908  0.2956 -0.2313  0.9087
  691MOL0     H95334   0.118   4.015   3.667 -1.3735 -2.3647  0.3866
  691MOL0     H95335   0.272   3.967   3.688 -1.0389  1.2957 -1.4231
  691MOL0     H95336   0.293   4.137   3.880 -1.3125 -0.4964  0.2889
  691MOL0     H95337   0.122   4.194   3.848 -0.4417 -2.8282  2.5306
  691MOL0     H95338   0.620   3.616   4.144 -0.8172 -0.0145  2.3477
  691MOL0     H95339   0.839   3.519   4.246  1.4397 -0.7992 -2.6658
  691MOL0     H95340   1.010   3.037   4.378  0.4898  0.8935  2.5575
  691MOL0     H95341   1.184   2.916   4.461  1.0427  0.0133  0.8541
  691MOL0     H95342   2.189   2.952   4.459  0.4230  0.3234 -0.4398
  691MOL0     H95343   2.027   3.151   4.400 -3.3353 -1.5757 -2.1357
  691MOL0     H95344   1.604   3.311   4.636  1.2856 -1.5099 -1.6052
  691MOL0     H95345   1.430   3.482   4.661 -2.8441 -1.5256 -0.9246
  691MOL0     H95346   1.327   3.780   4.326  2.4003 -1.0228  0.1084
  691MOL0     H95347   1.270   3.614   4.280 -0.6826  1.1035  0.5040
  691MOL0     H95348   1.110   3.806   4.469 -2.8036 -1.3469  0.8749
  691MOL0     H95349   1.070   3.652   4.448  2.3028 -0.8869 -0.2063
  691MOL0     H95350   1.091   3.838   4.213 -0.7177  0.6320  1.3955
  691MOL0     H95351   1.052   3.663   4.200 -1.1875 -2.4798  2.1435
  691MOL0     H95352   0.913   3.898   4.357 -2.4049 -1.2316  2.0258
  691MOL0     H95353   0.863   3.735   4.369 -2.3431  0.1651 -0.6301
  691MOL0     H95354   0.682   3.879   4.010  1.5065  2.0699 -0.4861
  691MOL0     H95355   1.495   3.623   4.274 -0.8124 -0.6052  0.4756
  691MOL0     H95356   1.710   3.405   4.162 -1.9007  0.4524 -1.0398
  691MOL0     H95357   1.690   3.583   4.155  0.9363 -0.3553 -0.7151
  691MOL0     H95358   1.828   3.521   4.233 -0.7640 -1.9775  0.7596
  692MOL0     O95359   5.996   4.488   4.485  0.3420 -0.1564 -0.2492
  692MOL0     C95360   5.882   4.476   4.445 -0.2962  0.0432  0.3828
  692MOL0     O95361   5.774   4.506   4.513 -0.1421 -0.3524 -0.0832
  692MOL0     C95362   5.793   4.515   4.644  0.6858 -0.2141 -1.0166
  692MOL0     C95363   5.836   4.405   4.727 -0.7481  0.1652 -0.1205
  692MOL0     C95364   5.854   4.423   4.868  0.1349  0.1439  0.6015
  692MOL0     C95365   5.809   4.550   4.927 -1.0968  0.1902  0.1457
  692MOL0     O95366   5.788   4.577   5.062  0.4844 -0.0667  0.1867
  692MOL0     C95367   5.880   4.519   5.165  0.0100 -0.3570 -0.0642
  692MOL0     C95368   5.847   4.573   5.304  0.1784 -0.3945 -0.6434
  692MOL0     C95369   5.949   4.574   5.423 -0.0846  0.2409  0.1423
  692MOL0     C95370   6.009   4.430   5.424  0.7086 -0.3146 -0.5809
  692MOL0     C95371   6.096   4.427   5.542 -0.6829  0.6467 -0.0857
  692MOL0     C95372   6.200   4.321   5.522  0.4555  0.2676 -0.1788
  692MOL0     C95373   6.299   4.304   5.640 -0.6610  0.1692  0.3446
  692MOL0     C95374   6.246   4.207   5.743  0.2942 -0.2626  0.0143
  692MOL0     N95375   6.346   4.181   5.846 -0.1323  0.0958  0.3753
  692MOL0     C95376   6.465   4.111   5.833 -0.9512 -1.1793  0.1232
  692MOL0     C95377   6.531   4.125   5.951 -0.2757  0.0938 -0.3537
  692MOL0     C95378   6.666   4.057   5.993 -0.1321 -0.5411  0.1417
  692MOL0     C95379   6.793   4.123   5.937  0.4334  0.4967 -0.0737
  692MOL0     C95380   6.916   4.082   6.024  0.8587 -0.4949  0.5011
  692MOL0     C95381   7.046   4.144   5.986 -0.2394  0.4083  0.1277
  692MOL0     O95382   7.161   4.092   6.052  0.6131  0.5958  0.6538
  692MOL0     C95383   7.285   4.136   6.038 -0.0531 -0.4370  0.3889
  692MOL0     C95384   7.324   4.254   5.973 -0.8294  0.0173 -0.3008
  692MOL0     C95385   7.456   4.282   5.944 -0.4587  0.9580  0.1472
  692MOL0     C95386   7.489   4.413   5.872  0.8028 -1.0233  0.5449
  692MOL0     C95387   7.558   4.186   5.978 -0.2062  0.0020  0.1155
  692MOL0     C95388   7.708   4.210   5.951  0.2289 -0.6786 -0.8162
  692MOL0     O95389   7.747   4.341   5.936 -0.6605  0.1036 -0.0064
  692MOL0     C95390   7.882   4.375   5.928  0.3888 -0.5700 -0.2173
  692MOL0     C95391   7.901   4.509   5.962  0.7214 -0.1910 -0.6570
  692MOL0     C95392   8.028   4.566   5.928  0.6522 -0.3986 -0.1764
  692MOL0     C95393   8.133   4.499   5.884 -0.1107  0.4579 -0.0036
  692MOL0     O95394   8.244   4.561   5.831 -0.4610 -0.2399  0.2140
  692MOL0     C95395   8.224   4.649   5.719  0.1617 -0.7723 -0.4458
  692MOL0     C95396   8.312   4.609   5.606  0.4154  0.1142  1.0960
  692MOL0     C95397   8.434   4.524   5.645 -0.2361  0.4869  0.3699
  692MOL0     C95398   8.511   4.452   5.538 -0.1273  0.5688 -0.4133
  692MOL0     C95399   8.632   4.378   5.588 -0.6161  0.8969 -0.0936
  692MOL0     C95400   8.726   4.328   5.478  0.1006  0.5787 -0.6231
  692MOL0     C95401   8.664   4.237   5.376 -0.4198 -0.0838  0.6212
  692MOL0     C95402   8.597   4.115   5.448  0.0622  0.7206 -0.1792
  692MOL0    Cl95403   8.511   4.027   5.316  0.1381 -0.3647 -0.0128
  692MOL0     C95404   8.107   4.370   5.843 -0.0387  0.0052 -0.8354
  692MOL0     C95405   7.988   4.305   5.876 -0.4041  0.4683 -0.2301
  692MOL0     O95406   7.785   4.117   5.939 -0.8286 -0.2202 -0.1976
  692MOL0     C95407   7.514   4.060   6.029  0.2513 -0.1283  0.5674
  692MOL0     C95408   7.381   4.039   6.059  0.0356  0.9318  0.4271
  692MOL0     N95409   6.454   4.201   6.036  0.5098 -0.8028 -0.5857
  692MOL0     N95410   6.345   4.240   5.969  0.3007 -0.3732  0.3950
  692MOL0     C95411   5.775   4.658   4.847  1.3742 -0.0092  1.3324
  692MOL0     C95412   5.773   4.643   4.707 -0.2955 -0.2196  1.4580
  692MOL0     C95413   5.858   4.437   4.302  0.1991  0.7632 -0.2072
  692MOL0     C95414   5.733   4.464   4.249 -0.3171 -0.1533 -0.4037
  692MOL0     C95415   5.720   4.448   4.110  0.0556  0.1263  0.2461
  692MOL0     C95416   5.812   4.370   4.033  0.4457  0.8383  1.0150
  692MOL0     O95417   5.796   4.322   3.910 -0.3056 -1.1950  0.7640
  692MOL0     C95418   5.686   4.374   3.831 -0.1215 -0.5946 -0.1330
  692MOL0     C95419   5.702   4.531   3.794  1.0885  1.3334  0.3253
  692MOL0     C95420   5.672   4.564   3.644 -0.2316 -0.6427 -0.2387
  692MOL0     C95421   5.652   4.712   3.617 -1.8085  0.0838  0.1622
  692MOL0     C95422   5.771   4.795   3.658  0.3136  0.3209 -0.2892
  692MOL0     C95423   5.870   4.850   3.685 -0.0465 -0.3616  0.2384
  692MOL0     C95424   5.933   4.347   4.092 -0.1524 -0.5876  0.1190
  692MOL0     C95425   5.965   4.398   4.218 -0.6902 -0.0892 -0.6416
  692MOL0     C95426   6.106   4.381   4.250  0.5118 -0.5151 -0.2300
  692MOL0     H95427   5.865   4.316   4.672 -0.2782  1.2490 -1.6840
  692MOL0     H95428   5.867   4.346   4.943  1.6416  1.8709  2.2162
  692MOL0     H95429   5.973   4.559   5.122 -0.5504 -0.4516 -1.4275
  692MOL0     H95430   5.871   4.410   5.164  0.3057 -0.3856  0.3012
  692MOL0     H95431   5.820   4.678   5.286  2.0169  0.3736  0.7860
  692MOL0     H95432   5.755   4.525   5.339 -0.2413 -0.0904 -1.3216
  692MOL0     H95433   6.026   4.652   5.418 -0.7275  0.8719 -0.0250
  692MOL0     H95434   5.897   4.599   5.516 -0.7863  1.8491 -0.6428
  692MOL0     H95435   5.930   4.354   5.429  0.6755 -0.3117 -1.0145
  692MOL0     H95436   6.068   4.400   5.337  0.3016  0.2879 -1.0779
  692MOL0     H95437   6.037   4.409   5.633 -0.2260 -1.2155 -0.1234
  692MOL0     H95438   6.155   4.518   5.554  1.6878 -0.7880 -0.3456
  692MOL0     H95439   6.153   4.223   5.509  1.0973 -0.0717 -0.0098
  692MOL0     H95440   6.254   4.344   5.430 -1.1107 -2.0921 -1.7760
  692MOL0     H95441   6.337   4.395   5.686  0.2079 -0.5723  1.1384
  692MOL0     H95442   6.382   4.250   5.593 -0.2587 -1.1629  2.4390
  692MOL0     H95443   6.162   4.255   5.794 -1.4498 -0.3446 -2.5528
  692MOL0     H95444   6.201   4.117   5.701  1.5739 -1.1094  0.4268
  692MOL0     H95445   6.495   4.050   5.749 -0.9721  0.6046 -1.2499
  692MOL0     H95446   6.656   3.951   5.971  0.5903 -0.0353 -3.0630
  692MOL0     H95447   6.672   4.063   6.103  1.5622  2.7655  0.0169
  692MOL0     H95448   6.807   4.096   5.832  3.2068  1.7792 -0.1324
  692MOL0     H95449   6.778   4.231   5.945 -0.8501  0.2146  2.2927
  692MOL0     H95450   6.903   4.116   6.127 -2.1021  0.4400 -0.1017
  692MOL0     H95451   6.916   3.972   6.029 -4.1686 -0.7121  0.7946
  692MOL0     H95452   7.066   4.136   5.879  1.3529 -2.4613  0.5229
  692MOL0     H95453   7.034   4.249   6.013 -4.2524  0.0758  0.2427
  692MOL0     H95454   7.254   4.332   5.943  1.2793  1.8352 -0.7221
  692MOL0     H95455   7.534   4.492   5.933  2.2122 -1.1784 -0.2572
  692MOL0     H95456   7.396   4.444   5.824  1.1556 -1.5345 -0.4926
  692MOL0     H95457   7.559   4.393   5.791 -1.4239 -1.5763 -1.3505
  692MOL0     H95458   7.814   4.563   5.998 -1.1336 -1.8295 -2.4669
  692MOL0     H95459   8.046   4.673   5.927 -2.3565  0.1762 -0.8366
  692MOL0     H95460   8.123   4.649   5.677 -0.5374 -1.8490  1.1135
  692MOL0     H95461   8.248   4.752   5.747 -1.5212 -0.8159  1.4371
  692MOL0     H95462   8.245   4.561   5.534 -0.5305 -0.1497  2.1165
  692MOL0     H95463   8.350   4.697   5.555 -2.3467  0.3544 -0.7377
  692MOL0     H95464   8.402   4.437   5.704  0.1851 -1.5733 -2.2260
  692MOL0     H95465   8.503   4.587   5.701 -1.7211  2.5495 -0.0356
  692MOL0     H95466   8.537   4.525   5.461  1.1731  0.8800  0.2959
  692MOL0     H95467   8.453   4.379   5.481  1.3682 -1.6830  0.8019
  692MOL0     H95468   8.679   4.452   5.654 -2.4883  0.3045  2.0158
  692MOL0     H95469   8.602   4.296   5.654  1.2803  0.6987  0.5888
  692MOL0     H95470   8.802   4.270   5.531  0.1060  1.2944  0.1712
  692MOL0     H95471   8.773   4.409   5.420 -0.5993  0.5611 -1.2245
  692MOL0     H95472   8.738   4.202   5.304 -0.4953 -0.1749  0.5878
  692MOL0     H95473   8.586   4.293   5.325 -1.2667 -2.4296 -0.8295
  692MOL0     H95474   8.517   4.148   5.514  0.1382  1.1460 -0.3001
  692MOL0     H95475   8.671   4.050   5.496 -0.9943  1.2533  2.3280
  692MOL0     H95476   8.193   4.319   5.801 -0.4080 -1.0025 -0.4330
  692MOL0     H95477   7.969   4.204   5.840 -0.8555  1.1876 -2.1213
  692MOL0     H95478   7.579   3.975   6.048 -0.3733 -1.2110 -1.8084
  692MOL0     H95479   7.352   3.938   6.086  0.3880 -0.5187 -3.9265
  692MOL0     H95480   5.749   4.755   4.890  2.4905  2.2206 -2.5730
  692MOL0     H95481   5.738   4.724   4.644 -0.7450  0.5594  2.6735
  692MOL0     H95482   5.652   4.510   4.305 -0.9268  1.0657 -2.2215
  692MOL0     H95483   5.625   4.483   4.071  0.9761  3.3891  0.6614
  692MOL0     H95484   5.678   4.311   3.742 -0.5142 -0.9972  0.1854
  692MOL0     H95485   5.594   4.358   3.888  2.3670 -2.8353  3.6143
  692MOL0     H95486   5.804   4.565   3.813  2.5773 -1.5316 -1.8550
  692MOL0     H95487   5.633   4.578   3.865 -0.1480 -1.7158  1.3226
  692MOL0     H95488   5.746   4.514   3.581 -1.1720 -1.8251 -0.4570
  692MOL0     H95489   5.579   4.519   3.607 -0.3287  1.1743 -2.4153
  692MOL0     H95490   5.563   4.748   3.670 -0.5572  1.0154  1.7317
  692MOL0     H95491   5.643   4.724   3.508 -0.5173  1.0330  0.1447
  692MOL0     H95492   5.960   4.898   3.717 -1.1410 -0.5362  4.0741
  692MOL0     H95493   6.003   4.294   4.028 -0.8958  1.6373 -2.7243
  692MOL0     H95494   6.151   4.473   4.289  0.5627 -1.1621  1.2997
  692MOL0     H95495   6.118   4.297   4.318  0.8783  1.1258  1.8238
  692MOL0     H95496   6.165   4.360   4.160 -0.3933  1.7710 -1.4615
  693MOL0     O95497   5.064   4.914   5.821  0.6666  0.2185  0.0874
  693MOL0     C95498   5.172   4.894   5.876  0.0426  0.0976  0.6083
  693MOL0     O95499   5.252   4.992   5.917 -0.2724  0.3896 -0.2643
  693MOL0     C95500   5.196   5.117   5.918  0.0344 -0.2391  0.8311
  693MOL0     C95501   5.213   5.209   5.813  1.3292 -0.8362 -0.0264
  693MOL0     C95502   5.156   5.342   5.816 -0.2581  0.1507  0.1934
  693MOL0     C95503   5.076   5.381   5.913 -0.5187  0.7901 -0.1479
  693MOL0     O95504   5.026   5.508   5.910  0.0664  0.1316 -1.1549
  693MOL0     C95505   5.007   5.576   6.034 -0.3756  0.4196 -0.2034
  693MOL0     C95506   5.142   5.607   6.096 -0.1895  0.3893  0.3517
  693MOL0     C95507   5.209   5.722   6.022 -0.3519  0.1211 -0.4221
  693MOL0     C95508   5.332   5.781   6.085  0.0575  0.3766 -0.3254
  693MOL0     C95509   5.392   5.892   5.995 -0.7539  0.0398 -0.2633
  693MOL0     C95510   5.537   5.916   6.032 -0.4328 -0.4009  0.2274
  693MOL0     C95511   5.598   6.024   5.946  0.3009 -0.4966  0.4035
  693MOL0     C95512   5.742   6.066   5.966 -0.0077  0.4054 -0.0617
  693MOL0     N95513   5.824   5.944   5.939 -0.6312 -0.3855  0.5927
  693MOL0     C95514   5.868   5.853   6.030  0.2607  0.0417 -0.5698
  693MOL0     C95515   5.969   5.782   5.965 -0.7119  0.4579  0.0118
  693MOL0     C95516   6.043   5.674   6.038  0.0771  0.1693  0.8050
  693MOL0     C95517   6.197   5.704   6.046  0.3306 -0.8010  0.2502
  693MOL0     C95518   6.237   5.852   6.082  0.2949  0.4935  0.1438
  693MOL0     C95519   6.373   5.854   6.155  0.4356  0.5186  1.1399
  693MOL0     O95520   6.373   5.776   6.274  0.5422  0.1325 -0.4223
  693MOL0     C95521   6.479   5.780   6.360 -0.4315 -0.0053 -0.3933
  693MOL0     C95522   6.589   5.869   6.352 -1.0487  0.2444  0.3366
  693MOL0     C95523   6.708   5.853   6.432 -0.2811 -0.2483  0.8643
  693MOL0     C95524   6.820   5.953   6.385 -0.1930 -0.5366  0.3584
  693MOL0     C95525   6.711   5.748   6.525  0.6300  0.6956 -0.8017
  693MOL0     C95526   6.834   5.717   6.602  1.2122  0.2770  0.8637
  693MOL0     O95527   6.819   5.619   6.700 -0.1678  0.4296 -0.6372
  693MOL0     C95528   6.919   5.579   6.784 -0.6298  0.3535 -0.1839
  693MOL0     C95529   6.888   5.567   6.914  0.6217  0.2237  0.5476
  693MOL0     C95530   6.984   5.516   7.000  0.5077  0.2339 -0.2742
  693MOL0     C95531   7.112   5.492   6.955 -0.5290  0.2888  0.9603
  693MOL0     O95532   7.204   5.450   7.045 -0.0626  0.7540 -0.6175
  693MOL0     C95533   7.319   5.372   7.020 -0.1528  0.2463  0.9367
  693MOL0     C95534   7.406   5.374   7.135 -0.9575  0.1378  0.4471
  693MOL0     C95535   7.556   5.396   7.096  0.3332  0.3447  0.3424
  693MOL0     C95536   7.657   5.382   7.211  0.8636 -0.2420 -0.7200
  693MOL0     C95537   7.796   5.403   7.147 -0.2089 -0.5336 -0.4750
  693MOL0     C95538   7.910   5.408   7.255 -0.5074  0.2702 -0.1302
  693MOL0     C95539   8.059   5.394   7.199 -0.1867  0.5333  0.3255
  693MOL0     C95540   8.080   5.469   7.068 -0.5877  0.7668 -0.6225
  693MOL0    Cl95541   8.058   5.637   7.087  0.1385 -0.0101  0.0632
  693MOL0     C95542   7.146   5.509   6.821  0.3921 -0.3240  0.6772
  693MOL0     C95543   7.044   5.553   6.731  0.0559  1.6473 -0.4711
  693MOL0     O95544   6.934   5.771   6.572 -0.2371  0.3263  0.1371
  693MOL0     C95545   6.592   5.671   6.545 -0.5306 -0.2023  0.8473
  693MOL0     C95546   6.480   5.688   6.464  0.1495 -0.2427 -0.1178
  693MOL0     N95547   5.979   5.833   5.843 -0.2269 -0.0734  0.4592
  693MOL0     N95548   5.886   5.925   5.820 -0.1048 -0.4968  1.0678
  693MOL0     C95549   5.063   5.292   6.021 -0.9604  0.1014  0.2575
  693MOL0     C95550   5.118   5.158   6.027  0.0349 -0.2739  0.0315
  693MOL0     C95551   5.217   4.756   5.896 -0.1215 -0.6599 -0.3180
  693MOL0     C95552   5.302   4.741   6.009  0.1190 -0.1892 -0.6952
  693MOL0     C95553   5.341   4.617   6.036  0.5109  0.4610 -0.3495
  693MOL0     C95554   5.323   4.506   5.948  0.0786  0.3274 -0.4456
  693MOL0     O95555   5.363   4.379   5.974  0.2767 -0.1135 -0.5760
  693MOL0     C95556   5.441   4.351   6.093 -0.9033 -0.1055  0.2866
  693MOL0     C95557   5.351   4.323   6.211  0.1097  0.2379  0.0191
  693MOL0     C95558   5.374   4.181   6.260  0.0040  0.2878 -0.0951
  693MOL0     C95559   5.294   4.137   6.370  0.2480  0.4543  0.5694
  693MOL0     C95560   5.149   4.126   6.339 -0.0569  0.4309  0.6652
  693MOL0     C95561   5.028   4.101   6.329 -0.4189 -0.4300  0.6672
  693MOL0     C95562   5.256   4.530   5.828 -0.2731 -0.0495 -0.0020
  693MOL0     C95563   5.193   4.650   5.808  0.7847 -0.1666 -0.7748
  693MOL0     C95564   5.109   4.669   5.696 -0.4360 -0.5181  0.2095
  693MOL0     H95565   5.263   5.169   5.725  1.0691 -0.6639 -0.2564
  693MOL0     H95566   5.168   5.415   5.736 -2.6284  0.5199  0.0940
  693MOL0     H95567   4.941   5.516   6.098  0.3753 -1.2257 -0.9080
  693MOL0     H95568   4.951   5.669   6.024  1.8258  1.7220 -0.9073
  693MOL0     H95569   5.128   5.639   6.200 -0.7079  0.8990  0.1264
  693MOL0     H95570   5.207   5.519   6.093 -0.1022  0.4593 -2.9387
  693MOL0     H95571   5.250   5.679   5.930  2.1901  1.0360  0.1863
  693MOL0     H95572   5.139   5.805   6.006 -1.9216 -0.3065  3.2111
  693MOL0     H95573   5.311   5.822   6.184 -0.4138  1.9336 -1.0432
  693MOL0     H95574   5.403   5.697   6.091 -1.1446 -0.6692 -0.2814
  693MOL0     H95575   5.337   5.985   6.015  2.2115  1.8964 -0.0694
  693MOL0     H95576   5.387   5.863   5.890  1.3307  2.0635 -1.0003
  693MOL0     H95577   5.534   5.948   6.137  1.2948 -2.2956  0.9124
  693MOL0     H95578   5.592   5.822   6.028  0.0305 -0.0969 -1.4329
  693MOL0     H95579   5.528   6.107   5.944 -0.4113 -1.0531  1.3071
  693MOL0     H95580   5.607   5.991   5.842 -0.0365  1.8146 -0.4063
  693MOL0     H95581   5.764   6.155   5.906 -2.7957  1.1029 -0.1564
  693MOL0     H95582   5.760   6.087   6.072 -1.1821 -1.2062  0.4953
  693MOL0     H95583   5.833   5.850   6.132 -0.2138  0.2978 -0.7218
  693MOL0     H95584   6.034   5.573   5.996  1.9400 -0.4954  1.8986
  693MOL0     H95585   6.002   5.671   6.139 -1.0635 -0.4770  0.3504
  693MOL0     H95586   6.243   5.630   6.112  0.5108 -1.9372 -1.0925
  693MOL0     H95587   6.244   5.695   5.948 -0.0070  1.0165 -0.0985
  693MOL0     H95588   6.246   5.922   5.999 -0.1617  0.0147 -0.3157
  693MOL0     H95589   6.157   5.895   6.143  0.2180 -0.5111  0.7820
  693MOL0     H95590   6.446   5.821   6.080 -0.4963  0.1260  0.3893
  693MOL0     H95591   6.398   5.959   6.172  1.1046  0.5091  0.2790
  693MOL0     H95592   6.580   5.932   6.264  1.9655  0.5262  0.1192
  693MOL0     H95593   6.793   6.034   6.317  3.4573 -1.5626 -2.6610
  693MOL0     H95594   6.894   5.897   6.327 -3.7324 -1.6255 -3.5974
  693MOL0     H95595   6.858   6.007   6.472 -0.4386 -0.5173  0.4545
  693MOL0     H95596   6.796   5.599   6.963  2.0604 -0.1504  3.7603
  693MOL0     H95597   6.952   5.510   7.103 -2.8376 -0.4999 -1.2331
  693MOL0     H95598   7.293   5.267   7.004 -0.9353  0.4996  0.4752
  693MOL0     H95599   7.375   5.412   6.935  1.7787 -1.5752  1.2714
  693MOL0     H95600   7.378   5.454   7.204  0.6349  1.0997  0.0307
  693MOL0     H95601   7.412   5.284   7.196 -0.2901 -0.5728 -0.6383
  693MOL0     H95602   7.551   5.495   7.049 -0.4464  1.7841  3.2437
  693MOL0     H95603   7.571   5.329   7.011 -2.7977 -0.9671  0.6558
  693MOL0     H95604   7.654   5.287   7.265  0.3296  0.1835  0.0273
  693MOL0     H95605   7.634   5.460   7.285 -1.6701  2.2122 -3.7709
  693MOL0     H95606   7.809   5.337   7.061 -0.5220 -1.2561  0.0233
  693MOL0     H95607   7.792   5.503   7.103  0.2986 -0.2008  0.2144
  693MOL0     H95608   7.903   5.327   7.329  1.5331  1.6189  1.6450
  693MOL0     H95609   7.926   5.502   7.309  1.4325  0.4823 -0.9952
  693MOL0     H95610   8.075   5.287   7.184 -1.1391  0.4365 -0.0985
  693MOL0     H95611   8.135   5.426   7.271 -0.3836 -0.6887  1.1119
  693MOL0     H95612   7.999   5.440   7.000 -0.2466 -1.6866 -0.0440
  693MOL0     H95613   8.182   5.450   7.033  1.2274  1.0048  3.8774
  693MOL0     H95614   7.243   5.485   6.779 -0.1908 -0.8659 -0.4211
  693MOL0     H95615   7.048   5.554   6.622 -2.2480  0.9209 -0.6038
  693MOL0     H95616   6.587   5.597   6.624  0.1971 -2.3166 -0.9971
  693MOL0     H95617   6.396   5.627   6.497 -0.2482  0.0368 -0.6213
  693MOL0     H95618   5.003   5.318   6.107 -3.0233  1.2556 -1.4271
  693MOL0     H95619   5.099   5.082   6.102 -3.8131  1.0391  0.5860
  693MOL0     H95620   5.322   4.827   6.072  1.0504 -0.0539 -1.1525
  693MOL0     H95621   5.395   4.615   6.130  0.0372  0.4610 -0.0692
  693MOL0     H95622   5.500   4.261   6.072 -0.0956 -0.0782  2.2326
  693MOL0     H95623   5.509   4.434   6.110  1.7442 -2.2171  0.6380
  693MOL0     H95624   5.247   4.341   6.183  0.2376 -0.3568 -0.9086
  693MOL0     H95625   5.369   4.397   6.289 -2.4514  1.4339 -0.4226
  693MOL0     H95626   5.369   4.106   6.180  1.2977 -2.0342  1.8639
  693MOL0     H95627   5.481   4.170   6.281  0.1397  1.8172  0.1322
  693MOL0     H95628   5.306   4.207   6.454 -0.6002  1.6447 -0.2756
  693MOL0     H95629   5.335   4.039   6.397 -0.1887 -0.3300 -1.4111
  693MOL0     H95630   4.923   4.078   6.322 -0.6272  0.9363 -1.8049
  693MOL0     H95631   5.258   4.454   5.751  1.0813 -1.1265  1.0290
  693MOL0     H95632   5.010   4.691   5.736 -1.1534 -1.6534 -0.8628
  693MOL0     H95633   5.152   4.753   5.642 -0.2262 -2.0043 -2.0811
  693MOL0     H95634   5.103   4.588   5.622 -0.8670  1.4572 -2.0225
  694MOL0     O95635   5.336   7.601   3.717 -0.5044 -0.1559 -0.5261
  694MOL0     C95636   5.233   7.662   3.737 -0.4806  0.9589  0.2227
  694MOL0     O95637   5.208   7.782   3.673  0.3411 -0.9436 -0.2899
  694MOL0     C95638   5.297   7.826   3.587  0.4013  0.7153  0.0510
  694MOL0     C95639   5.338   7.957   3.606 -0.5030  0.5039 -0.0135
  694MOL0     C95640   5.420   8.016   3.505 -0.6733 -0.3681 -0.1473
  694MOL0     C95641   5.480   7.946   3.402 -0.9286  0.0518  0.3742
  694MOL0     O95642   5.585   7.995   3.319  0.5538 -0.0902  0.0640
  694MOL0     C95643   5.681   8.074   3.383 -0.3466 -0.7554  0.4601
  694MOL0     C95644   5.789   8.094   3.275 -0.5568  0.4885  0.2676
  694MOL0     C95645   5.908   8.189   3.327 -0.1857 -0.1143  0.0685
  694MOL0     C95646   5.991   8.260   3.225  0.4491 -0.6219  0.3818
  694MOL0     C95647   6.081   8.377   3.275 -0.8221  0.1302  0.4467
  694MOL0     C95648   6.181   8.322   3.379  0.2463  0.3901  0.5503
  694MOL0     C95649   6.288   8.423   3.411 -0.1095 -0.3806 -0.8847
  694MOL0     C95650   6.400   8.411   3.311  0.8398  0.6501  0.7470
  694MOL0     N95651   6.506   8.307   3.323 -0.2164  0.3420 -0.0023
  694MOL0     C95652   6.599   8.294   3.420  0.1732 -0.1752  1.0459
  694MOL0     C95653   6.690   8.206   3.377  0.2960  0.4878  0.2321
  694MOL0     C95654   6.805   8.159   3.452  0.4793  0.0972 -0.6106
  694MOL0     C95655   6.926   8.117   3.364  0.3996 -0.1817 -0.5916
  694MOL0     C95656   7.021   8.046   3.455  0.2765  0.4255  0.8664
  694MOL0     C95657   7.163   8.019   3.398  0.3915  0.4742 -0.0688
  694MOL0     O95658   7.162   7.938   3.280 -0.5145 -0.2454 -0.2342
  694MOL0     C95659   7.245   7.964   3.176 -0.0643 -0.0857 -0.6989
  694MOL0     C95660   7.217   7.889   3.055  0.8199 -0.6006 -0.4644
  694MOL0     C95661   7.307   7.882   2.954 -0.6141 -0.1269  0.4113
  694MOL0     C95662   7.286   7.782   2.838 -0.4990  0.6961  0.1268
  694MOL0     C95663   7.412   7.976   2.954 -0.0018 -0.1629 -0.2342
  694MOL0     C95664   7.509   7.993   2.842 -0.2637 -0.4216  1.2247
  694MOL0     O95665   7.526   7.890   2.760 -0.0313 -0.0380  0.6683
  694MOL0     C95666   7.590   7.872   2.634  0.6349  0.1545  0.0620
  694MOL0     C95667   7.692   7.953   2.583 -0.7173  0.0454  1.1133
  694MOL0     C95668   7.754   7.918   2.459  0.2693 -0.6197 -0.3627
  694MOL0     C95669   7.721   7.800   2.390  0.6199 -0.1236 -0.6356
  694MOL0     O95670   7.780   7.752   2.271  0.3250 -0.3653  0.3327
  694MOL0     C95671   7.885   7.824   2.207 -0.6417  0.8144 -0.2093
  694MOL0     C95672   7.826   7.926   2.111  0.0300  0.3592  0.2723
  694MOL0     C95673   7.736   7.863   2.012 -0.3313  0.0726  0.6362
  694MOL0     C95674   7.688   7.968   1.913 -0.1608 -0.5155  0.1385
  694MOL0     C95675   7.593   7.905   1.804 -0.0732 -0.2280 -0.7120
  694MOL0     C95676   7.522   8.020   1.723 -1.0024  0.1928  0.0616
  694MOL0     C95677   7.451   7.977   1.593 -0.0020 -0.0315 -0.0399
  694MOL0     C95678   7.507   8.036   1.467 -0.5310 -0.7731 -1.0337
  694MOL0    Cl95679   7.671   7.974   1.459  0.4087  0.2099 -0.0583
  694MOL0     C95680   7.608   7.728   2.444 -0.0496  0.3390  0.5393
  694MOL0     C95681   7.545   7.763   2.555  0.2493 -0.9885 -0.7978
  694MOL0     O95682   7.540   8.111   2.816 -0.1800  0.1778  0.3139
  694MOL0     C95683   7.432   8.061   3.059 -0.1383 -0.5029 -0.5808
  694MOL0     C95684   7.362   8.047   3.176  0.2766  0.0334 -0.2703
  694MOL0     N95685   6.660   8.171   3.246  1.2501 -0.7083  0.1573
  694MOL0     N95686   6.539   8.222   3.219 -0.3129 -0.6929  0.0104
  694MOL0     C95687   5.431   7.818   3.371 -0.4208 -0.3179 -0.5989
  694MOL0     C95688   5.345   7.765   3.465  0.1695  0.7274  0.0616
  694MOL0     C95689   5.133   7.607   3.828  0.3665  0.8416  0.2265
  694MOL0     C95690   5.026   7.688   3.858  1.1572  0.0745 -0.1161
  694MOL0     C95691   4.922   7.650   3.943 -0.0512  0.5170  0.6117
  694MOL0     C95692   4.929   7.529   4.013 -0.3422 -0.3239  0.7375
  694MOL0     O95693   4.836   7.521   4.111 -0.4955 -1.1874 -0.0809
  694MOL0     C95694   4.815   7.399   4.178 -0.8564 -0.1193  0.5704
  694MOL0     C95695   4.688   7.402   4.265  0.5261  0.7897  0.6295
  694MOL0     C95696   4.559   7.368   4.190 -0.2398 -0.1937  0.7291
  694MOL0     C95697   4.460   7.293   4.283  1.2068  0.2674  0.6280
  694MOL0     C95698   4.435   7.346   4.417 -0.4310 -0.0843  0.4913
  694MOL0     C95699   4.428   7.396   4.528 -0.5354 -0.0802  0.0727
  694MOL0     C95700   5.037   7.439   3.983 -0.0115  0.0604  0.4683
  694MOL0     C95701   5.134   7.469   3.884  0.3185  0.4195  0.0329
  694MOL0     C95702   5.234   7.369   3.845 -0.0696 -0.0142 -0.1590
  694MOL0     H95703   5.317   8.010   3.699 -0.9127 -0.3921  0.4156
  694MOL0     H95704   5.472   8.105   3.540 -1.5856 -0.4912  1.6531
  694MOL0     H95705   5.727   8.017   3.464  0.4152  0.0196  0.5890
  694MOL0     H95706   5.647   8.174   3.411  0.2769 -0.8076  1.4735
  694MOL0     H95707   5.836   7.999   3.247 -1.1752  0.6512 -1.4431
  694MOL0     H95708   5.746   8.155   3.195  0.1642 -0.3798 -0.8131
  694MOL0     H95709   5.849   8.263   3.381 -0.8387  1.1598 -2.2579
  694MOL0     H95710   5.974   8.125   3.387  1.5829 -0.8433 -2.4608
  694MOL0     H95711   6.047   8.188   3.165 -0.0601 -0.4350 -0.3200
  694MOL0     H95712   5.928   8.307   3.150 -1.7303 -1.5716  1.5350
  694MOL0     H95713   6.015   8.455   3.314 -2.2872  0.3090 -2.1730
  694MOL0     H95714   6.136   8.401   3.184  0.3261 -4.1607 -0.2191
  694MOL0     H95715   6.129   8.298   3.472  2.6025  0.7672  2.0397
  694MOL0     H95716   6.232   8.233   3.341  1.0447  0.5602  1.1922
  694MOL0     H95717   6.334   8.423   3.511  1.9809  0.8521 -1.7743
  694MOL0     H95718   6.240   8.520   3.401 -3.7469 -2.1310 -1.9699
  694MOL0     H95719   6.354   8.411   3.211 -0.2238  1.0323  1.2248
  694MOL0     H95720   6.457   8.505   3.318  0.4208  0.8522  1.5093
  694MOL0     H95721   6.601   8.346   3.515  2.7483  0.9402  0.4734
  694MOL0     H95722   6.766   8.073   3.506  0.2845 -0.3634 -1.4678
  694MOL0     H95723   6.841   8.236   3.521  2.3803  0.0816 -1.5029
  694MOL0     H95724   6.883   8.045   3.294 -2.6137 -0.3746  1.3058
  694MOL0     H95725   6.972   8.202   3.312  0.6730  0.1544  0.1758
  694MOL0     H95726   7.041   8.103   3.546 -0.5319  1.5304  0.3682
  694MOL0     H95727   6.981   7.946   3.475 -0.4193 -0.1350 -2.7752
  694MOL0     H95728   7.200   8.118   3.369 -0.3771  0.5733 -0.7634
  694MOL0     H95729   7.218   7.970   3.478 -1.2279  0.5071  1.1252
  694MOL0     H95730   7.137   7.818   3.067  1.4578 -1.0883  1.2575
  694MOL0     H95731   7.278   7.832   2.741 -2.6234  0.4209  0.1104
  694MOL0     H95732   7.205   7.711   2.857  0.9619 -0.6061  1.9343
  694MOL0     H95733   7.375   7.719   2.833 -1.1634 -0.2607 -0.0136
  694MOL0     H95734   7.724   8.038   2.643 -0.7393  1.7539 -1.1607
  694MOL0     H95735   7.831   7.984   2.421  0.1846 -1.0437 -1.2930
  694MOL0     H95736   7.955   7.868   2.279  0.9551 -1.6058 -0.1721
  694MOL0     H95737   7.946   7.750   2.156 -0.3201  1.1710 -0.3504
  694MOL0     H95738   7.777   7.998   2.178  0.6352  0.2857  0.8091
  694MOL0     H95739   7.906   7.981   2.062 -0.2784  3.4396  2.9105
  694MOL0     H95740   7.646   7.832   2.066 -0.0385 -0.6169  0.7372
  694MOL0     H95741   7.783   7.777   1.963 -2.3453 -0.6897 -0.0525
  694MOL0     H95742   7.770   8.027   1.871 -2.4620  2.5337 -0.4279
  694MOL0     H95743   7.632   8.043   1.970  0.7330  2.3802 -2.4925
  694MOL0     H95744   7.641   7.838   1.731 -1.4277 -1.7652 -0.2399
  694MOL0     H95745   7.514   7.843   1.846  0.8086 -0.9505 -0.0741
  694MOL0     H95746   7.586   8.106   1.702 -2.4421  1.2369 -0.1830
  694MOL0     H95747   7.440   8.053   1.788 -0.0289  0.0173  1.4411
  694MOL0     H95748   7.351   8.020   1.595 -0.6585 -1.1124 -3.1188
  694MOL0     H95749   7.442   7.872   1.563  2.5925 -0.4948  0.5127
  694MOL0     H95750   7.516   8.144   1.486  0.0466 -1.6278  6.3966
  694MOL0     H95751   7.461   8.007   1.372 -0.0150 -0.0398 -1.5188
  694MOL0     H95752   7.566   7.642   2.393 -1.0787  1.7920 -1.1593
  694MOL0     H95753   7.466   7.700   2.595  0.0866  0.3604  1.1440
  694MOL0     H95754   7.507   8.139   3.052  1.0134 -1.4563  0.6884
  694MOL0     H95755   7.386   8.102   3.267 -1.4305  0.6409 -0.1449
  694MOL0     H95756   5.463   7.761   3.284 -1.0329 -3.6188  1.2090
  694MOL0     H95757   5.302   7.670   3.435  1.9895  0.0944 -0.7071
  694MOL0     H95758   5.017   7.785   3.810  0.7272  0.2576  0.3235
  694MOL0     H95759   4.846   7.726   3.957 -1.7013 -0.6661 -1.4102
  694MOL0     H95760   4.814   7.309   4.117  0.2574 -0.1238  0.5280
  694MOL0     H95761   4.899   7.379   4.246  0.4403 -0.6801 -1.1283
  694MOL0     H95762   4.672   7.504   4.304 -0.3246  0.7740  0.3376
  694MOL0     H95763   4.703   7.335   4.350  0.0512 -2.0377 -1.3909
  694MOL0     H95764   4.511   7.461   4.158  0.7942 -0.7859 -2.9602
  694MOL0     H95765   4.586   7.319   4.097  0.2044  2.9036 -0.9181
  694MOL0     H95766   4.495   7.189   4.280  1.4578  0.3253  1.4835
  694MOL0     H95767   4.362   7.294   4.232  1.3006  1.0580  0.4484
  694MOL0     H95768   4.427   7.462   4.612  0.8198 -0.6356  0.5657
  694MOL0     H95769   5.037   7.343   4.032  0.8937  1.1631  2.7855
  694MOL0     H95770   5.328   7.397   3.895  1.9823 -1.5487 -2.8476
  694MOL0     H95771   5.210   7.266   3.874 -0.8677 -0.5104 -2.4159
  694MOL0     H95772   5.245   7.377   3.737 -1.1467 -1.9746 -0.4683
  695MOL0     O95773   3.369   0.538   2.165  0.8981  0.1946  0.4923
  695MOL0     C95774   3.434   0.591   2.251 -0.2713 -0.2431  0.2754
  695MOL0     O95775   3.547   0.532   2.307 -0.1520 -0.2245 -0.4719
  695MOL0     C95776   3.556   0.394   2.287  0.2037  0.8510  1.2229
  695MOL0     C95777   3.640   0.336   2.187 -0.1015 -0.4952 -1.1611
  695MOL0     C95778   3.650   0.198   2.172 -0.6881 -0.4432 -0.1515
  695MOL0     C95779   3.576   0.117   2.264 -1.0983  0.6299  0.0841
  695MOL0     O95780   3.595  -0.021   2.259  0.2695  0.3022 -0.7272
  695MOL0     C95781   3.679  -0.077   2.355 -0.3356  0.1368  0.3546
  695MOL0     C95782   3.829  -0.054   2.329 -0.6235 -0.5584  0.3687
  695MOL0     C95783   3.931  -0.124   2.429 -0.2401  0.1369 -0.7217
  695MOL0     C95784   4.062  -0.090   2.402  0.7022  0.6966 -0.2273
  695MOL0     C95785   4.121  -0.169   2.291 -0.3339 -0.0584  0.3564
  695MOL0     C95786   4.276  -0.140   2.271  0.0520  0.8477 -0.4841
  695MOL0     C95787   4.331  -0.208   2.146  0.7238  0.3836  0.7457
  695MOL0     C95788   4.316  -0.353   2.148 -0.1732 -0.5162  0.4328
  695MOL0     N95789   4.393  -0.419   2.039  0.5919  0.9310 -0.0541
  695MOL0     C95790   4.379  -0.400   1.904  0.3425  0.5790  0.4684
  695MOL0     C95791   4.485  -0.454   1.838  0.4307  0.1993 -0.2628
  695MOL0     C95792   4.521  -0.443   1.694 -0.1008  0.4374 -0.1040
  695MOL0     C95793   4.549  -0.300   1.638 -0.8755 -0.3777  0.1214
  695MOL0     C95794   4.426  -0.219   1.602 -0.4496 -0.2323  0.0194
  695MOL0     C95795   4.453  -0.113   1.488  0.6264  0.1060 -0.1108
  695MOL0     O95796   4.324  -0.085   1.420  0.3939 -0.3333 -0.2330
  695MOL0     C95797   4.340  -0.060   1.288 -0.2484 -0.1495  0.2686
  695MOL0     C95798   4.451   0.005   1.219 -0.1185 -0.9867 -0.1820
  695MOL0     C95799   4.442   0.043   1.080 -0.0002 -0.2816  1.3404
  695MOL0     C95800   4.564   0.127   1.034  0.5253  0.5158 -0.9214
  695MOL0     C95801   4.333   0.003   1.004  0.5141 -0.1357  0.1204
  695MOL0     C95802   4.310   0.038   0.861 -0.5302 -0.6008 -0.6389
  695MOL0     O95803   4.225  -0.042   0.799  0.3370  0.2307  0.9581
  695MOL0     C95804   4.206  -0.014   0.663  0.2440  0.5113  0.4152
  695MOL0     C95805   4.279  -0.082   0.560 -0.0359 -0.1539 -0.0658
  695MOL0     C95806   4.238  -0.066   0.428  0.3896  0.6665  0.1747
  695MOL0     C95807   4.132   0.007   0.379  0.3770 -0.7741  0.5528
  695MOL0     O95808   4.093   0.020   0.246 -0.4831  0.5482 -0.8161
  695MOL0     C95809   4.176  -0.026   0.145  0.2381 -0.1237  1.3767
  695MOL0     C95810   4.117   0.009   0.007  0.0189 -0.3205  0.5737
  695MOL0     C95811   4.172  -0.065  -0.110  0.5659  1.0765 -0.1401
  695MOL0     C95812   4.172   0.033  -0.228  0.2515 -0.5363  0.7399
  695MOL0     C95813   4.205  -0.025  -0.369  0.1863  0.2840 -0.3300
  695MOL0     C95814   4.172  -0.175  -0.388 -0.5515  0.1956 -0.2844
  695MOL0     C95815   4.023  -0.214  -0.370  0.0608 -0.2073  0.3747
  695MOL0     C95816   3.988  -0.361  -0.356 -0.6442  0.5589  0.0271
  695MOL0    Cl95817   4.067  -0.464  -0.474  0.2609 -0.3508  0.1470
  695MOL0     C95818   4.062   0.072   0.482 -0.2875  0.2728  0.0169
  695MOL0     C95819   4.099   0.070   0.619 -0.6934  0.0851 -0.1585
  695MOL0     O95820   4.366   0.139   0.809  0.3948  0.7832  0.0054
  695MOL0     C95821   4.229  -0.061   1.077 -0.4141  0.5559 -0.1826
  695MOL0     C95822   4.237  -0.089   1.208 -1.1477  0.1876 -0.0441
  695MOL0     N95823   4.562  -0.511   1.936 -0.1258 -0.3616 -0.2664
  695MOL0     N95824   4.514  -0.488   2.061  0.0659  0.0692  1.5741
  695MOL0     C95825   3.497   0.173   2.363  0.3683  0.2078  0.5472
  695MOL0     C95826   3.480   0.311   2.370  1.6784  0.2790  0.3068
  695MOL0     C95827   3.405   0.730   2.286 -0.1085  0.2927  0.2094
  695MOL0     C95828   3.334   0.809   2.191  0.0638 -0.4770  0.7771
  695MOL0     C95829   3.313   0.949   2.212  0.0740 -0.1867 -0.0507
  695MOL0     C95830   3.365   1.008   2.322 -0.5381  0.2184 -0.5246
  695MOL0     O95831   3.336   1.140   2.337  0.2088 -0.0239 -0.0649
  695MOL0     C95832   3.339   1.198   2.470  0.9643  0.1176  0.1677
  695MOL0     C95833   3.284   1.334   2.487  0.1854 -0.8535  0.8236
  695MOL0     C95834   3.132   1.335   2.450  0.3776  0.3461 -0.1319
  695MOL0     C95835   3.071   1.465   2.401 -0.1735  0.6169 -0.6432
  695MOL0     C95836   3.120   1.490   2.262  0.5800  0.1641 -0.0087
  695MOL0     C95837   3.167   1.518   2.156  0.2614  0.1149 -0.6311
  695MOL0     C95838   3.436   0.930   2.416 -0.1859 -0.2907 -0.2410
  695MOL0     C95839   3.460   0.799   2.400  0.7840  1.2181  0.2995
  695MOL0     C95840   3.540   0.723   2.517 -0.6245 -0.4574  0.8680
  695MOL0     H95841   3.686   0.408   2.120 -2.2335  2.1597  0.0312
  695MOL0     H95842   3.721   0.160   2.099 -2.0180  0.7521 -2.1806
  695MOL0     H95843   3.677  -0.186   2.351 -0.2195  0.1152  0.8697
  695MOL0     H95844   3.651  -0.051   2.458  0.0202  0.8659  0.2715
  695MOL0     H95845   3.839  -0.096   2.228 -3.8529 -0.5883 -0.0577
  695MOL0     H95846   3.849   0.052   2.314 -2.3114 -0.0465  1.4283
  695MOL0     H95847   3.906  -0.099   2.533 -2.0113 -0.1390 -1.0500
  695MOL0     H95848   3.917  -0.232   2.430  2.3180 -0.3666  2.9133
  695MOL0     H95849   4.066   0.019   2.390  0.3153  0.6790 -0.5469
  695MOL0     H95850   4.114  -0.116   2.495 -1.9831  2.8935  2.0969
  695MOL0     H95851   4.066  -0.146   2.200  3.4280 -2.0972 -2.7254
  695MOL0     H95852   4.111  -0.276   2.315 -1.1520 -0.9145 -3.2726
  695MOL0     H95853   4.282  -0.031   2.272  0.7479  0.8863  2.9222
  695MOL0     H95854   4.337  -0.164   2.358 -0.9549  1.6996  0.4967
  695MOL0     H95855   4.434  -0.172   2.141  0.7462  0.1725 -3.6842
  695MOL0     H95856   4.281  -0.162   2.060 -0.5686  2.7626  2.6201
  695MOL0     H95857   4.365  -0.381   2.242  1.2247  2.9243  0.8534
  695MOL0     H95858   4.212  -0.388   2.147 -0.7904  1.2272 -0.4866
  695MOL0     H95859   4.299  -0.344   1.858 -0.8058 -1.1798  0.2391
  695MOL0     H95860   4.442  -0.491   1.635 -2.0214  1.5335  1.4108
  695MOL0     H95861   4.613  -0.501   1.683  0.3564  0.7374  1.7709
  695MOL0     H95862   4.610  -0.254   1.716 -1.3782  1.2090 -0.3826
  695MOL0     H95863   4.616  -0.313   1.553  1.3738 -0.3535  1.8043
  695MOL0     H95864   4.347  -0.283   1.562  0.6712 -2.4081  1.1286
  695MOL0     H95865   4.392  -0.159   1.687  1.7765  2.6615 -1.0037
  695MOL0     H95866   4.486  -0.019   1.534  0.6984  0.6588 -1.2513
  695MOL0     H95867   4.533  -0.147   1.421  1.4087  0.4642  0.6290
  695MOL0     H95868   4.539   0.033   1.276  1.5739 -2.0383 -2.1098
  695MOL0     H95869   4.576   0.134   0.925 -1.9121  3.0047 -1.1335
  695MOL0     H95870   4.648   0.086   1.091 -0.3446 -0.4689 -0.2959
  695MOL0     H95871   4.545   0.230   1.064  1.0080 -0.2537  2.4248
  695MOL0     H95872   4.366  -0.143   0.585  0.6642  1.0429  0.4780
  695MOL0     H95873   4.291  -0.128   0.357 -3.8410 -1.4384 -1.4807
  695MOL0     H95874   4.279   0.007   0.161 -0.2163  1.0993  1.8550
  695MOL0     H95875   4.187  -0.135   0.148  1.5622 -0.0292  0.6713
  695MOL0     H95876   4.013  -0.022   0.023 -0.2461 -0.9034 -1.8711
  695MOL0     H95877   4.117   0.116  -0.015 -0.6747 -0.1999  1.1220
  695MOL0     H95878   4.098  -0.145  -0.118  2.8558 -1.1178 -1.1209
  695MOL0     H95879   4.274  -0.103  -0.095  0.9852  1.7140 -1.2111
  695MOL0     H95880   4.243   0.115  -0.214  1.5503 -1.9381  2.8863
  695MOL0     H95881   4.070   0.073  -0.235  0.6596  0.2055 -2.9178
  695MOL0     H95882   4.151   0.036  -0.442  0.2680  0.3601 -0.3271
  695MOL0     H95883   4.313  -0.009  -0.369  0.4941 -1.1352 -3.3860
  695MOL0     H95884   4.239  -0.238  -0.329 -1.0531 -1.4474 -1.4161
  695MOL0     H95885   4.204  -0.189  -0.492 -1.6011  4.6350 -1.4264
  695MOL0     H95886   3.973  -0.177  -0.460 -0.8267 -0.0380  0.9208
  695MOL0     H95887   3.977  -0.161  -0.286 -4.2431 -1.2443 -1.1078
  695MOL0     H95888   3.883  -0.387  -0.370 -0.5020 -0.0624  0.0935
  695MOL0     H95889   4.009  -0.393  -0.254 -1.8828 -4.6833 -1.0836
  695MOL0     H95890   3.973   0.129   0.457 -0.6853 -1.4577 -3.0166
  695MOL0     H95891   4.044   0.117   0.700 -0.4914 -1.9013  1.1932
  695MOL0     H95892   4.139  -0.087   1.022 -0.4394  1.5128 -0.6028
  695MOL0     H95893   4.158  -0.141   1.262 -0.0725 -1.9520 -0.3961
  695MOL0     H95894   3.429   0.119   2.429 -2.6385  1.1431 -1.5785
  695MOL0     H95895   3.418   0.355   2.448  1.9931  1.1038  0.1113
  695MOL0     H95896   3.279   0.773   2.105  0.8825  0.0067  0.0270
  695MOL0     H95897   3.259   1.011   2.141 -2.2083 -0.8250  1.0494
  695MOL0     H95898   3.282   1.136   2.540  1.6515 -0.4492  0.2351
  695MOL0     H95899   3.446   1.189   2.492  1.4634  0.8138 -1.7635
  695MOL0     H95900   3.337   1.409   2.427 -1.1282  1.2115  2.0993
  695MOL0     H95901   3.298   1.367   2.591  1.6575 -0.5209  0.5464
  695MOL0     H95902   3.108   1.253   2.381  2.8061 -0.9510  0.4554
  695MOL0     H95903   3.081   1.309   2.543 -0.5877  0.7803 -0.5207
  695MOL0     H95904   3.091   1.544   2.474 -1.5260 -0.9072  1.5003
  695MOL0     H95905   2.962   1.465   2.385  0.1783  0.6918 -3.3463
  695MOL0     H95906   3.219   1.542   2.065 -2.8243  2.0659 -2.0373
  695MOL0     H95907   3.457   0.968   2.515 -1.7207  0.9012 -0.3309
  695MOL0     H95908   3.629   0.678   2.473  0.5425  2.0807  0.4658
  695MOL0     H95909   3.579   0.797   2.587 -1.8959 -0.8537  2.0421
  695MOL0     H95910   3.493   0.636   2.566  2.0173 -2.7461 -0.4105
  696MOL0     O95911   2.222   5.687  10.529 -0.0057  0.0800 -0.4926
  696MOL0     C95912   2.209   5.808  10.537  0.4812  0.0683  0.3447
  696MOL0     O95913   2.304   5.885  10.593  0.1060 -0.4221  0.3120
  696MOL0     C95914   2.438   5.874  10.591  0.1822 -0.6426 -0.6720
  696MOL0     C95915   2.513   5.772  10.533  0.9069 -0.1225  0.0499
  696MOL0     C95916   2.656   5.770  10.527 -0.5682 -0.4751  0.2162
  696MOL0     C95917   2.721   5.884  10.590 -0.7511  0.2030 -0.0310
  696MOL0     O95918   2.859   5.900  10.611  0.0818 -0.0996  0.4167
  696MOL0     C95919   2.941   5.886  10.492  0.0293  0.4244  0.0084
  696MOL0     C95920   3.089   5.929  10.516  0.2112  0.7667  0.0857
  696MOL0     C95921   3.193   5.872  10.412 -0.1852 -0.2297  0.6281
  696MOL0     C95922   3.216   5.721  10.426 -0.7768  0.1732  1.0735
  696MOL0     C95923   3.348   5.666  10.360  0.0896 -0.3080 -0.7805
  696MOL0     C95924   3.364   5.512  10.403  0.1842  1.4162  0.4346
  696MOL0     C95925   3.513   5.467  10.388  0.4716  0.2340 -0.6471
  696MOL0     C95926   3.520   5.310  10.400 -0.1955 -0.1059 -0.3876
  696MOL0     N95927   3.655   5.261  10.365 -0.1268 -0.2058  0.8063
  696MOL0     C95928   3.740   5.191  10.450  1.0514 -0.1902  0.5919
  696MOL0     C95929   3.860   5.184  10.387  0.5672  0.7942  0.7816
  696MOL0     C95930   3.971   5.113  10.465  0.3317  0.5106 -0.8618
  696MOL0     C95931   4.113   5.157  10.434  0.4450 -0.5879 -0.7328
  696MOL0     C95932   4.145   5.283  10.525 -0.6716  0.1955 -0.4089
  696MOL0     C95933   4.293   5.331  10.515  0.2846  0.1268  0.0814
  696MOL0     O95934   4.355   5.357  10.644 -0.7464 -0.1345 -0.2079
  696MOL0     C95935   4.469   5.432  10.639  0.1728  0.1058  0.1019
  696MOL0     C95936   4.545   5.448  10.524 -0.5551  0.3498 -0.1973
  696MOL0     C95937   4.669   5.515  10.526  0.0680 -0.3666 -0.9989
  696MOL0     C95938   4.749   5.515  10.400  0.6196  0.2541  0.2095
  696MOL0     C95939   4.713   5.561  10.650 -0.0591 -0.0272  0.2623
  696MOL0     C95940   4.842   5.633  10.662  0.2668 -0.1855 -0.3958
  696MOL0     O95941   4.868   5.677  10.793  0.0564  0.2911 -0.1217
  696MOL0     C95942   4.997   5.712  10.807  0.1817  0.1089  1.1511
  696MOL0     C95943   5.033   5.851  10.776  0.4375  0.2599 -0.2742
  696MOL0     C95944   5.159   5.893  10.821 -0.5810 -0.8741  0.0693
  696MOL0     C95945   5.247   5.800  10.871  0.2101  0.3531  0.7453
  696MOL0     O95946   5.378   5.824  10.920 -0.1607 -0.2278  0.4269
  696MOL0     C95947   5.371   5.893  11.048  0.3744  1.5187  0.7243
  696MOL0     C95948   5.468   5.831  11.150 -0.1252  0.1274  0.7195
  696MOL0     C95949   5.454   5.870  11.295 -0.3803 -1.0538 -0.0784
  696MOL0     C95950   5.571   5.832  11.386 -0.2398  0.0990 -0.0288
  696MOL0     C95951   5.552   5.890  11.528 -0.4444  0.0070  0.8890
  696MOL0     C95952   5.577   6.040  11.521 -0.0501 -1.1179 -0.3937
  696MOL0     C95953   5.627   6.098  11.658  0.8490  1.1062 -0.5483
  696MOL0     C95954   5.662   6.246  11.645 -0.0077  0.2527 -0.4573
  696MOL0    Cl95955   5.705   6.317  11.791  0.3199  0.1384  0.4046
  696MOL0     C95956   5.222   5.666  10.875  0.7542 -0.2143  0.8430
  696MOL0     C95957   5.095   5.617  10.850  0.8746  0.3566  0.2796
  696MOL0     O95958   4.921   5.641  10.564  0.5914 -0.1710  0.2205
  696MOL0     C95959   4.642   5.535  10.768 -0.0506 -0.0856 -0.2862
  696MOL0     C95960   4.519   5.471  10.756 -0.8923  0.3225 -0.2233
  696MOL0     N95961   3.846   5.250  10.259  0.1751  0.0117 -0.5712
  696MOL0     N95962   3.722   5.292  10.244  0.5480  0.5366 -0.0557
  696MOL0     C95963   2.650   5.989  10.637  0.0849  0.1682 -1.1304
  696MOL0     C95964   2.511   5.985  10.649  0.2982  0.0748  1.1005
  696MOL0     C95965   2.087   5.870  10.487  0.6922  0.1466 -0.9877
  696MOL0     C95966   2.019   5.801  10.384 -0.0617  0.0719  0.8718
  696MOL0     C95967   1.892   5.838  10.329 -0.2564 -0.3165 -0.0016
  696MOL0     C95968   1.822   5.950  10.378 -0.7587  0.2463  0.5197
  696MOL0     O95969   1.690   5.976  10.350 -0.7382  0.2905  1.2001
  696MOL0     C95970   1.600   5.871  10.313 -0.5501 -1.0770 -0.8638
  696MOL0     C95971   1.463   5.918  10.266 -0.4634 -0.1633 -0.0678
  696MOL0     C95972   1.390   5.801  10.200  0.2518 -0.5473  0.2651
  696MOL0     C95973   1.441   5.782  10.057  0.6223  0.0806 -0.4870
  696MOL0     C95974   1.391   5.900   9.974 -0.2292  0.0962 -0.4127
  696MOL0     C95975   1.347   5.986   9.904  0.3505  0.4024  0.5366
  696MOL0     C95976   1.890   6.014  10.481  0.1507 -0.7778 -0.4373
  696MOL0     C95977   2.018   5.981  10.534 -0.2932 -0.9320  0.4511
  696MOL0     C95978   2.063   6.065  10.652  0.7592 -0.2341  0.0093
  696MOL0     H95979   2.467   5.690  10.479  0.3836  0.8229 -0.9824
  696MOL0     H95980   2.711   5.685  10.488  1.4943  0.6880  0.4663
  696MOL0     H95981   2.897   5.942  10.409  1.2531  1.9382  0.3199
  696MOL0     H95982   2.943   5.779  10.471  1.1769  0.3731  0.3186
  696MOL0     H95983   3.099   6.036  10.495 -4.3835  1.7366  1.5979
  696MOL0     H95984   3.127   5.911  10.617 -0.5188  2.7548  0.7719
  696MOL0     H95985   3.159   5.895  10.311  0.2440 -0.5531  0.4069
  696MOL0     H95986   3.284   5.933  10.415 -0.7519  0.8189 -1.5852
  696MOL0     H95987   3.222   5.710  10.535 -1.4068 -0.3788  1.0546
  696MOL0     H95988   3.131   5.665  10.386  0.0459 -0.7252  0.5446
  696MOL0     H95989   3.436   5.718  10.400 -0.6882 -1.7051  3.1735
  696MOL0     H95990   3.358   5.674  10.252  0.5502  0.1493 -0.7107
  696MOL0     H95991   3.344   5.501  10.510  0.8508  1.5433  0.5742
  696MOL0     H95992   3.296   5.449  10.345  1.0688  0.8830 -0.0403
  696MOL0     H95993   3.576   5.511  10.466  0.4282 -1.0183  0.1129
  696MOL0     H95994   3.544   5.498  10.287  0.8583 -1.2962 -1.0201
  696MOL0     H95995   3.496   5.296  10.505 -0.9692 -2.2448 -0.8001
  696MOL0     H95996   3.452   5.260  10.330 -2.6880 -0.9704  2.4720
  696MOL0     H95997   3.705   5.170  10.551  0.5631 -0.1255  0.4381
  696MOL0     H95998   3.956   5.010  10.431 -0.4343  0.0132  0.8592
  696MOL0     H95999   3.956   5.111  10.573  0.1999 -0.6087 -0.8876
  696MOL0     H96000   4.179   5.078  10.471  2.6068  0.0010 -2.9937
  696MOL0     H96001   4.124   5.184  10.328  1.3496 -2.0542 -1.0387
  696MOL0     H96002   4.084   5.370  10.501  1.0444  0.7018 -3.5373
  696MOL0     H96003   4.135   5.243  10.626  1.0263  1.2238  0.1984
  696MOL0     H96004   4.360   5.265  10.459  0.1053  1.0847 -1.3074
  696MOL0     H96005   4.298   5.420  10.452  1.3102  0.3645  0.4689
  696MOL0     H96006   4.509   5.404  10.431  0.2151 -1.4663  0.3092
  696MOL0     H96007   4.693   5.476  10.315  1.8751 -0.1861 -0.4560
  696MOL0     H96008   4.827   5.438  10.398 -1.3755 -1.8772  0.0591
  696MOL0     H96009   4.782   5.617  10.375  2.3631 -0.1449  0.7037
  696MOL0     H96010   4.957   5.913  10.729 -0.2112  0.6317  1.2019
  696MOL0     H96011   5.166   6.001  10.812 -3.1533 -0.8043 -2.1070
  696MOL0     H96012   5.391   6.000  11.040  2.5722  1.0605 -0.6923
  696MOL0     H96013   5.267   5.885  11.081  0.1210 -0.5187 -0.3592
  696MOL0     H96014   5.463   5.723  11.138 -1.3486  0.4626 -2.7882
  696MOL0     H96015   5.570   5.854  11.119  0.2718 -0.5365  1.4944
  696MOL0     H96016   5.363   5.829  11.340 -0.6642  1.0504  1.3898
  696MOL0     H96017   5.433   5.976  11.311 -5.2144 -2.0761  2.2959
  696MOL0     H96018   5.668   5.855  11.341 -0.3449 -0.3226 -0.4855
  696MOL0     H96019   5.569   5.723  11.386 -2.2434 -0.1400 -4.9341
  696MOL0     H96020   5.452   5.868  11.567  0.3880 -2.5419  1.7846
  696MOL0     H96021   5.622   5.838  11.594  2.4868  0.3095 -1.7274
  696MOL0     H96022   5.490   6.097  11.487  0.6521 -0.7758 -1.7074
  696MOL0     H96023   5.650   6.067  11.443  0.8353  0.2703  0.8593
  696MOL0     H96024   5.711   6.031  11.679  0.1033 -0.2677 -1.6798
  696MOL0     H96025   5.545   6.092  11.730  2.2993 -0.5115  1.0757
  696MOL0     H96026   5.570   6.303  11.627  1.1267  2.1502 -0.5707
  696MOL0     H96027   5.740   6.254  11.569  1.7258 -1.7227  1.0132
  696MOL0     H96028   5.294   5.594  10.911 -0.5207 -1.7010  0.5266
  696MOL0     H96029   5.071   5.511  10.854  3.6997 -0.5553 -2.7501
  696MOL0     H96030   4.675   5.558  10.869 -0.1618 -0.6382 -0.1235
  696MOL0     H96031   4.457   5.447  10.842 -1.2012 -0.5191 -0.6769
  696MOL0     H96032   2.703   6.074  10.679  0.3497 -1.1253  1.3317
  696MOL0     H96033   2.467   6.069  10.701  2.3644  1.7450  0.2750
  696MOL0     H96034   2.050   5.705  10.344 -1.8824 -0.2264  0.0858
  696MOL0     H96035   1.869   5.796  10.231  2.5068  0.8163 -1.2468
  696MOL0     H96036   1.637   5.808  10.231  2.5488  0.2385 -0.6035
  696MOL0     H96037   1.580   5.821  10.408 -1.6924  4.3900  2.1567
  696MOL0     H96038   1.466   6.012  10.211 -0.7070  0.1410  0.4284
  696MOL0     H96039   1.403   5.950  10.352 -2.2190 -0.3417 -1.1691
  696MOL0     H96040   1.397   5.706  10.254 -3.7301 -0.7822  0.6285
  696MOL0     H96041   1.286   5.832  10.194  0.3545 -0.4477 -1.6981
  696MOL0     H96042   1.401   5.693  10.008 -0.0655  0.0117  0.1913
  696MOL0     H96043   1.550   5.772  10.054  0.6625 -0.4265  1.6339
  696MOL0     H96044   1.312   6.066   9.842  1.7275 -0.4656 -1.4871
  696MOL0     H96045   1.835   6.093  10.531  1.4667  0.0483 -0.2441
  696MOL0     H96046   2.048   6.168  10.621 -0.5487  0.3926  2.4559
  696MOL0     H96047   1.987   6.045  10.728  0.2646 -0.0160 -0.4227
  696MOL0     H96048   2.165   6.045  10.687  1.1251 -1.8131 -1.7775
  697MOL0     O96049   2.057   3.909   6.356  1.1761  0.8908  0.3224
  697MOL0     C96050   2.082   3.864   6.241  0.1559 -0.3464  0.4214
  697MOL0     O96051   2.184   3.901   6.168 -0.1575 -0.5037 -0.0762
  697MOL0     C96052   2.277   3.981   6.236  0.2879 -0.5907 -0.7688
  697MOL0     C96053   2.344   4.087   6.167  0.3860  0.2545 -0.4557
  697MOL0     C96054   2.459   4.140   6.225 -0.6857  0.2082  0.0477
  697MOL0     C96055   2.512   4.095   6.344  0.2956 -0.2757  0.3992
  697MOL0     O96056   2.625   4.160   6.383 -0.5445  0.5599  0.4180
  697MOL0     C96057   2.685   4.110   6.500 -0.8413  0.6508  0.9102
  697MOL0     C96058   2.815   4.180   6.524  0.0211  0.0142  0.0265
  697MOL0     C96059   2.907   4.184   6.403  0.8426  0.2713 -0.6123
  697MOL0     C96060   3.036   4.252   6.434  0.1284 -1.4463  0.4851
  697MOL0     C96061   3.119   4.288   6.318  0.0698  0.1119  0.2052
  697MOL0     C96062   3.203   4.416   6.342  0.6172  0.2586  0.3261
  697MOL0     C96063   3.338   4.384   6.408  0.5320 -0.2699 -0.0813
  697MOL0     C96064   3.416   4.513   6.440 -0.3200  0.5487  0.1895
  697MOL0     N96065   3.559   4.488   6.465  0.6769 -0.2587 -0.3606
  697MOL0     C96066   3.643   4.505   6.362 -0.0179 -0.6111 -0.4150
  697MOL0     C96067   3.768   4.495   6.411  0.3202  0.1327  0.6973
  697MOL0     C96068   3.895   4.523   6.339  1.2741 -0.0534  0.5111
  697MOL0     C96069   3.967   4.620   6.440  0.0049 -0.5415  0.2996
  697MOL0     C96070   4.115   4.634   6.416  0.3526 -0.0747 -0.4360
  697MOL0     C96071   4.143   4.696   6.282  1.0510  1.4379  0.9091
  697MOL0     O96072   4.276   4.731   6.274  0.3807  0.2154  0.3763
  697MOL0     C96073   4.323   4.731   6.147  0.4366 -0.3051 -0.6620
  697MOL0     C96074   4.286   4.823   6.055  0.3628 -0.6527  0.9598
  697MOL0     C96075   4.332   4.828   5.921 -0.4295  0.4765  0.5224
  697MOL0     C96076   4.297   4.955   5.832  0.4095 -0.2970  0.5785
  697MOL0     C96077   4.430   4.732   5.881 -0.7743 -1.6102  0.5045
  697MOL0     C96078   4.499   4.730   5.757 -0.0914 -0.3975 -0.6153
  697MOL0     O96079   4.534   4.847   5.694 -0.2427  0.8877 -0.3731
  697MOL0     C96080   4.607   4.829   5.576 -0.8243  0.3945  0.5244
  697MOL0     C96081   4.744   4.802   5.580 -0.4270 -0.9948 -0.0123
  697MOL0     C96082   4.826   4.788   5.473  0.4714  0.1576 -0.0153
  697MOL0     C96083   4.766   4.782   5.345 -0.2133  0.1283  0.7204
  697MOL0     O96084   4.840   4.775   5.227  0.3357  0.5115 -0.4119
  697MOL0     C96085   4.910   4.643   5.220  0.0736  0.3940 -0.1422
  697MOL0     C96086   4.875   4.570   5.095 -0.0378  0.1081 -0.6997
  697MOL0     C96087   4.961   4.444   5.072 -0.2144 -0.7815 -0.1284
  697MOL0     C96088   5.105   4.472   5.024 -0.6155  0.7772 -0.2743
  697MOL0     C96089   5.194   4.349   4.989  1.1724  0.1992  0.4885
  697MOL0     C96090   5.210   4.251   5.103 -0.7392 -0.1454 -0.4938
  697MOL0     C96091   5.320   4.145   5.062  0.6988 -0.1155  0.3211
  697MOL0     C96092   5.335   4.034   5.170 -0.5711 -0.2261  0.6760
  697MOL0    Cl96093   5.173   3.949   5.189  0.1590  0.4227  0.0417
  697MOL0     C96094   4.631   4.803   5.334 -0.7832 -0.0726  0.3477
  697MOL0     C96095   4.555   4.830   5.448 -0.0507  0.3342 -0.2332
  697MOL0     O96096   4.530   4.616   5.722  0.1304  0.3235  0.4701
  697MOL0     C96097   4.464   4.630   5.973 -0.2124  0.5334 -0.1766
  697MOL0     C96098   4.413   4.633   6.108  0.0335  0.8127 -0.2382
  697MOL0     N96099   3.751   4.478   6.548 -0.1428 -0.7486 -0.6318
  697MOL0     N96100   3.628   4.465   6.578  0.8409  1.2537  0.0325
  697MOL0     C96101   2.453   3.991   6.413 -0.4325 -0.1495  0.3127
  697MOL0     C96102   2.334   3.929   6.359 -1.0276 -0.2549  0.3901
  697MOL0     C96103   1.983   3.779   6.171  0.2493 -0.9504  0.1712
  697MOL0     C96104   2.006   3.750   6.030  0.0315  0.0501 -0.5480
  697MOL0     C96105   1.926   3.663   5.959  0.0614  0.1978  0.3372
  697MOL0     C96106   1.815   3.594   6.013  0.2062  0.3199  0.3755
  697MOL0     O96107   1.755   3.492   5.942  0.3902 -0.6036 -0.2021
  697MOL0     C96108   1.613   3.473   5.964  0.9894 -0.0287  0.6375
  697MOL0     C96109   1.564   3.390   5.839  0.8328  0.2273 -0.0908
  697MOL0     C96110   1.630   3.248   5.824 -0.0019 -0.6056 -0.2188
  697MOL0     C96111   1.656   3.177   5.950 -0.7329  0.9047 -1.5007
  697MOL0     C96112   1.693   3.040   5.925 -0.2417  0.3272  0.6919
  697MOL0     C96113   1.706   2.920   5.901 -0.2505  0.7410  0.0374
  697MOL0     C96114   1.788   3.629   6.147  0.0912  0.5404  0.5488
  697MOL0     C96115   1.874   3.713   6.222  0.3777 -0.3266  0.2795
  697MOL0     C96116   1.832   3.717   6.367 -0.7099 -0.4510  0.7671
  697MOL0     H96117   2.297   4.129   6.079  1.3065  1.6789 -0.3001
  697MOL0     H96118   2.499   4.230   6.180  2.1610 -0.5879  0.7336
  697MOL0     H96119   2.703   4.003   6.490  0.5614  0.8386  1.1929
  697MOL0     H96120   2.618   4.137   6.582 -2.6314  1.3033 -0.6870
  697MOL0     H96121   2.796   4.286   6.545 -0.3308  0.3045 -1.6267
  697MOL0     H96122   2.864   4.151   6.617 -1.1538 -0.6704  0.4541
  697MOL0     H96123   2.929   4.082   6.369 -0.7843 -0.6896  1.0115
  697MOL0     H96124   2.858   4.226   6.315 -0.3453  0.3075  0.0340
  697MOL0     H96125   3.021   4.348   6.484  1.1930 -0.4306 -1.0926
  697MOL0     H96126   3.101   4.197   6.503  2.7750 -0.3139 -0.9910
  697MOL0     H96127   3.051   4.309   6.235  3.0724  0.6050 -2.3103
  697MOL0     H96128   3.183   4.204   6.289 -0.5936 -1.7507  3.6106
  697MOL0     H96129   3.227   4.464   6.247  0.5419  0.0017  0.1765
  697MOL0     H96130   3.152   4.492   6.403 -3.2120  1.3575 -3.7238
  697MOL0     H96131   3.407   4.339   6.335  0.8133  1.6383 -1.0485
  697MOL0     H96132   3.324   4.330   6.502 -2.0947 -0.8295 -0.7100
  697MOL0     H96133   3.401   4.589   6.362  0.9649  0.6904  0.0655
  697MOL0     H96134   3.382   4.551   6.537  0.1680 -1.2789  1.1184
  697MOL0     H96135   3.606   4.522   6.261 -1.6661 -0.0313  0.2626
  697MOL0     H96136   3.873   4.577   6.247  1.6412  3.9438  2.5268
  697MOL0     H96137   3.942   4.425   6.325 -1.4824 -1.4173  0.0615
  697MOL0     H96138   3.915   4.715   6.429 -0.2682 -0.7787 -0.5841
  697MOL0     H96139   3.963   4.586   6.544 -1.3371 -0.6455  0.2360
  697MOL0     H96140   4.151   4.696   6.499 -2.5073  1.2927 -0.1002
  697MOL0     H96141   4.152   4.531   6.413  2.1388  0.5377 -1.4060
  697MOL0     H96142   4.129   4.625   6.200  5.3920  2.0777 -0.6115
  697MOL0     H96143   4.082   4.785   6.265 -0.3180  0.4351  0.3892
  697MOL0     H96144   4.205   4.893   6.069  0.4559 -0.9638  3.5091
  697MOL0     H96145   4.194   4.988   5.851 -0.3599 -1.4731 -1.3322
  697MOL0     H96146   4.309   4.931   5.726  0.6996  0.3125  0.4685
  697MOL0     H96147   4.364   5.036   5.862  0.3408  0.2597 -0.7269
  697MOL0     H96148   4.807   4.810   5.668  1.4855  0.6738 -1.4520
  697MOL0     H96149   4.932   4.763   5.475  0.5435  0.5197  1.0819
  697MOL0     H96150   5.017   4.663   5.221  0.2943 -0.6709  2.0060
  697MOL0     H96151   4.901   4.577   5.307 -3.5191 -0.3946 -0.9384
  697MOL0     H96152   4.771   4.535   5.097  0.1293 -0.6379 -2.6784
  697MOL0     H96153   4.879   4.645   5.014 -0.4820 -0.1764 -0.9915
  697MOL0     H96154   4.902   4.369   5.019 -2.0754  1.0268 -0.7385
  697MOL0     H96155   4.983   4.417   5.176  3.4589  3.0637  0.4003
  697MOL0     H96156   5.154   4.542   5.092 -2.6070  0.7962  1.2567
  697MOL0     H96157   5.086   4.518   4.927 -1.7197  1.7847  0.3892
  697MOL0     H96158   5.136   4.296   4.913  1.2112 -0.1154  0.6763
  697MOL0     H96159   5.291   4.387   4.954  1.6039 -1.4439 -0.1906
  697MOL0     H96160   5.112   4.208   5.128 -0.7090 -0.0768 -0.2571
  697MOL0     H96161   5.234   4.303   5.196  0.0408  0.1781 -0.8740
  697MOL0     H96162   5.419   4.191   5.058  1.5353 -1.8939 -0.8054
  697MOL0     H96163   5.282   4.096   4.972  0.0053  0.0893  0.4902
  697MOL0     H96164   5.369   4.082   5.263  1.9174  0.3746 -0.4684
  697MOL0     H96165   5.411   3.963   5.138  0.7218 -0.0076  3.0387
  697MOL0     H96166   4.577   4.804   5.240  2.8062  2.4223 -1.9341
  697MOL0     H96167   4.453   4.868   5.446 -0.5982 -0.9804  0.8672
  697MOL0     H96168   4.540   4.557   5.947  0.5646  0.2992  2.4490
  697MOL0     H96169   4.431   4.555   6.182 -3.2620  1.5868  1.6286
  697MOL0     H96170   2.503   3.942   6.496  1.7479  0.2382 -0.6864
  697MOL0     H96171   2.294   3.850   6.422  3.2669 -1.9540  1.3346
  697MOL0     H96172   2.088   3.794   5.974  1.0594  0.9200  1.5484
  697MOL0     H96173   1.949   3.652   5.853  0.3935 -0.9745  0.5200
  697MOL0     H96174   1.596   3.416   6.056 -1.3169 -1.6029 -0.6504
  697MOL0     H96175   1.553   3.563   5.973 -1.9801 -1.6576 -1.1271
  697MOL0     H96176   1.584   3.455   5.753  1.2598 -1.0658 -0.9964
  697MOL0     H96177   1.457   3.371   5.844  0.5214  1.5847 -1.0647
  697MOL0     H96178   1.580   3.188   5.748  0.3956  0.2280 -1.1675
  697MOL0     H96179   1.727   3.269   5.777 -0.0440 -1.0839 -0.5202
  697MOL0     H96180   1.561   3.173   6.002 -0.7751 -3.8137 -1.5086
  697MOL0     H96181   1.738   3.231   5.999  0.8579  1.0079 -4.0461
  697MOL0     H96182   1.738   2.818   5.891 -0.6368  0.5807  0.4320
  697MOL0     H96183   1.704   3.578   6.192  1.6413 -1.9260  0.8643
  697MOL0     H96184   1.909   3.680   6.435  1.3049  3.2551  0.7817
  697MOL0     H96185   1.820   3.823   6.393  0.5996  0.1067 -0.6702
  697MOL0     H96186   1.734   3.671   6.384 -1.4993  0.8554 -0.0056
  698MOL0     O96187   6.425   6.381   3.860  0.3252  0.0771  0.8957
  698MOL0     C96188   6.370   6.406   3.967 -0.3763  0.0557  0.2311
  698MOL0     O96189   6.432   6.461   4.070  0.5073 -0.0121  0.3762
  698MOL0     C96190   6.560   6.501   4.046 -0.0195 -0.1233 -0.1955
  698MOL0     C96191   6.671   6.413   4.062 -0.6123  0.1831 -0.5683
  698MOL0     C96192   6.810   6.455   4.046 -0.4922 -0.5104  0.1943
  698MOL0     C96193   6.836   6.592   4.017  0.3173  1.1522  0.4824
  698MOL0     O96194   6.968   6.615   3.976 -0.4848  0.4958  0.1895
  698MOL0     C96195   6.992   6.723   3.891 -0.2614 -0.2999  0.4136
  698MOL0     C96196   7.068   6.837   3.961  0.3006  0.4663  0.0214
  698MOL0     C96197   7.085   6.949   3.863  0.6169  0.4258  0.1618
  698MOL0     C96198   7.168   7.063   3.931  0.3419  0.2903  0.2478
  698MOL0     C96199   7.308   7.018   3.978 -0.1414  0.4102 -0.4596
  698MOL0     C96200   7.391   6.938   3.874 -0.6362  0.4723  0.0708
  698MOL0     C96201   7.542   6.930   3.886  0.2893 -0.0131  0.2000
  698MOL0     C96202   7.610   6.867   3.765 -0.1458  0.0016 -0.4811
  698MOL0     N96203   7.759   6.874   3.748  0.0334  0.9130  0.1571
  698MOL0     C96204   7.856   6.879   3.849  0.1589 -0.8028 -0.5700
  698MOL0     C96205   7.974   6.874   3.793 -1.0142 -0.5251 -0.3704
  698MOL0     C96206   8.119   6.876   3.836 -1.0970  0.5874  0.1308
  698MOL0     C96207   8.206   6.991   3.782 -1.0082 -0.1118 -0.2180
  698MOL0     C96208   8.326   7.024   3.878 -0.1356 -0.7452 -0.5174
  698MOL0     C96209   8.418   6.909   3.908 -0.5269 -0.0503 -0.0667
  698MOL0     O96210   8.505   6.932   4.024  0.6568 -0.6824  0.3693
  698MOL0     C96211   8.615   6.849   4.042  0.8919 -0.6085 -0.2607
  698MOL0     C96212   8.725   6.886   4.122  0.0726  0.2099  0.1588
  698MOL0     C96213   8.838   6.803   4.121  0.0372 -0.2162 -0.8729
  698MOL0     C96214   8.962   6.855   4.182  0.5694 -0.2285  0.8170
  698MOL0     C96215   8.838   6.681   4.059  1.1279 -0.1827  0.1500
  698MOL0     C96216   8.948   6.583   4.078 -0.1781  0.0474  0.1541
  698MOL0     O96217   8.962   6.497   3.973 -0.1697  0.3278  0.0291
  698MOL0     C96218   9.067   6.404   3.978  0.2734  0.7600  0.1916
  698MOL0     C96219   9.205   6.435   4.003 -0.5433 -0.1874 -0.6591
  698MOL0     C96220   9.306   6.337   3.992 -0.7420  0.4952  0.1471
  698MOL0     C96221   9.279   6.208   3.957 -0.2931 -0.6319 -0.4556
  698MOL0     O96222   9.374   6.114   3.960  0.3789  0.1265 -0.2128
  698MOL0     C96223   9.398   6.045   3.842  0.1429  0.8581 -0.8974
  698MOL0     C96224   9.499   5.949   3.891 -0.8150  0.3291  1.4639
  698MOL0     C96225   9.426   5.826   3.954 -0.4643 -0.2262 -0.3346
  698MOL0     C96226   9.504   5.731   4.052 -0.0576  0.1553  0.1452
  698MOL0     C96227   9.596   5.653   3.961 -0.0910 -0.6546 -0.5864
  698MOL0     C96228   9.704   5.582   4.049  0.0386  0.1331 -0.3370
  698MOL0     C96229   9.798   5.492   3.969  0.9789 -0.3698  0.5945
  698MOL0     C96230   9.868   5.389   4.046 -0.1799 -0.3060  0.3329
  698MOL0    Cl96231  10.005   5.318   3.955  0.2158  0.4734  0.0846
  698MOL0     C96232   9.145   6.185   3.915 -0.1879  0.0908 -0.8841
  698MOL0     C96233   9.042   6.276   3.927  0.5194 -0.8933  0.4151
  698MOL0     O96234   9.012   6.578   4.183 -0.1564 -0.4772 -0.6979
  698MOL0     C96235   8.724   6.640   3.987  0.4130 -0.6779 -0.1770
  698MOL0     C96236   8.616   6.727   3.981 -0.2997  0.0839  0.7639
  698MOL0     N96237   7.949   6.851   3.663 -0.1912  0.6023  0.9082
  698MOL0     N96238   7.830   6.860   3.636  0.1756 -0.5421  0.7565
  698MOL0     C96239   6.727   6.679   4.016 -0.3347 -0.7133  0.1394
  698MOL0     C96240   6.593   6.636   4.030  0.2464 -0.0679  0.2346
  698MOL0     C96241   6.234   6.371   3.986  0.2844  0.4685  0.1339
  698MOL0     C96242   6.202   6.355   4.123  0.2518  0.2706  0.7207
  698MOL0     C96243   6.075   6.316   4.153 -0.1143 -0.6350 -0.3864
  698MOL0     C96244   5.976   6.287   4.067  0.7292  0.1563  0.1856
  698MOL0     O96245   5.857   6.241   4.113  0.2553  0.1015  0.1267
  698MOL0     C96246   5.755   6.205   4.021  0.2833 -0.0160 -0.6347
  698MOL0     C96247   5.772   6.069   3.956 -0.5450  0.9681  1.1102
  698MOL0     C96248   5.766   5.960   4.050 -0.2989  0.4927 -1.4163
  698MOL0     C96249   5.616   5.931   4.103 -0.6302  0.5682  0.1927
  698MOL0     C96250   5.529   5.895   3.988  1.1924 -0.5740 -0.9796
  698MOL0     C96251   5.462   5.869   3.896 -0.1599  0.2925  0.5038
  698MOL0     C96252   6.009   6.306   3.926  0.2904  0.5038  0.0371
  698MOL0     C96253   6.130   6.361   3.885  1.0243  0.0209  0.7767
  698MOL0     C96254   6.159   6.383   3.734  0.2170  0.2600  0.8209
  698MOL0     H96255   6.654   6.305   4.063 -0.0826  0.0952 -0.9883
  698MOL0     H96256   6.892   6.383   4.043 -0.7027 -0.8053  1.2256
  698MOL0     H96257   6.901   6.763   3.846 -0.2038 -1.2420 -0.5806
  698MOL0     H96258   7.048   6.685   3.805  0.3484  0.7183  0.3348
  698MOL0     H96259   7.030   6.872   4.057  3.3821  1.6585  0.9405
  698MOL0     H96260   7.168   6.799   3.987 -0.1986 -1.6044 -0.8772
  698MOL0     H96261   7.136   6.920   3.771 -0.3041 -0.2230 -0.1633
  698MOL0     H96262   6.985   6.978   3.831  0.0849 -0.9975  0.4489
  698MOL0     H96263   7.188   7.129   3.845 -0.6953  0.7643  0.3647
  698MOL0     H96264   7.115   7.115   4.010 -0.2186  2.0678 -1.2141
  698MOL0     H96265   7.286   6.952   4.062 -1.1476 -0.8344 -1.6691
  698MOL0     H96266   7.359   7.106   4.020 -1.6518  1.0913  0.0142
  698MOL0     H96267   7.342   6.842   3.857 -0.8742  0.9900 -2.6756
  698MOL0     H96268   7.369   6.983   3.776 -0.2000 -0.6993 -0.5868
  698MOL0     H96269   7.574   6.874   3.974 -3.0714  0.2041  1.7140
  698MOL0     H96270   7.584   7.031   3.886  1.7514 -0.6068 -0.1941
  698MOL0     H96271   7.573   6.765   3.754 -1.1324  0.2128  0.6924
  698MOL0     H96272   7.570   6.919   3.677  0.3456  0.2389 -0.5683
  698MOL0     H96273   7.825   6.883   3.953  2.3317 -1.1356  0.1328
  698MOL0     H96274   8.168   6.787   3.795  0.0752  0.9917  0.6287
  698MOL0     H96275   8.134   6.878   3.945  1.3844  3.0786 -0.1338
  698MOL0     H96276   8.248   6.961   3.686  1.7206 -2.4950  1.5424
  698MOL0     H96277   8.140   7.078   3.775  0.8152  1.5905  2.0526
  698MOL0     H96278   8.380   7.111   3.839  0.1001  0.3369  2.0411
  698MOL0     H96279   8.268   7.057   3.965 -0.6167 -0.2295 -1.0252
  698MOL0     H96280   8.355   6.822   3.929 -0.8145  0.1906  0.0772
  698MOL0     H96281   8.484   6.884   3.825  1.2051 -0.7765  1.4601
  698MOL0     H96282   8.714   6.982   4.170 -0.7217  2.7000 -4.4196
  698MOL0     H96283   8.965   6.821   4.286  2.2149 -0.2753  0.7669
  698MOL0     H96284   8.964   6.963   4.168 -1.2423 -0.4065 -1.4472
  698MOL0     H96285   9.047   6.819   4.124  0.1005 -0.4216  0.2448
  698MOL0     H96286   9.220   6.536   4.040 -1.2409 -0.3578  0.1098
  698MOL0     H96287   9.410   6.361   4.016 -0.7292 -1.2248  2.1227
  698MOL0     H96288   9.311   5.997   3.796 -0.3875  0.6497  0.2920
  698MOL0     H96289   9.444   6.110   3.767  0.3807  0.9326 -0.6888
  698MOL0     H96290   9.554   5.912   3.805  0.7977  0.1435  2.5371
  698MOL0     H96291   9.579   5.998   3.948  1.9507 -2.1243 -0.0788
  698MOL0     H96292   9.384   5.769   3.870 -0.5280  0.3291 -0.6836
  698MOL0     H96293   9.348   5.865   4.019  0.4884  0.1101  0.6376
  698MOL0     H96294   9.445   5.672   4.122 -0.4503 -1.0596 -1.1503
  698MOL0     H96295   9.559   5.798   4.118 -2.1203  0.1735  1.9565
  698MOL0     H96296   9.542   5.573   3.909  0.1961 -0.0439 -1.8682
  698MOL0     H96297   9.646   5.717   3.888 -1.3665 -0.0539 -0.9803
  698MOL0     H96298   9.648   5.513   4.113 -0.4683  2.6120  2.1138
  698MOL0     H96299   9.760   5.650   4.114 -1.8474  2.0026 -0.5390
  698MOL0     H96300   9.872   5.551   3.914 -2.2471  1.9722 -1.5455
  698MOL0     H96301   9.740   5.437   3.894 -1.7839  2.7695  0.1943
  698MOL0     H96302   9.796   5.313   4.079 -0.3014  0.2242  1.3542
  698MOL0     H96303   9.912   5.427   4.139 -0.5336 -1.9132  1.1916
  698MOL0     H96304   9.109   6.090   3.877 -2.8446 -0.1441  1.8326
  698MOL0     H96305   8.940   6.258   3.897  0.0805  1.0156  0.6019
  698MOL0     H96306   8.718   6.543   3.939 -0.9174 -1.2585  1.0937
  698MOL0     H96307   8.534   6.690   3.921  0.2921  1.2228 -0.8119
  698MOL0     H96308   6.731   6.783   3.984 -2.6071 -1.2064 -2.0122
  698MOL0     H96309   6.513   6.709   4.031  1.2879  1.1304 -0.5336
  698MOL0     H96310   6.271   6.355   4.207 -0.8112  1.5677  1.6311
  698MOL0     H96311   6.056   6.304   4.259 -0.2921  2.2752  0.0003
  698MOL0     H96312   5.657   6.208   4.070  0.7043  0.9955  0.1893
  698MOL0     H96313   5.726   6.274   3.941 -1.9336 -0.0865  0.0336
  698MOL0     H96314   5.873   6.074   3.916  0.6023  1.1954  3.8076
  698MOL0     H96315   5.700   6.057   3.874  0.9298 -0.6625 -0.0170
  698MOL0     H96316   5.805   5.869   4.003 -1.9824 -1.7782  1.2523
  698MOL0     H96317   5.837   5.980   4.131 -0.2105 -0.8631 -1.1346
  698MOL0     H96318   5.579   6.012   4.166  0.6720  0.0104  1.7432
  698MOL0     H96319   5.626   5.849   4.175 -0.4008  2.0777  1.9553
  698MOL0     H96320   5.388   5.855   3.819 -0.1132  1.2093  0.2738
  698MOL0     H96321   5.936   6.288   3.847 -0.1982  0.4062  0.4989
  698MOL0     H96322   6.064   6.391   3.681  0.6016 -1.0834 -0.1298
  698MOL0     H96323   6.222   6.472   3.731  1.4665 -0.5992 -1.8811
  698MOL0     H96324   6.219   6.301   3.693  1.2825  1.5250 -0.2528
  699MOL0     O96325  10.582   7.499   0.415  0.5236 -0.5738  0.4690
  699MOL0     C96326  10.550   7.400   0.477  0.6449  0.1166 -0.4102
  699MOL0     O96327  10.630   7.321   0.549  0.2831  0.5320  0.6133
  699MOL0     C96328  10.763   7.359   0.537  0.0080 -0.0951  0.2383
  699MOL0     C96329  10.860   7.287   0.458 -0.4633  0.1126 -0.1402
  699MOL0     C96330  10.991   7.330   0.464 -0.0843  0.4968 -0.3619
  699MOL0     C96331  11.039   7.429   0.549  0.8703 -0.5606  0.9903
  699MOL0     O96332  11.171   7.468   0.541 -0.0617  0.1916  0.0785
  699MOL0     C96333  11.204   7.610   0.555 -0.4583  0.1285 -0.3946
  699MOL0     C96334  11.340   7.636   0.480 -1.0348 -0.0333  0.1444
  699MOL0     C96335  11.447   7.531   0.527  0.0581 -0.1585  0.2010
  699MOL0     C96336  11.589   7.578   0.490 -0.2401  0.7226 -0.7836
  699MOL0     C96337  11.613   7.590   0.340 -0.1120  0.0576  0.2824
  699MOL0     C96338  11.759   7.605   0.287 -0.5501  0.3042  0.6490
  699MOL0     C96339  11.810   7.748   0.292  0.3174 -0.1146 -0.6664
  699MOL0     C96340  11.893   7.770   0.412 -0.8410 -0.6076  0.1864
  699MOL0     N96341  12.018   7.691   0.402  0.3490  0.0188 -0.1459
  699MOL0     C96342  12.121   7.721   0.318 -0.2480 -0.4664  0.2717
  699MOL0     C96343  12.224   7.635   0.350  0.8535  0.2701 -0.3871
  699MOL0     C96344  12.359   7.631   0.297  0.1802 -0.1390  0.3802
  699MOL0     C96345  12.459   7.554   0.392 -0.0970  0.7387  0.6560
  699MOL0     C96346  12.609   7.563   0.347  0.1425  0.0857 -0.3241
  699MOL0     C96347  12.643   7.489   0.221 -0.1232  0.2227 -0.0585
  699MOL0     O96348  12.680   7.356   0.251  0.4164  0.2108 -0.2295
  699MOL0     C96349  12.642   7.258   0.156 -0.1969 -0.6450  0.6485
  699MOL0     C96350  12.603   7.278   0.030 -0.8658  0.2487 -0.5111
  699MOL0     C96351  12.571   7.173  -0.056 -0.0484  0.1237  0.4884
  699MOL0     C96352  12.521   7.211  -0.193 -0.1794 -0.1337 -0.0597
  699MOL0     C96353  12.567   7.041  -0.009 -0.1017  0.7990 -0.6479
  699MOL0     C96354  12.529   6.918  -0.081 -0.2757  0.5535 -0.0231
  699MOL0     O96355  12.546   6.797  -0.024 -0.5967  0.4008  0.4649
  699MOL0     C96356  12.443   6.705  -0.035 -0.1348 -0.1067 -0.8071
  699MOL0     C96357  12.303   6.748  -0.027 -0.4966 -1.0735  0.4371
  699MOL0     C96358  12.206   6.646  -0.024  0.3320  0.0613  1.7286
  699MOL0     C96359  12.235   6.510  -0.047  0.3794  0.3442  0.7665
  699MOL0     O96360  12.145   6.410  -0.058 -0.0969  0.3505  0.0237
  699MOL0     C96361  12.012   6.432  -0.005  0.1726  0.7774 -0.0556
  699MOL0     C96362  11.926   6.317  -0.014  0.3338  0.5135  0.1131
  699MOL0     C96363  11.991   6.195   0.053 -0.2531 -1.4729 -0.2439
  699MOL0     C96364  11.959   6.051  -0.007  0.5426  0.1141 -0.2552
  699MOL0     C96365  11.805   6.013  -0.025  0.6598 -0.2944 -0.3336
  699MOL0     C96366  11.790   5.870  -0.085 -0.4544 -0.5216  0.6185
  699MOL0     C96367  11.644   5.819  -0.078  0.3296 -0.1029  0.0201
  699MOL0     C96368  11.645   5.681  -0.150 -0.0745  0.1411 -0.6247
  699MOL0    Cl96369  11.761   5.561  -0.082 -0.1407 -0.3666  0.2161
  699MOL0     C96370  12.369   6.475  -0.037  0.1695  0.3013  0.5513
  699MOL0     C96371  12.469   6.571  -0.046  0.3064  0.2634  0.8505
  699MOL0     O96372  12.499   6.932  -0.198  0.2292  0.3968  0.3756
  699MOL0     C96373  12.599   7.021   0.120  0.1403  0.5046  0.5183
  699MOL0     C96374  12.635   7.130   0.203 -0.1381 -1.0482 -0.9050
  699MOL0     N96375  12.175   7.555   0.453  0.3327  0.2803  0.5719
  699MOL0     N96376  12.053   7.592   0.481 -0.0264  0.8010 -0.4331
  699MOL0     C96377  10.942   7.494   0.630  0.2806  0.0117 -0.0023
  699MOL0     C96378  10.809   7.459   0.628 -0.7449 -0.0635  0.0836
  699MOL0     C96379  10.407   7.372   0.489  1.0351 -1.1727 -1.0276
  699MOL0     C96380  10.336   7.202   0.583  0.4121  0.6153 -0.0911
  699MOL0     C96381  10.130   7.156   0.593  0.8932  0.0069 -0.9555
  699MOL0     C96382   9.989   7.286   0.498  0.9561  0.2175 -1.1815
  699MOL0     O96383   9.854   7.267   0.517 -0.4937 -0.3971 -0.4462
  699MOL0     C96384   9.822   7.148   0.596  0.6177 -0.4073  0.0997
  699MOL0     C96385   9.674   7.164   0.639 -0.2508  0.5015 -0.9706
  699MOL0     C96386   9.578   7.134   0.523  0.3153  0.2329  0.0032
  699MOL0     C96387   9.425   7.127   0.562 -0.2867 -0.2664  0.4767
  699MOL0     C96388   9.390   7.017   0.654 -0.4255  0.4164  0.9529
  699MOL0     C96389   9.337   6.929   0.719 -0.7007  0.2544 -0.2772
  699MOL0     C96390  10.061   7.462   0.399 -0.4427 -0.0498  0.0782
  699MOL0     C96391  10.271   7.503   0.397  0.0432 -0.5625  0.0481
  699MOL0     C96392  10.317   7.627   0.322  0.7155  0.9931  0.9583
  699MOL0     H96393  10.831   7.204   0.394 -3.4324  0.6487  0.3882
  699MOL0     H96394  11.056   7.283   0.391 -1.3382 -2.4160  0.2558
  699MOL0     H96395  11.218   7.631   0.662  3.0915  0.4345 -0.7990
  699MOL0     H96396  11.129   7.674   0.507 -2.0616 -2.4683 -1.5700
  699MOL0     H96397  11.312   7.631   0.374  0.8248 -0.9761 -0.3311
  699MOL0     H96398  11.372   7.737   0.506 -1.8454  0.3387 -0.2624
  699MOL0     H96399  11.441   7.510   0.634  1.1731 -3.0422 -0.2170
  699MOL0     H96400  11.421   7.435   0.481 -2.0104  1.7061 -2.8490
  699MOL0     H96401  11.609   7.673   0.541  1.5865  0.9837 -1.9056
  699MOL0     H96402  11.659   7.502   0.526 -2.9785 -2.0554 -0.9628
  699MOL0     H96403  11.547   7.660   0.288  2.2441  1.1869 -1.3255
  699MOL0     H96404  11.589   7.493   0.294  1.8736 -0.3647  0.0558
  699MOL0     H96405  11.828   7.533   0.330 -0.0127  0.7901  0.6141
  699MOL0     H96406  11.760   7.582   0.180  0.1970  0.1494  0.6830
  699MOL0     H96407  11.721   7.812   0.287  0.4527  0.0920 -0.3960
  699MOL0     H96408  11.870   7.761   0.202  0.4745  0.4998 -0.4728
  699MOL0     H96409  11.926   7.874   0.418  2.2588 -1.3022 -2.1189
  699MOL0     H96410  11.845   7.725   0.499 -1.1909  1.0937  0.9158
  699MOL0     H96411  12.126   7.813   0.261  0.8125 -0.6828 -0.0007
  699MOL0     H96412  12.401   7.731   0.280  0.9213 -0.4038  0.5773
  699MOL0     H96413  12.355   7.588   0.196  1.8834  0.5188 -0.0078
  699MOL0     H96414  12.456   7.592   0.494  1.9939 -1.5364  1.6678
  699MOL0     H96415  12.432   7.447   0.391  0.8529  0.4934  0.6319
  699MOL0     H96416  12.650   7.664   0.341  2.1521 -0.7283 -1.2427
  699MOL0     H96417  12.669   7.523   0.430 -0.2066  2.2271  1.0265
  699MOL0     H96418  12.550   7.496   0.163 -0.1064  1.1493  0.0161
  699MOL0     H96419  12.711   7.546   0.158 -1.9200 -1.0849 -3.4965
  699MOL0     H96420  12.599   7.380  -0.007 -1.5000  1.5347  2.7922
  699MOL0     H96421  12.413   7.193  -0.197 -0.2039  0.1843 -1.3235
  699MOL0     H96422  12.577   7.179  -0.282 -0.1485  1.0854 -0.4957
  699MOL0     H96423  12.534   7.319  -0.205 -2.4258  0.1504 -0.4114
  699MOL0     H96424  12.267   6.849  -0.007  0.1123 -0.8326  0.3403
  699MOL0     H96425  12.107   6.682   0.003 -0.9002 -0.4709 -1.5125
  699MOL0     H96426  12.021   6.460   0.101  0.4312 -0.5436  0.2916
  699MOL0     H96427  11.964   6.509  -0.066  2.8882  2.8701  0.2334
  699MOL0     H96428  11.827   6.332   0.030  0.4243  0.3708  0.3717
  699MOL0     H96429  11.926   6.310  -0.123  1.4894  4.6281 -0.2923
  699MOL0     H96430  11.952   6.198   0.155  3.4801  1.6597  1.3526
  699MOL0     H96431  12.099   6.206   0.064 -0.0386  1.4058 -3.4779
  699MOL0     H96432  11.997   5.977   0.064  1.2191  1.4389  0.8221
  699MOL0     H96433  12.011   6.036  -0.102  2.3537 -0.0078  0.7252
  699MOL0     H96434  11.758   6.018   0.074  0.4921  2.7303 -0.4587
  699MOL0     H96435  11.749   6.083  -0.088 -1.7520 -0.7113  1.2049
  699MOL0     H96436  11.852   5.809  -0.017  2.0977 -0.8399 -1.7952
  699MOL0     H96437  11.842   5.874  -0.181  0.5912  0.7058  1.2029
  699MOL0     H96438  11.580   5.893  -0.128  1.8999  0.7077 -0.8761
  699MOL0     H96439  11.619   5.802   0.027 -0.0148 -1.1460 -0.2213
  699MOL0     H96440  11.665   5.709  -0.254 -0.8000 -0.1538 -0.8521
  699MOL0     H96441  11.542   5.644  -0.139 -1.0426  3.2248  2.4909
  699MOL0     H96442  12.390   6.370  -0.021 -2.3648 -0.0896  1.8320
  699MOL0     H96443  12.566   6.525  -0.027 -1.0889 -3.0360  0.6190
  699MOL0     H96444  12.612   6.924   0.168  3.1870  0.4026 -0.3406
  699MOL0     H96445  12.659   7.111   0.307  3.5247 -0.4255 -1.4716
  699MOL0     H96446  10.975   7.565   0.705 -1.1100 -2.0687  2.7956
  699MOL0     H96447  10.749   7.522   0.692 -0.2710 -0.5732  1.0473
  699MOL0     H96448  10.397   7.128   0.635  0.6671 -0.4312 -1.8279
  699MOL0     H96449  10.094   7.068   0.645  0.0841  1.3464  0.8568
  699MOL0     H96450   9.848   7.052   0.550 -0.5752 -0.0476 -1.4324
  699MOL0     H96451   9.891   7.158   0.680  4.0480 -5.0797 -1.7262
  699MOL0     H96452   9.659   7.264   0.682  1.3091 -0.0605  1.0444
  699MOL0     H96453   9.661   7.095   0.723 -1.8204  2.1065  0.1597
  699MOL0     H96454   9.590   7.205   0.441  0.2125  0.1553 -0.0796
  699MOL0     H96455   9.601   7.037   0.479 -1.9475  0.0585 -0.9395
  699MOL0     H96456   9.376   7.102   0.468 -1.5530 -2.6985  1.7020
  699MOL0     H96457   9.397   7.225   0.601  0.0190  1.0887 -2.4704
  699MOL0     H96458   9.288   6.849   0.770  0.8615 -1.1170 -0.8271
  699MOL0     H96459   9.996   7.527   0.343 -4.2536 -2.8941  0.7899
  699MOL0     H96460  10.355   7.596   0.224  0.6023 -1.4557  1.6316
  699MOL0     H96461  10.227   7.688   0.309  0.1105  0.8138  3.7086
  699MOL0     H96462  10.389   7.688   0.378  1.2150  0.1929  1.1940
  700MOL0     O96463   9.241  11.064   9.085 -0.6748 -0.3962  0.4664
  700MOL0     C96464   9.209  11.172   9.041  0.3701 -0.9644 -0.5497
  700MOL0     O96465   9.278  11.242   8.952  0.6114 -0.0337  0.7702
  700MOL0     C96466   9.388  11.190   8.896  0.2510  0.5394 -0.4664
  700MOL0     C96467   9.401  11.174   8.757 -0.0658 -0.8674  0.3514
  700MOL0     C96468   9.517  11.136   8.696  0.5289 -0.8445  0.4076
  700MOL0     C96469   9.632  11.115   8.780 -0.4101 -0.7518 -0.3614
  700MOL0     O96470   9.757  11.070   8.723 -0.5469 -0.0421 -0.2520
  700MOL0     C96471   9.768  11.074   8.577  0.2837  0.1631 -0.7628
  700MOL0     C96472   9.911  11.026   8.545  0.2362 -0.9719 -0.2204
  700MOL0     C96473   9.915  10.927   8.431  0.8834 -0.1912  1.8668
  700MOL0     C96474   9.902  11.017   8.294  0.4786  0.2226 -0.6361
  700MOL0     C96475   9.898  10.932   8.167  0.2135 -0.6063 -0.4567
  700MOL0     C96476   9.756  10.912   8.115  0.1718 -0.1342  0.3641
  700MOL0     C96477   9.751  10.789   8.022 -0.1521 -0.1834 -0.1698
  700MOL0     C96478   9.803  10.801   7.881 -0.8972 -0.2801 -0.0524
  700MOL0     N96479   9.763  10.921   7.801  0.3169  0.5324  0.1933
  700MOL0     C96480   9.657  10.909   7.719  0.6618  0.1323  0.1938
  700MOL0     C96481   9.669  11.004   7.628 -0.3413 -0.4206 -0.6131
  700MOL0     C96482   9.567  11.028   7.525 -0.2488  0.0185  0.4731
  700MOL0     C96483   9.442  11.103   7.568  0.5247 -0.3088  1.0555
  700MOL0     C96484   9.459  11.261   7.577 -0.3339  0.4250  0.2878
  700MOL0     C96485   9.573  11.302   7.674  0.5238 -0.1433 -0.3451
  700MOL0     O96486   9.566  11.266   7.812 -0.3503 -0.0089  0.3279
  700MOL0     C96487   9.682  11.307   7.882  0.3242  0.8426  0.3525
  700MOL0     C96488   9.687  11.304   8.024 -0.2048  0.6933  0.8241
  700MOL0     C96489   9.798  11.359   8.092 -0.3342 -0.3029  0.9910
  700MOL0     C96490   9.761  11.378   8.238  0.5884 -0.2324 -0.7143
  700MOL0     C96491   9.912  11.414   8.024  0.2375 -0.3349 -0.3670
  700MOL0     C96492  10.026  11.485   8.091 -0.0233  1.8575 -0.0195
  700MOL0     O96493  10.106  11.546   8.002 -0.0639 -0.5145  0.1834
  700MOL0     C96494  10.223  11.587   8.057 -0.4722  0.0929  0.0174
  700MOL0     C96495  10.326  11.494   8.058  0.2220  0.0665  0.2529
  700MOL0     C96496  10.449  11.523   8.120  0.4025  0.6843 -0.3266
  700MOL0     C96497  10.474  11.655   8.166  0.5791  0.8859  0.4523
  700MOL0     O96498  10.574  11.688   8.250 -0.2794 -0.7812  0.0599
  700MOL0     C96499  10.643  11.580   8.314 -1.3225 -0.9576  0.6594
  700MOL0     C96500  10.766  11.635   8.381  0.2227  0.1168  0.4304
  700MOL0     C96501  10.863  11.694   8.285 -0.3106 -0.1231  0.8411
  700MOL0     C96502  10.990  11.741   8.355 -0.1198  0.4458 -0.2172
  700MOL0     C96503  11.086  11.620   8.371 -0.2873  0.0371  0.4390
  700MOL0     C96504  11.207  11.659   8.457 -0.0853  0.9773  0.2969
  700MOL0     C96505  11.323  11.669   8.355  0.3818  0.2411  0.4449
  700MOL0     C96506  11.454  11.681   8.430  0.0339  0.2213  0.1506
  700MOL0    Cl96507  11.486  11.516   8.494  0.4439 -0.5387  0.0138
  700MOL0     C96508  10.372  11.746   8.145  0.1305 -0.6272 -0.0154
  700MOL0     C96509  10.248  11.722   8.095  0.7777  0.0590  0.4473
  700MOL0     O96510  10.042  11.480   8.212  0.3666 -0.5646  0.7586
  700MOL0     C96511   9.909  11.409   7.895 -0.2993 -0.4544  0.4586
  700MOL0     C96512   9.800  11.356   7.825 -0.2266 -0.0987  0.2917
  700MOL0     N96513   9.792  11.061   7.637  0.1769 -0.3033 -0.6023
  700MOL0     N96514   9.850  10.999   7.732  0.2387 -0.7355 -0.1984
  700MOL0     C96515   9.615  11.122   8.914 -0.4648  0.4503 -0.0338
  700MOL0     C96516   9.497  11.155   8.973 -0.0526  0.2472  0.4514
  700MOL0     C96517   9.082  11.254   9.094  0.2840  0.9948 -0.4494
  700MOL0     C96518   9.041  11.365   9.014 -0.3699 -0.6233 -0.0233
  700MOL0     C96519   8.919  11.429   9.040 -0.2836  0.0731  0.2772
  700MOL0     C96520   8.836  11.376   9.141 -0.3566 -0.0829 -0.0283
  700MOL0     O96521   8.721  11.428   9.185 -0.0321  0.3297  0.1048
  700MOL0     C96522   8.632  11.485   9.092  0.1573  0.4433  0.2273
  700MOL0     C96523   8.487  11.482   9.143 -0.5589 -0.0820  0.2608
  700MOL0     C96524   8.387  11.524   9.042  0.5912 -0.5314  0.6409
  700MOL0     C96525   8.246  11.488   9.097  0.4462  0.5224  0.2011
  700MOL0     C96526   8.144  11.495   8.986  0.4315  0.2974 -0.7131
  700MOL0     C96527   8.053  11.491   8.908 -0.0074 -0.1148  1.7750
  700MOL0     C96528   8.883  11.274   9.221 -0.5210 -0.0938  0.6324
  700MOL0     C96529   9.007  11.211   9.203  0.0493 -0.5980 -0.1362
  700MOL0     C96530   9.044  11.093   9.295  0.2660  0.0856  0.2980
  700MOL0     H96531   9.310  11.182   8.698  0.3770 -0.0862 -0.2365
  700MOL0     H96532   9.524  11.137   8.588  3.2129 -0.8828  0.5110
  700MOL0     H96533   9.760  11.166   8.519  1.5715 -0.3317 -1.7849
  700MOL0     H96534   9.687  11.013   8.533 -1.3560  1.0630  0.8746
  700MOL0     H96535   9.976  11.111   8.527 -3.3863  2.1939  0.3219
  700MOL0     H96536   9.956  10.981   8.634 -0.1887  1.1930  1.1516
  700MOL0     H96537  10.011  10.875   8.432  2.7815  2.7346 -1.9637
  700MOL0     H96538   9.833  10.855   8.446 -0.8615  1.1895 -0.3860
  700MOL0     H96539   9.805  11.069   8.301 -0.5501 -1.5804 -0.8367
  700MOL0     H96540   9.982  11.091   8.298 -0.2135  0.9503  1.1396
  700MOL0     H96541   9.953  10.839   8.186  1.0854  0.2034  1.2191
  700MOL0     H96542   9.955  10.982   8.088  0.3320  0.1687  0.1100
  700MOL0     H96543   9.682  10.899   8.194 -1.5565 -0.9841 -1.3297
  700MOL0     H96544   9.727  11.001   8.059 -1.8139  0.5786  2.3700
  700MOL0     H96545   9.644  10.774   8.010 -0.3063 -0.3663  1.2679
  700MOL0     H96546   9.794  10.705   8.077 -1.1473 -0.9403 -0.5124
  700MOL0     H96547   9.912  10.806   7.878 -0.9207 -0.1106 -2.9464
  700MOL0     H96548   9.769  10.711   7.828  0.1522 -1.5170  1.2886
  700MOL0     H96549   9.568  10.852   7.745  1.7067 -1.3566  0.6290
  700MOL0     H96550   9.534  10.925   7.507  3.0421 -0.8711 -1.3793
  700MOL0     H96551   9.618  11.066   7.436  1.0099  0.5444  1.3967
  700MOL0     H96552   9.360  11.086   7.497  1.8641 -0.6907 -0.4775
  700MOL0     H96553   9.414  11.069   7.668  1.4661  1.1891  1.8661
  700MOL0     H96554   9.476  11.301   7.477  3.6951  1.1376  1.0874
  700MOL0     H96555   9.372  11.314   7.616 -1.6781 -1.9915  0.7982
  700MOL0     H96556   9.669  11.266   7.638  1.9384  0.3201  2.6355
  700MOL0     H96557   9.579  11.411   7.674 -0.1026 -0.0766 -2.2984
  700MOL0     H96558   9.591  11.280   8.069  0.6008 -2.2702  1.1773
  700MOL0     H96559   9.692  11.303   8.279  1.5372 -0.9354 -0.3594
  700MOL0     H96560   9.717  11.475   8.263  1.7253  0.0401  0.3171
  700MOL0     H96561   9.853  11.368   8.297  1.7152 -1.0894 -2.5310
  700MOL0     H96562  10.303  11.396   8.016 -0.6268  0.0373  0.7749
  700MOL0     H96563  10.524  11.447   8.140 -0.8136  0.3238  3.5400
  700MOL0     H96564  10.577  11.538   8.390  0.3770 -0.4905  2.4636
  700MOL0     H96565  10.689  11.505   8.249  0.8693  1.3578 -0.6611
  700MOL0     H96566  10.724  11.714   8.444  2.4801  3.6435 -2.0975
  700MOL0     H96567  10.797  11.544   8.433 -3.6317 -1.4034  0.3820
  700MOL0     H96568  10.808  11.770   8.229  0.6765  0.1410  0.2155
  700MOL0     H96569  10.890  11.616   8.213  2.4049  0.6291  0.9421
  700MOL0     H96570  10.965  11.788   8.450  0.8683 -1.8120  1.2414
  700MOL0     H96571  11.033  11.816   8.287  3.0309 -0.3279  0.7433
  700MOL0     H96572  11.032  11.549   8.434 -1.0975  1.6567  1.6088
  700MOL0     H96573  11.113  11.571   8.277  2.2730  0.6566  0.7769
  700MOL0     H96574  11.217  11.584   8.537 -0.0664  0.3107 -0.3166
  700MOL0     H96575  11.193  11.751   8.514 -1.6591  1.0242 -0.1213
  700MOL0     H96576  11.313  11.750   8.283 -1.0790 -1.3509 -1.2698
  700MOL0     H96577  11.335  11.578   8.295  1.4624 -0.3390  1.5001
  700MOL0     H96578  11.453  11.755   8.511 -2.1923  1.3964 -0.8750
  700MOL0     H96579  11.539  11.698   8.364 -1.4793 -3.2880 -3.0243
  700MOL0     H96580  10.388  11.846   8.185  0.7562 -1.8422  3.0968
  700MOL0     H96581  10.174  11.800   8.080  0.0349 -0.7332 -0.1536
  700MOL0     H96582   9.986  11.443   7.828 -1.0288 -1.2577 -0.8408
  700MOL0     H96583   9.825  11.354   7.719  0.8254 -1.9514  0.5488
  700MOL0     H96584   9.708  11.103   8.966 -0.9675 -2.7132 -0.1053
  700MOL0     H96585   9.489  11.141   9.080  2.1780 -1.7940  0.4112
  700MOL0     H96586   9.091  11.420   8.935 -2.1111  1.8544  0.5066
  700MOL0     H96587   8.904  11.525   8.994  0.1967  2.1826  4.0795
  700MOL0     H96588   8.670  11.584   9.062  0.7183  0.0915 -0.2437
  700MOL0     H96589   8.619  11.427   9.001 -0.0692  1.2772 -0.2885
  700MOL0     H96590   8.491  11.542   9.234  1.1599 -0.5952  0.5618
  700MOL0     H96591   8.461  11.379   9.169  0.0918 -0.6964 -1.3985
  700MOL0     H96592   8.398  11.628   9.010  0.2276 -0.8716 -0.6724
  700MOL0     H96593   8.400  11.462   8.953 -2.0011  0.6836 -0.7158
  700MOL0     H96594   8.216  11.562   9.172  3.0876  3.9462 -1.8626
  700MOL0     H96595   8.242  11.390   9.146 -3.1728  0.7248  0.5905
  700MOL0     H96596   7.989  11.470   8.825  1.5847 -1.4582  0.8216
  700MOL0     H96597   8.814  11.251   9.302 -4.1636  0.1902 -2.1398
  700MOL0     H96598   8.970  11.083   9.375  0.0477 -1.9322 -0.0999
  700MOL0     H96599   9.040  11.001   9.236 -0.0487  1.3623 -1.7794
  700MOL0     H96600   9.142  11.110   9.340  0.4398 -1.1604  0.4180
  701MOL0     O96601   2.886   1.439   7.478  0.1588 -0.0726  0.0125
  701MOL0     C96602   2.977   1.507   7.432  0.3412 -0.0382 -0.4452
  701MOL0     O96603   3.075   1.558   7.508 -0.4394  0.3244 -0.0515
  701MOL0     C96604   3.090   1.506   7.634  0.4737  0.3228 -0.0037
  701MOL0     C96605   3.172   1.387   7.650  0.3064 -0.3813 -0.0256
  701MOL0     C96606   3.179   1.349   7.781 -0.4261 -0.0440 -0.1627
  701MOL0     C96607   3.104   1.407   7.887 -0.2982 -0.8533 -0.0137
  701MOL0     O96608   3.103   1.354   8.014  0.4054  0.2074  0.6637
  701MOL0     C96609   3.208   1.268   8.062 -1.0058  0.0301  0.1151
  701MOL0     C96610   3.188   1.258   8.220 -0.6727 -0.2540  0.5064
  701MOL0     C96611   3.244   1.387   8.290  0.4346  0.1213 -0.0460
  701MOL0     C96612   3.196   1.400   8.428 -1.0105  0.1618 -0.7266
  701MOL0     C96613   3.307   1.468   8.515 -0.7821 -0.0608  0.2596
  701MOL0     C96614   3.274   1.438   8.668 -0.9848 -0.2294 -0.5993
  701MOL0     C96615   3.344   1.552   8.745  0.2526  0.4404 -0.1750
  701MOL0     C96616   3.488   1.530   8.760 -0.7579 -0.2137 -0.2039
  701MOL0     N96617   3.539   1.637   8.843 -0.1726 -0.5525 -0.7068
  701MOL0     C96618   3.519   1.652   8.975  0.0174 -0.0155  0.0311
  701MOL0     C96619   3.594   1.760   9.014 -0.2086 -0.8589 -0.1561
  701MOL0     C96620   3.605   1.798   9.157  0.5340 -0.8289  0.3337
  701MOL0     C96621   3.733   1.756   9.219  0.9336  0.5297 -0.3422
  701MOL0     C96622   3.748   1.823   9.354 -0.3385  0.0730  0.2741
  701MOL0     C96623   3.864   1.762   9.438 -0.2644 -0.9736  0.0169
  701MOL0     O96624   3.968   1.867   9.432  0.1342  0.2914 -0.1742
  701MOL0     C96625   4.091   1.816   9.469  1.2145  0.8754 -0.0557
  701MOL0     C96626   4.205   1.857   9.402  0.0350  0.3080  0.0725
  701MOL0     C96627   4.334   1.820   9.439 -0.7110 -0.6039  0.4406
  701MOL0     C96628   4.455   1.875   9.366  0.5027  0.2058  0.3500
  701MOL0     C96629   4.351   1.736   9.556 -0.0841 -0.6994  0.3217
  701MOL0     C96630   4.479   1.688   9.612  0.4173 -0.1755  0.8813
  701MOL0     O96631   4.508   1.697   9.742  0.6390 -0.6030 -0.7150
  701MOL0     C96632   4.632   1.650   9.779 -0.1481 -0.4273 -0.2988
  701MOL0     C96633   4.657   1.511   9.817  0.9094 -0.3824  0.4695
  701MOL0     C96634   4.789   1.479   9.857  0.7344  0.4272 -0.7852
  701MOL0     C96635   4.888   1.572   9.846  0.0512 -0.1747 -0.0822
  701MOL0     O96636   5.007   1.528   9.894 -0.3777 -0.1745 -0.2168
  701MOL0     C96637   5.119   1.610   9.879 -0.4250 -0.9096 -0.1288
  701MOL0     C96638   5.239   1.551   9.964  0.6759 -0.9030  0.0225
  701MOL0     C96639   5.197   1.505  10.104  0.5550 -0.3393 -0.0561
  701MOL0     C96640   5.321   1.487  10.197  0.7264 -0.0098 -0.1669
  701MOL0     C96641   5.347   1.625  10.268 -0.4468 -0.6974 -0.1644
  701MOL0     C96642   5.348   1.610  10.420  0.7468  0.0972  0.1194
  701MOL0     C96643   5.428   1.708  10.505 -0.6736 -0.9192  0.0328
  701MOL0     C96644   5.378   1.848  10.515  0.3030 -0.2663  0.1131
  701MOL0    Cl96645   5.509   1.956  10.560  0.2311 -0.3964  0.2027
  701MOL0     C96646   4.865   1.708   9.804 -0.3406  0.5872 -0.7357
  701MOL0     C96647   4.741   1.737   9.776  1.0318  0.3698 -0.1443
  701MOL0     O96648   4.550   1.635   9.525 -0.6002  0.1961 -0.4536
  701MOL0     C96649   4.234   1.710   9.633 -0.4668 -0.4601  0.2134
  701MOL0     C96650   4.110   1.747   9.588  0.2027  0.0186  0.4622
  701MOL0     N96651   3.658   1.816   8.905 -0.0167  0.4133  0.2505
  701MOL0     N96652   3.619   1.745   8.803 -0.3466  0.2436 -0.7329
  701MOL0     C96653   3.037   1.526   7.870  0.0633  0.5199  0.9026
  701MOL0     C96654   3.029   1.576   7.740  0.4545  0.1324 -0.0369
  701MOL0     C96655   2.985   1.534   7.297 -0.2735  0.2781 -0.1485
  701MOL0     C96656   3.111   1.575   7.237 -0.1478 -0.9449 -0.9564
  701MOL0     C96657   3.132   1.585   7.091 -0.3267  1.0046  0.0054
  701MOL0     C96658   3.033   1.537   7.015 -0.2093 -0.3101 -0.1528
  701MOL0     O96659   3.056   1.540   6.880  0.0372 -0.7004 -0.3289
  701MOL0     C96660   3.037   1.418   6.806  0.5585 -0.2901  0.1782
  701MOL0     C96661   3.173   1.359   6.752  1.1060  0.0502 -0.6503
  701MOL0     C96662   3.248   1.281   6.855  0.9240  0.0979  0.6368
  701MOL0     C96663   3.376   1.216   6.803  0.0244  0.3486  0.5364
  701MOL0     C96664   3.430   1.140   6.911 -0.0678  0.1456  0.3636
  701MOL0     C96665   3.484   1.069   6.992 -0.4962 -0.4921 -0.0389
  701MOL0     C96666   2.904   1.506   7.066 -0.1030  0.1131  0.9249
  701MOL0     C96667   2.873   1.512   7.207  0.0515 -0.2288 -0.2896
  701MOL0     C96668   2.725   1.513   7.240  0.4673 -0.0473  0.5576
  701MOL0     H96669   3.219   1.332   7.569  0.0720  0.1972 -0.5672
  701MOL0     H96670   3.233   1.258   7.805 -3.7723 -2.1246  0.2403
  701MOL0     H96671   3.309   1.301   8.040 -1.3744  0.0235 -1.7387
  701MOL0     H96672   3.201   1.164   8.029  1.0017  0.1179 -0.7041
  701MOL0     H96673   3.085   1.236   8.248 -0.7047 -0.6358  0.1136
  701MOL0     H96674   3.252   1.174   8.251  0.0412 -0.3721 -1.1820
  701MOL0     H96675   3.353   1.380   8.281  0.9010  0.3275  3.8910
  701MOL0     H96676   3.220   1.477   8.232 -2.9415  0.0085  0.9688
  701MOL0     H96677   3.099   1.451   8.436 -0.3542  1.1716  1.6915
  701MOL0     H96678   3.171   1.300   8.464 -3.7637  0.4130 -1.7274
  701MOL0     H96679   3.286   1.575   8.499 -3.1992 -0.6975 -1.5430
  701MOL0     H96680   3.407   1.441   8.481 -1.2200 -2.2189  0.5851
  701MOL0     H96681   3.168   1.421   8.688 -1.0700  1.5601  0.7402
  701MOL0     H96682   3.319   1.340   8.686 -2.3278 -0.5470  1.3197
  701MOL0     H96683   3.304   1.558   8.847 -1.1824  1.6614 -0.7703
  701MOL0     H96684   3.320   1.650   8.703  1.5463  0.3548 -1.1619
  701MOL0     H96685   3.509   1.430   8.799  0.6091  0.3972  0.7396
  701MOL0     H96686   3.521   1.539   8.657 -1.8744 -1.6695 -0.7206
  701MOL0     H96687   3.458   1.583   9.032 -0.5151  2.8676  3.2721
  701MOL0     H96688   3.524   1.741   9.203  0.9080 -2.6738 -1.1702
  701MOL0     H96689   3.590   1.905   9.171  2.5349 -0.1942 -1.7019
  701MOL0     H96690   3.731   1.647   9.231  0.1290  0.3926 -1.5259
  701MOL0     H96691   3.828   1.775   9.169  3.4150 -0.9982  3.3800
  701MOL0     H96692   3.765   1.930   9.336  3.1615 -0.9516 -4.1392
  701MOL0     H96693   3.659   1.806   9.416  0.8937 -2.9227  1.3871
  701MOL0     H96694   3.832   1.737   9.539 -0.8740  0.7409  0.2841
  701MOL0     H96695   3.906   1.675   9.386  0.3154 -1.9934  2.1019
  701MOL0     H96696   4.196   1.920   9.313  1.0087  0.3772  0.0103
  701MOL0     H96697   4.434   1.982   9.368  0.2964  0.1702  0.0966
  701MOL0     H96698   4.462   1.847   9.261 -0.9263  2.3464 -0.3928
  701MOL0     H96699   4.550   1.856   9.419 -0.8532 -2.6699  2.0150
  701MOL0     H96700   4.573   1.443   9.824  2.1464 -1.8725  1.9501
  701MOL0     H96701   4.801   1.383   9.906 -1.4042  0.9095  0.8167
  701MOL0     H96702   5.152   1.622   9.776 -2.3883  0.1548 -0.6766
  701MOL0     H96703   5.101   1.712   9.914  1.8326 -0.1428 -1.0343
  701MOL0     H96704   5.271   1.458   9.917 -0.6175 -1.2562 -0.2055
  701MOL0     H96705   5.324   1.619   9.971  0.5400 -0.6107 -0.9516
  701MOL0     H96706   5.136   1.415  10.097 -1.2140  0.7635  0.2854
  701MOL0     H96707   5.127   1.585  10.134 -0.4826 -1.0833 -0.4402
  701MOL0     H96708   5.412   1.451  10.148 -0.5083 -2.8458 -0.6395
  701MOL0     H96709   5.294   1.404  10.262 -0.0004 -1.1886 -1.8749
  701MOL0     H96710   5.452   1.644  10.243 -0.3812 -0.7165  0.0871
  701MOL0     H96711   5.289   1.708  10.227 -1.5070 -0.3039  1.9983
  701MOL0     H96712   5.388   1.511  10.446  0.2801  0.2227  1.4128
  701MOL0     H96713   5.248   1.608  10.465  1.0955 -2.1978  0.9289
  701MOL0     H96714   5.528   1.716  10.461 -0.6248 -0.1263  0.2805
  701MOL0     H96715   5.447   1.682  10.610  2.1082 -0.5097 -0.2729
  701MOL0     H96716   5.311   1.856  10.601 -0.4262 -1.0834 -0.3658
  701MOL0     H96717   5.337   1.889  10.422  1.4894  0.8257  0.0472
  701MOL0     H96718   4.932   1.793   9.801 -0.9533  1.0933 -4.0520
  701MOL0     H96719   4.717   1.840   9.750  0.4980  0.1045 -0.7036
  701MOL0     H96720   4.236   1.664   9.731  0.1493 -0.1698  0.3402
  701MOL0     H96721   4.025   1.722   9.650 -0.3823  0.9054  0.0296
  701MOL0     H96722   3.009   1.575   7.963 -0.9517 -0.4922  1.1469
  701MOL0     H96723   2.985   1.674   7.725 -0.7820 -0.3266  0.4527
  701MOL0     H96724   3.197   1.587   7.301 -1.0324  2.2443 -0.1881
  701MOL0     H96725   3.227   1.622   7.052  0.4042 -1.6708 -1.0119
  701MOL0     H96726   2.982   1.344   6.864  0.6036  0.4457  1.1713
  701MOL0     H96727   2.977   1.443   6.717 -1.0900 -1.6183  0.8474
  701MOL0     H96728   3.237   1.434   6.705  0.4816  0.3477 -1.0373
  701MOL0     H96729   3.153   1.276   6.683 -0.8590 -1.6924  1.7980
  701MOL0     H96730   3.258   1.347   6.942 -1.3529  0.8292  0.4153
  701MOL0     H96731   3.182   1.202   6.892  1.1873  0.0636  1.0414
  701MOL0     H96732   3.447   1.290   6.766 -0.9956  1.8258  1.4401
  701MOL0     H96733   3.355   1.156   6.715  2.8982 -0.3664  0.2405
  701MOL0     H96734   3.546   1.023   7.066 -1.4755  1.4380  2.1000
  701MOL0     H96735   2.824   1.485   6.995  0.8348  1.1348 -0.5047
  701MOL0     H96736   2.704   1.431   7.310 -1.8604  1.2760  1.5188
  701MOL0     H96737   2.701   1.608   7.288 -0.7358 -0.1857  0.2498
  701MOL0     H96738   2.656   1.506   7.156  1.7280 -0.2306 -0.4852
  702MOL0     O96739  10.687   8.334   6.652 -0.0014 -0.2915  0.3028
  702MOL0     C96740  10.710   8.311   6.769  0.3739  0.1714 -0.5652
  702MOL0     O96741  10.820   8.354   6.831 -0.4925 -0.3099  0.3329
  702MOL0     C96742  10.910   8.444   6.778 -0.3832  0.8337 -0.1786
  702MOL0     C96743  11.002   8.407   6.679 -0.5319 -0.2072 -0.8237
  702MOL0     C96744  11.101   8.487   6.627 -0.4057 -0.2079  0.9610
  702MOL0     C96745  11.103   8.630   6.674 -0.2930  0.8090 -0.9227
  702MOL0     O96746  11.174   8.735   6.634  0.1456  0.1855 -0.1920
  702MOL0     C96747  11.271   8.718   6.531 -0.7556 -0.6395  0.0274
  702MOL0     C96748  11.365   8.839   6.531 -0.0053 -0.0733  0.1669
  702MOL0     C96749  11.512   8.794   6.524  0.1962 -0.4865 -0.1446
  702MOL0     C96750  11.567   8.745   6.396  0.3004 -0.7074  0.2996
  702MOL0     C96751  11.723   8.751   6.398 -0.0675  0.2994 -0.1599
  702MOL0     C96752  11.793   8.624   6.467 -0.2221  0.5287 -0.9026
  702MOL0     C96753  11.945   8.645   6.496 -0.0374 -0.2152  0.1340
  702MOL0     C96754  12.018   8.514   6.520 -0.1338 -0.9863 -0.3996
  702MOL0     N96755  12.168   8.526   6.500  0.2152 -0.4209  0.5557
  702MOL0     C96756  12.225   8.499   6.372 -0.1816 -0.5790  0.1410
  702MOL0     C96757  12.359   8.503   6.397  0.9710  0.0367  0.2500
  702MOL0     C96758  12.479   8.463   6.308 -0.7359 -0.6277  0.2421
  702MOL0     C96759  12.611   8.490   6.373 -0.0732  0.4529 -0.0006
  702MOL0     C96760  12.737   8.490   6.289 -0.3837 -0.0020  0.1850
  702MOL0     C96761  12.861   8.481   6.381 -0.3917 -0.1069  0.3227
  702MOL0     O96762  12.878   8.607   6.448 -0.0069 -0.6063 -0.7038
  702MOL0     C96763  12.984   8.628   6.532 -0.8658  0.3079  0.3787
  702MOL0     C96764  13.007   8.755   6.576 -0.1477  0.0185 -0.4242
  702MOL0     C96765  13.113   8.795   6.657 -0.0971  0.3107  0.2481
  702MOL0     C96766  13.132   8.936   6.693 -0.4504 -0.0395  0.3718
  702MOL0     C96767  13.201   8.694   6.689 -1.2666 -0.3953  0.4368
  702MOL0     C96768  13.328   8.714   6.774 -0.1288 -0.4631  0.3063
  702MOL0     O96769  13.383   8.609   6.821 -0.2358  0.1799  0.1216
  702MOL0     C96770  13.503   8.617   6.890 -0.3530 -0.1416 -0.2426
  702MOL0     C96771  13.603   8.520   6.844  0.0051 -0.6157 -0.2733
  702MOL0     C96772  13.707   8.481   6.919 -0.3510 -0.0256 -0.6759
  702MOL0     C96773  13.725   8.549   7.037  0.6215  0.2370  0.4009
  702MOL0     O96774  13.836   8.531   7.109 -0.0776  0.0434  0.0872
  702MOL0     C96775  13.909   8.405   7.104  0.1893  1.4446 -0.1930
  702MOL0     C96776  14.004   8.394   7.217 -0.2084 -0.2713 -0.3680
  702MOL0     C96777  13.936   8.365   7.353  0.2804  0.2129 -0.4521
  702MOL0     C96778  14.037   8.316   7.454  0.0134  0.3622 -0.3042
  702MOL0     C96779  14.106   8.421   7.540 -0.0021 -0.2535  0.3641
  702MOL0     C96780  14.160   8.552   7.465  0.0643  0.5833 -0.8361
  702MOL0     C96781  14.189   8.677   7.558  0.6788  0.3884 -0.2193
  702MOL0     C96782  14.333   8.689   7.613 -0.0322 -0.0292  0.1992
  702MOL0    Cl96783  14.340   8.585   7.754  0.2238  0.3432  0.2189
  702MOL0     C96784  13.652   8.667   7.077  0.4174 -0.1144  0.3286
  702MOL0     C96785  13.532   8.698   7.002  0.0195  0.1786 -0.0911
  702MOL0     O96786  13.378   8.828   6.783 -0.4130  0.2871 -0.0957
  702MOL0     C96787  13.179   8.563   6.651 -0.3877 -1.2777 -0.1435
  702MOL0     C96788  13.075   8.529   6.575 -0.1469 -0.6254  0.4921
  702MOL0     N96789  12.371   8.534   6.534 -0.1563  0.0183  0.7512
  702MOL0     N96790  12.256   8.548   6.592  0.0080 -0.7283 -0.5194
  702MOL0     C96791  11.012   8.660   6.778  0.3286  0.3558  0.8090
  702MOL0     C96792  10.911   8.574   6.825 -0.6573 -0.2157  0.9998
  702MOL0     C96793  10.607   8.239   6.842  0.6185  1.1268 -0.0891
  702MOL0     C96794  10.647   8.202   6.971 -0.6095  0.4838  0.0118
  702MOL0     C96795  10.563   8.147   7.067  0.5491 -0.2755 -0.0346
  702MOL0     C96796  10.433   8.109   7.029 -0.1996 -0.0464 -0.1527
  702MOL0     O96797  10.346   8.040   7.112  0.3020 -0.0804  0.5043
  702MOL0     C96798  10.367   8.057   7.253  0.2298 -0.4423  0.0471
  702MOL0     C96799  10.251   7.988   7.329  0.6467 -0.0483 -0.2441
  702MOL0     C96800  10.119   8.067   7.302 -0.6120 -0.4584 -0.0844
  702MOL0     C96801  10.009   7.988   7.368 -0.6087  0.1535  0.1587
  702MOL0     C96802   9.871   8.007   7.311 -0.0319 -0.4804  0.2462
  702MOL0     C96803   9.758   8.032   7.275  0.3220 -0.3315  1.1489
  702MOL0     C96804  10.397   8.120   6.895 -0.3173  0.2093 -0.3975
  702MOL0     C96805  10.477   8.192   6.805 -0.1897 -0.9068  0.1802
  702MOL0     C96806  10.427   8.211   6.668  0.1020 -0.0802  0.8432
  702MOL0     H96807  10.994   8.309   6.635 -3.4392  0.5381 -2.2161
  702MOL0     H96808  11.166   8.445   6.551  0.5050 -0.2357  1.7257
  702MOL0     H96809  11.221   8.717   6.434  1.3036  1.1879 -1.1303
  702MOL0     H96810  11.327   8.624   6.542  0.8823  0.4645  1.7924
  702MOL0     H96811  11.330   8.911   6.456 -1.9918 -0.1715  0.9496
  702MOL0     H96812  11.350   8.895   6.623  1.8702  0.2964  0.2883
  702MOL0     H96813  11.569   8.882   6.557 -0.1184  0.2436 -1.4707
  702MOL0     H96814  11.531   8.709   6.591  3.7743  1.1004  1.1108
  702MOL0     H96815  11.531   8.645   6.372  2.0011 -1.0045 -1.1663
  702MOL0     H96816  11.533   8.817   6.321 -4.6752 -0.5536  2.3436
  702MOL0     H96817  11.747   8.839   6.459 -2.1123 -1.7032  3.9057
  702MOL0     H96818  11.766   8.763   6.298 -1.7959  1.5240 -0.8019
  702MOL0     H96819  11.743   8.613   6.563 -0.0555  2.4762 -0.5445
  702MOL0     H96820  11.775   8.536   6.406  0.1558 -1.6587  1.9574
  702MOL0     H96821  11.960   8.715   6.578 -0.3135 -0.8049  0.6929
  702MOL0     H96822  11.987   8.680   6.401  2.4671 -1.5806  0.6716
  702MOL0     H96823  11.998   8.470   6.618  2.9663  2.1860  1.9295
  702MOL0     H96824  11.985   8.449   6.438  1.8190 -0.0934 -1.9781
  702MOL0     H96825  12.179   8.479   6.275  1.5495  0.6382 -0.9784
  702MOL0     H96826  12.465   8.521   6.216  0.2312 -1.5465 -0.5050
  702MOL0     H96827  12.467   8.361   6.269 -0.1625 -0.0816 -1.4649
  702MOL0     H96828  12.616   8.585   6.427 -0.3344  1.0423 -0.9986
  702MOL0     H96829  12.612   8.408   6.446 -2.2908 -0.0565 -0.4812
  702MOL0     H96830  12.729   8.401   6.225 -0.3303 -0.0704  0.2717
  702MOL0     H96831  12.735   8.572   6.216  2.3804 -3.2148 -4.0179
  702MOL0     H96832  12.847   8.394   6.447  1.2581 -1.4485 -1.0111
  702MOL0     H96833  12.945   8.447   6.320 -1.0931 -1.4901  0.0719
  702MOL0     H96834  12.934   8.831   6.552 -2.2036 -0.4308  3.4767
  702MOL0     H96835  13.221   8.981   6.648 -1.6182  1.6903 -0.3151
  702MOL0     H96836  13.141   8.938   6.802 -1.6725 -1.3135  0.5239
  702MOL0     H96837  13.042   8.988   6.659 -0.0554  0.9809  0.8624
  702MOL0     H96838  13.576   8.466   6.754  2.8791 -1.6784 -0.5740
  702MOL0     H96839  13.767   8.395   6.892  2.0908  1.3830 -0.0087
  702MOL0     H96840  13.850   8.312   7.104  0.7363  1.0599 -1.9226
  702MOL0     H96841  13.967   8.396   7.012  0.1903  1.2978 -0.1787
  702MOL0     H96842  14.069   8.310   7.192 -0.6644 -0.3881 -1.1674
  702MOL0     H96843  14.076   8.477   7.224  2.5694 -2.5142 -0.1410
  702MOL0     H96844  13.856   8.292   7.339 -1.1607  1.0744  2.4557
  702MOL0     H96845  13.895   8.462   7.383 -0.2977  0.2958 -1.4664
  702MOL0     H96846  14.120   8.252   7.420  1.2636  0.9830  1.4268
  702MOL0     H96847  13.984   8.246   7.519 -0.6011  2.1721  1.2388
  702MOL0     H96848  14.029   8.456   7.610  0.0120  0.5118  0.0110
  702MOL0     H96849  14.183   8.366   7.595 -1.2850 -2.6087 -0.0597
  702MOL0     H96850  14.078   8.594   7.406 -2.4268  0.1802  2.0933
  702MOL0     H96851  14.250   8.534   7.406  1.2771  1.9909  0.4818
  702MOL0     H96852  14.123   8.678   7.645  0.2785  2.7363 -0.4760
  702MOL0     H96853  14.163   8.766   7.499 -2.1464 -1.8339 -2.6724
  702MOL0     H96854  14.349   8.795   7.638  3.8507 -0.1342 -1.2563
  702MOL0     H96855  14.405   8.662   7.535  1.4857 -0.0735  1.5707
  702MOL0     H96856  13.676   8.722   7.166 -2.4069  2.8861 -0.5572
  702MOL0     H96857  13.470   8.782   7.033  0.4102  1.2562 -2.0483
  702MOL0     H96858  13.236   8.484   6.699 -0.4003 -1.0477  0.2563
  702MOL0     H96859  13.063   8.424   6.549  0.3329 -0.5657  0.0067
  702MOL0     H96860  11.016   8.759   6.823 -3.1124  1.3798 -0.7510
  702MOL0     H96861  10.836   8.612   6.894 -1.2415  3.8298 -1.5148
  702MOL0     H96862  10.746   8.241   6.994 -0.5036  1.7458 -2.2628
  702MOL0     H96863  10.587   8.148   7.173 -0.1362 -0.3629  0.1290
  702MOL0     H96864  10.464   8.016   7.285  2.1311  1.7132 -2.5067
  702MOL0     H96865  10.377   8.163   7.278  0.0698 -0.1875 -0.9290
  702MOL0     H96866  10.268   7.990   7.437 -0.4034 -0.3142 -0.0641
  702MOL0     H96867  10.249   7.882   7.301 -0.0556 -0.1973  0.3459
  702MOL0     H96868  10.128   8.169   7.341  2.1222 -0.3986 -0.6726
  702MOL0     H96869  10.107   8.089   7.195  3.4427 -1.2397 -0.8516
  702MOL0     H96870  10.017   8.010   7.474 -0.5495 -0.0869  0.2046
  702MOL0     H96871  10.021   7.880   7.351  0.3724  0.4533 -1.2300
  702MOL0     H96872   9.655   8.033   7.244  0.6542 -2.1463 -0.1178
  702MOL0     H96873  10.293   8.105   6.871  0.2082 -1.2126 -1.9114
  702MOL0     H96874  10.330   8.163   6.653  0.7525 -1.0607 -0.3466
  702MOL0     H96875  10.411   8.318   6.651 -0.1008 -0.5268 -2.2218
  702MOL0     H96876  10.493   8.176   6.589 -0.6998  3.6448 -1.7515
  703MOL0     O96877   5.142   3.890   2.705  0.1884  0.4614  0.1494
  703MOL0     C96878   5.210   3.852   2.795 -0.7172  0.2134 -0.2598
  703MOL0     O96879   5.338   3.843   2.800  0.2661  0.0935 -0.3168
  703MOL0     C96880   5.398   3.818   2.923 -0.0398 -1.1417  0.6432
  703MOL0     C96881   5.443   3.924   2.997 -0.1732  0.2844  0.4487
  703MOL0     C96882   5.489   3.900   3.127  0.3583 -0.2239  0.3849
  703MOL0     C96883   5.504   3.765   3.179 -0.1066  0.5111  0.1021
  703MOL0     O96884   5.555   3.730   3.305 -0.6306 -0.3602 -0.8006
  703MOL0     C96885   5.601   3.833   3.402  0.9026  0.3153  0.8065
  703MOL0     C96886   5.646   3.770   3.525 -0.4112  0.5472 -0.3036
  703MOL0     C96887   5.776   3.704   3.506  0.9696 -0.7611 -1.0954
  703MOL0     C96888   5.799   3.585   3.598  0.0154 -0.0851 -1.0960
  703MOL0     C96889   5.936   3.517   3.582  0.1963  0.0473 -0.0778
  703MOL0     C96890   5.926   3.365   3.610  0.5509  0.1595  0.1158
  703MOL0     C96891   6.050   3.292   3.590  0.4688  0.9366  1.1261
  703MOL0     C96892   6.058   3.150   3.661  0.3308  0.3126  0.3368
  703MOL0     N96893   6.188   3.081   3.667  0.0827 -0.1918 -0.0189
  703MOL0     C96894   6.309   3.102   3.613 -1.1939  0.2434 -0.1507
  703MOL0     C96895   6.386   2.994   3.649 -0.5315 -0.0820 -0.0681
  703MOL0     C96896   6.527   2.969   3.612 -0.4686 -0.0072 -0.2485
  703MOL0     C96897   6.619   3.059   3.694 -0.0394  0.5635  0.9375
  703MOL0     C96898   6.764   3.026   3.676  0.1882  0.0456  0.5601
  703MOL0     C96899   6.822   3.017   3.535  0.2574 -0.0655  0.8385
  703MOL0     O96900   6.818   3.148   3.473 -0.5893 -1.1776 -0.3571
  703MOL0     C96901   6.942   3.212   3.447  0.2004 -0.0936 -0.1228
  703MOL0     C96902   7.020   3.272   3.549 -0.5629 -0.7376 -0.8268
  703MOL0     C96903   7.150   3.331   3.533  0.4826 -0.7009  0.0018
  703MOL0     C96904   7.208   3.422   3.650 -0.0998  0.6015  0.0682
  703MOL0     C96905   7.206   3.314   3.398 -0.0146 -0.0445  0.9090
  703MOL0     C96906   7.337   3.362   3.352 -0.4928  0.6078  0.9662
  703MOL0     O96907   7.386   3.309   3.241 -0.4711 -1.0327  0.4681
  703MOL0     C96908   7.485   3.372   3.167  0.6934  0.7423  0.6058
  703MOL0     C96909   7.515   3.509   3.164  0.1678 -0.4912 -0.2754
  703MOL0     C96910   7.620   3.556   3.078 -0.0730 -0.4881  0.0489
  703MOL0     C96911   7.684   3.470   3.000  0.3235  0.2277  0.1790
  703MOL0     O96912   7.801   3.514   2.940  0.5673 -0.5297 -0.2511
  703MOL0     C96913   7.886   3.424   2.866  0.4710 -0.3491  0.4485
  703MOL0     C96914   8.001   3.515   2.816 -0.0101 -0.2382  0.7740
  703MOL0     C96915   8.078   3.583   2.931  0.4101 -0.1967  0.7286
  703MOL0     C96916   8.206   3.651   2.888  0.1583 -0.0835  0.5277
  703MOL0     C96917   8.318   3.549   2.871 -0.2000  0.0050 -0.5152
  703MOL0     C96918   8.434   3.606   2.813 -0.3669  0.1768 -0.4889
  703MOL0     C96919   8.545   3.507   2.798 -0.4151  0.2123  0.0016
  703MOL0     C96920   8.676   3.565   2.735  0.7605  0.1589 -0.0989
  703MOL0    Cl96921   8.768   3.671   2.838  0.2550  0.2880  0.1791
  703MOL0     C96922   7.645   3.334   2.987 -0.6622 -0.5972 -0.7933
  703MOL0     C96923   7.542   3.287   3.067  0.0207  0.1989 -0.5102
  703MOL0     O96924   7.384   3.444   3.419  0.1825 -0.4854 -1.0078
  703MOL0     C96925   7.125   3.257   3.294  1.1450 -0.0812  0.3915
  703MOL0     C96926   6.999   3.207   3.319 -0.0351  0.5398  1.2297
  703MOL0     N96927   6.312   2.932   3.752  0.5993  0.0644 -0.6995
  703MOL0     N96928   6.194   2.983   3.755 -0.4183  0.3205 -0.9060
  703MOL0     C96929   5.462   3.660   3.098  0.5797  0.3058 -0.6766
  703MOL0     C96930   5.405   3.686   2.972  0.0868 -0.4320  0.2835
  703MOL0     C96931   5.116   3.808   2.915  0.4245 -0.4884  0.3209
  703MOL0     C96932   5.096   3.672   2.950  0.2282  0.0691  0.5589
  703MOL0     C96933   5.005   3.632   3.048  0.4065  0.6771  0.0149
  703MOL0     C96934   4.921   3.728   3.118 -1.3160  0.6113 -0.4195
  703MOL0     O96935   4.830   3.696   3.219  0.7032 -0.2279  0.6908
  703MOL0     C96936   4.809   3.553   3.251 -1.0258  0.5591 -0.2783
  703MOL0     C96937   4.713   3.555   3.376 -1.4753  0.9177  0.5429
  703MOL0     C96938   4.679   3.408   3.412  0.2955  0.6305  0.9438
  703MOL0     C96939   4.795   3.329   3.474 -0.6388  0.5702  0.0707
  703MOL0     C96940   4.829   3.393   3.608  0.4704 -0.9825 -0.1082
  703MOL0     C96941   4.874   3.454   3.700 -0.3623 -0.2815  0.0403
  703MOL0     C96942   4.942   3.863   3.078 -0.3166  0.3188  1.5134
  703MOL0     C96943   5.040   3.904   2.986 -0.7183  0.1813 -0.0008
  703MOL0     C96944   5.067   4.054   2.958  0.9157  0.7781  0.1220
  703MOL0     H96945   5.430   4.027   2.965 -1.8944  0.0228  0.2297
  703MOL0     H96946   5.517   3.987   3.187  2.1118 -0.1026 -0.5450
  703MOL0     H96947   5.504   3.878   3.426 -0.1935 -1.5202  0.0365
  703MOL0     H96948   5.683   3.892   3.361  0.4568  0.1069 -0.4180
  703MOL0     H96949   5.654   3.844   3.605  5.2908 -3.4191  3.6291
  703MOL0     H96950   5.578   3.689   3.553  1.0298 -0.0202  1.7853
  703MOL0     H96951   5.792   3.672   3.403 -0.0128  0.3270 -1.6085
  703MOL0     H96952   5.851   3.781   3.525 -0.3266  0.0440  1.0522
  703MOL0     H96953   5.796   3.615   3.703  3.8360  1.8234 -1.3620
  703MOL0     H96954   5.713   3.519   3.582 -1.7017  1.9231 -0.5583
  703MOL0     H96955   6.010   3.563   3.647  1.9108 -3.5854  0.7801
  703MOL0     H96956   5.965   3.532   3.477 -1.6116  1.7335 -0.3999
  703MOL0     H96957   5.897   3.367   3.716  1.3056  1.8703  0.3291
  703MOL0     H96958   5.850   3.324   3.544  1.7136  1.0400 -1.8514
  703MOL0     H96959   6.131   3.353   3.628  1.6408  0.5386 -0.5939
  703MOL0     H96960   6.067   3.294   3.482 -2.0947  1.5817  0.6672
  703MOL0     H96961   6.009   3.162   3.759 -2.9937  0.6962 -1.2511
  703MOL0     H96962   5.993   3.077   3.613  1.2491 -0.6750  0.5423
  703MOL0     H96963   6.331   3.184   3.545  2.9980 -1.2290 -0.9051
  703MOL0     H96964   6.536   2.974   3.503  0.1502  1.2611 -0.1623
  703MOL0     H96965   6.551   2.863   3.627 -1.3927 -0.4958 -2.0072
  703MOL0     H96966   6.607   3.165   3.672  2.9997  1.1709  1.7448
  703MOL0     H96967   6.591   3.037   3.798  1.0694 -0.8867  0.9662
  703MOL0     H96968   6.815   3.111   3.722 -0.2156  1.1528 -0.9552
  703MOL0     H96969   6.806   2.939   3.729  2.2144  1.9803  2.3220
  703MOL0     H96970   6.924   2.979   3.535  0.3794  0.2567  0.8273
  703MOL0     H96971   6.763   2.951   3.470  1.0818  0.1526 -0.1652
  703MOL0     H96972   6.973   3.280   3.647 -0.1355  0.4012 -0.7074
  703MOL0     H96973   7.241   3.519   3.612  1.9422  0.0129  0.2203
  703MOL0     H96974   7.296   3.376   3.696  0.3863  1.9612  0.5532
  703MOL0     H96975   7.129   3.433   3.725 -1.4225  2.3161 -1.4775
  703MOL0     H96976   7.466   3.581   3.228  0.7533 -3.2037  3.5500
  703MOL0     H96977   7.655   3.657   3.092  1.8935 -1.4020  2.2756
  703MOL0     H96978   7.931   3.344   2.925  0.0967 -0.1690  0.9875
  703MOL0     H96979   7.837   3.394   2.772 -0.3084  1.8692  0.0841
  703MOL0     H96980   8.057   3.455   2.744 -0.8812  1.7120 -1.7136
  703MOL0     H96981   7.953   3.590   2.751 -0.4851 -1.1333  0.0767
  703MOL0     H96982   8.099   3.508   3.008 -2.8835  0.5334  2.4900
  703MOL0     H96983   8.017   3.657   2.983  0.1945  0.3339 -0.2675
  703MOL0     H96984   8.229   3.719   2.971 -0.5089 -0.9951  1.4951
  703MOL0     H96985   8.190   3.711   2.798  1.1903 -0.7423 -0.1100
  703MOL0     H96986   8.338   3.515   2.973  0.5649 -0.2226 -0.7336
  703MOL0     H96987   8.279   3.466   2.811 -1.9112  0.1852  0.2880
  703MOL0     H96988   8.471   3.690   2.873  1.3049  0.1396 -1.4114
  703MOL0     H96989   8.407   3.635   2.711 -0.5561 -1.0782 -0.8115
  703MOL0     H96990   8.515   3.421   2.738 -0.9186 -1.1874  2.1414
  703MOL0     H96991   8.573   3.471   2.898  1.9124 -0.8615 -0.9534
  703MOL0     H96992   8.636   3.618   2.647  2.5171  0.9085 -0.4782
  703MOL0     H96993   8.744   3.485   2.707 -0.4566 -1.8196  2.2495
  703MOL0     H96994   7.683   3.268   2.910 -1.2126 -1.3328 -0.4389
  703MOL0     H96995   7.501   3.187   3.059 -0.2592  0.2355  0.3729
  703MOL0     H96996   7.164   3.247   3.193  0.2086 -0.8344  0.0910
  703MOL0     H96997   6.944   3.151   3.244  1.2545  1.7896 -0.7398
  703MOL0     H96998   5.465   3.558   3.133 -1.9075  0.4659  0.2146
  703MOL0     H96999   5.360   3.607   2.912 -0.9877 -2.2233  3.2348
  703MOL0     H97000   5.155   3.589   2.912  2.0677  0.3652  2.5511
  703MOL0     H97001   4.991   3.525   3.063  2.1475  0.6327  1.7104
  703MOL0     H97002   4.759   3.494   3.174  1.4857 -1.9642 -0.1279
  703MOL0     H97003   4.906   3.505   3.268  0.3735  3.1277 -0.4316
  703MOL0     H97004   4.621   3.608   3.349 -1.1496  1.5287  0.6234
  703MOL0     H97005   4.750   3.601   3.468 -1.9909 -2.3156  2.5333
  703MOL0     H97006   4.603   3.414   3.491  1.4546  0.7155  2.1009
  703MOL0     H97007   4.634   3.348   3.332 -0.0073  2.9193 -0.6997
  703MOL0     H97008   4.882   3.335   3.409 -0.7393 -1.2068 -0.2570
  703MOL0     H97009   4.765   3.225   3.489 -1.3181  0.8896  1.1020
  703MOL0     H97010   4.923   3.508   3.779  0.4240  0.7507 -1.1195
  703MOL0     H97011   4.880   3.936   3.130 -1.0515  1.0927 -0.3781
  703MOL0     H97012   4.999   4.083   2.878 -1.3581  1.1531  2.0899
  703MOL0     H97013   5.041   4.115   3.045 -0.5954  0.0549  0.2025
  703MOL0     H97014   5.167   4.076   2.920  0.5411  1.8138 -0.2902
  704MOL0     O97015   1.656   2.557   6.895  0.2810 -0.1708  0.2202
  704MOL0     C97016   1.574   2.581   6.805  0.6959 -0.0170  0.5674
  704MOL0     O97017   1.594   2.677   6.699  0.2989  0.9076 -0.3099
  704MOL0     C97018   1.720   2.737   6.702  0.0958 -0.3093 -0.8451
  704MOL0     C97019   1.815   2.715   6.601  0.4829  0.0482 -1.0389
  704MOL0     C97020   1.943   2.779   6.602 -0.3941 -0.0847 -0.1519
  704MOL0     C97021   1.978   2.868   6.704  0.6263 -0.0724  0.0322
  704MOL0     O97022   2.105   2.924   6.707 -0.4335 -0.2657  0.1076
  704MOL0     C97023   2.122   3.056   6.654 -0.4982 -0.2644  0.3655
  704MOL0     C97024   2.258   3.060   6.585  0.3281 -0.3116 -0.2874
  704MOL0     C97025   2.254   2.992   6.451 -0.6431  0.3888  0.8023
  704MOL0     C97026   2.395   3.008   6.391  0.4466  0.8557  0.0255
  704MOL0     C97027   2.390   2.987   6.245 -0.1645 -0.7891 -0.4527
  704MOL0     C97028   2.528   2.976   6.185 -0.3383 -0.5242 -0.1948
  704MOL0     C97029   2.517   2.924   6.040 -0.3773 -0.0974  0.2334
  704MOL0     C97030   2.644   2.864   5.988  0.0973  1.3280  0.3770
  704MOL0     N97031   2.763   2.945   6.008 -0.4128  0.0214 -0.3678
  704MOL0     C97032   2.800   3.078   5.976  0.7271  0.3797  0.2725
  704MOL0     C97033   2.923   3.102   6.026  0.1196 -0.5216  0.1787
  704MOL0     C97034   3.007   3.230   6.018 -0.1634 -0.3266 -0.9961
  704MOL0     C97035   3.008   3.298   6.153 -0.1002  0.5621 -0.1064
  704MOL0     C97036   3.058   3.226   6.282  0.3947 -0.0092 -0.7611
  704MOL0     C97037   3.195   3.172   6.264 -0.8038 -0.2852  0.0891
  704MOL0     O97038   3.290   3.290   6.240  0.4661  0.7010  0.5688
  704MOL0     C97039   3.415   3.256   6.201 -0.7239  0.3177 -0.3815
  704MOL0     C97040   3.515   3.357   6.222 -0.7594  0.6037 -0.2963
  704MOL0     C97041   3.649   3.326   6.177 -0.3301  0.9598 -0.5153
  704MOL0     C97042   3.749   3.439   6.183 -0.0896  0.0150 -0.0116
  704MOL0     C97043   3.684   3.194   6.128  0.6340  0.6372  0.5335
  704MOL0     C97044   3.827   3.142   6.107  0.9717 -1.4084 -0.0820
  704MOL0     O97045   3.929   3.211   6.167 -0.2383 -0.4826  0.5372
  704MOL0     C97046   4.049   3.187   6.120  0.3578  0.4081  0.4479
  704MOL0     C97047   4.097   3.275   6.019 -0.4318 -0.3264 -0.1268
  704MOL0     C97048   4.236   3.281   5.984 -0.0926  0.1294 -0.0273
  704MOL0     C97049   4.318   3.177   6.042  0.3392  0.2351  0.0261
  704MOL0     O97050   4.450   3.179   6.019  0.3831  0.0124 -0.9855
  704MOL0     C97051   4.513   3.288   5.962  0.1162 -0.3792  0.2745
  704MOL0     C97052   4.659   3.259   5.986  0.9578 -0.4947  0.0515
  704MOL0     C97053   4.745   3.363   5.912 -0.1759 -0.2128 -0.9105
  704MOL0     C97054   4.732   3.499   5.973  0.0603 -1.3857 -0.5215
  704MOL0     C97055   4.834   3.587   5.913 -0.5887  0.1880 -0.5353
  704MOL0     C97056   4.805   3.731   5.954  0.4114  0.5064 -0.2952
  704MOL0     C97057   4.923   3.819   5.931 -0.0489 -0.1921  0.0237
  704MOL0     C97058   4.884   3.965   5.958  0.1583  0.0679  0.1840
  704MOL0    Cl97059   5.032   4.073   5.946 -0.1167  0.2156  0.5129
  704MOL0     C97060   4.268   3.077   6.126  0.0519 -0.2559  0.2847
  704MOL0     C97061   4.132   3.083   6.168  0.0085  0.5480 -0.3214
  704MOL0     O97062   3.841   3.050   6.028  0.3513 -0.1645 -0.5339
  704MOL0     C97063   3.582   3.096   6.118 -0.6550  0.1140 -0.1182
  704MOL0     C97064   3.457   3.128   6.150 -0.3284  1.0171 -0.4665
  704MOL0     N97065   2.949   2.990   6.100 -0.3867  0.1568  0.3826
  704MOL0     N97066   2.857   2.904   6.096  0.0193 -0.3584 -0.7855
  704MOL0     C97067   1.878   2.902   6.798 -0.1808 -0.5104  0.1237
  704MOL0     C97068   1.753   2.828   6.805  0.2523  0.0555  0.4209
  704MOL0     C97069   1.452   2.499   6.805 -0.6475  0.3371  0.9641
  704MOL0     C97070   1.376   2.511   6.684  0.0858  0.7427 -0.1877
  704MOL0     C97071   1.249   2.445   6.661  0.0344 -0.4456  0.4707
  704MOL0     C97072   1.209   2.355   6.763 -0.8292 -0.4618  0.8367
  704MOL0     O97073   1.088   2.286   6.752  0.3250 -0.3870  0.3981
  704MOL0     C97074   1.032   2.223   6.863  0.0462 -0.3783 -0.0226
  704MOL0     C97075   0.882   2.186   6.836 -1.0535 -0.1129  0.2276
  704MOL0     C97076   0.832   2.132   6.971  0.4894 -0.1592  0.1558
  704MOL0     C97077   0.680   2.121   6.966  0.3326  1.1910 -0.0131
  704MOL0     C97078   0.643   2.003   6.879  0.5932 -0.1476 -0.8325
  704MOL0     C97079   0.617   1.923   6.795  0.3603 -0.8674  0.2995
  704MOL0     C97080   1.283   2.342   6.882 -0.6244  0.4032 -0.4707
  704MOL0     C97081   1.401   2.420   6.910 -0.4650  1.2761 -0.3303
  704MOL0     C97082   1.477   2.401   7.042  0.2710 -0.7113 -0.2795
  704MOL0     H97083   1.801   2.635   6.529  1.0401 -0.9962 -0.0153
  704MOL0     H97084   2.019   2.749   6.531 -2.7209 -2.2248 -1.9437
  704MOL0     H97085   2.139   3.125   6.736  1.6857 -0.1040 -0.1540
  704MOL0     H97086   2.038   3.089   6.592 -0.4067  0.4617  0.6270
  704MOL0     H97087   2.284   3.166   6.578  0.1347 -0.2009  0.5937
  704MOL0     H97088   2.326   3.010   6.655 -2.0283 -1.4823  1.2771
  704MOL0     H97089   2.228   2.886   6.453  0.2255  0.0266 -2.0749
  704MOL0     H97090   2.185   3.036   6.378  0.9261  1.1078 -0.2935
  704MOL0     H97091   2.432   3.109   6.411 -0.1447  0.7073  2.1801
  704MOL0     H97092   2.463   2.937   6.439  0.2556 -0.1054 -1.0740
  704MOL0     H97093   2.347   3.077   6.199  1.2265  0.2552  0.1967
  704MOL0     H97094   2.336   2.896   6.219 -2.1461  1.0354 -3.4296
  704MOL0     H97095   2.568   3.077   6.174  2.6303 -1.6873 -1.0878
  704MOL0     H97096   2.593   2.915   6.249  2.1598  2.0662 -0.0664
  704MOL0     H97097   2.497   3.002   5.966 -0.7555 -1.0962 -0.7635
  704MOL0     H97098   2.436   2.851   6.025 -0.9276  0.5549  0.0063
  704MOL0     H97099   2.661   2.771   6.043 -0.0262  0.8016 -0.4540
  704MOL0     H97100   2.624   2.846   5.882  0.1749 -1.6941  0.8058
  704MOL0     H97101   2.745   3.149   5.916  2.8450  2.6583  0.8396
  704MOL0     H97102   2.963   3.294   5.941  5.7862  0.7217 -4.0810
  704MOL0     H97103   3.111   3.206   5.993  0.1643 -0.9189  0.7834
  704MOL0     H97104   3.063   3.392   6.144  1.4230 -0.5098 -4.8478
  704MOL0     H97105   2.905   3.329   6.174 -0.2584  1.1387 -1.6488
  704MOL0     H97106   3.062   3.287   6.372  1.6244  0.9348 -1.4236
  704MOL0     H97107   2.991   3.142   6.302  0.5038 -0.6660 -2.9058
  704MOL0     H97108   3.222   3.105   6.345 -1.1811 -1.5902 -0.8388
  704MOL0     H97109   3.181   3.117   6.170  1.5049 -1.0755  0.1542
  704MOL0     H97110   3.491   3.457   6.257  1.7294  0.6442  1.5810
  704MOL0     H97111   3.699   3.536   6.179  2.7106  1.6282  0.6325
  704MOL0     H97112   3.819   3.436   6.098  1.8914 -1.7680  1.5838
  704MOL0     H97113   3.824   3.459   6.261  1.6611  1.1065 -1.8472
  704MOL0     H97114   4.032   3.358   5.992  0.2627 -0.0101 -0.8648
  704MOL0     H97115   4.261   3.360   5.914 -2.4018  0.6363 -0.3722
  704MOL0     H97116   4.481   3.305   5.859  0.2997 -0.9802  0.1172
  704MOL0     H97117   4.491   3.382   6.012 -1.2302 -1.2759  1.4357
  704MOL0     H97118   4.676   3.257   6.094  0.0327  3.2155  0.3980
  704MOL0     H97119   4.680   3.160   5.946 -0.3579 -0.8713  0.2270
  704MOL0     H97120   4.709   3.370   5.809 -0.6196  0.1861 -0.7323
  704MOL0     H97121   4.848   3.331   5.898 -0.0289  1.1631 -3.7474
  704MOL0     H97122   4.737   3.495   6.083 -2.2572 -2.7990 -0.4050
  704MOL0     H97123   4.638   3.543   5.940  0.1452  1.5242  2.6297
  704MOL0     H97124   4.932   3.550   5.943 -0.9902 -3.5681 -3.2924
  704MOL0     H97125   4.831   3.566   5.806 -2.0618  2.0191 -0.9014
  704MOL0     H97126   4.779   3.732   6.061  0.0623  2.6227 -0.3622
  704MOL0     H97127   4.713   3.765   5.907  0.6515  2.5518  0.6231
  704MOL0     H97128   4.956   3.815   5.826  2.4205 -0.3294  0.7413
  704MOL0     H97129   5.006   3.793   5.997  1.1777  0.7246 -1.0893
  704MOL0     H97130   4.845   3.981   6.059  1.7909  0.3752  0.7958
  704MOL0     H97131   4.808   4.005   5.889  1.2968  3.5128  0.7102
  704MOL0     H97132   4.337   3.002   6.164  0.4882  0.7339  1.4848
  704MOL0     H97133   4.085   3.020   6.242  0.0748  2.4429  1.4268
  704MOL0     H97134   3.591   2.992   6.089 -2.5570  0.5504 -2.5948
  704MOL0     H97135   3.383   3.049   6.140 -0.3827  0.8093  1.2492
  704MOL0     H97136   1.899   2.982   6.868  0.2357 -1.1314  0.7123
  704MOL0     H97137   1.685   2.848   6.887  0.1370 -0.2567  0.4036
  704MOL0     H97138   1.410   2.574   6.603  2.4048 -2.9965 -2.4305
  704MOL0     H97139   1.182   2.471   6.580  1.6999 -0.6130 -1.0205
  704MOL0     H97140   1.100   2.138   6.876  0.8268  0.2176 -0.1284
  704MOL0     H97141   1.032   2.298   6.943  1.4834 -0.0747 -0.2783
  704MOL0     H97142   0.877   2.102   6.765  0.5204 -0.5278  0.5736
  704MOL0     H97143   0.825   2.271   6.797 -1.0665 -1.4394 -2.9830
  704MOL0     H97144   0.879   2.037   6.996 -0.3236 -0.3268  1.1215
  704MOL0     H97145   0.854   2.197   7.056 -1.7736 -1.0958  1.5697
  704MOL0     H97146   0.636   2.213   6.927  2.5285  1.5316 -1.9423
  704MOL0     H97147   0.650   2.099   7.069  1.8648  1.3203  0.4875
  704MOL0     H97148   0.590   1.856   6.716  0.5947  0.4866 -0.9740
  704MOL0     H97149   1.249   2.292   6.973  0.5876 -1.8976 -1.1996
  704MOL0     H97150   1.568   2.348   7.014  0.1933 -1.7719  1.3451
  704MOL0     H97151   1.497   2.499   7.086  1.7612 -0.3524 -1.6349
  704MOL0     H97152   1.420   2.335   7.108 -3.1229  1.9402 -0.3046
  705MOL0     O97153  11.360   0.618  10.549  0.1604 -0.0048 -0.0930
  705MOL0     C97154  11.478   0.597  10.581  0.1799  0.6207  0.0634
  705MOL0     O97155  11.587   0.569  10.500 -0.0081  0.1984  0.7531
  705MOL0     C97156  11.580   0.511  10.372  0.1888  1.4060 -0.4623
  705MOL0     C97157  11.686   0.530  10.290  0.0438  0.4228 -0.5219
  705MOL0     C97158  11.690   0.458  10.165 -0.5266 -0.2214  0.5416
  705MOL0     C97159  11.585   0.374  10.131  0.4952 -0.7885  1.1275
  705MOL0     O97160  11.570   0.315  10.013  0.9486 -0.7597  0.4266
  705MOL0     C97161  11.593   0.398   9.896 -0.1328  0.2599  0.2655
  705MOL0     C97162  11.537   0.325   9.771  0.1856  0.1986  0.2408
  705MOL0     C97163  11.393   0.284   9.793  0.8115 -0.0614 -0.4947
  705MOL0     C97164  11.295   0.408   9.796 -0.1517 -0.4819 -0.1243
  705MOL0     C97165  11.154   0.354   9.825  0.3432 -0.1939  0.4495
  705MOL0     C97166  11.038   0.448   9.777 -0.2202 -0.1207 -0.3195
  705MOL0     C97167  10.902   0.393   9.812  1.2496 -0.6640 -0.0461
  705MOL0     C97168  10.787   0.489   9.771  0.6590  0.3902 -0.7529
  705MOL0     N97169  10.777   0.483   9.622  0.4001  0.6795  0.4310
  705MOL0     C97170  10.696   0.397   9.546  0.0942 -0.8622  0.5925
  705MOL0     C97171  10.745   0.416   9.417  0.1357  1.3248 -0.4517
  705MOL0     C97172  10.699   0.343   9.290  0.2339  0.4044  0.7602
  705MOL0     C97173  10.793   0.377   9.172  0.1618 -0.5863 -0.0996
  705MOL0     C97174  10.746   0.296   9.049 -0.5371  0.8752  0.5878
  705MOL0     C97175  10.757   0.384   8.930 -0.7982 -0.6449 -0.3827
  705MOL0     O97176  10.896   0.389   8.896 -0.0258  0.3487 -0.7698
  705MOL0     C97177  10.925   0.444   8.780  0.7373  0.1922  0.3351
  705MOL0     C97178  10.835   0.501   8.684  0.4490 -0.0711  0.2655
  705MOL0     C97179  10.885   0.584   8.574 -0.4271 -0.4383 -0.0361
  705MOL0     C97180  10.774   0.634   8.477 -0.5291 -0.1682  0.0457
  705MOL0     C97181  11.024   0.595   8.554 -0.6348  0.1876  0.4106
  705MOL0     C97182  11.086   0.665   8.436  0.1873  0.7232 -0.2457
  705MOL0     O97183  11.215   0.632   8.415 -0.5011  0.0186  0.4059
  705MOL0     C97184  11.281   0.668   8.300  0.7208  0.8712 -0.1660
  705MOL0     C97185  11.408   0.614   8.293 -0.0516  0.3407 -0.0428
  705MOL0     C97186  11.488   0.625   8.179  0.4292 -0.5603  1.1155
  705MOL0     C97187  11.440   0.687   8.058  0.7393 -0.3516 -0.5132
  705MOL0     O97188  11.502   0.695   7.938 -0.7975  0.7577  0.1565
  705MOL0     C97189  11.620   0.614   7.914 -0.5253  0.3531 -0.0142
  705MOL0     C97190  11.755   0.688   7.955  0.2968  0.2800  0.4910
  705MOL0     C97191  11.872   0.591   7.957  0.8442 -0.4346 -0.2407
  705MOL0     C97192  11.914   0.532   7.817  1.7513 -0.1824  0.6683
  705MOL0     C97193  12.017   0.419   7.842  0.1526  0.0688 -0.5733
  705MOL0     C97194  12.157   0.475   7.899 -0.6222 -0.3679 -0.1159
  705MOL0     C97195  12.249   0.360   7.932  0.0693 -0.7722  1.1121
  705MOL0     C97196  12.387   0.422   7.984  0.1067  0.3299 -0.4473
  705MOL0    Cl97197  12.474   0.474   7.839  0.2209  0.4346  0.2637
  705MOL0     C97198  11.316   0.756   8.070 -0.2856 -0.1132  0.1997
  705MOL0     C97199  11.245   0.743   8.189  0.5494 -0.0635  0.4322
  705MOL0     O97200  11.014   0.739   8.368 -0.6562 -0.1698  0.0502
  705MOL0     C97201  11.104   0.537   8.652 -0.9399 -0.0577  0.4436
  705MOL0     C97202  11.059   0.470   8.758  1.2769  0.7058 -0.4860
  705MOL0     N97203  10.837   0.519   9.417 -0.2477  0.3141 -0.2269
  705MOL0     N97204  10.857   0.554   9.535  0.7851  0.1345 -0.1648
  705MOL0     C97205  11.493   0.342  10.226 -0.3596  0.5248  0.0917
  705MOL0     C97206  11.488   0.410  10.344  0.0346  0.0758 -0.2666
  705MOL0     C97207  11.513   0.608  10.725  1.3653 -1.4313  0.6316
  705MOL0     C97208  11.645   0.616  10.756 -0.1991  0.2550 -0.0289
  705MOL0     C97209  11.690   0.605  10.885  0.4518 -0.1955  0.4314
  705MOL0     C97210  11.599   0.577  10.989 -0.5804  0.0997  0.5223
  705MOL0     O97211  11.640   0.542  11.121  0.1548  0.0764  0.0443
  705MOL0     C97212  11.776   0.558  11.148  0.3544  0.2365 -0.2473
  705MOL0     C97213  11.818   0.583  11.302  0.1908  0.3182  0.8626
  705MOL0     C97214  11.720   0.677  11.377 -0.2471  0.3280  0.2203
  705MOL0     C97215  11.695   0.815  11.303  0.2059 -0.1671  0.7547
  705MOL0     C97216  11.815   0.872  11.235  0.6198 -0.0482 -1.6653
  705MOL0     C97217  11.912   0.922  11.180 -0.6047 -0.3854 -0.6737
  705MOL0     C97218  11.472   0.574  10.960  0.1324 -0.6327  0.2747
  705MOL0     C97219  11.420   0.602  10.834 -0.2590  0.2023  0.2243
  705MOL0     C97220  11.271   0.607  10.829  0.0085  0.4174  0.3427
  705MOL0     H97221  11.761   0.600  10.327 -0.5142  0.6098  0.2924
  705MOL0     H97222  11.779   0.471  10.106  1.1561 -0.4602  2.8801
  705MOL0     H97223  11.701   0.405   9.883  0.2792 -2.6132  1.4652
  705MOL0     H97224  11.550   0.498   9.909 -0.1066  0.3843 -0.5966
  705MOL0     H97225  11.549   0.379   9.677  0.0388 -1.0306 -0.4994
  705MOL0     H97226  11.589   0.230   9.753 -1.9596 -1.2726  1.3063
  705MOL0     H97227  11.362   0.208   9.721  0.5721 -1.3642  0.9204
  705MOL0     H97228  11.381   0.247   9.896  0.5222  2.6030  0.5181
  705MOL0     H97229  11.323   0.484   9.869 -1.6352  1.8291 -1.8086
  705MOL0     H97230  11.296   0.463   9.701 -0.2840 -0.7626 -0.2908
  705MOL0     H97231  11.139   0.346   9.933 -0.2853  2.3713  0.6187
  705MOL0     H97232  11.148   0.254   9.782 -2.1532 -0.2692  0.7800
  705MOL0     H97233  11.045   0.552   9.811 -0.5671 -0.5367  1.0720
  705MOL0     H97234  11.038   0.454   9.668  0.0065  0.4815 -0.2902
  705MOL0     H97235  10.893   0.382   9.920 -1.4804  0.3770 -0.1111
  705MOL0     H97236  10.885   0.292   9.775  0.5880  0.2433 -2.4339
  705MOL0     H97237  10.698   0.451   9.822  0.1856  2.0616 -0.2605
  705MOL0     H97238  10.825   0.584   9.808  2.7538  0.0636 -1.9212
  705MOL0     H97239  10.627   0.321   9.581  0.9908 -0.6434  2.9720
  705MOL0     H97240  10.596   0.376   9.273 -1.5447 -3.7030  2.3080
  705MOL0     H97241  10.688   0.236   9.311  2.2757  0.3448  1.7720
  705MOL0     H97242  10.792   0.485   9.157  0.2304 -0.7307 -1.2490
  705MOL0     H97243  10.892   0.337   9.199 -1.0373 -4.9861 -1.2927
  705MOL0     H97244  10.796   0.199   9.044 -2.7774 -0.4159  1.8751
  705MOL0     H97245  10.641   0.268   9.054 -0.7028  0.9875 -1.3481
  705MOL0     H97246  10.697   0.333   8.855 -1.8631 -0.6560  0.4482
  705MOL0     H97247  10.709   0.482   8.939 -1.1914 -0.9905  2.5780
  705MOL0     H97248  10.727   0.493   8.695 -0.2025  4.2081 -1.1735
  705MOL0     H97249  10.756   0.742   8.475 -3.5748 -0.6113 -0.8091
  705MOL0     H97250  10.683   0.581   8.503 -0.5738 -0.5947 -0.9258
  705MOL0     H97251  10.813   0.602   8.379 -1.4315 -2.5275  0.3972
  705MOL0     H97252  11.436   0.572   8.389 -1.9555 -1.0192 -0.0335
  705MOL0     H97253  11.587   0.584   8.196 -0.3542 -2.5575  1.0582
  705MOL0     H97254  11.601   0.516   7.959  0.5173  0.9078  1.7423
  705MOL0     H97255  11.631   0.600   7.806 -0.4546 -2.1855  0.2676
  705MOL0     H97256  11.769   0.781   7.900 -3.2076  1.1254  0.7801
  705MOL0     H97257  11.744   0.722   8.058  0.2218  0.6761  0.3508
  705MOL0     H97258  11.858   0.503   8.020 -6.4247  0.2501 -0.1198
  705MOL0     H97259  11.955   0.644   8.005  0.2901 -1.0993  1.5083
  705MOL0     H97260  11.966   0.606   7.756  0.1927 -0.0094 -0.5331
  705MOL0     H97261  11.831   0.494   7.755  1.0193  1.9861  0.2270
  705MOL0     H97262  11.972   0.335   7.897 -1.7014  0.7403 -0.9882
  705MOL0     H97263  12.039   0.374   7.745  2.1255  1.3132 -0.7581
  705MOL0     H97264  12.146   0.546   7.982  2.0519  0.1218 -0.0880
  705MOL0     H97265  12.202   0.544   7.827 -2.5342  2.2561  1.0150
  705MOL0     H97266  12.273   0.299   7.844  2.8188  2.6145 -0.7265
  705MOL0     H97267  12.200   0.298   8.008  2.0796 -3.2244  0.5520
  705MOL0     H97268  12.449   0.344   8.030  2.4654 -0.4738 -4.4486
  705MOL0     H97269  12.358   0.508   8.044  0.3315  0.0231  0.1007
  705MOL0     H97270  11.276   0.803   7.981  0.8822  1.7951  0.6293
  705MOL0     H97271  11.151   0.798   8.183 -0.0718 -0.8877  1.9762
  705MOL0     H97272  11.212   0.550   8.654 -0.9922  0.3339  1.7370
  705MOL0     H97273  11.130   0.426   8.827  1.7635 -0.9783 -1.9614
  705MOL0     H97274  11.424   0.262  10.207 -2.2516  1.1546  3.4409
  705MOL0     H97275  11.414   0.401  10.423  1.4385  0.2085  1.1053
  705MOL0     H97276  11.727   0.628  10.686 -1.6955  0.8486 -1.7430
  705MOL0     H97277  11.798   0.616  10.889  0.7357 -2.6640  0.9651
  705MOL0     H97278  11.817   0.465  11.109 -1.5681  0.1161 -2.1624
  705MOL0     H97279  11.827   0.641  11.098  2.3223 -1.8641 -1.9201
  705MOL0     H97280  11.919   0.623  11.318  0.9838 -1.9415  1.9932
  705MOL0     H97281  11.816   0.484  11.348  3.4230  0.2166  0.9618
  705MOL0     H97282  11.633   0.613  11.392  0.7968 -0.8695  1.4682
  705MOL0     H97283  11.776   0.705  11.467 -0.3082 -0.9086  0.6561
  705MOL0     H97284  11.656   0.892  11.371 -0.9972  0.4482 -0.5803
  705MOL0     H97285  11.619   0.800  11.226  0.0759 -1.0970  1.0567
  705MOL0     H97286  12.004   0.964  11.144 -0.2103  0.2232  0.9733
  705MOL0     H97287  11.407   0.538  11.040  1.1712 -1.6317  0.6955
  705MOL0     H97288  11.212   0.588  10.920 -3.7168 -0.4478 -2.0124
  705MOL0     H97289  11.242   0.702  10.784  0.4843 -0.0172 -0.9418
  705MOL0     H97290  11.233   0.530  10.761 -1.2666  0.9603  0.4096
  706MOL0     O97291   7.110   7.029  10.363  0.3577  0.3192  0.3279
  706MOL0     C97292   7.168   6.922  10.379  0.5228  0.7591  0.2172
  706MOL0     O97293   7.115   6.821  10.450 -0.4304  0.8368  0.9552
  706MOL0     C97294   7.003   6.837  10.533  0.3050  0.7220 -0.6434
  706MOL0     C97295   6.982   6.752  10.646  1.1941 -0.8936 -0.8370
  706MOL0     C97296   6.866   6.756  10.721 -0.3803  0.7178  0.2814
  706MOL0     C97297   6.768   6.839  10.691  0.0083  0.9164 -0.0484
  706MOL0     O97298   6.667   6.820  10.781  0.0078  0.4528 -0.2878
  706MOL0     C97299   6.577   6.935  10.794 -0.3473 -0.2590 -0.2620
  706MOL0     C97300   6.618   7.015  10.919  0.9354 -0.5084 -0.0001
  706MOL0     C97301   6.763   7.069  10.917 -0.8679  0.3299 -0.0918
  706MOL0     C97302   6.795   7.137  11.048 -0.2398  0.4231 -0.2039
  706MOL0     C97303   6.937   7.131  11.086  0.0425  0.4085  0.5809
  706MOL0     C97304   6.957   7.185  11.232  0.0541 -0.3503  0.2955
  706MOL0     C97305   7.110   7.178  11.269  0.4522 -0.0241 -0.3690
  706MOL0     C97306   7.175   7.299  11.211  0.1903  1.3758  0.2889
  706MOL0     N97307   7.318   7.282  11.235 -0.2154  0.1281  0.3231
  706MOL0     C97308   7.376   7.223  11.348  0.0900  0.6108 -0.2269
  706MOL0     C97309   7.489   7.170  11.308  0.3906  0.4746 -0.9254
  706MOL0     C97310   7.568   7.089  11.405  0.0155  0.0992 -0.8350
  706MOL0     C97311   7.518   6.948  11.422  0.1259 -0.0475  0.0788
  706MOL0     C97312   7.453   6.910  11.552 -0.0943  0.1189 -0.6118
  706MOL0     C97313   7.547   6.922  11.679  0.8032 -0.2185 -0.7488
  706MOL0     O97314   7.668   6.857  11.647 -0.1510 -0.4214 -0.4989
  706MOL0     C97315   7.690   6.724  11.627  0.3550  0.0625 -0.3577
  706MOL0     C97316   7.639   6.629  11.704  1.2232  0.2591 -0.2564
  706MOL0     C97317   7.654   6.498  11.672 -0.0325  0.0560 -0.2236
  706MOL0     C97318   7.612   6.393  11.774  0.6733  0.7894 -0.3993
  706MOL0     C97319   7.715   6.465  11.548  0.5190  0.1927  0.6897
  706MOL0     C97320   7.734   6.325  11.502  0.6233 -0.9653  0.5979
  706MOL0     O97321   7.647   6.230  11.533 -0.1443  0.7189  0.2574
  706MOL0     C97322   7.675   6.100  11.523 -0.6359 -0.5605  0.9287
  706MOL0     C97323   7.706   6.029  11.633  0.3648 -0.0226 -0.2306
  706MOL0     C97324   7.692   5.885  11.636 -0.0902 -1.4262  0.1254
  706MOL0     C97325   7.671   5.814  11.516  0.5080 -0.3086 -0.7113
  706MOL0     O97326   7.675   5.673  11.501 -0.4495  0.1553 -0.3250
  706MOL0     C97327   7.683   5.587  11.618  0.1746  0.3366 -0.1252
  706MOL0     C97328   7.659   5.434  11.579  0.2621  0.9829  0.2851
  706MOL0     C97329   7.513   5.424  11.529 -0.2282 -0.8682 -0.2761
  706MOL0     C97330   7.456   5.287  11.546 -0.0786 -0.3700 -0.1985
  706MOL0     C97331   7.313   5.264  11.478 -0.5406  0.8426 -0.7057
  706MOL0     C97332   7.212   5.358  11.534 -0.1807 -0.6083  0.1252
  706MOL0     C97333   7.222   5.391  11.691 -0.6904 -0.1392  0.5173
  706MOL0     C97334   7.105   5.464  11.760 -0.0746 -0.4263  0.1974
  706MOL0    Cl97335   7.146   5.641  11.758 -0.6036 -0.2973 -0.1344
  706MOL0     C97336   7.639   5.890  11.402 -0.9945 -0.9633 -0.4359
  706MOL0     C97337   7.649   6.034  11.405 -0.0578  0.2115  0.2653
  706MOL0     O97338   7.825   6.311  11.417  0.7193  0.5133  0.5447
  706MOL0     C97339   7.766   6.562  11.461  0.1981 -0.3263 -0.1073
  706MOL0     C97340   7.758   6.690  11.506 -0.0222  0.2669 -0.4791
  706MOL0     N97341   7.510   7.216  11.177  0.0848  0.7074 -0.2320
  706MOL0     N97342   7.421   7.301  11.142  0.0865  0.5339  0.4764
  706MOL0     C97343   6.770   6.915  10.570 -0.1530 -0.0468 -0.1571
  706MOL0     C97344   6.889   6.912  10.496 -0.9883 -0.1451 -0.6146
  706MOL0     C97345   7.300   6.898  10.311  0.9863  0.0532  0.5311
  706MOL0     C97346   7.352   7.002  10.236 -0.0927  0.2463 -0.2753
  706MOL0     C97347   7.478   6.987  10.186 -0.6096 -0.7154 -0.5179
  706MOL0     C97348   7.558   6.869  10.198  0.4954  0.1511 -0.2973
  706MOL0     O97349   7.682   6.852  10.146 -0.1404 -0.3901  0.1251
  706MOL0     C97350   7.761   6.970  10.157 -0.0680 -0.5756 -0.1854
  706MOL0     C97351   7.905   6.948  10.116 -0.6099 -0.4756 -0.3242
  706MOL0     C97352   7.970   6.830  10.196 -0.4646  0.1197  0.3325
  706MOL0     C97353   7.987   6.863  10.345 -0.1452 -0.0345  0.6999
  706MOL0     C97354   8.048   6.757  10.417 -0.6608  1.0653  0.4607
  706MOL0     C97355   8.115   6.696  10.494  0.0739  0.5098  0.5626
  706MOL0     C97356   7.498   6.760  10.253 -0.0847 -0.3950  0.0717
  706MOL0     C97357   7.377   6.782  10.322  0.9253  0.6536 -0.4268
  706MOL0     C97358   7.347   6.658  10.412 -0.5446  0.2485  1.1506
  706MOL0     H97359   7.061   6.685  10.680 -0.0035 -1.4345  1.0651
  706MOL0     H97360   6.850   6.707  10.816 -1.1002  1.5645  0.6084
  706MOL0     H97361   6.474   6.899  10.804 -0.8561 -0.1061 -3.7466
  706MOL0     H97362   6.587   7.008  10.713 -0.8833 -0.8711 -0.8966
  706MOL0     H97363   6.549   7.098  10.933  2.4304  0.6830  0.5648
  706MOL0     H97364   6.604   6.949  11.005 -2.5540  2.3447  1.8836
  706MOL0     H97365   6.828   6.981  10.913 -0.0425  0.9592 -1.0292
  706MOL0     H97366   6.787   7.132  10.831  2.8811 -1.0187 -0.2573
  706MOL0     H97367   6.761   7.241  11.048  0.4641  0.6621 -1.1933
  706MOL0     H97368   6.733   7.088  11.124  0.1175  0.0426 -0.1549
  706MOL0     H97369   6.987   7.191  11.009 -0.0049  1.6701  1.4945
  706MOL0     H97370   6.977   7.030  11.075  0.7373  0.5134  1.9370
  706MOL0     H97371   6.915   7.286  11.224 -0.9325 -0.8919 -2.3188
  706MOL0     H97372   6.902   7.129  11.308  0.3784 -0.0052  0.7962
  706MOL0     H97373   7.153   7.087  11.225 -0.7791 -0.5341 -0.5765
  706MOL0     H97374   7.130   7.172  11.376  2.6284 -1.9980 -0.7987
  706MOL0     H97375   7.149   7.321  11.107 -1.3231  0.9827  0.5573
  706MOL0     H97376   7.145   7.381  11.276  0.6501 -0.1566  2.5261
  706MOL0     H97377   7.329   7.223  11.446  0.6979  1.8398  0.0867
  706MOL0     H97378   7.556   7.135  11.504 -0.8317 -1.1197 -0.3387
  706MOL0     H97379   7.674   7.092  11.377 -0.4154  2.4776 -2.5800
  706MOL0     H97380   7.446   6.929  11.342 -0.5792  1.2967  0.3672
  706MOL0     H97381   7.597   6.874  11.408 -2.4220 -2.6723 -1.7390
  706MOL0     H97382   7.360   6.965  11.566 -1.5758 -2.1069 -1.1212
  706MOL0     H97383   7.421   6.806  11.542  2.6028 -0.9004  0.3986
  706MOL0     H97384   7.574   7.025  11.700  0.3998 -0.3675  0.6175
  706MOL0     H97385   7.496   6.893  11.772  1.1759  0.3800 -0.3576
  706MOL0     H97386   7.567   6.652  11.782  0.3403  0.7574 -1.1931
  706MOL0     H97387   7.516   6.358  11.735  0.6879  0.6300 -0.2922
  706MOL0     H97388   7.592   6.442  11.870 -2.2721  1.0145 -1.0262
  706MOL0     H97389   7.684   6.313  11.791 -1.6278 -1.5002 -0.7847
  706MOL0     H97390   7.723   6.075  11.730  0.1296  0.9649 -0.6479
  706MOL0     H97391   7.718   5.830  11.726  0.5465 -2.3149 -0.5772
  706MOL0     H97392   7.784   5.598  11.659 -0.3978  3.9439  0.6574
  706MOL0     H97393   7.619   5.628  11.697  1.9520  2.9657  0.0551
  706MOL0     H97394   7.730   5.404  11.502  1.5735  2.8146  0.7105
  706MOL0     H97395   7.665   5.357  11.656 -3.6157  0.7018  0.4744
  706MOL0     H97396   7.506   5.448  11.423  1.7655  1.4809  0.0277
  706MOL0     H97397   7.461   5.507  11.578  1.9114  1.2684 -1.4150
  706MOL0     H97398   7.457   5.267  11.653  0.9471 -0.4123 -0.2065
  706MOL0     H97399   7.532   5.222  11.500  3.2249  4.2504 -2.1261
  706MOL0     H97400   7.318   5.291  11.373  0.1140 -0.0671 -0.9164
  706MOL0     H97401   7.284   5.159  11.482  1.5556  0.1381 -2.3246
  706MOL0     H97402   7.119   5.317  11.493  0.6735 -0.6862 -1.8812
  706MOL0     H97403   7.230   5.457  11.490  0.4399 -1.0943 -0.7695
  706MOL0     H97404   7.318   5.442  11.705  0.4159 -1.0480 -2.7795
  706MOL0     H97405   7.225   5.298  11.747 -1.6362 -0.1897  0.4929
  706MOL0     H97406   7.088   5.429  11.863 -1.4086  0.5445  0.3409
  706MOL0     H97407   7.012   5.439  11.708  0.0019  0.0297 -0.1608
  706MOL0     H97408   7.627   5.834  11.310 -0.8679  0.7827 -1.5457
  706MOL0     H97409   7.651   6.100  11.319  0.1249 -0.3182 -0.1427
  706MOL0     H97410   7.806   6.540  11.363 -1.2280 -2.2251 -0.3421
  706MOL0     H97411   7.797   6.769  11.443 -0.0145  0.2821 -0.4554
  706MOL0     H97412   6.691   6.975  10.526  0.5780  2.4118  1.6437
  706MOL0     H97413   6.884   6.965  10.401 -1.7940  3.5488  1.3055
  706MOL0     H97414   7.292   7.091  10.220 -1.1692 -0.9198 -3.6451
  706MOL0     H97415   7.526   7.067  10.129  2.0225  0.1978  2.6422
  706MOL0     H97416   7.716   7.056  10.106 -1.1746 -1.8141 -1.3694
  706MOL0     H97417   7.765   7.000  10.262 -1.5841  2.7834 -0.9461
  706MOL0     H97418   7.966   7.039  10.123 -1.9774  0.4241  0.4403
  706MOL0     H97419   7.912   6.926  10.009  1.6304 -1.8844  0.0580
  706MOL0     H97420   7.899   6.747  10.188  0.9240 -0.9629 -1.8193
  706MOL0     H97421   8.054   6.798  10.134 -0.5444  1.4297 -0.4852
  706MOL0     H97422   7.892   6.891  10.391  1.4123  1.4644  3.2289
  706MOL0     H97423   8.039   6.958  10.361  0.4879 -0.0924 -0.8655
  706MOL0     H97424   8.165   6.635  10.567  2.9535 -2.1584 -3.2479
  706MOL0     H97425   7.552   6.667  10.263 -0.7724 -0.7709  0.2757
  706MOL0     H97426   7.433   6.594  10.434 -1.5725 -1.6776 -0.1477
  706MOL0     H97427   7.306   6.681  10.511 -2.0096 -1.0280  0.8766
  706MOL0     H97428   7.272   6.604  10.354 -1.0682  2.2542 -0.1649
  707MOL0     O97429   0.150   9.702   5.047  0.1934 -0.9468  0.0531
  707MOL0     C97430   0.064   9.690   5.140 -0.1430  0.8639 -0.6752
  707MOL0     O97431   0.076   9.731   5.268  0.2835  0.5923  0.0703
  707MOL0     C97432   0.198   9.784   5.319  0.1466 -0.0122 -0.1188
  707MOL0     C97433   0.310   9.704   5.322  0.0208  0.1607  0.2026
  707MOL0     C97434   0.431   9.752   5.357 -0.7317 -0.5899 -0.7569
  707MOL0     C97435   0.449   9.890   5.386 -0.3701  0.2897 -0.0870
  707MOL0     O97436   0.569   9.949   5.419 -0.2987 -0.4978 -0.2192
  707MOL0     C97437   0.693   9.881   5.369  0.1726 -0.5982 -0.4156
  707MOL0     C97438   0.787  10.000   5.364  0.1196  0.9695 -0.0970
  707MOL0     C97439   0.929   9.950   5.323 -0.2951 -0.1185 -0.9186
  707MOL0     C97440   1.027  10.065   5.312  0.4826  0.6980  0.2182
  707MOL0     C97441   1.159  10.013   5.260 -0.9230 -0.7813  0.7316
  707MOL0     C97442   1.263  10.128   5.237  0.7012 -0.4073 -0.3784
  707MOL0     C97443   1.391  10.058   5.170  0.2796 -0.7487 -0.1459
  707MOL0     C97444   1.464   9.963   5.257 -0.1976  0.0817  0.6040
  707MOL0     N97445   1.612   9.962   5.236  0.4616  0.2121 -0.2570
  707MOL0     C97446   1.703  10.054   5.271  0.2098 -0.4915  0.5722
  707MOL0     C97447   1.823  10.009   5.222  0.3603 -0.2071  0.3658
  707MOL0     C97448   1.969  10.051   5.228  0.3758  0.1702  1.3673
  707MOL0     C97449   2.063   9.930   5.230 -0.2696 -1.3948  0.0295
  707MOL0     C97450   2.201   9.971   5.279 -0.1101 -0.6842 -0.3571
  707MOL0     C97451   2.223   9.943   5.429 -0.1227 -0.1207 -0.0943
  707MOL0     O97452   2.329  10.019   5.479  0.1107  1.1271  0.0307
  707MOL0     C97453   2.454   9.989   5.431 -0.6257  0.1421 -0.8523
  707MOL0     C97454   2.536  10.087   5.373 -1.0547  0.0147 -0.3774
  707MOL0     C97455   2.668  10.060   5.335 -0.5128  0.6242 -0.8785
  707MOL0     C97456   2.754  10.173   5.280  0.5279  0.2305  1.1696
  707MOL0     C97457   2.712   9.924   5.352  0.6856  0.1029 -0.4609
  707MOL0     C97458   2.849   9.879   5.310 -0.5192 -0.0814  0.6220
  707MOL0     O97459   2.911   9.801   5.401 -0.1978  0.1144  0.0609
  707MOL0     C97460   3.012   9.716   5.354  0.0788 -0.4132  0.0119
  707MOL0     C97461   3.112   9.681   5.445  0.3502 -0.1061  1.4837
  707MOL0     C97462   3.224   9.610   5.402 -0.3850  0.1909  0.3987
  707MOL0     C97463   3.225   9.536   5.283  0.5903 -0.8305  0.6053
  707MOL0     O97464   3.331   9.457   5.261 -0.3395  0.3084  0.5031
  707MOL0     C97465   3.373   9.429   5.126  0.8836 -0.5682 -0.9623
  707MOL0     C97466   3.311   9.286   5.092 -0.0754 -0.8080 -0.3349
  707MOL0     C97467   3.353   9.238   4.953 -0.0724 -0.1176 -0.6896
  707MOL0     C97468   3.273   9.110   4.937  1.2156  0.7145  0.4694
  707MOL0     C97469   3.259   9.061   4.791  0.2755  0.4830 -0.7478
  707MOL0     C97470   3.394   9.002   4.735  0.3754 -0.3268 -0.9261
  707MOL0     C97471   3.394   9.000   4.589  0.1392 -0.1657  0.3291
  707MOL0     C97472   3.477   8.894   4.510 -0.2262  0.0153 -0.4125
  707MOL0    Cl97473   3.645   8.886   4.556  0.1539  0.8984 -0.0631
  707MOL0     C97474   3.125   9.583   5.192 -0.1943  0.5930 -0.6948
  707MOL0     C97475   3.016   9.660   5.226 -0.1439 -0.1795  0.3504
  707MOL0     O97476   2.905   9.929   5.214  0.2073 -1.0301 -0.0528
  707MOL0     C97477   2.624   9.831   5.410  0.3471 -0.0445  1.3040
  707MOL0     C97478   2.498   9.858   5.446 -0.0024  0.3500 -0.0011
  707MOL0     N97479   1.793   9.914   5.128 -0.2320  0.3004 -0.6086
  707MOL0     N97480   1.671   9.873   5.146  0.5517  0.5973  0.8302
  707MOL0     C97481   0.335   9.974   5.374  0.4455  0.0666 -0.2284
  707MOL0     C97482   0.210   9.920   5.336 -0.1472  0.9281 -0.4760
  707MOL0     C97483  -0.058   9.626   5.099 -0.9967  0.8108  0.6586
  707MOL0     C97484  -0.106   9.640   4.966  0.3215  0.6903  0.1752
  707MOL0     C97485  -0.237   9.598   4.924  0.4706 -0.7288  0.4136
  707MOL0     C97486  -0.325   9.542   5.013 -0.2968  0.5177 -0.2871
  707MOL0     O97487  -0.450   9.511   4.967  0.0020 -0.0531 -0.5726
  707MOL0     C97488  -0.530   9.445   5.056  0.4641  0.6705  0.9820
  707MOL0     C97489  -0.652   9.418   4.964  0.7054  0.2055  0.2006
  707MOL0     C97490  -0.622   9.298   4.877 -0.2017 -0.8087  0.6377
  707MOL0     C97491  -0.721   9.288   4.764  0.2573  0.5884 -0.5876
  707MOL0     C97492  -0.830   9.210   4.824 -0.2125  0.7174 -0.4738
  707MOL0     C97493  -0.925   9.151   4.868  0.1050 -0.7510  0.1874
  707MOL0     C97494  -0.278   9.532   5.141 -0.4551 -0.3577 -0.1046
  707MOL0     C97495  -0.146   9.560   5.187 -0.0303  0.9551  0.0977
  707MOL0     C97496  -0.107   9.513   5.321  0.3042  0.0714  0.5433
  707MOL0     H97497   0.290   9.608   5.277 -0.4378 -0.5172  1.7836
  707MOL0     H97498   0.526   9.699   5.354 -0.2195  0.3458 -1.5328
  707MOL0     H97499   0.676   9.839   5.269 -0.5874 -2.0871  0.3023
  707MOL0     H97500   0.725   9.800   5.435  1.7212  2.2068  2.5690
  707MOL0     H97501   0.752  10.065   5.283  0.5170 -2.7303 -3.4793
  707MOL0     H97502   0.802  10.063   5.453  3.2712  0.0860  0.1049
  707MOL0     H97503   0.972   9.884   5.399 -1.2252  1.6093  1.2693
  707MOL0     H97504   0.916   9.895   5.230  0.3055  0.4554 -1.3493
  707MOL0     H97505   0.980  10.147   5.256  0.1867  0.8168  0.6424
  707MOL0     H97506   1.036  10.098   5.416  3.2702 -0.5530  0.4652
  707MOL0     H97507   1.133   9.966   5.164  0.9956  2.3965 -1.5300
  707MOL0     H97508   1.202   9.936   5.325  2.8383  0.5204  0.0047
  707MOL0     H97509   1.208  10.206   5.183  0.2503 -1.2939 -1.2371
  707MOL0     H97510   1.296  10.175   5.330 -2.9592 -0.8388  1.3194
  707MOL0     H97511   1.461  10.136   5.139  1.4437 -0.5052  2.7477
  707MOL0     H97512   1.350  10.013   5.079 -1.1265 -0.8800  0.5354
  707MOL0     H97513   1.447   9.989   5.362  1.2001  0.1330  0.8301
  707MOL0     H97514   1.427   9.861   5.242 -1.0999  0.7286 -2.0212
  707MOL0     H97515   1.689  10.136   5.340  1.5305 -0.0775  0.3911
  707MOL0     H97516   1.989  10.119   5.311 -3.8138  1.3218  1.6261
  707MOL0     H97517   1.988  10.104   5.134 -3.7481 -0.3531  0.0465
  707MOL0     H97518   2.020   9.854   5.296 -1.7465 -1.6823 -1.1890
  707MOL0     H97519   2.069   9.881   5.132 -1.1619  1.3328 -1.5049
  707MOL0     H97520   2.282   9.921   5.225  2.2566  2.8032 -0.3994
  707MOL0     H97521   2.218  10.077   5.256 -0.0800 -1.0841 -2.3580
  707MOL0     H97522   2.136   9.973   5.488 -1.2988 -1.1512 -1.2244
  707MOL0     H97523   2.234   9.835   5.442  0.0661  0.2357  3.9867
  707MOL0     H97524   2.497  10.186   5.350 -0.7204  0.4261  0.7672
  707MOL0     H97525   2.706  10.271   5.288 -1.3708 -0.3602 -1.4911
  707MOL0     H97526   2.781  10.155   5.175 -0.3479  0.5549  0.8790
  707MOL0     H97527   2.851  10.180   5.329  1.2071  2.5359 -0.3528
  707MOL0     H97528   3.107   9.717   5.547 -2.2030 -1.4767  1.8978
  707MOL0     H97529   3.293   9.588   5.483 -1.3940  0.1357  1.2620
  707MOL0     H97530   3.331   9.501   5.055  4.3386  1.2060 -1.4225
  707MOL0     H97531   3.480   9.429   5.103  0.7973 -0.0017 -1.3913
  707MOL0     H97532   3.359   9.233   5.175  1.0517  0.1425 -0.3480
  707MOL0     H97533   3.202   9.292   5.102 -0.2008 -3.5130  0.6839
  707MOL0     H97534   3.455   9.202   4.941  0.1645  0.0551  0.6346
  707MOL0     H97535   3.317   9.315   4.885 -0.6223  1.2795  1.0866
  707MOL0     H97536   3.174   9.130   4.978  1.4784 -1.2231  2.2335
  707MOL0     H97537   3.305   9.030   5.005  0.5016  1.1097  1.2800
  707MOL0     H97538   3.184   8.983   4.775  0.7001  0.3162 -2.0611
  707MOL0     H97539   3.243   9.150   4.729  2.6816  1.8878  0.5360
  707MOL0     H97540   3.408   8.903   4.780 -2.2548  0.0299  0.8675
  707MOL0     H97541   3.471   9.066   4.779 -1.1871 -1.3906  3.9291
  707MOL0     H97542   3.414   9.100   4.549 -0.0409 -0.2986 -0.0956
  707MOL0     H97543   3.289   8.995   4.559 -0.1932 -0.0548  1.4511
  707MOL0     H97544   3.467   8.909   4.402  0.0930 -0.0143 -0.4470
  707MOL0     H97545   3.432   8.796   4.529 -0.5988  0.3337  0.3908
  707MOL0     H97546   3.125   9.552   5.087  1.6323  2.8359 -1.4264
  707MOL0     H97547   2.937   9.674   5.153 -0.0744  1.3194  0.5164
  707MOL0     H97548   2.659   9.729   5.417  6.1303  1.3211 -1.4728
  707MOL0     H97549   2.434   9.783   5.491 -1.3566  0.5657 -1.4898
  707MOL0     H97550   0.346  10.082   5.387  1.0827 -0.0875  0.5750
  707MOL0     H97551   0.128   9.991   5.334 -1.6107 -0.6776  0.3483
  707MOL0     H97552  -0.046   9.693   4.894 -0.1242  0.6203 -0.2556
  707MOL0     H97553  -0.264   9.628   4.824 -1.9475 -1.4419  0.7934
  707MOL0     H97554  -0.480   9.355   5.094  2.4932  0.9493 -0.8503
  707MOL0     H97555  -0.562   9.516   5.133 -0.0752  3.0584 -1.3078
  707MOL0     H97556  -0.687   9.507   4.911 -2.2358  0.6120  2.5343
  707MOL0     H97557  -0.735   9.398   5.032  1.1041 -2.6650 -0.0253
  707MOL0     H97558  -0.532   9.324   4.820  1.4973 -1.6146  2.8093
  707MOL0     H97559  -0.605   9.208   4.936 -0.5367 -0.8648  0.6473
  707MOL0     H97560  -0.679   9.229   4.682  1.5748 -0.9903  1.1601
  707MOL0     H97561  -0.750   9.387   4.727  0.9421  1.6159  1.5178
  707MOL0     H97562  -1.016   9.105   4.900 -1.2994  0.0332 -2.3614
  707MOL0     H97563  -0.343   9.476   5.208 -4.6159  3.4666 -0.4357
  707MOL0     H97564  -0.002   9.488   5.337 -0.0404  0.7082  5.1845
  707MOL0     H97565  -0.124   9.603   5.381  0.5461  1.6213 -1.5679
  707MOL0     H97566  -0.174   9.429   5.341 -0.8653  0.5708 -0.9934
  708MOL0     O97567   2.197  11.050  10.986 -0.4375 -0.1898 -0.1761
  708MOL0     C97568   2.188  11.016  10.870 -0.0117  0.0180 -1.0879
  708MOL0     O97569   2.273  11.063  10.767  1.0848  0.3661  1.2196
  708MOL0     C97570   2.377  11.144  10.791 -0.5728  0.1329 -0.0913
  708MOL0     C97571   2.486  11.115  10.862 -0.3843 -0.7214 -0.8447
  708MOL0     C97572   2.602  11.195  10.856 -0.2967 -0.4278 -0.4002
  708MOL0     C97573   2.606  11.317  10.790 -0.2238 -0.7073  1.0487
  708MOL0     O97574   2.716  11.401  10.769  0.8092  0.5932  0.2796
  708MOL0     C97575   2.697  11.533  10.820 -0.7496  0.3814  0.7178
  708MOL0     C97576   2.805  11.615  10.745 -1.0613 -0.4023 -0.2161
  708MOL0     C97577   2.943  11.572  10.790 -0.0973  0.2285 -0.2617
  708MOL0     C97578   3.052  11.632  10.715 -0.5538  0.7366 -0.3775
  708MOL0     C97579   3.189  11.622  10.788  0.7389  0.2141  0.3030
  708MOL0     C97580   3.312  11.636  10.705 -0.1543 -0.9508  0.6727
  708MOL0     C97581   3.445  11.631  10.778  0.6885 -0.5638 -0.7208
  708MOL0     C97582   3.559  11.661  10.688 -0.5969  0.3465 -0.2926
  708MOL0     N97583   3.693  11.645  10.748 -0.4516 -0.3506  0.2438
  708MOL0     C97584   3.787  11.551  10.701 -0.2967 -0.0393 -0.2600
  708MOL0     C97585   3.900  11.588  10.770  1.0165  0.2328 -0.4919
  708MOL0     C97586   4.038  11.528  10.738  0.3745 -0.3142  0.3389
  708MOL0     C97587   4.071  11.544  10.593 -1.2707  0.6441 -0.0055
  708MOL0     C97588   4.226  11.514  10.575 -0.5825  0.1267  0.1808
  708MOL0     C97589   4.289  11.559  10.436 -0.1507 -0.9965 -0.6260
  708MOL0     O97590   4.284  11.704  10.437 -0.5519  0.1739  0.7883
  708MOL0     C97591   4.390  11.769  10.492 -1.0849  0.0901  0.7068
  708MOL0     C97592   4.377  11.843  10.607  0.3740 -0.3599  0.1134
  708MOL0     C97593   4.482  11.902  10.671  0.4003 -0.4343 -0.3965
  708MOL0     C97594   4.447  11.976  10.810 -0.1145 -0.0533  0.9614
  708MOL0     C97595   4.616  11.887  10.617  0.2958  0.3926  0.2226
  708MOL0     C97596   4.745  11.932  10.678 -0.0922  0.2901  0.2333
  708MOL0     O97597   4.870  11.897  10.623  0.4736 -0.1794  1.0165
  708MOL0     C97598   4.986  11.929  10.690 -0.4234 -0.1442 -0.1714
  708MOL0     C97599   5.007  11.933  10.831 -0.8453  0.2579  0.3000
  708MOL0     C97600   5.136  11.967  10.875  1.0185  0.3172 -1.2162
  708MOL0     C97601   5.246  11.984  10.790  0.0473 -0.0424 -0.5104
  708MOL0     O97602   5.380  11.993  10.831 -0.6517 -0.3637 -0.6121
  708MOL0     C97603   5.392  12.022  10.973  0.5900 -0.2948  0.2437
  708MOL0     C97604   5.534  12.074  10.986  0.2988  0.0519 -0.2581
  708MOL0     C97605   5.616  11.948  11.023  0.3396 -0.0963  0.3992
  708MOL0     C97606   5.762  11.972  11.061 -0.0824 -0.1852 -0.2533
  708MOL0     C97607   5.801  12.069  11.177 -0.4006 -0.1505 -0.8691
  708MOL0     C97608   5.737  12.027  11.313  0.5662  0.1856  0.9358
  708MOL0     C97609   5.777  12.128  11.420  0.4127 -0.1967 -0.0911
  708MOL0     C97610   5.727  12.087  11.557 -0.8755 -0.8824 -0.3608
  708MOL0    Cl97611   5.758  12.229  11.674  0.0600 -0.0694  0.2915
  708MOL0     C97612   5.229  11.966  10.657  1.2583 -0.6448  0.2867
  708MOL0     C97613   5.101  11.937  10.613 -0.4373 -0.7835  0.1706
  708MOL0     O97614   4.731  11.990  10.790  0.2336  0.1273  0.7130
  708MOL0     C97615   4.626  11.819  10.493 -0.0527  0.2960 -0.1002
  708MOL0     C97616   4.515  11.763  10.429 -0.2547 -0.3016  0.3366
  708MOL0     N97617   3.867  11.683  10.873 -0.3579  0.0951 -0.4034
  708MOL0     N97618   3.754  11.726  10.844  0.0684 -0.1212  0.3756
  708MOL0     C97619   2.488  11.347  10.712  0.2868 -0.0807  0.9164
  708MOL0     C97620   2.374  11.266  10.720 -0.3640  0.1606 -0.1761
  708MOL0     C97621   2.067  10.935  10.831 -0.1644 -0.1900  1.1099
  708MOL0     C97622   2.047  10.927  10.693  0.3565 -0.6087 -0.5799
  708MOL0     C97623   1.941  10.859  10.638 -0.3421  0.6523  0.0283
  708MOL0     C97624   1.848  10.794  10.719 -0.0499  0.7353  0.4802
  708MOL0     O97625   1.754  10.720  10.651 -0.1212  0.3859 -0.2661
  708MOL0     C97626   1.653  10.653  10.722  0.8448 -0.4989 -0.1626
  708MOL0     C97627   1.530  10.637  10.635  0.1390  0.3843  0.6764
  708MOL0     C97628   1.419  10.541  10.695  0.4766 -0.2770  0.0282
  708MOL0     C97629   1.288  10.558  10.605  0.0053  0.4707  0.5967
  708MOL0     C97630   1.304  10.546  10.456 -0.1246 -0.2774  0.9276
  708MOL0     C97631   1.327  10.556  10.334  0.2900 -0.0251  0.5300
  708MOL0     C97632   1.861  10.811  10.856 -0.2831 -0.1923 -0.9196
  708MOL0     C97633   1.969  10.872  10.913  0.2200  0.1692 -1.3300
  708MOL0     C97634   1.989  10.868  11.067 -0.3438  0.4470  0.0266
  708MOL0     H97635   2.490  11.023  10.920 -1.8927  0.4152  1.2136
  708MOL0     H97636   2.687  11.158  10.914 -0.5699 -3.3514 -1.7138
  708MOL0     H97637   2.710  11.526  10.928 -0.0360 -4.9752  0.5963
  708MOL0     H97638   2.602  11.586  10.808 -1.0145  0.6275  3.4299
  708MOL0     H97639   2.794  11.618  10.636 -1.0068  0.8799 -0.2045
  708MOL0     H97640   2.788  11.719  10.774 -1.6392 -0.4529 -0.3764
  708MOL0     H97641   2.960  11.603  10.893 -0.7267  0.7220 -0.3006
  708MOL0     H97642   2.964  11.465  10.786  0.7197  0.3886 -0.4977
  708MOL0     H97643   3.046  11.588  10.615  0.2272  0.7042 -0.4171
  708MOL0     H97644   3.034  11.739  10.701 -1.2262  0.6368 -0.2923
  708MOL0     H97645   3.196  11.524  10.836  2.0055 -1.0424 -2.2559
  708MOL0     H97646   3.191  11.698  10.867  1.3899  0.9689 -0.4202
  708MOL0     H97647   3.312  11.548  10.640 -1.4992 -0.2174 -0.3762
  708MOL0     H97648   3.301  11.732  10.654  1.4317 -1.1137 -0.0512
  708MOL0     H97649   3.451  11.531  10.823 -0.3588  0.2436  1.3484
  708MOL0     H97650   3.452  11.704  10.860  0.2476 -2.1660  0.8011
  708MOL0     H97651   3.554  11.600  10.598  1.1875  3.8899 -3.0442
  708MOL0     H97652   3.552  11.763  10.648  0.9708 -0.5771 -3.1891
  708MOL0     H97653   3.780  11.487  10.614  0.4503  0.6819 -0.8632
  708MOL0     H97654   4.030  11.420  10.756  3.0345 -0.4325  1.2349
  708MOL0     H97655   4.117  11.572  10.799  1.7511 -0.6058 -1.1476
  708MOL0     H97656   4.028  11.467  10.528  1.5481  0.6842 -2.1075
  708MOL0     H97657   4.040  11.644  10.561 -2.5127  0.4295  0.5027
  708MOL0     H97658   4.284  11.556  10.658  0.6441  1.3053 -1.2213
  708MOL0     H97659   4.247  11.407  10.574  3.3460  0.7813  0.0802
  708MOL0     H97660   4.392  11.522  10.434  0.2052 -0.2843  1.6032
  708MOL0     H97661   4.225  11.527  10.353  0.5656  1.9240 -2.4880
  708MOL0     H97662   4.280  11.870  10.647  1.3384  0.5525  1.9730
  708MOL0     H97663   4.482  11.934  10.905  3.3036  2.9280  1.2625
  708MOL0     H97664   4.338  11.975  10.811 -0.2126 -0.0092 -1.8978
  708MOL0     H97665   4.488  12.078  10.808  1.5160 -0.4329  5.0321
  708MOL0     H97666   4.933  11.911  10.907 -1.5943  0.5007 -0.3418
  708MOL0     H97667   5.133  11.997  10.979 -3.1265  2.7201 -1.8221
  708MOL0     H97668   5.318  12.095  11.005 -1.5290 -2.6453  1.0545
  708MOL0     H97669   5.372  11.939  11.042 -1.0860  0.4039  0.6354
  708MOL0     H97670   5.568  12.129  10.898 -0.1863 -0.9760 -1.1004
  708MOL0     H97671   5.526  12.153  11.062 -1.7670 -1.8641  1.6511
  708MOL0     H97672   5.609  11.878  10.939  2.5596 -0.7952  0.7389
  708MOL0     H97673   5.581  11.903  11.116 -1.0578  1.5924  0.7541
  708MOL0     H97674   5.824  12.004  10.977  0.1774  1.4156  0.5050
  708MOL0     H97675   5.803  11.877  11.096  2.1914 -0.5928 -3.5218
  708MOL0     H97676   5.909  12.075  11.190 -0.6293 -1.3313  2.6012
  708MOL0     H97677   5.766  12.169  11.149 -1.5174 -0.5391 -0.9456
  708MOL0     H97678   5.775  11.927  11.337 -2.0300 -0.9207  0.8750
  708MOL0     H97679   5.628  12.018  11.307  0.5765  0.5839  0.0792
  708MOL0     H97680   5.733  12.226  11.399 -0.0804 -0.5367 -0.6817
  708MOL0     H97681   5.886  12.132  11.426  0.5127 -2.4547  0.7273
  708MOL0     H97682   5.776  11.998  11.599 -0.4321 -1.6827 -2.4536
  708MOL0     H97683   5.620  12.063  11.550 -1.6770  1.2347  2.5638
  708MOL0     H97684   5.312  11.971  10.588  1.6487  3.5086  0.8115
  708MOL0     H97685   5.085  11.926  10.506 -1.2857  0.0381  0.2031
  708MOL0     H97686   4.722  11.821  10.442 -1.1618  1.6006 -2.3177
  708MOL0     H97687   4.526  11.701  10.340 -1.0942  1.4182 -1.0176
  708MOL0     H97688   2.487  11.436  10.648 -0.2781 -0.9307 -0.3082
  708MOL0     H97689   2.291  11.311  10.665  0.1200  1.1794 -0.0906
  708MOL0     H97690   2.115  10.983  10.629  0.1486  1.2606  0.7560
  708MOL0     H97691   1.944  10.848  10.530 -0.7063 -2.7805  0.2560
  708MOL0     H97692   1.694  10.565  10.772 -1.8218 -1.7168  0.0652
  708MOL0     H97693   1.613  10.710  10.805 -0.2742 -1.6359  0.1110
  708MOL0     H97694   1.554  10.585  10.543 -1.4320  1.1586 -0.2177
  708MOL0     H97695   1.496  10.740  10.622  2.8495  1.2232 -0.6021
  708MOL0     H97696   1.453  10.437  10.688 -2.2323 -1.2748  0.5274
  708MOL0     H97697   1.402  10.564  10.801  0.5400 -1.9096  0.4083
  708MOL0     H97698   1.250  10.661  10.608  0.2474  0.8728 -3.7478
  708MOL0     H97699   1.214  10.484  10.637 -1.6383  2.4225  1.5599
  708MOL0     H97700   1.343  10.554  10.228 -0.3918  2.7267  0.2968
  708MOL0     H97701   1.778  10.770  10.912  1.6831 -1.3326  1.3637
  708MOL0     H97702   1.910  10.801  11.104  1.1767 -2.2198 -1.2261
  708MOL0     H97703   2.086  10.829  11.097 -0.4840  0.1327  0.0813
  708MOL0     H97704   1.981  10.966  11.114  3.0947  2.1272 -2.4369
  709MOL0     O97705   9.490   9.455   8.657 -0.5586  0.7972 -0.6153
  709MOL0     C97706   9.458   9.536   8.573 -1.4414 -0.5475 -0.5728
  709MOL0     O97707   9.545   9.584   8.482 -0.2083  0.3090  0.4958
  709MOL0     C97708   9.674   9.543   8.479 -0.1930 -0.2530  0.3840
  709MOL0     C97709   9.718   9.409   8.474 -0.1132 -0.4703  1.0723
  709MOL0     C97710   9.853   9.378   8.456  0.2293 -0.4978  1.1195
  709MOL0     C97711   9.952   9.477   8.463  0.0774 -0.2393 -0.6375
  709MOL0     O97712  10.093   9.463   8.467 -0.4101 -0.3888 -0.1564
  709MOL0     C97713  10.155   9.334   8.453  0.8932 -0.5007 -0.1474
  709MOL0     C97714  10.313   9.344   8.458 -0.4481  0.3407 -1.3159
  709MOL0     C97715  10.371   9.426   8.343 -0.5248  0.1028  0.2865
  709MOL0     C97716  10.376   9.345   8.202  0.0178 -0.8259  0.6465
  709MOL0     C97717  10.446   9.424   8.083  0.8153  0.3157 -1.3407
  709MOL0     C97718  10.597   9.391   8.076 -0.3711  0.1560 -0.0002
  709MOL0     C97719  10.653   9.472   7.955  0.1575  0.4112  0.1667
  709MOL0     C97720  10.692   9.611   8.002  0.2159 -0.2485  1.2106
  709MOL0     N97721  10.837   9.623   7.970  0.2030 -0.0247  0.4807
  709MOL0     C97722  10.902   9.713   7.887  0.6716 -0.1662  0.1342
  709MOL0     C97723  11.034   9.700   7.914 -0.5118  0.3328  0.2865
  709MOL0     C97724  11.140   9.776   7.835 -1.0729 -0.7524 -0.2174
  709MOL0     C97725  11.218   9.879   7.920  0.3757  0.4825  0.6850
  709MOL0     C97726  11.142  10.009   7.923  0.3831 -0.4341 -0.3034
  709MOL0     C97727  11.212  10.121   7.996 -0.5117  0.5285 -0.3110
  709MOL0     O97728  11.109  10.210   8.047 -0.3849  0.2480  0.1413
  709MOL0     C97729  11.147  10.315   8.133  0.0627 -0.3219  0.0536
  709MOL0     C97730  11.277  10.353   8.167 -0.3097  0.9918 -0.1982
  709MOL0     C97731  11.309  10.454   8.267  0.6939  0.7641 -0.6987
  709MOL0     C97732  11.459  10.488   8.303 -0.2404 -0.3817 -0.2171
  709MOL0     C97733  11.192  10.517   8.330 -0.4154  0.1137 -0.2336
  709MOL0     C97734  11.207  10.614   8.449 -1.0184  0.4365 -0.0669
  709MOL0     O97735  11.098  10.658   8.509  0.7299  0.6111  0.2278
  709MOL0     C97736  11.104  10.759   8.601 -0.5341  0.9071  0.0576
  709MOL0     C97737  11.211  10.820   8.668 -0.4708 -0.4868  0.5621
  709MOL0     C97738  11.191  10.922   8.763 -1.2236 -0.3347  0.0035
  709MOL0     C97739  11.067  10.962   8.798 -0.4115 -0.1723 -0.7224
  709MOL0     O97740  11.023  11.064   8.884 -0.3566 -0.0586 -0.4623
  709MOL0     C97741  11.116  11.080   8.994 -0.1622 -0.0581 -0.4734
  709MOL0     C97742  11.106  10.962   9.092  0.3719 -0.8347 -0.0390
  709MOL0     C97743  11.229  10.973   9.179  0.3010  0.6115 -0.3869
  709MOL0     C97744  11.361  10.929   9.121 -0.5112 -0.7931  0.1652
  709MOL0     C97745  11.470  10.974   9.222  0.5651 -0.0827  0.8379
  709MOL0     C97746  11.609  10.918   9.197 -1.0176 -0.1671 -0.2688
  709MOL0     C97747  11.670  10.949   9.052  0.1335 -0.5489 -0.8488
  709MOL0     C97748  11.814  10.998   9.068  0.8923 -1.4499  0.2787
  709MOL0    Cl97749  11.823  11.161   9.156  0.2453 -0.1305 -0.0164
  709MOL0     C97750  10.961  10.888   8.746  0.2637  0.4393 -0.2093
  709MOL0     C97751  10.973  10.793   8.648  0.4479  0.2996  0.2598
  709MOL0     O97752  11.321  10.647   8.484  0.7205 -0.2073 -0.3701
  709MOL0     C97753  11.063  10.481   8.291 -0.4835 -0.0112  0.0738
  709MOL0     C97754  11.037  10.386   8.191  0.6354 -0.1169  0.0425
  709MOL0     N97755  11.052   9.591   8.002  0.2102 -0.2189  0.5535
  709MOL0     N97756  10.929   9.546   8.031 -0.2124 -0.8570 -0.4877
  709MOL0     C97757   9.905   9.613   8.481 -0.9351  0.6451  0.4249
  709MOL0     C97758   9.768   9.641   8.480  0.2872 -0.0635 -0.2611
  709MOL0     C97759   9.333   9.613   8.592 -0.6455  0.5883  0.3045
  709MOL0     C97760   9.309   9.715   8.492 -0.4775 -0.8765 -0.0402
  709MOL0     C97761   9.191   9.799   8.499  0.2506  0.0933  0.1650
  709MOL0     C97762   9.097   9.769   8.597  0.0695 -0.0220  0.7690
  709MOL0     O97763   8.980   9.843   8.607 -0.5880  0.5172 -0.3116
  709MOL0     C97764   8.961   9.926   8.718 -0.2946 -0.1100 -0.6838
  709MOL0     C97765   8.869   9.864   8.825 -0.3489  0.4080  0.4515
  709MOL0     C97766   8.719   9.907   8.789  0.0310 -0.0261  0.2331
  709MOL0     C97767   8.627   9.845   8.899  0.2762  0.0182  0.5273
  709MOL0     C97768   8.491   9.896   8.874 -0.6018 -0.1143  0.2927
  709MOL0     C97769   8.391   9.942   8.830 -0.3518  0.0495  0.6857
  709MOL0     C97770   9.118   9.671   8.691  0.4131  0.2489 -0.0448
  709MOL0     C97771   9.231   9.591   8.687 -0.0500  0.2055 -0.8002
  709MOL0     C97772   9.235   9.485   8.797  0.1788  0.3378  0.2754
  709MOL0     H97773   9.644   9.329   8.473  0.3438 -0.8969  1.0138
  709MOL0     H97774   9.878   9.272   8.456  0.4806 -0.4815 -1.0962
  709MOL0     H97775  10.128   9.279   8.362  1.8295 -1.3126  0.0427
  709MOL0     H97776  10.128   9.266   8.534 -1.3724  1.2232  0.6201
  709MOL0     H97777  10.341   9.381   8.557  0.7074 -2.6604 -0.4229
  709MOL0     H97778  10.352   9.243   8.446 -3.0565 -0.9193 -0.0479
  709MOL0     H97779  10.314   9.519   8.335  0.4486  0.8684  1.7817
  709MOL0     H97780  10.475   9.453   8.361  0.2543 -0.4102 -2.8547
  709MOL0     H97781  10.423   9.248   8.221 -0.8708 -1.3272  0.3295
  709MOL0     H97782  10.272   9.338   8.170 -1.3443  2.3144  3.7041
  709MOL0     H97783  10.433   9.531   8.100  3.2811  0.4769 -0.0100
  709MOL0     H97784  10.400   9.403   7.986 -2.2138 -0.4553  0.1255
  709MOL0     H97785  10.654   9.413   8.166  0.0778 -0.4697 -0.1251
  709MOL0     H97786  10.590   9.283   8.061  0.8763  0.0540  0.0516
  709MOL0     H97787  10.569   9.488   7.886  0.7121  3.2461  0.0200
  709MOL0     H97788  10.743   9.422   7.920 -1.1171 -2.6231  0.9127
  709MOL0     H97789  10.640   9.689   7.945 -1.0333 -0.0467  2.5493
  709MOL0     H97790  10.674   9.621   8.109  0.4218 -0.0084  1.2225
  709MOL0     H97791  10.848   9.782   7.822 -0.6654  0.5528  1.9025
  709MOL0     H97792  11.090   9.834   7.757 -1.1113 -0.1744  0.2347
  709MOL0     H97793  11.205   9.702   7.787 -0.3940 -1.5844  1.8848
  709MOL0     H97794  11.235   9.847   8.023  1.9262 -1.8203 -0.1833
  709MOL0     H97795  11.319   9.895   7.881 -0.1590 -1.6645 -1.9326
  709MOL0     H97796  11.135  10.044   7.819  1.4920  0.8768  0.0311
  709MOL0     H97797  11.042  10.001   7.967 -0.2050  1.8931 -1.0407
  709MOL0     H97798  11.265  10.087   8.085 -1.1041  4.0005  1.5228
  709MOL0     H97799  11.284  10.169   7.929 -2.3840  2.6136 -0.9628
  709MOL0     H97800  11.354  10.300   8.113 -0.5870  1.5186 -1.1303
  709MOL0     H97801  11.529  10.415   8.260  0.0644 -0.7202  0.8355
  709MOL0     H97802  11.461  10.482   8.412  0.4553  1.4495 -0.0889
  709MOL0     H97803  11.480  10.591   8.273 -0.5061 -0.2395  0.0762
  709MOL0     H97804  11.312  10.794   8.639 -0.4458  0.1580  0.0408
  709MOL0     H97805  11.279  10.973   8.802 -0.8829 -1.4322  0.7279
  709MOL0     H97806  11.220  11.095   8.965 -0.3210  0.3850 -0.8336
  709MOL0     H97807  11.087  11.172   9.044  1.7275 -0.6373  1.8318
  709MOL0     H97808  11.008  10.973   9.139 -0.8064  3.9680 -2.9578
  709MOL0     H97809  11.117  10.863   9.046  0.3557 -1.4225  1.1887
  709MOL0     H97810  11.204  10.923   9.273  1.0269 -1.5408 -1.2556
  709MOL0     H97811  11.242  11.076   9.212  1.4804  0.3094  0.1363
  709MOL0     H97812  11.388  10.985   9.031  1.5517  0.2305  1.3383
  709MOL0     H97813  11.357  10.820   9.112 -1.6936 -0.8244  0.8934
  709MOL0     H97814  11.492  11.081   9.230 -2.4983  0.5678  1.5655
  709MOL0     H97815  11.446  10.934   9.321  2.7789 -0.6061  1.2304
  709MOL0     H97816  11.591  10.811   9.212 -0.0360 -0.6422 -2.1309
  709MOL0     H97817  11.674  10.943   9.281 -0.0261 -0.3472 -0.9638
  709MOL0     H97818  11.603  11.013   8.994  0.6097  0.5262 -0.2678
  709MOL0     H97819  11.674  10.854   8.999  2.6946 -1.3206  0.5084
  709MOL0     H97820  11.853  11.010   8.966 -0.8356 -2.5665 -0.5597
  709MOL0     H97821  11.871  10.922   9.121  1.7981 -1.0846 -0.1588
  709MOL0     H97822  10.862  10.919   8.778 -0.9198  0.1357 -3.1962
  709MOL0     H97823  10.889  10.750   8.594  0.3061  1.6059 -0.5966
  709MOL0     H97824  10.989  10.553   8.325  1.3249  1.2825  1.5230
  709MOL0     H97825  10.936  10.370   8.155  0.4444 -0.4005  0.6782
  709MOL0     H97826   9.980   9.691   8.494  1.5576 -1.1234 -2.0421
  709MOL0     H97827   9.731   9.743   8.485 -1.0303 -0.4554 -1.5042
  709MOL0     H97828   9.384   9.718   8.413 -0.4862 -4.0947 -0.3034
  709MOL0     H97829   9.166   9.878   8.429  2.1764 -0.1255 -0.8451
  709MOL0     H97830   9.056   9.956   8.763 -1.1328  1.2282  0.3041
  709MOL0     H97831   8.930  10.023   8.677 -2.9910 -1.3829 -1.9356
  709MOL0     H97832   8.893   9.913   8.920  0.9059 -0.1663  0.4524
  709MOL0     H97833   8.883   9.757   8.843  0.7168  0.2881 -0.9854
  709MOL0     H97834   8.719  10.017   8.790  3.3204  0.1858 -2.8268
  709MOL0     H97835   8.697   9.861   8.692  1.6973  1.2091 -0.7889
  709MOL0     H97836   8.665   9.887   8.992  0.6647  0.2776  0.2506
  709MOL0     H97837   8.637   9.736   8.904 -0.5520 -0.0824  0.1966
  709MOL0     H97838   8.297   9.958   8.781 -0.2014  2.3196  0.9992
  709MOL0     H97839   9.046   9.654   8.770  1.9668 -1.2001  1.1220
  709MOL0     H97840   9.250   9.389   8.748 -0.2742  0.7662 -0.7332
  709MOL0     H97841   9.318   9.505   8.865 -0.4140 -0.2493  1.1852
  709MOL0     H97842   9.150   9.468   8.863  1.6626 -0.1293  2.1382
  710MOL0     O97843   5.876   3.206   0.004  0.1124 -0.1278  0.7170
  710MOL0     C97844   5.909   3.165  -0.113  0.3681  0.3741 -0.4989
  710MOL0     O97845   5.827   3.093  -0.192 -1.3981  0.1568 -0.5847
  710MOL0     C97846   5.709   3.073  -0.134 -0.4222  0.4347  0.4957
  710MOL0     C97847   5.604   3.162  -0.160  0.7626  0.4231 -0.1951
  710MOL0     C97848   5.473   3.137  -0.109 -0.3082  0.1435 -0.4432
  710MOL0     C97849   5.458   3.028  -0.022  0.0187  0.9197 -0.0712
  710MOL0     O97850   5.350   2.979   0.049 -0.1349 -0.6535  0.1324
  710MOL0     C97851   5.228   3.046   0.029  0.4893  0.1102 -0.2962
  710MOL0     C97852   5.224   3.166   0.134  0.2725 -0.2681 -0.1123
  710MOL0     C97853   5.241   3.116   0.281  0.0505  0.5327 -0.6725
  710MOL0     C97854   5.189   3.218   0.386  0.5341 -0.1798 -0.3361
  710MOL0     C97855   5.191   3.187   0.536 -0.0079  0.7645 -0.4039
  710MOL0     C97856   5.325   3.172   0.603  0.1937  0.0329 -0.2675
  710MOL0     C97857   5.320   3.176   0.757 -0.0450 -0.1962  0.1436
  710MOL0     C97858   5.445   3.132   0.820 -0.4187 -0.5394  0.6972
  710MOL0     N97859   5.406   3.104   0.960  0.2625  0.3060 -1.3927
  710MOL0     C97860   5.437   2.986   1.028  0.8539  0.0892  1.2018
  710MOL0     C97861   5.363   2.984   1.141 -0.2230 -0.5545  0.0111
  710MOL0     C97862   5.365   2.878   1.245  0.4807  0.4710  0.3533
  710MOL0     C97863   5.504   2.867   1.307  0.4091 -0.3303  0.0989
  710MOL0     C97864   5.510   2.786   1.434 -0.2945  0.4497 -1.0025
  710MOL0     C97865   5.425   2.662   1.434  0.1653  0.4558 -0.3864
  710MOL0     O97866   5.455   2.574   1.327 -0.0856 -0.2274  0.2296
  710MOL0     C97867   5.566   2.496   1.351 -0.5139 -0.8513  0.3133
  710MOL0     C97868   5.651   2.499   1.241 -0.1082  0.3202 -0.0445
  710MOL0     C97869   5.757   2.410   1.233  0.1917  0.0185 -0.0342
  710MOL0     C97870   5.855   2.431   1.123 -0.4424 -0.3751  0.0830
  710MOL0     C97871   5.783   2.325   1.338 -0.6764 -0.4958 -0.0357
  710MOL0     C97872   5.899   2.232   1.343  0.2768 -0.6268  0.1829
  710MOL0     O97873   5.943   2.196   1.470 -0.2614 -0.1675  0.1129
  710MOL0     C97874   6.026   2.092   1.467  0.2837 -0.3408 -0.1118
  710MOL0     C97875   5.973   1.965   1.472  0.5788 -0.2524 -0.2755
  710MOL0     C97876   6.051   1.854   1.498  0.7833 -0.3076  0.2517
  710MOL0     C97877   6.187   1.861   1.496  0.2502 -0.5668  0.2672
  710MOL0     O97878   6.276   1.755   1.505 -0.5303  0.3105  0.6268
  710MOL0     C97879   6.239   1.622   1.454 -0.9802 -0.0421 -0.3818
  710MOL0     C97880   6.212   1.536   1.579  0.2345 -0.4080  0.3873
  710MOL0     C97881   6.328   1.482   1.666 -0.5221 -1.2622 -0.1134
  710MOL0     C97882   6.388   1.356   1.595 -0.0246 -0.0407  0.3307
  710MOL0     C97883   6.529   1.325   1.657  0.2012 -0.0204  0.4246
  710MOL0     C97884   6.640   1.431   1.628  0.8264  0.2361  0.5715
  710MOL0     C97885   6.760   1.383   1.709 -0.4783  0.4848 -0.3821
  710MOL0     C97886   6.882   1.463   1.683  0.2284  0.6825 -0.1542
  710MOL0    Cl97887   7.015   1.437   1.812 -0.1400 -0.1965 -0.2518
  710MOL0     C97888   6.247   1.986   1.497  0.6726  0.4753  1.1298
  710MOL0     C97889   6.169   2.105   1.499  0.8896 -1.0056 -0.2147
  710MOL0     O97890   5.945   2.194   1.236 -0.2927 -0.2649 -0.5837
  710MOL0     C97891   5.697   2.333   1.449  0.7569 -1.1927 -0.2801
  710MOL0     C97892   5.590   2.411   1.457 -0.3090 -0.2447 -0.8050
  710MOL0     N97893   5.307   3.109   1.154 -1.0539 -0.8855 -0.6896
  710MOL0     N97894   5.338   3.175   1.048  0.0269  0.2487 -0.6664
  710MOL0     C97895   5.566   2.944   0.011 -0.3495 -1.0350  0.3080
  710MOL0     C97896   5.693   2.957  -0.055 -0.2072 -0.2341 -1.0790
  710MOL0     C97897   6.048   3.188  -0.170 -0.6183 -1.2855 -0.3072
  710MOL0     C97898   6.074   3.155  -0.308  0.1784 -0.3469  0.1718
  710MOL0     C97899   6.198   3.171  -0.368  0.0563 -0.7902 -0.1106
  710MOL0     C97900   6.299   3.228  -0.292 -0.3857 -0.0046  0.0515
  710MOL0     O97901   6.427   3.250  -0.335 -0.6342 -1.1760  0.4503
  710MOL0     C97902   6.458   3.228  -0.470  0.9557  0.3634 -0.2285
  710MOL0     C97903   6.574   3.307  -0.502  0.4362  0.0509  0.7320
  710MOL0     C97904   6.641   3.271  -0.636 -0.1985  0.7360 -0.0985
  710MOL0     C97905   6.556   3.316  -0.760 -0.0031  0.0447 -0.5579
  710MOL0     C97906   6.521   3.460  -0.754  0.3611 -0.0806 -0.0531
  710MOL0     C97907   6.487   3.580  -0.756 -0.2088 -0.3301  0.2098
  710MOL0     C97908   6.277   3.255  -0.158  0.4936 -0.2803 -0.5199
  710MOL0     C97909   6.160   3.226  -0.087 -0.1928  0.5232 -0.6586
  710MOL0     C97910   6.151   3.247   0.057 -0.1375  0.3006  0.0799
  710MOL0     H97911   5.626   3.240  -0.231 -3.2325  1.0055 -1.0499
  710MOL0     H97912   5.391   3.205  -0.131  0.4606  0.3183 -3.1503
  710MOL0     H97913   5.143   2.979   0.049  0.8765 -0.4483 -0.5077
  710MOL0     H97914   5.216   3.087  -0.071 -0.9501  1.2473  0.2961
  710MOL0     H97915   5.300   3.242   0.115 -2.3426  2.4485 -0.6106
  710MOL0     H97916   5.126   3.213   0.118 -1.0327 -2.5444  0.6686
  710MOL0     H97917   5.171   3.032   0.289 -1.6344  2.0223  1.3120
  710MOL0     H97918   5.343   3.084   0.303 -0.4856  0.1460  1.4412
  710MOL0     H97919   5.230   3.318   0.368 -0.9546 -0.0472 -3.6494
  710MOL0     H97920   5.085   3.238   0.361  0.7362  0.2856 -0.8220
  710MOL0     H97921   5.130   3.097   0.548  1.3169 -0.3235 -1.4828
  710MOL0     H97922   5.140   3.268   0.589 -0.9163 -1.1228  1.7815
  710MOL0     H97923   5.370   3.078   0.568  1.0936  0.4113 -0.1468
  710MOL0     H97924   5.388   3.252   0.563  2.0246 -1.0321  0.3885
  710MOL0     H97925   5.240   3.106   0.782  0.2298 -1.1208 -1.4085
  710MOL0     H97926   5.300   3.283   0.769  2.7129  1.2663 -4.9695
  710MOL0     H97927   5.490   3.048   0.767 -1.1176  0.2220 -1.1726
  710MOL0     H97928   5.519   3.212   0.813 -0.6725 -0.3603  0.0198
  710MOL0     H97929   5.514   2.922   0.986  1.1812  3.5307 -4.4048
  710MOL0     H97930   5.327   2.784   1.202  0.2827  1.7599 -2.5470
  710MOL0     H97931   5.293   2.901   1.324  1.8964 -1.8132  2.4545
  710MOL0     H97932   5.578   2.827   1.237 -0.2946  0.1158 -0.9330
  710MOL0     H97933   5.524   2.969   1.341  0.6420 -0.4239  0.2362
  710MOL0     H97934   5.614   2.759   1.453 -0.5648 -0.2487 -0.4623
  710MOL0     H97935   5.490   2.843   1.526  1.9768 -2.6618  1.6827
  710MOL0     H97936   5.441   2.609   1.529 -2.4438 -0.1311 -0.2012
  710MOL0     H97937   5.320   2.692   1.442  0.3252  0.6229  1.6577
  710MOL0     H97938   5.618   2.571   1.166 -0.3402 -0.8151 -1.0712
  710MOL0     H97939   5.959   2.441   1.153 -0.9777  0.4901  1.8073
  710MOL0     H97940   5.826   2.517   1.061 -0.5374 -0.5301 -0.0908
  710MOL0     H97941   5.842   2.349   1.052 -2.0986 -0.5412  0.5285
  710MOL0     H97942   5.865   1.960   1.470  0.4119 -2.8908  3.5641
  710MOL0     H97943   6.008   1.755   1.511  2.3454 -1.0460  0.0048
  710MOL0     H97944   6.154   1.614   1.386 -0.4229 -1.5570 -0.9416
  710MOL0     H97945   6.323   1.581   1.397 -2.1662 -1.0935 -1.4452
  710MOL0     H97946   6.145   1.595   1.642  0.4148 -0.1821  0.3677
  710MOL0     H97947   6.153   1.451   1.541 -0.6060  0.2692  0.1301
  710MOL0     H97948   6.295   1.450   1.765 -1.0827 -1.5672 -0.3942
  710MOL0     H97949   6.395   1.567   1.684 -1.5840 -0.5878  0.7885
  710MOL0     H97950   6.402   1.364   1.487  3.0045  1.6258  0.7425
  710MOL0     H97951   6.325   1.270   1.623  0.0244  0.3519  1.7445
  710MOL0     H97952   6.518   1.312   1.765  0.3813  0.8967  0.5576
  710MOL0     H97953   6.555   1.229   1.610 -2.0079 -2.2486  3.3536
  710MOL0     H97954   6.596   1.526   1.661 -0.7013  0.6177 -2.2532
  710MOL0     H97955   6.645   1.442   1.520 -3.4207  3.2794  0.4117
  710MOL0     H97956   6.767   1.278   1.678 -0.9009  0.3898 -0.1634
  710MOL0     H97957   6.739   1.391   1.816 -0.3311  1.1446 -0.3977
  710MOL0     H97958   6.866   1.570   1.692  2.9008  1.0252  1.8921
  710MOL0     H97959   6.914   1.452   1.579 -0.9837  3.4423 -0.9169
  710MOL0     H97960   6.354   1.984   1.515  0.6632 -1.1760  1.1868
  710MOL0     H97961   6.206   2.207   1.506 -1.9501  0.3100 -2.4753
  710MOL0     H97962   5.705   2.272   1.539  2.3629 -0.2721  0.2431
  710MOL0     H97963   5.516   2.392   1.534 -0.1715 -1.7616 -1.0205
  710MOL0     H97964   5.560   2.869   0.090 -0.3684 -1.4457 -0.0829
  710MOL0     H97965   5.773   2.885  -0.041 -1.2334 -1.3101 -0.5490
  710MOL0     H97966   5.996   3.120  -0.374  1.8159 -1.1338 -1.4549
  710MOL0     H97967   6.201   3.170  -0.476  0.5957 -0.8255 -0.0986
  710MOL0     H97968   6.463   3.120  -0.486 -2.3637 -0.0448  0.7122
  710MOL0     H97969   6.375   3.268  -0.528  0.8945 -1.6362 -1.5997
  710MOL0     H97970   6.650   3.285  -0.426  0.4098 -3.6115 -0.1320
  710MOL0     H97971   6.540   3.411  -0.496 -2.3888 -0.5845 -1.8767
  710MOL0     H97972   6.730   3.336  -0.640  2.0140 -2.1521 -2.9251
  710MOL0     H97973   6.671   3.166  -0.637  0.1306  0.7504  2.5431
  710MOL0     H97974   6.467   3.253  -0.770  0.0629 -0.6501  2.3528
  710MOL0     H97975   6.614   3.299  -0.851 -0.3534 -0.7899 -0.6291
  710MOL0     H97976   6.421   3.663  -0.742  1.1782  0.3792  3.6143
  710MOL0     H97977   6.355   3.302  -0.099 -0.7845 -0.1921  1.1983
  710MOL0     H97978   6.074   3.320   0.082 -1.7751 -0.8221 -1.4200
  710MOL0     H97979   6.119   3.156   0.109 -0.3470  1.2168  1.5966
  710MOL0     H97980   6.251   3.278   0.091  0.2572  0.5550 -1.2646
  711MOL0     O97981   7.704   1.426   3.526 -0.1999 -0.0279  0.3525
  711MOL0     C97982   7.654   1.355   3.438 -0.1324  0.8587 -0.0167
  711MOL0     O97983   7.677   1.214   3.428 -0.1264 -0.0304  0.1344
  711MOL0     C97984   7.729   1.150   3.533  0.5757  0.5791  0.4628
  711MOL0     C97985   7.668   1.146   3.654  0.9226 -0.2803  0.3892
  711MOL0     C97986   7.722   1.090   3.768 -0.0674  0.3200  0.2446
  711MOL0     C97987   7.850   1.028   3.757 -0.0137  1.1823  0.2293
  711MOL0     O97988   7.899   0.976   3.876 -0.8695  0.3363  0.1768
  711MOL0     C97989   8.024   0.899   3.869 -0.3978 -1.0935 -0.4298
  711MOL0     C97990   7.976   0.761   3.830 -0.9883 -0.1118  0.2132
  711MOL0     C97991   8.093   0.659   3.826 -0.0061  0.4436 -0.2368
  711MOL0     C97992   8.127   0.616   3.970 -0.4464 -0.1949  0.6583
  711MOL0     C97993   8.243   0.525   3.984 -0.5757 -0.3665  0.3104
  711MOL0     C97994   8.385   0.584   3.950 -0.2047  0.1616 -0.2366
  711MOL0     C97995   8.496   0.484   3.981 -1.0342 -0.5161  0.9443
  711MOL0     C97996   8.620   0.548   3.910 -0.7977 -0.4573  0.5646
  711MOL0     N97997   8.730   0.448   3.907 -0.5358  0.5285  1.0492
  711MOL0     C97998   8.866   0.471   3.934  0.1400 -0.1031 -0.3096
  711MOL0     C97999   8.926   0.352   3.921  0.2413 -0.0785 -0.3893
  711MOL0     C98000   9.071   0.341   3.937  0.1529 -0.2023 -1.1665
  711MOL0     C98001   9.141   0.209   3.923  0.2749  0.6383  0.0010
  711MOL0     C98002   9.087   0.095   3.997  1.0766  0.4560 -0.7254
  711MOL0     C98003   9.161  -0.031   3.976  0.0156 -0.2929  0.5271
  711MOL0     O98004   9.280  -0.048   4.051 -0.3395  0.3309  0.4319
  711MOL0     C98005   9.370  -0.146   4.023 -0.3983 -0.5232  0.2262
  711MOL0     C98006   9.506  -0.136   4.088  0.9215  0.0710  0.1398
  711MOL0     C98007   9.602  -0.233   4.081  0.0970 -0.7128 -0.5450
  711MOL0     C98008   9.729  -0.207   4.165  0.0704  0.3838  0.4607
  711MOL0     C98009   9.581  -0.333   3.991 -0.3760 -0.8308  0.3787
  711MOL0     C98010   9.677  -0.434   3.945  1.0842  0.2510 -0.6779
  711MOL0     O98011   9.633  -0.562   3.931 -0.2510 -0.1167 -0.0171
  711MOL0     C98012   9.709  -0.654   3.860 -0.1063  0.2471  0.3646
  711MOL0     C98013   9.729  -0.784   3.910  0.9468  0.1565  0.3071
  711MOL0     C98014   9.797  -0.883   3.838  0.1928  0.4521 -0.0890
  711MOL0     C98015   9.840  -0.856   3.703 -0.0178 -0.2468 -0.4986
  711MOL0     O98016   9.887  -0.948   3.608  0.2502 -0.5702  0.2993
  711MOL0     C98017  10.004  -1.027   3.651  0.2164 -0.1950 -0.6434
  711MOL0     C98018  10.116  -0.960   3.573  0.2981 -0.8110  1.1810
  711MOL0     C98019  10.248  -1.032   3.591 -0.1160 -0.2207 -0.5513
  711MOL0     C98020  10.337  -0.945   3.685 -0.2305  0.7444  0.5437
  711MOL0     C98021  10.476  -0.999   3.695 -0.1698 -0.1393  0.9060
  711MOL0     C98022  10.574  -0.950   3.595 -0.7286 -0.0433  0.0376
  711MOL0     C98023  10.718  -1.014   3.601  0.8467  0.1510  0.3692
  711MOL0     C98024  10.697  -1.155   3.553 -0.5266 -0.8652  0.3922
  711MOL0    Cl98025  10.839  -1.247   3.586  0.1571  0.0203 -0.1575
  711MOL0     C98026   9.817  -0.730   3.657  0.2157 -0.8439  0.3742
  711MOL0     C98027   9.747  -0.628   3.730 -1.0470  0.2397  0.4133
  711MOL0     O98028   9.792  -0.401   3.924  0.4821 -0.4450  0.5809
  711MOL0     C98029   9.458  -0.343   3.915 -0.4825 -0.8484  0.0609
  711MOL0     C98030   9.353  -0.253   3.928  0.1393  0.2165 -0.0904
  711MOL0     N98031   8.836   0.251   3.876  0.4189  0.3102 -0.3055
  711MOL0     N98032   8.722   0.315   3.870 -0.0544 -0.1518  0.4564
  711MOL0     C98033   7.915   1.025   3.633 -0.6014  0.6644  0.2995
  711MOL0     C98034   7.854   1.093   3.526  0.9046  0.3472  0.4175
  711MOL0     C98035   7.579   1.417   3.330  0.2632  1.1394 -0.4256
  711MOL0     C98036   7.461   1.481   3.370 -0.0097 -0.4146  0.6089
  711MOL0     C98037   7.357   1.514   3.278 -0.4904  0.4713 -0.6357
  711MOL0     C98038   7.384   1.512   3.142 -0.4308 -0.2026 -0.5368
  711MOL0     O98039   7.297   1.543   3.045 -0.2535  0.9125 -0.2306
  711MOL0     C98040   7.171   1.605   3.080  0.0319 -0.0577 -0.5525
  711MOL0     C98041   7.068   1.508   3.133 -0.0091  0.4499 -0.4639
  711MOL0     C98042   6.979   1.575   3.232 -0.4698  0.4683  0.3356
  711MOL0     C98043   6.892   1.673   3.163  0.4239 -1.2259  0.3911
  711MOL0     C98044   6.791   1.613   3.071 -0.3481  0.2745  0.2633
  711MOL0     C98045   6.708   1.561   2.997  0.3651 -0.2471 -0.9697
  711MOL0     C98046   7.512   1.463   3.099  0.7388 -0.7471  0.3475
  711MOL0     C98047   7.605   1.412   3.192 -0.7726  0.3238  0.2349
  711MOL0     C98048   7.718   1.325   3.136 -0.1562  0.1067  0.6920
  711MOL0     H98049   7.568   1.183   3.676  0.3817 -0.7112 -1.2043
  711MOL0     H98050   7.667   1.088   3.862  2.9611 -2.2133  2.1737
  711MOL0     H98051   8.075   0.905   3.966  0.6592  1.7242 -1.0824
  711MOL0     H98052   8.100   0.940   3.803 -0.7615  0.8481  0.2922
  711MOL0     H98053   7.918   0.736   3.919 -1.8191  0.6210 -0.1118
  711MOL0     H98054   7.923   0.777   3.736  1.7627  0.0010 -1.4271
  711MOL0     H98055   8.075   0.570   3.766  0.6472  0.3841 -0.3565
  711MOL0     H98056   8.179   0.699   3.772  1.6620  1.7830  3.1120
  711MOL0     H98057   8.141   0.697   4.042 -1.9647 -0.2504  1.0537
  711MOL0     H98058   8.037   0.562   3.999 -1.4924 -0.0357 -2.0209
  711MOL0     H98059   8.224   0.443   3.913  1.5869 -0.5747 -0.0948
  711MOL0     H98060   8.252   0.490   4.087  1.1452  0.1429  0.3581
  711MOL0     H98061   8.386   0.613   3.844 -0.7385 -2.6978 -1.1025
  711MOL0     H98062   8.398   0.677   4.006  2.4020 -0.7143  0.7407
  711MOL0     H98063   8.472   0.387   3.938  0.6180 -1.2753  1.6490
  711MOL0     H98064   8.506   0.481   4.090 -0.1503 -1.4470  0.8552
  711MOL0     H98065   8.592   0.563   3.806 -1.8586 -0.2680  0.8660
  711MOL0     H98066   8.660   0.640   3.954  1.6379 -1.0984 -0.1617
  711MOL0     H98067   8.910   0.566   3.963 -1.6175  1.4906 -2.4986
  711MOL0     H98068   9.092   0.380   4.037 -1.9872 -0.2613 -0.6570
  711MOL0     H98069   9.114   0.412   3.864 -2.6976  3.9867  0.8351
  711MOL0     H98070   9.156   0.201   3.815 -1.0211  2.0448 -0.3157
  711MOL0     H98071   9.240   0.218   3.969 -0.5970 -2.5004  2.8701
  711MOL0     H98072   9.086   0.123   4.103 -0.5859 -0.0587 -0.5850
  711MOL0     H98073   8.981   0.086   3.976  0.4071  2.7270  1.2424
  711MOL0     H98074   9.104  -0.119   4.009 -2.4219  1.0532  0.2121
  711MOL0     H98075   9.186  -0.044   3.871  0.7601  0.0057  0.6610
  711MOL0     H98076   9.515  -0.061   4.166 -2.8447  2.0055 -0.9850
  711MOL0     H98077   9.795  -0.155   4.094 -3.0284  1.8768 -1.5568
  711MOL0     H98078   9.764  -0.306   4.197  0.9077  0.4635 -0.1506
  711MOL0     H98079   9.705  -0.148   4.253  1.9241  0.2028  1.1293
  711MOL0     H98080   9.686  -0.810   4.006 -2.8010  1.1301 -0.9266
  711MOL0     H98081   9.830  -0.983   3.862 -0.1361 -0.4374 -2.9195
  711MOL0     H98082  10.037  -1.027   3.755  1.4960 -0.2564 -1.0284
  711MOL0     H98083   9.993  -1.134   3.631  0.0620 -0.6468  1.5704
  711MOL0     H98084  10.104  -0.967   3.464  2.2563  1.6590  0.7224
  711MOL0     H98085  10.134  -0.858   3.607 -0.3981 -0.3511  0.2325
  711MOL0     H98086  10.298  -1.044   3.494  1.4320  3.9183 -0.4429
  711MOL0     H98087  10.232  -1.130   3.636 -2.2896  0.4505  0.2668
  711MOL0     H98088  10.295  -0.956   3.786 -0.3455  1.3035  0.5594
  711MOL0     H98089  10.348  -0.841   3.654  3.1742 -0.3713 -2.7875
  711MOL0     H98090  10.515  -0.961   3.789 -0.7110 -0.4137  1.2485
  711MOL0     H98091  10.480  -1.108   3.690  2.8590 -0.0650 -0.2304
  711MOL0     H98092  10.583  -0.841   3.603 -1.6333  0.1386 -1.0234
  711MOL0     H98093  10.540  -0.957   3.491 -0.6223  0.8182 -0.0702
  711MOL0     H98094  10.769  -1.022   3.698 -0.0466  0.6938  0.8974
  711MOL0     H98095  10.782  -0.965   3.527  0.7502 -0.9237 -0.4378
  711MOL0     H98096  10.675  -1.161   3.446 -3.5804  1.9225  0.6966
  711MOL0     H98097  10.611  -1.204   3.601 -2.8063  2.2794 -0.1416
  711MOL0     H98098   9.835  -0.709   3.552 -0.8023  1.7075  0.6381
  711MOL0     H98099   9.723  -0.530   3.689 -1.3317 -0.0559 -0.1487
  711MOL0     H98100   9.434  -0.422   3.844 -1.4697 -0.5908  0.0951
  711MOL0     H98101   9.260  -0.270   3.874  0.3876  1.0726 -0.8199
  711MOL0     H98102   8.000   0.961   3.609 -0.6552  1.4874 -2.4761
  711MOL0     H98103   7.911   1.087   3.433  0.7009 -3.7337  0.3623
  711MOL0     H98104   7.433   1.492   3.474 -0.0296  3.7194  0.3310
  711MOL0     H98105   7.261   1.548   3.315 -0.4134  0.0365 -0.0207
  711MOL0     H98106   7.188   1.687   3.151 -1.1216 -0.8170  0.6456
  711MOL0     H98107   7.134   1.651   2.988 -1.2293 -1.0979 -0.5960
  711MOL0     H98108   7.103   1.423   3.193 -2.7554 -0.6617 -0.2728
  711MOL0     H98109   7.019   1.459   3.048 -0.1080 -0.5530  0.1462
  711MOL0     H98110   6.921   1.507   3.295  3.8581 -2.7890  1.2483
  711MOL0     H98111   7.040   1.624   3.308 -0.8471 -1.8225  2.2288
  711MOL0     H98112   6.947   1.748   3.105 -0.7836  0.6697  1.5673
  711MOL0     H98113   6.842   1.738   3.236  2.3777  2.8929 -1.5832
  711MOL0     H98114   6.637   1.526   2.925  0.3725 -2.4970  0.0391
  711MOL0     H98115   7.518   1.467   2.991  0.8311 -6.0806 -0.0963
  711MOL0     H98116   7.798   1.314   3.210 -0.1513  1.2480  0.8699
  711MOL0     H98117   7.678   1.225   3.117  0.5641 -0.0060 -0.2958
  711MOL0     H98118   7.767   1.370   3.050  1.9432  0.4278  1.9868
  712MOL0     O98119   7.580   5.084   2.591  0.3217  0.0191 -0.3065
  712MOL0     C98120   7.607   4.975   2.540 -0.0198 -0.3771 -0.9016
  712MOL0     O98121   7.536   4.916   2.429  0.2506 -0.8455 -0.0550
  712MOL0     C98122   7.415   4.972   2.397  0.4550 -0.2891 -0.4517
  712MOL0     C98123   7.308   4.973   2.488  0.9178  0.0021 -0.6426
  712MOL0     C98124   7.185   5.026   2.447  0.7036 -0.0687  0.3208
  712MOL0     C98125   7.168   5.075   2.312  0.8332 -0.3037 -0.8201
  712MOL0     O98126   7.040   5.118   2.275 -0.1519  0.0890 -0.1857
  712MOL0     C98127   6.968   5.194   2.370  0.1745  0.1361  0.3314
  712MOL0     C98128   6.879   5.289   2.298  0.1931  0.8175 -0.5700
  712MOL0     C98129   6.796   5.352   2.408 -0.0974 -0.1150  0.1900
  712MOL0     C98130   6.695   5.445   2.355 -0.5579  0.0782  0.3774
  712MOL0     C98131   6.609   5.503   2.469 -0.6655  0.8868 -0.2969
  712MOL0     C98132   6.509   5.595   2.412  0.4679 -0.4301  0.4624
  712MOL0     C98133   6.449   5.698   2.508 -0.2627 -0.1223 -0.9570
  712MOL0     C98134   6.436   5.843   2.447 -0.1804 -0.2886 -0.0485
  712MOL0     N98135   6.368   5.846   2.318  0.6204  0.2777  0.1403
  712MOL0     C98136   6.241   5.800   2.297  0.2588  0.2435  0.0454
  712MOL0     C98137   6.220   5.843   2.172 -0.0484 -0.5303  0.1235
  712MOL0     C98138   6.083   5.846   2.104 -0.2508 -0.1757 -0.4393
  712MOL0     C98139   5.960   5.897   2.192 -0.1016 -0.1744  0.0258
  712MOL0     C98140   5.827   5.852   2.115  0.2814 -0.4638 -0.3358
  712MOL0     C98141   5.807   5.693   2.105 -0.1091  0.0556  0.4121
  712MOL0     O98142   5.830   5.635   2.228  0.0542  0.0584 -0.2813
  712MOL0     C98143   5.904   5.517   2.242  0.1950  0.1174  0.4036
  712MOL0     C98144   5.991   5.518   2.352  0.4738  1.0448 -0.8808
  712MOL0     C98145   6.065   5.405   2.392  0.6595  0.1517 -0.7998
  712MOL0     C98146   6.159   5.417   2.507 -0.7079 -0.3962 -1.0076
  712MOL0     C98147   6.060   5.287   2.302 -1.2028 -0.0776 -0.2156
  712MOL0     C98148   6.151   5.165   2.334  0.0117  0.8048  1.0383
  712MOL0     O98149   6.231   5.156   2.447 -0.6256  0.2829 -1.2686
  712MOL0     C98150   6.333   5.065   2.455 -0.2623 -0.2622 -0.1506
  712MOL0     C98151   6.309   4.943   2.522  0.3621 -0.3556 -0.1058
  712MOL0     C98152   6.411   4.852   2.533  0.0045  0.1895  0.6725
  712MOL0     C98153   6.538   4.876   2.481  0.5455  0.8439  0.1968
  712MOL0     O98154   6.632   4.774   2.492 -0.2047  0.4578  0.4510
  712MOL0     C98155   6.753   4.790   2.421 -0.4796 -0.3292  0.2773
  712MOL0     C98156   6.820   4.660   2.388  0.2336 -0.1902 -0.0738
  712MOL0     C98157   6.950   4.679   2.330 -0.3971 -0.7784  0.2656
  712MOL0     C98158   7.031   4.556   2.349  0.7872 -0.5164 -0.9606
  712MOL0     C98159   7.183   4.587   2.348 -0.1278 -0.6393  0.9199
  712MOL0     C98160   7.257   4.445   2.345  0.6582 -0.4040  0.0579
  712MOL0     C98161   7.411   4.458   2.362  0.4572  0.0947 -0.8481
  712MOL0     C98162   7.482   4.493   2.223  1.5944 -0.1817 -1.0272
  712MOL0    Cl98163   7.656   4.463   2.257 -0.0757  0.0548  0.2444
  712MOL0     C98164   6.564   4.999   2.424 -0.7623  0.8343 -0.3840
  712MOL0     C98165   6.463   5.093   2.414  0.2426 -0.6843  0.3390
  712MOL0     O98166   6.130   5.070   2.263 -0.5692  0.1698 -0.2392
  712MOL0     C98167   5.985   5.289   2.190 -0.8637 -0.4067 -0.1005
  712MOL0     C98168   5.901   5.403   2.167  0.2006 -0.7644  1.0721
  712MOL0     N98169   6.328   5.899   2.119 -0.8790 -0.1470  0.4913
  712MOL0     N98170   6.422   5.895   2.207  0.1190 -0.7609 -0.1398
  712MOL0     C98171   7.271   5.060   2.226 -0.0346 -0.0484  0.2425
  712MOL0     C98172   7.393   5.010   2.266 -0.8562 -0.6795 -0.1314
  712MOL0     C98173   7.690   4.883   2.614  0.4742  0.1638 -0.1103
  712MOL0     C98174   7.675   4.744   2.582  0.2740  0.5685 -0.3606
  712MOL0     C98175   7.767   4.662   2.646 -0.1575 -0.1679  1.0224
  712MOL0     C98176   7.868   4.691   2.726 -0.0679  0.5605  0.5423
  712MOL0     O98177   7.951   4.583   2.763 -0.0921 -0.0348 -0.8493
  712MOL0     C98178   8.054   4.606   2.860 -0.2581  0.3660  0.6449
  712MOL0     C98179   8.121   4.470   2.879  0.3787 -0.1652 -0.1904
  712MOL0     C98180   8.026   4.368   2.945 -1.2206 -0.4297  0.4046
  712MOL0     C98181   8.084   4.227   2.950  0.1897  0.5114 -0.7370
  712MOL0     C98182   8.177   4.216   3.063 -0.0913  0.6354  0.0245
  712MOL0     C98183   8.261   4.209   3.148 -0.3961 -0.3414  0.2131
  712MOL0     C98184   7.890   4.820   2.751 -0.2358 -0.2666 -0.4262
  712MOL0     C98185   7.793   4.922   2.704 -0.2562 -0.7246  0.2219
  712MOL0     C98186   7.822   5.054   2.751  0.4249 -0.8609  0.4062
  712MOL0     H98187   7.315   4.948   2.593 -2.7139  0.9281 -0.0358
  712MOL0     H98188   7.105   5.030   2.519 -0.4410 -1.0069 -0.8407
  712MOL0     H98189   7.022   5.249   2.448 -2.8361 -0.7416  3.2810
  712MOL0     H98190   6.910   5.112   2.414  0.7907 -1.6413 -1.9598
  712MOL0     H98191   6.954   5.362   2.264  1.1286  0.6771  1.0779
  712MOL0     H98192   6.823   5.243   2.216  1.0130 -0.7264 -0.2978
  712MOL0     H98193   6.744   5.272   2.462 -1.0641  1.1294  1.1779
  712MOL0     H98194   6.850   5.419   2.477  1.3980  1.2653 -2.1950
  712MOL0     H98195   6.744   5.523   2.297 -0.7560 -0.2833 -0.2915
  712MOL0     H98196   6.636   5.391   2.280  0.1011  0.8884 -0.7597
  712MOL0     H98197   6.670   5.549   2.548 -0.4866 -0.8699  0.6433
  712MOL0     H98198   6.562   5.418   2.521  0.4850 -0.1715 -0.9439
  712MOL0     H98199   6.554   5.642   2.324  0.4243 -0.1770  0.5722
  712MOL0     H98200   6.434   5.529   2.369  0.4938 -0.1026 -0.0837
  712MOL0     H98201   6.500   5.708   2.604 -1.1695  2.3136 -0.6752
  712MOL0     H98202   6.351   5.663   2.542 -0.4876  1.5108  0.1604
  712MOL0     H98203   6.372   5.893   2.520  0.6027 -2.2637  2.1339
  712MOL0     H98204   6.531   5.897   2.442  0.4331 -1.3640 -0.3629
  712MOL0     H98205   6.173   5.749   2.364  0.4554  2.2034  1.8257
  712MOL0     H98206   6.067   5.744   2.069  1.0714 -0.2736 -0.7950
  712MOL0     H98207   6.099   5.898   2.009 -2.6323  0.1558 -0.7194
  712MOL0     H98208   5.976   5.849   2.288  0.7971 -0.4143 -0.2365
  712MOL0     H98209   5.948   6.006   2.190 -0.8292 -0.2389  0.4801
  712MOL0     H98210   5.737   5.888   2.167  0.6770 -1.3043  0.9807
  712MOL0     H98211   5.804   5.904   2.022 -3.6473 -2.5170 -0.7241
  712MOL0     H98212   5.702   5.668   2.093  0.3048 -1.6589  0.0445
  712MOL0     H98213   5.872   5.635   2.038 -0.2135  0.1408  0.2377
  712MOL0     H98214   5.981   5.603   2.419  0.8603  1.2222 -1.0459
  712MOL0     H98215   6.142   5.336   2.578 -2.9848  1.9987  1.4557
  712MOL0     H98216   6.158   5.506   2.572  3.3492 -0.0748 -1.1314
  712MOL0     H98217   6.261   5.410   2.467  0.5167  2.8292  1.1213
  712MOL0     H98218   6.213   4.919   2.569 -0.1570  0.9921 -0.4262
  712MOL0     H98219   6.374   4.763   2.583  1.1131 -0.7165 -0.0625
  712MOL0     H98220   6.730   4.830   2.322  1.7219  0.3334 -0.0185
  712MOL0     H98221   6.820   4.854   2.478 -0.9599 -1.5705  2.3485
  712MOL0     H98222   6.825   4.615   2.488  0.7525 -1.2773 -0.5680
  712MOL0     H98223   6.750   4.597   2.333 -0.3571 -0.3853  0.8822
  712MOL0     H98224   7.011   4.757   2.374  1.0659  0.7948 -3.9804
  712MOL0     H98225   6.952   4.708   2.224  1.3000 -0.3305  0.3914
  712MOL0     H98226   7.009   4.481   2.273  0.0852 -0.5289 -0.7534
  712MOL0     H98227   7.006   4.516   2.448  0.3946  3.4895  0.7438
  712MOL0     H98228   7.202   4.645   2.257 -1.5579  0.9116  1.5542
  712MOL0     H98229   7.207   4.642   2.439 -1.4126  2.0003 -0.2128
  712MOL0     H98230   7.228   4.387   2.257 -2.7827  0.2146  0.6446
  712MOL0     H98231   7.235   4.390   2.437  2.3115 -1.2706 -0.0347
  712MOL0     H98232   7.465   4.368   2.391  1.0743  1.0016  1.0104
  712MOL0     H98233   7.421   4.533   2.441 -2.1756  0.1581 -0.4956
  712MOL0     H98234   7.441   4.591   2.199  0.5070 -0.1037  0.9714
  712MOL0     H98235   7.442   4.428   2.144  0.2102  0.2874 -0.7415
  712MOL0     H98236   6.661   5.019   2.380 -1.4754 -0.1866 -2.5702
  712MOL0     H98237   6.478   5.184   2.357 -0.3611 -1.8820 -1.8541
  712MOL0     H98238   5.979   5.203   2.124 -0.1961  0.2552 -1.0606
  712MOL0     H98239   5.832   5.405   2.084 -0.2061 -0.9425  1.3993
  712MOL0     H98240   7.269   5.084   2.121  3.1025 -1.9832 -0.3947
  712MOL0     H98241   7.469   4.996   2.190 -0.0881 -0.0487  0.5087
  712MOL0     H98242   7.596   4.690   2.532  0.5064 -2.2392  1.9967
  712MOL0     H98243   7.753   4.557   2.621 -2.8819 -0.2585  2.5431
  712MOL0     H98244   8.124   4.681   2.822 -1.9437  0.8927 -1.6483
  712MOL0     H98245   8.013   4.636   2.956  0.7140 -1.1631  1.5848
  712MOL0     H98246   8.207   4.477   2.946  1.1323 -0.0180 -1.1492
  712MOL0     H98247   8.163   4.433   2.784  2.0746  0.0401  0.4473
  712MOL0     H98248   7.991   4.409   3.040  0.5330 -1.6723  1.6699
  712MOL0     H98249   7.943   4.363   2.875  0.7569 -0.9599 -2.0481
  712MOL0     H98250   8.122   4.203   2.850 -3.5691  0.7382 -2.4188
  712MOL0     H98251   8.001   4.157   2.958  0.9675 -0.6753 -2.4508
  712MOL0     H98252   8.335   4.190   3.223 -1.1124 -0.2753  0.9569
  712MOL0     H98253   7.973   4.838   2.818  0.6393 -5.9910  0.5285
  712MOL0     H98254   7.731   5.104   2.785  1.8599  2.0930  0.1930
  712MOL0     H98255   7.890   5.054   2.837  0.7787 -0.5863  0.1293
  712MOL0     H98256   7.884   5.114   2.683 -1.3871  4.5085  2.9485
  713MOL0     O98257   3.737   5.264  10.790  0.3285  0.1291 -0.7184
  713MOL0     C98258   3.643   5.347  10.794 -0.2044 -0.3478 -0.0351
  713MOL0     O98259   3.665   5.479  10.827 -0.2222  0.0345  0.1121
  713MOL0     C98260   3.794   5.535  10.827  1.0058  0.7032  0.5722
  713MOL0     C98261   3.869   5.534  10.708  0.3141 -0.5324  0.4124
  713MOL0     C98262   3.983   5.611  10.703 -0.4818  0.4544 -0.0691
  713MOL0     C98263   4.028   5.687  10.807 -0.1497 -0.3970 -0.4065
  713MOL0     O98264   4.146   5.772  10.804 -0.4880  0.8124  0.6454
  713MOL0     C98265   4.220   5.761  10.676  0.7534 -1.2168 -0.0190
  713MOL0     C98266   4.348   5.843  10.712  0.4683 -0.0611  0.7124
  713MOL0     C98267   4.437   5.847  10.592 -1.1428 -0.0767 -0.7872
  713MOL0     C98268   4.529   5.961  10.578  0.3487 -0.7389  0.0523
  713MOL0     C98269   4.655   5.932  10.495  0.2569  0.8426 -0.5339
  713MOL0     C98270   4.698   6.054  10.422  0.1961 -0.8133  0.3402
  713MOL0     C98271   4.834   6.041  10.355 -0.6375 -1.6426 -0.0681
  713MOL0     C98272   4.890   6.176  10.325 -1.2793 -0.0797  0.0581
  713MOL0     N98273   5.036   6.180  10.306  0.1266 -0.2673 -0.6407
  713MOL0     C98274   5.110   6.102  10.216  0.3428  0.7887  0.3111
  713MOL0     C98275   5.239   6.143  10.239  0.8949 -0.4195  0.0488
  713MOL0     C98276   5.365   6.071  10.179  0.5857 -0.1406  0.3910
  713MOL0     C98277   5.479   6.173  10.179  0.4293  0.4932  0.0261
  713MOL0     C98278   5.622   6.103  10.200  0.0832 -0.1017  0.0612
  713MOL0     C98279   5.731   6.208  10.179 -0.0011  0.4886 -0.1267
  713MOL0     O98280   5.871   6.168  10.203  0.8491  0.1641 -0.3011
  713MOL0     C98281   5.920   6.074  10.119 -0.1331  0.3901  0.0275
  713MOL0     C98282   6.038   6.011  10.160  0.3809 -0.7010  0.6801
  713MOL0     C98283   6.094   5.907  10.090  0.3238 -0.5899 -0.0199
  713MOL0     C98284   6.233   5.872  10.147  0.5704 -0.4674 -0.1246
  713MOL0     C98285   6.044   5.865   9.963  0.3982 -0.6116  0.4278
  713MOL0     C98286   6.103   5.756   9.878 -0.4693  0.1230 -0.3523
  713MOL0     O98287   6.103   5.778   9.745 -0.0545  0.3824  0.2976
  713MOL0     C98288   6.175   5.700   9.658 -0.6170 -0.6968 -0.9433
  713MOL0     C98289   6.317   5.711   9.667 -0.0206  0.3597  0.0328
  713MOL0     C98290   6.393   5.631   9.571  0.7918 -0.8190  0.4925
  713MOL0     C98291   6.335   5.545   9.474  0.0339 -0.2810 -0.2455
  713MOL0     O98292   6.411   5.460   9.396  0.1455  0.4889 -0.4344
  713MOL0     C98293   6.546   5.472   9.351 -0.2807  0.2621  0.1640
  713MOL0     C98294   6.551   5.547   9.216  0.2399  0.4017 -0.4024
  713MOL0     C98295   6.481   5.471   9.101  0.4154 -0.0324  0.1141
  713MOL0     C98296   6.585   5.382   9.038  0.1265  0.6453  0.1366
  713MOL0     C98297   6.522   5.268   8.946  0.0991  0.0748 -0.9982
  713MOL0     C98298   6.614   5.168   8.877 -0.0477 -0.4462 -0.4645
  713MOL0     C98299   6.534   5.089   8.773 -0.5943  0.5083 -0.0853
  713MOL0     C98300   6.619   4.979   8.718  0.6196  0.3587 -0.2193
  713MOL0    Cl98301   6.528   4.909   8.578  0.1407 -0.1884 -0.5667
  713MOL0     C98302   6.195   5.532   9.475  0.2585 -0.4281  0.1841
  713MOL0     C98303   6.126   5.613   9.562  0.1548  0.7062  0.1032
  713MOL0     O98304   6.160   5.659   9.935 -0.4003 -0.1355 -0.3691
  713MOL0     C98305   5.929   5.936   9.925  0.8333  0.1034 -0.8253
  713MOL0     C98306   5.864   6.028  10.004  0.1424  0.1641  0.2247
  713MOL0     N98307   5.237   6.228  10.346  0.0940 -0.2481 -0.3538
  713MOL0     N98308   5.119   6.261  10.377  0.4123  0.5190 -0.0798
  713MOL0     C98309   3.951   5.692  10.923  0.3592  0.0208  0.8828
  713MOL0     C98310   3.837   5.615  10.935  0.1146  0.2481  0.0241
  713MOL0     C98311   3.509   5.302  10.783  0.3645 -1.0944  0.6959
  713MOL0     C98312   3.489   5.167  10.764  0.2070  0.0368  0.2331
  713MOL0     C98313   3.358   5.115  10.745  0.6118 -0.1140  0.1064
  713MOL0     C98314   3.244   5.191  10.729  0.0290 -0.3708 -0.7664
  713MOL0     O98315   3.116   5.151  10.702 -0.3697  0.9423 -0.2898
  713MOL0     C98316   3.101   5.044  10.612 -0.5493 -0.4150 -0.2684
  713MOL0     C98317   2.965   5.040  10.535 -0.7070  0.7399 -0.5346
  713MOL0     C98318   2.958   5.121  10.400  0.0240 -0.2740  1.2883
  713MOL0     C98319   2.955   5.272  10.427 -0.5685  0.0340 -0.0579
  713MOL0     C98320   2.972   5.338  10.297  0.1407 -0.1414 -0.0347
  713MOL0     C98321   2.970   5.403  10.196 -0.8116  0.1829 -0.0354
  713MOL0     C98322   3.257   5.327  10.762 -0.6035  0.2683 -0.0960
  713MOL0     C98323   3.387   5.386  10.777  0.0309 -0.4747  0.0733
  713MOL0     C98324   3.394   5.531  10.779  0.0246 -0.6630  0.5248
  713MOL0     H98325   3.817   5.477  10.632 -1.1324 -1.8455  2.2774
  713MOL0     H98326   4.045   5.607  10.614  0.5209 -0.9364  0.6660
  713MOL0     H98327   4.164   5.806  10.593  2.9702 -1.3362 -1.6647
  713MOL0     H98328   4.241   5.660  10.639  2.4088 -1.0250  0.3313
  713MOL0     H98329   4.329   5.947  10.738 -1.5851  0.0197 -0.8664
  713MOL0     H98330   4.404   5.802  10.796  1.6399  3.0278  1.5622
  713MOL0     H98331   4.495   5.755  10.584  1.4177  1.4333 -0.5942
  713MOL0     H98332   4.372   5.851  10.503 -0.4960  2.8029 -1.2273
  713MOL0     H98333   4.464   6.036  10.533 -3.0715 -1.7767  2.7797
  713MOL0     H98334   4.561   5.979  10.681 -0.3053 -1.3422  0.3713
  713MOL0     H98335   4.642   5.846  10.428 -1.7967  0.1300  0.6644
  713MOL0     H98336   4.737   5.911  10.565  0.1148 -0.1696 -0.6445
  713MOL0     H98337   4.620   6.077  10.350  0.8183  0.6314  0.0827
  713MOL0     H98338   4.701   6.135  10.496  2.0353  1.1395 -1.7291
  713MOL0     H98339   4.822   5.980  10.265  0.1544 -1.0865 -0.5620
  713MOL0     H98340   4.907   5.988  10.416  4.1045  2.3245 -1.6554
  713MOL0     H98341   4.836   6.229  10.245 -1.3689  1.6486  1.2155
  713MOL0     H98342   4.869   6.239  10.412 -3.0000 -0.4772 -0.0370
  713MOL0     H98343   5.076   6.023  10.151 -0.9984 -0.4662  2.4141
  713MOL0     H98344   5.338   6.063  10.074 -1.4263 -1.0573  0.9215
  713MOL0     H98345   5.384   5.976  10.231  0.5200  0.5029  1.6325
  713MOL0     H98346   5.483   6.210  10.076  1.1667  0.1561 -0.0793
  713MOL0     H98347   5.471   6.254  10.251 -0.9084  1.5269 -1.2236
  713MOL0     H98348   5.626   6.079  10.307  0.7086  0.7515  0.2452
  713MOL0     H98349   5.631   6.014  10.138 -2.1930 -2.4053  2.7614
  713MOL0     H98350   5.724   6.251  10.078  3.8611  2.9299  0.4484
  713MOL0     H98351   5.718   6.295  10.244 -0.3257 -2.8193  4.6954
  713MOL0     H98352   6.090   6.026  10.254  1.6430 -0.7081 -0.0026
  713MOL0     H98353   6.283   5.948  10.208  2.1738 -0.6300 -1.1614
  713MOL0     H98354   6.295   5.854  10.058  1.8118 -0.5713  0.7313
  713MOL0     H98355   6.230   5.778  10.203 -1.9864 -1.2211 -1.4092
  713MOL0     H98356   6.373   5.771   9.737 -0.0211  1.9287 -1.2598
  713MOL0     H98357   6.502   5.629   9.563  0.6431 -1.4379 -2.8189
  713MOL0     H98358   6.606   5.526   9.424  0.3953  1.7141 -1.3878
  713MOL0     H98359   6.590   5.374   9.329  2.6319  1.6133 -0.4987
  713MOL0     H98360   6.506   5.645   9.227 -1.1250  0.1304 -2.8723
  713MOL0     H98361   6.657   5.566   9.197  0.1908  0.7736 -0.2963
  713MOL0     H98362   6.437   5.546   9.034  1.3393  2.7438  2.3655
  713MOL0     H98363   6.404   5.416   9.156  1.3223  1.8635  3.6452
  713MOL0     H98364   6.639   5.327   9.115 -1.2245 -0.4854  0.3284
  713MOL0     H98365   6.656   5.435   8.974 -1.0174  0.7404 -1.1002
  713MOL0     H98366   6.458   5.210   9.013  0.1185 -0.6460 -1.5960
  713MOL0     H98367   6.457   5.310   8.869  1.9214 -0.3549 -2.8506
  713MOL0     H98368   6.668   5.102   8.945  0.6072  1.2803  0.7683
  713MOL0     H98369   6.680   5.236   8.823 -0.1145  0.1435  0.1909
  713MOL0     H98370   6.507   5.153   8.689 -0.3683 -0.2735 -0.7642
  713MOL0     H98371   6.444   5.043   8.815 -0.2056  0.1072  0.3244
  713MOL0     H98372   6.635   4.895   8.786  1.1408  0.4972 -0.1673
  713MOL0     H98373   6.711   5.032   8.692 -0.3848  1.7157 -1.1468
  713MOL0     H98374   6.143   5.472   9.401  0.7458  0.7459 -1.1614
  713MOL0     H98375   6.019   5.594   9.558  0.1421  0.1537  2.2055
  713MOL0     H98376   5.882   5.912   9.830  2.3605 -3.0851 -0.8939
  713MOL0     H98377   5.776   6.070   9.957 -0.1528  0.3502  0.9347
  713MOL0     H98378   3.982   5.740  11.015 -0.6263 -1.0454  1.7837
  713MOL0     H98379   3.778   5.614  11.026 -3.0247  1.0996 -1.8538
  713MOL0     H98380   3.571   5.097  10.774 -0.7147 -0.9810  0.9556
  713MOL0     H98381   3.345   5.008  10.734 -1.0401 -0.0785  1.3177
  713MOL0     H98382   3.185   5.039  10.542 -1.4469 -0.7287 -1.3540
  713MOL0     H98383   3.096   4.956  10.677 -1.5330  0.3522  0.7325
  713MOL0     H98384   2.895   5.086  10.605  0.2744  0.9246  0.3508
  713MOL0     H98385   2.937   4.939  10.504 -3.9750  1.8145 -1.5141
  713MOL0     H98386   3.047   5.097  10.340 -1.4592  1.4833 -1.8908
  713MOL0     H98387   2.868   5.094  10.345  1.5553 -0.9739 -1.0475
  713MOL0     H98388   3.037   5.294  10.496 -0.9109 -1.3364  0.8176
  713MOL0     H98389   2.859   5.296  10.474  0.5402  3.4298  0.7650
  713MOL0     H98390   2.962   5.468  10.111  0.2703  0.2332 -0.1159
  713MOL0     H98391   3.165   5.385  10.763 -0.9508 -0.1434  3.6543
  713MOL0     H98392   3.299   5.583  10.765  0.3822 -0.2136 -0.2763
  713MOL0     H98393   3.419   5.575  10.876 -0.0247 -0.5563  0.4901
  713MOL0     H98394   3.463   5.562  10.700  1.7400 -1.0537  1.8124
  714MOL0     O98395   8.880   9.325  10.610  0.2811 -0.2269  0.7180
  714MOL0     C98396   8.808   9.227  10.574 -0.1247 -0.4725 -0.5487
  714MOL0     O98397   8.855   9.117  10.509  0.1328  0.2323  0.2947
  714MOL0     C98398   8.987   9.103  10.498 -0.5098 -0.1438  0.0265
  714MOL0     C98399   9.053   9.146  10.389 -0.5453  0.1224 -0.3437
  714MOL0     C98400   9.197   9.135  10.380 -0.1143  0.0563 -0.2863
  714MOL0     C98401   9.268   9.071  10.484 -0.3107  0.7057  0.4814
  714MOL0     O98402   9.398   9.038  10.473  0.1666 -0.4376  0.0131
  714MOL0     C98403   9.487   9.107  10.381 -0.1755 -0.0587 -0.6163
  714MOL0     C98404   9.591   9.012  10.352  0.1401  0.7820 -0.6922
  714MOL0     C98405   9.689   9.064  10.251 -0.0653 -0.4794 -0.6747
  714MOL0     C98406   9.775   8.946  10.201  0.2129 -0.6536 -0.0198
  714MOL0     C98407   9.892   8.991  10.113 -0.2855  0.6431 -0.4790
  714MOL0     C98408   9.986   8.880  10.057  0.2247  0.2149 -0.5843
  714MOL0     C98409  10.112   8.942   9.992 -0.4529 -0.1668 -0.4714
  714MOL0     C98410  10.206   8.838   9.925 -0.5471 -0.0663  0.3807
  714MOL0     N98411  10.318   8.907   9.863 -0.0289  0.1777  0.0101
  714MOL0     C98412  10.423   8.976   9.923 -0.3183  0.5430  0.3699
  714MOL0     C98413  10.492   9.038   9.825  0.0131  0.2181 -0.8319
  714MOL0     C98414  10.609   9.123   9.859  0.6941  0.2343 -0.4952
  714MOL0     C98415  10.731   9.083   9.774 -0.1125 -0.2468  0.3478
  714MOL0     C98416  10.834   9.191   9.788 -0.6453 -0.1280 -0.0674
  714MOL0     C98417  10.893   9.211   9.920  0.1089 -0.7536 -0.5187
  714MOL0     O98418  10.995   9.114   9.933  0.9204  0.6588  0.4131
  714MOL0     C98419  11.120   9.145   9.985 -1.2396 -0.4278 -0.1040
  714MOL0     C98420  11.210   9.041   9.989 -0.7067  0.3627 -0.6671
  714MOL0     C98421  11.342   9.047  10.028 -0.6794  0.7151  1.5967
  714MOL0     C98422  11.422   8.919  10.021 -0.2136  0.1445 -0.0746
  714MOL0     C98423  11.389   9.175  10.069  0.0416  0.6624 -0.0107
  714MOL0     C98424  11.516   9.191  10.143 -1.0609 -0.5606  0.3629
  714MOL0     O98425  11.523   9.309  10.213 -0.3277 -0.3489  0.0097
  714MOL0     C98426  11.643   9.346  10.274  1.5300 -0.0659  0.8912
  714MOL0     C98427  11.641   9.377  10.411 -0.1885  0.0515  0.1553
  714MOL0     C98428  11.755   9.420  10.484  0.0718  0.0486  0.8164
  714MOL0     C98429  11.879   9.436  10.429 -0.7624  0.2894  0.3277
  714MOL0     O98430  11.989   9.470  10.503 -0.3108  0.6303  0.0004
  714MOL0     C98431  12.007   9.404  10.635  0.3079  0.4476  0.7097
  714MOL0     C98432  12.136   9.458  10.699 -0.4738  0.9369 -0.9718
  714MOL0     C98433  12.182   9.378  10.820 -0.2517  0.5405  0.8189
  714MOL0     C98434  12.320   9.421  10.873  0.4606  0.5071  0.0086
  714MOL0     C98435  12.329   9.361  11.016 -0.2177 -0.2620  0.0009
  714MOL0     C98436  12.443   9.440  11.087  0.4771 -0.4830 -1.2810
  714MOL0     C98437  12.485   9.375  11.213  0.0304  0.4057  0.8247
  714MOL0     C98438  12.566   9.458  11.305  0.0422 -1.8245 -0.3959
  714MOL0    Cl98439  12.478   9.606  11.349 -0.0848 -0.1223  0.1232
  714MOL0     C98440  11.883   9.407  10.290  0.0949 -0.0566  0.0451
  714MOL0     C98441  11.771   9.359  10.219  0.0772  0.0654  0.7044
  714MOL0     O98442  11.605   9.111  10.151  0.3495 -0.0746 -0.2558
  714MOL0     C98443  11.292   9.287  10.069  0.3879 -0.3080  0.1416
  714MOL0     C98444  11.159   9.270  10.034  0.0457 -0.6536 -0.0508
  714MOL0     N98445  10.430   9.003   9.703  0.1188  0.3794  0.3125
  714MOL0     N98446  10.330   8.928   9.728 -0.3388  0.7159  0.2683
  714MOL0     C98447   9.189   9.006  10.587 -0.1850  0.0533 -0.0781
  714MOL0     C98448   9.054   9.024  10.598  0.0265  0.3050 -0.1214
  714MOL0     C98449   8.660   9.242  10.595 -0.6557 -0.0681 -0.0666
  714MOL0     C98450   8.574   9.179  10.500  0.2729  0.8918  0.0830
  714MOL0     C98451   8.439   9.194  10.508 -0.1111  0.1778  0.2497
  714MOL0     C98452   8.376   9.268  10.608  0.2706  0.8420 -0.5923
  714MOL0     O98453   8.242   9.287  10.627  0.0436 -0.3806  0.6049
  714MOL0     C98454   8.149   9.250  10.517 -0.3351  0.0210 -0.4607
  714MOL0     C98455   8.014   9.320  10.545  0.3275 -0.0564 -0.8076
  714MOL0     C98456   7.907   9.299  10.432 -0.2384  1.0036  0.0028
  714MOL0     C98457   7.807   9.195  10.486 -0.4826  0.1009  0.5479
  714MOL0     C98458   7.704   9.175  10.387 -0.2029  0.4617  0.8658
  714MOL0     C98459   7.620   9.168  10.303 -0.2999  0.2550 -0.4966
  714MOL0     C98460   8.457   9.319  10.703  0.2143  0.0802 -0.3384
  714MOL0     C98461   8.598   9.313  10.695 -0.1620  0.0033  0.3407
  714MOL0     C98462   8.682   9.386  10.805 -0.1488 -0.1676  0.7079
  714MOL0     H98463   8.998   9.206  10.318 -3.8813 -2.1904  0.0553
  714MOL0     H98464   9.260   9.177  10.303  2.1804 -3.1974 -0.4010
  714MOL0     H98465   9.526   9.196  10.432  0.6955 -1.3358  1.0286
  714MOL0     H98466   9.450   9.145  10.285 -1.7713  0.2270  0.0783
  714MOL0     H98467   9.652   8.971  10.433  3.0194 -1.4326 -3.6536
  714MOL0     H98468   9.545   8.921  10.313  0.4731  0.7211 -0.9545
  714MOL0     H98469   9.644   9.116  10.165  0.6421  0.9277 -0.2120
  714MOL0     H98470   9.746   9.146  10.295  0.5181 -1.8836  1.3471
  714MOL0     H98471   9.821   8.898  10.288 -0.8116  1.2477  1.6444
  714MOL0     H98472   9.701   8.882  10.153 -0.1669  0.4142 -0.9107
  714MOL0     H98473   9.945   9.063  10.176 -2.4739 -0.4643  2.8413
  714MOL0     H98474   9.847   9.047  10.030  1.3744  1.0701 -1.1465
  714MOL0     H98475  10.009   8.817  10.144 -0.1894  2.4248  1.2106
  714MOL0     H98476   9.927   8.822   9.985  1.3440  2.3189 -3.3457
  714MOL0     H98477  10.169   9.001  10.064  0.2630  0.4814 -1.5243
  714MOL0     H98478  10.080   9.012   9.914 -0.0919  1.0890  0.4783
  714MOL0     H98479  10.238   8.753   9.987  1.6278 -0.8419 -1.6789
  714MOL0     H98480  10.150   8.807   9.836 -1.0246  2.6720 -0.3386
  714MOL0     H98481  10.441   8.967  10.030 -3.4547  0.6739  1.0044
  714MOL0     H98482  10.630   9.115   9.966  1.0998  2.8594 -0.3267
  714MOL0     H98483  10.589   9.224   9.822  1.4522  0.1303 -1.2320
  714MOL0     H98484  10.772   8.984   9.798 -1.6770 -2.0167 -3.4670
  714MOL0     H98485  10.700   9.078   9.669 -0.4332  0.1302  0.4231
  714MOL0     H98486  10.921   9.162   9.729 -0.2884  0.9514 -0.0975
  714MOL0     H98487  10.794   9.284   9.748 -0.9434  0.0030  0.5226
  714MOL0     H98488  10.926   9.315   9.931 -0.5730 -0.1684 -3.2810
  714MOL0     H98489  10.825   9.191  10.004 -1.9695 -4.2923 -2.8017
  714MOL0     H98490  11.170   8.942   9.967 -0.2909  0.4452 -1.8502
  714MOL0     H98491  11.377   8.835   9.967 -0.2200 -0.8239  1.3778
  714MOL0     H98492  11.442   8.881  10.122 -0.6081  1.2251  0.4222
  714MOL0     H98493  11.520   8.935   9.973  0.6037 -4.3452 -0.3509
  714MOL0     H98494  11.546   9.369  10.464  0.2402  0.4741  1.0084
  714MOL0     H98495  11.749   9.439  10.591 -1.6921 -0.6788  0.8865
  714MOL0     H98496  11.918   9.404  10.700 -1.9048 -0.7216 -2.1296
  714MOL0     H98497  12.024   9.299  10.608 -2.9317  0.1640 -0.7393
  714MOL0     H98498  12.215   9.468  10.624 -1.7593 -0.4378 -2.5599
  714MOL0     H98499  12.104   9.560  10.724  0.6709  1.1509 -0.2897
  714MOL0     H98500  12.186   9.273  10.792 -0.7324  0.8040 -0.2777
  714MOL0     H98501  12.109   9.377  10.902 -0.1406 -2.6724  0.9719
  714MOL0     H98502  12.329   9.530  10.874  1.1338  0.4710 -0.7179
  714MOL0     H98503  12.398   9.379  10.808  1.5351  2.6269 -0.1518
  714MOL0     H98504  12.234   9.377  11.069  0.3436  1.0040  0.6764
  714MOL0     H98505  12.358   9.256  11.005  2.5441  0.3230  0.9303
  714MOL0     H98506  12.397   9.537  11.109  0.9320 -0.1533 -1.7350
  714MOL0     H98507  12.532   9.453  11.024  0.3706 -1.5518 -1.6783
  714MOL0     H98508  12.546   9.292  11.178 -2.6967  0.1853 -4.3713
  714MOL0     H98509  12.403   9.335  11.273 -0.8165  0.3849 -0.3119
  714MOL0     H98510  12.664   9.490  11.267  0.1606 -2.4343 -0.6134
  714MOL0     H98511  12.594   9.403  11.396  1.8013 -0.4643 -0.0470
  714MOL0     H98512  11.977   9.414  10.236  0.3202 -1.5275  0.1971
  714MOL0     H98513  11.781   9.339  10.113 -3.0572 -0.7493  0.4654
  714MOL0     H98514  11.317   9.381  10.118  0.0010  0.1591 -0.5373
  714MOL0     H98515  11.093   9.355  10.049 -0.1102 -0.2327 -2.6191
  714MOL0     H98516   9.243   8.945  10.659  0.1480 -0.9625 -1.1660
  714MOL0     H98517   8.995   8.984  10.680  0.9598 -0.8459  0.0221
  714MOL0     H98518   8.629   9.121  10.427  2.0295  0.0789  1.9593
  714MOL0     H98519   8.380   9.135  10.439 -4.8983  0.5687  3.5112
  714MOL0     H98520   8.186   9.286  10.421 -0.8796 -1.5459 -1.2967
  714MOL0     H98521   8.139   9.141  10.514  0.9031 -0.1307  0.4079
  714MOL0     H98522   8.038   9.426  10.557 -1.7884  0.1716  2.9798
  714MOL0     H98523   7.972   9.293  10.643  0.4260  3.1181  0.2416
  714MOL0     H98524   7.859   9.393  10.401  0.2219  0.8389 -1.2790
  714MOL0     H98525   7.949   9.259  10.339  1.0300  1.3243  0.4204
  714MOL0     H98526   7.758   9.254  10.564  1.3566  1.4611  0.7627
  714MOL0     H98527   7.850   9.103  10.527  0.8517  0.3961 -0.1371
  714MOL0     H98528   7.540   9.170  10.232 -3.5279  2.2166  2.8301
  714MOL0     H98529   8.421   9.377  10.788  2.0361  1.0588 -0.1921
  714MOL0     H98530   8.693   9.490  10.774 -1.5847 -0.4245 -0.8150
  714MOL0     H98531   8.627   9.409  10.897 -0.1101  1.1313  0.4246
  714MOL0     H98532   8.782   9.343  10.819  2.5178  3.4895 -3.9824
  715MOL0     O98533   7.563   4.831   0.716 -0.2089  0.1337  0.7484
  715MOL0     C98534   7.547   4.928   0.783  0.1780 -0.5817  0.6051
  715MOL0     O98535   7.428   4.975   0.825  0.5910  0.4908  0.7159
  715MOL0     C98536   7.314   4.897   0.865  0.0431 -0.1424  0.8310
  715MOL0     C98537   7.225   4.960   0.954  0.1045  0.6934  0.0645
  715MOL0     C98538   7.096   4.910   0.968  0.1645  0.3635  0.2378
  715MOL0     C98539   7.055   4.798   0.896 -0.1554 -0.3513  0.8752
  715MOL0     O98540   6.926   4.747   0.904  0.2915 -0.1660  0.8487
  715MOL0     C98541   6.844   4.762   0.784 -0.4852 -0.7205  0.4390
  715MOL0     C98542   6.702   4.824   0.817 -0.2216 -0.2108  0.0264
  715MOL0     C98543   6.717   4.961   0.877  0.5801 -0.0489 -0.6629
  715MOL0     C98544   6.575   5.009   0.917  0.1089  0.4155  0.4135
  715MOL0     C98545   6.566   5.143   0.992 -0.6863  0.6579  0.1746
  715MOL0     C98546   6.668   5.163   1.112  0.9964  0.0834  0.0075
  715MOL0     C98547   6.641   5.043   1.215  0.5688  0.3764 -0.1532
  715MOL0     C98548   6.728   5.060   1.341 -0.3549 -0.2468 -0.0360
  715MOL0     N98549   6.868   5.016   1.326  0.6078  0.2541 -0.2401
  715MOL0     C98550   6.908   4.898   1.388 -0.0690  1.0381  0.4100
  715MOL0     C98551   7.041   4.901   1.363 -0.9203  0.0333 -0.0370
  715MOL0     C98552   7.147   4.792   1.412 -0.6536  0.3978  0.1680
  715MOL0     C98553   7.100   4.698   1.525  0.4734 -0.2353  1.1694
  715MOL0     C98554   7.212   4.623   1.596 -0.4595  0.0804 -0.6032
  715MOL0     C98555   7.287   4.515   1.513  0.4871 -0.4861 -0.3538
  715MOL0     O98556   7.362   4.558   1.398 -0.9533 -0.2383  0.4650
  715MOL0     C98557   7.466   4.645   1.421 -0.4272  0.6092  0.2005
  715MOL0     C98558   7.502   4.724   1.310  0.7889 -0.2221 -0.1617
  715MOL0     C98559   7.612   4.806   1.311  1.2400 -0.4367  0.3649
  715MOL0     C98560   7.641   4.885   1.177  0.3632  0.5135  0.9795
  715MOL0     C98561   7.678   4.837   1.431  0.9292 -0.0221  0.6147
  715MOL0     C98562   7.791   4.941   1.437 -1.1800  1.2468 -0.1698
  715MOL0     O98563   7.875   4.948   1.333 -0.6134 -0.1529  0.5721
  715MOL0     C98564   7.933   5.077   1.319  0.4532 -0.5981  0.2664
  715MOL0     C98565   7.868   5.183   1.248  0.0457  0.8461  0.2585
  715MOL0     C98566   7.923   5.316   1.250 -0.2906 -0.3678 -1.1226
  715MOL0     C98567   8.043   5.338   1.315 -0.7818 -0.1968  0.4855
  715MOL0     O98568   8.114   5.461   1.319 -0.5197 -0.1301  0.2449
  715MOL0     C98569   8.033   5.573   1.344  0.5092  0.3782  0.0489
  715MOL0     C98570   8.051   5.678   1.453  0.0901  1.6570 -0.3996
  715MOL0     C98571   8.201   5.711   1.464 -0.4597  0.0480  0.6904
  715MOL0     C98572   8.277   5.593   1.526  0.2581  0.8182  0.3266
  715MOL0     C98573   8.419   5.646   1.580  0.8189 -0.6780 -0.2024
  715MOL0     C98574   8.516   5.529   1.563  0.8242 -0.2315 -0.0959
  715MOL0     C98575   8.661   5.557   1.590 -0.4485 -0.0052  0.2569
  715MOL0     C98576   8.748   5.438   1.637 -0.3921  0.1661  0.1749
  715MOL0    Cl98577   8.898   5.498   1.700  0.2512 -0.0258 -0.2155
  715MOL0     C98578   8.104   5.235   1.378 -0.5408 -0.0090 -0.0135
  715MOL0     C98579   8.050   5.107   1.391 -0.1792 -0.8347  0.8483
  715MOL0     O98580   7.798   5.006   1.543  0.0343 -0.1464 -0.4932
  715MOL0     C98581   7.637   4.765   1.545  0.5297  0.1238  0.3102
  715MOL0     C98582   7.540   4.667   1.543 -0.1561 -0.1710  0.3062
  715MOL0     N98583   7.071   5.021   1.297  0.1914 -0.4600  0.3562
  715MOL0     N98584   6.968   5.092   1.282 -0.5473 -0.0109 -0.0674
  715MOL0     C98585   7.138   4.729   0.807  0.8271 -0.8450  0.0136
  715MOL0     C98586   7.269   4.774   0.799  0.5587 -0.0060  0.2534
  715MOL0     C98587   7.659   5.026   0.798 -0.7981 -0.1914  0.9023
  715MOL0     C98588   7.639   5.166   0.807 -0.4948  0.1132  0.7851
  715MOL0     C98589   7.740   5.248   0.817  0.2174  0.0224 -0.6006
  715MOL0     C98590   7.874   5.202   0.837 -0.3616  0.5680  0.1145
  715MOL0     O98591   7.970   5.297   0.859  0.7054 -0.5246 -0.5535
  715MOL0     C98592   8.100   5.254   0.873 -0.8426 -0.5379 -0.1797
  715MOL0     C98593   8.186   5.377   0.881 -0.2629  0.5309  0.2537
  715MOL0     C98594   8.191   5.454   1.019 -0.3814 -0.1902  0.0141
  715MOL0     C98595   8.273   5.580   0.997 -0.4091 -0.1049  0.5489
  715MOL0     C98596   8.411   5.564   0.958  0.2877  0.5755 -0.7138
  715MOL0     C98597   8.523   5.551   0.909 -0.4258 -0.4897  0.1843
  715MOL0     C98598   7.893   5.058   0.824  1.1605 -0.7785  0.4279
  715MOL0     C98599   7.785   4.971   0.810  0.0024 -0.3176 -0.0539
  715MOL0     C98600   7.814   4.824   0.814  0.2256 -0.2053  0.5599
  715MOL0     H98601   7.258   5.049   1.008  0.0101  1.5152 -1.1915
  715MOL0     H98602   7.016   4.947   1.031 -1.2440 -1.5963 -0.2660
  715MOL0     H98603   6.835   4.659   0.747  0.1879 -0.9251  0.8223
  715MOL0     H98604   6.887   4.834   0.714 -1.3541 -2.2681 -1.7819
  715MOL0     H98605   6.642   4.830   0.726  1.0916 -1.2990 -0.9648
  715MOL0     H98606   6.652   4.754   0.883 -3.4154 -0.3495 -2.3219
  715MOL0     H98607   6.784   4.953   0.963  2.4483  0.1157 -2.0407
  715MOL0     H98608   6.766   5.029   0.807 -0.5447  1.6185  0.1184
  715MOL0     H98609   6.517   5.033   0.827 -0.7980 -1.2585  0.4971
  715MOL0     H98610   6.516   4.939   0.977 -2.7380  2.5755  0.3543
  715MOL0     H98611   6.465   5.148   1.034 -0.4618  3.9290  0.5725
  715MOL0     H98612   6.582   5.224   0.920  0.2637  1.1686  0.9400
  715MOL0     H98613   6.771   5.158   1.078  0.2921  1.2890 -2.5804
  715MOL0     H98614   6.657   5.258   1.165  1.0082 -0.7286  1.5332
  715MOL0     H98615   6.673   4.948   1.172  0.7346  0.7339 -0.8361
  715MOL0     H98616   6.538   5.041   1.254 -0.6220  1.8033 -2.9355
  715MOL0     H98617   6.750   5.165   1.366  4.3833 -0.9210 -0.4050
  715MOL0     H98618   6.675   5.008   1.421 -1.2522  0.9074  0.1517
  715MOL0     H98619   6.852   4.814   1.429  1.2512  1.1201  2.4972
  715MOL0     H98620   7.233   4.849   1.447  0.1341 -0.9536  0.4891
  715MOL0     H98621   7.183   4.731   1.329 -1.4416  0.4298 -0.2051
  715MOL0     H98622   7.054   4.767   1.595 -0.9402 -1.8280  1.8903
  715MOL0     H98623   7.016   4.640   1.485  0.5873  0.8775 -0.8578
  715MOL0     H98624   7.279   4.698   1.637 -1.9285 -0.0319  2.3089
  715MOL0     H98625   7.172   4.577   1.687  2.1100  1.5451  1.3911
  715MOL0     H98626   7.349   4.445   1.570 -1.2753 -1.3106  0.6629
  715MOL0     H98627   7.204   4.458   1.469  0.7349  0.1862 -1.7442
  715MOL0     H98628   7.445   4.711   1.218 -0.1591  1.6451  0.1293
  715MOL0     H98629   7.665   4.988   1.204  2.0705  0.5431 -0.4387
  715MOL0     H98630   7.556   4.897   1.109  0.3330  0.7532  1.0598
  715MOL0     H98631   7.725   4.836   1.126  0.3473 -0.4590  1.8430
  715MOL0     H98632   7.776   5.170   1.191  1.0223  1.8843 -1.6316
  715MOL0     H98633   7.876   5.396   1.193 -0.7719  0.3155  0.1834
  715MOL0     H98634   8.009   5.627   1.252 -0.8811  0.6632  0.5491
  715MOL0     H98635   7.932   5.542   1.373  0.2545  0.6570 -0.5258
  715MOL0     H98636   8.001   5.770   1.424 -1.8517  0.3205 -1.5232
  715MOL0     H98637   8.005   5.648   1.548  2.0400  1.0091  0.4025
  715MOL0     H98638   8.213   5.800   1.526 -1.6844  2.3459 -2.1451
  715MOL0     H98639   8.248   5.739   1.369  0.3354  1.3602  1.4298
  715MOL0     H98640   8.293   5.514   1.452 -3.8082 -2.2478  2.3402
  715MOL0     H98641   8.223   5.551   1.611 -0.0112  2.1367  0.8269
  715MOL0     H98642   8.459   5.730   1.522  0.8667 -0.5496  0.0179
  715MOL0     H98643   8.403   5.677   1.683 -0.6366  2.8585 -1.3123
  715MOL0     H98644   8.518   5.481   1.465 -2.1462 -1.2089  0.2399
  715MOL0     H98645   8.482   5.450   1.630  3.6501 -2.2737 -0.8806
  715MOL0     H98646   8.670   5.627   1.673  1.4528  0.0358  0.0492
  715MOL0     H98647   8.707   5.610   1.506 -1.7912  2.0752  0.7532
  715MOL0     H98648   8.769   5.383   1.545 -0.2597 -0.2915  0.4777
  715MOL0     H98649   8.702   5.366   1.705  2.5216 -1.6097  0.4438
  715MOL0     H98650   8.200   5.256   1.425 -1.1192  0.3771  1.0460
  715MOL0     H98651   8.096   5.029   1.451  1.0210 -1.8192 -1.2664
  715MOL0     H98652   7.700   4.778   1.633  0.9381 -4.2791  0.8810
  715MOL0     H98653   7.510   4.613   1.632  1.9786 -1.8187  0.0805
  715MOL0     H98654   7.101   4.642   0.754  0.0460 -1.0502  0.8792
  715MOL0     H98655   7.347   4.735   0.734  3.3625  0.6083  3.0335
  715MOL0     H98656   7.538   5.206   0.811  1.1856  5.0579  0.6508
  715MOL0     H98657   7.718   5.354   0.824  0.2088 -0.0400  0.5816
  715MOL0     H98658   8.117   5.202   0.968  3.6123 -0.1611 -0.5366
  715MOL0     H98659   8.128   5.201   0.782 -0.2189 -0.3860 -0.0845
  715MOL0     H98660   8.151   5.442   0.800 -3.5443 -1.6903 -0.2896
  715MOL0     H98661   8.290   5.346   0.865  0.1471  0.2088  3.0547
  715MOL0     H98662   8.092   5.486   1.054  1.5638  2.1796  4.1077
  715MOL0     H98663   8.230   5.397   1.103 -0.0308  0.6044  0.4064
  715MOL0     H98664   8.267   5.631   1.094 -3.4836 -2.6459  1.8447
  715MOL0     H98665   8.228   5.644   0.920 -1.3241  1.2092  2.1253
  715MOL0     H98666   8.616   5.543   0.857 -1.4969 -0.7565 -1.8070
  715MOL0     H98667   7.996   5.025   0.828  1.3394 -0.4419 -0.8137
  715MOL0     H98668   7.920   4.822   0.841  0.3105 -0.6445  0.2032
  715MOL0     H98669   7.761   4.765   0.889 -0.2657  1.0896  1.2495
  715MOL0     H98670   7.810   4.783   0.713 -2.4205  0.4543  0.3409
  716MOL0     O98671   1.837   1.597   6.722 -0.0412  0.4686  0.2666
  716MOL0     C98672   1.772   1.502   6.680 -0.4666  0.2274 -0.1580
  716MOL0     O98673   1.710   1.410   6.757  0.0802  0.1177 -0.6793
  716MOL0     C98674   1.700   1.445   6.889  1.0261  1.0113 -0.3360
  716MOL0     C98675   1.806   1.414   6.978 -0.1213 -0.4184 -0.5933
  716MOL0     C98676   1.793   1.455   7.114  0.2900  0.3111 -0.6423
  716MOL0     C98677   1.675   1.524   7.161 -0.3326 -0.0197 -0.4110
  716MOL0     O98678   1.665   1.587   7.282 -0.0072  0.1717  0.2480
  716MOL0     C98679   1.774   1.574   7.374 -0.0303  1.7783  0.7861
  716MOL0     C98680   1.738   1.646   7.502 -0.7040  0.2838  0.0856
  716MOL0     C98681   1.865   1.634   7.598 -0.2784  0.0733  0.2899
  716MOL0     C98682   1.849   1.755   7.697 -0.1091  0.1541 -0.0022
  716MOL0     C98683   1.974   1.788   7.778 -0.7287 -0.0201 -0.7241
  716MOL0     C98684   1.952   1.883   7.897 -1.4210 -0.0393 -1.2947
  716MOL0     C98685   2.076   1.937   7.958 -0.6527  0.3452 -0.1984
  716MOL0     C98686   2.141   2.040   7.869 -1.8847  0.2473  0.4793
  716MOL0     N98687   2.256   2.084   7.953  0.5296 -0.6909  0.5535
  716MOL0     C98688   2.257   2.195   8.032  0.5686  0.8421  0.1013
  716MOL0     C98689   2.377   2.219   8.067  0.6455  0.1453  0.3490
  716MOL0     C98690   2.431   2.337   8.141 -0.2220 -0.8431 -0.8157
  716MOL0     C98691   2.344   2.463   8.147  0.2412 -0.0757 -0.1092
  716MOL0     C98692   2.348   2.540   8.006  0.1243 -1.3911 -0.4054
  716MOL0     C98693   2.259   2.658   8.010  0.1712  0.0472 -0.2987
  716MOL0     O98694   2.317   2.743   8.108  0.1162 -0.2180  0.4091
  716MOL0     C98695   2.242   2.843   8.162  0.0151  0.4485  0.2075
  716MOL0     C98696   2.302   2.915   8.260  0.3737  0.2251 -0.1684
  716MOL0     C98697   2.229   3.016   8.329  0.7667  0.1350 -0.8653
  716MOL0     C98698   2.298   3.087   8.441 -0.1380 -0.6202 -0.0680
  716MOL0     C98699   2.100   3.043   8.297  1.2642  0.3505 -0.5109
  716MOL0     C98700   2.019   3.149   8.349  0.2624 -0.0228 -0.2804
  716MOL0     O98701   1.880   3.119   8.374  0.2976 -0.4053 -0.6294
  716MOL0     C98702   1.783   3.222   8.385 -0.1923  0.3287  0.4116
  716MOL0     C98703   1.796   3.322   8.485  0.1171 -0.4879 -0.4619
  716MOL0     C98704   1.694   3.423   8.490 -0.3128 -0.0122  0.2985
  716MOL0     C98705   1.582   3.421   8.411  0.7505 -0.3927  0.9751
  716MOL0     O98706   1.483   3.517   8.414  0.3715 -0.1137  0.2320
  716MOL0     C98707   1.511   3.649   8.444 -0.2832  0.0127  0.2013
  716MOL0     C98708   1.392   3.742   8.436  0.1250 -0.2584  0.7918
  716MOL0     C98709   1.294   3.719   8.549  1.1660  0.2090  0.2861
  716MOL0     C98710   1.160   3.655   8.501  0.0887 -0.3821  0.3044
  716MOL0     C98711   1.075   3.757   8.421 -0.2850  0.5375 -0.2898
  716MOL0     C98712   0.929   3.693   8.388  0.2052 -0.5507 -0.5587
  716MOL0     C98713   0.863   3.787   8.288  0.0337 -0.0318 -0.2971
  716MOL0     C98714   0.716   3.769   8.291 -1.3184  0.7211 -0.0687
  716MOL0    Cl98715   0.646   3.830   8.456 -0.5678 -0.0678 -0.3257
  716MOL0     C98716   1.561   3.306   8.329 -0.4222 -0.0837  0.6158
  716MOL0     C98717   1.659   3.208   8.320  0.0135  0.7441  0.1423
  716MOL0     O98718   2.069   3.259   8.362 -0.5340  0.0142  0.0765
  716MOL0     C98719   2.043   2.976   8.194 -0.2639 -0.1644 -0.1409
  716MOL0     C98720   2.111   2.879   8.131  0.4098 -0.0909  0.9862
  716MOL0     N98721   2.457   2.111   8.032  0.4896 -0.3942  0.4375
  716MOL0     N98722   2.383   2.026   7.960 -0.2140 -0.3665  0.6183
  716MOL0     C98723   1.573   1.543   7.073  0.6796 -0.3546 -0.4094
  716MOL0     C98724   1.589   1.507   6.940  0.0083 -0.2718  0.3526
  716MOL0     C98725   1.753   1.494   6.532  0.1073 -0.1593 -0.9673
  716MOL0     C98726   1.687   1.377   6.482  1.1760 -0.0273 -0.2640
  716MOL0     C98727   1.660   1.369   6.342  0.6798  1.2227 -0.3210
  716MOL0     C98728   1.692   1.468   6.252  2.1810  0.0972 -0.4989
  716MOL0     O98729   1.664   1.441   6.121 -0.0479 -0.3155  0.2041
  716MOL0     C98730   1.597   1.533   6.042  0.5610  0.1126  0.7598
  716MOL0     C98731   1.445   1.521   6.069 -0.4155  0.1087  0.8483
  716MOL0     C98732   1.389   1.562   6.203 -0.0611  0.3726 -0.2712
  716MOL0     C98733   1.234   1.575   6.206 -0.4291 -0.0038 -0.2267
  716MOL0     C98734   1.183   1.643   6.330  0.1220  0.2283  0.5968
  716MOL0     C98735   1.149   1.677   6.444  0.2177  0.3473 -0.0617
  716MOL0     C98736   1.745   1.580   6.297  0.1066 -0.1725  0.0531
  716MOL0     C98737   1.768   1.601   6.438 -0.6398  0.4692  0.1182
  716MOL0     C98738   1.796   1.742   6.489  0.6534  0.6608  0.0101
  716MOL0     H98739   1.896   1.376   6.933  0.1321 -0.2903 -0.2009
  716MOL0     H98740   1.881   1.434   7.173 -0.5693  2.0254  1.4199
  716MOL0     H98741   1.866   1.619   7.335 -0.7819  0.7317 -2.4712
  716MOL0     H98742   1.803   1.470   7.387 -1.5719  1.4860  2.3039
  716MOL0     H98743   1.701   1.744   7.473 -2.5363 -0.7140 -1.1602
  716MOL0     H98744   1.650   1.595   7.542 -1.9763  0.9126 -1.8089
  716MOL0     H98745   1.876   1.547   7.663  0.2983  1.3503  1.9601
  716MOL0     H98746   1.961   1.635   7.546  1.0194 -2.5288  2.4571
  716MOL0     H98747   1.834   1.854   7.651 -1.5910  0.0513  0.2079
  716MOL0     H98748   1.766   1.733   7.765  2.2439 -1.7471  2.4919
  716MOL0     H98749   2.053   1.823   7.711  2.7407  0.3306  3.1559
  716MOL0     H98750   2.014   1.695   7.819  0.1292  0.7759  0.3116
  716MOL0     H98751   1.894   1.969   7.863 -1.1831 -0.1499 -1.9813
  716MOL0     H98752   1.898   1.835   7.980  0.0259 -2.8677 -1.8817
  716MOL0     H98753   2.144   1.854   7.979 -1.8096 -0.7751 -0.7120
  716MOL0     H98754   2.064   1.974   8.060  2.5127 -0.6938  0.6533
  716MOL0     H98755   2.172   1.990   7.777 -0.8979 -1.6366  1.7839
  716MOL0     H98756   2.076   2.122   7.837 -0.0611  1.4455 -0.3411
  716MOL0     H98757   2.168   2.249   8.065 -3.1437 -2.7270 -2.9788
  716MOL0     H98758   2.531   2.367   8.105 -0.7942 -1.5964 -3.2152
  716MOL0     H98759   2.449   2.299   8.242  1.8748  1.1367 -0.3407
  716MOL0     H98760   2.244   2.439   8.187 -0.9444  1.4688 -1.9802
  716MOL0     H98761   2.394   2.537   8.211 -2.1812  1.9414 -0.3783
  716MOL0     H98762   2.451   2.575   7.997 -0.0176 -0.2706  1.5912
  716MOL0     H98763   2.312   2.469   7.932  3.0867 -1.3778 -1.9635
  716MOL0     H98764   2.254   2.714   7.916  1.4763  0.2096 -0.2767
  716MOL0     H98765   2.162   2.612   8.034  1.5775 -2.8667  0.2554
  716MOL0     H98766   2.405   2.891   8.282 -0.4129 -1.5656  1.8745
  716MOL0     H98767   2.325   3.183   8.396  0.0372 -0.9271 -0.6281
  716MOL0     H98768   2.387   3.032   8.472 -1.4220 -2.4162  0.6235
  716MOL0     H98769   2.230   3.083   8.527  0.0890 -0.5185  0.1161
  716MOL0     H98770   1.882   3.328   8.551 -0.8577  1.1277  0.7274
  716MOL0     H98771   1.701   3.497   8.569 -2.3661  1.4090 -0.7560
  716MOL0     H98772   1.558   3.659   8.542  2.1564 -2.1105 -0.6283
  716MOL0     H98773   1.580   3.677   8.364  2.0651 -1.6396  1.5031
  716MOL0     H98774   1.433   3.843   8.447 -1.9788  0.8558 -1.0137
  716MOL0     H98775   1.341   3.729   8.341 -1.5697 -2.9944  1.9686
  716MOL0     H98776   1.275   3.811   8.604 -1.1156 -0.6768  1.0678
  716MOL0     H98777   1.337   3.642   8.614 -1.1295 -1.1972  0.2260
  716MOL0     H98778   1.107   3.630   8.593  0.9224 -0.0732  0.8828
  716MOL0     H98779   1.178   3.562   8.446 -3.8907 -0.1914 -1.6625
  716MOL0     H98780   1.059   3.837   8.493  1.2953  1.3136 -0.7569
  716MOL0     H98781   1.130   3.789   8.332 -1.1380 -1.0685 -1.4443
  716MOL0     H98782   0.873   3.675   8.480  0.2644 -2.7166 -0.8956
  716MOL0     H98783   0.949   3.599   8.336  0.9505  0.0988 -1.4818
  716MOL0     H98784   0.907   3.761   8.192  0.7789 -0.0721  0.0501
  716MOL0     H98785   0.885   3.894   8.299 -0.6133  0.2447 -1.4552
  716MOL0     H98786   0.681   3.666   8.282 -1.2824  0.5971  1.0431
  716MOL0     H98787   0.679   3.821   8.202 -1.5300  0.4905 -0.1180
  716MOL0     H98788   1.467   3.297   8.274  0.1282 -0.1001 -0.3380
  716MOL0     H98789   1.636   3.118   8.264 -0.5494 -0.2388  1.8435
  716MOL0     H98790   1.940   2.996   8.166 -0.2652  1.4338  0.8989
  716MOL0     H98791   2.059   2.820   8.056  3.0450 -2.6050  0.9890
  716MOL0     H98792   1.481   1.583   7.115  0.0573 -2.3553  0.2500
  716MOL0     H98793   1.512   1.527   6.866 -0.0670 -0.2603  0.4346
  716MOL0     H98794   1.662   1.286   6.535 -0.9529 -0.2463 -1.5367
  716MOL0     H98795   1.600   1.285   6.308  0.7201  1.3070 -0.6006
  716MOL0     H98796   1.631   1.637   6.050  1.8696 -0.2994  0.7144
  716MOL0     H98797   1.607   1.491   5.941 -1.3821 -1.2702  1.0973
  716MOL0     H98798   1.423   1.416   6.048 -0.8219 -0.1945  2.6317
  716MOL0     H98799   1.408   1.582   5.986  1.2232 -1.0287 -0.8000
  716MOL0     H98800   1.424   1.495   6.282 -1.0989  2.0065  1.6832
  716MOL0     H98801   1.436   1.656   6.234  1.8074 -0.9244  0.9566
  716MOL0     H98802   1.191   1.476   6.189  1.0759 -0.2170 -3.8524
  716MOL0     H98803   1.193   1.638   6.126  0.3430  1.5613  0.5613
  716MOL0     H98804   1.132   1.723   6.539 -0.6131 -1.4955  0.7235
  716MOL0     H98805   1.758   1.665   6.231  1.4910  0.0623  0.5795
  716MOL0     H98806   1.774   1.803   6.401 -0.8799 -2.0176 -1.6076
  716MOL0     H98807   1.739   1.777   6.575  1.0608  2.8265 -0.5372
  716MOL0     H98808   1.904   1.752   6.502  0.6243  1.9964 -0.5415
  717MOL0     O98809   5.880   6.165   9.345  0.0706  0.8978  0.2515
  717MOL0     C98810   5.789   6.147   9.266 -0.0809  0.4474  0.9320
  717MOL0     O98811   5.775   6.195   9.139  0.1623 -0.2688 -0.0887
  717MOL0     C98812   5.871   6.276   9.084 -0.4195  0.7373  0.1658
  717MOL0     C98813   5.895   6.396   9.149 -0.5751 -0.8809  1.0184
  717MOL0     C98814   5.987   6.489   9.114 -0.5787 -0.2835  0.9551
  717MOL0     C98815   6.076   6.449   9.004  0.1178  0.2231 -0.2246
  717MOL0     O98816   6.164   6.527   8.945 -0.1813  0.2540 -0.6543
  717MOL0     C98817   6.148   6.669   8.953 -0.3175 -0.5927  0.1713
  717MOL0     C98818   6.243   6.728   8.841 -0.9810  0.2887  0.1730
  717MOL0     C98819   6.392   6.685   8.848 -0.2293 -0.1277  0.1537
  717MOL0     C98820   6.460   6.776   8.947  0.6632  0.1008  0.6631
  717MOL0     C98821   6.590   6.709   8.980 -0.0558 -0.3842 -0.5017
  717MOL0     C98822   6.666   6.799   9.076  0.3027 -0.4111  0.0760
  717MOL0     C98823   6.815   6.769   9.086 -0.5126 -0.0829  0.4359
  717MOL0     C98824   6.891   6.870   9.177  0.0419  0.3549  0.2670
  717MOL0     N98825   7.032   6.846   9.152 -0.7569 -0.6647 -1.0142
  717MOL0     C98826   7.107   6.906   9.052  0.1343 -0.1924  1.0554
  717MOL0     C98827   7.225   6.836   9.062 -0.3400 -0.2445 -0.1335
  717MOL0     C98828   7.341   6.861   8.978 -0.1375 -0.0778 -0.0670
  717MOL0     C98829   7.365   6.770   8.865  0.5041 -0.4255  0.4995
  717MOL0     C98830   7.512   6.776   8.807 -0.0106 -0.5978  0.2198
  717MOL0     C98831   7.606   6.703   8.892 -0.6720 -0.2328 -0.4887
  717MOL0     O98832   7.742   6.723   8.842 -0.1159  0.1897 -1.6366
  717MOL0     C98833   7.844   6.646   8.897 -0.5575  0.9396  0.6023
  717MOL0     C98834   7.839   6.531   8.980  0.2052 -0.3069 -0.1040
  717MOL0     C98835   7.959   6.481   9.032  0.0348 -0.3029 -0.1397
  717MOL0     C98836   7.957   6.349   9.116 -0.3040 -0.6357 -1.0818
  717MOL0     C98837   8.085   6.553   9.003 -0.1251  0.2618  0.7549
  717MOL0     C98838   8.221   6.508   9.054 -0.6886  0.4011  0.1294
  717MOL0     O98839   8.331   6.549   8.973 -0.0060 -0.3787  0.4808
  717MOL0     C98840   8.452   6.505   9.019 -0.0061  1.1101  0.2104
  717MOL0     C98841   8.524   6.408   8.951 -0.0271  0.1834  0.1781
  717MOL0     C98842   8.650   6.361   9.008  1.0175 -0.5699 -0.6482
  717MOL0     C98843   8.693   6.420   9.127  0.2810 -0.3252 -0.3309
  717MOL0     O98844   8.803   6.375   9.195 -0.4888 -0.3970  0.8113
  717MOL0     C98845   8.873   6.256   9.141  0.1131  0.4801 -0.3613
  717MOL0     C98846   8.987   6.229   9.244 -0.3383 -0.2011  0.0850
  717MOL0     C98847   9.059   6.098   9.210  0.4414  0.7917 -0.0419
  717MOL0     C98848   9.138   6.059   9.344  0.1378 -0.0674  0.1741
  717MOL0     C98849   9.232   6.158   9.415  0.2332 -0.1268 -0.4942
  717MOL0     C98850   9.339   6.090   9.495 -0.0145  0.4413  0.3700
  717MOL0     C98851   9.472   6.166   9.522  0.2035  0.4230  0.3591
  717MOL0     C98852   9.435   6.301   9.592 -0.2692  0.2165  0.2323
  717MOL0    Cl98853   9.379   6.430   9.475 -0.0338  0.0410 -0.2301
  717MOL0     C98854   8.623   6.526   9.186  0.3844 -0.1045 -1.1722
  717MOL0     C98855   8.503   6.567   9.132 -0.0277  0.3144  0.0168
  717MOL0     O98856   8.228   6.469   9.171  0.0739 -0.3806 -0.0214
  717MOL0     C98857   8.084   6.667   8.932 -0.6307 -0.0654  0.6053
  717MOL0     C98858   7.965   6.709   8.871 -0.1248  0.1141  0.8406
  717MOL0     N98859   7.223   6.745   9.172  0.0082 -0.4086  0.1702
  717MOL0     N98860   7.105   6.761   9.226 -0.3296  0.0939  0.3347
  717MOL0     C98861   6.050   6.332   8.932 -0.2211  0.4822  0.0028
  717MOL0     C98862   5.936   6.253   8.969 -0.2363 -0.4641 -0.1090
  717MOL0     C98863   5.665   6.074   9.307  0.0149  0.5976 -0.0500
  717MOL0     C98864   5.545   6.114   9.245 -0.7089 -0.0777 -0.8168
  717MOL0     C98865   5.423   6.072   9.280  0.2946 -0.5593  0.2370
  717MOL0     C98866   5.408   5.967   9.376 -0.3001  0.4426  0.1991
  717MOL0     O98867   5.294   5.905   9.416  0.2553 -0.3480  0.3537
  717MOL0     C98868   5.173   5.974   9.379  0.4307 -0.5263 -0.0473
  717MOL0     C98869   5.047   5.911   9.454 -0.2095 -1.1866 -0.1363
  717MOL0     C98870   4.931   5.997   9.401  0.0884  0.1268  0.4671
  717MOL0     C98871   4.899   6.144   9.457  0.3168 -0.1830  0.8079
  717MOL0     C98872   4.794   6.217   9.389 -0.0950  0.6213 -0.0239
  717MOL0     C98873   4.708   6.278   9.333 -0.1335 -0.0342 -0.6298
  717MOL0     C98874   5.525   5.921   9.434  0.0096  0.4070  0.4905
  717MOL0     C98875   5.655   5.973   9.409 -1.0548 -0.4283  0.2282
  717MOL0     C98876   5.785   5.915   9.460  0.3559 -0.9934  0.3153
  717MOL0     H98877   5.844   6.424   9.241  1.3198  0.3800  1.7643
  717MOL0     H98878   5.996   6.580   9.172  1.4433 -0.1430  0.5106
  717MOL0     H98879   6.188   6.699   9.051  0.9780  0.6920 -0.7079
  717MOL0     H98880   6.049   6.716   8.944  1.2711  2.9970 -0.3969
  717MOL0     H98881   6.193   6.692   8.751 -0.7035 -0.8740  0.4730
  717MOL0     H98882   6.241   6.838   8.838  3.7167  0.5861  0.7505
  717MOL0     H98883   6.421   6.587   8.886 -0.4616 -0.1798  0.1963
  717MOL0     H98884   6.435   6.688   8.748 -0.2005 -2.4927  0.0421
  717MOL0     H98885   6.475   6.876   8.906 -1.2538  0.3052  0.3395
  717MOL0     H98886   6.398   6.780   9.037  0.0866 -0.7754  0.3221
  717MOL0     H98887   6.652   6.699   8.890 -1.0517  0.7770 -1.3478
  717MOL0     H98888   6.585   6.611   9.030  1.7110 -0.8537 -1.1631
  717MOL0     H98889   6.669   6.902   9.040  3.3916 -0.3939  0.1211
  717MOL0     H98890   6.628   6.794   9.179  1.6448 -2.5372  0.5454
  717MOL0     H98891   6.845   6.783   8.982  1.5231  1.6858  1.1767
  717MOL0     H98892   6.837   6.666   9.113  4.3829  0.9065  1.1425
  717MOL0     H98893   6.869   6.974   9.153  1.5232  0.1702 -2.2379
  717MOL0     H98894   6.858   6.854   9.280 -0.1063 -3.5542 -0.2364
  717MOL0     H98895   7.082   6.987   8.984  5.1321  1.3681  0.6520
  717MOL0     H98896   7.430   6.869   9.042 -0.5841  1.1492  0.4246
  717MOL0     H98897   7.328   6.961   8.935 -0.4092  0.7924  1.9626
  717MOL0     H98898   7.336   6.666   8.882  0.3332 -0.1520  1.9399
  717MOL0     H98899   7.290   6.808   8.795  1.9670  2.4419  0.3419
  717MOL0     H98900   7.522   6.730   8.708  1.4660  0.1804 -0.0148
  717MOL0     H98901   7.559   6.872   8.785  0.6791 -1.1062 -0.5840
  717MOL0     H98902   7.605   6.736   8.997 -0.5500 -0.0200 -0.5537
  717MOL0     H98903   7.575   6.599   8.887 -0.9174 -0.1859  0.0063
  717MOL0     H98904   7.745   6.478   8.992 -0.2931  0.8631  1.4798
  717MOL0     H98905   8.055   6.302   9.103 -0.3385 -0.7961 -0.7715
  717MOL0     H98906   7.876   6.283   9.083 -1.2621 -0.7201  1.2538
  717MOL0     H98907   7.950   6.366   9.224  0.2557 -0.6385 -1.0415
  717MOL0     H98908   8.495   6.348   8.865  0.2980 -2.4396  1.7929
  717MOL0     H98909   8.710   6.281   8.965 -1.0093 -2.6357  0.1919
  717MOL0     H98910   8.803   6.173   9.154  1.6533 -0.9838 -0.9542
  717MOL0     H98911   8.922   6.274   9.045  2.9109  1.9111  1.2033
  717MOL0     H98912   9.055   6.313   9.226 -1.0583  0.2697 -0.5104
  717MOL0     H98913   8.955   6.233   9.348  1.7952 -2.0197  0.8823
  717MOL0     H98914   9.122   6.109   9.122 -0.6125  1.9143 -0.6891
  717MOL0     H98915   8.988   6.016   9.191  3.2473 -1.0456 -3.8895
  717MOL0     H98916   9.189   5.964   9.323  0.1956  0.0628 -0.3028
  717MOL0     H98917   9.061   6.045   9.419 -0.8045  0.2888 -0.7022
  717MOL0     H98918   9.278   6.227   9.344 -2.2948  2.5450  0.2753
  717MOL0     H98919   9.164   6.220   9.475 -0.2796  0.9969 -2.1487
  717MOL0     H98920   9.370   6.003   9.437  0.1867  0.0137  1.0951
  717MOL0     H98921   9.297   6.049   9.588 -1.7577  1.4677  0.0748
  717MOL0     H98922   9.516   6.182   9.423 -1.2140 -1.0816 -0.5526
  717MOL0     H98923   9.541   6.109   9.585  1.0809  0.7903 -0.2491
  717MOL0     H98924   9.523   6.340   9.644 -0.8635  2.7764 -0.5338
  717MOL0     H98925   9.357   6.286   9.667  0.4463 -1.7563  0.6339
  717MOL0     H98926   8.662   6.574   9.275 -1.4916  0.6085 -0.6937
  717MOL0     H98927   8.443   6.648   9.172  0.2528  0.0495  1.0023
  717MOL0     H98928   8.173   6.723   8.906 -1.5448  1.0204 -0.3169
  717MOL0     H98929   7.971   6.794   8.804 -1.8851 -2.4661 -3.0031
  717MOL0     H98930   6.107   6.310   8.842 -4.2311 -1.5084 -2.3507
  717MOL0     H98931   5.899   6.176   8.902  0.4909 -1.6165  0.7825
  717MOL0     H98932   5.553   6.198   9.175  0.8686  0.7856  0.3435
  717MOL0     H98933   5.335   6.119   9.237  0.6905  1.8121  1.8170
  717MOL0     H98934   5.180   6.081   9.398 -1.4622 -0.2425 -0.7394
  717MOL0     H98935   5.159   5.966   9.271  0.2858 -0.3443 -0.0409
  717MOL0     H98936   5.062   5.925   9.561  1.7424  1.1841 -0.6214
  717MOL0     H98937   5.036   5.809   9.418  1.9982 -0.8572 -2.0017
  717MOL0     H98938   4.934   6.004   9.292 -2.7152  0.9433  0.3515
  717MOL0     H98939   4.838   5.940   9.418 -1.3710  1.4443 -2.3527
  717MOL0     H98940   4.990   6.204   9.450  1.1220 -1.4383 -0.1096
  717MOL0     H98941   4.858   6.136   9.558 -0.5210 -1.0152  0.4191
  717MOL0     H98942   4.633   6.334   9.281  0.7159  0.6742 -1.1123
  717MOL0     H98943   5.522   5.829   9.491  0.4628 -0.1913 -0.4172
  717MOL0     H98944   5.847   5.873   9.381  1.3220  0.5033  0.2361
  717MOL0     H98945   5.838   5.999   9.506  0.1982 -0.2232 -0.8798
  717MOL0     H98946   5.761   5.837   9.533 -0.4907 -1.3841 -0.3629
  718MOL0     O98947   2.894   1.827   6.000  0.1128  0.0127 -0.8067
  718MOL0     C98948   2.890   1.923   6.079 -1.4100  0.1449 -0.2426
  718MOL0     O98949   2.782   2.003   6.109 -0.2050 -0.9356 -0.0836
  718MOL0     C98950   2.667   1.980   6.038 -0.0547 -0.3703 -0.6128
  718MOL0     C98951   2.565   1.890   6.082 -1.2196  0.5475 -0.3808
  718MOL0     C98952   2.461   1.857   5.998 -0.1386  0.1418 -0.2213
  718MOL0     C98953   2.452   1.908   5.872  0.3317 -0.0704 -0.4505
  718MOL0     O98954   2.348   1.864   5.789 -0.4026 -0.6864 -0.5891
  718MOL0     C98955   2.264   1.968   5.739  0.0846 -0.4276  0.2974
  718MOL0     C98956   2.307   2.004   5.591  0.9234  0.3621 -0.5955
  718MOL0     C98957   2.317   1.884   5.496 -0.0064  0.2194 -0.6396
  718MOL0     C98958   2.203   1.779   5.500 -0.0599  0.3497 -0.1137
  718MOL0     C98959   2.211   1.683   5.379  0.0768 -0.5660  0.2352
  718MOL0     C98960   2.131   1.562   5.402  0.3787 -0.3650 -0.5349
  718MOL0     C98961   1.976   1.582   5.392 -0.4983 -0.5343  0.2314
  718MOL0     C98962   1.925   1.549   5.252 -0.3308  0.4618  0.4996
  718MOL0     N98963   1.960   1.635   5.138 -0.1573 -0.9222 -0.3220
  718MOL0     C98964   1.951   1.775   5.150  0.4221  0.9337  0.8416
  718MOL0     C98965   1.962   1.815   5.020 -0.2116 -0.4450 -0.3735
  718MOL0     C98966   1.963   1.953   4.961  0.0735  0.2146 -0.4205
  718MOL0     C98967   2.104   1.981   4.892  0.2868 -0.6759 -0.7786
  718MOL0     C98968   2.224   1.976   4.991 -0.2488 -0.1419 -0.2708
  718MOL0     C98969   2.359   2.011   4.937  0.3769 -0.1352  0.8029
  718MOL0     O98970   2.375   2.148   4.905 -0.2112  0.5860  0.1308
  718MOL0     C98971   2.500   2.187   4.865  0.7438  0.3855  0.9990
  718MOL0     C98972   2.521   2.321   4.868 -0.2005  0.2030  0.1881
  718MOL0     C98973   2.647   2.384   4.838  0.6161  0.9161 -0.2847
  718MOL0     C98974   2.657   2.533   4.848 -1.1501  0.2067  0.8316
  718MOL0     C98975   2.749   2.301   4.797 -0.1648  0.3151  0.3256
  718MOL0     C98976   2.889   2.344   4.757  0.0224  0.4146 -0.1204
  718MOL0     O98977   2.986   2.247   4.763 -0.1376 -0.5850 -0.4181
  718MOL0     C98978   3.115   2.293   4.739 -0.2230 -0.1852 -0.2307
  718MOL0     C98979   3.187   2.360   4.836 -0.6092  0.0269 -0.5471
  718MOL0     C98980   3.321   2.400   4.818 -0.3841 -0.9915  0.1945
  718MOL0     C98981   3.385   2.378   4.700 -0.4097  0.2791 -0.2375
  718MOL0     O98982   3.514   2.416   4.695 -0.0783 -0.4799  0.2405
  718MOL0     C98983   3.605   2.373   4.596  1.0928  0.4223  0.2033
  718MOL0     C98984   3.741   2.417   4.628  0.5252 -0.3707  0.3312
  718MOL0     C98985   3.761   2.562   4.577 -0.8455 -0.2825 -0.4414
  718MOL0     C98986   3.900   2.613   4.616 -0.1026 -0.5718 -0.0178
  718MOL0     C98987   3.910   2.765   4.583  0.3469 -0.2925 -0.3889
  718MOL0     C98988   4.052   2.815   4.598 -0.6916  0.6136 -0.5423
  718MOL0     C98989   4.114   2.812   4.739  0.0651  0.0984 -0.0719
  718MOL0     C98990   4.260   2.847   4.730  0.0136 -0.6267  0.4460
  718MOL0    Cl98991   4.358   2.704   4.709 -0.0807 -0.1265  0.3179
  718MOL0     C98992   3.315   2.308   4.605 -0.3096 -0.1516 -0.1926
  718MOL0     C98993   3.181   2.275   4.615  0.0714 -0.3799 -0.6756
  718MOL0     O98994   2.907   2.458   4.705 -0.6351 -0.0938  0.4651
  718MOL0     C98995   2.725   2.163   4.788  0.0181 -0.3311  0.0205
  718MOL0     C98996   2.603   2.105   4.818 -0.7706 -0.2096 -0.5344
  718MOL0     N98997   1.984   1.701   4.945  0.2637 -0.8063  0.2613
  718MOL0     N98998   1.987   1.594   5.010  0.7731 -0.7439  0.4180
  718MOL0     C98999   2.545   2.012   5.837  0.5958 -0.3669  0.2641
  718MOL0     C99000   2.646   2.053   5.924  0.3494 -0.0313 -0.3878
  718MOL0     C99001   3.017   1.939   6.148 -0.0551 -0.4865 -0.7762
  718MOL0     C99002   3.125   1.994   6.085  0.9943 -0.2739  0.2427
  718MOL0     C99003   3.250   2.004   6.149 -0.3585 -0.1959 -0.3218
  718MOL0     C99004   3.262   2.003   6.289  0.6022  0.6435 -0.6983
  718MOL0     O99005   3.356   2.058   6.366 -0.8474 -0.7098 -0.3402
  718MOL0     C99006   3.482   2.087   6.311  0.8051 -0.3386  0.0698
  718MOL0     C99007   3.589   2.106   6.419 -0.8693 -0.0112 -0.9169
  718MOL0     C99008   3.582   2.226   6.507  0.2890  0.1347 -0.2944
  718MOL0     C99009   3.709   2.227   6.594  0.0440  0.3780 -0.0100
  718MOL0     C99010   3.711   2.122   6.698 -0.4542  0.1399 -0.1437
  718MOL0     C99011   3.725   2.038   6.786 -0.1050  0.6666  0.1021
  718MOL0     C99012   3.142   1.962   6.352 -0.6801 -0.2525  0.0224
  718MOL0     C99013   3.027   1.933   6.288 -0.1106 -0.3351  0.5945
  718MOL0     C99014   2.911   1.903   6.381 -0.1168  0.3726  0.5270
  718MOL0     H99015   2.567   1.833   6.174  0.0273 -0.1215 -0.8067
  718MOL0     H99016   2.387   1.785   6.032  0.7819 -0.9469 -0.4522
  718MOL0     H99017   2.275   2.057   5.802  0.6740  1.4522 -2.2864
  718MOL0     H99018   2.160   1.933   5.736 -0.5328  1.3110 -0.8793
  718MOL0     H99019   2.237   2.083   5.564  1.1881  1.6948  2.2632
  718MOL0     H99020   2.407   2.046   5.577  1.0997  0.1105 -0.1241
  718MOL0     H99021   2.341   1.920   5.396  1.7817  1.2888  0.1379
  718MOL0     H99022   2.408   1.830   5.526 -0.1300  0.5587  0.3629
  718MOL0     H99023   2.215   1.725   5.594  3.5619  3.4645  1.4902
  718MOL0     H99024   2.105   1.825   5.483 -0.6037 -1.4561 -2.3656
  718MOL0     H99025   2.313   1.645   5.368 -0.0591 -0.3692 -2.0809
  718MOL0     H99026   2.174   1.732   5.289 -0.0340 -1.2142 -0.0776
  718MOL0     H99027   2.159   1.485   5.330 -1.4837 -1.7282  0.1217
  718MOL0     H99028   2.148   1.510   5.497 -1.1222  1.5790  0.8977
  718MOL0     H99029   1.941   1.677   5.435 -1.6168  0.2407 -2.1879
  718MOL0     H99030   1.937   1.501   5.455 -0.9135 -0.6271 -0.1332
  718MOL0     H99031   1.961   1.448   5.231  0.5722  1.3575 -2.7918
  718MOL0     H99032   1.816   1.537   5.259  0.0689 -3.9240  2.3719
  718MOL0     H99033   1.941   1.838   5.237  1.4555  1.2330  0.7578
  718MOL0     H99034   1.954   2.029   5.040  4.0182  0.1622  0.2724
  718MOL0     H99035   1.881   1.963   4.890  0.6005  0.2661 -1.0235
  718MOL0     H99036   2.105   1.918   4.802 -0.3772 -1.6010 -0.1511
  718MOL0     H99037   2.108   2.086   4.859  1.6596 -1.3156 -2.9128
  718MOL0     H99038   2.196   2.047   5.069 -2.0367 -0.1407 -0.8721
  718MOL0     H99039   2.238   1.871   5.018  0.6723 -0.7859 -2.9349
  718MOL0     H99040   2.439   1.972   5.002  0.2376  0.0982  1.1229
  718MOL0     H99041   2.362   1.950   4.847 -4.2534  3.8861 -2.5451
  718MOL0     H99042   2.431   2.370   4.903 -1.7104 -0.6701 -2.2509
  718MOL0     H99043   2.559   2.577   4.869 -0.5960  2.4078 -0.8178
  718MOL0     H99044   2.690   2.580   4.754 -1.3972 -0.4221  0.4233
  718MOL0     H99045   2.731   2.560   4.923 -2.2198 -0.3054  2.1054
  718MOL0     H99046   3.156   2.365   4.940  3.8645 -1.1922  1.1179
  718MOL0     H99047   3.369   2.449   4.902 -2.2891  1.7624 -0.1724
  718MOL0     H99048   3.604   2.265   4.613  2.5097  0.5206  1.1200
  718MOL0     H99049   3.575   2.397   4.494  4.1964 -1.6793 -1.3673
  718MOL0     H99050   3.750   2.420   4.737 -0.3755 -3.5834  0.5896
  718MOL0     H99051   3.812   2.347   4.584  1.0667  0.6930 -0.5410
  718MOL0     H99052   3.695   2.636   4.625 -0.0995  1.5184 -2.0432
  718MOL0     H99053   3.741   2.566   4.470 -0.3745 -0.1577 -0.5243
  718MOL0     H99054   3.982   2.551   4.579  1.0045  0.7082  0.1685
  718MOL0     H99055   3.906   2.599   4.724  2.5049 -2.8015 -0.3252
  718MOL0     H99056   3.878   2.773   4.479 -0.1696 -0.6626 -0.2611
  718MOL0     H99057   3.835   2.824   4.638  0.0996 -0.3114 -0.7026
  718MOL0     H99058   4.060   2.919   4.564  0.5980 -0.4294 -3.9148
  718MOL0     H99059   4.112   2.756   4.528  0.3616  0.3542  0.5327
  718MOL0     H99060   4.108   2.711   4.780  0.0024 -1.0481 -2.6741
  718MOL0     H99061   4.067   2.884   4.806  0.0246  1.5607 -1.5914
  718MOL0     H99062   4.290   2.900   4.821  0.3490 -1.8480  1.0632
  718MOL0     H99063   4.275   2.918   4.648  0.2107 -1.1129  0.0581
  718MOL0     H99064   3.365   2.262   4.520  1.7303 -0.3655  1.0527
  718MOL0     H99065   3.125   2.216   4.544 -1.6049  0.9802 -0.5600
  718MOL0     H99066   2.801   2.095   4.751 -2.2127 -2.0538 -1.6888
  718MOL0     H99067   2.586   1.999   4.801 -0.9747 -0.1719 -0.5690
  718MOL0     H99068   2.547   2.069   5.744 -0.3280  0.9875  1.0493
  718MOL0     H99069   2.711   2.138   5.904 -3.6132  3.0384 -1.4868
  718MOL0     H99070   3.112   2.018   5.980 -0.3543 -1.0554  0.2103
  718MOL0     H99071   3.326   2.035   6.078 -0.2398  0.4044  0.0671
  718MOL0     H99072   3.516   2.013   6.238 -0.3274 -0.8567  0.0356
  718MOL0     H99073   3.472   2.173   6.245 -0.9654  1.9866  3.0902
  718MOL0     H99074   3.683   2.102   6.363 -1.0179  0.9380 -1.2434
  718MOL0     H99075   3.590   2.024   6.492 -1.0867 -0.1296 -1.0449
  718MOL0     H99076   3.581   2.318   6.447  1.7036 -0.5924 -1.4979
  718MOL0     H99077   3.493   2.214   6.569  1.1168  0.0172  0.8934
  718MOL0     H99078   3.719   2.315   6.658  0.8767 -0.2399  0.7504
  718MOL0     H99079   3.802   2.221   6.537  1.0543  0.7733  1.5356
  718MOL0     H99080   3.724   1.966   6.866 -2.1947 -1.5903 -1.8014
  718MOL0     H99081   3.150   1.974   6.459  4.2917  3.5375 -0.4471
  718MOL0     H99082   2.899   1.991   6.444 -0.5908  0.6934 -0.0032
  718MOL0     H99083   2.815   1.894   6.330 -1.2118  2.6623  2.0330
  718MOL0     H99084   2.944   1.820   6.444 -0.2317 -1.6983 -1.9858
  719MOL0     O99085   4.273   5.602   5.510 -0.0459  0.3747  0.2763
  719MOL0     C99086   4.156   5.634   5.503 -0.0910 -0.3198 -0.3286
  719MOL0     O99087   4.108   5.754   5.558 -0.1483  0.3000  0.3399
  719MOL0     C99088   4.199   5.853   5.596  0.1182 -0.0849 -0.6258
  719MOL0     C99089   4.237   5.950   5.504 -0.2455 -0.9451 -0.0248
  719MOL0     C99090   4.330   6.050   5.535 -0.7576 -0.9801  0.1055
  719MOL0     C99091   4.399   6.051   5.659 -0.2463 -0.4139 -0.1150
  719MOL0     O99092   4.499   6.139   5.701  0.2369  0.4155  0.5418
  719MOL0     C99093   4.516   6.256   5.617 -0.1780 -0.5653 -0.4423
  719MOL0     C99094   4.632   6.334   5.663  0.9526 -0.7466  0.1524
  719MOL0     C99095   4.754   6.291   5.586  0.1458 -0.3401  0.0874
  719MOL0     C99096   4.766   6.358   5.444  0.1489 -1.0074 -0.1181
  719MOL0     C99097   4.898   6.333   5.370 -0.7382  0.2997  0.8924
  719MOL0     C99098   5.019   6.385   5.454  0.0436 -0.0927  0.1012
  719MOL0     C99099   5.133   6.434   5.364 -0.3231  0.3500  0.5148
  719MOL0     C99100   5.234   6.318   5.351  0.5510  0.6830 -0.4529
  719MOL0     N99101   5.333   6.354   5.250 -0.1413 -0.2804 -0.4337
  719MOL0     C99102   5.459   6.416   5.275  0.0200 -0.5251  0.0021
  719MOL0     C99103   5.538   6.402   5.166 -0.2353  0.1099 -1.1579
  719MOL0     C99104   5.678   6.447   5.132 -0.1208  1.3525 -0.2710
  719MOL0     C99105   5.786   6.385   5.230  0.3524 -0.3676 -0.3122
  719MOL0     C99106   5.927   6.416   5.178 -0.1435  0.2784  0.0423
  719MOL0     C99107   6.023   6.341   5.263 -0.0459  0.6625  0.6783
  719MOL0     O99108   6.158   6.375   5.233  0.2900 -0.2096 -0.2609
  719MOL0     C99109   6.255   6.281   5.274  0.5327  0.2285  0.2119
  719MOL0     C99110   6.242   6.198   5.383  0.7117 -1.6314 -0.6129
  719MOL0     C99111   6.340   6.120   5.433  0.4678  0.0743  0.3703
  719MOL0     C99112   6.296   6.033   5.546 -0.3170  0.0175  0.4585
  719MOL0     C99113   6.467   6.104   5.351  0.4927  0.4937 -0.0509
  719MOL0     C99114   6.586   6.020   5.386  0.1797  1.3374  0.0958
  719MOL0     O99115   6.695   6.026   5.302  0.0389 -0.5687  0.1631
  719MOL0     C99116   6.814   6.011   5.371 -0.8238 -0.0905 -0.8628
  719MOL0     C99117   6.859   6.130   5.436 -0.9861 -0.7868  0.2695
  719MOL0     C99118   6.985   6.126   5.500 -0.4537  0.5618  0.8301
  719MOL0     C99119   7.067   6.019   5.492  0.5550  0.0745  1.0319
  719MOL0     O99120   7.184   6.024   5.561 -0.0586  0.3074 -0.5595
  719MOL0     C99121   7.174   5.958   5.684 -0.3122  0.4095 -0.2650
  719MOL0     C99122   7.147   6.066   5.786  0.6121 -0.0916 -0.1899
  719MOL0     C99123   7.146   5.997   5.922 -0.2437  0.1874 -0.1083
  719MOL0     C99124   7.144   6.105   6.034  0.1799  0.9567 -0.0347
  719MOL0     C99125   7.157   6.044   6.172 -0.2500  0.5522 -0.4647
  719MOL0     C99126   7.194   6.149   6.270  0.0878  0.7284 -0.2656
  719MOL0     C99127   7.225   6.085   6.404 -0.1865  0.6049  1.3504
  719MOL0     C99128   7.213   6.199   6.518  0.0351 -0.2776 -0.0041
  719MOL0    Cl99129   7.336   6.317   6.481 -0.5190  0.0623 -0.3724
  719MOL0     C99130   7.020   5.903   5.434  0.4832 -0.2169 -0.5659
  719MOL0     C99131   6.899   5.896   5.362  0.2777  0.5081 -0.5367
  719MOL0     O99132   6.573   5.934   5.479 -0.1047  0.3626  0.4989
  719MOL0     C99133   6.472   6.179   5.231  0.6046  1.1704  0.5039
  719MOL0     C99134   6.366   6.268   5.202 -0.5298  0.0992 -0.7403
  719MOL0     N99135   5.459   6.323   5.077  0.3102  0.0122  0.4495
  719MOL0     N99136   5.350   6.296   5.130 -0.1833 -0.0301  0.3906
  719MOL0     C99137   4.371   5.943   5.741 -0.1035  0.0508 -0.7155
  719MOL0     C99138   4.261   5.857   5.722  0.2467  0.2032 -0.2903
  719MOL0     C99139   4.064   5.526   5.461 -0.3590 -0.4129 -0.5452
  719MOL0     C99140   3.948   5.492   5.533 -0.0133 -0.1969 -0.3678
  719MOL0     C99141   3.871   5.384   5.504 -0.6443  0.2487  1.0606
  719MOL0     C99142   3.889   5.321   5.384  0.7783  0.0342  0.0480
  719MOL0     O99143   3.793   5.228   5.359  0.0711 -0.1955 -0.0045
  719MOL0     C99144   3.762   5.184   5.228  0.6785  0.5800 -0.3271
  719MOL0     C99145   3.640   5.092   5.233 -0.8497  0.2200  0.7241
  719MOL0     C99146   3.668   4.965   5.311  0.5965  0.0679 -1.1925
  719MOL0     C99147   3.570   4.854   5.275  0.3039 -0.1116 -0.2199
  719MOL0     C99148   3.570   4.760   5.382  0.0440 -0.6902  0.5548
  719MOL0     C99149   3.587   4.684   5.474 -0.1840 -0.6394 -0.5242
  719MOL0     C99150   3.978   5.359   5.295 -0.4245 -0.2345  0.0998
  719MOL0     C99151   4.074   5.462   5.330 -0.3862  0.3743  0.0673
  719MOL0     C99152   4.186   5.493   5.228  0.6984  0.2690 -0.3943
  719MOL0     H99153   4.194   5.940   5.405  1.6763  0.2283 -1.0306
  719MOL0     H99154   4.361   6.123   5.462  0.1122 -1.0058  0.4378
  719MOL0     H99155   4.420   6.310   5.618  0.8377  1.3476 -0.7158
  719MOL0     H99156   4.534   6.236   5.512 -0.0634  1.0140 -0.7548
  719MOL0     H99157   4.621   6.441   5.646  2.4216 -0.8048 -1.5200
  719MOL0     H99158   4.635   6.338   5.772 -0.7315  3.7011  0.2097
  719MOL0     H99159   4.844   6.317   5.642 -1.2369 -0.5591  2.5570
  719MOL0     H99160   4.760   6.182   5.580  2.8468 -0.1642 -2.0442
  719MOL0     H99161   4.688   6.316   5.379 -0.2736  2.3278 -1.9766
  719MOL0     H99162   4.746   6.465   5.452 -0.1868 -1.0404 -0.4629
  719MOL0     H99163   4.890   6.373   5.268 -1.9801 -1.4354  0.2608
  719MOL0     H99164   4.909   6.225   5.358 -1.3625  0.2976  0.2679
  719MOL0     H99165   4.989   6.475   5.510  1.4795 -0.9475  2.3767
  719MOL0     H99166   5.042   6.309   5.530 -1.0703 -0.3549  0.1999
  719MOL0     H99167   5.180   6.527   5.397 -0.8235  1.1244 -0.8749
  719MOL0     H99168   5.087   6.450   5.266 -1.0469 -0.1443  0.7650
  719MOL0     H99169   5.295   6.295   5.439 -0.3987 -2.5570 -0.5162
  719MOL0     H99170   5.178   6.230   5.319 -1.4270  1.5296  0.4696
  719MOL0     H99171   5.499   6.438   5.373  1.0443 -2.3385  0.0316
  719MOL0     H99172   5.682   6.556   5.147 -0.8232  1.5546 -1.4105
  719MOL0     H99173   5.690   6.417   5.027 -1.2455  1.1543 -0.3497
  719MOL0     H99174   5.775   6.429   5.330  0.2746 -0.6413 -0.1994
  719MOL0     H99175   5.780   6.276   5.231 -1.2332 -0.3297 -1.1413
  719MOL0     H99176   5.942   6.389   5.073  1.3072  0.5087  0.1733
  719MOL0     H99177   5.951   6.523   5.180  0.2564  0.2105 -0.6057
  719MOL0     H99178   6.008   6.355   5.371  3.5547  0.0865  1.3634
  719MOL0     H99179   6.022   6.235   5.238 -0.8892  0.7488  0.2993
  719MOL0     H99180   6.150   6.195   5.440  1.2265  2.7317  0.8399
  719MOL0     H99181   6.317   5.929   5.520 -1.8385  0.0784 -1.2240
  719MOL0     H99182   6.189   6.029   5.567 -0.6312 -2.8358 -1.1024
  719MOL0     H99183   6.352   6.038   5.640 -1.6235 -1.3019  1.3562
  719MOL0     H99184   6.795   6.217   5.431  0.9948  0.7038 -1.2974
  719MOL0     H99185   7.034   6.205   5.555  1.2173 -0.3809  0.7473
  719MOL0     H99186   7.096   5.882   5.697  1.5496 -1.5111  0.1850
  719MOL0     H99187   7.264   5.899   5.702  1.8603  3.2968 -1.0831
  719MOL0     H99188   7.222   6.145   5.772  2.2443 -1.4394  0.6391
  719MOL0     H99189   7.050   6.112   5.764  1.2231  1.1563 -0.3866
  719MOL0     H99190   7.234   5.933   5.930  2.0649  2.8061 -2.3536
  719MOL0     H99191   7.051   5.944   5.926 -0.0166 -0.1523  1.4326
  719MOL0     H99192   7.054   6.168   6.038  1.3344  2.5931  1.9524
  719MOL0     H99193   7.216   6.182   6.008 -1.2698  1.1350 -4.3633
  719MOL0     H99194   7.070   5.989   6.209  1.1500  0.0038  2.3025
  719MOL0     H99195   7.237   5.970   6.157 -0.8627 -0.1057 -0.5428
  719MOL0     H99196   7.104   6.209   6.281 -1.1008 -1.2356  1.4353
  719MOL0     H99197   7.277   6.218   6.250 -0.0933  1.8450  2.3805
  719MOL0     H99198   7.325   6.041   6.402 -1.1743 -1.7882  0.3838
  719MOL0     H99199   7.162   5.996   6.412  1.8307 -1.1817 -1.1671
  719MOL0     H99200   7.225   6.170   6.622 -1.9803  1.5216  0.7952
  719MOL0     H99201   7.114   6.245   6.513 -0.4189 -0.7922  2.8281
  719MOL0     H99202   7.081   5.812   5.438  0.3178 -0.2980  0.3296
  719MOL0     H99203   6.867   5.798   5.327 -2.9962  1.1356  0.3109
  719MOL0     H99204   6.557   6.169   5.164 -1.1844  0.6363 -1.8155
  719MOL0     H99205   6.366   6.337   5.119  1.5132 -0.8968 -1.6450
  719MOL0     H99206   4.432   5.927   5.829 -2.7734 -0.4049  1.1956
  719MOL0     H99207   4.240   5.778   5.794 -2.2415  0.1211 -1.0126
  719MOL0     H99208   3.923   5.526   5.632  1.4536 -0.5818  0.1562
  719MOL0     H99209   3.796   5.340   5.569  0.9003 -2.4819  1.1313
  719MOL0     H99210   3.739   5.264   5.158 -2.2675  1.0291  1.0022
  719MOL0     H99211   3.844   5.130   5.178  0.4221  0.4579 -0.6165
  719MOL0     H99212   3.634   5.063   5.128  2.0442 -2.2597  1.1158
  719MOL0     H99213   3.545   5.140   5.257 -0.3203  0.4901  2.4355
  719MOL0     H99214   3.766   4.930   5.279  0.1964 -0.5321 -1.7828
  719MOL0     H99215   3.662   4.988   5.417 -3.3687  0.2830 -1.2843
  719MOL0     H99216   3.597   4.798   5.184  1.5360 -1.2143  0.7774
  719MOL0     H99217   3.467   4.888   5.262 -1.0043 -2.5572  2.4731
  719MOL0     H99218   3.597   4.611   5.551  0.9026 -1.8001 -1.7126
  719MOL0     H99219   4.003   5.304   5.205  1.6589 -1.7306  1.4904
  719MOL0     H99220   4.224   5.595   5.238 -0.7278  0.6310  2.0876
  719MOL0     H99221   4.278   5.435   5.243 -0.4460 -1.4382  0.3805
  719MOL0     H99222   4.136   5.482   5.131 -2.1892 -2.4369  1.2394
  720MOL0     O99223   3.201   7.307   2.681 -0.4969 -0.5192 -0.7246
  720MOL0     C99224   3.184   7.197   2.633 -0.9874 -0.2669  0.2474
  720MOL0     O99225   3.282   7.111   2.601  0.0150  0.1814  0.2951
  720MOL0     C99226   3.416   7.160   2.587 -0.5971  1.1207 -0.5101
  720MOL0     C99227   3.461   7.291   2.563  0.7780  0.2473 -0.5195
  720MOL0     C99228   3.594   7.313   2.541 -0.1723 -0.2528 -0.6330
  720MOL0     C99229   3.693   7.218   2.560 -0.1996 -0.2335  0.5257
  720MOL0     O99230   3.823   7.248   2.553  0.0187 -0.2204  0.5014
  720MOL0     C99231   3.918   7.137   2.542  0.5022 -0.3551  0.0150
  720MOL0     C99232   4.049   7.202   2.522  0.1481 -0.3991  0.3623
  720MOL0     C99233   4.155   7.110   2.439  0.8315  0.0278 -0.0263
  720MOL0     C99234   4.257   7.198   2.378 -0.3896  0.2896 -0.4016
  720MOL0     C99235   4.377   7.134   2.322  0.1501  0.5220 -0.0654
  720MOL0     C99236   4.353   7.050   2.191 -0.4174 -0.3473  0.7051
  720MOL0     C99237   4.485   7.001   2.142  0.2076 -0.9028 -0.7377
  720MOL0     C99238   4.470   6.906   2.015 -1.0344  0.2796  0.2089
  720MOL0     N99239   4.605   6.868   1.953  0.6154  0.3608 -0.0666
  720MOL0     C99240   4.684   6.758   1.980 -0.3130  1.1550 -0.5282
  720MOL0     C99241   4.792   6.779   1.910  0.8755 -0.4452  0.3437
  720MOL0     C99242   4.912   6.691   1.883  0.1724  0.1046  0.0172
  720MOL0     C99243   4.906   6.611   1.756  0.5373  0.0840 -0.9506
  720MOL0     C99244   4.908   6.681   1.626 -0.0892 -1.7482  0.4088
  720MOL0     C99245   5.038   6.763   1.610  0.6086  0.7202  0.5237
  720MOL0     O99246   5.151   6.669   1.624  0.2824  1.1252  0.8097
  720MOL0     C99247   5.270   6.705   1.674  0.2386  0.6343 -0.3089
  720MOL0     C99248   5.314   6.838   1.704 -0.5877  0.0136  0.9126
  720MOL0     C99249   5.428   6.866   1.776  0.1958 -0.3782 -0.5553
  720MOL0     C99250   5.450   7.006   1.826 -0.7553 -0.3881  0.1649
  720MOL0     C99251   5.520   6.766   1.810  1.0727 -0.5415 -0.2939
  720MOL0     C99252   5.638   6.779   1.887 -0.6216 -0.4501  0.1949
  720MOL0     O99253   5.743   6.688   1.855  1.1654 -0.2573  0.6745
  720MOL0     C99254   5.874   6.718   1.872 -0.6339 -0.8089 -1.1022
  720MOL0     C99255   5.945   6.844   1.892 -0.3164  0.3215  0.1301
  720MOL0     C99256   6.077   6.847   1.938 -0.7643  1.0510  0.4228
  720MOL0     C99257   6.150   6.723   1.942 -0.3337 -0.5246  0.6210
  720MOL0     O99258   6.282   6.718   1.981 -0.3037 -0.1006 -0.5783
  720MOL0     C99259   6.340   6.823   2.061  0.0721  0.1846  0.5323
  720MOL0     C99260   6.413   6.757   2.180 -0.7415 -0.3110  0.1192
  720MOL0     C99261   6.559   6.708   2.142 -0.4599 -0.1145  0.5172
  720MOL0     C99262   6.658   6.715   2.265  0.0212 -0.5870  0.9515
  720MOL0     C99263   6.800   6.694   2.218 -0.0145  0.4307 -0.0728
  720MOL0     C99264   6.901   6.682   2.330 -0.3461  0.6848  0.0729
  720MOL0     C99265   7.029   6.606   2.281  0.0291  0.1685  0.6249
  720MOL0     C99266   7.131   6.617   2.403  0.7061 -0.0068 -0.4197
  720MOL0    Cl99267   7.286   6.548   2.360 -0.2040 -0.3607  0.0301
  720MOL0     C99268   6.094   6.597   1.915  0.4786 -0.3500 -0.8756
  720MOL0     C99269   5.954   6.600   1.878  0.5260 -0.1911 -0.0909
  720MOL0     O99270   5.657   6.873   1.969 -0.2908  0.6094  0.5817
  720MOL0     C99271   5.491   6.634   1.760  0.0853  0.8801 -0.0378
  720MOL0     C99272   5.367   6.604   1.690 -0.1026 -0.2764  0.0563
  720MOL0     N99273   4.781   6.914   1.854  0.2415 -0.6951 -0.7465
  720MOL0     N99274   4.669   6.964   1.883  0.0723 -0.9952 -0.5457
  720MOL0     C99275   3.648   7.088   2.587  0.5710 -0.0049  0.3096
  720MOL0     C99276   3.507   7.063   2.611  0.0055  0.1813  0.9736
  720MOL0     C99277   3.033   7.168   2.610 -0.3822  0.5813 -0.2779
  720MOL0     C99278   2.951   7.281   2.588  0.8610 -0.1345  0.4438
  720MOL0     C99279   2.811   7.262   2.570  0.6919 -0.5287 -0.4655
  720MOL0     C99280   2.753   7.130   2.552  0.1820 -0.1551 -0.6744
  720MOL0     O99281   2.620   7.123   2.535  0.1299 -0.5265  0.5207
  720MOL0     C99282   2.557   6.994   2.502 -0.6961 -0.6119  0.0582
  720MOL0     C99283   2.568   6.955   2.358  0.0826  0.3574 -0.3715
  720MOL0     C99284   2.524   7.063   2.263 -0.7035  1.3273 -0.2222
  720MOL0     C99285   2.623   7.179   2.237  0.2190 -0.1892 -0.5785
  720MOL0     C99286   2.582   7.251   2.119  0.5468 -0.2542  1.6643
  720MOL0     C99287   2.541   7.311   2.025  0.7323 -0.1413  0.2248
  720MOL0     C99288   2.835   7.020   2.577 -0.9044  0.2619 -0.2312
  720MOL0     C99289   2.976   7.042   2.615 -0.5570  0.1936  0.5102
  720MOL0     C99290   3.059   6.918   2.655 -0.7534  0.2952 -0.2422
  720MOL0     H99291   3.391   7.372   2.551 -2.8308 -2.5181  0.2084
  720MOL0     H99292   3.634   7.414   2.530 -2.6968  0.6854 -2.0499
  720MOL0     H99293   3.896   7.078   2.453  1.7032  0.4113 -0.8182
  720MOL0     H99294   3.915   7.073   2.631  0.4840 -1.5403 -0.8228
  720MOL0     H99295   4.044   7.297   2.468  4.2060 -0.3874 -0.3069
  720MOL0     H99296   4.101   7.210   2.618  4.5378  0.5342 -1.8129
  720MOL0     H99297   4.206   7.046   2.510  2.0763  0.7718 -0.2246
  720MOL0     H99298   4.110   7.046   2.362 -1.2315  1.0073  0.2986
  720MOL0     H99299   4.208   7.263   2.304  2.0531  3.1251  0.2463
  720MOL0     H99300   4.297   7.264   2.456  1.6686 -0.4976 -0.7190
  720MOL0     H99301   4.423   7.067   2.395  1.9903 -0.6103 -2.1694
  720MOL0     H99302   4.439   7.221   2.298 -3.0099  4.4968  4.2276
  720MOL0     H99303   4.279   6.969   2.194 -0.7694 -0.2061 -1.6402
  720MOL0     H99304   4.311   7.122   2.119  0.5641  0.7536  1.2102
  720MOL0     H99305   4.537   6.946   2.220 -0.9386 -1.6489 -0.4762
  720MOL0     H99306   4.549   7.084   2.109 -0.5851 -0.6238 -1.6540
  720MOL0     H99307   4.424   6.813   2.049  0.4743  0.1941  2.2141
  720MOL0     H99308   4.396   6.940   1.941 -2.6299 -2.3339  0.4446
  720MOL0     H99309   4.659   6.673   2.042  0.0157  2.3431  1.3152
  720MOL0     H99310   4.916   6.614   1.960 -0.8259 -0.0116 -0.0254
  720MOL0     H99311   5.005   6.747   1.892  2.2656 -3.1682  0.4289
  720MOL0     H99312   4.986   6.536   1.762 -1.3253 -1.8821  2.4871
  720MOL0     H99313   4.812   6.556   1.766 -0.0774  1.5585  3.5951
  720MOL0     H99314   4.891   6.605   1.550 -0.0800 -0.7838 -0.5937
  720MOL0     H99315   4.832   6.760   1.618  2.9742  1.3954 -0.5720
  720MOL0     H99316   5.029   6.819   1.517 -1.6176 -0.6990 -0.2048
  720MOL0     H99317   5.046   6.828   1.697  1.1820  0.8594  0.3667
  720MOL0     H99318   5.243   6.916   1.677  0.7552  0.4696 -1.5552
  720MOL0     H99319   5.547   7.051   1.802 -1.9694  0.9252 -2.8915
  720MOL0     H99320   5.440   7.006   1.935 -0.5178 -1.5745  0.1911
  720MOL0     H99321   5.369   7.069   1.786 -0.4539  1.0596  1.7279
  720MOL0     H99322   5.896   6.940   1.881 -0.9177 -0.1811 -1.8615
  720MOL0     H99323   6.107   6.950   1.958  0.8825  0.9337 -1.1673
  720MOL0     H99324   6.405   6.888   2.001 -1.1587 -0.5166 -1.6642
  720MOL0     H99325   6.271   6.893   2.108 -0.0111  0.0913  0.5485
  720MOL0     H99326   6.416   6.836   2.255 -3.3957  3.6459 -3.5324
  720MOL0     H99327   6.353   6.671   2.212 -1.7409 -0.0713 -1.0363
  720MOL0     H99328   6.602   6.774   2.067 -2.3576  0.8643  0.2258
  720MOL0     H99329   6.565   6.606   2.102 -2.5177 -0.7382  1.6485
  720MOL0     H99330   6.642   6.634   2.337  0.5226 -3.5855 -2.0375
  720MOL0     H99331   6.649   6.809   2.320 -0.0129  1.3787 -2.1536
  720MOL0     H99332   6.796   6.601   2.161 -0.5066 -0.3699  1.2135
  720MOL0     H99333   6.829   6.781   2.159 -0.2614 -0.1777 -1.1011
  720MOL0     H99334   6.871   6.637   2.425  2.8086  2.1510  1.9250
  720MOL0     H99335   6.925   6.786   2.357  0.4052  0.1802  1.4272
  720MOL0     H99336   7.074   6.660   2.197  0.2555  0.2039  0.7695
  720MOL0     H99337   7.021   6.502   2.248 -0.7262 -0.3223  2.2485
  720MOL0     H99338   7.112   6.550   2.488  2.3708 -0.9607 -0.7527
  720MOL0     H99339   7.146   6.722   2.430 -1.7378 -0.4089  3.2270
  720MOL0     H99340   6.134   6.497   1.928 -0.2448 -0.2801  2.7276
  720MOL0     H99341   5.902   6.505   1.878 -1.0531  0.5126  3.1814
  720MOL0     H99342   5.548   6.546   1.788  0.2542  1.4652  1.5726
  720MOL0     H99343   5.341   6.506   1.653 -3.2593 -0.2850  1.8919
  720MOL0     H99344   3.710   7.001   2.606 -0.6107 -0.6040  1.6672
  720MOL0     H99345   3.471   6.963   2.632 -0.2217  0.5013  2.1622
  720MOL0     H99346   2.981   7.385   2.581 -0.9828  0.6136  2.5252
  720MOL0     H99347   2.743   7.345   2.552  0.7070  0.2086  2.4146
  720MOL0     H99348   2.590   6.913   2.568  1.9393 -1.0317 -1.6397
  720MOL0     H99349   2.451   7.005   2.530 -0.9507 -1.0610 -0.6903
  720MOL0     H99350   2.498   6.872   2.349 -0.0191  0.5278 -1.3033
  720MOL0     H99351   2.668   6.917   2.334 -0.1751 -0.1621 -0.6361
  720MOL0     H99352   2.510   7.017   2.165 -0.1167 -0.2772  0.4060
  720MOL0     H99353   2.427   7.094   2.302  0.3820  3.7363  0.7344
  720MOL0     H99354   2.725   7.140   2.235  0.2848 -0.7265  3.6927
  720MOL0     H99355   2.617   7.253   2.317  0.1178  1.6176 -2.1990
  720MOL0     H99356   2.504   7.366   1.941  0.5240 -0.4277  0.1268
  720MOL0     H99357   2.802   6.918   2.564 -0.0490 -0.0043 -0.3423
  720MOL0     H99358   2.996   6.828   2.654  2.4204 -2.1206 -0.8266
  720MOL0     H99359   3.148   6.901   2.595  1.1386  0.5731  2.3417
  720MOL0     H99360   3.096   6.924   2.757 -1.2742 -1.2851  0.0757
  721MOL0     O99361   2.212   3.878  10.494 -0.0492  0.3999  0.0231
  721MOL0     C99362   2.221   3.756  10.468  0.5444  0.8047  0.0917
  721MOL0     O99363   2.329   3.671  10.505 -0.4020  0.2792  0.1759
  721MOL0     C99364   2.436   3.711  10.565 -0.3575  0.6604 -0.6027
  721MOL0     C99365   2.428   3.801  10.671 -0.2388  0.1026 -0.5888
  721MOL0     C99366   2.546   3.843  10.732  0.1909  0.1544 -0.0936
  721MOL0     C99367   2.668   3.776  10.716  0.4286  0.6039  0.4737
  721MOL0     O99368   2.776   3.806  10.796  0.2395 -0.2331 -0.2482
  721MOL0     C99369   2.894   3.731  10.792  0.7496  0.0745 -0.4443
  721MOL0     C99370   2.995   3.764  10.904 -0.8207 -0.5561 -0.1807
  721MOL0     C99371   3.107   3.655  10.931 -0.4928  0.1770  0.1697
  721MOL0     C99372   3.076   3.551  11.044 -1.1835  0.4607  0.2175
  721MOL0     C99373   3.218   3.471  11.069  0.6666  0.2069  0.5178
  721MOL0     C99374   3.204   3.372  11.180  0.4983 -0.2181 -0.1144
  721MOL0     C99375   3.319   3.382  11.291  0.7645  0.3075 -0.0887
  721MOL0     C99376   3.442   3.318  11.244 -0.1300  1.1824  0.0636
  721MOL0     N99377   3.530   3.402  11.156 -0.3910 -0.0271  0.2420
  721MOL0     C99378   3.527   3.404  11.017 -0.2119 -0.0787  0.1857
  721MOL0     C99379   3.625   3.491  10.974  1.0116  0.5615  0.5598
  721MOL0     C99380   3.660   3.525  10.830 -0.0403 -0.4696 -0.5570
  721MOL0     C99381   3.600   3.659  10.775  0.1311  0.4534  0.2725
  721MOL0     C99382   3.642   3.801  10.826 -0.1249  1.2206 -0.2998
  721MOL0     C99383   3.791   3.815  10.848  0.2773  0.4097 -0.0775
  721MOL0     O99384   3.860   3.757  10.736  0.2176 -0.9680 -0.2624
  721MOL0     C99385   3.997   3.783  10.736  1.1803 -0.1410  0.0354
  721MOL0     C99386   4.078   3.804  10.853 -0.0460  0.2523  0.8523
  721MOL0     C99387   4.220   3.795  10.842  0.2862  0.5214  0.0664
  721MOL0     C99388   4.276   3.811  10.984 -0.8936  0.7803 -0.6947
  721MOL0     C99389   4.281   3.790  10.718 -1.6729 -0.1707 -0.9589
  721MOL0     C99390   4.427   3.808  10.705 -0.1068 -0.2375 -0.4675
  721MOL0     O99391   4.502   3.789  10.813  1.2133  0.1271 -0.7604
  721MOL0     C99392   4.636   3.766  10.789 -1.0441  0.6239 -0.2305
  721MOL0     C99393   4.695   3.642  10.753  0.7423 -1.0278 -0.1269
  721MOL0     C99394   4.830   3.636  10.728 -0.7991  0.1417  0.1657
  721MOL0     C99395   4.915   3.745  10.729 -0.1328 -0.0290  0.0002
  721MOL0     O99396   5.039   3.732  10.679 -0.0231 -0.6247 -0.2141
  721MOL0     C99397   5.126   3.837  10.705 -0.5650  0.2874 -0.2740
  721MOL0     C99398   5.256   3.794  10.645 -0.3607 -0.0920 -0.4798
  721MOL0     C99399   5.375   3.886  10.672 -0.3319  0.3213  0.1547
  721MOL0     C99400   5.500   3.842  10.601 -0.2926  0.0700 -0.0460
  721MOL0     C99401   5.603   3.948  10.631 -0.2520  0.1448 -0.3795
  721MOL0     C99402   5.732   3.942  10.551 -0.6595 -0.4241  0.6556
  721MOL0     C99403   5.810   4.071  10.575 -0.2514  0.3745  0.8597
  721MOL0     C99404   5.943   4.073  10.500  0.0978 -0.2044  0.4620
  721MOL0    Cl99405   5.922   4.122  10.323 -0.5246  0.2058 -0.1032
  721MOL0     C99406   4.856   3.861  10.770  0.6359 -0.5098  0.7461
  721MOL0     C99407   4.722   3.871  10.799 -0.5749 -0.4611  0.2372
  721MOL0     O99408   4.471   3.818  10.590 -0.2281  0.2308  0.1869
  721MOL0     C99409   4.196   3.782  10.604  0.5189 -0.1443  0.7278
  721MOL0     C99410   4.057   3.784  10.609  0.1161  0.0363 -0.2159
  721MOL0     N99411   3.685   3.535  11.093  0.7297 -0.3610  0.4108
  721MOL0     N99412   3.633   3.484  11.194 -0.4753  0.3717 -0.4712
  721MOL0     C99413   2.673   3.679  10.616  0.0169 -0.0807 -0.4214
  721MOL0     C99414   2.566   3.652  10.543  0.2255  0.2550 -0.1527
  721MOL0     C99415   2.106   3.698  10.387 -1.1238  0.8964 -0.7198
  721MOL0     C99416   1.977   3.753  10.408  0.3983 -0.2428 -0.1169
  721MOL0     C99417   1.869   3.698  10.347  0.8058 -0.7207 -0.7554
  721MOL0     C99418   1.875   3.601  10.256  0.2562  0.5382  0.1946
  721MOL0     O99419   1.762   3.559  10.190 -0.2555  0.1173 -0.3501
  721MOL0     C99420   1.680   3.459  10.246 -0.1385  0.1393 -0.7093
  721MOL0     C99421   1.535   3.510  10.235  0.1593 -0.0039  0.4828
  721MOL0     C99422   1.426   3.406  10.274 -0.6346  0.0239  0.4093
  721MOL0     C99423   1.287   3.458  10.264  0.2604 -1.0065 -0.4115
  721MOL0     C99424   1.174   3.366  10.272 -0.1697 -0.0738  0.0039
  721MOL0     C99425   1.083   3.286  10.288  0.4898 -0.7703  0.1766
  721MOL0     C99426   2.006   3.554  10.222  1.2249  1.1895  0.5876
  721MOL0     C99427   2.118   3.604  10.282  0.2839 -0.1026 -0.4494
  721MOL0     C99428   2.242   3.540  10.242  0.1585 -0.6461  0.2485
  721MOL0     H99429   2.330   3.837  10.702 -0.4699 -0.5629 -0.5284
  721MOL0     H99430   2.534   3.913  10.813 -3.0777 -1.7230  1.2295
  721MOL0     H99431   2.945   3.745  10.696  1.0030 -2.1311 -0.6738
  721MOL0     H99432   2.866   3.626  10.805  0.3984 -0.3466 -3.6810
  721MOL0     H99433   3.047   3.855  10.874 -1.0950 -0.3472 -0.0240
  721MOL0     H99434   2.947   3.788  10.999  1.3467  0.0883  0.8271
  721MOL0     H99435   3.132   3.610  10.834  0.8703  0.8682  0.1687
  721MOL0     H99436   3.199   3.713  10.944 -1.4982  3.6672 -4.9749
  721MOL0     H99437   3.049   3.597  11.140  1.1478  2.6030 -0.0377
  721MOL0     H99438   3.001   3.473  11.026  0.1387 -0.9766  0.6521
  721MOL0     H99439   3.284   3.555  11.093 -3.0176  3.0730  1.6180
  721MOL0     H99440   3.255   3.413  10.985  0.6843 -1.1399  1.4262
  721MOL0     H99441   3.102   3.385  11.218 -0.9957 -2.4247 -2.9632
  721MOL0     H99442   3.194   3.271  11.138 -0.1760 -0.5034  0.7028
  721MOL0     H99443   3.277   3.334  11.380  0.8939  0.9230  0.3075
  721MOL0     H99444   3.341   3.486  11.316 -1.6436  1.5319 -2.4132
  721MOL0     H99445   3.497   3.280  11.330  2.2675 -1.1805 -2.3429
  721MOL0     H99446   3.405   3.231  11.188  0.4534  0.9356  0.0547
  721MOL0     H99447   3.459   3.364  10.942 -0.7333  0.5128  0.3362
  721MOL0     H99448   3.635   3.439  10.767  0.6003 -1.7634  0.9061
  721MOL0     H99449   3.767   3.544  10.820 -0.4538  0.7791 -3.6652
  721MOL0     H99450   3.633   3.659  10.671  0.2432 -1.0558  0.2905
  721MOL0     H99451   3.492   3.646  10.778 -0.3586  3.6202  3.5504
  721MOL0     H99452   3.613   3.876  10.751 -0.9508  0.9152 -0.2947
  721MOL0     H99453   3.582   3.822  10.915  0.4806  1.1642  0.1239
  721MOL0     H99454   3.809   3.923  10.850  2.1505  0.1425 -0.4762
  721MOL0     H99455   3.808   3.774  10.948 -4.0071 -0.9556  0.3069
  721MOL0     H99456   4.027   3.804  10.949 -1.8148  1.8354 -0.0133
  721MOL0     H99457   4.341   3.898  10.998  1.5803 -1.2832  1.7122
  721MOL0     H99458   4.347   3.729  10.996 -0.3988  0.8573 -2.6429
  721MOL0     H99459   4.202   3.817  11.064  0.1494  4.4829  0.1697
  721MOL0     H99460   4.630   3.556  10.741 -0.9761  0.2977 -0.7160
  721MOL0     H99461   4.870   3.542  10.692  1.4846  1.2058 -0.2206
  721MOL0     H99462   5.110   3.939  10.670 -1.2904  0.3687  0.2573
  721MOL0     H99463   5.133   3.843  10.814  0.9191 -3.8318  0.0607
  721MOL0     H99464   5.283   3.693  10.678 -3.2629 -0.3488  1.4562
  721MOL0     H99465   5.246   3.788  10.536 -1.9505  1.5864 -0.4660
  721MOL0     H99466   5.392   3.891  10.779  4.6486  1.8052 -0.4729
  721MOL0     H99467   5.345   3.987  10.642  1.2195  0.4760 -0.9904
  721MOL0     H99468   5.483   3.833  10.493  2.0084 -2.2952 -0.3038
  721MOL0     H99469   5.531   3.743  10.634 -0.6691  0.3782  1.2783
  721MOL0     H99470   5.555   4.045  10.646  0.1804  0.8264 -3.0465
  721MOL0     H99471   5.648   3.941  10.731 -0.3920  1.8858 -0.1721
  721MOL0     H99472   5.709   3.943  10.445 -1.9665  3.1873  0.8367
  721MOL0     H99473   5.791   3.853  10.576  1.1257 -0.3834 -2.7673
  721MOL0     H99474   5.820   4.071  10.684 -1.1272 -0.1665  0.9530
  721MOL0     H99475   5.750   4.154  10.535 -0.7706  0.2925  1.4494
  721MOL0     H99476   5.995   3.977  10.506 -1.9462 -1.5111 -1.1845
  721MOL0     H99477   6.017   4.144  10.538  0.3642 -0.1297 -0.1755
  721MOL0     H99478   4.912   3.954  10.772 -1.1326  0.6440 -0.5301
  721MOL0     H99479   4.672   3.967  10.812 -2.6496 -1.7592  3.0344
  721MOL0     H99480   4.234   3.776  10.503 -0.3439  0.9150  0.3127
  721MOL0     H99481   3.993   3.775  10.521  1.9186  0.0100 -1.5739
  721MOL0     H99482   2.766   3.626  10.595 -1.2361 -2.1401 -1.1134
  721MOL0     H99483   2.565   3.585  10.457 -1.0194  2.4516 -1.9661
  721MOL0     H99484   1.945   3.834  10.473  2.0273  0.5903 -0.2870
  721MOL0     H99485   1.771   3.743  10.359  1.4238  0.2466  1.0671
  721MOL0     H99486   1.690   3.361  10.197  0.3637  1.2819 -3.0533
  721MOL0     H99487   1.699   3.452  10.353 -0.7473  2.3914 -0.4083
  721MOL0     H99488   1.516   3.541  10.132 -1.5786  3.1313  1.5629
  721MOL0     H99489   1.524   3.591  10.308  1.4773  1.2214 -0.6218
  721MOL0     H99490   1.425   3.331  10.195 -3.7274  0.5498 -0.1900
  721MOL0     H99491   1.453   3.363  10.371  2.5326  0.5924 -0.1006
  721MOL0     H99492   1.268   3.519  10.175 -2.2262 -0.0290  0.7049
  721MOL0     H99493   1.272   3.530  10.345 -2.5235 -2.5021  0.5458
  721MOL0     H99494   1.003   3.217  10.310 -1.9669  2.0434  0.8797
  721MOL0     H99495   2.016   3.474  10.149 -1.2249  0.5954  0.8025
  721MOL0     H99496   2.235   3.493  10.144  2.4384  1.2934 -0.9312
  721MOL0     H99497   2.324   3.611  10.232 -0.8495  1.1592  3.3211
  721MOL0     H99498   2.269   3.458  10.309  2.5765 -0.0621  0.0855
  722MOL0     O99499   3.246   9.259   1.233 -0.1192  0.1348 -0.6296
  722MOL0     C99500   3.299   9.330   1.319  0.9211  0.3325  0.2443
  722MOL0     O99501   3.246   9.345   1.451 -0.5937 -0.1399  0.3077
  722MOL0     C99502   3.118   9.306   1.479 -0.4104  0.5088  0.4180
  722MOL0     C99503   3.049   9.390   1.554 -0.5314  0.0902 -0.8873
  722MOL0     C99504   2.921   9.346   1.582 -1.2301 -0.5080  0.3332
  722MOL0     C99505   2.856   9.228   1.541  0.2133  0.6238  0.6696
  722MOL0     O99506   2.723   9.196   1.565 -0.3487  0.0785  0.4154
  722MOL0     C99507   2.628   9.288   1.496  0.9656  0.4233 -0.7130
  722MOL0     C99508   2.486   9.277   1.547  0.6335 -0.0453 -0.3559
  722MOL0     C99509   2.436   9.133   1.552 -0.2728 -0.2596 -0.7516
  722MOL0     C99510   2.328   9.119   1.658  0.2998 -0.1700 -0.2738
  722MOL0     C99511   2.278   8.977   1.666 -0.1748 -0.6734 -0.1203
  722MOL0     C99512   2.176   8.963   1.786 -0.2638 -0.4258 -0.2770
  722MOL0     C99513   2.109   8.825   1.788 -0.6057 -0.6888  0.7705
  722MOL0     C99514   2.029   8.806   1.915  0.5570 -0.2529 -0.3727
  722MOL0     N99515   1.902   8.742   1.898 -0.3626  0.8668 -0.2912
  722MOL0     C99516   1.880   8.620   1.946  0.5944 -0.4435  0.7883
  722MOL0     C99517   1.746   8.601   1.928  0.4832  0.3030 -0.0590
  722MOL0     C99518   1.674   8.486   1.980  0.0928  0.3742 -1.0410
  722MOL0     C99519   1.691   8.460   2.133  0.1623  0.3582  0.5453
  722MOL0     C99520   1.731   8.311   2.167  0.4509  0.8015  0.3855
  722MOL0     C99521   1.767   8.270   2.313  0.0221  0.1679  0.8947
  722MOL0     O99522   1.834   8.147   2.316  0.6845  1.0532 -0.3267
  722MOL0     C99523   1.961   8.133   2.264 -0.0298 -0.2688  0.3696
  722MOL0     C99524   2.067   8.219   2.291  0.0834  0.2603  0.0345
  722MOL0     C99525   2.198   8.193   2.232 -0.2153  0.0490  0.7436
  722MOL0     C99526   2.300   8.302   2.272  1.3245  0.6973  0.1810
  722MOL0     C99527   2.213   8.081   2.145  0.0328  0.9079 -0.1391
  722MOL0     C99528   2.351   8.036   2.094  0.8972  0.2369 -0.2660
  722MOL0     O99529   2.351   7.916   2.024 -0.4502  0.5997  0.3220
  722MOL0     C99530   2.477   7.888   1.968  1.6646 -0.4533 -0.7748
  722MOL0     C99531   2.577   7.839   2.053  0.4217  0.3324  0.1327
  722MOL0     C99532   2.709   7.817   2.001 -0.2224  0.0297 -0.9155
  722MOL0     C99533   2.733   7.828   1.861  1.3622 -0.5025  0.2510
  722MOL0     O99534   2.854   7.787   1.814  0.2689  0.4689  0.5049
  722MOL0     C99535   2.909   7.866   1.704 -0.1821  0.5301  0.0309
  722MOL0     C99536   3.031   7.789   1.646 -0.1532 -0.6465 -1.5316
  722MOL0     C99537   3.135   7.878   1.586  0.5673  0.2191 -0.3574
  722MOL0     C99538   3.263   7.804   1.557 -0.1384  0.5763 -0.2222
  722MOL0     C99539   3.337   7.870   1.440  0.8690  0.6559 -0.4545
  722MOL0     C99540   3.455   7.788   1.393 -0.0616 -0.2326  0.6978
  722MOL0     C99541   3.567   7.792   1.494 -0.8708  0.6508  0.9015
  722MOL0     C99542   3.659   7.677   1.466 -0.0713  0.0338 -0.0439
  722MOL0    Cl99543   3.752   7.705   1.309 -0.1260 -0.2236 -0.5366
  722MOL0     C99544   2.625   7.876   1.780 -0.2605 -0.1088 -0.0244
  722MOL0     C99545   2.503   7.920   1.837 -0.4081 -0.3538 -0.0449
  722MOL0     O99546   2.444   8.111   2.111  0.3429  0.6920  0.1376
  722MOL0     C99547   2.110   7.993   2.119 -0.1278  0.0293  0.5388
  722MOL0     C99548   1.980   8.019   2.180 -1.6452 -0.7969 -0.4838
  722MOL0     N99549   1.688   8.706   1.863  0.4633 -0.2251 -0.7678
  722MOL0     N99550   1.783   8.789   1.845 -0.7603 -0.0129 -0.5718
  722MOL0     C99551   2.939   9.134   1.482 -0.1983  0.7624 -0.9862
  722MOL0     C99552   3.067   9.175   1.442  0.0987 -1.0409 -0.8142
  722MOL0     C99553   3.435   9.375   1.297  0.2053 -0.5699  0.4534
  722MOL0     C99554   3.521   9.386   1.404 -0.7445  0.7045  0.4922
  722MOL0     C99555   3.651   9.441   1.390  0.5428 -0.9016 -0.2161
  722MOL0     C99556   3.699   9.482   1.265  0.8768 -0.2864  0.1466
  722MOL0     O99557   3.823   9.533   1.243 -0.1104 -0.5635 -0.4856
  722MOL0     C99558   3.911   9.552   1.359 -0.4355  0.7094  1.5761
  722MOL0     C99559   4.060   9.571   1.306  0.1542 -0.0100 -0.7506
  722MOL0     C99560   4.151   9.557   1.422 -0.1725  0.0582 -0.2048
  722MOL0     C99561   4.302   9.574   1.401  0.6149 -0.0006  0.1842
  722MOL0     C99562   4.331   9.712   1.372 -0.5437 -0.8792 -0.5001
  722MOL0     C99563   4.375   9.821   1.341  0.4651 -0.0757  0.5695
  722MOL0     C99564   3.611   9.470   1.158 -0.2755 -0.3746 -0.1982
  722MOL0     C99565   3.481   9.422   1.167 -0.2383 -0.3978 -0.1594
  722MOL0     C99566   3.408   9.402   1.037 -0.1432  0.0117  0.1746
  722MOL0     H99567   3.086   9.490   1.570  0.6268 -0.3725 -0.5820
  722MOL0     H99568   2.865   9.423   1.634  0.5345 -0.2363  1.9405
  722MOL0     H99569   2.639   9.278   1.388  2.7398 -3.2704 -0.3174
  722MOL0     H99570   2.651   9.391   1.526  0.2363  0.4810 -0.3304
  722MOL0     H99571   2.496   9.312   1.650  0.7306  0.5989 -0.5826
  722MOL0     H99572   2.413   9.342   1.497 -0.9100 -0.8813  0.7131
  722MOL0     H99573   2.379   9.101   1.464 -2.6694  0.3811  0.4561
  722MOL0     H99574   2.514   9.060   1.574 -0.5300 -0.4950 -0.5960
  722MOL0     H99575   2.365   9.157   1.754 -0.4494  1.4471 -0.5953
  722MOL0     H99576   2.242   9.182   1.635 -0.0093 -1.1841 -2.0594
  722MOL0     H99577   2.357   8.901   1.656  0.6742  0.4600 -3.4512
  722MOL0     H99578   2.213   8.971   1.578  1.4735 -0.0394 -1.4439
  722MOL0     H99579   2.217   8.973   1.887 -1.4688  1.4782  0.0832
  722MOL0     H99580   2.108   9.047   1.770 -1.1467 -0.6304  2.0327
  722MOL0     H99581   2.185   8.748   1.774 -0.0790  0.0627 -0.8950
  722MOL0     H99582   2.038   8.810   1.706  1.2100 -5.2189 -0.2561
  722MOL0     H99583   2.094   8.735   1.967 -0.3773 -2.0080 -1.4808
  722MOL0     H99584   2.011   8.904   1.960  1.7013 -0.3536  0.3325
  722MOL0     H99585   1.958   8.553   1.981  2.2481  1.3044  0.6723
  722MOL0     H99586   1.727   8.402   1.935  3.1098  0.7406  1.4346
  722MOL0     H99587   1.568   8.492   1.957  0.1849 -0.9301 -1.8984
  722MOL0     H99588   1.767   8.525   2.176 -0.8814 -0.1745  3.4949
  722MOL0     H99589   1.600   8.480   2.190  0.1437  1.1837  0.2240
  722MOL0     H99590   1.638   8.255   2.147 -0.7956  3.0695 -0.5566
  722MOL0     H99591   1.805   8.261   2.104 -1.6965 -1.2594 -0.6650
  722MOL0     H99592   1.838   8.342   2.355 -2.2660  3.3831 -0.3890
  722MOL0     H99593   1.677   8.272   2.375 -0.8502 -0.4638 -0.3106
  722MOL0     H99594   2.057   8.308   2.352  1.0349  0.7048 -0.4236
  722MOL0     H99595   2.250   8.383   2.325 -0.7018 -1.8954  2.5193
  722MOL0     H99596   2.353   8.330   2.180  2.4068  0.7564  0.8045
  722MOL0     H99597   2.381   8.257   2.331  0.6159 -0.4996  0.2774
  722MOL0     H99598   2.553   7.811   2.156 -0.6888 -2.1826 -0.7242
  722MOL0     H99599   2.789   7.790   2.070 -0.8367 -0.8139 -0.5079
  722MOL0     H99600   2.843   7.881   1.619  0.4348 -2.9114 -1.2093
  722MOL0     H99601   2.934   7.964   1.745 -0.2746  0.3559  0.5187
  722MOL0     H99602   3.083   7.737   1.727  1.4068 -1.6529 -3.0864
  722MOL0     H99603   3.000   7.705   1.583  0.5575 -1.4288 -0.8543
  722MOL0     H99604   3.165   7.951   1.662  0.8418 -0.4363  0.1730
  722MOL0     H99605   3.089   7.926   1.500 -2.7743 -1.3385  0.3822
  722MOL0     H99606   3.244   7.698   1.537  0.8684  0.4625 -0.6631
  722MOL0     H99607   3.330   7.802   1.644  2.0370  0.9389 -1.7954
  722MOL0     H99608   3.268   7.875   1.355  0.4338 -0.1039 -0.1464
  722MOL0     H99609   3.372   7.970   1.469  1.7911 -0.2538  1.8015
  722MOL0     H99610   3.478   7.843   1.301 -1.5819  1.6208  1.3542
  722MOL0     H99611   3.414   7.689   1.374 -1.3256  0.0493  1.8086
  722MOL0     H99612   3.534   7.765   1.595  0.3724  1.3802  1.5207
  722MOL0     H99613   3.617   7.888   1.484  0.2874 -0.0415 -0.3725
  722MOL0     H99614   3.595   7.589   1.460  1.0378 -0.9702  2.0536
  722MOL0     H99615   3.722   7.658   1.553 -0.1985 -1.0849 -0.1839
  722MOL0     H99616   2.641   7.891   1.674 -0.5299 -1.4296 -0.2753
  722MOL0     H99617   2.422   7.947   1.771  0.5888  2.2634 -0.3126
  722MOL0     H99618   2.114   7.906   2.054  1.0620  0.3772  0.1234
  722MOL0     H99619   1.897   7.952   2.158 -2.6435  0.5729 -0.9979
  722MOL0     H99620   2.903   9.038   1.444  1.8585 -1.2903  1.7976
  722MOL0     H99621   3.121   9.108   1.376 -2.4317 -3.3381 -0.7165
  722MOL0     H99622   3.487   9.341   1.497 -2.1973 -0.5406 -0.5868
  722MOL0     H99623   3.711   9.444   1.480 -1.3156  0.8478  1.0743
  722MOL0     H99624   3.885   9.643   1.413 -0.8495  2.0946 -0.8029
  722MOL0     H99625   3.892   9.466   1.424 -1.3989 -0.7019 -0.4289
  722MOL0     H99626   4.065   9.664   1.248  0.0856  0.2955 -0.2702
  722MOL0     H99627   4.079   9.494   1.230 -0.4975  1.7621 -2.8086
  722MOL0     H99628   4.122   9.624   1.504  0.9921  1.4267 -0.8720
  722MOL0     H99629   4.127   9.455   1.453 -2.2659  0.4449 -0.3990
  722MOL0     H99630   4.342   9.517   1.317  0.1687  0.4010 -0.3085
  722MOL0     H99631   4.361   9.544   1.488  0.0358 -5.5625 -0.9726
  722MOL0     H99632   4.393   9.923   1.312  2.6876  0.3011  2.8966
  722MOL0     H99633   3.650   9.510   1.065  0.0313 -0.4981 -0.1262
  722MOL0     H99634   3.300   9.385   1.035 -0.1276 -0.3285  1.5786
  722MOL0     H99635   3.416   9.493   0.976  2.6538 -0.4034 -0.2238
  722MOL0     H99636   3.454   9.314   0.991 -3.1573 -1.3528 -0.4308
  723MOL0     O99637   1.261   2.495   8.828 -0.1746  0.1547 -0.3674
  723MOL0     C99638   1.281   2.465   8.708 -0.2504 -0.1183 -0.0631
  723MOL0     O99639   1.404   2.427   8.652 -0.7919 -0.1334  0.1605
  723MOL0     C99640   1.520   2.430   8.734  0.6890 -0.1181  0.2117
  723MOL0     C99641   1.631   2.465   8.667 -0.6726 -0.9284  0.2217
  723MOL0     C99642   1.750   2.481   8.739  0.6258  0.6497  0.1979
  723MOL0     C99643   1.756   2.455   8.878 -0.3155 -0.7777  0.1629
  723MOL0     O99644   1.865   2.463   8.956  0.1452  0.7597  1.1842
  723MOL0     C99645   1.996   2.463   8.902 -0.5291  0.1926  0.4729
  723MOL0     C99646   2.038   2.336   8.824  0.3546  1.2617  0.2135
  723MOL0     C99647   2.190   2.321   8.798 -0.2646 -0.0006  0.3110
  723MOL0     C99648   2.271   2.275   8.907  0.1158 -0.6517 -0.0697
  723MOL0     C99649   2.416   2.231   8.875 -0.1880 -0.3212 -0.4271
  723MOL0     C99650   2.471   2.164   9.001 -0.0708 -0.1501  0.3818
  723MOL0     C99651   2.613   2.109   8.983  0.4488 -0.1579  0.1452
  723MOL0     C99652   2.654   2.018   9.095  0.0076  0.7837 -0.3673
  723MOL0     N99653   2.783   1.953   9.064  0.2503 -0.1654  0.5331
  723MOL0     C99654   2.901   2.009   9.027 -0.3074  0.0763 -1.1064
  723MOL0     C99655   2.995   1.911   9.024 -0.2477  0.5046  0.0146
  723MOL0     C99656   3.141   1.929   8.990  0.3898  0.2418 -0.1799
  723MOL0     C99657   3.242   1.871   9.102 -0.1202 -0.6607  0.5674
  723MOL0     C99658   3.227   1.909   9.243  0.5292  0.6426 -0.4217
  723MOL0     C99659   3.217   2.067   9.256  0.5217  0.8373 -0.1549
  723MOL0     O99660   3.352   2.117   9.259  0.8427 -0.4605 -0.1103
  723MOL0     C99661   3.361   2.250   9.239 -0.0887 -0.2151  0.7109
  723MOL0     C99662   3.274   2.349   9.194 -0.0236  0.4133  0.0992
  723MOL0     C99663   3.298   2.485   9.189 -0.1072 -0.1877  0.7200
  723MOL0     C99664   3.193   2.573   9.127  0.5891 -0.3723 -0.3504
  723MOL0     C99665   3.431   2.525   9.228  0.3357  0.1688 -0.2550
  723MOL0     C99666   3.480   2.670   9.245  0.2635  0.1630  0.1649
  723MOL0     O99667   3.612   2.697   9.268  0.4794  0.7156 -0.1231
  723MOL0     C99668   3.646   2.822   9.305  0.6276  0.6756 -0.5929
  723MOL0     C99669   3.589   2.869   9.425 -0.1774  0.4960 -1.0118
  723MOL0     C99670   3.629   2.988   9.478 -0.1111 -0.0915  0.3687
  723MOL0     C99671   3.722   3.070   9.413  0.2442  0.1653  0.4660
  723MOL0     O99672   3.752   3.191   9.482  0.2230 -0.0180 -0.7586
  723MOL0     C99673   3.790   3.307   9.416  0.1672  0.0357  0.6412
  723MOL0     C99674   3.801   3.431   9.515 -0.4533 -0.2851  0.0107
  723MOL0     C99675   3.852   3.548   9.425 -0.2987  0.0567 -0.2698
  723MOL0     C99676   3.731   3.618   9.360  0.7144 -0.1170 -1.1646
  723MOL0     C99677   3.770   3.725   9.254  0.3395  0.6701  0.3074
  723MOL0     C99678   3.648   3.764   9.173 -0.3458 -0.6883 -0.4508
  723MOL0     C99679   3.676   3.884   9.083 -1.4867 -1.3508  0.4667
  723MOL0     C99680   3.594   3.874   8.956 -0.1778  0.4579 -0.1801
  723MOL0    Cl99681   3.417   3.877   8.992 -0.1639 -0.8729 -0.5583
  723MOL0     C99682   3.771   3.025   9.292  0.5117 -0.9281 -0.1971
  723MOL0     C99683   3.737   2.903   9.236  0.0883  0.8147 -0.1376
  723MOL0     O99684   3.385   2.752   9.266  0.2185 -0.4208  0.4215
  723MOL0     C99685   3.526   2.429   9.278  0.4112 -0.9542  0.0572
  723MOL0     C99686   3.485   2.299   9.280 -0.6125 -0.2050 -0.9848
  723MOL0     N99687   2.932   1.794   9.065  0.2867 -0.2251  0.2084
  723MOL0     N99688   2.806   1.820   9.089  0.5420 -0.6071  0.3285
  723MOL0     C99689   1.641   2.408   8.936  0.0195 -0.2194 -0.0596
  723MOL0     C99690   1.524   2.388   8.867 -0.6494 -0.3129 -0.2380
  723MOL0     C99691   1.157   2.454   8.627 -1.1089  0.0390  0.4073
  723MOL0     C99692   1.171   2.376   8.506 -0.1203 -0.4250 -0.3066
  723MOL0     C99693   1.061   2.338   8.431  0.0655 -0.3296 -0.6340
  723MOL0     C99694   0.939   2.383   8.457  0.7192 -0.1781  0.8589
  723MOL0     O99695   0.825   2.376   8.376 -0.0723 -0.0980  0.7342
  723MOL0     C99696   0.840   2.274   8.273 -0.1794 -0.4435  0.3940
  723MOL0     C99697   0.825   2.131   8.321 -0.4603  0.0479 -0.3091
  723MOL0     C99698   0.696   2.096   8.405  0.0437  0.6504  0.4004
  723MOL0     C99699   0.568   2.101   8.319  0.3933 -0.5296  0.3325
  723MOL0     C99700   0.558   1.995   8.212  0.1364 -0.1947 -0.1293
  723MOL0     C99701   0.557   1.906   8.128  0.0375 -0.1731  0.0547
  723MOL0     C99702   0.925   2.463   8.575 -0.4157 -0.0244  0.9591
  723MOL0     C99703   1.028   2.504   8.660 -0.3375  0.6022  0.0722
  723MOL0     C99704   0.986   2.595   8.772 -0.2669 -1.0533 -0.2127
  723MOL0     H99705   1.617   2.485   8.562 -2.5813 -0.4679  0.5366
  723MOL0     H99706   1.832   2.492   8.669 -1.8639 -0.2773 -3.1129
  723MOL0     H99707   2.066   2.475   8.985  0.2869 -2.2842  0.2121
  723MOL0     H99708   2.000   2.559   8.848  1.2285 -1.1306 -1.9379
  723MOL0     H99709   2.003   2.253   8.886  0.7974 -1.0938 -2.4719
  723MOL0     H99710   1.978   2.342   8.733  0.9980 -0.5849 -0.3816
  723MOL0     H99711   2.191   2.250   8.714  1.2712  0.8857 -0.4672
  723MOL0     H99712   2.233   2.416   8.765  1.1147 -0.1334  1.6017
  723MOL0     H99713   2.273   2.349   8.987  2.2549 -2.2383  1.4749
  723MOL0     H99714   2.208   2.194   8.945 -1.1659 -0.7987 -2.3380
  723MOL0     H99715   2.478   2.316   8.845 -2.0054  1.0705 -0.4011
  723MOL0     H99716   2.409   2.147   8.804 -1.3630 -1.5412  1.0658
  723MOL0     H99717   2.478   2.229   9.088  0.6771  0.2321  0.0506
  723MOL0     H99718   2.403   2.083   9.028  0.3430 -0.7024 -0.1802
  723MOL0     H99719   2.679   2.196   8.978 -2.1613  2.0485  1.1811
  723MOL0     H99720   2.635   2.057   8.889 -2.0004 -1.5963  0.2740
  723MOL0     H99721   2.668   2.075   9.187  1.3278 -1.4701  0.9261
  723MOL0     H99722   2.583   1.940   9.123  0.7057 -0.4678 -1.9611
  723MOL0     H99723   2.922   2.114   9.015  0.7934 -0.2719 -2.4427
  723MOL0     H99724   3.158   2.036   8.972  0.7353  0.0313 -1.1641
  723MOL0     H99725   3.169   1.876   8.899  3.1498  1.1802  0.0013
  723MOL0     H99726   3.241   1.762   9.089 -0.1338 -0.7154  1.0083
  723MOL0     H99727   3.344   1.887   9.066 -0.2279 -1.2291 -0.0175
  723MOL0     H99728   3.133   1.866   9.280  2.2348 -1.7869  1.3331
  723MOL0     H99729   3.308   1.863   9.299 -1.9556 -0.6998  2.3677
  723MOL0     H99730   3.149   2.110   9.182  0.7922  0.4623 -0.6248
  723MOL0     H99731   3.161   2.077   9.350 -1.0083 -0.1633 -0.9100
  723MOL0     H99732   3.174   2.324   9.158  0.4751  0.0184 -1.0574
  723MOL0     H99733   3.135   2.609   9.213 -4.0746  1.7037 -3.9184
  723MOL0     H99734   3.125   2.522   9.058  3.0797 -0.9313 -2.5373
  723MOL0     H99735   3.236   2.662   9.081  0.0288  0.6393  1.0007
  723MOL0     H99736   3.523   2.807   9.485  1.5220 -1.2340 -0.8111
  723MOL0     H99737   3.572   3.033   9.559 -0.9948 -2.2186  0.9991
  723MOL0     H99738   3.888   3.276   9.378 -0.5239 -2.2775  0.5856
  723MOL0     H99739   3.722   3.326   9.333 -0.7383  2.2585  1.7917
  723MOL0     H99740   3.718   3.454   9.582  0.7442  1.4050  0.9834
  723MOL0     H99741   3.872   3.415   9.598 -0.7270  1.3425  0.5812
  723MOL0     H99742   3.936   3.531   9.358  0.1670 -0.1671  0.3543
  723MOL0     H99743   3.896   3.619   9.495  2.5020 -3.3313  1.7364
  723MOL0     H99744   3.673   3.674   9.435  4.5508  2.1330  0.4170
  723MOL0     H99745   3.659   3.546   9.319 -2.1618  0.8694  1.7185
  723MOL0     H99746   3.811   3.816   9.299 -2.4680  2.3967 -0.3759
  723MOL0     H99747   3.842   3.679   9.186 -0.5169 -3.0128  1.6381
  723MOL0     H99748   3.573   3.789   9.249 -1.4217 -1.7571 -1.1175
  723MOL0     H99749   3.618   3.671   9.123  0.4893 -0.0924 -2.1329
  723MOL0     H99750   3.783   3.873   9.063 -0.6791 -0.3890  3.6478
  723MOL0     H99751   3.651   3.983   9.121  0.0351 -1.1576  1.0053
  723MOL0     H99752   3.622   3.787   8.896  0.6707 -0.0892  0.9665
  723MOL0     H99753   3.617   3.964   8.898 -0.6135  0.1729 -0.8043
  723MOL0     H99754   3.843   3.083   9.234  0.4379 -1.2191 -0.5884
  723MOL0     H99755   3.780   2.876   9.140  1.4109  1.9287  0.1041
  723MOL0     H99756   3.620   2.458   9.323 -0.8239 -0.3742  2.4362
  723MOL0     H99757   3.559   2.224   9.306 -1.1853 -1.6133 -3.1093
  723MOL0     H99758   1.647   2.378   9.040 -1.9926 -0.5874 -0.0224
  723MOL0     H99759   1.439   2.343   8.918 -0.6448  2.2206  2.2314
  723MOL0     H99760   1.266   2.338   8.471 -1.1610 -0.7778 -2.9444
  723MOL0     H99761   1.076   2.268   8.349 -1.1988 -1.1870 -0.1609
  723MOL0     H99762   0.770   2.286   8.189  0.0212  0.1917  0.3054
  723MOL0     H99763   0.931   2.282   8.214 -2.4643  1.0097 -3.3105
  723MOL0     H99764   0.911   2.115   8.386 -0.8640  0.6203  0.3819
  723MOL0     H99765   0.828   2.054   8.243  0.9256  0.9006 -1.1417
  723MOL0     H99766   0.709   1.995   8.444  4.1522  1.0194  0.4659
  723MOL0     H99767   0.684   2.170   8.485  0.8956 -0.3474  1.4827
  723MOL0     H99768   0.567   2.192   8.258  0.2308 -1.5738 -1.3040
  723MOL0     H99769   0.486   2.102   8.391  0.8413  2.1686  0.9098
  723MOL0     H99770   0.565   1.830   8.052 -1.0109 -0.6589  0.4152
  723MOL0     H99771   0.821   2.488   8.593 -0.8496 -2.2427  1.7739
  723MOL0     H99772   0.881   2.626   8.764  0.2344  0.2999 -2.6022
  723MOL0     H99773   0.998   2.550   8.871 -0.9063 -0.3799  0.1835
  723MOL0     H99774   1.052   2.682   8.768  2.2269 -2.8966 -1.7580
  724MOL0     O99775  10.109   7.196  11.063 -0.0037 -0.4327  0.2097
  724MOL0     C99776  10.183   7.282  11.011 -0.0459  0.7158  0.0476
  724MOL0     O99777  10.323   7.272  10.998  0.5448 -0.3136 -0.5821
  724MOL0     C99778  10.382   7.165  11.052  0.0351 -0.2869  0.5607
  724MOL0     C99779  10.467   7.175  11.170 -1.0787  0.7873  0.5386
  724MOL0     C99780  10.545   7.060  11.200 -0.5007  0.1483  0.3809
  724MOL0     C99781  10.519   6.937  11.144  0.3995  1.1551  0.5809
  724MOL0     O99782  10.589   6.828  11.195  0.0190 -0.0885  0.2628
  724MOL0     C99783  10.556   6.695  11.132  0.2989 -1.1729  0.1875
  724MOL0     C99784  10.643   6.599  11.208  0.3227 -0.1292  0.1287
  724MOL0     C99785  10.793   6.630  11.190 -0.0096  0.9463 -0.5335
  724MOL0     C99786  10.860   6.517  11.266 -0.5553  0.0700 -0.0890
  724MOL0     C99787  11.007   6.559  11.283 -0.3771 -0.8623  0.3069
  724MOL0     C99788  11.091   6.447  11.339 -0.3091  0.2665  0.5191
  724MOL0     C99789  11.235   6.474  11.364  0.2773  0.3411  0.0921
  724MOL0     C99790  11.313   6.527  11.249  0.4673  0.3298 -0.6350
  724MOL0     N99791  11.457   6.550  11.277  0.4602  0.0921  0.1350
  724MOL0     C99792  11.519   6.670  11.282 -0.0139 -0.2063 -0.1923
  724MOL0     C99793  11.636   6.654  11.343 -0.2513  0.0146 -0.1017
  724MOL0     C99794  11.728   6.758  11.382 -0.4604  0.3554 -0.2009
  724MOL0     C99795  11.707   6.852  11.501  0.3870 -0.3411  0.8484
  724MOL0     C99796  11.700   6.794  11.641 -1.3215  0.6623  0.1898
  724MOL0     C99797  11.820   6.719  11.691  0.1997 -0.6392  0.4558
  724MOL0     O99798  11.936   6.813  11.668  0.4365  0.1029 -0.4549
  724MOL0     C99799  12.063   6.764  11.703  0.5962  0.0467 -0.2506
  724MOL0     C99800  12.080   6.631  11.744 -0.0223 -0.1443  0.3142
  724MOL0     C99801  12.205   6.578  11.759 -1.0180  0.1307 -0.2519
  724MOL0     C99802  12.215   6.426  11.784 -0.9546  0.8118  0.5731
  724MOL0     C99803  12.325   6.651  11.736 -0.7242 -0.1303  0.0362
  724MOL0     C99804  12.469   6.605  11.749 -0.7357  0.3572  0.5070
  724MOL0     O99805  12.563   6.694  11.720  0.3744  0.3665 -0.0832
  724MOL0     C99806  12.688   6.652  11.686  0.0010 -0.4461  0.7651
  724MOL0     C99807  12.787   6.745  11.700 -0.6682 -0.5361 -0.8645
  724MOL0     C99808  12.922   6.725  11.663 -0.1429 -0.3570  0.8951
  724MOL0     C99809  12.960   6.606  11.604  0.2365  0.1018  0.1261
  724MOL0     O99810  13.092   6.576  11.559  0.6816 -0.3673 -0.0171
  724MOL0     C99811  13.194   6.650  11.610  0.2716 -0.4673 -0.1678
  724MOL0     C99812  13.323   6.582  11.563 -0.0880  0.1389  0.7340
  724MOL0     C99813  13.365   6.611  11.419  0.0682 -0.3776 -0.0831
  724MOL0     C99814  13.499   6.683  11.414  0.3531  0.5885  0.3235
  724MOL0     C99815  13.568   6.653  11.280 -0.2196  0.2438 -1.1856
  724MOL0     C99816  13.658   6.533  11.293 -0.0881 -0.1170 -0.3792
  724MOL0     C99817  13.735   6.509  11.171 -0.2226  0.1131  0.1154
  724MOL0     C99818  13.840   6.403  11.182  0.5596 -0.0738  0.1438
  724MOL0    Cl99819  13.901   6.363  11.014 -0.2201 -0.1093 -0.2488
  724MOL0     C99820  12.864   6.510  11.586 -0.0048 -0.1129  0.9437
  724MOL0     C99821  12.728   6.534  11.614 -0.1705  0.2706 -0.2250
  724MOL0     O99822  12.492   6.488  11.801  0.2802  0.8405  0.2744
  724MOL0     C99823  12.305   6.789  11.717  0.1949 -0.2045  1.0440
  724MOL0     C99824  12.179   6.844  11.693 -0.1193  0.6196  1.0797
  724MOL0     N99825  11.660   6.523  11.366  0.4377 -0.0445  0.7800
  724MOL0     N99826  11.553   6.463  11.329 -0.7323 -0.1244  0.3366
  724MOL0     C99827  10.439   6.931  11.023  0.2198  0.3651 -0.7134
  724MOL0     C99828  10.372   7.047  10.980  0.6314  0.9441  0.0657
  724MOL0     C99829  10.113   7.411  10.979 -0.3902 -1.4019 -0.6232
  724MOL0     C99830  10.200   7.522  10.994 -0.4347 -0.3788  0.3964
  724MOL0     C99831  10.143   7.652  10.985 -0.2523 -0.2979  0.3361
  724MOL0     C99832  10.000   7.675  10.973  0.3814  0.2236 -0.9395
  724MOL0     O99833   9.950   7.797  10.978 -0.4007 -0.8134  0.0969
  724MOL0     C99834   9.808   7.823  10.981 -1.0672  0.4984  0.1384
  724MOL0     C99835   9.758   7.829  11.124  0.3648  0.9285 -0.7373
  724MOL0     C99836   9.848   7.905  11.218 -0.3459  0.1516 -0.4473
  724MOL0     C99837   9.770   7.979  11.336 -0.2270  0.2125 -0.2818
  724MOL0     C99838   9.851   8.087  11.397  0.7291 -0.4230  0.3211
  724MOL0     C99839   9.923   8.170  11.442  1.2873 -0.1946 -0.4047
  724MOL0     C99840   9.921   7.551  10.969  0.2452 -0.0820  0.2813
  724MOL0     C99841   9.979   7.423  10.955  0.6415 -0.3555 -0.1771
  724MOL0     C99842   9.884   7.307  10.920 -0.7201 -0.8033  0.0119
  724MOL0     H99843  10.489   7.267  11.222 -1.6463  1.9378 -1.1600
  724MOL0     H99844  10.622   7.057  11.276 -2.2646 -1.8616  2.2335
  724MOL0     H99845  10.591   6.696  11.029 -0.2053 -3.2275 -0.0493
  724MOL0     H99846  10.454   6.658  11.143  0.1900 -1.5218 -1.7332
  724MOL0     H99847  10.616   6.601  11.315  1.7073  1.5939  0.4846
  724MOL0     H99848  10.609   6.499  11.181 -2.3350 -0.3889  3.6493
  724MOL0     H99849  10.824   6.632  11.085 -0.0425 -1.5464 -0.6540
  724MOL0     H99850  10.821   6.720  11.245  1.5525  0.5631 -0.6404
  724MOL0     H99851  10.829   6.495  11.368  0.2554  0.0202  0.1558
  724MOL0     H99852  10.850   6.419  11.217 -1.5152 -0.1230  0.4731
  724MOL0     H99853  11.015   6.648  11.347 -2.5326  1.0540 -1.8794
  724MOL0     H99854  11.052   6.576  11.185  4.1290  1.7504  2.4599
  724MOL0     H99855  11.045   6.422  11.435  0.9688  2.1283  1.6786
  724MOL0     H99856  11.079   6.351  11.287 -0.2355 -0.8252  2.4244
  724MOL0     H99857  11.282   6.385  11.407 -1.6113 -1.5923 -1.6145
  724MOL0     H99858  11.235   6.541  11.451 -1.6121  0.0009  0.4013
  724MOL0     H99859  11.311   6.451  11.170 -1.2427  0.4784 -0.7760
  724MOL0     H99860  11.261   6.618  11.218  1.2257  0.7282 -0.7588
  724MOL0     H99861  11.483   6.764  11.242  3.0173  0.6123 -1.3103
  724MOL0     H99862  11.741   6.811  11.286  0.9843 -2.1490 -1.4891
  724MOL0     H99863  11.822   6.707  11.402 -0.0134  0.1662 -2.4729
  724MOL0     H99864  11.783   6.931  11.500 -2.1972  2.4932 -2.5673
  724MOL0     H99865  11.614   6.908  11.488 -0.0670 -0.7178  2.3225
  724MOL0     H99866  11.690   6.880  11.708  2.0967  0.8260  0.6566
  724MOL0     H99867  11.612   6.729  11.643 -0.1513 -0.9924 -0.6538
  724MOL0     H99868  11.803   6.699  11.798 -0.0182 -1.3434  0.2986
  724MOL0     H99869  11.833   6.630  11.629 -2.7392  1.0577 -2.9515
  724MOL0     H99870  12.006   6.554  11.764 -1.0742  0.7537 -0.0143
  724MOL0     H99871  12.235   6.403  11.889  1.0662 -0.3044 -0.0112
  724MOL0     H99872  12.299   6.389  11.725 -0.2333  1.1680  1.3487
  724MOL0     H99873  12.121   6.377  11.759  0.4331 -1.5687 -0.2822
  724MOL0     H99874  12.766   6.841  11.746  4.1291  1.3233 -2.0157
  724MOL0     H99875  12.984   6.813  11.682 -0.6937 -0.1215  1.6833
  724MOL0     H99876  13.173   6.747  11.563 -1.1492 -1.1399 -0.9689
  724MOL0     H99877  13.194   6.650  11.719  3.7404 -1.9283 -0.0433
  724MOL0     H99878  13.400   6.601  11.639  1.9479 -2.7583 -0.4308
  724MOL0     H99879  13.292   6.477  11.560 -2.6685  0.8399 -2.5656
  724MOL0     H99880  13.296   6.671  11.359  0.4911  2.9195  2.5037
  724MOL0     H99881  13.383   6.514  11.371 -0.8392 -1.4660  1.6678
  724MOL0     H99882  13.550   6.658  11.507 -0.5109 -0.1317  0.6223
  724MOL0     H99883  13.484   6.791  11.421  1.3134  0.6163  2.9345
  724MOL0     H99884  13.497   6.626  11.201 -0.3831  3.1669 -2.1796
  724MOL0     H99885  13.624   6.744  11.255  2.1011 -0.9680 -0.6491
  724MOL0     H99886  13.595   6.447  11.316 -0.8853  0.7007  0.5898
  724MOL0     H99887  13.731   6.552  11.372 -0.6492  0.6012 -0.0247
  724MOL0     H99888  13.776   6.600  11.127 -2.7780  1.9441  1.2819
  724MOL0     H99889  13.670   6.473  11.091  1.9367  1.1054 -2.1944
  724MOL0     H99890  13.803   6.314  11.234  1.9503  0.2277  1.7219
  724MOL0     H99891  13.919   6.444  11.245  0.7822 -1.0299  0.5020
  724MOL0     H99892  12.897   6.419  11.537  2.7470  1.5038 -0.4575
  724MOL0     H99893  12.663   6.449  11.598  0.3831 -0.3376  0.6958
  724MOL0     H99894  12.390   6.856  11.713  0.0581 -0.0886 -1.2060
  724MOL0     H99895  12.168   6.951  11.679 -1.8742  0.2097 -1.2413
  724MOL0     H99896  10.438   6.847  10.954  4.5303  0.5427 -1.2945
  724MOL0     H99897  10.299   7.058  10.900 -1.4630  5.9400  2.2413
  724MOL0     H99898  10.306   7.516  11.014 -0.4414 -1.6757  0.1467
  724MOL0     H99899  10.217   7.729  11.003  0.2311 -0.4136 -1.0330
  724MOL0     H99900   9.785   7.918  10.933  1.4667  0.6677 -0.8510
  724MOL0     H99901   9.755   7.749  10.921 -1.8429  0.1371  1.2263
  724MOL0     H99902   9.753   7.727  11.165  0.2795  0.4410 -1.9112
  724MOL0     H99903   9.657   7.871  11.122 -0.5162 -1.0156 -0.0133
  724MOL0     H99904   9.921   7.837  11.264  1.7382  2.0378 -0.7926
  724MOL0     H99905   9.901   7.979  11.157 -3.6295  1.9993 -1.2736
  724MOL0     H99906   9.741   7.904  11.411  0.7196 -1.5418 -1.6066
  724MOL0     H99907   9.677   8.019  11.295 -0.4485  1.5333  1.3759
  724MOL0     H99908   9.983   8.253  11.474  0.5485  1.5973 -3.2789
  724MOL0     H99909   9.812   7.559  10.971  0.1703 -0.6502 -0.8630
  724MOL0     H99910   9.850   7.270  11.017 -1.3035 -0.9649 -0.2505
  724MOL0     H99911   9.795   7.341  10.865 -2.2564 -0.8447  2.3237
  724MOL0     H99912   9.936   7.226  10.869 -0.5865 -0.6270 -0.1327
  725MOL0     O99913  11.380   4.675   8.818  0.4072 -0.2135  0.3785
  725MOL0     C99914  11.307   4.762   8.766 -0.7740  0.4346 -0.1875
  725MOL0     O99915  11.294   4.894   8.818  0.7805  0.3965  0.0141
  725MOL0     C99916  11.355   4.913   8.937  0.0142 -0.1835  0.3476
  725MOL0     C99917  11.492   4.958   8.956 -0.2343 -0.4949  0.3562
  725MOL0     C99918  11.545   4.970   9.080 -0.0273 -0.5618 -0.6609
  725MOL0     C99919  11.472   4.942   9.199 -0.4465 -0.7901  0.1244
  725MOL0     O99920  11.533   4.974   9.319 -0.5499 -0.6369  0.1000
  725MOL0     C99921  11.479   4.907   9.431  0.1621  0.4615  0.2265
  725MOL0     C99922  11.565   4.913   9.559 -0.1355 -0.1001 -0.3586
  725MOL0     C99923  11.571   5.044   9.625 -0.1720 -0.1188  0.0454
  725MOL0     C99924  11.663   5.143   9.551  1.0826  0.2884  0.5838
  725MOL0     C99925  11.653   5.274   9.636  0.3985  0.6084  0.1844
  725MOL0     C99926  11.760   5.370   9.591 -0.0911 -0.5859  0.5667
  725MOL0     C99927  11.765   5.498   9.679  0.0263 -0.5367 -0.9032
  725MOL0     C99928  11.874   5.489   9.788 -0.5936 -0.1790 -0.1268
  725MOL0     N99929  11.832   5.405   9.902  0.5261 -0.9066 -0.1720
  725MOL0     C99930  11.905   5.304   9.960 -0.5643  0.8565  0.6716
  725MOL0     C99931  11.841   5.273  10.073 -0.4656  0.6533 -0.2224
  725MOL0     C99932  11.907   5.197  10.183  0.2896  0.6379  0.5367
  725MOL0     C99933  11.909   5.272  10.317 -0.0837 -0.5229 -0.3287
  725MOL0     C99934  12.004   5.389  10.322 -0.1116 -1.0586  0.3056
  725MOL0     C99935  12.014   5.441  10.475  0.3477  0.5566 -0.0452
  725MOL0     O99936  12.055   5.341  10.570  0.5392 -0.1378  0.0352
  725MOL0     C99937  12.186   5.325  10.591 -0.8019 -0.4282 -0.2291
  725MOL0     C99938  12.290   5.386  10.516 -0.1333 -0.6965  0.3362
  725MOL0     C99939  12.420   5.386  10.565 -0.6649  0.0870 -0.0275
  725MOL0     C99940  12.520   5.462  10.475  0.0052  0.4215  0.2913
  725MOL0     C99941  12.448   5.306  10.678  0.5493  0.5166  0.1319
  725MOL0     C99942  12.583   5.278  10.727 -0.4147 -0.3681 -1.0248
  725MOL0     O99943  12.616   5.149  10.772 -0.1240 -0.5582  0.2813
  725MOL0     C99944  12.749   5.131  10.805 -0.4228 -0.2785 -0.5225
  725MOL0     C99945  12.791   5.143  10.937 -0.2136  0.4632  0.7103
  725MOL0     C99946  12.924   5.124  10.960 -0.3478  0.0248  0.2074
  725MOL0     C99947  13.023   5.095  10.867  1.0844  0.7674  0.6406
  725MOL0     O99948  13.150   5.068  10.903  0.3631  0.2369  0.8128
  725MOL0     C99949  13.216   5.156  10.995 -0.3707 -0.8126  0.4568
  725MOL0     C99950  13.371   5.135  10.990 -0.5226 -0.0768  0.0504
  725MOL0     C99951  13.426   5.172  10.851  0.1053  0.0550  1.3695
  725MOL0     C99952  13.578   5.157  10.857  1.1572 -0.1056 -0.1120
  725MOL0     C99953  13.645   5.208  10.727  1.0028  0.0412  0.2046
  725MOL0     C99954  13.795   5.218  10.751 -0.6664 -0.2694 -0.4924
  725MOL0     C99955  13.860   5.301  10.641 -0.3125  0.0059  0.5112
  725MOL0     C99956  14.008   5.294  10.633  0.3052  0.2382  0.0987
  725MOL0    Cl99957  14.071   5.425  10.521 -0.1772 -0.3612 -0.1313
  725MOL0     C99958  12.976   5.082  10.735 -0.1455  0.3127  1.4078
  725MOL0     C99959  12.844   5.109  10.697 -0.6122 -0.5303  0.1110
  725MOL0     O99960  12.659   5.377  10.735  0.5237 -0.3969 -0.4762
  725MOL0     C99961  12.348   5.244  10.755 -0.3979  0.5289  0.1147
  725MOL0     C99962  12.214   5.262  10.710 -0.8755  0.3295  0.0508
  725MOL0     N99963  11.727   5.354  10.073 -0.3570  0.9156  0.4903
  725MOL0     N99964  11.724   5.435   9.973  0.2269  0.4156 -0.4675
  725MOL0     C99965  11.330   4.915   9.178  0.1810 -0.3299 -0.6543
  725MOL0     C99966  11.284   4.910   9.049  0.1321 -0.3969  0.9398
  725MOL0     C99967  11.210   4.711   8.668 -0.3785  0.4831  0.3215
  725MOL0     C99968  11.098   4.796   8.638 -0.4988  0.5872  0.1223
  725MOL0     C99969  11.011   4.771   8.533  0.3735  0.7743 -0.5828
  725MOL0     C99970  11.019   4.657   8.452 -0.2378  0.1893 -0.1673
  725MOL0     O99971  10.953   4.619   8.339  0.1683 -0.3540  0.2951
  725MOL0     C99972  10.813   4.670   8.324  0.4146  0.1263 -0.7621
  725MOL0     C99973  10.722   4.591   8.410 -0.2819 -0.3260  0.9707
  725MOL0     C99974  10.727   4.431   8.400 -0.0878 -0.8465 -0.1471
  725MOL0     C99975  10.672   4.364   8.522  0.3122 -0.5273 -0.1705
  725MOL0     C99976  10.542   4.417   8.575 -0.4038 -0.0284  0.2930
  725MOL0     C99977  10.439   4.450   8.628  0.3055 -0.6770 -0.5750
  725MOL0     C99978  11.131   4.572   8.482  0.2897 -0.0927  0.8406
  725MOL0     C99979  11.219   4.596   8.585  0.2254 -0.4379  1.1021
  725MOL0     C99980  11.314   4.483   8.615  0.4923 -0.4920  0.3536
  725MOL0     H99981  11.549   4.976   8.865 -0.0282  0.9178  0.7335
  725MOL0     H99982  11.643   5.014   9.099 -0.3613  0.9832 -2.2750
  725MOL0     H99983  11.478   4.801   9.403 -0.0594  0.3565  0.6390
  725MOL0     H99984  11.379   4.945   9.449  0.5299  1.9200 -0.6217
  725MOL0     H99985  11.535   4.836   9.631  2.9302 -0.0538  1.0826
  725MOL0     H99986  11.667   4.884   9.532  0.3200 -0.0948  1.2763
  725MOL0     H99987  11.468   5.080   9.631 -0.0036  1.2871 -3.3324
  725MOL0     H99988  11.619   5.026   9.722  0.5108 -2.5808 -0.6801
  725MOL0     H99989  11.762   5.097   9.547  0.1583 -1.8105  0.7812
  725MOL0     H99990  11.620   5.156   9.451  2.0707 -0.9292 -0.0197
  725MOL0     H99991  11.658   5.246   9.742 -0.9942 -1.5658 -0.2505
  725MOL0     H99992  11.552   5.317   9.636 -0.5216 -1.3961  1.0941
  725MOL0     H99993  11.860   5.324   9.591  0.7678  1.0007  3.6539
  725MOL0     H99994  11.732   5.413   9.495  1.8559 -0.4650  0.0171
  725MOL0     H99995  11.668   5.507   9.730  0.1730 -3.3727  0.0442
  725MOL0     H99996  11.793   5.577   9.609  0.3200 -0.4755 -0.7169
  725MOL0     H99997  11.970   5.470   9.739  0.3019 -0.4964  1.6597
  725MOL0     H99998  11.888   5.587   9.833 -0.3219 -0.7856  1.1533
  725MOL0     H99999  12.010   5.296   9.931 -1.0456  1.9613 -1.5599
  725MOL0     H    0  12.012   5.183  10.156  0.7612  0.4467  2.2890
  725MOL0     H    1  11.872   5.094  10.200 -0.0611  0.8322  1.0120
  725MOL0     H    2  11.811   5.311  10.346 -0.0919  1.3479 -2.6091
  725MOL0     H    3  11.937   5.200  10.395  0.8428 -1.3361 -1.3733
  725MOL0     H    4  12.100   5.359  10.279 -0.6449 -1.9348 -0.3110
  725MOL0     H    5  11.976   5.469  10.253  0.7378 -0.7594  0.2943
  725MOL0     H    6  12.074   5.532  10.473  0.2323  0.7408  2.2597
  725MOL0     H    7  11.922   5.473  10.524  1.4540  1.0810  1.7724
  725MOL0     H    8  12.271   5.446  10.428  1.1802 -3.8622 -2.3431
  725MOL0     H    9  12.616   5.410  10.462 -0.6958 -0.6879 -0.7631
  725MOL0     H   10  12.537   5.563  10.513  1.2807  0.8171 -1.2300
  725MOL0     H   11  12.486   5.461  10.371 -0.8368 -1.3476  0.5319
  725MOL0     H   12  12.710   5.172  11.003  0.8399  1.0117  1.8170
  725MOL0     H   13  12.959   5.120  11.063  2.0174 -1.0513 -0.5635
  725MOL0     H   14  13.190   5.256  10.959  1.9587 -1.1278 -2.4068
  725MOL0     H   15  13.182   5.134  11.096 -1.1947  0.2907  0.4438
  725MOL0     H   16  13.429   5.194  11.061 -3.6885  0.7755  2.1625
  725MOL0     H   17  13.395   5.035  11.027 -1.3554 -0.0711  0.6480
  725MOL0     H   18  13.396   5.274  10.824 -0.7225 -0.8951 -1.7356
  725MOL0     H   19  13.388   5.098  10.780  1.7086 -0.0628  0.6010
  725MOL0     H   20  13.608   5.056  10.886  1.7868  0.6892  2.2681
  725MOL0     H   21  13.614   5.227  10.933 -0.7906 -0.4230  1.1713
  725MOL0     H   22  13.619   5.142  10.643 -0.5651 -0.8158  1.3047
  725MOL0     H   23  13.601   5.304  10.701  1.8724  0.4266  0.1309
  725MOL0     H   24  13.827   5.113  10.753 -0.7875 -0.3004  0.3151
  725MOL0     H   25  13.823   5.257  10.849 -2.1126  0.7014 -0.4388
  725MOL0     H   26  13.831   5.403  10.669  1.1917  0.8121 -0.7432
  725MOL0     H   27  13.815   5.282  10.543 -1.1589  2.2496  0.3941
  725MOL0     H   28  14.045   5.198  10.595 -1.5186 -0.3204 -0.3745
  725MOL0     H   29  14.049   5.305  10.734 -1.9279 -1.2277  1.2453
  725MOL0     H   30  13.045   5.056  10.655 -0.4602  0.1958  1.1733
  725MOL0     H   31  12.827   5.099  10.591 -1.1014 -0.0719  0.1401
  725MOL0     H   32  12.366   5.191  10.848  0.2307  1.3053  0.4503
  725MOL0     H   33  12.135   5.208  10.761 -0.0324  1.4665  2.7121
  725MOL0     H   34  11.266   4.896   9.263  0.3454  3.6704  0.5711
  725MOL0     H   35  11.178   4.915   9.025  0.5997  1.1144 -1.0720
  725MOL0     H   36  11.066   4.879   8.701 -2.3245  0.7535 -0.9480
  725MOL0     H   37  10.926   4.835   8.510  0.4394  0.1903 -2.7375
  725MOL0     H   38  10.808   4.778   8.342  0.3985 -0.1660  1.1706
  725MOL0     H   39  10.779   4.645   8.223 -1.8197  1.5484 -0.4223
  725MOL0     H   40  10.618   4.625   8.401 -0.8571 -1.8892  1.3291
  725MOL0     H   41  10.757   4.618   8.510  2.0278  0.1971  0.0644
  725MOL0     H   42  10.675   4.397   8.310  2.5530 -0.2957 -2.0195
  725MOL0     H   43  10.831   4.401   8.379 -0.7753 -2.2050 -1.8284
  725MOL0     H   44  10.733   4.363   8.613 -0.8210  0.6559  0.6458
  725MOL0     H   45  10.656   4.261   8.491 -1.0058 -0.3394 -0.1533
  725MOL0     H   46  10.334   4.452   8.649  0.1707 -4.7249  0.0446
  725MOL0     H   47  11.148   4.495   8.408 -0.0233 -0.5217  1.2077
  725MOL0     H   48  11.298   4.431   8.710  0.2467 -1.2301 -0.0849
  725MOL0     H   49  11.305   4.408   8.535  3.3671 -1.1008  0.4949
  725MOL0     H   50  11.418   4.517   8.612  0.4055 -0.2377  0.1200
  726MOL0     O   51  10.275   0.044   6.916  0.0580 -0.1379 -0.2365
  726MOL0     C   52  10.181   0.023   6.846  0.6308  0.0503  0.5201
  726MOL0     O   53  10.129   0.108   6.752 -0.0224 -0.9137  0.1573
  726MOL0     C   54  10.185   0.224   6.708 -0.5296  0.0171 -0.3244
  726MOL0     C   55  10.103   0.312   6.640  0.1524 -0.4899 -1.0454
  726MOL0     C   56  10.160   0.418   6.576 -0.1057 -0.7079 -0.3961
  726MOL0     C   57  10.302   0.438   6.582  0.0603  0.4550  0.3646
  726MOL0     O   58  10.349   0.552   6.523 -0.2176 -0.5833 -0.6861
  726MOL0     C   59  10.481   0.603   6.549  1.2919 -0.9683 -0.3584
  726MOL0     C   60  10.497   0.745   6.499  0.2466  0.0117  0.2994
  726MOL0     C   61  10.638   0.790   6.502  0.8622 -0.1435 -0.4095
  726MOL0     C   62  10.672   0.927   6.430 -0.1618  0.0784  0.3884
  726MOL0     C   63  10.816   0.974   6.470 -0.2298 -0.1279 -0.3914
  726MOL0     C   64  10.935   0.879   6.461  1.3258  0.3617 -0.1756
  726MOL0     C   65  11.075   0.958   6.471 -0.9213  1.2423  0.0157
  726MOL0     C   66  11.199   0.855   6.437  0.1253  0.1617 -0.0240
  726MOL0     N   67  11.323   0.929   6.455 -0.4604 -0.4999 -0.7245
  726MOL0     C   68  11.451   0.869   6.457 -0.1339 -0.3528  0.8881
  726MOL0     C   69  11.528   0.974   6.429  0.9324  0.2577  1.1229
  726MOL0     C   70  11.675   0.972   6.408 -0.0201 -0.9964 -0.1607
  726MOL0     C   71  11.747   0.911   6.521  0.3790 -0.1930 -0.2989
  726MOL0     C   72  11.749   0.996   6.656  0.3043 -0.0383 -0.1186
  726MOL0     C   73  11.833   0.943   6.773  0.6052 -1.5875  0.2826
  726MOL0     O   74  11.967   0.976   6.752  0.1310  0.9150 -0.6812
  726MOL0     C   75  12.066   0.880   6.728  0.1523  0.6765  1.1262
  726MOL0     C   76  12.049   0.759   6.659  0.3002  0.7185  0.3106
  726MOL0     C   77  12.156   0.682   6.622  0.0685  0.7336  0.3083
  726MOL0     C   78  12.121   0.557   6.534  0.0436  1.2347 -0.2510
  726MOL0     C   79  12.289   0.724   6.652 -0.3604 -0.5821 -0.2676
  726MOL0     C   80  12.411   0.644   6.625  0.4942  0.0798 -0.4043
  726MOL0     O   81  12.530   0.720   6.603 -0.2238  0.5820 -0.2926
  726MOL0     C   82  12.647   0.653   6.593 -0.3422  0.1937  1.0337
  726MOL0     C   83  12.672   0.560   6.484 -0.5800 -0.4054  0.7002
  726MOL0     C   84  12.795   0.494   6.478  0.3213  0.5243 -1.0500
  726MOL0     C   85  12.889   0.505   6.586  0.8301 -0.9435 -0.1228
  726MOL0     O   86  13.008   0.437   6.577 -0.3632  0.0529  0.5929
  726MOL0     C   87  13.065   0.384   6.695 -0.1671 -0.3304 -0.5583
  726MOL0     C   88  13.205   0.333   6.677 -0.5611  0.0401  0.6866
  726MOL0     C   89  13.311   0.443   6.635 -0.8507 -0.8137  0.5232
  726MOL0     C   90  13.459   0.408   6.690  0.1058 -0.0629 -0.6754
  726MOL0     C   91  13.559   0.511   6.646 -0.2552 -0.5322  0.3676
  726MOL0     C   92  13.694   0.473   6.704  0.5376  0.2990 -0.2529
  726MOL0     C   93  13.748   0.337   6.663  0.3233 -0.3642 -0.4132
  726MOL0     C   94  13.878   0.311   6.735 -0.1278 -0.0673 -0.2913
  726MOL0    Cl   95  14.021   0.374   6.639 -0.5038  0.4363 -0.2910
  726MOL0     C   96  12.864   0.611   6.679  0.5485 -0.6447  0.1171
  726MOL0     C   97  12.745   0.679   6.689  0.5216 -0.3899  0.6156
  726MOL0     O   98  12.403   0.522   6.627  0.3400 -0.2598 -0.2512
  726MOL0     C   99  12.298   0.853   6.702  0.0591 -0.4128 -0.3212
  726MOL0     C  100  12.188   0.932   6.732 -0.0430  0.4101  0.4121
  726MOL0     N  101  11.448   1.088   6.411 -0.3966  0.5139  0.3278
  726MOL0     N  102  11.329   1.062   6.437  0.1928  0.1823 -0.1734
  726MOL0     C  103  10.382   0.347   6.645  0.0930 -0.8407  0.2706
  726MOL0     C  104  10.325   0.235   6.707 -0.0964  0.3682  1.1682
  726MOL0     C  105  10.105  -0.101   6.864 -0.7594 -0.2205 -0.1984
  726MOL0     C  106   9.986  -0.124   6.786 -0.4436 -0.3694 -0.6108
  726MOL0     C  107   9.899  -0.233   6.798  0.3927  0.3783  0.3390
  726MOL0     C  108   9.947  -0.343   6.876  0.4917  0.7158 -0.3169
  726MOL0     O  109   9.887  -0.462   6.886 -0.3116  0.1410 -0.6274
  726MOL0     C  110   9.801  -0.515   6.785 -0.7120 -0.4266 -0.6191
  726MOL0     C  111   9.882  -0.557   6.665  0.0129  0.1996 -0.0560
  726MOL0     C  112   9.986  -0.664   6.716  0.1726 -0.7437 -0.6929
  726MOL0     C  113  10.049  -0.743   6.600  0.6829  0.7052 -0.5787
  726MOL0     C  114  10.177  -0.789   6.653 -0.2632  0.2435 -0.6483
  726MOL0     C  115  10.284  -0.853   6.677 -0.3176 -0.1792 -0.7230
  726MOL0     C  116  10.050  -0.321   6.968  0.0798 -0.5921 -0.1578
  726MOL0     C  117  10.136  -0.207   6.960 -0.1817 -0.2100 -0.1729
  726MOL0     C  118  10.248  -0.203   7.068 -0.9791  0.0603 -0.5086
  726MOL0     H  119   9.995   0.300   6.631  0.0286  1.1490 -2.1795
  726MOL0     H  120  10.095   0.489   6.527  1.8173 -0.1751 -2.2891
  726MOL0     H  121  10.559   0.533   6.516 -0.8609 -2.5637 -2.4254
  726MOL0     H  122  10.498   0.602   6.657  1.1336 -1.8798 -0.3268
  726MOL0     H  123  10.458   0.752   6.397 -1.4292  1.6161  0.9977
  726MOL0     H  124  10.433   0.814   6.554  0.2207  1.4063 -1.4090
  726MOL0     H  125  10.663   0.809   6.607 -1.7366  0.2208  0.2259
  726MOL0     H  126  10.700   0.717   6.450 -0.2294 -0.0517 -1.9329
  726MOL0     H  127  10.674   0.912   6.321  1.0867 -1.6425  0.5994
  726MOL0     H  128  10.597   1.000   6.461 -1.5522 -1.0558 -0.1963
  726MOL0     H  129  10.812   1.026   6.566  2.6103  1.8131 -1.2031
  726MOL0     H  130  10.835   1.048   6.392 -3.2037 -1.0430 -2.1389
  726MOL0     H  131  10.910   0.805   6.538 -0.7886  1.1143 -0.0959
  726MOL0     H  132  10.910   0.818   6.374 -0.1136  0.1923  0.3451
  726MOL0     H  133  11.092   1.006   6.568  3.3733  0.6634 -0.2153
  726MOL0     H  134  11.072   1.035   6.394 -0.1631 -0.1453 -1.4765
  726MOL0     H  135  11.191   0.762   6.495 -1.1802 -0.7074 -1.5256
  726MOL0     H  136  11.192   0.825   6.332 -2.1098  1.8005 -0.4195
  726MOL0     H  137  11.483   0.768   6.481 -2.3377 -1.4661 -0.4330
  726MOL0     H  138  11.722   1.069   6.390  1.3947 -1.2458  1.8033
  726MOL0     H  139  11.697   0.906   6.323  0.3493 -1.3228  0.1799
  726MOL0     H  140  11.713   0.811   6.550  0.1087  0.4698  1.8538
  726MOL0     H  141  11.850   0.906   6.485  0.2217 -1.1733 -0.6612
  726MOL0     H  142  11.784   1.095   6.627 -1.8663  1.2307  1.3539
  726MOL0     H  143  11.647   1.013   6.691  1.1694 -1.4969  3.5448
  726MOL0     H  144  11.793   1.008   6.852 -0.6033  1.4417 -2.5546
  726MOL0     H  145  11.807   0.839   6.795  0.3840 -1.3113  1.4020
  726MOL0     H  146  11.954   0.727   6.617  0.7073  2.6919 -2.3997
  726MOL0     H  147  12.143   0.467   6.593 -1.0531  1.6452  0.8196
  726MOL0     H  148  12.172   0.557   6.438  0.1224 -1.4100 -0.2751
  726MOL0     H  149  12.015   0.538   6.515  0.8683 -1.1357 -3.3737
  726MOL0     H  150  12.605   0.535   6.402 -1.2837  0.8629  0.8564
  726MOL0     H  151  12.820   0.424   6.400  1.2911  0.5133 -0.7392
  726MOL0     H  152  13.061   0.452   6.781  1.5711  0.6961 -1.2132
  726MOL0     H  153  13.000   0.300   6.719 -2.1493  1.5328  0.9951
  726MOL0     H  154  13.237   0.278   6.767  2.3580  3.3021  1.8971
  726MOL0     H  155  13.205   0.263   6.593  1.8857  2.3798 -1.4668
  726MOL0     H  156  13.291   0.546   6.668  0.5353  0.1271 -1.3787
  726MOL0     H  157  13.310   0.448   6.526 -3.1273 -1.3192  0.4668
  726MOL0     H  158  13.493   0.313   6.649 -0.1647 -0.7640  0.6770
  726MOL0     H  159  13.458   0.403   6.799  0.1749 -0.1691 -0.6796
  726MOL0     H  160  13.567   0.522   6.537  2.4483 -1.0850  0.4299
  726MOL0     H  161  13.535   0.613   6.678 -1.5732 -1.0527  1.1271
  726MOL0     H  162  13.698   0.488   6.813 -0.2288 -0.4995 -0.0945
  726MOL0     H  163  13.758   0.544   6.652 -2.5644  3.6462  0.0674
  726MOL0     H  164  13.768   0.334   6.556  0.3291 -2.1217 -0.3886
  726MOL0     H  165  13.680   0.255   6.687  0.8521 -0.4752  0.7835
  726MOL0     H  166  13.891   0.203   6.747 -0.4365  0.0166  0.9513
  726MOL0     H  167  13.874   0.356   6.834 -0.1613  0.2593 -0.4414
  726MOL0     H  168  12.940   0.639   6.750  1.6848  1.0632 -1.6691
  726MOL0     H  169  12.742   0.763   6.758 -0.2354 -1.2011  1.6076
  726MOL0     H  170  12.389   0.911   6.696  0.4644 -0.5878  2.7372
  726MOL0     H  171  12.199   1.029   6.779 -4.4026  1.1807  0.2893
  726MOL0     H  172  10.490   0.359   6.645 -0.0281  0.3257  0.5061
  726MOL0     H  173  10.384   0.160   6.759 -3.3099 -0.9392  3.2595
  726MOL0     H  174   9.957  -0.043   6.720  1.2996 -0.2143 -1.2657
  726MOL0     H  175   9.823  -0.248   6.722  0.3346 -1.1876  0.6674
  726MOL0     H  176   9.751  -0.593   6.844 -0.6743 -0.7465 -1.0023
  726MOL0     H  177   9.726  -0.440   6.760  0.5518  1.4344  0.9173
  726MOL0     H  178   9.945  -0.471   6.639  1.0774 -0.5246  0.0573
  726MOL0     H  179   9.821  -0.584   6.578  0.4685  2.1229 -1.0338
  726MOL0     H  180  10.056  -0.610   6.780  0.6502 -0.5760 -1.3498
  726MOL0     H  181   9.937  -0.741   6.776 -0.0912  0.1375  0.2443
  726MOL0     H  182  10.067  -0.688   6.508 -2.6454 -0.6568 -2.2160
  726MOL0     H  183   9.994  -0.831   6.567  0.1747  0.7276  0.1625
  726MOL0     H  184  10.379  -0.899   6.694  1.2005  0.4951 -5.5670
  726MOL0     H  185  10.078  -0.400   7.037  0.9944 -0.5050 -0.4207
  726MOL0     H  186  10.215  -0.137   7.149  0.7822 -0.9934  1.1481
  726MOL0     H  187  10.265  -0.299   7.116  0.4816  0.3521 -0.3839
  726MOL0     H  188  10.344  -0.161   7.035  0.4261 -2.5708  0.0044
  727MOL0     O  189   5.941  10.492  10.205 -0.0931  0.0077 -0.2305
  727MOL0     C  190   5.888  10.489  10.317  0.4424 -0.6949 -0.4716
  727MOL0     O  191   5.960  10.507  10.437 -0.0375  0.3514 -0.6283
  727MOL0     C  192   6.083  10.561  10.434  0.3764  0.9631 -0.0308
  727MOL0     C  193   6.090  10.679  10.509  0.6748 -0.2448  0.4069
  727MOL0     C  194   6.209  10.747  10.516  0.0244 -0.0665  0.1932
  727MOL0     C  195   6.322  10.704  10.450 -0.3887  0.2995  0.5523
  727MOL0     O  196   6.445  10.768  10.445 -0.0879  0.8410 -0.0097
  727MOL0     C  197   6.477  10.827  10.574 -0.4154  0.4064  0.4047
  727MOL0     C  198   6.627  10.861  10.565 -0.1615  0.1037 -0.2111
  727MOL0     C  199   6.638  10.991  10.487 -0.3387 -0.4802 -0.0702
  727MOL0     C  200   6.787  11.015  10.466  0.4280  0.1795  0.1044
  727MOL0     C  201   6.819  11.155  10.403 -0.5009  0.2350  0.2353
  727MOL0     C  202   6.974  11.181  10.394  0.6382 -0.9092 -0.0018
  727MOL0     C  203   6.977  11.326  10.355  0.5328  0.0401 -0.5358
  727MOL0     C  204   7.121  11.370  10.331 -0.1126 -0.0077  0.5805
  727MOL0     N  205   7.149  11.506  10.298 -1.2716  0.5163 -0.9210
  727MOL0     C  206   7.070  11.593  10.231 -0.0259 -0.0993 -0.0740
  727MOL0     C  207   7.136  11.712  10.229  0.2582 -0.0831 -0.6634
  727MOL0     C  208   7.078  11.838  10.172  0.4183  0.0470 -0.4037
  727MOL0     C  209   7.044  11.932  10.283 -0.6727 -0.5511 -0.7200
  727MOL0     C  210   6.957  11.864  10.401 -0.0890  0.9238 -0.3347
  727MOL0     C  211   6.889  11.956  10.498  0.8949 -0.7599 -0.6647
  727MOL0     O  212   6.812  11.868  10.581  0.0623 -0.0252 -0.4533
  727MOL0     C  213   6.739  11.924  10.687  0.6042 -0.3667 -0.3557
  727MOL0     C  214   6.694  11.834  10.786  0.7371  0.3665  0.1293
  727MOL0     C  215   6.615  11.882  10.897  0.2130  0.3725  0.1068
  727MOL0     C  216   6.565  11.758  10.975 -0.3136 -0.8082  0.0466
  727MOL0     C  217   6.577  12.024  10.906  0.3848  0.3309  0.0214
  727MOL0     C  218   6.495  12.079  11.013  0.7261 -0.0501  0.1376
  727MOL0     O  219   6.466  12.218  11.009  0.2515  0.0140 -0.9242
  727MOL0     C  220   6.377  12.261  11.096 -0.5988  0.4373 -0.6357
  727MOL0     C  221   6.407  12.257  11.237  0.2863  0.9983 -0.0863
  727MOL0     C  222   6.303  12.305  11.326  0.1444 -0.0816 -0.3385
  727MOL0     C  223   6.176  12.352  11.287  0.1035  0.3139  0.6702
  727MOL0     O  224   6.076  12.398  11.371 -0.1073  0.0027  0.5175
  727MOL0     C  225   6.035  12.531  11.336 -0.2906 -0.6104  0.0183
  727MOL0     C  226   5.947  12.604  11.442 -0.9233  0.4626 -1.1751
  727MOL0     C  227   5.819  12.528  11.467  0.0379 -0.8238  0.0709
  727MOL0     C  228   5.746  12.609  11.582  1.0204 -0.0389  0.4080
  727MOL0     C  229   5.590  12.559  11.581 -0.5159  1.0362 -0.2620
  727MOL0     C  230   5.540  12.580  11.727 -0.6589  0.2466 -0.8243
  727MOL0     C  231   5.547  12.726  11.778 -0.1440 -0.8586  0.4703
  727MOL0     C  232   5.457  12.822  11.694  0.5242 -0.5477 -0.9102
  727MOL0    Cl  233   5.293  12.754  11.655 -0.2394  0.1348 -0.3553
  727MOL0     C  234   6.150  12.348  11.147  0.0526 -0.4533 -0.4540
  727MOL0     C  235   6.254  12.309  11.052  0.9061  0.0096  1.2821
  727MOL0     O  236   6.450  12.004  11.096  0.0978  0.7013 -0.6789
  727MOL0     C  237   6.624  12.107  10.802  0.4240 -1.0750  0.3749
  727MOL0     C  238   6.714  12.060  10.707  0.3529  0.5313 -0.3176
  727MOL0     N  239   7.257  11.706  10.293 -0.1194  0.5231  0.2453
  727MOL0     N  240   7.265  11.580  10.328 -0.8083  0.4816 -0.2451
  727MOL0     C  241   6.318  10.586  10.368 -0.6927 -0.6818  0.0383
  727MOL0     C  242   6.199  10.509  10.363 -0.7891 -0.3479  0.5392
  727MOL0     C  243   5.740  10.474  10.330  0.1714 -0.0185 -0.8901
  727MOL0     C  244   5.686  10.518  10.457 -0.4732 -0.4047  0.2828
  727MOL0     C  245   5.548  10.526  10.479 -0.2700  0.6276  0.5757
  727MOL0     C  246   5.455  10.496  10.373 -0.1724 -0.4063  0.5830
  727MOL0     O  247   5.320  10.509  10.408 -0.2626 -0.2087  0.8089
  727MOL0     C  248   5.218  10.465  10.317 -0.8744 -0.1502 -0.5372
  727MOL0     C  249   5.192  10.309  10.330 -0.2261  0.3021  0.1960
  727MOL0     C  250   5.152  10.257  10.467 -0.0381  0.6097 -0.6658
  727MOL0     C  251   5.024  10.328  10.513 -0.4452 -0.5039  0.0257
  727MOL0     C  252   4.985  10.301  10.655 -0.7433  0.6346 -0.3904
  727MOL0     C  253   4.935  10.269  10.765  0.3416 -0.4322  0.0502
  727MOL0     C  254   5.510  10.443  10.255  0.3736 -0.5519  0.1906
  727MOL0     C  255   5.644  10.425  10.235 -0.4420 -0.8369  0.7701
  727MOL0     C  256   5.696  10.372  10.102  0.8522 -0.5636  0.4200
  727MOL0     H  257   6.002  10.733  10.542  0.6440  2.5649 -3.4836
  727MOL0     H  258   6.216  10.842  10.568  1.6165  1.3564 -2.3792
  727MOL0     H  259   6.443  10.765  10.657 -0.6639 -1.6374 -1.1302
  727MOL0     H  260   6.414  10.915  10.586 -3.0758 -1.3596  0.3306
  727MOL0     H  261   6.667  10.869  10.667 -0.7884  1.4620 -0.0469
  727MOL0     H  262   6.664  10.772  10.513 -3.5069 -1.2047 -0.6005
  727MOL0     H  263   6.590  10.988  10.389  2.8898 -0.6628 -1.8068
  727MOL0     H  264   6.596  11.072  10.548  2.2864  1.1917 -0.2840
  727MOL0     H  265   6.844  11.005  10.559  1.0975 -0.0500 -0.3281
  727MOL0     H  266   6.820  10.936  10.398  2.1782  1.0601 -0.1154
  727MOL0     H  267   6.772  11.228  10.469  0.1567  1.3056 -0.4486
  727MOL0     H  268   6.773  11.160  10.304 -3.0169 -3.5635  1.0057
  727MOL0     H  269   7.021  11.174  10.493  1.0632  0.4205 -0.0929
  727MOL0     H  270   7.031  11.121  10.323  1.5642  0.2037 -0.2176
  727MOL0     H  271   6.920  11.390  10.422  2.7756  3.6756 -1.8019
  727MOL0     H  272   6.914  11.354  10.271 -0.2462  2.0919  0.6504
  727MOL0     H  273   7.179  11.346  10.421  2.5997 -0.7319 -1.2370
  727MOL0     H  274   7.160  11.315  10.244  1.4734  3.7141 -1.2869
  727MOL0     H  275   6.977  11.573  10.178  0.9179 -0.6872 -1.5884
  727MOL0     H  276   6.989  11.815  10.114 -1.1398  0.9479  1.5105
  727MOL0     H  277   7.153  11.886  10.109 -0.6248 -0.1232 -1.8054
  727MOL0     H  278   7.135  11.969  10.331 -0.2124 -2.5780  0.0464
  727MOL0     H  279   6.988  12.011  10.232  2.6926  2.8203  0.3639
  727MOL0     H  280   6.883  11.796  10.359  1.1782 -1.5073  1.1216
  727MOL0     H  281   7.021  11.799  10.461  0.6762  1.3628 -0.6599
  727MOL0     H  282   6.971  12.007  10.549  1.6966 -1.3669 -1.3179
  727MOL0     H  283   6.827  12.026  10.443 -1.5917 -3.1987 -1.1959
  727MOL0     H  284   6.721  11.730  10.773  2.5532  0.3131  3.4014
  727MOL0     H  285   6.535  11.786  11.077  0.2430 -1.8740  0.5257
  727MOL0     H  286   6.645  11.684  10.973 -0.7312 -1.2927 -2.9524
  727MOL0     H  287   6.485  11.706  10.922 -0.3331 -0.7822  0.0499
  727MOL0     H  288   6.508  12.231  11.269  1.2421  3.1381 -1.1697
  727MOL0     H  289   6.326  12.293  11.432  1.7062  0.8578 -0.5382
  727MOL0     H  290   6.118  12.602  11.328 -1.4249  0.6311 -1.3582
  727MOL0     H  291   5.984  12.530  11.240  1.7659 -0.5176 -1.1442
  727MOL0     H  292   5.993  12.632  11.537 -0.7874 -1.4454 -0.6296
  727MOL0     H  293   5.924  12.699  11.394  1.3401  1.7362  0.0693
  727MOL0     H  294   5.832  12.424  11.500 -0.4390 -1.1434 -0.7163
  727MOL0     H  295   5.756  12.532  11.377  0.3343  1.1386 -0.0862
  727MOL0     H  296   5.762  12.716  11.564 -0.5542  0.4177  1.5754
  727MOL0     H  297   5.786  12.577  11.679 -2.6781  0.1332  2.1249
  727MOL0     H  298   5.520  12.611  11.515 -0.2677  0.3305 -1.1028
  727MOL0     H  299   5.594  12.452  11.557 -0.8814  0.4680  1.9407
  727MOL0     H  300   5.604  12.520  11.792  1.1060  2.8549 -0.0036
  727MOL0     H  301   5.438  12.541  11.736  0.2732 -2.0988  0.4729
  727MOL0     H  302   5.652  12.757  11.778  1.0530 -4.4315 -1.0730
  727MOL0     H  303   5.512  12.734  11.881  0.2600 -0.6841  0.5969
  727MOL0     H  304   5.501  12.843  11.597 -0.4585  0.3767 -1.1757
  727MOL0     H  305   5.441  12.912  11.755  2.8039  0.4489 -1.6845
  727MOL0     H  306   6.053  12.383  11.113 -0.4293  0.6633  1.9366
  727MOL0     H  307   6.236  12.304  10.945  1.0204 -1.5951  1.3153
  727MOL0     H  308   6.596  12.212  10.803 -2.1819 -1.6962  0.0932
  727MOL0     H  309   6.761  12.129  10.638  2.4864  0.6682  1.1595
  727MOL0     H  310   6.395  10.548  10.302 -1.6886 -0.1717 -1.4706
  727MOL0     H  311   6.202  10.429  10.289 -0.7143 -1.0465  1.2863
  727MOL0     H  312   5.749  10.543  10.542 -2.0353  0.9244  1.0987
  727MOL0     H  313   5.508  10.540  10.579 -1.1774 -2.6357  0.8047
  727MOL0     H  314   5.126  10.524  10.325 -2.0696 -1.7132 -1.8801
  727MOL0     H  315   5.258  10.491  10.218 -0.6966  1.5743 -0.0350
  727MOL0     H  316   5.278  10.250  10.296 -0.7978  0.6331 -1.9851
  727MOL0     H  317   5.112  10.295  10.257 -0.3595 -0.9170  0.5563
  727MOL0     H  318   5.139  10.149  10.456 -0.2987  0.6773 -1.0401
  727MOL0     H  319   5.233  10.267  10.540  0.2306 -2.5455 -0.3921
  727MOL0     H  320   4.939  10.299  10.451 -0.0149  0.0366 -0.8376
  727MOL0     H  321   5.038  10.435  10.496  1.9111 -0.5354  1.2921
  727MOL0     H  322   4.891  10.249  10.860 -2.6258  2.7362 -0.4346
  727MOL0     H  323   5.445  10.402  10.178 -0.2915  0.2018  0.3374
  727MOL0     H  324   5.705  10.449  10.025  0.9125  0.7942  1.7423
  727MOL0     H  325   5.786  10.312  10.114 -0.0245 -1.7718  1.1520
  727MOL0     H  326   5.631  10.294  10.061  0.9405  0.1028 -1.0509
  728MOL0     O  327   6.108   1.096   4.712 -0.2237  0.1481 -0.1024
  728MOL0     C  328   6.081   1.205   4.755 -0.2237 -0.1465 -0.6402
  728MOL0     O  329   6.172   1.312   4.776  0.6208  0.4296 -0.5936
  728MOL0     C  330   6.307   1.290   4.735 -0.1595 -0.9403  0.6790
  728MOL0     C  331   6.394   1.187   4.783 -0.2031 -0.1679  0.1607
  728MOL0     C  332   6.522   1.170   4.726 -0.2861  0.7220  0.8097
  728MOL0     C  333   6.566   1.256   4.619 -0.1999 -0.1543 -0.7609
  728MOL0     O  334   6.681   1.238   4.559 -0.3415 -0.5556 -0.4396
  728MOL0     C  335   6.768   1.130   4.585 -0.2515 -0.4469  0.2137
  728MOL0     C  336   6.904   1.157   4.519 -0.1113 -0.2104 -0.9938
  728MOL0     C  337   6.992   1.040   4.548 -0.1324  0.1254  0.1246
  728MOL0     C  338   7.131   1.052   4.484  0.4954 -0.1446 -0.1367
  728MOL0     C  339   7.209   0.932   4.513  0.3646  0.3261 -0.1927
  728MOL0     C  340   7.345   0.911   4.435 -0.4183 -0.1855 -0.7828
  728MOL0     C  341   7.432   0.809   4.510  0.2020  0.3003 -0.1205
  728MOL0     C  342   7.573   0.819   4.453  0.6949 -0.2234 -0.0589
  728MOL0     N  343   7.656   0.719   4.517  0.1875  0.5510  0.0256
  728MOL0     C  344   7.685   0.694   4.649  0.0771  0.3411  0.1986
  728MOL0     C  345   7.757   0.582   4.646 -0.2493  0.8032  0.2271
  728MOL0     C  346   7.818   0.514   4.757 -0.3348  0.3819 -0.1022
  728MOL0     C  347   7.908   0.597   4.851 -0.1681  0.3302 -0.4073
  728MOL0     C  348   7.998   0.521   4.945 -0.4998 -0.1746 -0.1494
  728MOL0     C  349   8.093   0.604   5.018 -0.1614  0.2411 -0.2563
  728MOL0     O  350   8.178   0.668   4.913  0.1918 -0.3349 -0.1518
  728MOL0     C  351   8.287   0.746   4.956  0.2425  0.3799 -0.7086
  728MOL0     C  352   8.304   0.791   5.093 -0.3901  0.8874 -0.1920
  728MOL0     C  353   8.424   0.863   5.125  0.6391  0.4639 -0.1782
  728MOL0     C  354   8.416   0.930   5.260 -0.2565  0.5487  0.3348
  728MOL0     C  355   8.530   0.878   5.033 -0.1459  0.5318 -0.0749
  728MOL0     C  356   8.660   0.942   5.057  0.0712 -0.0911  0.3633
  728MOL0     O  357   8.745   0.952   4.957 -0.4376 -0.4164  0.3909
  728MOL0     C  358   8.852   1.038   4.958 -0.3867 -0.5328  0.2416
  728MOL0     C  359   8.958   1.007   4.874 -0.2284  0.1603 -0.4696
  728MOL0     C  360   9.066   1.092   4.858  0.2448  0.1290 -0.4391
  728MOL0     C  361   9.073   1.217   4.922  0.1368 -1.0844  0.6156
  728MOL0     O  362   9.179   1.300   4.896  0.0866 -0.0252 -0.4189
  728MOL0     C  363   9.270   1.311   5.006  0.0387  0.0570  0.0989
  728MOL0     C  364   9.421   1.328   4.953  0.0520 -0.0138  0.1856
  728MOL0     C  365   9.452   1.465   4.878 -0.9862 -0.2236 -0.0020
  728MOL0     C  366   9.598   1.481   4.843  0.8857 -1.2273 -0.1892
  728MOL0     C  367   9.660   1.568   4.955 -0.9470 -0.3136  0.0140
  728MOL0     C  368   9.815   1.567   4.951  0.4902 -0.0842 -0.2235
  728MOL0     C  369   9.876   1.653   4.844 -0.6140 -0.5670 -0.4836
  728MOL0     C  370  10.026   1.650   4.861 -0.0620  0.3672  0.6038
  728MOL0    Cl  371  10.095   1.770   4.755 -0.0149  0.0633 -0.3723
  728MOL0     C  372   8.971   1.251   5.016  0.0246  0.0001 -0.2283
  728MOL0     C  373   8.860   1.164   5.031 -0.4052 -0.4513 -0.6765
  728MOL0     O  374   8.684   0.953   5.174  0.1784  0.2697  0.3085
  728MOL0     C  375   8.510   0.820   4.902  0.3646 -0.3689 -0.7028
  728MOL0     C  376   8.394   0.752   4.869 -0.6030 -0.1278  0.7090
  728MOL0     N  377   7.757   0.528   4.513 -0.4956  1.1821  0.1663
  728MOL0     N  378   7.692   0.607   4.446  1.2415  0.3323  0.4436
  728MOL0     C  379   6.492   1.371   4.589  1.1890  0.4126 -0.3420
  728MOL0     C  380   6.360   1.378   4.646 -0.4012 -0.1259  0.2585
  728MOL0     C  381   5.936   1.231   4.805 -0.5024  1.0980  0.3914
  728MOL0     C  382   5.914   1.359   4.866 -1.3819  1.0567 -0.6540
  728MOL0     C  383   5.792   1.393   4.912 -0.0473 -0.2415 -1.1387
  728MOL0     C  384   5.683   1.314   4.909 -0.0846  0.2022  0.9890
  728MOL0     O  385   5.573   1.366   4.959 -0.0537  0.1599 -0.1224
  728MOL0     C  386   5.458   1.281   4.982  0.1976  0.9614  0.3019
  728MOL0     C  387   5.478   1.168   5.092  0.5715 -0.1816  1.1526
  728MOL0     C  388   5.348   1.084   5.089 -0.3380  0.4866  0.4575
  728MOL0     C  389   5.370   0.947   5.152  0.9648 -0.5951 -0.7255
  728MOL0     C  390   5.440   0.868   5.053 -0.1506 -0.7556  0.4292
  728MOL0     C  391   5.491   0.804   4.969 -0.0583 -0.6370  0.1089
  728MOL0     C  392   5.707   1.182   4.840  0.2021 -0.4043  0.3633
  728MOL0     C  393   5.829   1.142   4.796  0.6858 -0.5713 -0.1974
  728MOL0     C  394   5.833   1.005   4.734 -0.1612 -0.7297  0.1089
  728MOL0     H  395   6.361   1.136   4.874  0.7109 -0.8517  0.1295
  728MOL0     H  396   6.591   1.097   4.768  0.3869  1.7819  1.6086
  728MOL0     H  397   6.730   1.039   4.536  1.9083 -1.0659 -0.4224
  728MOL0     H  398   6.788   1.118   4.692  0.2921  0.8943  0.2857
  728MOL0     H  399   6.898   1.171   4.411 -3.2442 -2.2974 -1.2279
  728MOL0     H  400   6.939   1.257   4.543  1.3493 -0.4278 -2.0848
  728MOL0     H  401   6.999   1.030   4.656 -1.1547 -1.0038  0.1007
  728MOL0     H  402   6.941   0.952   4.507 -0.3960  0.0850  0.5359
  728MOL0     H  403   7.112   1.058   4.376  2.2082 -2.2323 -0.6402
  728MOL0     H  404   7.181   1.143   4.517  0.8213  0.6587 -2.6525
  728MOL0     H  405   7.149   0.844   4.488 -0.6013  0.7059  0.7092
  728MOL0     H  406   7.219   0.935   4.622 -0.0989  2.4982 -0.1633
  728MOL0     H  407   7.328   0.879   4.332 -1.6927 -1.0167 -0.3364
  728MOL0     H  408   7.401   1.005   4.438  0.2256 -0.5700 -0.2755
  728MOL0     H  409   7.393   0.709   4.489 -1.2142  0.7319  0.3351
  728MOL0     H  410   7.427   0.817   4.619 -2.7658 -2.5518  0.1061
  728MOL0     H  411   7.567   0.828   4.344 -2.1510  1.4859  0.1455
  728MOL0     H  412   7.611   0.910   4.499 -0.9827  0.0120  0.9385
  728MOL0     H  413   7.661   0.759   4.733  2.5655  2.2301 -0.4416
  728MOL0     H  414   7.874   0.426   4.723  0.2082 -0.5856  2.9131
  728MOL0     H  415   7.740   0.471   4.821 -2.0191  2.6946 -0.4963
  728MOL0     H  416   7.972   0.664   4.792 -1.8772  1.8667 -0.6278
  728MOL0     H  417   7.840   0.663   4.905 -0.2098 -0.9504  1.1612
  728MOL0     H  418   7.936   0.481   5.026 -2.9553  3.3551 -0.0491
  728MOL0     H  419   8.049   0.445   4.885  1.8332 -0.9504  2.5870
  728MOL0     H  420   8.041   0.685   5.071 -1.5892 -1.8903  1.7785
  728MOL0     H  421   8.159   0.552   5.088  2.2112  1.7344 -1.2494
  728MOL0     H  422   8.228   0.766   5.167  1.8117 -1.6662  1.4034
  728MOL0     H  423   8.315   0.936   5.302 -1.5223  1.3224 -2.5321
  728MOL0     H  424   8.446   1.035   5.253 -0.8571  0.6374 -1.2450
  728MOL0     H  425   8.485   0.882   5.329  2.1695 -1.7029 -3.3343
  728MOL0     H  426   8.959   0.910   4.825  1.0402  0.5611 -1.2994
  728MOL0     H  427   9.159   1.065   4.809  0.4172  0.0879 -0.0883
  728MOL0     H  428   9.253   1.405   5.060 -0.9832  0.6400 -1.1849
  728MOL0     H  429   9.270   1.228   5.077  1.3848  0.7273  0.9208
  728MOL0     H  430   9.479   1.323   5.045 -1.0990  1.4250  1.0423
  728MOL0     H  431   9.454   1.247   4.887  0.3734  1.1967 -1.1950
  728MOL0     H  432   9.416   1.547   4.941 -1.4879  1.0176 -1.8176
  728MOL0     H  433   9.393   1.471   4.787 -0.2100 -0.9808 -0.5780
  728MOL0     H  434   9.605   1.526   4.743 -0.5954  2.0477  1.0225
  728MOL0     H  435   9.651   1.386   4.834 -0.7755 -2.1545 -0.5016
  728MOL0     H  436   9.623   1.671   4.956 -2.8353 -0.9402 -0.0267
  728MOL0     H  437   9.636   1.519   5.050  0.1866 -1.1521 -0.1164
  728MOL0     H  438   9.844   1.464   4.927  1.0650  0.5809 -2.6231
  728MOL0     H  439   9.842   1.584   5.055 -1.5548 -0.7621  0.4641
  728MOL0     H  440   9.841   1.755   4.860 -0.7311 -0.6282 -0.3368
  728MOL0     H  441   9.847   1.618   4.745 -1.6372 -1.5717  0.1293
  728MOL0     H  442  10.055   1.548   4.834 -5.5062 -1.3511  0.0108
  728MOL0     H  443  10.051   1.672   4.966  0.1396 -0.6550  0.7755
  728MOL0     H  444   8.986   1.342   5.074 -2.3207 -0.4513  1.1768
  728MOL0     H  445   8.790   1.202   5.105 -0.2643  0.7666 -1.1442
  728MOL0     H  446   8.591   0.828   4.830  0.4111  1.5337 -0.4746
  728MOL0     H  447   8.397   0.714   4.767  1.6003  1.6599  0.0231
  728MOL0     H  448   6.531   1.446   4.521 -1.0635  1.7114 -0.2985
  728MOL0     H  449   6.318   1.474   4.618  2.3070  0.1409 -3.7117
  728MOL0     H  450   5.997   1.425   4.891  1.6607 -2.6528 -0.0669
  728MOL0     H  451   5.790   1.494   4.953  3.1921  0.0922 -1.5699
  728MOL0     H  452   5.374   1.343   5.013  2.1875  2.3621  3.3554
  728MOL0     H  453   5.428   1.244   4.883  2.3836 -0.4155  0.0934
  728MOL0     H  454   5.493   1.201   5.195 -0.8921 -0.9552  1.6402
  728MOL0     H  455   5.560   1.107   5.054  0.8635  0.9782 -0.1492
  728MOL0     H  456   5.276   1.139   5.151  1.6611  3.2650  0.4776
  728MOL0     H  457   5.312   1.074   4.986  0.3383  0.8090  0.1817
  728MOL0     H  458   5.276   0.900   5.182 -0.4824  2.3713 -0.2014
  728MOL0     H  459   5.425   0.955   5.247  1.3858  2.7526 -1.1283
  728MOL0     H  460   5.519   0.740   4.887  0.3797 -0.7485  0.3434
  728MOL0     H  461   5.621   1.120   4.822  0.5362 -0.4552 -1.2177
  728MOL0     H  462   5.731   0.967   4.726  0.3706 -2.3742  0.7864
  728MOL0     H  463   5.877   1.010   4.634 -0.0512  1.1548  0.2091
  728MOL0     H  464   5.904   0.940   4.786  0.3650 -0.3389 -0.1129
  729MOL0     O  465   6.147   3.184   2.139  0.3439  0.1696  0.6188
  729MOL0     C  466   6.213   3.255   2.067 -0.5672 -0.9168  0.4438
  729MOL0     O  467   6.157   3.343   1.976  0.7385 -0.0468 -0.0882
  729MOL0     C  468   6.023   3.368   1.956 -0.1074 -0.4768 -0.1779
  729MOL0     C  469   5.981   3.425   1.835 -0.1255  0.0875  0.2478
  729MOL0     C  470   5.847   3.453   1.810 -0.0278  0.5323  0.2952
  729MOL0     C  471   5.743   3.429   1.915 -0.1995 -0.4810  0.4446
  729MOL0     O  472   5.611   3.463   1.894 -0.1221  0.5854  0.5682
  729MOL0     C  473   5.554   3.443   1.761 -0.2411  0.3036 -0.0354
  729MOL0     C  474   5.446   3.338   1.758 -0.5983  0.7397 -0.1070
  729MOL0     C  475   5.501   3.202   1.772  0.3263  0.0017  0.1488
  729MOL0     C  476   5.396   3.095   1.730 -0.3832 -0.5504 -0.6412
  729MOL0     C  477   5.440   2.962   1.777  0.2339  0.3542 -0.5862
  729MOL0     C  478   5.335   2.857   1.777 -1.1283  0.2119  0.7224
  729MOL0     C  479   5.408   2.722   1.815 -0.0842 -0.3422  0.3360
  729MOL0     C  480   5.323   2.597   1.806  0.5557 -0.7621 -0.5386
  729MOL0     N  481   5.400   2.481   1.823  0.6320  0.5584 -0.8020
  729MOL0     C  482   5.503   2.450   1.909  0.4074 -0.8290  0.4832
  729MOL0     C  483   5.538   2.329   1.884  0.3309  0.6217  0.5930
  729MOL0     C  484   5.638   2.240   1.951 -0.6645 -0.6946 -0.3440
  729MOL0     C  485   5.776   2.312   1.970 -0.0481 -0.1362 -0.1855
  729MOL0     C  486   5.838   2.314   1.824  0.6218  0.3121  0.0897
  729MOL0     C  487   5.979   2.383   1.815 -0.2800  0.0278  0.6301
  729MOL0     O  488   5.970   2.505   1.890 -0.5370 -0.2347  0.6509
  729MOL0     C  489   6.056   2.521   1.998  0.5200  0.1014  1.3269
  729MOL0     C  490   6.105   2.650   2.011  0.1537  0.1784  0.2406
  729MOL0     C  491   6.206   2.684   2.103  0.0984  0.7368 -0.1184
  729MOL0     C  492   6.246   2.836   2.085 -0.6669 -0.3426  0.2498
  729MOL0     C  493   6.266   2.585   2.181 -0.1232  0.4231 -0.3316
  729MOL0     C  494   6.360   2.612   2.288 -0.4100  0.9184 -0.2043
  729MOL0     O  495   6.365   2.724   2.354  0.4934  0.3860 -0.4936
  729MOL0     C  496   6.452   2.746   2.458 -0.5905  0.7622  0.3042
  729MOL0     C  497   6.420   2.737   2.595  0.2942 -0.2373 -0.5818
  729MOL0     C  498   6.511   2.770   2.700  0.0548 -0.2322 -0.6234
  729MOL0     C  499   6.643   2.812   2.674 -0.0780  0.2608  0.7600
  729MOL0     O  500   6.736   2.843   2.776  0.1522 -0.6147  0.0812
  729MOL0     C  501   6.691   2.892   2.900 -0.7847 -0.5495 -0.6103
  729MOL0     C  502   6.804   2.929   2.995 -1.0505 -0.5549 -0.4346
  729MOL0     C  503   6.868   2.791   3.038  0.9144 -1.1264 -0.2611
  729MOL0     C  504   6.967   2.814   3.147  0.4380  0.2279 -0.0747
  729MOL0     C  505   7.103   2.872   3.113  0.6321  0.5892 -0.0498
  729MOL0     C  506   7.213   2.860   3.215  0.1223 -0.0864  0.5741
  729MOL0     C  507   7.349   2.898   3.162  0.4066 -0.3364  0.0142
  729MOL0     C  508   7.454   2.943   3.267  0.0429 -0.2247  0.0919
  729MOL0    Cl  509   7.476   2.816   3.395 -0.1019  0.0630 -0.0298
  729MOL0     C  510   6.673   2.820   2.534  0.5259 -0.3734 -0.0865
  729MOL0     C  511   6.583   2.783   2.432 -0.2155  0.2893  0.5879
  729MOL0     O  512   6.441   2.523   2.313 -0.3792  0.3555 -0.6177
  729MOL0     C  513   6.205   2.456   2.174  0.2833  0.8011 -0.1591
  729MOL0     C  514   6.103   2.425   2.087 -0.4312 -0.6116 -0.0225
  729MOL0     N  515   5.472   2.281   1.776 -0.1401 -0.6477 -0.8402
  729MOL0     N  516   5.396   2.378   1.740  0.5913  0.2378 -0.9251
  729MOL0     C  517   5.789   3.381   2.034 -0.1097  0.1252 -0.3853
  729MOL0     C  518   5.925   3.350   2.054 -0.6203 -0.7782 -0.0861
  729MOL0     C  519   6.360   3.237   2.054  0.3393  0.2115 -0.0331
  729MOL0     C  520   6.417   3.267   1.930  1.0690 -0.7561  0.1215
  729MOL0     C  521   6.546   3.236   1.906 -0.4072  0.0728 -0.4704
  729MOL0     C  522   6.631   3.180   1.999 -0.4167 -0.6888  0.3984
  729MOL0     O  523   6.761   3.156   1.976 -0.5294  0.0714 -0.2767
  729MOL0     C  524   6.787   3.047   1.879  0.2443 -0.1535 -0.4835
  729MOL0     C  525   6.900   3.099   1.805  0.1871  0.8876 -0.0685
  729MOL0     C  526   6.952   2.998   1.708  0.5071  0.8463 -0.2193
  729MOL0     C  527   6.861   2.972   1.578 -0.7669  0.4353 -0.4442
  729MOL0     C  528   6.804   3.094   1.524 -0.3987 -0.8519 -0.4147
  729MOL0     C  529   6.752   3.194   1.495 -0.6222  0.1446  0.1025
  729MOL0     C  530   6.582   3.157   2.125 -0.8603  0.6134 -1.1484
  729MOL0     C  531   6.451   3.185   2.153  0.7505 -0.3971 -0.2677
  729MOL0     C  532   6.405   3.170   2.294  1.0398  0.0719 -0.3025
  729MOL0     H  533   6.059   3.453   1.765  1.3661 -0.0988  1.7633
  729MOL0     H  534   5.818   3.504   1.719  0.6695 -0.1277 -0.3158
  729MOL0     H  535   5.627   3.402   1.691  0.1880 -1.1009  1.1897
  729MOL0     H  536   5.508   3.536   1.725 -0.6213 -0.6015 -2.0088
  729MOL0     H  537   5.362   3.360   1.825 -1.2628  1.0941 -1.0241
  729MOL0     H  538   5.402   3.349   1.658  2.1380 -0.0177 -1.5068
  729MOL0     H  539   5.595   3.185   1.720 -0.2089  1.0740 -1.2381
  729MOL0     H  540   5.523   3.191   1.879  3.2073  0.5839 -0.3186
  729MOL0     H  541   5.299   3.119   1.774  0.2322 -3.3178  2.6592
  729MOL0     H  542   5.391   3.092   1.621  0.7116 -1.0529 -0.6889
  729MOL0     H  543   5.470   2.969   1.882 -0.3015 -2.5720 -0.1513
  729MOL0     H  544   5.521   2.930   1.710 -0.3747 -3.9902  0.4360
  729MOL0     H  545   5.254   2.887   1.844 -0.4629  0.8957  1.2327
  729MOL0     H  546   5.287   2.851   1.679  1.9798 -2.0279 -0.8252
  729MOL0     H  547   5.460   2.738   1.910  0.6582 -1.1799  0.0861
  729MOL0     H  548   5.485   2.713   1.738  1.8999 -1.2556  2.2862
  729MOL0     H  549   5.233   2.595   1.869  2.1120  0.5357  1.8594
  729MOL0     H  550   5.281   2.594   1.705  1.9403  0.8812 -1.2024
  729MOL0     H  551   5.537   2.508   1.994  2.9212 -2.1941  0.4798
  729MOL0     H  552   5.662   2.145   1.903  1.6983 -0.2493 -0.1344
  729MOL0     H  553   5.583   2.225   2.045 -1.0384 -0.0340 -0.4501
  729MOL0     H  554   5.770   2.414   2.009 -2.1886  0.3135 -1.5034
  729MOL0     H  555   5.831   2.244   2.035 -1.4400  0.0213  1.1875
  729MOL0     H  556   5.860   2.209   1.802  2.2530 -0.7404  5.2626
  729MOL0     H  557   5.764   2.361   1.759 -1.4162  0.8485  2.6576
  729MOL0     H  558   6.062   2.324   1.855 -0.5453  0.1029  1.3164
  729MOL0     H  559   6.004   2.407   1.712  3.3258  0.1293  1.4090
  729MOL0     H  560   6.059   2.722   1.944 -3.0669 -1.2540  0.7168
  729MOL0     H  561   6.343   2.859   2.129 -0.1319  0.3979 -1.2303
  729MOL0     H  562   6.175   2.901   2.135 -1.3992 -0.2910 -0.8239
  729MOL0     H  563   6.242   2.874   1.982 -2.1500 -1.3658 -0.1087
  729MOL0     H  564   6.319   2.701   2.618  0.6476 -0.4702  0.7235
  729MOL0     H  565   6.474   2.763   2.801  0.8496  2.3625 -0.0677
  729MOL0     H  566   6.634   2.982   2.878 -1.1485 -0.6818 -0.2183
  729MOL0     H  567   6.611   2.831   2.942  0.4945 -2.7952 -1.2447
  729MOL0     H  568   6.879   2.996   2.951 -0.9344  0.3385  1.0692
  729MOL0     H  569   6.752   2.982   3.075  0.1729  2.1510 -1.3277
  729MOL0     H  570   6.911   2.745   2.949 -4.1286 -2.7740 -2.2375
  729MOL0     H  571   6.788   2.727   3.075  0.9369 -2.1718 -1.9394
  729MOL0     H  572   6.989   2.715   3.189  1.6365  0.8786  0.8977
  729MOL0     H  573   6.921   2.874   3.226 -0.9077 -0.5108 -0.2627
  729MOL0     H  574   7.131   2.823   3.019 -0.7054  0.3277 -0.3291
  729MOL0     H  575   7.100   2.978   3.085  0.5313  0.4025 -0.7806
  729MOL0     H  576   7.212   2.762   3.262  0.1504  0.1965  1.1750
  729MOL0     H  577   7.191   2.925   3.300  0.1402 -0.3582  0.7855
  729MOL0     H  578   7.334   2.982   3.094 -1.5260  1.0017  1.9629
  729MOL0     H  579   7.388   2.817   3.101  1.1678 -0.2514  0.3853
  729MOL0     H  580   7.420   3.041   3.302 -0.3033  0.2023 -1.3657
  729MOL0     H  581   7.549   2.951   3.213 -0.5273 -3.7332 -1.6798
  729MOL0     H  582   6.778   2.830   2.510  0.7233 -0.4339  0.7021
  729MOL0     H  583   6.632   2.792   2.336  3.6764 -0.6125  2.3159
  729MOL0     H  584   6.228   2.371   2.237 -2.7297  0.8084  1.1298
  729MOL0     H  585   6.060   2.326   2.087 -0.6491 -0.5210 -0.6240
  729MOL0     H  586   5.720   3.362   2.116  1.9166  0.8629  1.5727
  729MOL0     H  587   5.946   3.310   2.152  0.0301 -2.6106 -0.9250
  729MOL0     H  588   6.350   3.292   1.849  1.0849 -3.2385 -0.7669
  729MOL0     H  589   6.587   3.260   1.808  3.3145  0.3366  0.9631
  729MOL0     H  590   6.814   2.958   1.936 -0.6073  1.3793  2.4655
  729MOL0     H  591   6.705   3.025   1.809  1.0593 -0.7359 -1.2788
  729MOL0     H  592   6.980   3.127   1.873  0.5621 -1.7695  0.6851
  729MOL0     H  593   6.865   3.186   1.748 -3.1802 -2.0423 -2.9603
  729MOL0     H  594   7.055   3.026   1.685  0.4560  0.5727 -0.7955
  729MOL0     H  595   6.954   2.898   1.752  2.5269  0.4741 -1.0517
  729MOL0     H  596   6.775   2.908   1.599 -1.9143  1.3816 -2.0939
  729MOL0     H  597   6.922   2.920   1.503  0.2691 -1.8048  1.7981
  729MOL0     H  598   6.709   3.288   1.470 -0.5678  0.8820  2.5768
  729MOL0     H  599   6.649   3.124   2.205 -0.6106  1.5509 -0.9600
  729MOL0     H  600   6.334   3.251   2.314 -1.9050 -2.2429 -0.7702
  729MOL0     H  601   6.361   3.070   2.299  2.0293 -0.3998 -0.7896
  729MOL0     H  602   6.496   3.170   2.355  0.9381 -0.5487 -0.1482
  730MOL0     O  603   5.917   7.674   5.857 -0.5025 -0.3592  0.3822
  730MOL0     C  604   5.871   7.619   5.757  0.5292 -0.9337 -0.2084
  730MOL0     O  605   5.944   7.592   5.649 -0.7682 -0.7739 -0.2048
  730MOL0     C  606   6.076   7.635   5.637  0.3322 -0.5615  0.1747
  730MOL0     C  607   6.097   7.737   5.540 -0.1293  0.2394 -0.2311
  730MOL0     C  608   6.224   7.797   5.544  0.6254  0.1042  0.2965
  730MOL0     C  609   6.326   7.736   5.619 -0.3262 -0.4002 -0.1885
  730MOL0     O  610   6.461   7.775   5.614  0.0268  0.2957 -0.4819
  730MOL0     C  611   6.523   7.840   5.497  0.5939  0.5358 -0.9142
  730MOL0     C  612   6.674   7.846   5.530  0.2923 -0.0018 -0.2270
  730MOL0     C  613   6.758   7.923   5.437 -0.5385 -0.2319  0.7415
  730MOL0     C  614   6.747   7.888   5.285  0.8115 -0.1381  0.3427
  730MOL0     C  615   6.862   7.939   5.197 -0.0960  0.4141 -0.1615
  730MOL0     C  616   6.824   7.916   5.048  0.1604  0.7294  0.6807
  730MOL0     C  617   6.947   7.962   4.963  0.6628 -0.4687  0.5065
  730MOL0     C  618   6.900   7.945   4.812 -0.4185 -0.5453  0.1009
  730MOL0     N  619   6.857   7.804   4.794  0.0386 -0.7175 -0.5341
  730MOL0     C  620   6.936   7.700   4.817  0.0594 -0.2937  0.5217
  730MOL0     C  621   6.855   7.591   4.797 -0.1728  0.8665 -0.5078
  730MOL0     C  622   6.915   7.449   4.814 -0.4036 -0.1279  0.9687
  730MOL0     C  623   6.999   7.412   4.688 -0.9434 -0.1645  0.3825
  730MOL0     C  624   6.914   7.416   4.558  0.9318 -0.3849 -0.6591
  730MOL0     C  625   7.000   7.379   4.441  0.5314  0.7249 -0.1563
  730MOL0     O  626   7.039   7.238   4.430 -0.4463  0.3351 -0.1710
  730MOL0     C  627   7.176   7.205   4.444 -0.0603  0.4269 -0.0589
  730MOL0     C  628   7.214   7.096   4.371  0.4460  0.0082  0.4723
  730MOL0     C  629   7.339   7.044   4.387  0.1147 -0.1311 -0.5080
  730MOL0     C  630   7.360   6.909   4.344  0.2225  0.0333  0.2378
  730MOL0     C  631   7.444   7.110   4.453 -0.5287  0.3971  0.6765
  730MOL0     C  632   7.587   7.084   4.433  0.9911 -0.9551  0.7839
  730MOL0     O  633   7.628   7.061   4.308 -0.1155 -0.0775 -0.0758
  730MOL0     C  634   7.747   6.985   4.293  0.1788 -0.2363 -0.1647
  730MOL0     C  635   7.850   7.051   4.219  0.2688 -1.2392  0.1388
  730MOL0     C  636   7.966   6.977   4.191  0.6702 -0.1676 -0.5192
  730MOL0     C  637   7.976   6.841   4.230  0.5833  0.1884 -0.1300
  730MOL0     O  638   8.085   6.769   4.203 -0.7264 -0.4207  0.8085
  730MOL0     C  639   8.192   6.798   4.291 -0.4199 -0.8304  0.1390
  730MOL0     C  640   8.280   6.678   4.317  0.0020  0.5190 -0.6092
  730MOL0     C  641   8.328   6.611   4.188  0.3011  0.0117 -0.2657
  730MOL0     C  642   8.429   6.501   4.201  0.1973 -0.3303  0.0379
  730MOL0     C  643   8.448   6.410   4.080 -0.0894 -0.6854  0.4323
  730MOL0     C  644   8.529   6.286   4.137  0.5710 -0.0291  1.0229
  730MOL0     C  645   8.538   6.189   4.017 -0.2908  0.0352 -0.1091
  730MOL0     C  646   8.603   6.059   4.065 -0.2657 -0.8833 -0.6262
  730MOL0    Cl  647   8.653   5.959   3.929 -0.4544 -0.1474 -0.1518
  730MOL0     C  648   7.878   6.783   4.313  0.8202 -0.3875 -0.8336
  730MOL0     C  649   7.764   6.852   4.341  0.0459  0.4900  0.4280
  730MOL0     O  650   7.657   7.075   4.532  0.7604 -0.2732 -0.2365
  730MOL0     C  651   7.400   7.222   4.526  0.7919 -0.6691  0.4494
  730MOL0     C  652   7.264   7.266   4.527 -0.3382  0.3520 -0.0895
  730MOL0     N  653   6.728   7.631   4.767  0.0643 -0.3824  1.2100
  730MOL0     N  654   6.735   7.764   4.760  0.5993  0.8163  0.1326
  730MOL0     C  655   6.308   7.621   5.694  0.7345  0.0379  0.2684
  730MOL0     C  656   6.175   7.576   5.712 -0.0092 -0.3216 -0.0849
  730MOL0     C  657   5.723   7.586   5.749 -0.1447  0.1847 -0.3325
  730MOL0     C  658   5.666   7.561   5.619  0.1445  0.3798 -0.6695
  730MOL0     C  659   5.526   7.530   5.611 -0.6029  0.7664 -0.4029
  730MOL0     C  660   5.447   7.514   5.723  0.1292 -0.3454 -0.5325
  730MOL0     O  661   5.312   7.489   5.714 -0.4537 -0.0827 -0.0307
  730MOL0     C  662   5.252   7.420   5.824  0.3476  0.6158  0.1845
  730MOL0     C  663   5.106   7.395   5.785  0.5509 -0.2666  0.7908
  730MOL0     C  664   5.077   7.327   5.650 -0.0368  0.2755  0.9945
  730MOL0     C  665   4.924   7.282   5.653 -0.0285  0.0904 -0.1468
  730MOL0     C  666   4.909   7.171   5.743  0.5615 -0.0338  0.1010
  730MOL0     C  667   4.881   7.098   5.838 -0.9932 -0.6958  0.1833
  730MOL0     C  668   5.507   7.536   5.848  0.0419  0.3508 -0.0143
  730MOL0     C  669   5.639   7.580   5.860 -0.4846 -0.6814  0.5208
  730MOL0     C  670   5.693   7.580   5.999  0.3033 -0.1675 -0.3146
  730MOL0     H  671   6.008   7.771   5.489  0.7437  0.8738 -1.4001
  730MOL0     H  672   6.244   7.887   5.487  0.6487  0.5573  1.0106
  730MOL0     H  673   6.477   7.939   5.492 -1.2477 -0.2344 -0.2202
  730MOL0     H  674   6.507   7.783   5.405  1.8739 -0.8431 -0.3378
  730MOL0     H  675   6.683   7.887   5.631 -1.8794 -0.7624  0.3197
  730MOL0     H  676   6.712   7.744   5.529  0.2775 -0.0479 -2.4870
  730MOL0     H  677   6.727   8.027   5.454 -1.5746 -0.5414  0.8663
  730MOL0     H  678   6.862   7.901   5.461 -0.7651 -0.9184  1.1372
  730MOL0     H  679   6.725   7.781   5.276 -1.8036  0.3793 -0.3576
  730MOL0     H  680   6.654   7.939   5.257 -0.6041 -2.9728 -0.5851
  730MOL0     H  681   6.953   7.886   5.228 -0.9457 -0.3099  1.2156
  730MOL0     H  682   6.886   8.045   5.200  2.3629 -0.0733 -0.4042
  730MOL0     H  683   6.798   7.811   5.037  0.1354  0.8800 -0.9606
  730MOL0     H  684   6.729   7.961   5.017 -0.4330 -2.7092 -3.4056
  730MOL0     H  685   7.031   7.896   4.985 -0.0881 -1.2085  1.2422
  730MOL0     H  686   6.980   8.064   4.985  1.5553 -0.0619 -2.2928
  730MOL0     H  687   6.808   8.002   4.795  0.2159 -0.1740 -2.5939
  730MOL0     H  688   6.976   7.970   4.737  0.4333 -1.0284  0.7844
  730MOL0     H  689   7.040   7.702   4.846  1.0703 -0.1022 -2.6965
  730MOL0     H  690   6.829   7.384   4.834 -0.5655 -0.1061  0.3664
  730MOL0     H  691   6.982   7.443   4.900  1.6270 -3.1453 -0.6279
  730MOL0     H  692   7.084   7.480   4.679 -2.4369  1.4867 -3.8633
  730MOL0     H  693   7.048   7.315   4.700 -1.2848 -0.1993  1.6524
  730MOL0     H  694   6.818   7.363   4.561  1.0278 -0.5179  0.7049
  730MOL0     H  695   6.892   7.523   4.546 -0.5893 -0.5181  0.5756
  730MOL0     H  696   6.932   7.406   4.360  2.4112 -0.9865 -2.4345
  730MOL0     H  697   7.091   7.439   4.446  0.8913  0.1631  0.1609
  730MOL0     H  698   7.134   7.045   4.318  0.3354 -0.5245  1.1321
  730MOL0     H  699   7.397   6.857   4.432 -0.3491 -1.6626 -0.4698
  730MOL0     H  700   7.431   6.894   4.262 -1.3528  1.6188 -1.5338
  730MOL0     H  701   7.270   6.853   4.316  0.9635 -0.6096 -0.9726
  730MOL0     H  702   7.857   7.150   4.177  0.3675 -1.7504 -1.0784
  730MOL0     H  703   8.044   7.024   4.133 -0.3560  2.2286 -0.0579
  730MOL0     H  704   8.254   6.880   4.253 -1.4722 -0.1255 -0.0952
  730MOL0     H  705   8.156   6.831   4.389  0.9432  0.9287  0.1072
  730MOL0     H  706   8.360   6.703   4.387  0.1889  1.2244 -1.0617
  730MOL0     H  707   8.219   6.602   4.365  0.4649  0.1053 -0.6665
  730MOL0     H  708   8.360   6.689   4.118 -1.5618 -0.3165 -1.5550
  730MOL0     H  709   8.241   6.580   4.129  0.4571  0.0436 -0.5161
  730MOL0     H  710   8.388   6.427   4.270 -2.2524 -1.8323 -2.8209
  730MOL0     H  711   8.518   6.542   4.250 -1.6504 -0.7187  4.1775
  730MOL0     H  712   8.354   6.366   4.046 -0.0920 -0.6231  0.3623
  730MOL0     H  713   8.499   6.455   3.995 -1.0681 -0.5186 -0.0816
  730MOL0     H  714   8.480   6.228   4.215  0.2381 -2.0748 -0.6340
  730MOL0     H  715   8.623   6.334   4.167  0.8418  1.9163 -2.3443
  730MOL0     H  716   8.589   6.240   3.935 -2.1056  3.5602  0.7422
  730MOL0     H  717   8.438   6.168   3.980 -1.0532  2.8798  0.0913
  730MOL0     H  718   8.526   6.009   4.125 -1.2209  4.3276  3.2500
  730MOL0     H  719   8.686   6.067   4.136  0.4550 -1.0840 -1.4391
  730MOL0     H  720   7.886   6.677   4.336 -1.4791 -0.8131 -1.7079
  730MOL0     H  721   7.690   6.796   4.398 -0.1395 -0.2196 -0.4649
  730MOL0     H  722   7.478   7.287   4.564 -0.6651  1.2729  0.2332
  730MOL0     H  723   7.225   7.342   4.593 -1.1895  1.0260 -1.3237
  730MOL0     H  724   6.399   7.576   5.733  1.2121  1.8854  1.4491
  730MOL0     H  725   6.155   7.481   5.762 -0.2712 -1.1107 -1.6294
  730MOL0     H  726   5.716   7.591   5.528  2.3859 -0.2192  0.2997
  730MOL0     H  727   5.476   7.525   5.515 -1.6154 -3.6701  0.1519
  730MOL0     H  728   5.301   7.323   5.837 -1.9229 -0.4875  0.9450
  730MOL0     H  729   5.253   7.480   5.915 -0.1020  2.2887 -0.8597
  730MOL0     H  730   5.050   7.487   5.799  0.0690 -0.1744 -1.3565
  730MOL0     H  731   5.072   7.328   5.865 -0.4632 -1.4485 -0.5834
  730MOL0     H  732   5.096   7.386   5.560 -1.9318 -0.6241 -0.0602
  730MOL0     H  733   5.136   7.236   5.638  1.7005  1.6129 -1.4920
  730MOL0     H  734   4.893   7.265   5.549  3.2709  1.2150 -1.4700
  730MOL0     H  735   4.865   7.365   5.692  2.2659  1.5653  0.3907
  730MOL0     H  736   4.852   7.033   5.918 -0.7880 -3.2209 -1.6648
  730MOL0     H  737   5.451   7.538   5.941  1.0309  0.2581  0.5991
  730MOL0     H  738   5.708   7.683   6.034  0.2292 -0.5449  0.8606
  730MOL0     H  739   5.625   7.538   6.073  0.5257  2.2571  1.3725
  730MOL0     H  740   5.783   7.519   6.006 -0.0930 -0.7411 -0.1283
  731MOL0     O  741   1.208   5.031   7.709 -0.3734  0.3317  0.6730
  731MOL0     C  742   1.207   5.045   7.583 -0.1955  0.5956 -0.0468
  731MOL0     O  743   1.321   5.064   7.503  0.7556 -0.2401 -0.1496
  731MOL0     C  744   1.447   5.078   7.552 -0.3535  0.4434  0.2923
  731MOL0     C  745   1.556   4.997   7.506 -0.3359 -0.0731 -0.2473
  731MOL0     C  746   1.687   5.018   7.559  0.4134  0.5103 -0.3930
  731MOL0     C  747   1.712   5.110   7.661  0.9713  0.7176 -0.6564
  731MOL0     O  748   1.823   5.130   7.733 -0.0632  0.2864 -0.8955
  731MOL0     C  749   1.930   5.038   7.701 -1.1839  0.4949 -0.4090
  731MOL0     C  750   2.055   5.068   7.791  0.5336  0.5888 -0.3357
  731MOL0     C  751   2.122   5.197   7.741 -0.0763 -0.0567 -0.6257
  731MOL0     C  752   2.216   5.251   7.851  0.6996 -0.1638 -0.0164
  731MOL0     C  753   2.230   5.400   7.845  0.9163 -0.1085  0.4146
  731MOL0     C  754   2.295   5.455   7.972  0.1596 -0.0563  0.0215
  731MOL0     C  755   2.361   5.598   7.950 -0.8000 -0.2706 -0.1842
  731MOL0     C  756   2.452   5.638   8.069 -1.3083 -0.0737 -0.3640
  731MOL0     N  757   2.556   5.736   8.033  0.6324 -0.3085 -0.1242
  731MOL0     C  758   2.670   5.769   8.096 -0.3447 -0.7571  0.0135
  731MOL0     C  759   2.724   5.870   8.017  0.4485  0.5353  0.0383
  731MOL0     C  760   2.859   5.928   8.037 -0.5758  0.4096 -0.4152
  731MOL0     C  761   2.932   5.937   7.899 -0.1187  0.6213 -0.2054
  731MOL0     C  762   2.970   5.799   7.845 -0.1917 -0.3154 -0.0710
  731MOL0     C  763   3.041   5.801   7.703  0.0282  0.1999 -0.2601
  731MOL0     O  764   2.976   5.878   7.608  0.3298 -0.4083  0.4359
  731MOL0     C  765   3.009   5.875   7.473  0.5821  0.0392  0.4586
  731MOL0     C  766   2.909   5.909   7.388  1.3361 -0.0015  0.0685
  731MOL0     C  767   2.920   5.910   7.248  0.0138 -0.4558 -0.5736
  731MOL0     C  768   2.805   5.956   7.157 -0.7283 -0.3906 -0.2136
  731MOL0     C  769   3.045   5.881   7.192 -1.0468  0.1763  0.6025
  731MOL0     C  770   3.079   5.887   7.049  0.2499 -0.0912 -0.1554
  731MOL0     O  771   3.171   5.792   6.996  0.1591 -0.5549 -0.5432
  731MOL0     C  772   3.226   5.823   6.871  1.3421  0.2078 -0.3002
  731MOL0     C  773   3.302   5.937   6.843 -0.9401  0.7911 -0.3762
  731MOL0     C  774   3.376   5.955   6.724 -0.4715  0.5868 -0.1021
  731MOL0     C  775   3.381   5.854   6.627 -0.6126 -0.4820  0.1867
  731MOL0     O  776   3.442   5.870   6.509  0.0195  0.0095  0.5469
  731MOL0     C  777   3.523   5.984   6.478  0.1364 -0.4322  0.2162
  731MOL0     C  778   3.421   6.075   6.398 -0.0363 -0.9064  0.0298
  731MOL0     C  779   3.489   6.201   6.359  0.1693  0.0035  0.0835
  731MOL0     C  780   3.482   6.307   6.465  0.0291 -0.2900 -0.4587
  731MOL0     C  781   3.531   6.438   6.411 -0.1428 -0.3813 -0.7074
  731MOL0     C  782   3.523   6.553   6.509 -0.2666  0.1652  0.8788
  731MOL0     C  783   3.658   6.573   6.575 -0.5680 -0.4442 -0.5429
  731MOL0     C  784   3.629   6.651   6.707  0.9736  0.5094 -0.5262
  731MOL0    Cl  785   3.523   6.552   6.817  0.3564  0.0854 -0.2107
  731MOL0     C  786   3.304   5.741   6.653 -0.7369 -0.4985  0.5208
  731MOL0     C  787   3.228   5.719   6.771 -0.4397  0.0429  0.5697
  731MOL0     O  788   3.050   5.989   6.986 -0.2219 -0.1956  0.2800
  731MOL0     C  789   3.155   5.849   7.273  0.8374 -0.3602 -0.5934
  731MOL0     C  790   3.137   5.850   7.415  0.1179 -0.9625 -0.7693
  731MOL0     N  791   2.625   5.894   7.916 -0.2650  0.3047 -0.4576
  731MOL0     N  792   2.525   5.823   7.935 -0.6595  0.0776 -0.7156
  731MOL0     C  793   1.607   5.187   7.710  0.1124  0.0849  0.8685
  731MOL0     C  794   1.481   5.167   7.655  0.7150  0.1127 -0.6078
  731MOL0     C  795   1.076   5.052   7.523  0.3305 -0.1701  0.4364
  731MOL0     C  796   1.081   5.070   7.307  0.5621 -0.3740 -0.6694
  731MOL0     C  797   0.899   5.043   7.199 -1.2487  0.1914 -0.1327
  731MOL0     C  798   0.722   4.991   7.294 -0.1268  0.2443 -0.9638
  731MOL0     O  799   0.620   4.968   7.211 -0.3755 -0.0329 -0.3279
  731MOL0     C  800   0.497   4.968   7.280 -0.0140  0.6511  0.0494
  731MOL0     C  801   0.392   4.910   7.182 -0.0417 -0.0712 -0.0282
  731MOL0     C  802   0.251   4.915   7.251 -0.1156 -0.3525 -0.7230
  731MOL0     C  803   0.148   4.852   7.164  1.2436  0.2511 -0.3078
  731MOL0     C  804   0.035   4.789   7.234 -0.8462  0.0527 -0.1504
  731MOL0     C  805  -0.060   4.735   7.296  0.6062  1.1387  0.4033
  731MOL0     C  806   0.717   4.964   7.498  0.4767  0.3594 -0.9882
  731MOL0     C  807   0.895   4.996   7.618 -0.1054 -0.3888  0.1982
  731MOL0     C  808   0.887   4.937   7.757  0.3758  0.8541 -0.6216
  731MOL0     H  809   1.535   4.930   7.423  0.8641  1.1789 -1.5959
  731MOL0     H  810   1.771   4.966   7.513  0.7259  0.2570  0.4384
  731MOL0     H  811   1.976   5.037   7.602 -0.6021 -1.3354 -0.1720
  731MOL0     H  812   1.894   4.937   7.723  0.2283  0.0496  0.0071
  731MOL0     H  813   2.029   5.080   7.897  1.9904 -2.3889  0.4933
  731MOL0     H  814   2.123   4.982   7.792 -0.6689 -0.4034 -0.4482
  731MOL0     H  815   2.181   5.166   7.654 -0.5352 -2.1763 -0.2379
  731MOL0     H  816   2.057   5.278   7.707 -2.1317 -0.7379  1.4628
  731MOL0     H  817   2.177   5.228   7.950  2.3170  2.7256  1.4079
  731MOL0     H  818   2.317   5.209   7.844  1.6599  2.2300 -2.4777
  731MOL0     H  819   2.136   5.453   7.831  0.7759 -0.0884  1.3362
  731MOL0     H  820   2.288   5.419   7.754  0.9932 -0.5702  0.3646
  731MOL0     H  821   2.209   5.458   8.039 -0.6219  1.0378 -0.9964
  731MOL0     H  822   2.365   5.378   8.008  0.4724  0.4288  0.4658
  731MOL0     H  823   2.289   5.675   7.924 -0.7766 -0.3389 -0.4515
  731MOL0     H  824   2.430   5.589   7.866  0.0905  2.5023  0.1454
  731MOL0     H  825   2.390   5.686   8.145  1.5579 -0.4984  2.4269
  731MOL0     H  826   2.491   5.542   8.105 -1.0999  0.5307  1.0807
  731MOL0     H  827   2.719   5.713   8.175 -1.7947 -3.6688 -1.0034
  731MOL0     H  828   2.909   5.862   8.109 -1.1174  1.0493  0.5754
  731MOL0     H  829   2.850   6.022   8.094 -0.1779 -2.2043  4.4935
  731MOL0     H  830   2.862   5.978   7.827  1.1439  1.2441 -1.1200
  731MOL0     H  831   3.029   5.985   7.914 -0.3684  0.8034  0.9241
  731MOL0     H  832   3.042   5.758   7.917  0.6676  0.4407 -0.4756
  731MOL0     H  833   2.880   5.738   7.842 -1.4026  1.3812  0.0782
  731MOL0     H  834   3.144   5.837   7.714  0.5103 -1.5425  1.6334
  731MOL0     H  835   3.040   5.701   7.657 -0.5127  0.7954 -1.5918
  731MOL0     H  836   2.813   5.941   7.427  0.8201  0.8956 -1.8025
  731MOL0     H  837   2.711   5.948   7.212 -0.3562  1.5634  0.8032
  731MOL0     H  838   2.811   5.883   7.076  3.2765 -0.9831  0.3924
  731MOL0     H  839   2.830   6.057   7.123  0.3583  0.1409  1.9369
  731MOL0     H  840   3.306   6.010   6.923 -1.2367  1.1596 -0.6943
  731MOL0     H  841   3.435   6.045   6.709  0.0668  0.0742 -1.1602
  731MOL0     H  842   3.576   6.042   6.555  2.4504 -0.8142 -0.9838
  731MOL0     H  843   3.606   5.956   6.412  2.3324  3.2394  1.1039
  731MOL0     H  844   3.393   6.018   6.309  1.3423  0.4827 -1.3548
  731MOL0     H  845   3.332   6.100   6.457 -0.4292 -2.3757  0.1108
  731MOL0     H  846   3.443   6.238   6.267 -0.2677  1.1010  0.7120
  731MOL0     H  847   3.594   6.176   6.343  0.4354 -0.0892  1.8025
  731MOL0     H  848   3.535   6.270   6.553 -3.1052  1.0050  2.1572
  731MOL0     H  849   3.382   6.311   6.507 -0.2106 -1.9492 -0.7731
  731MOL0     H  850   3.634   6.419   6.380  0.2272  1.1891 -0.5514
  731MOL0     H  851   3.475   6.474   6.323 -3.4987 -2.2648  0.4502
  731MOL0     H  852   3.446   6.522   6.580 -1.2145 -0.9034 -0.5468
  731MOL0     H  853   3.483   6.644   6.461 -0.8889  1.0349  2.9190
  731MOL0     H  854   3.726   6.630   6.511  0.6924  0.1124  1.2117
  731MOL0     H  855   3.702   6.476   6.601 -0.3047  0.2331  1.7135
  731MOL0     H  856   3.580   6.746   6.686  1.9880  1.5327  1.4007
  731MOL0     H  857   3.721   6.681   6.759  1.5646 -0.6290 -0.8602
  731MOL0     H  858   3.311   5.664   6.576 -1.4094 -0.9801  0.9334
  731MOL0     H  859   3.177   5.624   6.784  2.3788 -1.7162 -0.3436
  731MOL0     H  860   3.256   5.830   7.238  1.2981  0.5628  0.1979
  731MOL0     H  861   3.215   5.821   7.484 -2.2862 -5.6823  0.4084
  731MOL0     H  862   1.614   5.261   7.789 -0.6753  0.7884  0.3010
  731MOL0     H  863   1.397   5.215   7.704 -0.1192 -1.2357 -0.6822
  731MOL0     H  864   1.167   5.097   7.247 -0.6189  3.3715 -0.9413
  731MOL0     H  865   0.890   5.059   7.092 -0.4075  0.2333 -0.2044
  731MOL0     H  866   0.499   4.909   7.372  0.9023 -0.7814 -0.8487
  731MOL0     H  867   0.471   5.072   7.305 -0.0910  0.4866  0.6680
  731MOL0     H  868   0.417   4.814   7.136  2.6388  1.4129 -1.9774
  731MOL0     H  869   0.393   4.982   7.099 -2.6214  0.3065  0.1840
  731MOL0     H  870   0.262   4.852   7.339 -3.1691 -0.9710 -0.6813
  731MOL0     H  871   0.218   5.015   7.283  1.6740 -0.5486  2.0239
  731MOL0     H  872   0.196   4.777   7.100 -1.8687 -1.7008 -0.5553
  731MOL0     H  873   0.111   4.933   7.101  1.8020  0.1428 -0.7814
  731MOL0     H  874  -0.148   4.708   7.352  0.7470  2.6648  1.4317
  731MOL0     H  875   0.620   4.939   7.538  0.1757  0.4157 -1.6704
  731MOL0     H  876   0.835   5.014   7.815 -0.8057 -0.1112 -0.3681
  731MOL0     H  877   0.808   4.862   7.754 -0.4263  1.7026 -1.2678
  731MOL0     H  878   0.975   4.895   7.807 -2.3321 -5.0698 -0.0488
  732MOL0     O  879   0.898   1.621   4.249  0.4105  0.3482 -0.4737
  732MOL0     C  880   1.012   1.613   4.202  0.2226  0.7545 -0.1200
  732MOL0     O  881   1.125   1.611   4.272  0.0624  0.0870  0.2871
  732MOL0     C  882   1.132   1.602   4.401 -0.2489 -0.3043 -0.7161
  732MOL0     C  883   1.044   1.514   4.478 -0.6620  0.4383 -0.2417
  732MOL0     C  884   1.066   1.500   4.614  0.1841  0.2091  0.4015
  732MOL0     C  885   1.166   1.571   4.685  0.8893  0.5747 -0.4301
  732MOL0     O  886   1.177   1.539   4.818  0.1818 -0.5969  0.2838
  732MOL0     C  887   1.251   1.629   4.899  0.1912  0.6536  0.0181
  732MOL0     C  888   1.222   1.593   5.045 -0.2946 -0.2308 -0.0187
  732MOL0     C  889   1.331   1.628   5.140 -0.3863  0.2201  0.3249
  732MOL0     C  890   1.295   1.577   5.283 -0.0589  0.1585  0.5741
  732MOL0     C  891   1.425   1.572   5.368 -0.0645  1.0404  0.2031
  732MOL0     C  892   1.401   1.496   5.499  0.8803 -0.1660 -0.1474
  732MOL0     C  893   1.503   1.528   5.606  0.6549  0.1530 -0.0706
  732MOL0     C  894   1.648   1.493   5.550  0.1835  0.2111  0.5530
  732MOL0     N  895   1.743   1.517   5.658  0.0844 -0.3649 -0.3720
  732MOL0     C  896   1.822   1.418   5.717  0.0432 -0.2971  0.2117
  732MOL0     C  897   1.905   1.492   5.801  0.4344 -0.3174  0.1515
  732MOL0     C  898   2.024   1.457   5.888 -0.0953  0.5523  1.0202
  732MOL0     C  899   1.988   1.401   6.023  0.3063 -0.5062 -0.1975
  732MOL0     C  900   2.106   1.365   6.107  0.6377 -0.4258 -0.1073
  732MOL0     C  901   2.060   1.323   6.247  0.4086 -0.3446 -1.8431
  732MOL0     O  902   2.051   1.436   6.336  0.2434  0.9603  0.4834
  732MOL0     C  903   2.089   1.418   6.474  0.1886  0.6351  0.3480
  732MOL0     C  904   2.132   1.526   6.547  0.1598  0.1520 -0.0208
  732MOL0     C  905   2.147   1.518   6.688 -1.2227 -1.4610  0.6720
  732MOL0     C  906   2.154   1.650   6.763 -0.4979  0.6243  0.5464
  732MOL0     C  907   2.141   1.392   6.751  1.1302 -0.5907 -0.1099
  732MOL0     C  908   2.182   1.380   6.890  0.1315 -0.3891  0.4385
  732MOL0     O  909   2.150   1.261   6.946  0.2747  0.3370  0.5681
  732MOL0     C  910   2.196   1.228   7.077 -0.2288 -0.8135 -0.2937
  732MOL0     C  911   2.255   1.102   7.083  1.1304  0.9215 -0.6328
  732MOL0     C  912   2.294   1.054   7.203 -0.9889 -0.4777  0.0898
  732MOL0     C  913   2.261   1.122   7.327  0.6612 -0.4687  0.2691
  732MOL0     O  914   2.303   1.060   7.445 -0.1406  0.7540  0.1366
  732MOL0     C  915   2.244   1.105   7.567 -0.4574  0.3682 -0.6792
  732MOL0     C  916   2.304   1.025   7.675  0.1072 -1.0507 -0.6043
  732MOL0     C  917   2.323   0.877   7.646  0.0678  0.1436  0.3440
  732MOL0     C  918   2.189   0.815   7.608  0.2923 -0.5412 -0.4260
  732MOL0     C  919   2.199   0.670   7.555 -0.4455 -0.5650 -0.6681
  732MOL0     C  920   2.056   0.605   7.551 -0.8688 -0.2171  0.2111
  732MOL0     C  921   2.055   0.452   7.534 -0.0527 -0.4553 -0.0912
  732MOL0     C  922   1.925   0.386   7.570  0.3372  0.5553  0.4646
  732MOL0    Cl  923   1.778   0.472   7.497 -0.0744  0.5362  0.1798
  732MOL0     C  924   2.195   1.249   7.317 -0.2245 -0.0515  0.3760
  732MOL0     C  925   2.160   1.295   7.192  0.2037  0.3966 -0.0920
  732MOL0     O  926   2.244   1.467   6.953 -0.5289  0.2984 -0.2190
  732MOL0     C  927   2.107   1.283   6.678 -0.0882 -0.6214 -0.6421
  732MOL0     C  928   2.074   1.292   6.541  0.4793  0.3422  0.8216
  732MOL0     N  929   1.863   1.620   5.804  0.5493 -0.0218 -0.5462
  732MOL0     N  930   1.760   1.634   5.718  1.3878 -0.1775  0.0486
  732MOL0     C  931   1.241   1.661   4.611  0.7785 -0.6726 -0.5816
  732MOL0     C  932   1.227   1.668   4.470 -0.7696  0.0907 -0.0183
  732MOL0     C  933   1.028   1.620   4.048  0.3983  0.2727  0.7405
  732MOL0     C  934   1.157   1.627   3.990  0.4703  0.0214 -0.6879
  732MOL0     C  935   1.181   1.630   3.851  0.1698 -0.7446 -0.3215
  732MOL0     C  936   1.073   1.628   3.764 -0.4009 -0.1143  0.1472
  732MOL0     O  937   1.084   1.624   3.629 -0.2865  0.7096 -0.2420
  732MOL0     C  938   1.199   1.559   3.574 -0.0680  0.1769  0.1182
  732MOL0     C  939   1.161   1.522   3.434 -0.0482  0.1356 -0.3116
  732MOL0     C  940   1.072   1.394   3.427  0.4136 -0.9570  0.1325
  732MOL0     C  941   0.955   1.417   3.330  0.2313 -0.6501 -0.3340
  732MOL0     C  942   0.844   1.497   3.396  0.0972 -0.3676  0.3033
  732MOL0     C  943   0.755   1.570   3.436  0.1138 -0.3911 -0.4149
  732MOL0     C  944   0.944   1.606   3.819  0.1298 -0.4745 -0.1184
  732MOL0     C  945   0.918   1.603   3.957 -0.1022  0.5104 -0.4170
  732MOL0     C  946   0.767   1.594   3.989 -0.1697 -0.0884  0.0279
  732MOL0     H  947   0.968   1.454   4.429 -2.4727  2.2843  0.1567
  732MOL0     H  948   1.007   1.422   4.662  1.5970 -1.9432 -1.1418
  732MOL0     H  949   1.213   1.729   4.875 -0.8347 -0.0903 -1.6241
  732MOL0     H  950   1.358   1.626   4.874  0.1082 -2.7255 -0.3272
  732MOL0     H  951   1.130   1.640   5.079  0.2517 -0.4295  1.8318
  732MOL0     H  952   1.206   1.485   5.051  2.6483 -0.7133  0.5920
  732MOL0     H  953   1.431   1.589   5.116  0.6923  2.9680 -0.0108
  732MOL0     H  954   1.341   1.735   5.121 -0.4641 -0.3516 -3.8661
  732MOL0     H  955   1.222   1.650   5.318 -1.8257 -0.0565 -2.2884
  732MOL0     H  956   1.253   1.476   5.271 -0.9248  0.7305 -1.7743
  732MOL0     H  957   1.465   1.674   5.379  2.9487  0.0291 -0.4389
  732MOL0     H  958   1.504   1.516   5.318 -1.8801 -1.9688  0.4477
  732MOL0     H  959   1.302   1.517   5.540  1.9389  2.0473  1.4549
  732MOL0     H  960   1.401   1.389   5.476 -0.0175  0.1992 -2.0977
  732MOL0     H  961   1.481   1.459   5.688  2.4895 -0.7127 -0.2414
  732MOL0     H  962   1.494   1.625   5.656 -0.5270  1.7311 -3.1154
  732MOL0     H  963   1.649   1.386   5.526 -4.1496 -0.5347  2.7927
  732MOL0     H  964   1.676   1.550   5.461 -1.4794  0.0080 -0.1395
  732MOL0     H  965   1.839   1.312   5.700 -0.3264 -0.3037 -0.1281
  732MOL0     H  966   2.089   1.544   5.899 -2.4192  2.3862  1.0420
  732MOL0     H  967   2.082   1.386   5.829  2.0431  2.6683  0.4325
  732MOL0     H  968   1.921   1.470   6.077 -1.1315 -1.8236 -0.2260
  732MOL0     H  969   1.917   1.319   6.004 -2.1220  1.6853 -1.2525
  732MOL0     H  970   2.150   1.280   6.055  1.1029  0.1427 -0.6617
  732MOL0     H  971   2.180   1.446   6.113  1.5705 -1.3477  2.9449
  732MOL0     H  972   1.960   1.280   6.234 -0.4819  1.7438 -2.1554
  732MOL0     H  973   2.134   1.250   6.282 -1.5080 -1.2880  0.5316
  732MOL0     H  974   2.139   1.630   6.515 -1.0579  0.8846  1.8969
  732MOL0     H  975   2.256   1.664   6.800 -1.1741  4.2819  1.4569
  732MOL0     H  976   2.080   1.635   6.842  0.2044  0.8805  1.2748
  732MOL0     H  977   2.132   1.744   6.711  2.5888  0.6629 -0.9211
  732MOL0     H  978   2.274   1.044   6.993  2.4753  1.9778 -1.0713
  732MOL0     H  979   2.347   0.961   7.220  0.6896  0.4299  0.0226
  732MOL0     H  980   2.264   1.212   7.567 -2.8886  0.8917 -1.3667
  732MOL0     H  981   2.137   1.084   7.557 -0.1811 -2.0743  0.6515
  732MOL0     H  982   2.406   1.065   7.674  0.3221 -1.4339  1.4113
  732MOL0     H  983   2.254   1.053   7.768 -0.8442  0.4904 -1.5335
  732MOL0     H  984   2.357   0.826   7.737  1.8052 -1.5133 -1.1233
  732MOL0     H  985   2.399   0.869   7.567 -0.1494 -2.6783  0.2924
  732MOL0     H  986   2.145   0.872   7.526  0.2691 -0.2054 -0.1834
  732MOL0     H  987   2.121   0.814   7.693  1.0116 -3.4133  0.2411
  732MOL0     H  988   2.249   0.671   7.458  2.5840 -2.4899  0.6861
  732MOL0     H  989   2.268   0.621   7.624 -0.4523 -0.0599 -0.2940
  732MOL0     H  990   2.008   0.652   7.464  0.7955  0.1140 -0.5690
  732MOL0     H  991   2.004   0.627   7.645  3.7263  1.0452  2.7282
  732MOL0     H  992   2.131   0.413   7.603  0.3631  1.9007  0.8729
  732MOL0     H  993   2.084   0.421   7.433 -1.6659 -0.7610 -0.4783
  732MOL0     H  994   1.907   0.370   7.676  0.0221  0.2999  0.3765
  732MOL0     H  995   1.930   0.291   7.515 -1.8912  2.3870 -3.2980
  732MOL0     H  996   2.163   1.310   7.402 -4.3901  0.4823 -1.3490
  732MOL0     H  997   2.110   1.391   7.185  1.6244  1.0970 -1.1907
  732MOL0     H  998   2.118   1.183   6.721  0.0293 -0.0098  0.7935
  732MOL0     H  999   2.039   1.200   6.496 -1.3086  0.3926  1.9856
  732MOL0     H 1000   1.324   1.714   4.657 -0.8348  0.5163  1.1084
  732MOL0     H 1001   1.299   1.729   4.417  0.9067 -2.7037 -1.1711
  732MOL0     H 1002   1.245   1.629   4.054 -0.1050  2.2071  0.0966
  732MOL0     H 1003   1.279   1.634   3.806  0.7749  2.2046  1.0644
  732MOL0     H 1004   1.280   1.631   3.556 -0.2177  0.0196 -1.2792
  732MOL0     H 1005   1.249   1.479   3.629  0.8408 -1.3622 -2.7412
  732MOL0     H 1006   1.257   1.517   3.382 -0.0008  2.2418 -0.4931
  732MOL0     H 1007   1.113   1.609   3.390 -0.7561  0.6490  1.4217
  732MOL0     H 1008   1.139   1.311   3.402  0.3133 -0.2649 -2.7960
  732MOL0     H 1009   1.038   1.382   3.530  1.1617  0.8824  0.6315
  732MOL0     H 1010   0.912   1.322   3.297 -1.6062 -0.9847  2.6138
  732MOL0     H 1011   0.980   1.489   3.251 -1.9462  2.1618  1.3239
  732MOL0     H 1012   0.683   1.635   3.481 -0.5921 -1.9767  0.8193
  732MOL0     H 1013   0.854   1.610   3.758 -1.2600  0.3108  1.8832
  732MOL0     H 1014   0.711   1.573   3.897 -0.4522  0.8932 -0.0381
  732MOL0     H 1015   0.744   1.522   4.068 -2.3858  2.7276  2.1572
  732MOL0     H 1016   0.729   1.684   4.038  1.2795 -1.5382  4.2668
  733MOL0     O 1017  10.998   7.096   6.651 -0.4191 -0.1670  1.2757
  733MOL0     C 1018  11.038   7.088   6.540  0.0154  0.1188 -0.2213
  733MOL0     O 1019  10.981   7.021   6.436 -0.2436 -0.8754  0.2399
  733MOL0     C 1020  10.850   7.009   6.435 -0.7986 -0.0752  1.2059
  733MOL0     C 1021  10.760   7.114   6.453  0.6144 -0.3003  0.2506
  733MOL0     C 1022  10.615   7.100   6.446  0.3896  0.6752 -0.4417
  733MOL0     C 1023  10.565   6.973   6.414  0.2773 -0.4000 -0.1889
  733MOL0     O 1024  10.432   6.961   6.381  0.2735  0.0294 -0.1683
  733MOL0     C 1025  10.340   7.063   6.432 -0.6735  0.2057  0.3749
  733MOL0     C 1026  10.189   7.033   6.412  0.8488 -0.3416  0.1667
  733MOL0     C 1027  10.155   6.904   6.481  1.0134  0.6567 -0.1077
  733MOL0     C 1028  10.011   6.915   6.532 -0.2448 -0.2570 -0.5678
  733MOL0     C 1029   9.948   6.783   6.577 -0.0210  0.1806  1.0340
  733MOL0     C 1030   9.806   6.780   6.632  0.1700  0.1496 -0.2812
  733MOL0     C 1031   9.710   6.833   6.527 -0.4638  0.2321 -0.2338
  733MOL0     C 1032   9.565   6.829   6.586 -0.7511  0.4485  0.4432
  733MOL0     N 1033   9.553   6.918   6.707 -0.3532 -0.6292  0.0545
  733MOL0     C 1034   9.548   7.052   6.708  0.3241  0.4953 -0.1419
  733MOL0     C 1035   9.522   7.082   6.840 -0.5754  0.2654  0.3703
  733MOL0     C 1036   9.501   7.221   6.897 -0.1213 -0.3490  0.5421
  733MOL0     C 1037   9.625   7.310   6.863 -0.5093 -0.0893 -0.4346
  733MOL0     C 1038   9.607   7.453   6.928 -0.8655  0.2712  0.6500
  733MOL0     C 1039   9.634   7.458   7.085  0.0033 -0.2482  0.5367
  733MOL0     O 1040   9.753   7.404   7.133 -0.0479 -0.2024 -0.0860
  733MOL0     C 1041   9.874   7.462   7.093  0.8389  0.5719  0.9211
  733MOL0     C 1042   9.890   7.598   7.075  0.4703 -0.2447 -0.3865
  733MOL0     C 1043  10.014   7.646   7.046 -0.1072 -0.0803 -0.1209
  733MOL0     C 1044  10.014   7.789   7.015  0.3267 -0.0311 -0.8015
  733MOL0     C 1045  10.130   7.561   7.053 -1.2847 -0.7162  0.0983
  733MOL0     C 1046  10.269   7.607   7.040 -0.0982  0.6142 -0.9000
  733MOL0     O 1047  10.335   7.621   7.157 -1.1109 -0.4298 -0.1403
  733MOL0     C 1048  10.480   7.635   7.162 -0.0466 -0.1508  0.2043
  733MOL0     C 1049  10.577   7.551   7.099  0.6638 -0.2091  0.5155
  733MOL0     C 1050  10.710   7.564   7.114  0.5025 -0.0714 -0.4562
  733MOL0     C 1051  10.760   7.669   7.190 -0.2227  0.0056  0.5809
  733MOL0     O 1052  10.892   7.677   7.208 -0.0165 -0.5940  0.4155
  733MOL0     C 1053  10.963   7.792   7.150 -0.6241  0.7937  0.6536
  733MOL0     C 1054  11.105   7.793   7.207 -0.5775 -0.4300 -0.1593
  733MOL0     C 1055  11.102   7.818   7.359  0.4651 -0.0049 -0.2402
  733MOL0     C 1056  11.174   7.940   7.412  0.4872  0.1176 -0.0864
  733MOL0     C 1057  11.188   7.942   7.569  0.0120 -0.3956  0.2430
  733MOL0     C 1058  11.274   8.062   7.627  1.3947 -0.4808  0.5821
  733MOL0     C 1059  11.271   8.068   7.775  0.0924  0.0653  0.7499
  733MOL0     C 1060  11.324   8.194   7.842 -0.2766  0.0015  0.1167
  733MOL0    Cl 1061  11.498   8.160   7.863  0.1942 -0.2795 -0.4694
  733MOL0     C 1062  10.675   7.741   7.274  0.2647  0.4642 -0.5381
  733MOL0     C 1063  10.533   7.727   7.251 -0.5378  0.4309 -0.7166
  733MOL0     O 1064  10.316   7.623   6.930  0.3655  0.6383  0.6850
  733MOL0     C 1065  10.109   7.421   7.085 -0.3168 -0.6488  0.1265
  733MOL0     C 1066   9.979   7.380   7.102 -0.3038  0.2214  0.0981
  733MOL0     N 1067   9.541   6.970   6.916  0.4977  0.7615  0.0283
  733MOL0     N 1068   9.537   6.870   6.831  0.0696  0.0091 -0.3906
  733MOL0     C 1069  10.660   6.878   6.376 -0.2679  0.0058 -0.3457
  733MOL0     C 1070  10.799   6.892   6.387  0.8465 -0.0195 -0.1282
  733MOL0     C 1071  11.170   7.155   6.521 -0.3252  0.0320  0.0669
  733MOL0     C 1072  11.214   7.255   6.617 -0.4496  0.5055  0.2470
  733MOL0     C 1073  11.338   7.324   6.602 -0.1466 -0.1172  0.6754
  733MOL0     C 1074  11.430   7.299   6.502 -0.7691 -0.7455 -0.6358
  733MOL0     O 1075  11.550   7.361   6.508 -0.5386  0.3467  0.9519
  733MOL0     C 1076  11.621   7.407   6.388 -0.3266 -0.5271 -0.8288
  733MOL0     C 1077  11.773   7.413   6.419  0.3320 -0.6226  0.1106
  733MOL0     C 1078  11.803   7.533   6.518 -0.0721  0.3335 -0.4757
  733MOL0     C 1079  11.953   7.539   6.539  0.2529 -0.1316 -0.1391
  733MOL0     C 1080  12.030   7.610   6.442 -0.7613  0.7948  0.0512
  733MOL0     C 1081  12.091   7.653   6.353 -1.3572 -0.4803  0.3925
  733MOL0     C 1082  11.395   7.198   6.418 -0.4572  0.2550 -0.9860
  733MOL0     C 1083  11.268   7.130   6.420 -0.3652 -0.1708 -0.0645
  733MOL0     C 1084  11.244   7.025   6.313 -0.7075 -0.5597  0.4065
  733MOL0     H 1085  10.794   7.212   6.486 -1.4557  1.2988 -2.0832
  733MOL0     H 1086  10.542   7.177   6.467 -0.0789  0.4639 -1.2292
  733MOL0     H 1087  10.358   7.144   6.362  3.0909  1.4588  2.5363
  733MOL0     H 1088  10.354   7.095   6.535  1.5677 -2.0126  0.8793
  733MOL0     H 1089  10.127   7.117   6.447 -2.7730 -2.2467 -1.1869
  733MOL0     H 1090  10.166   7.029   6.305  0.2179  1.8484  0.1708
  733MOL0     H 1091  10.164   6.824   6.407  4.8606  2.5192 -1.9337
  733MOL0     H 1092  10.229   6.885   6.559  1.2063  1.5302 -0.0660
  733MOL0     H 1093  10.012   6.977   6.621  0.7095 -3.4609  1.8541
  733MOL0     H 1094   9.961   6.959   6.445  2.9456  2.2655 -1.3084
  733MOL0     H 1095  10.007   6.729   6.652  3.4181 -0.7735 -2.0882
  733MOL0     H 1096   9.950   6.715   6.492  1.1130  3.2621 -1.5918
  733MOL0     H 1097   9.762   6.685   6.662 -4.4654  2.3447  0.8782
  733MOL0     H 1098   9.795   6.840   6.723 -3.0065 -1.4947  0.5548
  733MOL0     H 1099   9.723   6.781   6.432  1.4257 -1.5902  0.9092
  733MOL0     H 1100   9.737   6.937   6.510  1.2977 -0.3259 -1.0895
  733MOL0     H 1101   9.479   6.849   6.521  0.4651  1.8304 -0.7969
  733MOL0     H 1102   9.541   6.726   6.617 -1.4833  0.5430  0.2131
  733MOL0     H 1103   9.556   7.124   6.627  0.0310 -1.4761 -1.9993
  733MOL0     H 1104   9.476   7.210   7.003  0.8376 -2.1496  0.6269
  733MOL0     H 1105   9.415   7.270   6.852  1.0426  0.1342 -1.2798
  733MOL0     H 1106   9.717   7.258   6.894 -0.8281 -1.0275 -1.0278
  733MOL0     H 1107   9.629   7.331   6.756  1.3635 -0.2133 -0.4257
  733MOL0     H 1108   9.682   7.517   6.881 -1.6835  1.1805  0.5558
  733MOL0     H 1109   9.512   7.501   6.903 -1.8516 -1.8332  0.2298
  733MOL0     H 1110   9.627   7.555   7.134  0.5970 -0.2430  0.6270
  733MOL0     H 1111   9.558   7.396   7.133  2.4622 -1.5088  3.1338
  733MOL0     H 1112   9.818   7.672   7.109  1.3348  1.3834 -1.9599
  733MOL0     H 1113   9.972   7.841   7.101  1.4863 -0.0720 -0.1935
  733MOL0     H 1114   9.946   7.810   6.932 -1.8144 -3.9162 -0.2744
  733MOL0     H 1115  10.115   7.825   6.995 -0.6683  2.8837 -1.0038
  733MOL0     H 1116  10.534   7.472   7.038 -2.2038  1.2830  0.4819
  733MOL0     H 1117  10.788   7.501   7.073  1.3434  0.7618 -0.1695
  733MOL0     H 1118  10.974   7.780   7.042 -2.7380  0.8576  0.3853
  733MOL0     H 1119  10.920   7.891   7.169 -2.6341 -0.3362  2.3437
  733MOL0     H 1120  11.156   7.699   7.188  2.7654  1.1374  0.3922
  733MOL0     H 1121  11.162   7.868   7.151  1.0730 -1.3623  0.2088
  733MOL0     H 1122  11.147   7.727   7.401  4.2148  1.2207 -1.1801
  733MOL0     H 1123  10.997   7.831   7.387  0.4886  1.5254 -0.7655
  733MOL0     H 1124  11.122   8.032   7.383 -1.0450 -0.9159 -0.7364
  733MOL0     H 1125  11.274   7.932   7.367  0.4400 -1.2570  0.0233
  733MOL0     H 1126  11.083   7.941   7.601 -0.9957  1.0030 -2.5860
  733MOL0     H 1127  11.242   7.853   7.600  0.5737  0.1565  0.8605
  733MOL0     H 1128  11.235   8.159   7.594  0.8934 -1.0733 -0.6214
  733MOL0     H 1129  11.378   8.059   7.592  0.8809 -0.3777 -1.0555
  733MOL0     H 1130  11.313   7.981   7.827 -1.2349 -0.7580  0.4871
  733MOL0     H 1131  11.165   8.063   7.801  0.1032 -2.9821  0.5604
  733MOL0     H 1132  11.270   8.203   7.937 -1.6764 -1.0507 -0.5385
  733MOL0     H 1133  11.316   8.280   7.774  2.5618 -0.9963 -1.6236
  733MOL0     H 1134  10.711   7.814   7.346  2.9086  1.7678 -2.9852
  733MOL0     H 1135  10.460   7.775   7.316  1.1805  0.2223  1.4984
  733MOL0     H 1136  10.182   7.343   7.100 -0.8864 -0.7334  2.9976
  733MOL0     H 1137   9.972   7.274   7.126  0.2240  0.4967  1.5709
  733MOL0     H 1138  10.621   6.786   6.335  1.5519 -0.1082 -1.9956
  733MOL0     H 1139  10.858   6.815   6.338 -1.2337 -0.0759 -2.7381
  733MOL0     H 1140  11.150   7.281   6.701  0.2251 -1.0940  1.3086
  733MOL0     H 1141  11.365   7.404   6.671 -2.1598  1.2833 -0.0506
  733MOL0     H 1142  11.605   7.335   6.307 -2.2021  1.6054 -2.4906
  733MOL0     H 1143  11.579   7.502   6.356 -1.2648 -0.3803  0.7249
  733MOL0     H 1144  11.825   7.435   6.325 -1.4464 -1.6559 -1.1998
  733MOL0     H 1145  11.803   7.310   6.440  1.1635 -1.0729 -2.8122
  733MOL0     H 1146  11.766   7.630   6.483 -1.8633  0.8314  2.4725
  733MOL0     H 1147  11.761   7.520   6.618 -2.6975  3.5407 -0.9882
  733MOL0     H 1148  11.981   7.435   6.558 -3.3778 -1.5576 -1.6264
  733MOL0     H 1149  11.956   7.597   6.631  1.0397  0.5886 -0.6105
  733MOL0     H 1150  12.152   7.682   6.270 -0.0552 -2.3254  0.6394
  733MOL0     H 1151  11.469   7.175   6.341 -0.1780  0.0820 -0.6703
  733MOL0     H 1152  11.326   7.026   6.240 -0.0366  0.8645  1.1434
  733MOL0     H 1153  11.247   6.929   6.364 -0.3153  0.1245  1.7073
  733MOL0     H 1154  11.146   7.037   6.266  0.4757  1.3304 -1.8034
  734MOL0     O 1155   5.708   6.918   8.352 -0.4340  0.7021  0.3547
  734MOL0     C 1156   5.681   6.832   8.433  0.3000  0.0482 -0.0914
  734MOL0     O 1157   5.773   6.754   8.491 -0.4348 -0.3655 -0.0039
  734MOL0     C 1158   5.913   6.779   8.491 -0.2634 -0.6228 -0.4998
  734MOL0     C 1159   6.003   6.683   8.432  0.4492  0.7034  0.1272
  734MOL0     C 1160   6.138   6.693   8.440  0.3285  0.2113  1.7310
  734MOL0     C 1161   6.196   6.801   8.505 -0.2415 -1.0271  0.0952
  734MOL0     O 1162   6.333   6.829   8.509 -0.8661 -0.0168  0.2263
  734MOL0     C 1163   6.431   6.733   8.463  0.1972  0.5207  0.1047
  734MOL0     C 1164   6.577   6.779   8.455  0.3765 -0.6984  0.0738
  734MOL0     C 1165   6.589   6.908   8.375 -0.3338  0.3058  0.8025
  734MOL0     C 1166   6.735   6.952   8.363 -0.1467  0.1383 -0.3080
  734MOL0     C 1167   6.747   7.090   8.291  1.3699  1.0348 -0.3340
  734MOL0     C 1168   6.886   7.148   8.289 -0.7963 -0.4117 -0.3410
  734MOL0     C 1169   6.894   7.272   8.192  0.1239 -0.7671 -0.4828
  734MOL0     C 1170   7.022   7.353   8.230 -0.7192 -0.2674  0.3516
  734MOL0     N 1171   7.144   7.275   8.203  0.3957 -0.9596  0.1116
  734MOL0     C 1172   7.205   7.278   8.076  0.1112  0.3571 -0.8160
  734MOL0     C 1173   7.310   7.193   8.093  0.5828 -0.4283  0.2035
  734MOL0     C 1174   7.410   7.171   7.985 -0.7915 -0.2488  0.5869
  734MOL0     C 1175   7.525   7.076   8.028 -0.1139  1.1797  0.2628
  734MOL0     C 1176   7.590   7.006   7.911  0.1113  0.1261  0.7401
  734MOL0     C 1177   7.638   7.105   7.801  0.3559  0.6116 -0.0595
  734MOL0     O 1178   7.713   7.212   7.850  0.2786  0.4215 -0.3812
  734MOL0     C 1179   7.846   7.194   7.877  0.1803 -1.1876  0.4841
  734MOL0     C 1180   7.911   7.315   7.922 -0.1044  0.7540  0.7517
  734MOL0     C 1181   8.047   7.318   7.965 -1.1030  0.7994  0.6876
  734MOL0     C 1182   8.100   7.443   8.030  0.1722  0.3411  0.7722
  734MOL0     C 1183   8.126   7.200   7.960  0.8025  0.2258 -0.1166
  734MOL0     C 1184   8.268   7.182   8.013  0.1261 -0.7562  0.6855
  734MOL0     O 1185   8.336   7.290   8.066 -0.2969  0.5151  0.3563
  734MOL0     C 1186   8.468   7.286   8.112  0.3967 -0.6863  0.3141
  734MOL0     C 1187   8.569   7.193   8.075 -0.4589  0.2237 -0.0185
  734MOL0     C 1188   8.702   7.209   8.129 -0.4740  0.1749 -0.1926
  734MOL0     C 1189   8.733   7.321   8.203 -0.7383 -0.0180  0.6014
  734MOL0     O 1190   8.864   7.349   8.240  0.0855  0.0566 -0.5992
  734MOL0     C 1191   8.910   7.248   8.328 -0.1019  0.2799  0.0278
  734MOL0     C 1192   8.996   7.321   8.433  0.1738 -0.9345  0.1782
  734MOL0     C 1193   9.143   7.342   8.385 -0.3251 -0.7331  0.3856
  734MOL0     C 1194   9.240   7.362   8.505 -0.5245  0.4893 -0.3159
  734MOL0     C 1195   9.366   7.431   8.457  0.8329 -0.8859 -0.0779
  734MOL0     C 1196   9.472   7.445   8.568 -0.2472 -0.3652 -0.1973
  734MOL0     C 1197   9.583   7.552   8.538  0.0714 -0.1069  0.0209
  734MOL0     C 1198   9.541   7.698   8.547  0.6276  0.9475  0.4601
  734MOL0    Cl 1199   9.440   7.748   8.409  0.3083 -0.2865  0.3448
  734MOL0     C 1200   8.636   7.421   8.219 -0.2706 -0.1926 -0.2488
  734MOL0     C 1201   8.511   7.396   8.184  0.3986 -0.0642 -0.3691
  734MOL0     O 1202   8.312   7.074   7.991  0.4333  0.3031 -0.0647
  734MOL0     C 1203   8.059   7.087   7.919 -0.0716  0.4523 -0.4853
  734MOL0     C 1204   7.930   7.084   7.863  0.0102  0.1627 -0.9439
  734MOL0     N 1205   7.302   7.140   8.221 -0.2818  0.0183  0.0796
  734MOL0     N 1206   7.211   7.194   8.290 -0.0943  0.4379  0.3775
  734MOL0     C 1207   6.111   6.898   8.560  1.4744 -0.1269 -0.4481
  734MOL0     C 1208   5.969   6.891   8.553  0.0955 -0.5385 -0.6609
  734MOL0     C 1209   5.548   6.818   8.471  0.5848 -0.0402  0.2052
  734MOL0     C 1210   5.465   6.933   8.483  0.4500  1.2847 -0.2837
  734MOL0     C 1211   5.332   6.917   8.528 -0.4351 -0.1898 -0.5550
  734MOL0     C 1212   5.277   6.791   8.569  0.1716 -0.7462 -0.6575
  734MOL0     O 1213   5.160   6.780   8.640 -0.0545 -0.1528  0.8295
  734MOL0     C 1214   5.048   6.872   8.614 -1.1388 -0.6334 -0.1661
  734MOL0     C 1215   4.956   6.850   8.730 -0.3115  0.2622 -0.2016
  734MOL0     C 1216   5.011   6.891   8.865 -0.8355 -0.8910  0.7101
  734MOL0     C 1217   4.906   6.932   8.967 -0.0836 -0.5566  0.0014
  734MOL0     C 1218   4.945   7.039   9.074  0.6948  0.2128  0.5963
  734MOL0     C 1219   4.973   7.116   9.161  0.7618  0.0521  0.7222
  734MOL0     C 1220   5.351   6.682   8.550 -0.4389  0.0982  0.6145
  734MOL0     C 1221   5.474   6.688   8.485  0.4323 -0.2505 -0.2865
  734MOL0     C 1222   5.540   6.563   8.442 -0.3803  0.9957 -0.4321
  734MOL0     H 1223   5.970   6.598   8.373  3.1186 -1.7487  1.8595
  734MOL0     H 1224   6.199   6.614   8.397 -2.8760 -1.2442 -0.5556
  734MOL0     H 1225   6.393   6.714   8.362  1.4393  0.2475 -0.3258
  734MOL0     H 1226   6.406   6.641   8.517 -0.8052  0.1349 -0.9771
  734MOL0     H 1227   6.623   6.789   8.554 -0.4096 -1.5829  0.5403
  734MOL0     H 1228   6.647   6.709   8.407  1.0835  0.8372 -1.2513
  734MOL0     H 1229   6.540   6.893   8.278 -0.3736  0.9027  0.7282
  734MOL0     H 1230   6.537   6.989   8.427 -0.5282  2.2412 -2.2129
  734MOL0     H 1231   6.777   6.968   8.463  2.4688 -1.7945 -0.9857
  734MOL0     H 1232   6.794   6.872   8.319  1.1247  0.8056  0.1382
  734MOL0     H 1233   6.677   7.158   8.340  0.8708  0.4595 -0.2285
  734MOL0     H 1234   6.702   7.078   8.191  0.5343  0.4317  0.0983
  734MOL0     H 1235   6.903   7.173   8.394 -0.0214  0.4969 -0.6760
  734MOL0     H 1236   6.960   7.073   8.259  1.6465  0.5414  2.8028
  734MOL0     H 1237   6.812   7.342   8.209  0.3008  0.3188 -3.5515
  734MOL0     H 1238   6.896   7.244   8.087 -0.0843  1.2955 -1.0849
  734MOL0     H 1239   7.027   7.443   8.169  0.1158  0.0157  0.8200
  734MOL0     H 1240   7.009   7.382   8.335 -2.0848 -1.8632  0.6655
  734MOL0     H 1241   7.174   7.330   7.986 -1.7581 -1.2422 -1.1654
  734MOL0     H 1242   7.445   7.268   7.951  0.8188 -0.8269  0.4996
  734MOL0     H 1243   7.369   7.122   7.896  0.1004 -0.0131  0.0378
  734MOL0     H 1244   7.608   7.112   8.090  1.2693 -1.8484  0.3663
  734MOL0     H 1245   7.473   6.996   8.081  2.3874 -0.1618  0.8824
  734MOL0     H 1246   7.680   6.961   7.953  0.3291  0.5484  0.7358
  734MOL0     H 1247   7.521   6.943   7.856  1.4931  0.3417 -1.3451
  734MOL0     H 1248   7.693   7.055   7.721 -0.9877  2.6619 -2.3990
  734MOL0     H 1249   7.554   7.148   7.745  1.4967 -0.7883 -3.0499
  734MOL0     H 1250   7.859   7.407   7.947 -0.9517  0.0533  1.6614
  734MOL0     H 1251   8.013   7.499   8.063  1.8672  1.2685  4.1578
  734MOL0     H 1252   8.157   7.508   7.963 -1.1327  0.7667  0.0573
  734MOL0     H 1253   8.157   7.423   8.122 -1.1546 -1.7936  1.1946
  734MOL0     H 1254   8.548   7.103   8.018 -1.1206  1.7119 -2.2480
  734MOL0     H 1255   8.767   7.129   8.095 -1.6272 -0.1164 -1.8709
  734MOL0     H 1256   8.827   7.182   8.354 -0.5522 -0.3501 -2.7104
  734MOL0     H 1257   8.972   7.179   8.268  0.4385 -1.5827  2.5676
  734MOL0     H 1258   8.953   7.418   8.460  0.2772 -0.9627  0.4549
  734MOL0     H 1259   9.002   7.256   8.521 -2.7793 -0.6250  0.7357
  734MOL0     H 1260   9.153   7.422   8.311  1.9989 -0.8718  0.4703
  734MOL0     H 1261   9.180   7.250   8.339  1.7383 -0.1603  0.7760
  734MOL0     H 1262   9.270   7.268   8.552 -4.5082  0.4440  2.6749
  734MOL0     H 1263   9.196   7.418   8.588  0.0829 -0.9784  1.0536
  734MOL0     H 1264   9.405   7.393   8.362  0.6031  1.9436 -1.4151
  734MOL0     H 1265   9.333   7.530   8.424 -1.4137 -1.8335 -0.8965
  734MOL0     H 1266   9.519   7.349   8.589 -0.3355 -0.1708  0.9517
  734MOL0     H 1267   9.425   7.461   8.665  4.2446  1.4235  1.9727
  734MOL0     H 1268   9.625   7.536   8.438  1.7870 -1.5045  0.9043
  734MOL0     H 1269   9.665   7.524   8.605  1.8233 -0.4719 -2.1684
  734MOL0     H 1270   9.635   7.754   8.539  2.5354 -2.0666  0.5000
  734MOL0     H 1271   9.502   7.715   8.648 -0.0588  1.6462  0.0862
  734MOL0     H 1272   8.657   7.508   8.279 -4.0271 -0.2199  1.3753
  734MOL0     H 1273   8.432   7.465   8.212  0.6433  0.9178 -2.0143
  734MOL0     H 1274   8.107   6.989   7.918 -0.7277  0.1121  0.4363
  734MOL0     H 1275   7.892   6.991   7.822  0.4795  0.6090 -2.4406
  734MOL0     H 1276   6.152   6.987   8.608 -1.6471  0.7342  0.8837
  734MOL0     H 1277   5.908   6.969   8.598 -0.6019 -0.7066 -1.3082
  734MOL0     H 1278   5.496   7.034   8.457  1.7591  0.5204 -1.8878
  734MOL0     H 1279   5.273   7.008   8.529  0.0208  0.1551  2.1642
  734MOL0     H 1280   5.071   6.979   8.609 -0.4255 -0.7870 -0.1778
  734MOL0     H 1281   5.011   6.847   8.514  1.6161  3.6159 -2.5469
  734MOL0     H 1282   4.939   6.743   8.741 -1.1042  0.4547  0.5168
  734MOL0     H 1283   4.861   6.903   8.715 -0.1433  0.6590  0.0916
  734MOL0     H 1284   5.084   6.820   8.903 -1.4455 -1.1539  1.4108
  734MOL0     H 1285   5.069   6.982   8.843  0.9102 -2.0345  0.3948
  734MOL0     H 1286   4.875   6.844   9.024  0.5857  0.7036  2.4684
  734MOL0     H 1287   4.817   6.965   8.913  0.0870 -0.9651 -0.5361
  734MOL0     H 1288   5.014   7.194   9.222  1.2122  2.0950 -1.9902
  734MOL0     H 1289   5.328   6.582   8.588 -0.7784 -0.3224 -0.6603
  734MOL0     H 1290   5.481   6.519   8.361 -2.6062 -2.4034  2.6338
  734MOL0     H 1291   5.642   6.584   8.411 -0.7106  1.8695 -0.9327
  734MOL0     H 1292   5.544   6.501   8.533  3.0664  1.8301  0.1179
  735MOL0     O 1293   9.740   6.000   9.046  0.1701 -0.4500  0.0285
  735MOL0     C 1294   9.696   6.038   9.155  0.2360 -0.7947 -0.2637
  735MOL0     O 1295   9.566   6.053   9.186  0.2232 -0.3674  0.1561
  735MOL0     C 1296   9.469   6.046   9.086 -0.4411  0.0558 -0.3065
  735MOL0     C 1297   9.400   6.157   9.060 -0.7637  0.5746 -0.3312
  735MOL0     C 1298   9.309   6.172   8.951  0.5993  0.3755 -0.0265
  735MOL0     C 1299   9.285   6.063   8.873  0.1854 -0.9592  0.2859
  735MOL0     O 1300   9.202   6.076   8.765 -0.1505 -0.0033 -0.5647
  735MOL0     C 1301   9.215   6.193   8.687 -0.4361  0.4401 -0.2548
  735MOL0     C 1302   9.139   6.175   8.549  0.8335  0.0891  0.5686
  735MOL0     C 1303   8.982   6.178   8.552  0.1110 -0.5783  0.8483
  735MOL0     C 1304   8.918   6.287   8.637  0.3683 -0.1457 -0.0367
  735MOL0     C 1305   8.782   6.323   8.567  0.1639 -0.0073  0.4864
  735MOL0     C 1306   8.720   6.452   8.615 -1.4124 -0.0930  0.0693
  735MOL0     C 1307   8.578   6.445   8.568 -0.1755  0.1679 -0.4005
  735MOL0     C 1308   8.521   6.568   8.640 -0.4945 -1.0204 -0.4242
  735MOL0     N 1309   8.399   6.621   8.579  0.3322 -0.0901 -0.3920
  735MOL0     C 1310   8.304   6.540   8.529  1.4852 -0.0806 -0.3195
  735MOL0     C 1311   8.197   6.624   8.504 -0.1516  0.4539  0.0055
  735MOL0     C 1312   8.070   6.576   8.438  0.3640 -0.2661 -0.2984
  735MOL0     C 1313   8.058   6.625   8.294  1.1593 -0.3093  0.1260
  735MOL0     C 1314   8.147   6.537   8.200  0.0250 -0.1434  0.2597
  735MOL0     C 1315   8.166   6.598   8.056  0.0186  0.8503  0.4608
  735MOL0     O 1316   8.235   6.722   8.046  0.1597 -0.4596 -0.5589
  735MOL0     C 1317   8.350   6.721   8.110 -0.4239 -1.0759  1.0043
  735MOL0     C 1318   8.467   6.660   8.059  0.3813 -0.2215  0.0077
  735MOL0     C 1319   8.588   6.668   8.125  0.3052  0.6446  0.3601
  735MOL0     C 1320   8.692   6.572   8.072  0.3745  0.5780  0.3334
  735MOL0     C 1321   8.607   6.747   8.244  0.2819  0.2933  0.5795
  735MOL0     C 1322   8.733   6.767   8.323 -0.5377 -0.4078  1.1874
  735MOL0     O 1323   8.750   6.862   8.411 -0.2232  0.0487 -0.5986
  735MOL0     C 1324   8.864   6.885   8.481 -0.8633 -0.3855  0.4828
  735MOL0     C 1325   8.848   6.937   8.609  0.3352 -0.1311 -0.1973
  735MOL0     C 1326   8.956   6.989   8.679 -0.4047 -0.3612  0.6902
  735MOL0     C 1327   9.086   6.997   8.627  0.5039  0.0954  0.1350
  735MOL0     O 1328   9.196   7.058   8.670  0.8150 -0.0647  0.2858
  735MOL0     C 1329   9.213   7.082   8.805  0.0237  0.4377  0.3185
  735MOL0     C 1330   9.353   7.137   8.832  0.0196 -0.4426  0.3385
  735MOL0     C 1331   9.475   7.061   8.756 -0.4278 -0.0748 -0.6841
  735MOL0     C 1332   9.598   7.134   8.810  0.6583 -0.4889 -0.3960
  735MOL0     C 1333   9.709   7.138   8.704  1.1085  1.2205  0.0976
  735MOL0     C 1334   9.763   6.998   8.671 -0.5380  1.1830  0.2954
  735MOL0     C 1335   9.800   6.911   8.790  0.1831  0.0167 -0.3189
  735MOL0     C 1336   9.898   6.991   8.885 -0.4314  0.2961  0.9991
  735MOL0    Cl 1337   9.986   6.875   8.996  0.0858 -0.0779 -0.0856
  735MOL0     C 1338   9.104   6.932   8.501  0.0973  0.4733 -0.0398
  735MOL0     C 1339   8.990   6.876   8.433 -0.5185 -0.3078 -0.9996
  735MOL0     O 1340   8.812   6.687   8.297  0.1723 -0.4558 -0.4990
  735MOL0     C 1341   8.491   6.810   8.294 -0.3396 -1.0055  0.0257
  735MOL0     C 1342   8.371   6.809   8.217 -0.0296  0.8851 -0.3002
  735MOL0     N 1343   8.243   6.755   8.538 -0.6587  0.0563  0.2623
  735MOL0     N 1344   8.354   6.751   8.593  0.1643 -0.0400  0.0947
  735MOL0     C 1345   9.353   5.938   8.904 -0.4303  0.7900 -0.3122
  735MOL0     C 1346   9.448   5.935   9.006  0.2532  0.8180  1.1849
  735MOL0     C 1347   9.787   6.064   9.264  0.8748 -0.0070 -0.3497
  735MOL0     C 1348   9.903   6.134   9.255  0.6822 -0.7518  0.6410
  735MOL0     C 1349   9.989   6.156   9.355  0.0405  0.1971  0.2673
  735MOL0     C 1350   9.966   6.096   9.475 -0.6637  0.5010 -0.0013
  735MOL0     O 1351  10.061   6.106   9.575 -0.0007  0.2297 -0.6466
  735MOL0     C 1352  10.112   6.233   9.616 -0.1436  0.1041  0.1242
  735MOL0     C 1353  10.141   6.232   9.769 -0.6764 -0.3954  0.1765
  735MOL0     C 1354  10.210   6.352   9.830 -0.4918 -1.0166  0.1099
  735MOL0     C 1355  10.244   6.333   9.975 -0.5123 -0.1008  0.0230
  735MOL0     C 1356  10.315   6.209  10.014 -0.2072  0.7998 -0.8131
  735MOL0     C 1357  10.361   6.112  10.058  0.8643  0.0283 -0.6270
  735MOL0     C 1358   9.866   6.005   9.489  0.3112 -0.0281  0.2487
  735MOL0     C 1359   9.772   5.986   9.389 -0.3530 -0.7003  0.5438
  735MOL0     C 1360   9.667   5.877   9.408 -0.1963 -0.3554  0.5597
  735MOL0     H 1361   9.420   6.241   9.126 -1.6801 -0.1989  0.9871
  735MOL0     H 1362   9.259   6.267   8.937  2.0865  0.8754 -2.5290
  735MOL0     H 1363   9.322   6.205   8.669 -0.6705  0.7959 -1.4437
  735MOL0     H 1364   9.188   6.287   8.736 -2.0390  0.1890 -0.5818
  735MOL0     H 1365   9.168   6.259   8.485 -1.3031 -0.4462 -1.2211
  735MOL0     H 1366   9.177   6.080   8.510 -0.4901  0.2419 -1.2480
  735MOL0     H 1367   8.946   6.186   8.449 -0.4371  1.0791  1.1487
  735MOL0     H 1368   8.952   6.084   8.601  1.2668 -0.8450  1.0771
  735MOL0     H 1369   8.904   6.255   8.741 -2.9166 -0.3892 -0.4450
  735MOL0     H 1370   8.990   6.369   8.639  2.1647 -1.6566  0.2929
  735MOL0     H 1371   8.719   6.235   8.584 -1.5012  1.2061  0.8545
  735MOL0     H 1372   8.800   6.330   8.459 -1.1318 -1.8095  0.1089
  735MOL0     H 1373   8.737   6.457   8.723  2.9325 -0.9163 -0.3507
  735MOL0     H 1374   8.774   6.538   8.574 -3.1220  1.2636  0.5817
  735MOL0     H 1375   8.529   6.358   8.611 -0.4925  0.3520 -0.3885
  735MOL0     H 1376   8.566   6.440   8.459  1.3902  0.0972 -0.5922
  735MOL0     H 1377   8.502   6.542   8.744  0.9309 -1.1126 -0.1789
  735MOL0     H 1378   8.593   6.650   8.649 -0.6752 -1.0680  2.4007
  735MOL0     H 1379   8.299   6.433   8.513 -0.6553  0.0212 -0.6624
  735MOL0     H 1380   7.982   6.620   8.486  0.8992 -0.1521  0.5911
  735MOL0     H 1381   8.070   6.468   8.453  2.5788 -0.2958 -0.1033
  735MOL0     H 1382   7.956   6.619   8.256  1.4100 -1.5830 -0.3907
  735MOL0     H 1383   8.090   6.728   8.278 -1.2219  0.0461 -3.3740
  735MOL0     H 1384   8.246   6.534   8.248 -0.6170 -0.7379  1.6073
  735MOL0     H 1385   8.109   6.435   8.195  0.2903 -0.3928  2.3629
  735MOL0     H 1386   8.208   6.525   7.987 -1.1546 -0.1984  0.8220
  735MOL0     H 1387   8.063   6.614   8.023 -0.9988 -1.5849  2.1209
  735MOL0     H 1388   8.449   6.600   7.970  2.0430  0.2486 -0.6991
  735MOL0     H 1389   8.716   6.495   8.146  3.1946 -1.7268 -2.6827
  735MOL0     H 1390   8.785   6.623   8.046  0.7005  1.2997  2.6175
  735MOL0     H 1391   8.642   6.519   7.991 -2.5767 -1.0275  2.9538
  735MOL0     H 1392   8.751   6.932   8.657  0.5998 -0.2012  0.3270
  735MOL0     H 1393   8.934   7.043   8.771 -4.9772 -1.7143  0.6365
  735MOL0     H 1394   9.141   7.157   8.839  0.3609  0.4143  1.0951
  735MOL0     H 1395   9.194   6.992   8.863 -1.6147  0.9037  0.5710
  735MOL0     H 1396   9.353   7.241   8.798  0.2002 -0.7006 -0.4672
  735MOL0     H 1397   9.375   7.148   8.939  1.1717 -0.2518  0.0889
  735MOL0     H 1398   9.459   7.073   8.648  0.9257 -1.6163 -1.0874
  735MOL0     H 1399   9.466   6.953   8.772 -4.0858 -0.4443 -3.5739
  735MOL0     H 1400   9.635   7.091   8.903  0.1895  0.6512  0.3481
  735MOL0     H 1401   9.574   7.238   8.836  2.0526 -0.3879  0.6059
  735MOL0     H 1402   9.681   7.188   8.610  3.3774  0.9414 -0.7999
  735MOL0     H 1403   9.800   7.189   8.737  0.4575  2.5218 -0.0709
  735MOL0     H 1404   9.855   7.008   8.612 -0.0483 -1.0006  0.5962
  735MOL0     H 1405   9.687   6.942   8.615  1.8262 -0.3465 -1.6098
  735MOL0     H 1406   9.849   6.824   8.745  2.7850  1.2880 -0.1080
  735MOL0     H 1407   9.716   6.878   8.852  1.7447 -0.8360  1.4682
  735MOL0     H 1408   9.850   7.073   8.939 -3.8313 -0.2940 -0.8163
  735MOL0     H 1409   9.973   7.041   8.823 -2.4620  0.2267 -1.7124
  735MOL0     H 1410   9.195   6.933   8.441  0.0793  0.4076 -0.0678
  735MOL0     H 1411   9.006   6.848   8.329  0.6501 -0.4222 -0.7975
  735MOL0     H 1412   8.501   6.865   8.387 -1.2494 -1.0031  0.1356
  735MOL0     H 1413   8.289   6.870   8.255 -2.7257 -1.4587 -1.9046
  735MOL0     H 1414   9.329   5.849   8.847 -2.0704  0.3616  0.9984
  735MOL0     H 1415   9.495   5.844   9.041 -4.1262 -2.3884 -0.4525
  735MOL0     H 1416   9.924   6.185   9.161 -2.9538 -1.2178 -0.5747
  735MOL0     H 1417  10.070   6.226   9.337 -0.7433  1.3718  1.1864
  735MOL0     H 1418  10.207   6.250   9.565 -0.8383  0.9058 -0.9361
  735MOL0     H 1419  10.044   6.314   9.589 -0.7489 -0.0129  1.2516
  735MOL0     H 1420  10.214   6.152   9.782 -1.0918 -1.2745 -2.4137
  735MOL0     H 1421  10.050   6.188   9.810  0.4751 -1.1044  2.1523
  735MOL0     H 1422  10.311   6.366   9.790 -0.2721  1.4603  1.3159
  735MOL0     H 1423  10.142   6.438   9.821 -0.5943 -0.9980  0.9912
  735MOL0     H 1424  10.156   6.333  10.040 -0.2696 -1.8826  0.4070
  735MOL0     H 1425  10.303   6.421  10.001 -2.6941  1.3137  0.4802
  735MOL0     H 1426  10.395   6.025  10.110  1.3188  0.4438 -0.2267
  735MOL0     H 1427   9.871   5.951   9.583  2.3834 -0.8513 -0.2651
  735MOL0     H 1428   9.580   5.929   9.449  1.7160  1.1834  2.9687
  735MOL0     H 1429   9.645   5.825   9.315  0.7115 -1.2040  0.7995
  735MOL0     H 1430   9.705   5.805   9.482 -0.7285 -1.8239 -0.5501
  736MOL0     O 1431   9.727  10.028   5.343  0.2464 -0.1735  0.8948
  736MOL0     C 1432   9.774   9.954   5.428 -0.2354 -0.1183  0.3356
  736MOL0     O 1433   9.877   9.979   5.513 -0.3398 -0.2327 -0.0116
  736MOL0     C 1434   9.992  10.046   5.464 -0.1966  0.2863  0.2633
  736MOL0     C 1435  10.087  10.072   5.569  0.2898  0.0338 -0.1180
  736MOL0     C 1436  10.201  10.143   5.544  0.3218 -0.6636  0.5089
  736MOL0     C 1437  10.229  10.194   5.415  0.9352 -0.1490  0.3840
  736MOL0     O 1438  10.327  10.283   5.410 -0.4799  0.5563 -0.1490
  736MOL0     C 1439  10.354  10.339   5.282  0.4949 -0.3680  0.9943
  736MOL0     C 1440  10.487  10.417   5.284  0.0217 -0.0930  0.1517
  736MOL0     C 1441  10.498  10.519   5.171  0.0368 -0.2965  0.0521
  736MOL0     C 1442  10.634  10.598   5.176  0.5325 -0.2685 -0.5565
  736MOL0     C 1443  10.626  10.722   5.082 -0.5868  0.0136 -0.2246
  736MOL0     C 1444  10.618  10.670   4.934  0.0025 -0.4682  0.2596
  736MOL0     C 1445  10.652  10.772   4.829  0.6966  0.3363 -0.0304
  736MOL0     C 1446  10.645  10.703   4.692 -0.1715 -0.1098 -0.1456
  736MOL0     N 1447  10.691  10.799   4.590  0.2872  0.2032 -0.8278
  736MOL0     C 1448  10.790  10.776   4.495  0.3021 -0.1400  1.1407
  736MOL0     C 1449  10.793  10.879   4.404  0.8285  0.4464 -0.3656
  736MOL0     C 1450  10.873  10.900   4.277  0.0022  0.3885  0.1827
  736MOL0     C 1451  11.024  10.866   4.268 -0.1137 -1.0127 -0.1744
  736MOL0     C 1452  11.046  10.721   4.256  0.2333  0.3798  0.0422
  736MOL0     C 1453  11.160  10.677   4.336 -0.5567  0.5542 -0.5323
  736MOL0     O 1454  11.120  10.655   4.470 -0.3632 -0.5760  0.0991
  736MOL0     C 1455  11.198  10.717   4.571  0.6330  0.1096  0.1086
  736MOL0     C 1456  11.139  10.725   4.697 -0.6113 -0.0890  0.5226
  736MOL0     C 1457  11.207  10.766   4.822 -0.3265  0.5475  0.6806
  736MOL0     C 1458  11.126  10.760   4.946  0.9728  0.7140 -0.6068
  736MOL0     C 1459  11.348  10.782   4.808  0.0068  0.1068 -0.2775
  736MOL0     C 1460  11.433  10.833   4.921 -0.9634  0.0403 -0.2723
  736MOL0     O 1461  11.373  10.833   5.045 -0.7886  0.5387 -0.0872
  736MOL0     C 1462  11.450  10.874   5.154  0.7006 -0.5222  0.3511
  736MOL0     C 1463  11.448  11.013   5.186 -0.8474  0.4944  0.1096
  736MOL0     C 1464  11.516  11.058   5.294 -0.0511 -0.3048 -0.5405
  736MOL0     C 1465  11.598  10.972   5.373  1.3446 -0.2478 -0.3461
  736MOL0     O 1466  11.671  11.023   5.482  0.0435 -0.0057 -0.0364
  736MOL0     C 1467  11.698  11.167   5.495 -0.4847 -0.0242  0.5048
  736MOL0     C 1468  11.796  11.213   5.381  0.1759  0.5261 -0.7052
  736MOL0     C 1469  11.837  11.359   5.412  0.3737  0.6410  0.3262
  736MOL0     C 1470  11.741  11.449   5.328 -0.2063  0.9357 -0.2062
  736MOL0     C 1471  11.755  11.596   5.352 -0.1328  0.7114 -0.0752
  736MOL0     C 1472  11.900  11.651   5.327 -0.2013  0.9712 -0.2568
  736MOL0     C 1473  11.897  11.797   5.382 -0.3195 -0.3721 -0.1473
  736MOL0     C 1474  12.049  11.836   5.386  0.2279 -0.3289 -0.7092
  736MOL0    Cl 1475  12.068  12.010   5.417  0.0931 -0.0424  0.1064
  736MOL0     C 1476  11.615  10.836   5.327 -0.2278  0.1044 -0.4172
  736MOL0     C 1477  11.534  10.796   5.220  0.5059  0.1587  0.7544
  736MOL0     O 1478  11.551  10.858   4.901 -0.0492  0.1520  0.2842
  736MOL0     C 1479  11.413  10.752   4.686  0.6034 -0.0055 -0.1747
  736MOL0     C 1480  11.334  10.728   4.574 -0.4225 -0.8345 -0.0868
  736MOL0     N 1481  10.683  10.960   4.441  0.4351  0.5393  0.2352
  736MOL0     N 1482  10.625  10.912   4.547 -0.5295  0.1920 -0.0891
  736MOL0     C 1483  10.143  10.158   5.314  0.4381  0.3747 -0.2233
  736MOL0     C 1484  10.024  10.081   5.332 -0.3463  0.3410  0.4252
  736MOL0     C 1485   9.693   9.834   5.472 -0.6029  0.1992  1.1637
  736MOL0     C 1486   9.744   9.751   5.567  0.9601  0.2130  0.1415
  736MOL0     C 1487   9.679   9.633   5.612 -0.2378 -0.8807 -0.0593
  736MOL0     C 1488   9.551   9.595   5.578  0.2725  1.0153  0.6930
  736MOL0     O 1489   9.497   9.485   5.641  0.1855  0.5629 -0.0764
  736MOL0     C 1490   9.357   9.456   5.641 -0.1893 -0.0500  0.8070
  736MOL0     C 1491   9.268   9.570   5.675  0.1605  0.1814  0.6767
  736MOL0     C 1492   9.114   9.545   5.687 -0.0716  0.2685  0.0168
  736MOL0     C 1493   9.032   9.574   5.557 -0.4684  0.5274 -0.8106
  736MOL0     C 1494   9.017   9.719   5.545 -0.6056  0.1930 -0.2918
  736MOL0     C 1495   8.986   9.833   5.534 -0.5621 -0.1865  0.2563
  736MOL0     C 1496   9.501   9.676   5.474  0.1136  0.6490  0.8173
  736MOL0     C 1497   9.570   9.794   5.420  0.3266  0.2407  0.1074
  736MOL0     C 1498   9.480   9.879   5.333  0.1048 -0.2149  0.0991
  736MOL0     H 1499  10.074  10.053   5.676 -0.4359  2.3306  0.2440
  736MOL0     H 1500  10.272  10.166   5.623  0.5535  0.1933  0.0669
  736MOL0     H 1501  10.277  10.413   5.260  0.3481  0.1977  3.2298
  736MOL0     H 1502  10.365  10.262   5.205  1.3969  0.0218  0.7075
  736MOL0     H 1503  10.484  10.483   5.371  0.0265  1.6455 -1.1156
  736MOL0     H 1504  10.571  10.347   5.288  0.3477  0.3444  2.9541
  736MOL0     H 1505  10.498  10.468   5.074  1.0929  0.1079 -0.1734
  736MOL0     H 1506  10.413  10.588   5.174  0.3913  0.1160  1.7340
  736MOL0     H 1507  10.658  10.621   5.280  4.5230  0.7574 -1.5514
  736MOL0     H 1508  10.709  10.535   5.127 -1.2768 -2.1539 -1.0735
  736MOL0     H 1509  10.720  10.774   5.100  0.2582 -1.4606 -0.2446
  736MOL0     H 1510  10.536  10.782   5.100 -1.5643 -1.3702 -0.3039
  736MOL0     H 1511  10.686  10.588   4.910 -0.7718 -0.5196 -2.0178
  736MOL0     H 1512  10.517  10.634   4.910 -0.1671  0.2125 -0.0669
  736MOL0     H 1513  10.748  10.815   4.860  0.6983  0.5533 -0.3315
  736MOL0     H 1514  10.576  10.850   4.833 -3.9617 -3.5964 -1.6010
  736MOL0     H 1515  10.708  10.613   4.696  2.0518  1.3766  0.3808
  736MOL0     H 1516  10.543  10.670   4.671 -0.3582  1.6127 -2.3220
  736MOL0     H 1517  10.850  10.686   4.497 -0.7675 -0.8644  1.2501
  736MOL0     H 1518  10.855  11.003   4.245  1.7871  1.9117  3.5380
  736MOL0     H 1519  10.831  10.830   4.205  0.3414 -1.9699  2.1685
  736MOL0     H 1520  11.070  10.910   4.179 -2.3188  0.4576 -0.6719
  736MOL0     H 1521  11.081  10.904   4.352 -0.0808  0.5376 -0.8744
  736MOL0     H 1522  10.953  10.669   4.283  1.3891 -0.3798  2.9800
  736MOL0     H 1523  11.069  10.704   4.151  1.5862  1.4125  0.1367
  736MOL0     H 1524  11.182  10.578   4.293 -0.4989 -0.0621  0.8833
  736MOL0     H 1525  11.251  10.734   4.311 -0.4992 -0.5454 -3.2460
  736MOL0     H 1526  11.032  10.717   4.716 -0.6257 -0.2869  0.3482
  736MOL0     H 1527  11.164  10.685   5.016 -0.8313  2.9318  3.0891
  736MOL0     H 1528  11.022  10.733   4.925 -0.0103  2.5678  1.5077
  736MOL0     H 1529  11.107  10.851   5.004 -0.9148  0.5912 -0.9631
  736MOL0     H 1530  11.378  11.077   5.132 -2.1461 -0.0693  1.0794
  736MOL0     H 1531  11.503  11.164   5.316  3.1329  0.7416 -2.9236
  736MOL0     H 1532  11.610  11.232   5.488 -0.5871 -0.3040 -1.4561
  736MOL0     H 1533  11.751  11.176   5.590  0.3303  0.0042  0.0579
  736MOL0     H 1534  11.887  11.153   5.378  0.5964  1.1330 -0.2867
  736MOL0     H 1535  11.749  11.203   5.282  0.7699  1.7917 -1.1355
  736MOL0     H 1536  11.939  11.375   5.374  0.0680  3.0692  0.3620
  736MOL0     H 1537  11.839  11.379   5.520  0.6479 -0.7175  0.5966
  736MOL0     H 1538  11.638  11.424   5.355  0.1348 -1.5720 -1.0430
  736MOL0     H 1539  11.752  11.419   5.223  1.1531 -2.3607  0.7410
  736MOL0     H 1540  11.689  11.643   5.279 -0.8758  1.9474  1.3405
  736MOL0     H 1541  11.715  11.619   5.451 -4.2302 -0.8451 -1.1564
  736MOL0     H 1542  11.921  11.647   5.219 -1.0349 -3.1543 -0.4195
  736MOL0     H 1543  11.978  11.589   5.372 -1.1223 -0.0344 -0.0113
  736MOL0     H 1544  11.863  11.805   5.486 -0.8185 -0.4979 -0.2992
  736MOL0     H 1545  11.833  11.860   5.320 -0.5192  2.1510  2.4077
  736MOL0     H 1546  12.080  11.821   5.282 -1.3207  3.8600 -1.9515
  736MOL0     H 1547  12.105  11.783   5.464 -0.5925 -0.6097 -0.3019
  736MOL0     H 1548  11.698  10.775   5.361 -1.1741 -0.8191  0.2541
  736MOL0     H 1549  11.549  10.697   5.180 -0.6068 -0.5843  2.0859
  736MOL0     H 1550  11.522  10.749   4.682  0.5880  0.5820 -1.4972
  736MOL0     H 1551  11.392  10.708   4.484  0.0072 -1.9904  0.4253
  736MOL0     H 1552  10.168  10.174   5.210 -1.9425 -1.0887 -1.0944
  736MOL0     H 1553   9.960  10.061   5.247  0.7181  1.1977 -0.6140
  736MOL0     H 1554   9.835   9.781   5.618  2.4651 -1.2059 -1.5872
  736MOL0     H 1555   9.732   9.576   5.687 -1.1190 -0.1096  1.1736
  736MOL0     H 1556   9.326   9.399   5.553 -0.2184  0.4399  0.4982
  736MOL0     H 1557   9.348   9.385   5.724 -2.4439 -0.9854 -0.1581
  736MOL0     H 1558   9.286   9.651   5.603 -1.3621 -1.0641 -1.2422
  736MOL0     H 1559   9.294   9.603   5.776 -0.1636 -2.6001  1.7482
  736MOL0     H 1560   9.100   9.441   5.717  1.4797  0.4574  1.5669
  736MOL0     H 1561   9.068   9.602   5.768 -2.0044  0.0250 -0.8612
  736MOL0     H 1562   8.939   9.517   5.570  0.0575 -0.2988 -0.5541
  736MOL0     H 1563   9.089   9.537   5.471  1.4588  0.9468  0.2313
  736MOL0     H 1564   8.946   9.932   5.540  0.2431  0.1381  0.3136
  736MOL0     H 1565   9.403   9.643   5.440  0.9075 -0.3493 -0.5779
  736MOL0     H 1566   9.450   9.967   5.392 -0.0780 -0.7040  0.7489
  736MOL0     H 1567   9.529   9.902   5.238 -1.4344  1.5366 -0.3231
  736MOL0     H 1568   9.384   9.834   5.306  0.3812 -0.6344 -0.1916
  737MOL0     O 1569   7.113   8.344   1.405  0.2393  0.3563  0.3398
  737MOL0     C 1570   7.045   8.423   1.470 -0.0529 -0.2102 -0.5303
  737MOL0     O 1571   7.097   8.540   1.525  0.6539  0.2417  0.5175
  737MOL0     C 1572   7.219   8.579   1.482 -1.0358  0.1252 -0.3562
  737MOL0     C 1573   7.234   8.718   1.465  0.3410  0.4493 -0.0965
  737MOL0     C 1574   7.357   8.784   1.459 -0.1007  0.5062 -0.8003
  737MOL0     C 1575   7.477   8.706   1.452  1.2344 -0.4539  0.0264
  737MOL0     O 1576   7.597   8.773   1.441 -0.4803 -0.2442 -0.3600
  737MOL0     C 1577   7.721   8.702   1.425  0.1867  0.0089 -0.1985
  737MOL0     C 1578   7.837   8.798   1.460  0.3182  0.0804  1.1454
  737MOL0     C 1579   7.965   8.713   1.487 -0.2185 -0.3581 -0.1632
  737MOL0     C 1580   8.071   8.783   1.565  0.9180  0.3326  0.3194
  737MOL0     C 1581   8.192   8.698   1.603 -0.1509  0.3167 -0.0023
  737MOL0     C 1582   8.281   8.679   1.481  0.5926  0.0832  0.1943
  737MOL0     C 1583   8.412   8.620   1.538 -0.9403 -0.3690 -0.3934
  737MOL0     C 1584   8.512   8.600   1.426 -0.0265 -0.0668  0.1118
  737MOL0     N 1585   8.654   8.593   1.478  0.0043  0.7387  0.0398
  737MOL0     C 1586   8.714   8.505   1.570  0.2697 -0.1165 -0.7608
  737MOL0     C 1587   8.848   8.517   1.564 -0.2509  0.0152  0.1614
  737MOL0     C 1588   8.942   8.430   1.639  1.0003  0.4464 -0.2934
  737MOL0     C 1589   8.986   8.502   1.769  0.0772 -0.4178 -0.3719
  737MOL0     C 1590   9.072   8.628   1.750  0.2773 -0.0230 -0.2953
  737MOL0     C 1591   9.123   8.685   1.881  0.0364 -1.7428  0.9347
  737MOL0     O 1592   9.242   8.628   1.930 -0.3952  0.2665  0.4127
  737MOL0     C 1593   9.348   8.712   1.953 -0.1760 -0.7332  0.5280
  737MOL0     C 1594   9.348   8.797   2.060  0.5965  0.5475  0.0894
  737MOL0     C 1595   9.444   8.884   2.096  0.2115  0.4302  0.8586
  737MOL0     C 1596   9.414   8.989   2.195 -0.3476  0.8525  0.6894
  737MOL0     C 1597   9.566   8.877   2.020  0.0863 -0.3146  0.8841
  737MOL0     C 1598   9.683   8.965   2.050  0.3420  0.1639 -0.1085
  737MOL0     O 1599   9.760   9.021   1.949 -0.2332  0.2597 -0.3937
  737MOL0     C 1600   9.888   9.060   1.986 -0.2801  0.5452 -0.1714
  737MOL0     C 1601   9.997   8.985   1.945 -0.4085 -0.0801 -0.3789
  737MOL0     C 1602  10.123   9.044   1.951 -1.2612  0.4342  0.1984
  737MOL0     C 1603  10.143   9.174   2.002 -0.4215  0.3631 -0.7681
  737MOL0     O 1604  10.272   9.226   2.020  0.2499  0.2544  0.8826
  737MOL0     C 1605  10.362   9.203   1.915 -0.1591 -0.0810 -0.4468
  737MOL0     C 1606  10.485   9.140   1.960  0.4650  0.9986  0.4860
  737MOL0     C 1607  10.590   9.143   1.849 -0.8207 -0.9529  0.4145
  737MOL0     C 1608  10.657   9.286   1.842 -0.4792  0.2573 -0.4129
  737MOL0     C 1609  10.780   9.276   1.751  0.2899 -0.4404 -0.6040
  737MOL0     C 1610  10.857   9.406   1.738 -0.8755 -0.4573 -0.6629
  737MOL0     C 1611  10.770   9.518   1.681 -0.0285 -0.6093 -0.2958
  737MOL0     C 1612  10.841   9.629   1.600 -0.1901 -0.2920 -0.6084
  737MOL0    Cl 1613  10.957   9.703   1.710 -0.1947  0.1139 -0.5533
  737MOL0     C 1614  10.032   9.240   2.058  0.0364 -0.1885 -0.7688
  737MOL0     C 1615   9.911   9.181   2.063  0.6134 -0.8620  1.2011
  737MOL0     O 1616   9.714   8.963   2.168 -0.2615 -0.1376 -0.4787
  737MOL0     C 1617   9.574   8.793   1.906 -0.2093 -0.6421 -0.1349
  737MOL0     C 1618   9.465   8.712   1.871  0.3988 -0.4597  0.2909
  737MOL0     N 1619   8.871   8.634   1.483 -0.9386  0.1249 -0.5818
  737MOL0     N 1620   8.760   8.676   1.443  0.3999 -0.0590  0.5293
  737MOL0     C 1621   7.471   8.569   1.453  0.2958  0.3962  0.0908
  737MOL0     C 1622   7.344   8.504   1.478  0.4919 -0.1610 -0.2558
  737MOL0     C 1623   6.919   8.382   1.539 -0.1424  0.8762  0.2005
  737MOL0     C 1624   6.827   8.483   1.566  0.6437 -0.4406 -0.2357
  737MOL0     C 1625   6.700   8.452   1.592  0.3204 -0.3059  0.2737
  737MOL0     C 1626   6.658   8.319   1.620  0.3656  0.2634 -0.1029
  737MOL0     O 1627   6.530   8.279   1.638  0.1053 -0.5001 -0.3042
  737MOL0     C 1628   6.479   8.332   1.770 -1.2274 -0.2042  0.8655
  737MOL0     C 1629   6.445   8.222   1.863 -0.5332  0.5290  0.7619
  737MOL0     C 1630   6.406   8.250   2.009 -0.2844  0.3896  0.9804
  737MOL0     C 1631   6.306   8.146   2.064  0.7448 -0.0401  0.5071
  737MOL0     C 1632   6.177   8.153   2.003  0.0110 -0.6093 -0.1769
  737MOL0     C 1633   6.068   8.165   1.960 -0.2822  0.7853  0.1006
  737MOL0     C 1634   6.753   8.218   1.613  0.2598 -0.4905 -0.3351
  737MOL0     C 1635   6.881   8.248   1.565  0.0278  0.7687  0.5049
  737MOL0     C 1636   6.988   8.137   1.550 -0.5070 -0.4862 -0.2201
  737MOL0     H 1637   7.144   8.778   1.461  0.6657  0.9431 -4.4738
  737MOL0     H 1638   7.366   8.890   1.440 -0.7670  0.7994  0.3949
  737MOL0     H 1639   7.739   8.659   1.326  0.3635  1.1729 -0.6843
  737MOL0     H 1640   7.729   8.622   1.499 -1.5982 -0.6266 -0.6404
  737MOL0     H 1641   7.846   8.866   1.375  1.3178  0.6751  1.7060
  737MOL0     H 1642   7.800   8.851   1.548 -1.1813 -1.0326  1.2269
  737MOL0     H 1643   7.931   8.623   1.539  0.6335 -0.4966  0.1601
  737MOL0     H 1644   8.014   8.680   1.395 -0.8560  1.5745 -1.2688
  737MOL0     H 1645   8.100   8.874   1.512 -1.1364 -1.0368 -3.5715
  737MOL0     H 1646   8.029   8.800   1.665  0.7245 -2.0271  0.6997
  737MOL0     H 1647   8.163   8.603   1.648  0.9444  0.2735  0.6625
  737MOL0     H 1648   8.252   8.756   1.674 -1.2831  3.7040 -1.6075
  737MOL0     H 1649   8.232   8.617   1.405 -0.7245  2.9162 -1.4465
  737MOL0     H 1650   8.301   8.780   1.443  0.7200 -0.5999 -1.6831
  737MOL0     H 1651   8.389   8.532   1.599  0.8332 -0.4946  0.1568
  737MOL0     H 1652   8.453   8.694   1.608 -2.2480  3.0588 -3.0174
  737MOL0     H 1653   8.492   8.512   1.363  0.7689  0.8483 -1.4579
  737MOL0     H 1654   8.515   8.687   1.361  0.3585 -1.1437 -1.3673
  737MOL0     H 1655   8.656   8.419   1.603  0.0764  0.1752 -0.3391
  737MOL0     H 1656   9.030   8.411   1.576  0.8193  3.6109 -1.7170
  737MOL0     H 1657   8.891   8.339   1.672 -0.7053  0.7172 -2.0124
  737MOL0     H 1658   8.895   8.521   1.827  0.7473  0.0909  0.5376
  737MOL0     H 1659   9.052   8.439   1.830  0.4581 -0.2242 -0.5850
  737MOL0     H 1660   9.161   8.602   1.691  0.4355 -2.8309  1.0289
  737MOL0     H 1661   9.012   8.706   1.704  2.5834  2.0853  0.0183
  737MOL0     H 1662   9.145   8.791   1.866 -1.4702 -1.6740 -1.1642
  737MOL0     H 1663   9.049   8.667   1.960 -0.8869 -0.4347  0.4073
  737MOL0     H 1664   9.254   8.793   2.113  0.4921  1.8143  0.0456
  737MOL0     H 1665   9.377   9.078   2.143 -2.5178 -1.6413 -2.3658
  737MOL0     H 1666   9.501   9.014   2.257 -0.3123  2.6897 -0.0154
  737MOL0     H 1667   9.341   8.949   2.266 -1.8209  1.7542 -0.2778
  737MOL0     H 1668   9.983   8.883   1.910 -1.5758 -0.6313  1.5135
  737MOL0     H 1669  10.212   8.988   1.921 -1.0589  1.0096 -0.2994
  737MOL0     H 1670  10.317   9.140   1.836  0.1237 -1.5877  0.5545
  737MOL0     H 1671  10.378   9.301   1.869 -4.5617  0.3113 -1.6619
  737MOL0     H 1672  10.518   9.198   2.047 -0.7028  1.5461  0.5912
  737MOL0     H 1673  10.473   9.041   2.006 -2.2512  0.3104 -1.4812
  737MOL0     H 1674  10.555   9.110   1.751 -2.3562  0.5769  0.3983
  737MOL0     H 1675  10.663   9.063   1.861 -0.2898 -0.4590  0.4818
  737MOL0     H 1676  10.684   9.327   1.940 -2.3609 -0.7476  0.5813
  737MOL0     H 1677  10.586   9.362   1.809 -0.2022  0.2846 -0.9668
  737MOL0     H 1678  10.848   9.199   1.789 -0.2223 -0.8223 -0.4484
  737MOL0     H 1679  10.752   9.236   1.653 -0.9087 -0.5075 -0.2468
  737MOL0     H 1680  10.939   9.392   1.668 -1.4688 -1.1866 -1.2326
  737MOL0     H 1681  10.907   9.434   1.831 -0.3438  3.1178 -1.8906
  737MOL0     H 1682  10.716   9.563   1.765 -0.3417  0.4824 -1.0540
  737MOL0     H 1683  10.700   9.485   1.603  2.3865  0.1636 -2.9540
  737MOL0     H 1684  10.767   9.703   1.567  0.6144  1.1965  0.7868
  737MOL0     H 1685  10.899   9.589   1.517 -0.0022  0.0161 -0.6266
  737MOL0     H 1686  10.038   9.343   2.091 -2.4386  0.4147 -1.9691
  737MOL0     H 1687   9.825   9.235   2.101 -0.0047  0.9913 -2.3374
  737MOL0     H 1688   9.655   8.773   1.837 -0.8732 -0.6841 -0.9204
  737MOL0     H 1689   9.473   8.635   1.795 -1.2179 -0.5696  0.1861
  737MOL0     H 1690   7.558   8.508   1.470 -1.9989 -2.8115  1.3414
  737MOL0     H 1691   7.345   8.398   1.502 -0.9475 -0.2821 -0.6521
  737MOL0     H 1692   6.837   8.589   1.542 -5.7695  0.7024  0.1745
  737MOL0     H 1693   6.632   8.537   1.600  0.3101 -0.2382 -0.4410
  737MOL0     H 1694   6.542   8.415   1.805 -4.3720  2.7824 -0.0027
  737MOL0     H 1695   6.391   8.391   1.741  0.5115  2.0038 -0.3136
  737MOL0     H 1696   6.528   8.152   1.875 -0.2202  1.2292  3.1006
  737MOL0     H 1697   6.355   8.177   1.820 -0.2732 -1.8834  2.5406
  737MOL0     H 1698   6.494   8.242   2.072  1.2223  2.6937 -0.6825
  737MOL0     H 1699   6.369   8.353   2.013  0.0977  0.9524 -3.8930
  737MOL0     H 1700   6.293   8.164   2.171  0.8459 -1.3071  0.7526
  737MOL0     H 1701   6.342   8.043   2.054  0.0436 -0.1996 -0.5845
  737MOL0     H 1702   5.970   8.174   1.917 -0.4738 -1.1089  0.0481
  737MOL0     H 1703   6.725   8.115   1.634  1.1293 -0.8337 -0.8252
  737MOL0     H 1704   6.989   8.110   1.444 -0.8370  0.7835 -0.5740
  737MOL0     H 1705   7.078   8.178   1.595  0.7003 -0.2351 -2.7060
  737MOL0     H 1706   6.965   8.043   1.601  0.9499 -0.9133 -0.3086
  738MOL0     O 1707   0.511   1.631   7.272  0.5528  0.1110 -0.6855
  738MOL0     C 1708   0.444   1.541   7.319 -0.8888  0.6218 -0.7590
  738MOL0     O 1709   0.491   1.407   7.330  0.0175 -0.4484  0.6078
  738MOL0     C 1710   0.624   1.367   7.325  0.7451  0.1928 -0.4578
  738MOL0     C 1711   0.645   1.232   7.299  0.3781  0.3147 -0.6117
  738MOL0     C 1712   0.770   1.169   7.313  0.9525 -0.2807  0.3556
  738MOL0     C 1713   0.882   1.245   7.339 -0.3811  0.6475 -0.0044
  738MOL0     O 1714   1.012   1.199   7.342 -0.5037  0.7192 -0.1060
  738MOL0     C 1715   1.045   1.101   7.246 -0.1641  0.1060  0.6979
  738MOL0     C 1716   1.202   1.088   7.224  0.2219 -0.6771  0.1546
  738MOL0     C 1717   1.261   1.215   7.168  0.5784 -0.2526  0.4123
  738MOL0     C 1718   1.405   1.225   7.184  0.0173 -0.3722  0.1850
  738MOL0     C 1719   1.480   1.126   7.093  0.2217 -0.8893  0.1367
  738MOL0     C 1720   1.631   1.134   7.138  1.0259  0.2583  0.3090
  738MOL0     C 1721   1.697   0.990   7.155 -0.7208  0.3258  0.7249
  738MOL0     C 1722   1.849   1.012   7.186  0.8454  0.0179  0.8336
  738MOL0     N 1723   1.854   1.059   7.326  0.1153 -0.3008 -0.1348
  738MOL0     C 1724   1.840   0.978   7.431  0.9946 -0.9435 -0.9303
  738MOL0     C 1725   1.866   1.066   7.541 -1.1395 -0.2030  0.0163
  738MOL0     C 1726   1.861   1.037   7.693  0.7009  0.0499  0.2959
  738MOL0     C 1727   1.757   0.925   7.741  0.0469 -0.3992  0.4979
  738MOL0     C 1728   1.778   0.920   7.895 -0.7260 -0.5720 -0.7086
  738MOL0     C 1729   1.701   0.801   7.946  0.1937  0.6451 -0.2178
  738MOL0     O 1730   1.564   0.800   7.904  0.0380  0.2614 -0.5933
  738MOL0     C 1731   1.470   0.768   7.997 -0.2756  1.0791  0.0225
  738MOL0     C 1732   1.475   0.649   8.079 -0.4059  0.5013 -0.3417
  738MOL0     C 1733   1.368   0.608   8.164 -1.0422 -0.2412  0.1271
  738MOL0     C 1734   1.372   0.473   8.225 -0.4459 -0.1502 -0.4002
  738MOL0     C 1735   1.251   0.684   8.162  0.2221 -0.6255  0.5754
  738MOL0     C 1736   1.129   0.649   8.237 -0.5784  0.8126  0.7564
  738MOL0     O 1737   1.037   0.748   8.244  0.6522  0.4115 -0.4689
  738MOL0     C 1738   0.907   0.731   8.299  0.0270  0.1201 -0.7388
  738MOL0     C 1739   0.793   0.730   8.220  0.3843 -0.4857 -0.0441
  738MOL0     C 1740   0.664   0.733   8.274  0.8495  0.0865  0.8116
  738MOL0     C 1741   0.651   0.729   8.417 -0.0009  0.8118  1.0954
  738MOL0     O 1742   0.527   0.723   8.477  0.6090 -0.7040  0.5199
  738MOL0     C 1743   0.409   0.747   8.401  1.0158  0.6899 -0.1604
  738MOL0     C 1744   0.275   0.711   8.474  0.6239 -0.3708  0.7657
  738MOL0     C 1745   0.261   0.758   8.618  0.0579  1.1260 -0.2138
  738MOL0     C 1746   0.152   0.678   8.699  0.3618 -0.0326 -0.4718
  738MOL0     C 1747   0.162   0.713   8.845  0.9586 -0.5454  0.6837
  738MOL0     C 1748   0.050   0.687   8.931  0.0220  0.2199 -0.2452
  738MOL0     C 1749   0.012   0.532   8.947 -0.5970  0.2367  0.0918
  738MOL0     C 1750  -0.068   0.504   9.072 -0.0445  0.2602  0.8351
  738MOL0    Cl 1751  -0.220   0.594   9.064  0.1093  0.1621 -0.0000
  738MOL0     C 1752   0.767   0.735   8.498 -0.8930 -0.5520  0.0211
  738MOL0     C 1753   0.897   0.735   8.441  0.0342  0.4828  0.0217
  738MOL0     O 1754   1.121   0.545   8.304 -0.0902 -0.2902  0.1935
  738MOL0     C 1755   1.245   0.796   8.073  0.3704  0.7767  0.0180
  738MOL0     C 1756   1.355   0.838   7.997  0.0484  0.5190  0.1853
  738MOL0     N 1757   1.904   1.192   7.490  0.0580 -0.1728  0.4583
  738MOL0     N 1758   1.895   1.185   7.363 -0.2747 -0.0152 -0.3583
  738MOL0     C 1759   0.868   1.382   7.366  0.2596 -0.3587  0.4847
  738MOL0     C 1760   0.740   1.441   7.363 -0.4740  0.2731  0.0309
  738MOL0     C 1761   0.297   1.544   7.364 -0.3719 -0.1792 -0.2654
  738MOL0     C 1762   0.254   1.439   7.444  0.1992  1.2098 -0.1375
  738MOL0     C 1763   0.118   1.423   7.485  0.2466 -0.1359 -0.0326
  738MOL0     C 1764   0.032   1.515   7.445 -0.3613 -0.2511  0.1484
  738MOL0     O 1765  -0.094   1.508   7.496 -0.0679  0.9018 -0.5174
  738MOL0     C 1766  -0.116   1.560   7.622 -0.1659 -0.4941 -0.4256
  738MOL0     C 1767  -0.251   1.517   7.669 -0.3899  0.5001 -0.1259
  738MOL0     C 1768  -0.363   1.577   7.576 -0.4090  0.0524  0.7963
  738MOL0     C 1769  -0.503   1.563   7.639 -0.5514  0.5664 -0.4884
  738MOL0     C 1770  -0.604   1.590   7.543  0.3096  0.7245 -0.4650
  738MOL0     C 1771  -0.685   1.615   7.452  0.3638  0.0640 -0.6631
  738MOL0     C 1772   0.071   1.613   7.364  0.1006  0.1941 -0.5289
  738MOL0     C 1773   0.196   1.630   7.316 -0.7378 -0.1343  0.3694
  738MOL0     C 1774   0.229   1.740   7.211  0.0195 -0.0810 -0.2453
  738MOL0     H 1775   0.561   1.169   7.271 -1.2335  1.5884  1.0818
  738MOL0     H 1776   0.777   1.060   7.314 -2.7125 -0.6508  0.7076
  738MOL0     H 1777   0.990   1.114   7.152 -0.2146  0.2370  0.7457
  738MOL0     H 1778   1.011   1.008   7.293 -0.9005  0.1990  0.3550
  738MOL0     H 1779   1.256   1.064   7.316  0.1378 -1.6853 -0.0491
  738MOL0     H 1780   1.215   1.006   7.153 -0.0681  0.5501 -1.3630
  738MOL0     H 1781   1.231   1.234   7.065  2.2152  0.2042 -0.0012
  738MOL0     H 1782   1.216   1.294   7.229  0.9124  0.3106 -0.0570
  738MOL0     H 1783   1.440   1.326   7.161  4.2240 -2.1600 -2.4161
  738MOL0     H 1784   1.432   1.213   7.289 -0.2445  0.0260  0.2999
  738MOL0     H 1785   1.473   1.140   6.985 -1.0254 -1.0458  0.1775
  738MOL0     H 1786   1.452   1.022   7.114  1.3958 -0.9435  1.6348
  738MOL0     H 1787   1.688   1.184   7.059 -1.6103  1.8712 -0.6930
  738MOL0     H 1788   1.646   1.194   7.228  0.3688  0.8518  0.0283
  738MOL0     H 1789   1.690   0.938   7.059  0.7323  1.1528  0.1422
  738MOL0     H 1790   1.651   0.932   7.236 -2.0105  1.3136  0.7283
  738MOL0     H 1791   1.902   0.917   7.180 -1.6463 -1.8935  5.1295
  738MOL0     H 1792   1.898   1.082   7.117  2.7423 -1.0856  1.0014
  738MOL0     H 1793   1.812   0.873   7.437  2.2114 -1.2391  0.1193
  738MOL0     H 1794   1.828   1.132   7.736 -4.1867 -0.7291 -1.0612
  738MOL0     H 1795   1.962   1.002   7.716  0.4267 -1.3856 -0.5694
  738MOL0     H 1796   1.657   0.961   7.713 -0.5649 -1.6966  0.9584
  738MOL0     H 1797   1.788   0.829   7.700  2.5261 -0.7418  2.8892
  738MOL0     H 1798   1.883   0.903   7.919 -0.3519  0.3461 -1.6355
  738MOL0     H 1799   1.749   1.018   7.935  2.6249  1.1426 -2.0681
  738MOL0     H 1800   1.744   0.708   7.907 -2.0425 -1.1538  1.2673
  738MOL0     H 1801   1.707   0.795   8.055 -1.3233  0.6632 -0.1003
  738MOL0     H 1802   1.560   0.582   8.066 -0.2496  0.8796 -1.3418
  738MOL0     H 1803   1.288   0.407   8.201  0.2431 -0.7554 -1.1979
  738MOL0     H 1804   1.391   0.480   8.333  2.4177  4.1034 -0.9667
  738MOL0     H 1805   1.457   0.420   8.181 -0.5552 -0.9738  0.3438
  738MOL0     H 1806   0.813   0.730   8.113  0.0231  0.1824 -0.1190
  738MOL0     H 1807   0.590   0.707   8.200  1.7815 -1.7781  0.4528
  738MOL0     H 1808   0.399   0.854   8.378 -2.2618  0.4877 -0.1734
  738MOL0     H 1809   0.402   0.691   8.308 -2.4316 -1.1945  1.0491
  738MOL0     H 1810   0.201   0.752   8.405  0.6521 -2.2432 -0.4619
  738MOL0     H 1811   0.266   0.602   8.472  1.3024 -0.4399 -1.2457
  738MOL0     H 1812   0.247   0.866   8.621  1.0639  1.2872 -0.8098
  738MOL0     H 1813   0.353   0.738   8.672  0.3023  2.5985 -0.0662
  738MOL0     H 1814   0.173   0.572   8.684  1.6854  0.3998 -2.1067
  738MOL0     H 1815   0.060   0.710   8.650  0.1467 -1.8454 -1.3421
  738MOL0     H 1816   0.246   0.655   8.885  2.4161  0.0811 -1.2712
  738MOL0     H 1817   0.185   0.819   8.857  1.0175 -0.8584  4.6480
  738MOL0     H 1818  -0.037   0.735   8.884  0.3410  1.2954  0.2461
  738MOL0     H 1819   0.070   0.737   9.026 -0.2968  3.3436 -1.6911
  738MOL0     H 1820   0.106   0.476   8.958 -0.6351 -0.2318 -1.7015
  738MOL0     H 1821  -0.039   0.507   8.854 -1.1624  4.4207 -0.9368
  738MOL0     H 1822  -0.015   0.546   9.159  1.6946  0.7759 -0.4166
  738MOL0     H 1823  -0.074   0.396   9.082  3.7749 -0.2619 -0.7448
  738MOL0     H 1824   0.759   0.740   8.606  0.9429 -2.3210  0.3157
  738MOL0     H 1825   0.992   0.734   8.493 -1.3813 -1.7196  2.8300
  738MOL0     H 1826   1.155   0.855   8.059  1.1246  1.4613 -2.5382
  738MOL0     H 1827   1.343   0.928   7.937 -0.5423 -1.3800 -2.7547
  738MOL0     H 1828   0.954   1.441   7.396  1.5836 -2.9716  2.2721
  738MOL0     H 1829   0.739   1.549   7.376  1.4086  0.3182  0.1218
  738MOL0     H 1830   0.321   1.367   7.489  0.6573  1.0139 -1.0938
  738MOL0     H 1831   0.093   1.352   7.563  0.7346 -2.6561 -2.0222
  738MOL0     H 1832  -0.039   1.525   7.692  1.0560  0.3472 -1.2981
  738MOL0     H 1833  -0.112   1.670   7.626 -0.0666 -0.5256  0.6247
  738MOL0     H 1834  -0.271   1.562   7.767  1.5656 -0.9209  1.0064
  738MOL0     H 1835  -0.256   1.408   7.676  0.4198  0.5350  1.7518
  738MOL0     H 1836  -0.338   1.679   7.545 -0.0255 -1.0397 -2.9993
  738MOL0     H 1837  -0.363   1.514   7.487 -2.3725 -1.7716  1.9748
  738MOL0     H 1838  -0.518   1.631   7.724 -3.5731 -0.3397 -0.1543
  738MOL0     H 1839  -0.529   1.461   7.670 -0.8312  0.8975  0.4106
  738MOL0     H 1840  -0.759   1.648   7.382  0.7744  0.1448 -1.0619
  738MOL0     H 1841  -0.012   1.679   7.340 -2.1764 -1.3472  2.4693
  738MOL0     H 1842   0.149   1.794   7.159 -0.3480  0.0091  0.3990
  738MOL0     H 1843   0.295   1.816   7.255 -1.1480  1.2514 -0.7029
  738MOL0     H 1844   0.289   1.694   7.133 -0.5580 -2.1084  0.4549
  739MOL0     O 1845   4.203   3.082   2.083 -0.1168  0.2856  0.3498
  739MOL0     C 1846   4.151   3.051   1.980 -0.2618  0.0590  0.3517
  739MOL0     O 1847   4.206   2.964   1.885 -0.2065  0.1227  0.3505
  739MOL0     C 1848   4.335   2.914   1.916  0.5743 -0.4121 -0.1602
  739MOL0     C 1849   4.441   2.968   1.844  0.3751  0.1069  0.2730
  739MOL0     C 1850   4.569   2.907   1.859  0.2570  0.2026 -0.1782
  739MOL0     C 1851   4.587   2.794   1.946 -0.0676 -0.6031 -0.2345
  739MOL0     O 1852   4.714   2.739   1.956 -0.3700  0.3275 -0.2365
  739MOL0     C 1853   4.723   2.598   1.934  0.3418  0.3866 -0.6036
  739MOL0     C 1854   4.781   2.532   2.063 -0.7812 -0.1780  0.0567
  739MOL0     C 1855   4.876   2.613   2.149 -0.0795  0.3826  0.0008
  739MOL0     C 1856   4.996   2.663   2.064 -1.1552 -0.0058  0.8320
  739MOL0     C 1857   5.074   2.761   2.154  0.7896 -0.2388 -0.3460
  739MOL0     C 1858   5.002   2.896   2.176  0.0300  0.3142 -0.1119
  739MOL0     C 1859   5.016   2.997   2.057  0.4010 -0.8494 -0.2773
  739MOL0     C 1860   4.912   3.111   2.082  0.3228  0.2534  0.8240
  739MOL0     N 1861   4.964   3.243   2.043  0.5170  0.1259 -0.1107
  739MOL0     C 1862   4.950   3.362   2.111  0.6237  0.1821 -0.5251
  739MOL0     C 1863   5.043   3.446   2.059  0.8631  0.3605  0.7856
  739MOL0     C 1864   5.092   3.580   2.090 -0.4785 -0.9348  0.5198
  739MOL0     C 1865   5.250   3.578   2.110  0.4282  0.5660  0.4037
  739MOL0     C 1866   5.311   3.713   2.142 -0.1386 -0.0425  0.5710
  739MOL0     C 1867   5.311   3.750   2.291 -1.4183 -0.0212 -0.0597
  739MOL0     O 1868   5.427   3.844   2.316 -0.4160  0.4353 -0.6336
  739MOL0     C 1869   5.526   3.808   2.408 -0.1302  0.4751  0.7962
  739MOL0     C 1870   5.650   3.868   2.387 -0.5668 -0.4753 -0.3654
  739MOL0     C 1871   5.760   3.859   2.476 -0.2866  0.2383  0.5046
  739MOL0     C 1872   5.886   3.924   2.435 -0.6334  0.7274  0.6397
  739MOL0     C 1873   5.734   3.777   2.591 -0.5356  0.2789  0.1934
  739MOL0     C 1874   5.834   3.757   2.704 -0.6952  0.4000  0.1022
  739MOL0     O 1875   5.812   3.668   2.797  0.5063  0.4103  0.5655
  739MOL0     C 1876   5.893   3.669   2.906  0.3855 -0.0694 -0.3491
  739MOL0     C 1877   6.004   3.584   2.918 -0.4570 -0.5960  0.8645
  739MOL0     C 1878   6.083   3.588   3.029 -0.5120 -0.5458 -0.5948
  739MOL0     C 1879   6.057   3.676   3.145 -0.1686  1.0136  0.0251
  739MOL0     O 1880   6.129   3.681   3.259 -0.3102  0.2982  0.3548
  739MOL0     C 1881   6.215   3.578   3.288 -0.0679  0.1741 -0.1929
  739MOL0     C 1882   6.292   3.604   3.414 -0.1504  0.0859 -0.4157
  739MOL0     C 1883   6.389   3.495   3.454 -0.1152 -0.3362  0.2450
  739MOL0     C 1884   6.485   3.535   3.564  0.1192 -0.0084  0.2981
  739MOL0     C 1885   6.435   3.541   3.708  0.1307  0.2738 -0.1296
  739MOL0     C 1886   6.544   3.584   3.796 -0.2934 -0.3303 -0.1349
  739MOL0     C 1887   6.495   3.657   3.923  0.5617  0.8295 -0.2634
  739MOL0     C 1888   6.610   3.719   3.999 -0.2038 -0.2821 -0.0764
  739MOL0    Cl 1889   6.706   3.599   4.091  0.0069  0.0536 -0.0480
  739MOL0     C 1890   5.942   3.751   3.131  0.2698 -0.1007 -0.9381
  739MOL0     C 1891   5.864   3.751   3.015 -0.4066  0.3946  0.3776
  739MOL0     O 1892   5.929   3.830   2.710  0.0961  0.1184 -0.0885
  739MOL0     C 1893   5.613   3.707   2.610 -0.6740 -0.7787 -0.4507
  739MOL0     C 1894   5.514   3.715   2.512 -0.4346 -0.5857 -0.0484
  739MOL0     N 1895   5.087   3.388   1.948 -0.0963 -0.0808  1.1177
  739MOL0     N 1896   5.048   3.266   1.940 -0.9059  0.3669 -0.0049
  739MOL0     C 1897   4.478   2.751   2.020 -0.1811  0.4935 -1.1952
  739MOL0     C 1898   4.355   2.814   2.008  0.3838 -0.3090  0.2696
  739MOL0     C 1899   4.017   3.108   1.943 -0.5812 -0.0256  0.0909
  739MOL0     C 1900   3.944   3.051   1.848 -0.7476 -0.0106  0.4425
  739MOL0     C 1901   3.817   3.077   1.802  0.2756 -0.5665  0.1479
  739MOL0     C 1902   3.749   3.182   1.863 -0.3141 -0.0319  1.1952
  739MOL0     O 1903   3.618   3.205   1.819  0.0489 -0.2139 -0.3896
  739MOL0     C 1904   3.514   3.258   1.905 -0.6019  0.2175  0.0621
  739MOL0     C 1905   3.427   3.348   1.818  0.1521  0.6219 -0.5730
  739MOL0     C 1906   3.488   3.483   1.787 -0.3357  0.6399 -1.0166
  739MOL0     C 1907   3.421   3.558   1.670 -0.3723  0.8742  0.5111
  739MOL0     C 1908   3.294   3.619   1.701  0.0552 -0.4738  0.6230
  739MOL0     C 1909   3.187   3.669   1.736  0.0115  0.3926  0.2744
  739MOL0     C 1910   3.820   3.264   1.950  0.1222  0.2521  0.1773
  739MOL0     C 1911   3.953   3.224   1.998  0.3240  0.4033 -0.4913
  739MOL0     C 1912   4.014   3.304   2.110 -0.0899 -0.0740  0.2383
  739MOL0     H 1913   4.425   3.031   1.758 -0.1186 -1.0238 -0.4965
  739MOL0     H 1914   4.653   2.937   1.797 -1.2543  1.2627 -1.8183
  739MOL0     H 1915   4.777   2.550   1.852 -3.0837 -4.6340 -0.3396
  739MOL0     H 1916   4.628   2.550   1.909  0.6709 -1.0221  0.6831
  739MOL0     H 1917   4.702   2.491   2.127 -0.4093 -1.5056 -0.3108
  739MOL0     H 1918   4.849   2.453   2.029  1.0804  1.3038  0.1369
  739MOL0     H 1919   4.817   2.699   2.182  0.0095  0.1746  0.7001
  739MOL0     H 1920   4.909   2.544   2.227  1.5830  0.4019 -0.6526
  739MOL0     H 1921   5.070   2.587   2.038 -0.0456  1.7718 -1.5805
  739MOL0     H 1922   4.966   2.712   1.971  1.5718 -0.4856 -0.3998
  739MOL0     H 1923   5.177   2.761   2.120  1.9492 -1.2644  2.7816
  739MOL0     H 1924   5.087   2.715   2.252 -1.7955 -2.9753 -1.1285
  739MOL0     H 1925   4.899   2.882   2.210  1.1908  1.9050  4.9817
  739MOL0     H 1926   5.048   2.945   2.263 -1.7095  1.1243  0.3907
  739MOL0     H 1927   5.011   2.939   1.965  1.8315 -0.4386 -0.6480
  739MOL0     H 1928   5.119   3.032   2.043 -0.0499 -0.4601 -3.1845
  739MOL0     H 1929   4.822   3.103   2.020  1.5247  1.2153 -1.1428
  739MOL0     H 1930   4.882   3.114   2.187 -0.3914 -0.4769  0.6563
  739MOL0     H 1931   4.903   3.381   2.207  2.9014  4.9021 -0.0980
  739MOL0     H 1932   5.047   3.626   2.179  1.2441  1.6196  0.1853
  739MOL0     H 1933   5.078   3.647   2.005  0.1286  2.8879  3.1458
  739MOL0     H 1934   5.259   3.513   2.197 -2.5614  0.0544  0.4283
  739MOL0     H 1935   5.293   3.529   2.022 -1.0608  0.8295 -0.5109
  739MOL0     H 1936   5.413   3.724   2.103 -0.6729  0.0748 -0.8250
  739MOL0     H 1937   5.249   3.778   2.081  1.3682 -1.3221 -2.5504
  739MOL0     H 1938   5.215   3.794   2.319 -2.2975 -0.4941 -2.1281
  739MOL0     H 1939   5.317   3.662   2.356 -0.0553 -0.0717 -0.2364
  739MOL0     H 1940   5.651   3.920   2.292  0.9410 -0.4210 -0.3375
  739MOL0     H 1941   5.970   3.857   2.452 -0.0797  1.9390  3.1341
  739MOL0     H 1942   5.896   4.010   2.502  0.6181  0.2533  1.1048
  739MOL0     H 1943   5.888   3.965   2.333  2.9141 -2.5085 -0.8413
  739MOL0     H 1944   6.028   3.516   2.837 -1.1690  1.3317 -1.0598
  739MOL0     H 1945   6.164   3.515   3.029 -0.3884 -0.4322 -2.0856
  739MOL0     H 1946   6.171   3.478   3.286  0.1523  0.0341 -3.2605
  739MOL0     H 1947   6.288   3.582   3.206  0.7163 -4.8558 -0.0692
  739MOL0     H 1948   6.341   3.702   3.408 -2.4227  1.4209  1.0415
  739MOL0     H 1949   6.228   3.621   3.501 -2.0782 -1.8717 -1.3531
  739MOL0     H 1950   6.453   3.464   3.371  0.0127  0.0696  0.1890
  739MOL0     H 1951   6.334   3.410   3.494 -1.7470  0.8488  0.6465
  739MOL0     H 1952   6.538   3.629   3.544 -0.4557  0.2673  0.0570
  739MOL0     H 1953   6.566   3.462   3.562  1.4393  1.3894  0.7065
  739MOL0     H 1954   6.355   3.613   3.729  1.6644  1.8475  0.5954
  739MOL0     H 1955   6.397   3.444   3.738 -0.9466  0.2353 -1.5455
  739MOL0     H 1956   6.592   3.665   3.741 -3.9396  2.2986  0.2435
  739MOL0     H 1957   6.612   3.500   3.817 -1.0846 -1.3183 -1.3965
  739MOL0     H 1958   6.456   3.585   3.994  2.9776 -1.5421 -1.1666
  739MOL0     H 1959   6.417   3.730   3.903  0.9096  1.7299  1.4795
  739MOL0     H 1960   6.563   3.787   4.071 -1.8648 -1.4288 -0.0376
  739MOL0     H 1961   6.680   3.776   3.937 -0.5002 -1.7879 -1.8765
  739MOL0     H 1962   5.911   3.807   3.218 -1.8159  0.0799 -1.7393
  739MOL0     H 1963   5.776   3.811   2.993 -1.7075 -1.2729  0.8202
  739MOL0     H 1964   5.583   3.654   2.700 -0.9079 -1.4421 -0.9085
  739MOL0     H 1965   5.430   3.648   2.529  1.0305 -2.6766 -0.5550
  739MOL0     H 1966   4.488   2.667   2.088  0.1190  0.6983 -0.9847
  739MOL0     H 1967   4.274   2.778   2.071  1.4762 -2.7479  0.4000
  739MOL0     H 1968   3.985   2.967   1.793  1.2158  2.3434 -1.9749
  739MOL0     H 1969   3.772   3.014   1.727 -2.8702  1.3529  0.2499
  739MOL0     H 1970   3.454   3.175   1.943 -0.5017  0.9189  1.8403
  739MOL0     H 1971   3.543   3.319   1.991 -0.4618 -2.4253  1.9932
  739MOL0     H 1972   3.335   3.367   1.874  1.5198  1.1495  1.6367
  739MOL0     H 1973   3.404   3.306   1.720 -0.5208  1.3726 -0.7509
  739MOL0     H 1974   3.476   3.543   1.878  1.7412  0.3855 -0.5177
  739MOL0     H 1975   3.595   3.474   1.767 -0.0932 -0.4311  0.5469
  739MOL0     H 1976   3.409   3.490   1.586 -0.0041  1.0167  0.3371
  739MOL0     H 1977   3.490   3.634   1.631 -0.7693  0.3443 -1.3144
  739MOL0     H 1978   3.111   3.732   1.779  2.1819  2.3759  1.4567
  739MOL0     H 1979   3.757   3.339   1.996 -1.0420 -0.5794 -0.0254
  739MOL0     H 1980   3.945   3.370   2.163 -1.1278 -1.4921  0.7245
  739MOL0     H 1981   4.059   3.242   2.188  2.3543  2.8053  1.2984
  739MOL0     H 1982   4.097   3.358   2.064 -0.8292  0.4234 -0.5535
  740MOL0     O 1983  11.143   5.996   7.432 -0.3614  0.5239 -0.2475
  740MOL0     C 1984  11.177   5.921   7.342  0.0411 -0.8346 -0.2677
  740MOL0     O 1985  11.277   5.829   7.350 -0.3343 -0.4086  0.4480
  740MOL0     C 1986  11.341   5.810   7.472  0.1591  1.1981 -0.6663
  740MOL0     C 1987  11.448   5.895   7.504  0.1698  0.0136  0.4182
  740MOL0     C 1988  11.529   5.872   7.619  0.5213 -0.5253  1.1896
  740MOL0     C 1989  11.502   5.767   7.698  0.0412 -0.0360 -0.1105
  740MOL0     O 1990  11.592   5.722   7.790  0.1561 -0.2478 -0.1497
  740MOL0     C 1991  11.734   5.761   7.771 -0.9893  1.1492 -0.7157
  740MOL0     C 1992  11.825   5.684   7.874 -0.3223  0.0131 -0.4491
  740MOL0     C 1993  11.762   5.709   8.019  0.4404 -0.3194  0.4171
  740MOL0     C 1994  11.848   5.635   8.123 -0.2746  0.0754 -0.5279
  740MOL0     C 1995  11.993   5.691   8.110  0.0233  0.1795  0.2961
  740MOL0     C 1996  12.067   5.606   8.214 -0.2557  0.5301 -0.5232
  740MOL0     C 1997  12.208   5.651   8.201 -0.3308 -0.0605  0.0352
  740MOL0     C 1998  12.297   5.579   8.308 -0.3848 -1.1492  0.6104
  740MOL0     N 1999  12.437   5.622   8.300  0.3937 -0.1923  0.8375
  740MOL0     C 2000  12.488   5.705   8.390  0.5335 -0.0065 -0.4832
  740MOL0     C 2001  12.611   5.737   8.333  0.0412 -1.2902  0.1862
  740MOL0     C 2002  12.715   5.822   8.404 -0.4373 -0.2281  0.1158
  740MOL0     C 2003  12.784   5.919   8.301 -0.3416 -0.1969  0.0929
  740MOL0     C 2004  12.926   5.944   8.342 -0.7716  0.2938 -0.4845
  740MOL0     C 2005  13.007   6.003   8.222  0.2320  0.1632 -0.1562
  740MOL0     O 2006  13.132   6.040   8.269  0.2733  0.2020  0.2688
  740MOL0     C 2007  13.215   6.108   8.180  0.1722  0.6103 -0.3016
  740MOL0     C 2008  13.178   6.156   8.056  0.2109 -0.3288 -0.0392
  740MOL0     C 2009  13.271   6.221   7.970 -0.4841  0.1568 -0.1309
  740MOL0     C 2010  13.214   6.281   7.837  0.1796 -0.6384 -0.3906
  740MOL0     C 2011  13.411   6.229   8.012  0.1834 -0.5305  0.1551
  740MOL0     C 2012  13.524   6.285   7.932 -0.7780 -0.5321 -0.0445
  740MOL0     O 2013  13.644   6.314   7.989  0.1370  0.3661 -0.1786
  740MOL0     C 2014  13.753   6.341   7.908  0.3946  0.2593  0.7009
  740MOL0     C 2015  13.834   6.235   7.868  0.0725  0.6662 -0.1075
  740MOL0     C 2016  13.938   6.267   7.778  0.8018  0.2175 -1.0907
  740MOL0     C 2017  13.972   6.396   7.737  0.0302 -0.5867 -1.1108
  740MOL0     O 2018  14.084   6.437   7.669  0.1578  0.2251 -0.8454
  740MOL0     C 2019  14.195   6.348   7.652 -0.0757  0.3037  0.1553
  740MOL0     C 2020  14.288   6.395   7.539 -0.2019 -0.1965 -0.7816
  740MOL0     C 2021  14.367   6.281   7.481 -0.1435  0.5060  0.2546
  740MOL0     C 2022  14.426   6.331   7.345  0.4309 -0.3850 -0.1408
  740MOL0     C 2023  14.543   6.233   7.298 -0.6118  0.2083 -0.2107
  740MOL0     C 2024  14.605   6.302   7.175  0.3083  0.4893 -0.5954
  740MOL0     C 2025  14.736   6.234   7.131 -0.2151  0.0159 -0.2501
  740MOL0     C 2026  14.799   6.312   7.029  0.2029 -0.0472 -0.5577
  740MOL0    Cl 2027  14.925   6.201   6.959 -0.2010  0.5151 -0.5295
  740MOL0     C 2028  13.896   6.498   7.787 -0.0000  0.4632 -0.4078
  740MOL0     C 2029  13.791   6.470   7.867 -0.3743  0.2732 -0.9820
  740MOL0     O 2030  13.505   6.284   7.811 -0.3815 -0.4356  0.1393
  740MOL0     C 2031  13.437   6.185   8.139  0.1716 -0.0025  0.2614
  740MOL0     C 2032  13.343   6.123   8.221  0.1666 -0.1814  0.2424
  740MOL0     N 2033  12.623   5.666   8.221 -0.5763  0.3104  0.5110
  740MOL0     N 2034  12.517   5.597   8.197 -0.0812  0.1247  0.1444
  740MOL0     C 2035  11.387   5.682   7.676 -0.3332  0.1098 -0.0527
  740MOL0     C 2036  11.303   5.710   7.566  0.5195 -0.4806  0.3002
  740MOL0     C 2037  11.119   5.951   7.209  0.6272 -0.2034  1.1148
  740MOL0     C 2038  10.983   5.985   7.202  0.1626 -0.0477 -0.5675
  740MOL0     C 2039  10.929   6.002   7.075  0.0280  0.1540  0.6680
  740MOL0     C 2040  11.004   5.988   6.961 -0.5428  1.2648 -0.9726
  740MOL0     O 2041  10.940   5.991   6.843  0.5763  0.2937  0.4387
  740MOL0     C 2042  11.012   5.987   6.723 -0.1995  0.4246  0.8326
  740MOL0     C 2043  10.921   5.992   6.605 -0.4597  1.0111  0.3038
  740MOL0     C 2044  10.815   5.888   6.611 -0.1223  0.9119 -0.5240
  740MOL0     C 2045  10.882   5.748   6.611 -0.1277 -0.1002  0.3767
  740MOL0     C 2046  10.784   5.649   6.559  0.3649  0.8856 -0.1392
  740MOL0     C 2047  10.703   5.567   6.520 -0.1907 -0.6021  0.0034
  740MOL0     C 2048  11.139   5.964   6.974 -0.3258  0.0331 -0.0441
  740MOL0     C 2049  11.199   5.954   7.097  0.1792  0.1878  0.4375
  740MOL0     C 2050  11.343   5.962   7.099 -0.2012  0.1607  0.0691
  740MOL0     H 2051  11.472   5.966   7.426 -1.2260 -0.4456 -0.4672
  740MOL0     H 2052  11.612   5.933   7.654  0.5406  0.2417 -0.1141
  740MOL0     H 2053  11.751   5.866   7.797  0.0560  1.0953 -1.1362
  740MOL0     H 2054  11.767   5.732   7.671 -2.8001 -2.3593 -0.4577
  740MOL0     H 2055  11.818   5.576   7.860 -1.0457  0.1522 -1.2464
  740MOL0     H 2056  11.930   5.706   7.853  0.0885  0.6794  1.9639
  740MOL0     H 2057  11.751   5.816   8.036 -2.0764 -0.1829 -1.4980
  740MOL0     H 2058  11.660   5.670   8.025  0.0729  0.3393 -1.1894
  740MOL0     H 2059  11.814   5.646   8.227 -1.3888  0.1878 -0.8905
  740MOL0     H 2060  11.847   5.530   8.094  1.6156 -0.3713  0.8171
  740MOL0     H 2061  11.989   5.800   8.118 -0.8484  0.3413 -1.8437
  740MOL0     H 2062  12.033   5.671   8.011 -2.3662  0.6864 -0.8515
  740MOL0     H 2063  12.035   5.627   8.316  1.7496 -1.0970  0.5053
  740MOL0     H 2064  12.050   5.499   8.203  2.2218 -0.0748  0.7721
  740MOL0     H 2065  12.217   5.758   8.219  1.3677 -0.1362 -0.1809
  740MOL0     H 2066  12.250   5.618   8.105  1.2844 -3.6875  1.7797
  740MOL0     H 2067  12.262   5.593   8.410  0.6957  0.0602  0.8425
  740MOL0     H 2068  12.279   5.472   8.298 -3.0428 -0.9843  2.5585
  740MOL0     H 2069  12.439   5.747   8.478 -1.6299 -1.1857 -1.0551
  740MOL0     H 2070  12.787   5.755   8.453  1.3989  1.1438 -0.5836
  740MOL0     H 2071  12.660   5.881   8.478 -0.1853  1.6324 -1.1308
  740MOL0     H 2072  12.768   5.871   8.204  1.3124  0.0676 -0.3403
  740MOL0     H 2073  12.729   6.014   8.297 -3.2401 -1.7917 -1.1306
  740MOL0     H 2074  12.928   6.013   8.427  1.8850 -1.5291  1.0916
  740MOL0     H 2075  12.971   5.847   8.367  0.8018  1.1914  0.3563
  740MOL0     H 2076  13.019   5.934   8.138  0.7791 -1.2644  1.0522
  740MOL0     H 2077  12.955   6.093   8.189  0.1652  0.6672  1.2690
  740MOL0     H 2078  13.075   6.137   8.028 -0.6884 -0.4277  3.0174
  740MOL0     H 2079  13.110   6.302   7.862  0.3857 -2.2436  2.2521
  740MOL0     H 2080  13.226   6.209   7.755 -3.3121 -1.4772 -0.3440
  740MOL0     H 2081  13.256   6.379   7.812 -2.3904  0.5732 -0.2591
  740MOL0     H 2082  13.819   6.134   7.905  0.4996 -0.2363 -2.2107
  740MOL0     H 2083  14.002   6.183   7.752  0.0235  0.0910 -2.6459
  740MOL0     H 2084  14.245   6.338   7.749 -0.4367  1.9005  0.5422
  740MOL0     H 2085  14.154   6.252   7.620 -0.2771  0.8151 -1.1818
  740MOL0     H 2086  14.230   6.455   7.469 -0.6043  1.5894  0.9952
  740MOL0     H 2087  14.362   6.454   7.593 -1.0113 -0.8502  1.1151
  740MOL0     H 2088  14.307   6.191   7.461  0.4984  0.1149  0.0597
  740MOL0     H 2089  14.440   6.243   7.553  0.7850 -0.1096 -0.9834
  740MOL0     H 2090  14.461   6.435   7.356 -1.6704  0.2012  1.9703
  740MOL0     H 2091  14.351   6.327   7.266  0.3351 -4.1304 -0.0120
  740MOL0     H 2092  14.621   6.215   7.373  0.2827 -1.2978 -1.4408
  740MOL0     H 2093  14.491   6.138   7.279  0.3738 -0.6114  0.9712
  740MOL0     H 2094  14.634   6.401   7.210  0.0123  1.0162 -1.7760
  740MOL0     H 2095  14.527   6.302   7.097 -2.3166  2.0096  1.8537
  740MOL0     H 2096  14.707   6.134   7.098 -1.6235  0.6513 -1.0123
  740MOL0     H 2097  14.791   6.221   7.225 -0.3209  0.8216 -0.0688
  740MOL0     H 2098  14.841   6.402   7.074  1.1668 -2.1042  3.0494
  740MOL0     H 2099  14.725   6.339   6.953  1.9373  2.0735 -1.6162
  740MOL0     H 2100  13.927   6.600   7.767  0.7758  0.2856 -0.1636
  740MOL0     H 2101  13.717   6.544   7.894 -0.9095 -0.8989  0.9003
  740MOL0     H 2102  13.539   6.193   8.174  0.0338 -0.3188  0.7382
  740MOL0     H 2103  13.377   6.100   8.321  0.4417  2.0652  0.7299
  740MOL0     H 2104  11.375   5.588   7.729 -2.4524 -0.1278 -0.8416
  740MOL0     H 2105  11.214   5.651   7.549  0.2987 -0.2386  0.5905
  740MOL0     H 2106  10.922   5.989   7.291 -0.4112 -0.9876 -0.9098
  740MOL0     H 2107  10.824   6.021   7.055  0.4661 -1.1153 -4.2212
  740MOL0     H 2108  11.086   6.067   6.717  0.3449 -0.0973  0.4964
  740MOL0     H 2109  11.068   5.893   6.723  0.9168  1.0624  1.1404
  740MOL0     H 2110  10.977   5.996   6.511 -1.2469  1.1138 -0.1707
  740MOL0     H 2111  10.868   6.085   6.628  0.2699  0.7207  3.6665
  740MOL0     H 2112  10.760   5.894   6.705  0.0359  1.5584 -0.4652
  740MOL0     H 2113  10.741   5.905   6.533 -2.2969 -0.5449  1.1036
  740MOL0     H 2114  10.930   5.727   6.707  1.1239  3.8572  0.7971
  740MOL0     H 2115  10.966   5.752   6.541 -0.3179  1.6511  0.2103
  740MOL0     H 2116  10.652   5.473   6.507  2.0210 -2.4554  3.1293
  740MOL0     H 2117  11.205   5.962   6.889 -1.0832 -0.2180 -0.6382
  740MOL0     H 2118  11.379   6.013   7.009 -0.9758  1.7236  0.6021
  740MOL0     H 2119  11.372   6.035   7.176  0.9893  1.2220 -1.3307
  740MOL0     H 2120  11.384   5.863   7.122 -1.4799 -0.9255 -2.0654
  741MOL0     O 2121   8.119   6.994   6.159  0.3577 -0.2002 -0.1990
  741MOL0     C 2122   7.994   6.986   6.149 -0.1368 -0.9938 -0.6121
  741MOL0     O 2123   7.919   6.861   6.142  0.9194  0.6201 -0.2777
  741MOL0     C 2124   7.999   6.748   6.132  0.2831  0.3802  0.2346
  741MOL0     C 2125   8.025   6.680   6.012  0.1279 -0.6053 -0.3674
  741MOL0     C 2126   8.099   6.562   6.016 -0.0060  0.2308  0.3091
  741MOL0     C 2127   8.137   6.501   6.138 -0.0251 -0.5098  0.3047
  741MOL0     O 2128   8.213   6.389   6.131 -0.7347 -0.6558  0.8601
  741MOL0     C 2129   8.359   6.406   6.154 -0.3747  1.0576  0.5481
  741MOL0     C 2130   8.393   6.413   6.298 -0.0188 -0.3186  0.2249
  741MOL0     C 2131   8.552   6.392   6.322 -0.8112  0.1810  0.2583
  741MOL0     C 2132   8.636   6.501   6.260 -0.2171  0.6366  0.5670
  741MOL0     C 2133   8.788   6.477   6.285  0.2558 -0.3376  0.5066
  741MOL0     C 2134   8.826   6.331   6.252 -0.0727  0.2418  0.1270
  741MOL0     C 2135   8.982   6.303   6.262 -0.2058 -0.2810  0.0253
  741MOL0     C 2136   9.022   6.154   6.260 -0.0688  0.5663 -0.1946
  741MOL0     N 2137   9.161   6.136   6.226 -1.0191 -0.7366  0.1869
  741MOL0     C 2138   9.220   6.043   6.140 -0.3947 -0.1394  0.4045
  741MOL0     C 2139   9.349   6.043   6.178 -0.2194 -0.5842  0.3615
  741MOL0     C 2140   9.468   5.974   6.112  0.4400  0.4131 -0.3951
  741MOL0     C 2141   9.442   5.828   6.103 -0.1745  0.0878 -1.2398
  741MOL0     C 2142   9.411   5.767   6.239 -0.1158  0.3270  0.3961
  741MOL0     C 2143   9.456   5.620   6.259 -0.2141 -0.1194  0.1498
  741MOL0     O 2144   9.602   5.612   6.265 -0.1774  0.5162 -0.5169
  741MOL0     C 2145   9.660   5.489   6.243 -0.5125 -0.3016  0.8995
  741MOL0     C 2146   9.585   5.368   6.218 -0.2811  0.1285  0.3615
  741MOL0     C 2147   9.639   5.240   6.186 -0.4527  0.4972 -0.0101
  741MOL0     C 2148   9.555   5.119   6.177  0.0944 -0.0438 -0.3682
  741MOL0     C 2149   9.785   5.236   6.173  0.8707  0.0413 -0.6422
  741MOL0     C 2150   9.860   5.108   6.154  0.6144  0.3760  0.3061
  741MOL0     O 2151   9.945   5.095   6.049 -0.1261  0.2764  0.5940
  741MOL0     C 2152  10.002   4.970   6.032  0.3013 -0.2095  0.5558
  741MOL0     C 2153  10.123   4.930   6.101 -0.5913 -0.4169  0.2568
  741MOL0     C 2154  10.169   4.802   6.081 -0.3852  0.0588 -0.8260
  741MOL0     C 2155  10.110   4.709   5.998  0.3644  0.8195 -0.5607
  741MOL0     O 2156  10.172   4.583   5.988  0.8230 -0.3692  1.2505
  741MOL0     C 2157  10.139   4.503   5.868  0.1353  0.4704 -0.0275
  741MOL0     C 2158  10.205   4.364   5.878  0.4043  0.3491 -0.2534
  741MOL0     C 2159  10.123   4.284   5.978  0.9899  0.0804 -0.1167
  741MOL0     C 2160  10.211   4.179   6.041  0.8320 -0.1104 -0.0357
  741MOL0     C 2161  10.129   4.079   6.107 -1.3276  0.4309 -0.1734
  741MOL0     C 2162  10.207   4.020   6.218  0.2771  0.4324 -0.5762
  741MOL0     C 2163  10.122   3.922   6.305 -0.3307  1.1307 -0.0025
  741MOL0     C 2164  10.219   3.830   6.375 -0.9130  0.3964 -0.4642
  741MOL0    Cl 2165  10.339   3.932   6.474 -0.6295 -0.4498  0.1550
  741MOL0     C 2166   9.990   4.741   5.941 -0.2121 -0.0455 -0.1527
  741MOL0     C 2167   9.942   4.870   5.949 -0.1043  0.4118 -0.8530
  741MOL0     O 2168   9.843   5.022   6.239  0.1235  0.5512  0.1964
  741MOL0     C 2169   9.855   5.358   6.183 -0.1431 -0.2176  0.0636
  741MOL0     C 2170   9.796   5.477   6.221  0.8007  0.1100 -0.1624
  741MOL0     N 2171   9.375   6.139   6.277 -1.2410 -0.5095  0.3111
  741MOL0     N 2172   9.258   6.199   6.303 -1.0564 -0.7047  0.0497
  741MOL0     C 2173   8.091   6.568   6.250  0.4983  0.1784  0.1336
  741MOL0     C 2174   8.029   6.690   6.250  0.3380  0.2579  0.1001
  741MOL0     C 2175   7.921   7.117   6.131  0.1397  0.4701 -0.4512
  741MOL0     C 2176   7.784   7.098   6.123 -0.6911  0.2487  0.4164
  741MOL0     C 2177   7.694   7.204   6.110 -0.0735 -0.7347  0.7703
  741MOL0     C 2178   7.739   7.335   6.109  0.9874  0.9024 -0.7290
  741MOL0     O 2179   7.637   7.430   6.098  0.7016  0.3520 -0.6802
  741MOL0     C 2180   7.664   7.566   6.121  0.4076  0.3650 -0.3605
  741MOL0     C 2181   7.543   7.649   6.095 -0.4400 -0.4985 -0.0971
  741MOL0     C 2182   7.421   7.640   6.184  0.4216 -0.3178  0.3867
  741MOL0     C 2183   7.365   7.494   6.189  0.1304 -1.0317  0.7202
  741MOL0     C 2184   7.210   7.483   6.207 -1.0316 -0.9158 -0.6286
  741MOL0     C 2185   7.093   7.471   6.226 -0.3860 -0.2831 -0.2874
  741MOL0     C 2186   7.877   7.355   6.118 -0.2731 -0.2707 -0.4777
  741MOL0     C 2187   7.981   7.251   6.125  0.0111 -0.6387  0.4875
  741MOL0     C 2188   8.122   7.285   6.138 -0.2170 -0.3267 -0.0751
  741MOL0     H 2189   7.992   6.733   5.923 -0.2314 -0.2574 -0.0339
  741MOL0     H 2190   8.139   6.524   5.923 -0.2958 -3.0557  1.4017
  741MOL0     H 2191   8.406   6.497   6.114  0.8351  0.5307  0.7500
  741MOL0     H 2192   8.416   6.323   6.111 -1.7707 -0.3309  1.2637
  741MOL0     H 2193   8.359   6.513   6.329 -3.1549 -0.9184 -0.9961
  741MOL0     H 2194   8.340   6.338   6.357 -0.2552 -0.2947  0.0431
  741MOL0     H 2195   8.581   6.381   6.427  2.3978  0.8165 -0.4479
  741MOL0     H 2196   8.580   6.296   6.277 -0.3760  0.2269  0.4293
  741MOL0     H 2197   8.639   6.505   6.151  3.2306 -1.8277  0.3860
  741MOL0     H 2198   8.597   6.597   6.293  1.2394  2.7589 -3.2191
  741MOL0     H 2199   8.797   6.496   6.392  0.8870 -1.8390  0.7376
  741MOL0     H 2200   8.837   6.550   6.220 -0.1280 -3.2031 -3.3403
  741MOL0     H 2201   8.794   6.254   6.323  2.3832 -2.3519 -1.3494
  741MOL0     H 2202   8.779   6.299   6.158 -0.7627  0.7402  0.2907
  741MOL0     H 2203   9.015   6.360   6.350 -1.1294  0.9765 -0.4130
  741MOL0     H 2204   9.031   6.352   6.178 -0.4560 -1.3975 -0.8031
  741MOL0     H 2205   9.003   6.110   6.359  3.3681 -0.6257  0.0810
  741MOL0     H 2206   8.963   6.097   6.187  2.4931 -2.7145  0.0694
  741MOL0     H 2207   9.164   5.978   6.073  0.8679 -0.5244 -0.3121
  741MOL0     H 2208   9.558   5.980   6.174 -1.0506  0.0098  1.9241
  741MOL0     H 2209   9.490   6.005   6.010  1.6458 -2.6362 -1.1879
  741MOL0     H 2210   9.367   5.799   6.028 -1.7912  3.3446 -1.0530
  741MOL0     H 2211   9.539   5.787   6.073 -0.1484 -2.7243  2.0677
  741MOL0     H 2212   9.472   5.819   6.314  4.2682 -2.3293 -0.9361
  741MOL0     H 2213   9.305   5.773   6.265 -0.6953 -2.7535 -0.7591
  741MOL0     H 2214   9.418   5.575   6.351 -2.0698  1.5441  0.2726
  741MOL0     H 2215   9.423   5.556   6.176  0.4313 -0.8602  0.4501
  741MOL0     H 2216   9.482   5.360   6.251 -0.3559 -0.8546 -0.0799
  741MOL0     H 2217   9.584   5.044   6.251 -2.9284 -1.7297 -0.7051
  741MOL0     H 2218   9.576   5.077   6.078  0.6558  3.1521 -1.7257
  741MOL0     H 2219   9.451   5.152   6.175  0.0663  0.3314  2.8640
  741MOL0     H 2220  10.165   5.002   6.171  0.6400 -0.6332 -0.2442
  741MOL0     H 2221  10.266   4.777   6.123 -1.0874 -0.2732  0.6510
  741MOL0     H 2222  10.031   4.488   5.864  0.1849  0.1467 -0.1691
  741MOL0     H 2223  10.166   4.556   5.777 -0.9752 -0.0886 -0.7027
  741MOL0     H 2224  10.211   4.313   5.782 -0.1548 -1.5263  0.6722
  741MOL0     H 2225  10.312   4.375   5.898  0.8609  1.1994 -2.7530
  741MOL0     H 2226  10.042   4.232   5.925  0.8158  0.3338 -0.1046
  741MOL0     H 2227  10.075   4.334   6.063 -0.1614 -2.5469  0.8696
  741MOL0     H 2228  10.277   4.227   6.114 -0.5791  0.9938  0.5559
  741MOL0     H 2229  10.264   4.143   5.952 -0.0028  1.4896 -1.2372
  741MOL0     H 2230  10.031   4.114   6.143 -1.6733  1.3956 -1.9706
  741MOL0     H 2231  10.111   3.996   6.039  3.0108 -0.7969 -0.0899
  741MOL0     H 2232  10.233   4.097   6.291  1.8194 -2.5361  2.1918
  741MOL0     H 2233  10.294   3.972   6.174  0.1030 -1.5629  1.1106
  741MOL0     H 2234  10.063   3.866   6.232  1.3591  1.5425 -1.7695
  741MOL0     H 2235  10.048   3.970   6.369 -0.4302  3.7542 -1.9213
  741MOL0     H 2236  10.263   3.772   6.294 -0.4411 -1.0627  0.7872
  741MOL0     H 2237  10.155   3.759   6.429 -0.5761  0.0114 -0.5643
  741MOL0     H 2238   9.944   4.676   5.867 -0.5929 -1.3888  1.1995
  741MOL0     H 2239   9.844   4.883   5.904  0.5920 -0.5368 -2.7752
  741MOL0     H 2240   9.961   5.350   6.160 -0.8250 -3.2211 -2.8115
  741MOL0     H 2241   9.854   5.568   6.237  0.6742  0.4001 -1.2651
  741MOL0     H 2242   8.124   6.520   6.342  4.7778 -1.4836 -1.9669
  741MOL0     H 2243   8.011   6.742   6.343 -1.9541 -1.4290  0.6874
  741MOL0     H 2244   7.731   7.004   6.125 -2.2499  1.0570 -0.5468
  741MOL0     H 2245   7.586   7.194   6.106 -0.2091 -0.0357 -4.8264
  741MOL0     H 2246   7.722   7.580   6.212  0.9637 -1.7081 -0.3567
  741MOL0     H 2247   7.737   7.593   6.044  1.2653  1.0656  0.6647
  741MOL0     H 2248   7.513   7.649   5.990  1.5841  3.2918 -0.8565
  741MOL0     H 2249   7.584   7.748   6.118 -1.1705  0.4340 -2.5321
  741MOL0     H 2250   7.450   7.674   6.284 -3.1334 -0.0379  1.4411
  741MOL0     H 2251   7.343   7.712   6.158  2.0370  0.3212 -3.3693
  741MOL0     H 2252   7.414   7.437   6.269  3.2744  0.1241 -0.2431
  741MOL0     H 2253   7.394   7.442   6.097  1.8083  1.5180 -0.2948
  741MOL0     H 2254   6.994   7.457   6.266 -1.3844  0.8860 -2.2126
  741MOL0     H 2255   7.917   7.455   6.125 -1.2611  0.0475  1.2435
  741MOL0     H 2256   8.129   7.393   6.145  0.2026 -0.4286  1.2130
  741MOL0     H 2257   8.167   7.248   6.230  1.5985 -4.1403 -2.2518
  741MOL0     H 2258   8.182   7.254   6.052  0.7912  2.6053 -0.5153
  742MOL0     O 2259   3.000   0.022  10.136  0.3283 -0.3550  0.8208
  742MOL0     C 2260   2.991   0.049  10.012  0.1432 -0.0202  0.4263
  742MOL0     O 2261   3.095   0.087   9.933  0.3284  0.4156  0.0588
  742MOL0     C 2262   3.205   0.131  10.008 -0.5973  0.3991  0.0051
  742MOL0     C 2263   3.293   0.037  10.057 -0.0165  0.0896  0.4732
  742MOL0     C 2264   3.396   0.073  10.151  0.2811 -0.6878 -0.3972
  742MOL0     C 2265   3.412   0.209  10.179  0.3859 -0.3394  0.4506
  742MOL0     O 2266   3.497   0.232  10.282  0.0095 -0.2711  0.1211
  742MOL0     C 2267   3.555   0.361  10.281 -0.0566 -0.6950 -0.0534
  742MOL0     C 2268   3.676   0.363  10.373 -0.7863 -0.5867 -0.3126
  742MOL0     C 2269   3.786   0.468  10.336 -0.4897  0.0228 -0.3859
  742MOL0     C 2270   3.897   0.468  10.443  1.2656  0.4385  0.0416
  742MOL0     C 2271   3.968   0.609  10.439 -0.3955  0.9221  0.3911
  742MOL0     C 2272   4.040   0.635  10.308  0.2412 -0.7099 -0.0401
  742MOL0     C 2273   4.122   0.761  10.314 -0.0095  0.4343  0.3016
  742MOL0     C 2274   4.035   0.886  10.326  0.5369  0.2805 -0.4343
  742MOL0     N 2275   4.114   1.013  10.315 -0.5503 -0.2103  0.6626
  742MOL0     C 2276   4.223   1.056  10.398  0.4666 -0.4682  0.3127
  742MOL0     C 2277   4.234   1.190  10.376  0.3945 -0.6365 -0.0489
  742MOL0     C 2278   4.340   1.294  10.410 -0.4232  0.3662  0.2572
  742MOL0     C 2279   4.467   1.270  10.329 -0.9001 -0.5079 -0.6871
  742MOL0     C 2280   4.464   1.322  10.182  0.5089 -0.5257  0.2332
  742MOL0     C 2281   4.587   1.289  10.112 -0.2285  0.9354  0.5828
  742MOL0     O 2282   4.626   1.153  10.120 -0.8073  1.2481 -0.7807
  742MOL0     C 2283   4.763   1.136  10.120  0.6085 -0.1929 -0.8540
  742MOL0     C 2284   4.838   1.137  10.240  0.9423 -0.1002 -0.3990
  742MOL0     C 2285   4.975   1.134  10.246 -0.0526 -0.5740  0.2959
  742MOL0     C 2286   5.035   1.162  10.384 -0.8973  0.6029 -0.6052
  742MOL0     C 2287   5.050   1.125  10.119 -0.4074 -0.7078  0.2224
  742MOL0     C 2288   5.198   1.090  10.107  0.6946  0.5444 -0.0474
  742MOL0     O 2289   5.236   1.047   9.972  0.2773 -0.3473 -0.0354
  742MOL0     C 2290   5.359   0.998   9.966  0.1884  0.1315  0.2897
  742MOL0     C 2291   5.474   1.055  10.014 -0.4259 -0.4993  0.6239
  742MOL0     C 2292   5.599   0.996   9.994  0.7589  0.9262  0.2184
  742MOL0     C 2293   5.606   0.865   9.932 -0.4136 -0.8704 -0.8137
  742MOL0     O 2294   5.734   0.813   9.908  0.1295 -0.2604  0.1710
  742MOL0     C 2295   5.744   0.690   9.986 -0.5438 -0.5812  0.0995
  742MOL0     C 2296   5.870   0.624   9.938  0.3598  0.4025 -0.2884
  742MOL0     C 2297   5.849   0.595   9.791 -1.0597  0.0691  0.3587
  742MOL0     C 2298   5.956   0.501   9.739 -0.1277  0.1666  0.4622
  742MOL0     C 2299   5.949   0.507   9.586  1.0025 -0.5097 -0.0855
  742MOL0     C 2300   6.062   0.419   9.521 -0.1714 -0.4124  0.3219
  742MOL0     C 2301   6.071   0.440   9.369  0.2750  0.7072  0.0407
  742MOL0     C 2302   6.166   0.342   9.295 -0.0657  0.0781 -0.9458
  742MOL0    Cl 2303   6.122   0.322   9.120 -0.2325 -0.0652  0.3094
  742MOL0     C 2304   5.498   0.809   9.876  0.7498 -0.1437 -0.2911
  742MOL0     C 2305   5.372   0.871   9.898 -0.8464 -0.6084  0.1876
  742MOL0     O 2306   5.265   1.075  10.210 -0.0395 -0.4945  0.5030
  742MOL0     C 2307   4.970   1.118   9.999  0.2434  0.6358 -0.6298
  742MOL0     C 2308   4.829   1.112  10.006  0.0455 -0.9943  0.6973
  742MOL0     N 2309   4.128   1.232  10.298  0.6902 -0.0382 -0.4341
  742MOL0     N 2310   4.059   1.125  10.265  0.3272 -0.3391 -0.1851
  742MOL0     C 2311   3.335   0.306  10.112  0.1314 -0.9321  0.8302
  742MOL0     C 2312   3.227   0.267  10.039  0.2722 -1.2279  0.5192
  742MOL0     C 2313   2.862   0.038   9.943  0.6319  0.2668  0.5702
  742MOL0     C 2314   2.840   0.124   9.833  0.7567  0.0693  0.3577
  742MOL0     C 2315   2.721   0.124   9.769  0.4243  0.5812 -0.0049
  742MOL0     C 2316   2.619   0.036   9.805 -0.2491  0.5837 -0.1795
  742MOL0     O 2317   2.494   0.058   9.746 -0.1862 -0.0840 -0.2045
  742MOL0     C 2318   2.422  -0.067   9.710  0.6485 -0.2488 -0.2553
  742MOL0     C 2319   2.480  -0.127   9.575  0.1850  0.8390  0.0315
  742MOL0     C 2320   2.435  -0.262   9.528 -0.0823 -0.0066  0.5763
  742MOL0     C 2321   2.285  -0.278   9.557  1.0814 -0.0902  0.1893
  742MOL0     C 2322   2.247  -0.391   9.475 -0.0778  0.9465  0.6511
  742MOL0     C 2323   2.226  -0.497   9.421 -0.8334  0.0281 -0.6275
  742MOL0     C 2324   2.632  -0.036   9.922  0.2876 -0.3384 -0.1685
  742MOL0     C 2325   2.754  -0.045   9.991 -0.1080  0.0725  0.2455
  742MOL0     C 2326   2.767  -0.135  10.109  0.2902  0.3140 -0.4727
  742MOL0     H 2327   3.278  -0.068  10.031  4.4529 -0.4093 -0.9230
  742MOL0     H 2328   3.456  -0.007  10.194 -2.0673 -2.3212  0.0345
  742MOL0     H 2329   3.482   0.431  10.322  0.4962 -0.0525 -0.1354
  742MOL0     H 2330   3.588   0.390  10.181  0.9289 -1.4451  0.0430
  742MOL0     H 2331   3.636   0.398  10.469 -0.0395  0.6829 -0.4483
  742MOL0     H 2332   3.715   0.263  10.396  1.4475  0.4957  1.0024
  742MOL0     H 2333   3.830   0.450  10.238 -2.0225 -1.1115 -0.9181
  742MOL0     H 2334   3.746   0.570  10.344  0.1623  0.2141  0.5837
  742MOL0     H 2335   3.843   0.472  10.538  1.6690 -1.2543  0.3664
  742MOL0     H 2336   3.969   0.385  10.444  2.4374  1.3664 -1.5543
  742MOL0     H 2337   4.045   0.606  10.517  1.5878 -0.5030 -1.4972
  742MOL0     H 2338   3.891   0.685  10.457 -3.1739 -1.1043 -1.9515
  742MOL0     H 2339   4.117   0.559  10.292  1.3894  0.1281  1.1627
  742MOL0     H 2340   3.968   0.634  10.226 -1.8440 -1.0293  1.7098
  742MOL0     H 2341   4.185   0.773  10.225  0.0051  1.6828  0.4638
  742MOL0     H 2342   4.195   0.770  10.395 -0.0705  1.3868  0.2641
  742MOL0     H 2343   3.961   0.875  10.246 -1.1630 -2.2789  1.3422
  742MOL0     H 2344   3.961   0.895  10.405 -2.0842  1.4084 -2.8293
  742MOL0     H 2345   4.287   0.995  10.461 -1.7007 -3.6802 -0.3557
  742MOL0     H 2346   4.365   1.264  10.512  3.3869  0.4066 -0.5465
  742MOL0     H 2347   4.288   1.390  10.414 -3.0631 -0.9622  0.0892
  742MOL0     H 2348   4.547   1.321  10.384  0.2294 -1.4559 -1.4108
  742MOL0     H 2349   4.496   1.165  10.330 -0.4044 -0.3862 -1.4973
  742MOL0     H 2350   4.380   1.270  10.134 -0.1151 -0.3865  1.1602
  742MOL0     H 2351   4.450   1.430  10.183  2.7819 -0.1780  1.2041
  742MOL0     H 2352   4.572   1.310  10.006 -2.3572  0.5699  0.7651
  742MOL0     H 2353   4.674   1.343  10.150  0.1375  0.5018  0.3754
  742MOL0     H 2354   4.774   1.146  10.327 -1.0303 -0.4788 -1.7332
  742MOL0     H 2355   5.042   1.076  10.450  2.3627  1.1425 -0.1021
  742MOL0     H 2356   4.966   1.236  10.428 -0.1688  0.7260  0.3407
  742MOL0     H 2357   5.136   1.202  10.378 -0.3674 -0.3105  1.4325
  742MOL0     H 2358   5.477   1.158  10.046  2.5496 -0.8639  1.7938
  742MOL0     H 2359   5.690   1.053  10.009 -0.7003  4.4780 -2.8676
  742MOL0     H 2360   5.767   0.717  10.090 -0.4275 -1.3109  0.2674
  742MOL0     H 2361   5.658   0.622   9.983  1.1926 -2.8330 -1.1105
  742MOL0     H 2362   5.949   0.698   9.958 -0.5606  1.1514  0.6805
  742MOL0     H 2363   5.886   0.536  10.001  0.5276 -0.3609 -1.3663
  742MOL0     H 2364   5.848   0.691   9.738  1.4029 -0.0586 -0.0166
  742MOL0     H 2365   5.752   0.549   9.770 -2.3054  3.7507 -3.2462
  742MOL0     H 2366   5.949   0.398   9.774 -1.5060 -0.1791 -0.7497
  742MOL0     H 2367   6.050   0.541   9.780  1.0151 -1.8566 -0.0381
  742MOL0     H 2368   5.851   0.472   9.552  0.1360  0.3754  1.3797
  742MOL0     H 2369   5.967   0.612   9.564  2.3246 -0.5400  0.7501
  742MOL0     H 2370   6.034   0.315   9.542 -1.4345 -0.4136 -1.2022
  742MOL0     H 2371   6.161   0.444   9.561  0.7212 -1.0200 -1.3995
  742MOL0     H 2372   6.087   0.544   9.339  1.4114  0.1243 -1.5532
  742MOL0     H 2373   5.975   0.416   9.323 -0.9315  3.6567  0.8073
  742MOL0     H 2374   6.174   0.239   9.333  0.1137  0.0433 -1.0741
  742MOL0     H 2375   6.267   0.384   9.296 -0.6183  1.4841  1.1938
  742MOL0     H 2376   5.502   0.716   9.820 -0.4636 -0.4899  0.1554
  742MOL0     H 2377   5.284   0.825   9.855 -3.9524  4.2462  0.6014
  742MOL0     H 2378   5.010   1.122   9.899  1.9803  0.9177  0.0467
  742MOL0     H 2379   4.778   1.100   9.911  0.8350 -0.1351  0.1491
  742MOL0     H 2380   3.344   0.411  10.135  1.0654 -0.7266 -0.3860
  742MOL0     H 2381   3.163   0.349  10.011  1.2897 -1.0147 -1.3380
  742MOL0     H 2382   2.916   0.194   9.800  1.0818 -1.6131 -2.9638
  742MOL0     H 2383   2.709   0.191   9.685 -0.0278 -3.1084 -3.1786
  742MOL0     H 2384   2.443  -0.145   9.784  0.2555 -0.1286 -0.0116
  742MOL0     H 2385   2.317  -0.040   9.693  1.2487  2.1319 -0.4762
  742MOL0     H 2386   2.589  -0.124   9.586  0.0752 -0.4668  2.0387
  742MOL0     H 2387   2.445  -0.056   9.501 -2.7562 -1.0982 -0.6183
  742MOL0     H 2388   2.456  -0.269   9.421  2.2574 -0.1711  1.0040
  742MOL0     H 2389   2.491  -0.343   9.576 -1.5011 -0.8812  0.8406
  742MOL0     H 2390   2.237  -0.187   9.518  3.2211  0.0381 -2.3868
  742MOL0     H 2391   2.262  -0.284   9.664 -0.8574  0.0878 -0.1704
  742MOL0     H 2392   2.220  -0.582   9.356 -2.4827  1.3335 -2.3042
  742MOL0     H 2393   2.548  -0.093   9.961 -0.6763  0.3143 -1.2243
  742MOL0     H 2394   2.856  -0.196  10.086 -1.6143 -2.0944 -1.9699
  742MOL0     H 2395   2.774  -0.088  10.207  1.7850 -2.3410  0.8253
  742MOL0     H 2396   2.679  -0.198  10.122  1.9730 -1.6914  2.7893
  743MOL0     O 2397  10.952   1.580   6.412  0.3192 -0.0443 -0.9756
  743MOL0     C 2398  11.043   1.650   6.378  0.7988  0.2280  0.1131
  743MOL0     O 2399  11.037   1.770   6.313  0.7619  0.0984  0.1155
  743MOL0     C 2400  10.927   1.786   6.227  0.2031  0.2039  0.2263
  743MOL0     C 2401  10.874   1.682   6.147  0.9544  0.5871  0.3869
  743MOL0     C 2402  10.765   1.712   6.060  1.1763  0.2801  0.0637
  743MOL0     C 2403  10.720   1.845   6.044  0.1119  0.0219  0.3128
  743MOL0     O 2404  10.606   1.865   5.962  0.4471 -0.4196 -0.0898
  743MOL0     C 2405  10.591   2.000   5.919  0.1279 -0.1468  0.1544
  743MOL0     C 2406  10.471   2.003   5.826  0.5550  0.3261 -0.1665
  743MOL0     C 2407  10.465   2.142   5.756 -0.7923  0.0176  0.0362
  743MOL0     C 2408  10.353   2.154   5.640  0.5186  0.6435  0.0332
  743MOL0     C 2409  10.338   2.301   5.591  0.0861 -0.6671 -0.2022
  743MOL0     C 2410  10.467   2.353   5.519 -0.6541 -0.7390  0.2142
  743MOL0     C 2411  10.451   2.488   5.454 -0.7947  0.1927 -0.1019
  743MOL0     C 2412  10.573   2.570   5.449 -0.8164  0.2523 -0.0292
  743MOL0     N 2413  10.676   2.491   5.380 -0.1196 -0.1685 -0.5270
  743MOL0     C 2414  10.691   2.483   5.246 -0.3744 -0.5867 -0.1110
  743MOL0     C 2415  10.818   2.447   5.222 -0.1488  0.3928 -0.2054
  743MOL0     C 2416  10.873   2.430   5.085  0.3914 -0.1067  0.0573
  743MOL0     C 2417  11.001   2.339   5.087  0.5747  0.2209  1.1319
  743MOL0     C 2418  11.033   2.319   4.935 -0.4684  0.6911 -0.1841
  743MOL0     C 2419  11.177   2.272   4.916 -0.6003 -0.6212 -0.0608
  743MOL0     O 2420  11.275   2.372   4.919 -0.3644 -0.2696  0.2565
  743MOL0     C 2421  11.407   2.325   4.913  0.8573 -1.4695 -0.0180
  743MOL0     C 2422  11.498   2.413   4.971 -0.4141  0.2384  0.7229
  743MOL0     C 2423  11.637   2.391   4.970  0.9288  0.0373 -0.4573
  743MOL0     C 2424  11.726   2.486   5.045  0.2376 -0.1153  0.5135
  743MOL0     C 2425  11.687   2.272   4.919  0.2907  0.2793  0.9418
  743MOL0     C 2426  11.833   2.246   4.909  0.5558  0.4559  0.1067
  743MOL0     O 2427  11.911   2.346   4.860 -0.2263  0.6323  0.7382
  743MOL0     C 2428  12.045   2.328   4.860 -1.1314  0.0451 -0.4174
  743MOL0     C 2429  12.123   2.295   4.975  0.9515 -0.7927  0.2655
  743MOL0     C 2430  12.259   2.283   4.962 -0.2443 -0.7434 -0.1759
  743MOL0     C 2431  12.325   2.305   4.844  0.6213 -0.2036  0.8880
  743MOL0     O 2432  12.459   2.285   4.844  0.0578  0.3701 -0.5116
  743MOL0     C 2433  12.535   2.280   4.726 -0.3832 -0.1038  0.1445
  743MOL0     C 2434  12.682   2.266   4.760  0.5057 -0.4715 -0.0091
  743MOL0     C 2435  12.699   2.144   4.841 -0.3830  0.4034 -0.1219
  743MOL0     C 2436  12.841   2.089   4.817  0.2296  1.0886  0.1733
  743MOL0     C 2437  12.864   1.953   4.878 -0.1339 -0.2566  0.0929
  743MOL0     C 2438  12.967   1.875   4.793  0.0799 -1.0367  0.0776
  743MOL0     C 2439  13.042   1.754   4.839 -0.5585 -0.3868 -0.8011
  743MOL0     C 2440  13.127   1.683   4.736 -0.2648 -0.6958 -0.2126
  743MOL0    Cl 2441  13.019   1.616   4.615 -0.1083 -0.0350 -0.2836
  743MOL0     C 2442  12.253   2.345   4.732  1.1870  0.2037 -0.3123
  743MOL0     C 2443  12.114   2.355   4.739 -0.5115  0.6416  0.2601
  743MOL0     O 2444  11.871   2.133   4.927  0.1986  0.4654 -0.0699
  743MOL0     C 2445  11.594   2.185   4.859  0.4286  0.3100 -1.0043
  743MOL0     C 2446  11.458   2.202   4.867  0.4231 -0.2091 -0.3098
  743MOL0     N 2447  10.883   2.437   5.346  0.0296 -0.5626  0.7658
  743MOL0     N 2448  10.805   2.471   5.438  0.6151 -0.3326  0.5725
  743MOL0     C 2449  10.785   1.949   6.119  0.1411  0.4386  0.1350
  743MOL0     C 2450  10.887   1.916   6.209 -1.0494  0.7317 -1.5637
  743MOL0     C 2451  11.178   1.618   6.417 -0.7379  0.2046  0.5593
  743MOL0     C 2452  11.260   1.719   6.460 -0.2129  0.5337 -0.2442
  743MOL0     C 2453  11.390   1.690   6.494 -0.4422  0.3968 -0.5413
  743MOL0     C 2454  11.441   1.562   6.495 -0.8924  0.0920  0.6800
  743MOL0     O 2455  11.576   1.529   6.528  0.1730 -0.2058  0.2704
  743MOL0     C 2456  11.626   1.579   6.654 -0.3325  0.1969  0.4501
  743MOL0     C 2457  11.734   1.472   6.693  0.4720  0.3242 -0.5995
  743MOL0     C 2458  11.796   1.511   6.822 -0.2361  0.3331  1.1798
  743MOL0     C 2459  11.869   1.392   6.876  0.5828  0.3458 -0.1431
  743MOL0     C 2460  11.948   1.323   6.775 -0.9076 -0.3745  0.0125
  743MOL0     C 2461  12.029   1.288   6.689  0.4374 -0.2838  0.3103
  743MOL0     C 2462  11.362   1.458   6.434 -0.3317  0.3476 -0.2378
  743MOL0     C 2463  11.226   1.492   6.403 -0.7009  0.6555 -0.3726
  743MOL0     C 2464  11.147   1.367   6.367 -0.2129  1.2428  0.6244
  743MOL0     H 2465  10.923   1.585   6.146 -0.1457 -0.0057 -1.8477
  743MOL0     H 2466  10.719   1.630   6.007 -1.1490  0.0549  2.2442
  743MOL0     H 2467  10.677   2.027   5.859 -1.2033  1.2111 -1.2309
  743MOL0     H 2468  10.579   2.064   6.007  1.9218  0.2548  0.1308
  743MOL0     H 2469  10.475   1.918   5.758 -0.4172 -0.1124  0.3017
  743MOL0     H 2470  10.381   1.990   5.888  1.4668 -0.6115  0.9983
  743MOL0     H 2471  10.445   2.217   5.833 -1.3038  1.0029 -1.0272
  743MOL0     H 2472  10.563   2.168   5.715  0.8238 -2.3122  2.1846
  743MOL0     H 2473  10.389   2.095   5.556  0.1601 -0.7464  0.8339
  743MOL0     H 2474  10.256   2.117   5.673  0.3873  1.6027  0.7814
  743MOL0     H 2475  10.316   2.361   5.679  3.0950 -1.7016  1.4090
  743MOL0     H 2476  10.259   2.301   5.516 -0.0921 -0.6290 -0.0147
  743MOL0     H 2477  10.558   2.352   5.579  0.8305 -1.0455 -1.9400
  743MOL0     H 2478  10.499   2.279   5.444  1.1625 -1.1119  1.2912
  743MOL0     H 2479  10.368   2.535   5.508 -0.1152  0.3318  0.8386
  743MOL0     H 2480  10.407   2.468   5.356  1.4660  0.5167 -1.2293
  743MOL0     H 2481  10.553   2.667   5.403  0.5858  0.7434  0.3189
  743MOL0     H 2482  10.591   2.606   5.551 -0.0208 -0.4062  0.0758
  743MOL0     H 2483  10.621   2.498   5.164 -1.3633  1.2604  1.0167
  743MOL0     H 2484  10.887   2.526   5.033 -2.5627 -0.6632 -2.0806
  743MOL0     H 2485  10.794   2.380   5.028 -1.3817  0.9552  1.4824
  743MOL0     H 2486  11.081   2.387   5.144 -1.5293  3.1275  1.8718
  743MOL0     H 2487  10.974   2.237   5.116  1.3939 -1.2913 -2.7779
  743MOL0     H 2488  10.979   2.235   4.892  0.4402  0.4241 -0.8078
  743MOL0     H 2489  11.021   2.411   4.877  1.1461  0.5043 -0.8702
  743MOL0     H 2490  11.193   2.192   4.989 -0.6471 -3.6359 -3.0907
  743MOL0     H 2491  11.185   2.215   4.823  2.3002 -0.3957 -0.0261
  743MOL0     H 2492  11.464   2.508   5.010 -1.1387  0.8583 -1.2708
  743MOL0     H 2493  11.666   2.551   5.109  0.0351  0.5554 -0.3481
  743MOL0     H 2494  11.776   2.544   4.967 -1.3350  0.1196 -0.3565
  743MOL0     H 2495  11.807   2.435   5.099  3.8416  2.0216 -2.3672
  743MOL0     H 2496  12.077   2.284   5.072 -0.2268 -2.8657 -0.4680
  743MOL0     H 2497  12.303   2.256   5.058 -0.2372 -0.4953 -0.1073
  743MOL0     H 2498  12.496   2.194   4.671 -0.9607 -0.2321  0.7495
  743MOL0     H 2499  12.529   2.375   4.672 -0.1500 -0.9595 -1.4407
  743MOL0     H 2500  12.736   2.266   4.665  0.1973 -0.0365 -0.1881
  743MOL0     H 2501  12.724   2.356   4.804 -1.0142  0.6050 -0.6860
  743MOL0     H 2502  12.624   2.071   4.809 -1.4498  0.7776  1.4199
  743MOL0     H 2503  12.688   2.172   4.946  1.3990  1.8895 -0.2902
  743MOL0     H 2504  12.915   2.163   4.849  1.4004  0.7632 -1.6730
  743MOL0     H 2505  12.853   2.080   4.709 -3.4689  2.8378 -0.5450
  743MOL0     H 2506  12.885   1.973   4.983 -1.1286 -1.5629  0.5568
  743MOL0     H 2507  12.774   1.891   4.867 -0.0739 -0.9545  2.8181
  743MOL0     H 2508  13.055   1.940   4.790 -1.1437  0.6612 -0.6136
  743MOL0     H 2509  12.930   1.861   4.691 -0.8854  2.9804 -0.3337
  743MOL0     H 2510  12.975   1.675   4.876 -2.8704  1.9683  0.4414
  743MOL0     H 2511  13.099   1.794   4.923 -0.2202  0.2488 -1.3219
  743MOL0     H 2512  13.182   1.601   4.785  1.0262  0.7332  0.8184
  743MOL0     H 2513  13.196   1.755   4.693 -0.5322  1.3503  2.5005
  743MOL0     H 2514  12.295   2.368   4.634 -2.1602 -1.0048 -2.2190
  743MOL0     H 2515  12.062   2.373   4.645 -4.1455 -0.5284  1.8727
  743MOL0     H 2516  11.630   2.095   4.810  0.3418  1.2477 -2.8702
  743MOL0     H 2517  11.403   2.124   4.815 -1.4109  0.8356 -0.0426
  743MOL0     H 2518  10.763   2.055   6.117 -0.1791  0.3610 -0.9359
  743MOL0     H 2519  10.932   1.984   6.281 -2.9742 -1.6666  2.2279
  743MOL0     H 2520  11.228   1.823   6.468 -0.7173  0.2487  3.8997
  743MOL0     H 2521  11.445   1.769   6.544 -0.7659  1.6293 -2.0731
  743MOL0     H 2522  11.672   1.677   6.639  0.4548 -0.5177 -2.1239
  743MOL0     H 2523  11.547   1.584   6.731  1.4996  0.0728  2.4300
  743MOL0     H 2524  11.814   1.472   6.617  0.2396 -0.5346 -0.8561
  743MOL0     H 2525  11.691   1.372   6.698 -2.2190  1.4486  0.7550
  743MOL0     H 2526  11.858   1.599   6.804  1.3401 -0.1161  3.9223
  743MOL0     H 2527  11.716   1.530   6.895 -2.6717  1.1709 -1.4993
  743MOL0     H 2528  11.797   1.321   6.919  1.9941 -1.2356 -0.2730
  743MOL0     H 2529  11.935   1.425   6.957 -2.3053 -0.6127  2.8228
  743MOL0     H 2530  12.106   1.251   6.625  0.9530 -1.0944  1.3626
  743MOL0     H 2531  11.394   1.355   6.428 -0.5247  0.3153 -0.7437
  743MOL0     H 2532  11.070   1.379   6.291  1.4815 -0.5099 -1.5333
  743MOL0     H 2533  11.206   1.288   6.318  0.3139  1.2464  1.2336
  743MOL0     H 2534  11.113   1.321   6.460  0.5263  0.8180  0.6911
  744MOL0     O 2535   7.717   6.256  10.644  0.7429 -0.0547  0.7290
  744MOL0     C 2536   7.642   6.348  10.666  0.6730 -0.0431 -0.2918
  744MOL0     O 2537   7.582   6.426  10.574 -0.4314  0.4996  0.4566
  744MOL0     C 2538   7.627   6.417  10.447 -0.0592 -0.7545  0.4027
  744MOL0     C 2539   7.754   6.454  10.407  0.4129 -0.9427 -0.0348
  744MOL0     C 2540   7.814   6.424  10.286 -0.2192 -0.0063 -0.9611
  744MOL0     C 2541   7.745   6.347  10.192 -0.3755  0.1692 -0.0931
  744MOL0     O 2542   7.821   6.294  10.090 -0.1297 -0.6598  0.0796
  744MOL0     C 2543   7.761   6.182  10.018  1.2345  0.7243  0.1428
  744MOL0     C 2544   7.860   6.135   9.897 -0.2876 -0.2680 -0.3131
  744MOL0     C 2545   8.002   6.188   9.910 -0.2110 -0.8144  0.1105
  744MOL0     C 2546   8.074   6.118  10.026  0.1267  0.2474 -0.0636
  744MOL0     C 2547   8.190   6.200  10.086 -0.0820  1.1354 -0.0116
  744MOL0     C 2548   8.300   6.220   9.988 -0.6710 -0.5625  0.1948
  744MOL0     C 2549   8.417   6.279  10.067  0.6248  0.0692 -0.2419
  744MOL0     C 2550   8.509   6.373   9.975  0.0066  0.3743 -0.2214
  744MOL0     N 2551   8.642   6.386  10.032  0.7149  0.1537 -0.1479
  744MOL0     C 2552   8.662   6.422  10.163  0.0175  0.3201  0.8230
  744MOL0     C 2553   8.781   6.369  10.189  0.0595 -0.4857 -0.1353
  744MOL0     C 2554   8.852   6.381  10.329  0.0846  0.2448  0.3309
  744MOL0     C 2555   8.968   6.485  10.322 -0.5171  0.0024  0.6481
  744MOL0     C 2556   9.046   6.507  10.444  0.3103 -0.5455  0.2408
  744MOL0     C 2557   9.160   6.622  10.416 -0.2995 -0.1123  0.5966
  744MOL0     O 2558   9.106   6.757  10.386 -0.3138 -0.2778  1.0708
  744MOL0     C 2559   9.184   6.869  10.388  0.1405  0.3177 -0.0554
  744MOL0     C 2560   9.180   6.965  10.281  0.8503  0.4012  0.0528
  744MOL0     C 2561   9.268   7.077  10.288  0.3960 -0.6466  0.0926
  744MOL0     C 2562   9.261   7.168  10.162  0.3625 -0.0867 -0.5365
  744MOL0     C 2563   9.352   7.097  10.401 -0.1948  0.4998  0.4170
  744MOL0     C 2564   9.453   7.211  10.418 -0.1216 -0.1322  0.1119
  744MOL0     O 2565   9.569   7.190  10.487  0.9514  0.3491  0.4503
  744MOL0     C 2566   9.652   7.294  10.518  0.5863  0.1070  0.1792
  744MOL0     C 2567   9.604   7.425  10.556  0.0064 -1.0431 -0.5836
  744MOL0     C 2568   9.701   7.534  10.570  0.7101 -0.1181 -0.6666
  744MOL0     C 2569   9.833   7.509  10.564  0.0453 -0.0425 -0.4090
  744MOL0     O 2570   9.919   7.616  10.599  0.0149  0.1604  0.2705
  744MOL0     C 2571  10.065   7.595  10.616  0.8574 -0.2992  0.6539
  744MOL0     C 2572  10.129   7.730  10.601  0.1409 -0.5913 -0.7185
  744MOL0     C 2573  10.290   7.715  10.612  0.4364  0.2481 -0.2034
  744MOL0     C 2574  10.351   7.620  10.506  0.4723 -0.4201 -0.8380
  744MOL0     C 2575  10.498   7.642  10.483 -0.2308  0.4463  0.2803
  744MOL0     C 2576  10.569   7.528  10.412 -0.4286 -0.7713  0.3608
  744MOL0     C 2577  10.721   7.557  10.401 -0.2386 -0.2773  0.4024
  744MOL0     C 2578  10.818   7.467  10.310  0.1704  0.0109  0.2563
  744MOL0    Cl 2579  10.800   7.509  10.139  0.0050  0.2943  0.4596
  744MOL0     C 2580   9.873   7.375  10.544 -1.0569  0.0074 -0.0918
  744MOL0     C 2581   9.784   7.278  10.526 -0.0710  0.4237 -0.4752
  744MOL0     O 2582   9.440   7.305  10.338 -0.3164  0.9575 -0.4898
  744MOL0     C 2583   9.358   7.001  10.504  0.4898  0.3745  1.3026
  744MOL0     C 2584   9.272   6.891  10.493  0.2245  0.3883 -0.8625
  744MOL0     N 2585   8.829   6.291  10.083  0.2040 -0.0538 -0.0465
  744MOL0     N 2586   8.748   6.307   9.985  0.8493 -0.4531 -0.3609
  744MOL0     C 2587   7.603   6.314  10.227 -0.6268  0.1561 -0.2386
  744MOL0     C 2588   7.547   6.355  10.356 -0.7532 -0.4446  0.8896
  744MOL0     C 2589   7.614   6.372  10.812 -0.6605  0.0535  0.3368
  744MOL0     C 2590   7.711   6.342  10.910  0.0980  0.1565  0.0455
  744MOL0     C 2591   7.693   6.373  11.038  0.5340  0.1876  0.6170
  744MOL0     C 2592   7.574   6.434  11.086 -0.9131 -0.6293 -0.0973
  744MOL0     O 2593   7.566   6.461  11.221 -0.4523 -0.3248  1.0110
  744MOL0     C 2594   7.474   6.530  11.286 -0.2293  0.2213  0.2186
  744MOL0     C 2595   7.370   6.424  11.329  0.1032  0.0742  0.2909
  744MOL0     C 2596   7.283   6.475  11.444  1.2164 -0.3636 -0.0092
  744MOL0     C 2597   7.140   6.496  11.396 -0.0268 -0.2312 -0.1078
  744MOL0     C 2598   7.142   6.634  11.343  0.0548  1.7514  0.6052
  744MOL0     C 2599   7.146   6.749  11.298 -0.2271 -0.9559  0.7669
  744MOL0     C 2600   7.477   6.464  10.992  0.6324 -0.3303  0.4788
  744MOL0     C 2601   7.497   6.437  10.858 -0.5424 -0.2199  0.6494
  744MOL0     C 2602   7.379   6.472  10.764  0.1926  0.2931  0.1107
  744MOL0     H 2603   7.805   6.520  10.477 -0.0617  0.3836 -0.9033
  744MOL0     H 2604   7.917   6.453  10.268  0.7336 -2.3105  0.4209
  744MOL0     H 2605   7.663   6.193   9.970  0.8865  4.8281  1.3911
  744MOL0     H 2606   7.753   6.095  10.083 -0.3211  0.6559 -0.0941
  744MOL0     H 2607   7.850   6.026   9.896  0.0648 -0.2939 -1.0280
  744MOL0     H 2608   7.818   6.154   9.798  0.8726  1.2420 -0.5465
  744MOL0     H 2609   8.055   6.166   9.817 -0.4239  1.9356 -0.7396
  744MOL0     H 2610   8.012   6.296   9.922 -0.6564 -0.7316 -0.2427
  744MOL0     H 2611   8.003   6.106  10.109 -0.9791  2.1404 -0.6713
  744MOL0     H 2612   8.109   6.024   9.984 -1.0800 -0.2260 -0.0681
  744MOL0     H 2613   8.232   6.145  10.171 -0.9008 -1.7424 -1.3604
  744MOL0     H 2614   8.150   6.296  10.119 -1.8402  0.2134  0.6509
  744MOL0     H 2615   8.325   6.125   9.941 -0.1019  0.4343 -1.6305
  744MOL0     H 2616   8.280   6.291   9.907 -4.2242 -1.0738  0.4276
  744MOL0     H 2617   8.469   6.195  10.114 -0.0375 -1.9610 -2.8218
  744MOL0     H 2618   8.377   6.351  10.138  1.4983  1.6635 -1.3090
  744MOL0     H 2619   8.516   6.328   9.876  2.6475  0.9334 -0.3520
  744MOL0     H 2620   8.468   6.474   9.961  2.6072  1.4429 -0.8205
  744MOL0     H 2621   8.596   6.479  10.229 -1.5003  0.4837 -0.7737
  744MOL0     H 2622   8.889   6.282  10.358 -1.6160 -0.7940 -0.8267
  744MOL0     H 2623   8.780   6.389  10.411 -0.1055  2.8629 -0.0191
  744MOL0     H 2624   9.041   6.457  10.246 -0.6653 -2.6833  1.4101
  744MOL0     H 2625   8.924   6.580  10.288 -1.7892 -0.5701  0.6394
  744MOL0     H 2626   8.976   6.533  10.525 -2.0836 -2.3314 -1.1078
  744MOL0     H 2627   9.102   6.419  10.475  0.7828 -0.1670  0.4852
  744MOL0     H 2628   9.235   6.625  10.496  0.5973 -0.5751 -0.2132
  744MOL0     H 2629   9.214   6.588  10.328 -1.1370  1.5524 -0.6310
  744MOL0     H 2630   9.108   6.953  10.200 -1.0400  0.6675  1.6256
  744MOL0     H 2631   9.208   7.135  10.073 -1.3728  0.5293  0.2239
  744MOL0     H 2632   9.365   7.188  10.136  0.6323 -0.4360  0.2384
  744MOL0     H 2633   9.216   7.266  10.182 -6.8088 -3.0037  0.4500
  744MOL0     H 2634   9.502   7.445  10.586  1.3808  0.5318  3.8425
  744MOL0     H 2635   9.666   7.635  10.586  0.3066 -0.2097 -0.9555
  744MOL0     H 2636  10.073   7.546  10.714 -2.3609  0.9848  1.6937
  744MOL0     H 2637  10.108   7.534  10.536  0.3438  1.4855 -1.0384
  744MOL0     H 2638  10.095   7.770  10.505  1.0110 -2.8428 -2.0456
  744MOL0     H 2639  10.099   7.796  10.683 -1.6612 -1.1323 -0.9031
  744MOL0     H 2640  10.306   7.688  10.717 -1.0324 -0.2381 -0.0791
  744MOL0     H 2641  10.335   7.810  10.582 -0.0368  0.3475 -0.6136
  744MOL0     H 2642  10.293   7.634  10.414  0.7290  0.3397 -0.8952
  744MOL0     H 2643  10.333   7.519  10.543 -1.3871  0.5136  0.9874
  744MOL0     H 2644  10.517   7.739  10.435  0.2058 -0.8971 -2.4845
  744MOL0     H 2645  10.542   7.647  10.583  0.6448 -0.1110 -0.0708
  744MOL0     H 2646  10.526   7.526  10.311  1.3021  1.4990 -0.5037
  744MOL0     H 2647  10.548   7.431  10.458  0.5507  1.3612  6.0159
  744MOL0     H 2648  10.764   7.555  10.501 -1.1688 -0.6590  0.7983
  744MOL0     H 2649  10.717   7.657  10.357  1.3473  0.2113  1.2746
  744MOL0     H 2650  10.797   7.361  10.326 -4.0406  0.8189  1.3460
  744MOL0     H 2651  10.922   7.481  10.340  0.1609  0.2151  0.1950
  744MOL0     H 2652   9.973   7.342  10.517 -1.0522 -0.1164  0.0733
  744MOL0     H 2653   9.816   7.176  10.506  0.0392  0.3053  0.2858
  744MOL0     H 2654   9.419   7.019  10.592  0.5557 -0.3365  1.4079
  744MOL0     H 2655   9.280   6.817  10.572  0.1139  0.4095 -0.8309
  744MOL0     H 2656   7.540   6.252  10.164 -0.7091  1.5400 -1.5825
  744MOL0     H 2657   7.446   6.322  10.377 -0.6388 -0.4404  1.4748
  744MOL0     H 2658   7.808   6.304  10.882  1.2236  2.3581  0.7539
  744MOL0     H 2659   7.766   6.350  11.115 -1.9076 -0.8106  2.7847
  744MOL0     H 2660   7.515   6.576  11.377  0.5136  0.5016 -0.2533
  744MOL0     H 2661   7.425   6.604  11.223 -0.7147 -0.0851  0.2316
  744MOL0     H 2662   7.417   6.342  11.384  0.3017  0.4849  0.7459
  744MOL0     H 2663   7.318   6.390  11.239  0.0941 -0.7498  0.5922
  744MOL0     H 2664   7.270   6.392  11.515 -1.1975 -1.9484 -2.1032
  744MOL0     H 2665   7.326   6.561  11.496  0.4356 -0.0144  0.0762
  744MOL0     H 2666   7.069   6.486  11.478 -2.8347 -1.9238 -2.5136
  744MOL0     H 2667   7.109   6.423  11.321 -2.2400  3.4086 -3.0763
  744MOL0     H 2668   7.154   6.843  11.248  2.4877 -0.2032  2.3770
  744MOL0     H 2669   7.387   6.516  11.021 -0.2053 -1.6259  0.3091
  744MOL0     H 2670   7.292   6.498  10.825  0.8748  0.4317  1.0487
  744MOL0     H 2671   7.406   6.559  10.703  2.7210  0.4972  1.3738
  744MOL0     H 2672   7.354   6.380  10.711  2.6140 -1.1300  1.2961
  745MOL0     O 2673   9.271   5.479   3.441 -0.3416  0.5560  0.3929
  745MOL0     C 2674   9.219   5.410   3.354 -0.2896  0.2901  0.3161
  745MOL0     O 2675   9.246   5.279   3.324 -0.2171  0.3866  0.3415
  745MOL0     C 2676   9.356   5.217   3.377  0.2889  0.2029 -0.0852
  745MOL0     C 2677   9.423   5.132   3.288 -1.1528 -1.0810  0.9863
  745MOL0     C 2678   9.542   5.063   3.323  0.4503 -0.2348  0.4064
  745MOL0     C 2679   9.598   5.098   3.449 -0.3189 -0.1312  0.2612
  745MOL0     O 2680   9.726   5.046   3.461 -0.2511 -0.2827  0.3031
  745MOL0     C 2681   9.825   5.134   3.521  0.3324 -0.4911  0.1093
  745MOL0     C 2682   9.852   5.093   3.662  0.0945  0.1547 -0.6857
  745MOL0     C 2683   9.862   4.945   3.690 -1.1108  0.8260  0.2127
  745MOL0     C 2684   9.892   4.898   3.831 -0.2541  0.5531 -0.9888
  745MOL0     C 2685   9.855   4.752   3.845 -1.1256  0.3565  0.2696
  745MOL0     C 2686   9.930   4.659   3.748 -0.0313  0.7637  0.2943
  745MOL0     C 2687   9.921   4.505   3.773 -0.5193 -0.0330  0.2794
  745MOL0     C 2688   9.787   4.453   3.722  0.9617  0.0997 -0.8470
  745MOL0     N 2689   9.779   4.314   3.706 -0.1266  0.6219  0.0205
  745MOL0     C 2690   9.765   4.257   3.590  0.1182  0.9303  0.4584
  745MOL0     C 2691   9.794   4.125   3.607 -0.8336  0.2267  0.1444
  745MOL0     C 2692   9.791   4.014   3.511  0.4749 -0.8236 -0.5392
  745MOL0     C 2693   9.651   3.953   3.510 -1.2808 -0.0920 -0.0596
  745MOL0     C 2694   9.668   3.806   3.474  0.4744  0.1795  0.3524
  745MOL0     C 2695   9.538   3.712   3.464  0.2747 -1.0792  0.2583
  745MOL0     O 2696   9.437   3.771   3.378  0.1456  0.0190  0.0651
  745MOL0     C 2697   9.319   3.704   3.374 -0.1491 -0.0867  0.0968
  745MOL0     C 2698   9.220   3.775   3.309 -0.1661 -0.4123 -0.0765
  745MOL0     C 2699   9.091   3.728   3.295  0.0376 -0.3155 -0.7742
  745MOL0     C 2700   8.983   3.815   3.237 -0.5531  0.2049 -1.3932
  745MOL0     C 2701   9.060   3.597   3.336 -0.0839 -0.5565  0.1562
  745MOL0     C 2702   8.940   3.532   3.300  0.1492  0.1693 -0.2504
  745MOL0     O 2703   8.848   3.536   3.395  0.0699  0.0953 -0.5524
  745MOL0     C 2704   8.715   3.504   3.359  0.8144 -0.6991 -0.3124
  745MOL0     C 2705   8.644   3.589   3.263 -0.0549  1.0791 -0.6317
  745MOL0     C 2706   8.520   3.549   3.208  1.0531  0.5479 -0.5457
  745MOL0     C 2707   8.454   3.444   3.257  0.2085 -0.2409  0.3308
  745MOL0     O 2708   8.328   3.420   3.203 -0.2653  0.2189  0.1556
  745MOL0     C 2709   8.262   3.296   3.250 -0.2886  0.1044  0.4920
  745MOL0     C 2710   8.137   3.282   3.162 -0.0971 -0.2210  0.3885
  745MOL0     C 2711   8.074   3.143   3.161 -0.8912  0.3499  0.2450
  745MOL0     C 2712   7.987   3.129   3.290  0.0072  1.3477  0.7482
  745MOL0     C 2713   7.929   2.985   3.296 -0.0361  0.6460 -0.1556
  745MOL0     C 2714   7.859   2.969   3.428  1.0947 -0.7139  0.3967
  745MOL0     C 2715   7.847   2.820   3.451  0.3341 -0.1332  0.2485
  745MOL0     C 2716   7.782   2.782   3.581 -1.2982 -0.5932 -0.2233
  745MOL0    Cl 2717   7.870   2.845   3.718 -0.0654 -0.2324  0.6154
  745MOL0     C 2718   8.518   3.367   3.363 -0.1096  0.9733 -0.1459
  745MOL0     C 2719   8.645   3.397   3.423 -0.0077 -0.2354  0.4361
  745MOL0     O 2720   8.936   3.477   3.186  0.3639  0.2643 -0.6520
  745MOL0     C 2721   9.160   3.522   3.402  0.4542  0.3373  0.1466
  745MOL0     C 2722   9.283   3.578   3.427  0.3580 -1.2454  0.3141
  745MOL0     N 2723   9.838   4.111   3.740  0.2237  0.3842 -0.7620
  745MOL0     N 2724   9.821   4.227   3.796 -0.0782 -0.2847 -0.8113
  745MOL0     C 2725   9.531   5.172   3.542 -0.1078 -0.2415 -0.4436
  745MOL0     C 2726   9.408   5.231   3.507 -0.5428  0.1257 -0.4621
  745MOL0     C 2727   9.121   5.480   3.262  0.1564 -0.2963  0.7943
  745MOL0     C 2728   9.046   5.599   3.307  0.0078  0.0478 -0.2759
  745MOL0     C 2729   8.932   5.642   3.247  0.5575  0.5090  0.1649
  745MOL0     C 2730   8.891   5.586   3.122 -1.0696  0.2707  0.3031
  745MOL0     O 2731   8.773   5.606   3.056 -0.0809 -0.0579 -0.3370
  745MOL0     C 2732   8.682   5.698   3.122 -0.3787 -0.0060 -1.2641
  745MOL0     C 2733   8.546   5.695   3.052  0.0206 -0.1432  0.0435
  745MOL0     C 2734   8.437   5.775   3.120 -0.2273  0.4645 -0.0899
  745MOL0     C 2735   8.299   5.778   3.039  0.0766  0.2611  0.2081
  745MOL0     C 2736   8.299   5.820   2.903  0.6761 -0.4823 -0.6535
  745MOL0     C 2737   8.314   5.869   2.797  0.6455  0.2837  0.3104
  745MOL0     C 2738   8.970   5.489   3.070 -0.1779  0.3127  0.1672
  745MOL0     C 2739   9.084   5.433   3.133 -0.4897 -0.2962  0.0023
  745MOL0     C 2740   9.146   5.313   3.063 -0.4619 -0.2435 -0.8009
  745MOL0     H 2741   9.371   5.123   3.193 -3.4877 -0.0220  2.0795
  745MOL0     H 2742   9.588   4.988   3.260 -0.2067 -0.2802 -0.0345
  745MOL0     H 2743   9.802   5.241   3.520  3.9615  0.4102  0.1241
  745MOL0     H 2744   9.912   5.133   3.455 -0.4408  3.7601 -1.2540
  745MOL0     H 2745   9.952   5.126   3.688  0.4359 -0.1323 -1.5795
  745MOL0     H 2746   9.776   5.137   3.727  0.8100  0.2630  0.0896
  745MOL0     H 2747   9.762   4.904   3.673  0.0102 -3.4226  2.2669
  745MOL0     H 2748   9.933   4.891   3.626 -0.2865 -0.0209  1.7718
  745MOL0     H 2749   9.997   4.901   3.861 -0.5549 -0.9649  0.3633
  745MOL0     H 2750   9.834   4.956   3.903 -0.1196 -1.1289  0.5564
  745MOL0     H 2751   9.747   4.749   3.823 -1.0938 -1.8590  0.2141
  745MOL0     H 2752   9.874   4.729   3.950  0.5219  0.5864  0.0411
  745MOL0     H 2753   9.910   4.680   3.643  3.6192 -3.1465 -1.5179
  745MOL0     H 2754  10.037   4.683   3.758  0.3919  0.5957 -2.7383
  745MOL0     H 2755   9.928   4.482   3.880 -0.7951 -1.9809 -0.0780
  745MOL0     H 2756  10.001   4.464   3.712 -0.4556 -0.0892  0.4006
  745MOL0     H 2757   9.716   4.490   3.797 -0.7768 -3.9689 -0.2534
  745MOL0     H 2758   9.753   4.505   3.632 -0.6748  1.7884  0.6321
  745MOL0     H 2759   9.719   4.301   3.502 -0.4564  0.2188  0.3906
  745MOL0     H 2760   9.870   3.948   3.547  0.0242 -0.0767  2.0109
  745MOL0     H 2761   9.818   4.048   3.411 -0.6916 -1.8067 -1.2161
  745MOL0     H 2762   9.607   3.972   3.609 -0.2893  3.0578 -0.1088
  745MOL0     H 2763   9.593   4.012   3.440 -0.9864  2.5128  1.7457
  745MOL0     H 2764   9.719   3.804   3.378 -3.3054  4.7909 -2.2246
  745MOL0     H 2765   9.729   3.764   3.554 -2.1814 -2.0576  1.3980
  745MOL0     H 2766   9.582   3.623   3.419  1.0232 -0.4764 -0.2258
  745MOL0     H 2767   9.487   3.686   3.558 -1.3480 -1.3934 -0.6691
  745MOL0     H 2768   9.255   3.869   3.267  0.2060  1.2910  3.6846
  745MOL0     H 2769   8.930   3.778   3.149 -2.9061 -1.3901  0.5418
  745MOL0     H 2770   9.039   3.907   3.224  0.3751 -0.4158 -1.8673
  745MOL0     H 2771   8.904   3.835   3.310  0.0964  2.1215 -1.1597
  745MOL0     H 2772   8.703   3.670   3.220  0.3984  2.2282  1.9864
  745MOL0     H 2773   8.466   3.603   3.131 -2.0242  1.4370  2.0494
  745MOL0     H 2774   8.325   3.207   3.237 -2.2138 -1.1249 -1.2684
  745MOL0     H 2775   8.242   3.302   3.357  1.5445  0.9130  0.8211
  745MOL0     H 2776   8.062   3.361   3.174 -1.3390 -1.4804  1.0973
  745MOL0     H 2777   8.159   3.292   3.055 -2.2362 -0.4832 -0.1225
  745MOL0     H 2778   8.153   3.068   3.174 -0.6817  0.2138 -1.6321
  745MOL0     H 2779   8.019   3.124   3.068  2.1586  0.4868 -1.7150
  745MOL0     H 2780   7.899   3.194   3.294 -0.8476  0.1632  1.9916
  745MOL0     H 2781   8.053   3.139   3.376  1.3910 -0.8125  0.0257
  745MOL0     H 2782   7.849   2.962   3.225  0.5188 -1.8447 -0.0603
  745MOL0     H 2783   8.015   2.919   3.286  1.1332  2.2885 -1.5217
  745MOL0     H 2784   7.757   3.009   3.423  1.4466  0.0314 -1.2024
  745MOL0     H 2785   7.918   3.016   3.507  2.8083 -0.4274 -1.0063
  745MOL0     H 2786   7.949   2.781   3.450  0.0616 -0.8878 -0.6079
  745MOL0     H 2787   7.800   2.767   3.367  0.4399 -0.4055  0.3589
  745MOL0     H 2788   7.794   2.675   3.604  0.8587 -0.4347 -0.3675
  745MOL0     H 2789   7.681   2.820   3.598 -0.4179  1.6505  0.3460
  745MOL0     H 2790   8.459   3.284   3.400 -0.1062  0.4797 -1.2042
  745MOL0     H 2791   8.693   3.341   3.502 -0.9452 -0.4511  0.8654
  745MOL0     H 2792   9.133   3.420   3.429 -0.5542 -0.2183 -2.5800
  745MOL0     H 2793   9.345   3.517   3.491 -1.0598 -1.0602  1.9391
  745MOL0     H 2794   9.580   5.190   3.637 -0.1912 -3.1687  0.2375
  745MOL0     H 2795   9.356   5.286   3.585 -0.7123  0.3708 -0.7411
  745MOL0     H 2796   9.069   5.650   3.400  0.1919  1.1296 -0.9121
  745MOL0     H 2797   8.875   5.719   3.298  1.4161  1.0100  0.3866
  745MOL0     H 2798   8.660   5.659   3.222 -1.6339  0.0343 -1.4989
  745MOL0     H 2799   8.730   5.795   3.136  3.5056 -1.8893 -0.3494
  745MOL0     H 2800   8.515   5.591   3.053  2.4891 -0.9726 -1.0100
  745MOL0     H 2801   8.557   5.729   2.948  1.0381  0.0064  0.1862
  745MOL0     H 2802   8.416   5.729   3.216 -0.5649  1.3977  0.2929
  745MOL0     H 2803   8.469   5.878   3.140 -0.4745  0.7637 -1.1786
  745MOL0     H 2804   8.226   5.838   3.094 -0.2955  0.1926 -0.2077
  745MOL0     H 2805   8.259   5.676   3.044  0.3747 -0.0133 -2.1166
  745MOL0     H 2806   8.309   5.906   2.696  1.3204  0.7006  0.4227
  745MOL0     H 2807   8.928   5.452   2.977  1.9305  1.0231 -1.1284
  745MOL0     H 2808   9.117   5.225   3.122  0.9249 -1.5261 -1.9523
  745MOL0     H 2809   9.101   5.297   2.964  1.2399  0.1600 -1.6753
  745MOL0     H 2810   9.254   5.326   3.056 -0.3649 -1.2420 -1.2980
  746MOL0     O 2811   9.992  10.738  10.229  0.6680  0.1527 -0.4070
  746MOL0     C 2812   9.942  10.762  10.122  0.9050 -0.5729 -0.1689
  746MOL0     O 2813  10.000  10.752  10.003 -0.3793  0.2121  0.3592
  746MOL0     C 2814  10.118  10.684   9.990 -0.0786 -0.4370 -0.8175
  746MOL0     C 2815  10.215  10.746   9.913 -0.1399 -0.8629  0.5844
  746MOL0     C 2816  10.333  10.682   9.892 -0.6692  0.5290  0.8283
  746MOL0     C 2817  10.354  10.552   9.945 -0.1382  0.3369  0.0589
  746MOL0     O 2818  10.475  10.506   9.936 -0.1482 -0.3366  0.2048
  746MOL0     C 2819  10.513  10.381   9.998  0.0549  0.2521  0.2177
  746MOL0     C 2820  10.661  10.361  10.004 -0.8950 -0.0759  0.6087
  746MOL0     C 2821  10.697  10.227  10.073 -0.9220  0.0392 -0.4978
  746MOL0     C 2822  10.842  10.202  10.055  0.5957  0.3409 -0.0692
  746MOL0     C 2823  10.898  10.087  10.139 -0.0584  0.6735  0.1577
  746MOL0     C 2824  10.816   9.958  10.131 -0.7084 -0.7079 -0.4690
  746MOL0     C 2825  10.886   9.857  10.227  0.4605 -0.3939  0.2702
  746MOL0     C 2826  11.020   9.807  10.165  0.0890 -0.8604 -0.1190
  746MOL0     N 2827  11.081   9.695  10.245  0.4561 -0.3219  0.1632
  746MOL0     C 2828  11.098   9.691  10.379  0.5290  0.3555 -0.0052
  746MOL0     C 2829  11.169   9.586  10.415  0.1151 -0.4200  0.4016
  746MOL0     C 2830  11.199   9.557  10.566 -1.1602 -0.4446 -0.2779
  746MOL0     C 2831  11.099   9.459  10.627  0.5592  0.6592  0.3351
  746MOL0     C 2832  11.074   9.459  10.781  0.5207 -0.4383  0.0506
  746MOL0     C 2833  10.966   9.367  10.833  0.0738  0.7783 -0.3990
  746MOL0     O 2834  10.853   9.338  10.745 -0.1101  0.4288  0.9014
  746MOL0     C 2835  10.746   9.413  10.749 -0.0416  0.2645  0.2785
  746MOL0     C 2836  10.624   9.348  10.711 -0.6347  0.0891  0.2124
  746MOL0     C 2837  10.504   9.417  10.704 -0.0188 -0.4296 -0.0964
  746MOL0     C 2838  10.382   9.332  10.671  0.1734  0.1153 -0.7831
  746MOL0     C 2839  10.502   9.549  10.720 -0.4943 -0.5934  0.2671
  746MOL0     C 2840  10.384   9.637  10.718 -0.9517 -0.1667  0.1886
  746MOL0     O 2841  10.381   9.738  10.811  0.0383  0.2019 -0.4811
  746MOL0     C 2842  10.299   9.837  10.806  0.7230  0.3940 -0.6773
  746MOL0     C 2843  10.278   9.904  10.676 -0.6730  0.7928 -0.1817
  746MOL0     C 2844  10.212  10.022  10.675  0.1798 -0.0427 -0.2207
  746MOL0     C 2845  10.161  10.079  10.795  0.1746 -1.1407 -0.0445
  746MOL0     O 2846  10.103  10.207  10.790 -0.4446  0.3302 -0.3049
  746MOL0     C 2847   9.964  10.201  10.831 -0.2058 -0.0072  0.1969
  746MOL0     C 2848   9.873  10.305  10.762 -0.1763  0.8979  0.2704
  746MOL0     C 2849   9.863  10.438  10.827 -0.2422 -0.0868 -0.5202
  746MOL0     C 2850   9.790  10.537  10.732  0.4195 -0.0938  0.1645
  746MOL0     C 2851   9.809  10.686  10.774  0.4450 -0.3384 -0.4958
  746MOL0     C 2852   9.723  10.771  10.668 -0.4734  0.2405 -0.2126
  746MOL0     C 2853   9.760  10.918  10.697 -0.2560 -0.7065 -0.4030
  746MOL0     C 2854   9.679  11.005  10.614 -0.2647 -0.1832  0.4550
  746MOL0    Cl 2855   9.728  11.172  10.609  0.0262  0.0644  0.6480
  746MOL0     C 2856  10.182  10.019  10.920 -0.0683 -0.5701  0.3852
  746MOL0     C 2857  10.262   9.904  10.927 -0.0719  0.2719  0.2322
  746MOL0     O 2858  10.300   9.616  10.637 -0.7599  0.7179  0.1013
  746MOL0     C 2859  10.621   9.618  10.748  0.0602 -0.6559 -0.2201
  746MOL0     C 2860  10.743   9.553  10.764  0.7841  0.0722 -0.3490
  746MOL0     N 2861  11.201   9.524  10.291  0.3468 -0.4189  0.3771
  746MOL0     N 2862  11.158   9.598  10.196 -0.8620  0.0710 -1.0549
  746MOL0     C 2863  10.258  10.494  10.023  0.1025  0.3028  0.2872
  746MOL0     C 2864  10.138  10.562  10.054  0.3120  0.3348 -0.1359
  746MOL0     C 2865   9.796  10.799  10.128 -0.5223  0.7941 -0.1568
  746MOL0     C 2866   9.718  10.738  10.225 -0.3745  0.0331 -0.3793
  746MOL0     C 2867   9.583  10.746  10.241  0.3137 -0.0715  0.8366
  746MOL0     C 2868   9.529  10.853  10.173  0.6675 -1.0719  0.2379
  746MOL0     O 2869   9.393  10.884  10.192 -0.2054 -0.2986  0.2940
  746MOL0     C 2870   9.322  10.992  10.134  0.5455  0.0956  0.3861
  746MOL0     C 2871   9.179  10.992  10.176  0.7511  0.7985 -0.3420
  746MOL0     C 2872   9.169  11.018  10.329 -1.3520  0.5955  0.3841
  746MOL0     C 2873   9.039  11.012  10.391 -0.0049  0.0013  0.6749
  746MOL0     C 2874   8.937  11.105  10.343  0.1703 -0.1539  1.5493
  746MOL0     C 2875   8.856  11.177  10.291  0.6217  0.6801 -0.7286
  746MOL0     C 2876   9.601  10.933  10.081 -0.9181  0.5097 -0.4272
  746MOL0     C 2877   9.735  10.887  10.045 -0.2133  0.3214  0.0443
  746MOL0     C 2878   9.802  10.969   9.940  0.0342 -0.1934 -0.6645
  746MOL0     H 2879  10.200  10.849   9.881 -2.7148 -0.1324  3.6987
  746MOL0     H 2880  10.410  10.730   9.831 -0.6604  1.6762  1.6980
  746MOL0     H 2881  10.464  10.308   9.933 -3.2480  4.2081 -2.2339
  746MOL0     H 2882  10.471  10.362  10.097 -1.4095 -0.2347 -0.4646
  746MOL0     H 2883  10.693  10.359   9.900  0.6750  3.5105  0.8586
  746MOL0     H 2884  10.700  10.450  10.055 -0.4406  1.1883 -1.8247
  746MOL0     H 2885  10.678  10.238  10.180 -3.6172  0.3427 -0.9523
  746MOL0     H 2886  10.633  10.145  10.040  1.2248 -1.3465 -1.4595
  746MOL0     H 2887  10.858  10.189   9.948 -1.1947  2.5917 -0.6952
  746MOL0     H 2888  10.904  10.288  10.081  3.3936 -1.1670 -1.2971
  746MOL0     H 2889  10.899  10.110  10.246 -3.2531  0.2411  0.3716
  746MOL0     H 2890  11.004  10.077  10.114 -0.1230 -1.3128  0.5160
  746MOL0     H 2891  10.714   9.974  10.167 -0.9506 -0.8479 -1.0817
  746MOL0     H 2892  10.812   9.915  10.031 -0.2403 -2.0669  0.0780
  746MOL0     H 2893  10.815   9.775  10.242 -1.3076  1.4302  2.6405
  746MOL0     H 2894  10.909   9.893  10.327  3.2588  1.4299 -0.8947
  746MOL0     H 2895  11.004   9.765  10.065 -2.7841  3.5594 -1.7984
  746MOL0     H 2896  11.102   9.877  10.148 -2.2996  1.9611 -0.7102
  746MOL0     H 2897  11.050   9.767  10.441  0.9882  0.2256  0.5167
  746MOL0     H 2898  11.202   9.652  10.622 -2.2484 -0.0273 -0.8807
  746MOL0     H 2899  11.296   9.511  10.582 -1.5965 -0.3076  3.7494
  746MOL0     H 2900  11.000   9.477  10.584  0.4004  1.2658  0.9457
  746MOL0     H 2901  11.124   9.355  10.604 -3.9087 -0.9891  1.7402
  746MOL0     H 2902  11.168   9.433  10.830  0.0870 -1.8469  0.1859
  746MOL0     H 2903  11.034   9.557  10.808  1.1092 -0.2242  0.1682
  746MOL0     H 2904  11.016   9.271  10.850 -0.1844  0.8172  0.6127
  746MOL0     H 2905  10.924   9.401  10.928 -0.6970  0.6087 -0.6665
  746MOL0     H 2906  10.625   9.241  10.693 -1.7459  0.3424 -1.6190
  746MOL0     H 2907  10.414   9.227  10.660  1.7433 -0.1143  3.8075
  746MOL0     H 2908  10.337   9.367  10.578 -2.4836  1.1250  0.7952
  746MOL0     H 2909  10.304   9.333  10.747 -2.0435 -3.0575 -2.7648
  746MOL0     H 2910  10.325   9.867  10.586 -2.0728  1.9754 -1.4541
  746MOL0     H 2911  10.198  10.086  10.589  1.6279 -0.3813 -0.7336
  746MOL0     H 2912   9.904  10.116  10.798  1.8150 -1.4463  0.1188
  746MOL0     H 2913   9.957  10.208  10.940  2.5442  0.7280  0.3959
  746MOL0     H 2914   9.889  10.309  10.654 -1.9199  4.8291 -0.0234
  746MOL0     H 2915   9.774  10.258  10.772  0.7408 -0.7863  2.1903
  746MOL0     H 2916   9.956  10.478  10.868 -1.4877  0.8255  1.5890
  746MOL0     H 2917   9.796  10.423  10.912  1.2043 -0.5562  0.5925
  746MOL0     H 2918   9.689  10.502  10.713  0.3038  0.0052  0.5930
  746MOL0     H 2919   9.832  10.538  10.631 -0.0085  2.0793 -0.0507
  746MOL0     H 2920   9.786  10.686  10.881 -0.4334  0.2636 -0.6780
  746MOL0     H 2921   9.913  10.717  10.763 -0.4011  2.6102 -0.9819
  746MOL0     H 2922   9.615  10.755  10.679 -0.9699  3.1209 -0.1299
  746MOL0     H 2923   9.764  10.745  10.570  1.5629  2.2202  0.0175
  746MOL0     H 2924   9.867  10.939  10.682 -0.7579  2.5479 -0.1123
  746MOL0     H 2925   9.745  10.946  10.802  1.2621  0.0932 -0.3728
  746MOL0     H 2926   9.577  10.999  10.653  0.0997 -1.9142  1.2845
  746MOL0     H 2927   9.676  10.956  10.516  1.7708 -0.6076  0.5501
  746MOL0     H 2928  10.142  10.084  10.997  1.8602 -1.8977  2.6449
  746MOL0     H 2929  10.293   9.875  11.026 -0.5613 -0.3963  0.1966
  746MOL0     H 2930  10.613   9.726  10.757  0.3418 -0.7755  1.9232
  746MOL0     H 2931  10.832   9.611  10.785  1.0577 -0.5214  0.1799
  746MOL0     H 2932  10.264  10.396  10.069 -2.3110  1.1630  2.7357
  746MOL0     H 2933  10.061  10.509  10.108 -1.8007  2.2287 -1.1066
  746MOL0     H 2934   9.752  10.663  10.295 -0.7407 -0.8104 -1.0728
  746MOL0     H 2935   9.535  10.708  10.331  1.7736 -3.1572  0.4435
  746MOL0     H 2936   9.374  11.087  10.152  3.8264 -1.2700 -1.0335
  746MOL0     H 2937   9.318  10.972  10.027 -3.0927 -0.2457  0.4717
  746MOL0     H 2938   9.125  10.898  10.162  0.8284  0.9180 -1.6241
  746MOL0     H 2939   9.127  11.078  10.132 -0.5712 -0.1306 -0.6815
  746MOL0     H 2940   9.240  10.954  10.383  0.1714 -0.1340 -2.2986
  746MOL0     H 2941   9.206  11.120  10.345  1.0959  0.1923 -1.9614
  746MOL0     H 2942   9.058  11.034  10.496 -0.3615  0.7231  0.5983
  746MOL0     H 2943   9.002  10.910  10.377  0.3792  0.1473 -2.0641
  746MOL0     H 2944   8.786  11.236  10.237  0.5034  0.9693 -0.2680
  746MOL0     H 2945   9.554  11.002  10.011 -5.1137 -2.7573 -1.2273
  746MOL0     H 2946   9.730  11.021   9.875 -1.3559 -0.2208  0.8036
  746MOL0     H 2947   9.874  11.037   9.986 -2.7004  1.4802  1.4368
  746MOL0     H 2948   9.856  10.902   9.873 -0.3199 -1.5796  0.4009
  747MOL0     O 2949   3.859   9.215   1.630  0.0436  0.3761  0.4657
  747MOL0     C 2950   3.772   9.159   1.564 -0.0507 -0.0302  0.2259
  747MOL0     O 2951   3.787   9.115   1.428  0.1396 -0.5398 -0.1638
  747MOL0     C 2952   3.916   9.084   1.375  0.3792 -0.2395  1.0981
  747MOL0     C 2953   3.960   9.129   1.255  0.0607 -0.0671  0.2087
  747MOL0     C 2954   4.081   9.089   1.194  0.3805  0.9462  0.1626
  747MOL0     C 2955   4.165   9.003   1.268  0.2124 -0.9277 -0.2451
  747MOL0     O 2956   4.286   8.957   1.230 -0.1822 -0.4100  0.6489
  747MOL0     C 2957   4.367   9.055   1.177 -0.6819  0.1204  0.1241
  747MOL0     C 2958   4.512   8.991   1.173 -0.4278 -0.2345 -1.1173
  747MOL0     C 2959   4.579   9.018   1.311 -0.6393 -0.4644  0.2299
  747MOL0     C 2960   4.521   8.945   1.435  0.5419 -0.0114  0.2238
  747MOL0     C 2961   4.592   8.967   1.569 -0.3386  0.2772 -0.9961
  747MOL0     C 2962   4.598   9.121   1.602  0.1666  0.2921  0.4217
  747MOL0     C 2963   4.739   9.176   1.583  0.5732 -0.1296 -0.4142
  747MOL0     C 2964   4.749   9.304   1.667  0.1265 -0.7363 -0.5803
  747MOL0     N 2965   4.870   9.382   1.637  0.0907 -0.1109 -0.4761
  747MOL0     C 2966   4.889   9.515   1.662 -0.5886 -0.9224 -0.2752
  747MOL0     C 2967   5.020   9.537   1.651 -0.1777 -0.1861 -0.2205
  747MOL0     C 2968   5.093   9.665   1.688 -0.7204  0.2316 -0.3899
  747MOL0     C 2969   5.246   9.644   1.710  0.2588 -0.0004  0.3684
  747MOL0     C 2970   5.299   9.772   1.756 -0.7347 -0.5566 -0.2281
  747MOL0     C 2971   5.454   9.804   1.746  1.4029  0.5458 -0.1430
  747MOL0     O 2972   5.479   9.937   1.786  0.7558  0.6405 -0.4860
  747MOL0     C 2973   5.572   9.962   1.884  0.5552  0.4712 -0.4830
  747MOL0     C 2974   5.555  10.084   1.954 -0.6708 -0.3031 -0.4602
  747MOL0     C 2975   5.657  10.132   2.042 -0.6511 -0.2855 -0.4243
  747MOL0     C 2976   5.621  10.267   2.112  0.1360 -0.5116  0.5765
  747MOL0     C 2977   5.770  10.050   2.071 -0.4756 -0.0821  0.1261
  747MOL0     C 2978   5.877  10.098   2.162  0.3772 -0.6363 -0.1027
  747MOL0     O 2979   5.866  10.223   2.220 -0.9548 -0.5658  0.2008
  747MOL0     C 2980   5.949  10.250   2.331 -0.3768 -0.2134 -0.7465
  747MOL0     C 2981   5.882  10.263   2.454 -0.4600 -0.0326 -0.9978
  747MOL0     C 2982   5.954  10.297   2.573  0.6333  0.0526  0.2798
  747MOL0     C 2983   6.090  10.305   2.572  0.0792 -0.6433 -0.2450
  747MOL0     O 2984   6.167  10.322   2.683 -0.2286  0.0899 -0.0771
  747MOL0     C 2985   6.124  10.409   2.785  0.7010  0.7807 -0.8138
  747MOL0     C 2986   6.241  10.458   2.873  0.1707  0.2256  0.2881
  747MOL0     C 2987   6.283  10.346   2.971  0.7527 -0.1517  0.3473
  747MOL0     C 2988   6.175  10.278   3.053 -0.3723 -0.0796 -0.2671
  747MOL0     C 2989   6.218  10.158   3.135 -0.1534  0.2634 -0.0078
  747MOL0     C 2990   6.096  10.081   3.193  0.3120  0.7069  0.6787
  747MOL0     C 2991   6.163   9.980   3.295 -0.7643 -0.1923 -0.1605
  747MOL0     C 2992   6.063   9.950   3.410  0.4480 -0.0914 -0.2386
  747MOL0    Cl 2993   6.131   9.822   3.527  0.3433  0.6764 -0.1986
  747MOL0     C 2994   6.162  10.292   2.455 -0.1504  0.5692  0.7342
  747MOL0     C 2995   6.090  10.269   2.338 -0.6592 -0.3988 -0.2098
  747MOL0     O 2996   5.973  10.025   2.181  0.3955 -0.0493 -0.4130
  747MOL0     C 2997   5.783   9.924   2.010 -0.1841 -0.3441 -0.0089
  747MOL0     C 2998   5.685   9.883   1.920 -0.0734  1.0992  0.0434
  747MOL0     N 2999   5.085   9.414   1.623 -0.3077 -0.4718  0.3958
  747MOL0     N 3000   4.991   9.327   1.623  0.3952 -0.3741 -0.0214
  747MOL0     C 3001   4.131   8.964   1.397  1.1230 -0.4068  0.1742
  747MOL0     C 3002   4.014   9.009   1.453 -0.5676  0.1739 -0.4781
  747MOL0     C 3003   3.655   9.119   1.638 -0.2219  0.2291  0.1933
  747MOL0     C 3004   3.539   9.085   1.565 -0.3875 -0.8518  0.3194
  747MOL0     C 3005   3.411   9.055   1.613 -0.1935 -0.1948 -0.5894
  747MOL0     C 3006   3.390   9.044   1.754  1.4599  0.2915 -0.8714
  747MOL0     O 3007   3.266   9.005   1.817 -0.2731 -0.0587 -0.4958
  747MOL0     C 3008   3.150   8.990   1.734 -0.2219  0.0953  0.5773
  747MOL0     C 3009   3.037   8.912   1.803  0.3083 -0.0872  0.0893
  747MOL0     C 3010   3.072   8.775   1.856 -0.6129  0.3229 -0.0309
  747MOL0     C 3011   2.952   8.698   1.914 -0.4191 -0.3110 -0.8730
  747MOL0     C 3012   2.845   8.665   1.817  0.3898 -0.6129 -0.2464
  747MOL0     C 3013   2.754   8.623   1.741  0.5897 -0.4822  0.2661
  747MOL0     C 3014   3.505   9.072   1.834  0.1421  0.3237  0.1380
  747MOL0     C 3015   3.634   9.111   1.785  0.7679  0.5332  0.2971
  747MOL0     C 3016   3.738   9.162   1.882 -0.6199 -0.0123 -0.7054
  747MOL0     H 3017   3.895   9.192   1.194  1.5186  0.6649 -0.6650
  747MOL0     H 3018   4.112   9.113   1.093  1.1236 -1.5421 -0.2642
  747MOL0     H 3019   4.367   9.148   1.235  0.0652  1.1997 -1.5431
  747MOL0     H 3020   4.326   9.067   1.076  0.0014 -1.4280 -0.3798
  747MOL0     H 3021   4.516   8.882   1.160 -2.2968 -0.4167 -0.4941
  747MOL0     H 3022   4.572   9.033   1.092  3.2411  0.4429  1.7357
  747MOL0     H 3023   4.682   8.983   1.307  1.2548  4.1133  1.9046
  747MOL0     H 3024   4.596   9.124   1.332 -1.5606 -0.1709 -0.4640
  747MOL0     H 3025   4.416   8.974   1.446  0.6118 -0.1180  1.3473
  747MOL0     H 3026   4.525   8.837   1.425 -2.0555 -0.1544  0.2027
  747MOL0     H 3027   4.698   8.940   1.563  0.6875  3.3833  0.6297
  747MOL0     H 3028   4.549   8.901   1.645  1.7152 -5.8424 -4.4432
  747MOL0     H 3029   4.523   9.177   1.547  2.4603  2.3615 -0.8106
  747MOL0     H 3030   4.569   9.132   1.707 -1.8925 -1.5210  0.1153
  747MOL0     H 3031   4.743   9.191   1.475  0.0841 -1.9314 -0.7088
  747MOL0     H 3032   4.815   9.108   1.621  0.3484 -0.0627  0.1710
  747MOL0     H 3033   4.667   9.369   1.634  0.8119  0.3472 -0.1895
  747MOL0     H 3034   4.749   9.279   1.773  0.8504 -1.5555 -0.7651
  747MOL0     H 3035   4.822   9.595   1.694  3.0914  1.5173  2.0209
  747MOL0     H 3036   5.049   9.707   1.779 -1.4883  2.6369 -1.7852
  747MOL0     H 3037   5.068   9.741   1.614 -1.2365  1.1753  0.7132
  747MOL0     H 3038   5.270   9.571   1.787 -0.2543  1.0080  1.5185
  747MOL0     H 3039   5.275   9.606   1.611  0.8632  0.7038  0.2615
  747MOL0     H 3040   5.237   9.849   1.708  0.0037  0.6385  0.7132
  747MOL0     H 3041   5.278   9.774   1.863 -0.2871 -1.1580 -0.1255
  747MOL0     H 3042   5.510   9.730   1.804  2.4374  0.5290 -1.1290
  747MOL0     H 3043   5.480   9.793   1.640 -0.7677  1.2763 -0.8117
  747MOL0     H 3044   5.468  10.147   1.937  0.2003  2.2430  3.2955
  747MOL0     H 3045   5.664  10.360   2.074 -3.8104  2.0339  1.7158
  747MOL0     H 3046   5.627  10.264   2.221  1.5424 -0.7110  0.5164
  747MOL0     H 3047   5.515  10.288   2.093  0.0550 -0.2018  1.3393
  747MOL0     H 3048   5.774  10.250   2.461 -0.5036  0.8705  3.7262
  747MOL0     H 3049   5.884  10.310   2.654 -1.7113 -1.6339 -1.3586
  747MOL0     H 3050   6.079  10.497   2.736  0.7730  1.8272  0.9309
  747MOL0     H 3051   6.042  10.368   2.845  2.6672 -0.9391  0.8200
  747MOL0     H 3052   6.317  10.499   2.806 -0.5762  1.6586  0.2778
  747MOL0     H 3053   6.201  10.545   2.925 -1.8324  0.2978 -1.2729
  747MOL0     H 3054   6.355  10.384   3.044  0.2250 -0.7496  1.1934
  747MOL0     H 3055   6.331  10.275   2.903  2.2340  1.1199  0.0020
  747MOL0     H 3056   6.087  10.263   2.989  1.4653 -1.2564 -2.6773
  747MOL0     H 3057   6.137  10.354   3.121  1.0931  0.4166  0.0235
  747MOL0     H 3058   6.286  10.093   3.080  0.4048 -0.3014  1.3065
  747MOL0     H 3059   6.287  10.199   3.209  0.2381  3.6644 -2.0205
  747MOL0     H 3060   6.045  10.026   3.113  1.8493 -0.7811  0.6541
  747MOL0     H 3061   6.030  10.143   3.253 -2.4142 -1.9197  0.6200
  747MOL0     H 3062   6.245  10.026   3.352 -0.4214 -0.9322 -0.0388
  747MOL0     H 3063   6.186   9.885   3.247  2.5319  0.6311 -0.4828
  747MOL0     H 3064   5.971   9.910   3.366  1.5362 -1.2329 -1.5927
  747MOL0     H 3065   6.029  10.040   3.462 -2.2023 -0.9326 -0.3587
  747MOL0     H 3066   6.270  10.289   2.465 -0.3404  0.0241  3.4828
  747MOL0     H 3067   6.153  10.245   2.253  1.4740  0.0415  1.1837
  747MOL0     H 3068   5.863   9.857   2.041  1.1345  1.4217  0.5631
  747MOL0     H 3069   5.699   9.794   1.860  1.5590  0.9615  0.5682
  747MOL0     H 3070   4.195   8.895   1.452  0.5267 -1.1755 -0.0726
  747MOL0     H 3071   4.006   8.989   1.560 -1.7775  0.2840 -0.5300
  747MOL0     H 3072   3.546   9.098   1.457 -3.9700  0.2763  0.0807
  747MOL0     H 3073   3.328   9.022   1.552  1.5038 -0.6732 -2.7633
  747MOL0     H 3074   3.126   9.087   1.692 -2.9801  0.2879  2.3427
  747MOL0     H 3075   3.182   8.921   1.655 -0.4090 -1.0395  1.4647
  747MOL0     H 3076   2.958   8.904   1.727  1.8807  1.6786 -1.8445
  747MOL0     H 3077   3.003   8.985   1.876 -1.9714 -1.5556  0.6072
  747MOL0     H 3078   3.121   8.713   1.780 -2.5916 -1.0436 -0.2710
  747MOL0     H 3079   3.141   8.794   1.939 -2.1933  0.1102  1.3696
  747MOL0     H 3080   2.903   8.761   1.988  0.8635  0.3333 -0.5471
  747MOL0     H 3081   2.987   8.605   1.960 -0.3967 -0.2458 -0.7593
  747MOL0     H 3082   2.667   8.587   1.691 -0.5974 -3.6572  4.0818
  747MOL0     H 3083   3.503   9.077   1.942 -0.8813 -0.2181  0.1541
  747MOL0     H 3084   3.770   9.259   1.842  1.3112 -0.5209 -0.5027
  747MOL0     H 3085   3.704   9.190   1.982  2.0511  1.6241 -0.1548
  747MOL0     H 3086   3.822   9.096   1.907 -1.3794 -0.0691  2.0318
  748MOL0     O 3087   8.047   4.601   7.877 -0.2967 -0.2070  0.0848
  748MOL0     C 3088   7.942   4.643   7.831 -0.7828  0.1687 -0.1528
  748MOL0     O 3089   7.920   4.744   7.744  0.1313  0.5369  0.3630
  748MOL0     C 3090   8.025   4.819   7.695  0.6622  1.1512 -0.7046
  748MOL0     C 3091   7.983   4.923   7.608  0.1770 -0.4363  0.1378
  748MOL0     C 3092   8.078   5.019   7.558  0.2396  0.2387  0.0239
  748MOL0     C 3093   8.214   5.001   7.587  0.3673 -0.1956 -0.6108
  748MOL0     O 3094   8.313   5.088   7.551  0.7786 -0.0563 -0.0779
  748MOL0     C 3095   8.287   5.183   7.445 -0.6484  0.0905 -0.9824
  748MOL0     C 3096   8.418   5.258   7.406  0.2332  0.8945 -0.3082
  748MOL0     C 3097   8.550   5.162   7.400 -0.1229 -0.5006  0.3709
  748MOL0     C 3098   8.678   5.227   7.370  0.0703  0.5409  0.0511
  748MOL0     C 3099   8.788   5.127   7.334 -0.9714 -0.4088  0.5723
  748MOL0     C 3100   8.935   5.181   7.327 -0.2503 -0.0159  0.4671
  748MOL0     C 3101   9.041   5.071   7.325 -0.2903 -0.0693  0.3680
  748MOL0     C 3102   9.182   5.116   7.365  0.6731  0.5618  0.0397
  748MOL0     N 3103   9.257   4.993   7.372  1.0076  0.4229  0.1335
  748MOL0     C 3104   9.325   4.937   7.269  0.1832 -0.7645 -0.0344
  748MOL0     C 3105   9.354   4.815   7.311 -0.8716 -0.4729 -0.4444
  748MOL0     C 3106   9.437   4.706   7.233  0.2130  0.4673 -0.0922
  748MOL0     C 3107   9.550   4.644   7.307  0.1212  0.8067  0.3991
  748MOL0     C 3108   9.664   4.745   7.340  0.4040 -0.1248  0.9513
  748MOL0     C 3109   9.751   4.705   7.461 -0.4905  0.8615 -0.7596
  748MOL0     O 3110   9.832   4.593   7.418 -0.1530 -0.4417  0.0373
  748MOL0     C 3111   9.918   4.540   7.508  0.4990 -1.1560  0.2386
  748MOL0     C 3112   9.943   4.588   7.637 -0.6893  0.0541  0.8854
  748MOL0     C 3113  10.012   4.512   7.735  0.1758 -0.6183 -0.2083
  748MOL0     C 3114  10.022   4.578   7.868 -0.8022 -0.3505 -0.4906
  748MOL0     C 3115  10.069   4.383   7.701 -0.0696  0.4824  0.5431
  748MOL0     C 3116  10.155   4.307   7.793  0.0368  0.5966 -0.9531
  748MOL0     O 3117  10.193   4.185   7.739 -0.0646 -0.6537  0.1653
  748MOL0     C 3118  10.273   4.100   7.812  0.2487 -0.7591  0.8136
  748MOL0     C 3119  10.405   4.080   7.767  0.2773 -0.9135 -0.1612
  748MOL0     C 3120  10.492   3.999   7.848  0.4469 -0.2110  0.0096
  748MOL0     C 3121  10.448   3.916   7.947 -1.0328  1.0360 -0.2851
  748MOL0     O 3122  10.533   3.823   8.010  0.0575 -0.6111 -0.0958
  748MOL0     C 3123  10.496   3.783   8.142  0.2693  0.3032 -0.0204
  748MOL0     C 3124  10.618   3.722   8.203 -0.7507 -0.1691 -0.4020
  748MOL0     C 3125  10.679   3.605   8.129 -1.3134 -0.6300 -0.3486
  748MOL0     C 3126  10.836   3.590   8.144 -0.2164  0.5246  1.0398
  748MOL0     C 3127  10.910   3.476   8.076 -1.1221  0.8446  1.2712
  748MOL0     C 3128  10.869   3.336   8.126 -0.6636  0.3351  0.5649
  748MOL0     C 3129  10.952   3.223   8.061  0.2900  0.3226 -0.2300
  748MOL0     C 3130  10.917   3.206   7.914 -0.9150  0.9163 -0.7950
  748MOL0    Cl 3131  10.745   3.162   7.881  0.0960 -0.5818  0.1744
  748MOL0     C 3132  10.304   3.923   7.977 -0.4466  0.0761  1.0358
  748MOL0     C 3133  10.223   4.016   7.908 -0.2553 -0.4744  0.0406
  748MOL0     O 3134  10.202   4.359   7.897 -0.4291 -0.3448 -0.0509
  748MOL0     C 3135  10.048   4.339   7.569 -0.3834  0.2610  0.6792
  748MOL0     C 3136   9.975   4.420   7.475 -0.0204  0.9133 -0.9809
  748MOL0     N 3137   9.304   4.796   7.439  0.0282  0.7078  0.1502
  748MOL0     N 3138   9.242   4.895   7.470  0.4062  0.1083 -0.1888
  748MOL0     C 3139   8.254   4.896   7.671 -0.8291  0.6170  0.2503
  748MOL0     C 3140   8.165   4.806   7.722  0.1930  0.3421  0.2715
  748MOL0     C 3141   7.815   4.573   7.877  0.0957 -0.9541  1.5924
  748MOL0     C 3142   7.792   4.583   8.014 -0.9410 -0.2235 -0.1497
  748MOL0     C 3143   7.686   4.523   8.070  0.3819  0.1300 -0.2519
  748MOL0     C 3144   7.590   4.459   7.989  0.2012  1.1242  0.4632
  748MOL0     O 3145   7.472   4.400   8.035  0.3203 -0.6189  0.5425
  748MOL0     C 3146   7.425   4.430   8.166  1.1457  0.3362 -0.7553
  748MOL0     C 3147   7.283   4.389   8.190 -0.2116 -0.8401  0.0477
  748MOL0     C 3148   7.251   4.251   8.128  0.2503 -0.0962  0.1534
  748MOL0     C 3149   7.105   4.211   8.160  0.4967 -0.6147  0.3374
  748MOL0     C 3150   7.001   4.297   8.108 -0.2237 -0.6185 -0.1418
  748MOL0     C 3151   6.920   4.370   8.054 -0.2237  0.4261  0.1631
  748MOL0     C 3152   7.602   4.455   7.849  0.2247 -0.3933 -0.1239
  748MOL0     C 3153   7.718   4.515   7.790  1.6427  0.4978  0.2352
  748MOL0     C 3154   7.730   4.514   7.636  0.4071 -0.4375  0.7420
  748MOL0     H 3155   7.878   4.931   7.579  0.3726 -0.7163 -0.6801
  748MOL0     H 3156   8.057   5.096   7.485  0.1939 -0.5314 -0.7927
  748MOL0     H 3157   8.215   5.254   7.487 -0.8745 -0.0993 -1.0448
  748MOL0     H 3158   8.238   5.146   7.354  0.6843  2.2663 -2.6654
  748MOL0     H 3159   8.425   5.334   7.327  2.0670  1.4556  0.3306
  748MOL0     H 3160   8.443   5.316   7.495 -1.1819  2.4914 -0.8762
  748MOL0     H 3161   8.564   5.116   7.498  1.9691 -0.6632  0.0455
  748MOL0     H 3162   8.536   5.074   7.336  0.0437 -0.9154  0.8966
  748MOL0     H 3163   8.671   5.292   7.282 -2.2153  1.1577  0.6213
  748MOL0     H 3164   8.718   5.287   7.452  0.6788 -1.3542  1.1814
  748MOL0     H 3165   8.762   5.072   7.243 -0.0659  1.0222 -0.5947
  748MOL0     H 3166   8.793   5.048   7.410  1.8359 -0.5176  0.3923
  748MOL0     H 3167   8.945   5.236   7.232  0.0372  0.7750  0.9452
  748MOL0     H 3168   8.953   5.245   7.414  0.3748 -2.0462  1.9001
  748MOL0     H 3169   9.052   5.042   7.220  2.1433  0.0933  0.5018
  748MOL0     H 3170   9.013   4.987   7.388  0.3011 -1.2053 -0.8300
  748MOL0     H 3171   9.223   5.184   7.290 -0.7832  0.1905 -1.1540
  748MOL0     H 3172   9.171   5.163   7.463 -0.5601 -0.1786  0.2760
  748MOL0     H 3173   9.362   4.980   7.177  3.9075  1.3292  2.2023
  748MOL0     H 3174   9.478   4.745   7.139 -0.0829  2.6225  0.6118
  748MOL0     H 3175   9.364   4.630   7.203  0.9539  0.6445 -2.6167
  748MOL0     H 3176   9.509   4.616   7.404 -0.4984 -0.9813 -0.3401
  748MOL0     H 3177   9.589   4.557   7.253  1.2169  1.7239 -0.3452
  748MOL0     H 3178   9.727   4.771   7.254 -1.7677  0.5833 -0.5171
  748MOL0     H 3179   9.622   4.841   7.369 -0.8376 -0.7530  1.3362
  748MOL0     H 3180   9.806   4.790   7.502 -1.7657  0.4588  1.9974
  748MOL0     H 3181   9.679   4.674   7.538  1.5162  0.6972  1.1351
  748MOL0     H 3182   9.913   4.687   7.671  0.5581  0.3864  1.0721
  748MOL0     H 3183   9.991   4.511   7.949 -2.4253 -0.5727 -1.2645
  748MOL0     H 3184   9.957   4.665   7.879 -3.0720 -1.7580 -2.0712
  748MOL0     H 3185  10.123   4.608   7.897 -1.5459  1.2570  0.6303
  748MOL0     H 3186  10.456   4.137   7.689 -1.8239  1.2928 -0.0334
  748MOL0     H 3187  10.596   4.009   7.817  0.4378  1.3901  0.4018
  748MOL0     H 3188  10.461   3.868   8.203  1.9826  0.6296  0.5595
  748MOL0     H 3189  10.416   3.709   8.139 -1.9427  2.5376 -0.2503
  748MOL0     H 3190  10.697   3.798   8.212 -0.8079  0.0477 -1.5114
  748MOL0     H 3191  10.584   3.688   8.301 -2.3654  0.9934 -0.5221
  748MOL0     H 3192  10.656   3.601   8.022  0.7221 -0.4645 -0.8375
  748MOL0     H 3193  10.626   3.516   8.163 -1.4517 -0.4630 -0.1279
  748MOL0     H 3194  10.860   3.583   8.250  0.9777 -0.5045  0.7240
  748MOL0     H 3195  10.880   3.684   8.109 -0.5400  0.4995  0.5558
  748MOL0     H 3196  10.887   3.486   7.969  1.6630  0.9862  0.6095
  748MOL0     H 3197  11.017   3.490   8.089 -0.7378  0.2627 -0.8820
  748MOL0     H 3198  10.761   3.327   8.110 -0.4751 -3.2344  0.5258
  748MOL0     H 3199  10.895   3.329   8.233  1.1118  3.0002  0.4027
  748MOL0     H 3200  10.938   3.133   8.122  0.0277  1.5342  1.5907
  748MOL0     H 3201  11.058   3.248   8.074  0.1397  0.0677  1.7602
  748MOL0     H 3202  10.980   3.128   7.870 -1.1127  0.4692 -0.2976
  748MOL0     H 3203  10.948   3.302   7.871 -2.2799  1.3875 -0.7586
  748MOL0     H 3204  10.269   3.880   8.071  2.3700  1.7488  3.0316
  748MOL0     H 3205  10.121   4.033   7.940 -0.4517  0.0126 -0.8187
  748MOL0     H 3206  10.080   4.246   7.524  1.5982  2.1380 -2.1509
  748MOL0     H 3207   9.961   4.382   7.375  0.2164 -2.2228  0.0899
  748MOL0     H 3208   8.360   4.895   7.693 -0.9322 -0.5045  0.7401
  748MOL0     H 3209   8.203   4.731   7.791  0.4389  1.6635  1.6335
  748MOL0     H 3210   7.869   4.634   8.071  0.7883 -1.0284 -1.6282
  748MOL0     H 3211   7.674   4.522   8.178  0.7034 -1.9682 -0.2028
  748MOL0     H 3212   7.494   4.380   8.235  1.9571  0.3906 -1.5183
  748MOL0     H 3213   7.419   4.537   8.185 -2.5811  0.3133 -1.0762
  748MOL0     H 3214   7.221   4.471   8.151 -1.1772 -1.4448  0.2835
  748MOL0     H 3215   7.264   4.392   8.297 -0.0664 -0.3321  0.0628
  748MOL0     H 3216   7.264   4.266   8.020  1.5541  1.3624  0.4872
  748MOL0     H 3217   7.312   4.163   8.150 -0.0843 -0.5519 -0.6796
  748MOL0     H 3218   7.089   4.199   8.267  2.2302  0.9336  0.8178
  748MOL0     H 3219   7.078   4.112   8.122 -1.8868  0.0161  0.2172
  748MOL0     H 3220   6.840   4.419   8.003  0.7263 -2.1175 -4.3552
  748MOL0     H 3221   7.527   4.402   7.791 -1.8500  1.4765  0.6684
  748MOL0     H 3222   7.773   4.608   7.601 -0.6432 -0.4453 -0.6620
  748MOL0     H 3223   7.785   4.432   7.588  3.0501  2.2499 -1.2290
  748MOL0     H 3224   7.629   4.502   7.595 -0.9142  1.1846  3.2149
  749MOL0     O 3225   1.418  10.487   4.379  0.1727 -0.4851 -0.0230
  749MOL0     C 3226   1.471  10.583   4.324 -0.1052 -0.6541 -0.0296
  749MOL0     O 3227   1.402  10.701   4.283  0.5840  0.3664  0.4326
  749MOL0     C 3228   1.264  10.727   4.306 -0.2215  0.0345  0.2342
  749MOL0     C 3229   1.211  10.821   4.213 -0.7930  0.2071  0.0920
  749MOL0     C 3230   1.073  10.830   4.205  0.8282 -0.0581 -0.0914
  749MOL0     C 3231   0.988  10.759   4.298 -0.1674  0.7276  0.2027
  749MOL0     O 3232   0.854  10.762   4.300 -0.0322 -0.6519 -0.1343
  749MOL0     C 3233   0.797  10.845   4.199  0.5020 -0.9511 -0.5397
  749MOL0     C 3234   0.645  10.842   4.203 -0.0742  0.9733 -1.0009
  749MOL0     C 3235   0.592  10.709   4.152  0.3175  1.0411  0.0242
  749MOL0     C 3236   0.441  10.698   4.174  0.6087  0.4235 -0.1621
  749MOL0     C 3237   0.364  10.610   4.071 -0.1098  0.1643 -0.0103
  749MOL0     C 3238   0.334  10.676   3.936 -0.6893  0.0328 -0.1697
  749MOL0     C 3239   0.284  10.584   3.827 -0.2993  0.3684 -0.3904
  749MOL0     C 3240   0.216  10.668   3.716  0.2374 -0.3768  0.3038
  749MOL0     N 3241   0.152  10.576   3.624  0.0985  0.1890  0.6142
  749MOL0     C 3242   0.027  10.600   3.567  0.5985  0.2302  0.0666
  749MOL0     C 3243   0.007  10.498   3.483  0.0170 -0.0366  0.1470
  749MOL0     C 3244  -0.124  10.469   3.406 -1.1568  0.3631  0.0245
  749MOL0     C 3245  -0.209  10.368   3.486  0.9924 -0.1098 -1.0321
  749MOL0     C 3246  -0.124  10.245   3.528  0.1558  1.2478 -0.4313
  749MOL0     C 3247  -0.223  10.137   3.571  0.1847 -1.0415  0.4830
  749MOL0     O 3248  -0.305  10.186   3.682  0.7675  0.4133  0.1343
  749MOL0     C 3249  -0.257  10.185   3.812  0.8731 -0.3309 -0.1216
  749MOL0     C 3250  -0.135  10.127   3.844 -1.2874 -0.4506 -0.9558
  749MOL0     C 3251  -0.090  10.145   3.976  1.4743  0.7205 -0.1250
  749MOL0     C 3252   0.042  10.081   4.006 -0.3976  0.1402 -0.5192
  749MOL0     C 3253  -0.164  10.212   4.075 -0.4296  0.2099  0.0725
  749MOL0     C 3254  -0.104  10.246   4.214  0.6961 -0.0641 -0.4620
  749MOL0     O 3255  -0.139  10.368   4.266 -0.3304 -0.5112  0.8118
  749MOL0     C 3256  -0.052  10.410   4.365 -1.0035 -0.8240 -0.1327
  749MOL0     C 3257   0.074  10.460   4.321 -0.4881  0.2567  1.3732
  749MOL0     C 3258   0.169  10.500   4.408 -0.0125  1.1483  0.2570
  749MOL0     C 3259   0.149  10.484   4.544  0.1321 -0.2340  0.6041
  749MOL0     O 3260   0.255  10.534   4.627  0.6792  0.9505  0.2490
  749MOL0     C 3261   0.242  10.517   4.772 -0.9721  0.0726 -0.5507
  749MOL0     C 3262   0.383  10.502   4.833 -0.2813  0.6731 -0.8676
  749MOL0     C 3263   0.479  10.422   4.752  0.1755 -0.2287 -0.0425
  749MOL0     C 3264   0.575  10.509   4.652  0.1604 -0.1633 -0.7735
  749MOL0     C 3265   0.678  10.408   4.592 -0.1003  1.1592 -0.6011
  749MOL0     C 3266   0.719  10.452   4.457 -0.2871  0.9470  0.7468
  749MOL0     C 3267   0.824  10.352   4.399  0.4898 -0.3896 -0.7689
  749MOL0     C 3268   0.849  10.368   4.250  0.3173 -0.4370 -0.2513
  749MOL0    Cl 3269   0.998  10.289   4.196  0.4608 -0.2059 -0.2578
  749MOL0     C 3270   0.029  10.433   4.590  0.5698 -0.2959 -0.6131
  749MOL0     C 3271  -0.078  10.408   4.501 -0.3739 -0.1247 -0.1146
  749MOL0     O 3272  -0.031  10.164   4.267  0.1010  0.2619 -0.1517
  749MOL0     C 3273  -0.279  10.282   4.037 -0.6888 -0.5520  0.3501
  749MOL0     C 3274  -0.323  10.264   3.908  0.4332  0.1897  0.2070
  749MOL0     N 3275   0.124  10.437   3.469 -0.6504  0.2492 -0.0218
  749MOL0     N 3276   0.214  10.473   3.554  0.7750  0.2667 -0.7734
  749MOL0     C 3277   1.044  10.673   4.390  0.3244 -0.2679  0.6067
  749MOL0     C 3278   1.186  10.665   4.402  0.5506 -0.1058  0.6490
  749MOL0     C 3279   1.614  10.585   4.293 -0.0437  0.4334 -0.1740
  749MOL0     C 3280   1.656  10.656   4.183 -0.4323 -0.7994  0.1573
  749MOL0     C 3281   1.792  10.669   4.143  0.3334  0.1560  0.1901
  749MOL0     C 3282   1.887  10.607   4.226  0.3882 -0.0332  0.6633
  749MOL0     O 3283   2.020  10.620   4.194  0.5330 -0.0062  0.7914
  749MOL0     C 3284   2.120  10.584   4.290  0.0918  0.0164  0.0465
  749MOL0     C 3285   2.250  10.659   4.253 -0.5955  0.1821  0.7725
  749MOL0     C 3286   2.363  10.609   4.350  0.6190  0.4481 -0.0123
  749MOL0     C 3287   2.501  10.687   4.343 -0.1449  0.2215 -0.2200
  749MOL0     C 3288   2.585  10.646   4.224  0.3109 -1.0311 -0.6584
  749MOL0     C 3289   2.650  10.598   4.136 -0.6235 -0.2923 -0.3799
  749MOL0     C 3290   1.846  10.530   4.338  0.5877  0.8797 -0.9007
  749MOL0     C 3291   1.710  10.506   4.375  0.0746  0.3435  0.3887
  749MOL0     C 3292   1.673  10.408   4.487 -0.1955  0.5476 -1.0452
  749MOL0     H 3293   1.270  10.871   4.136 -2.9883 -1.6827 -3.0485
  749MOL0     H 3294   1.042  10.888   4.119  2.7229  0.2694 -0.6161
  749MOL0     H 3295   0.835  10.823   4.098 -1.4738 -0.9094 -1.3455
  749MOL0     H 3296   0.834  10.943   4.230 -0.1630 -1.0052  0.4781
  749MOL0     H 3297   0.622  10.853   4.309  2.0024  0.8729 -0.5007
  749MOL0     H 3298   0.596  10.920   4.144  2.1020  1.8662 -1.7168
  749MOL0     H 3299   0.615  10.709   4.045  0.1440  2.3159 -0.0384
  749MOL0     H 3300   0.639  10.622   4.198 -2.2501 -2.0694 -2.7637
  749MOL0     H 3301   0.420  10.664   4.276 -3.7970  1.9679 -0.3123
  749MOL0     H 3302   0.390  10.794   4.160 -0.3505 -0.4680 -3.8466
  749MOL0     H 3303   0.259  10.586   4.094 -0.2345  0.4081 -0.3228
  749MOL0     H 3304   0.425  10.520   4.059 -0.2751 -0.2916  2.1455
  749MOL0     H 3305   0.258  10.754   3.950  1.9393  3.8928 -4.6167
  749MOL0     H 3306   0.429  10.721   3.905  1.7959 -0.1437  5.8867
  749MOL0     H 3307   0.209  10.511   3.857 -0.9564  0.0536 -2.6028
  749MOL0     H 3308   0.365  10.523   3.786 -0.8864 -0.1940 -0.7423
  749MOL0     H 3309   0.137  10.725   3.766  0.6443  0.1610  0.3514
  749MOL0     H 3310   0.287  10.732   3.664  0.7019 -1.9556 -1.0626
  749MOL0     H 3311  -0.046  10.676   3.592  0.2023  0.2894 -1.2137
  749MOL0     H 3312  -0.109  10.418   3.311  1.4369 -1.2092  1.1696
  749MOL0     H 3313  -0.173  10.566   3.391  0.5749  0.8647 -2.9972
  749MOL0     H 3314  -0.250  10.420   3.574  1.4344  1.4797 -1.7348
  749MOL0     H 3315  -0.292  10.328   3.427  1.1758 -1.3373 -0.4879
  749MOL0     H 3316  -0.077  10.197   3.442  0.3500 -1.0593  0.8721
  749MOL0     H 3317  -0.050  10.261   3.607 -0.5821 -1.1324  0.8319
  749MOL0     H 3318  -0.296  10.121   3.492  0.4233  0.6656 -0.1245
  749MOL0     H 3319  -0.178  10.039   3.589  2.4625 -1.0095 -3.8361
  749MOL0     H 3320  -0.079  10.074   3.768 -3.4265 -2.3469 -1.3092
  749MOL0     H 3321   0.090  10.054   3.912 -1.8591 -2.5202 -0.5870
  749MOL0     H 3322   0.019   9.992   4.064  0.6201  0.7580  0.8905
  749MOL0     H 3323   0.114  10.139   4.065  1.1550 -1.3198 -0.9126
  749MOL0     H 3324   0.105  10.455   4.218  3.0172  0.3859  2.2908
  749MOL0     H 3325   0.258  10.535   4.357 -1.2306 -0.6216 -3.4425
  749MOL0     H 3326   0.183  10.595   4.819 -0.5010 -1.6420  3.2051
  749MOL0     H 3327   0.192  10.422   4.794 -0.4314  0.0279  0.5184
  749MOL0     H 3328   0.426  10.602   4.845 -0.2349  0.3856  2.6137
  749MOL0     H 3329   0.377  10.458   4.934 -1.2374  4.2007  0.7696
  749MOL0     H 3330   0.429  10.337   4.707  2.7335 -3.0649  2.0727
  749MOL0     H 3331   0.548  10.376   4.823  0.3110  2.7521  1.9230
  749MOL0     H 3332   0.632  10.588   4.701 -1.0046 -1.6736  3.5218
  749MOL0     H 3333   0.521  10.558   4.570  2.4256  2.7704 -0.6713
  749MOL0     H 3334   0.757  10.400   4.667  0.2337 -1.3286 -1.1308
  749MOL0     H 3335   0.642  10.305   4.597  2.1777  0.3555  2.5127
  749MOL0     H 3336   0.763  10.552   4.464  0.7036  0.4094  3.1971
  749MOL0     H 3337   0.635  10.442   4.388 -0.5535 -2.5684  1.3891
  749MOL0     H 3338   0.804  10.247   4.421  2.4430 -0.2691  2.2229
  749MOL0     H 3339   0.916  10.380   4.451 -1.2395 -2.2520  3.8134
  749MOL0     H 3340   0.834  10.469   4.211 -3.1259 -1.7464 -2.9189
  749MOL0     H 3341   0.764  10.317   4.204 -2.1257 -0.3367  3.7153
  749MOL0     H 3342   0.017  10.421   4.697 -1.1611 -2.4769 -0.9804
  749MOL0     H 3343  -0.173  10.368   4.535  0.2920 -1.6235  0.0514
  749MOL0     H 3344  -0.325  10.347   4.112  3.7464  2.7740  0.6040
  749MOL0     H 3345  -0.415  10.312   3.874 -1.1204 -3.1864 -0.7746
  749MOL0     H 3346   0.975  10.623   4.457  0.9945 -0.2782  1.3027
  749MOL0     H 3347   1.237  10.608   4.479  2.5064  0.8358  0.1250
  749MOL0     H 3348   1.590  10.707   4.113  1.5375  3.3328  0.9662
  749MOL0     H 3349   1.826  10.718   4.053 -0.0791  0.4670  0.2022
  749MOL0     H 3350   2.084  10.625   4.385 -0.4100  1.7427 -0.8414
  749MOL0     H 3351   2.136  10.476   4.285 -0.1152 -0.0820  1.1110
  749MOL0     H 3352   2.234  10.767   4.265  3.5787  1.2364 -1.1147
  749MOL0     H 3353   2.263  10.642   4.145 -0.1471  0.2112  0.8188
  749MOL0     H 3354   2.334  10.629   4.453  1.5340 -1.3673  0.6614
  749MOL0     H 3355   2.373  10.501   4.334  1.5260  0.3599  0.9771
  749MOL0     H 3356   2.552  10.664   4.437 -3.7029 -2.2822  1.3163
  749MOL0     H 3357   2.491  10.795   4.332  5.2338  0.8429 -2.1808
  749MOL0     H 3358   2.714  10.550   4.065 -0.7594  0.2646 -0.8855
  749MOL0     H 3359   1.920  10.472   4.390 -0.2327 -0.6230 -1.3597
  749MOL0     H 3360   1.763  10.367   4.534 -1.2388 -1.0685 -0.3551
  749MOL0     H 3361   1.602  10.454   4.556 -1.6825 -1.3128 -1.2650
  749MOL0     H 3362   1.622  10.317   4.453  1.9567 -1.7660  1.4176
  750MOL0     O 3363  10.261   4.990   6.591  0.0326  0.3935 -0.3595
  750MOL0     C 3364  10.200   5.050   6.678  0.1792  0.1637 -1.6640
  750MOL0     O 3365  10.232   5.042   6.812  0.1563 -0.1848  0.4013
  750MOL0     C 3366  10.343   4.978   6.861  0.0879 -1.0229 -0.0614
  750MOL0     C 3367  10.448   4.922   6.793  0.0238 -0.1746  0.1367
  750MOL0     C 3368  10.552   4.866   6.865 -0.1838 -1.1171 -0.1611
  750MOL0     C 3369  10.554   4.863   7.003  0.3662  0.2981  0.3171
  750MOL0     O 3370  10.662   4.808   7.062  0.2136 -0.1327 -0.3010
  750MOL0     C 3371  10.634   4.724   7.177  1.1076 -0.2686 -0.4470
  750MOL0     C 3372  10.758   4.627   7.202  0.2836 -0.0347 -0.4159
  750MOL0     C 3373  10.799   4.545   7.085 -0.6050  0.4014  0.1078
  750MOL0     C 3374  10.927   4.599   7.014 -0.4849 -0.0506 -1.0168
  750MOL0     C 3375  11.069   4.566   7.066  0.4145 -0.1251  0.4297
  750MOL0     C 3376  11.086   4.410   7.069  0.2346  1.0447  0.0309
  750MOL0     C 3377  11.214   4.362   7.137  0.1198 -0.8372  0.2996
  750MOL0     C 3378  11.339   4.449   7.093 -0.0749 -0.5557  0.1655
  750MOL0     N 3379  11.464   4.399   7.151  0.3129  0.5039 -0.3588
  750MOL0     C 3380  11.486   4.275   7.195  0.6610  0.3761  0.2823
  750MOL0     C 3381  11.620   4.285   7.225  0.4820  0.2451 -0.7387
  750MOL0     C 3382  11.719   4.177   7.269  1.1951  0.1246 -0.2433
  750MOL0     C 3383  11.784   4.136   7.138  0.2792  0.1244  0.3773
  750MOL0     C 3384  11.887   4.028   7.162  0.7296  0.3595 -0.1388
  750MOL0     C 3385  11.938   3.974   7.029  0.2707  0.5377 -0.6639
  750MOL0     O 3386  12.013   4.076   6.963  0.1837 -0.6025  0.0281
  750MOL0     C 3387  12.150   4.097   6.999  0.1437  0.4843 -0.4759
  750MOL0     C 3388  12.216   4.012   7.094  0.0618 -0.5214 -0.0692
  750MOL0     C 3389  12.341   4.048   7.139  0.1514  0.3578  0.6554
  750MOL0     C 3390  12.406   3.949   7.234 -0.2544  0.9814  0.4130
  750MOL0     C 3391  12.406   4.164   7.094  0.1964 -0.4451  0.0796
  750MOL0     C 3392  12.541   4.212   7.144  0.5940 -0.5970  0.1974
  750MOL0     O 3393  12.593   4.153   7.253  0.6392 -0.1406 -0.5289
  750MOL0     C 3394  12.730   4.163   7.280  0.5094  0.4784  0.2834
  750MOL0     C 3395  12.828   4.170   7.180  0.5224 -0.1676  1.1076
  750MOL0     C 3396  12.960   4.204   7.216 -0.2069  0.2748  0.6390
  750MOL0     C 3397  13.005   4.213   7.339 -1.1448 -0.2524  0.5474
  750MOL0     O 3398  13.136   4.231   7.362  0.1385 -0.1420  0.1075
  750MOL0     C 3399  13.190   4.185   7.485 -0.1441 -0.0174  0.3105
  750MOL0     C 3400  13.340   4.182   7.481 -0.1691 -0.5759 -0.1201
  750MOL0     C 3401  13.396   4.136   7.616 -0.7888 -0.2453 -0.3975
  750MOL0     C 3402  13.554   4.126   7.621  1.2887  0.2358 -0.6502
  750MOL0     C 3403  13.618   4.263   7.637  0.5538 -0.0397 -0.2700
  750MOL0     C 3404  13.763   4.255   7.603  0.6581  0.1608  0.0515
  750MOL0     C 3405  13.825   4.397   7.617  1.1579  0.6871  0.3291
  750MOL0     C 3406  13.972   4.393   7.575  0.1719 -0.2087  0.1123
  750MOL0    Cl 3407  14.043   4.550   7.597 -0.0291 -0.5471  0.0469
  750MOL0     C 3408  12.913   4.205   7.443 -0.1621  0.8630  0.3324
  750MOL0     C 3409  12.775   4.184   7.410 -0.4085  0.0007  0.0813
  750MOL0     O 3410  12.599   4.303   7.084 -0.0153  0.0939 -0.5410
  750MOL0     C 3411  12.339   4.253   7.010  0.2805 -0.3153  0.1999
  750MOL0     C 3412  12.210   4.211   6.954 -1.9023  0.3161  0.3707
  750MOL0     N 3413  11.668   4.415   7.211  0.2766  0.7476  0.3266
  750MOL0     N 3414  11.568   4.483   7.165 -0.2546  0.5529  0.2224
  750MOL0     C 3415  10.442   4.919   7.066  0.1659  0.2527  0.5921
  750MOL0     C 3416  10.339   4.980   7.002  0.5378  0.1061  0.4976
  750MOL0     C 3417  10.088   5.127   6.637  0.4209 -0.8501  0.2850
  750MOL0     C 3418   9.985   5.077   6.559  0.1591 -0.1263  0.2304
  750MOL0     C 3419   9.867   5.150   6.550  0.0727 -0.0909  0.0460
  750MOL0     C 3420   9.846   5.276   6.614  0.3013  0.7253  0.0988
  750MOL0     O 3421   9.727   5.336   6.621  0.7046 -1.0947 -0.1607
  750MOL0     C 3422   9.613   5.274   6.560 -0.2762 -0.6649 -0.4396
  750MOL0     C 3423   9.496   5.369   6.567  0.4637  0.1038  0.9740
  750MOL0     C 3424   9.372   5.290   6.510  0.2851  0.2756 -0.2857
  750MOL0     C 3425   9.245   5.373   6.514  0.0221 -0.1657  0.6057
  750MOL0     C 3426   9.141   5.317   6.421 -0.2203  0.9645 -0.6173
  750MOL0     C 3427   9.074   5.258   6.342 -0.3917  0.1708  0.0608
  750MOL0     C 3428   9.959   5.334   6.672 -0.5158  1.2332  0.3624
  750MOL0     C 3429  10.078   5.261   6.685 -0.6250  1.2679  0.2843
  750MOL0     C 3430  10.201   5.325   6.749  0.2749  0.3400  0.6839
  750MOL0     H 3431  10.460   4.916   6.686 -2.6150  0.0560 -0.2375
  750MOL0     H 3432  10.635   4.812   6.820  3.3800  2.6472  1.2629
  750MOL0     H 3433  10.545   4.664   7.162  0.9429 -0.2816  0.5127
  750MOL0     H 3434  10.620   4.783   7.269  1.5455 -0.0993 -0.4838
  750MOL0     H 3435  10.854   4.674   7.224  0.5703  1.1519 -3.6907
  750MOL0     H 3436  10.739   4.558   7.286  2.5546  0.3544  0.4767
  750MOL0     H 3437  10.830   4.449   7.127  2.5548  0.2799 -2.0947
  750MOL0     H 3438  10.715   4.540   7.016  0.4266  0.5062 -1.2106
  750MOL0     H 3439  10.916   4.549   6.918 -0.3624 -0.3227 -0.8894
  750MOL0     H 3440  10.908   4.705   6.995 -1.4302  0.1583  0.8260
  750MOL0     H 3441  11.084   4.612   7.164 -0.0086  1.5023 -0.2261
  750MOL0     H 3442  11.142   4.614   6.999  0.3145 -0.3009  0.1929
  750MOL0     H 3443  11.000   4.365   7.118 -0.5373  0.2292 -1.9558
  750MOL0     H 3444  11.074   4.381   6.964  0.0763  1.0983  0.0334
  750MOL0     H 3445  11.219   4.258   7.102 -3.6072 -0.6373 -1.3811
  750MOL0     H 3446  11.207   4.362   7.246 -0.9753 -0.1366  0.2479
  750MOL0     H 3447  11.340   4.458   6.984  1.3813  0.1357  0.2046
  750MOL0     H 3448  11.319   4.552   7.125 -0.8448 -0.9487  0.9927
  750MOL0     H 3449  11.423   4.187   7.202 -0.3616  0.7870 -2.4943
  750MOL0     H 3450  11.676   4.104   7.337 -0.1069  0.8602 -0.2352
  750MOL0     H 3451  11.785   4.219   7.346  0.0901  0.0189  0.8013
  750MOL0     H 3452  11.711   4.108   7.061  1.4045  3.3902 -2.1072
  750MOL0     H 3453  11.834   4.224   7.097 -2.2268  0.8225 -1.4123
  750MOL0     H 3454  11.966   4.069   7.226 -0.8588  2.2008  0.7488
  750MOL0     H 3455  11.835   3.943   7.208 -0.6761  0.4461 -1.4963
  750MOL0     H 3456  11.992   3.879   7.031 -1.4978 -0.4933  0.1535
  750MOL0     H 3457  11.850   3.962   6.965 -0.3618  3.2536 -0.3930
  750MOL0     H 3458  12.172   3.920   7.132  1.2123 -1.5155 -1.0825
  750MOL0     H 3459  12.382   3.845   7.214  2.2600  0.4083  0.0454
  750MOL0     H 3460  12.369   3.983   7.332 -0.8707 -1.9394  1.3075
  750MOL0     H 3461  12.515   3.943   7.223 -0.2012 -1.4507  1.5647
  750MOL0     H 3462  12.804   4.152   7.075  1.4031 -0.8939  1.0194
  750MOL0     H 3463  13.023   4.218   7.129 -0.4005 -0.8457  0.3007
  750MOL0     H 3464  13.165   4.252   7.567 -0.6545 -1.0949  1.0488
  750MOL0     H 3465  13.164   4.079   7.495  2.3583 -0.7987 -0.7752
  750MOL0     H 3466  13.373   4.124   7.395  0.9591  0.7805 -0.6507
  750MOL0     H 3467  13.383   4.280   7.459  0.3987  0.0877  3.3987
  750MOL0     H 3468  13.357   4.036   7.639  1.2271 -0.9938 -0.0454
  750MOL0     H 3469  13.364   4.205   7.694 -0.0399 -0.0865 -0.2259
  750MOL0     H 3470  13.586   4.075   7.530  1.8395  0.0904 -0.3788
  750MOL0     H 3471  13.586   4.067   7.708 -0.9220  2.6982  2.0834
  750MOL0     H 3472  13.563   4.331   7.571 -2.5686 -0.9244  1.2278
  750MOL0     H 3473  13.610   4.307   7.737  3.6669 -0.2154  0.1497
  750MOL0     H 3474  13.762   4.221   7.499 -1.6051  1.5519 -0.4401
  750MOL0     H 3475  13.815   4.179   7.662  0.8612  2.5512  3.1939
  750MOL0     H 3476  13.806   4.435   7.718  1.0959 -2.3821  1.6054
  750MOL0     H 3477  13.779   4.461   7.541 -0.1529  0.2310  0.7142
  750MOL0     H 3478  13.984   4.370   7.469  0.5816  1.5429 -0.2463
  750MOL0     H 3479  14.035   4.336   7.644  0.7634  2.8039  2.2623
  750MOL0     H 3480  12.949   4.203   7.545  2.1310 -0.3553 -0.4330
  750MOL0     H 3481  12.704   4.175   7.491 -0.0462 -4.5823  0.1412
  750MOL0     H 3482  12.373   4.349   6.973 -1.0259 -0.1150 -0.5251
  750MOL0     H 3483  12.156   4.275   6.887  2.1690  3.4407 -0.3129
  750MOL0     H 3484  10.439   4.900   7.172  2.5211  0.4884  0.7578
  750MOL0     H 3485  10.249   5.007   7.056 -1.9612 -0.1897 -3.1717
  750MOL0     H 3486   9.983   4.978   6.515 -4.6871 -1.0536  1.9386
  750MOL0     H 3487   9.783   5.103   6.498 -1.1589  0.4733  1.4491
  750MOL0     H 3488   9.635   5.246   6.457  1.6210 -0.6013 -0.0941
  750MOL0     H 3489   9.586   5.193   6.627  0.2416  1.6508  2.8123
  750MOL0     H 3490   9.513   5.458   6.507 -0.7083  0.3631  1.0075
  750MOL0     H 3491   9.470   5.387   6.672  0.5578 -2.3188  1.4713
  750MOL0     H 3492   9.396   5.258   6.408  0.3361  1.1700 -0.5617
  750MOL0     H 3493   9.349   5.197   6.563 -1.1419  1.0178  0.4554
  750MOL0     H 3494   9.267   5.478   6.497 -0.2773  0.3611  3.0807
  750MOL0     H 3495   9.197   5.372   6.612 -1.1708 -2.3647  0.0738
  750MOL0     H 3496   9.018   5.195   6.275 -1.3718  0.6422  0.4239
  750MOL0     H 3497   9.958   5.433   6.715  1.3096  0.3299  2.7171
  750MOL0     H 3498  10.199   5.435   6.753 -0.5231  0.4011 -0.7564
  750MOL0     H 3499  10.216   5.281   6.848 -0.8045  0.5683  0.9713
  750MOL0     H 3500  10.276   5.292   6.677 -0.8250 -2.2868  0.6404
  751MOL0     O 3501  10.561   8.870  11.156  0.1092  0.3622  0.5509
  751MOL0     C 3502  10.590   8.925  11.262 -0.4842  0.8066 -0.6209
  751MOL0     O 3503  10.694   8.895  11.348 -0.2826  0.2178  0.1005
  751MOL0     C 3504  10.798   8.812  11.311 -0.2702  0.1367  0.0174
  751MOL0     C 3505  10.865   8.739  11.415 -0.6445  0.3074 -0.3904
  751MOL0     C 3506  10.982   8.665  11.388  0.8831  0.2631  0.9508
  751MOL0     C 3507  11.040   8.667  11.260 -0.0217 -0.5206  0.1797
  751MOL0     O 3508  11.152   8.595  11.245 -0.3440  0.0950 -0.4690
  751MOL0     C 3509  11.251   8.685  11.190  0.2112  0.5904 -0.2751
  751MOL0     C 3510  11.389   8.616  11.205  0.3339 -0.5719  0.3510
  751MOL0     C 3511  11.507   8.694  11.141  0.0399 -0.3662 -0.0534
  751MOL0     C 3512  11.589   8.802  11.207 -0.1591 -0.7088 -0.0693
  751MOL0     C 3513  11.503   8.927  11.241  0.3798 -0.8858  0.0418
  751MOL0     C 3514  11.435   9.007  11.120 -0.1822 -0.2920 -0.7463
  751MOL0     C 3515  11.409   9.162  11.136  0.3853 -0.2326 -0.2878
  751MOL0     C 3516  11.315   9.212  11.020  1.1307  0.6107  0.4904
  751MOL0     N 3517  11.371   9.203  10.884  0.2432  0.2778  1.2353
  751MOL0     C 3518  11.353   9.097  10.791 -0.1492  0.0988 -0.2378
  751MOL0     C 3519  11.393   9.142  10.674 -0.1900 -0.6019 -0.0692
  751MOL0     C 3520  11.377   9.079  10.541  0.5584 -0.2948  0.0522
  751MOL0     C 3521  11.369   8.924  10.549 -1.0600 -0.0533 -0.7256
  751MOL0     C 3522  11.388   8.855  10.417  0.7147 -0.4194  1.3767
  751MOL0     C 3523  11.256   8.853  10.341  0.4451 -0.2852 -0.7306
  751MOL0     O 3524  11.162   8.754  10.399 -0.1924  0.0267  0.2856
  751MOL0     C 3525  11.047   8.715  10.334  0.6067 -0.1946  0.9744
  751MOL0     C 3526  10.983   8.808  10.250 -0.1663 -0.2249 -0.5676
  751MOL0     C 3527  10.851   8.788  10.202  1.0278 -0.1010  0.0585
  751MOL0     C 3528  10.793   8.882  10.105  0.7352  0.1768 -0.1905
  751MOL0     C 3529  10.787   8.662  10.237  0.1137 -0.2767 -0.5239
  751MOL0     C 3530  10.648   8.614  10.186  0.1661 -0.1994 -0.2723
  751MOL0     O 3531  10.580   8.509  10.240 -0.1610  0.0524 -0.4978
  751MOL0     C 3532  10.437   8.514  10.246 -0.4687 -0.2765 -0.1899
  751MOL0     C 3533  10.356   8.623  10.235  0.4411  0.5802 -0.7245
  751MOL0     C 3534  10.215   8.607  10.253 -0.6604  0.1808  0.2170
  751MOL0     C 3535  10.158   8.482  10.290 -0.3408 -0.1978  0.1823
  751MOL0     O 3536  10.021   8.463  10.310 -0.0979 -0.3608 -0.3954
  751MOL0     C 3537   9.925   8.536  10.236 -0.2890  0.1567 -0.2830
  751MOL0     C 3538   9.787   8.484  10.267  0.6721 -0.1397 -0.3706
  751MOL0     C 3539   9.739   8.496  10.417  0.6556 -0.9443 -0.3377
  751MOL0     C 3540   9.690   8.629  10.473 -0.0136 -0.6785  0.6362
  751MOL0     C 3541   9.654   8.615  10.616 -0.3958  0.0022 -0.4731
  751MOL0     C 3542   9.499   8.596  10.652  0.3599  0.4695  0.0571
  751MOL0     C 3543   9.468   8.636  10.800  0.1182 -0.1920 -0.3452
  751MOL0     C 3544   9.321   8.644  10.818  0.0944 -0.0876 -0.3152
  751MOL0    Cl 3545   9.247   8.483  10.796  0.0356  0.2080  0.1956
  751MOL0     C 3546  10.244   8.369  10.289 -0.0179 -0.2967 -1.0149
  751MOL0     C 3547  10.382   8.390  10.276  0.1170 -0.5172 -1.1842
  751MOL0     O 3548  10.603   8.673  10.086  0.6727 -0.4472  0.1237
  751MOL0     C 3549  10.859   8.569  10.312  0.1689  0.5806 -0.6248
  751MOL0     C 3550  10.981   8.602  10.366 -0.9236 -0.5821 -0.0497
  751MOL0     N 3551  11.447   9.271  10.693 -0.2430 -0.7135  0.1127
  751MOL0     N 3552  11.416   9.311  10.816 -0.5077  0.7827  0.0305
  751MOL0     C 3553  10.964   8.735  11.157 -0.9874  0.5565 -0.3814
  751MOL0     C 3554  10.846   8.802  11.185  0.2871 -0.7418  0.2747
  751MOL0     C 3555  10.505   9.036  11.318 -1.0238 -0.5423 -0.2255
  751MOL0     C 3556  10.549   9.104  11.434  0.9279  0.1665  1.2537
  751MOL0     C 3557  10.465   9.197  11.505 -0.0835  0.5838  0.1135
  751MOL0     C 3558  10.349   9.243  11.441 -0.5154  0.1375 -0.4978
  751MOL0     O 3559  10.266   9.338  11.509  0.4733  0.8771 -0.2633
  751MOL0     C 3560  10.133   9.357  11.469  0.2943 -0.8307  0.1470
  751MOL0     C 3561  10.068   9.469  11.544 -0.0616  0.0907 -0.5912
  751MOL0     C 3562   9.911   9.467  11.537  0.1964 -0.5568  0.4768
  751MOL0     C 3563   9.855   9.586  11.622  0.4329  0.6406 -0.0325
  751MOL0     C 3564   9.712   9.599  11.604  0.2765  0.3290 -0.1712
  751MOL0     C 3565   9.592   9.605  11.586 -0.5390  0.5241 -0.3101
  751MOL0     C 3566  10.316   9.185  11.322  0.1888 -0.2946 -0.1030
  751MOL0     C 3567  10.383   9.080  11.261 -0.8906  0.5028 -0.6648
  751MOL0     C 3568  10.325   9.022  11.146  0.9378  0.2910 -0.2763
  751MOL0     H 3569  10.830   8.738  11.517 -2.0232 -0.3104 -0.8371
  751MOL0     H 3570  11.020   8.603  11.469 -0.2649 -1.4731  0.2083
  751MOL0     H 3571  11.253   8.774  11.253 -2.3978 -0.0259  0.7706
  751MOL0     H 3572  11.228   8.705  11.085  0.7026  1.8195 -0.1689
  751MOL0     H 3573  11.403   8.599  11.312 -1.2042  2.0186  1.0315
  751MOL0     H 3574  11.379   8.517  11.159  0.9203  0.2863 -1.7117
  751MOL0     H 3575  11.577   8.618  11.105 -0.2977  1.3240 -5.0672
  751MOL0     H 3576  11.475   8.735  11.045  0.3116 -0.4072 -0.1615
  751MOL0     H 3577  11.624   8.750  11.296 -0.3710  0.4620  0.7228
  751MOL0     H 3578  11.673   8.822  11.140 -0.8875 -0.3151 -0.8933
  751MOL0     H 3579  11.574   8.993  11.292  0.9294 -1.9520  0.6808
  751MOL0     H 3580  11.424   8.894  11.308  0.2059 -0.3166  0.1185
  751MOL0     H 3581  11.502   8.995  11.034  0.0530  2.4285 -1.0372
  751MOL0     H 3582  11.339   8.960  11.099 -0.6597 -1.3571  3.0386
  751MOL0     H 3583  11.507   9.209  11.124  1.0079 -1.6583 -0.9966
  751MOL0     H 3584  11.382   9.176  11.241 -0.3396  0.6564 -0.5791
  751MOL0     H 3585  11.222   9.157  11.033  1.3661 -0.1872 -1.0313
  751MOL0     H 3586  11.284   9.313  11.048 -3.0401 -0.8587  2.0277
  751MOL0     H 3587  11.307   9.002  10.816  3.6232 -1.5069  1.4564
  751MOL0     H 3588  11.448   9.116  10.467  1.7157  0.1045  1.3026
  751MOL0     H 3589  11.279   9.106  10.502  0.9540 -0.3134 -0.9848
  751MOL0     H 3590  11.456   8.895  10.608 -0.2345  2.9046 -0.3117
  751MOL0     H 3591  11.277   8.908  10.606 -0.0459  0.7046  1.1995
  751MOL0     H 3592  11.462   8.909  10.356 -0.7075 -0.5408 -0.5569
  751MOL0     H 3593  11.419   8.751  10.427 -1.3218 -1.3090 -0.5744
  751MOL0     H 3594  11.223   8.957  10.347  1.5048  0.0333 -0.1899
  751MOL0     H 3595  11.262   8.833  10.234 -1.8053  0.5030 -1.0477
  751MOL0     H 3596  11.038   8.896  10.222  2.5510 -1.9113 -0.9061
  751MOL0     H 3597  10.799   8.843  10.003 -3.2234 -0.0163 -0.4770
  751MOL0     H 3598  10.854   8.973  10.110  1.1475 -0.1451  1.5256
  751MOL0     H 3599  10.689   8.907  10.127  0.5904  0.3870 -1.0826
  751MOL0     H 3600  10.405   8.716  10.208  1.8984 -0.1043 -0.5583
  751MOL0     H 3601  10.157   8.697  10.238  1.3590  1.6841  0.9474
  751MOL0     H 3602   9.934   8.643  10.257  2.1064 -0.0966  0.2092
  751MOL0     H 3603   9.958   8.522  10.132  1.0344 -0.2006  0.1658
  751MOL0     H 3604   9.716   8.539  10.205  0.1174 -0.6264 -0.1781
  751MOL0     H 3605   9.784   8.378  10.241 -0.8482 -1.3427  3.7698
  751MOL0     H 3606   9.823   8.461  10.478 -0.7580 -1.1711  1.5672
  751MOL0     H 3607   9.655   8.427  10.430  1.8132 -2.2049  0.8907
  751MOL0     H 3608   9.599   8.656  10.418 -1.3741 -4.0986  0.9737
  751MOL0     H 3609   9.774   8.695  10.450  0.9611 -3.0642 -3.7532
  751MOL0     H 3610   9.711   8.533  10.660  1.1465  1.9327  1.3066
  751MOL0     H 3611   9.679   8.705  10.672 -1.4818  0.7663 -1.1707
  751MOL0     H 3612   9.474   8.491  10.636  1.2479  0.1535  0.6260
  751MOL0     H 3613   9.447   8.669  10.590  1.4473  2.3704  1.2871
  751MOL0     H 3614   9.517   8.732  10.820  0.6278 -0.8923  2.2519
  751MOL0     H 3615   9.508   8.563  10.872  0.5879 -0.8293 -1.2393
  751MOL0     H 3616   9.280   8.715  10.746  0.9060 -0.3752 -1.0864
  751MOL0     H 3617   9.298   8.683  10.917  1.7688  3.6780 -1.2316
  751MOL0     H 3618  10.210   8.266  10.281 -1.0265  0.1160 -2.5200
  751MOL0     H 3619  10.448   8.304  10.286  1.2897  0.4140 -0.6039
  751MOL0     H 3620  10.825   8.471  10.342  2.4543 -0.0392  0.1566
  751MOL0     H 3621  11.033   8.544  10.442 -2.1975 -0.3342  1.0480
  751MOL0     H 3622  11.003   8.737  11.056  0.2276  1.4917  0.0876
  751MOL0     H 3623  10.808   8.862  11.104  2.8529  0.2215 -0.3281
  751MOL0     H 3624  10.653   9.106  11.464  1.2749  0.2150  0.0909
  751MOL0     H 3625  10.475   9.220  11.610 -0.9605 -0.6932  0.5029
  751MOL0     H 3626  10.137   9.391  11.365  1.1387  2.2690  1.0693
  751MOL0     H 3627  10.072   9.268  11.484 -1.1319  0.3288  1.5928
  751MOL0     H 3628  10.095   9.570  11.511 -1.7896  0.7548 -0.0778
  751MOL0     H 3629  10.087   9.448  11.649 -0.9979 -2.1291 -0.8140
  751MOL0     H 3630   9.876   9.482  11.434 -1.9070  4.4526  1.6164
  751MOL0     H 3631   9.870   9.373  11.576 -0.7019 -0.8070 -0.9870
  751MOL0     H 3632   9.912   9.678  11.605  0.0142  0.7749 -0.7987
  751MOL0     H 3633   9.854   9.560  11.728 -0.7314  1.7698  0.2609
  751MOL0     H 3634   9.489   9.608  11.557 -0.1361 -0.8346 -2.0691
  751MOL0     H 3635  10.219   9.214  11.283 -0.4222  1.4361  2.4793
  751MOL0     H 3636  10.376   9.059  11.056 -0.0046  1.2612 -0.4298
  751MOL0     H 3637  10.327   8.913  11.140  0.3236  0.2724 -0.2208
  751MOL0     H 3638  10.219   9.047  11.137  0.9421 -0.2899 -2.8797
  752MOL0     O 3639   2.117   9.645  10.880 -0.3012 -0.4438 -0.0641
  752MOL0     C 3640   2.064   9.701  10.787  0.2781  0.4755  0.1135
  752MOL0     O 3641   2.118   9.807  10.718  0.6676  0.9393 -0.2411
  752MOL0     C 3642   2.236   9.860  10.744  0.2939  0.6181  0.8948
  752MOL0     C 3643   2.289   9.954  10.650  1.0545  0.1752 -1.1804
  752MOL0     C 3644   2.410  10.023  10.678  0.6962 -0.3312 -0.0392
  752MOL0     C 3645   2.473  10.016  10.807 -0.0817  0.8803 -0.1352
  752MOL0     O 3646   2.584  10.084  10.845 -0.2197  0.1831 -0.2779
  752MOL0     C 3647   2.609  10.214  10.791 -0.3683 -0.2620  0.3357
  752MOL0     C 3648   2.718  10.208  10.679 -0.0552 -0.9534 -0.3842
  752MOL0     C 3649   2.857  10.177  10.738 -0.1835 -0.4390  0.1548
  752MOL0     C 3650   2.968  10.171  10.626  0.4817 -1.1747 -1.1622
  752MOL0     C 3651   3.032  10.312  10.591  0.0854  0.2093 -1.0445
  752MOL0     C 3652   3.139  10.283  10.481 -0.5547 -0.1616  0.6707
  752MOL0     C 3653   3.233  10.411  10.486 -0.3197  0.8013  0.5385
  752MOL0     C 3654   3.360  10.385  10.401 -1.0704  0.1502 -0.4936
  752MOL0     N 3655   3.344  10.367  10.250 -0.7458  0.3533 -1.8055
  752MOL0     C 3656   3.298  10.245  10.196 -1.0414  0.4173  0.9154
  752MOL0     C 3657   3.305  10.277  10.059  0.4896 -0.6102 -0.0166
  752MOL0     C 3658   3.270  10.166   9.961  0.7806  0.1596 -0.7753
  752MOL0     C 3659   3.325  10.189   9.820  0.7022  0.1754 -0.3525
  752MOL0     C 3660   3.382  10.067   9.747  0.0355  0.5419  0.6609
  752MOL0     C 3661   3.420  10.094   9.599 -0.6989 -0.1767  0.2069
  752MOL0     O 3662   3.531  10.008   9.563  0.2958  0.1134  0.7807
  752MOL0     C 3663   3.649  10.077   9.530  0.1154 -0.4325  0.3860
  752MOL0     C 3664   3.667  10.155   9.413  1.6516  0.3446  0.0020
  752MOL0     C 3665   3.791  10.226   9.389  0.0362  0.1446  0.6472
  752MOL0     C 3666   3.795  10.310   9.263  0.8779 -0.6691  0.4662
  752MOL0     C 3667   3.890  10.210   9.485  0.6110  0.4006  0.1769
  752MOL0     C 3668   4.025  10.262   9.465  0.1567 -0.1824 -0.3049
  752MOL0     O 3669   4.071  10.282   9.339  0.0837  0.5799  0.1716
  752MOL0     C 3670   4.183  10.352   9.296 -0.4821  0.1623 -0.3256
  752MOL0     C 3671   4.209  10.358   9.159 -0.1698  1.0437  0.8213
  752MOL0     C 3672   4.300  10.440   9.100 -0.2725  0.3234  0.1120
  752MOL0     C 3673   4.389  10.499   9.174 -0.1528 -0.7158  0.0365
  752MOL0     O 3674   4.495  10.571   9.110  0.1599 -0.1480 -0.4940
  752MOL0     C 3675   4.570  10.680   9.164  0.1187 -0.3255  0.6543
  752MOL0     C 3676   4.705  10.640   9.211 -0.0038 -0.3088  0.2666
  752MOL0     C 3677   4.757  10.709   9.339  0.1053  0.1655 -0.5754
  752MOL0     C 3678   4.731  10.861   9.344 -0.6638 -0.6097  0.9124
  752MOL0     C 3679   4.819  10.932   9.237  0.0840 -0.0872  0.2151
  752MOL0     C 3680   4.968  10.966   9.291  0.0462  0.6522 -0.6100
  752MOL0     C 3681   5.059  11.043   9.194  1.2203 -0.1095 -0.1589
  752MOL0     C 3682   5.076  10.977   9.053  0.0290 -0.1254  0.4119
  752MOL0    Cl 3683   5.117  10.796   9.080 -0.2655  0.2427 -0.0997
  752MOL0     C 3684   4.384  10.484   9.312 -0.4948 -0.9234 -0.1171
  752MOL0     C 3685   4.277  10.424   9.372  1.0521 -0.4284  0.9216
  752MOL0     O 3686   4.094  10.298   9.565 -0.1660 -0.3976 -0.3345
  752MOL0     C 3687   3.859  10.145   9.603 -0.3523 -0.5682  0.3075
  752MOL0     C 3688   3.746  10.072   9.628  0.0051 -0.5615  0.3318
  752MOL0     N 3689   3.349  10.403  10.040  1.1259 -0.0381  0.5698
  752MOL0     N 3690   3.365  10.460  10.154  0.4698 -0.0740 -0.2102
  752MOL0     C 3691   2.424   9.916  10.894  0.2710 -0.4590 -0.4925
  752MOL0     C 3692   2.313   9.845  10.861 -0.6233 -1.0706 -0.0175
  752MOL0     C 3693   1.925   9.674  10.750  0.1255  0.0072 -0.4303
  752MOL0     C 3694   1.860   9.743  10.649  0.7871 -0.3267  0.3547
  752MOL0     C 3695   1.728   9.728  10.606  0.5111  0.1854  0.6302
  752MOL0     C 3696   1.657   9.619  10.664  0.5085  0.1693  0.6565
  752MOL0     O 3697   1.527   9.590  10.636  0.1757  0.0303  0.2945
  752MOL0     C 3698   1.480   9.644  10.511 -0.9315  0.8376 -0.2381
  752MOL0     C 3699   1.390   9.537  10.451 -0.3712  0.1277  0.6635
  752MOL0     C 3700   1.248   9.537  10.505  0.7218 -1.1434 -0.0071
  752MOL0     C 3701   1.228   9.542  10.659  0.3590  0.1860 -0.2047
  752MOL0     C 3702   1.281   9.417  10.712 -0.1732 -0.1344 -0.3091
  752MOL0     C 3703   1.316   9.310  10.747  0.0115 -0.7812 -0.1275
  752MOL0     C 3704   1.716   9.547  10.760 -0.6777 -0.5087 -0.1192
  752MOL0     C 3705   1.850   9.563  10.802 -0.1263  0.3235 -0.4532
  752MOL0     C 3706   1.903   9.456  10.895  1.1025 -0.2010 -0.0987
  752MOL0     H 3707   2.244   9.977  10.554  1.9178 -1.0083 -1.8991
  752MOL0     H 3708   2.450  10.098  10.611  0.0952  0.2241  0.2149
  752MOL0     H 3709   2.666  10.278  10.858  1.3940 -1.1274 -0.2614
  752MOL0     H 3710   2.521  10.260  10.745 -0.1742 -1.4439 -1.2910
  752MOL0     H 3711   2.689  10.131  10.608 -1.5634  0.2599 -1.1464
  752MOL0     H 3712   2.731  10.302  10.624 -0.4413 -1.4505 -1.3306
  752MOL0     H 3713   2.888  10.238  10.824  0.0657  3.1743 -2.2798
  752MOL0     H 3714   2.854  10.071  10.766 -1.5181 -0.9425 -1.7005
  752MOL0     H 3715   3.058  10.128  10.672  1.1226  0.8395 -0.3842
  752MOL0     H 3716   2.932  10.117  10.538  1.3828 -0.6051 -1.8984
  752MOL0     H 3717   3.079  10.358  10.678  2.3438 -0.0534 -2.0601
  752MOL0     H 3718   2.965  10.391  10.556  1.4723  1.8883 -0.0945
  752MOL0     H 3719   3.204  10.196  10.501 -0.9274 -0.5071  0.3912
  752MOL0     H 3720   3.089  10.273  10.385  1.6481  0.6386 -0.6485
  752MOL0     H 3721   3.266  10.432  10.588  0.1725  1.9462  0.1655
  752MOL0     H 3722   3.174  10.491  10.441  1.8874  1.0083 -2.3370
  752MOL0     H 3723   3.422  10.473  10.417  1.1817 -1.7103  1.8009
  752MOL0     H 3724   3.422  10.303  10.439  0.2401  0.4039 -1.9464
  752MOL0     H 3725   3.259  10.160  10.250 -0.5178 -0.8987 -0.7016
  752MOL0     H 3726   3.161  10.159   9.950  0.4326 -1.1612  2.4944
  752MOL0     H 3727   3.288  10.068  10.006  0.0720 -0.2603 -1.3784
  752MOL0     H 3728   3.237  10.228   9.768 -1.1677 -0.3768  2.2052
  752MOL0     H 3729   3.395  10.273   9.822 -0.2326  0.9565  1.1081
  752MOL0     H 3730   3.472  10.032   9.799  0.4329 -0.7435 -0.8223
  752MOL0     H 3731   3.306   9.989   9.761 -0.2020  1.3302  5.5963
  752MOL0     H 3732   3.334  10.076   9.534 -1.1549 -1.4190  1.1063
  752MOL0     H 3733   3.443  10.201   9.596  0.8601 -0.4960 -0.0539
  752MOL0     H 3734   3.584  10.167   9.343  1.3267  1.3037  0.5384
  752MOL0     H 3735   3.699  10.358   9.242 -1.1811 -4.2198  0.9296
  752MOL0     H 3736   3.824  10.242   9.182  2.7696 -1.6731  1.9150
  752MOL0     H 3737   3.859  10.397   9.275 -0.7399  0.8574 -1.2117
  752MOL0     H 3738   4.133  10.306   9.102 -0.4210  0.6665  1.4964
  752MOL0     H 3739   4.312  10.452   8.993 -0.7080 -1.5061 -0.1743
  752MOL0     H 3740   4.586  10.762   9.094  0.5842 -0.0799  1.0413
  752MOL0     H 3741   4.515  10.724   9.248 -1.1438  1.7613 -1.1566
  752MOL0     H 3742   4.687  10.539   9.248  1.3672 -0.3110  0.9837
  752MOL0     H 3743   4.775  10.655   9.129 -2.2435  0.0973 -1.6750
  752MOL0     H 3744   4.865  10.691   9.342  0.2181  0.6570  3.3965
  752MOL0     H 3745   4.722  10.654   9.427  1.2353 -0.2065 -0.3322
  752MOL0     H 3746   4.755  10.908   9.440 -0.1163  1.7118 -0.2989
  752MOL0     H 3747   4.625  10.875   9.320  0.3084 -0.1143 -4.2471
  752MOL0     H 3748   4.828  10.868   9.149 -1.9250 -0.5754  0.3127
  752MOL0     H 3749   4.771  11.023   9.200  1.7296  1.0971  0.8978
  752MOL0     H 3750   5.021  10.872   9.308  0.7761  0.7229 -2.2591
  752MOL0     H 3751   4.964  11.019   9.386 -0.4942 -0.0714 -0.2271
  752MOL0     H 3752   5.157  11.051   9.242  1.3663 -1.0372 -0.2873
  752MOL0     H 3753   5.021  11.144   9.179  1.4808 -0.1157 -0.9022
  752MOL0     H 3754   5.166  11.022   9.010  1.4712 -0.9959  2.3417
  752MOL0     H 3755   4.984  10.998   8.998 -0.6439 -2.1613  0.6526
  752MOL0     H 3756   4.449  10.545   9.375 -2.8051  1.0224  0.5303
  752MOL0     H 3757   4.254  10.434   9.478 -4.2088 -2.4466  0.2925
  752MOL0     H 3758   3.939  10.137   9.676  0.4401 -1.0991 -0.6063
  752MOL0     H 3759   3.724  10.016   9.719 -1.0763 -3.0511 -1.3558
  752MOL0     H 3760   2.470   9.897  10.990 -0.5352 -0.1964 -0.0425
  752MOL0     H 3761   2.296   9.770  10.938  0.3525 -1.0299  0.2498
  752MOL0     H 3762   1.906   9.839  10.626  1.4125 -0.1748  2.1334
  752MOL0     H 3763   1.691   9.793  10.528  1.5734  1.3642  1.0800
  752MOL0     H 3764   1.439   9.744  10.530 -0.9927  0.6934  0.4347
  752MOL0     H 3765   1.561   9.643  10.439 -0.6281  2.8254  0.0177
  752MOL0     H 3766   1.434   9.439  10.472  0.7288  0.2507 -0.8400
  752MOL0     H 3767   1.380   9.561  10.344  1.8163  3.8748  1.1300
  752MOL0     H 3768   1.209   9.630  10.462 -0.9772 -1.0745  1.6046
  752MOL0     H 3769   1.191   9.453  10.465 -0.4970 -0.3308 -0.0150
  752MOL0     H 3770   1.123   9.557  10.683  0.2855 -0.1172 -0.3326
  752MOL0     H 3771   1.288   9.622  10.703  0.2192 -0.5343  1.3643
  752MOL0     H 3772   1.331   9.208  10.778  2.0750  0.4602  3.5721
  752MOL0     H 3773   1.657   9.471  10.811  1.8372 -2.0821  0.6198
  752MOL0     H 3774   1.821   9.384  10.907 -0.5928  1.3210 -1.9792
  752MOL0     H 3775   1.992   9.407  10.855  1.0498  0.9357 -1.6871
  752MOL0     H 3776   1.920   9.500  10.994  2.0847  1.6036 -1.0332
  753MOL0     O 3777   9.042  10.711   6.046 -0.2576 -0.5845  0.0572
  753MOL0     C 3778   9.052  10.632   6.141 -0.2817 -0.2060 -0.6720
  753MOL0     O 3779   9.166  10.561   6.164  0.4457  0.1848 -0.4742
  753MOL0     C 3780   9.269  10.584   6.074 -0.5174 -0.7020 -0.1326
  753MOL0     C 3781   9.279  10.510   5.956 -0.0416 -0.7783  0.2953
  753MOL0     C 3782   9.397  10.523   5.881  0.8271  0.3856  0.6653
  753MOL0     C 3783   9.486  10.624   5.918 -1.0945 -0.2862 -0.8552
  753MOL0     O 3784   9.599  10.639   5.839 -0.1669 -0.5341  0.1529
  753MOL0     C 3785   9.646  10.767   5.795 -0.2031  0.3860 -0.1695
  753MOL0     C 3786   9.697  10.749   5.648  0.0849  0.5194 -0.2668
  753MOL0     C 3787   9.752  10.889   5.622 -0.4742  1.0068 -0.1597
  753MOL0     C 3788   9.895  10.903   5.663  0.0904  0.0306 -0.6364
  753MOL0     C 3789   9.963  11.005   5.576 -0.2557 -0.4762 -0.9792
  753MOL0     C 3790  10.095  11.044   5.636 -0.4400  0.1337 -0.0934
  753MOL0     C 3791  10.177  11.134   5.530  0.4871 -0.2319 -0.8744
  753MOL0     C 3792  10.114  11.276   5.515  0.1261 -0.9023  1.3387
  753MOL0     N 3793  10.142  11.371   5.618  0.8490  0.1091  0.6365
  753MOL0     C 3794  10.255  11.448   5.615 -0.3772 -0.2879 -0.4178
  753MOL0     C 3795  10.250  11.500   5.740  0.0713 -0.2142  0.0869
  753MOL0     C 3796  10.348  11.603   5.796  0.7625  0.4383 -0.3876
  753MOL0     C 3797  10.493  11.587   5.750 -0.3207 -1.2510  0.5727
  753MOL0     C 3798  10.592  11.673   5.828 -1.1024  0.0281 -0.5766
  753MOL0     C 3799  10.735  11.650   5.776  0.6481 -0.3022 -0.1135
  753MOL0     O 3800  10.833  11.692   5.870 -0.2504  0.4397 -0.2781
  753MOL0     C 3801  10.913  11.790   5.823 -0.3528 -0.1897 -0.2720
  753MOL0     C 3802  10.873  11.897   5.741  0.5365 -0.8000  0.5005
  753MOL0     C 3803  10.959  12.009   5.712  0.2831  0.9382 -0.5910
  753MOL0     C 3804  10.905  12.112   5.637 -0.5113 -0.4614 -0.1181
  753MOL0     C 3805  11.087  12.006   5.782 -1.6920  0.0370  0.0450
  753MOL0     C 3806  11.182  12.132   5.789 -0.7066 -0.1272 -0.4135
  753MOL0     O 3807  11.284  12.138   5.883  0.2388  0.1704  0.1521
  753MOL0     C 3808  11.362  12.247   5.899  0.8970 -0.3116 -0.2775
  753MOL0     C 3809  11.466  12.283   5.808  0.5455  0.4004  0.1096
  753MOL0     C 3810  11.546  12.391   5.835 -0.1051 -1.1666 -0.3987
  753MOL0     C 3811  11.529  12.473   5.949 -0.0410  0.5007  0.3909
  753MOL0     O 3812  11.627  12.567   5.962 -0.1593 -0.2158 -0.6112
  753MOL0     C 3813  11.683  12.594   6.091 -0.3062 -0.5063  0.3615
  753MOL0     C 3814  11.806  12.685   6.071  0.2771 -0.6407  0.5445
  753MOL0     C 3815  11.880  12.707   6.207  0.2362  0.0848  0.4095
  753MOL0     C 3816  11.994  12.802   6.185 -0.9515 -0.1074 -0.1771
  753MOL0     C 3817  12.067  12.829   6.314 -0.1568 -0.0891  1.0302
  753MOL0     C 3818  12.193  12.919   6.304  0.2427  0.6083  0.0323
  753MOL0     C 3819  12.267  12.909   6.440 -0.2835 -0.0389  0.8366
  753MOL0     C 3820  12.201  13.003   6.544 -0.2803  0.3088 -0.6591
  753MOL0    Cl 3821  12.312  13.040   6.672  0.0510  0.1240  0.1927
  753MOL0     C 3822  11.430  12.428   6.040  0.0179 -0.2759 -0.9060
  753MOL0     C 3823  11.346  12.319   6.015 -0.3750  0.0016 -0.3795
  753MOL0     O 3824  11.152  12.219   5.713  0.0883 -0.7313  0.3576
  753MOL0     C 3825  11.134  11.885   5.834 -0.3399  0.0666 -0.5504
  753MOL0     C 3826  11.043  11.781   5.859  0.4509 -0.3198 -0.0658
  753MOL0     N 3827  10.141  11.449   5.808 -0.3954  0.4918  0.5811
  753MOL0     N 3828  10.070  11.376   5.732 -0.5578  0.1245  0.2381
  753MOL0     C 3829   9.484  10.690   6.038  0.2046 -0.1290  0.8503
  753MOL0     C 3830   9.375  10.669   6.118 -0.0961  0.7802 -0.1828
  753MOL0     C 3831   8.951  10.620   6.249 -0.3273 -0.1836  0.6677
  753MOL0     C 3832   8.941  10.499   6.331  0.5601 -0.5827 -0.9075
  753MOL0     C 3833   8.840  10.474   6.425 -1.0534 -0.5132 -0.3204
  753MOL0     C 3834   8.743  10.572   6.439  0.1321 -0.4967 -0.1050
  753MOL0     O 3835   8.633  10.563   6.524  0.1774  0.4081 -0.0784
  753MOL0     C 3836   8.636  10.446   6.613 -0.0646  0.0419  0.0733
  753MOL0     C 3837   8.513  10.459   6.700  0.7826 -0.6326  0.2803
  753MOL0     C 3838   8.486  10.330   6.780  0.1968  0.1193  0.0447
  753MOL0     C 3839   8.484  10.199   6.704  0.5827 -0.0368  0.4295
  753MOL0     C 3840   8.471  10.090   6.801 -0.1996  0.4228 -0.4675
  753MOL0     C 3841   8.467   9.996   6.880  1.0707 -0.2568  0.9927
  753MOL0     C 3842   8.750  10.688   6.365  0.0820  0.7159  0.1055
  753MOL0     C 3843   8.848  10.721   6.271  0.5200  0.5620 -0.2108
  753MOL0     C 3844   8.840  10.857   6.206  0.1970  0.5227  0.2390
  753MOL0     H 3845   9.198  10.443   5.931 -2.0152  0.7049  2.2934
  753MOL0     H 3846   9.407  10.473   5.785 -0.5064 -0.0158  0.7116
  753MOL0     H 3847   9.734  10.792   5.855 -1.7389 -0.1460  2.4825
  753MOL0     H 3848   9.565  10.839   5.805 -0.0193  0.7701 -1.2950
  753MOL0     H 3849   9.782  10.681   5.640 -0.0340  0.3848 -0.4001
  753MOL0     H 3850   9.613  10.723   5.583  0.3115 -1.5984  0.2227
  753MOL0     H 3851   9.742  10.907   5.515  1.1909 -0.4664 -0.6121
  753MOL0     H 3852   9.690  10.967   5.668 -2.0635 -0.3387  0.0569
  753MOL0     H 3853   9.897  10.943   5.765 -1.6077  0.0797 -0.5836
  753MOL0     H 3854   9.945  10.806   5.674 -0.6702 -0.5593 -2.0764
  753MOL0     H 3855   9.897  11.092   5.563 -1.0550 -1.0930 -1.1382
  753MOL0     H 3856   9.977  10.947   5.485 -2.0718  1.1421 -2.3886
  753MOL0     H 3857  10.082  11.106   5.725  0.4015  1.6466 -0.9751
  753MOL0     H 3858  10.155  10.954   5.648  0.6304  0.4774 -2.3570
  753MOL0     H 3859  10.170  11.085   5.433 -0.8069  3.4068 -2.8418
  753MOL0     H 3860  10.283  11.131   5.556  0.2458  1.5638  0.4800
  753MOL0     H 3861  10.157  11.327   5.428  0.1983  2.5683  3.2484
  753MOL0     H 3862  10.011  11.272   5.481  0.4916 -0.6784  0.1391
  753MOL0     H 3863  10.329  11.463   5.536  2.6925  0.3388  2.3473
  753MOL0     H 3864  10.336  11.600   5.905 -1.9987  0.1851 -0.6166
  753MOL0     H 3865  10.307  11.701   5.771  0.1718 -0.4021 -2.9821
  753MOL0     H 3866  10.506  11.479   5.752  0.2308 -1.3403 -2.8049
  753MOL0     H 3867  10.503  11.602   5.642 -3.0788 -1.6624  0.1909
  753MOL0     H 3868  10.563  11.778   5.833  0.3035  0.3724  3.1554
  753MOL0     H 3869  10.598  11.656   5.935  2.9889 -0.4768 -0.7555
  753MOL0     H 3870  10.733  11.541   5.776 -0.9041 -0.3392  2.1905
  753MOL0     H 3871  10.756  11.690   5.676  0.9901  0.2075  0.1552
  753MOL0     H 3872  10.778  11.900   5.688  1.1916 -1.3334 -0.7416
  753MOL0     H 3873  10.909  12.202   5.700  0.9965 -0.2276 -0.5256
  753MOL0     H 3874  10.799  12.098   5.613 -1.7533  1.4053  3.4733
  753MOL0     H 3875  10.962  12.132   5.546  1.6018  1.7708  1.5678
  753MOL0     H 3876  11.487  12.231   5.715 -0.5411 -0.2043  0.1842
  753MOL0     H 3877  11.626  12.409   5.764  0.4670 -1.2432  0.2122
  753MOL0     H 3878  11.605  12.640   6.153 -1.2017 -1.6142  0.0942
  753MOL0     H 3879  11.710  12.502   6.142  0.7077 -2.4355 -3.2825
  753MOL0     H 3880  11.870  12.636   5.997 -1.4274 -0.1826 -1.3027
  753MOL0     H 3881  11.774  12.781   6.030  0.5308 -1.1206 -0.8079
  753MOL0     H 3882  11.932  12.618   6.244 -0.7871  1.0162  4.5658
  753MOL0     H 3883  11.818  12.742   6.290  2.4440  0.2237  2.0986
  753MOL0     H 3884  11.979  12.903   6.145  1.4788 -0.2548 -1.6239
  753MOL0     H 3885  12.054  12.748   6.112  0.5467 -0.8859  1.5629
  753MOL0     H 3886  11.993  12.867   6.384 -0.4556  3.7991 -1.1205
  753MOL0     H 3887  12.104  12.734   6.356  0.8712  0.2704  0.9757
  753MOL0     H 3888  12.175  13.019   6.263 -4.4000 -0.9395 -2.4647
  753MOL0     H 3889  12.252  12.872   6.225 -0.4757  0.9015 -0.6914
  753MOL0     H 3890  12.371  12.936   6.415 -0.9231  0.1680 -1.9873
  753MOL0     H 3891  12.261  12.808   6.480 -2.2499 -0.1158  0.4178
  753MOL0     H 3892  12.114  12.953   6.588 -0.5052 -1.2663 -2.7322
  753MOL0     H 3893  12.175  13.099   6.498  0.1951 -0.2743 -2.2137
  753MOL0     H 3894  11.416  12.488   6.130 -1.6543 -1.3815 -0.3814
  753MOL0     H 3895  11.267  12.295   6.086  1.4117  1.3874  2.2467
  753MOL0     H 3896  11.236  11.880   5.869 -0.1532  3.9103 -0.0569
  753MOL0     H 3897  11.073  11.695   5.919  2.4688 -0.0137 -0.5870
  753MOL0     H 3898   9.575  10.738   6.072  1.0527 -1.1007 -0.0064
  753MOL0     H 3899   9.373  10.727   6.210  1.2882 -1.6519  1.4912
  753MOL0     H 3900   9.005  10.412   6.319 -0.3725 -1.3771 -0.3099
  753MOL0     H 3901   8.826  10.377   6.471 -1.0062 -2.2653 -3.6713
  753MOL0     H 3902   8.625  10.365   6.540 -2.7118  1.4464 -1.2646
  753MOL0     H 3903   8.731  10.437   6.667  0.2568  1.5690 -0.1742
  753MOL0     H 3904   8.421  10.484   6.647  1.1938  0.3587  0.0019
  753MOL0     H 3905   8.526  10.541   6.772 -1.5900  0.6399 -0.6404
  753MOL0     H 3906   8.566  10.330   6.855  0.6749  1.0787 -0.4526
  753MOL0     H 3907   8.389  10.346   6.827  1.8298  1.9907  3.0760
  753MOL0     H 3908   8.574  10.192   6.641 -1.1331  4.1202 -3.0287
  753MOL0     H 3909   8.397  10.201   6.637  0.0438 -1.2634  1.0578
  753MOL0     H 3910   8.460   9.909   6.942 -0.8371 -0.9859 -0.1636
  753MOL0     H 3911   8.667  10.758   6.377  0.3741  1.1134 -0.1743
  753MOL0     H 3912   8.937  10.905   6.186  1.7643 -2.3509  0.3995
  753MOL0     H 3913   8.785  10.847   6.112  1.5952 -3.2514 -0.3333
  753MOL0     H 3914   8.784  10.921   6.275 -0.9641 -0.7135  0.4728
  754MOL0     O 3915   9.539   7.623   7.690  0.1248 -0.4918  0.0783
  754MOL0     C 3916   9.534   7.732   7.628  0.2015  0.2324 -1.1019
  754MOL0     O 3917   9.629   7.790   7.551  0.6955 -0.2535  0.6791
  754MOL0     C 3918   9.751   7.732   7.541 -0.2062  0.2991  0.8069
  754MOL0     C 3919   9.799   7.653   7.436 -0.8841  0.2106  0.2964
  754MOL0     C 3920   9.930   7.599   7.432 -1.0211 -0.8150  0.2306
  754MOL0     C 3921  10.020   7.652   7.528 -0.4607 -0.4389 -0.2381
  754MOL0     O 3922  10.155   7.630   7.523 -0.1429 -0.8086 -0.8041
  754MOL0     C 3923  10.202   7.493   7.518  0.4845 -0.0501  0.1474
  754MOL0     C 3924  10.352   7.485   7.535  0.3661  0.3344 -0.4119
  754MOL0     C 3925  10.394   7.547   7.671 -0.0612  0.0433  0.1138
  754MOL0     C 3926  10.541   7.528   7.698  0.4735  0.9092  0.6964
  754MOL0     C 3927  10.620   7.574   7.572  0.1973 -0.6509  0.1776
  754MOL0     C 3928  10.769   7.573   7.595 -0.8842  0.5505  0.0807
  754MOL0     C 3929  10.814   7.660   7.706  0.5603  1.1957  0.8136
  754MOL0     C 3930  10.967   7.675   7.701  0.1184 -0.3476 -0.2897
  754MOL0     N 3931  11.052   7.556   7.695 -1.3716  0.6282 -0.8799
  754MOL0     C 3932  11.050   7.444   7.775 -0.1505  0.8175  0.8651
  754MOL0     C 3933  11.140   7.362   7.725  0.3589 -0.2211 -0.4921
  754MOL0     C 3934  11.161   7.222   7.773 -0.1602 -0.3574  0.7812
  754MOL0     C 3935  11.053   7.122   7.719 -0.5674 -0.5340 -0.5980
  754MOL0     C 3936  11.053   7.109   7.569  1.1883 -0.1592 -0.8288
  754MOL0     C 3937  10.925   7.027   7.528 -0.3084  0.1858 -0.4826
  754MOL0     O 3938  10.951   6.892   7.557 -0.1659  0.2117  0.4514
  754MOL0     C 3939  10.839   6.819   7.595  0.7692 -0.0984 -1.7227
  754MOL0     C 3940  10.871   6.711   7.670 -0.2714  0.4305  1.0891
  754MOL0     C 3941  10.767   6.628   7.715  1.7264 -0.5092  0.2910
  754MOL0     C 3942  10.782   6.506   7.803  0.2618  0.4318 -0.7654
  754MOL0     C 3943  10.630   6.655   7.679 -0.1826 -0.2999 -1.3074
  754MOL0     C 3944  10.514   6.588   7.733 -1.2603  0.0488 -0.4888
  754MOL0     O 3945  10.425   6.565   7.635 -0.5055  0.7448 -0.5345
  754MOL0     C 3946  10.287   6.547   7.662  0.6898  0.4430  0.6012
  754MOL0     C 3947  10.206   6.540   7.543  0.8333 -0.7083 -0.3127
  754MOL0     C 3948  10.062   6.547   7.543 -0.7488 -0.7843 -0.3323
  754MOL0     C 3949   9.995   6.554   7.663  0.1557 -1.1465 -0.0447
  754MOL0     O 3950   9.855   6.555   7.651 -0.2812 -0.0884  0.1157
  754MOL0     C 3951   9.780   6.596   7.761  0.0409 -0.9105  0.3477
  754MOL0     C 3952   9.627   6.620   7.724  0.7151 -0.4852  0.1991
  754MOL0     C 3953   9.595   6.752   7.640  0.4692  0.0556  0.2787
  754MOL0     C 3954   9.447   6.756   7.600 -0.3579  0.6009 -0.4523
  754MOL0     C 3955   9.357   6.770   7.721 -0.8292  0.7600 -0.4367
  754MOL0     C 3956   9.395   6.889   7.814 -0.0705 -0.7871  1.1256
  754MOL0     C 3957   9.297   6.919   7.926  0.8990 -0.2105 -0.9864
  754MOL0     C 3958   9.270   6.799   8.014 -0.2710 -0.5092  0.0015
  754MOL0    Cl 3959   9.422   6.741   8.106 -0.2985 -0.0690  0.1242
  754MOL0     C 3960  10.073   6.555   7.781  0.9073  0.1184 -0.9294
  754MOL0     C 3961  10.220   6.554   7.782 -0.2626  0.0044  0.6374
  754MOL0     O 3962  10.508   6.555   7.851  0.2040  0.4986  0.5406
  754MOL0     C 3963  10.606   6.760   7.589  0.1339 -0.8294  0.3175
  754MOL0     C 3964  10.711   6.846   7.555  0.3441  0.2382  0.0352
  754MOL0     N 3965  11.203   7.428   7.622  0.5048 -0.5094 -0.5031
  754MOL0     N 3966  11.150   7.541   7.605 -0.4446  0.0791 -0.3699
  754MOL0     C 3967   9.973   7.728   7.641 -0.9239 -0.7018 -0.8735
  754MOL0     C 3968   9.845   7.767   7.638  0.5885  0.0700 -0.0145
  754MOL0     C 3969   9.411   7.809   7.654  0.1462 -0.5317  0.0912
  754MOL0     C 3970   9.341   7.803   7.779 -0.0163  0.4651  0.3072
  754MOL0     C 3971   9.228   7.883   7.803  0.5095 -0.0651 -0.1217
  754MOL0     C 3972   9.170   7.958   7.697  0.6541  0.3144 -0.0232
  754MOL0     O 3973   9.068   8.047   7.715  0.4684 -0.3395  0.0018
  754MOL0     C 3974   9.008   8.056   7.846 -0.4000 -0.8669  0.4433
  754MOL0     C 3975   8.894   8.158   7.842 -0.5703  0.2359  0.2910
  754MOL0     C 3976   8.775   8.113   7.749  0.3014  0.2652  0.4070
  754MOL0     C 3977   8.659   8.038   7.829  0.5481  0.4478 -0.4023
  754MOL0     C 3978   8.553   7.974   7.748  0.0145  0.0789 -0.7676
  754MOL0     C 3979   8.468   7.918   7.683 -0.4297  0.2305 -0.5618
  754MOL0     C 3980   9.235   7.951   7.577 -0.1142 -0.1785  0.1988
  754MOL0     C 3981   9.358   7.887   7.552 -0.4048 -0.3847  0.8253
  754MOL0     C 3982   9.410   7.900   7.408 -0.1506  0.6537 -0.3762
  754MOL0     H 3983   9.722   7.625   7.366  0.9823 -1.4179 -1.2493
  754MOL0     H 3984   9.968   7.542   7.349  0.8527  1.6082 -0.7089
  754MOL0     H 3985  10.179   7.458   7.417 -2.0359  0.3649  0.5138
  754MOL0     H 3986  10.154   7.422   7.587  0.5631 -2.7143 -2.3327
  754MOL0     H 3987  10.382   7.381   7.519 -1.7952 -0.3474 -0.4014
  754MOL0     H 3988  10.395   7.544   7.453 -1.1556  0.3558 -1.2313
  754MOL0     H 3989  10.359   7.651   7.679 -1.7149 -0.5752  1.9866
  754MOL0     H 3990  10.333   7.498   7.747 -1.8775  0.4669 -1.0037
  754MOL0     H 3991  10.554   7.570   7.798  2.3902 -0.6382  1.1610
  754MOL0     H 3992  10.561   7.421   7.711 -2.0575  0.4441  1.3789
  754MOL0     H 3993  10.592   7.678   7.558  0.1565 -0.9225 -2.0996
  754MOL0     H 3994  10.596   7.523   7.479 -0.0783 -2.1629  1.0432
  754MOL0     H 3995  10.784   7.470   7.626 -0.0607  0.4508 -0.5926
  754MOL0     H 3996  10.819   7.606   7.504 -1.7490  0.1750 -0.5472
  754MOL0     H 3997  10.783   7.612   7.799 -0.5445 -0.1056 -0.1938
  754MOL0     H 3998  10.764   7.757   7.710  1.5479  1.8429 -0.9714
  754MOL0     H 3999  10.980   7.735   7.611 -0.3174 -1.9008 -1.4205
  754MOL0     H 4000  10.995   7.739   7.785 -3.0514 -0.7978  1.2749
  754MOL0     H 4001  10.971   7.413   7.842  0.7203 -0.6047  1.2808
  754MOL0     H 4002  11.175   7.211   7.881  3.7154  1.0027  0.5559
  754MOL0     H 4003  11.261   7.194   7.740  0.5175  3.7396 -1.2060
  754MOL0     H 4004  11.038   7.025   7.766 -1.5728 -1.0212 -1.8801
  754MOL0     H 4005  10.954   7.165   7.734 -0.3471 -0.5866  1.2283
  754MOL0     H 4006  11.043   7.206   7.519  0.5212 -1.1617 -2.7690
  754MOL0     H 4007  11.141   7.062   7.524  0.3486 -0.4053 -2.3048
  754MOL0     H 4008  10.834   7.069   7.572  0.5255  0.2138  1.3142
  754MOL0     H 4009  10.919   7.034   7.419  2.3540  1.4435 -0.6096
  754MOL0     H 4010  10.977   6.698   7.692 -0.5451 -3.4087  0.8515
  754MOL0     H 4011  10.759   6.413   7.749  1.9820 -0.6529  0.2493
  754MOL0     H 4012  10.731   6.496   7.899  1.5260 -0.5307 -0.1635
  754MOL0     H 4013  10.886   6.490   7.834 -1.2856 -3.0618  3.9268
  754MOL0     H 4014  10.263   6.565   7.454 -0.4060  1.3344 -0.6130
  754MOL0     H 4015  10.001   6.558   7.454 -3.3782  0.2656  1.4793
  754MOL0     H 4016   9.782   6.513   7.832  0.8503 -0.2592  1.1009
  754MOL0     H 4017   9.815   6.693   7.796  1.8207 -2.0713  1.9635
  754MOL0     H 4018   9.597   6.536   7.662 -2.2727 -0.6663  1.7187
  754MOL0     H 4019   9.572   6.606   7.818  1.4917 -1.5392  0.5089
  754MOL0     H 4020   9.642   6.740   7.542  1.5958  2.9020  0.4000
  754MOL0     H 4021   9.630   6.840   7.695 -1.9612  0.3085  1.5824
  754MOL0     H 4022   9.401   6.671   7.549  0.0474  0.6840 -0.9604
  754MOL0     H 4023   9.439   6.846   7.539 -4.5443 -0.6968 -2.1496
  754MOL0     H 4024   9.258   6.800   7.686 -1.1446  1.1491  0.7363
  754MOL0     H 4025   9.355   6.671   7.766  1.5052  0.3330 -1.1044
  754MOL0     H 4026   9.391   6.979   7.752  3.0112 -0.9606  0.5376
  754MOL0     H 4027   9.494   6.873   7.856  1.0242 -1.6886 -1.5655
  754MOL0     H 4028   9.201   6.948   7.884 -0.5662 -1.0443  1.5446
  754MOL0     H 4029   9.337   7.005   7.982  3.0724 -1.0986 -1.0986
  754MOL0     H 4030   9.239   6.724   7.942 -1.2167  0.5983 -0.7712
  754MOL0     H 4031   9.197   6.815   8.094 -1.7961  0.2926 -1.5008
  754MOL0     H 4032  10.021   6.562   7.876 -2.2538 -1.6234 -2.3832
  754MOL0     H 4033  10.279   6.563   7.873  0.1334  0.6411  0.3220
  754MOL0     H 4034  10.505   6.789   7.560  0.6237  0.1219 -0.5050
  754MOL0     H 4035  10.693   6.926   7.484  0.0293  0.4386  0.3418
  754MOL0     H 4036  10.040   7.763   7.719 -2.5539 -0.6653  0.5634
  754MOL0     H 4037   9.806   7.839   7.710 -2.5192  0.0594 -1.5412
  754MOL0     H 4038   9.379   7.738   7.856 -2.6353 -0.2676  1.0773
  754MOL0     H 4039   9.192   7.883   7.905 -2.4092  1.1176 -1.0485
  754MOL0     H 4040   8.965   7.962   7.879 -0.5995  0.1243  3.2451
  754MOL0     H 4041   9.076   8.082   7.928 -0.1277  2.2066 -0.5990
  754MOL0     H 4042   8.946   8.234   7.783  0.5702  0.5873  1.6754
  754MOL0     H 4043   8.856   8.201   7.936 -2.6739  0.9511 -0.8184
  754MOL0     H 4044   8.744   8.206   7.699  1.1295  1.6880  2.3934
  754MOL0     H 4045   8.820   8.050   7.672  0.0034  0.4810  0.0520
  754MOL0     H 4046   8.607   8.107   7.896 -0.5455 -0.0978 -0.6518
  754MOL0     H 4047   8.698   7.954   7.887 -4.2895  0.3243  3.3269
  754MOL0     H 4048   8.386   7.872   7.631 -0.7263  0.2522 -0.1200
  754MOL0     H 4049   9.199   8.005   7.490 -0.1429 -0.7342 -0.1398
  754MOL0     H 4050   9.339   7.942   7.336 -3.5899 -0.9568  1.8265
  754MOL0     H 4051   9.495   7.969   7.415  0.8001 -0.5744  0.9356
  754MOL0     H 4052   9.449   7.806   7.368 -0.6106 -0.6827  2.0735
  755MOL0     O 4053  10.987   9.069   8.875  0.0820 -0.6475 -0.3925
  755MOL0     C 4054  10.896   9.007   8.929  0.0705  0.4240 -0.3138
  755MOL0     O 4055  10.914   8.933   9.040 -0.4033 -0.3994 -0.2559
  755MOL0     C 4056  11.030   8.872   9.067 -1.0584 -0.2701  0.5126
  755MOL0     C 4057  11.125   8.838   8.966 -0.1211  0.2807 -0.6841
  755MOL0     C 4058  11.237   8.771   9.006  0.5991 -0.2787 -0.8894
  755MOL0     C 4059  11.266   8.762   9.150  0.0853  0.8540 -0.9223
  755MOL0     O 4060  11.361   8.685   9.209  0.4527 -0.0594 -0.0928
  755MOL0     C 4061  11.484   8.684   9.138  0.6821 -0.0187 -0.7105
  755MOL0     C 4062  11.598   8.653   9.236  0.1715  0.2737 -0.2869
  755MOL0     C 4063  11.733   8.663   9.150  0.0859 -0.7840  0.8866
  755MOL0     C 4064  11.853   8.640   9.236 -0.6995 -0.6805 -0.4203
  755MOL0     C 4065  11.986   8.625   9.151 -0.3502 -0.0210  0.3867
  755MOL0     C 4066  12.038   8.753   9.093  0.6998  0.0050  0.2607
  755MOL0     C 4067  12.168   8.724   9.014 -0.1365  0.0508  1.0429
  755MOL0     C 4068  12.199   8.853   8.940 -0.4034 -0.0375  0.6529
  755MOL0     N 4069  12.330   8.844   8.875 -0.7892  0.2103  0.2915
  755MOL0     C 4070  12.372   8.773   8.766  0.0166 -0.4124  0.2558
  755MOL0     C 4071  12.508   8.793   8.755 -0.0143  0.3152  0.1112
  755MOL0     C 4072  12.570   8.731   8.634  0.8269  0.1062  0.3403
  755MOL0     C 4073  12.723   8.732   8.621  0.2061  0.4186  0.0427
  755MOL0     C 4074  12.788   8.692   8.744  0.2269  1.0420  0.3675
  755MOL0     C 4075  12.932   8.648   8.717 -0.8909 -0.1717 -0.2088
  755MOL0     O 4076  13.002   8.755   8.650 -0.3660  0.8977  0.1192
  755MOL0     C 4077  13.064   8.856   8.714 -0.1171 -0.4825  0.3922
  755MOL0     C 4078  13.091   8.861   8.846  0.6399  0.3662  0.3348
  755MOL0     C 4079  13.173   8.955   8.913  0.2686 -0.1347 -0.4386
  755MOL0     C 4080  13.203   8.939   9.062 -0.6876 -0.2936 -0.0823
  755MOL0     C 4081  13.220   9.063   8.831 -0.1434 -0.9133  0.2200
  755MOL0     C 4082  13.318   9.169   8.869 -0.1548  0.1620  0.3389
  755MOL0     O 4083  13.371   9.251   8.769 -0.5907  0.3835 -0.2802
  755MOL0     C 4084  13.431   9.373   8.799 -0.3448  0.5456  0.2983
  755MOL0     C 4085  13.528   9.379   8.898 -0.1263  0.8101 -0.1746
  755MOL0     C 4086  13.603   9.489   8.896  0.7995 -0.8572  0.6025
  755MOL0     C 4087  13.575   9.604   8.815 -0.2184 -0.2544  0.9657
  755MOL0     O 4088  13.659   9.707   8.835 -0.8684 -0.2346  0.8791
  755MOL0     C 4089  13.633   9.837   8.779  0.3654  0.1444  0.3870
  755MOL0     C 4090  13.553   9.920   8.873  0.0129 -0.3355 -0.6767
  755MOL0     C 4091  13.510  10.051   8.802  0.1913  0.1508 -0.3793
  755MOL0     C 4092  13.457  10.157   8.902  0.0444 -0.3953  0.6726
  755MOL0     C 4093  13.380  10.269   8.829 -0.1615  0.5153 -0.0459
  755MOL0     C 4094  13.250  10.310   8.899  0.7760 -0.0772 -0.5651
  755MOL0     C 4095  13.159  10.407   8.827  0.5255 -0.6271 -0.7033
  755MOL0     C 4096  13.086  10.341   8.714  0.5369 -0.2081 -0.4150
  755MOL0    Cl 4097  13.191  10.284   8.578 -0.2937 -0.1103  0.4799
  755MOL0     C 4098  13.465   9.595   8.720  0.9265  0.1023  1.1220
  755MOL0     C 4099  13.398   9.477   8.718  0.4060  0.1441  0.2145
  755MOL0     O 4100  13.338   9.175   8.991 -0.5617  0.0010  0.4436
  755MOL0     C 4101  13.183   9.060   8.693 -0.2127 -0.1007 -0.1700
  755MOL0     C 4102  13.112   8.961   8.633  0.3496  0.1989 -0.4894
  755MOL0     N 4103  12.545   8.885   8.847 -0.1554 -0.0535 -0.4574
  755MOL0     N 4104  12.448   8.910   8.921  0.8117  0.2464 -0.5486
  755MOL0     C 4105  11.176   8.811   9.245 -0.0545 -0.3222  0.7164
  755MOL0     C 4106  11.057   8.869   9.203  0.1859  0.0022 -0.0687
  755MOL0     C 4107  10.762   9.052   8.902  0.2616 -0.5045 -1.7065
  755MOL0     C 4108  10.699   9.121   9.002 -0.3551  0.1975  0.0569
  755MOL0     C 4109  10.565   9.167   8.988  0.0584  0.1302 -0.2123
  755MOL0     C 4110  10.497   9.136   8.871 -0.4969  0.4109  0.4180
  755MOL0     O 4111  10.365   9.153   8.852  0.0692  0.0614  0.2711
  755MOL0     C 4112  10.281   9.230   8.947  0.1539  0.5037 -0.2681
  755MOL0     C 4113  10.224   9.126   9.051 -0.1497 -0.8716  0.7637
  755MOL0     C 4114  10.132   9.017   8.996  0.1817 -0.4721  0.1844
  755MOL0     C 4115   9.995   9.078   8.947 -0.3713 -0.7479 -0.5438
  755MOL0     C 4116   9.895   8.974   8.910  0.0035  0.5830 -0.3991
  755MOL0     C 4117   9.815   8.894   8.869  0.2829  0.5095  0.9776
  755MOL0     C 4118  10.563   9.067   8.767 -0.9039 -1.1386 -0.1587
  755MOL0     C 4119  10.695   9.023   8.783 -0.0233 -0.4768  0.6595
  755MOL0     C 4120  10.750   8.924   8.687  0.4252 -0.0186 -0.3563
  755MOL0     H 4121  11.111   8.844   8.858  1.2935 -0.7546 -0.9579
  755MOL0     H 4122  11.305   8.733   8.930 -1.0492 -2.2073 -1.4823
  755MOL0     H 4123  11.507   8.778   9.087  1.8625  0.0819 -0.0242
  755MOL0     H 4124  11.480   8.608   9.059 -0.2361 -0.1001 -0.5992
  755MOL0     H 4125  11.599   8.727   9.317 -3.7609 -1.1021  1.2492
  755MOL0     H 4126  11.581   8.552   9.273 -1.2871  0.8747  0.7667
  755MOL0     H 4127  11.737   8.601   9.059  2.8383  0.8706 -0.2676
  755MOL0     H 4128  11.742   8.758   9.096 -1.4208 -1.7213 -1.1485
  755MOL0     H 4129  11.862   8.722   9.307 -1.2905  0.2530 -1.4032
  755MOL0     H 4130  11.845   8.540   9.282  0.3723 -1.1875 -1.2725
  755MOL0     H 4131  11.954   8.558   9.070 -2.1538  1.5601 -0.2743
  755MOL0     H 4132  12.069   8.580   9.207  0.4287  2.3455  1.2395
  755MOL0     H 4133  11.964   8.803   9.029  0.0613  0.2974  1.1992
  755MOL0     H 4134  12.067   8.823   9.172  2.3598 -1.4041  0.9509
  755MOL0     H 4135  12.143   8.639   8.950 -1.7059 -2.1503  4.3354
  755MOL0     H 4136  12.250   8.689   9.077 -0.6457  0.6235  2.0433
  755MOL0     H 4137  12.123   8.892   8.872  0.6411 -2.3976 -2.0213
  755MOL0     H 4138  12.205   8.923   9.025 -2.5975 -1.7676  2.3473
  755MOL0     H 4139  12.311   8.705   8.707  0.8619 -2.0936  1.2304
  755MOL0     H 4140  12.533   8.779   8.543 -0.2229 -0.4970  0.4278
  755MOL0     H 4141  12.550   8.624   8.627  2.6148 -0.3931  2.0864
  755MOL0     H 4142  12.765   8.667   8.544  1.9942  1.4621  0.0735
  755MOL0     H 4143  12.763   8.832   8.601  2.0047  0.1399  1.8712
  755MOL0     H 4144  12.778   8.774   8.815 -0.1179 -0.4048  2.0853
  755MOL0     H 4145  12.737   8.607   8.792  1.0084  0.4212  0.1321
  755MOL0     H 4146  12.983   8.602   8.802  1.3136  1.2081 -0.7117
  755MOL0     H 4147  12.934   8.564   8.646  0.6162 -1.0693  0.8469
  755MOL0     H 4148  13.066   8.781   8.915  3.1855  0.0601  1.0175
  755MOL0     H 4149  13.172   8.839   9.096  0.3795  0.3414  3.1448
  755MOL0     H 4150  13.157   9.022   9.116  2.8362  0.0913  2.6728
  755MOL0     H 4151  13.308   8.953   9.086 -0.6716 -1.1450  0.3891
  755MOL0     H 4152  13.542   9.295   8.965 -0.9124  1.3527  0.7025
  755MOL0     H 4153  13.679   9.490   8.974  2.4311 -0.1689 -0.9401
  755MOL0     H 4154  13.724   9.893   8.758  0.0023  0.8234  0.6235
  755MOL0     H 4155  13.577   9.834   8.685  1.0593 -1.5434 -0.0183
  755MOL0     H 4156  13.471   9.860   8.911  0.6216 -1.2540 -0.7693
  755MOL0     H 4157  13.606   9.946   8.965  0.4826 -2.8825 -0.1486
  755MOL0     H 4158  13.438  10.036   8.722 -1.2520 -0.1098  0.9148
  755MOL0     H 4159  13.600  10.093   8.756  2.5874 -0.2139  3.4705
  755MOL0     H 4160  13.546  10.197   8.950  0.3256 -1.0783  0.7350
  755MOL0     H 4161  13.394  10.112   8.979 -0.8004 -0.9053 -0.2921
  755MOL0     H 4162  13.455  10.348   8.831  0.5697 -0.1467 -0.4880
  755MOL0     H 4163  13.363  10.239   8.725  1.8546 -1.4833  0.1121
  755MOL0     H 4164  13.286  10.356   8.992 -2.0090 -0.3133  0.7616
  755MOL0     H 4165  13.196  10.218   8.923 -1.3450  1.3890  0.5705
  755MOL0     H 4166  13.221  10.495   8.806  1.5734 -0.7167  1.6879
  755MOL0     H 4167  13.075  10.428   8.895  1.4826 -1.6248  0.8453
  755MOL0     H 4168  13.008  10.409   8.678  1.4983  1.1891  0.0814
  755MOL0     H 4169  13.043  10.256   8.768 -0.7110  0.8826  0.3714
  755MOL0     H 4170  13.436   9.676   8.655 -3.1295 -1.2265  0.9910
  755MOL0     H 4171  13.319   9.459   8.646  1.1688  0.9634 -0.8586
  755MOL0     H 4172  13.201   9.135   8.617 -0.6145 -0.0496 -0.2145
  755MOL0     H 4173  13.092   8.969   8.526  0.3227  1.5601 -0.3947
  755MOL0     H 4174  11.201   8.795   9.350 -0.0731 -3.0788  0.3849
  755MOL0     H 4175  10.987   8.908   9.277 -1.1027 -1.5683 -0.4095
  755MOL0     H 4176  10.767   9.139   9.085  1.7449 -0.9097 -1.3357
  755MOL0     H 4177  10.521   9.207   9.079  0.9315  1.6877 -0.4398
  755MOL0     H 4178  10.337   9.311   8.995 -0.1895  2.7374 -3.2536
  755MOL0     H 4179  10.197   9.273   8.891 -0.7156 -0.8168 -0.0251
  755MOL0     H 4180  10.171   9.172   9.135 -1.1416 -0.2493 -0.1857
  755MOL0     H 4181  10.313   9.076   9.091 -0.0012 -1.1748  0.0611
  755MOL0     H 4182  10.183   8.957   8.921 -0.0556 -0.0262 -0.3398
  755MOL0     H 4183  10.100   8.944   9.071 -0.3743 -0.1917  0.2249
  755MOL0     H 4184  10.021   9.148   8.867 -0.5028 -0.4971 -0.3701
  755MOL0     H 4185   9.945   9.142   9.021 -0.7215 -0.3997 -1.0678
  755MOL0     H 4186   9.740   8.823   8.839  0.4979  0.7847 -0.2529
  755MOL0     H 4187  10.508   9.042   8.677 -1.4754 -1.9337  0.4051
  755MOL0     H 4188  10.825   8.855   8.727  4.1381  1.8365 -3.4597
  755MOL0     H 4189  10.668   8.864   8.647 -0.7245  1.9613 -1.1119
  755MOL0     H 4190  10.817   8.976   8.618 -0.0128  0.4357 -0.4469
  756MOL0     O 4191   5.392   7.370   2.666  0.3623  0.5929  0.3316
  756MOL0     C 4192   5.400   7.314   2.772  0.1732  0.4159  0.1622
  756MOL0     O 4193   5.499   7.341   2.867  0.6271  0.1967  0.1531
  756MOL0     C 4194   5.630   7.348   2.828  0.2653  1.2383  0.3216
  756MOL0     C 4195   5.706   7.229   2.794  0.2517  0.7089 -0.6636
  756MOL0     C 4196   5.838   7.237   2.750  0.4476 -0.1591  0.2126
  756MOL0     C 4197   5.902   7.362   2.736  0.5474  0.3129  0.2703
  756MOL0     O 4198   6.026   7.348   2.684  0.1883 -0.9987  0.5266
  756MOL0     C 4199   6.109   7.460   2.681 -0.4197 -0.0852 -0.7055
  756MOL0     C 4200   6.236   7.400   2.616  0.2024  0.6506  0.2598
  756MOL0     C 4201   6.336   7.510   2.574 -0.3655  0.2546 -0.8922
  756MOL0     C 4202   6.452   7.440   2.502 -0.0471  0.4703  1.4397
  756MOL0     C 4203   6.563   7.540   2.466  0.2351 -0.1677 -0.4354
  756MOL0     C 4204   6.688   7.482   2.393  0.8886  0.0163 -0.1004
  756MOL0     C 4205   6.777   7.590   2.343 -0.0210  0.1180 -0.6771
  756MOL0     C 4206   6.895   7.514   2.273 -0.2256  1.1814  0.3872
  756MOL0     N 4207   7.026   7.523   2.348  0.6615  0.4234  0.2501
  756MOL0     C 4208   7.068   7.435   2.443  0.1936  0.4858  0.1036
  756MOL0     C 4209   7.181   7.486   2.494 -0.2522  0.0638 -1.0444
  756MOL0     C 4210   7.256   7.413   2.605 -0.1901 -0.6773  0.5622
  756MOL0     C 4211   7.390   7.361   2.542 -0.4796  0.1557  0.0604
  756MOL0     C 4212   7.466   7.285   2.639  0.3651 -0.8667  0.0433
  756MOL0     C 4213   7.593   7.230   2.573  0.5740 -0.2352  0.0286
  756MOL0     O 4214   7.663   7.349   2.535  0.2854  0.1757  0.4658
  756MOL0     C 4215   7.792   7.340   2.498 -0.1176 -0.5184  0.0965
  756MOL0     C 4216   7.861   7.462   2.496  0.3612 -0.4587  0.0973
  756MOL0     C 4217   7.999   7.468   2.460 -0.1227  0.3600 -0.2141
  756MOL0     C 4218   8.060   7.607   2.458  0.2498  0.2006 -0.6647
  756MOL0     C 4219   8.075   7.348   2.435  0.4732  0.1517 -0.0771
  756MOL0     C 4220   8.219   7.341   2.405 -0.6962  0.1017 -0.0413
  756MOL0     O 4221   8.285   7.220   2.435  0.0944 -0.1221  0.2424
  756MOL0     C 4222   8.422   7.218   2.438  0.1238  0.0654 -0.0954
  756MOL0     C 4223   8.473   7.089   2.401 -0.0317 -0.5482 -0.3545
  756MOL0     C 4224   8.599   7.066   2.380 -0.0666 -0.0171  0.3803
  756MOL0     C 4225   8.694   7.173   2.407 -0.2974  0.2501 -0.1277
  756MOL0     O 4226   8.818   7.128   2.412  0.0321 -0.0848  0.9092
  756MOL0     C 4227   8.876   7.108   2.283  0.4763 -0.4261  0.0169
  756MOL0     C 4228   9.019   7.073   2.294  0.1307  0.9468 -1.2777
  756MOL0     C 4229   9.037   6.929   2.350  0.5141  0.0403  0.6396
  756MOL0     C 4230   9.183   6.878   2.341  1.0697 -0.4177 -0.4313
  756MOL0     C 4231   9.288   6.959   2.426  0.6117  0.6851 -0.0664
  756MOL0     C 4232   9.250   6.968   2.575 -0.5207 -0.1473 -0.0807
  756MOL0     C 4233   9.362   7.037   2.648  0.1153  0.3951  0.9339
  756MOL0     C 4234   9.312   7.084   2.776 -0.2280  0.1811  0.4684
  756MOL0    Cl 4235   9.443   7.176   2.862 -0.2386 -0.3128  0.4052
  756MOL0     C 4236   8.651   7.295   2.445 -0.1611  0.9018 -0.2473
  756MOL0     C 4237   8.516   7.329   2.455 -0.0597  0.3230 -0.0851
  756MOL0     O 4238   8.270   7.433   2.352 -0.4641 -1.0066  0.0513
  756MOL0     C 4239   8.000   7.228   2.439 -0.2353  0.1366  1.1233
  756MOL0     C 4240   7.867   7.222   2.470 -0.7735  0.5992 -0.5518
  756MOL0     N 4241   7.199   7.607   2.429 -0.1422  0.3168 -0.1244
  756MOL0     N 4242   7.106   7.629   2.344  0.9982 -0.1572 -0.1804
  756MOL0     C 4243   5.837   7.471   2.782  0.6713 -0.5896  0.2346
  756MOL0     C 4244   5.700   7.467   2.826  0.8342  0.1904  0.1797
  756MOL0     C 4245   5.273   7.243   2.815  0.3098  0.3507  0.0507
  756MOL0     C 4246   5.238   7.222   2.951 -0.2760  0.9107  0.0349
  756MOL0     C 4247   5.114   7.157   2.992 -0.2034  0.3468 -0.7235
  756MOL0     C 4248   5.040   7.081   2.897  0.3340 -0.2102  0.2584
  756MOL0     O 4249   4.935   6.993   2.914  0.1623 -0.1867  0.7653
  756MOL0     C 4250   4.896   6.963   3.047  0.5049  0.5029 -0.2850
  756MOL0     C 4251   4.802   6.845   3.057 -0.4348  0.5552  0.6828
  756MOL0     C 4252   4.690   6.871   3.159  0.6200  0.1447 -0.0545
  756MOL0     C 4253   4.580   6.757   3.139 -0.2146 -0.3668 -0.5087
  756MOL0     C 4254   4.471   6.784   3.239 -1.4741 -0.3674 -0.5494
  756MOL0     C 4255   4.399   6.802   3.332  0.8220  0.2938  0.5524
  756MOL0     C 4256   5.079   7.098   2.767  0.5578 -0.1130 -0.2419
  756MOL0     C 4257   5.181   7.181   2.723 -0.1647 -0.2971  0.2563
  756MOL0     C 4258   5.193   7.212   2.580  0.4974  0.0043  0.0837
  756MOL0     H 4259   5.660   7.131   2.796  3.3105 -0.8745  1.3497
  756MOL0     H 4260   5.890   7.145   2.726  1.7232  0.0992  1.8229
  756MOL0     H 4261   6.130   7.510   2.776 -0.7516 -0.4343 -0.4455
  756MOL0     H 4262   6.061   7.531   2.613 -1.3222  1.4094  1.3913
  756MOL0     H 4263   6.281   7.338   2.694 -3.3095 -0.4385  1.5994
  756MOL0     H 4264   6.206   7.340   2.530 -1.2475  0.8811  0.5691
  756MOL0     H 4265   6.293   7.593   2.517  1.2401  3.4063  2.1106
  756MOL0     H 4266   6.383   7.545   2.666  1.4103 -0.6955 -1.3855
  756MOL0     H 4267   6.497   7.353   2.552 -1.2439 -0.7053  0.5370
  756MOL0     H 4268   6.416   7.400   2.407  2.6901  0.1287  0.4437
  756MOL0     H 4269   6.607   7.574   2.560  2.9820  0.8708 -1.9557
  756MOL0     H 4270   6.514   7.626   2.420 -0.4243 -0.0534  0.4664
  756MOL0     H 4271   6.741   7.414   2.460 -0.5403 -0.9352  0.1152
  756MOL0     H 4272   6.660   7.423   2.305  1.4097  0.0561 -0.2980
  756MOL0     H 4273   6.810   7.644   2.433 -2.5774 -1.4149  1.3509
  756MOL0     H 4274   6.728   7.662   2.277  0.1809  0.9762  0.0884
  756MOL0     H 4275   6.875   7.410   2.246  0.9923  0.5192  1.9282
  756MOL0     H 4276   6.909   7.565   2.177 -1.1362  0.9586  0.1185
  756MOL0     H 4277   7.021   7.338   2.459  0.4773 -0.8017 -5.0608
  756MOL0     H 4278   7.199   7.328   2.645 -0.4313 -0.4438  0.7231
  756MOL0     H 4279   7.283   7.479   2.688 -1.1315 -0.2744  0.5661
  756MOL0     H 4280   7.359   7.295   2.460  0.9361  0.2920 -0.6261
  756MOL0     H 4281   7.447   7.444   2.500  0.7566 -0.0854  1.2149
  756MOL0     H 4282   7.486   7.343   2.729 -1.2952  0.2345 -0.2697
  756MOL0     H 4283   7.404   7.199   2.664 -0.6270 -0.5783 -1.2898
  756MOL0     H 4284   7.651   7.188   2.655  1.3946  2.0204  0.6840
  756MOL0     H 4285   7.570   7.163   2.489 -0.0983  2.3594 -2.0093
  756MOL0     H 4286   7.801   7.552   2.505 -0.7819 -1.2236  0.2786
  756MOL0     H 4287   7.986   7.687   2.469  2.3338  2.2761 -1.0201
  756MOL0     H 4288   8.111   7.639   2.367 -0.4011  0.4342 -0.9568
  756MOL0     H 4289   8.134   7.609   2.539 -1.6402 -0.6282  1.1793
  756MOL0     H 4290   8.416   7.007   2.358 -2.0810 -0.6335  2.2610
  756MOL0     H 4291   8.628   6.964   2.356 -1.8628  0.1109 -2.9054
  756MOL0     H 4292   8.818   7.028   2.236 -1.6772 -0.1743  2.0480
  756MOL0     H 4293   8.852   7.197   2.224 -1.0478 -4.3450 -6.1508
  756MOL0     H 4294   9.068   7.073   2.196 -0.1275  0.6542 -1.4071
  756MOL0     H 4295   9.065   7.138   2.370 -2.7786 -1.6015  3.1018
  756MOL0     H 4296   8.972   6.858   2.299  0.0339  0.1631  1.0750
  756MOL0     H 4297   9.001   6.940   2.453 -2.9469 -1.3743 -0.2698
  756MOL0     H 4298   9.213   6.887   2.236  1.5211 -1.8510 -0.4418
  756MOL0     H 4299   9.177   6.772   2.369 -4.5245 -0.0670  0.7817
  756MOL0     H 4300   9.380   6.901   2.409  0.0699 -0.1801 -0.1223
  756MOL0     H 4301   9.313   7.059   2.390 -0.4934  2.4022  3.4785
  756MOL0     H 4302   9.236   6.867   2.615  1.7028  0.2143  1.8545
  756MOL0     H 4303   9.166   7.031   2.605  2.9881  2.7856  5.1228
  756MOL0     H 4304   9.393   7.127   2.594 -0.4102  0.9850  1.5921
  756MOL0     H 4305   9.448   6.969   2.652 -0.9846 -1.2093 -0.7118
  756MOL0     H 4306   9.266   7.001   2.830 -0.7400 -0.2194 -0.5610
  756MOL0     H 4307   9.224   7.148   2.763  0.1616  0.1237 -3.9545
  756MOL0     H 4308   8.729   7.370   2.452  1.7984 -0.6030 -3.4839
  756MOL0     H 4309   8.475   7.426   2.480 -0.6322  0.5560 -1.8047
  756MOL0     H 4310   8.050   7.136   2.411 -3.5756 -1.3089 -0.7150
  756MOL0     H 4311   7.817   7.126   2.480  0.2948 -0.0301 -1.0653
  756MOL0     H 4312   5.892   7.564   2.779 -0.0095 -0.1786 -2.7447
  756MOL0     H 4313   5.643   7.552   2.863  0.6090 -0.7279  2.1016
  756MOL0     H 4314   5.301   7.259   3.032  0.5628 -2.3775  1.0403
  756MOL0     H 4315   5.090   7.145   3.097 -1.5083  0.1961 -1.0221
  756MOL0     H 4316   4.986   6.949   3.107  0.7812  1.9109 -0.3286
  756MOL0     H 4317   4.840   7.049   3.086 -0.1160  0.9486 -2.0714
  756MOL0     H 4318   4.864   6.763   3.093  1.2315  1.5195  0.0896
  756MOL0     H 4319   4.766   6.812   2.958  0.3326  0.3098  0.4824
  756MOL0     H 4320   4.722   6.858   3.263 -2.5847 -0.4041  0.9972
  756MOL0     H 4321   4.657   6.973   3.139  5.1097  2.1231  1.3030
  756MOL0     H 4322   4.637   6.666   3.159 -2.1670 -1.5923 -0.2952
  756MOL0     H 4323   4.538   6.759   3.038 -2.1053 -1.0751  0.2288
  756MOL0     H 4324   4.333   6.829   3.412 -1.4013 -1.8105 -0.4694
  756MOL0     H 4325   5.019   7.046   2.692  2.5739  0.2110 -2.2046
  756MOL0     H 4326   5.110   7.159   2.533 -0.9535  0.5240  1.9643
  756MOL0     H 4327   5.179   7.319   2.561  0.5335  0.0306  0.2024
  756MOL0     H 4328   5.285   7.174   2.534 -1.4218 -1.9497 -2.4641
  757MOL0     O 4329   7.826  10.129   2.940  0.5051  0.3778  0.2388
  757MOL0     C 4330   7.743  10.051   2.881  0.9357  0.0156  0.8828
  757MOL0     O 4331   7.768   9.926   2.833 -0.5687 -0.3334 -0.1668
  757MOL0     C 4332   7.900   9.889   2.850  0.3007  0.2073 -0.4462
  757MOL0     C 4333   7.988   9.939   2.755  0.0336  0.3793 -0.4912
  757MOL0     C 4334   8.123   9.903   2.758  0.2847  0.1929  0.1686
  757MOL0     C 4335   8.169   9.807   2.853  0.4979  0.8273 -0.4785
  757MOL0     O 4336   8.289   9.746   2.835 -0.4800 -0.5249 -0.6179
  757MOL0     C 4337   8.396   9.810   2.766 -0.3045  0.0343 -0.4289
  757MOL0     C 4338   8.519   9.724   2.803 -0.4035 -0.1081 -0.1931
  757MOL0     C 4339   8.521   9.595   2.722  0.6383 -0.0493 -0.0902
  757MOL0     C 4340   8.646   9.517   2.752 -0.0561 -0.0738  0.1477
  757MOL0     C 4341   8.764   9.527   2.654 -0.6997 -0.3606  0.3238
  757MOL0     C 4342   8.754   9.531   2.500  0.1642  0.5146  0.0422
  757MOL0     C 4343   8.690   9.418   2.427 -0.5442  0.4464 -0.2490
  757MOL0     C 4344   8.674   9.435   2.277 -0.7008 -0.8986  0.3098
  757MOL0     N 4345   8.799   9.409   2.201  0.0120 -0.2714  0.3630
  757MOL0     C 4346   8.892   9.309   2.221 -0.1141 -0.4252 -0.1542
  757MOL0     C 4347   8.998   9.327   2.142 -0.9333 -0.3510  0.4206
  757MOL0     C 4348   9.100   9.215   2.143 -0.1049  0.0424 -0.2166
  757MOL0     C 4349   9.042   9.080   2.097 -0.5054 -0.2433 -0.1703
  757MOL0     C 4350   8.986   9.092   1.954  0.0098  0.5658 -0.2256
  757MOL0     C 4351   8.848   9.035   1.943  0.6445  0.4947  1.0214
  757MOL0     O 4352   8.860   8.892   1.951  0.1572 -0.2865 -0.9121
  757MOL0     C 4353   8.745   8.818   1.950 -0.8412 -0.0924 -1.0112
  757MOL0     C 4354   8.753   8.692   2.013  0.5995 -0.0262  0.5292
  757MOL0     C 4355   8.654   8.602   2.007  0.4054 -0.4124 -0.1636
  757MOL0     C 4356   8.690   8.465   2.052  0.2371 -0.5417 -0.4442
  757MOL0     C 4357   8.527   8.645   1.953  0.5291 -0.3087 -0.8474
  757MOL0     C 4358   8.399   8.564   1.951 -0.4163  0.9491 -1.2973
  757MOL0     O 4359   8.276   8.617   1.929 -0.7123 -0.8214 -0.3221
  757MOL0     C 4360   8.160   8.545   1.924 -0.2498  0.4494  0.6422
  757MOL0     C 4361   8.136   8.404   1.947 -0.0381 -0.4226 -0.5835
  757MOL0     C 4362   8.006   8.348   1.934 -0.8706 -0.0201 -0.8421
  757MOL0     C 4363   7.903   8.429   1.903  0.6909 -0.1464  0.1955
  757MOL0     O 4364   7.779   8.372   1.895  0.4840 -0.2316 -0.6732
  757MOL0     C 4365   7.708   8.385   1.772  0.3179  0.2845  0.0163
  757MOL0     C 4366   7.577   8.456   1.800  0.4975  0.7551 -0.0048
  757MOL0     C 4367   7.456   8.363   1.841  0.3250 -0.3623 -0.3374
  757MOL0     C 4368   7.352   8.455   1.904 -0.0061  0.2379 -0.5512
  757MOL0     C 4369   7.234   8.360   1.925  0.5210 -0.1821 -0.1877
  757MOL0     C 4370   7.113   8.450   1.978 -0.3052  1.0420 -0.1501
  757MOL0     C 4371   6.978   8.387   1.967  1.2031  0.1375 -0.2600
  757MOL0     C 4372   6.882   8.449   2.066  0.6988 -1.1454 -0.1398
  757MOL0    Cl 4373   6.726   8.372   2.073 -0.1240  0.0099  0.4722
  757MOL0     C 4374   7.919   8.569   1.884  0.2556 -0.0150  0.4243
  757MOL0     C 4375   8.051   8.624   1.890  0.5771  0.9049  0.6594
  757MOL0     O 4376   8.421   8.445   1.958  0.1517  0.8220 -0.3246
  757MOL0     C 4377   8.515   8.764   1.900 -0.6237 -0.4856 -0.4738
  757MOL0     C 4378   8.626   8.855   1.893 -0.4199 -0.7910  0.0172
  757MOL0     N 4379   8.959   9.436   2.062 -0.6277 -0.3484  0.3767
  757MOL0     N 4380   8.843   9.484   2.105  0.5053 -0.2439  0.4289
  757MOL0     C 4381   8.077   9.747   2.951  0.2255 -0.7159 -1.1887
  757MOL0     C 4382   7.940   9.789   2.943  0.2024 -0.0300 -0.1478
  757MOL0     C 4383   7.621  10.114   2.825  0.0213 -0.3862 -0.0807
  757MOL0     C 4384   7.516  10.025   2.799 -1.1271 -0.4057  0.3082
  757MOL0     C 4385   7.396  10.073   2.753  0.5871 -0.3677  0.2436
  757MOL0     C 4386   7.375  10.213   2.732 -0.2301 -0.9538 -0.4575
  757MOL0     O 4387   7.249  10.269   2.708 -0.7216 -0.3243  0.5180
  757MOL0     C 4388   7.143  10.186   2.674 -0.0738 -0.4684 -0.7103
  757MOL0     C 4389   7.034  10.283   2.649  0.9738  0.2336 -0.7949
  757MOL0     C 4390   7.021  10.322   2.499 -0.7961  0.1695 -0.9403
  757MOL0     C 4391   6.912  10.424   2.468  0.0788  0.4142 -0.7554
  757MOL0     C 4392   6.868  10.420   2.330 -0.4193  0.5356  0.7076
  757MOL0     C 4393   6.841  10.407   2.216 -0.7473  0.7527 -0.8996
  757MOL0     C 4394   7.485  10.297   2.748 -0.3723  0.4247 -0.5916
  757MOL0     C 4395   7.610  10.251   2.793  0.4141  0.6352  1.1979
  757MOL0     C 4396   7.718  10.350   2.794  0.1427  0.2062 -0.5464
  757MOL0     H 4397   7.961  10.014   2.682  1.7200 -0.7581 -2.3976
  757MOL0     H 4398   8.192   9.948   2.687  0.4310  4.1956  2.4846
  757MOL0     H 4399   8.419   9.908   2.807 -0.8481  0.5615 -1.3592
  757MOL0     H 4400   8.382   9.836   2.660 -0.0350  2.5219  0.0970
  757MOL0     H 4401   8.610   9.783   2.788  0.1620 -0.4373  1.6198
  757MOL0     H 4402   8.523   9.712   2.912  0.6409 -0.6634 -0.2734
  757MOL0     H 4403   8.439   9.534   2.761  0.7552  0.6859  1.3775
  757MOL0     H 4404   8.506   9.612   2.615 -1.6513  1.0495  0.3465
  757MOL0     H 4405   8.685   9.544   2.851 -0.9683 -1.1328  0.8250
  757MOL0     H 4406   8.622   9.410   2.752 -3.2581  0.5309  0.5697
  757MOL0     H 4407   8.825   9.444   2.691 -2.5670 -3.2981 -2.6898
  757MOL0     H 4408   8.824   9.615   2.680  1.2912 -0.4770 -3.2953
  757MOL0     H 4409   8.691   9.617   2.480 -1.1518 -0.5810 -0.6782
  757MOL0     H 4410   8.852   9.548   2.454 -1.0499  2.3456 -2.0291
  757MOL0     H 4411   8.593   9.417   2.478 -0.4421 -1.7220  0.0241
  757MOL0     H 4412   8.746   9.326   2.445 -0.2360  0.6366 -0.2343
  757MOL0     H 4413   8.600   9.364   2.239 -0.8597 -0.0859 -0.9484
  757MOL0     H 4414   8.635   9.533   2.249 -0.3039 -1.0433 -0.7939
  757MOL0     H 4415   8.871   9.228   2.291 -2.2006 -0.8652 -1.1852
  757MOL0     H 4416   9.131   9.203   2.248  1.8698 -1.2776 -0.8986
  757MOL0     H 4417   9.183   9.244   2.078 -1.3466  0.4661 -1.6601
  757MOL0     H 4418   9.122   9.005   2.099 -2.8492 -2.9792 -1.3454
  757MOL0     H 4419   8.968   9.039   2.166  0.1307 -1.7404 -0.3274
  757MOL0     H 4420   8.975   9.197   1.925  2.5237  0.8087 -0.4836
  757MOL0     H 4421   9.052   9.056   1.875  0.6487  1.3039 -0.0408
  757MOL0     H 4422   8.783   9.075   2.022 -1.1321 -1.9634  0.9028
  757MOL0     H 4423   8.806   9.065   1.847  0.3874 -0.1736  0.9184
  757MOL0     H 4424   8.853   8.673   2.049  1.3973  1.8670 -0.5402
  757MOL0     H 4425   8.784   8.457   2.107 -0.2458  0.4557  0.5412
  757MOL0     H 4426   8.688   8.391   1.971 -0.4153  0.0828 -1.0170
  757MOL0     H 4427   8.615   8.426   2.121 -0.1266 -2.9715 -2.0716
  757MOL0     H 4428   8.216   8.338   1.978  1.6778  1.9044  0.2643
  757MOL0     H 4429   7.992   8.256   1.989  1.4556  0.2110  0.2309
  757MOL0     H 4430   7.775   8.433   1.700  0.1441  1.1605  0.4179
  757MOL0     H 4431   7.686   8.289   1.725  0.7469  1.3753 -2.5745
  757MOL0     H 4432   7.600   8.529   1.879  0.5335  1.3169 -0.5310
  757MOL0     H 4433   7.558   8.516   1.711  2.9561 -1.4368 -2.1816
  757MOL0     H 4434   7.490   8.291   1.916  0.3366  1.6539  1.7062
  757MOL0     H 4435   7.400   8.321   1.756 -0.8382 -0.2902  0.3753
  757MOL0     H 4436   7.331   8.531   1.828  0.4607  1.7606  0.7843
  757MOL0     H 4437   7.390   8.494   1.999 -0.4416  0.0801 -0.3080
  757MOL0     H 4438   7.212   8.313   1.829  0.7719 -0.5129 -0.0856
  757MOL0     H 4439   7.251   8.274   1.991 -2.1295  1.6205  3.1959
  757MOL0     H 4440   7.103   8.538   1.914  0.9450 -0.7423 -3.0104
  757MOL0     H 4441   7.129   8.486   2.080  0.2855 -3.0609  1.4004
  757MOL0     H 4442   6.990   8.282   1.996  2.2687  0.1048 -0.7558
  757MOL0     H 4443   6.932   8.411   1.870 -2.4180  1.1847  1.5643
  757MOL0     H 4444   6.874   8.555   2.043  0.4977 -1.0684  0.2884
  757MOL0     H 4445   6.924   8.440   2.166 -4.2899 -4.2688  2.0591
  757MOL0     H 4446   7.829   8.629   1.871  0.1264 -0.7577 -3.0882
  757MOL0     H 4447   8.061   8.731   1.875 -1.3197  1.1475  0.9184
  757MOL0     H 4448   8.420   8.782   1.851 -1.0587 -2.7890 -0.6041
  757MOL0     H 4449   8.617   8.945   1.834 -1.8032 -1.0573 -0.2158
  757MOL0     H 4450   8.116   9.670   3.016 -0.0032 -0.8978 -1.2664
  757MOL0     H 4451   7.872   9.744   3.014 -0.1465  1.6186  0.6139
  757MOL0     H 4452   7.531   9.927   2.842 -2.5235 -0.2289  1.2508
  757MOL0     H 4453   7.325   9.993   2.734  2.4255 -1.6278 -1.8927
  757MOL0     H 4454   7.148  10.133   2.578 -2.4150 -2.6031  0.2454
  757MOL0     H 4455   7.119  10.103   2.741  2.9971 -0.2791  0.8102
  757MOL0     H 4456   7.051  10.370   2.714  2.9618 -1.0556  0.5184
  757MOL0     H 4457   6.942  10.233   2.682  2.3015 -0.1341  2.8212
  757MOL0     H 4458   7.112  10.363   2.454 -0.6627 -2.7700 -3.6906
  757MOL0     H 4459   7.006  10.228   2.446  1.9991  0.3034 -2.1131
  757MOL0     H 4460   6.958  10.522   2.484 -1.9028  1.7076 -2.3755
  757MOL0     H 4461   6.823  10.414   2.530 -0.3088  2.5265 -0.8869
  757MOL0     H 4462   6.810  10.396   2.114 -0.3248  0.5758 -1.0116
  757MOL0     H 4463   7.461  10.399   2.720 -0.3764  0.6712  0.2933
  757MOL0     H 4464   7.700  10.445   2.742  2.5472  1.5158  0.8239
  757MOL0     H 4465   7.726  10.376   2.900 -1.5861  1.0236 -0.5743
  757MOL0     H 4466   7.814  10.313   2.756 -0.4303 -4.7962  2.0686
  758MOL0     O 4467  10.327   9.998   2.853 -0.6041 -0.9046  0.1745
  758MOL0     C 4468  10.343  10.001   2.731  0.2724 -1.1899  0.8465
  758MOL0     O 4469  10.244  10.046   2.636 -0.0525 -0.6059 -0.1227
  758MOL0     C 4470  10.128  10.107   2.673  0.3968 -0.4690  0.5338
  758MOL0     C 4471  10.125  10.206   2.772  0.5977 -0.7827  0.1854
  758MOL0     C 4472  10.003  10.264   2.807  0.3302  0.5173 -1.0181
  758MOL0     C 4473   9.880  10.223   2.739 -0.9556 -0.2812  0.2160
  758MOL0     O 4474   9.748  10.254   2.777 -0.1810  0.1304  0.2726
  758MOL0     C 4475   9.746  10.353   2.875  0.3089 -0.5061 -0.7300
  758MOL0     C 4476   9.608  10.411   2.895 -0.7599  0.2737 -0.4563
  758MOL0     C 4477   9.612  10.514   3.007  0.0445 -0.6678 -0.6888
  758MOL0     C 4478   9.470  10.576   3.016 -0.0179  0.2849 -0.1569
  758MOL0     C 4479   9.458  10.620   3.159  0.2030  0.9625 -0.2197
  758MOL0     C 4480   9.323  10.669   3.195  0.8656  0.4401 -0.3627
  758MOL0     C 4481   9.307  10.687   3.347  0.4899 -0.2382  0.3092
  758MOL0     C 4482   9.186  10.768   3.386 -0.2062 -0.5333 -0.4419
  758MOL0     N 4483   9.211  10.913   3.368 -0.5835  0.0868  0.0101
  758MOL0     C 4484   9.187  10.991   3.259 -0.2927 -1.2078  0.5168
  758MOL0     C 4485   9.228  11.113   3.288 -0.0754 -0.1905  0.0676
  758MOL0     C 4486   9.227  11.230   3.203 -0.2083  0.1371  0.6028
  758MOL0     C 4487   9.322  11.212   3.083 -0.4929 -0.1321  0.0053
  758MOL0     C 4488   9.458  11.254   3.127 -0.5370  0.3334 -0.0194
  758MOL0     C 4489   9.557  11.263   3.021 -0.4273 -1.1176  0.4327
  758MOL0     O 4490   9.567  11.146   2.929 -0.0132 -0.0470 -0.5334
  758MOL0     C 4491   9.661  11.051   2.955 -0.8591  0.0510 -0.3407
  758MOL0     C 4492   9.711  10.998   2.835 -0.4477  0.2056 -0.2663
  758MOL0     C 4493   9.800  10.892   2.840  0.7154  0.2888  1.2292
  758MOL0     C 4494   9.843  10.821   2.708 -0.3308 -0.6361 -0.0523
  758MOL0     C 4495   9.845  10.842   2.965 -0.5548  0.5291  0.2504
  758MOL0     C 4496   9.945  10.727   2.993  0.7340 -0.5813  0.1152
  758MOL0     O 4497   9.956  10.675   3.119  0.4797 -0.5514  0.7514
  758MOL0     C 4498  10.000  10.544   3.145  0.4267 -1.7366 -0.4225
  758MOL0     C 4499   9.929  10.481   3.256 -0.2248  0.2688  0.1888
  758MOL0     C 4500   9.959  10.347   3.285  0.0279  0.0560  0.7286
  758MOL0     C 4501  10.062  10.270   3.225 -0.0473 -0.0265 -0.0587
  758MOL0     O 4502  10.075  10.137   3.269 -0.3948  0.0735 -0.4556
  758MOL0     C 4503  10.194  10.072   3.226  0.5161 -0.9941  0.0582
  758MOL0     C 4504  10.195   9.936   3.300 -0.4740  0.1711  0.7977
  758MOL0     C 4505  10.316   9.857   3.266 -0.6800  0.2585  0.2901
  758MOL0     C 4506  10.440   9.905   3.346  0.0585 -0.8110  0.2395
  758MOL0     C 4507  10.561   9.818   3.331 -0.4518  0.2398  0.7382
  758MOL0     C 4508  10.675   9.871   3.420 -0.2004 -0.2111  0.3387
  758MOL0     C 4509  10.806   9.781   3.402  1.2871 -0.2507  0.4154
  758MOL0     C 4510  10.923   9.851   3.478 -0.2808 -0.2063 -0.6308
  758MOL0    Cl 4511  11.071   9.771   3.435 -0.1236  0.1501 -0.8657
  758MOL0     C 4512  10.132  10.335   3.120 -0.6064 -0.1942  0.1533
  758MOL0     C 4513  10.096  10.466   3.075 -0.7324 -0.1591  0.7984
  758MOL0     O 4514  10.003  10.680   2.895  0.3587 -0.3434  0.3975
  758MOL0     C 4515   9.790  10.899   3.086  0.2542  0.5857  0.2151
  758MOL0     C 4516   9.706  11.007   3.079  0.0085 -0.1966  0.2308
  758MOL0     N 4517   9.259  11.116   3.424  0.3410  0.0251  0.6382
  758MOL0     N 4518   9.259  10.995   3.469 -0.3919  0.1949  0.8828
  758MOL0     C 4519   9.889  10.146   2.627 -0.6187  0.0880  0.0846
  758MOL0     C 4520  10.014  10.086   2.592 -0.1881 -0.2104  0.5985
  758MOL0     C 4521  10.465   9.939   2.668 -0.1129 -0.0734  0.1039
  758MOL0     C 4522  10.442   9.853   2.558  0.4735  0.1425  0.3084
  758MOL0     C 4523  10.543   9.783   2.500  0.9818  0.4390  0.3755
  758MOL0     C 4524  10.676   9.782   2.552 -0.3128 -0.0645 -0.1844
  758MOL0     O 4525  10.774   9.700   2.496  0.6549  0.2205  0.0317
  758MOL0     C 4526  10.899   9.682   2.569  0.5475  0.0011  0.0053
  758MOL0     C 4527  11.003   9.619   2.471  0.5405 -0.2924 -0.3869
  758MOL0     C 4528  11.128   9.561   2.549 -0.3114 -0.8637 -0.2870
  758MOL0     C 4529  11.250   9.650   2.526  0.0888  0.2030 -0.6344
  758MOL0     C 4530  11.366   9.587   2.577 -0.2502 -0.0032  0.6094
  758MOL0     C 4531  11.466   9.531   2.617 -0.0823 -0.6549 -1.0785
  758MOL0     C 4532  10.699   9.867   2.663  0.2858  0.0438  0.0375
  758MOL0     C 4533  10.591   9.943   2.716  0.1354 -0.1764  0.8002
  758MOL0     C 4534  10.611  10.027   2.839 -0.2391  0.3475 -0.7059
  758MOL0     H 4535  10.216  10.230   2.826 -0.4307  0.0256  1.6334
  758MOL0     H 4536  10.012  10.333   2.890  2.3673  1.0767 -1.6412
  758MOL0     H 4537   9.812  10.439   2.860 -0.3012  0.4274  1.5963
  758MOL0     H 4538   9.797  10.315   2.963  2.0293  3.2379  0.0889
  758MOL0     H 4539   9.565  10.456   2.804  3.0411  4.7723 -0.4325
  758MOL0     H 4540   9.540  10.332   2.929 -0.1351  0.2898  0.8743
  758MOL0     H 4541   9.651  10.458   3.092  3.0191  0.6222 -1.0513
  758MOL0     H 4542   9.680  10.599   2.994  1.6936 -1.7821  0.2988
  758MOL0     H 4543   9.444  10.649   2.939 -3.2653  1.5906  1.9443
  758MOL0     H 4544   9.397  10.495   3.009  1.9553 -1.9587  2.5720
  758MOL0     H 4545   9.531  10.698   3.183  0.3922  0.9142 -0.6303
  758MOL0     H 4546   9.478  10.531   3.220 -2.8565 -0.4218 -1.0673
  758MOL0     H 4547   9.317  10.769   3.150  0.8414  0.8773  0.5999
  758MOL0     H 4548   9.240  10.611   3.154  0.5498  0.3967  0.3306
  758MOL0     H 4549   9.394  10.725   3.401  1.6171  1.5363 -2.5420
  758MOL0     H 4550   9.287  10.586   3.384 -0.9642 -0.4523 -0.9539
  758MOL0     H 4551   9.104  10.725   3.327  1.1278 -0.7366 -2.2116
  758MOL0     H 4552   9.164  10.748   3.491 -0.8434 -0.7499 -0.6114
  758MOL0     H 4553   9.146  10.966   3.161 -1.0656  0.5468  0.3416
  758MOL0     H 4554   9.248  11.321   3.259 -1.0404  2.7611 -3.0171
  758MOL0     H 4555   9.131  11.249   3.156 -0.0326  1.8300  0.8809
  758MOL0     H 4556   9.309  11.113   3.037  0.6764 -0.0349 -0.5620
  758MOL0     H 4557   9.285  11.285   3.011 -1.0798 -0.8405 -0.4395
  758MOL0     H 4558   9.440  11.352   3.174  2.2650  0.3960  1.1512
  758MOL0     H 4559   9.491  11.177   3.197 -0.6735  0.0633 -0.2544
  758MOL0     H 4560   9.531  11.349   2.958 -0.9964  0.4261  2.6859
  758MOL0     H 4561   9.660  11.278   3.055  0.7545  1.0703 -3.4401
  758MOL0     H 4562   9.681  11.039   2.739  3.8344 -0.2932 -2.0438
  758MOL0     H 4563   9.796  10.871   2.623 -1.8208 -1.9256 -0.0407
  758MOL0     H 4564   9.797  10.722   2.711 -2.3027  0.1829 -1.2409
  758MOL0     H 4565   9.951  10.838   2.697 -0.6981  2.7141  0.5227
  758MOL0     H 4566   9.865  10.533   3.327 -0.2575 -2.2654  2.1645
  758MOL0     H 4567   9.900  10.290   3.356 -2.2088  1.0817 -0.2054
  758MOL0     H 4568  10.209  10.061   3.118  0.3877  1.8020 -0.3213
  758MOL0     H 4569  10.284  10.129   3.248 -0.2041  1.2244 -2.1918
  758MOL0     H 4570  10.198   9.952   3.408 -0.4410 -2.7770  1.3201
  758MOL0     H 4571  10.109   9.874   3.273 -0.0462 -0.6818  1.3567
  758MOL0     H 4572  10.334   9.869   3.159 -1.3158 -2.1093 -0.1302
  758MOL0     H 4573  10.295   9.752   3.290  0.1255  0.1178  0.4102
  758MOL0     H 4574  10.424   9.920   3.453  2.2364  0.8166  0.4136
  758MOL0     H 4575  10.460  10.002   3.300 -1.1762 -1.1632 -1.1374
  758MOL0     H 4576  10.537   9.716   3.364 -1.1772  0.3484  0.5624
  758MOL0     H 4577  10.574   9.812   3.222  0.3531  1.7339  0.7342
  758MOL0     H 4578  10.642   9.859   3.524 -1.5693 -0.5081 -0.1108
  758MOL0     H 4579  10.698   9.976   3.401 -2.1121  0.6106  2.1273
  758MOL0     H 4580  10.826   9.776   3.295  0.1232 -2.3878  0.2467
  758MOL0     H 4581  10.783   9.678   3.431 -0.8746 -0.0993 -0.5826
  758MOL0     H 4582  10.910   9.837   3.586 -3.3033 -2.0807 -1.1042
  758MOL0     H 4583  10.944   9.957   3.461 -1.6381  0.6911  2.5328
  758MOL0     H 4584  10.206  10.272   3.072 -0.6323 -1.6806  1.9390
  758MOL0     H 4585  10.136  10.515   2.987 -1.3054  1.6014  1.4830
  758MOL0     H 4586   9.820  10.860   3.183  1.4528 -4.1334 -1.7582
  758MOL0     H 4587   9.669  11.042   3.175 -3.1735 -4.2383  0.7691
  758MOL0     H 4588   9.807  10.126   2.559 -0.9425  2.4412 -0.3277
  758MOL0     H 4589  10.013  10.021   2.505  1.3134  1.2717 -0.5957
  758MOL0     H 4590  10.342   9.839   2.518  1.5390 -1.4388 -1.9649
  758MOL0     H 4591  10.519   9.724   2.412  0.8965  1.4524 -0.2966
  758MOL0     H 4592  10.942   9.777   2.603 -2.2485  0.6049  2.2359
  758MOL0     H 4593  10.892   9.621   2.660 -0.0597 -1.8255 -1.2028
  758MOL0     H 4594  11.018   9.692   2.391  0.1916 -1.0873 -1.1905
  758MOL0     H 4595  10.957   9.533   2.421  0.1616 -1.0041  1.0977
  758MOL0     H 4596  11.109   9.543   2.656 -0.5193  0.8196 -0.0031
  758MOL0     H 4597  11.164   9.469   2.503  2.3735 -0.5345  0.9196
  758MOL0     H 4598  11.237   9.747   2.575  3.4721  0.0008  0.9812
  758MOL0     H 4599  11.256   9.658   2.417  2.6197 -0.4653 -0.6133
  758MOL0     H 4600  11.540   9.473   2.668 -2.3899 -0.2536  3.2345
  758MOL0     H 4601  10.787   9.873   2.726  0.1454 -2.2243  0.5176
  758MOL0     H 4602  10.543  10.113   2.843 -1.0668 -0.2729 -1.0950
  758MOL0     H 4603  10.600   9.978   2.936  1.2759  3.6195  1.3015
  758MOL0     H 4604  10.716  10.056   2.844 -0.1301 -0.0209 -0.8060
  759MOL0     O 4605  11.107   5.707   3.090 -0.3498 -0.4271  0.2125
  759MOL0     C 4606  11.057   5.613   3.149 -0.4159 -0.0384 -0.3685
  759MOL0     O 4607  10.998   5.513   3.095 -0.5147  0.6443 -0.1866
  759MOL0     C 4608  10.980   5.525   2.953  0.2704  0.3761 -0.5712
  759MOL0     C 4609  11.078   5.489   2.861 -0.0560 -0.0184  0.1916
  759MOL0     C 4610  11.041   5.475   2.721  0.1293  0.2633 -0.3226
  759MOL0     C 4611  10.918   5.515   2.675 -0.1753  0.4882 -0.5072
  759MOL0     O 4612  10.887   5.485   2.547 -0.1481 -0.1093  1.0158
  759MOL0     C 4613  10.970   5.527   2.432  0.2639  0.2324 -0.3987
  759MOL0     C 4614  10.964   5.677   2.402  0.0195  0.5195 -0.5344
  759MOL0     C 4615  10.823   5.726   2.367 -0.4277 -0.1003 -0.2109
  759MOL0     C 4616  10.834   5.870   2.317  0.0810 -0.1681 -1.2784
  759MOL0     C 4617  10.837   5.969   2.434 -0.7867 -0.3528 -0.0606
  759MOL0     C 4618  10.839   6.118   2.386  0.9667 -0.3279 -0.5590
  759MOL0     C 4619  10.843   6.207   2.507 -0.0390  1.3396 -0.8101
  759MOL0     C 4620  10.889   6.351   2.467  0.1365  0.2176  0.2312
  759MOL0     N 4621  11.023   6.370   2.403 -0.7687  0.0069  0.3305
  759MOL0     C 4622  11.136   6.299   2.434  0.3630 -0.0422 -0.4915
  759MOL0     C 4623  11.221   6.335   2.342  0.5838  0.4398  0.6175
  759MOL0     C 4624  11.363   6.286   2.330 -0.6596 -0.7303  0.8974
  759MOL0     C 4625  11.382   6.138   2.285  0.0316 -0.9734  0.8678
  759MOL0     C 4626  11.353   6.111   2.130  0.0418  0.7150 -0.0617
  759MOL0     C 4627  11.211   6.110   2.093 -0.8287 -0.2670  0.6883
  759MOL0     O 4628  11.212   6.089   1.951 -0.2953 -0.0044 -0.8451
  759MOL0     C 4629  11.101   6.047   1.876 -0.3096 -0.2014 -0.1607
  759MOL0     C 4630  10.975   6.026   1.932  0.6063  0.6502  0.7532
  759MOL0     C 4631  10.861   5.964   1.857  0.1591 -0.3177  0.6999
  759MOL0     C 4632  10.729   5.929   1.928  0.4753 -0.4710 -0.0085
  759MOL0     C 4633  10.895   5.925   1.724 -0.0485 -0.5158  0.0824
  759MOL0     C 4634  10.798   5.858   1.633 -0.8863  0.1235  0.5443
  759MOL0     O 4635  10.797   5.903   1.509 -0.3049  0.1428 -0.1233
  759MOL0     C 4636  10.730   5.846   1.408  0.0423  0.3046  0.7010
  759MOL0     C 4637  10.791   5.869   1.289 -0.2525 -0.5209 -0.4805
  759MOL0     C 4638  10.747   5.804   1.173 -0.3416  0.0380 -0.1335
  759MOL0     C 4639  10.640   5.708   1.173 -0.0058 -0.6832  0.1891
  759MOL0     O 4640  10.588   5.639   1.062 -0.1707 -0.0537 -0.8561
  759MOL0     C 4641  10.671   5.611   0.957 -0.3238  0.2076  1.0451
  759MOL0     C 4642  10.640   5.710   0.848 -0.9193  0.6504 -0.1255
  759MOL0     C 4643  10.499   5.672   0.795  0.8737  0.1506  0.1319
  759MOL0     C 4644  10.469   5.749   0.668  1.0965 -0.1899 -0.5430
  759MOL0     C 4645  10.323   5.725   0.624  0.6846  0.0882 -0.0585
  759MOL0     C 4646  10.295   5.832   0.507 -0.1739  0.1372 -0.0084
  759MOL0     C 4647  10.162   5.806   0.434 -0.2462  0.6936  0.3584
  759MOL0     C 4648  10.040   5.814   0.521 -0.7372 -0.3437  1.2135
  759MOL0    Cl 4649   9.905   5.840   0.402  0.3949 -0.3823 -0.2188
  759MOL0     C 4650  10.578   5.688   1.298  1.6525  0.2035 -0.1641
  759MOL0     C 4651  10.621   5.760   1.414 -0.2724  0.1165 -0.0662
  759MOL0     O 4652  10.730   5.763   1.676 -0.0249 -0.2254  0.1616
  759MOL0     C 4653  11.017   5.973   1.657 -0.5189  1.3082  0.1307
  759MOL0     C 4654  11.124   6.022   1.736  0.3872 -0.5404 -0.3289
  759MOL0     N 4655  11.165   6.430   2.257 -0.2167 -0.1545  0.0052
  759MOL0     N 4656  11.047   6.452   2.298  0.2437  0.1525 -0.2776
  759MOL0     C 4657  10.822   5.572   2.768 -0.3532 -0.4667  0.3336
  759MOL0     C 4658  10.852   5.573   2.904 -0.4038  0.0380  0.0860
  759MOL0     C 4659  11.059   5.607   3.297 -0.1334 -0.3255 -1.6112
  759MOL0     C 4660  11.077   5.732   3.376 -0.3411  0.3751  0.2936
  759MOL0     C 4661  11.080   5.732   3.516  0.8232 -0.5744  0.5445
  759MOL0     C 4662  11.071   5.617   3.583  0.2964  0.2008  0.0392
  759MOL0     O 4663  11.096   5.609   3.716  0.2192  0.2906  0.6742
  759MOL0     C 4664  11.012   5.698   3.791 -0.1070  0.6629 -0.0197
  759MOL0     C 4665  10.908   5.617   3.858  0.4332 -0.0396 -0.1777
  759MOL0     C 4666  10.842   5.704   3.968 -1.2337  0.9102  0.0130
  759MOL0     C 4667  10.732   5.613   4.033  1.7607  0.5980 -0.8929
  759MOL0     C 4668  10.635   5.680   4.135 -0.1416  0.2497  0.5310
  759MOL0     C 4669  10.559   5.732   4.212 -0.0352  0.3811 -0.4019
  759MOL0     C 4670  11.067   5.495   3.520 -0.2005 -0.0290 -1.2838
  759MOL0     C 4671  11.054   5.496   3.378  0.2367  0.9958 -0.0982
  759MOL0     C 4672  11.040   5.361   3.322  0.1409  0.0111  0.1331
  759MOL0     H 4673  11.174   5.465   2.906 -0.0748  1.3588  1.0397
  759MOL0     H 4674  11.111   5.439   2.646 -0.0821  2.7763 -1.8398
  759MOL0     H 4675  10.932   5.467   2.349 -1.3981 -1.6106  1.5730
  759MOL0     H 4676  11.076   5.502   2.442  0.8913  3.4892  3.3518
  759MOL0     H 4677  10.999   5.743   2.482 -0.9829  3.2874 -2.2804
  759MOL0     H 4678  11.033   5.695   2.319 -0.4073 -0.6691 -1.1731
  759MOL0     H 4679  10.784   5.660   2.289 -0.5674 -0.4383  0.1363
  759MOL0     H 4680  10.757   5.720   2.455  0.5375 -0.7582  0.4893
  759MOL0     H 4681  10.932   5.872   2.267  1.4286 -1.2427  1.1020
  759MOL0     H 4682  10.763   5.895   2.239 -1.5288  1.4108  0.5899
  759MOL0     H 4683  10.920   5.950   2.502  1.9962  3.3507 -2.1191
  759MOL0     H 4684  10.741   5.952   2.486 -1.7341  2.7252 -0.6238
  759MOL0     H 4685  10.931   6.137   2.330  0.0595  3.5522 -1.0370
  759MOL0     H 4686  10.753   6.142   2.322  0.6244 -0.4784 -0.1630
  759MOL0     H 4687  10.922   6.167   2.573  0.3166  0.0295 -1.9729
  759MOL0     H 4688  10.747   6.206   2.558 -0.3791  0.5811 -1.4475
  759MOL0     H 4689  10.819   6.391   2.393  0.0902 -0.8308 -0.3169
  759MOL0     H 4690  10.879   6.412   2.557  0.0116 -1.2093  1.2245
  759MOL0     H 4691  11.152   6.220   2.507 -1.8991  0.7502  0.9492
  759MOL0     H 4692  11.417   6.302   2.424  2.7858  0.7326 -1.1613
  759MOL0     H 4693  11.415   6.348   2.257  0.4097 -0.8917  1.5028
  759MOL0     H 4694  11.482   6.100   2.308  0.5303  0.0839  0.5065
  759MOL0     H 4695  11.311   6.079   2.343 -1.9235  1.9013  1.5547
  759MOL0     H 4696  11.398   6.187   2.066 -0.3532  0.1356 -1.0425
  759MOL0     H 4697  11.392   6.011   2.106 -1.3695 -0.2355  1.4000
  759MOL0     H 4698  11.161   6.026   2.142  0.9669 -1.7142  0.1335
  759MOL0     H 4699  11.165   6.206   2.118 -0.0269  1.2172 -2.9225
  759MOL0     H 4700  10.962   6.050   2.037  2.0739  0.9077  0.8955
  759MOL0     H 4701  10.707   6.014   1.994 -1.1221  0.3872 -1.5898
  759MOL0     H 4702  10.764   5.850   1.996  1.1113  2.0811  2.8571
  759MOL0     H 4703  10.647   5.904   1.861  0.4926 -0.1340 -0.1542
  759MOL0     H 4704  10.862   5.951   1.285 -0.7349  0.2541  3.1895
  759MOL0     H 4705  10.791   5.838   1.080  2.1541  0.6358  1.1782
  759MOL0     H 4706  10.778   5.624   0.974  0.6920  1.4019 -4.5002
  759MOL0     H 4707  10.647   5.509   0.923 -1.1125 -0.3133  3.0114
  759MOL0     H 4708  10.645   5.813   0.883  0.8924 -0.1835  2.4216
  759MOL0     H 4709  10.713   5.688   0.771 -0.2427  2.3742 -0.0102
  759MOL0     H 4710  10.422   5.685   0.872  2.6962  1.7988  1.7966
  759MOL0     H 4711  10.496   5.565   0.771  2.4403 -0.0824  0.8285
  759MOL0     H 4712  10.545   5.728   0.591 -1.2530 -2.4112 -2.4145
  759MOL0     H 4713  10.481   5.852   0.703  0.1102 -0.3776  0.3939
  759MOL0     H 4714  10.303   5.622   0.592  1.7178 -0.0194 -0.3843
  759MOL0     H 4715  10.251   5.745   0.704 -1.4351  1.1893 -2.0976
  759MOL0     H 4716  10.384   5.834   0.444  0.2725 -1.7934  0.4990
  759MOL0     H 4717  10.296   5.928   0.559 -0.2756 -0.0078  0.2585
  759MOL0     H 4718  10.159   5.702   0.402 -2.6794  0.4921  1.0416
  759MOL0     H 4719  10.153   5.869   0.345 -0.2239  2.3057  1.4474
  759MOL0     H 4720  10.041   5.899   0.591  1.0351  1.7829 -1.2037
  759MOL0     H 4721  10.029   5.721   0.578 -1.4464 -1.4147 -0.5903
  759MOL0     H 4722  10.499   5.614   1.307 -1.7051  3.2978 -1.7069
  759MOL0     H 4723  10.571   5.738   1.508  0.6578  1.3366  0.7413
  759MOL0     H 4724  11.039   5.953   1.553 -0.4730 -0.5685  0.4656
  759MOL0     H 4725  11.217   6.042   1.684  0.6799  2.8355  1.2419
  759MOL0     H 4726  10.722   5.583   2.727 -0.0406 -1.2038 -0.6862
  759MOL0     H 4727  10.780   5.604   2.979 -1.2121 -1.7085  0.0923
  759MOL0     H 4728  11.093   5.822   3.318  2.2482  0.9330  1.7061
  759MOL0     H 4729  11.093   5.831   3.559  0.0787 -0.5621  0.7514
  759MOL0     H 4730  11.075   5.737   3.872  0.3917  1.0453 -0.5825
  759MOL0     H 4731  10.956   5.776   3.740 -0.1447  1.1604  0.7797
  759MOL0     H 4732  10.959   5.525   3.888  0.3042  0.1373  0.6164
  759MOL0     H 4733  10.825   5.587   3.792  1.7415  0.6123 -2.2240
  759MOL0     H 4734  10.910   5.735   4.048 -2.8927  0.0449  1.8559
  759MOL0     H 4735  10.802   5.795   3.921 -1.2738  0.1190 -1.5502
  759MOL0     H 4736  10.776   5.526   4.082 -2.4297 -1.9928 -1.2421
  759MOL0     H 4737  10.671   5.573   3.952  0.5048  2.2519 -0.8318
  759MOL0     H 4738  10.479   5.755   4.279 -1.3448  0.5470 -1.9741
  759MOL0     H 4739  11.074   5.401   3.574  0.7585  1.2922  1.0535
  759MOL0     H 4740  11.058   5.282   3.396 -0.1208  0.8897  1.1521
  759MOL0     H 4741  10.933   5.351   3.304  0.0073  0.1366  0.8358
  759MOL0     H 4742  11.105   5.353   3.235 -1.2685 -0.2278 -0.9242
  760MOL0     O 4743  10.517   3.240   1.530 -0.4364 -1.2777  0.0053
  760MOL0     C 4744  10.487   3.284   1.418  0.0138 -0.0382 -0.2744
  760MOL0     O 4745  10.576   3.339   1.319  0.3187  0.5256  0.0682
  760MOL0     C 4746  10.705   3.365   1.360 -0.7982  0.2975  0.4953
  760MOL0     C 4747  10.733   3.502   1.404  0.7665  0.1105  0.1170
  760MOL0     C 4748  10.844   3.517   1.486 -0.0817  0.6363 -0.0765
  760MOL0     C 4749  10.931   3.417   1.521  0.2702 -0.3220 -0.0177
  760MOL0     O 4750  11.050   3.457   1.588 -0.4807  0.5642  0.1120
  760MOL0     C 4751  11.171   3.375   1.556  0.4098 -0.4158  0.4822
  760MOL0     C 4752  11.226   3.401   1.417  0.0269  0.3822 -0.3325
  760MOL0     C 4753  11.167   3.527   1.339  0.2931  0.4247  0.0442
  760MOL0     C 4754  11.239   3.552   1.209 -0.4793  0.5416 -0.5783
  760MOL0     C 4755  11.377   3.627   1.245  0.3527  0.0095 -0.1679
  760MOL0     C 4756  11.460   3.647   1.114  0.9122 -0.1545 -0.5930
  760MOL0     C 4757  11.603   3.700   1.133  0.7880  0.2491  0.0305
  760MOL0     C 4758  11.662   3.706   0.994  0.1471 -0.3353  0.6653
  760MOL0     N 4759  11.802   3.756   1.011  0.9176 -0.6565  0.9336
  760MOL0     C 4760  11.856   3.879   1.053  0.5905 -0.8618  0.3648
  760MOL0     C 4761  11.990   3.847   1.066 -0.1606 -0.1796  0.5809
  760MOL0     C 4762  12.087   3.958   1.108 -0.3335  0.8160  0.1748
  760MOL0     C 4763  12.233   3.929   1.077  0.0971  0.1662  0.6006
  760MOL0     C 4764  12.286   3.813   1.165 -0.1357  0.2980  0.4945
  760MOL0     C 4765  12.430   3.777   1.144 -0.3851  0.0120  0.3829
  760MOL0     O 4766  12.456   3.722   1.017  0.0901  0.3281  0.3215
  760MOL0     C 4767  12.585   3.691   1.001 -0.0212  0.5472 -0.4641
  760MOL0     C 4768  12.654   3.591   1.067  0.1399 -0.7736 -0.0513
  760MOL0     C 4769  12.798   3.582   1.065  0.3212 -0.5264  0.3431
  760MOL0     C 4770  12.860   3.466   1.140  0.7098  0.6566  0.9400
  760MOL0     C 4771  12.868   3.667   0.970 -0.2659  0.4238  0.7175
  760MOL0     C 4772  13.012   3.649   0.948 -1.0742 -0.6009 -0.0008
  760MOL0     O 4773  13.057   3.694   0.829 -0.3232 -0.3701  0.2634
  760MOL0     C 4774  13.185   3.748   0.819 -0.3005  1.1636 -0.6031
  760MOL0     C 4775  13.236   3.841   0.901 -0.2717  0.1505 -0.5841
  760MOL0     C 4776  13.360   3.902   0.887 -0.4385 -0.0260  0.4431
  760MOL0     C 4777  13.443   3.859   0.776  0.1131 -0.0491  0.6789
  760MOL0     O 4778  13.572   3.892   0.755 -0.6312  0.6061  0.1334
  760MOL0     C 4779  13.634   3.993   0.843  0.2037  0.3949 -0.1865
  760MOL0     C 4780  13.778   4.005   0.805 -0.3660 -0.9635  0.2565
  760MOL0     C 4781  13.798   4.018   0.654  0.4754  0.3467  0.4039
  760MOL0     C 4782  13.948   4.018   0.629  0.2844 -0.1970 -0.2418
  760MOL0     C 4783  13.993   4.048   0.485 -0.4241 -0.1980  0.9742
  760MOL0     C 4784  13.914   3.965   0.381 -0.9465 -0.7366  0.7834
  760MOL0     C 4785  13.936   3.819   0.372 -0.7847 -0.1595  0.4274
  760MOL0     C 4786  13.812   3.747   0.315 -0.3923 -1.0963 -0.2180
  760MOL0    Cl 4787  13.800   3.765   0.141 -0.4674 -0.3881 -0.0844
  760MOL0     C 4788  13.391   3.762   0.683 -0.3484  0.4637  0.0565
  760MOL0     C 4789  13.262   3.710   0.712 -0.0272 -0.0348  0.0649
  760MOL0     O 4790  13.088   3.608   1.039 -0.3234 -0.0734  1.1420
  760MOL0     C 4791  12.799   3.767   0.904 -0.6263  1.0081  0.2773
  760MOL0     C 4792  12.659   3.778   0.920  0.1105  1.3632  1.0741
  760MOL0     N 4793  12.018   3.718   1.012  0.2339 -0.1838  0.8985
  760MOL0     N 4794  11.904   3.665   0.990  0.5615 -0.3190 -0.0290
  760MOL0     C 4795  10.918   3.291   1.469  0.6159  0.0460 -0.0966
  760MOL0     C 4796  10.804   3.272   1.389 -0.0015  0.4770  1.0494
  760MOL0     C 4797  10.344   3.280   1.391 -0.3707  0.3888 -0.1866
  760MOL0     C 4798  10.306   3.305   1.251 -0.4088 -0.4882 -0.5299
  760MOL0     C 4799  10.170   3.300   1.218  0.0280  0.1678 -0.5901
  760MOL0     C 4800  10.070   3.272   1.312 -0.0087  1.1536 -0.3923
  760MOL0     O 4801   9.935   3.250   1.284  0.1112 -0.1917 -0.1896
  760MOL0     C 4802   9.905   3.120   1.255 -0.4424  0.2017 -0.1517
  760MOL0     C 4803   9.761   3.083   1.287  0.3398  0.0778  0.1916
  760MOL0     C 4804   9.665   3.147   1.195  0.1275 -0.7159  0.0968
  760MOL0     C 4805   9.531   3.164   1.252  0.4261 -0.2473  0.7376
  760MOL0     C 4806   9.460   3.037   1.225  0.4129 -0.6015  0.3544
  760MOL0     C 4807   9.406   2.934   1.188  0.4142 -0.5781  0.1105
  760MOL0     C 4808  10.109   3.240   1.441 -0.6944  0.6379  0.8182
  760MOL0     C 4809  10.240   3.245   1.484 -0.6390 -1.0784  0.1615
  760MOL0     C 4810  10.254   3.211   1.626  0.5195  0.5490  0.1945
  760MOL0     H 4811  10.670   3.585   1.373 -2.4688 -2.2189 -0.0093
  760MOL0     H 4812  10.866   3.619   1.516 -2.0198  1.3737 -0.9617
  760MOL0     H 4813  11.151   3.272   1.585  2.4600 -1.1274 -0.4881
  760MOL0     H 4814  11.247   3.405   1.629 -0.3285 -2.9571  2.4403
  760MOL0     H 4815  11.333   3.380   1.409 -0.6101 -2.9462 -1.9305
  760MOL0     H 4816  11.194   3.314   1.359 -4.0098  0.9718  0.6842
  760MOL0     H 4817  11.063   3.504   1.318  0.4165  1.0601 -1.3755
  760MOL0     H 4818  11.173   3.616   1.402 -2.3845 -1.8501  3.9895
  760MOL0     H 4819  11.258   3.457   1.158  2.9703  1.2859 -0.8965
  760MOL0     H 4820  11.181   3.620   1.145 -0.7363  0.6362 -0.2486
  760MOL0     H 4821  11.441   3.561   1.304  1.5776  0.1910 -1.2457
  760MOL0     H 4822  11.359   3.724   1.291 -0.3700  0.9013 -2.2033
  760MOL0     H 4823  11.460   3.544   1.079 -1.0506 -1.4602  2.7407
  760MOL0     H 4824  11.414   3.715   1.042  1.7294 -0.5516 -1.5101
  760MOL0     H 4825  11.662   3.629   1.192 -1.1921 -2.3390 -0.9502
  760MOL0     H 4826  11.597   3.798   1.183 -3.5652  1.3460 -2.0834
  760MOL0     H 4827  11.661   3.610   0.943  1.5747 -1.2036  2.1754
  760MOL0     H 4828  11.618   3.778   0.924  2.0470  0.4799  0.2315
  760MOL0     H 4829  11.810   3.974   1.078 -0.5460 -0.6775 -2.1588
  760MOL0     H 4830  12.073   3.980   1.214  2.6257  1.7994  0.4465
  760MOL0     H 4831  12.062   4.051   1.055 -2.2100 -0.0434 -0.5167
  760MOL0     H 4832  12.239   3.904   0.970 -3.1152  2.5395 -0.3030
  760MOL0     H 4833  12.297   4.016   1.089 -1.0284  1.1458 -0.2385
  760MOL0     H 4834  12.278   3.830   1.273 -0.4037 -2.0317  0.8967
  760MOL0     H 4835  12.235   3.720   1.138  0.5995  0.1072 -0.2792
  760MOL0     H 4836  12.500   3.858   1.168 -1.8525  1.0465  1.3433
  760MOL0     H 4837  12.445   3.690   1.207 -0.3245  0.2729  0.7327
  760MOL0     H 4838  12.604   3.513   1.123  2.0521 -3.1232 -1.4046
  760MOL0     H 4839  12.936   3.414   1.082 -0.3190 -0.3403  0.4574
  760MOL0     H 4840  12.786   3.400   1.187 -0.5598  0.7618 -0.8163
  760MOL0     H 4841  12.911   3.525   1.217  0.8512  1.9598 -0.1161
  760MOL0     H 4842  13.180   3.882   0.984  1.2164  0.6119  0.2278
  760MOL0     H 4843  13.383   3.980   0.958  0.8016  0.6893 -0.7186
  760MOL0     H 4844  13.586   4.090   0.827 -2.1388 -0.0476  3.1722
  760MOL0     H 4845  13.626   3.968   0.949  0.0230  3.9657  0.7529
  760MOL0     H 4846  13.824   4.087   0.862 -0.3018 -1.3741  0.8012
  760MOL0     H 4847  13.827   3.914   0.840  1.4436 -0.3799 -0.6037
  760MOL0     H 4848  13.759   4.109   0.609 -0.3693  0.1417  0.6872
  760MOL0     H 4849  13.741   3.939   0.605  0.6794 -0.2197  1.0547
  760MOL0     H 4850  13.986   3.926   0.674 -4.8549 -1.3339  2.5870
  760MOL0     H 4851  13.990   4.104   0.683 -0.5516  0.2111 -0.2270
  760MOL0     H 4852  13.967   4.154   0.471 -1.0842 -0.3999  0.5993
  760MOL0     H 4853  14.100   4.034   0.469  0.2917  1.6281  3.5271
  760MOL0     H 4854  13.939   4.009   0.284 -0.1635 -0.2170  1.2102
  760MOL0     H 4855  13.806   3.981   0.395 -0.3471  4.9087  1.1757
  760MOL0     H 4856  13.947   3.781   0.475 -1.7453  0.3694  0.7336
  760MOL0     H 4857  14.026   3.797   0.313  0.4602  1.3836  1.6742
  760MOL0     H 4858  13.722   3.790   0.360  0.0975 -0.9126  0.6074
  760MOL0     H 4859  13.821   3.642   0.345 -1.5709 -1.4313 -0.9937
  760MOL0     H 4860  13.434   3.722   0.592 -2.2988  0.8466 -1.0901
  760MOL0     H 4861  13.224   3.638   0.641  1.0941 -0.4854 -0.1006
  760MOL0     H 4862  12.844   3.834   0.831 -2.9365  1.3885 -0.8944
  760MOL0     H 4863  12.609   3.850   0.856 -0.3108  0.2313  0.0981
  760MOL0     H 4864  10.980   3.210   1.508 -0.6533 -0.0273  1.9052
  760MOL0     H 4865  10.777   3.173   1.354 -3.3517  1.2152  1.2941
  760MOL0     H 4866  10.386   3.324   1.180  1.7484  0.0404  1.8798
  760MOL0     H 4867  10.126   3.322   1.121  1.6918  1.9229 -0.9940
  760MOL0     H 4868   9.925   3.087   1.152  1.6484 -0.6821  0.4739
  760MOL0     H 4869   9.972   3.057   1.314  0.4014  2.1149  1.0011
  760MOL0     H 4870   9.734   3.091   1.393  0.9996 -0.9283  0.4588
  760MOL0     H 4871   9.745   2.976   1.270 -2.5642  0.7261 -1.7748
  760MOL0     H 4872   9.707   3.243   1.167 -0.9050 -0.0186  0.8655
  760MOL0     H 4873   9.659   3.089   1.102  1.6261 -3.0843  1.3752
  760MOL0     H 4874   9.482   3.252   1.210  3.0768  1.7041  1.4959
  760MOL0     H 4875   9.540   3.184   1.359 -0.6936  0.3355  0.7445
  760MOL0     H 4876   9.362   2.837   1.178 -0.8559  0.0947 -1.1600
  760MOL0     H 4877  10.028   3.224   1.512 -0.8484 -0.4894  0.3975
  760MOL0     H 4878  10.328   3.130   1.621  0.5451  0.5509  0.5191
  760MOL0     H 4879  10.289   3.296   1.685 -0.6789  1.0654  0.1840
  760MOL0     H 4880  10.159   3.177   1.668  0.5995  3.0855  2.7666
  761MOL0     O 4881   0.497   7.120   4.809  0.0251 -0.1992 -0.0183
  761MOL0     C 4882   0.501   7.019   4.737 -0.2456  0.2254  0.1732
  761MOL0     O 4883   0.404   6.919   4.739 -0.2441 -0.1869  0.4155
  761MOL0     C 4884   0.281   6.954   4.786  0.2844  0.5186  0.4861
  761MOL0     C 4885   0.163   6.955   4.706 -0.4796 -0.2133 -0.2127
  761MOL0     C 4886   0.033   6.983   4.746 -0.3706  0.1240  0.0144
  761MOL0     C 4887   0.016   7.004   4.885 -0.2552 -0.1919  0.1748
  761MOL0     O 4888  -0.104   7.031   4.946  0.0697 -0.0238  0.1644
  761MOL0     C 4889  -0.137   6.929   5.046  0.1969  0.2821  0.1176
  761MOL0     C 4890  -0.276   6.957   5.107 -0.0467 -0.5690  0.8789
  761MOL0     C 4891  -0.302   6.880   5.237 -0.4923  0.4431  0.5442
  761MOL0     C 4892  -0.442   6.912   5.280  0.1810 -0.4132  0.1155
  761MOL0     C 4893  -0.476   6.873   5.422 -0.3869 -0.8215 -0.4711
  761MOL0     C 4894  -0.522   6.727   5.428  1.0441 -0.3960  0.6340
  761MOL0     C 4895  -0.551   6.679   5.582  0.0338 -0.2490 -0.0061
  761MOL0     C 4896  -0.427   6.663   5.660 -0.2493 -1.0023 -0.5580
  761MOL0     N 4897  -0.349   6.539   5.628 -0.3695 -0.0367 -0.6107
  761MOL0     C 4898  -0.226   6.515   5.682 -0.3863 -0.2130 -0.8496
  761MOL0     C 4899  -0.179   6.396   5.638 -0.0504  0.4613  0.0260
  761MOL0     C 4900  -0.049   6.338   5.698 -0.0176 -0.8631 -0.4957
  761MOL0     C 4901   0.073   6.419   5.643 -0.9734  0.3752  0.3074
  761MOL0     C 4902   0.069   6.574   5.668 -0.3076  0.1967  0.3573
  761MOL0     C 4903   0.191   6.635   5.614 -0.0093 -0.1815 -0.1353
  761MOL0     O 4904   0.301   6.590   5.690  0.0784  0.0127  0.1122
  761MOL0     C 4905   0.429   6.619   5.650 -0.2779 -0.7331  0.1319
  761MOL0     C 4906   0.464   6.700   5.536  0.2844 -0.1416  0.1513
  761MOL0     C 4907   0.595   6.717   5.504 -0.0241  0.2638 -0.4402
  761MOL0     C 4908   0.622   6.809   5.391  0.1123 -0.7653 -0.2147
  761MOL0     C 4909   0.701   6.659   5.578 -0.5502  0.5686  0.7117
  761MOL0     C 4910   0.839   6.684   5.544 -0.3410  0.0044 -0.4798
  761MOL0     O 4911   0.919   6.573   5.524  0.7905 -0.2627  0.0888
  761MOL0     C 4912   1.049   6.581   5.545 -0.0218 -0.1806  0.7315
  761MOL0     C 4913   1.128   6.663   5.468 -0.1144 -1.0069 -1.0372
  761MOL0     C 4914   1.264   6.681   5.484 -1.1619  0.6036 -0.2805
  761MOL0     C 4915   1.329   6.590   5.577  0.2858  0.0158  0.4151
  761MOL0     O 4916   1.469   6.588   5.603  0.7143 -0.1022  0.3636
  761MOL0     C 4917   1.546   6.711   5.618  0.3886 -0.1411  0.1568
  761MOL0     C 4918   1.657   6.696   5.717  0.3424 -0.6607  0.6401
  761MOL0     C 4919   1.768   6.601   5.673 -0.3198  0.8141 -0.7102
  761MOL0     C 4920   1.868   6.584   5.783  0.1900 -0.5140 -0.3991
  761MOL0     C 4921   1.994   6.512   5.731 -0.6951  0.4082  0.0210
  761MOL0     C 4922   2.095   6.520   5.850 -0.1913  0.1851 -0.1239
  761MOL0     C 4923   2.060   6.403   5.947 -0.3740 -0.2105 -0.3552
  761MOL0     C 4924   2.172   6.360   6.046 -0.6188 -0.8128  0.6644
  761MOL0    Cl 4925   2.224   6.487   6.155  0.1340 -0.0808  0.0649
  761MOL0     C 4926   1.256   6.506   5.651  0.3092 -0.2567 -0.1181
  761MOL0     C 4927   1.118   6.491   5.623  0.5952  0.4504  0.4152
  761MOL0     O 4928   0.875   6.809   5.555 -0.0075  0.6338 -0.2717
  761MOL0     C 4929   0.660   6.574   5.681 -0.3676 -0.9674  0.3617
  761MOL0     C 4930   0.529   6.554   5.723  0.0282  0.8684  0.2638
  761MOL0     N 4931  -0.279   6.353   5.543  1.4727  0.1034  0.2227
  761MOL0     N 4932  -0.377   6.446   5.536  0.8641  1.2904 -0.2326
  761MOL0     C 4933   0.129   7.005   4.969  0.3181  0.0607  0.0307
  761MOL0     C 4934   0.259   6.971   4.924  0.5229 -0.5054 -0.1886
  761MOL0     C 4935   0.617   6.980   4.652 -0.9242  1.1550 -0.8688
  761MOL0     C 4936   0.632   6.845   4.619  0.2047  0.4032  0.2161
  761MOL0     C 4937   0.738   6.797   4.539  0.1010  0.0431 -0.2216
  761MOL0     C 4938   0.823   6.886   4.472  0.2111 -0.5836  0.7511
  761MOL0     O 4939   0.925   6.852   4.380 -0.6881  0.3681  0.2840
  761MOL0     C 4940   1.021   6.753   4.426  0.7272  0.0063  0.0122
  761MOL0     C 4941   1.096   6.824   4.536 -0.7429 -0.0262 -0.2159
  761MOL0     C 4942   1.234   6.761   4.559  0.6046 -0.0430  0.4246
  761MOL0     C 4943   1.325   6.802   4.441  0.0486  0.8777  0.2664
  761MOL0     C 4944   1.453   6.735   4.471  0.3745  0.0383  0.1029
  761MOL0     C 4945   1.558   6.680   4.515 -0.3888  0.2112 -0.3927
  761MOL0     C 4946   0.814   7.017   4.502 -0.2245  0.5911  0.1692
  761MOL0     C 4947   0.708   7.067   4.585 -0.0302 -0.2990 -0.2044
  761MOL0     C 4948   0.683   7.218   4.592 -0.7301  0.1536  0.2629
  761MOL0     H 4949   0.164   6.949   4.598 -0.6343  0.0406 -0.2295
  761MOL0     H 4950  -0.049   6.973   4.676 -1.1443  1.1197  0.7590
  761MOL0     H 4951  -0.067   6.935   5.130  1.2664  1.7299 -0.8326
  761MOL0     H 4952  -0.139   6.826   5.009 -0.8253  0.8636 -1.5713
  761MOL0     H 4953  -0.283   7.063   5.134 -1.5469 -1.0758  2.6621
  761MOL0     H 4954  -0.357   6.938   5.037 -0.9396 -0.8690  1.9799
  761MOL0     H 4955  -0.286   6.772   5.222  0.6359  0.8756 -1.8849
  761MOL0     H 4956  -0.231   6.912   5.313  0.7545 -1.5261  0.2973
  761MOL0     H 4957  -0.465   7.018   5.266 -3.6511 -0.9829  1.1230
  761MOL0     H 4958  -0.518   6.866   5.217 -2.1452  1.1944  1.5949
  761MOL0     H 4959  -0.548   6.936   5.474 -0.0726 -1.2710  0.5359
  761MOL0     H 4960  -0.383   6.886   5.478 -2.3712  1.3070  2.6501
  761MOL0     H 4961  -0.607   6.717   5.360  2.3110  1.3584 -1.3426
  761MOL0     H 4962  -0.442   6.666   5.386  0.2065 -1.8917  1.1382
  761MOL0     H 4963  -0.604   6.583   5.582  0.2110 -0.4453 -2.9685
  761MOL0     H 4964  -0.610   6.749   5.642 -1.6298 -1.0950 -0.5790
  761MOL0     H 4965  -0.358   6.748   5.652  0.2143 -1.1575  1.3518
  761MOL0     H 4966  -0.458   6.660   5.765 -0.3268 -1.1604 -0.5855
  761MOL0     H 4967  -0.171   6.576   5.753 -2.4169 -0.5304  1.1219
  761MOL0     H 4968  -0.040   6.236   5.661 -3.8354 -2.2310  1.7847
  761MOL0     H 4969  -0.067   6.342   5.805  3.1334 -2.5227  0.2033
  761MOL0     H 4970   0.163   6.373   5.685 -0.7792  1.1441  0.7604
  761MOL0     H 4971   0.068   6.399   5.536 -2.0755  1.2493  0.1739
  761MOL0     H 4972  -0.011   6.625   5.613 -0.0325  1.4964  1.1126
  761MOL0     H 4973   0.051   6.584   5.775 -1.4109 -0.0158  0.2032
  761MOL0     H 4974   0.203   6.615   5.507 -1.8923  1.0909 -0.6335
  761MOL0     H 4975   0.188   6.743   5.632 -0.7122 -0.1690 -0.3141
  761MOL0     H 4976   0.389   6.746   5.472  0.4298 -0.3968 -0.2037
  761MOL0     H 4977   0.651   6.907   5.430 -0.6931 -0.5082 -0.2321
  761MOL0     H 4978   0.531   6.824   5.332 -0.4046  1.7304  1.0889
  761MOL0     H 4979   0.704   6.774   5.328 -0.4043 -0.0335 -1.3133
  761MOL0     H 4980   1.086   6.728   5.392 -1.6377  1.2904  1.5607
  761MOL0     H 4981   1.320   6.754   5.425 -1.9942  0.1429 -1.7133
  761MOL0     H 4982   1.599   6.737   5.525  2.9585 -4.5659  0.1179
  761MOL0     H 4983   1.476   6.787   5.653 -0.9084 -1.0792 -0.3230
  761MOL0     H 4984   1.707   6.792   5.731  0.8281 -0.7096 -0.6329
  761MOL0     H 4985   1.617   6.654   5.810  0.0103 -2.4301 -0.2556
  761MOL0     H 4986   1.822   6.655   5.594 -1.1537  0.7093 -1.3622
  761MOL0     H 4987   1.728   6.505   5.641  0.6781  0.2202 -0.2330
  761MOL0     H 4988   1.831   6.531   5.872  1.3434 -3.5649 -1.6046
  761MOL0     H 4989   1.893   6.680   5.828  3.4799 -0.7811 -1.4318
  761MOL0     H 4990   1.970   6.410   5.701 -2.3664  0.1244  2.0983
  761MOL0     H 4991   2.038   6.564   5.646 -1.2986 -0.4143 -0.8062
  761MOL0     H 4992   2.100   6.610   5.912  2.4813  0.0154  0.0466
  761MOL0     H 4993   2.196   6.504   5.812  0.6607  0.3179  1.9221
  761MOL0     H 4994   2.030   6.312   5.894 -4.0674  0.4282  0.3251
  761MOL0     H 4995   1.975   6.432   6.010  0.0770  1.5113 -0.4897
  761MOL0     H 4996   2.262   6.329   5.992  0.5147  3.2116 -0.0877
  761MOL0     H 4997   2.128   6.284   6.111 -0.3958  1.3308  3.5375
  761MOL0     H 4998   1.311   6.446   5.722 -0.5372 -2.0353 -0.9041
  761MOL0     H 4999   1.065   6.406   5.664  2.9354 -2.8422 -2.6832
  761MOL0     H 5000   0.735   6.516   5.733  1.6054  0.6546 -0.5290
  761MOL0     H 5001   0.524   6.489   5.810  1.7005 -1.9287 -1.5778
  761MOL0     H 5002   0.121   7.018   5.077  2.5719 -1.3258  0.4221
  761MOL0     H 5003   0.336   6.957   4.998  1.6350  0.6723 -1.0610
  761MOL0     H 5004   0.559   6.774   4.656 -0.2396  1.6610  1.8136
  761MOL0     H 5005   0.754   6.691   4.525  1.5348  0.2506 -0.3480
  761MOL0     H 5006   0.969   6.661   4.454 -2.5924  2.2435  1.9215
  761MOL0     H 5007   1.079   6.730   4.336  2.4930  0.4230  1.0102
  761MOL0     H 5008   1.032   6.818   4.625 -3.5303  1.3333 -1.9839
  761MOL0     H 5009   1.114   6.929   4.513  0.5506 -0.2208 -0.1574
  761MOL0     H 5010   1.286   6.793   4.650 -1.6434 -1.6094  2.4227
  761MOL0     H 5011   1.226   6.653   4.550 -1.3802 -0.2185  3.0347
  761MOL0     H 5012   1.334   6.911   4.439 -0.5859  0.9225 -1.9296
  761MOL0     H 5013   1.289   6.772   4.343  1.0642  0.4231  0.0137
  761MOL0     H 5014   1.646   6.637   4.558  0.5725  2.4843  0.0515
  761MOL0     H 5015   0.880   7.085   4.450 -0.2116 -0.4566 -1.2283
  761MOL0     H 5016   0.702   7.250   4.695  3.0395  0.4828 -0.3861
  761MOL0     H 5017   0.739   7.272   4.515  0.3016 -1.4343 -0.1301
  761MOL0     H 5018   0.576   7.239   4.581 -0.2022  2.8717 -0.3739
  762MOL0     O 5019   3.590   4.796   6.101 -0.2806  0.0069  0.4682
  762MOL0     C 5020   3.487   4.828   6.154 -0.5166  0.6933 -0.0503
  762MOL0     O 5021   3.475   4.902   6.265  0.5207  0.4626 -0.0089
  762MOL0     C 5022   3.589   4.962   6.303 -0.5266 -0.1024 -1.5537
  762MOL0     C 5023   3.680   4.892   6.394  0.0016 -0.3879 -0.2228
  762MOL0     C 5024   3.803   4.957   6.419 -0.2326  0.1564 -1.3119
  762MOL0     C 5025   3.830   5.079   6.366 -0.4586 -0.1021  0.7850
  762MOL0     O 5026   3.955   5.141   6.372 -0.1166  0.0990 -0.7272
  762MOL0     C 5027   4.034   5.118   6.488  0.2624 -0.6860 -0.5900
  762MOL0     C 5028   4.156   5.028   6.455  0.3828  0.5271  0.3801
  762MOL0     C 5029   4.246   5.089   6.345 -0.2114  0.4381  0.5292
  762MOL0     C 5030   4.335   5.206   6.392  0.2337 -0.3167 -0.5746
  762MOL0     C 5031   4.408   5.269   6.271  0.0101 -0.3591 -0.3819
  762MOL0     C 5032   4.481   5.392   6.302 -0.1769 -0.6706  0.1736
  762MOL0     C 5033   4.621   5.367   6.368 -0.0288  0.7922 -0.0570
  762MOL0     C 5034   4.684   5.504   6.398 -0.1277  0.5437  0.0622
  762MOL0     N 5035   4.821   5.506   6.438  0.3344 -0.3084 -0.0926
  762MOL0     C 5036   4.906   5.403   6.452  0.5065  1.0832  0.0485
  762MOL0     C 5037   5.027   5.459   6.472  0.5684  0.6156  0.0265
  762MOL0     C 5038   5.154   5.384   6.505 -0.2443  0.0486  0.0341
  762MOL0     C 5039   5.282   5.476   6.523 -0.2632  0.1835 -0.2943
  762MOL0     C 5040   5.283   5.571   6.645 -0.6663 -0.3092  0.3857
  762MOL0     C 5041   5.417   5.622   6.694 -1.1455 -0.3625  0.7820
  762MOL0     O 5042   5.528   5.531   6.695  0.1280 -0.6182  0.0243
  762MOL0     C 5043   5.647   5.589   6.714 -0.7676 -0.3879 -0.0430
  762MOL0     C 5044   5.684   5.663   6.830  0.4147 -0.6392 -0.2500
  762MOL0     C 5045   5.819   5.715   6.845 -0.1370  0.0759 -0.6435
  762MOL0     C 5046   5.853   5.785   6.981 -1.0640 -0.8509  1.1883
  762MOL0     C 5047   5.919   5.670   6.761  0.6929 -1.0748 -0.2653
  762MOL0     C 5048   6.066   5.683   6.785  1.0222  0.3039 -0.4020
  762MOL0     O 5049   6.111   5.737   6.906 -0.7153 -0.5509  0.5142
  762MOL0     C 5050   6.245   5.765   6.929  0.9020  0.1555 -0.1123
  762MOL0     C 5051   6.283   5.773   7.059 -0.1911  0.5554  0.0735
  762MOL0     C 5052   6.420   5.792   7.098 -0.7862  0.1530  0.4830
  762MOL0     C 5053   6.515   5.799   7.002  0.3974 -1.1944  0.4487
  762MOL0     O 5054   6.647   5.803   7.030 -0.0426  0.7746  0.6345
  762MOL0     C 5055   6.692   5.825   7.167 -0.1627 -0.7312  0.1572
  762MOL0     C 5056   6.843   5.825   7.184  0.0593 -0.6167  0.5736
  762MOL0     C 5057   6.912   5.907   7.078  0.1376 -0.0777 -0.5351
  762MOL0     C 5058   7.067   5.894   7.074  0.2588 -0.0645  0.4479
  762MOL0     C 5059   7.132   5.899   7.210 -0.4896  0.2126 -0.3099
  762MOL0     C 5060   7.283   5.871   7.199 -0.7089 -0.0381 -0.2535
  762MOL0     C 5061   7.333   5.825   7.340  0.3380  1.1638  0.1091
  762MOL0     C 5062   7.481   5.829   7.359  0.6991  0.6992 -0.1187
  762MOL0    Cl 5063   7.562   5.738   7.227  0.1832  0.0068  0.0314
  762MOL0     C 5064   6.471   5.816   6.868 -0.7522  0.4312 -0.7719
  762MOL0     C 5065   6.340   5.791   6.831  0.0765  0.6054 -0.8430
  762MOL0     O 5066   6.142   5.629   6.704  0.2277  0.2242 -0.0549
  762MOL0     C 5067   5.871   5.612   6.642 -0.1948 -0.3455 -0.7791
  762MOL0     C 5068   5.745   5.564   6.623  0.5485 -0.2388  0.6263
  762MOL0     N 5069   5.016   5.590   6.451 -0.2569  0.5642 -0.0770
  762MOL0     N 5070   4.897   5.617   6.416  0.0914 -0.3297  0.1151
  762MOL0     C 5071   3.732   5.159   6.307 -0.0574 -0.6189 -0.1568
  762MOL0     C 5072   3.620   5.099   6.265  0.7532  0.4841 -0.7750
  762MOL0     C 5073   3.362   4.770   6.095  0.2228  0.7560  0.2978
  762MOL0     C 5074   3.237   4.771   6.166 -0.2431 -0.4602 -0.3863
  762MOL0     C 5075   3.122   4.723   6.120  0.3915 -0.1651 -1.0779
  762MOL0     C 5076   3.109   4.667   5.993 -0.3547 -0.4306  0.0788
  762MOL0     O 5077   2.994   4.600   5.949  0.2566 -0.2088  0.4373
  762MOL0     C 5078   2.882   4.589   6.032 -0.2250 -0.2471  0.6874
  762MOL0     C 5079   2.765   4.534   5.962  0.1175  0.9071  0.5929
  762MOL0     C 5080   2.736   4.601   5.826  0.1717  0.5135 -0.1875
  762MOL0     C 5081   2.619   4.537   5.753  0.3253  0.0259 -0.3021
  762MOL0     C 5082   2.632   4.591   5.621 -0.1542 -1.5621 -0.1058
  762MOL0     C 5083   2.639   4.642   5.511 -0.0107  1.1189 -0.6171
  762MOL0     C 5084   3.225   4.663   5.916 -0.7477 -0.4633 -0.0225
  762MOL0     C 5085   3.355   4.705   5.967 -0.7072  0.4076 -0.6304
  762MOL0     C 5086   3.466   4.687   5.862 -0.3526 -0.8414 -0.2663
  762MOL0     H 5087   3.653   4.803   6.450  0.1269  2.0109  4.0346
  762MOL0     H 5088   3.867   4.900   6.486 -0.4360 -0.7762 -1.8943
  762MOL0     H 5089   3.973   5.072   6.566 -1.9139  3.0277  0.1765
  762MOL0     H 5090   4.069   5.215   6.527  0.0207 -0.3875 -1.1148
  762MOL0     H 5091   4.210   5.004   6.547 -0.9620 -3.1188  0.3691
  762MOL0     H 5092   4.127   4.931   6.414  0.4280  1.6514 -2.5710
  762MOL0     H 5093   4.314   5.011   6.311 -1.7396 -0.0659 -1.5681
  762MOL0     H 5094   4.190   5.118   6.255  0.2869 -0.6815 -0.1618
  762MOL0     H 5095   4.278   5.279   6.450 -0.5871  0.6983 -2.5515
  762MOL0     H 5096   4.411   5.173   6.463 -1.3396 -1.4264  0.6436
  762MOL0     H 5097   4.332   5.288   6.193 -0.6984  1.1211  0.6240
  762MOL0     H 5098   4.472   5.190   6.230 -0.6804 -2.1587  1.8360
  762MOL0     H 5099   4.487   5.456   6.214 -0.8167  0.6044  1.0291
  762MOL0     H 5100   4.415   5.454   6.364 -0.2589 -0.2191 -0.3616
  762MOL0     H 5101   4.695   5.307   6.315  0.5972 -0.9843  2.6221
  762MOL0     H 5102   4.610   5.311   6.461  0.0914 -0.0712 -0.5534
  762MOL0     H 5103   4.672   5.573   6.314  0.2258  2.5751  1.6238
  762MOL0     H 5104   4.627   5.552   6.478  1.7348 -0.6956  2.2382
  762MOL0     H 5105   4.879   5.298   6.463 -3.1599  1.5417 -2.6640
  762MOL0     H 5106   5.183   5.332   6.413 -2.3294  0.0735 -0.6798
  762MOL0     H 5107   5.143   5.304   6.579  2.1743 -0.5919 -0.1917
  762MOL0     H 5108   5.368   5.410   6.538 -1.1801 -0.7972  0.8583
  762MOL0     H 5109   5.298   5.536   6.433  0.8282 -0.0263 -0.2545
  762MOL0     H 5110   5.208   5.650   6.640 -1.7622 -0.9678  3.9361
  762MOL0     H 5111   5.240   5.518   6.731 -2.0521  1.2330  0.6837
  762MOL0     H 5112   5.439   5.718   6.646 -1.9184 -0.7040 -0.2837
  762MOL0     H 5113   5.406   5.655   6.797  0.1644  2.0112  0.2363
  762MOL0     H 5114   5.620   5.674   6.917  2.0514 -2.9828  1.3894
  762MOL0     H 5115   5.920   5.867   6.957 -1.8426 -0.7554 -0.8856
  762MOL0     H 5116   5.903   5.717   7.051 -1.4669 -0.7152  1.6125
  762MOL0     H 5117   5.759   5.832   7.012 -0.9718  1.5142 -1.7222
  762MOL0     H 5118   6.216   5.766   7.143  0.4485 -1.4027  0.4733
  762MOL0     H 5119   6.436   5.801   7.205 -0.4484  2.7157  0.2960
  762MOL0     H 5120   6.661   5.921   7.209 -1.5206 -0.7248 -0.8001
  762MOL0     H 5121   6.665   5.735   7.223  0.3309 -0.4301  0.8936
  762MOL0     H 5122   6.870   5.868   7.280 -1.2326 -2.6402  1.9327
  762MOL0     H 5123   6.880   5.722   7.182  2.5331  0.2311 -1.1468
  762MOL0     H 5124   6.884   6.012   7.088  0.7425  0.0856 -0.4987
  762MOL0     H 5125   6.879   5.877   6.979  3.3503 -0.4557 -1.6173
  762MOL0     H 5126   7.102   5.970   7.004  0.3706 -1.6879 -1.3324
  762MOL0     H 5127   7.093   5.798   7.029  1.5031  1.2666 -1.8274
  762MOL0     H 5128   7.119   5.995   7.261  0.4316  1.6617 -2.6530
  762MOL0     H 5129   7.081   5.820   7.267 -3.0760  1.5124 -0.6533
  762MOL0     H 5130   7.344   5.960   7.178  0.9643 -0.9179  0.6963
  762MOL0     H 5131   7.298   5.793   7.125 -1.5138 -1.0363  0.5961
  762MOL0     H 5132   7.308   5.719   7.349 -3.7578  2.0979  2.6233
  762MOL0     H 5133   7.298   5.882   7.426  1.5233  2.3468 -0.1479
  762MOL0     H 5134   7.505   5.786   7.457 -0.3795  0.8064  0.1994
  762MOL0     H 5135   7.522   5.930   7.346  1.9281  0.1330 -0.8577
  762MOL0     H 5136   6.552   5.845   6.802 -0.3878  2.2537  0.4080
  762MOL0     H 5137   6.307   5.792   6.727 -2.3663 -0.7181 -0.1815
  762MOL0     H 5138   5.940   5.578   6.566 -0.2051  1.3523 -1.5943
  762MOL0     H 5139   5.716   5.499   6.541 -0.6814  0.9514  0.0693
  762MOL0     H 5140   3.752   5.261   6.276 -0.6847  0.1759  1.8656
  762MOL0     H 5141   3.549   5.153   6.203  1.7468  0.3529 -2.0566
  762MOL0     H 5142   3.232   4.806   6.269 -0.4183 -1.2299 -0.1292
  762MOL0     H 5143   3.036   4.722   6.186  1.9810 -1.0630  1.0819
  762MOL0     H 5144   2.905   4.531   6.121 -0.9439  2.4100  2.7178
  762MOL0     H 5145   2.853   4.687   6.071 -0.3770 -0.5717  1.4018
  762MOL0     H 5146   2.678   4.546   6.027 -0.6081 -1.1773  0.0756
  762MOL0     H 5147   2.775   4.425   5.961  1.9052  1.0327 -0.4816
  762MOL0     H 5148   2.726   4.709   5.838 -0.3256  0.3638  0.8372
  762MOL0     H 5149   2.830   4.589   5.771  1.2595 -3.0157  2.1076
  762MOL0     H 5150   2.524   4.571   5.796  1.2090  1.6453  0.4502
  762MOL0     H 5151   2.633   4.429   5.746 -0.1428 -0.2981  2.5381
  762MOL0     H 5152   2.623   4.671   5.409 -1.3890 -1.6011 -1.2640
  762MOL0     H 5153   3.221   4.619   5.817  0.2339 -0.6423  0.0005
  762MOL0     H 5154   3.538   4.607   5.880 -0.1107 -1.2347 -2.6011
  762MOL0     H 5155   3.429   4.672   5.760 -0.4501 -0.2253 -0.3268
  762MOL0     H 5156   3.526   4.778   5.867 -0.1538 -0.9265 -0.9536
  763MOL0     O 5157   1.490   7.022   0.462 -1.0671  0.0793 -0.3166
  763MOL0     C 5158   1.509   7.011   0.585 -0.2694  0.2869  0.6299
  763MOL0     O 5159   1.415   6.952   0.671 -0.5447 -0.8617  0.7416
  763MOL0     C 5160   1.287   6.937   0.637  0.0315  0.3230  0.7663
  763MOL0     C 5161   1.215   7.052   0.598 -0.2180  0.4107 -0.0681
  763MOL0     C 5162   1.082   7.026   0.580 -0.5877 -0.0166 -0.7171
  763MOL0     C 5163   1.020   6.902   0.585  1.4729 -0.4425  0.3489
  763MOL0     O 5164   0.883   6.915   0.564 -0.3324  0.0260  0.0334
  763MOL0     C 5165   0.796   6.822   0.641  0.1954  0.2332  0.1465
  763MOL0     C 5166   0.656   6.879   0.660 -1.1555 -0.6078  0.0110
  763MOL0     C 5167   0.569   6.778   0.745  0.2552 -1.0918  0.1922
  763MOL0     C 5168   0.433   6.843   0.767  0.5719  1.2925 -1.3063
  763MOL0     C 5169   0.324   6.760   0.853 -0.7516  0.5210 -0.4833
  763MOL0     C 5170   0.382   6.715   0.983 -0.1652  0.8170  0.2540
  763MOL0     C 5171   0.278   6.652   1.078 -0.6167  0.2062  0.2195
  763MOL0     C 5172   0.326   6.589   1.208  0.1231 -0.6940  1.3029
  763MOL0     N 5173   0.403   6.460   1.199 -0.7796  0.0608  0.0698
  763MOL0     C 5174   0.357   6.331   1.230 -0.3806 -0.3556  0.0103
  763MOL0     C 5175   0.468   6.246   1.203  0.0436  0.8001 -0.9190
  763MOL0     C 5176   0.474   6.090   1.225  0.0200  0.4005  0.1500
  763MOL0     C 5177   0.611   6.049   1.296  0.7591  0.4777  0.1865
  763MOL0     C 5178   0.609   6.079   1.447  0.1774 -0.5316 -0.4731
  763MOL0     C 5179   0.670   6.215   1.477  0.2730 -0.1589  0.1216
  763MOL0     O 5180   0.786   6.205   1.558 -0.2133  0.0619 -0.9708
  763MOL0     C 5181   0.773   6.168   1.688 -0.7122 -0.4247  0.0241
  763MOL0     C 5182   0.661   6.134   1.762  0.0789 -0.2783 -0.1568
  763MOL0     C 5183   0.669   6.101   1.900  0.6989  0.7850  0.2424
  763MOL0     C 5184   0.542   6.062   1.964 -0.1723  0.3578  0.3950
  763MOL0     C 5185   0.798   6.111   1.965 -0.5192 -0.4895  0.0438
  763MOL0     C 5186   0.814   6.095   2.107 -0.7579 -0.0430 -1.2848
  763MOL0     O 5187   0.943   6.121   2.159 -0.0269  0.2619 -0.2334
  763MOL0     C 5188   0.971   6.126   2.295 -0.2357  0.1156 -0.1590
  763MOL0     C 5189   0.894   6.061   2.395 -0.3228 -0.2341  0.2584
  763MOL0     C 5190   0.931   6.060   2.532 -0.0909 -0.3031  0.0106
  763MOL0     C 5191   1.041   6.139   2.577  0.0736  0.7565 -0.4516
  763MOL0     O 5192   1.074   6.167   2.707 -0.0947 -0.2598  0.3684
  763MOL0     C 5193   0.975   6.144   2.808 -0.7473  0.5122 -0.1980
  763MOL0     C 5194   1.027   6.200   2.934 -0.6160  0.3273 -0.2144
  763MOL0     C 5195   0.925   6.207   3.050 -0.6914 -0.0937 -0.1314
  763MOL0     C 5196   0.981   6.281   3.159 -1.1151  0.2879  0.5453
  763MOL0     C 5197   0.903   6.255   3.293 -0.7128  0.5216  0.1407
  763MOL0     C 5198   0.953   6.329   3.421  0.3322  0.0247 -0.4787
  763MOL0     C 5199   1.090   6.295   3.477 -0.1393 -0.3242 -0.5916
  763MOL0     C 5200   1.093   6.348   3.623 -0.7713 -0.3400  0.3853
  763MOL0    Cl 5201   0.964   6.302   3.733  0.0004 -0.1693 -0.1008
  763MOL0     C 5202   1.120   6.197   2.478  0.1720  0.5480 -0.0723
  763MOL0     C 5203   1.094   6.189   2.342  0.7933  0.8603  0.5097
  763MOL0     O 5204   0.714   6.081   2.182  0.3621 -0.4291 -0.0948
  763MOL0     C 5205   0.908   6.151   1.883 -0.5136 -0.2237  0.1595
  763MOL0     C 5206   0.895   6.190   1.747  0.7487  0.9746 -1.1959
  763MOL0     N 5207   0.570   6.328   1.148 -0.4910 -1.4411 -0.2908
  763MOL0     N 5208   0.526   6.451   1.147 -0.3392 -0.0598 -1.0154
  763MOL0     C 5209   1.088   6.793   0.624  0.3488  0.5437 -1.3688
  763MOL0     C 5210   1.224   6.807   0.641 -0.0391  0.3394 -0.2825
  763MOL0     C 5211   1.645   7.048   0.625  0.0667 -0.2081 -0.8924
  763MOL0     C 5212   1.656   7.120   0.750 -0.2101 -0.5676 -0.4832
  763MOL0     C 5213   1.781   7.171   0.785 -0.0713 -0.7699  0.1161
  763MOL0     C 5214   1.893   7.153   0.713  0.7226 -0.3325  0.7734
  763MOL0     O 5215   2.008   7.193   0.766 -0.8670 -0.6998 -0.0057
  763MOL0     C 5216   2.118   7.102   0.775  0.6369 -0.0487 -0.3476
  763MOL0     C 5217   2.228   7.115   0.671  0.0136  0.7053 -0.1874
  763MOL0     C 5218   2.322   7.229   0.699 -0.2320  0.1845 -0.5698
  763MOL0     C 5219   2.401   7.220   0.834  0.3043 -0.0563 -0.2632
  763MOL0     C 5220   2.466   7.085   0.825  0.3497 -0.1131  0.3514
  763MOL0     C 5221   2.532   6.982   0.805 -0.2052  0.0744  0.2079
  763MOL0     C 5222   1.885   7.075   0.599 -0.2777  0.0657  0.8845
  763MOL0     C 5223   1.765   7.025   0.552  0.5289  0.5015 -0.8919
  763MOL0     C 5224   1.761   6.947   0.423 -0.0195 -0.0912  0.9196
  763MOL0     H 5225   1.264   7.148   0.598  0.8118 -0.0705  1.5497
  763MOL0     H 5226   1.012   7.108   0.568 -0.5856  0.0404 -0.3550
  763MOL0     H 5227   0.830   6.803   0.743 -0.6626 -1.4653  0.1567
  763MOL0     H 5228   0.790   6.723   0.594 -3.0303  0.7951 -0.8619
  763MOL0     H 5229   0.663   6.972   0.717  0.9629 -0.8177  0.1693
  763MOL0     H 5230   0.622   6.900   0.558  1.5480 -1.7955 -1.2295
  763MOL0     H 5231   0.546   6.689   0.686 -1.6468  0.7829 -2.0800
  763MOL0     H 5232   0.608   6.748   0.843 -0.5848 -2.6604  0.0617
  763MOL0     H 5233   0.450   6.928   0.833 -1.4595  1.4704 -0.9268
  763MOL0     H 5234   0.401   6.876   0.667  2.1604  0.8257 -1.9990
  763MOL0     H 5235   0.286   6.671   0.802  1.5412 -0.6888 -0.2116
  763MOL0     H 5236   0.242   6.828   0.878 -0.1313  0.8083  0.8561
  763MOL0     H 5237   0.460   6.640   0.968 -0.2040  1.0137 -1.0678
  763MOL0     H 5238   0.421   6.801   1.037 -1.3330  0.0907  2.3636
  763MOL0     H 5239   0.226   6.578   1.016  0.7471  1.8294 -3.1096
  763MOL0     H 5240   0.214   6.736   1.106  1.3860  2.0600 -0.4491
  763MOL0     H 5241   0.385   6.674   1.242  1.0186  0.1888 -2.0862
  763MOL0     H 5242   0.232   6.581   1.264 -1.3666  2.4746 -0.4880
  763MOL0     H 5243   0.254   6.307   1.257 -0.0514 -1.1599  0.5738
  763MOL0     H 5244   0.482   6.057   1.121  0.5578 -3.7924  1.3461
  763MOL0     H 5245   0.393   6.045   1.283  1.7762 -1.0459  1.6261
  763MOL0     H 5246   0.614   5.942   1.272  1.0573  0.4263  0.4350
  763MOL0     H 5247   0.698   6.092   1.247 -0.4056  1.4898 -1.0365
  763MOL0     H 5248   0.507   6.079   1.487  0.9887 -1.0590  1.7132
  763MOL0     H 5249   0.660   6.002   1.505 -0.2803 -1.6206 -1.4593
  763MOL0     H 5250   0.701   6.253   1.379 -0.0177 -0.2178  0.0050
  763MOL0     H 5251   0.599   6.289   1.517  1.4234  1.3361 -0.4768
  763MOL0     H 5252   0.567   6.130   1.708 -0.4513  0.2033  0.7090
  763MOL0     H 5253   0.523   5.960   1.999  0.2759  1.1255  3.1730
  763MOL0     H 5254   0.457   6.092   1.902  0.3962 -0.2773 -0.7234
  763MOL0     H 5255   0.526   6.124   2.053 -0.1755 -1.8630  2.0260
  763MOL0     H 5256   0.812   5.999   2.360  0.7897 -1.0777 -0.9500
  763MOL0     H 5257   0.851   6.013   2.590 -1.9763  0.6870 -1.6558
  763MOL0     H 5258   0.880   6.194   2.792  0.0840  2.3410  0.2820
  763MOL0     H 5259   0.963   6.037   2.831 -0.3370  0.0779 -1.8581
  763MOL0     H 5260   1.112   6.139   2.964 -1.1076 -1.1846 -1.7578
  763MOL0     H 5261   1.053   6.304   2.913  3.4827  0.4736  3.9729
  763MOL0     H 5262   0.900   6.102   3.072 -0.6803 -0.3364 -1.2277
  763MOL0     H 5263   0.841   6.270   3.018  0.4581  1.5780  0.0465
  763MOL0     H 5264   0.977   6.390   3.148  2.3756  0.4369 -0.7829
  763MOL0     H 5265   1.086   6.250   3.171 -0.5255  1.4814 -1.1389
  763MOL0     H 5266   0.799   6.287   3.278 -0.9203  0.0420  0.5480
  763MOL0     H 5267   0.905   6.147   3.308  2.6552 -0.1684 -3.6016
  763MOL0     H 5268   0.882   6.296   3.498  0.7821 -0.8942 -0.4409
  763MOL0     H 5269   0.963   6.436   3.400 -3.4977  1.5625  3.7569
  763MOL0     H 5270   1.168   6.339   3.414  0.1704 -1.3113 -0.9163
  763MOL0     H 5271   1.105   6.187   3.475  0.8423 -0.3068  1.8477
  763MOL0     H 5272   1.097   6.457   3.614 -1.4629 -0.4174 -0.9948
  763MOL0     H 5273   1.187   6.315   3.670 -0.3105  1.3902  0.7280
  763MOL0     H 5274   1.218   6.227   2.515 -0.8312  1.8111  1.7574
  763MOL0     H 5275   1.154   6.237   2.266 -1.0299 -0.5941 -2.0236
  763MOL0     H 5276   1.004   6.176   1.927 -1.3950  1.3916  1.2922
  763MOL0     H 5277   0.982   6.230   1.697  2.0081  2.8918  2.2410
  763MOL0     H 5278   1.049   6.696   0.653  2.6981 -0.5122 -1.5040
  763MOL0     H 5279   1.280   6.721   0.676  0.9510  1.1770  0.2570
  763MOL0     H 5280   1.566   7.147   0.804 -0.5946 -2.0938 -0.3225
  763MOL0     H 5281   1.779   7.223   0.880 -1.7254 -0.0007 -0.3079
  763MOL0     H 5282   2.165   7.119   0.872  1.3362 -0.2269 -0.6477
  763MOL0     H 5283   2.081   6.999   0.779 -1.5630  0.7261  2.6448
  763MOL0     H 5284   2.171   7.130   0.578 -0.4016 -0.6938 -0.1743
  763MOL0     H 5285   2.284   7.021   0.672  0.3868  0.9263 -0.2334
  763MOL0     H 5286   2.398   7.235   0.620  0.4114 -3.7317 -0.4422
  763MOL0     H 5287   2.271   7.326   0.701 -0.0515  0.2705  0.1007
  763MOL0     H 5288   2.341   7.216   0.925 -2.4184 -1.5229 -1.9621
  763MOL0     H 5289   2.476   7.299   0.844  0.3487 -0.0281 -0.7764
  763MOL0     H 5290   2.568   6.885   0.774  4.4079  2.7632 -4.5522
  763MOL0     H 5291   1.977   7.042   0.553 -1.7139 -3.3829  0.1120
  763MOL0     H 5292   1.728   7.015   0.344  3.5235  0.5029 -0.2563
  763MOL0     H 5293   1.860   6.917   0.389 -0.4762  0.5080 -1.0355
  763MOL0     H 5294   1.702   6.855   0.426 -0.6790  0.2822 -0.1950
  764MOL0     O 5295  10.252   6.783   0.499 -0.1508 -0.8349  0.4552
  764MOL0     C 5296  10.241   6.688   0.428 -0.1348 -0.5752  0.7438
  764MOL0     O 5297  10.330   6.582   0.431 -0.1967 -0.5625 -0.2233
  764MOL0     C 5298  10.447   6.574   0.502 -0.0009 -0.3482  0.6336
  764MOL0     C 5299  10.484   6.654   0.616 -0.5052  0.4149  0.4491
  764MOL0     C 5300  10.598   6.635   0.690 -0.7861  0.4366 -0.1970
  764MOL0     C 5301  10.691   6.538   0.640 -0.2187  0.4035  0.0092
  764MOL0     O 5302  10.813   6.511   0.691 -0.2292  0.0002 -0.1572
  764MOL0     C 5303  10.886   6.608   0.772  0.3671 -0.2024  0.3562
  764MOL0     C 5304  11.032   6.575   0.772  0.1904  0.4220  1.1355
  764MOL0     C 5305  11.063   6.427   0.757  0.2833  0.1357  0.1964
  764MOL0     C 5306  11.206   6.395   0.811 -0.6806  0.2219 -0.4407
  764MOL0     C 5307  11.253   6.252   0.794  0.4600  0.3177 -0.0302
  764MOL0     C 5308  11.380   6.212   0.873  0.8564  0.6245  0.1141
  764MOL0     C 5309  11.499   6.259   0.790  0.5143 -0.4107  0.6271
  764MOL0     C 5310  11.609   6.316   0.878  0.2552  1.1876  0.2530
  764MOL0     N 5311  11.730   6.359   0.800 -0.2068  0.9057  0.7191
  764MOL0     C 5312  11.854   6.308   0.826  0.1474 -0.9140  0.3992
  764MOL0     C 5313  11.934   6.343   0.719 -0.7051 -0.0557  0.2661
  764MOL0     C 5314  12.079   6.301   0.713  0.2190  0.1537  0.1177
  764MOL0     C 5315  12.167   6.387   0.817 -0.0849 -0.8267  0.9195
  764MOL0     C 5316  12.317   6.367   0.789  0.6291  0.5580  0.2001
  764MOL0     C 5317  12.404   6.438   0.894  1.1097 -0.7163  0.5169
  764MOL0     O 5318  12.346   6.405   1.021  0.0476 -0.1119  0.5661
  764MOL0     C 5319  12.418   6.418   1.134  0.0086  0.0421  0.0309
  764MOL0     C 5320  12.531   6.507   1.142 -0.2119 -0.2354 -0.8033
  764MOL0     C 5321  12.593   6.526   1.272 -0.3610  1.0146 -0.2739
  764MOL0     C 5322  12.686   6.636   1.275 -0.3133  0.1966 -0.5861
  764MOL0     C 5323  12.549   6.449   1.386 -0.0859  0.1864  0.6859
  764MOL0     C 5324  12.601   6.476   1.523  0.2438 -0.2642  0.2631
  764MOL0     O 5325  12.538   6.409   1.620  0.0209 -0.2302 -0.1349
  764MOL0     C 5326  12.594   6.419   1.744  0.1828 -0.2657 -0.5157
  764MOL0     C 5327  12.527   6.496   1.836  0.7791  0.1002 -0.8194
  764MOL0     C 5328  12.579   6.511   1.972 -0.4242  0.3139 -0.0159
  764MOL0     C 5329  12.705   6.443   2.004  0.1387 -0.3810 -0.4257
  764MOL0     O 5330  12.775   6.443   2.119 -0.8812 -0.4412  0.4185
  764MOL0     C 5331  12.721   6.525   2.220  0.2725 -0.4727 -0.6535
  764MOL0     C 5332  12.813   6.528   2.340 -0.4822  0.1946 -0.3429
  764MOL0     C 5333  12.760   6.601   2.461  0.5702 -0.9364  0.4910
  764MOL0     C 5334  12.859   6.608   2.573 -0.2164  0.4048 -0.2222
  764MOL0     C 5335  12.810   6.696   2.684 -0.5656 -0.4266 -0.3693
  764MOL0     C 5336  12.897   6.692   2.809  0.1157  0.1566 -0.4487
  764MOL0     C 5337  12.849   6.779   2.921 -0.1998 -1.1228 -0.0058
  764MOL0     C 5338  12.946   6.796   3.042 -0.1698 -0.4599  0.2155
  764MOL0    Cl 5339  12.982   6.642   3.124 -0.7550  1.0795  0.2174
  764MOL0     C 5340  12.762   6.365   1.912  0.2935 -0.3539  0.6331
  764MOL0     C 5341  12.709   6.355   1.784 -0.8391  0.9462  0.2375
  764MOL0     O 5342  12.707   6.530   1.539 -0.3760  0.6616  0.0063
  764MOL0     C 5343  12.437   6.359   1.370 -0.2424  1.0448 -0.0930
  764MOL0     C 5344  12.374   6.350   1.247  0.0401 -0.5061 -0.3861
  764MOL0     N 5345  11.859   6.413   0.623  0.0207  0.4355 -0.3796
  764MOL0     N 5346  11.734   6.423   0.676  0.2727 -0.4212  0.6719
  764MOL0     C 5347  10.668   6.458   0.526  0.3233  0.0094 -0.7030
  764MOL0     C 5348  10.537   6.469   0.473  0.0330 -0.0128  0.0446
  764MOL0     C 5349  10.126   6.670   0.329 -0.1509 -0.5526  0.0592
  764MOL0     C 5350  10.148   6.562   0.237 -0.2501  0.5474 -0.2458
  764MOL0     C 5351  10.062   6.544   0.134  0.9595 -0.6852  0.4767
  764MOL0     C 5352   9.951   6.625   0.111  0.2513  1.0265 -0.2844
  764MOL0     O 5353   9.849   6.621   0.017 -0.2106  0.2078 -0.2418
  764MOL0     C 5354   9.836   6.509  -0.070 -0.6057 -1.1911  0.0546
  764MOL0     C 5355   9.727   6.538  -0.172 -1.1238  0.0167  0.0769
  764MOL0     C 5356   9.707   6.440  -0.286 -0.0135  0.7884  0.0493
  764MOL0     C 5357   9.671   6.295  -0.240  0.0169  0.3812  0.8819
  764MOL0     C 5358   9.542   6.296  -0.174  0.4955 -1.2965  0.5187
  764MOL0     C 5359   9.425   6.306  -0.138 -0.1021 -0.3012 -0.4541
  764MOL0     C 5360   9.933   6.737   0.200 -0.1811  0.1734 -0.1737
  764MOL0     C 5361  10.019   6.761   0.303 -0.5412 -0.7008 -0.6820
  764MOL0     C 5362  10.018   6.896   0.378  0.6755  0.2543 -0.6503
  764MOL0     H 5363  10.416   6.721   0.667 -0.0786 -1.5234  3.9309
  764MOL0     H 5364  10.636   6.699   0.769  2.7733 -1.9736  0.2714
  764MOL0     H 5365  10.843   6.605   0.872 -0.0233  2.8833  0.3884
  764MOL0     H 5366  10.869   6.711   0.739 -4.0721 -0.8867 -0.0346
  764MOL0     H 5367  11.091   6.622   0.693 -3.0742 -1.4340 -2.8035
  764MOL0     H 5368  11.068   6.612   0.868 -1.2863  1.2167  1.4001
  764MOL0     H 5369  10.988   6.374   0.818 -1.1385  2.0463  0.1996
  764MOL0     H 5370  11.062   6.394   0.653 -1.8003 -1.1318  0.5634
  764MOL0     H 5371  11.276   6.457   0.754  0.0998  1.6838  1.9392
  764MOL0     H 5372  11.208   6.423   0.917  1.2286  0.0099 -0.3781
  764MOL0     H 5373  11.246   6.227   0.688 -0.0277  2.2626 -0.4962
  764MOL0     H 5374  11.173   6.198   0.846  0.5526 -0.2485 -0.4592
  764MOL0     H 5375  11.365   6.266   0.966  0.2134  0.6176  0.0147
  764MOL0     H 5376  11.387   6.104   0.890  1.5538  0.1432 -2.6824
  764MOL0     H 5377  11.476   6.339   0.718  0.0099  1.6203  2.8906
  764MOL0     H 5378  11.535   6.178   0.726  2.2005  1.0418 -0.3647
  764MOL0     H 5379  11.576   6.405   0.932  2.3081  2.5292 -0.5885
  764MOL0     H 5380  11.639   6.243   0.953  2.0939 -0.8203 -2.2460
  764MOL0     H 5381  11.887   6.258   0.917  0.6337  0.4475  0.9882
  764MOL0     H 5382  12.123   6.303   0.613 -0.0230 -1.1336 -0.0292
  764MOL0     H 5383  12.092   6.195   0.738  2.2498  0.0799 -1.0728
  764MOL0     H 5384  12.146   6.494   0.821 -1.8100 -1.1528  2.3739
  764MOL0     H 5385  12.144   6.349   0.917  0.3510 -0.5264  1.1354
  764MOL0     H 5386  12.332   6.259   0.800  2.1855  0.7925  0.6906
  764MOL0     H 5387  12.343   6.394   0.686 -0.8569  0.8977 -0.1023
  764MOL0     H 5388  12.507   6.402   0.889  1.4855  0.1948  1.3114
  764MOL0     H 5389  12.398   6.544   0.866  0.1535 -1.0549 -0.6747
  764MOL0     H 5390  12.561   6.561   1.053 -1.2368 -0.2451 -1.1769
  764MOL0     H 5391  12.772   6.599   1.331 -0.7464 -0.7778 -0.5557
  764MOL0     H 5392  12.639   6.720   1.326 -3.0150 -1.3506 -0.3661
  764MOL0     H 5393  12.726   6.661   1.176  1.5723 -1.5716 -0.3560
  764MOL0     H 5394  12.434   6.535   1.795 -0.4211  1.8788  3.0979
  764MOL0     H 5395  12.528   6.571   2.046  0.0628  0.6665  0.0349
  764MOL0     H 5396  12.716   6.627   2.181  2.4483  0.3006  0.9031
  764MOL0     H 5397  12.624   6.484   2.250  0.6117  0.7383  2.4982
  764MOL0     H 5398  12.833   6.428   2.379  0.8429  0.7571  0.4897
  764MOL0     H 5399  12.912   6.570   2.316 -0.7884  1.3971  0.4269
  764MOL0     H 5400  12.672   6.540   2.484 -1.3075  0.6319 -2.0272
  764MOL0     H 5401  12.723   6.695   2.418  0.2765 -2.0283 -1.8010
  764MOL0     H 5402  12.951   6.647   2.527 -0.0225  2.9018  2.0071
  764MOL0     H 5403  12.865   6.503   2.602  0.2321 -0.1767 -2.2719
  764MOL0     H 5404  12.808   6.800   2.649  0.2774 -0.6325 -1.0542
  764MOL0     H 5405  12.709   6.661   2.710  0.0176 -1.0728  1.1866
  764MOL0     H 5406  12.995   6.733   2.781 -0.1841 -0.3568 -2.3757
  764MOL0     H 5407  12.901   6.587   2.836 -1.9856  0.0757 -0.3159
  764MOL0     H 5408  12.755   6.737   2.957 -0.8646 -0.5373 -1.0121
  764MOL0     H 5409  12.839   6.879   2.877  1.2208 -1.4397 -1.1308
  764MOL0     H 5410  12.889   6.862   3.109 -1.1538  0.1667 -1.1845
  764MOL0     H 5411  13.043   6.840   3.015 -0.0253 -1.0363 -0.2176
  764MOL0     H 5412  12.856   6.311   1.927  0.7861  0.6089  1.0659
  764MOL0     H 5413  12.761   6.288   1.717  0.5878  0.6942  1.5366
  764MOL0     H 5414  12.399   6.322   1.465  0.6470  1.0610  0.2849
  764MOL0     H 5415  12.280   6.295   1.250 -1.0890  1.2996  3.3160
  764MOL0     H 5416  10.736   6.384   0.485  0.3684  0.1865 -0.9523
  764MOL0     H 5417  10.508   6.402   0.392  1.3872  0.6425 -1.0138
  764MOL0     H 5418  10.233   6.495   0.232 -1.9920 -2.0960  2.2137
  764MOL0     H 5419  10.067   6.458   0.067 -0.5984 -1.5998  1.4877
  764MOL0     H 5420   9.935   6.484  -0.109  0.1109 -2.3532  2.4467
  764MOL0     H 5421   9.796   6.431  -0.004 -3.7646  1.0290  0.9791
  764MOL0     H 5422   9.746   6.635  -0.219 -0.5526 -0.7263 -1.2731
  764MOL0     H 5423   9.635   6.550  -0.113 -3.4308 -0.1607 -3.1870
  764MOL0     H 5424   9.631   6.476  -0.355 -1.9594 -0.5570  1.3812
  764MOL0     H 5425   9.805   6.444  -0.334 -0.8688  1.3510 -1.7564
  764MOL0     H 5426   9.741   6.269  -0.159  1.4664  0.4211 -0.3068
  764MOL0     H 5427   9.688   6.234  -0.329  2.2435  2.3274 -0.1435
  764MOL0     H 5428   9.328   6.324  -0.096  0.6399  2.3224  0.3024
  764MOL0     H 5429   9.854   6.807   0.175  0.6115  1.4021  0.7036
  764MOL0     H 5430   9.946   6.965   0.334  0.1505 -1.6250 -2.9717
  764MOL0     H 5431   9.985   6.874   0.480  1.1796  0.7548 -0.3731
  764MOL0     H 5432  10.112   6.950   0.391 -0.2856  1.9046 -0.3570
  765MOL0     O 5433   4.414   5.395   1.544 -0.5180  0.0905 -0.5807
  765MOL0     C 5434   4.379   5.314   1.632  0.5877 -0.9798 -0.8304
  765MOL0     O 5435   4.455   5.253   1.715  0.5685 -0.5670 -0.0954
  765MOL0     C 5436   4.593   5.260   1.702 -0.3848  0.9566 -0.4041
  765MOL0     C 5437   4.650   5.151   1.643  1.0966  0.9919 -0.6305
  765MOL0     C 5438   4.788   5.150   1.607  0.0569 -0.0916 -0.1831
  765MOL0     C 5439   4.866   5.251   1.659 -0.7444  0.0835  1.2169
  765MOL0     O 5440   5.000   5.255   1.635 -0.3097  0.3917  0.1528
  765MOL0     C 5441   5.057   5.357   1.549 -0.1987  0.3505 -0.0071
  765MOL0     C 5442   5.199   5.328   1.511  0.2337  0.2929  0.6068
  765MOL0     C 5443   5.294   5.282   1.618 -0.1697  0.1574 -0.3315
  765MOL0     C 5444   5.427   5.249   1.557  0.4457  0.1414  0.2267
  765MOL0     C 5445   5.539   5.234   1.664 -0.4098  0.5057 -0.8744
  765MOL0     C 5446   5.561   5.081   1.686 -0.1031 -0.0503 -0.2702
  765MOL0     C 5447   5.689   5.067   1.773  0.0978  0.6666  0.9149
  765MOL0     C 5448   5.739   4.928   1.781 -0.8340  0.3587  0.6871
  765MOL0     N 5449   5.867   4.918   1.863 -0.2589  0.0782  0.1678
  765MOL0     C 5450   5.893   4.832   1.966  0.1173  0.0341 -1.1714
  765MOL0     C 5451   6.027   4.818   1.971 -0.3307 -0.0926 -0.5705
  765MOL0     C 5452   6.092   4.744   2.079  0.1723  0.2643 -0.8809
  765MOL0     C 5453   6.236   4.705   2.050 -0.7103  0.5400  0.1632
  765MOL0     C 5454   6.350   4.775   2.131 -0.3883 -0.0421  0.1907
  765MOL0     C 5455   6.378   4.911   2.060  0.0899 -0.1923  0.0422
  765MOL0     O 5456   6.500   4.964   2.110  0.2796  0.4258 -0.7077
  765MOL0     C 5457   6.617   4.928   2.042 -0.8767 -0.3716  0.4389
  765MOL0     C 5458   6.637   4.836   1.935 -0.4381 -0.3348  0.4225
  765MOL0     C 5459   6.769   4.816   1.881 -0.7270  0.1439  0.8583
  765MOL0     C 5460   6.778   4.737   1.753  0.7914  0.4871  2.0357
  765MOL0     C 5461   6.874   4.883   1.938 -0.1122 -0.0926 -0.7244
  765MOL0     C 5462   7.017   4.863   1.906  0.7531  0.0894  0.4263
  765MOL0     O 5463   7.108   4.961   1.915 -0.5160  0.0331 -0.2705
  765MOL0     C 5464   7.246   4.926   1.903  0.5013  0.3235  0.2144
  765MOL0     C 5465   7.313   4.976   1.797 -0.2352  0.0781  0.3779
  765MOL0     C 5466   7.448   4.954   1.783 -0.6355 -0.4902  0.6225
  765MOL0     C 5467   7.524   4.891   1.881 -0.2565  0.2035 -0.6213
  765MOL0     O 5468   7.658   4.883   1.865 -0.4367  0.2624 -0.3657
  765MOL0     C 5469   7.733   4.833   1.981 -0.7253 -0.2004 -0.2847
  765MOL0     C 5470   7.870   4.792   1.921  0.2075 -0.1144  1.1599
  765MOL0     C 5471   7.946   4.912   1.855 -0.5149 -0.3572  0.8401
  765MOL0     C 5472   8.078   4.854   1.783  0.0215  0.0154 -0.2832
  765MOL0     C 5473   8.154   4.982   1.750  0.5887  0.1211  0.3322
  765MOL0     C 5474   8.273   4.938   1.677  0.1154  0.1866 -0.2501
  765MOL0     C 5475   8.372   5.050   1.635 -0.4170  0.2409 -0.4156
  765MOL0     C 5476   8.486   4.994   1.531  1.5970 -0.5817 -0.9445
  765MOL0    Cl 5477   8.424   4.900   1.389  0.2072  0.5086 -0.1546
  765MOL0     C 5478   7.449   4.840   1.994  0.3595 -0.4585  0.3620
  765MOL0     C 5479   7.306   4.852   1.998  0.1832 -0.3132  0.1354
  765MOL0     O 5480   7.047   4.743   1.890  0.1571 -0.6164 -0.2164
  765MOL0     C 5481   6.853   4.961   2.046  0.2422  0.1022  0.6368
  765MOL0     C 5482   6.728   4.990   2.095  0.7563  0.2063 -0.4748
  765MOL0     N 5483   6.089   4.892   1.874 -0.2291 -0.0345 -0.0229
  765MOL0     N 5484   5.990   4.956   1.815  0.5308  0.1442  0.6427
  765MOL0     C 5485   4.808   5.361   1.727 -0.2268  0.9905 -0.6180
  765MOL0     C 5486   4.672   5.366   1.758  0.1070  0.7654  1.2169
  765MOL0     C 5487   4.231   5.288   1.647 -0.1171  0.9012 -0.2397
  765MOL0     C 5488   4.153   5.400   1.664 -0.4876 -0.2043 -0.7578
  765MOL0     C 5489   4.017   5.396   1.690 -0.5398  0.1756  0.3126
  765MOL0     C 5490   3.946   5.271   1.688 -0.0536 -0.6815  0.8555
  765MOL0     O 5491   3.808   5.250   1.708 -0.5006  0.0739  0.6904
  765MOL0     C 5492   3.721   5.354   1.719 -0.3409  0.7099 -0.4452
  765MOL0     C 5493   3.590   5.306   1.784  0.3137 -0.2481  0.8684
  765MOL0     C 5494   3.504   5.422   1.828  0.4383  0.5270  0.0862
  765MOL0     C 5495   3.379   5.374   1.901 -0.2226 -0.0615 -0.1961
  765MOL0     C 5496   3.293   5.493   1.925 -0.1493  0.8147 -0.3755
  765MOL0     C 5497   3.221   5.598   1.924 -0.1546  0.8394 -0.2343
  765MOL0     C 5498   4.028   5.157   1.655 -0.2593 -0.4433 -0.4366
  765MOL0     C 5499   4.165   5.163   1.638 -1.1260 -1.3226 -0.0823
  765MOL0     C 5500   4.243   5.034   1.620 -0.1363 -0.1014 -0.4294
  765MOL0     H 5501   4.590   5.066   1.610  3.4750 -1.2685  0.4363
  765MOL0     H 5502   4.816   5.062   1.549  0.2701 -0.0611 -0.1281
  765MOL0     H 5503   5.059   5.452   1.603 -2.4969  1.8836 -2.3530
  765MOL0     H 5504   5.001   5.379   1.458  0.0089  3.0472  0.4373
  765MOL0     H 5505   5.189   5.256   1.429 -3.4562 -1.0505  2.0053
  765MOL0     H 5506   5.243   5.420   1.472 -0.9874 -0.2482 -2.3452
  765MOL0     H 5507   5.303   5.364   1.691 -1.8083 -0.7552  0.9620
  765MOL0     H 5508   5.256   5.193   1.669  1.1319  0.2663  0.9230
  765MOL0     H 5509   5.409   5.161   1.496  0.4521 -0.1325  0.6122
  765MOL0     H 5510   5.463   5.327   1.489 -0.6949  0.3702 -0.1257
  765MOL0     H 5511   5.515   5.284   1.759  0.7336 -0.7202  0.0966
  765MOL0     H 5512   5.623   5.287   1.618  1.2372 -1.7728 -0.6585
  765MOL0     H 5513   5.476   5.036   1.738  0.2228 -1.9266 -1.2594
  765MOL0     H 5514   5.568   5.036   1.587 -0.1800 -1.4302  0.3313
  765MOL0     H 5515   5.661   5.090   1.876  1.1853  1.4557  1.0485
  765MOL0     H 5516   5.774   5.125   1.736  0.6000 -1.2201 -1.1437
  765MOL0     H 5517   5.656   4.875   1.827 -0.8175 -0.6923 -0.4430
  765MOL0     H 5518   5.746   4.880   1.683 -2.3054 -2.0702  1.7126
  765MOL0     H 5519   5.821   4.783   2.031 -0.0678  0.0484 -1.3646
  765MOL0     H 5520   6.044   4.646   2.093 -1.0371  0.9562  0.0100
  765MOL0     H 5521   6.086   4.804   2.170 -0.6347 -0.3081 -0.5364
  765MOL0     H 5522   6.243   4.605   2.093 -1.1097  0.7277  0.6823
  765MOL0     H 5523   6.251   4.684   1.944 -3.5461  0.3270 -0.2806
  765MOL0     H 5524   6.323   4.804   2.233  0.5802 -1.8090  1.0145
  765MOL0     H 5525   6.441   4.713   2.130 -1.1044 -1.1198  0.3717
  765MOL0     H 5526   6.371   4.900   1.951 -2.2500 -2.1076  0.3133
  765MOL0     H 5527   6.296   4.978   2.085  0.5539  1.5569 -2.6737
  765MOL0     H 5528   6.554   4.789   1.884  1.5497 -1.4830 -1.9792
  765MOL0     H 5529   6.847   4.652   1.764 -0.0907 -0.6268 -0.3664
  765MOL0     H 5530   6.796   4.783   1.655  1.6979 -1.4962  1.2157
  765MOL0     H 5531   6.685   4.682   1.739  1.8613 -1.5685  2.5888
  765MOL0     H 5532   7.273   5.043   1.721  1.2171  0.9418  0.3229
  765MOL0     H 5533   7.498   4.981   1.691  2.7294  0.7780  2.6640
  765MOL0     H 5534   7.748   4.903   2.064 -0.4672 -0.5726 -0.0168
  765MOL0     H 5535   7.682   4.749   2.029 -0.3251  0.7361  1.8987
  765MOL0     H 5536   7.929   4.745   2.000  0.9698 -1.2087 -0.0088
  765MOL0     H 5537   7.851   4.713   1.848  2.4836 -0.5831  0.9961
  765MOL0     H 5538   7.969   4.986   1.933  1.8060  0.9580 -0.9897
  765MOL0     H 5539   7.885   4.968   1.783 -1.2590 -2.6737 -0.4394
  765MOL0     H 5540   8.050   4.788   1.700  2.0797 -1.0243 -0.2122
  765MOL0     H 5541   8.127   4.783   1.850  1.4678  0.4751 -0.8137
  765MOL0     H 5542   8.093   5.046   1.686 -0.7126 -0.3359  1.0778
  765MOL0     H 5543   8.163   5.037   1.844  0.2077  1.3959 -0.3589
  765MOL0     H 5544   8.242   4.883   1.588  1.3311 -0.6791 -0.1682
  765MOL0     H 5545   8.330   4.865   1.735  0.8783  1.3955  0.5650
  765MOL0     H 5546   8.431   5.082   1.722 -3.0492 -0.3822  1.7562
  765MOL0     H 5547   8.328   5.139   1.589 -0.9539  0.9604  1.3719
  765MOL0     H 5548   8.567   4.939   1.580  2.1857 -0.0524 -1.3000
  765MOL0     H 5549   8.531   5.089   1.499  2.5112 -0.6335  0.1396
  765MOL0     H 5550   7.483   4.774   2.074 -1.3687  0.4969  1.9432
  765MOL0     H 5551   7.252   4.826   2.089  0.8071 -1.6263  0.1411
  765MOL0     H 5552   6.940   5.006   2.092  1.0784 -0.4908 -0.3303
  765MOL0     H 5553   6.698   5.046   2.182  1.9109 -1.4945  1.0798
  765MOL0     H 5554   4.880   5.430   1.768 -0.2676  1.8025 -1.8538
  765MOL0     H 5555   4.619   5.440   1.817 -3.1012  0.2880 -0.8543
  765MOL0     H 5556   4.207   5.491   1.684  2.8020 -2.1135 -0.2973
  765MOL0     H 5557   3.969   5.490   1.715 -3.8461  0.0897 -4.4282
  765MOL0     H 5558   3.768   5.432   1.779  0.1233  0.2895 -0.2546
  765MOL0     H 5559   3.700   5.403   1.623 -2.2198 -0.1612 -0.5375
  765MOL0     H 5560   3.627   5.249   1.870  1.4371 -0.7483  0.0799
  765MOL0     H 5561   3.544   5.232   1.718  1.0312 -0.3295  0.4535
  765MOL0     H 5562   3.549   5.488   1.903 -1.6557  0.6748  1.3229
  765MOL0     H 5563   3.477   5.475   1.736 -1.2328 -1.1930 -0.4778
  765MOL0     H 5564   3.396   5.352   2.007  0.5552  2.2559  0.2269
  765MOL0     H 5565   3.328   5.302   1.837 -2.8945  2.6084 -1.2954
  765MOL0     H 5566   3.161   5.685   1.909  1.3511  1.5803 -2.4552
  765MOL0     H 5567   3.987   5.057   1.654  1.0436 -0.9907 -1.3139
  765MOL0     H 5568   4.193   4.956   1.679 -2.6259  0.5448 -1.5293
  765MOL0     H 5569   4.258   4.992   1.520  0.1325 -0.4005 -0.2661
  765MOL0     H 5570   4.345   5.046   1.658 -1.3833 -0.0762  3.3169
  766MOL0     O 5571   9.099   5.019   7.970  0.1471 -0.5631  0.0295
  766MOL0     C 5572   9.096   4.894   7.968  0.2410  0.6201 -0.2936
  766MOL0     O 5573   9.167   4.819   8.056 -0.5660 -0.7343 -0.3307
  766MOL0     C 5574   9.251   4.884   8.143 -0.7395  0.4187  0.1678
  766MOL0     C 5575   9.214   4.972   8.243 -0.0335  0.7121 -0.1260
  766MOL0     C 5576   9.308   5.014   8.341  0.1621 -0.3008 -0.3883
  766MOL0     C 5577   9.437   4.963   8.348 -0.0965  0.3920  0.1259
  766MOL0     O 5578   9.538   4.987   8.439  0.1055 -0.1525  0.8966
  766MOL0     C 5579   9.512   5.039   8.567 -0.5174 -1.0030 -0.7668
  766MOL0     C 5580   9.448   4.934   8.668 -0.0831 -0.5706 -0.2540
  766MOL0     C 5581   9.553   4.817   8.694  0.3451  0.9167 -0.1396
  766MOL0     C 5582   9.493   4.724   8.807 -1.1921 -0.4770 -0.3424
  766MOL0     C 5583   9.588   4.620   8.876  1.0813  0.1901  0.1157
  766MOL0     C 5584   9.690   4.693   8.954  0.2318  0.2797  0.0709
  766MOL0     C 5585   9.750   4.575   9.046 -1.1991 -0.0920  0.1456
  766MOL0     C 5586   9.877   4.598   9.117  1.1527 -0.5589 -0.5361
  766MOL0     N 5587   9.982   4.622   9.016  0.6035  0.0722 -0.1858
  766MOL0     C 5588  10.098   4.671   9.058 -0.4057 -0.4878  0.7321
  766MOL0     C 5589  10.180   4.669   8.949 -0.0259  0.5958 -0.6048
  766MOL0     C 5590  10.319   4.718   8.938  0.6732  0.2304  0.2032
  766MOL0     C 5591  10.416   4.667   9.046  0.2119 -0.7136  0.9052
  766MOL0     C 5592  10.433   4.515   9.015 -0.2111 -0.2954 -0.0296
  766MOL0     C 5593  10.509   4.453   9.140 -0.1612  0.6604  0.2001
  766MOL0     O 5594  10.653   4.487   9.137 -0.0246  0.3767  0.0516
  766MOL0     C 5595  10.739   4.416   9.051 -0.3077 -0.4878 -0.0511
  766MOL0     C 5596  10.872   4.444   9.063 -0.8787  0.5697  0.2257
  766MOL0     C 5597  10.968   4.395   8.968  0.2520 -1.1283 -1.0913
  766MOL0     C 5598  11.109   4.423   8.977  0.6082 -0.3280 -0.4116
  766MOL0     C 5599  10.920   4.307   8.865 -0.3488  0.8505 -0.4760
  766MOL0     C 5600  11.004   4.236   8.750  0.9310 -0.4003  0.2346
  766MOL0     O 5601  10.933   4.160   8.667  0.6971 -0.0235 -0.5534
  766MOL0     C 5602  10.996   4.078   8.577  0.6463  0.2607 -0.4397
  766MOL0     C 5603  11.114   4.110   8.504 -0.6774 -0.5852  0.8536
  766MOL0     C 5604  11.166   4.028   8.412  0.2305  0.4629  0.2888
  766MOL0     C 5605  11.100   3.910   8.383  0.6898 -1.3535  0.6238
  766MOL0     O 5606  11.154   3.816   8.311  0.0005 -0.2449  0.2259
  766MOL0     C 5607  11.210   3.853   8.182 -0.6760  0.2763 -0.3173
  766MOL0     C 5608  11.250   3.729   8.102  0.1758  0.4321  0.1414
  766MOL0     C 5609  11.364   3.654   8.157 -0.0691 -0.2260 -0.5765
  766MOL0     C 5610  11.349   3.500   8.120 -0.3421 -0.4301 -1.3569
  766MOL0     C 5611  11.353   3.422   8.253  0.7576  0.1206 -1.3402
  766MOL0     C 5612  11.223   3.422   8.349  0.4479 -0.2101 -0.7617
  766MOL0     C 5613  11.264   3.356   8.492  0.8307  0.2145  0.2963
  766MOL0     C 5614  11.135   3.344   8.574 -0.4368  0.2942  0.0929
  766MOL0    Cl 5615  11.164   3.282   8.740  0.2560  0.5500 -0.3727
  766MOL0     C 5616  10.972   3.885   8.445  0.3487  0.2884  0.7124
  766MOL0     C 5617  10.929   3.963   8.554 -0.6465 -0.0582 -0.3404
  766MOL0     O 5618  11.124   4.239   8.752 -0.1928 -0.0229  0.8634
  766MOL0     C 5619  10.781   4.267   8.862 -0.5774 -0.8564 -0.1146
  766MOL0     C 5620  10.695   4.326   8.953 -0.6384 -0.2251  0.8927
  766MOL0     N 5621  10.115   4.607   8.846 -0.1990  0.4149 -0.8476
  766MOL0     N 5622  10.001   4.571   8.892 -0.0793 -0.0130 -0.9806
  766MOL0     C 5623   9.481   4.889   8.237 -0.2901 -0.5332 -0.3491
  766MOL0     C 5624   9.389   4.852   8.136 -0.1932  0.7970  0.3404
  766MOL0     C 5625   8.997   4.812   7.887  0.3640 -0.0499  0.1165
  766MOL0     C 5626   8.955   4.693   7.943  0.2396  1.3410  0.2248
  766MOL0     C 5627   8.853   4.616   7.882  0.4455 -0.3260  0.0562
  766MOL0     C 5628   8.785   4.664   7.764 -0.0268 -0.3992 -0.3306
  766MOL0     O 5629   8.696   4.584   7.711  0.4895  0.7032 -0.3894
  766MOL0     C 5630   8.628   4.619   7.586  0.0961 -0.0712  0.1213
  766MOL0     C 5631   8.570   4.493   7.520  0.0948  0.1135  0.4048
  766MOL0     C 5632   8.488   4.410   7.622 -0.5828  0.3576 -0.0368
  766MOL0     C 5633   8.357   4.464   7.672 -0.2736  0.2975  0.0768
  766MOL0     C 5634   8.246   4.466   7.573 -0.1082 -0.3157 -0.2846
  766MOL0     C 5635   8.174   4.469   7.475 -0.2632 -0.4036 -0.3910
  766MOL0     C 5636   8.822   4.786   7.708 -0.7344 -0.0770 -0.2779
  766MOL0     C 5637   8.924   4.863   7.771 -0.2219  0.7042  0.1474
  766MOL0     C 5638   8.948   4.999   7.712  0.0415  0.3963  0.0594
  766MOL0     H 5639   9.110   5.006   8.245  0.5687  2.9613 -2.2991
  766MOL0     H 5640   9.281   5.079   8.423  0.3958 -2.9522  1.9363
  766MOL0     H 5641   9.447   5.126   8.554  2.4296  1.7950  1.4642
  766MOL0     H 5642   9.606   5.074   8.611 -1.6788  0.7372  0.4724
  766MOL0     H 5643   9.425   4.976   8.767  0.5473 -0.1322 -0.2828
  766MOL0     H 5644   9.355   4.905   8.618 -0.2142  2.9474 -2.3513
  766MOL0     H 5645   9.578   4.750   8.612 -0.8220  2.4077 -1.7768
  766MOL0     H 5646   9.653   4.855   8.720  0.8461 -0.8211  0.5727
  766MOL0     H 5647   9.446   4.779   8.889 -0.9826 -0.8984  0.0630
  766MOL0     H 5648   9.417   4.661   8.761 -2.3212 -0.4349  1.3745
  766MOL0     H 5649   9.644   4.554   8.809 -0.9100  1.1252 -2.6603
  766MOL0     H 5650   9.526   4.553   8.935  0.6197  0.8900  0.4383
  766MOL0     H 5651   9.770   4.748   8.902  0.8182  1.8168  2.4469
  766MOL0     H 5652   9.633   4.760   9.018 -0.5482  1.0300 -1.3518
  766MOL0     H 5653   9.767   4.481   8.993  3.4589  1.2921 -1.3234
  766MOL0     H 5654   9.671   4.571   9.120 -1.6363  4.1110  0.1510
  766MOL0     H 5655   9.875   4.683   9.186 -0.5944 -1.0992  0.1298
  766MOL0     H 5656   9.908   4.510   9.173  1.9754  0.4647  0.6816
  766MOL0     H 5657  10.125   4.705   9.158 -0.1961  3.0108 -0.4034
  766MOL0     H 5658  10.315   4.826   8.954  2.2719  0.4856 -0.9074
  766MOL0     H 5659  10.351   4.713   8.834 -1.1639  2.4991 -0.5554
  766MOL0     H 5660  10.509   4.724   9.052 -0.8438  1.0788  1.0388
  766MOL0     H 5661  10.362   4.677   9.141 -2.9737 -3.9645 -0.2975
  766MOL0     H 5662  10.339   4.460   9.006 -0.2603 -0.4546  1.2865
  766MOL0     H 5663  10.499   4.497   8.930 -0.6908  0.2542 -0.5263
  766MOL0     H 5664  10.468   4.490   9.234  0.3977 -0.4217  0.8927
  766MOL0     H 5665  10.505   4.344   9.131  3.1343  0.4380  0.2804
  766MOL0     H 5666  10.912   4.509   9.140  0.1143 -0.4466  0.5793
  766MOL0     H 5667  11.158   4.459   8.887 -0.6321  1.0891 -0.5561
  766MOL0     H 5668  11.157   4.336   9.025 -0.3413 -1.1839 -0.9791
  766MOL0     H 5669  11.118   4.501   9.053  0.6059 -0.0871 -0.6589
  766MOL0     H 5670  11.162   4.206   8.522  0.2367 -1.0401  0.9000
  766MOL0     H 5671  11.256   4.053   8.357 -0.1994  0.2170 -0.5502
  766MOL0     H 5672  11.136   3.911   8.126 -1.6578 -2.0075 -1.5207
  766MOL0     H 5673  11.292   3.922   8.203 -1.8782  1.8075 -0.4182
  766MOL0     H 5674  11.160   3.666   8.101 -0.6908  1.5926  0.8573
  766MOL0     H 5675  11.281   3.742   7.998 -1.2391 -0.9023 -0.4868
  766MOL0     H 5676  11.366   3.665   8.266  3.6809 -0.2083 -0.5003
  766MOL0     H 5677  11.461   3.694   8.125  1.6692 -2.4375  1.5485
  766MOL0     H 5678  11.436   3.468   8.062  1.6162  1.2068  0.5366
  766MOL0     H 5679  11.255   3.472   8.071 -0.9366 -1.6710  0.4055
  766MOL0     H 5680  11.373   3.317   8.231 -1.8909 -0.6503 -0.5052
  766MOL0     H 5681  11.438   3.464   8.306 -0.8557  0.2280  1.3495
  766MOL0     H 5682  11.146   3.357   8.306  0.0364 -0.9293  0.9635
  766MOL0     H 5683  11.179   3.520   8.369 -2.6328 -1.9689  2.0645
  766MOL0     H 5684  11.342   3.409   8.548 -0.0249 -0.2328  1.9926
  766MOL0     H 5685  11.288   3.252   8.471  0.2873 -0.5266  2.9682
  766MOL0     H 5686  11.070   3.264   8.535  1.1582 -0.2659 -1.5866
  766MOL0     H 5687  11.073   3.434   8.573 -1.1667 -0.1158  2.5517
  766MOL0     H 5688  10.918   3.793   8.427  2.4568 -0.8791 -0.0287
  766MOL0     H 5689  10.850   3.940   8.625  0.8416  2.0579  2.2010
  766MOL0     H 5690  10.739   4.188   8.800 -1.5757  0.5188 -1.2493
  766MOL0     H 5691  10.591   4.294   8.951 -0.0316 -2.3986  1.2501
  766MOL0     H 5692   9.585   4.864   8.223 -0.4338 -2.1672  1.1330
  766MOL0     H 5693   9.433   4.793   8.056 -2.2406 -0.7397  0.2704
  766MOL0     H 5694   9.004   4.646   8.029 -2.8011 -2.9879 -0.0794
  766MOL0     H 5695   8.810   4.534   7.939 -2.5911  0.7929 -0.4132
  766MOL0     H 5696   8.555   4.695   7.616  2.2000  1.3217  2.0065
  766MOL0     H 5697   8.700   4.661   7.515  0.4400 -0.7228  0.0751
  766MOL0     H 5698   8.651   4.433   7.478 -0.7050 -1.3418  0.8841
  766MOL0     H 5699   8.505   4.520   7.436 -0.1707 -1.4449  0.0903
  766MOL0     H 5700   8.459   4.316   7.574  0.7489 -1.0249  1.7364
  766MOL0     H 5701   8.536   4.381   7.715 -2.2889 -1.1264  0.4428
  766MOL0     H 5702   8.375   4.568   7.702  0.6280  0.5888 -1.3757
  766MOL0     H 5703   8.326   4.419   7.767  1.4919  0.0294  0.5656
  766MOL0     H 5704   8.108   4.463   7.391 -0.8983 -2.3590  0.2004
  766MOL0     H 5705   8.766   4.832   7.627 -0.6356  0.7462  0.1027
  766MOL0     H 5706   8.917   5.016   7.608 -1.1546 -0.5041  0.2468
  766MOL0     H 5707   8.920   5.075   7.785 -0.3068  0.9908 -0.6852
  766MOL0     H 5708   9.057   4.997   7.704 -0.0765  0.8640 -2.9953
  767MOL0     O 5709   2.487   2.317   8.579 -0.8488  0.3985  0.0306
  767MOL0     C 5710   2.487   2.205   8.532 -0.3423  0.0080  0.2597
  767MOL0     O 5711   2.577   2.106   8.559 -0.6522  0.4054  0.6915
  767MOL0     C 5712   2.700   2.128   8.619  0.3362  0.0127  0.1759
  767MOL0     C 5713   2.789   2.022   8.621 -0.0358 -0.1960  0.4186
  767MOL0     C 5714   2.923   2.029   8.671  0.1898  0.3880  0.3907
  767MOL0     C 5715   2.968   2.145   8.731 -0.1941 -0.2260  0.3744
  767MOL0     O 5716   3.107   2.153   8.762  0.7317  0.2967  0.3134
  767MOL0     C 5717   3.160   2.268   8.706  0.0227  0.2671  0.0455
  767MOL0     C 5718   3.311   2.272   8.720 -0.1991 -0.5538 -0.3347
  767MOL0     C 5719   3.348   2.278   8.870 -0.3933 -0.1849 -0.2627
  767MOL0     C 5720   3.499   2.296   8.894  0.1165 -0.1362 -0.6098
  767MOL0     C 5721   3.575   2.159   8.874  0.5042 -0.3166  0.5694
  767MOL0     C 5722   3.730   2.168   8.856 -0.0671  0.7420 -0.6066
  767MOL0     C 5723   3.808   2.244   8.960 -0.2922  0.0137 -0.8719
  767MOL0     C 5724   3.810   2.165   9.096 -0.6620  1.1194 -0.0383
  767MOL0     N 5725   3.873   2.243   9.202 -1.0182 -0.0904  0.5727
  767MOL0     C 5726   3.992   2.311   9.216 -0.2424  0.1241 -0.1701
  767MOL0     C 5727   4.004   2.357   9.344  0.2031 -0.1206  0.1964
  767MOL0     C 5728   4.126   2.434   9.383  0.3730 -0.1448  0.6463
  767MOL0     C 5729   4.244   2.343   9.396  0.6710 -0.2884  0.2727
  767MOL0     C 5730   4.375   2.414   9.425 -0.4399 -0.7815  0.3551
  767MOL0     C 5731   4.485   2.334   9.493 -0.1246 -0.0753 -0.0911
  767MOL0     O 5732   4.545   2.246   9.396  0.5041  0.0423 -1.1637
  767MOL0     C 5733   4.673   2.218   9.419 -0.3697 -0.2577  0.0680
  767MOL0     C 5734   4.750   2.201   9.308  0.1632  0.6600  1.0093
  767MOL0     C 5735   4.878   2.141   9.312  0.6816 -0.7178  0.6002
  767MOL0     C 5736   4.924   2.092   9.169 -0.3013 -0.4122 -0.3092
  767MOL0     C 5737   4.933   2.116   9.438 -0.3023  0.8615 -0.1691
  767MOL0     C 5738   5.072   2.079   9.471  0.6568 -0.2879  0.0506
  767MOL0     O 5739   5.099   2.030   9.599  0.3036 -0.1407 -0.0395
  767MOL0     C 5740   5.231   2.014   9.628 -0.8888 -0.1921  0.3289
  767MOL0     C 5741   5.267   1.881   9.652  0.3777  0.0340 -0.6399
  767MOL0     C 5742   5.382   1.852   9.718 -0.7396 -0.2517 -0.0467
  767MOL0     C 5743   5.475   1.947   9.739 -0.9666  0.5710  0.4060
  767MOL0     O 5744   5.592   1.897   9.793 -0.2492 -0.2754 -0.0163
  767MOL0     C 5745   5.708   1.927   9.709  0.5157 -0.4182  0.3357
  767MOL0     C 5746   5.830   1.859   9.769 -0.1117 -0.4131 -0.2343
  767MOL0     C 5747   5.842   1.707   9.780  0.2588 -0.6478  0.6272
  767MOL0     C 5748   5.973   1.657   9.846 -0.2274 -0.0594 -0.2033
  767MOL0     C 5749   5.996   1.508   9.839  0.5078  0.5646 -0.0015
  767MOL0     C 5750   6.137   1.466   9.881  0.7103  0.4457  0.1962
  767MOL0     C 5751   6.142   1.317   9.881 -0.3909  0.7211 -0.4649
  767MOL0     C 5752   6.299   1.281   9.917  0.1184  0.1258 -0.2684
  767MOL0    Cl 5753   6.330   1.351  10.088  0.1227 -0.3795  0.0935
  767MOL0     C 5754   5.457   2.071   9.683  0.8970 -0.4859  1.1184
  767MOL0     C 5755   5.331   2.114   9.638  0.3123 -0.1912  0.2480
  767MOL0     O 5756   5.152   2.080   9.381 -0.4288  0.2770 -0.5938
  767MOL0     C 5757   4.856   2.149   9.547  1.0241 -0.5939  0.1723
  767MOL0     C 5758   4.719   2.185   9.545  0.5513 -0.2257 -0.6010
  767MOL0     N 5759   3.882   2.319   9.407 -0.4508  0.6942 -0.4402
  767MOL0     N 5760   3.814   2.254   9.324  0.1471 -0.1603  0.1216
  767MOL0     C 5761   2.878   2.254   8.737  0.4244 -0.3407 -0.1238
  767MOL0     C 5762   2.747   2.245   8.687  0.4425 -0.8051 -0.1966
  767MOL0     C 5763   2.366   2.174   8.451  0.0807 -1.1327 -0.2838
  767MOL0     C 5764   2.252   2.261   8.459  0.3826 -0.3153  0.5588
  767MOL0     C 5765   2.138   2.220   8.390  0.3868 -0.1763 -0.9489
  767MOL0     C 5766   2.123   2.096   8.329 -0.1539  0.0592 -0.2450
  767MOL0     O 5767   2.009   2.055   8.274  0.4379 -0.2091  0.4524
  767MOL0     C 5768   1.939   1.947   8.334 -1.1012  0.3733  0.1848
  767MOL0     C 5769   1.808   2.002   8.373 -0.0996  0.2310  0.6189
  767MOL0     C 5770   1.794   2.132   8.454 -0.0913  0.2156 -0.9306
  767MOL0     C 5771   1.651   2.143   8.507 -0.0115  0.5796 -0.4589
  767MOL0     C 5772   1.568   2.208   8.407 -0.0974  0.2779 -0.1507
  767MOL0     C 5773   1.503   2.279   8.330 -0.3156  0.3124 -0.0342
  767MOL0     C 5774   2.233   2.019   8.322  0.1747  0.9347  0.8079
  767MOL0     C 5775   2.353   2.050   8.375 -0.6657 -0.6924  0.2097
  767MOL0     C 5776   2.465   1.959   8.357  0.8919  0.2915  0.5645
  767MOL0     H 5777   2.758   1.931   8.571  1.2447 -0.7751  0.6268
  767MOL0     H 5778   2.993   1.948   8.654 -3.2667 -2.8189 -0.0437
  767MOL0     H 5779   3.111   2.353   8.754 -1.0357  0.9478 -2.1215
  767MOL0     H 5780   3.139   2.279   8.599 -0.0553  2.6545  0.2516
  767MOL0     H 5781   3.358   2.185   8.674 -1.3459 -0.6780 -1.3167
  767MOL0     H 5782   3.340   2.358   8.659  1.7377 -2.1122 -1.7127
  767MOL0     H 5783   3.284   2.356   8.912 -2.1935 -2.2730  1.1308
  767MOL0     H 5784   3.316   2.194   8.932 -1.5654  0.3941 -0.0535
  767MOL0     H 5785   3.545   2.372   8.829  3.2344 -1.2203  0.1414
  767MOL0     H 5786   3.523   2.323   8.997 -1.9531  0.2201 -0.1927
  767MOL0     H 5787   3.547   2.113   8.779  1.1936  1.3051 -0.4663
  767MOL0     H 5788   3.546   2.090   8.953 -2.3737 -0.8767 -0.8440
  767MOL0     H 5789   3.773   2.069   8.842 -2.0162 -0.0738 -1.1605
  767MOL0     H 5790   3.750   2.220   8.762 -0.3491  0.3518 -0.8865
  767MOL0     H 5791   3.765   2.343   8.978  1.4747  0.6123  0.3787
  767MOL0     H 5792   3.910   2.265   8.927 -0.4610  0.9581 -0.8411
  767MOL0     H 5793   3.710   2.139   9.130  0.0952  0.3606  1.7088
  767MOL0     H 5794   3.849   2.064   9.080 -2.5631 -0.0066  1.9615
  767MOL0     H 5795   4.063   2.314   9.135 -0.1499 -1.1960 -0.1548
  767MOL0     H 5796   4.108   2.483   9.479 -0.4266 -0.0982  0.4790
  767MOL0     H 5797   4.145   2.507   9.305  1.7775 -0.0644  1.0371
  767MOL0     H 5798   4.225   2.268   9.473  1.2408 -1.2582 -0.4896
  767MOL0     H 5799   4.245   2.283   9.304 -0.8027  2.1905 -1.4638
  767MOL0     H 5800   4.415   2.452   9.330 -0.2969  1.9003  1.3957
  767MOL0     H 5801   4.355   2.506   9.481  2.8418  1.5710 -1.9675
  767MOL0     H 5802   4.540   2.410   9.548 -0.1276 -0.4553  0.4399
  767MOL0     H 5803   4.435   2.263   9.560 -2.6407  1.6802  0.0499
  767MOL0     H 5804   4.692   2.222   9.219 -1.7385  2.7882  2.6085
  767MOL0     H 5805   4.937   2.185   9.113 -2.3704 -1.2383 -2.3107
  767MOL0     H 5806   4.848   2.046   9.104  0.4199 -0.5233 -1.0897
  767MOL0     H 5807   5.008   2.022   9.170 -0.9820 -1.2556 -0.7385
  767MOL0     H 5808   5.197   1.800   9.640 -0.1608  0.3383  0.3290
  767MOL0     H 5809   5.398   1.749   9.751  1.7905  0.3348  0.7858
  767MOL0     H 5810   5.696   1.878   9.612  1.5195 -2.4351  1.1755
  767MOL0     H 5811   5.725   2.034   9.719 -1.4392  0.1009 -1.1996
  767MOL0     H 5812   5.917   1.881   9.707  1.5125 -1.4215  1.5605
  767MOL0     H 5813   5.847   1.893   9.872  1.4182 -2.7045  0.3599
  767MOL0     H 5814   5.847   1.664   9.680  1.3187 -1.5139  1.0346
  767MOL0     H 5815   5.766   1.668   9.848  0.0697  1.2568  1.5727
  767MOL0     H 5816   5.981   1.684   9.952 -1.3069 -0.7376  0.0578
  767MOL0     H 5817   6.049   1.716   9.793 -1.3278  1.4916 -0.1246
  767MOL0     H 5818   5.927   1.461   9.909  0.5910  0.3021 -0.0964
  767MOL0     H 5819   5.979   1.473   9.737  3.5022  1.2452 -0.8413
  767MOL0     H 5820   6.176   1.499   9.978  5.3986 -1.2384 -0.8195
  767MOL0     H 5821   6.216   1.500   9.814  4.6809 -3.4150  2.3189
  767MOL0     H 5822   6.125   1.276   9.781 -0.0990  1.7190 -0.9325
  767MOL0     H 5823   6.083   1.265   9.957  1.3124 -3.2281 -1.5701
  767MOL0     H 5824   6.361   1.325   9.838 -1.3752 -1.9742 -2.7843
  767MOL0     H 5825   6.320   1.174   9.916  2.6639  0.4757 -3.8848
  767MOL0     H 5826   5.534   2.147   9.690 -0.2250  0.8783 -0.5054
  767MOL0     H 5827   5.302   2.214   9.606 -0.0455 -0.7664 -1.3026
  767MOL0     H 5828   4.890   2.144   9.650 -1.9898  0.3547  1.3095
  767MOL0     H 5829   4.648   2.199   9.626  0.7555  1.0934 -0.6303
  767MOL0     H 5830   2.894   2.342   8.799  3.2170  0.3059 -1.5850
  767MOL0     H 5831   2.681   2.326   8.714  2.1341 -0.6543  4.2849
  767MOL0     H 5832   2.248   2.349   8.522 -1.2701  0.2057 -0.2234
  767MOL0     H 5833   2.054   2.285   8.411 -1.4207 -2.3264 -1.1009
  767MOL0     H 5834   1.928   1.861   8.267 -2.8045  0.0228  0.8609
  767MOL0     H 5835   1.990   1.904   8.422  0.2896 -0.1962 -0.8623
  767MOL0     H 5836   1.763   1.919   8.429 -0.2936 -0.0404  0.0623
  767MOL0     H 5837   1.754   2.008   8.279  2.0056 -0.1718 -0.6753
  767MOL0     H 5838   1.862   2.108   8.536 -0.2929 -0.2688 -0.9031
  767MOL0     H 5839   1.813   2.222   8.395  0.3988  0.3726 -0.5403
  767MOL0     H 5840   1.642   2.200   8.600 -1.9525 -1.6152  0.8019
  767MOL0     H 5841   1.607   2.045   8.529  0.9594  0.6533  2.1613
  767MOL0     H 5842   1.455   2.345   8.260 -2.4788  2.1369  2.9311
  767MOL0     H 5843   2.223   1.929   8.261 -1.7868  0.5359  1.6374
  767MOL0     H 5844   2.499   1.891   8.436  1.9601 -3.1054 -2.5110
  767MOL0     H 5845   2.449   1.894   8.270 -0.0043 -0.1030  1.0048
  767MOL0     H 5846   2.548   2.025   8.331  0.1766  1.3559  0.9180
  768MOL0     O 5847   6.904   2.760   1.107  0.0722 -0.7267 -0.2707
  768MOL0     C 5848   6.798   2.760   1.041  0.5271  0.3227 -0.6942
  768MOL0     O 5849   6.761   2.846   0.939 -0.6288 -0.4461 -1.0069
  768MOL0     C 5850   6.870   2.913   0.890  0.4182 -0.7691 -0.3786
  768MOL0     C 5851   6.905   3.039   0.942  0.3974 -0.0308  0.0933
  768MOL0     C 5852   7.007   3.110   0.881 -0.9325  0.5086  0.2041
  768MOL0     C 5853   7.070   3.060   0.761 -0.2735  0.7698  0.1323
  768MOL0     O 5854   7.149   3.152   0.698 -0.2245  0.1274  0.4845
  768MOL0     C 5855   7.191   3.111   0.566 -0.4528 -0.3205 -0.0813
  768MOL0     C 5856   7.266   3.214   0.479  0.8641 -0.6488  0.1490
  768MOL0     C 5857   7.382   3.275   0.561 -1.6264 -0.7513 -0.5780
  768MOL0     C 5858   7.475   3.361   0.474  0.0075 -0.3410  0.2025
  768MOL0     C 5859   7.599   3.403   0.551 -0.3572  1.5218 -0.1016
  768MOL0     C 5860   7.682   3.499   0.476  0.1445 -0.7355 -0.5376
  768MOL0     C 5861   7.809   3.548   0.554  0.2192 -0.8125 -0.7888
  768MOL0     C 5862   7.778   3.641   0.680  0.5906 -0.5123 -0.2449
  768MOL0     N 5863   7.904   3.691   0.725 -0.4692 -0.7430 -0.1047
  768MOL0     C 5864   7.992   3.622   0.801 -0.0112 -0.3886  0.1022
  768MOL0     C 5865   8.105   3.684   0.793 -0.0900 -0.3335  0.0832
  768MOL0     C 5866   8.244   3.650   0.846  1.0149  0.0644 -0.8527
  768MOL0     C 5867   8.258   3.495   0.853  0.2149 -0.0517  0.3293
  768MOL0     C 5868   8.407   3.461   0.900 -0.1842  0.1251 -0.4674
  768MOL0     C 5869   8.432   3.311   0.931  0.1719 -0.2037  0.1258
  768MOL0     O 5870   8.539   3.295   1.024  0.6195 -0.8798 -0.1679
  768MOL0     C 5871   8.666   3.314   0.973 -0.5635  0.1832 -0.3464
  768MOL0     C 5872   8.720   3.245   0.866  0.6577  0.2130  0.8583
  768MOL0     C 5873   8.852   3.268   0.812  0.1304  0.5604  0.5260
  768MOL0     C 5874   8.885   3.199   0.681 -0.3007  0.3871  0.0648
  768MOL0     C 5875   8.942   3.357   0.888 -0.4000  0.4287  0.4740
  768MOL0     C 5876   9.086   3.381   0.854  0.0849 -0.6929 -0.2069
  768MOL0     O 5877   9.139   3.479   0.934 -0.0651 -0.4951 -0.6050
  768MOL0     C 5878   9.278   3.511   0.932  0.4692  0.7218 -0.4757
  768MOL0     C 5879   9.375   3.452   0.849  0.5732 -0.2798  0.1069
  768MOL0     C 5880   9.505   3.478   0.877  0.3176  0.2488 -0.3064
  768MOL0     C 5881   9.545   3.568   0.978  0.4945  0.5886  0.3422
  768MOL0     O 5882   9.669   3.617   1.001  0.0679  0.1626 -0.3121
  768MOL0     C 5883   9.774   3.519   1.006  0.1498  0.3268  0.5436
  768MOL0     C 5884   9.920   3.559   1.018  0.2260 -0.1899 -0.4059
  768MOL0     C 5885   9.941   3.635   1.135  0.5603  0.5554  0.3445
  768MOL0     C 5886  10.067   3.718   1.137  0.3795 -0.1554 -0.2055
  768MOL0     C 5887  10.197   3.638   1.139 -0.5082  0.4046 -0.6005
  768MOL0     C 5888  10.320   3.726   1.129 -1.0050  0.2473 -0.6287
  768MOL0     C 5889  10.323   3.844   1.221 -0.2887  0.6082  0.3000
  768MOL0     C 5890  10.459   3.919   1.210 -0.7889 -0.4925 -0.7461
  768MOL0    Cl 5891  10.451   4.072   1.309 -0.2177 -0.0364 -0.2029
  768MOL0     C 5892   9.442   3.632   1.050 -0.5059 -0.0701  0.6827
  768MOL0     C 5893   9.307   3.608   1.027 -0.0557  0.6230 -0.2510
  768MOL0     O 5894   9.133   3.326   0.752  0.3215 -0.1909 -0.4914
  768MOL0     C 5895   8.888   3.420   1.005 -0.2041  0.0012 -0.6105
  768MOL0     C 5896   8.756   3.391   1.044 -0.5834 -0.0442 -0.2777
  768MOL0     N 5897   8.080   3.794   0.709 -0.2602 -0.2797 -0.0245
  768MOL0     N 5898   7.957   3.799   0.661 -0.6824  0.6531 -0.5020
  768MOL0     C 5899   7.023   2.935   0.702 -0.7411  0.1848 -1.0469
  768MOL0     C 5900   6.923   2.862   0.769 -0.4437 -0.2989  0.2918
  768MOL0     C 5901   6.687   2.672   1.093 -0.6082  0.0838  0.3168
  768MOL0     C 5902   6.626   2.577   1.010  0.4211  1.3111  0.2720
  768MOL0     C 5903   6.529   2.493   1.057 -0.7566 -0.1948  0.2694
  768MOL0     C 5904   6.486   2.503   1.195  0.2363 -0.3631  0.0567
  768MOL0     O 5905   6.388   2.423   1.254  0.0062  0.7918  0.0110
  768MOL0     C 5906   6.374   2.292   1.196 -0.1646 -0.7400 -0.3414
  768MOL0     C 5907   6.498   2.213   1.213  0.4258 -0.2560  0.5137
  768MOL0     C 5908   6.469   2.056   1.186  0.1241 -0.6352  1.2156
  768MOL0     C 5909   6.590   1.983   1.201 -0.1692  0.2925  0.4303
  768MOL0     C 5910   6.560   1.835   1.184 -0.4169 -0.2143  0.0417
  768MOL0     C 5911   6.531   1.715   1.175  0.5808 -0.1279  0.4828
  768MOL0     C 5912   6.537   2.611   1.269  0.6146 -0.6381  0.5344
  768MOL0     C 5913   6.645   2.697   1.228  0.4228 -0.4420  0.6718
  768MOL0     C 5914   6.688   2.814   1.317 -1.0344  0.0814 -0.1028
  768MOL0     H 5915   6.857   3.081   1.030 -1.3098 -2.7587  0.5603
  768MOL0     H 5916   7.042   3.209   0.909  0.5039  0.0554  0.1153
  768MOL0     H 5917   7.105   3.092   0.500  0.7955  0.9079 -2.1627
  768MOL0     H 5918   7.244   3.018   0.583 -1.0083 -0.5896  0.2138
  768MOL0     H 5919   7.289   3.183   0.377 -0.0182  2.9607 -1.3069
  768MOL0     H 5920   7.194   3.293   0.455  0.4797 -0.6209  1.2937
  768MOL0     H 5921   7.351   3.333   0.648  0.6870 -1.6806  0.9804
  768MOL0     H 5922   7.440   3.190   0.599 -2.1864 -0.9685 -0.2030
  768MOL0     H 5923   7.503   3.312   0.380  3.1382  1.1921  0.2133
  768MOL0     H 5924   7.426   3.455   0.447 -0.1328  0.1299  1.9715
  768MOL0     H 5925   7.663   3.315   0.559 -3.4756 -1.2178 -2.6282
  768MOL0     H 5926   7.578   3.437   0.653  1.5676 -0.1578  0.9250
  768MOL0     H 5927   7.716   3.446   0.387  3.9053  0.8438 -0.2252
  768MOL0     H 5928   7.619   3.584   0.447 -0.7237 -0.2122  2.5608
  768MOL0     H 5929   7.858   3.613   0.480  1.4677  0.5724  1.1633
  768MOL0     H 5930   7.873   3.462   0.577  0.1598 -0.0409  2.8031
  768MOL0     H 5931   7.717   3.723   0.641  1.9985  0.2417 -0.9213
  768MOL0     H 5932   7.725   3.581   0.755 -0.2619 -1.0871 -1.2717
  768MOL0     H 5933   7.964   3.526   0.844 -3.1102  0.2103 -0.3334
  768MOL0     H 5934   8.275   3.697   0.940  1.8494  0.2222 -1.1971
  768MOL0     H 5935   8.308   3.690   0.767  1.0838 -1.6625 -1.7145
  768MOL0     H 5936   8.189   3.455   0.927  0.6981  0.7031  1.2089
  768MOL0     H 5937   8.239   3.452   0.754  3.3891 -0.9800  0.0147
  768MOL0     H 5938   8.479   3.495   0.825 -0.0777  1.2305  0.1199
  768MOL0     H 5939   8.440   3.528   0.980  0.5497 -2.2643  1.3570
  768MOL0     H 5940   8.345   3.268   0.980  0.5860 -2.0826 -0.7115
  768MOL0     H 5941   8.448   3.252   0.840  2.5614  0.2298  0.2047
  768MOL0     H 5942   8.651   3.171   0.825  2.1976 -0.2973 -0.9623
  768MOL0     H 5943   8.903   3.277   0.606 -1.3714  0.2662 -0.3341
  768MOL0     H 5944   8.798   3.137   0.656  0.7445 -1.0207 -0.2015
  768MOL0     H 5945   8.978   3.142   0.677 -0.2922  0.4617 -1.7286
  768MOL0     H 5946   9.346   3.368   0.787 -0.7738  0.4292 -0.2756
  768MOL0     H 5947   9.579   3.444   0.805 -0.1239  0.5001 -0.8854
  768MOL0     H 5948   9.751   3.438   1.076  2.0381 -0.9228 -0.1859
  768MOL0     H 5949   9.766   3.476   0.905 -2.0862 -2.8112  1.8790
  768MOL0     H 5950   9.973   3.464   1.027  1.9206  0.9212  3.7113
  768MOL0     H 5951   9.955   3.621   0.935 -4.0188 -1.1159 -3.1857
  768MOL0     H 5952   9.933   3.581   1.230 -0.7517 -0.3641 -0.2596
  768MOL0     H 5953   9.865   3.714   1.131 -0.3584 -0.0553  3.1502
  768MOL0     H 5954  10.067   3.790   1.220  0.5033  0.5434 -0.8052
  768MOL0     H 5955  10.065   3.780   1.048  0.7524  2.1037  1.2839
  768MOL0     H 5956  10.212   3.595   1.239 -0.6895 -1.2293 -1.2362
  768MOL0     H 5957  10.188   3.563   1.059 -3.1577  0.7085 -0.6661
  768MOL0     H 5958  10.331   3.772   1.030  0.1069 -1.4751 -1.3515
  768MOL0     H 5959  10.410   3.667   1.150 -1.0463  0.5712  0.5519
  768MOL0     H 5960  10.315   3.818   1.327  3.4858 -2.3119  0.0882
  768MOL0     H 5961  10.246   3.913   1.188  1.2314  2.8417  1.1756
  768MOL0     H 5962  10.481   3.959   1.111 -0.6640 -0.4640 -0.7073
  768MOL0     H 5963  10.547   3.860   1.238  1.2524  2.8895  0.6456
  768MOL0     H 5964   9.464   3.695   1.135  0.6143 -1.1220  1.2090
  768MOL0     H 5965   9.229   3.638   1.097 -1.3126  0.7239 -1.6391
  768MOL0     H 5966   8.947   3.476   1.077 -2.0004 -0.9361  1.7569
  768MOL0     H 5967   8.728   3.431   1.141  0.0090  0.2827 -0.2395
  768MOL0     H 5968   7.052   2.907   0.602  1.6256  0.9476 -0.6384
  768MOL0     H 5969   6.884   2.767   0.732 -3.7496  0.6978  0.8446
  768MOL0     H 5970   6.664   2.562   0.909 -0.2868  0.2641  0.1375
  768MOL0     H 5971   6.491   2.424   0.983 -3.3402  0.8817  0.4686
  768MOL0     H 5972   6.291   2.238   1.242  0.8938 -1.1948  1.1044
  768MOL0     H 5973   6.353   2.290   1.089 -0.3341 -3.2251 -0.3075
  768MOL0     H 5974   6.533   2.221   1.317 -0.2490 -0.9568  0.8078
  768MOL0     H 5975   6.579   2.253   1.152  0.4194 -0.9905  0.0098
  768MOL0     H 5976   6.395   2.020   1.258 -1.7147  0.5084  0.0080
  768MOL0     H 5977   6.417   2.044   1.090  0.7522 -1.1628  0.9319
  768MOL0     H 5978   6.637   2.000   1.299 -2.7584 -3.6684  2.6257
  768MOL0     H 5979   6.655   2.015   1.119 -0.8168  0.6856  0.0635
  768MOL0     H 5980   6.516   1.609   1.171 -0.7838 -0.0817  2.5669
  768MOL0     H 5981   6.498   2.626   1.369 -4.0281  2.8475 -1.4121
  768MOL0     H 5982   6.619   2.852   1.393  2.3026 -1.5504  4.1471
  768MOL0     H 5983   6.769   2.781   1.382 -0.5401 -1.8985 -1.6067
  768MOL0     H 5984   6.720   2.892   1.248 -0.7983  1.3003  1.3323
  769MOL0     O 5985   0.729   1.169   8.188  0.0867  0.0785 -0.1592
  769MOL0     C 5986   0.644   1.095   8.137  0.0025 -0.2346 -0.2637
  769MOL0     O 5987   0.674   1.011   8.027  0.2527  0.0132  0.0676
  769MOL0     C 5988   0.773   1.052   7.946 -0.8320 -0.6636 -0.2454
  769MOL0     C 5989   0.788   1.188   7.904 -0.4872 -0.0482 -0.8136
  769MOL0     C 5990   0.901   1.230   7.844 -0.8697  0.5801 -0.5593
  769MOL0     C 5991   0.989   1.134   7.792 -0.9565 -1.2632 -0.0718
  769MOL0     O 5992   1.104   1.170   7.725 -0.1479 -0.3800 -0.4923
  769MOL0     C 5993   1.154   1.302   7.701  0.1600  0.6239 -0.7036
  769MOL0     C 5994   1.258   1.300   7.578 -0.0403 -0.7120 -0.0099
  769MOL0     C 5995   1.317   1.433   7.545 -0.1727 -0.5219  0.0246
  769MOL0     C 5996   1.222   1.504   7.448 -0.0954  0.1188 -0.8111
  769MOL0     C 5997   1.288   1.615   7.372  0.5689 -0.7050 -0.7506
  769MOL0     C 5998   1.309   1.742   7.462 -0.2617 -0.1383  0.6594
  769MOL0     C 5999   1.405   1.843   7.405  0.1241  0.0677 -0.9560
  769MOL0     C 6000   1.376   1.894   7.271 -0.8233 -0.4679  0.4342
  769MOL0     N 6001   1.489   1.957   7.203 -0.1024 -0.3136 -0.1547
  769MOL0     C 6002   1.604   1.896   7.185 -0.9366  0.3553  1.1149
  769MOL0     C 6003   1.689   1.987   7.120  1.5647  0.2283 -0.9856
  769MOL0     C 6004   1.828   1.977   7.082  0.2899 -0.0043 -0.3741
  769MOL0     C 6005   1.896   1.852   7.140 -0.1429 -0.4651  0.0118
  769MOL0     C 6006   2.041   1.853   7.092  0.8701 -0.1874  0.3888
  769MOL0     C 6007   2.112   1.737   7.144 -0.3754  0.6306  0.0861
  769MOL0     O 6008   2.122   1.745   7.286  0.4499 -0.7494  0.2655
  769MOL0     C 6009   2.223   1.678   7.350 -0.4644 -0.0377 -0.8659
  769MOL0     C 6010   2.261   1.721   7.470 -0.1305 -0.5086  0.5590
  769MOL0     C 6011   2.346   1.656   7.558  0.1317 -0.4635 -1.1734
  769MOL0     C 6012   2.375   1.735   7.683  0.6093  0.2739 -0.5981
  769MOL0     C 6013   2.397   1.530   7.520 -0.5349  0.3887  0.2611
  769MOL0     C 6014   2.489   1.437   7.604 -0.4575  1.0154 -0.2802
  769MOL0     O 6015   2.535   1.326   7.544 -0.4006  0.0354  0.1846
  769MOL0     C 6016   2.625   1.247   7.614 -0.1833  0.1675  0.0528
  769MOL0     C 6017   2.642   1.115   7.585 -0.0180  0.8701 -0.7871
  769MOL0     C 6018   2.722   1.014   7.648 -0.5188  1.0372  0.1780
  769MOL0     C 6019   2.807   1.064   7.747 -0.1872 -0.5043  0.8261
  769MOL0     O 6020   2.874   0.961   7.807 -0.4937 -0.3615 -0.3030
  769MOL0     C 6021   2.950   0.996   7.915 -0.0976  0.0291 -0.7796
  769MOL0     C 6022   2.989   0.872   7.995 -0.2988 -1.0495 -0.2225
  769MOL0     C 6023   3.074   0.774   7.907 -0.2953  0.1998  0.1117
  769MOL0     C 6024   3.071   0.632   7.954 -0.3167  0.0368  0.3228
  769MOL0     C 6025   3.180   0.539   7.884  0.3991  0.5612  0.4977
  769MOL0     C 6026   3.323   0.606   7.891 -0.0972  0.5424 -0.2309
  769MOL0     C 6027   3.425   0.491   7.894 -0.1430 -0.0129  0.6174
  769MOL0     C 6028   3.443   0.409   8.021 -0.0245  0.4461 -0.1752
  769MOL0    Cl 6029   3.609   0.318   8.039  0.2047 -0.0549  0.5126
  769MOL0     C 6030   2.812   1.204   7.776  0.1991  0.2261 -0.5537
  769MOL0     C 6031   2.720   1.289   7.717 -0.6544 -0.4833 -0.2010
  769MOL0     O 6032   2.474   1.452   7.723 -0.6553  0.5741 -1.1826
  769MOL0     C 6033   2.378   1.492   7.386 -0.1779  0.1333 -0.0280
  769MOL0     C 6034   2.293   1.567   7.301 -0.6159  0.4530  0.3627
  769MOL0     N 6035   1.609   2.100   7.099  0.6723 -0.2878  0.6226
  769MOL0     N 6036   1.488   2.072   7.137  0.1890 -0.1245  0.7262
  769MOL0     C 6037   0.977   1.001   7.833  0.7232  0.5266  0.0761
  769MOL0     C 6038   0.871   0.959   7.907  0.7745 -0.0193 -0.2570
  769MOL0     C 6039   0.510   1.086   8.196 -0.4727  0.2003 -0.0577
  769MOL0     C 6040   0.405   1.042   8.117 -0.8240 -0.9025  0.1956
  769MOL0     C 6041   0.274   1.047   8.154  1.1798  0.7888  0.2951
  769MOL0     C 6042   0.248   1.089   8.283 -0.6734 -1.2271  0.0234
  769MOL0     O 6043   0.125   1.095   8.346  0.6079  0.1725  0.1114
  769MOL0     C 6044   0.005   1.058   8.275  0.6270 -0.8574 -0.1651
  769MOL0     C 6045  -0.128   1.074   8.359 -0.8726 -0.0914 -1.2832
  769MOL0     C 6046  -0.115   1.016   8.500  0.2008  0.5874 -0.2739
  769MOL0     C 6047  -0.250   1.030   8.570  0.1058  0.7945 -0.4284
  769MOL0     C 6048  -0.270   0.939   8.681  0.3792  0.4871  0.0234
  769MOL0     C 6049  -0.303   0.866   8.769 -0.2042  0.4173 -0.1777
  769MOL0     C 6050   0.346   1.120   8.377  0.0467 -0.1408  0.2197
  769MOL0     C 6051   0.482   1.116   8.334 -0.4873 -0.3821 -0.2665
  769MOL0     C 6052   0.590   1.168   8.423  0.0891  0.1316  0.1538
  769MOL0     H 6053   0.728   1.266   7.950 -0.2248 -0.3736  0.1058
  769MOL0     H 6054   0.932   1.334   7.848  1.7206 -0.0813 -1.2883
  769MOL0     H 6055   1.204   1.325   7.795 -1.0669  0.2889  0.0617
  769MOL0     H 6056   1.068   1.368   7.684 -0.5647  0.2847  1.3709
  769MOL0     H 6057   1.338   1.237   7.618  0.2233 -0.5510 -0.2787
  769MOL0     H 6058   1.208   1.257   7.491  0.6320  0.8829 -1.2289
  769MOL0     H 6059   1.333   1.488   7.638  0.8069 -3.4039  1.6736
  769MOL0     H 6060   1.410   1.425   7.488 -1.6716 -2.5776 -2.3387
  769MOL0     H 6061   1.180   1.449   7.363  2.2144  0.3479 -2.1833
  769MOL0     H 6062   1.149   1.538   7.522  0.8854 -0.0698  0.2741
  769MOL0     H 6063   1.230   1.650   7.286  3.3084  0.2489 -2.3376
  769MOL0     H 6064   1.382   1.579   7.328  1.1505 -0.0619 -0.0791
  769MOL0     H 6065   1.211   1.782   7.489 -0.5062 -0.7418  0.6853
  769MOL0     H 6066   1.343   1.716   7.563  0.8712 -0.7626  0.1287
  769MOL0     H 6067   1.495   1.782   7.395 -1.1643 -1.9204 -1.0681
  769MOL0     H 6068   1.422   1.925   7.476  3.2193  1.6977 -3.3555
  769MOL0     H 6069   1.334   1.812   7.212 -0.9202 -0.8891  1.0818
  769MOL0     H 6070   1.296   1.967   7.285 -1.4889 -0.9647 -0.6464
  769MOL0     H 6071   1.630   1.796   7.218  0.4158 -0.1103 -1.1578
  769MOL0     H 6072   1.869   2.067   7.129  0.7867 -0.1143 -0.5828
  769MOL0     H 6073   1.842   1.985   6.973  1.1608  1.9758 -0.1516
  769MOL0     H 6074   1.902   1.854   7.249  3.0096  1.9576 -0.0520
  769MOL0     H 6075   1.852   1.760   7.100  0.7256 -0.5053 -0.9071
  769MOL0     H 6076   2.050   1.859   6.983  2.3651  2.8488  0.5704
  769MOL0     H 6077   2.088   1.945   7.128  2.0150  0.5480 -2.7008
  769MOL0     H 6078   2.067   1.643   7.111 -0.1013 -0.9061  3.6656
  769MOL0     H 6079   2.218   1.750   7.117 -0.9733  3.8951 -1.2049
  769MOL0     H 6080   2.207   1.811   7.500 -0.2233  0.2950 -1.7701
  769MOL0     H 6081   2.484   1.743   7.693  0.4967  1.0240  0.1999
  769MOL0     H 6082   2.342   1.681   7.772  1.3492  0.9694  0.1152
  769MOL0     H 6083   2.340   1.839   7.682  0.2367  0.1508 -0.5020
  769MOL0     H 6084   2.575   1.072   7.510 -0.8953  2.4710 -0.9566
  769MOL0     H 6085   2.711   0.906   7.646 -0.0740  0.9365  1.7430
  769MOL0     H 6086   3.042   1.043   7.880  1.6967 -1.9125  1.0338
  769MOL0     H 6087   2.902   1.074   7.975  0.4767  0.0856 -0.3850
  769MOL0     H 6088   3.053   0.899   8.080  0.1534 -1.2935 -0.4816
  769MOL0     H 6089   2.898   0.824   8.032 -1.3940  0.1949 -1.2167
  769MOL0     H 6090   3.177   0.811   7.907  0.6394 -2.0742  2.6124
  769MOL0     H 6091   3.023   0.781   7.810  1.6030 -1.3148 -1.0854
  769MOL0     H 6092   2.971   0.590   7.936 -0.1342 -0.6567  0.8614
  769MOL0     H 6093   3.085   0.623   8.062  2.4414 -0.6747 -0.0275
  769MOL0     H 6094   3.184   0.438   7.925 -1.2868 -1.1595 -3.1865
  769MOL0     H 6095   3.149   0.521   7.781 -2.1982 -0.0165  1.3194
  769MOL0     H 6096   3.340   0.673   7.976  3.7366  1.5207 -1.5255
  769MOL0     H 6097   3.342   0.656   7.795  1.1594 -1.5163 -1.1454
  769MOL0     H 6098   3.522   0.537   7.871 -0.8838 -0.0651 -3.3283
  769MOL0     H 6099   3.401   0.426   7.810  0.3425 -1.1004  1.3026
  769MOL0     H 6100   3.354   0.346   8.020 -1.4238  2.3041  0.8021
  769MOL0     H 6101   3.438   0.473   8.109  1.8056 -0.0146  0.2934
  769MOL0     H 6102   2.877   1.252   7.848  0.3429  3.3038 -2.5391
  769MOL0     H 6103   2.733   1.396   7.732  0.1628 -0.5615 -0.3190
  769MOL0     H 6104   2.431   1.404   7.352 -2.0637 -1.1318  0.1551
  769MOL0     H 6105   2.278   1.531   7.199 -2.8510 -0.8257  1.0908
  769MOL0     H 6106   1.049   0.923   7.811 -0.8877 -1.4752  1.4999
  769MOL0     H 6107   0.870   0.853   7.930 -0.0870 -0.2239 -1.1792
  769MOL0     H 6108   0.410   1.012   8.012 -1.1425 -0.1903 -0.0285
  769MOL0     H 6109   0.190   1.025   8.089 -0.4687  2.6259  1.6711
  769MOL0     H 6110   0.007   1.120   8.186 -0.7347  1.0284  1.0322
  769MOL0     H 6111   0.017   0.956   8.239 -0.7596 -0.2158 -2.6518
  769MOL0     H 6112  -0.199   1.003   8.317  0.1506 -1.4647 -0.7719
  769MOL0     H 6113  -0.159   1.179   8.365 -2.0788 -0.4024 -1.8871
  769MOL0     H 6114  -0.094   0.910   8.483 -2.1140 -0.1998  1.4202
  769MOL0     H 6115  -0.042   1.063   8.566 -1.0579 -0.4442  1.9368
  769MOL0     H 6116  -0.334   1.008   8.504 -0.9048  1.0507  0.7350
  769MOL0     H 6117  -0.259   1.131   8.611 -2.1226 -0.1117  1.5586
  769MOL0     H 6118  -0.342   0.807   8.850 -0.0467  0.0233 -0.3855
  769MOL0     H 6119   0.334   1.140   8.483 -1.3703  0.5803 -0.0537
  769MOL0     H 6120   0.680   1.106   8.423  0.0665 -0.0532  3.2220
  769MOL0     H 6121   0.628   1.268   8.397  0.0670 -0.4337 -2.2945
  769MOL0     H 6122   0.562   1.176   8.528  1.4537  1.6362  0.4574
  770MOL0     O 6123   7.170   9.355   4.963 -0.7371 -0.0518  0.0040
  770MOL0     C 6124   7.080   9.427   5.006  0.6529  0.8767 -0.5770
  770MOL0     O 6125   6.946   9.402   5.005  0.4935  0.3414 -0.1757
  770MOL0     C 6126   6.892   9.275   4.979 -0.7083 -0.5747  0.0709
  770MOL0     C 6127   6.756   9.275   4.954 -0.2031  0.0385 -0.0614
  770MOL0     C 6128   6.693   9.157   4.927 -0.0712 -0.3192 -0.5961
  770MOL0     C 6129   6.760   9.029   4.939 -1.0569  0.0630 -0.5124
  770MOL0     O 6130   6.705   8.916   4.899 -0.3656 -1.0118  0.2296
  770MOL0     C 6131   6.566   8.909   4.902 -0.3810 -0.1124  0.7606
  770MOL0     C 6132   6.536   8.757   4.918 -0.3981  0.7093  0.3978
  770MOL0     C 6133   6.382   8.733   4.927  0.2652 -0.4076  0.0840
  770MOL0     C 6134   6.338   8.600   4.991 -0.2981 -0.2679 -0.6332
  770MOL0     C 6135   6.194   8.567   4.938 -0.0742 -0.1347 -0.0026
  770MOL0     C 6136   6.100   8.678   5.000  0.4601  0.4034 -0.2733
  770MOL0     C 6137   5.959   8.631   4.975  0.3952  0.1290  0.2824
  770MOL0     C 6138   5.917   8.607   4.823  0.1963 -0.5990 -0.0082
  770MOL0     N 6139   5.971   8.716   4.736  0.4231  0.3705  0.2233
  770MOL0     C 6140   5.956   8.852   4.745  0.4266 -0.2909 -0.2482
  770MOL0     C 6141   6.036   8.902   4.647 -0.6006 -0.6162 -0.6174
  770MOL0     C 6142   6.057   9.050   4.630 -0.4307  0.1952 -0.0107
  770MOL0     C 6143   6.210   9.074   4.621  1.0295  0.3476 -0.4360
  770MOL0     C 6144   6.251   9.215   4.609  0.0726 -0.3048  0.5012
  770MOL0     C 6145   6.395   9.247   4.635 -0.1080 -0.2822  1.0031
  770MOL0     O 6146   6.481   9.152   4.566  0.2848  1.0454  0.2343
  770MOL0     C 6147   6.613   9.170   4.544 -0.2373  0.1780 -0.5346
  770MOL0     C 6148   6.642   9.282   4.476 -0.0504  0.3149  0.4417
  770MOL0     C 6149   6.774   9.317   4.459  0.6542 -0.4456  1.2401
  770MOL0     C 6150   6.791   9.455   4.399  0.2618  0.1341  0.1603
  770MOL0     C 6151   6.882   9.236   4.516  0.3273  0.0385 -0.1192
  770MOL0     C 6152   7.023   9.274   4.523 -0.0794 -0.0714  0.0691
  770MOL0     O 6153   7.114   9.175   4.531  0.5329  0.0376  0.8245
  770MOL0     C 6154   7.243   9.196   4.558  0.9311 -0.8187 -0.4840
  770MOL0     C 6155   7.341   9.126   4.496 -0.1076 -0.0637 -0.3272
  770MOL0     C 6156   7.473   9.134   4.540 -0.0269  0.1205 -0.8773
  770MOL0     C 6157   7.507   9.209   4.656  0.8098 -0.3768  0.0360
  770MOL0     O 6158   7.634   9.218   4.714 -0.7328  0.5979 -0.1899
  770MOL0     C 6159   7.755   9.230   4.635  0.2521  0.1946  0.6263
  770MOL0     C 6160   7.874   9.157   4.686  0.3078 -0.6456 -0.4935
  770MOL0     C 6161   7.897   9.139   4.834 -0.5203  0.7823  0.3400
  770MOL0     C 6162   8.041   9.092   4.874  0.2732  0.9012  0.9745
  770MOL0     C 6163   8.050   9.078   5.021  0.4105  0.7315 -1.0408
  770MOL0     C 6164   8.015   9.197   5.115 -0.5676 -0.4856  0.7087
  770MOL0     C 6165   8.004   9.154   5.255 -0.3681  0.4065  0.0669
  770MOL0     C 6166   7.936   9.251   5.352 -0.1796  0.4185  0.1360
  770MOL0    Cl 6167   7.905   9.166   5.515  0.5593 -0.0408  0.2877
  770MOL0     C 6168   7.408   9.290   4.718 -0.5205  0.6849  0.0136
  770MOL0     C 6169   7.277   9.286   4.672  0.7962  0.0746  0.6225
  770MOL0     O 6170   7.045   9.391   4.518 -0.6989  0.0544  0.1453
  770MOL0     C 6171   6.844   9.113   4.571 -0.0665 -0.0427 -0.2757
  770MOL0     C 6172   6.705   9.082   4.583 -0.0716 -0.5004  0.0258
  770MOL0     N 6173   6.096   8.808   4.578 -0.1995 -0.0174  0.3528
  770MOL0     N 6174   6.056   8.694   4.631 -0.2015 -0.3033  0.0741
  770MOL0     C 6175   6.892   9.026   4.957 -0.5276  0.2892  0.3963
  770MOL0     C 6176   6.958   9.152   4.980 -0.6994 -0.6100 -0.1829
  770MOL0     C 6177   7.129   9.561   5.052  0.6851 -0.9581  0.0129
  770MOL0     C 6178   7.264   9.599   5.027 -0.4689 -0.1552 -0.0254
  770MOL0     C 6179   7.315   9.723   5.075 -0.5759  0.5853  0.7005
  770MOL0     C 6180   7.236   9.799   5.160 -0.5149 -1.1880 -0.0414
  770MOL0     O 6181   7.296   9.919   5.207  0.1790  0.3398 -0.3812
  770MOL0     C 6182   7.233  10.015   5.289  0.7271  0.6104  0.0542
  770MOL0     C 6183   7.333  10.123   5.332 -1.0104  1.0909 -0.0410
  770MOL0     C 6184   7.279  10.216   5.439 -0.0953 -1.1370  0.0576
  770MOL0     C 6185   7.356  10.355   5.437 -0.3878  0.3106  0.1426
  770MOL0     C 6186   7.284  10.461   5.503  0.3827 -1.5157 -0.2240
  770MOL0     C 6187   7.221  10.542   5.564  0.4280 -0.2623  0.0495
  770MOL0     C 6188   7.105   9.766   5.187 -0.0412 -0.8892  0.6076
  770MOL0     C 6189   7.056   9.650   5.136  0.0796  0.6321  0.1273
  770MOL0     C 6190   6.917   9.621   5.201 -0.0129 -0.8848 -1.1605
  770MOL0     H 6191   6.697   9.366   4.946 -0.0083  0.1907  0.2288
  770MOL0     H 6192   6.589   9.163   4.896  0.1690  1.3499 -1.1753
  770MOL0     H 6193   6.518   8.949   4.813  2.8909 -1.2119 -1.6937
  770MOL0     H 6194   6.519   8.968   4.981 -3.2618 -1.6661  0.3788
  770MOL0     H 6195   6.581   8.713   4.829 -0.9927  1.1110 -0.1100
  770MOL0     H 6196   6.583   8.710   5.005 -2.8661 -1.5221  0.6847
  770MOL0     H 6197   6.340   8.818   4.981 -0.9729 -0.8993 -0.0765
  770MOL0     H 6198   6.347   8.729   4.823  1.9680 -1.3972 -0.5003
  770MOL0     H 6199   6.403   8.521   4.953  0.6427  1.3922 -2.7062
  770MOL0     H 6200   6.344   8.609   5.099  1.0024 -1.4106 -0.5861
  770MOL0     H 6201   6.161   8.468   4.973  1.0164 -0.4816  0.0702
  770MOL0     H 6202   6.193   8.565   4.829  3.5741 -3.4629 -0.1903
  770MOL0     H 6203   6.115   8.681   5.109 -2.5695 -3.2648  0.4419
  770MOL0     H 6204   6.116   8.777   4.957 -3.2740  0.5325 -1.7187
  770MOL0     H 6205   5.893   8.701   5.027  0.5147  0.2125  0.3221
  770MOL0     H 6206   5.943   8.545   5.041  0.7896  0.4604  0.8234
  770MOL0     H 6207   5.957   8.511   4.789 -1.9506 -0.8313 -2.1745
  770MOL0     H 6208   5.808   8.596   4.816  0.3488 -1.7232 -1.0041
  770MOL0     H 6209   5.890   8.897   4.818  1.2730 -0.1025  0.4135
  770MOL0     H 6210   6.011   9.108   4.711  1.4323  2.0092 -0.1734
  770MOL0     H 6211   5.998   9.080   4.543  1.9647  2.8697 -0.8664
  770MOL0     H 6212   6.240   9.032   4.718 -2.4221  0.8194  0.9752
  770MOL0     H 6213   6.256   9.011   4.544 -0.5214 -1.4119 -0.0042
  770MOL0     H 6214   6.220   9.252   4.511  2.6174 -3.3584 -1.6886
  770MOL0     H 6215   6.199   9.271   4.686 -2.0856 -2.3108  0.6073
  770MOL0     H 6216   6.421   9.352   4.621 -1.3937  0.1397  1.6357
  770MOL0     H 6217   6.421   9.233   4.741  2.1225  1.4387  0.7554
  770MOL0     H 6218   6.570   9.360   4.453 -0.6404  0.3888  2.3768
  770MOL0     H 6219   6.796   9.534   4.474  1.1974  0.5850 -0.3649
  770MOL0     H 6220   6.702   9.477   4.340 -0.3841 -2.9215 -0.2072
  770MOL0     H 6221   6.879   9.468   4.334  0.5533  1.1021  0.7299
  770MOL0     H 6222   7.329   9.082   4.398  0.4720  1.4612 -1.1099
  770MOL0     H 6223   7.551   9.080   4.487  2.8150 -0.6142  3.5896
  770MOL0     H 6224   7.740   9.203   4.530 -0.6968 -2.8892  1.4223
  770MOL0     H 6225   7.780   9.336   4.633  1.9390 -0.1375 -2.5630
  770MOL0     H 6226   7.874   9.061   4.634  1.8558 -0.2535 -1.2916
  770MOL0     H 6227   7.959   9.209   4.640  1.7461 -1.4467  1.1191
  770MOL0     H 6228   7.827   9.060   4.866 -1.5052  0.7360 -1.7894
  770MOL0     H 6229   7.869   9.230   4.887  1.4800  1.8059 -0.3050
  770MOL0     H 6230   8.117   9.162   4.840  0.8149  1.0826  2.4557
  770MOL0     H 6231   8.056   8.990   4.837 -4.6213  0.4190 -0.3846
  770MOL0     H 6232   7.980   8.998   5.047  0.9702  0.1403 -1.3227
  770MOL0     H 6233   8.151   9.043   5.044  0.2911  1.6983  1.2502
  770MOL0     H 6234   7.916   9.238   5.091 -0.4312 -0.0623  0.8508
  770MOL0     H 6235   8.077   9.287   5.108  2.7050 -2.2453  3.8792
  770MOL0     H 6236   8.112   9.152   5.271 -0.0578  1.9031 -1.5778
  770MOL0     H 6237   7.963   9.053   5.262 -1.2432  0.6391 -1.3026
  770MOL0     H 6238   7.831   9.268   5.328 -0.0288 -0.6009 -1.3946
  770MOL0     H 6239   7.998   9.341   5.356  2.0437 -1.0469  0.9500
  770MOL0     H 6240   7.431   9.348   4.808  0.4157  2.4378 -1.2834
  770MOL0     H 6241   7.190   9.336   4.714  0.9142  2.1675 -1.4393
  770MOL0     H 6242   6.922   9.052   4.616 -1.0752 -0.4861  0.9586
  770MOL0     H 6243   6.678   8.998   4.647 -0.9416  1.6100  2.5960
  770MOL0     H 6244   6.957   8.939   4.960  2.4939  2.4072  0.7414
  770MOL0     H 6245   7.063   9.152   5.005  0.1258 -2.2206 -3.1793
  770MOL0     H 6246   7.333   9.537   4.971  1.3757 -2.3785  4.2941
  770MOL0     H 6247   7.417   9.756   5.055  1.2515 -3.9014  1.3591
  770MOL0     H 6248   7.139  10.052   5.246 -0.1365  1.1186  2.2754
  770MOL0     H 6249   7.200   9.968   5.382 -0.5936  2.2392  0.4634
  770MOL0     H 6250   7.370  10.180   5.247 -0.4549 -0.4357 -0.8478
  770MOL0     H 6251   7.414  10.063   5.373 -1.0754  0.3278 -1.0025
  770MOL0     H 6252   7.175  10.236   5.410  0.2070  0.7213  0.1083
  770MOL0     H 6253   7.291  10.165   5.534  2.6534 -2.2749 -0.7904
  770MOL0     H 6254   7.383  10.391   5.338 -1.6204  1.6192  0.2554
  770MOL0     H 6255   7.447  10.343   5.497  0.7651 -0.2702 -1.6432
  770MOL0     H 6256   7.165  10.614   5.620 -0.9161  0.0494 -1.6092
  770MOL0     H 6257   7.057   9.824   5.265  0.2755 -1.3984  1.1940
  770MOL0     H 6258   6.880   9.701   5.266  3.0679 -0.3539  0.1595
  770MOL0     H 6259   6.842   9.609   5.123 -1.9317  0.8129  0.2998
  770MOL0     H 6260   6.917   9.531   5.264  1.3340  0.6855  1.2421
  771MOL0     O 6261   8.202  10.208  10.483 -0.1032 -0.2764 -0.0840
  771MOL0     C 6262   8.172  10.135  10.575  0.2385  0.6726  1.0515
  771MOL0     O 6263   8.225  10.143  10.704  0.0747  0.6294  0.7878
  771MOL0     C 6264   8.314  10.242  10.730 -0.6014  0.0594 -1.0325
  771MOL0     C 6265   8.447  10.214  10.770 -0.3835  0.7761  0.0208
  771MOL0     C 6266   8.536  10.318  10.821 -0.0227  0.1395  0.3466
  771MOL0     C 6267   8.490  10.449  10.826 -0.6103 -0.8491  0.1137
  771MOL0     O 6268   8.585  10.539  10.876  0.3167  0.7902  0.0991
  771MOL0     C 6269   8.554  10.641  10.972  0.4674 -1.1894  0.8269
  771MOL0     C 6270   8.519  10.573  11.107 -0.4867  0.0718  0.6589
  771MOL0     C 6271   8.478  10.677  11.215 -0.0657 -0.2474 -0.5700
  771MOL0     C 6272   8.353  10.759  11.179 -0.1729  0.7615 -0.1489
  771MOL0     C 6273   8.229  10.653  11.181  0.0909 -1.2615 -0.1497
  771MOL0     C 6274   8.093  10.730  11.184  0.7144  0.0425  0.1972
  771MOL0     C 6275   8.050  10.798  11.053  0.5403 -0.6594  0.5182
  771MOL0     C 6276   7.905  10.842  11.068 -0.8980 -0.2421 -0.6789
  771MOL0     N 6277   7.879  10.954  10.981  0.5956  0.5812  0.1656
  771MOL0     C 6278   7.812  10.936  10.861 -0.4280  0.4640  0.9540
  771MOL0     C 6279   7.826  11.050  10.790  0.4422  0.0058  0.2467
  771MOL0     C 6280   7.760  11.083  10.667 -0.1996 -0.4462 -0.1518
  771MOL0     C 6281   7.628  11.154  10.696  0.0214 -0.0050  0.6462
  771MOL0     C 6282   7.557  11.203  10.571 -0.1377 -0.1388  0.1359
  771MOL0     C 6283   7.433  11.285  10.605  0.8154 -0.0298 -0.1190
  771MOL0     O 6284   7.342  11.201  10.681 -0.1369 -0.2675  0.0854
  771MOL0     C 6285   7.218  11.246  10.728 -0.2177  0.1489 -0.0791
  771MOL0     C 6286   7.167  11.369  10.703  0.7444 -0.7683  0.0043
  771MOL0     C 6287   7.036  11.409  10.726 -1.0535  0.7608  0.4069
  771MOL0     C 6288   6.999  11.548  10.678  0.3406  1.0229  0.4858
  771MOL0     C 6289   6.953  11.314  10.787  0.5312  0.1886 -0.5714
  771MOL0     C 6290   6.809  11.344  10.820  0.4856  1.1084 -0.3806
  771MOL0     O 6291   6.748  11.233  10.878 -0.3598  0.1832  0.5460
  771MOL0     C 6292   6.620  11.243  10.931  0.8204 -0.0465 -0.1497
  771MOL0     C 6293   6.589  11.341  11.027  0.4285 -0.8949  0.9522
  771MOL0     C 6294   6.465  11.343  11.087  0.2393  0.3226  0.5711
  771MOL0     C 6295   6.364  11.249  11.051  0.2239  0.5253 -0.4184
  771MOL0     O 6296   6.244  11.239  11.113  0.5256 -0.1309  0.7350
  771MOL0     C 6297   6.196  11.344  11.196 -0.0534 -0.7750 -0.4931
  771MOL0     C 6298   6.052  11.315  11.217 -0.0019 -0.2108  0.8788
  771MOL0     C 6299   6.013  11.359  11.358 -0.5344 -0.0045 -0.4808
  771MOL0     C 6300   5.867  11.391  11.367  0.1175 -0.1465  0.0246
  771MOL0     C 6301   5.817  11.427  11.511 -0.1677  0.0789 -0.3828
  771MOL0     C 6302   5.665  11.446  11.518  0.5981 -0.4141  0.1503
  771MOL0     C 6303   5.613  11.580  11.445 -0.5307  0.2205 -0.4371
  771MOL0     C 6304   5.465  11.586  11.416 -0.4761 -0.4245 -0.5795
  771MOL0    Cl 6305   5.404  11.737  11.327 -0.2726  0.0598 -0.1047
  771MOL0     C 6306   6.389  11.148  10.951  0.6932 -0.0856 -0.3155
  771MOL0     C 6307   6.518  11.149  10.902 -0.4180  0.8264 -0.5756
  771MOL0     O 6308   6.752  11.439  10.771  0.0167  0.3467 -0.2414
  771MOL0     C 6309   7.003  11.183  10.829 -0.7527 -0.2001 -0.3953
  771MOL0     C 6310   7.142  11.156  10.792 -0.0329  0.4487  0.3204
  771MOL0     N 6311   7.903  11.137  10.865 -0.5641 -0.5716 -0.8046
  771MOL0     N 6312   7.922  11.087  10.982  0.6375 -0.7832 -0.4533
  771MOL0     C 6313   8.359  10.480  10.784 -0.0815  0.4302 -0.1619
  771MOL0     C 6314   8.273  10.381  10.735 -0.3195  0.3152  0.4185
  771MOL0     C 6315   8.064  10.039  10.552  0.9796  0.0923 -1.1545
  771MOL0     C 6316   8.032   9.951  10.664  0.2775  0.9089  0.1367
  771MOL0     C 6317   7.929   9.856  10.661  0.2601  0.6873  0.3602
  771MOL0     C 6318   7.859   9.836  10.545 -0.4237  0.3701  0.4010
  771MOL0     O 6319   7.768   9.741  10.515  0.0367  0.1345 -0.7308
  771MOL0     C 6320   7.722   9.654  10.620 -0.1084 -0.2086 -1.1945
  771MOL0     C 6321   7.638   9.545  10.553  0.4929 -0.0213 -0.4135
  771MOL0     C 6322   7.538   9.492  10.656  0.4366  0.2242  0.0156
  771MOL0     C 6323   7.452   9.377  10.590  0.6249 -0.4950  0.1906
  771MOL0     C 6324   7.357   9.451  10.503 -1.5953  0.7729 -0.1643
  771MOL0     C 6325   7.278   9.509  10.443 -0.6521 -1.1409  0.1986
  771MOL0     C 6326   7.889   9.922  10.433 -0.1405 -0.7163 -0.3351
  771MOL0     C 6327   7.989  10.020  10.433  0.3218  0.6493  0.2068
  771MOL0     C 6328   8.009  10.103  10.314  0.4422 -0.8797  0.3424
  771MOL0     H 6329   8.475  10.110  10.782  1.4570  1.4419  2.3048
  771MOL0     H 6330   8.628  10.299  10.875 -0.3567  1.8617  1.5869
  771MOL0     H 6331   8.471  10.694  10.925  2.5645 -1.0910 -3.1936
  771MOL0     H 6332   8.640  10.708  10.983  0.9969 -1.8843  0.9645
  771MOL0     H 6333   8.435  10.506  11.088  0.5963 -0.5854 -2.4872
  771MOL0     H 6334   8.601  10.509  11.140 -0.1101  0.7805  1.1239
  771MOL0     H 6335   8.449  10.628  11.308  2.4594  1.3067  1.1441
  771MOL0     H 6336   8.566  10.741  11.227 -0.2547 -0.2858  1.1892
  771MOL0     H 6337   8.339  10.829  11.262 -0.3840 -0.5487  0.9806
  771MOL0     H 6338   8.365  10.810  11.083  1.8143  3.8089  1.5660
  771MOL0     H 6339   8.231  10.582  11.265  0.9362 -1.6391 -0.4820
  771MOL0     H 6340   8.241  10.599  11.087  3.4369  0.7514 -1.0557
  771MOL0     H 6341   8.013  10.657  11.199  0.0416  0.8384  0.5568
  771MOL0     H 6342   8.091  10.791  11.275  3.6453 -1.2344  1.2241
  771MOL0     H 6343   8.071  10.731  10.969  1.1365  0.5028 -0.2917
  771MOL0     H 6344   8.122  10.881  11.046  0.6791 -0.8254 -0.1184
  771MOL0     H 6345   7.835  10.767  11.029 -2.6527  1.2678 -0.5731
  771MOL0     H 6346   7.880  10.878  11.169  0.1077  1.0797 -0.8757
  771MOL0     H 6347   7.755  10.851  10.825 -2.5162  2.2706 -0.2578
  771MOL0     H 6348   7.741  11.002  10.596 -1.4278  0.2003 -0.5843
  771MOL0     H 6349   7.820  11.157  10.613 -3.4467  2.2573 -0.3656
  771MOL0     H 6350   7.561  11.085  10.750  1.6323 -1.9815  0.2450
  771MOL0     H 6351   7.645  11.245  10.753 -1.4683  0.5749  0.2146
  771MOL0     H 6352   7.626  11.267  10.514  1.5349 -1.9738 -0.0208
  771MOL0     H 6353   7.538  11.115  10.509 -0.3035  1.3897 -2.0964
  771MOL0     H 6354   7.477  11.370  10.658  2.0695 -0.5997 -0.2279
  771MOL0     H 6355   7.384  11.323  10.514 -2.6627  1.7266  2.2452
  771MOL0     H 6356   7.231  11.447  10.663  0.7053 -0.5091  0.4434
  771MOL0     H 6357   7.078  11.588  10.614  0.2500  1.3888  0.5979
  771MOL0     H 6358   6.988  11.620  10.760 -1.2598  0.3210  0.9142
  771MOL0     H 6359   6.908  11.549  10.618 -0.7631 -0.1279  2.0716
  771MOL0     H 6360   6.656  11.424  11.048 -1.3847  0.5536  1.2563
  771MOL0     H 6361   6.449  11.419  11.163  2.2775  2.0048 -0.5344
  771MOL0     H 6362   6.249  11.352  11.292 -1.2104  2.2329  0.0037
  771MOL0     H 6363   6.205  11.440  11.145 -0.6926 -0.6174 -0.3219
  771MOL0     H 6364   5.980  11.353  11.145  0.6206 -2.3526 -0.9775
  771MOL0     H 6365   6.037  11.208  11.197 -0.3442  0.4340 -3.1107
  771MOL0     H 6366   6.068  11.449  11.387  1.2827 -0.1936 -3.0049
  771MOL0     H 6367   6.047  11.278  11.423  0.2260  2.8562  3.0054
  771MOL0     H 6368   5.817  11.298  11.337 -0.4293 -0.1317  0.8659
  771MOL0     H 6369   5.839  11.466  11.293 -1.8171  1.4360  2.2107
  771MOL0     H 6370   5.851  11.353  11.583 -0.6070  1.8798  1.8038
  771MOL0     H 6371   5.869  11.517  11.547 -3.1410  2.6490 -1.9950
  771MOL0     H 6372   5.631  11.442  11.622  0.0354  0.2649  0.0061
  771MOL0     H 6373   5.624  11.363  11.460  1.5872 -0.6483 -0.2344
  771MOL0     H 6374   5.666  11.605  11.352  1.4050  0.1737  0.6075
  771MOL0     H 6375   5.630  11.666  11.510  1.9286 -0.8770  0.4854
  771MOL0     H 6376   5.410  11.586  11.511  1.5888 -2.5200  0.7041
  771MOL0     H 6377   5.442  11.495  11.360 -1.2692 -0.7390  0.2258
  771MOL0     H 6378   6.310  11.085  10.912 -2.0068  2.3743  0.8343
  771MOL0     H 6379   6.553  11.074  10.831 -0.7106  0.0082  0.1372
  771MOL0     H 6380   6.949  11.121  10.899  0.8220 -0.2360  0.8381
  771MOL0     H 6381   7.192  11.063  10.815 -0.7492 -0.6038 -2.0076
  771MOL0     H 6382   8.311  10.577  10.792 -1.9716 -0.3750 -1.1400
  771MOL0     H 6383   8.172  10.395  10.698 -0.3179 -0.6489  0.0148
  771MOL0     H 6384   8.069   9.960  10.765 -3.9499  1.0928  1.8622
  771MOL0     H 6385   7.901   9.797  10.748 -1.9671 -0.8972 -1.3062
  771MOL0     H 6386   7.800   9.608  10.681 -3.0298 -1.7659  1.6621
  771MOL0     H 6387   7.656   9.712  10.686 -1.1711  1.4387 -3.5502
  771MOL0     H 6388   7.711   9.469  10.526  1.8565  0.6498  1.1833
  771MOL0     H 6389   7.603   9.578  10.455 -0.2203 -0.7625 -0.4160
  771MOL0     H 6390   7.596   9.453  10.740 -0.4344  3.2694  2.2030
  771MOL0     H 6391   7.477   9.575  10.693 -1.5835 -2.0947  2.2777
  771MOL0     H 6392   7.396   9.325  10.668  4.1954 -0.4802  2.9744
  771MOL0     H 6393   7.502   9.308  10.521 -0.1234  0.5966 -1.5340
  771MOL0     H 6394   7.205   9.571  10.395 -0.7421 -1.6230 -0.2998
  771MOL0     H 6395   7.821   9.930  10.349  2.7305  2.5646 -2.6065
  771MOL0     H 6396   7.980  10.206  10.337  2.8060  0.0257 -0.4521
  771MOL0     H 6397   8.109  10.099  10.271  0.8909 -2.5968  1.4318
  771MOL0     H 6398   7.940  10.078  10.233  1.7465 -1.7611 -0.5368
  772MOL0     O 6399  10.125  10.010   1.221 -0.0620  0.0737  0.2108
  772MOL0     C 6400  10.147   9.898   1.255  0.3374 -0.0986  0.7617
  772MOL0     O 6401  10.275   9.834   1.264 -0.1238  0.5884  0.1191
  772MOL0     C 6402  10.388   9.908   1.255  0.0457 -0.1762  1.2275
  772MOL0     C 6403  10.458   9.939   1.367 -0.7437  0.0171  0.0718
  772MOL0     C 6404  10.581  10.001   1.355  0.8634  0.2787  0.5259
  772MOL0     C 6405  10.632  10.033   1.236  0.6619 -0.0822  1.0125
  772MOL0     O 6406  10.752  10.095   1.221 -0.1775  1.2572 -0.0018
  772MOL0     C 6407  10.858  10.010   1.177 -0.7408  0.8076 -0.4390
  772MOL0     C 6408  10.940   9.963   1.301 -0.1768  0.0645 -0.2948
  772MOL0     C 6409  11.014  10.079   1.372  0.3133 -0.1283  0.4611
  772MOL0     C 6410  11.111  10.033   1.474  0.1478 -0.2019  1.1119
  772MOL0     C 6411  11.252  10.029   1.416 -0.0161  0.7834  0.0245
  772MOL0     C 6412  11.348   9.965   1.519 -1.0886 -0.3433 -0.7875
  772MOL0     C 6413  11.497   9.980   1.472  1.2720 -0.6137  0.2976
  772MOL0     C 6414  11.581   9.881   1.548  0.1018 -0.9128  0.2696
  772MOL0     N 6415  11.719   9.932   1.549 -0.2009  0.3342  0.3067
  772MOL0     C 6416  11.810   9.924   1.447  0.6401 -0.0309 -0.4648
  772MOL0     C 6417  11.886  10.035   1.468  0.0323  0.5997  0.1115
  772MOL0     C 6418  12.014  10.062   1.385  0.6859 -0.9249 -0.1466
  772MOL0     C 6419  12.014  10.181   1.286 -0.3439 -0.8809 -0.0177
  772MOL0     C 6420  12.152  10.219   1.232 -0.0260  0.0172  0.1504
  772MOL0     C 6421  12.158  10.356   1.162  0.3633  0.0751 -0.1728
  772MOL0     O 6422  12.284  10.411   1.121  0.2966  0.0028  0.4721
  772MOL0     C 6423  12.298  10.546   1.106 -0.1913 -0.7735  0.1098
  772MOL0     C 6424  12.422  10.586   1.065  0.7007 -0.3352  0.5251
  772MOL0     C 6425  12.453  10.719   1.048 -0.5566 -1.5150 -0.2994
  772MOL0     C 6426  12.593  10.749   1.007  0.3911 -1.0791  0.0223
  772MOL0     C 6427  12.356  10.817   1.066  0.1176  0.0545  0.6089
  772MOL0     C 6428  12.380  10.958   1.044  0.2791 -0.7910  0.5194
  772MOL0     O 6429  12.481  11.014   1.121 -0.8039 -0.6479  0.5949
  772MOL0     C 6430  12.557  11.122   1.079  0.7896 -0.4111  0.6970
  772MOL0     C 6431  12.630  11.185   1.173 -0.4800 -1.2367  0.0610
  772MOL0     C 6432  12.729  11.279   1.140  0.5528 -0.8454 -0.7861
  772MOL0     C 6433  12.752  11.314   1.006 -0.8896  0.4010  0.3733
  772MOL0     O 6434  12.830  11.412   0.953  0.2821  0.7911 -0.4290
  772MOL0     C 6435  12.926  11.481   1.037  0.5810  0.1093 -0.1618
  772MOL0     C 6436  12.980  11.608   0.955  0.1806 -0.6063 -0.1090
  772MOL0     C 6437  13.059  11.573   0.827 -0.1918 -0.2004  0.0887
  772MOL0     C 6438  13.100  11.709   0.754  0.4656  0.5674 -0.0845
  772MOL0     C 6439  13.179  11.695   0.615 -0.0521 -0.4049 -0.1260
  772MOL0     C 6440  13.225  11.837   0.558  0.4308  0.5630  0.8507
  772MOL0     C 6441  13.326  11.916   0.635  0.7790  0.7204 -0.4881
  772MOL0     C 6442  13.368  12.030   0.536  0.1071  0.3011  0.3483
  772MOL0    Cl 6443  13.411  12.167   0.644 -0.0959 -0.2295 -0.3738
  772MOL0     C 6444  12.677  11.255   0.911  0.2744  0.0352 -1.3113
  772MOL0     C 6445  12.570  11.154   0.943 -0.1205 -0.6669  0.9889
  772MOL0     O 6446  12.314  11.014   0.953  0.7662  0.1986 -0.7002
  772MOL0     C 6447  12.223  10.785   1.110 -0.1895  0.0395  0.3403
  772MOL0     C 6448  12.195  10.647   1.132 -0.2057 -0.5549  0.4984
  772MOL0     N 6449  11.851  10.110   1.579  0.7475 -0.3075 -0.6714
  772MOL0     N 6450  11.741  10.046   1.621 -0.1248 -0.0746 -0.4474
  772MOL0     C 6451  10.566   9.987   1.119 -0.5862 -0.2190 -0.7398
  772MOL0     C 6452  10.435   9.945   1.124 -0.4563  0.7821  0.5946
  772MOL0     C 6453  10.027   9.841   1.313 -0.7664  0.2119 -0.0452
  772MOL0     C 6454  10.037   9.739   1.412  0.9901  0.6184 -0.1657
  772MOL0     C 6455   9.920   9.683   1.469 -0.1994  0.1241 -0.6846
  772MOL0     C 6456   9.787   9.718   1.426 -0.6951 -0.2056 -0.5500
  772MOL0     O 6457   9.679   9.655   1.494 -0.0199  0.2157 -0.5944
  772MOL0     C 6458   9.555   9.649   1.425  0.0288 -0.1057 -0.1090
  772MOL0     C 6459   9.470   9.537   1.483  0.6847 -0.1694 -0.5381
  772MOL0     C 6460   9.394   9.565   1.613  0.3460 -0.4415  0.5434
  772MOL0     C 6461   9.327   9.438   1.678 -0.4602 -1.0314 -0.4701
  772MOL0     C 6462   9.423   9.336   1.726  0.3748 -0.3332  0.4895
  772MOL0     C 6463   9.493   9.251   1.771  0.6429  1.1386 -0.3892
  772MOL0     C 6464   9.781   9.813   1.322 -0.3136 -0.0279  0.1400
  772MOL0     C 6465   9.897   9.871   1.264 -0.1349 -0.1050 -0.3495
  772MOL0     C 6466   9.869   9.951   1.138 -0.7457  1.1045 -0.6297
  772MOL0     H 6467  10.412   9.918   1.463 -2.6431 -0.1554 -0.8135
  772MOL0     H 6468  10.634  10.031   1.446  2.3324 -0.1382 -0.1564
  772MOL0     H 6469  10.921  10.074   1.115  0.6752 -0.3715 -0.2662
  772MOL0     H 6470  10.820   9.938   1.105 -3.0942  2.1761 -0.6759
  772MOL0     H 6471  10.869   9.921   1.373 -1.3492  4.4242  1.3968
  772MOL0     H 6472  11.017   9.891   1.270 -0.3321  1.0337 -3.2286
  772MOL0     H 6473  11.056  10.151   1.301 -2.5454  0.1548 -1.1041
  772MOL0     H 6474  10.937  10.138   1.423  1.1610  0.8262  0.6757
  772MOL0     H 6475  11.114  10.097   1.562 -1.9643 -1.4259  2.1603
  772MOL0     H 6476  11.066   9.941   1.514 -6.5494  2.0929  0.1826
  772MOL0     H 6477  11.286  10.130   1.391 -0.5848  1.0973  0.4938
  772MOL0     H 6478  11.260   9.966   1.327 -0.3214  0.7422  0.0268
  772MOL0     H 6479  11.343  10.030   1.607  1.4044 -0.6070 -0.3858
  772MOL0     H 6480  11.327   9.862   1.546  1.4571 -0.0721  2.9645
  772MOL0     H 6481  11.517  10.087   1.481  1.5740 -0.1083 -4.2031
  772MOL0     H 6482  11.496   9.948   1.367  0.6600 -0.3642  0.2228
  772MOL0     H 6483  11.539   9.882   1.649 -2.4078  1.6563 -0.6887
  772MOL0     H 6484  11.575   9.782   1.503 -2.3729  0.0823 -1.7880
  772MOL0     H 6485  11.804   9.851   1.366 -1.2490  0.3281 -0.6946
  772MOL0     H 6486  12.025   9.963   1.340 -0.8448 -1.4020  0.4499
  772MOL0     H 6487  12.096  10.072   1.457  0.1738  1.9658  0.1649
  772MOL0     H 6488  11.946  10.136   1.213 -2.3316 -2.3507  2.5501
  772MOL0     H 6489  11.957  10.269   1.316 -0.1859 -0.7725 -0.0351
  772MOL0     H 6490  12.222  10.205   1.314 -1.2503  2.4583  1.7370
  772MOL0     H 6491  12.171  10.143   1.156  1.5219  0.9617 -0.4390
  772MOL0     H 6492  12.088  10.343   1.079  1.2062 -2.4093 -0.5647
  772MOL0     H 6493  12.106  10.430   1.224  3.2095  1.6016  0.5717
  772MOL0     H 6494  12.491  10.504   1.043  3.9043  2.4588 -0.6640
  772MOL0     H 6495  12.652  10.661   1.035  2.2003 -0.5187 -1.7916
  772MOL0     H 6496  12.646  10.833   1.053  2.5402 -2.1534 -0.3873
  772MOL0     H 6497  12.592  10.769   0.900  1.1077  3.1959  0.6482
  772MOL0     H 6498  12.604  11.155   1.274  1.0707  1.4502  1.3445
  772MOL0     H 6499  12.781  11.334   1.217  2.7345 -3.5243 -0.1819
  772MOL0     H 6500  12.888  11.514   1.134 -2.2289 -3.6169  0.2264
  772MOL0     H 6501  13.008  11.411   1.055  0.1710 -0.9006 -1.9762
  772MOL0     H 6502  12.902  11.684   0.946 -2.4787 -3.1488 -0.3757
  772MOL0     H 6503  13.052  11.646   1.028  0.9664 -2.4354  0.1373
  772MOL0     H 6504  13.005  11.508   0.759  0.9009 -0.8295 -0.2089
  772MOL0     H 6505  13.150  11.517   0.854  0.6112  0.2034 -1.6536
  772MOL0     H 6506  13.160  11.764   0.828 -1.5076  1.4917  0.9400
  772MOL0     H 6507  13.008  11.763   0.727 -1.2973 -2.0568  0.3528
  772MOL0     H 6508  13.271  11.640   0.639  1.5383  0.8090 -2.9825
  772MOL0     H 6509  13.132  11.643   0.532  0.8116  1.3041 -1.7547
  772MOL0     H 6510  13.135  11.892   0.529  1.4672  1.4732 -0.7232
  772MOL0     H 6511  13.277  11.799   0.470 -1.2230 -1.9365  0.8209
  772MOL0     H 6512  13.418  11.868   0.666 -0.8060 -0.2018  3.3446
  772MOL0     H 6513  13.280  11.968   0.720  2.2452 -1.0556  1.5071
  772MOL0     H 6514  13.287  12.074   0.476 -0.5953 -1.5495 -0.1106
  772MOL0     H 6515  13.442  11.995   0.465 -0.1858  0.1058  0.1348
  772MOL0     H 6516  12.678  11.295   0.811 -0.9724  5.3754  0.4714
  772MOL0     H 6517  12.509  11.108   0.865  1.6091  1.1357 -1.5930
  772MOL0     H 6518  12.151  10.866   1.122 -0.8391 -0.5262  0.3483
  772MOL0     H 6519  12.092  10.634   1.162 -0.3856  0.2853  0.2702
  772MOL0     H 6520  10.616   9.999   1.023 -0.7234  1.8819 -0.5951
  772MOL0     H 6521  10.375   9.925   1.037 -1.1684  2.2296  0.7112
  772MOL0     H 6522  10.134   9.694   1.430  1.2819  1.5791  0.7689
  772MOL0     H 6523   9.931   9.610   1.549  0.1731 -1.1193 -1.8370
  772MOL0     H 6524   9.498   9.742   1.438 -1.7060 -0.9497 -1.2875
  772MOL0     H 6525   9.575   9.629   1.320  1.3280 -0.0512  0.1126
  772MOL0     H 6526   9.525   9.442   1.488  4.3898  1.7973 -0.0725
  772MOL0     H 6527   9.382   9.515   1.423 -0.7982  0.7371  1.2220
  772MOL0     H 6528   9.461   9.610   1.687  0.6828 -2.1095  1.2835
  772MOL0     H 6529   9.317   9.642   1.600  0.8882  0.4695  2.2843
  772MOL0     H 6530   9.250   9.411   1.604 -4.1890  2.8533  1.4886
  772MOL0     H 6531   9.277   9.472   1.769  0.2165 -2.6300  0.5351
  772MOL0     H 6532   9.572   9.184   1.797 -0.2868  0.5290  0.9680
  772MOL0     H 6533   9.688   9.842   1.274  0.2763  2.3153  0.2941
  772MOL0     H 6534   9.952   9.943   1.067  1.2505  0.0278  1.6961
  772MOL0     H 6535   9.779   9.919   1.085 -0.7463  1.4725 -0.8569
  772MOL0     H 6536   9.864  10.053   1.177  0.3963  0.8191  0.3170
  773MOL0     O 6537   1.099  11.096   7.527 -0.0767 -0.2406  0.4962
  773MOL0     C 6538   1.172  11.197   7.517 -0.3614 -0.1523  0.0230
  773MOL0     O 6539   1.131  11.320   7.540 -0.1861  0.2391 -0.3957
  773MOL0     C 6540   1.000  11.333   7.577 -0.0275 -0.2203  0.1094
  773MOL0     C 6541   0.909  11.403   7.492  0.2625 -0.1280  0.4610
  773MOL0     C 6542   0.783  11.450   7.530  0.3114  0.4242 -0.8736
  773MOL0     C 6543   0.730  11.412   7.656  0.1103  0.5582  0.5457
  773MOL0     O 6544   0.603  11.460   7.682 -0.0379  0.0331 -0.6938
  773MOL0     C 6545   0.562  11.450   7.814  0.6507 -0.5284 -0.5717
  773MOL0     C 6546   0.426  11.515   7.820 -0.0651 -0.3478 -0.0390
  773MOL0     C 6547   0.311  11.436   7.755 -0.3612 -0.0133  0.2864
  773MOL0     C 6548   0.172  11.508   7.763 -0.2543 -0.0821 -0.0601
  773MOL0     C 6549   0.058  11.419   7.711  0.5720  0.2364 -0.2496
  773MOL0     C 6550  -0.076  11.489   7.707 -0.9582 -0.4914  0.2524
  773MOL0     C 6551  -0.199  11.401   7.675  0.1113  0.5432 -0.0041
  773MOL0     C 6552  -0.335  11.481   7.654 -0.3169  0.2483 -0.0146
  773MOL0     N 6553  -0.418  11.408   7.552 -0.2791  0.5201 -0.0512
  773MOL0     C 6554  -0.541  11.354   7.576  0.0964 -0.5593  0.2737
  773MOL0     C 6555  -0.573  11.290   7.461 -0.7699  0.6213 -0.1859
  773MOL0     C 6556  -0.693  11.206   7.425 -0.0738 -0.0504 -0.0288
  773MOL0     C 6557  -0.679  11.061   7.461  0.5118 -0.5741 -0.3407
  773MOL0     C 6558  -0.664  11.053   7.619  0.8544  0.8076 -0.1572
  773MOL0     C 6559  -0.609  10.920   7.644  0.0025 -0.6385 -0.1631
  773MOL0     O 6560  -0.582  10.903   7.783  0.7248 -0.0091 -0.1861
  773MOL0     C 6561  -0.451  10.920   7.836  0.1209 -0.8786 -0.1317
  773MOL0     C 6562  -0.426  10.866   7.957  0.0011 -0.1316 -0.4077
  773MOL0     C 6563  -0.299  10.877   8.020 -0.6059 -0.2503 -0.3914
  773MOL0     C 6564  -0.288  10.814   8.154 -0.0304  0.0481 -0.5976
  773MOL0     C 6565  -0.195  10.957   7.959  0.9706 -0.8173  0.0047
  773MOL0     C 6566  -0.062  10.995   8.023  0.5803  0.0734  0.8767
  773MOL0     O 6567   0.014  11.074   7.951 -0.4157 -0.1937  0.5284
  773MOL0     C 6568   0.121  11.137   8.014  0.5451  1.0855 -0.0535
  773MOL0     C 6569   0.100  11.274   8.046 -0.6010  0.0479 -0.5935
  773MOL0     C 6570   0.223  11.346   8.096  0.3567 -0.4119  1.0045
  773MOL0     C 6571   0.346  11.283   8.117  0.4113  0.1978 -0.2130
  773MOL0     O 6572   0.445  11.367   8.160 -0.8792  0.6915  0.3831
  773MOL0     C 6573   0.514  11.315   8.269 -0.2909 -0.3033  0.2843
  773MOL0     C 6574   0.610  11.435   8.308  0.1502 -0.6554 -0.2343
  773MOL0     C 6575   0.688  11.397   8.436  1.0112 -0.5818 -0.3219
  773MOL0     C 6576   0.812  11.486   8.466  0.7673 -0.0178  1.1072
  773MOL0     C 6577   0.879  11.429   8.589 -0.0884 -0.5944  0.3581
  773MOL0     C 6578   0.978  11.521   8.663  0.1523  0.4898  0.3769
  773MOL0     C 6579   1.086  11.548   8.558 -0.5814  0.3704 -0.4532
  773MOL0     C 6580   1.193  11.638   8.606 -0.2748 -0.5457 -0.0229
  773MOL0    Cl 6581   1.293  11.576   8.742  0.4296  0.3591 -0.1259
  773MOL0     C 6582   0.349  11.140   8.098 -0.1764  0.1641 -0.0257
  773MOL0     C 6583   0.241  11.073   8.043  0.3758  0.4405  0.3311
  773MOL0     O 6584  -0.025  10.942   8.123 -0.6183  0.0344  0.5020
  773MOL0     C 6585  -0.226  11.021   7.833  0.3154  0.2036 -0.2369
  773MOL0     C 6586  -0.350  11.002   7.775 -0.4881  0.2987  0.2131
  773MOL0     N 6587  -0.460  11.302   7.379  1.0530  0.0349 -0.2832
  773MOL0     N 6588  -0.372  11.377   7.431 -0.3742 -0.3034  0.5953
  773MOL0     C 6589   0.817  11.339   7.739  0.2967  0.7508 -0.3805
  773MOL0     C 6590   0.946  11.307   7.702  0.4526 -0.0327 -0.0089
  773MOL0     C 6591   1.298  11.165   7.453 -0.4037 -0.1469 -0.7255
  773MOL0     C 6592   1.361  11.265   7.360  0.0967  0.2511 -0.9833
  773MOL0     C 6593   1.478  11.235   7.300  0.4611  0.3729 -0.3185
  773MOL0     C 6594   1.539  11.107   7.311  0.9125 -0.4016 -0.0182
  773MOL0     O 6595   1.652  11.076   7.257 -0.8651  0.4498 -0.2970
  773MOL0     C 6596   1.677  11.121   7.122  0.9875 -0.8513  0.0474
  773MOL0     C 6597   1.782  11.032   7.059  0.0370  0.0719  0.0181
  773MOL0     C 6598   1.923  11.055   7.131 -0.7495 -0.2758  0.3190
  773MOL0     C 6599   2.035  10.998   7.038  0.3153  0.6217 -0.4096
  773MOL0     C 6600   2.160  11.031   7.104 -0.2411  0.0750 -0.5071
  773MOL0     C 6601   2.265  11.073   7.152  0.5262 -0.4658  0.2796
  773MOL0     C 6602   1.477  11.011   7.390 -0.2738 -0.8020 -0.9045
  773MOL0     C 6603   1.366  11.032   7.472 -0.9195 -0.2833  0.3625
  773MOL0     C 6604   1.307  10.909   7.546 -0.8352  0.5977  0.8952
  773MOL0     H 6605   0.966  11.436   7.406  1.2679  0.5304  1.3533
  773MOL0     H 6606   0.719  11.508   7.465 -1.5549  0.6072  1.0305
  773MOL0     H 6607   0.625  11.500   7.888  0.4299  1.1818 -1.4906
  773MOL0     H 6608   0.562  11.344   7.842  0.3091 -0.6817 -1.1467
  773MOL0     H 6609   0.400  11.538   7.924 -1.3382  0.4986 -0.5084
  773MOL0     H 6610   0.431  11.609   7.764 -2.0680 -0.6448 -0.8181
  773MOL0     H 6611   0.340  11.431   7.650 -0.0581  2.4355  0.1901
  773MOL0     H 6612   0.304  11.340   7.808 -0.2484  0.2724  0.8239
  773MOL0     H 6613   0.146  11.524   7.868  1.1512 -3.1348  0.8569
  773MOL0     H 6614   0.164  11.601   7.705 -3.4940 -2.2432 -3.5293
  773MOL0     H 6615   0.047  11.322   7.761 -1.6881  0.9934  0.8672
  773MOL0     H 6616   0.080  11.400   7.606 -0.8530 -0.5706 -0.4223
  773MOL0     H 6617  -0.096  11.543   7.799  0.4408  1.1741 -0.3564
  773MOL0     H 6618  -0.076  11.571   7.634 -0.7565  0.8945  1.7409
  773MOL0     H 6619  -0.217  11.320   7.746  2.3317  0.1626  0.2131
  773MOL0     H 6620  -0.170  11.346   7.585  1.5470  0.4645  0.4845
  773MOL0     H 6621  -0.387  11.505   7.748  0.3455  1.3375  0.0906
  773MOL0     H 6622  -0.302  11.577   7.613  1.9337 -0.4477  0.0257
  773MOL0     H 6623  -0.600  11.355   7.667 -1.2010  0.5396 -0.5418
  773MOL0     H 6624  -0.720  11.220   7.320 -0.6921 -1.9807 -0.1653
  773MOL0     H 6625  -0.777  11.241   7.485  1.6661  1.0535  1.8597
  773MOL0     H 6626  -0.762  11.002   7.422 -1.3765  1.1517  0.8419
  773MOL0     H 6627  -0.593  11.025   7.405  0.3668  0.7701 -1.5072
  773MOL0     H 6628  -0.589  11.121   7.661  0.5661  0.0142  1.7329
  773MOL0     H 6629  -0.760  11.063   7.671  1.8753 -1.0687  2.2626
  773MOL0     H 6630  -0.687  10.845   7.626  1.9164 -2.3657 -1.8999
  773MOL0     H 6631  -0.519  10.902   7.584  0.1392 -0.5988  0.0295
  773MOL0     H 6632  -0.501  10.803   8.002  0.3313  0.4186  0.9732
  773MOL0     H 6633  -0.317  10.899   8.217 -2.8287  0.2077 -1.9488
  773MOL0     H 6634  -0.189  10.773   8.173 -0.7256 -1.5986 -0.3549
  773MOL0     H 6635  -0.360  10.733   8.167 -0.5866  0.6687  0.3589
  773MOL0     H 6636   0.007  11.324   8.023  0.1341  0.7622 -2.1950
  773MOL0     H 6637   0.220  11.453   8.117  2.0235  0.3297 -1.9444
  773MOL0     H 6638   0.440  11.299   8.348  0.4648 -1.1776  0.8286
  773MOL0     H 6639   0.574  11.227   8.244  1.8249  1.4020 -1.0544
  773MOL0     H 6640   0.690  11.448   8.234  0.4217  1.0581  0.3374
  773MOL0     H 6641   0.547  11.523   8.320 -1.2482 -1.6262 -0.1710
  773MOL0     H 6642   0.712  11.290   8.440 -0.0440 -0.8042  2.5256
  773MOL0     H 6643   0.622  11.417   8.521 -0.8938 -0.1023 -1.8196
  773MOL0     H 6644   0.781  11.589   8.486  0.6519  0.3221 -0.6690
  773MOL0     H 6645   0.871  11.484   8.374  0.4365 -1.4810  0.8949
  773MOL0     H 6646   0.804  11.403   8.664  0.4016 -2.1792  0.3286
  773MOL0     H 6647   0.933  11.339   8.557 -1.1897 -0.3709 -2.4418
  773MOL0     H 6648   1.024  11.476   8.751 -1.5375 -2.2805 -0.0486
  773MOL0     H 6649   0.926  11.613   8.690 -0.3856  0.0467  0.8880
  773MOL0     H 6650   1.052  11.604   8.470  2.8386  0.2464 -2.0120
  773MOL0     H 6651   1.136  11.456   8.525  0.3405  0.9832 -0.7885
  773MOL0     H 6652   1.148  11.732   8.639  0.9849 -0.0832  0.4401
  773MOL0     H 6653   1.265  11.664   8.528  0.5746 -0.0480  0.8935
  773MOL0     H 6654   0.441  11.088   8.120 -1.3575 -2.1861 -0.2827
  773MOL0     H 6655   0.233  10.972   8.003 -0.2984  0.6385 -0.0532
  773MOL0     H 6656  -0.153  11.088   7.788  1.5041 -0.8182  0.0929
  773MOL0     H 6657  -0.364  11.065   7.688 -0.2813  2.2655  1.5429
  773MOL0     H 6658   0.783  11.311   7.838 -1.3308  1.6798 -0.6382
  773MOL0     H 6659   1.010  11.268   7.781 -0.9199 -1.7411  0.3367
  773MOL0     H 6660   1.309  11.360   7.351  2.6794  1.7965 -0.8902
  773MOL0     H 6661   1.516  11.311   7.233  1.3947  0.8484  0.7171
  773MOL0     H 6662   1.588  11.115   7.057  1.9440 -1.9523 -1.2231
  773MOL0     H 6663   1.719  11.222   7.132  0.2416 -0.5173 -0.1188
  773MOL0     H 6664   1.790  11.059   6.953  0.4482  1.1063  0.3054
  773MOL0     H 6665   1.758  10.925   7.056  3.6065 -0.8707  0.6893
  773MOL0     H 6666   1.946  11.158   7.161  0.6192 -0.1390 -1.0931
  773MOL0     H 6667   1.925  11.000   7.226  1.4377 -1.5173 -0.3708
  773MOL0     H 6668   2.030  11.057   6.947  0.3827  2.5528  0.7794
  773MOL0     H 6669   2.032  10.891   7.018  0.1380  0.2520  1.3724
  773MOL0     H 6670   2.355  11.123   7.182  0.0910  0.1610  0.5718
  773MOL0     H 6671   1.515  10.909   7.388 -3.3532 -2.0573 -0.3860
  773MOL0     H 6672   1.226  10.872   7.482  0.2768  2.1362 -1.5526
  773MOL0     H 6673   1.382  10.832   7.561  0.0623  0.1317 -4.1715
  773MOL0     H 6674   1.263  10.952   7.637 -0.1632  2.1111  0.5353
  774MOL0     O 6675   0.269   4.999   1.630 -0.7209 -0.0616 -0.5495
  774MOL0     C 6676   0.338   5.071   1.559  0.6365 -0.3791  0.3982
  774MOL0     O 6677   0.311   5.110   1.433  0.5183 -0.2773 -0.7072
  774MOL0     C 6678   0.185   5.108   1.367  1.3374  0.5403 -0.0391
  774MOL0     C 6679   0.189   5.068   1.231 -0.0053  0.0776  1.1713
  774MOL0     C 6680   0.067   5.057   1.162  0.1697 -0.7308 -0.0020
  774MOL0     C 6681  -0.053   5.085   1.221  0.5555 -1.0154 -0.7466
  774MOL0     O 6682  -0.164   5.065   1.142 -0.0979  0.2709 -0.5353
  774MOL0     C 6683  -0.283   5.142   1.175 -0.5709  0.7654  0.3966
  774MOL0     C 6684  -0.390   5.056   1.246  0.1388 -0.4628 -0.5082
  774MOL0     C 6685  -0.422   4.929   1.164  0.4166 -0.3618  0.4961
  774MOL0     C 6686  -0.549   4.870   1.229  0.2225  0.4762 -0.0552
  774MOL0     C 6687  -0.600   4.748   1.151  0.3731  0.2773  0.7929
  774MOL0     C 6688  -0.692   4.658   1.223  0.7267  0.3329 -0.9026
  774MOL0     C 6689  -0.794   4.580   1.133  0.2167  0.3685 -0.0171
  774MOL0     C 6690  -0.731   4.484   1.031  0.1920  0.5192  0.2283
  774MOL0     N 6691  -0.649   4.378   1.099  0.7869 -0.2781  0.5671
  774MOL0     C 6692  -0.515   4.371   1.128  0.9322 -0.6667 -0.6999
  774MOL0     C 6693  -0.502   4.240   1.138 -0.6530 -0.3206  0.3902
  774MOL0     C 6694  -0.376   4.171   1.191 -0.4940 -0.1533 -0.3617
  774MOL0     C 6695  -0.267   4.156   1.085 -0.0109  0.3234  0.5887
  774MOL0     C 6696  -0.146   4.090   1.147 -1.0611  0.3974 -0.8665
  774MOL0     C 6697  -0.039   4.065   1.040  0.1491 -0.1743 -0.0526
  774MOL0     O 6698   0.021   4.193   1.005  0.3879 -0.0754 -0.1814
  774MOL0     C 6699   0.139   4.231   1.055  0.4311 -0.7671 -0.7911
  774MOL0     C 6700   0.199   4.162   1.164 -0.5397 -0.0045 -0.4255
  774MOL0     C 6701   0.311   4.218   1.222 -0.3337 -0.6986 -0.4293
  774MOL0     C 6702   0.371   4.144   1.345  0.4695 -0.2861 -0.6820
  774MOL0     C 6703   0.374   4.339   1.180 -0.2843  0.4645  0.1695
  774MOL0     C 6704   0.511   4.379   1.234  0.7861  0.0681 -0.0225
  774MOL0     O 6705   0.613   4.347   1.139 -1.4485 -0.5583 -0.3814
  774MOL0     C 6706   0.732   4.401   1.169 -0.0725 -0.8256 -0.3903
  774MOL0     C 6707   0.781   4.524   1.128  0.0365  0.1039  0.0363
  774MOL0     C 6708   0.911   4.574   1.152  0.3020 -0.2984 -0.2763
  774MOL0     C 6709   0.991   4.501   1.237 -0.6498  0.2927 -0.2988
  774MOL0     O 6710   1.115   4.540   1.283  0.4779 -0.0156 -0.6289
  774MOL0     C 6711   1.205   4.595   1.190 -0.7646 -0.4191  0.7184
  774MOL0     C 6712   1.330   4.614   1.276 -0.7374 -0.2864 -0.6114
  774MOL0     C 6713   1.405   4.477   1.312  1.2792  0.2308 -0.1194
  774MOL0     C 6714   1.530   4.490   1.389  0.2668  0.1588  0.1566
  774MOL0     C 6715   1.659   4.513   1.304  0.2417  0.2041 -0.0554
  774MOL0     C 6716   1.785   4.563   1.383 -0.4605 -0.1404  0.5080
  774MOL0     C 6717   1.828   4.469   1.508  0.2530  0.3677  1.0251
  774MOL0     C 6718   1.976   4.486   1.540 -0.5533 -0.1386  0.6561
  774MOL0    Cl 6719   2.011   4.407   1.698 -0.0419  0.0915  0.2229
  774MOL0     C 6720   0.948   4.378   1.280  0.0247  0.7285 -0.4509
  774MOL0     C 6721   0.821   4.326   1.251 -0.0716 -1.7345 -0.6452
  774MOL0     O 6722   0.532   4.432   1.345 -0.9601  0.7628 -0.1488
  774MOL0     C 6723   0.319   4.398   1.061 -0.1580  0.1957  0.1487
  774MOL0     C 6724   0.202   4.347   1.004  0.1760  0.3080 -0.1251
  774MOL0     N 6725  -0.624   4.181   1.133 -0.4803  0.1529 -0.4271
  774MOL0     N 6726  -0.715   4.258   1.094  0.0423  0.2866 -0.0912
  774MOL0     C 6727  -0.058   5.114   1.359 -0.3337 -0.9923  0.1006
  774MOL0     C 6728   0.063   5.120   1.438  0.8575  0.2638  0.5656
  774MOL0     C 6729   0.463   5.127   1.612 -0.1866 -0.3286  0.0253
  774MOL0     C 6730   0.570   5.144   1.524  0.1802 -0.1664  0.2138
  774MOL0     C 6731   0.693   5.189   1.570 -0.0360  0.4145 -0.0479
  774MOL0     C 6732   0.706   5.225   1.706 -0.6331  0.0152  0.4210
  774MOL0     O 6733   0.815   5.277   1.762 -0.4377  0.6483 -0.1881
  774MOL0     C 6734   0.928   5.308   1.680  0.6804  0.2163 -0.1032
  774MOL0     C 6735   1.018   5.397   1.769  0.8785 -0.5840 -0.2779
  774MOL0     C 6736   1.129   5.462   1.694  0.2284  0.2562  0.3432
  774MOL0     C 6737   1.248   5.522   1.786  0.4427  0.1344  0.4534
  774MOL0     C 6738   1.329   5.413   1.848  0.5566  0.3038 -0.6238
  774MOL0     C 6739   1.395   5.321   1.894  0.7857 -0.1045 -0.0152
  774MOL0     C 6740   0.609   5.201   1.795 -0.0011 -0.2706  0.0413
  774MOL0     C 6741   0.479   5.164   1.748 -0.0554 -0.1851 -0.3672
  774MOL0     C 6742   0.364   5.163   1.845 -0.2765 -0.3799 -0.3716
  774MOL0     H 6743   0.282   5.051   1.179 -0.1592  3.1972 -0.3387
  774MOL0     H 6744   0.049   5.023   1.060 -1.6207 -0.0285  0.0415
  774MOL0     H 6745  -0.319   5.189   1.083  1.7448  3.8327  0.8703
  774MOL0     H 6746  -0.264   5.231   1.236  1.1579  1.4714 -1.0792
  774MOL0     H 6747  -0.362   5.023   1.347 -1.5459  1.8095  0.8095
  774MOL0     H 6748  -0.483   5.113   1.252 -0.3349 -1.3805  2.6491
  774MOL0     H 6749  -0.444   4.954   1.060  2.6148 -0.2611  0.0033
  774MOL0     H 6750  -0.333   4.866   1.159  1.0255  0.5110  0.1195
  774MOL0     H 6751  -0.530   4.826   1.327 -1.1252  0.5552  0.2534
  774MOL0     H 6752  -0.633   4.940   1.241 -1.3134 -1.1142 -1.0642
  774MOL0     H 6753  -0.513   4.693   1.112  0.3183  0.0399  0.9959
  774MOL0     H 6754  -0.656   4.781   1.063 -0.9527 -4.4174 -0.4323
  774MOL0     H 6755  -0.641   4.585   1.287 -2.6654 -1.7043 -0.2483
  774MOL0     H 6756  -0.751   4.718   1.294 -1.0062 -1.4768 -0.6941
  774MOL0     H 6757  -0.868   4.647   1.091 -0.8730 -0.5746  0.3511
  774MOL0     H 6758  -0.855   4.518   1.199  0.1689  0.1369 -0.2756
  774MOL0     H 6759  -0.816   4.437   0.980  1.8303 -1.7332 -0.6084
  774MOL0     H 6760  -0.674   4.531   0.950 -2.8954 -4.4411 -5.7084
  774MOL0     H 6761  -0.445   4.453   1.141  0.7505 -0.6106 -0.0695
  774MOL0     H 6762  -0.403   4.071   1.227 -2.3853 -0.1185 -1.5226
  774MOL0     H 6763  -0.337   4.231   1.273 -3.0182  2.4466 -0.8962
  774MOL0     H 6764  -0.317   4.094   1.010 -3.4295  0.3526  2.6031
  774MOL0     H 6765  -0.238   4.253   1.042 -1.7626 -0.4015 -2.6237
  774MOL0     H 6766  -0.108   4.151   1.229  1.3143  0.6409 -2.0393
  774MOL0     H 6767  -0.176   3.994   1.190 -1.4987  0.6664 -0.5682
  774MOL0     H 6768   0.037   3.991   1.064 -0.4005 -1.3324 -1.7184
  774MOL0     H 6769  -0.088   4.017   0.955 -0.5209 -0.5071  0.5072
  774MOL0     H 6770   0.142   4.080   1.205  1.6712 -0.5010  1.8625
  774MOL0     H 6771   0.283   4.087   1.377  0.2516 -0.3218 -1.3447
  774MOL0     H 6772   0.392   4.214   1.427 -1.4332  0.5972 -0.8749
  774MOL0     H 6773   0.464   4.090   1.327  1.0579  0.9858 -1.5667
  774MOL0     H 6774   0.714   4.581   1.064 -0.3613 -0.2718  0.1151
  774MOL0     H 6775   0.935   4.669   1.105 -1.8129 -0.7623 -2.4672
  774MOL0     H 6776   1.230   4.522   1.112 -3.2557 -0.5435 -0.0349
  774MOL0     H 6777   1.180   4.686   1.135  1.0481  0.9388  2.0042
  774MOL0     H 6778   1.398   4.679   1.220 -2.3743  0.4372 -1.8551
  774MOL0     H 6779   1.310   4.664   1.372 -0.6588  1.2286 -1.3497
  774MOL0     H 6780   1.416   4.413   1.224  0.1034 -0.8893  0.5056
  774MOL0     H 6781   1.328   4.424   1.369 -2.1819  0.7542 -3.8346
  774MOL0     H 6782   1.542   4.399   1.449  0.6694 -0.2741 -0.5566
  774MOL0     H 6783   1.517   4.563   1.469  1.6853  0.7182 -0.0806
  774MOL0     H 6784   1.685   4.416   1.262  1.5654 -0.1764  1.5110
  774MOL0     H 6785   1.637   4.578   1.219 -0.7710  0.9440  0.7348
  774MOL0     H 6786   1.772   4.669   1.407 -2.0519  0.0391 -0.9523
  774MOL0     H 6787   1.863   4.552   1.307  0.0958 -0.1265  1.0742
  774MOL0     H 6788   1.812   4.365   1.481 -0.5992  0.6716  0.3095
  774MOL0     H 6789   1.764   4.494   1.593  0.7083  0.0520  1.4680
  774MOL0     H 6790   2.011   4.590   1.541  1.5038 -0.7723 -0.4511
  774MOL0     H 6791   2.033   4.434   1.462 -0.7611  1.8654 -0.9251
  774MOL0     H 6792   1.017   4.332   1.351 -1.0549 -0.6792 -0.2781
  774MOL0     H 6793   0.800   4.223   1.278 -0.6813 -1.7714 -1.2232
  774MOL0     H 6794   0.372   4.486   1.025 -2.9572  1.8474 -0.2149
  774MOL0     H 6795   0.149   4.400   0.926 -2.3221 -1.1882  0.4703
  774MOL0     H 6796  -0.156   5.120   1.405 -0.5967 -1.7387 -0.3426
  774MOL0     H 6797   0.072   5.142   1.544 -2.1032  2.1149  0.5566
  774MOL0     H 6798   0.544   5.119   1.421  0.7016 -3.7901  0.8441
  774MOL0     H 6799   0.770   5.187   1.493 -1.1171 -0.1320 -1.1563
  774MOL0     H 6800   0.978   5.213   1.658  1.5193  0.0228  2.3147
  774MOL0     H 6801   0.898   5.360   1.588 -1.7829 -0.6595  0.1167
  774MOL0     H 6802   1.069   5.336   1.844  1.4055 -0.6944 -0.7176
  774MOL0     H 6803   0.953   5.462   1.829 -0.9515 -1.0960 -1.6096
  774MOL0     H 6804   1.178   5.396   1.621  0.6261  0.2942  0.5722
  774MOL0     H 6805   1.066   5.536   1.645 -1.9313 -2.2761 -1.0086
  774MOL0     H 6806   1.207   5.583   1.868 -1.3390  1.8054 -1.5680
  774MOL0     H 6807   1.311   5.597   1.738 -0.9199  0.4468 -0.9170
  774MOL0     H 6808   1.441   5.230   1.929  0.2552 -0.2672  0.2740
  774MOL0     H 6809   0.630   5.227   1.898 -0.6619  1.0732 -0.1273
  774MOL0     H 6810   0.276   5.215   1.806 -0.6525  0.1825  1.1494
  774MOL0     H 6811   0.336   5.063   1.876 -1.7989  0.6888  2.0006
  774MOL0     H 6812   0.400   5.209   1.938 -0.4401 -2.2994  0.6826
  775MOL0     O 6813   5.841   8.271   9.534  0.6451 -0.2070 -0.6999
  775MOL0     C 6814   5.915   8.351   9.585 -0.1513 -0.2339 -0.3521
  775MOL0     O 6815   6.036   8.323   9.648 -0.3259  0.5825 -0.2694
  775MOL0     C 6816   6.074   8.191   9.674 -1.1104 -0.5988 -0.0389
  775MOL0     C 6817   6.014   8.114   9.774  0.2439  0.8836  0.2694
  775MOL0     C 6818   6.077   7.991   9.808 -0.0157  0.2622 -0.2150
  775MOL0     C 6819   6.183   7.938   9.740  0.4605  0.0365  0.0421
  775MOL0     O 6820   6.254   7.826   9.770 -0.0206  0.5699  0.5612
  775MOL0     C 6821   6.175   7.727   9.844  0.5188 -0.7614 -0.5152
  775MOL0     C 6822   6.255   7.595   9.839  0.2507  0.2456  0.5451
  775MOL0     C 6823   6.343   7.579   9.967 -0.3618  0.1101  0.7891
  775MOL0     C 6824   6.471   7.521   9.913 -0.6613 -0.0136 -1.0428
  775MOL0     C 6825   6.559   7.465  10.024  1.3535 -0.0616 -0.2936
  775MOL0     C 6826   6.581   7.577  10.131  0.8744  0.1192  0.0528
  775MOL0     C 6827   6.666   7.689  10.075  0.5013 -0.1585 -0.5834
  775MOL0     C 6828   6.596   7.829  10.089 -0.1491 -0.1131  0.0743
  775MOL0     N 6829   6.686   7.924  10.027  0.2397 -0.3073  0.9773
  775MOL0     C 6830   6.803   7.963  10.077 -0.4906 -0.3775 -0.0465
  775MOL0     C 6831   6.849   8.045   9.980  0.4146  0.2986  0.1956
  775MOL0     C 6832   6.964   8.140   9.986  0.5524  0.4071  0.7348
  775MOL0     C 6833   7.051   8.124   9.861  0.4468 -0.5106 -0.7661
  775MOL0     C 6834   7.194   8.176   9.888 -0.1782  0.3837  0.0513
  775MOL0     C 6835   7.258   8.255   9.770 -0.4184  1.1303  0.0853
  775MOL0     O 6836   7.396   8.210   9.759  0.7338 -0.2590  0.3376
  775MOL0     C 6837   7.490   8.244   9.856 -0.4304 -1.0511 -0.7012
  775MOL0     C 6838   7.470   8.334   9.964 -0.8611  0.1364  0.2197
  775MOL0     C 6839   7.569   8.351  10.064 -0.9281 -1.0711 -0.1746
  775MOL0     C 6840   7.524   8.438  10.178 -0.3955  0.5797  0.3049
  775MOL0     C 6841   7.698   8.291  10.049  0.6798  0.0161 -0.7006
  775MOL0     C 6842   7.815   8.303  10.151 -0.2345 -0.5027 -0.2493
  775MOL0     O 6843   7.927   8.233  10.128 -0.4696  0.4032 -0.8564
  775MOL0     C 6844   8.022   8.236  10.229 -0.2656 -0.4195 -0.0733
  775MOL0     C 6845   8.157   8.252  10.190  0.2859 -0.0198 -0.0677
  775MOL0     C 6846   8.261   8.251  10.283 -0.3552  0.2026  0.3684
  775MOL0     C 6847   8.232   8.230  10.423  0.6793 -0.1982 -0.1116
  775MOL0     O 6848   8.314   8.271  10.530  0.0136 -0.4220 -0.5216
  775MOL0     C 6849   8.360   8.410  10.515 -0.0460 -0.1626 -0.4245
  775MOL0     C 6850   8.458   8.452  10.626 -0.6143 -0.2130 -0.0595
  775MOL0     C 6851   8.584   8.378  10.634 -0.6610 -0.5727 -0.0287
  775MOL0     C 6852   8.679   8.432  10.736 -0.3797  0.1238  0.4772
  775MOL0     C 6853   8.809   8.348  10.766 -0.1294 -0.8726  0.4035
  775MOL0     C 6854   8.777   8.202  10.750 -0.2482  1.1160 -0.9690
  775MOL0     C 6855   8.888   8.096  10.790  0.8736 -0.6450  0.1458
  775MOL0     C 6856   8.845   7.953  10.786  0.1338  0.0189  0.6097
  775MOL0    Cl 6857   8.696   7.913  10.868  0.0177 -0.1808  0.1703
  775MOL0     C 6858   8.101   8.211  10.463  0.4267 -0.1682  0.7033
  775MOL0     C 6859   7.997   8.221  10.374 -0.0490 -0.4888 -0.5747
  775MOL0     O 6860   7.787   8.356  10.262  0.4158  0.6612  0.3432
  775MOL0     C 6861   7.715   8.215   9.931  0.5772  0.3961  0.2223
  775MOL0     C 6862   7.606   8.185   9.840 -0.0794  0.2226 -0.0668
  775MOL0     N 6863   6.764   8.045   9.868  0.5185 -0.1044  0.0059
  775MOL0     N 6864   6.657   7.988   9.905 -0.1056  0.0575  0.1880
  775MOL0     C 6865   6.241   8.021   9.635  0.1266 -0.8314  0.6886
  775MOL0     C 6866   6.186   8.139   9.595  0.1034  0.1766 -0.4369
  775MOL0     C 6867   5.889   8.499   9.540  0.1379 -0.3576 -0.5601
  775MOL0     C 6868   5.977   8.597   9.594 -0.2661  1.6283  1.0481
  775MOL0     C 6869   5.971   8.731   9.552  0.4293  0.3259  0.1568
  775MOL0     C 6870   5.863   8.769   9.476 -0.5649  0.8519 -0.0226
  775MOL0     O 6871   5.860   8.899   9.450  0.2325 -0.7938  0.2159
  775MOL0     C 6872   5.760   8.971   9.521 -0.1120 -0.3807 -0.6784
  775MOL0     C 6873   5.750   9.116   9.486  0.1897  0.0543  0.0334
  775MOL0     C 6874   5.746   9.147   9.340  0.0389 -0.2424 -0.2581
  775MOL0     C 6875   5.740   9.297   9.299 -0.7865 -0.5189  0.0956
  775MOL0     C 6876   5.873   9.369   9.303 -0.1933 -0.3149  0.2550
  775MOL0     C 6877   5.976   9.428   9.289 -0.6040 -0.4043  0.5696
  775MOL0     C 6878   5.782   8.680   9.419  0.3222  0.8423  0.0978
  775MOL0     C 6879   5.792   8.541   9.445 -0.2160  0.0163  0.0786
  775MOL0     C 6880   5.689   8.454   9.384  0.8118  0.3356 -0.0891
  775MOL0     H 6881   5.930   8.152   9.831 -0.8734 -1.1857  0.1186
  775MOL0     H 6882   6.045   7.936   9.896 -1.3479  1.8501  0.3312
  775MOL0     H 6883   6.085   7.714   9.784  0.7158 -0.5111 -0.8689
  775MOL0     H 6884   6.146   7.760   9.944  0.6356  0.4565 -0.8748
  775MOL0     H 6885   6.194   7.506   9.822 -0.9324  1.2670 -0.8257
  775MOL0     H 6886   6.317   7.593   9.749  1.3608  1.5988  1.2450
  775MOL0     H 6887   6.369   7.676  10.012  0.5377  0.8574 -1.2168
  775MOL0     H 6888   6.304   7.509  10.041  0.0512 -0.3942  0.5330
  775MOL0     H 6889   6.447   7.440   9.844 -3.4318 -1.0221  0.9211
  775MOL0     H 6890   6.527   7.595   9.855 -1.8379  1.2585 -0.6127
  775MOL0     H 6891   6.656   7.436   9.982  1.5726  2.9054 -2.1205
  775MOL0     H 6892   6.507   7.378  10.067 -0.8469  2.1535  1.8745
  775MOL0     H 6893   6.485   7.615  10.167 -0.7636  2.4561 -5.6748
  775MOL0     H 6894   6.636   7.548  10.220 -1.2323  2.9015  2.4734
  775MOL0     H 6895   6.689   7.671   9.970  0.4048  0.7756 -0.7742
  775MOL0     H 6896   6.760   7.685  10.131 -0.1783 -2.6158  0.5461
  775MOL0     H 6897   6.503   7.828  10.031  0.6050  1.5104 -1.2498
  775MOL0     H 6898   6.591   7.843  10.197  4.6846 -0.0901  0.5376
  775MOL0     H 6899   6.843   7.953  10.178 -1.5681 -2.9587  0.2048
  775MOL0     H 6900   7.030   8.113  10.069 -1.9440 -2.6284  1.9215
  775MOL0     H 6901   6.929   8.241  10.011  0.1910  0.8787 -1.4869
  775MOL0     H 6902   7.057   8.015   9.857  2.4262 -0.3956 -1.9203
  775MOL0     H 6903   7.003   8.167   9.772 -1.6234  1.0868  0.9703
  775MOL0     H 6904   7.200   8.242   9.975  1.5056 -0.0704  0.3205
  775MOL0     H 6905   7.258   8.088   9.903 -2.1445 -1.3625 -1.2981
  775MOL0     H 6906   7.195   8.229   9.684  0.1630  1.0229 -0.3163
  775MOL0     H 6907   7.258   8.360   9.801  2.7363  0.5747  2.4033
  775MOL0     H 6908   7.376   8.387   9.961 -0.2301  1.2705 -2.3845
  775MOL0     H 6909   7.593   8.522  10.191 -0.1459  0.2601  1.1429
  775MOL0     H 6910   7.518   8.373  10.266 -2.2514 -1.7767 -1.4327
  775MOL0     H 6911   7.420   8.470  10.171 -1.2168 -2.1847 -1.3986
  775MOL0     H 6912   8.197   8.269  10.090  0.8179  1.2054  0.3262
  775MOL0     H 6913   8.358   8.274  10.239  0.4227 -1.6731  1.0121
  775MOL0     H 6914   8.420   8.423  10.424  0.9446  1.9634  0.4738
  775MOL0     H 6915   8.276   8.480  10.517  1.1493  1.3446  2.4576
  775MOL0     H 6916   8.491   8.551  10.591 -0.1953 -0.5351 -0.5920
  775MOL0     H 6917   8.404   8.461  10.721 -1.0288  0.4984 -0.3483
  775MOL0     H 6918   8.630   8.386  10.535  1.2761  0.7270  0.9251
  775MOL0     H 6919   8.552   8.274  10.650  0.3791 -1.3123 -2.2952
  775MOL0     H 6920   8.623   8.452  10.828  0.4241 -1.0326  1.2521
  775MOL0     H 6921   8.703   8.530  10.694 -0.6178  1.0187  2.3468
  775MOL0     H 6922   8.887   8.379  10.697 -0.2542 -2.8810 -0.7004
  775MOL0     H 6923   8.841   8.366  10.869  0.2416 -0.8368  0.2831
  775MOL0     H 6924   8.755   8.192  10.644 -0.7346 -1.7295 -0.6656
  775MOL0     H 6925   8.683   8.173  10.799  0.6228 -0.9489 -0.4373
  775MOL0     H 6926   8.919   8.110  10.894  0.1065  0.2835  0.2720
  775MOL0     H 6927   8.977   8.112  10.729  0.0675 -0.3076 -0.9781
  775MOL0     H 6928   8.930   7.902  10.834  2.8835  2.3759 -1.3983
  775MOL0     H 6929   8.845   7.927  10.680  1.5539  1.0195  0.3219
  775MOL0     H 6930   8.077   8.203  10.568 -0.5329  3.3117  0.8641
  775MOL0     H 6931   7.898   8.194  10.407  0.3056  0.0500  0.9912
  775MOL0     H 6932   7.812   8.167   9.916  0.1998 -0.2810 -0.1228
  775MOL0     H 6933   7.629   8.125   9.753  2.0370  2.1103 -0.8923
  775MOL0     H 6934   6.336   7.993   9.592 -1.0285 -2.2206 -1.1315
  775MOL0     H 6935   6.225   8.211   9.524 -2.9641  0.5708 -1.8439
  775MOL0     H 6936   6.050   8.577   9.672 -0.9202 -1.2591  1.0474
  775MOL0     H 6937   6.045   8.807   9.576  1.9978 -0.1502 -2.6485
  775MOL0     H 6938   5.662   8.929   9.497 -0.8044  0.8762 -0.1400
  775MOL0     H 6939   5.781   8.962   9.628  1.1850  1.2248 -0.7596
  775MOL0     H 6940   5.833   9.159   9.543 -0.5234 -0.1216  1.2374
  775MOL0     H 6941   5.656   9.158   9.524  0.3798  2.9845 -2.3442
  775MOL0     H 6942   5.829   9.102   9.286 -0.7752  0.8753 -2.5898
  775MOL0     H 6943   5.657   9.091   9.311  0.8494 -1.8910  0.3170
  775MOL0     H 6944   5.680   9.340   9.379 -1.3034 -2.6731  0.9466
  775MOL0     H 6945   5.693   9.313   9.202  1.5913 -1.8797 -1.3996
  775MOL0     H 6946   6.059   9.493   9.270  0.9103 -2.2015  0.7427
  775MOL0     H 6947   5.697   8.709   9.358  0.6725  0.1622 -0.7463
  775MOL0     H 6948   5.718   8.419   9.284 -4.3258 -0.1565 -1.7008
  775MOL0     H 6949   5.657   8.364   9.438  0.8088 -0.2894 -1.1056
  775MOL0     H 6950   5.605   8.523   9.372 -0.0658 -0.6436  0.3076
  776MOL0     O 6951   5.086   0.489   2.345 -0.2909  0.4892 -0.1529
  776MOL0     C 6952   5.056   0.587   2.412  0.7201 -0.5888  0.9082
  776MOL0     O 6953   5.133   0.653   2.500  0.0758 -0.2111 -0.4627
  776MOL0     C 6954   5.268   0.633   2.485  0.3587 -0.2916  0.2478
  776MOL0     C 6955   5.344   0.540   2.561  0.0900  0.4274 -0.1511
  776MOL0     C 6956   5.485   0.522   2.559  0.5788 -0.0133  0.3562
  776MOL0     C 6957   5.557   0.601   2.470  0.2827  0.1439  0.5033
  776MOL0     O 6958   5.691   0.599   2.456  0.6008 -0.7131 -0.3985
  776MOL0     C 6959   5.763   0.491   2.521  0.0393  0.2097  0.1517
  776MOL0     C 6960   5.905   0.466   2.472  0.1159 -0.2192  0.8163
  776MOL0     C 6961   5.895   0.422   2.321  0.6051  0.6731  0.1902
  776MOL0     C 6962   6.016   0.451   2.237  0.0610 -0.3666  0.6352
  776MOL0     C 6963   6.038   0.358   2.114 -0.2502 -0.6059 -0.3736
  776MOL0     C 6964   6.156   0.389   2.019 -0.4862 -0.1878  0.0440
  776MOL0     C 6965   6.264   0.469   2.087 -0.6667  0.3802  0.1195
  776MOL0     C 6966   6.394   0.482   1.998  0.5951  0.6230 -0.1684
  776MOL0     N 6967   6.494   0.561   2.068 -0.4841  0.2530  0.7795
  776MOL0     C 6968   6.525   0.694   2.050  0.5476 -0.3036 -1.3408
  776MOL0     C 6969   6.644   0.705   2.116 -0.4941  0.2065  0.6615
  776MOL0     C 6970   6.727   0.834   2.117  0.0379  0.7044  0.3927
  776MOL0     C 6971   6.667   0.958   2.192 -0.4467  0.7065 -0.1720
  776MOL0     C 6972   6.733   1.088   2.155  0.7246 -0.6683 -0.9344
  776MOL0     C 6973   6.688   1.207   2.241 -0.1175  0.2671 -0.7205
  776MOL0     O 6974   6.774   1.321   2.259  0.0814  0.2022  0.2701
  776MOL0     C 6975   6.915   1.320   2.281  0.5262 -0.1177  0.3184
  776MOL0     C 6976   6.984   1.220   2.347 -0.3694 -0.7669  0.2394
  776MOL0     C 6977   7.125   1.221   2.361  0.3706  0.4623  0.3076
  776MOL0     C 6978   7.173   1.103   2.430 -0.5580 -0.0254  0.0394
  776MOL0     C 6979   7.204   1.334   2.332 -0.0151 -0.0163 -0.0738
  776MOL0     C 6980   7.352   1.345   2.342 -0.6371  0.6019 -0.0573
  776MOL0     O 6981   7.422   1.397   2.238  0.0869  0.5441 -0.4024
  776MOL0     C 6982   7.563   1.410   2.251  0.1400 -0.9458  0.4384
  776MOL0     C 6983   7.661   1.362   2.165  0.2810 -0.6978 -0.2633
  776MOL0     C 6984   7.797   1.385   2.191  0.4777 -0.5324  0.0301
  776MOL0     C 6985   7.833   1.444   2.311 -1.2012  0.1876 -0.0287
  776MOL0     O 6986   7.973   1.447   2.336 -0.2676 -0.3793 -0.1419
  776MOL0     C 6987   8.018   1.523   2.446  0.1435 -0.5318 -0.0097
  776MOL0     C 6988   8.163   1.492   2.464 -0.2101 -0.3544 -0.1783
  776MOL0     C 6989   8.222   1.581   2.578  0.8641  0.2482  0.4435
  776MOL0     C 6990   8.375   1.609   2.573  0.2029  0.0197  0.4910
  776MOL0     C 6991   8.409   1.702   2.696 -0.0870 -0.6368 -0.2335
  776MOL0     C 6992   8.553   1.686   2.740  0.5079 -0.2833  0.3022
  776MOL0     C 6993   8.650   1.701   2.621  0.5524  0.5487 -0.4315
  776MOL0     C 6994   8.629   1.829   2.538 -0.2495  0.9165  0.4860
  776MOL0    Cl 6995   8.764   1.840   2.415  0.4880  0.1916 -0.1276
  776MOL0     C 6996   7.738   1.512   2.389 -0.3788  0.1069 -0.0598
  776MOL0     C 6997   7.606   1.489   2.358  0.9821  0.3934 -0.0431
  776MOL0     O 6998   7.398   1.302   2.449  0.5399  0.1592 -0.1880
  776MOL0     C 6999   7.130   1.445   2.285 -0.6113 -0.1378  0.9615
  776MOL0     C 7000   6.993   1.437   2.260  0.2405  0.6553  0.0463
  776MOL0     N 7001   6.681   0.580   2.167 -0.2735  0.3457  0.1253
  776MOL0     N 7002   6.593   0.504   2.140  0.5352  0.0414  0.2601
  776MOL0     C 7003   5.489   0.688   2.388  0.0908  0.4416  0.1269
  776MOL0     C 7004   5.346   0.702   2.391 -0.5037 -0.5249  0.3830
  776MOL0     C 7005   4.916   0.640   2.393 -1.7433 -0.3066 -0.1775
  776MOL0     C 7006   4.862   0.699   2.506  0.2160 -0.3285  0.5627
  776MOL0     C 7007   4.727   0.749   2.491 -0.2666  0.8529  0.0157
  776MOL0     C 7008   4.663   0.757   2.371  0.6003 -0.2904  0.3745
  776MOL0     O 7009   4.543   0.832   2.353  0.6402  0.1408  0.9426
  776MOL0     C 7010   4.570   0.965   2.306 -0.6024 -0.1294  0.3796
  776MOL0     C 7011   4.542   0.988   2.158 -0.1823  0.6588  0.8967
  776MOL0     C 7012   4.395   0.983   2.111 -0.0359  0.1135 -0.2181
  776MOL0     C 7013   4.331   1.125   2.084  0.8021 -0.0049 -0.0181
  776MOL0     C 7014   4.343   1.230   2.191  0.7951 -0.1652  0.0987
  776MOL0     C 7015   4.345   1.309   2.283 -0.1279 -0.6561 -0.2408
  776MOL0     C 7016   4.720   0.688   2.258  0.3307 -0.2108 -0.0282
  776MOL0     C 7017   4.842   0.620   2.268 -0.0481 -0.4083 -0.8821
  776MOL0     C 7018   4.899   0.555   2.151  0.7728 -0.2880  0.6296
  776MOL0     H 7019   5.287   0.471   2.623 -0.9306  0.1463 -1.3721
  776MOL0     H 7020   5.512   0.437   2.621  0.3700 -0.6078 -0.3488
  776MOL0     H 7021   5.711   0.400   2.490  0.3462  1.0558 -3.3337
  776MOL0     H 7022   5.750   0.506   2.628 -0.9160  2.3732 -0.2229
  776MOL0     H 7023   5.965   0.557   2.484  1.2498 -1.0453  1.7600
  776MOL0     H 7024   5.949   0.391   2.539  0.4790 -0.2900  0.5072
  776MOL0     H 7025   5.863   0.317   2.317  1.5962  0.4080 -1.1704
  776MOL0     H 7026   5.819   0.480   2.269  1.3899  0.9540 -0.6514
  776MOL0     H 7027   6.010   0.557   2.211  0.7300 -0.8617 -1.8103
  776MOL0     H 7028   6.108   0.444   2.296 -1.3340 -1.0681  2.8271
  776MOL0     H 7029   5.955   0.350   2.044  0.3871  3.4573 -1.8788
  776MOL0     H 7030   6.055   0.258   2.154 -1.8598 -1.0326 -0.7037
  776MOL0     H 7031   6.197   0.295   1.980  0.7227 -0.0662  0.9690
  776MOL0     H 7032   6.124   0.452   1.935 -0.2598  2.7517  1.9934
  776MOL0     H 7033   6.289   0.408   2.174  1.8331 -0.4506 -1.0484
  776MOL0     H 7034   6.231   0.571   2.107 -0.9968  0.8395 -2.4344
  776MOL0     H 7035   6.428   0.381   1.976  0.4970  0.1818  1.6159
  776MOL0     H 7036   6.378   0.528   1.899  2.1313 -0.3509 -0.9112
  776MOL0     H 7037   6.467   0.771   2.002 -1.4288 -0.7518  0.1950
  776MOL0     H 7038   6.732   0.851   2.009 -0.3379  0.1708  0.2879
  776MOL0     H 7039   6.828   0.815   2.155 -0.2158 -0.5953  0.4723
  776MOL0     H 7040   6.558   0.969   2.184 -0.3623  0.6880 -1.4493
  776MOL0     H 7041   6.698   0.957   2.297 -1.1267  1.9702  0.0645
  776MOL0     H 7042   6.840   1.065   2.168  0.5528 -2.0071 -1.6296
  776MOL0     H 7043   6.705   1.109   2.052 -2.3883  0.8350  0.0993
  776MOL0     H 7044   6.595   1.235   2.191 -0.9045  1.4658  1.2959
  776MOL0     H 7045   6.676   1.164   2.341  2.7926 -0.2243 -0.4800
  776MOL0     H 7046   6.923   1.142   2.392 -0.9604 -0.8120 -0.5984
  776MOL0     H 7047   7.114   1.012   2.413  1.9812 -1.2789 -3.2906
  776MOL0     H 7048   7.181   1.123   2.537 -0.9389  2.9478 -0.4098
  776MOL0     H 7049   7.274   1.067   2.408 -0.0268  1.1078  0.5465
  776MOL0     H 7050   7.639   1.311   2.072  0.0734 -1.1850  0.0490
  776MOL0     H 7051   7.872   1.349   2.122  0.3952  0.2489 -0.4786
  776MOL0     H 7052   8.011   1.630   2.425  0.7370 -0.4543  0.1726
  776MOL0     H 7053   7.964   1.502   2.539 -2.0390 -0.8164 -1.2822
  776MOL0     H 7054   8.172   1.383   2.474 -2.7107 -0.5242  0.9232
  776MOL0     H 7055   8.216   1.517   2.372 -0.8664  0.2511 -0.3995
  776MOL0     H 7056   8.188   1.533   2.670 -2.3914  1.1737 -0.1529
  776MOL0     H 7057   8.182   1.682   2.570  2.6007  0.8944 -0.9085
  776MOL0     H 7058   8.415   1.651   2.481  0.5781 -1.0155  0.1674
  776MOL0     H 7059   8.424   1.512   2.581 -2.4759 -1.8270 -2.8945
  776MOL0     H 7060   8.385   1.806   2.670 -0.7085 -1.5090 -3.7244
  776MOL0     H 7061   8.345   1.679   2.781  0.3165 -0.1541  0.2038
  776MOL0     H 7062   8.558   1.586   2.784 -2.5607 -0.2887  0.8977
  776MOL0     H 7063   8.573   1.754   2.823  0.1690 -0.8753  0.8788
  776MOL0     H 7064   8.638   1.616   2.553 -2.8535 -2.2464  3.2237
  776MOL0     H 7065   8.757   1.695   2.642  1.6148  1.0786 -4.6059
  776MOL0     H 7066   8.635   1.922   2.595  0.2001  0.5544  1.0342
  776MOL0     H 7067   8.536   1.832   2.481  1.4655  0.3371 -2.5420
  776MOL0     H 7068   7.765   1.553   2.486  2.2808 -1.4335 -0.0705
  776MOL0     H 7069   7.527   1.536   2.416 -1.1997 -0.7802 -1.8679
  776MOL0     H 7070   7.174   1.543   2.275  1.7207 -0.9215  2.5967
  776MOL0     H 7071   6.949   1.524   2.213 -3.1603 -1.3122 -0.7516
  776MOL0     H 7072   5.548   0.751   2.323 -0.1633 -0.0559 -0.6015
  776MOL0     H 7073   5.307   0.778   2.324  1.0805 -0.4433 -0.4996
  776MOL0     H 7074   4.911   0.711   2.602 -0.8830  0.3188  1.0617
  776MOL0     H 7075   4.681   0.808   2.570 -2.2078 -2.5306  1.6565
  776MOL0     H 7076   4.503   1.037   2.354  0.4176 -0.4705  2.4374
  776MOL0     H 7077   4.676   0.991   2.320 -0.1969 -0.7148 -1.4008
  776MOL0     H 7078   4.613   0.933   2.096  1.4598  2.4197  1.1240
  776MOL0     H 7079   4.579   1.083   2.117  4.8572 -1.8724 -1.1726
  776MOL0     H 7080   4.406   0.937   2.013  1.1054  1.4593 -0.7553
  776MOL0     H 7081   4.333   0.922   2.177  1.0333  1.6829  2.4035
  776MOL0     H 7082   4.225   1.109   2.059  0.8108 -0.6392  0.3486
  776MOL0     H 7083   4.381   1.162   1.995 -1.4859 -0.3679 -1.5497
  776MOL0     H 7084   4.333   1.371   2.369 -1.1100 -1.0145 -0.1151
  776MOL0     H 7085   4.668   0.690   2.163  1.8452  3.9689 -0.9801
  776MOL0     H 7086   4.827   0.565   2.070  0.7850 -0.8422  0.5506
  776MOL0     H 7087   4.992   0.601   2.116  1.3367 -1.8976 -0.1039
  776MOL0     H 7088   4.919   0.449   2.171  1.2217 -0.0491  1.5192
  777MOL0     O 7089  10.503   8.221   0.610 -0.3445  0.2194 -0.5128
  777MOL0     C 7090  10.515   8.188   0.725  0.4427 -0.2828 -0.0929
  777MOL0     O 7091  10.420   8.122   0.793 -0.2013 -0.1192 -0.2164
  777MOL0     C 7092  10.312   8.076   0.721 -0.7569 -0.4044  0.3412
  777MOL0     C 7093  10.319   7.965   0.641  0.7544 -0.1699 -0.2858
  777MOL0     C 7094  10.208   7.941   0.560 -0.0857 -0.1053  0.6111
  777MOL0     C 7095  10.085   8.017   0.565 -0.6584  0.9193  0.4253
  777MOL0     O 7096   9.982   8.009   0.478 -0.5086  0.0591 -0.0089
  777MOL0     C 7097   9.975   7.905   0.377 -0.2692 -0.3339  0.4903
  777MOL0     C 7098   9.846   7.925   0.291 -0.5468  0.5270 -0.1115
  777MOL0     C 7099   9.722   7.906   0.377 -0.5231 -0.1145  0.0682
  777MOL0     C 7100   9.609   7.947   0.291 -0.7162 -0.1459  0.1742
  777MOL0     C 7101   9.472   7.964   0.350  0.7176 -0.2526  0.1649
  777MOL0     C 7102   9.413   7.848   0.429 -0.4024 -0.0480  0.6611
  777MOL0     C 7103   9.421   7.705   0.356 -0.8042 -0.4337 -0.5984
  777MOL0     C 7104   9.381   7.594   0.463 -0.1000 -0.2075  0.1018
  777MOL0     N 7105   9.458   7.598   0.594  0.1999  0.2319  0.2459
  777MOL0     C 7106   9.584   7.547   0.610  0.3478 -0.9774 -0.3494
  777MOL0     C 7107   9.608   7.593   0.735  0.4250  0.0863  0.0415
  777MOL0     C 7108   9.746   7.575   0.797  0.4515  1.0157  0.0631
  777MOL0     C 7109   9.840   7.687   0.810  0.4577  0.1101  0.6785
  777MOL0     C 7110   9.794   7.781   0.924  0.2841 -0.1911  0.0131
  777MOL0     C 7111   9.903   7.884   0.963 -0.7020 -0.9081 -0.0185
  777MOL0     O 7112   9.979   7.825   1.069 -0.0721  0.0153 -0.3281
  777MOL0     C 7113  10.103   7.876   1.103 -0.5629  0.2005  0.4126
  777MOL0     C 7114  10.153   7.826   1.225  0.2826  0.5084  0.0573
  777MOL0     C 7115  10.283   7.847   1.276 -0.1874 -0.5506 -0.5460
  777MOL0     C 7116  10.320   7.785   1.414 -0.0571 -0.5740 -0.0136
  777MOL0     C 7117  10.369   7.923   1.196 -0.3523  0.9305  0.4943
  777MOL0     C 7118  10.515   7.955   1.229  0.4978  0.1285  0.2345
  777MOL0     O 7119  10.589   7.852   1.292 -0.3504 -0.2554  0.3727
  777MOL0     C 7120  10.700   7.895   1.358 -0.6343  0.2121  0.5648
  777MOL0     C 7121  10.808   7.927   1.274 -0.6777 -0.1782 -0.6701
  777MOL0     C 7122  10.931   7.958   1.334  0.6804  0.5126 -1.2582
  777MOL0     C 7123  10.946   7.955   1.472  0.5596  0.2405  0.6677
  777MOL0     O 7124  11.068   7.979   1.534  0.3694 -0.5245 -0.0973
  777MOL0     C 7125  11.168   8.034   1.456 -0.2581  0.3695 -0.3050
  777MOL0     C 7126  11.252   8.099   1.569  0.4406 -0.5780 -1.2302
  777MOL0     C 7127  11.400   8.121   1.528  0.4888  0.6034  0.2774
  777MOL0     C 7128  11.486   8.175   1.630 -0.6313 -0.4942  0.6018
  777MOL0     C 7129  11.632   8.150   1.605  0.6567 -0.0037  0.0931
  777MOL0     C 7130  11.705   8.213   1.724 -0.0551 -0.6292  0.1458
  777MOL0     C 7131  11.858   8.192   1.725  0.3063 -0.0571  0.1324
  777MOL0     C 7132  11.920   8.279   1.614  0.4030  1.0454 -0.1448
  777MOL0    Cl 7133  12.092   8.226   1.583  0.4054 -0.0512 -0.2143
  777MOL0     C 7134  10.840   7.926   1.552  0.2866  0.1451  0.5118
  777MOL0     C 7135  10.716   7.889   1.498 -0.6892 -0.7337  0.5987
  777MOL0     O 7136  10.554   8.065   1.200 -0.6212  0.0636 -0.0051
  777MOL0     C 7137  10.317   7.990   1.078  0.0688  0.8795 -0.0631
  777MOL0     C 7138  10.185   7.967   1.033 -0.0676  0.0654 -0.4940
  777MOL0     N 7139   9.504   7.661   0.795 -0.1120 -0.6607 -0.5361
  777MOL0     N 7140   9.409   7.657   0.705 -0.9011  0.7132 -0.5159
  777MOL0     C 7141  10.080   8.127   0.645 -0.2672  0.7539  0.0595
  777MOL0     C 7142  10.195   8.155   0.727 -0.4677 -0.2497 -0.8476
  777MOL0     C 7143  10.650   8.211   0.790  1.2140 -0.0367  0.7663
  777MOL0     C 7144  10.684   8.140   0.907 -0.6281 -0.0580 -0.3760
  777MOL0     C 7145  10.799   8.173   0.987  0.1607 -0.6014  0.3808
  777MOL0     C 7146  10.894   8.257   0.934 -0.8738 -1.0612 -0.3285
  777MOL0     O 7147  11.004   8.268   1.008 -0.0297  0.5208  0.9375
  777MOL0     C 7148  11.126   8.293   0.947 -0.0108 -0.3215 -0.7212
  777MOL0     C 7149  11.233   8.216   1.015  0.3110  0.6917 -0.2488
  777MOL0     C 7150  11.379   8.219   0.944  0.5960 -0.1109  0.6992
  777MOL0     C 7151  11.490   8.145   1.031  0.5787 -0.2708  0.3577
  777MOL0     C 7152  11.515   8.243   1.138 -0.4314 -0.2904 -0.1512
  777MOL0     C 7153  11.542   8.315   1.234  0.0698 -0.0362  0.4735
  777MOL0     C 7154  10.863   8.333   0.820 -0.5096  0.1190  0.0051
  777MOL0     C 7155  10.739   8.319   0.753  0.0942 -0.3501 -0.2714
  777MOL0     C 7156  10.713   8.420   0.647 -1.0735 -0.2958  0.1986
  777MOL0     H 7157  10.408   7.902   0.636 -0.1660 -1.6160  0.9359
  777MOL0     H 7158  10.207   7.857   0.491 -2.0556  2.0079 -2.1236
  777MOL0     H 7159   9.973   7.806   0.425 -0.3549  0.4104  2.0965
  777MOL0     H 7160  10.059   7.902   0.308  0.3218 -2.3670  1.2118
  777MOL0     H 7161   9.849   8.025   0.246  1.9540  0.6626  0.2062
  777MOL0     H 7162   9.850   7.852   0.209  0.3891 -1.5578  1.6858
  777MOL0     H 7163   9.717   7.803   0.413  0.5475 -2.0192 -4.4147
  777MOL0     H 7164   9.731   7.970   0.465 -0.6591  0.5639 -0.4023
  777MOL0     H 7165   9.634   8.043   0.246  2.7918 -1.2923 -0.6664
  777MOL0     H 7166   9.595   7.876   0.208 -1.0913  1.9773 -1.6605
  777MOL0     H 7167   9.406   7.996   0.269 -0.0077 -0.6145  0.6038
  777MOL0     H 7168   9.473   8.048   0.419 -0.1864  1.0599 -1.3596
  777MOL0     H 7169   9.472   7.849   0.521  1.0744 -0.5503 -0.2406
  777MOL0     H 7170   9.311   7.869   0.463 -0.0245  1.1007  1.1432
  777MOL0     H 7171   9.525   7.694   0.323 -0.2238  0.8043  0.7114
  777MOL0     H 7172   9.352   7.695   0.272  0.6697 -1.8784 -1.7029
  777MOL0     H 7173   9.275   7.615   0.480 -0.1436  1.9859 -2.2284
  777MOL0     H 7174   9.381   7.490   0.427 -1.5167 -0.7110  1.4655
  777MOL0     H 7175   9.654   7.498   0.544  2.9894  2.0774 -0.0452
  777MOL0     H 7176   9.794   7.502   0.731 -1.2559  0.2385 -0.3501
  777MOL0     H 7177   9.724   7.528   0.894 -2.6165  0.9119 -0.6046
  777MOL0     H 7178   9.938   7.646   0.836 -1.0337 -2.7304  2.3237
  777MOL0     H 7179   9.844   7.745   0.718  0.6194  3.9900  2.8764
  777MOL0     H 7180   9.703   7.836   0.898  0.1529  0.1517  1.1210
  777MOL0     H 7181   9.777   7.726   1.018  0.9221  1.2880  1.0259
  777MOL0     H 7182   9.972   7.910   0.882  0.8105  1.0667  1.7965
  777MOL0     H 7183   9.845   7.973   0.988 -0.6829 -0.3749 -1.7173
  777MOL0     H 7184  10.092   7.749   1.271 -2.1437  1.6807 -1.0203
  777MOL0     H 7185  10.353   7.865   1.480  3.1932  2.0472 -4.2494
  777MOL0     H 7186  10.400   7.712   1.397 -1.5366 -2.2237 -0.2052
  777MOL0     H 7187  10.231   7.739   1.457 -1.8339  0.4044 -2.4295
  777MOL0     H 7188  10.797   7.906   1.168  0.4713 -1.2965 -0.5944
  777MOL0     H 7189  11.017   7.982   1.272  1.7639 -0.3306 -0.1291
  777MOL0     H 7190  11.227   7.957   1.404 -0.6346 -1.2970  1.6080
  777MOL0     H 7191  11.140   8.113   1.386  2.0130  1.0683 -0.5017
  777MOL0     H 7192  11.212   8.197   1.595  1.6452 -0.5345  0.6415
  777MOL0     H 7193  11.259   8.039   1.660  4.4462 -0.6738 -1.4010
  777MOL0     H 7194  11.389   8.188   1.443 -0.9413  0.1289  0.0542
  777MOL0     H 7195  11.441   8.027   1.491  0.7978  0.9147 -0.1823
  777MOL0     H 7196  11.459   8.124   1.723  1.1800 -1.6364  0.5436
  777MOL0     H 7197  11.469   8.282   1.644  0.6064 -0.3609  1.2901
  777MOL0     H 7198  11.654   8.044   1.588  3.8320  0.2543  1.7980
  777MOL0     H 7199  11.669   8.202   1.516  2.4245 -2.9222 -1.0401
  777MOL0     H 7200  11.666   8.178   1.820 -0.8442  1.0333  0.4683
  777MOL0     H 7201  11.691   8.322   1.718  1.3025 -0.3741  1.1960
  777MOL0     H 7202  11.890   8.088   1.718  1.4621  0.2331  0.6731
  777MOL0     H 7203  11.898   8.232   1.819  1.0936 -0.8436  0.1474
  777MOL0     H 7204  11.928   8.384   1.644 -0.8756  0.7088  1.5197
  777MOL0     H 7205  11.874   8.279   1.515  0.4180 -2.9927 -0.3367
  777MOL0     H 7206  10.853   7.910   1.658 -3.3144  1.0315  1.2244
  777MOL0     H 7207  10.634   7.863   1.564 -0.5702  0.6097  1.3187
  777MOL0     H 7208  10.391   8.055   1.034 -1.3698  2.5689 -0.1005
  777MOL0     H 7209  10.153   8.017   0.942  0.1954 -2.6244 -2.1887
  777MOL0     H 7210   9.992   8.190   0.647 -0.8022  0.1069 -1.5399
  777MOL0     H 7211  10.193   8.228   0.807  1.6648 -0.1297 -0.8464
  777MOL0     H 7212  10.605   8.073   0.939 -0.3538 -0.0008  0.4422
  777MOL0     H 7213  10.810   8.120   1.081  1.3015  0.2925  0.7710
  777MOL0     H 7214  11.128   8.269   0.840 -0.2410 -0.9853 -0.5798
  777MOL0     H 7215  11.147   8.400   0.954  0.5289 -0.2011 -3.2312
  777MOL0     H 7216  11.206   8.111   1.031 -1.9699  1.2393 -0.1836
  777MOL0     H 7217  11.246   8.258   1.115 -1.5626  1.5120 -0.3086
  777MOL0     H 7218  11.362   8.170   0.848  0.8375 -2.4602  1.7889
  777MOL0     H 7219  11.418   8.318   0.920 -1.7174  0.8387  0.6004
  777MOL0     H 7220  11.584   8.137   0.975  0.9622  0.4760  0.8773
  777MOL0     H 7221  11.467   8.047   1.073  2.0005  0.3972  2.8883
  777MOL0     H 7222  11.583   8.391   1.298  2.3257  1.2140 -2.2661
  777MOL0     H 7223  10.937   8.404   0.786 -1.0511 -0.6911 -3.1241
  777MOL0     H 7224  10.705   8.377   0.547  0.0061  1.0060 -0.4742
  777MOL0     H 7225  10.622   8.478   0.670 -1.7544 -0.0403 -2.8052
  777MOL0     H 7226  10.794   8.492   0.636 -2.5160  1.3582 -0.1110
  778MOL0     O 7227   4.452   6.892   8.474 -0.7831 -1.0753  0.2228
  778MOL0     C 7228   4.368   6.809   8.450  0.6400  0.5678 -0.2819
  778MOL0     O 7229   4.374   6.710   8.347 -0.3882 -0.5314  0.9118
  778MOL0     C 7230   4.502   6.685   8.313 -0.5309  0.9296 -0.4741
  778MOL0     C 7231   4.544   6.699   8.177  0.5731  0.1744 -0.4045
  778MOL0     C 7232   4.676   6.696   8.149  0.2357 -0.1289  0.1301
  778MOL0     C 7233   4.764   6.657   8.241  0.1795  0.8721 -0.4141
  778MOL0     O 7234   4.896   6.656   8.205  0.4892  0.2354  0.3803
  778MOL0     C 7235   4.995   6.583   8.273  0.4731 -0.0821 -0.0361
  778MOL0     C 7236   5.137   6.610   8.225  0.1482  0.3430  0.0662
  778MOL0     C 7237   5.154   6.587   8.065 -0.0457  0.3136  0.4610
  778MOL0     C 7238   5.305   6.606   8.020  0.2371 -1.1824  0.8520
  778MOL0     C 7239   5.308   6.584   7.870 -0.4347 -0.3116  0.2479
  778MOL0     C 7240   5.442   6.527   7.809 -0.1766  0.3366  0.5197
  778MOL0     C 7241   5.426   6.513   7.655 -0.0856 -0.0368 -0.4723
  778MOL0     C 7242   5.362   6.379   7.609  0.3820 -0.1385 -0.0342
  778MOL0     N 7243   5.456   6.282   7.574 -0.7095 -0.4087  0.1180
  778MOL0     C 7244   5.527   6.275   7.459 -0.6344 -0.1799 -0.2869
  778MOL0     C 7245   5.632   6.192   7.476 -0.5901  0.0083 -0.8559
  778MOL0     C 7246   5.742   6.168   7.370  0.3983 -0.1207 -0.2518
  778MOL0     C 7247   5.683   6.064   7.269 -0.1511 -0.1316  0.7106
  778MOL0     C 7248   5.632   5.936   7.337  0.4299  0.0928 -0.6587
  778MOL0     C 7249   5.741   5.863   7.420 -0.6069  0.0476 -0.8223
  778MOL0     O 7250   5.857   5.862   7.328  0.0561  0.2261 -0.3253
  778MOL0     C 7251   5.976   5.840   7.397  1.7101 -0.0740  0.5316
  778MOL0     C 7252   5.995   5.772   7.513  0.0127  0.1453  0.2907
  778MOL0     C 7253   6.123   5.748   7.568 -0.1128 -0.4446  0.2935
  778MOL0     C 7254   6.129   5.661   7.685 -0.3605 -0.1647 -0.7155
  778MOL0     C 7255   6.229   5.829   7.508  0.7662 -0.1402  0.6899
  778MOL0     C 7256   6.370   5.818   7.553 -0.2262  0.4828  0.7332
  778MOL0     O 7257   6.389   5.807   7.684  1.4072 -0.6567 -0.1178
  778MOL0     C 7258   6.508   5.833   7.742 -0.3542  0.7459 -0.3266
  778MOL0     C 7259   6.585   5.946   7.717 -0.0699 -0.0972 -0.2221
  778MOL0     C 7260   6.713   5.966   7.767  0.1830  0.8186  0.4575
  778MOL0     C 7261   6.765   5.870   7.862  0.6857 -1.0675 -0.1123
  778MOL0     O 7262   6.879   5.872   7.935  0.3991 -0.0600 -0.5808
  778MOL0     C 7263   6.985   5.964   7.902 -0.7293 -0.1928  0.9502
  778MOL0     C 7264   6.985   6.102   7.959 -0.2487 -0.1164 -0.3582
  778MOL0     C 7265   7.127   6.171   7.950  0.0856  0.0201  0.5742
  778MOL0     C 7266   7.117   6.320   7.989 -0.1211 -0.0474  0.2953
  778MOL0     C 7267   7.251   6.394   7.976  0.6592 -0.2557  0.5502
  778MOL0     C 7268   7.350   6.372   8.089 -0.8258 -0.5164  0.1296
  778MOL0     C 7269   7.493   6.392   8.042 -0.4770 -1.1202  0.4012
  778MOL0     C 7270   7.544   6.536   8.038 -0.0792 -0.4759  0.2358
  778MOL0    Cl 7271   7.724   6.534   8.051 -0.2580  0.7282 -0.2489
  778MOL0     C 7272   6.676   5.763   7.897 -0.7508 -0.4514 -0.1898
  778MOL0     C 7273   6.550   5.742   7.839  0.1440 -0.0427  0.1145
  778MOL0     O 7274   6.459   5.832   7.465 -0.3761 -0.9992  0.2673
  778MOL0     C 7275   6.207   5.903   7.386 -0.0607  0.6151 -0.3177
  778MOL0     C 7276   6.084   5.912   7.340  0.6600 -1.0353  0.2617
  778MOL0     N 7277   5.623   6.151   7.609  0.0034 -0.1292 -0.0495
  778MOL0     N 7278   5.521   6.205   7.661 -0.4856  0.4617  0.5991
  778MOL0     C 7279   4.725   6.615   8.375  0.3100  0.6921 -0.7767
  778MOL0     C 7280   4.592   6.632   8.404  0.1185 -0.2916  0.5480
  778MOL0     C 7281   4.239   6.797   8.529  0.3955 -0.7074 -0.3362
  778MOL0     C 7282   4.156   6.683   8.512  0.9048 -0.1529 -0.4397
  778MOL0     C 7283   4.031   6.680   8.570 -0.4176 -0.2440 -0.1981
  778MOL0     C 7284   3.979   6.777   8.653  0.1380 -0.3498  0.2598
  778MOL0     O 7285   3.862   6.777   8.722 -0.0936  0.2914 -0.3510
  778MOL0     C 7286   3.745   6.710   8.659 -0.1791  0.3822 -0.4073
  778MOL0     C 7287   3.718   6.752   8.518 -0.1810  0.1903  0.3177
  778MOL0     C 7288   3.570   6.712   8.495  0.4394 -0.1536  1.2554
  778MOL0     C 7289   3.522   6.756   8.360 -0.2697  0.2102 -0.0056
  778MOL0     C 7290   3.565   6.664   8.254 -0.5650 -0.2144 -1.3682
  778MOL0     C 7291   3.586   6.592   8.160  0.0002 -0.4623  0.1700
  778MOL0     C 7292   4.065   6.884   8.673  0.6673 -0.8824  0.3464
  778MOL0     C 7293   4.189   6.898   8.615 -0.0914 -1.2613 -0.3143
  778MOL0     C 7294   4.253   7.025   8.632 -0.7438 -0.9293  0.1780
  778MOL0     H 7295   4.470   6.742   8.110  0.9338  1.2327 -0.1428
  778MOL0     H 7296   4.719   6.710   8.050  2.7918 -1.1884  1.0244
  778MOL0     H 7297   4.986   6.476   8.257 -1.3990  0.3008 -1.8853
  778MOL0     H 7298   4.996   6.606   8.380  0.8690 -0.7101  0.0967
  778MOL0     H 7299   5.173   6.709   8.254 -0.6590  0.9332 -0.8801
  778MOL0     H 7300   5.212   6.548   8.274 -1.4597 -3.7046 -2.0851
  778MOL0     H 7301   5.129   6.481   8.054  1.6621  0.0656 -2.0153
  778MOL0     H 7302   5.085   6.649   8.007  0.2629 -0.9507 -1.3315
  778MOL0     H 7303   5.336   6.711   8.027 -0.6458 -0.7643 -1.0459
  778MOL0     H 7304   5.371   6.535   8.070  0.8223 -0.1351  1.6259
  778MOL0     H 7305   5.288   6.669   7.805 -0.0433 -0.6091 -0.2811
  778MOL0     H 7306   5.233   6.510   7.842  0.3846 -1.6304  1.3971
  778MOL0     H 7307   5.534   6.577   7.843 -0.4922  1.1651  0.1790
  778MOL0     H 7308   5.459   6.423   7.839 -0.6736 -0.3071 -1.3242
  778MOL0     H 7309   5.528   6.521   7.616 -0.6728 -0.5612 -2.1792
  778MOL0     H 7310   5.365   6.595   7.618  1.0895  0.0047 -2.4725
  778MOL0     H 7311   5.300   6.330   7.684 -4.6173  1.8030 -2.4798
  778MOL0     H 7312   5.296   6.396   7.524 -0.9629  0.7281  1.1501
  778MOL0     H 7313   5.514   6.336   7.370  0.8519  0.6182 -0.0033
  778MOL0     H 7314   5.838   6.133   7.411  0.4870  1.4537  0.9596
  778MOL0     H 7315   5.759   6.264   7.320  0.2304 -0.7190 -1.5032
  778MOL0     H 7316   5.596   6.105   7.216  0.3510  0.6826  0.4842
  778MOL0     H 7317   5.764   6.049   7.198  0.0556  1.5328  0.5407
  778MOL0     H 7318   5.545   5.956   7.401 -0.3700  2.1100 -2.2350
  778MOL0     H 7319   5.605   5.865   7.258 -2.3412  0.0263  0.2528
  778MOL0     H 7320   5.769   5.909   7.516 -0.9857 -1.1837 -0.0943
  778MOL0     H 7321   5.714   5.759   7.441  0.8417 -0.0921  0.5048
  778MOL0     H 7322   5.912   5.712   7.550  0.7040 -0.9213  0.1561
  778MOL0     H 7323   6.231   5.632   7.711  0.6467  3.3017 -0.2722
  778MOL0     H 7324   6.064   5.575   7.668 -1.5280  0.4061  0.6627
  778MOL0     H 7325   6.083   5.709   7.772 -1.1131  0.6950 -1.5549
  778MOL0     H 7326   6.541   6.021   7.652  0.2010 -0.3596 -0.7074
  778MOL0     H 7327   6.771   6.055   7.746 -0.8061  1.3765 -0.0146
  778MOL0     H 7328   7.076   5.921   7.944  0.8451 -0.1528 -2.1018
  778MOL0     H 7329   7.006   5.964   7.795  0.4363  2.2308  1.1025
  778MOL0     H 7330   6.908   6.164   7.912  1.1061  0.3408 -2.0673
  778MOL0     H 7331   6.953   6.098   8.064 -2.6427  1.5663 -0.9438
  778MOL0     H 7332   7.183   6.167   7.856 -2.9716  2.1039 -1.5431
  778MOL0     H 7333   7.187   6.113   8.021  0.3636 -1.2993 -0.6962
  778MOL0     H 7334   7.082   6.327   8.092  0.1254 -6.1916  1.1353
  778MOL0     H 7335   7.056   6.379   7.920  1.2118  3.1402  1.6356
  778MOL0     H 7336   7.288   6.375   7.875  2.2315 -1.2242  1.2727
  778MOL0     H 7337   7.215   6.496   7.994 -2.1503 -1.7097  4.9116
  778MOL0     H 7338   7.340   6.270   8.128  3.4681 -0.7405  1.1498
  778MOL0     H 7339   7.339   6.433   8.180  1.8885 -2.3507  1.8538
  778MOL0     H 7340   7.514   6.349   7.944 -0.5161 -1.4150  0.5226
  778MOL0     H 7341   7.548   6.338   8.119  0.0100 -1.2052  0.0027
  778MOL0     H 7342   7.506   6.595   8.122 -2.7212  0.0816 -1.2022
  778MOL0     H 7343   7.517   6.592   7.948  0.3995 -1.2687 -0.4107
  778MOL0     H 7344   6.705   5.685   7.967  0.3900 -1.1724 -1.4108
  778MOL0     H 7345   6.486   5.655   7.847  0.9835 -1.1109 -3.1336
  778MOL0     H 7346   6.283   5.958   7.331  0.5563  1.0590  0.9335
  778MOL0     H 7347   6.068   5.971   7.251  2.1093 -2.6442 -1.1601
  778MOL0     H 7348   4.792   6.584   8.454  0.7130  5.4297  1.0640
  778MOL0     H 7349   4.564   6.602   8.505  0.8994 -2.1942  0.2381
  778MOL0     H 7350   4.173   6.598   8.446 -2.4310 -1.4592  0.1663
  778MOL0     H 7351   3.979   6.586   8.552  1.2759 -1.1853 -0.3226
  778MOL0     H 7352   3.753   6.601   8.665 -0.3761  0.3481 -0.7394
  778MOL0     H 7353   3.670   6.744   8.731  0.0201  0.2866 -0.1500
  778MOL0     H 7354   3.774   6.698   8.441 -1.1015  1.7093 -1.5017
  778MOL0     H 7355   3.740   6.858   8.502  3.2994 -0.4087  0.2828
  778MOL0     H 7356   3.550   6.605   8.506 -0.6000 -0.2062 -0.6358
  778MOL0     H 7357   3.505   6.767   8.564 -0.1534  0.1787  0.4554
  778MOL0     H 7358   3.565   6.853   8.335 -2.1099  0.5333 -2.2024
  778MOL0     H 7359   3.413   6.748   8.361 -0.1564 -1.9499  0.3782
  778MOL0     H 7360   3.597   6.518   8.083  2.1935 -1.1691  1.0898
  778MOL0     H 7361   4.021   6.968   8.725 -1.5218 -0.0192 -2.6383
  778MOL0     H 7362   4.284   7.072   8.538 -0.8657 -0.0979  0.5510
  778MOL0     H 7363   4.183   7.097   8.675 -0.4173  0.2210 -1.1420
  778MOL0     H 7364   4.343   7.025   8.693  0.2931 -1.4382 -1.2839
  779MOL0     O 7365  11.200   8.523   5.791  0.0969 -0.0411 -0.1460
  779MOL0     C 7366  11.131   8.461   5.712  0.4514  0.0113  0.1619
  779MOL0     O 7367  11.172   8.401   5.591  0.2795 -0.1163  0.1225
  779MOL0     C 7368  11.309   8.394   5.569 -0.3915  0.1058 -0.0411
  779MOL0     C 7369  11.410   8.376   5.663  0.5293 -0.3575 -0.1407
  779MOL0     C 7370  11.541   8.397   5.627 -0.0612  0.6037 -0.0505
  779MOL0     C 7371  11.575   8.440   5.498 -0.7852 -1.0359  0.3441
  779MOL0     O 7372  11.704   8.474   5.472  0.0823  0.1758 -0.0962
  779MOL0     C 7373  11.749   8.513   5.337  0.4462  0.4494 -0.0506
  779MOL0     C 7374  11.897   8.545   5.344  0.8878 -0.5234  0.4346
  779MOL0     C 7375  11.964   8.599   5.212  0.3093 -0.0630 -0.4203
  779MOL0     C 7376  12.116   8.607   5.239  0.5976  0.9085 -0.0058
  779MOL0     C 7377  12.189   8.685   5.131 -0.7951  0.1007  0.0641
  779MOL0     C 7378  12.342   8.650   5.149 -0.7698 -0.6964  0.3343
  779MOL0     C 7379  12.426   8.708   5.039 -1.0352  0.3327 -1.0108
  779MOL0     C 7380  12.418   8.628   4.904 -0.5039  0.0683  0.2969
  779MOL0     N 7381  12.532   8.525   4.886  0.4255  0.4950  0.2789
  779MOL0     C 7382  12.663   8.552   4.871 -0.9525 -0.1633 -0.2238
  779MOL0     C 7383  12.725   8.437   4.871 -0.5782  0.8009  0.3585
  779MOL0     C 7384  12.869   8.405   4.858  0.6714  0.2042  0.2990
  779MOL0     C 7385  12.908   8.369   4.708 -0.1846 -0.7752 -0.5805
  779MOL0     C 7386  13.053   8.364   4.681  0.2889  0.1942  0.8353
  779MOL0     C 7387  13.081   8.392   4.535  0.2824 -0.4780 -0.3927
  779MOL0     O 7388  13.217   8.347   4.512 -0.3719 -0.0304 -0.3482
  779MOL0     C 7389  13.272   8.365   4.388  0.7602  0.6757  0.3466
  779MOL0     C 7390  13.247   8.476   4.306  0.4694 -0.4497  0.1362
  779MOL0     C 7391  13.280   8.487   4.168 -0.0262 -0.1110  0.7953
  779MOL0     C 7392  13.274   8.618   4.096  0.1883 -0.3413  0.2013
  779MOL0     C 7393  13.327   8.370   4.105  0.7579 -0.2894  0.4463
  779MOL0     C 7394  13.343   8.338   3.960 -0.2897  0.4603 -0.0056
  779MOL0     O 7395  13.349   8.205   3.919 -0.3608  0.4250 -0.7498
  779MOL0     C 7396  13.402   8.170   3.800 -0.0820  0.6571  0.3190
  779MOL0     C 7397  13.522   8.226   3.742  0.2983 -0.6447  0.3566
  779MOL0     C 7398  13.571   8.184   3.614 -0.6636 -0.1976 -0.2118
  779MOL0     C 7399  13.515   8.077   3.539 -0.4049 -0.3930 -0.0760
  779MOL0     O 7400  13.558   8.052   3.408 -0.4958 -0.1806 -0.4914
  779MOL0     C 7401  13.517   7.933   3.341 -0.5992 -0.5926  0.3252
  779MOL0     C 7402  13.604   7.885   3.231  0.0799  0.8284 -0.1026
  779MOL0     C 7403  13.737   7.834   3.292  0.4974  0.2705 -0.2048
  779MOL0     C 7404  13.830   7.785   3.183 -0.1554 -0.9741 -0.5775
  779MOL0     C 7405  13.947   7.724   3.258  0.2913  0.1757  0.5611
  779MOL0     C 7406  14.071   7.740   3.172  0.4301 -0.5655  0.1130
  779MOL0     C 7407  14.199   7.726   3.252 -0.2375  0.2324  0.0497
  779MOL0     C 7408  14.322   7.762   3.169  0.1238  0.5258 -0.4629
  779MOL0    Cl 7409  14.338   7.938   3.127 -0.6576 -0.0653  0.3766
  779MOL0     C 7410  13.404   8.023   3.605 -0.3045  0.0334  0.5679
  779MOL0     C 7411  13.355   8.062   3.726  0.4947  0.2092 -0.2361
  779MOL0     O 7412  13.357   8.436   3.884  0.6644  0.7107  0.5244
  779MOL0     C 7413  13.351   8.259   4.190 -0.6156 -0.3322 -0.4628
  779MOL0     C 7414  13.338   8.257   4.330  0.4337  0.8742 -0.3477
  779MOL0     N 7415  12.631   8.337   4.877 -0.2668  0.0973  0.2602
  779MOL0     N 7416  12.511   8.388   4.880  0.7492  0.8085 -0.1588
  779MOL0     C 7417  11.478   8.445   5.397 -0.4750  0.2052  0.4101
  779MOL0     C 7418  11.342   8.410   5.432 -0.3616 -0.5253 -0.3426
  779MOL0     C 7419  10.990   8.439   5.739 -1.2674  0.3395 -1.2016
  779MOL0     C 7420  10.912   8.387   5.632 -0.4015 -0.3894 -0.7091
  779MOL0     C 7421  10.772   8.391   5.644  0.2446 -0.2929  0.1131
  779MOL0     C 7422  10.709   8.443   5.755  0.9647 -0.2771 -0.1548
  779MOL0     O 7423  10.571   8.450   5.755 -0.4133 -0.0301  0.7099
  779MOL0     C 7424  10.498   8.513   5.860 -0.3161  0.1282 -0.1174
  779MOL0     C 7425  10.346   8.491   5.841 -0.2774 -0.2486  0.3056
  779MOL0     C 7426  10.259   8.533   5.971 -0.7356  0.2083  0.0005
  779MOL0     C 7427  10.197   8.667   5.956 -0.7046  0.4047 -0.0754
  779MOL0     C 7428  10.167   8.712   6.088  0.3393  0.1288 -0.3543
  779MOL0     C 7429  10.150   8.743   6.205 -0.3905 -1.0661  0.2482
  779MOL0     C 7430  10.788   8.474   5.866  0.6558 -0.3388 -0.5777
  779MOL0     C 7431  10.926   8.469   5.861  0.1256  0.1514  0.0833
  779MOL0     C 7432  11.004   8.516   5.987  1.3741 -0.2568  0.3002
  779MOL0     H 7433  11.374   8.340   5.759 -1.6050 -1.6281 -1.3387
  779MOL0     H 7434  11.624   8.375   5.693  2.3810  0.8054 -2.8280
  779MOL0     H 7435  11.692   8.601   5.307 -2.1887 -1.4169 -0.8267
  779MOL0     H 7436  11.729   8.428   5.271  1.3062  1.6850 -1.9828
  779MOL0     H 7437  11.918   8.609   5.430  0.7737 -1.7956  1.4451
  779MOL0     H 7438  11.956   8.455   5.364 -0.2679 -1.6141 -0.8400
  779MOL0     H 7439  11.951   8.520   5.137  3.9696 -0.8190 -0.4143
  779MOL0     H 7440  11.910   8.688   5.177 -0.6740 -0.2666  0.5098
  779MOL0     H 7441  12.139   8.657   5.333  0.2265 -1.2584  1.3093
  779MOL0     H 7442  12.145   8.501   5.239  0.3689  0.7731 -2.5659
  779MOL0     H 7443  12.176   8.793   5.143 -0.2824  0.0633  1.0920
  779MOL0     H 7444  12.146   8.653   5.035  0.2663 -1.3596  0.0464
  779MOL0     H 7445  12.373   8.687   5.247 -2.3705  1.6487  0.0474
  779MOL0     H 7446  12.352   8.542   5.160  0.2953 -0.7158 -0.5755
  779MOL0     H 7447  12.531   8.715   5.070 -1.6898  3.2888  0.9023
  779MOL0     H 7448  12.398   8.813   5.023 -0.6322  0.6739  0.3897
  779MOL0     H 7449  12.324   8.571   4.904  0.0262 -0.9692  3.6089
  779MOL0     H 7450  12.425   8.698   4.820 -0.7704  1.4325  1.3872
  779MOL0     H 7451  12.714   8.648   4.861 -0.9888 -0.2965 -1.9766
  779MOL0     H 7452  12.889   8.319   4.922  0.8807 -1.3890 -1.7917
  779MOL0     H 7453  12.936   8.478   4.904  0.4546 -0.1806  1.2433
  779MOL0     H 7454  12.866   8.272   4.680 -1.6416 -1.0030  2.0326
  779MOL0     H 7455  12.864   8.443   4.640 -0.7489  0.7642  1.3622
  779MOL0     H 7456  13.107   8.442   4.735  0.3097  0.8824 -0.1438
  779MOL0     H 7457  13.090   8.263   4.699  0.3542 -0.3391 -1.8369
  779MOL0     H 7458  13.005   8.351   4.468  1.6808 -0.7308 -1.8831
  779MOL0     H 7459  13.083   8.501   4.525 -0.9113 -0.5741 -2.1780
  779MOL0     H 7460  13.199   8.566   4.343 -2.3859 -1.2194 -1.3848
  779MOL0     H 7461  13.310   8.695   4.165  1.8599  0.1631 -1.1551
  779MOL0     H 7462  13.172   8.640   4.062  0.0537 -2.1112 -0.6789
  779MOL0     H 7463  13.340   8.623   4.009 -0.3973 -1.8003 -0.3736
  779MOL0     H 7464  13.567   8.314   3.788  0.0521  0.9029 -2.1606
  779MOL0     H 7465  13.657   8.234   3.571 -0.5838 -0.8994 -0.8962
  779MOL0     H 7466  13.508   7.861   3.423  1.1070 -1.9750 -0.6246
  779MOL0     H 7467  13.420   7.952   3.295 -0.0772 -0.8312 -0.9165
  779MOL0     H 7468  13.551   7.798   3.191  0.1685  1.0939 -0.8093
  779MOL0     H 7469  13.620   7.967   3.160  0.1382  1.1696  0.3006
  779MOL0     H 7470  13.714   7.756   3.365  1.2685 -0.2915 -0.5367
  779MOL0     H 7471  13.783   7.918   3.345  2.6117  0.1290 -1.6541
  779MOL0     H 7472  13.858   7.865   3.114  0.3640 -0.6840 -0.0492
  779MOL0     H 7473  13.778   7.706   3.129  0.8481 -2.5639  0.6739
  779MOL0     H 7474  13.970   7.759   3.358  2.7208  0.7926 -0.1479
  779MOL0     H 7475  13.935   7.617   3.275  0.9351  0.1302  0.7712
  779MOL0     H 7476  14.061   7.842   3.134  1.6772 -0.3276  0.3873
  779MOL0     H 7477  14.072   7.675   3.084  2.4210 -0.8809  0.3187
  779MOL0     H 7478  14.200   7.620   3.279 -0.4933  0.6148  1.6224
  779MOL0     H 7479  14.200   7.787   3.343  1.2573  0.2155  0.0607
  779MOL0     H 7480  14.337   7.687   3.090 -3.8829 -1.0883  0.0497
  779MOL0     H 7481  14.407   7.743   3.236 -0.7938 -0.9982  0.3384
  779MOL0     H 7482  13.347   7.958   3.539 -1.6894  2.4866 -0.8258
  779MOL0     H 7483  13.266   8.018   3.769  1.1010 -2.0844 -1.1766
  779MOL0     H 7484  13.416   8.178   4.156  1.9329  0.6011  1.7369
  779MOL0     H 7485  13.359   8.157   4.367 -3.9782 -0.3668 -0.7177
  779MOL0     H 7486  11.488   8.479   5.295 -2.5503  3.2268  1.0797
  779MOL0     H 7487  11.259   8.409   5.362  0.5176 -2.8187 -1.4721
  779MOL0     H 7488  10.959   8.361   5.537  4.1726 -2.1134  1.6897
  779MOL0     H 7489  10.719   8.348   5.560 -0.7004  0.8799  0.0801
  779MOL0     H 7490  10.531   8.465   5.953  1.3451  1.9893  0.3170
  779MOL0     H 7491  10.535   8.616   5.854  4.1260 -1.3548 -3.1905
  779MOL0     H 7492  10.323   8.385   5.827 -3.1027 -0.0682  2.7087
  779MOL0     H 7493  10.311   8.537   5.748 -0.3889 -0.2161  0.3643
  779MOL0     H 7494  10.183   8.455   5.964  1.1150 -1.6334 -0.5481
  779MOL0     H 7495  10.315   8.525   6.066 -2.1745 -2.8245  0.7249
  779MOL0     H 7496  10.116   8.646   5.887 -0.3674  2.2670 -1.1032
  779MOL0     H 7497  10.262   8.741   5.909 -1.9071  1.2902 -0.3923
  779MOL0     H 7498  10.116   8.756   6.306 -0.5294 -1.0697  0.2018
  779MOL0     H 7499  10.737   8.510   5.955 -1.6686 -0.7675 -1.6595
  779MOL0     H 7500  10.937   8.545   6.068 -0.1054 -0.7217 -0.7184
  779MOL0     H 7501  11.082   8.445   6.018  2.1600  0.5517  0.2218
  779MOL0     H 7502  11.052   8.611   5.961 -0.2997  0.4083 -0.5181
  780MOL0     O 7503   4.529   3.820   7.988  0.6679 -0.8196  0.0000
  780MOL0     C 7504   4.566   3.934   8.032 -0.3868  0.4742  0.2867
  780MOL0     O 7505   4.693   3.979   8.031  0.1858  0.8685 -0.0548
  780MOL0     C 7506   4.785   3.901   7.978 -0.5572 -0.1445 -0.4710
  780MOL0     C 7507   4.896   3.861   8.041 -0.4248  0.9145 -0.2903
  780MOL0     C 7508   5.001   3.800   7.978 -0.9142  0.1258 -0.2778
  780MOL0     C 7509   5.003   3.780   7.844 -0.6308 -0.1034 -0.1556
  780MOL0     O 7510   5.109   3.716   7.788  0.4256  0.0610  0.4620
  780MOL0     C 7511   5.242   3.745   7.822  0.0251 -0.5397 -0.2242
  780MOL0     C 7512   5.333   3.627   7.825  0.3062  0.1596  0.3960
  780MOL0     C 7513   5.482   3.681   7.836 -0.1185 -0.0584 -0.2178
  780MOL0     C 7514   5.575   3.556   7.845  0.9810 -1.0444 -0.9183
  780MOL0     C 7515   5.578   3.478   7.713  0.1531 -0.2528  0.3515
  780MOL0     C 7516   5.705   3.382   7.712  0.0767  0.3256 -0.3065
  780MOL0     C 7517   5.698   3.270   7.828  0.3614 -0.4457 -0.3162
  780MOL0     C 7518   5.568   3.183   7.839  0.5638 -0.7665  0.5487
  780MOL0     N 7519   5.520   3.106   7.717 -0.3471 -0.2660  0.1671
  780MOL0     C 7520   5.420   3.138   7.634  0.0691 -0.1146 -0.6714
  780MOL0     C 7521   5.405   3.024   7.550  0.6170 -0.2389 -1.3032
  780MOL0     C 7522   5.314   3.027   7.437 -0.2265  0.3552  0.6335
  780MOL0     C 7523   5.175   3.036   7.482  0.2317 -0.1070  0.3730
  780MOL0     C 7524   5.132   2.965   7.610  0.2244  0.6444 -0.6239
  780MOL0     C 7525   4.984   3.012   7.640 -0.3314  0.9969 -0.2285
  780MOL0     O 7526   4.896   2.965   7.541 -0.7249  0.3955  0.2374
  780MOL0     C 7527   4.767   2.989   7.563 -0.0544  0.1144  0.5006
  780MOL0     C 7528   4.688   2.948   7.455  0.1848  0.2792  0.5259
  780MOL0     C 7529   4.554   2.985   7.443  0.0460  0.4250 -0.0454
  780MOL0     C 7530   4.492   2.956   7.308 -0.9150 -0.2034  0.1910
  780MOL0     C 7531   4.487   3.032   7.561 -0.0873 -0.0040 -0.4718
  780MOL0     C 7532   4.338   3.034   7.577  0.6880  0.1680  0.2837
  780MOL0     O 7533   4.296   3.077   7.699  0.0956  0.3303  0.5000
  780MOL0     C 7534   4.161   3.124   7.708 -0.8950 -0.5296 -0.0064
  780MOL0     C 7535   4.053   3.043   7.660 -0.1940 -1.3000 -0.4833
  780MOL0     C 7536   3.920   3.085   7.670  0.6899 -0.6622 -0.1990
  780MOL0     C 7537   3.899   3.210   7.724 -0.6628  0.6051  0.1269
  780MOL0     O 7538   3.768   3.262   7.750  0.3652  0.6689 -0.1246
  780MOL0     C 7539   3.651   3.198   7.696  0.4963 -1.0491 -0.4519
  780MOL0     C 7540   3.523   3.259   7.764 -0.1882  1.0362 -0.2991
  780MOL0     C 7541   3.508   3.407   7.749  0.1994  0.1783  0.0585
  780MOL0     C 7542   3.363   3.451   7.734 -0.9105  0.8481 -0.0987
  780MOL0     C 7543   3.355   3.597   7.707 -0.2894 -0.3201  0.0563
  780MOL0     C 7544   3.216   3.653   7.688 -0.5234 -0.2486 -0.8633
  780MOL0     C 7545   3.135   3.575   7.598  0.7550  0.5201  0.6593
  780MOL0     C 7546   3.024   3.669   7.561  0.3132 -0.0624 -0.0865
  780MOL0    Cl 7547   2.887   3.592   7.478  0.3239 -0.0234  0.3716
  780MOL0     C 7548   4.003   3.294   7.760  0.2326 -0.3770 -0.7062
  780MOL0     C 7549   4.134   3.245   7.772 -0.5907 -0.5366  0.5230
  780MOL0     O 7550   4.264   2.987   7.488  0.0935  0.0877 -0.5370
  780MOL0     C 7551   4.570   3.073   7.676  0.2293  0.0346 -0.3125
  780MOL0     C 7552   4.709   3.051   7.674  0.3954  0.9155  0.1065
  780MOL0     N 7553   5.501   2.930   7.591  0.5617  0.4518  0.5066
  780MOL0     N 7554   5.567   2.982   7.686 -0.1052 -0.3559 -0.5930
  780MOL0     C 7555   4.888   3.806   7.774 -0.7251  0.1668 -0.1585
  780MOL0     C 7556   4.784   3.880   7.837  1.1050 -0.6088 -0.4146
  780MOL0     C 7557   4.457   4.031   8.056 -1.2109 -0.0470 -0.2735
  780MOL0     C 7558   4.458   4.160   7.993 -0.0652 -0.1157 -0.1189
  780MOL0     C 7559   4.359   4.249   8.027  0.8117 -0.1235  0.9081
  780MOL0     C 7560   4.244   4.220   8.102  0.1726  0.3231  0.7334
  780MOL0     O 7561   4.131   4.294   8.107  0.9431 -0.1440  0.1241
  780MOL0     C 7562   4.141   4.430   8.055 -0.7385 -0.3334  0.5427
  780MOL0     C 7563   3.996   4.485   8.063  0.9246  0.2881 -0.2656
  780MOL0     C 7564   3.983   4.611   7.975 -0.8201  1.3387 -0.3010
  780MOL0     C 7565   3.849   4.682   7.994 -0.7202 -0.3032 -0.7758
  780MOL0     C 7566   3.837   4.787   7.891  0.1893 -0.2932  0.0813
  780MOL0     C 7567   3.834   4.842   7.783  0.1083 -0.4874  0.1163
  780MOL0     C 7568   4.242   4.097   8.166  0.0541  0.6474 -0.0950
  780MOL0     C 7569   4.353   4.006   8.152 -0.1617 -0.8421  0.3014
  780MOL0     C 7570   4.343   3.876   8.233 -0.6672  0.1777 -0.0497
  780MOL0     H 7571   4.902   3.870   8.149 -0.4963  0.7420 -0.2711
  780MOL0     H 7572   5.082   3.756   8.035 -1.4519 -2.6448 -1.5088
  780MOL0     H 7573   5.260   3.793   7.920 -0.7838  1.2487 -0.9049
  780MOL0     H 7574   5.273   3.812   7.741  1.0433 -0.4078  0.2529
  780MOL0     H 7575   5.289   3.559   7.899 -1.2668  2.6954  1.9240
  780MOL0     H 7576   5.323   3.568   7.733 -3.1044 -1.3898  1.5919
  780MOL0     H 7577   5.503   3.748   7.752  0.4110  1.7539  1.2818
  780MOL0     H 7578   5.509   3.743   7.923  0.4823 -1.5910  0.7317
  780MOL0     H 7579   5.673   3.599   7.868  1.0128 -0.7623 -1.5553
  780MOL0     H 7580   5.538   3.490   7.924  0.3778  0.7935  0.4123
  780MOL0     H 7581   5.596   3.537   7.623  4.8542 -2.8375 -0.7613
  780MOL0     H 7582   5.483   3.427   7.697 -1.1203  1.9785  0.3851
  780MOL0     H 7583   5.706   3.326   7.619 -0.6880 -0.4002  0.1131
  780MOL0     H 7584   5.801   3.435   7.720 -0.5362  1.2535  1.3211
  780MOL0     H 7585   5.717   3.321   7.923 -2.3354 -2.2855  1.3484
  780MOL0     H 7586   5.784   3.203   7.814  3.6342  3.2416  0.5156
  780MOL0     H 7587   5.590   3.098   7.905  1.1367  0.4139  1.9146
  780MOL0     H 7588   5.487   3.247   7.875  1.6216  3.1701 -3.2202
  780MOL0     H 7589   5.366   3.232   7.636  0.5450  0.1566  0.1241
  780MOL0     H 7590   5.320   2.931   7.385 -1.7808  1.6386 -2.1429
  780MOL0     H 7591   5.334   3.107   7.364  1.3701 -0.4408  0.1511
  780MOL0     H 7592   5.158   3.140   7.511 -1.2440 -0.7450  1.9520
  780MOL0     H 7593   5.106   3.014   7.399 -0.9619 -2.2153  1.8374
  780MOL0     H 7594   5.141   2.856   7.605  1.2821  0.6761  0.3844
  780MOL0     H 7595   5.180   3.005   7.699  0.2782 -1.4460  0.3458
  780MOL0     H 7596   4.959   2.974   7.740  0.8915 -1.3272 -0.7582
  780MOL0     H 7597   4.978   3.121   7.647  0.8566  1.1240 -0.9432
  780MOL0     H 7598   4.743   2.911   7.368  1.2642  1.0779  0.8496
  780MOL0     H 7599   4.480   2.848   7.292 -5.0381 -0.1701  1.8957
  780MOL0     H 7600   4.571   2.996   7.244 -1.3797  2.0268  0.9357
  780MOL0     H 7601   4.404   3.015   7.282 -2.1529 -2.3501 -0.8091
  780MOL0     H 7602   4.066   2.947   7.610 -1.6547 -0.4738 -2.5813
  780MOL0     H 7603   3.842   3.013   7.646  0.1861 -0.4597  0.7848
  780MOL0     H 7604   3.647   3.214   7.588  1.9044  0.2376 -0.3420
  780MOL0     H 7605   3.656   3.089   7.708  1.6597 -1.0212 -0.5621
  780MOL0     H 7606   3.438   3.211   7.715  0.1323  2.5086 -2.4149
  780MOL0     H 7607   3.522   3.228   7.869 -2.1597  0.6011 -0.3981
  780MOL0     H 7608   3.560   3.427   7.655  0.9195  0.5813  0.5292
  780MOL0     H 7609   3.565   3.453   7.831  1.9813  0.0179 -1.0534
  780MOL0     H 7610   3.299   3.428   7.820  0.4803  1.4811  1.1430
  780MOL0     H 7611   3.334   3.403   7.640  1.8627  0.2042 -0.7019
  780MOL0     H 7612   3.406   3.654   7.785 -1.0396  1.8949 -0.9907
  780MOL0     H 7613   3.406   3.624   7.614  1.0206  0.5185  0.9806
  780MOL0     H 7614   3.231   3.747   7.633  0.7792  0.6459  0.9211
  780MOL0     H 7615   3.165   3.660   7.784  0.4037 -0.4631 -0.3443
  780MOL0     H 7616   3.101   3.491   7.659  5.0459  0.3419  3.2211
  780MOL0     H 7617   3.192   3.549   7.508  0.5857 -0.5371  0.8459
  780MOL0     H 7618   3.063   3.744   7.491  0.5395  0.6668  0.8108
  780MOL0     H 7619   2.989   3.727   7.647  0.2275  1.2272 -0.9586
  780MOL0     H 7620   3.992   3.392   7.806  2.2146 -1.0953  1.5008
  780MOL0     H 7621   4.214   3.304   7.814  1.5724 -1.6887 -1.7197
  780MOL0     H 7622   4.526   3.121   7.763 -0.2902 -0.1070 -0.4891
  780MOL0     H 7623   4.779   3.080   7.752  2.1024  1.4741 -1.5707
  780MOL0     H 7624   4.869   3.775   7.672 -1.9866  0.7433 -0.1133
  780MOL0     H 7625   4.695   3.903   7.779 -0.1996 -0.1357  1.6888
  780MOL0     H 7626   4.532   4.193   7.922  0.8666 -0.0947  0.8382
  780MOL0     H 7627   4.362   4.337   7.964 -1.3131  1.5775  3.0076
  780MOL0     H 7628   4.220   4.480   8.112 -0.5741  2.3110 -1.7821
  780MOL0     H 7629   4.178   4.418   7.953 -0.7291  0.2759  0.4713
  780MOL0     H 7630   3.977   4.521   8.164 -1.6401  0.9929 -0.9267
  780MOL0     H 7631   3.926   4.407   8.032  1.3130 -0.2159  0.0995
  780MOL0     H 7632   4.060   4.676   8.015  1.3262 -3.0384  3.7336
  780MOL0     H 7633   4.004   4.585   7.871  0.4796  0.6777  0.0995
  780MOL0     H 7634   3.832   4.713   8.097 -0.0726 -1.2512 -0.3678
  780MOL0     H 7635   3.774   4.608   7.964  0.6287 -1.8515 -0.4795
  780MOL0     H 7636   3.829   4.878   7.682 -1.5075 -3.5844 -1.0450
  780MOL0     H 7637   4.159   4.082   8.234  0.2485  0.2760  0.0638
  780MOL0     H 7638   4.310   3.795   8.168  1.6514  0.7360 -2.1244
  780MOL0     H 7639   4.447   3.858   8.261 -0.4584 -0.3452 -1.1068
  780MOL0     H 7640   4.285   3.897   8.323 -0.4688 -0.8048  0.3109
  781MOL0     O 7641   6.855   1.118   9.605 -0.6085 -0.2009  0.4870
  781MOL0     C 7642   6.803   1.082   9.710 -0.4854 -0.2199  0.5950
  781MOL0     O 7643   6.870   1.047   9.824 -0.4402 -0.2875 -0.4216
  781MOL0     C 7644   7.005   1.064   9.828  1.0070  0.6706 -0.7774
  781MOL0     C 7645   7.056   1.147   9.928 -0.5265  0.9529 -0.7667
  781MOL0     C 7646   7.186   1.172   9.942 -0.2943 -0.0608  0.0622
  781MOL0     C 7647   7.282   1.113   9.856 -0.6132 -0.3651 -0.9003
  781MOL0     O 7648   7.417   1.115   9.869 -0.2473  0.2775 -1.1552
  781MOL0     C 7649   7.475   1.223   9.937  0.1907  0.9884 -0.1110
  781MOL0     C 7650   7.602   1.172  10.012  0.3719 -0.1418  0.0248
  781MOL0     C 7651   7.728   1.146   9.933 -0.6315  0.1749 -0.5172
  781MOL0     C 7652   7.849   1.119  10.027 -0.3478  0.6699  0.3117
  781MOL0     C 7653   7.930   1.245  10.065 -0.0973 -0.2633 -0.3601
  781MOL0     C 7654   8.011   1.232  10.196 -0.3968  0.7954  0.1717
  781MOL0     C 7655   8.066   1.372  10.234 -0.7508  0.2680 -0.1335
  781MOL0     C 7656   8.186   1.349  10.331  0.4424  0.4807 -0.0467
  781MOL0     N 7657   8.260   1.470  10.361  0.2750 -0.1954 -0.3594
  781MOL0     C 7658   8.339   1.542  10.279  0.3312 -0.3022  0.0857
  781MOL0     C 7659   8.409   1.616  10.363  0.0499 -0.7282 -0.7667
  781MOL0     C 7660   8.524   1.707  10.329 -0.6495 -1.3641  0.4798
  781MOL0     C 7661   8.528   1.832  10.423  0.0498 -0.2040 -0.7734
  781MOL0     C 7662   8.606   1.804  10.561  0.3898  0.7221 -0.1359
  781MOL0     C 7663   8.756   1.795  10.542 -0.2155  0.2183 -0.0408
  781MOL0     O 7664   8.822   1.863  10.435 -1.0219  0.0783  0.2081
  781MOL0     C 7665   8.957   1.826  10.401 -0.1304  0.5214 -0.4518
  781MOL0     C 7666   9.049   1.805  10.500  0.1250  0.5244 -0.1317
  781MOL0     C 7667   9.174   1.745  10.469  0.3036 -0.2164  0.1289
  781MOL0     C 7668   9.281   1.730  10.581  0.1620  0.2149  0.1893
  781MOL0     C 7669   9.210   1.713  10.334  0.3508  0.4278  0.4080
  781MOL0     C 7670   9.337   1.668  10.274  0.0262 -0.2592  0.3401
  781MOL0     O 7671   9.453   1.667  10.348  0.0293  0.6039  0.1353
  781MOL0     C 7672   9.567   1.620  10.290  0.6615  0.5760 -0.2552
  781MOL0     C 7673   9.646   1.715  10.237  0.0600  1.6238  0.1034
  781MOL0     C 7674   9.769   1.678  10.180 -0.2780 -0.2328 -0.5660
  781MOL0     C 7675   9.813   1.535  10.174 -0.1912 -0.4319  0.3283
  781MOL0     O 7676   9.936   1.492  10.122  0.4260 -0.4168  0.1802
  781MOL0     C 7677   9.962   1.509   9.980 -0.4182  0.2707 -0.7679
  781MOL0     C 7678  10.062   1.621   9.962 -0.6700  0.6863 -0.1648
  781MOL0     C 7679  10.104   1.630   9.820 -1.3966  0.6215 -0.3088
  781MOL0     C 7680  10.156   1.503   9.740 -0.2427 -0.0132 -0.2801
  781MOL0     C 7681  10.270   1.427   9.813 -0.0883  0.1730  0.8144
  781MOL0     C 7682  10.297   1.288   9.756  0.6768 -0.4410  0.1158
  781MOL0     C 7683  10.413   1.223   9.816  0.2203 -0.5507  0.6071
  781MOL0     C 7684  10.449   1.096   9.754 -0.6538  0.0024  0.1293
  781MOL0    Cl 7685  10.494   1.123   9.578  0.1789 -0.0393  0.3740
  781MOL0     C 7686   9.728   1.437  10.221  0.0627 -0.9313 -0.2758
  781MOL0     C 7687   9.599   1.482  10.277  0.0458  0.2836  0.3337
  781MOL0     O 7688   9.338   1.617  10.161  0.5055 -0.6432 -0.3850
  781MOL0     C 7689   9.110   1.745  10.234 -0.5160  1.1481  0.1732
  781MOL0     C 7690   8.989   1.799  10.276 -0.2756 -0.2909  0.4240
  781MOL0     N 7691   8.364   1.601  10.492  0.1599 -0.1498 -0.0287
  781MOL0     N 7692   8.269   1.510  10.492 -1.0146 -0.2841 -0.4871
  781MOL0     C 7693   7.240   1.029   9.755  1.0525 -0.1311 -0.6057
  781MOL0     C 7694   7.102   1.003   9.742  0.2439 -0.1914 -0.3748
  781MOL0     C 7695   6.652   1.067   9.712 -0.2289  0.2751 -0.0205
  781MOL0     C 7696   6.597   0.940   9.745 -0.3802 -0.6742 -0.0541
  781MOL0     C 7697   6.457   0.916   9.749 -0.8034  0.2087  0.4604
  781MOL0     C 7698   6.373   1.017   9.701 -0.2783  0.0697  0.7777
  781MOL0     O 7699   6.237   0.996   9.687 -0.0606 -0.0225 -0.3220
  781MOL0     C 7700   6.173   0.907   9.774  0.7589 -0.0727 -0.2993
  781MOL0     C 7701   6.026   0.940   9.784  0.2229 -0.7985 -0.4360
  781MOL0     C 7702   5.953   0.951   9.640 -0.9701  0.6095  0.9746
  781MOL0     C 7703   5.808   0.992   9.642  0.0436 -0.0433 -0.3432
  781MOL0     C 7704   5.781   1.058   9.518  0.9590 -0.1319  0.3350
  781MOL0     C 7705   5.752   1.131   9.433  0.0474  0.4568  0.3296
  781MOL0     C 7706   6.425   1.140   9.652  0.9658  0.1446  0.0123
  781MOL0     C 7707   6.564   1.163   9.666  0.0458 -0.0305  0.4447
  781MOL0     C 7708   6.606   1.303   9.641 -0.4363 -0.0821  0.0413
  781MOL0     H 7709   6.999   1.192  10.009  0.6657 -1.5424  1.6316
  781MOL0     H 7710   7.212   1.234  10.027 -1.6987 -0.2318  0.6275
  781MOL0     H 7711   7.398   1.256  10.008 -2.3512 -2.7824 -0.8361
  781MOL0     H 7712   7.491   1.309   9.870 -2.0357 -0.0436 -2.1231
  781MOL0     H 7713   7.618   1.246  10.090 -1.5301 -0.4469  0.7476
  781MOL0     H 7714   7.578   1.077  10.061  2.6334 -0.2929  0.9568
  781MOL0     H 7715   7.721   1.053   9.877 -1.4159  0.6148 -1.1666
  781MOL0     H 7716   7.745   1.229   9.864 -0.2676 -1.1093 -2.0255
  781MOL0     H 7717   7.808   1.076  10.119  2.6376 -0.1368  1.3683
  781MOL0     H 7718   7.916   1.045   9.983 -1.9809 -0.3306 -0.5894
  781MOL0     H 7719   7.856   1.324  10.082  2.6894  2.2640  0.9752
  781MOL0     H 7720   7.996   1.288   9.990 -1.2177 -0.6080 -1.5850
  781MOL0     H 7721   7.947   1.190  10.274  2.4704 -1.2837  1.5826
  781MOL0     H 7722   8.092   1.161  10.184 -0.3662  0.8900 -0.1901
  781MOL0     H 7723   7.990   1.439  10.274  0.1035  1.1819 -0.0162
  781MOL0     H 7724   8.122   1.415  10.150  1.8471  0.7326  1.7009
  781MOL0     H 7725   8.143   1.308  10.423  0.8954 -0.7778 -0.3688
  781MOL0     H 7726   8.255   1.278  10.284  1.2111  1.7365 -0.8652
  781MOL0     H 7727   8.351   1.532  10.172 -0.9519 -2.3772  0.0850
  781MOL0     H 7728   8.525   1.734  10.223  4.7710  0.7674  0.7487
  781MOL0     H 7729   8.613   1.649  10.355 -1.3606 -1.3723  3.1394
  781MOL0     H 7730   8.567   1.923  10.375 -2.6558  1.3720 -0.1761
  781MOL0     H 7731   8.425   1.860  10.447  1.3578  1.7686  3.4885
  781MOL0     H 7732   8.595   1.883  10.636  0.6113  1.3252 -0.7228
  781MOL0     H 7733   8.563   1.725  10.624  1.5575 -0.1653 -0.4250
  781MOL0     H 7734   8.810   1.832  10.629  1.1686 -0.4701 -0.5680
  781MOL0     H 7735   8.775   1.687  10.537  2.3603  0.3859  2.9610
  781MOL0     H 7736   9.017   1.853  10.592 -2.2243  0.3500 -0.7788
  781MOL0     H 7737   9.321   1.629  10.565  1.6357  0.8508 -0.3164
  781MOL0     H 7738   9.254   1.747  10.686 -1.0082  3.1258 -0.4901
  781MOL0     H 7739   9.369   1.793  10.567 -0.7418  1.3851 -0.3651
  781MOL0     H 7740   9.621   1.820  10.249 -1.8475  1.0727  1.3631
  781MOL0     H 7741   9.830   1.761  10.148 -3.6095  2.3284 -0.7746
  781MOL0     H 7742  10.007   1.413   9.956  1.8557  0.7252  1.2635
  781MOL0     H 7743   9.869   1.539   9.929 -1.3424  2.1573  1.7992
  781MOL0     H 7744  10.019   1.717   9.992 -0.1153  0.5822  1.0234
  781MOL0     H 7745  10.147   1.609  10.030 -0.6738  0.1500 -0.2506
  781MOL0     H 7746  10.185   1.702   9.804 -0.8400 -0.2443 -1.5182
  781MOL0     H 7747  10.018   1.673   9.766 -1.0061  0.6731 -0.9037
  781MOL0     H 7748  10.192   1.538   9.642  0.5717 -0.8317 -0.2911
  781MOL0     H 7749  10.067   1.441   9.728  0.1647 -1.1414  2.0900
  781MOL0     H 7750  10.362   1.487   9.814  2.4470 -3.3640 -0.0140
  781MOL0     H 7751  10.240   1.419   9.918  1.7262 -1.8803  1.2458
  781MOL0     H 7752  10.312   1.319   9.653  0.3060  2.5060  0.8729
  781MOL0     H 7753  10.207   1.225   9.766  0.0550  0.6594  2.0788
  781MOL0     H 7754  10.392   1.222   9.923  0.3187  0.1640  0.6343
  781MOL0     H 7755  10.496   1.293   9.803 -1.7071  1.7057 -0.2824
  781MOL0     H 7756  10.366   1.024   9.756 -2.0825  1.3547 -3.3169
  781MOL0     H 7757  10.539   1.059   9.803 -1.2332 -0.1610  1.0962
  781MOL0     H 7758   9.763   1.335  10.215  0.9394 -0.6904  0.4910
  781MOL0     H 7759   9.525   1.413  10.318 -1.0998  1.3358  0.0779
  781MOL0     H 7760   9.133   1.746  10.128  1.1624 -1.7026  0.4267
  781MOL0     H 7761   8.906   1.830  10.213 -0.3950  0.3684  0.8994
  781MOL0     H 7762   7.314   0.992   9.685  0.5782 -0.1585 -1.0966
  781MOL0     H 7763   7.080   0.949   9.651  0.5845 -0.9881  0.0109
  781MOL0     H 7764   6.663   0.858   9.773  1.9361  1.6172  1.7484
  781MOL0     H 7765   6.414   0.820   9.773  1.4373 -0.5849  1.5748
  781MOL0     H 7766   6.184   0.809   9.729 -0.7604  0.6559 -2.4025
  781MOL0     H 7767   6.223   0.896   9.871  2.4318  0.3201 -1.0774
  781MOL0     H 7768   6.012   1.033   9.840 -1.5984 -0.9082 -0.6583
  781MOL0     H 7769   5.980   0.858   9.840  1.2630 -3.5889 -3.3296
  781MOL0     H 7770   6.013   1.027   9.590 -1.0712 -0.8704 -1.5797
  781MOL0     H 7771   5.960   0.855   9.587  0.0016  2.3198 -2.2207
  781MOL0     H 7772   5.789   1.052   9.731 -0.8549  1.4784 -1.5106
  781MOL0     H 7773   5.743   0.905   9.652  1.5678 -1.6961 -3.2633
  781MOL0     H 7774   5.724   1.191   9.349  0.9783  1.1985  0.5377
  781MOL0     H 7775   6.369   1.224   9.612 -0.9604 -0.2285  1.7130
  781MOL0     H 7776   6.620   1.362   9.732  0.3932 -1.4213  0.8097
  781MOL0     H 7777   6.698   1.306   9.582  0.0555 -1.6181  0.6804
  781MOL0     H 7778   6.530   1.351   9.578  0.3464  0.6413 -0.3757
  782MOL0     O 7779   8.346   0.103  11.085  0.3313 -0.2637 -0.1545
  782MOL0     C 7780   8.334   0.187  11.180 -0.0070  0.2830  0.2436
  782MOL0     O 7781   8.207   0.241  11.217 -0.7222 -0.0806 -0.0614
  782MOL0     C 7782   8.087   0.199  11.177 -0.8029  0.9208  0.5631
  782MOL0     C 7783   8.066   0.067  11.129 -0.1720 -0.4248  0.5969
  782MOL0     C 7784   7.933   0.021  11.106 -0.4097 -0.2354 -0.0718
  782MOL0     C 7785   7.823   0.097  11.129 -0.2688  0.6332  0.5473
  782MOL0     O 7786   7.698   0.067  11.088  0.7617  0.0313 -0.5548
  782MOL0     C 7787   7.675  -0.066  11.064  0.3957  0.5199 -0.0249
  782MOL0     C 7788   7.529  -0.106  11.053 -0.2802 -0.2960  0.4636
  782MOL0     C 7789   7.427  -0.058  11.153 -0.3036 -0.4913  0.5045
  782MOL0     C 7790   7.289  -0.078  11.108 -0.7250  0.0158  0.4929
  782MOL0     C 7791   7.183  -0.006  11.189 -1.0439  0.1615 -0.2434
  782MOL0     C 7792   7.053  -0.039  11.127  0.4101 -0.5626  0.1554
  782MOL0     C 7793   6.930  -0.041  11.226 -0.9066  0.0471 -0.5726
  782MOL0     C 7794   6.885   0.090  11.291  0.5598 -0.9416  0.2527
  782MOL0     N 7795   6.744   0.102  11.322 -0.1186  0.1014 -0.2741
  782MOL0     C 7796   6.681   0.033  11.428 -0.2814 -0.7528 -0.5518
  782MOL0     C 7797   6.548   0.072  11.432  0.7538  0.5986  0.9386
  782MOL0     C 7798   6.442   0.030  11.528 -0.0646 -0.3986  0.0703
  782MOL0     C 7799   6.502  -0.057  11.637  0.5738  0.5975 -0.0479
  782MOL0     C 7800   6.398  -0.129  11.728  0.8418 -0.1707 -0.1321
  782MOL0     C 7801   6.264  -0.056  11.741 -0.3165 -0.2840  0.9397
  782MOL0     O 7802   6.184  -0.122  11.846  0.0239  0.2933 -0.6066
  782MOL0     C 7803   6.054  -0.080  11.865 -0.0816 -0.1105  0.7970
  782MOL0     C 7804   6.008   0.048  11.835  0.0148  0.2000  0.5215
  782MOL0     C 7805   5.880   0.101  11.857  0.0643  0.1644 -0.8766
  782MOL0     C 7806   5.849   0.250  11.828  0.3505 -0.0595 -0.4447
  782MOL0     C 7807   5.784   0.008  11.912 -0.3499 -0.2454 -0.0310
  782MOL0     C 7808   5.636   0.034  11.939  0.0628  0.6810 -0.1163
  782MOL0     O 7809   5.587   0.148  12.008  0.2370  0.1653 -0.7642
  782MOL0     C 7810   5.467   0.195  11.975  0.3333 -0.0467 -0.0993
  782MOL0     C 7811   5.378   0.224  12.072 -0.6817  0.9993  0.1289
  782MOL0     C 7812   5.255   0.272  12.047  0.5934 -0.3495  0.5882
  782MOL0     C 7813   5.224   0.322  11.916  0.6143 -0.0736 -0.7800
  782MOL0     O 7814   5.098   0.368  11.903 -0.8087  0.4609  0.0823
  782MOL0     C 7815   5.063   0.412  11.773  0.0874  0.1094  0.2546
  782MOL0     C 7816   5.040   0.301  11.674  0.0873  0.3682 -0.0276
  782MOL0     C 7817   5.047   0.351  11.534 -0.1062 -0.3664 -0.4464
  782MOL0     C 7818   5.035   0.247  11.429  0.1033 -0.0459 -0.5489
  782MOL0     C 7819   5.020   0.314  11.294  0.0186  0.5875 -0.4984
  782MOL0     C 7820   5.000   0.216  11.180 -0.9724  0.3750 -0.1224
  782MOL0     C 7821   5.120   0.125  11.158 -0.0464  1.1595  0.0667
  782MOL0     C 7822   5.108   0.012  11.042  0.6841 -0.9446 -0.3160
  782MOL0    Cl 7823   4.978  -0.090  11.107 -0.0408 -0.3749  0.0688
  782MOL0     C 7824   5.322   0.301  11.813 -0.6990  0.0368 -0.3056
  782MOL0     C 7825   5.442   0.235  11.844  0.0340 -1.0329  0.0404
  782MOL0     O 7826   5.561  -0.056  11.892 -0.1938 -0.1858 -0.6380
  782MOL0     C 7827   5.822  -0.129  11.935  0.1625 -0.3168 -0.7732
  782MOL0     C 7828   5.959  -0.163  11.909  0.8002 -0.5101 -0.7438
  782MOL0     N 7829   6.532   0.154  11.314  0.3322  0.2697 -0.0561
  782MOL0     N 7830   6.645   0.158  11.255  0.6247 -0.0674  0.5772
  782MOL0     C 7831   7.842   0.228  11.176  0.0892 -0.0182 -0.5154
  782MOL0     C 7832   7.980   0.279  11.202  0.0577  0.1427 -0.0862
  782MOL0     C 7833   8.445   0.228  11.254  0.1546 -1.2836 -0.2581
  782MOL0     C 7834   8.557   0.275  11.185  0.4761 -0.6720 -0.2800
  782MOL0     C 7835   8.673   0.302  11.264  0.4211 -0.6270  0.8190
  782MOL0     C 7836   8.682   0.297  11.398  0.0617  0.6699  0.1892
  782MOL0     O 7837   8.803   0.330  11.451  0.6887  0.8753  0.5182
  782MOL0     C 7838   8.809   0.319  11.589 -0.7937 -0.0972 -1.0764
  782MOL0     C 7839   8.956   0.357  11.626 -0.1038 -0.7724  1.4686
  782MOL0     C 7840   9.067   0.270  11.560  0.7199  0.0036  0.1099
  782MOL0     C 7841   9.212   0.324  11.576  0.6654 -0.0968  0.2522
  782MOL0     C 7842   9.256   0.300  11.713  0.1126 -0.2459  0.6289
  782MOL0     C 7843   9.299   0.273  11.816  1.0572 -0.3195 -0.6069
  782MOL0     C 7844   8.569   0.258  11.467 -0.6137 -0.2208 -0.2557
  782MOL0     C 7845   8.452   0.226  11.403  0.0875 -1.3290  0.3008
  782MOL0     C 7846   8.337   0.174  11.487 -0.5678  0.1743 -0.1254
  782MOL0     H 7847   8.141  -0.010  11.113 -0.7108 -0.9705  0.6731
  782MOL0     H 7848   7.941  -0.077  11.060  1.4144 -0.9338  1.5552
  782MOL0     H 7849   7.712  -0.118  11.153  0.0291  1.6443  0.7970
  782MOL0     H 7850   7.727  -0.104  10.975 -1.7250  1.6845 -1.8453
  782MOL0     H 7851   7.497  -0.063  10.957  1.8710 -0.1417 -0.2395
  782MOL0     H 7852   7.519  -0.214  11.044 -2.1143 -0.5262  3.6086
  782MOL0     H 7853   7.443  -0.114  11.246 -0.3733 -1.5298 -0.0888
  782MOL0     H 7854   7.449   0.049  11.151 -1.0241 -0.3031 -2.4062
  782MOL0     H 7855   7.287  -0.041  11.005  0.4462  0.9445  0.7760
  782MOL0     H 7856   7.267  -0.184  11.093  1.5247 -0.5273  0.5838
  782MOL0     H 7857   7.183   0.103  11.189  2.1526  0.2626 -0.7272
  782MOL0     H 7858   7.190  -0.041  11.292 -0.7178  0.2950 -0.2218
  782MOL0     H 7859   7.023   0.027  11.045  2.4092  3.5143  2.3950
  782MOL0     H 7860   7.053  -0.142  11.091 -0.6652 -1.1160  1.6657
  782MOL0     H 7861   6.957  -0.105  11.311  0.8343  0.6728 -0.6102
  782MOL0     H 7862   6.851  -0.084  11.164  3.1236 -1.4198 -5.3824
  782MOL0     H 7863   6.938   0.103  11.386  3.3388 -1.7623 -1.0701
  782MOL0     H 7864   6.932   0.163  11.223  2.1153  0.0720  2.2847
  782MOL0     H 7865   6.734  -0.036  11.494  0.7488  0.1733 -0.3875
  782MOL0     H 7866   6.377  -0.041  11.476  1.2312 -2.2140  0.8005
  782MOL0     H 7867   6.388   0.118  11.562  0.2647  0.1676 -0.8459
  782MOL0     H 7868   6.570  -0.136  11.602  0.7977  0.0652  1.5144
  782MOL0     H 7869   6.554   0.019  11.696 -0.0497  0.9898  0.0076
  782MOL0     H 7870   6.377  -0.230  11.692  0.5147 -1.1562  2.5531
  782MOL0     H 7871   6.445  -0.142  11.826 -1.6903  0.7554  1.3237
  782MOL0     H 7872   6.273   0.050  11.765 -2.7053  0.1735  0.0355
  782MOL0     H 7873   6.206  -0.065  11.649 -1.4321  2.2620  1.3126
  782MOL0     H 7874   6.080   0.119  11.796  0.2452 -0.4313 -0.2336
  782MOL0     H 7875   5.765   0.266  11.760 -0.0503 -0.9139 -0.1707
  782MOL0     H 7876   5.932   0.295  11.774  0.9792  1.2690  1.5594
  782MOL0     H 7877   5.849   0.301  11.924  0.9341 -3.0812  1.2939
  782MOL0     H 7878   5.403   0.197  12.175 -1.8986  1.9980  0.7127
  782MOL0     H 7879   5.185   0.278  12.131 -1.2290  1.2861 -0.9416
  782MOL0     H 7880   4.961   0.453  11.771  0.0094  0.1098 -4.0285
  782MOL0     H 7881   5.136   0.490  11.747 -0.4427  1.7356  3.1835
  782MOL0     H 7882   5.107   0.215  11.681 -0.0538  0.3051  0.5877
  782MOL0     H 7883   4.938   0.262  11.681  1.2142 -2.6714  0.8984
  782MOL0     H 7884   5.147   0.394  11.529 -0.0202 -0.5803 -0.5614
  782MOL0     H 7885   4.971   0.428  11.514  0.1640 -0.3607 -1.4696
  782MOL0     H 7886   4.956   0.174  11.451  0.3362 -0.2052 -0.2226
  782MOL0     H 7887   5.125   0.185  11.441 -2.0250 -2.9941  2.3995
  782MOL0     H 7888   4.940   0.389  11.300 -1.1559 -0.7012  0.9745
  782MOL0     H 7889   5.108   0.374  11.269 -0.0890  0.3620 -1.4497
  782MOL0     H 7890   4.989   0.257  11.079  3.0344 -3.3432 -2.4491
  782MOL0     H 7891   4.913   0.156  11.207 -0.8055  0.1979  0.0231
  782MOL0     H 7892   5.129   0.077  11.256 -1.3459  0.1148 -0.2994
  782MOL0     H 7893   5.206   0.190  11.141 -0.3861  2.6675  3.2119
  782MOL0     H 7894   5.196  -0.051  11.035  0.0568 -2.2234  2.0529
  782MOL0     H 7895   5.082   0.054  10.944  2.4721  0.6496 -0.1637
  782MOL0     H 7896   5.288   0.331  11.714 -3.5651 -0.4031  0.4323
  782MOL0     H 7897   5.519   0.208  11.773  1.3053 -0.0709  0.9992
  782MOL0     H 7898   5.752  -0.203  11.970  2.6521 -2.0604  0.8490
  782MOL0     H 7899   5.978  -0.267  11.935  1.6646 -0.1959 -0.1048
  782MOL0     H 7900   7.763   0.302  11.172 -0.5153 -0.5015  1.5314
  782MOL0     H 7901   7.998   0.380  11.238 -0.7831  0.7180 -1.2047
  782MOL0     H 7902   8.546   0.277  11.078 -1.0366  0.6554 -0.1331
  782MOL0     H 7903   8.763   0.328  11.209  0.3510  1.2781  1.5442
  782MOL0     H 7904   8.739   0.379  11.648 -0.1612 -0.7358  0.3916
  782MOL0     H 7905   8.798   0.217  11.627  0.8710 -0.6286 -1.9215
  782MOL0     H 7906   8.970   0.351  11.734  1.3191 -0.4750  1.3206
  782MOL0     H 7907   8.980   0.461  11.604  1.8297 -0.7905  3.2477
  782MOL0     H 7908   9.056   0.172  11.608 -2.4753  0.0886 -0.2776
  782MOL0     H 7909   9.047   0.250  11.454  1.9914 -1.4743  0.1046
  782MOL0     H 7910   9.234   0.424  11.540  2.0389 -0.6835 -0.6462
  782MOL0     H 7911   9.275   0.265  11.508  2.0992  1.5298  0.0928
  782MOL0     H 7912   9.343   0.238  11.907  1.4941  1.7774  0.0473
  782MOL0     H 7913   8.566   0.260  11.576 -2.4615 -0.8499 -0.2596
  782MOL0     H 7914   8.307   0.078  11.445 -0.4684  0.2996 -0.4840
  782MOL0     H 7915   8.363   0.160  11.592  2.2512  2.1217 -0.4595
  782MOL0     H 7916   8.248   0.239  11.485 -3.5563 -3.4819  0.9254
  783MOL0     O 7917   8.057   3.729   9.079 -0.3660  0.3967 -0.0657
  783MOL0     C 7918   7.991   3.673   8.992 -1.2638 -0.2131  0.2571
  783MOL0     O 7919   8.033   3.577   8.907 -0.2242 -0.0813 -0.4317
  783MOL0     C 7920   8.161   3.530   8.928 -0.3474  0.0922 -0.2035
  783MOL0     C 7921   8.175   3.410   8.998  0.0620 -0.3344 -0.2172
  783MOL0     C 7922   8.301   3.365   9.019 -0.6641 -0.3909  0.1423
  783MOL0     C 7923   8.415   3.426   8.953  0.9844 -0.1615 -0.6214
  783MOL0     O 7924   8.536   3.366   8.963 -0.2970 -0.5259  1.0871
  783MOL0     C 7925   8.641   3.394   8.867  0.0088 -0.0053 -0.0979
  783MOL0     C 7926   8.710   3.266   8.842 -1.0509  0.7339  0.4446
  783MOL0     C 7927   8.821   3.257   8.946 -0.5864 -0.6459  0.3662
  783MOL0     C 7928   8.908   3.129   8.937  0.8793  0.3169 -0.2126
  783MOL0     C 7929   9.003   3.130   8.822  0.6569  0.1853 -0.1862
  783MOL0     C 7930   9.065   2.982   8.804  0.0583 -0.2602 -0.8992
  783MOL0     C 7931   9.163   2.984   8.692 -0.4824 -1.2788 -0.7485
  783MOL0     C 7932   9.244   2.851   8.681 -0.5541  0.7517 -0.1685
  783MOL0     N 7933   9.373   2.869   8.756  0.1120  0.6457 -0.2257
  783MOL0     C 7934   9.467   2.965   8.709  0.1876 -0.0915 -0.3358
  783MOL0     C 7935   9.541   2.996   8.821  0.1751 -0.0606  0.0333
  783MOL0     C 7936   9.631   3.109   8.844  0.2647 -0.0848 -0.6705
  783MOL0     C 7937   9.763   3.063   8.908  0.3362 -0.1618 -0.0881
  783MOL0     C 7938   9.875   3.155   8.877  0.0040 -0.5214 -0.1421
  783MOL0     C 7939  10.006   3.113   8.930 -0.9499  0.6222 -0.3154
  783MOL0     O 7940  10.108   3.205   8.909 -0.3854 -0.2592  0.0308
  783MOL0     C 7941  10.153   3.210   8.781 -0.1196 -0.5897 -0.0745
  783MOL0     C 7942  10.220   3.104   8.722  0.3786 -0.6521 -0.0141
  783MOL0     C 7943  10.250   3.101   8.584 -0.2617 -0.0820 -0.1373
  783MOL0     C 7944  10.312   2.969   8.541 -0.1900  0.0340 -1.1982
  783MOL0     C 7945  10.218   3.213   8.499 -0.4226  0.1800 -0.1842
  783MOL0     C 7946  10.263   3.223   8.361  0.2298  0.9432 -0.7914
  783MOL0     O 7947  10.263   3.355   8.320  0.2686 -0.4526 -0.4462
  783MOL0     C 7948  10.285   3.384   8.192 -0.5482  1.3098  0.2550
  783MOL0     C 7949  10.193   3.482   8.146 -0.1255  0.2922 -0.0008
  783MOL0     C 7950  10.196   3.517   8.011  0.0732 -0.3597  0.4612
  783MOL0     C 7951  10.296   3.469   7.925  0.5064  0.0284 -1.0134
  783MOL0     O 7952  10.282   3.493   7.796 -0.1743 -0.9717  0.7661
  783MOL0     C 7953  10.318   3.624   7.770 -0.5194  0.5822  0.4269
  783MOL0     C 7954  10.309   3.624   7.616  0.5879 -0.1548 -1.0243
  783MOL0     C 7955  10.318   3.758   7.553  0.7784 -0.3434 -0.1336
  783MOL0     C 7956  10.253   3.772   7.405 -0.6117 -0.5900 -0.0855
  783MOL0     C 7957  10.247   3.916   7.360 -0.4384 -0.8090 -0.1533
  783MOL0     C 7958  10.376   3.969   7.279 -0.8813 -0.2153 -1.0277
  783MOL0     C 7959  10.366   4.117   7.242  0.6182 -0.4501 -0.1610
  783MOL0     C 7960  10.494   4.158   7.172  0.4260  0.4807 -0.5951
  783MOL0    Cl 7961  10.490   4.340   7.138  0.5205 -0.3081  0.1564
  783MOL0     C 7962  10.391   3.387   7.981  0.2237 -0.3451  0.5914
  783MOL0     C 7963  10.394   3.351   8.109  0.0939  0.5536  0.9019
  783MOL0     O 7964  10.296   3.128   8.291 -0.0165 -0.3967  0.0277
  783MOL0     C 7965  10.150   3.316   8.562  0.5126 -1.3084  0.0615
  783MOL0     C 7966  10.113   3.311   8.692  0.0285  0.3352  0.2503
  783MOL0     N 7967   9.503   2.916   8.926 -0.3448  0.4445  1.2868
  783MOL0     N 7968   9.398   2.854   8.888  0.2186 -0.5318 -0.2030
  783MOL0     C 7969   8.391   3.534   8.869  0.0072  0.1972 -0.0119
  783MOL0     C 7970   8.265   3.582   8.859  0.3207  0.5701  0.2764
  783MOL0     C 7971   7.860   3.725   8.985  0.3106  0.7823  0.2914
  783MOL0     C 7972   7.803   3.746   8.860  0.0291  0.5138  0.3983
  783MOL0     C 7973   7.676   3.806   8.843  0.0616 -0.5490 -0.7269
  783MOL0     C 7974   7.598   3.824   8.963 -0.1612 -0.4447  0.7034
  783MOL0     O 7975   7.473   3.871   8.972 -0.0799  0.8695 -0.1030
  783MOL0     C 7976   7.403   3.854   8.855 -0.1956 -0.5753  0.5724
  783MOL0     C 7977   7.256   3.868   8.886 -0.4099 -1.0859 -0.6048
  783MOL0     C 7978   7.215   4.023   8.906 -0.3853 -1.4203 -0.1638
  783MOL0     C 7979   7.079   4.026   8.982  0.1194 -0.1104  0.8149
  783MOL0     C 7980   7.043   4.161   9.028  0.1149 -0.5614  0.6878
  783MOL0     C 7981   7.037   4.275   9.069 -0.1476 -0.6877 -0.0208
  783MOL0     C 7982   7.656   3.799   9.086 -0.3000 -0.3185  0.1964
  783MOL0     C 7983   7.783   3.750   9.097  0.1167 -0.0997 -0.1680
  783MOL0     C 7984   7.832   3.750   9.245 -0.0500 -0.7203 -0.1893
  783MOL0     H 7985   8.091   3.365   9.050  2.3313 -1.7286  2.5462
  783MOL0     H 7986   8.320   3.278   9.081 -0.0208  0.4131  1.1126
  783MOL0     H 7987   8.717   3.466   8.898  0.2746  0.0313 -0.8166
  783MOL0     H 7988   8.606   3.429   8.770 -1.1491  2.2592  1.0646
  783MOL0     H 7989   8.641   3.181   8.851 -0.7061  0.2841 -0.8382
  783MOL0     H 7990   8.752   3.255   8.742 -0.4085 -4.1802  0.9755
  783MOL0     H 7991   8.889   3.342   8.932 -1.4219  0.4888  2.5557
  783MOL0     H 7992   8.774   3.282   9.041 -1.4183 -2.1978  0.3789
  783MOL0     H 7993   8.959   3.106   9.030 -1.6305 -1.0770  0.9275
  783MOL0     H 7994   8.853   3.035   8.929  1.1167  0.1534  0.0828
  783MOL0     H 7995   9.078   3.206   8.844 -1.0239  2.0348 -0.6329
  783MOL0     H 7996   8.951   3.161   8.731 -0.7152  2.3064  1.2607
  783MOL0     H 7997   9.122   2.956   8.893 -0.3286 -0.3945 -0.6860
  783MOL0     H 7998   8.990   2.904   8.787  0.5799 -0.7047 -1.1638
  783MOL0     H 7999   9.237   3.061   8.716  0.7659 -2.3419 -1.0747
  783MOL0     H 8000   9.120   3.011   8.595 -5.0565 -0.9892  1.1026
  783MOL0     H 8001   9.197   2.765   8.729  1.9962 -1.2674 -1.0821
  783MOL0     H 8002   9.253   2.818   8.577 -2.2446  0.3931 -0.2387
  783MOL0     H 8003   9.487   3.010   8.612  2.8060  0.4646  0.3727
  783MOL0     H 8004   9.583   3.186   8.906  3.9661  2.3330 -0.4610
  783MOL0     H 8005   9.652   3.155   8.747 -0.3424 -1.6127 -1.5563
  783MOL0     H 8006   9.742   3.065   9.016  0.1680 -0.5538 -0.1096
  783MOL0     H 8007   9.780   2.958   8.882 -0.4626 -0.8420  1.8865
  783MOL0     H 8008   9.881   3.164   8.768 -0.6377 -1.1526 -0.2341
  783MOL0     H 8009   9.836   3.248   8.920 -0.7998 -1.5382  1.4151
  783MOL0     H 8010   9.998   3.105   9.039  1.4557  1.3696 -0.0338
  783MOL0     H 8011  10.034   3.014   8.892 -1.8856  0.1639  0.1444
  783MOL0     H 8012  10.249   3.029   8.795 -2.0004 -0.4131  1.2968
  783MOL0     H 8013  10.251   2.924   8.462  0.4469  0.5240 -1.9866
  783MOL0     H 8014  10.330   2.905   8.627  0.5955  0.2759 -1.1697
  783MOL0     H 8015  10.409   2.987   8.493  0.7810 -1.0472  0.2921
  783MOL0     H 8016  10.114   3.512   8.214  2.2278  3.3235  1.6552
  783MOL0     H 8017  10.118   3.576   7.963 -0.3930 -1.9714 -0.8584
  783MOL0     H 8018  10.268   3.709   7.819 -2.7917  1.0672 -2.5041
  783MOL0     H 8019  10.424   3.631   7.796 -1.0363  2.2703  2.3913
  783MOL0     H 8020  10.374   3.547   7.572  0.4940 -2.4982  2.5597
  783MOL0     H 8021  10.207   3.588   7.603 -0.7146  2.0723  1.9411
  783MOL0     H 8022  10.420   3.797   7.548 -0.7705  4.6571  1.3468
  783MOL0     H 8023  10.274   3.834   7.618  1.7255  0.5275 -0.4952
  783MOL0     H 8024  10.156   3.723   7.412  0.1596 -2.0624  5.6469
  783MOL0     H 8025  10.304   3.715   7.326 -0.5594  0.2385 -0.6666
  783MOL0     H 8026  10.172   3.922   7.281 -2.5097 -0.3979  1.7516
  783MOL0     H 8027  10.207   3.975   7.443 -0.7643 -2.2053  0.7130
  783MOL0     H 8028  10.403   3.921   7.184  2.7155  1.2509 -0.9242
  783MOL0     H 8029  10.465   3.946   7.339 -0.8817 -2.2074 -1.6995
  783MOL0     H 8030  10.361   4.179   7.332 -1.9392 -0.4850 -0.1871
  783MOL0     H 8031  10.279   4.127   7.176  1.1353 -1.3518 -0.9946
  783MOL0     H 8032  10.518   4.091   7.089 -0.5109 -0.9425  0.2380
  783MOL0     H 8033  10.589   4.146   7.226  0.5676 -2.1664 -1.2641
  783MOL0     H 8034  10.473   3.357   7.917 -0.2516  1.2052 -0.8092
  783MOL0     H 8035  10.474   3.282   8.136  0.1770  0.3559  0.1777
  783MOL0     H 8036  10.128   3.412   8.516 -0.5597 -2.7364 -2.5701
  783MOL0     H 8037  10.073   3.398   8.744  1.2956  0.6959  0.6732
  783MOL0     H 8038   8.469   3.588   8.817  0.3648  1.5661  1.8541
  783MOL0     H 8039   8.235   3.663   8.793  2.9907 -0.4771 -2.4381
  783MOL0     H 8040   7.866   3.729   8.774 -0.3249  0.7716  0.0801
  783MOL0     H 8041   7.645   3.837   8.744  0.3693  1.5726 -0.2087
  783MOL0     H 8042   7.428   3.934   8.785 -0.6380 -2.3178 -1.7208
  783MOL0     H 8043   7.409   3.758   8.803 -0.6256 -0.4370  0.2615
  783MOL0     H 8044   7.213   3.811   8.968  0.7803  0.8025  1.4185
  783MOL0     H 8045   7.207   3.825   8.798  0.5003 -1.0738 -1.1357
  783MOL0     H 8046   7.287   4.077   8.968 -2.1807  2.5185 -1.2512
  783MOL0     H 8047   7.210   4.077   8.811  0.1074  0.4837  0.8412
  783MOL0     H 8048   7.084   3.955   9.065 -0.1301  1.2388  2.0168
  783MOL0     H 8049   7.003   3.999   8.908  0.5523 -1.1658  0.7322
  783MOL0     H 8050   7.026   4.376   9.103 -0.7837 -0.9173  0.4797
  783MOL0     H 8051   7.594   3.825   9.171 -2.2131  0.3598 -1.3186
  783MOL0     H 8052   7.903   3.668   9.255  2.2031  1.2318  0.7268
  783MOL0     H 8053   7.901   3.830   9.276 -0.4871 -0.5368  0.3264
  783MOL0     H 8054   7.754   3.733   9.319  0.9781 -5.1687  0.1522
  784MOL0     O 8055  10.681   6.639   1.571 -0.4263 -0.4756  0.5461
  784MOL0     C 8056  10.563   6.641   1.587  0.5336  0.5699  0.6612
  784MOL0     O 8057  10.500   6.689   1.696  0.1516  0.3297  0.1299
  784MOL0     C 8058  10.564   6.757   1.804 -0.7816  0.7439  0.9238
  784MOL0     C 8059  10.480   6.764   1.910 -0.1873  0.0855 -0.4843
  784MOL0     C 8060  10.521   6.832   2.022  0.3067 -0.0112 -0.1703
  784MOL0     C 8061  10.655   6.878   2.040  0.0605 -0.0067  0.5098
  784MOL0     O 8062  10.703   6.933   2.149  0.0191 -0.6798  0.0310
  784MOL0     C 8063  10.770   6.846   2.235  0.5431  0.0122  0.0177
  784MOL0     C 8064  10.920   6.880   2.229  0.7497  0.2009 -0.6230
  784MOL0     C 8065  11.004   6.794   2.322 -0.3271  0.9197  0.8054
  784MOL0     C 8066  11.147   6.804   2.278  0.1197 -0.4064  0.4270
  784MOL0     C 8067  11.233   6.743   2.393  0.7440  0.6208  0.7165
  784MOL0     C 8068  11.376   6.725   2.339  0.4045  0.6862 -0.1710
  784MOL0     C 8069  11.450   6.849   2.289  0.2048 -0.6500 -0.4922
  784MOL0     C 8070  11.581   6.808   2.213  0.5937 -0.4635  1.0833
  784MOL0     N 8071  11.658   6.921   2.169 -0.0208  0.7665  0.2611
  784MOL0     C 8072  11.626   7.007   2.071  0.6342  0.7010  0.2214
  784MOL0     C 8073  11.731   7.088   2.071  0.4631 -0.3084 -0.2002
  784MOL0     C 8074  11.745   7.204   1.977 -0.1883 -0.2732 -0.1874
  784MOL0     C 8075  11.857   7.301   2.045  0.0465 -0.1208 -0.5610
  784MOL0     C 8076  11.913   7.420   1.960  0.9286  1.2144  0.1737
  784MOL0     C 8077  12.012   7.487   2.040 -0.0950 -0.1012  0.8974
  784MOL0     O 8078  12.071   7.577   1.943 -0.0367  0.0608  0.1675
  784MOL0     C 8079  12.165   7.672   1.980 -0.2659  0.2944  0.7106
  784MOL0     C 8080  12.185   7.782   1.905 -0.7162 -0.2951  0.2404
  784MOL0     C 8081  12.279   7.885   1.936  1.4472  0.9978 -0.1794
  784MOL0     C 8082  12.268   8.013   1.852  0.0257  0.6572 -0.1776
  784MOL0     C 8083  12.348   7.867   2.053  0.3812 -0.3532  1.1041
  784MOL0     C 8084  12.447   7.965   2.095  0.0256 -0.9845  0.1144
  784MOL0     O 8085  12.587   7.945   2.072 -0.0141  0.0568  0.5958
  784MOL0     C 8086  12.618   7.848   1.985  0.1206  0.0527 -0.3940
  784MOL0     C 8087  12.680   7.732   2.031  0.5686 -1.0304  0.6675
  784MOL0     C 8088  12.734   7.639   1.942 -0.1933  0.2167 -0.6448
  784MOL0     C 8089  12.730   7.660   1.799 -0.4361 -0.1191  0.4914
  784MOL0     O 8090  12.779   7.559   1.720  0.1272 -0.0056  0.1999
  784MOL0     C 8091  12.682   7.485   1.638 -0.8394  0.1923  0.1618
  784MOL0     C 8092  12.565   7.430   1.719  0.4364 -0.3297  0.0787
  784MOL0     C 8093  12.494   7.338   1.624 -0.0735  0.1973 -0.1862
  784MOL0     C 8094  12.370   7.281   1.687 -0.4873 -0.3660  0.2616
  784MOL0     C 8095  12.277   7.210   1.583 -0.3909 -0.8489  0.0650
  784MOL0     C 8096  12.166   7.136   1.652  0.4823  0.3067  0.6681
  784MOL0     C 8097  12.061   7.073   1.554  0.1983  0.6711  0.0722
  784MOL0     C 8098  12.007   6.945   1.618 -0.1828  0.1325  0.1816
  784MOL0    Cl 8099  11.907   6.963   1.761 -0.2989  0.0072  0.0986
  784MOL0     C 8100  12.663   7.780   1.753 -0.2579  0.2035 -0.3754
  784MOL0     C 8101  12.618   7.874   1.843  0.8331 -0.3995 -0.2253
  784MOL0     O 8102  12.404   8.057   2.157 -0.3890  0.2441  0.1198
  784MOL0     C 8103  12.328   7.757   2.126  0.6353 -0.3765  0.0872
  784MOL0     C 8104  12.253   7.653   2.092 -0.1445  1.3100  0.4806
  784MOL0     N 8105  11.832   7.038   2.155  0.1881  0.2840 -0.2709
  784MOL0     N 8106  11.785   6.937   2.218  0.0650 -0.4772  0.7324
  784MOL0     C 8107  10.748   6.854   1.934 -0.2205  0.0214 -0.3247
  784MOL0     C 8108  10.697   6.797   1.811  0.0299 -0.4146 -0.2597
  784MOL0     C 8109  10.477   6.586   1.472  0.2191 -0.6002 -0.7142
  784MOL0     C 8110  10.540   6.564   1.353 -0.7347 -0.5991  0.6771
  784MOL0     C 8111  10.481   6.518   1.237  0.2361 -0.0743 -0.7188
  784MOL0     C 8112  10.340   6.492   1.244  0.6464  0.8588  0.2342
  784MOL0     O 8113  10.261   6.440   1.143  0.0952  0.4233 -0.1035
  784MOL0     C 8114  10.307   6.425   1.010  0.2980 -0.2451  0.2605
  784MOL0     C 8115  10.276   6.542   0.929  0.3782  0.3140 -0.5813
  784MOL0     C 8116  10.136   6.534   0.866  0.1302 -0.7458  0.2378
  784MOL0     C 8117  10.101   6.649   0.774 -0.7717 -0.4594 -0.0731
  784MOL0     C 8118  10.099   6.773   0.842  0.1881 -0.1585 -1.2464
  784MOL0     C 8119  10.093   6.877   0.897  0.7275  0.6571  1.6083
  784MOL0     C 8120  10.277   6.505   1.364 -0.4979  0.3509 -0.1620
  784MOL0     C 8121  10.340   6.561   1.479  0.7590  0.0132 -0.1895
  784MOL0     C 8122  10.248   6.578   1.596 -0.1174 -0.1053  0.5439
  784MOL0     H 8123  10.380   6.723   1.907  0.9619 -2.8789 -2.0259
  784MOL0     H 8124  10.451   6.850   2.104 -0.2814  0.7681 -0.8286
  784MOL0     H 8125  10.752   6.745   2.196 -0.8508  0.7743 -1.4379
  784MOL0     H 8126  10.729   6.864   2.335 -0.3367  1.1553 -0.5237
  784MOL0     H 8127  10.950   6.859   2.126  3.6504 -0.8564  0.3168
  784MOL0     H 8128  10.937   6.985   2.254 -1.5885  0.4725  0.0083
  784MOL0     H 8129  10.998   6.821   2.427 -0.7368 -1.7773  1.5433
  784MOL0     H 8130  10.981   6.688   2.319  1.3726  0.5360 -0.2813
  784MOL0     H 8131  11.152   6.747   2.184 -1.6738 -0.1513  0.1270
  784MOL0     H 8132  11.174   6.909   2.264  2.5028 -0.6412  2.5624
  784MOL0     H 8133  11.199   6.642   2.418 -0.9130  0.8704 -0.3992
  784MOL0     H 8134  11.248   6.806   2.481 -3.5765  1.5554  0.9612
  784MOL0     H 8135  11.441   6.670   2.409  0.8474  1.5332  0.0928
  784MOL0     H 8136  11.373   6.658   2.252 -0.3685 -0.1734  0.4944
  784MOL0     H 8137  11.473   6.911   2.376  2.8894  0.2812 -1.7496
  784MOL0     H 8138  11.386   6.899   2.217  2.5096 -1.9755 -3.7159
  784MOL0     H 8139  11.646   6.747   2.277 -1.3864 -1.0123  2.6968
  784MOL0     H 8140  11.554   6.750   2.125 -0.0411 -0.6817  1.4216
  784MOL0     H 8141  11.535   7.008   2.012  0.9769 -0.3681 -0.3470
  784MOL0     H 8142  11.657   7.266   1.960 -0.0591 -0.4485 -1.6126
  784MOL0     H 8143  11.784   7.167   1.882 -1.9924 -0.7268 -0.7825
  784MOL0     H 8144  11.831   7.348   2.139  3.2331  1.1506 -0.1859
  784MOL0     H 8145  11.941   7.238   2.074  0.4105  1.0317  1.0005
  784MOL0     H 8146  11.955   7.380   1.868 -1.9879 -0.2494 -0.6446
  784MOL0     H 8147  11.837   7.494   1.932 -1.3276 -1.2255 -0.5789
  784MOL0     H 8148  11.987   7.556   2.121 -1.2792 -0.9237  1.2487
  784MOL0     H 8149  12.080   7.409   2.077  1.6184  0.2498 -1.2759
  784MOL0     H 8150  12.141   7.780   1.806  0.6646 -0.1003 -0.4090
  784MOL0     H 8151  12.236   7.985   1.751 -0.6463 -1.0900  0.4838
  784MOL0     H 8152  12.371   8.048   1.840  0.7998 -1.8321 -1.3205
  784MOL0     H 8153  12.196   8.084   1.895 -0.8394  0.7278 -1.6618
  784MOL0     H 8154  12.696   7.718   2.138 -0.1841 -1.5635  0.7166
  784MOL0     H 8155  12.786   7.556   1.987  0.5261  0.9227 -0.1421
  784MOL0     H 8156  12.641   7.559   1.568  1.2753 -1.1100 -2.7111
  784MOL0     H 8157  12.724   7.406   1.576 -2.6672 -0.0542 -0.8369
  784MOL0     H 8158  12.596   7.377   1.809  0.4349 -2.5851 -1.1839
  784MOL0     H 8159  12.510   7.512   1.766  1.6859 -0.2371  1.4801
  784MOL0     H 8160  12.564   7.253   1.618 -0.9536 -0.7652  1.9585
  784MOL0     H 8161  12.483   7.386   1.527 -0.5963 -1.4092 -0.9577
  784MOL0     H 8162  12.317   7.365   1.734  1.7076  0.6234  1.1325
  784MOL0     H 8163  12.394   7.208   1.764 -1.8795 -0.5600  0.5458
  784MOL0     H 8164  12.229   7.287   1.522 -2.8726 -3.1768 -1.1396
  784MOL0     H 8165  12.334   7.148   1.514  1.1266  0.8020 -0.2604
  784MOL0     H 8166  12.112   7.206   1.716 -1.0211  0.2403 -0.4672
  784MOL0     H 8167  12.203   7.057   1.718 -1.4760  0.8821  2.5810
  784MOL0     H 8168  12.118   7.046   1.464  1.1381  0.3347  0.7592
  784MOL0     H 8169  11.971   7.131   1.530  0.9376  1.3127 -1.2813
  784MOL0     H 8170  12.089   6.882   1.654 -1.8781 -2.2261  0.1875
  784MOL0     H 8171  11.957   6.885   1.541  0.8921  0.6989 -0.9881
  784MOL0     H 8172  12.633   7.803   1.651 -0.8884  2.0998  0.1913
  784MOL0     H 8173  12.584   7.970   1.806  0.4151  0.8183  2.9439
  784MOL0     H 8174  12.394   7.744   2.211  0.6456 -1.9434 -0.1386
  784MOL0     H 8175  12.243   7.569   2.160 -1.3169  1.6378  0.7377
  784MOL0     H 8176  10.850   6.890   1.941 -0.2123  0.7441 -3.0179
  784MOL0     H 8177  10.771   6.770   1.737 -0.0517 -1.8465  0.1622
  784MOL0     H 8178  10.637   6.609   1.333 -1.5429  0.7556 -0.3382
  784MOL0     H 8179  10.547   6.512   1.151  0.2454  1.3415 -0.8253
  784MOL0     H 8180  10.415   6.407   1.010  0.6379  1.1985 -2.8137
  784MOL0     H 8181  10.262   6.338   0.961  3.4095 -2.7544  1.4688
  784MOL0     H 8182  10.356   6.536   0.855  1.3134 -2.0662  0.5145
  784MOL0     H 8183  10.283   6.632   0.991 -1.3150  1.6444 -2.1899
  784MOL0     H 8184  10.133   6.442   0.806 -1.3415 -1.2072  0.9593
  784MOL0     H 8185  10.053   6.512   0.935  0.0214 -1.0131  0.0283
  784MOL0     H 8186  10.002   6.636   0.729 -0.2163  2.2646 -2.4103
  784MOL0     H 8187  10.181   6.661   0.701  0.6350 -0.9709  1.3276
  784MOL0     H 8188  10.096   6.977   0.938 -0.1602  1.0119  0.8296
  784MOL0     H 8189  10.170   6.486   1.370 -0.5948  1.1978  2.2810
  784MOL0     H 8190  10.148   6.540   1.571  2.6727 -6.0887 -4.3003
  784MOL0     H 8191  10.291   6.531   1.685  1.8902  1.9510  0.7438
  784MOL0     H 8192  10.243   6.686   1.612  1.3053 -0.1647  1.6345
  785MOL0     O 8193   2.157   9.294   6.479  0.1193  0.9664 -0.0657
  785MOL0     C 8194   2.083   9.197   6.451  0.3933 -0.5593 -0.3061
  785MOL0     O 8195   2.122   9.076   6.420  0.3525 -0.2690 -0.3835
  785MOL0     C 8196   2.252   9.042   6.456  0.3251  0.4987  0.3707
  785MOL0     C 8197   2.288   9.058   6.589  0.0699  0.3507 -0.1093
  785MOL0     C 8198   2.422   9.030   6.628 -0.1292 -0.0013  0.2303
  785MOL0     C 8199   2.518   8.982   6.533  0.2333  0.8385 -0.9773
  785MOL0     O 8200   2.650   8.955   6.563 -0.0359 -0.0919  0.1900
  785MOL0     C 8201   2.706   8.984   6.688  0.5953 -0.3647 -0.0571
  785MOL0     C 8202   2.854   8.961   6.679  0.9865  0.3559 -0.3855
  785MOL0     C 8203   2.929   9.029   6.797 -0.2809 -0.1398 -1.0861
  785MOL0     C 8204   3.082   9.005   6.778 -0.5024  0.2188 -0.2138
  785MOL0     C 8205   3.171   9.064   6.890 -0.1811 -0.2378 -0.0706
  785MOL0     C 8206   3.316   9.014   6.874 -0.4060 -0.0792  0.4208
  785MOL0     C 8207   3.396   9.046   7.000  1.3757  0.1653  0.0817
  785MOL0     C 8208   3.481   9.164   6.972 -0.3549  0.1393 -0.3226
  785MOL0     N 8209   3.608   9.120   6.913 -0.5748 -0.0148 -0.6422
  785MOL0     C 8210   3.645   9.129   6.780 -0.1350  0.5481 -0.0388
  785MOL0     C 8211   3.781   9.128   6.775 -0.0562  0.1916  0.9692
  785MOL0     C 8212   3.864   9.138   6.648  0.6173 -0.0404  0.0962
  785MOL0     C 8213   3.998   9.206   6.664  0.1901 -0.2257  0.6109
  785MOL0     C 8214   4.069   9.245   6.529 -0.5923 -0.0995  0.4737
  785MOL0     C 8215   4.209   9.289   6.543 -1.7771  0.8766 -0.4850
  785MOL0     O 8216   4.274   9.277   6.419 -0.3290 -0.4600  0.1159
  785MOL0     C 8217   4.405   9.308   6.415 -0.0194  0.0161  0.0117
  785MOL0     C 8218   4.479   9.366   6.518  0.5344 -0.9858 -0.1424
  785MOL0     C 8219   4.617   9.391   6.504 -0.2740  0.0024 -0.6599
  785MOL0     C 8220   4.675   9.485   6.613  0.3563 -0.3106 -0.2711
  785MOL0     C 8221   4.685   9.357   6.385  0.2565 -0.3588 -0.3451
  785MOL0     C 8222   4.830   9.355   6.375 -0.1475  0.0264 -0.9019
  785MOL0     O 8223   4.879   9.325   6.246  0.2901 -0.6635 -0.1557
  785MOL0     C 8224   5.020   9.316   6.224  0.4343 -0.4013  0.1746
  785MOL0     C 8225   5.097   9.432   6.193 -0.2298  0.7805  0.4504
  785MOL0     C 8226   5.235   9.422   6.163 -0.7272 -0.0782  0.2977
  785MOL0     C 8227   5.294   9.299   6.160 -0.3899  0.7092  0.5859
  785MOL0     O 8228   5.425   9.314   6.127 -0.0788  0.3475  0.5292
  785MOL0     C 8229   5.494   9.189   6.096 -0.3441 -1.2118 -0.3032
  785MOL0     C 8230   5.648   9.207   6.081 -0.2248  0.4675 -0.8862
  785MOL0     C 8231   5.674   9.322   5.986  0.4821  0.2631 -0.5704
  785MOL0     C 8232   5.828   9.330   5.964  0.9350 -0.1263 -0.4702
  785MOL0     C 8233   5.867   9.446   5.873  0.1890  0.6752 -0.8945
  785MOL0     C 8234   5.855   9.581   5.941 -0.0103 -0.2961 -0.1174
  785MOL0     C 8235   5.953   9.687   5.876 -0.3267  0.1920 -0.6846
  785MOL0     C 8236   6.103   9.658   5.910 -0.0855  0.3196  1.0996
  785MOL0    Cl 8237   6.139   9.655   6.085  0.1598  0.0400  0.2082
  785MOL0     C 8238   5.220   9.186   6.199  0.1808 -0.3526 -0.5920
  785MOL0     C 8239   5.083   9.190   6.226 -0.2055  0.1149 -0.0361
  785MOL0     O 8240   4.896   9.360   6.478  0.3935  0.1224 -0.3266
  785MOL0     C 8241   4.601   9.303   6.279 -1.1474 -0.0790 -0.3415
  785MOL0     C 8242   4.470   9.269   6.301 -0.3550  0.0042 -0.1679
  785MOL0     N 8243   3.826   9.107   6.902 -0.0535  0.1245  0.7097
  785MOL0     N 8244   3.727   9.110   6.975 -0.2893 -0.2962 -0.6044
  785MOL0     C 8245   2.473   8.956   6.404 -1.0471 -0.0022 -0.6971
  785MOL0     C 8246   2.341   8.986   6.365 -0.0966  0.0277 -0.2473
  785MOL0     C 8247   1.935   9.237   6.432 -0.0945  0.1898  0.5873
  785MOL0     C 8248   1.879   9.315   6.534  0.2768  0.5502 -0.6335
  785MOL0     C 8249   1.739   9.357   6.532  0.1199  1.0377  0.7684
  785MOL0     C 8250   1.663   9.321   6.425  0.0354  0.3421  0.1436
  785MOL0     O 8251   1.524   9.332   6.416  0.8314 -0.1271 -0.3109
  785MOL0     C 8252   1.451   9.417   6.514 -0.3115  0.2418  0.9300
  785MOL0     C 8253   1.418   9.340   6.634  0.4904 -0.7705 -0.3473
  785MOL0     C 8254   1.314   9.227   6.618 -0.2493 -0.9484  0.6559
  785MOL0     C 8255   1.201   9.240   6.514 -0.3298 -0.0031  0.4731
  785MOL0     C 8256   1.121   9.363   6.523 -1.0631 -0.9328 -0.7787
  785MOL0     C 8257   1.065   9.472   6.519 -0.3292 -0.2787 -0.0748
  785MOL0     C 8258   1.719   9.240   6.326 -0.3871 -0.3820 -0.7890
  785MOL0     C 8259   1.855   9.193   6.325  0.2322 -0.7386  0.3032
  785MOL0     C 8260   1.911   9.109   6.205 -0.0902  0.0520  0.2664
  785MOL0     H 8261   2.223   9.112   6.657  0.0879  0.8226 -0.4636
  785MOL0     H 8262   2.448   9.069   6.726  0.3336  2.4742 -0.8096
  785MOL0     H 8263   2.663   8.923   6.768 -0.6515  0.9635  0.3503
  785MOL0     H 8264   2.689   9.088   6.718  1.3860  0.0159 -0.8950
  785MOL0     H 8265   2.867   8.852   6.683 -1.8059 -0.0217  0.8129
  785MOL0     H 8266   2.897   9.006   6.589  0.1254  1.8044 -0.0986
  785MOL0     H 8267   2.912   9.137   6.808 -0.0852 -0.2939  1.1489
  785MOL0     H 8268   2.906   8.983   6.893  1.9875  0.0157 -0.4108
  785MOL0     H 8269   3.103   8.899   6.760 -1.2612  0.2399 -1.2853
  785MOL0     H 8270   3.108   9.064   6.690  1.8343 -2.8412 -1.7844
  785MOL0     H 8271   3.148   9.020   6.988 -0.2440  0.4921  0.2527
  785MOL0     H 8272   3.167   9.173   6.902  2.1212 -0.1758  0.5731
  785MOL0     H 8273   3.323   8.907   6.853  0.7355  0.5094 -2.7279
  785MOL0     H 8274   3.367   9.062   6.790 -1.4861 -1.4422 -1.0791
  785MOL0     H 8275   3.457   8.958   7.022 -0.0808 -0.4811  1.8258
  785MOL0     H 8276   3.333   9.067   7.087  0.1999 -0.5380 -0.5679
  785MOL0     H 8277   3.429   9.235   6.908  0.0052  1.2120  0.5391
  785MOL0     H 8278   3.502   9.213   7.068  0.0404 -0.1600 -0.2470
  785MOL0     H 8279   3.590   9.131   6.686  0.5214 -1.8919 -0.5219
  785MOL0     H 8280   3.804   9.197   6.578  1.1310 -0.6377 -0.8813
  785MOL0     H 8281   3.882   9.036   6.611  0.1745 -1.3165  3.1416
  785MOL0     H 8282   3.984   9.299   6.721  2.2472  0.7760 -0.3918
  785MOL0     H 8283   4.070   9.145   6.720  2.1025  1.0937 -0.2935
  785MOL0     H 8284   4.070   9.156   6.467  1.8273 -0.7021  1.2723
  785MOL0     H 8285   4.007   9.323   6.484 -1.4949 -0.4400  1.0688
  785MOL0     H 8286   4.207   9.387   6.591 -0.3731  0.3266  0.7756
  785MOL0     H 8287   4.255   9.216   6.610  2.7183  1.8970 -2.1221
  785MOL0     H 8288   4.432   9.399   6.610  0.7361  0.6041 -0.5696
  785MOL0     H 8289   4.738   9.429   6.682  0.9674 -1.4718 -1.7163
  785MOL0     H 8290   4.594   9.547   6.652 -0.6489 -3.3276  3.0054
  785MOL0     H 8291   4.744   9.558   6.569  0.6523  1.6442  3.0702
  785MOL0     H 8292   5.043   9.526   6.184  0.1443  0.9206 -0.4471
  785MOL0     H 8293   5.290   9.510   6.131 -3.0152  1.2682 -0.1714
  785MOL0     H 8294   5.482   9.121   6.181  0.2283  1.3929  1.9945
  785MOL0     H 8295   5.462   9.153   5.998 -0.2731  0.9085 -1.1531
  785MOL0     H 8296   5.701   9.235   6.172 -0.5663  1.7783 -1.0702
  785MOL0     H 8297   5.691   9.112   6.047 -0.2796 -0.0953  0.5631
  785MOL0     H 8298   5.643   9.421   6.023 -2.5378 -0.1088 -1.8218
  785MOL0     H 8299   5.621   9.308   5.892 -0.8585 -3.1768  0.5523
  785MOL0     H 8300   5.850   9.242   5.903 -4.0572 -0.0920 -2.7966
  785MOL0     H 8301   5.880   9.330   6.060 -0.2810 -0.4693  0.2019
  785MOL0     H 8302   5.971   9.428   5.844  0.5640  1.9717 -0.4401
  785MOL0     H 8303   5.812   9.451   5.778 -1.2433 -2.6904 -0.3696
  785MOL0     H 8304   5.890   9.568   6.044  2.2983 -3.9354 -1.1330
  785MOL0     H 8305   5.754   9.621   5.928  0.0095 -0.9645 -2.9023
  785MOL0     H 8306   5.934   9.785   5.921 -2.7035 -1.4595  2.1912
  785MOL0     H 8307   5.938   9.687   5.767  0.2548  1.5539 -0.7852
  785MOL0     H 8308   6.160   9.736   5.859  0.9399 -1.0713  0.0398
  785MOL0     H 8309   6.149   9.566   5.871 -0.5738 -0.0281  1.3338
  785MOL0     H 8310   5.260   9.086   6.191  2.1834  0.0976  2.2436
  785MOL0     H 8311   5.038   9.092   6.230  0.9332 -0.5191 -1.6788
  785MOL0     H 8312   4.648   9.273   6.186 -1.8355 -0.3674 -0.6060
  785MOL0     H 8313   4.410   9.231   6.218 -2.5059  2.0115  0.3485
  785MOL0     H 8314   2.550   8.910   6.343  3.2950  2.2008  2.5599
  785MOL0     H 8315   2.314   8.969   6.261  0.7702  0.7722 -0.6082
  785MOL0     H 8316   1.946   9.333   6.618  0.5975  1.0425 -0.9885
  785MOL0     H 8317   1.705   9.408   6.622  1.0771 -0.1306  1.8431
  785MOL0     H 8318   1.518   9.500   6.539  2.0254 -0.9192 -0.9939
  785MOL0     H 8319   1.361   9.451   6.463 -0.3133 -0.7951  0.2058
  785MOL0     H 8320   1.384   9.414   6.707  1.4469  0.4913 -1.1354
  785MOL0     H 8321   1.508   9.293   6.674  0.8985  2.0171  2.4881
  785MOL0     H 8322   1.364   9.137   6.579 -0.4734 -1.4337  1.4758
  785MOL0     H 8323   1.280   9.188   6.714 -1.6504 -1.2384  0.0681
  785MOL0     H 8324   1.137   9.151   6.516 -0.2783 -0.0658 -0.2131
  785MOL0     H 8325   1.238   9.247   6.411 -1.5498 -0.1912  0.0073
  785MOL0     H 8326   1.008   9.561   6.504  1.1909  0.1351 -5.0492
  785MOL0     H 8327   1.645   9.221   6.249 -2.1012  3.2338 -0.2459
  785MOL0     H 8328   2.006   9.142   6.163 -0.1624 -2.0921 -1.7489
  785MOL0     H 8329   1.941   9.010   6.241 -1.6804 -1.0539 -1.2796
  785MOL0     H 8330   1.836   9.104   6.127  2.1917  0.6080 -2.0963
  786MOL0     O 8331   5.631   9.938   2.403 -0.1606 -0.1184  0.3822
  786MOL0     C 8332   5.603   9.817   2.410  0.4942  0.5039 -0.1825
  786MOL0     O 8333   5.679   9.723   2.470 -0.6190 -0.7525 -1.2009
  786MOL0     C 8334   5.801   9.761   2.529  0.9488 -0.3538  1.0668
  786MOL0     C 8335   5.908   9.805   2.450  0.3743  0.0565 -0.0427
  786MOL0     C 8336   6.025   9.845   2.509  0.1534 -0.0854  0.2734
  786MOL0     C 8337   6.043   9.832   2.649  0.6739 -0.2431  0.1666
  786MOL0     O 8338   6.150   9.863   2.730  0.5849 -0.4991  0.2084
  786MOL0     C 8339   6.249   9.933   2.661 -0.4485  0.0173  0.0268
  786MOL0     C 8340   6.353   9.986   2.766 -0.8048  0.7834  0.2930
  786MOL0     C 8341   6.466   9.884   2.790 -0.0394  0.1372 -0.7070
  786MOL0     C 8342   6.571   9.932   2.894 -0.2628  0.3432 -0.2999
  786MOL0     C 8343   6.695   9.838   2.887  0.4022  0.3216  2.0077
  786MOL0     C 8344   6.787   9.853   3.001  0.3748 -0.3502 -0.4181
  786MOL0     C 8345   6.856   9.988   3.028  0.5129 -0.6926  0.1198
  786MOL0     C 8346   6.957  10.035   2.925 -0.5811 -0.2418  0.9394
  786MOL0     N 8347   7.095   9.984   2.963 -0.3209 -0.6684 -0.1466
  786MOL0     C 8348   7.176  10.038   3.063  0.1047 -0.2122  0.3695
  786MOL0     C 8349   7.276   9.945   3.073 -0.7084 -0.9775 -0.7135
  786MOL0     C 8350   7.397   9.984   3.156  0.8798 -0.7435  0.2907
  786MOL0     C 8351   7.466   9.864   3.237  0.3182  0.2620  0.2681
  786MOL0     C 8352   7.563   9.795   3.137 -0.5908  0.6377 -0.1680
  786MOL0     C 8353   7.624   9.676   3.208 -0.3490  0.8035  0.1532
  786MOL0     O 8354   7.714   9.719   3.310 -0.3108 -0.2000 -1.0210
  786MOL0     C 8355   7.797   9.630   3.373  0.5524  0.4067 -0.0839
  786MOL0     C 8356   7.801   9.495   3.340 -0.2771 -0.1955  0.0855
  786MOL0     C 8357   7.882   9.394   3.397  0.0844 -0.4802 -0.2388
  786MOL0     C 8358   7.884   9.256   3.344 -0.0903 -0.2612 -1.0779
  786MOL0     C 8359   7.952   9.437   3.520  0.4777  0.5037  0.4630
  786MOL0     C 8360   8.013   9.333   3.606 -0.6029 -0.7598 -0.1195
  786MOL0     O 8361   8.023   9.204   3.569  0.5182 -0.4351  0.6014
  786MOL0     C 8362   8.070   9.097   3.648  0.4243 -1.2615  0.6102
  786MOL0     C 8363   8.174   9.015   3.608 -0.3576  0.4900  0.4243
  786MOL0     C 8364   8.218   8.918   3.702 -0.3658 -0.2751 -0.6338
  786MOL0     C 8365   8.152   8.893   3.826 -0.6115  0.4655  0.2112
  786MOL0     O 8366   8.206   8.799   3.899 -0.2761  0.5488 -0.6284
  786MOL0     C 8367   8.150   8.771   4.023  0.1933  0.0771 -0.2088
  786MOL0     C 8368   8.203   8.637   4.076  0.7762  0.0426  0.5570
  786MOL0     C 8369   8.355   8.628   4.115  0.5753  0.2921  0.5007
  786MOL0     C 8370   8.408   8.479   4.105 -0.3207  0.0852 -0.0785
  786MOL0     C 8371   8.563   8.477   4.115  0.2472  0.0476 -0.8908
  786MOL0     C 8372   8.627   8.344   4.149 -0.4084 -0.2154 -1.0162
  786MOL0     C 8373   8.756   8.361   4.230  0.2277  0.3228 -0.8931
  786MOL0     C 8374   8.832   8.226   4.256 -0.5985  0.8507  0.1521
  786MOL0    Cl 8375   8.722   8.103   4.325  0.1606  0.3649 -0.5365
  786MOL0     C 8376   8.035   8.968   3.853 -0.1607  0.2018 -0.2674
  786MOL0     C 8377   8.003   9.079   3.768  0.6317 -0.2697 -0.2015
  786MOL0     O 8378   8.039   9.366   3.719  0.3321 -0.5494  0.2842
  786MOL0     C 8379   7.955   9.574   3.555 -0.5133  0.3587  1.2386
  786MOL0     C 8380   7.872   9.668   3.487  0.1544 -0.6049 -0.5616
  786MOL0     N 8381   7.258   9.835   2.989 -0.3741 -0.6248 -0.2786
  786MOL0     N 8382   7.152   9.867   2.920  0.1537 -0.2540  0.0075
  786MOL0     C 8383   5.935   9.772   2.721  0.0150  0.1112 -0.3430
  786MOL0     C 8384   5.814   9.742   2.667 -0.2894  0.7320  0.6825
  786MOL0     C 8385   5.476   9.773   2.349  0.2791 -0.7616 -0.4237
  786MOL0     C 8386   5.418   9.860   2.248  0.9216 -0.1183  0.3443
  786MOL0     C 8387   5.288   9.828   2.199 -0.3831 -0.5745  1.2007
  786MOL0     C 8388   5.212   9.727   2.251  0.4251  0.8871  0.2578
  786MOL0     O 8389   5.086   9.703   2.187  0.3301 -0.4559  0.1071
  786MOL0     C 8390   5.007   9.596   2.246 -0.0581  0.2909 -0.8703
  786MOL0     C 8391   4.858   9.578   2.208 -0.5594  0.2747  0.3489
  786MOL0     C 8392   4.851   9.518   2.062  0.1466 -0.9234 -0.0600
  786MOL0     C 8393   4.718   9.522   1.988  0.1350 -0.8640 -0.0407
  786MOL0     C 8394   4.599   9.470   2.056  0.1243 -0.4295 -0.0266
  786MOL0     C 8395   4.503   9.419   2.112  0.4189  0.7188  0.0805
  786MOL0     C 8396   5.266   9.648   2.349  0.2956  0.2807  0.1248
  786MOL0     C 8397   5.398   9.664   2.395  0.0181 -0.1344 -0.2845
  786MOL0     C 8398   5.435   9.578   2.511  0.6169 -0.4283  0.6643
  786MOL0     H 8399   5.897   9.804   2.342 -2.3763 -1.3674  0.1505
  786MOL0     H 8400   6.116   9.878   2.460  1.2227  0.7475  2.6762
  786MOL0     H 8401   6.193  10.020   2.624 -2.2526 -1.5957 -1.2428
  786MOL0     H 8402   6.288   9.872   2.579  0.8584 -0.2065  0.7863
  786MOL0     H 8403   6.407  10.076   2.735 -0.0333  0.3007  0.1997
  786MOL0     H 8404   6.303   9.997   2.863 -0.3187  1.9716  0.4261
  786MOL0     H 8405   6.423   9.789   2.824  0.2053  0.7439  1.4017
  786MOL0     H 8406   6.522   9.865   2.698  1.1585 -0.0364  0.0390
  786MOL0     H 8407   6.603  10.035   2.875  1.7766 -0.4673 -1.5228
  786MOL0     H 8408   6.521   9.922   2.992  0.0620  0.0158 -0.1679
  786MOL0     H 8409   6.742   9.840   2.789  0.6017 -3.2976  1.9013
  786MOL0     H 8410   6.655   9.736   2.893  1.8297 -0.5554 -1.3385
  786MOL0     H 8411   6.731   9.813   3.086  1.5105 -3.1628 -0.8631
  786MOL0     H 8412   6.862   9.775   2.981 -0.0845 -0.7651 -0.5582
  786MOL0     H 8413   6.896   9.988   3.130  0.8606  0.1000 -0.0063
  786MOL0     H 8414   6.780  10.067   3.033 -0.2908 -1.2975 -1.7532
  786MOL0     H 8415   6.931   9.998   2.826  2.6157 -0.2800  0.0005
  786MOL0     H 8416   6.962  10.145   2.922 -3.8957  0.0194  0.0942
  786MOL0     H 8417   7.169  10.135   3.111  2.8203 -0.5590  1.6239
  786MOL0     H 8418   7.360  10.067   3.217 -1.1921 -0.1369 -1.6419
  786MOL0     H 8419   7.474  10.030   3.093  2.2644 -4.2120 -0.7871
  786MOL0     H 8420   7.517   9.913   3.320  1.9693  1.0095 -1.1218
  786MOL0     H 8421   7.378   9.806   3.269 -0.5178  1.5525  0.3666
  786MOL0     H 8422   7.510   9.751   3.051 -2.6121 -0.7370  1.6541
  786MOL0     H 8423   7.640   9.862   3.098 -2.4766  0.9364 -3.8491
  786MOL0     H 8424   7.546   9.607   3.244  1.4439 -1.8565 -0.7442
  786MOL0     H 8425   7.677   9.607   3.142 -3.3240 -1.0479 -0.5229
  786MOL0     H 8426   7.735   9.456   3.263 -3.1717 -0.1393  2.3471
  786MOL0     H 8427   7.986   9.219   3.328  0.7102  1.5127 -0.3969
  786MOL0     H 8428   7.829   9.245   3.250 -1.0627 -0.2082 -0.5226
  786MOL0     H 8429   7.824   9.196   3.412  0.4816  2.3552  1.9764
  786MOL0     H 8430   8.220   9.033   3.511 -1.3593  4.0577  0.4718
  786MOL0     H 8431   8.285   8.846   3.657 -2.1554 -0.8217 -2.5514
  786MOL0     H 8432   8.159   8.855   4.093 -1.7757  0.4683 -0.3545
  786MOL0     H 8433   8.041   8.759   4.017  0.3248 -1.5234  0.1485
  786MOL0     H 8434   8.146   8.613   4.166  3.6646 -0.4927  2.3589
  786MOL0     H 8435   8.178   8.571   3.992 -1.4662  0.8338  0.5415
  786MOL0     H 8436   8.385   8.660   4.215  3.5836 -0.0990 -0.1843
  786MOL0     H 8437   8.411   8.693   4.049 -0.4467  0.1535 -0.5397
  786MOL0     H 8438   8.377   8.433   4.011  2.0807 -0.9860 -0.3980
  786MOL0     H 8439   8.369   8.415   4.186  1.2068 -0.9842 -0.1466
  786MOL0     H 8440   8.599   8.517   4.020  0.2349  0.5624 -0.6802
  786MOL0     H 8441   8.593   8.535   4.202 -0.1909  0.0510 -0.7394
  786MOL0     H 8442   8.646   8.291   4.056  1.1258 -0.5387 -0.5455
  786MOL0     H 8443   8.557   8.283   4.207 -0.4879  1.2771  0.5627
  786MOL0     H 8444   8.737   8.399   4.331  1.6017 -0.6836 -0.2179
  786MOL0     H 8445   8.823   8.431   4.178  1.4769 -0.8756 -0.9454
  786MOL0     H 8446   8.918   8.242   4.322 -0.0135 -0.8434 -0.1509
  786MOL0     H 8447   8.874   8.195   4.159 -0.5522 -0.5287  0.5927
  786MOL0     H 8448   7.976   8.952   3.942 -1.1338 -0.7983 -1.0555
  786MOL0     H 8449   7.924   9.146   3.801  1.6832 -1.1213  4.7434
  786MOL0     H 8450   8.013   9.599   3.644 -1.3551 -2.3650  2.6673
  786MOL0     H 8451   7.859   9.770   3.523  1.2415 -0.6520  0.0284
  786MOL0     H 8452   5.950   9.747   2.825 -0.9470 -0.0014 -0.2239
  786MOL0     H 8453   5.720   9.709   2.711 -0.5408  1.0492  0.3905
  786MOL0     H 8454   5.469   9.943   2.200  0.9616  0.0463  0.6681
  786MOL0     H 8455   5.238   9.874   2.114  1.5989 -0.5422 -0.0100
  786MOL0     H 8456   5.063   9.504   2.226  1.0427  0.0206  2.7268
  786MOL0     H 8457   4.996   9.611   2.354 -3.5340  1.3850 -1.2408
  786MOL0     H 8458   4.814   9.677   2.215  3.1413  2.1250 -0.1255
  786MOL0     H 8459   4.816   9.505   2.278  1.6100  0.4172  1.8984
  786MOL0     H 8460   4.920   9.570   1.997 -0.5523 -0.9341 -0.8295
  786MOL0     H 8461   4.881   9.413   2.054  0.7419 -0.8008  0.4587
  786MOL0     H 8462   4.732   9.464   1.897 -0.1243 -1.6780  0.4214
  786MOL0     H 8463   4.691   9.623   1.955 -1.6640 -0.5858  2.0365
  786MOL0     H 8464   4.407   9.379   2.139 -0.3957  1.5678 -1.3932
  786MOL0     H 8465   5.220   9.564   2.399 -1.4954  0.4444 -1.1903
  786MOL0     H 8466   5.366   9.493   2.515 -0.3968  0.3095 -0.5536
  786MOL0     H 8467   5.536   9.540   2.494  0.4202 -1.1212  0.9912
  786MOL0     H 8468   5.428   9.641   2.601  0.8062 -2.7730  2.4116
  787MOL0     O 8469   8.722   2.716   3.351  0.1564 -0.2197 -0.2570
  787MOL0     C 8470   8.733   2.799   3.438 -0.2896  0.2804  0.1732
  787MOL0     O 8471   8.843   2.815   3.522  1.0724 -0.7152  0.4972
  787MOL0     C 8472   8.969   2.770   3.488 -0.7243  0.3756 -0.3373
  787MOL0     C 8473   9.021   2.709   3.597 -0.8554  0.7109 -0.1001
  787MOL0     C 8474   9.149   2.659   3.587 -0.2334  0.9070  0.7473
  787MOL0     C 8475   9.217   2.658   3.457 -0.8214  0.2879  0.9231
  787MOL0     O 8476   9.342   2.601   3.445 -0.8228 -0.4023  0.6467
  787MOL0     C 8477   9.433   2.693   3.377 -0.5367  0.6821  0.4867
  787MOL0     C 8478   9.571   2.631   3.347  0.2907  0.0918  0.0311
  787MOL0     C 8479   9.679   2.639   3.460 -0.0980 -0.0717 -0.1221
  787MOL0     C 8480   9.810   2.561   3.415  0.0356 -0.3805 -0.1695
  787MOL0     C 8481   9.923   2.557   3.519 -0.5691 -0.0633 -0.7525
  787MOL0     C 8482   9.993   2.420   3.538  0.0102 -0.1729  0.3901
  787MOL0     C 8483  10.084   2.375   3.417  0.1217  0.0940  0.5411
  787MOL0     C 8484  10.137   2.233   3.444  0.0690 -1.0261 -0.0227
  787MOL0     N 8485  10.203   2.228   3.578  0.8935  0.4165 -0.1885
  787MOL0     C 8486  10.143   2.166   3.688 -0.3945  0.5356 -0.4363
  787MOL0     C 8487  10.235   2.169   3.788  0.2849 -0.7897 -0.4930
  787MOL0     C 8488  10.216   2.120   3.926  0.6689  0.1305  0.5060
  787MOL0     C 8489  10.279   1.984   3.935  0.0730  1.5722  0.2640
  787MOL0     C 8490  10.206   1.897   4.035  0.1915  0.7476 -0.1822
  787MOL0     C 8491  10.266   1.754   4.048  0.8451 -0.2993  0.1143
  787MOL0     O 8492  10.406   1.759   4.048 -0.2488 -0.2084 -0.1836
  787MOL0     C 8493  10.485   1.653   4.087  0.2410  0.1159 -0.5926
  787MOL0     C 8494  10.428   1.532   4.127  0.4245 -0.0620  0.4395
  787MOL0     C 8495  10.507   1.426   4.180  0.0249  0.5661 -0.2428
  787MOL0     C 8496  10.434   1.312   4.246  0.7541  0.9075  0.0639
  787MOL0     C 8497  10.650   1.442   4.178  0.5047  0.6318  0.2116
  787MOL0     C 8498  10.753   1.344   4.235 -0.0084  0.3421  0.1861
  787MOL0     O 8499  10.883   1.379   4.238  0.0117 -0.2126  0.1681
  787MOL0     C 8500  10.970   1.308   4.305  0.0706 -0.6699 -0.1064
  787MOL0     C 8501  10.938   1.278   4.443 -0.4319 -0.5547  0.0283
  787MOL0     C 8502  11.024   1.203   4.519  0.4969  0.9223 -0.8708
  787MOL0     C 8503  11.148   1.165   4.464 -0.8886 -0.2511 -0.4565
  787MOL0     O 8504  11.237   1.094   4.534 -0.1346  0.5173  0.4936
  787MOL0     C 8505  11.292   1.155   4.659 -0.5480 -0.7471  0.1089
  787MOL0     C 8506  11.364   1.043   4.733 -0.4762 -0.7589  0.1264
  787MOL0     C 8507  11.493   0.984   4.661 -0.2361  0.2990  0.2838
  787MOL0     C 8508  11.609   1.085   4.658 -0.3499 -0.1447 -0.2687
  787MOL0     C 8509  11.737   1.007   4.615  0.3913  0.3589 -0.6293
  787MOL0     C 8510  11.861   1.078   4.657 -0.1155 -0.2489 -0.8377
  787MOL0     C 8511  11.974   1.010   4.583 -0.3959 -0.1983  0.0726
  787MOL0     C 8512  12.101   1.083   4.614  0.4603  1.0219 -0.1430
  787MOL0    Cl 8513  12.242   0.992   4.551  0.0270 -0.4545 -0.1287
  787MOL0     C 8514  11.179   1.192   4.329  0.1602  0.7096 -0.1294
  787MOL0     C 8515  11.089   1.266   4.245 -0.7414  0.5863 -0.1024
  787MOL0     O 8516  10.705   1.239   4.275 -0.1319  0.1682  0.3528
  787MOL0     C 8517  10.704   1.556   4.127 -0.3625 -0.9137 -0.0740
  787MOL0     C 8518  10.618   1.658   4.077  0.4537 -0.7126 -0.1443
  787MOL0     N 8519  10.342   2.248   3.745 -1.2017 -0.5633 -0.5843
  787MOL0     N 8520  10.318   2.287   3.623  0.2589 -0.0168 -0.6612
  787MOL0     C 8521   9.155   2.701   3.342 -0.0787 -0.1065 -0.8854
  787MOL0     C 8522   9.021   2.761   3.360 -0.2702 -0.4872 -0.4033
  787MOL0     C 8523   8.606   2.874   3.475 -0.5468 -0.4547  0.9903
  787MOL0     C 8524   8.597   2.925   3.601 -0.7848  0.3601 -0.0055
  787MOL0     C 8525   8.486   2.980   3.661 -0.6992 -0.3513 -0.2714
  787MOL0     C 8526   8.388   3.018   3.568 -0.9547  0.1562 -0.1653
  787MOL0     O 8527   8.276   3.096   3.598 -0.4731 -0.0159 -0.2419
  787MOL0     C 8528   8.247   3.118   3.744 -0.0901 -0.1837 -0.0740
  787MOL0     C 8529   8.118   3.199   3.763 -1.0442  0.1373 -0.4173
  787MOL0     C 8530   8.120   3.247   3.910  0.2988 -1.1548  0.1522
  787MOL0     C 8531   8.012   3.353   3.935  0.1133 -0.0318 -0.3134
  787MOL0     C 8532   7.989   3.389   4.073  0.0994 -0.4545 -0.5149
  787MOL0     C 8533   7.977   3.419   4.190  0.7069 -0.3925  0.8293
  787MOL0     C 8534   8.387   2.971   3.438 -0.8165  0.1399  0.4051
  787MOL0     C 8535   8.494   2.894   3.390 -0.7270 -0.2466  0.2944
  787MOL0     C 8536   8.495   2.842   3.249 -0.1703 -0.2733 -0.4112
  787MOL0     H 8537   8.969   2.722   3.692  2.2768  3.3953  1.4549
  787MOL0     H 8538   9.202   2.611   3.669  0.1340  0.1010  0.0550
  787MOL0     H 8539   9.448   2.785   3.435  0.6465  1.0838 -0.4193
  787MOL0     H 8540   9.387   2.715   3.281 -1.0562 -0.7389  0.3956
  787MOL0     H 8541   9.557   2.527   3.319  0.2913  0.4624 -1.3918
  787MOL0     H 8542   9.608   2.670   3.253 -1.2035 -0.4229 -0.8102
  787MOL0     H 8543   9.705   2.744   3.472 -1.3939  0.0621  1.8308
  787MOL0     H 8544   9.646   2.598   3.556  1.4757  0.1789  0.5591
  787MOL0     H 8545   9.779   2.460   3.388 -0.3320 -0.6020  1.0109
  787MOL0     H 8546   9.843   2.598   3.318 -0.1658 -0.8546 -0.4236
  787MOL0     H 8547   9.887   2.600   3.613 -1.6305  2.7602 -2.3548
  787MOL0     H 8548  10.002   2.625   3.486 -0.0722 -1.2853 -2.1929
  787MOL0     H 8549  10.053   2.434   3.628  0.5287  0.8721 -0.0985
  787MOL0     H 8550   9.922   2.341   3.563  0.1129 -0.6301 -0.6792
  787MOL0     H 8551  10.169   2.442   3.403  0.4276 -0.6205 -1.3142
  787MOL0     H 8552  10.032   2.364   3.322 -0.3891  0.7578  0.7319
  787MOL0     H 8553  10.060   2.156   3.431 -0.2421 -0.6930 -0.1687
  787MOL0     H 8554  10.205   2.208   3.362 -1.6747 -1.0777 -1.5234
  787MOL0     H 8555  10.045   2.122   3.673 -0.4537  0.0264  1.2496
  787MOL0     H 8556  10.108   2.113   3.945  0.5754  0.9686  0.3375
  787MOL0     H 8557  10.259   2.190   3.998  0.8557 -0.1732  0.6936
  787MOL0     H 8558  10.273   1.925   3.843  0.2857  1.6142  0.2224
  787MOL0     H 8559  10.385   1.999   3.958  1.0106 -0.0074 -2.5228
  787MOL0     H 8560  10.208   1.959   4.125  1.3923  3.3495 -1.8780
  787MOL0     H 8561  10.105   1.897   3.994  0.3757  0.8816 -0.6424
  787MOL0     H 8562  10.239   1.710   4.144  0.7905 -0.6252 -0.0506
  787MOL0     H 8563  10.233   1.691   3.965  1.4183  1.6580 -1.6982
  787MOL0     H 8564  10.322   1.514   4.114  0.7243 -0.2076 -2.5603
  787MOL0     H 8565  10.452   1.311   4.353  0.4771 -0.7600  0.1216
  787MOL0     H 8566  10.459   1.214   4.204  1.3989  0.4111  1.5465
  787MOL0     H 8567  10.326   1.322   4.231  0.6066 -1.5603 -1.0018
  787MOL0     H 8568  10.840   1.300   4.484 -0.0718 -1.0980  1.2289
  787MOL0     H 8569  10.990   1.172   4.617 -1.5423 -0.0259 -1.8273
  787MOL0     H 8570  11.362   1.235   4.634  1.1843 -0.8333  3.9775
  787MOL0     H 8571  11.212   1.200   4.719 -1.0913 -1.1677 -0.2869
  787MOL0     H 8572  11.400   1.084   4.827 -1.4895  0.2746  0.0964
  787MOL0     H 8573  11.292   0.961   4.746  0.4758 -1.9043 -1.4321
  787MOL0     H 8574  11.476   0.965   4.555 -0.6865  2.2574 -0.0374
  787MOL0     H 8575  11.522   0.889   4.707 -0.2602  0.7274  1.2167
  787MOL0     H 8576  11.623   1.121   4.760 -2.8704  0.2678 -0.0006
  787MOL0     H 8577  11.593   1.169   4.590  0.5541  0.2872  0.0426
  787MOL0     H 8578  11.745   0.906   4.657 -1.8097  0.6976  0.7816
  787MOL0     H 8579  11.733   0.984   4.509 -3.0420  1.2706 -0.8117
  787MOL0     H 8580  11.879   1.056   4.762  0.0909 -3.3556 -1.4236
  787MOL0     H 8581  11.870   1.186   4.641 -0.6873  0.3151  2.1798
  787MOL0     H 8582  11.951   0.994   4.477 -3.0581  0.2796  0.4981
  787MOL0     H 8583  11.975   0.912   4.633  0.5587 -0.4517 -0.4264
  787MOL0     H 8584  12.110   1.097   4.722 -0.4722  2.7337 -0.2398
  787MOL0     H 8585  12.099   1.187   4.580  0.1911  1.1974  0.3952
  787MOL0     H 8586  11.269   1.139   4.298  0.1100 -0.9352  2.3695
  787MOL0     H 8587  11.118   1.288   4.143 -1.1492  1.0068 -0.1315
  787MOL0     H 8588  10.811   1.576   4.124 -0.2573 -1.2561  1.0599
  787MOL0     H 8589  10.660   1.744   4.027  3.2136 -2.2224 -0.6439
  787MOL0     H 8590   9.192   2.678   3.243  1.3899 -0.2474 -0.3192
  787MOL0     H 8591   8.970   2.777   3.266 -0.2920 -1.7114 -0.6228
  787MOL0     H 8592   8.685   2.910   3.663 -0.1090  1.1788 -0.7540
  787MOL0     H 8593   8.483   3.008   3.766  0.8216  1.0090 -0.5598
  787MOL0     H 8594   8.245   3.015   3.782  2.5399 -1.2401 -2.4119
  787MOL0     H 8595   8.331   3.159   3.801 -0.3130 -0.8203  0.7264
  787MOL0     H 8596   8.030   3.142   3.735 -0.2901 -2.5063  2.0553
  787MOL0     H 8597   8.120   3.286   3.697 -0.2638  2.0438  1.9852
  787MOL0     H 8598   8.096   3.168   3.982  0.3032  0.9585  2.6228
  787MOL0     H 8599   8.216   3.290   3.937  0.5616 -0.4562 -1.7403
  787MOL0     H 8600   7.914   3.319   3.899  0.7755 -0.3656 -1.9017
  787MOL0     H 8601   8.029   3.438   3.867 -1.7091  2.2180  1.8361
  787MOL0     H 8602   7.967   3.456   4.290 -2.0196  0.4576  0.3493
  787MOL0     H 8603   8.310   3.002   3.368 -0.0636  1.8959  0.3042
  787MOL0     H 8604   8.478   2.734   3.242  1.3447 -0.4490 -2.7720
  787MOL0     H 8605   8.408   2.882   3.196 -2.6046 -2.0710  1.9915
  787MOL0     H 8606   8.592   2.874   3.209  0.8736 -1.4667  1.0657
  788MOL0     O 8607   0.413   4.131   8.619  0.3166  0.4174 -0.0923
  788MOL0     C 8608   0.435   4.190   8.728 -0.6112 -0.4107 -0.3194
  788MOL0     O 8609   0.540   4.268   8.756 -0.4552 -0.2708  0.2637
  788MOL0     C 8610   0.665   4.255   8.699 -0.0653  0.9839 -1.1472
  788MOL0     C 8611   0.713   4.134   8.651 -0.4369 -0.2520  0.3320
  788MOL0     C 8612   0.849   4.128   8.620  0.5139 -1.1075  0.3263
  788MOL0     C 8613   0.941   4.226   8.659  0.0220  0.1835  0.3981
  788MOL0     O 8614   1.071   4.215   8.626  0.0200  0.0426  0.2922
  788MOL0     C 8615   1.171   4.279   8.704  0.3547  0.1001  0.0807
  788MOL0     C 8616   1.296   4.197   8.713 -0.5131 -0.2424  0.9795
  788MOL0     C 8617   1.360   4.194   8.573 -0.3591 -0.6287  0.3520
  788MOL0     C 8618   1.489   4.106   8.552  0.3748 -0.5313 -0.0488
  788MOL0     C 8619   1.527   4.110   8.401 -0.0487  0.0554 -0.0266
  788MOL0     C 8620   1.658   4.052   8.380  0.0371 -0.2433 -0.5901
  788MOL0     C 8621   1.774   4.153   8.406 -0.7899  0.1945 -0.3700
  788MOL0     C 8622   1.909   4.093   8.378 -0.1196  0.0129  0.4177
  788MOL0     N 8623   1.919   3.960   8.433 -0.1362  0.6183  0.5347
  788MOL0     C 8624   1.948   3.844   8.354 -0.1006 -0.2779  0.1381
  788MOL0     C 8625   1.988   3.754   8.448  0.0371 -0.9572 -0.5248
  788MOL0     C 8626   2.054   3.628   8.417 -0.4067  0.3162  0.9004
  788MOL0     C 8627   2.140   3.571   8.534  0.7965 -0.2052 -0.7150
  788MOL0     C 8628   2.250   3.669   8.559 -0.3784 -0.4800  0.2576
  788MOL0     C 8629   2.356   3.685   8.447  0.7516  0.2782  0.6528
  788MOL0     O 8630   2.429   3.564   8.423 -0.0697 -0.2349 -0.0446
  788MOL0     C 8631   2.553   3.587   8.381 -0.5814 -0.5317  0.1285
  788MOL0     C 8632   2.647   3.499   8.434 -0.9866  0.7229  0.0511
  788MOL0     C 8633   2.788   3.512   8.391  0.0068  1.2699 -0.7538
  788MOL0     C 8634   2.878   3.400   8.435  1.4062 -0.7236 -0.2230
  788MOL0     C 8635   2.830   3.620   8.307  0.7803 -0.2954  0.4373
  788MOL0     C 8636   2.966   3.647   8.261 -0.4036  0.3468 -0.3901
  788MOL0     O 8637   3.046   3.539   8.249 -0.2848 -0.5286  0.2375
  788MOL0     C 8638   3.187   3.547   8.222  0.7380  0.5427 -0.4512
  788MOL0     C 8639   3.264   3.656   8.172 -0.1852 -0.5336 -0.0757
  788MOL0     C 8640   3.398   3.638   8.161 -0.6562 -0.0299  0.6546
  788MOL0     C 8641   3.459   3.510   8.176  0.4230 -1.0470 -0.1043
  788MOL0     O 8642   3.590   3.504   8.161 -0.7231  0.0172 -0.1852
  788MOL0     C 8643   3.675   3.507   8.278 -0.0867  0.4154  0.3820
  788MOL0     C 8644   3.816   3.528   8.223 -0.2193  0.8275 -0.4155
  788MOL0     C 8645   3.857   3.647   8.141  0.6032 -0.2945 -0.6403
  788MOL0     C 8646   4.000   3.620   8.081  0.6451 -0.0742  0.3175
  788MOL0     C 8647   4.056   3.734   7.994  0.0237  0.2401 -0.4216
  788MOL0     C 8648   4.179   3.693   7.916 -0.5232 -0.8088 -0.2616
  788MOL0     C 8649   4.212   3.805   7.815  0.0540  0.9953  0.0655
  788MOL0     C 8650   4.338   3.776   7.728  0.2296  0.0884 -0.4566
  788MOL0    Cl 8651   4.274   3.737   7.573  0.5236  0.3096  0.1056
  788MOL0     C 8652   3.389   3.402   8.213 -0.7467  0.3425 -0.1431
  788MOL0     C 8653   3.253   3.418   8.229 -0.0761 -0.0475 -0.0937
  788MOL0     O 8654   3.000   3.762   8.230  0.0121  0.3687 -0.0248
  788MOL0     C 8655   2.722   3.706   8.257 -0.0773 -0.0312 -0.4732
  788MOL0     C 8656   2.588   3.684   8.285 -0.4015  0.5138 -0.0223
  788MOL0     N 8657   1.965   3.817   8.573  0.0146  0.1513  0.6096
  788MOL0     N 8658   1.915   3.935   8.565  0.8248  0.0043 -0.0908
  788MOL0     C 8659   0.890   4.351   8.709  0.4443  0.8261 -0.4295
  788MOL0     C 8660   0.750   4.360   8.730 -0.1379  0.3472 -0.5212
  788MOL0     C 8661   0.329   4.203   8.827 -0.1380  0.5929  0.1872
  788MOL0     C 8662   0.240   4.096   8.833 -0.3792  0.1529 -0.6261
  788MOL0     C 8663   0.125   4.098   8.905 -0.3143  0.0650 -0.2294
  788MOL0     C 8664   0.112   4.190   9.017  0.1262  1.2999 -1.2608
  788MOL0     O 8665   0.017   4.187   9.117  0.1495 -0.0008  0.0134
  788MOL0     C 8666  -0.091   4.097   9.105 -0.4875 -0.1584  0.1591
  788MOL0     C 8667  -0.176   4.115   9.235 -0.3192  0.1022  0.3096
  788MOL0     C 8668  -0.262   4.001   9.279 -0.2315  0.3545 -0.3851
  788MOL0     C 8669  -0.336   4.028   9.402  0.1805 -0.2424  0.6864
  788MOL0     C 8670  -0.470   4.060   9.358  0.1207 -0.1690 -0.5605
  788MOL0     C 8671  -0.583   4.076   9.312 -0.2667 -0.2855  0.8119
  788MOL0     C 8672   0.211   4.286   9.029 -0.4316 -0.9349  0.1473
  788MOL0     C 8673   0.309   4.302   8.925 -0.5646 -0.6193  0.0910
  788MOL0     C 8674   0.396   4.435   8.925  0.1030  0.4284 -0.7135
  788MOL0     H 8675   0.649   4.047   8.638 -3.0754  1.3155  1.8707
  788MOL0     H 8676   0.875   4.038   8.565 -3.0642 -3.1293  1.6285
  788MOL0     H 8677   1.126   4.305   8.801  0.0256  0.0440 -0.0575
  788MOL0     H 8678   1.192   4.375   8.656  0.3653 -0.5362 -1.2347
  788MOL0     H 8679   1.358   4.255   8.783  1.5224  1.6174 -2.1285
  788MOL0     H 8680   1.277   4.098   8.755 -0.4699 -0.4232  0.5758
  788MOL0     H 8681   1.280   4.162   8.506 -0.9727  0.8751  0.3265
  788MOL0     H 8682   1.379   4.297   8.540 -3.7708 -0.0864 -0.3374
  788MOL0     H 8683   1.573   4.151   8.606 -0.2505  0.1203  0.3984
  788MOL0     H 8684   1.474   4.000   8.572  2.3342 -1.1083 -1.3310
  788MOL0     H 8685   1.526   4.206   8.349  0.0316 -0.7717 -1.6124
  788MOL0     H 8686   1.455   4.046   8.352  0.9084 -0.7167 -0.4591
  788MOL0     H 8687   1.665   3.969   8.451  1.9203  1.0241  0.8285
  788MOL0     H 8688   1.674   4.013   8.280 -0.4473 -0.0369 -0.7492
  788MOL0     H 8689   1.776   4.195   8.507 -0.5564  2.4399 -1.2422
  788MOL0     H 8690   1.771   4.237   8.336  2.1754  0.2586 -0.5463
  788MOL0     H 8691   1.925   4.102   8.270 -1.4089  2.3629  0.3428
  788MOL0     H 8692   1.983   4.159   8.424  1.3706 -1.9559  0.9595
  788MOL0     H 8693   1.939   3.820   8.249 -0.6200  2.1561 -0.4345
  788MOL0     H 8694   2.111   3.640   8.324 -2.7609  0.5824 -0.5910
  788MOL0     H 8695   1.968   3.563   8.397 -0.7867  1.0264  0.1415
  788MOL0     H 8696   2.076   3.557   8.622  3.3176 -0.4398  1.1676
  788MOL0     H 8697   2.177   3.474   8.500  0.2837 -0.8739  0.5239
  788MOL0     H 8698   2.214   3.772   8.571  0.0829 -0.2581 -0.2161
  788MOL0     H 8699   2.291   3.651   8.658 -2.5361  0.0639  1.3113
  788MOL0     H 8700   2.311   3.726   8.356  0.7433 -0.8582  0.1222
  788MOL0     H 8701   2.423   3.768   8.473 -1.5855  2.5826 -0.3556
  788MOL0     H 8702   2.621   3.420   8.503  0.0288  1.3813  1.2481
  788MOL0     H 8703   2.917   3.335   8.356  3.4312 -1.9764  1.7106
  788MOL0     H 8704   2.814   3.337   8.497 -2.3236  0.7443 -2.2839
  788MOL0     H 8705   2.972   3.439   8.476  1.2028 -0.5810  0.1073
  788MOL0     H 8706   3.229   3.758   8.157  0.7001 -0.3886 -1.3456
  788MOL0     H 8707   3.461   3.721   8.131  2.0256 -2.4392 -0.9774
  788MOL0     H 8708   3.640   3.599   8.326 -5.1511  0.1221 -2.0437
  788MOL0     H 8709   3.673   3.423   8.349  1.7472 -0.8074 -0.9216
  788MOL0     H 8710   3.890   3.521   8.303  0.5172 -1.2912 -1.2107
  788MOL0     H 8711   3.825   3.440   8.158  3.7365  0.5982  0.2053
  788MOL0     H 8712   3.859   3.730   8.212 -2.9370  0.2105 -0.9292
  788MOL0     H 8713   3.793   3.666   8.054  0.9908  0.9878 -0.6744
  788MOL0     H 8714   4.005   3.532   8.016  3.9428  1.6564 -2.0703
  788MOL0     H 8715   4.070   3.594   8.162  2.9215  0.4738 -1.3707
  788MOL0     H 8716   3.981   3.773   7.926  0.9162 -0.2439 -1.7258
  788MOL0     H 8717   4.074   3.819   8.061  0.4987 -0.0788 -0.1374
  788MOL0     H 8718   4.153   3.601   7.864 -1.7131  0.8657 -2.8691
  788MOL0     H 8719   4.266   3.663   7.975  1.1866  0.5046 -1.9943
  788MOL0     H 8720   4.243   3.892   7.873  4.1145 -2.0584  3.1373
  788MOL0     H 8721   4.122   3.823   7.756 -1.2525  1.7615  2.1934
  788MOL0     H 8722   4.401   3.692   7.758 -1.3421 -0.3363  1.9150
  788MOL0     H 8723   4.395   3.869   7.718  1.4754 -0.0844  3.5428
  788MOL0     H 8724   3.429   3.303   8.197  0.0679  0.5364  0.5916
  788MOL0     H 8725   3.196   3.334   8.267 -0.3952  0.7546  1.2521
  788MOL0     H 8726   2.758   3.785   8.191 -1.5494  0.2156 -1.0115
  788MOL0     H 8727   2.519   3.756   8.242  1.2180  4.8510  3.8205
  788MOL0     H 8728   0.931   4.446   8.742 -0.0045 -0.2246  3.7817
  788MOL0     H 8729   0.720   4.448   8.785  0.1676 -0.6102  1.2559
  788MOL0     H 8730   0.269   4.010   8.773  0.1704 -0.4543  0.4769
  788MOL0     H 8731   0.059   4.013   8.890 -0.0200 -0.1043 -0.5784
  788MOL0     H 8732  -0.144   4.136   9.017  0.0713  1.2686  0.4249
  788MOL0     H 8733  -0.066   3.991   9.107 -0.6865 -0.2241 -0.5187
  788MOL0     H 8734  -0.231   4.209   9.227  0.9148  0.9283  1.0128
  788MOL0     H 8735  -0.107   4.132   9.318  1.0348  2.3950 -1.1644
  788MOL0     H 8736  -0.328   3.982   9.194 -1.5717  2.1774  0.1933
  788MOL0     H 8737  -0.208   3.907   9.294 -2.5585 -1.2363 -1.4320
  788MOL0     H 8738  -0.287   4.102   9.466  0.5450  1.4505 -1.4722
  788MOL0     H 8739  -0.350   3.933   9.455  0.0884 -0.7284 -0.1878
  788MOL0     H 8740  -0.681   4.088   9.269  0.0783  2.4927  0.6571
  788MOL0     H 8741   0.214   4.351   9.116  4.1497 -0.3946 -0.1750
  788MOL0     H 8742   0.384   4.474   8.824  2.0605 -0.0638 -1.1769
  788MOL0     H 8743   0.367   4.502   9.006  0.4770 -0.1340 -0.1036
  788MOL0     H 8744   0.503   4.425   8.946  0.3150  4.5690  1.2240
  789MOL0     O 8745   5.707   0.983  10.925 -0.5567 -0.3913  0.4798
  789MOL0     C 8746   5.651   0.974  10.817  0.8174  0.0873  0.2062
  789MOL0     O 8747   5.718   0.966  10.701  1.0671  0.2121  0.1749
  789MOL0     C 8748   5.855   0.983  10.714 -0.1627  0.6462  0.0012
  789MOL0     C 8749   5.946   0.881  10.729  0.2735  0.0100  0.5457
  789MOL0     C 8750   6.090   0.898  10.718  0.0819 -0.1073  1.1521
  789MOL0     C 8751   6.139   1.026  10.702  0.6267 -0.0850  0.0171
  789MOL0     O 8752   6.277   1.029  10.689  0.3265 -0.1356 -0.2321
  789MOL0     C 8753   6.337   1.144  10.637  0.7684  0.0946  0.3900
  789MOL0     C 8754   6.495   1.143  10.643  0.5015  0.2770  0.1655
  789MOL0     C 8755   6.549   1.270  10.576 -0.5976  0.4116 -0.2674
  789MOL0     C 8756   6.703   1.280  10.577  0.1362 -0.5611  0.3334
  789MOL0     C 8757   6.781   1.205  10.475 -0.0406  0.6335  0.0506
  789MOL0     C 8758   6.929   1.236  10.468  0.2786 -0.3114 -0.2497
  789MOL0     C 8759   7.008   1.187  10.590 -0.6628 -0.1054  0.3853
  789MOL0     C 8760   7.138   1.277  10.585  0.1637 -0.1389  0.7497
  789MOL0     N 8761   7.221   1.247  10.704 -0.1518 -0.1765 -0.6285
  789MOL0     C 8762   7.281   1.128  10.741 -0.7640 -0.1946 -0.3885
  789MOL0     C 8763   7.338   1.139  10.868 -0.5764 -0.4997  0.0303
  789MOL0     C 8764   7.420   1.040  10.945 -0.3760  0.2012 -0.0691
  789MOL0     C 8765   7.470   1.087  11.083 -0.1498  0.5006  0.2534
  789MOL0     C 8766   7.366   1.044  11.200 -0.0933 -1.0433 -0.1804
  789MOL0     C 8767   7.395   1.096  11.338 -0.1444 -0.5203 -0.0989
  789MOL0     O 8768   7.496   1.017  11.392  0.1142  0.0969 -0.0768
  789MOL0     C 8769   7.539   1.039  11.520  0.3476 -0.2488 -0.1313
  789MOL0     C 8770   7.471   1.021  11.643  0.3493 -0.7140  0.0647
  789MOL0     C 8771   7.523   1.030  11.773 -0.0957 -0.0637  0.5782
  789MOL0     C 8772   7.442   0.997  11.898  0.7153  0.4882  0.0801
  789MOL0     C 8773   7.668   1.056  11.775  0.2750  0.0587 -0.4823
  789MOL0     C 8774   7.738   1.084  11.903 -0.4123  0.4708 -0.1030
  789MOL0     O 8775   7.678   1.177  11.990  0.1005 -0.0259  0.1697
  789MOL0     C 8776   7.765   1.229  12.086  0.3859 -0.6694  0.2090
  789MOL0     C 8777   7.739   1.210  12.220  0.7868  0.1186 -0.4063
  789MOL0     C 8778   7.820   1.259  12.322  0.1040  0.3132 -0.5646
  789MOL0     C 8779   7.933   1.330  12.289 -0.2614 -0.6153  1.1482
  789MOL0     O 8780   8.010   1.366  12.402  0.2303  0.2491  0.9448
  789MOL0     C 8781   8.098   1.481  12.381 -0.3111 -0.0600  0.3644
  789MOL0     C 8782   8.135   1.527  12.522 -0.6952 -0.0299 -0.1793
  789MOL0     C 8783   8.020   1.574  12.606 -0.3313  0.6396  0.0148
  789MOL0     C 8784   8.060   1.605  12.748  0.1492 -0.7712 -0.2488
  789MOL0     C 8785   7.947   1.660  12.830 -0.1222 -0.0980 -0.4022
  789MOL0     C 8786   7.834   1.555  12.845  0.3013 -0.6737 -0.1618
  789MOL0     C 8787   7.739   1.598  12.958 -0.1563  0.2318  0.7065
  789MOL0     C 8788   7.797   1.615  13.096  0.2088  0.0301 -1.0559
  789MOL0    Cl 8789   7.903   1.480  13.159 -0.0171  0.0923 -0.7288
  789MOL0     C 8790   7.964   1.351  12.156  0.7225 -0.2932 -0.7370
  789MOL0     C 8791   7.884   1.296  12.059 -0.3762  0.1266 -0.0912
  789MOL0     O 8792   7.853   1.039  11.924  0.3918  0.0281 -0.2082
  789MOL0     C 8793   7.740   1.073  11.655  0.5969 -0.0633  0.0197
  789MOL0     C 8794   7.676   1.070  11.538  0.1872  0.6123  0.4481
  789MOL0     N 8795   7.304   1.266  10.904  0.0884  0.0969  0.2240
  789MOL0     N 8796   7.246   1.330  10.811  0.3058  0.2197 -0.5107
  789MOL0     C 8797   6.053   1.133  10.700  0.1685 -0.2129  0.1986
  789MOL0     C 8798   5.910   1.110  10.699  0.1618 -0.0640  0.2348
  789MOL0     C 8799   5.504   0.964  10.808  0.3200  0.1589 -0.1389
  789MOL0     C 8800   5.445   0.915  10.688  0.2562  0.2910  0.9310
  789MOL0     C 8801   5.307   0.906  10.681  0.3260  0.0604 -0.0630
  789MOL0     C 8802   5.221   0.941  10.784  1.5988 -0.0534  0.0559
  789MOL0     O 8803   5.083   0.938  10.773  0.1019  0.2602 -0.0477
  789MOL0     C 8804   5.021   0.862  10.672  0.0945  0.7986  0.3270
  789MOL0     C 8805   4.867   0.847  10.714 -0.8083  0.5856  0.2512
  789MOL0     C 8806   4.808   0.996  10.710 -1.2961  0.4630 -0.2188
  789MOL0     C 8807   4.730   1.018  10.583  0.1799  0.9585  0.5465
  789MOL0     C 8808   4.610   0.936  10.569  0.0311 -0.4370  0.1159
  789MOL0     C 8809   4.510   0.862  10.558 -0.5186  0.0307 -0.3455
  789MOL0     C 8810   5.278   1.000  10.893 -0.2505  0.3244  0.5198
  789MOL0     C 8811   5.417   1.022  10.901 -0.1896 -0.2680  0.3540
  789MOL0     C 8812   5.471   1.104  11.015  0.1431 -0.1289 -0.0570
  789MOL0     H 8813   5.913   0.778  10.733 -0.9071  0.2487 -1.4813
  789MOL0     H 8814   6.149   0.807  10.723 -0.2469 -0.4521 -0.7402
  789MOL0     H 8815   6.296   1.222  10.701 -1.9961 -0.2581 -0.7895
  789MOL0     H 8816   6.297   1.154  10.535 -1.4729 -1.5417  1.0129
  789MOL0     H 8817   6.520   1.128  10.749  1.9975 -2.7111 -0.5228
  789MOL0     H 8818   6.530   1.053  10.593  0.5218  0.2260  0.2707
  789MOL0     H 8819   6.508   1.276  10.475  0.2771  0.8055 -0.6075
  789MOL0     H 8820   6.506   1.351  10.636  1.8778  1.1108  0.6727
  789MOL0     H 8821   6.722   1.385  10.552 -1.8733  0.1877  1.6584
  789MOL0     H 8822   6.732   1.259  10.681 -1.5673 -0.5183  0.8592
  789MOL0     H 8823   6.731   1.223  10.379 -1.1699 -1.6375  0.1426
  789MOL0     H 8824   6.770   1.098  10.496 -0.3359  0.1684 -2.1579
  789MOL0     H 8825   6.973   1.208  10.372  1.5413  1.7922 -0.3521
  789MOL0     H 8826   6.931   1.345  10.468  3.0498 -0.2651  0.6543
  789MOL0     H 8827   7.043   1.084  10.591  0.2921  0.2097  0.1427
  789MOL0     H 8828   6.950   1.212  10.679 -6.4697 -0.8930 -2.6734
  789MOL0     H 8829   7.194   1.256  10.493 -0.3491  4.8774 -1.0233
  789MOL0     H 8830   7.122   1.385  10.587  0.0871  0.1096 -3.5448
  789MOL0     H 8831   7.282   1.030  10.694  1.8113 -0.2334 -0.4160
  789MOL0     H 8832   7.504   1.012  10.881 -3.4138 -0.7393 -4.1381
  789MOL0     H 8833   7.360   0.949  10.958 -0.5357  0.2672 -0.3279
  789MOL0     H 8834   7.566   1.043  11.110  1.0795  1.5039 -2.0862
  789MOL0     H 8835   7.503   1.192  11.085 -0.7681  0.6959  0.5517
  789MOL0     H 8836   7.273   1.086  11.162  0.7011  2.0960  1.0034
  789MOL0     H 8837   7.358   0.935  11.210 -1.6089 -0.8183  1.4426
  789MOL0     H 8838   7.425   1.201  11.324 -0.3360 -0.0834  2.3779
  789MOL0     H 8839   7.308   1.098  11.404  0.7081 -0.1114  1.0581
  789MOL0     H 8840   7.365   0.996  11.637 -0.2419  1.6078 -0.3629
  789MOL0     H 8841   7.470   0.895  11.927  2.0065  0.2462 -1.8253
  789MOL0     H 8842   7.334   1.003  11.885  1.0795  3.5997 -2.5310
  789MOL0     H 8843   7.475   1.055  11.984  1.2011 -2.6755  2.1858
  789MOL0     H 8844   7.644   1.163  12.242  0.7606 -0.0426 -0.8439
  789MOL0     H 8845   7.806   1.237  12.427 -2.7066 -1.3392 -1.1807
  789MOL0     H 8846   8.190   1.462  12.325 -0.0321  2.4287 -0.1542
  789MOL0     H 8847   8.036   1.562  12.342 -1.7338 -0.7892  1.0441
  789MOL0     H 8848   8.198   1.458  12.579 -2.0764 -1.1594  0.0326
  789MOL0     H 8849   8.199   1.613  12.503 -2.2806  1.5374  1.2845
  789MOL0     H 8850   7.945   1.495  12.597  0.6591 -0.3491  0.1513
  789MOL0     H 8851   7.965   1.656  12.560 -2.5873 -1.3932 -1.1439
  789MOL0     H 8852   8.144   1.675  12.752 -0.6340  0.1146  3.0148
  789MOL0     H 8853   8.096   1.514  12.796 -1.7710 -1.2568  0.3635
  789MOL0     H 8854   7.979   1.697  12.928  2.7626  0.8841 -1.6045
  789MOL0     H 8855   7.915   1.748  12.775 -0.3800  1.2661  1.7862
  789MOL0     H 8856   7.873   1.457  12.873 -0.7950 -0.6560  1.6111
  789MOL0     H 8857   7.781   1.564  12.750 -2.0385 -1.3635  0.9848
  789MOL0     H 8858   7.660   1.523  12.970 -1.2582  1.5521  2.2025
  789MOL0     H 8859   7.690   1.693  12.934  0.2826 -0.0360 -1.4557
  789MOL0     H 8860   7.717   1.621  13.170 -0.6126  0.1151 -1.9384
  789MOL0     H 8861   7.856   1.707  13.099  1.5945 -0.7837 -1.9761
  789MOL0     H 8862   8.050   1.410  12.124 -0.0428 -0.2788 -2.9476
  789MOL0     H 8863   7.919   1.312  11.957  0.1885 -0.1393  0.0550
  789MOL0     H 8864   7.845   1.100  11.662  0.4081  1.3864 -1.7799
  789MOL0     H 8865   7.726   1.085  11.443 -3.0518  1.0238 -1.3346
  789MOL0     H 8866   6.083   1.238  10.697 -0.7814  0.0615 -2.7423
  789MOL0     H 8867   5.847   1.198  10.687  0.6544  0.5440  1.8557
  789MOL0     H 8868   5.513   0.881  10.610 -0.8716 -2.6158  1.0650
  789MOL0     H 8869   5.276   0.867  10.584  0.0917  2.5400 -1.0583
  789MOL0     H 8870   5.023   0.905  10.572  1.4901  3.1967  1.3020
  789MOL0     H 8871   5.069   0.764  10.663  1.3706  1.4441 -0.0548
  789MOL0     H 8872   4.841   0.793  10.806 -0.9178  3.8717  2.2967
  789MOL0     H 8873   4.820   0.787  10.636  1.5208  0.5174 -1.1812
  789MOL0     H 8874   4.746   1.026  10.795  2.2060  3.0428  1.7084
  789MOL0     H 8875   4.892   1.066  10.701  0.5382 -1.6317 -0.1535
  789MOL0     H 8876   4.792   0.988  10.498 -1.9525  1.8209 -1.4132
  789MOL0     H 8877   4.709   1.125  10.573  0.2068  1.0787  1.6444
  789MOL0     H 8878   4.431   0.790  10.566 -1.9950  1.4285 -1.4780
  789MOL0     H 8879   5.213   1.044  10.968  0.7553  1.2862  0.8518
  789MOL0     H 8880   5.551   1.171  10.982 -0.3193  1.0161  1.0320
  789MOL0     H 8881   5.395   1.160  11.072  0.9151  2.1185 -1.1183
  789MOL0     H 8882   5.513   1.026  11.079 -1.3837 -0.6109  0.4141
  790MOL0     O 8883  11.093   7.736   0.882  0.5010  0.3073  0.3133
  790MOL0     C 8884  11.031   7.667   0.965  0.1192  0.7089 -1.1234
  790MOL0     O 8885  11.088   7.567   1.047  0.5251 -0.0979  0.5917
  790MOL0     C 8886  11.198   7.508   0.998  0.1281 -0.0517 -0.0390
  790MOL0     C 8887  11.317   7.520   1.064  0.1817 -1.0516  0.6627
  790MOL0     C 8888  11.434   7.463   1.017 -0.3962  0.0076 -0.2649
  790MOL0     C 8889  11.434   7.399   0.896  0.4511  0.0771 -0.1744
  790MOL0     O 8890  11.548   7.344   0.850 -0.4141 -0.3514  0.4918
  790MOL0     C 8891  11.557   7.254   0.737 -0.5040 -0.9233 -0.1831
  790MOL0     C 8892  11.689   7.185   0.739 -0.9724  0.3877  0.7948
  790MOL0     C 8893  11.811   7.281   0.753 -0.7015  0.3542  0.4429
  790MOL0     C 8894  11.943   7.218   0.718  0.3916 -0.3850 -0.0289
  790MOL0     C 8895  12.046   7.314   0.787  0.4163  0.6051  0.7984
  790MOL0     C 8896  12.179   7.251   0.792  0.2514 -0.4715  0.3890
  790MOL0     C 8897  12.297   7.328   0.854  0.6646  0.2601 -0.0139
  790MOL0     C 8898  12.352   7.449   0.772  0.7846  0.7763 -0.3135
  790MOL0     N 8899  12.498   7.461   0.807  0.0644 -0.4661 -0.7844
  790MOL0     C 8900  12.538   7.529   0.918  0.7541 -0.2392 -0.1155
  790MOL0     C 8901  12.668   7.530   0.918  0.3015 -0.8117 -0.2448
  790MOL0     C 8902  12.760   7.569   1.033  0.0202 -0.0729 -0.1336
  790MOL0     C 8903  12.916   7.595   0.988  0.3632  0.0121  0.1335
  790MOL0     C 8904  13.000   7.649   1.110 -0.6569  0.4731 -0.6235
  790MOL0     C 8905  13.010   7.553   1.227  0.2398  0.3626  1.3766
  790MOL0     O 8906  13.060   7.437   1.174  0.3157  0.1155  0.1195
  790MOL0     C 8907  13.194   7.403   1.204  0.5956 -0.8896 -0.0649
  790MOL0     C 8908  13.291   7.414   1.101 -1.0803 -0.1733 -0.0447
  790MOL0     C 8909  13.428   7.396   1.141  0.6520  0.2842 -0.2304
  790MOL0     C 8910  13.524   7.385   1.029  0.3161  0.0848 -0.0427
  790MOL0     C 8911  13.468   7.361   1.276  0.3388 -0.0806 -0.5123
  790MOL0     C 8912  13.610   7.348   1.328 -0.6652  0.7368  0.1390
  790MOL0     O 8913  13.633   7.379   1.461 -0.0643 -0.3141  0.4355
  790MOL0     C 8914  13.763   7.381   1.506  0.4275 -0.2889  0.7485
  790MOL0     C 8915  13.805   7.492   1.578  0.1837  0.1628  0.1120
  790MOL0     C 8916  13.930   7.483   1.643 -0.5365 -0.1121 -1.1039
  790MOL0     C 8917  14.025   7.372   1.616  0.0288 -0.5989 -0.4030
  790MOL0     O 8918  14.154   7.361   1.667  0.5681 -0.4187  0.0292
  790MOL0     C 8919  14.214   7.485   1.699  0.4968 -0.3115 -0.6007
  790MOL0     C 8920  14.352   7.444   1.739 -1.5259  0.4834 -0.3413
  790MOL0     C 8921  14.374   7.359   1.870  0.1400 -0.6112 -0.3192
  790MOL0     C 8922  14.347   7.438   1.994 -0.4073 -0.6638 -0.7571
  790MOL0     C 8923  14.404   7.367   2.119 -0.0349  0.3938 -0.3145
  790MOL0     C 8924  14.351   7.433   2.248  1.2033  0.2629  0.2765
  790MOL0     C 8925  14.395   7.576   2.262  0.0276  0.9003 -0.1304
  790MOL0     C 8926  14.546   7.595   2.268  0.1704  0.0035 -0.0951
  790MOL0    Cl 8927  14.604   7.491   2.399  0.0481 -0.5764  0.3310
  790MOL0     C 8928  13.975   7.266   1.544 -0.7482  0.2417  0.1545
  790MOL0     C 8929  13.851   7.270   1.489  0.6992 -0.2490  0.8360
  790MOL0     O 8930  13.692   7.299   1.250 -0.6217  0.1454  0.0111
  790MOL0     C 8931  13.364   7.346   1.374 -0.7431 -0.8460  0.2597
  790MOL0     C 8932  13.232   7.370   1.336 -1.0734 -0.3322  1.0137
  790MOL0     N 8933  12.712   7.477   0.791 -0.7316 -0.1413 -0.3138
  790MOL0     N 8934  12.611   7.427   0.729  0.2426 -0.1296  0.3350
  790MOL0     C 8935  11.314   7.376   0.828  0.4655 -0.0680 -0.3921
  790MOL0     C 8936  11.194   7.426   0.884 -0.0434  0.7165  0.6336
  790MOL0     C 8937  10.883   7.676   0.963  0.8894 -0.5532  0.0274
  790MOL0     C 8938  10.833   7.769   0.867 -0.1685  0.0991  0.1920
  790MOL0     C 8939  10.690   7.784   0.849 -0.3670  0.6072  0.4272
  790MOL0     C 8940  10.602   7.707   0.920  0.2816  0.3354  0.0284
  790MOL0     O 8941  10.473   7.722   0.877  0.1780  0.0285 -0.0057
  790MOL0     C 8942  10.389   7.619   0.921 -0.3066  0.0365  0.1850
  790MOL0     C 8943  10.246   7.623   0.872  0.4197 -0.0008  0.0095
  790MOL0     C 8944  10.228   7.578   0.727  0.5009 -0.0489 -0.5041
  790MOL0     C 8945  10.166   7.440   0.713 -0.8063 -0.0721  0.5828
  790MOL0     C 8946  10.187   7.383   0.576 -0.6777  0.6782  0.3934
  790MOL0     C 8947  10.202   7.283   0.415 -0.2696  0.1458  0.8297
  790MOL0     C 8948  10.650   7.626   1.024  0.2223  0.7485 -0.5073
  790MOL0     C 8949  10.786   7.613   1.045  0.1846  0.3148 -0.3468
  790MOL0     C 8950  10.828   7.535   1.165  0.6037  0.3584 -0.3829
  790MOL0     H 8951  11.315   7.583   1.152 -0.9415  1.9139 -1.2979
  790MOL0     H 8952  11.526   7.470   1.076 -0.0222 -1.2431 -0.6747
  790MOL0     H 8953  11.548   7.316   0.647  4.1229 -0.0536 -0.2699
  790MOL0     H 8954  11.476   7.181   0.734 -1.3035 -0.1148  1.0488
  790MOL0     H 8955  11.689   7.105   0.814  2.9366 -0.9742 -0.4446
  790MOL0     H 8956  11.700   7.142   0.639  2.0444  3.1631 -0.2261
  790MOL0     H 8957  11.793   7.358   0.677 -1.0643 -1.2724 -1.2117
  790MOL0     H 8958  11.802   7.327   0.852  1.2468  1.2299  0.2503
  790MOL0     H 8959  11.955   7.126   0.777  0.4679  0.8905  2.0312
  790MOL0     H 8960  11.964   7.190   0.614 -1.7510 -2.9145  0.1172
  790MOL0     H 8961  12.013   7.341   0.888  0.5614  0.1118  0.9813
  790MOL0     H 8962  12.040   7.408   0.731 -0.7142  0.6213  0.9262
  790MOL0     H 8963  12.164   7.153   0.837 -0.3368  0.0017  1.2517
  790MOL0     H 8964  12.216   7.249   0.689 -2.1765 -0.7242 -0.5551
  790MOL0     H 8965  12.384   7.262   0.863 -0.6815 -1.3491  2.2651
  790MOL0     H 8966  12.270   7.354   0.957  1.0223 -3.3068  1.1408
  790MOL0     H 8967  12.334   7.430   0.666 -1.9023  0.6504  0.1086
  790MOL0     H 8968  12.290   7.536   0.796  1.1323  0.8825  0.2378
  790MOL0     H 8969  12.473   7.566   0.996  2.3007  2.0162  0.1858
  790MOL0     H 8970  12.769   7.480   1.095  0.2870  0.7083  0.9765
  790MOL0     H 8971  12.722   7.656   1.087  1.9843  0.0896  1.1009
  790MOL0     H 8972  12.959   7.501   0.952  0.9585  0.5407 -0.5677
  790MOL0     H 8973  12.921   7.664   0.903 -1.0044 -2.7358 -2.3454
  790MOL0     H 8974  13.102   7.675   1.080 -0.3115  0.6221  0.6273
  790MOL0     H 8975  12.950   7.743   1.131  0.7876  1.2202 -0.3691
  790MOL0     H 8976  13.071   7.602   1.304  0.5832  2.6888 -0.2670
  790MOL0     H 8977  12.915   7.521   1.270 -1.3944 -0.5175 -2.4624
  790MOL0     H 8978  13.248   7.442   1.006 -0.2123  0.0443 -0.3870
  790MOL0     H 8979  13.479   7.423   0.937  0.2103  1.5494  0.5808
  790MOL0     H 8980  13.544   7.280   1.008  3.1967  0.7412 -0.9580
  790MOL0     H 8981  13.615   7.443   1.048 -0.4011  0.3283  3.3415
  790MOL0     H 8982  13.729   7.559   1.615 -0.1872 -0.9929  1.5332
  790MOL0     H 8983  13.961   7.559   1.714  1.7481  0.6935 -2.8662
  790MOL0     H 8984  14.220   7.552   1.613 -0.7100 -0.8349 -1.1215
  790MOL0     H 8985  14.156   7.523   1.783 -0.2427 -0.3574 -1.0838
  790MOL0     H 8986  14.414   7.400   1.660  1.6265 -1.8628  3.0956
  790MOL0     H 8987  14.411   7.533   1.763 -0.5755 -0.0454 -0.6681
  790MOL0     H 8988  14.478   7.326   1.878  0.0524 -0.6359  0.8656
  790MOL0     H 8989  14.314   7.268   1.862 -1.0791  0.2935 -2.3787
  790MOL0     H 8990  14.241   7.451   2.016 -0.8267 -2.2909 -1.6527
  790MOL0     H 8991  14.394   7.536   1.986  0.3370 -0.9726 -0.2170
  790MOL0     H 8992  14.373   7.262   2.131 -2.4919  1.1512  0.6101
  790MOL0     H 8993  14.513   7.370   2.119  0.1029 -2.2638 -0.0221
  790MOL0     H 8994  14.391   7.379   2.334 -0.8320  0.7348  1.5705
  790MOL0     H 8995  14.242   7.435   2.248  1.0173  4.9648  3.1772
  790MOL0     H 8996  14.349   7.626   2.347  0.9274  0.6722  0.5103
  790MOL0     H 8997  14.364   7.634   2.175  1.1458 -0.5498 -1.5595
  790MOL0     H 8998  14.567   7.699   2.295  1.8736  0.0345 -1.3207
  790MOL0     H 8999  14.603   7.577   2.176 -1.1727  1.4967 -1.2881
  790MOL0     H 9000  14.025   7.171   1.532  0.4114  0.4483  2.7809
  790MOL0     H 9001  13.813   7.178   1.444 -2.5321  0.5656  1.6864
  790MOL0     H 9002  13.390   7.346   1.479  0.3996 -1.6722  0.0062
  790MOL0     H 9003  13.155   7.371   1.413  1.4328 -0.0609  3.6823
  790MOL0     H 9004  11.310   7.332   0.729 -2.5894 -1.0494  0.0483
  790MOL0     H 9005  11.101   7.398   0.835 -0.1620  1.6845  0.2792
  790MOL0     H 9006  10.896   7.826   0.799 -0.3542 -1.5208 -1.4001
  790MOL0     H 9007  10.649   7.844   0.768 -0.0961 -1.9681 -1.7590
  790MOL0     H 9008  10.436   7.521   0.908 -1.1436 -0.8654  3.1318
  790MOL0     H 9009  10.391   7.636   1.029  1.7709  0.8823  0.0585
  790MOL0     H 9010  10.217   7.728   0.882  0.9443  0.0212  1.6081
  790MOL0     H 9011  10.192   7.564   0.946  2.7185  0.5506  2.2920
  790MOL0     H 9012  10.155   7.638   0.672 -0.3144 -2.6972 -2.5178
  790MOL0     H 9013  10.328   7.580   0.682  0.8066  0.6068  0.1851
  790MOL0     H 9014  10.059   7.452   0.735 -1.0275 -1.0585  0.0825
  790MOL0     H 9015  10.217   7.375   0.784  3.3202  2.6866  0.5266
  790MOL0     H 9016  10.222   7.243   0.318  1.7524  2.3778  0.2366
  790MOL0     H 9017  10.586   7.569   1.090 -0.4750  3.3578  1.2613
  790MOL0     H 9018  10.748   7.470   1.200  1.0377 -1.8462 -3.1082
  790MOL0     H 9019  10.902   7.458   1.142 -2.4793 -1.9308 -3.6162
  790MOL0     H 9020  10.865   7.612   1.233 -0.6323  0.4809  0.1672
  791MOL0     O 9021   7.280   0.287   5.530 -0.3696  0.4231 -0.0772
  791MOL0     C 9022   7.197   0.190   5.523 -0.6416 -0.6436  0.9897
  791MOL0     O 9023   7.228   0.063   5.499  0.5955  0.1304 -0.2426
  791MOL0     C 9024   7.356   0.026   5.483 -0.1779  0.5465  1.1661
  791MOL0     C 9025   7.441   0.061   5.381  0.2635 -0.7328 -1.0014
  791MOL0     C 9026   7.571   0.023   5.384  0.0592 -0.4092  0.7027
  791MOL0     C 9027   7.624  -0.073   5.483 -0.3585  0.0655 -0.3346
  791MOL0     O 9028   7.761  -0.116   5.501 -0.0918  0.4853 -0.4379
  791MOL0     C 9029   7.857  -0.017   5.466 -0.5696  0.8511 -0.2753
  791MOL0     C 9030   7.991  -0.048   5.541 -0.7829  0.4949 -1.2711
  791MOL0     C 9031   7.966  -0.039   5.696 -0.4792  0.1861  1.3680
  791MOL0     C 9032   8.089  -0.074   5.768  0.0342 -0.0248 -1.0102
  791MOL0     C 9033   8.063  -0.098   5.920  0.1946 -0.0508  0.6608
  791MOL0     C 9034   8.193  -0.102   5.999  0.6244  0.3663  0.2162
  791MOL0     C 9035   8.265  -0.236   5.980  0.5110 -0.0735  0.0951
  791MOL0     C 9036   8.409  -0.244   6.044 -0.2449 -0.1579 -0.6551
  791MOL0     N 9037   8.417  -0.232   6.193 -0.2772 -0.6676  0.0862
  791MOL0     C 9038   8.426  -0.116   6.272  0.0215 -0.0813  0.3580
  791MOL0     C 9039   8.424  -0.158   6.404  0.5991 -0.1863  0.4754
  791MOL0     C 9040   8.421  -0.071   6.525 -0.4977  0.1237  0.5206
  791MOL0     C 9041   8.550  -0.000   6.561 -0.2003  0.6449  0.9624
  791MOL0     C 9042   8.557   0.051   6.709  0.8037 -0.3359  0.2671
  791MOL0     C 9043   8.684   0.131   6.728  0.6291 -0.0587 -0.6625
  791MOL0     O 9044   8.711   0.163   6.858  0.1785  0.4004 -0.0325
  791MOL0     C 9045   8.823   0.241   6.876 -0.3818 -0.3637  0.1333
  791MOL0     C 9046   8.916   0.293   6.783  0.4383  0.4684  0.1828
  791MOL0     C 9047   9.037   0.358   6.811  0.3590  0.0957  0.2553
  791MOL0     C 9048   9.113   0.410   6.691  0.5098 -0.0626  0.4004
  791MOL0     C 9049   9.076   0.381   6.942  0.9669  0.2428 -0.8442
  791MOL0     C 9050   9.205   0.444   6.988  0.7093 -0.6450  0.1254
  791MOL0     O 9051   9.222   0.472   7.130  0.2644  0.5138  0.7928
  791MOL0     C 9052   9.336   0.548   7.165  0.3384 -0.3039 -0.2824
  791MOL0     C 9053   9.402   0.502   7.276  0.4822 -0.2708  0.0061
  791MOL0     C 9054   9.518   0.567   7.319 -0.4931  0.3835 -0.1135
  791MOL0     C 9055   9.569   0.677   7.256  0.8456  0.1312 -0.4472
  791MOL0     O 9056   9.681   0.725   7.324  0.7532 -0.1405  0.2462
  791MOL0     C 9057   9.764   0.807   7.231 -0.1461  0.4980 -0.2553
  791MOL0     C 9058   9.879   0.871   7.303 -0.2447  0.4679 -0.1094
  791MOL0     C 9059   9.998   0.776   7.309  0.9767 -0.7762 -0.3664
  791MOL0     C 9060  10.108   0.841   7.394 -0.2799 -0.0036 -0.0994
  791MOL0     C 9061  10.241   0.760   7.403 -0.1457 -0.4997  0.0818
  791MOL0     C 9062  10.363   0.845   7.453 -0.2743  0.5003  0.0635
  791MOL0     C 9063  10.494   0.756   7.440  0.5929  0.1470 -0.6327
  791MOL0     C 9064  10.610   0.807   7.522  0.2458 -0.4924 -0.1246
  791MOL0    Cl 9065  10.634   0.984   7.502  0.3494 -0.3511 -0.4447
  791MOL0     C 9066   9.497   0.726   7.143  0.1984  0.3380  0.7102
  791MOL0     C 9067   9.380   0.660   7.098  0.3643 -0.4525 -0.8013
  791MOL0     O 9068   9.278   0.472   6.899 -0.1824 -0.0092  0.0263
  791MOL0     C 9069   8.990   0.332   7.035 -0.0629  0.6627 -0.9396
  791MOL0     C 9070   8.873   0.256   7.004 -0.4007  0.5833  0.2571
  791MOL0     N 9071   8.388  -0.289   6.405  0.1126 -0.0623 -0.4088
  791MOL0     N 9072   8.390  -0.335   6.281 -0.1461 -0.1191 -0.1063
  791MOL0     C 9073   7.531  -0.118   5.579  0.3277 -0.7701 -0.8511
  791MOL0     C 9074   7.400  -0.072   5.577 -0.0789 -0.2892 -0.6191
  791MOL0     C 9075   7.053   0.221   5.547 -1.0010 -0.5578  0.4958
  791MOL0     C 9076   7.024   0.349   5.604 -1.5635 -0.2992 -0.6134
  791MOL0     C 9077   6.903   0.396   5.639  0.4061 -0.0540 -1.3410
  791MOL0     C 9078   6.787   0.317   5.622 -0.5292  0.3751  0.2620
  791MOL0     O 9079   6.659   0.359   5.656  0.4409  0.0983  0.4481
  791MOL0     C 9080   6.641   0.483   5.732 -0.2047  0.4671  0.0867
  791MOL0     C 9081   6.505   0.486   5.801 -0.6112 -0.5249  0.5492
  791MOL0     C 9082   6.479   0.613   5.860 -0.6454 -0.9652  0.3411
  791MOL0     C 9083   6.349   0.599   5.939 -0.1687 -0.7361 -0.3407
  791MOL0     C 9084   6.310   0.727   6.000  0.0761  0.1423 -0.4145
  791MOL0     C 9085   6.277   0.828   6.061  0.1826  1.0187 -0.5693
  791MOL0     C 9086   6.814   0.195   5.547 -0.8408 -0.4581  0.1078
  791MOL0     C 9087   6.940   0.142   5.524  0.3379  0.6918  0.1470
  791MOL0     C 9088   6.941   0.001   5.460  0.0544 -0.0345  0.0335
  791MOL0     H 9089   7.401   0.144   5.324  2.7731  1.7515  0.5850
  791MOL0     H 9090   7.642   0.070   5.317  0.8339 -0.7396  1.2792
  791MOL0     H 9091   7.817   0.082   5.487 -1.5100  0.4085  0.1297
  791MOL0     H 9092   7.885  -0.030   5.361 -0.9976 -1.1743 -0.1903
  791MOL0     H 9093   8.033  -0.143   5.508 -2.1231 -0.5885 -0.0160
  791MOL0     H 9094   8.059   0.025   5.498 -2.3613  3.0480  0.2888
  791MOL0     H 9095   7.944   0.067   5.715  3.8081  1.8222 -1.2603
  791MOL0     H 9096   7.884  -0.102   5.730  0.5183 -2.0735 -0.1883
  791MOL0     H 9097   8.120  -0.171   5.728  0.7972 -0.7133  1.0996
  791MOL0     H 9098   8.170  -0.005   5.743 -2.0578  2.9017 -0.2346
  791MOL0     H 9099   8.005  -0.190   5.928 -2.4348  1.4662  0.1500
  791MOL0     H 9100   7.997  -0.016   5.950 -1.1127 -1.0798  0.6906
  791MOL0     H 9101   8.253  -0.021   5.956 -0.2555  1.2783  0.6751
  791MOL0     H 9102   8.169  -0.081   6.104  0.9473  0.1639  0.3316
  791MOL0     H 9103   8.282  -0.262   5.875 -0.3611  1.5277 -0.4832
  791MOL0     H 9104   8.210  -0.313   6.034 -1.9928  1.5434 -0.0068
  791MOL0     H 9105   8.455  -0.337   6.009  0.1177 -0.3982  0.4129
  791MOL0     H 9106   8.477  -0.166   6.008 -0.5521  0.1525 -0.5599
  791MOL0     H 9107   8.440  -0.013   6.240  2.0275  0.1166  1.7400
  791MOL0     H 9108   8.395  -0.137   6.608  2.0213 -0.4134  0.9545
  791MOL0     H 9109   8.339   0.002   6.523  0.1102  0.8024 -1.2673
  791MOL0     H 9110   8.626  -0.078   6.550 -1.0795 -0.2172  0.9314
  791MOL0     H 9111   8.577   0.086   6.499  0.1233  1.0460  1.6529
  791MOL0     H 9112   8.469   0.112   6.732  1.7366  0.5650  1.6382
  791MOL0     H 9113   8.559  -0.032   6.779  2.4810 -0.9366 -0.4423
  791MOL0     H 9114   8.768   0.074   6.687  0.3830  1.2974 -3.2713
  791MOL0     H 9115   8.674   0.218   6.662  3.3176  1.7490  1.1195
  791MOL0     H 9116   8.885   0.289   6.679  1.2286 -2.0703 -0.0417
  791MOL0     H 9117   9.067   0.375   6.598 -0.8119  2.5913 -0.0577
  791MOL0     H 9118   9.219   0.382   6.693  0.6876  0.4850 -0.5172
  791MOL0     H 9119   9.099   0.517   6.671 -1.1311 -0.7590 -2.7154
  791MOL0     H 9120   9.353   0.425   7.333 -1.6401  1.9660  1.3933
  791MOL0     H 9121   9.553   0.529   7.414  1.7992  1.2125 -0.5753
  791MOL0     H 9122   9.799   0.761   7.138  1.1785 -1.8801  1.3024
  791MOL0     H 9123   9.690   0.884   7.207 -0.8564 -1.0372 -3.5601
  791MOL0     H 9124   9.917   0.957   7.247  1.4993 -0.4386 -0.4053
  791MOL0     H 9125   9.840   0.911   7.397 -1.0098 -0.2006 -0.1280
  791MOL0     H 9126  10.031   0.756   7.207 -2.1586  2.2386 -2.2088
  791MOL0     H 9127   9.970   0.678   7.349 -1.5394  0.7612  1.9991
  791MOL0     H 9128  10.074   0.860   7.497  3.2860 -3.1292  1.9135
  791MOL0     H 9129  10.123   0.935   7.340 -2.1374 -0.5661 -1.7311
  791MOL0     H 9130  10.236   0.663   7.453  2.0627 -0.7898 -0.1514
  791MOL0     H 9131  10.260   0.739   7.297  0.6710  0.0957  0.0990
  791MOL0     H 9132  10.340   0.861   7.559 -1.2371 -1.8915  0.2804
  791MOL0     H 9133  10.375   0.945   7.410 -0.1371  1.4070  2.0929
  791MOL0     H 9134  10.523   0.747   7.335 -0.5020 -0.8565 -0.8702
  791MOL0     H 9135  10.472   0.653   7.469  3.3283 -0.1979  0.4685
  791MOL0     H 9136  10.701   0.761   7.483  0.1308 -1.3429  0.5744
  791MOL0     H 9137  10.607   0.763   7.622 -3.5085 -2.1328 -0.7821
  791MOL0     H 9138   9.526   0.808   7.079  2.0377 -1.6261 -1.1686
  791MOL0     H 9139   9.326   0.704   7.014 -1.9154 -1.7139 -0.0961
  791MOL0     H 9140   9.014   0.333   7.141  1.7499 -1.1172 -1.2808
  791MOL0     H 9141   8.819   0.204   7.082  2.0899 -1.3552  0.8292
  791MOL0     H 9142   7.573  -0.180   5.657 -0.0022  1.8859  1.5926
  791MOL0     H 9143   7.324  -0.093   5.652 -0.6225 -0.0389 -1.0962
  791MOL0     H 9144   7.108   0.415   5.620  0.6091 -2.6196 -1.7652
  791MOL0     H 9145   6.907   0.493   5.688  2.7943 -1.4092  1.4280
  791MOL0     H 9146   6.726   0.494   5.799 -1.7212  2.2428  1.8175
  791MOL0     H 9147   6.649   0.566   5.661 -2.5131 -0.4933 -1.4146
  791MOL0     H 9148   6.499   0.424   5.891 -0.6670  0.2302  1.0746
  791MOL0     H 9149   6.427   0.456   5.731 -1.0136 -1.3242  1.3179
  791MOL0     H 9150   6.564   0.646   5.920  0.7499 -3.5384 -0.0780
  791MOL0     H 9151   6.458   0.678   5.775  0.6598 -2.5660 -1.2680
  791MOL0     H 9152   6.367   0.542   6.030  0.6413 -0.0408 -0.0522
  791MOL0     H 9153   6.264   0.558   5.883 -1.6075  1.1006  0.3679
  791MOL0     H 9154   6.252   0.905   6.132 -3.3370  1.2607 -1.8577
  791MOL0     H 9155   6.717   0.153   5.522 -1.5297  1.3259 -0.3769
  791MOL0     H 9156   6.986   0.002   5.360 -2.3033 -0.0531 -1.0958
  791MOL0     H 9157   6.980  -0.074   5.529  2.6363 -0.0031 -1.2766
  791MOL0     H 9158   6.844  -0.038   5.428  1.2238 -0.9759 -2.7176
  792MOL0     O 9159   8.751   6.061   0.015  0.5241 -0.3183  0.0354
  792MOL0     C 9160   8.858   6.074   0.069  0.0272  0.6574 -0.3019
  792MOL0     O 9161   8.885   6.145   0.184  0.3535 -0.6253 -0.0023
  792MOL0     C 9162   8.776   6.217   0.213  1.0423  0.4846 -0.0198
  792MOL0     C 9163   8.752   6.346   0.181  0.4530 -0.2894 -0.8195
  792MOL0     C 9164   8.640   6.410   0.222  0.0556  0.4814 -0.6443
  792MOL0     C 9165   8.549   6.350   0.304 -0.3133 -0.6762 -0.0119
  792MOL0     O 9166   8.439   6.419   0.355 -0.8863  0.5785 -0.1727
  792MOL0     C 9167   8.456   6.462   0.491 -0.3345  0.7177 -0.6392
  792MOL0     C 9168   8.408   6.608   0.491 -0.1966 -0.3036 -0.6434
  792MOL0     C 9169   8.429   6.661   0.641 -0.4501 -0.2970  0.4879
  792MOL0     C 9170   8.569   6.720   0.665 -0.2758 -0.8336  0.9694
  792MOL0     C 9171   8.564   6.781   0.803  0.6437 -0.1685  0.0802
  792MOL0     C 9172   8.711   6.793   0.848 -0.2340 -0.0819  0.3387
  792MOL0     C 9173   8.783   6.921   0.798  0.3627 -0.4791  0.7973
  792MOL0     C 9174   8.937   6.922   0.835 -0.4111 -0.1877  0.6633
  792MOL0     N 9175   8.953   6.926   0.982  0.1929  0.0665  0.1115
  792MOL0     C 9176   8.951   7.047   1.042  0.0738  0.6149  0.4863
  792MOL0     C 9177   9.019   7.023   1.158  0.5216  0.0565  0.1165
  792MOL0     C 9178   9.068   7.128   1.266 -0.1702  0.2608 -0.8706
  792MOL0     C 9179   8.955   7.147   1.366  0.0957 -0.1352 -0.2200
  792MOL0     C 9180   8.992   7.268   1.460  0.6316  0.4934  0.5008
  792MOL0     C 9181   8.914   7.263   1.599 -0.3035  0.4478  0.3012
  792MOL0     O 9182   8.775   7.260   1.567  0.2287 -0.1052 -0.5018
  792MOL0     C 9183   8.686   7.273   1.663 -0.6741 -0.2412 -0.7589
  792MOL0     C 9184   8.702   7.267   1.810 -0.4026  0.0643 -0.4751
  792MOL0     C 9185   8.582   7.273   1.884  0.5573 -0.9508 -0.8982
  792MOL0     C 9186   8.599   7.284   2.035  0.6088  0.2228  0.4168
  792MOL0     C 9187   8.459   7.271   1.827 -0.6910  0.0932  0.3642
  792MOL0     C 9188   8.333   7.276   1.906  0.3351  0.1359 -0.2840
  792MOL0     O 9189   8.232   7.355   1.858 -0.0081  0.0863  0.4244
  792MOL0     C 9190   8.106   7.339   1.913  0.8639 -0.0019 -0.5740
  792MOL0     C 9191   8.000   7.299   1.834 -0.9743  0.6336  0.4139
  792MOL0     C 9192   7.866   7.298   1.868 -0.3809  0.6051 -1.3345
  792MOL0     C 9193   7.835   7.353   1.992 -0.2034 -0.3457 -0.6768
  792MOL0     O 9194   7.702   7.362   2.029  0.6105  0.5156  0.2925
  792MOL0     C 9195   7.658   7.473   2.111 -0.5135  1.4988  0.7700
  792MOL0     C 9196   7.504   7.473   2.120  0.5992 -0.1195 -1.1115
  792MOL0     C 9197   7.435   7.441   1.985  0.2544  0.1430 -0.4187
  792MOL0     C 9198   7.295   7.410   2.013  0.2937  0.3605  0.9321
  792MOL0     C 9199   7.207   7.403   1.884  0.1313 -0.1477 -0.3490
  792MOL0     C 9200   7.060   7.350   1.890  0.1630 -0.3873  0.4014
  792MOL0     C 9201   7.012   7.289   1.760 -0.5377  0.7635 -0.3816
  792MOL0     C 9202   7.055   7.345   1.631  0.2297 -0.2546  0.0782
  792MOL0    Cl 9203   6.958   7.283   1.488  0.1097  0.3652  0.0144
  792MOL0     C 9204   7.941   7.395   2.075  0.3603 -0.8500 -1.0450
  792MOL0     C 9205   8.077   7.391   2.040 -1.5237  0.3238 -0.1716
  792MOL0     O 9206   8.325   7.202   2.004 -0.2120  0.7238  0.1477
  792MOL0     C 9207   8.448   7.287   1.691  0.2704  0.0167  0.7797
  792MOL0     C 9208   8.559   7.275   1.607  0.8689 -0.6481 -0.6967
  792MOL0     N 9209   9.062   6.892   1.159 -0.6649  0.1879  0.1695
  792MOL0     N 9210   9.023   6.835   1.057 -0.0439 -0.2100  0.1274
  792MOL0     C 9211   8.575   6.218   0.345 -0.0261 -0.1771 -0.3613
  792MOL0     C 9212   8.689   6.154   0.294  0.5106  0.6852  0.0360
  792MOL0     C 9213   8.979   6.033  -0.018  0.4680  0.6846 -0.4205
  792MOL0     C 9214   9.112   6.080   0.005 -0.5913 -0.6015  0.4968
  792MOL0     C 9215   9.217   6.032  -0.074  0.7763 -0.5175 -0.5693
  792MOL0     C 9216   9.197   5.950  -0.178  0.1198 -0.5774  0.9863
  792MOL0     O 9217   9.298   5.898  -0.258  0.2515  0.2439 -0.3108
  792MOL0     C 9218   9.406   5.982  -0.299  0.3910 -0.6358  0.5892
  792MOL0     C 9219   9.424   5.959  -0.448  0.3130  0.1921  0.3761
  792MOL0     C 9220   9.522   6.054  -0.519  0.7046  0.4334 -0.1537
  792MOL0     C 9221   9.451   6.190  -0.560 -0.3818  1.6648 -0.4315
  792MOL0     C 9222   9.554   6.288  -0.571  0.2042  0.2907 -0.2046
  792MOL0     C 9223   9.644   6.373  -0.582 -0.3806 -0.2156 -0.6926
  792MOL0     C 9224   9.074   5.892  -0.195  0.9129  0.1515  0.7221
  792MOL0     C 9225   8.960   5.935  -0.127 -0.1209  0.4612  0.2964
  792MOL0     C 9226   8.827   5.863  -0.164  1.1461 -0.2889  0.0284
  792MOL0     H 9227   8.827   6.411   0.138  0.1541  1.0916  0.6472
  792MOL0     H 9228   8.626   6.516   0.202 -1.0922  0.8683  1.7631
  792MOL0     H 9229   8.556   6.451   0.534 -1.3683 -0.7208  1.6100
  792MOL0     H 9230   8.388   6.394   0.544 -0.6340  0.3371 -1.4902
  792MOL0     H 9231   8.460   6.660   0.411  3.3859 -0.0948  1.6201
  792MOL0     H 9232   8.301   6.608   0.467 -0.3183 -3.8409 -0.6834
  792MOL0     H 9233   8.358   6.744   0.649 -0.1235 -0.0632  1.0592
  792MOL0     H 9234   8.404   6.587   0.718 -2.1211  0.3580  0.6255
  792MOL0     H 9235   8.650   6.646   0.658  0.3494 -0.0536 -3.2939
  792MOL0     H 9236   8.594   6.795   0.589 -0.9981 -1.4010  0.1436
  792MOL0     H 9237   8.519   6.712   0.875  0.0922  0.3026  0.1926
  792MOL0     H 9238   8.525   6.883   0.807  1.2185  0.0563  0.0720
  792MOL0     H 9239   8.710   6.785   0.957  1.1288 -0.9709  0.3123
  792MOL0     H 9240   8.767   6.705   0.814 -0.3755  0.0250 -0.1855
  792MOL0     H 9241   8.739   7.018   0.824  0.4992 -0.5654  1.3605
  792MOL0     H 9242   8.775   6.922   0.689  0.7485  0.6088  0.7591
  792MOL0     H 9243   8.988   6.833   0.798 -2.0046 -0.6411 -0.5645
  792MOL0     H 9244   8.981   7.010   0.786  0.5956 -0.1833  1.5555
  792MOL0     H 9245   8.911   7.143   1.014  1.0001  0.6494 -0.8319
  792MOL0     H 9246   9.094   7.217   1.208  1.3166 -0.2164 -0.9878
  792MOL0     H 9247   9.164   7.102   1.310  0.8449  0.4433 -2.8673
  792MOL0     H 9248   8.859   7.174   1.321  0.8542  1.7667 -0.7800
  792MOL0     H 9249   8.951   7.051   1.418 -0.3906 -1.3836 -2.4567
  792MOL0     H 9250   9.097   7.247   1.478  0.9214  2.4432  1.3519
  792MOL0     H 9251   8.975   7.365   1.411  0.3234  2.8246  4.7162
  792MOL0     H 9252   8.925   7.176   1.664 -3.9398  1.2764  2.3299
  792MOL0     H 9253   8.950   7.343   1.665  1.7519  0.6813 -1.0240
  792MOL0     H 9254   8.804   7.272   1.848 -0.6404 -1.6846  0.4683
  792MOL0     H 9255   8.704   7.278   2.066  0.8175 -1.6457 -0.5436
  792MOL0     H 9256   8.562   7.194   2.085  2.0652 -0.8678 -0.3920
  792MOL0     H 9257   8.563   7.383   2.065  1.8998  0.5798  0.8696
  792MOL0     H 9258   8.040   7.246   1.749  4.8922  2.2977  1.6537
  792MOL0     H 9259   7.789   7.263   1.801 -1.2768  0.3332 -0.1952
  792MOL0     H 9260   7.694   7.461   2.213 -0.8112  1.0005  0.8181
  792MOL0     H 9261   7.694   7.561   2.055  2.9553  1.9148  3.3119
  792MOL0     H 9262   7.485   7.385   2.182  2.3305 -1.4296 -2.3065
  792MOL0     H 9263   7.459   7.552   2.180  0.0058  0.3695 -2.1683
  792MOL0     H 9264   7.479   7.354   1.936  0.2627 -0.2046  0.1920
  792MOL0     H 9265   7.458   7.532   1.928 -0.3295  0.0897 -0.7445
  792MOL0     H 9266   7.248   7.483   2.080 -0.8527  1.5409 -1.0613
  792MOL0     H 9267   7.304   7.315   2.066  1.2043  0.7488  1.4964
  792MOL0     H 9268   7.190   7.500   1.836 -1.1882 -0.7501 -1.1654
  792MOL0     H 9269   7.269   7.349   1.812  0.8377  1.9644 -1.4192
  792MOL0     H 9270   6.996   7.433   1.923  0.9848  0.8043 -0.9011
  792MOL0     H 9271   7.046   7.277   1.971 -0.2712  0.5579  1.2093
  792MOL0     H 9272   6.903   7.290   1.766 -0.7283 -0.9686 -2.4733
  792MOL0     H 9273   7.047   7.187   1.745  2.5405  1.5996  0.4715
  792MOL0     H 9274   7.161   7.325   1.615  0.6155  0.2011  1.9248
  792MOL0     H 9275   7.033   7.452   1.638  0.0819 -0.3832  1.8747
  792MOL0     H 9276   7.929   7.446   2.170  1.0501  0.4307 -1.6148
  792MOL0     H 9277   8.154   7.419   2.112 -1.7702  0.2586  0.1225
  792MOL0     H 9278   8.345   7.288   1.658 -0.6380 -1.7214  3.2946
  792MOL0     H 9279   8.550   7.275   1.499 -0.3276  0.1451 -0.6134
  792MOL0     H 9280   8.506   6.185   0.422 -0.9637  3.1964  0.4283
  792MOL0     H 9281   8.707   6.058   0.340 -1.4714  0.9166  1.3904
  792MOL0     H 9282   9.139   6.159   0.074  1.5670  0.3608 -1.3127
  792MOL0     H 9283   9.315   6.059  -0.038 -0.9191  0.8985  3.6469
  792MOL0     H 9284   9.377   6.084  -0.272  0.2634 -0.8516  1.2765
  792MOL0     H 9285   9.494   5.956  -0.239  0.8607  0.2972  0.3350
  792MOL0     H 9286   9.327   5.961  -0.498  0.4269 -0.5315  0.1095
  792MOL0     H 9287   9.453   5.854  -0.453 -2.7975 -0.8068  1.4479
  792MOL0     H 9288   9.607   6.060  -0.451  0.4332 -1.7446  0.4495
  792MOL0     H 9289   9.548   6.025  -0.621 -1.4414  3.6279 -1.7975
  792MOL0     H 9290   9.388   6.216  -0.474  2.8486  1.0279  2.3374
  792MOL0     H 9291   9.388   6.183  -0.649 -1.1965  0.9044  0.1942
  792MOL0     H 9292   9.722   6.444  -0.604 -1.3553  0.3667 -2.5138
  792MOL0     H 9293   9.067   5.817  -0.274 -1.1740  1.4177 -0.3889
  792MOL0     H 9294   8.756   5.936  -0.205  1.1482  1.0980  2.2930
  792MOL0     H 9295   8.829   5.783  -0.238 -2.1722 -1.0087  0.5600
  792MOL0     H 9296   8.769   5.817  -0.083 -0.3396  2.2852  0.5500
  793MOL0     O 9297   6.342  10.221   0.817  0.1865  0.3143  0.0555
  793MOL0     C 9298   6.296  10.252   0.926 -0.3262  0.0056 -0.4161
  793MOL0     O 9299   6.364  10.270   1.047  0.0536  0.1311 -0.7105
  793MOL0     C 9300   6.496  10.235   1.058 -0.0329  0.6426 -0.0649
  793MOL0     C 9301   6.579  10.317   1.130 -0.4926 -0.5238  0.3794
  793MOL0     C 9302   6.726  10.306   1.133  0.8590 -0.0468 -0.2464
  793MOL0     C 9303   6.774  10.193   1.068  0.1379 -0.4082 -0.1563
  793MOL0     O 9304   6.909  10.181   1.060  0.3179 -0.0496  0.1210
  793MOL0     C 9305   6.964  10.097   1.173 -0.2125  0.1060 -0.2827
  793MOL0     C 9306   7.043   9.973   1.129 -0.2755 -0.2345  0.4693
  793MOL0     C 9307   7.184  10.011   1.055  0.1396  0.2579  0.2218
  793MOL0     C 9308   7.232   9.880   0.983 -0.9643  0.2577  0.1937
  793MOL0     C 9309   7.379   9.880   0.923  0.9638  0.1721  0.4802
  793MOL0     C 9310   7.419   9.737   0.871 -0.2325 -0.0574  0.3114
  793MOL0     C 9311   7.545   9.763   0.794 -0.2497  0.2199  0.5269
  793MOL0     C 9312   7.584   9.631   0.732  0.9871 -0.3422 -0.8450
  793MOL0     N 9313   7.697   9.658   0.638  0.3326 -0.7517  0.3608
  793MOL0     C 9314   7.822   9.649   0.677  0.4397  0.1122 -0.1365
  793MOL0     C 9315   7.901   9.659   0.567  0.0026  0.5556  0.7693
  793MOL0     C 9316   8.047   9.650   0.546 -0.0922 -0.8074  0.3273
  793MOL0     C 9317   8.116   9.788   0.556 -0.1857 -0.6889  0.8050
  793MOL0     C 9318   8.262   9.763   0.540 -0.2313  0.5861 -0.0911
  793MOL0     C 9319   8.354   9.877   0.572 -0.4560  1.0336  0.1573
  793MOL0     O 9320   8.488   9.821   0.574  0.6639 -0.3083 -0.2279
  793MOL0     C 9321   8.582   9.894   0.641 -0.4143  0.5240  0.9950
  793MOL0     C 9322   8.570  10.015   0.709 -0.2097  0.0218  0.2013
  793MOL0     C 9323   8.674  10.080   0.782  0.0334  0.0677 -0.0377
  793MOL0     C 9324   8.630  10.207   0.856  0.6720  0.1399 -0.4349
  793MOL0     C 9325   8.806  10.024   0.769  0.2609  0.0925  0.5615
  793MOL0     C 9326   8.930  10.089   0.822  0.8430  0.0029  0.0812
  793MOL0     O 9327   9.056  10.035   0.776 -0.3254 -0.6766 -0.4855
  793MOL0     C 9328   9.163  10.064   0.863 -0.1323  0.4534 -0.0775
  793MOL0     C 9329   9.225  10.191   0.860 -0.0361  0.1394 -0.6606
  793MOL0     C 9330   9.338  10.215   0.947 -0.9483 -0.5890  0.5702
  793MOL0     C 9331   9.381  10.124   1.041 -1.1619 -0.3266  0.8892
  793MOL0     O 9332   9.492  10.148   1.121 -0.3235 -0.2581 -0.6066
  793MOL0     C 9333   9.481  10.277   1.179  0.6546 -0.3415 -1.1120
  793MOL0     C 9334   9.575  10.283   1.297 -0.7250 -0.0612 -0.1805
  793MOL0     C 9335   9.725  10.282   1.273 -0.3829  0.2259 -0.1667
  793MOL0     C 9336   9.787  10.423   1.269 -1.2686  0.0763 -0.6683
  793MOL0     C 9337   9.927  10.409   1.198  0.5045 -0.3398 -0.6079
  793MOL0     C 9338  10.010  10.541   1.197  0.1221  0.6474  0.2983
  793MOL0     C 9339   9.957  10.651   1.117  0.7079  0.1225  0.6807
  793MOL0     C 9340  10.025  10.776   1.158 -0.1649  0.0953  0.2797
  793MOL0    Cl 9341  10.195  10.774   1.145  0.0099  0.1068  0.3751
  793MOL0     C 9342   9.319   9.994   1.040  0.5951 -1.0497 -0.2559
  793MOL0     C 9343   9.214   9.965   0.950  0.7478  0.1761  0.1384
  793MOL0     O 9344   8.909  10.172   0.904 -0.2492  0.3383 -0.1087
  793MOL0     C 9345   8.822   9.905   0.692 -0.3246 -0.4178  0.1901
  793MOL0     C 9346   8.713   9.838   0.633  1.1816  0.1323 -0.0138
  793MOL0     N 9347   7.803   9.665   0.460 -0.2607 -0.2688 -0.2000
  793MOL0     N 9348   7.686   9.655   0.505  0.3982  0.1715 -0.1979
  793MOL0     C 9349   6.699  10.107   0.992 -0.5083  0.2939  0.0614
  793MOL0     C 9350   6.559  10.120   0.994 -0.0173  0.0455  0.5589
  793MOL0     C 9351   6.154  10.290   0.937 -0.5185 -0.1285  0.2670
  793MOL0     C 9352   6.079  10.232   1.042  0.6125 -0.0521  0.6088
  793MOL0     C 9353   5.950  10.285   1.062 -0.1840 -0.4932  0.5473
  793MOL0     C 9354   5.890  10.394   0.986  0.4531  1.5032  0.2260
  793MOL0     O 9355   5.757  10.426   1.017 -1.2432 -0.3695  0.2690
  793MOL0     C 9356   5.674  10.494   0.918 -0.2937  1.0563  0.2613
  793MOL0     C 9357   5.540  10.542   0.981 -0.1714 -1.0449  0.0270
  793MOL0     C 9358   5.422  10.458   0.956 -0.1563 -0.0274 -0.2293
  793MOL0     C 9359   5.432  10.326   1.041 -0.0745  0.4993 -0.2185
  793MOL0     C 9360   5.302  10.258   1.040  0.2197 -0.1434  0.8807
  793MOL0     C 9361   5.203  10.177   1.038 -0.2665  0.3827  0.2204
  793MOL0     C 9362   5.967  10.439   0.884  0.1471  0.1106  0.8910
  793MOL0     C 9363   6.099  10.394   0.862  0.1793  0.2983  0.6933
  793MOL0     C 9364   6.172  10.457   0.739  0.7030  0.4743  0.6336
  793MOL0     H 9365   6.528  10.407   1.162 -0.5534 -0.0751 -0.9325
  793MOL0     H 9366   6.791  10.380   1.178  1.6686 -0.4732 -0.6954
  793MOL0     H 9367   6.884  10.054   1.234 -1.9508  0.6147 -2.0677
  793MOL0     H 9368   7.032  10.154   1.237 -1.5319 -0.8295  2.0828
  793MOL0     H 9369   7.050   9.900   1.210 -1.2555  1.4884  2.1832
  793MOL0     H 9370   6.970   9.934   1.058 -3.0826  2.6232  1.5772
  793MOL0     H 9371   7.165  10.080   0.972 -0.0429  0.3574  0.3477
  793MOL0     H 9372   7.258  10.051   1.124  0.1271  2.6017 -1.0249
  793MOL0     H 9373   7.221   9.798   1.054 -1.3838 -0.5522 -0.7768
  793MOL0     H 9374   7.163   9.853   0.902  0.7626 -0.5970 -1.0429
  793MOL0     H 9375   7.457   9.913   0.993  1.1683  1.9916 -0.5582
  793MOL0     H 9376   7.385   9.945   0.836  2.3782 -2.2010 -1.3278
  793MOL0     H 9377   7.443   9.669   0.953 -0.7841 -1.1754 -0.4252
  793MOL0     H 9378   7.339   9.694   0.809  1.0581 -3.6282  0.8952
  793MOL0     H 9379   7.620   9.811   0.857 -2.0365  3.4447  0.4090
  793MOL0     H 9380   7.522   9.835   0.715 -0.9652 -0.1417  0.3977
  793MOL0     H 9381   7.605   9.552   0.805 -1.0755  0.5950  0.8877
  793MOL0     H 9382   7.506   9.587   0.669  0.9366  3.0020 -3.3485
  793MOL0     H 9383   7.863   9.637   0.778 -1.6794 -0.3567  0.7096
  793MOL0     H 9384   8.070   9.616   0.444 -0.7289 -3.3861  0.9736
  793MOL0     H 9385   8.087   9.575   0.614  1.2788  2.3404  3.3032
  793MOL0     H 9386   8.087   9.875   0.495  1.4112 -1.3366 -0.9892
  793MOL0     H 9387   8.100   9.834   0.654  0.8518 -0.2257  0.7658
  793MOL0     H 9388   8.297   9.683   0.606 -0.1328  1.2912  0.7417
  793MOL0     H 9389   8.276   9.730   0.437  1.0288 -0.6537  0.4462
  793MOL0     H 9390   8.358   9.964   0.507  0.6618  1.7863  1.1782
  793MOL0     H 9391   8.327   9.911   0.673 -1.8055 -1.5595  0.7739
  793MOL0     H 9392   8.470  10.056   0.722  0.0896  1.5440 -1.7697
  793MOL0     H 9393   8.706  10.282   0.836  0.9723  0.0949  0.4912
  793MOL0     H 9394   8.631  10.182   0.962  1.3518  1.1923 -0.1769
  793MOL0     H 9395   8.529  10.230   0.821 -1.7382 -5.9926  1.0876
  793MOL0     H 9396   9.177  10.268   0.800 -0.3063 -1.7372 -3.0240
  793MOL0     H 9397   9.388  10.310   0.930  0.0391 -1.5616 -2.8511
  793MOL0     H 9398   9.500  10.361   1.111 -0.7060  3.0603  2.2893
  793MOL0     H 9399   9.379  10.289   1.216  1.6320 -0.0340  1.7777
  793MOL0     H 9400   9.561  10.372   1.359  1.4365  0.4195 -0.3243
  793MOL0     H 9401   9.547  10.188   1.344  0.1119 -0.3608 -0.2713
  793MOL0     H 9402   9.747  10.223   1.183  0.6594 -0.7170  0.6782
  793MOL0     H 9403   9.771  10.234   1.360 -0.1382 -0.3184 -0.5888
  793MOL0     H 9404   9.794  10.463   1.371  0.4939 -0.3996 -0.5867
  793MOL0     H 9405   9.729  10.486   1.201 -2.1139  1.2575  1.0543
  793MOL0     H 9406   9.993  10.334   1.244  0.4289  0.3470  0.6587
  793MOL0     H 9407   9.920  10.377   1.094  1.0981  0.5912 -0.9466
  793MOL0     H 9408  10.112  10.518   1.167  0.0132  1.7522 -1.0023
  793MOL0     H 9409  10.020  10.579   1.300  2.0439 -1.5232  0.9971
  793MOL0     H 9410   9.849  10.670   1.124  0.7604  1.2645 -0.9117
  793MOL0     H 9411   9.967  10.635   1.009 -3.0140 -1.0092  0.3469
  793MOL0     H 9412  10.002  10.811   1.259  0.8627  0.6536  0.3313
  793MOL0     H 9413   9.988  10.857   1.094 -0.6234 -0.3390 -0.0115
  793MOL0     H 9414   9.360   9.919   1.107  0.0957  0.3461  1.6973
  793MOL0     H 9415   9.180   9.863   0.936 -0.4865  0.3644  1.4798
  793MOL0     H 9416   8.916   9.852   0.680  0.2961  0.9601 -1.5465
  793MOL0     H 9417   8.718   9.739   0.591 -0.5108  0.1102 -0.2526
  793MOL0     H 9418   6.743  10.019   0.947  0.9840 -0.0987  2.1794
  793MOL0     H 9419   6.498  10.050   0.938 -1.0475 -0.0157  1.7328
  793MOL0     H 9420   6.119  10.155   1.107  0.6948 -1.0105 -0.5406
  793MOL0     H 9421   5.898  10.232   1.142  0.0719 -2.8353 -0.7479
  793MOL0     H 9422   5.720  10.584   0.877  2.3918  0.5542  1.8691
  793MOL0     H 9423   5.656  10.424   0.836 -1.8177 -1.4474  2.5490
  793MOL0     H 9424   5.524  10.637   0.930 -1.9514 -1.8141 -0.9254
  793MOL0     H 9425   5.551  10.562   1.088  2.0695  0.2123 -0.3794
  793MOL0     H 9426   5.334  10.520   0.977 -1.0343 -1.0902 -0.6408
  793MOL0     H 9427   5.419  10.430   0.850  0.2893  1.6837 -0.7315
  793MOL0     H 9428   5.454  10.353   1.145 -2.3542  1.9782 -0.0255
  793MOL0     H 9429   5.518  10.272   1.002  0.1518  0.4649  0.3261
  793MOL0     H 9430   5.118  10.113   1.043  1.2873 -1.8659 -0.2221
  793MOL0     H 9431   5.930  10.515   0.817  0.3480 -0.1339  0.4975
  793MOL0     H 9432   6.121  10.547   0.703 -1.0511  0.1922  2.2450
  793MOL0     H 9433   6.273  10.488   0.765  0.8051 -0.2306  1.1220
  793MOL0     H 9434   6.180  10.380   0.662  1.0206  0.4898  0.6535
  794MOL0     O 9435   4.384   3.493   6.830  0.1717  0.1078  0.2168
  794MOL0     C 9436   4.374   3.600   6.885 -1.6100 -0.0867 -0.4161
  794MOL0     O 9437   4.480   3.694   6.892  0.5186  0.5039  0.1400
  794MOL0     C 9438   4.608   3.657   6.920 -0.3937 -0.3892 -0.2002
  794MOL0     C 9439   4.699   3.764   6.917  0.5331 -0.4560 -0.5691
  794MOL0     C 9440   4.831   3.747   6.937 -1.5357 -0.4669 -0.4002
  794MOL0     C 9441   4.882   3.620   6.967 -0.0721  0.1731 -0.5870
  794MOL0     O 9442   5.019   3.614   6.975  0.2419 -0.4071  0.1504
  794MOL0     C 9443   5.094   3.492   6.967  0.2564 -0.1895 -0.0484
  794MOL0     C 9444   5.232   3.527   7.028 -0.3056 -1.3147  0.5029
  794MOL0     C 9445   5.311   3.623   6.941 -0.9441 -0.1003 -0.3701
  794MOL0     C 9446   5.440   3.656   6.997 -0.4652 -0.8264 -0.1097
  794MOL0     C 9447   5.526   3.748   6.903 -0.1534 -0.7059 -0.2658
  794MOL0     C 9448   5.672   3.783   6.953  0.3507  0.0673 -0.2684
  794MOL0     C 9449   5.678   3.861   7.094  0.5289  0.2563  0.1254
  794MOL0     C 9450   5.805   3.940   7.098  0.4675  0.3180  0.5731
  794MOL0     N 9451   5.914   3.844   7.101 -0.5315  0.5327  0.8729
  794MOL0     C 9452   6.001   3.802   7.006 -0.6091  0.5537 -0.4340
  794MOL0     C 9453   6.094   3.724   7.075 -0.2204 -1.4538 -0.1281
  794MOL0     C 9454   6.210   3.658   7.017  0.9932  0.4446  0.0869
  794MOL0     C 9455   6.185   3.532   6.935 -0.0310 -0.3921 -0.0104
  794MOL0     C 9456   6.161   3.404   7.026 -0.7252 -0.0761  0.6501
  794MOL0     C 9457   6.237   3.380   7.163 -0.3364  0.0352  0.0664
  794MOL0     O 9458   6.376   3.354   7.155 -0.4431 -0.8375 -0.5640
  794MOL0     C 9459   6.452   3.362   7.267 -0.5959  1.3485 -0.2393
  794MOL0     C 9460   6.415   3.345   7.394 -0.1354  0.2052  0.0120
  794MOL0     C 9461   6.510   3.330   7.499  0.1360 -0.2614  0.1218
  794MOL0     C 9462   6.449   3.295   7.631 -0.7308 -0.8104  0.1462
  794MOL0     C 9463   6.648   3.361   7.475  0.5134  0.5410  0.4218
  794MOL0     C 9464   6.754   3.353   7.575 -0.3444 -0.4179 -1.0575
  794MOL0     O 9465   6.871   3.302   7.530 -0.8551  0.7094 -0.7746
  794MOL0     C 9466   6.989   3.343   7.584 -0.0515 -0.5719 -0.2086
  794MOL0     C 9467   7.069   3.250   7.660  0.2708  0.0993  0.3535
  794MOL0     C 9468   7.202   3.279   7.695 -0.1635 -0.3396 -0.4771
  794MOL0     C 9469   7.250   3.411   7.672  0.3933 -0.4237  0.2632
  794MOL0     O 9470   7.384   3.436   7.691  0.0022  0.6397  0.4345
  794MOL0     C 9471   7.439   3.574   7.681  0.9096  0.1418 -0.6195
  794MOL0     C 9472   7.557   3.565   7.775 -0.4294 -0.0286  0.3947
  794MOL0     C 9473   7.642   3.689   7.776  0.2604 -0.7661 -0.7259
  794MOL0     C 9474   7.772   3.669   7.842  0.8019 -0.6450 -0.2532
  794MOL0     C 9475   7.864   3.786   7.806  0.1217  0.6985  1.0886
  794MOL0     C 9476   7.997   3.752   7.865 -0.0202 -0.7439 -0.1857
  794MOL0     C 9477   8.062   3.876   7.942 -0.9432 -0.1826 -0.2158
  794MOL0     C 9478   8.210   3.856   7.977 -0.2042  0.0324  0.2311
  794MOL0    Cl 9479   8.222   3.735   8.102 -0.4392 -0.2597 -0.2019
  794MOL0     C 9480   7.161   3.502   7.612 -0.6440 -0.4919 -0.1692
  794MOL0     C 9481   7.033   3.472   7.562 -0.1138 -0.2172  0.1130
  794MOL0     O 9482   6.737   3.395   7.690  0.5966  0.3497  0.1615
  794MOL0     C 9483   6.678   3.392   7.347 -0.6284 -0.6027 -0.5670
  794MOL0     C 9484   6.584   3.394   7.242 -0.0494  0.0885 -0.3466
  794MOL0     N 9485   6.052   3.722   7.211  0.0201 -0.8093  0.0686
  794MOL0     N 9486   5.947   3.797   7.224  0.0254  0.4806 -0.2199
  794MOL0     C 9487   4.794   3.509   6.978 -0.0621 -0.1207  0.3313
  794MOL0     C 9488   4.659   3.529   6.950  0.6651 -0.0757  0.1542
  794MOL0     C 9489   4.244   3.634   6.946  0.2642  0.7036  0.3190
  794MOL0     C 9490   4.125   3.622   6.870 -0.3851  0.1149 -0.2990
  794MOL0     C 9491   4.002   3.671   6.922 -0.0543 -0.6018 -0.3089
  794MOL0     C 9492   3.998   3.722   7.047  0.2920  0.6891  0.6140
  794MOL0     O 9493   3.880   3.782   7.088 -0.4477  0.2388  0.7074
  794MOL0     C 9494   3.753   3.728   7.046  0.1625 -0.3484 -0.0861
  794MOL0     C 9495   3.653   3.750   7.160 -0.5961  0.2630 -0.0446
  794MOL0     C 9496   3.671   3.650   7.277  0.0729 -0.2494 -0.6428
  794MOL0     C 9497   3.581   3.680   7.399  0.1508 -0.1865 -0.3122
  794MOL0     C 9498   3.448   3.686   7.351 -0.3433  0.0083  0.0618
  794MOL0     C 9499   3.333   3.695   7.316 -0.5582  0.4416 -0.1048
  794MOL0     C 9500   4.116   3.730   7.121 -0.3297 -0.9617 -0.4557
  794MOL0     C 9501   4.240   3.687   7.074  0.2806 -0.3080 -0.3761
  794MOL0     C 9502   4.357   3.725   7.158  0.6024 -0.1078 -0.0595
  794MOL0     H 9503   4.653   3.862   6.914 -1.6883 -1.4018  0.5858
  794MOL0     H 9504   4.899   3.831   6.945 -3.5135  1.1197  0.8954
  794MOL0     H 9505   5.102   3.462   6.862  2.7052 -0.6224  0.2063
  794MOL0     H 9506   5.053   3.412   7.028  0.0199  0.5054  0.7148
  794MOL0     H 9507   5.219   3.567   7.129  1.3756  0.1487  0.1835
  794MOL0     H 9508   5.298   3.441   7.043  0.4905 -0.7228  0.4813
  794MOL0     H 9509   5.335   3.568   6.850  1.7173  1.4457 -0.7079
  794MOL0     H 9510   5.262   3.717   6.916  1.2090  2.1373  2.9831
  794MOL0     H 9511   5.428   3.712   7.090 -0.0833 -0.5790 -0.2063
  794MOL0     H 9512   5.493   3.564   7.022 -0.8479 -1.2684 -0.8777
  794MOL0     H 9513   5.459   3.834   6.887 -2.5131 -1.6850  3.1769
  794MOL0     H 9514   5.537   3.696   6.808 -0.1475  0.5738 -0.9894
  794MOL0     H 9515   5.731   3.691   6.962 -3.9625 -3.2294 -1.7291
  794MOL0     H 9516   5.723   3.840   6.875 -2.4192  2.5779 -0.4265
  794MOL0     H 9517   5.677   3.794   7.180 -2.2206  1.2982  1.0278
  794MOL0     H 9518   5.585   3.918   7.098  0.6408  0.9704 -3.6033
  794MOL0     H 9519   5.821   3.995   7.005  0.5954  0.0430  0.4314
  794MOL0     H 9520   5.787   4.014   7.176 -1.3860 -1.1499  1.6238
  794MOL0     H 9521   5.999   3.828   6.901 -2.3183 -4.2377 -1.8584
  794MOL0     H 9522   6.286   3.637   7.093  2.1818  0.4089 -1.0922
  794MOL0     H 9523   6.261   3.721   6.944  1.8299 -3.8312 -3.4375
  794MOL0     H 9524   6.088   3.541   6.885  0.3554  0.2899 -0.6430
  794MOL0     H 9525   6.268   3.503   6.870  0.2458  0.2939  0.0342
  794MOL0     H 9526   6.053   3.399   7.040 -0.9136 -2.4193 -1.1542
  794MOL0     H 9527   6.184   3.316   6.966  0.6989  0.8116 -0.1673
  794MOL0     H 9528   6.215   3.468   7.224  1.5264  0.3334  0.3510
  794MOL0     H 9529   6.179   3.303   7.214 -0.5785  1.9315  2.8716
  794MOL0     H 9530   6.311   3.330   7.422 -0.1059  2.6153  1.7450
  794MOL0     H 9531   6.377   3.369   7.665  2.8097  2.0439  2.0853
  794MOL0     H 9532   6.536   3.291   7.697  1.4950  1.4597 -2.3830
  794MOL0     H 9533   6.405   3.195   7.620 -1.3024 -0.3933 -1.9492
  794MOL0     H 9534   7.026   3.157   7.695  0.2301 -0.7607 -1.8175
  794MOL0     H 9535   7.273   3.210   7.740  1.7611  0.7256 -1.7433
  794MOL0     H 9536   7.460   3.604   7.578 -0.7666 -0.1742 -1.0691
  794MOL0     H 9537   7.365   3.641   7.725 -0.6043 -1.7465 -0.1649
  794MOL0     H 9538   7.528   3.535   7.876  2.6623 -0.8394  1.1568
  794MOL0     H 9539   7.615   3.484   7.730 -0.4698  0.1423  0.0282
  794MOL0     H 9540   7.580   3.764   7.827  0.1259 -0.1198 -1.8281
  794MOL0     H 9541   7.648   3.724   7.673 -1.2631  2.1643  0.0503
  794MOL0     H 9542   7.820   3.582   7.796  2.1406  0.2116 -0.5384
  794MOL0     H 9543   7.755   3.648   7.948 -0.1855 -1.1434 -0.4991
  794MOL0     H 9544   7.881   3.795   7.698 -1.7297 -0.8232  0.6164
  794MOL0     H 9545   7.831   3.881   7.849 -2.2656  0.5759 -0.2827
  794MOL0     H 9546   8.061   3.714   7.786  0.4781 -1.7983  0.7145
  794MOL0     H 9547   7.997   3.683   7.950  0.6629 -0.5171  0.0024
  794MOL0     H 9548   8.003   3.900   8.031 -0.7958  3.6650 -0.9658
  794MOL0     H 9549   8.057   3.971   7.888 -3.8937  2.0664  3.5080
  794MOL0     H 9550   8.235   3.957   8.009  1.4981  0.0911 -1.1278
  794MOL0     H 9551   8.269   3.831   7.888 -0.2127 -1.1109  0.5287
  794MOL0     H 9552   7.194   3.605   7.597 -1.8885  0.7170  4.0316
  794MOL0     H 9553   6.993   3.550   7.499  1.2200 -1.8075 -2.8822
  794MOL0     H 9554   6.776   3.424   7.312  0.8391 -0.1696  3.3903
  794MOL0     H 9555   6.613   3.423   7.142  0.0289  0.5929 -0.1793
  794MOL0     H 9556   4.822   3.413   7.019 -0.4033 -0.6704 -0.6972
  794MOL0     H 9557   4.591   3.446   6.967  0.4500  0.5710  2.7977
  794MOL0     H 9558   4.123   3.584   6.768 -0.5601  2.9451 -1.4266
  794MOL0     H 9559   3.911   3.676   6.862 -0.4322  2.0328  0.3861
  794MOL0     H 9560   3.716   3.781   6.958 -1.1325  1.3911  1.4252
  794MOL0     H 9561   3.746   3.621   7.024 -2.4264 -0.6754  1.8941
  794MOL0     H 9562   3.549   3.741   7.125 -0.2774 -1.3953 -0.6520
  794MOL0     H 9563   3.675   3.852   7.193 -1.3957  0.2435  0.5995
  794MOL0     H 9564   3.657   3.544   7.253  3.4087 -0.4844 -2.1656
  794MOL0     H 9565   3.773   3.656   7.315 -0.0899 -4.1774  0.9084
  794MOL0     H 9566   3.615   3.775   7.442 -0.7138 -1.3513  3.3276
  794MOL0     H 9567   3.598   3.600   7.472  4.0036  0.5812 -0.1255
  794MOL0     H 9568   3.234   3.709   7.278 -0.3416  0.8072 -0.5299
  794MOL0     H 9569   4.120   3.791   7.210  0.8509  0.8332 -1.6748
  794MOL0     H 9570   4.439   3.653   7.154  2.0082  1.4892 -1.5127
  794MOL0     H 9571   4.392   3.823   7.125  3.6417 -0.8566  0.6727
  794MOL0     H 9572   4.325   3.740   7.262 -0.9118  2.2759 -0.7842
  795MOL0     O 9573   6.868   0.744   0.973  0.0344 -0.7304 -0.5038
  795MOL0     C 9574   6.860   0.849   0.904  0.6274  0.5144  0.2739
  795MOL0     O 9575   6.972   0.921   0.857 -0.1260  0.2106 -0.0996
  795MOL0     C 9576   7.095   0.859   0.878  0.1505  0.8662  0.8937
  795MOL0     C 9577   7.160   0.789   0.782 -0.4255  0.7225 -0.4922
  795MOL0     C 9578   7.291   0.744   0.810 -0.5966 -0.4109 -0.2487
  795MOL0     C 9579   7.349   0.754   0.938 -0.2977 -0.3948 -0.1338
  795MOL0     O 9580   7.476   0.702   0.962 -0.2890 -0.5554  0.2237
  795MOL0     C 9581   7.556   0.769   1.058 -0.2950 -0.1139 -0.2903
  795MOL0     C 9582   7.692   0.710   1.063  0.1396  0.4045  0.3247
  795MOL0     C 9583   7.757   0.720   0.916  0.0570 -0.2416 -0.8170
  795MOL0     C 9584   7.734   0.595   0.831  0.3031  0.0745  0.1718
  795MOL0     C 9585   7.793   0.588   0.693 -0.1630 -0.3710  0.6972
  795MOL0     C 9586   7.749   0.701   0.588  0.0387  0.5583 -0.3171
  795MOL0     C 9587   7.798   0.661   0.450 -0.0539  0.5126  0.2173
  795MOL0     C 9588   7.697   0.566   0.379 -0.5774  1.2131  0.0827
  795MOL0     N 9589   7.562   0.620   0.341  0.1233  0.5376 -0.7869
  795MOL0     C 9590   7.526   0.672   0.220 -0.2218 -0.1663 -0.0231
  795MOL0     C 9591   7.389   0.673   0.225 -0.6541 -0.6369  0.0353
  795MOL0     C 9592   7.312   0.719   0.109 -0.0827 -0.2975  0.0201
  795MOL0     C 9593   7.216   0.609   0.052 -0.2161  0.6471  0.8707
  795MOL0     C 9594   7.282   0.481   0.012  1.2750  1.2658 -0.8162
  795MOL0     C 9595   7.356   0.478  -0.129 -0.1519  0.1587 -0.5821
  795MOL0     O 9596   7.454   0.587  -0.145  0.4097 -0.5035  0.5746
  795MOL0     C 9597   7.580   0.569  -0.098 -0.1501  0.0397  0.1188
  795MOL0     C 9598   7.628   0.457  -0.025 -0.5447  0.3312  0.4346
  795MOL0     C 9599   7.762   0.439   0.027  0.6710 -0.6030  0.5705
  795MOL0     C 9600   7.791   0.322   0.104 -0.7579  0.4175  0.5801
  795MOL0     C 9601   7.844   0.545  -0.002 -0.5980  0.3647 -0.1386
  795MOL0     C 9602   7.987   0.548   0.054  0.5381  0.2512  0.0019
  795MOL0     O 9603   8.052   0.658   0.012 -0.4452  0.6520 -0.8887
  795MOL0     C 9604   8.185   0.672   0.035 -0.1824  0.7205 -1.0256
  795MOL0     C 9605   8.237   0.780   0.100 -0.1829 -0.2876  1.0876
  795MOL0     C 9606   8.379   0.803   0.098  0.2937  0.6769 -0.8935
  795MOL0     C 9607   8.456   0.721   0.011 -0.3049  0.6133 -0.6327
  795MOL0     O 9608   8.589   0.739   0.004  0.2726 -0.3408  0.0961
  795MOL0     C 9609   8.668   0.643   0.090  0.2006  0.2803  0.7253
  795MOL0     C 9610   8.771   0.712   0.174  0.4299  0.1390 -0.4580
  795MOL0     C 9611   8.710   0.831   0.255  0.5780  0.4069 -0.3258
  795MOL0     C 9612   8.791   0.839   0.376 -0.7820 -0.1712 -0.5693
  795MOL0     C 9613   8.932   0.892   0.349 -0.3369  0.3767 -0.4815
  795MOL0     C 9614   8.998   0.925   0.485  0.2529  0.4908  0.3346
  795MOL0     C 9615   9.143   0.945   0.463 -0.8161  1.0910 -0.6945
  795MOL0     C 9616   9.228   0.939   0.602 -0.3825  0.2363  0.6322
  795MOL0    Cl 9617   9.238   0.776   0.658 -0.0006  0.0813 -0.0889
  795MOL0     C 9618   8.400   0.603  -0.039 -0.3309  0.1220  0.1778
  795MOL0     C 9619   8.271   0.578  -0.025  0.8317 -0.3194  0.2664
  795MOL0     O 9620   8.039   0.451   0.097  0.0700  0.5641  0.1094
  795MOL0     C 9621   7.796   0.647  -0.091 -0.0814  0.0601 -0.4076
  795MOL0     C 9622   7.667   0.667  -0.127  0.3385  0.1019  0.0552
  795MOL0     N 9623   7.340   0.626   0.348  0.2336 -0.3215  0.1277
  795MOL0     N 9624   7.450   0.593   0.414  0.5951  0.5301  0.2857
  795MOL0     C 9625   7.280   0.832   1.033 -0.3738  0.0235  0.5239
  795MOL0     C 9626   7.162   0.887   1.000 -0.2405 -0.2396  0.3626
  795MOL0     C 9627   6.726   0.891   0.871  0.3416 -0.1108  0.9020
  795MOL0     C 9628   6.620   0.860   0.956 -0.3219 -0.3066  1.0455
  795MOL0     C 9629   6.491   0.897   0.926  0.2298 -0.0516 -0.6849
  795MOL0     C 9630   6.468   0.969   0.811  0.9477  0.3011 -0.8488
  795MOL0     O 9631   6.349   1.038   0.776 -0.0398  0.3912 -0.2596
  795MOL0     C 9632   6.226   1.001   0.842 -1.6748  0.1918 -0.3569
  795MOL0     C 9633   6.109   1.072   0.781 -0.4643  0.3792 -0.7253
  795MOL0     C 9634   5.977   1.033   0.847  0.2230 -0.6542  0.1058
  795MOL0     C 9635   5.858   1.083   0.767  0.5474  0.1980  0.1042
  795MOL0     C 9636   5.845   1.232   0.776  0.6362  0.4595  0.0765
  795MOL0     C 9637   5.864   1.355   0.787  0.1090 -0.4153 -0.1558
  795MOL0     C 9638   6.572   1.008   0.728 -0.8624  0.2478  0.0017
  795MOL0     C 9639   6.700   0.969   0.748  0.3017 -0.4428 -1.0596
  795MOL0     C 9640   6.796   1.009   0.646 -0.7694  0.1320  0.8072
  795MOL0     H 9641   7.109   0.776   0.688 -0.8376 -0.0431 -0.1727
  795MOL0     H 9642   7.349   0.688   0.737  2.1141  1.0073  0.6980
  795MOL0     H 9643   7.511   0.759   1.158  0.2695  1.4324  0.1512
  795MOL0     H 9644   7.574   0.874   1.034  1.8088 -0.4074 -0.1415
  795MOL0     H 9645   7.749   0.750   1.147  0.5437 -3.5885  2.1784
  795MOL0     H 9646   7.676   0.606   1.092 -0.8611  0.9579  1.9066
  795MOL0     H 9647   7.724   0.810   0.863 -1.1902  0.6825  1.3991
  795MOL0     H 9648   7.864   0.723   0.938  0.2637 -5.0263 -0.2029
  795MOL0     H 9649   7.776   0.513   0.890  0.3170  2.0072  3.0362
  795MOL0     H 9650   7.626   0.579   0.820  0.5662 -2.6589  0.8650
  795MOL0     H 9651   7.760   0.495   0.645 -1.0662  0.2514  0.0888
  795MOL0     H 9652   7.902   0.600   0.700 -0.0665 -0.1723 -0.8806
  795MOL0     H 9653   7.640   0.711   0.591 -0.3531 -2.2338 -1.8260
  795MOL0     H 9654   7.799   0.792   0.624 -0.1266  1.3433 -1.9908
  795MOL0     H 9655   7.887   0.597   0.457 -1.2764 -1.3162 -0.4280
  795MOL0     H 9656   7.822   0.752   0.394  1.9953 -0.8119 -1.2055
  795MOL0     H 9657   7.757   0.538   0.292 -0.7175 -0.1064  0.3966
  795MOL0     H 9658   7.691   0.474   0.438  2.0829 -0.6929 -2.3002
  795MOL0     H 9659   7.592   0.702   0.140  0.6396  0.1057  0.7804
  795MOL0     H 9660   7.377   0.757   0.030 -1.8422 -1.5691 -2.1573
  795MOL0     H 9661   7.242   0.799   0.136  0.3485 -0.0173  0.3143
  795MOL0     H 9662   7.150   0.586   0.136  1.0897  1.7741  2.2645
  795MOL0     H 9663   7.148   0.659  -0.017  0.9739  3.3791  1.5725
  795MOL0     H 9664   7.342   0.452   0.098 -2.2520  1.8728  2.0682
  795MOL0     H 9665   7.209   0.400   0.012  5.3196 -2.8796  1.3177
  795MOL0     H 9666   7.409   0.384  -0.150 -0.5523  0.0206 -0.9963
  795MOL0     H 9667   7.278   0.494  -0.203  0.5320  2.4935 -0.8686
  795MOL0     H 9668   7.557   0.381   0.005 -2.3117  1.2989 -1.1239
  795MOL0     H 9669   7.705   0.256   0.120 -1.1996  1.4095  2.5440
  795MOL0     H 9670   7.830   0.349   0.202  0.4094  1.7358 -0.2139
  795MOL0     H 9671   7.874   0.268   0.057 -0.8168  1.8796 -1.3285
  795MOL0     H 9672   8.171   0.853   0.147 -1.3946 -1.3688  1.1227
  795MOL0     H 9673   8.432   0.876   0.159  4.8052 -2.2209 -0.8385
  795MOL0     H 9674   8.597   0.581   0.145 -0.9941 -0.3347 -1.4067
  795MOL0     H 9675   8.728   0.575   0.030  1.1972  0.8273  1.0769
  795MOL0     H 9676   8.825   0.633   0.228 -1.0749 -0.8932 -0.4132
  795MOL0     H 9677   8.857   0.753   0.120  3.4118 -3.9425  0.6745
  795MOL0     H 9678   8.607   0.806   0.283  0.8693 -0.3288  0.1018
  795MOL0     H 9679   8.711   0.926   0.200  0.7985 -0.1832 -1.3788
  795MOL0     H 9680   8.803   0.739   0.419 -0.1042 -0.7011 -1.9106
  795MOL0     H 9681   8.740   0.908   0.444  0.1149  0.7733 -0.8183
  795MOL0     H 9682   8.986   0.812   0.298  0.1990 -0.8670  1.8699
  795MOL0     H 9683   8.930   0.976   0.280  1.2007 -0.5943 -1.8003
  795MOL0     H 9684   8.993   0.832   0.542  0.9174 -0.1360 -0.6089
  795MOL0     H 9685   8.954   1.014   0.532 -1.5283  0.3040 -0.8779
  795MOL0     H 9686   9.144   1.041   0.411 -4.8122  0.7078 -1.7900
  795MOL0     H 9687   9.200   0.878   0.398  0.8703  1.0369  0.7471
  795MOL0     H 9688   9.191   1.006   0.680 -0.4475 -0.2550  1.0232
  795MOL0     H 9689   9.330   0.961   0.569 -1.4467  2.3928 -1.5845
  795MOL0     H 9690   8.467   0.529  -0.081  0.3546  1.9521 -2.2279
  795MOL0     H 9691   8.233   0.488  -0.073  0.7744 -1.5171  2.4200
  795MOL0     H 9692   7.865   0.722  -0.128  3.0637 -2.2765  0.2741
  795MOL0     H 9693   7.644   0.751  -0.192  0.2944  1.8442  2.1834
  795MOL0     H 9694   7.302   0.849   1.138 -2.7613  1.7820  0.8200
  795MOL0     H 9695   7.113   0.946   1.077 -0.6080 -0.8237  0.5875
  795MOL0     H 9696   6.633   0.816   1.055  1.7609 -1.2606  0.3961
  795MOL0     H 9697   6.408   0.891   0.996  1.0696  0.5808  0.3810
  795MOL0     H 9698   6.212   0.893   0.837  1.6491 -0.4264  0.9662
  795MOL0     H 9699   6.233   1.030   0.947 -1.2801  2.6521 -1.0036
  795MOL0     H 9700   6.115   1.040   0.677  1.1007 -1.6084 -0.0955
  795MOL0     H 9701   6.122   1.180   0.792  0.1962  0.4503 -2.1252
  795MOL0     H 9702   5.955   0.927   0.862 -0.4242 -0.6800 -0.9117
  795MOL0     H 9703   5.984   1.070   0.950 -0.2896  0.3897 -0.2175
  795MOL0     H 9704   5.768   1.043   0.816 -0.5065  0.5982 -1.4162
  795MOL0     H 9705   5.860   1.044   0.665  1.1101 -0.7107  0.4481
  795MOL0     H 9706   5.889   1.455   0.817  3.4194 -0.7531 -1.3896
  795MOL0     H 9707   6.552   1.058   0.634  3.6886 -1.5340 -2.2709
  795MOL0     H 9708   6.831   1.107   0.680  0.1539  0.5872 -1.2848
  795MOL0     H 9709   6.875   0.938   0.621  0.4124  2.3594 -2.5241
  795MOL0     H 9710   6.749   1.012   0.547 -0.2858  0.8961  0.5906
  796MOL0     O 9711  10.400  11.250   6.672 -0.5070 -0.4513 -0.3537
  796MOL0     C 9712  10.478  11.188   6.603  0.1577  0.8448 -0.1947
  796MOL0     O 9713  10.614  11.200   6.614 -0.6226 -0.1556  0.7702
  796MOL0     C 9714  10.671  11.285   6.708 -0.0689  0.0654  0.5946
  796MOL0     C 9715  10.612  11.328   6.829 -0.7531  0.4012  0.1194
  796MOL0     C 9716  10.677  11.426   6.905 -0.1650  0.2216 -0.3141
  796MOL0     C 9717  10.808  11.458   6.871  0.7758 -0.2739  0.4307
  796MOL0     O 9718  10.880  11.546   6.945  0.0992 -0.2090  0.4121
  796MOL0     C 9719  10.857  11.554   7.088  0.0559  0.6220  0.2368
  796MOL0     C 9720  10.992  11.577   7.154 -0.6823 -0.5430  1.0525
  796MOL0     C 9721  11.041  11.721   7.166  1.0385  0.5145  0.4382
  796MOL0     C 9722  11.136  11.743   7.285  0.9365 -0.4434 -0.1086
  796MOL0     C 9723  11.274  11.675   7.275 -0.6191  0.8196  0.0897
  796MOL0     C 9724  11.389  11.737   7.367 -0.1463 -0.6701 -0.2973
  796MOL0     C 9725  11.504  11.652   7.406 -0.7640  0.8906  0.6088
  796MOL0     C 9726  11.593  11.623   7.271  0.4961 -1.3378  0.2314
  796MOL0     N 9727  11.647  11.490   7.270  0.6328 -0.1443  0.7354
  796MOL0     C 9728  11.744  11.442   7.359  0.7334  0.2497 -0.3657
  796MOL0     C 9729  11.769  11.323   7.314  0.3602  1.0285 -0.0547
  796MOL0     C 9730  11.853  11.224   7.392 -0.1959  0.6711  0.0599
  796MOL0     C 9731  11.952  11.165   7.296 -1.3126  0.4343  0.0236
  796MOL0     C 9732  12.068  11.092   7.365  0.2157 -0.1581  0.4769
  796MOL0     C 9733  12.116  10.972   7.281  0.8805  0.1772 -0.0305
  796MOL0     O 9734  12.132  11.009   7.141 -0.4159  0.4528  0.3271
  796MOL0     C 9735  12.254  11.058   7.116  0.2094  0.4537  0.8290
  796MOL0     C 9736  12.275  11.099   6.983  0.1310  0.1684  1.4057
  796MOL0     C 9737  12.403  11.135   6.937  0.0442 -0.2362 -0.3351
  796MOL0     C 9738  12.404  11.188   6.795 -0.7069  0.4909  0.0680
  796MOL0     C 9739  12.513  11.142   7.036  0.2510  0.0704  1.1034
  796MOL0     C 9740  12.652  11.175   7.004  0.4373 -0.4540  0.7131
  796MOL0     O 9741  12.677  11.294   6.950 -0.6970 -0.1119 -0.2695
  796MOL0     C 9742  12.806  11.331   6.919  0.0528 -0.4612  0.5401
  796MOL0     C 9743  12.894  11.258   6.847  1.0749 -0.0026  0.3538
  796MOL0     C 9744  13.020  11.308   6.824 -0.2653  0.2544  1.1978
  796MOL0     C 9745  13.071  11.429   6.883 -0.1585  0.2220 -0.4596
  796MOL0     O 9746  13.203  11.478   6.883 -0.4393  0.5217 -0.0553
  796MOL0     C 9747  13.300  11.388   6.830 -0.6332 -0.2249 -0.1662
  796MOL0     C 9748  13.447  11.443   6.829  0.6237  0.3204 -0.4388
  796MOL0     C 9749  13.535  11.330   6.768  0.1392  0.3003 -0.0161
  796MOL0     C 9750  13.686  11.361   6.783 -0.2022  0.5414 -0.1574
  796MOL0     C 9751  13.785  11.278   6.698  0.7076 -0.1655 -1.4173
  796MOL0     C 9752  13.909  11.355   6.683 -0.1843  0.8762  0.0410
  796MOL0     C 9753  14.012  11.285   6.594 -0.8310 -1.3028 -0.4045
  796MOL0     C 9754  14.140  11.369   6.602 -0.4168 -0.7175  0.1784
  796MOL0    Cl 9755  14.275  11.333   6.489 -0.0439  0.1143 -0.1789
  796MOL0     C 9756  12.977  11.497   6.961  0.0205 -0.1071 -0.0212
  796MOL0     C 9757  12.849  11.451   6.975 -0.3603  0.5801 -0.7336
  796MOL0     O 9758  12.739  11.094   7.043 -0.2229 -0.1889  0.9222
  796MOL0     C 9759  12.485  11.110   7.167 -0.2770 -1.5010  0.8790
  796MOL0     C 9760  12.359  11.072   7.205  0.3397  0.2537 -0.4519
  796MOL0     N 9761  11.693  11.294   7.200  0.4549  0.2606 -0.5220
  796MOL0     N 9762  11.619  11.393   7.176  0.0478 -0.5134 -0.4319
  796MOL0     C 9763  10.870  11.416   6.749  0.2557 -0.4223 -0.8426
  796MOL0     C 9764  10.797  11.334   6.671 -0.3914 -0.1084  0.2249
  796MOL0     C 9765  10.431  11.088   6.502  0.4152 -0.1094 -1.0718
  796MOL0     C 9766  10.522  11.039   6.408 -0.3178 -1.1175 -0.2675
  796MOL0     C 9767  10.477  10.950   6.310 -0.2011  0.3985  0.3501
  796MOL0     C 9768  10.354  10.898   6.306  0.7344 -0.0674 -0.4264
  796MOL0     O 9769  10.321  10.800   6.212 -0.3158 -0.0470 -0.2628
  796MOL0     C 9770  10.300  10.672   6.272  0.4335  0.4301 -0.1004
  796MOL0     C 9771  10.377  10.574   6.180 -0.4790 -1.3766  1.0747
  796MOL0     C 9772  10.397  10.440   6.243 -0.0311  0.1774 -0.6930
  796MOL0     C 9773  10.467  10.340   6.146  0.1067 -0.5434  0.0482
  796MOL0     C 9774  10.608  10.383   6.122  0.0432  0.5199 -0.5038
  796MOL0     C 9775  10.718  10.414   6.116  0.3859 -0.3284 -0.1094
  796MOL0     C 9776  10.258  10.946   6.398  0.3022 -0.2263 -0.3895
  796MOL0     C 9777  10.293  11.049   6.487  0.6928 -1.0926 -0.7351
  796MOL0     C 9778  10.184  11.107   6.572 -0.2553  0.0384 -0.6336
  796MOL0     H 9779  10.515  11.291   6.861 -0.8143 -0.3443 -0.8797
  796MOL0     H 9780  10.625  11.461   6.994 -1.0429 -0.0193 -0.7147
  796MOL0     H 9781  10.819  11.461   7.132 -0.1388  0.5525 -0.0729
  796MOL0     H 9782  10.791  11.636   7.119  1.4754  1.5320  0.9542
  796MOL0     H 9783  10.992  11.531   7.254  3.0772  2.1192  2.5056
  796MOL0     H 9784  11.073  11.533   7.095 -1.3359  0.1309 -0.3864
  796MOL0     H 9785  11.089  11.744   7.071  0.4755 -2.1136 -0.5695
  796MOL0     H 9786  10.954  11.783   7.186  0.3185 -1.0920  2.7286
  796MOL0     H 9787  11.158  11.850   7.289  1.0669 -0.4974  1.2445
  796MOL0     H 9788  11.089  11.708   7.378 -0.6755 -0.9468 -1.0741
  796MOL0     H 9789  11.304  11.692   7.171 -4.6994 -3.0439 -2.0815
  796MOL0     H 9790  11.256  11.567   7.275 -2.0113  0.9516 -2.7900
  796MOL0     H 9791  11.430  11.832   7.331  1.9416 -2.0509 -1.8519
  796MOL0     H 9792  11.348  11.776   7.460  0.9347 -0.4637  0.1059
  796MOL0     H 9793  11.466  11.553   7.433  1.2770 -0.6698 -1.8126
  796MOL0     H 9794  11.557  11.705   7.485 -0.0383  0.9442  0.0997
  796MOL0     H 9795  11.551  11.642   7.172  2.3838 -0.7778 -0.4866
  796MOL0     H 9796  11.671  11.697   7.289 -0.6067 -0.3308  1.0391
  796MOL0     H 9797  11.793  11.494   7.441  0.4160 -0.4557  0.2812
  796MOL0     H 9798  11.794  11.137   7.422  0.8652 -0.5009 -1.1681
  796MOL0     H 9799  11.885  11.282   7.479 -0.6230  1.3285 -0.2147
  796MOL0     H 9800  11.895  11.097   7.231 -0.1747  0.8500 -1.4768
  796MOL0     H 9801  11.982  11.247   7.230 -1.3008  1.0726  0.8197
  796MOL0     H 9802  12.153  11.159   7.381  0.6166 -0.9107  1.5567
  796MOL0     H 9803  12.042  11.067   7.468 -2.2255  2.4710  0.6153
  796MOL0     H 9804  12.206  10.925   7.322  0.3627 -1.3042 -0.5201
  796MOL0     H 9805  12.042  10.894   7.297  0.0939  1.4813  3.6379
  796MOL0     H 9806  12.191  11.098   6.914  3.6506 -0.3134 -3.3352
  796MOL0     H 9807  12.315  11.242   6.761  0.0585  0.7134 -1.6822
  796MOL0     H 9808  12.423  11.102   6.730 -0.3641 -0.0140  0.8246
  796MOL0     H 9809  12.492  11.250   6.780 -0.4417  0.1876  0.3429
  796MOL0     H 9810  12.856  11.173   6.790  1.2837  0.1246  0.0195
  796MOL0     H 9811  13.086  11.250   6.759  0.4869  2.6737 -0.3451
  796MOL0     H 9812  13.306  11.293   6.883  3.0183 -1.8492 -3.0347
  796MOL0     H 9813  13.284  11.369   6.723  1.7692 -1.5569 -0.3617
  796MOL0     H 9814  13.458  11.528   6.761  2.3931  0.3053 -0.2154
  796MOL0     H 9815  13.481  11.477   6.927  0.5366  0.8091 -0.5694
  796MOL0     H 9816  13.519  11.329   6.660  0.6482  0.7471 -0.1029
  796MOL0     H 9817  13.510  11.228   6.798  0.6842 -0.1919 -1.1650
  796MOL0     H 9818  13.705  11.346   6.890  1.0020  0.3996 -0.3761
  796MOL0     H 9819  13.707  11.466   6.759 -1.0620  0.8761  0.5180
  796MOL0     H 9820  13.808  11.185   6.751  1.6544  0.7639 -0.1440
  796MOL0     H 9821  13.740  11.250   6.602  2.1470 -0.4140 -2.0434
  796MOL0     H 9822  13.960  11.376   6.778  2.2582  0.0180 -0.9901
  796MOL0     H 9823  13.893  11.448   6.628 -1.4230  0.3684 -0.4917
  796MOL0     H 9824  13.974  11.290   6.492  0.9018  0.4429 -1.0319
  796MOL0     H 9825  14.034  11.180   6.616  1.0099 -1.3431 -2.1693
  796MOL0     H 9826  14.180  11.369   6.704 -0.2779  2.8233  0.2421
  796MOL0     H 9827  14.104  11.471   6.585 -0.0797 -0.8172 -1.2048
  796MOL0     H 9828  13.004  11.582   7.023  0.4859 -0.7655  0.6883
  796MOL0     H 9829  12.776  11.503   7.036  0.7591 -0.1720  1.3623
  796MOL0     H 9830  12.565  11.104   7.240 -0.5015 -1.6583  1.1161
  796MOL0     H 9831  12.360  11.050   7.311  0.2633  0.2607 -0.4494
  796MOL0     H 9832  10.961  11.466   6.717  0.6463 -1.0862 -0.7859
  796MOL0     H 9833  10.850  11.311   6.580  0.4012  1.0799  0.3712
  796MOL0     H 9834  10.626  11.070   6.404 -0.3795 -0.8178  0.3473
  796MOL0     H 9835  10.553  10.917   6.240  1.0080 -0.3875  1.9682
  796MOL0     H 9836  10.338  10.664   6.375  2.0042  1.2696 -0.5764
  796MOL0     H 9837  10.193  10.651   6.269  0.1937  1.7491 -1.8046
  796MOL0     H 9838  10.476  10.617   6.162 -0.1891 -1.8510  1.4910
  796MOL0     H 9839  10.334  10.553   6.082 -0.9356 -0.5225  1.0880
  796MOL0     H 9840  10.454  10.458   6.334 -1.8867  1.7332  0.2323
  796MOL0     H 9841  10.303  10.394   6.274  1.9095 -3.5539  0.2492
  796MOL0     H 9842  10.401  10.339   6.058 -0.9887 -0.3464  0.8437
  796MOL0     H 9843  10.477  10.239   6.186  2.7698 -1.0461 -1.6253
  796MOL0     H 9844  10.814  10.461   6.125 -0.3079  1.3769 -1.0584
  796MOL0     H 9845  10.155  10.915   6.388 -0.0105  1.0754 -1.6035
  796MOL0     H 9846  10.208  11.081   6.676  0.2292 -1.0282 -0.9956
  796MOL0     H 9847  10.172  11.216   6.573 -3.3575 -0.1354  2.5073
  796MOL0     H 9848  10.088  11.066   6.538 -0.9044 -0.6983  1.9007
  797MOL0     O 9849   2.455   5.539   0.873 -0.1336  0.5442 -0.0306
  797MOL0     C 9850   2.488   5.651   0.827  0.2537  0.0979 -0.0459
  797MOL0     O 9851   2.401   5.742   0.782 -0.1290  0.0252 -0.2194
  797MOL0     C 9852   2.270   5.706   0.761 -0.0661  0.0734  0.5819
  797MOL0     C 9853   2.188   5.658   0.866 -0.0537 -0.9115  0.2443
  797MOL0     C 9854   2.056   5.639   0.846  0.0456  0.7357 -0.5185
  797MOL0     C 9855   1.997   5.665   0.723  0.4932  0.0726 -0.6127
  797MOL0     O 9856   1.866   5.647   0.730  0.4017 -0.0828  0.9173
  797MOL0     C 9857   1.788   5.736   0.653  0.5231 -0.0367 -0.1505
  797MOL0     C 9858   1.642   5.698   0.669  0.4357  0.3998 -0.4815
  797MOL0     C 9859   1.554   5.804   0.609  0.1504 -0.1030  0.2297
  797MOL0     C 9860   1.432   5.760   0.536  0.4366 -0.5044 -0.1202
  797MOL0     C 9861   1.369   5.872   0.457  0.3070 -1.0319 -0.0614
  797MOL0     C 9862   1.300   5.983   0.545 -0.4301  1.2188 -0.6940
  797MOL0     C 9863   1.176   6.044   0.468 -0.2006 -0.4087  0.3299
  797MOL0     C 9864   1.127   6.163   0.552  0.5951  0.2723 -0.1741
  797MOL0     N 9865   1.235   6.256   0.584  1.4882  0.6743 -0.0119
  797MOL0     C 9866   1.316   6.325   0.496  0.0938 -0.5156 -0.4136
  797MOL0     C 9867   1.394   6.398   0.578  0.4418 -0.7821 -0.1056
  797MOL0     C 9868   1.515   6.478   0.540 -0.2507  0.0567  0.4209
  797MOL0     C 9869   1.625   6.396   0.463 -0.8823 -0.0508 -0.2413
  797MOL0     C 9870   1.660   6.254   0.510  0.4722 -0.1894 -0.1795
  797MOL0     C 9871   1.799   6.207   0.522  0.4014 -0.4016 -0.5120
  797MOL0     O 9872   1.845   6.195   0.390 -0.7697  0.2634 -0.1016
  797MOL0     C 9873   1.987   6.185   0.379  0.2910 -0.3634 -0.0212
  797MOL0     C 9874   2.050   6.201   0.253 -0.1088 -0.7939 -0.1933
  797MOL0     C 9875   2.190   6.180   0.228 -0.6306 -0.6429 -0.8443
  797MOL0     C 9876   2.235   6.194   0.091 -0.4923  0.6182  0.1575
  797MOL0     C 9877   2.266   6.128   0.342  0.2148 -0.1549  0.1015
  797MOL0     C 9878   2.410   6.084   0.325 -0.6498  0.1095 -0.2838
  797MOL0     O 9879   2.479   5.999   0.409 -0.0047  0.3891 -0.1573
  797MOL0     C 9880   2.621   6.005   0.424  0.2487 -0.2166  0.7428
  797MOL0     C 9881   2.684   6.129   0.459 -0.0100  1.7160  0.0981
  797MOL0     C 9882   2.818   6.126   0.480  0.0206 -1.0296  0.2753
  797MOL0     C 9883   2.894   6.011   0.466  0.5357 -0.5764 -0.4629
  797MOL0     O 9884   3.031   6.006   0.495  0.2842  0.2890 -0.2982
  797MOL0     C 9885   3.108   6.110   0.435 -0.4082  0.3730  0.4240
  797MOL0     C 9886   3.251   6.077   0.473  0.3240  1.5100 -0.3439
  797MOL0     C 9887   3.353   6.169   0.420 -0.0635 -0.7292 -0.8483
  797MOL0     C 9888   3.500   6.122   0.425 -0.4880 -0.5531  0.0447
  797MOL0     C 9889   3.600   6.206   0.342 -0.0933  0.7065 -0.7960
  797MOL0     C 9890   3.741   6.151   0.357 -0.1932  0.1532  0.9263
  797MOL0     C 9891   3.836   6.238   0.272 -0.1965  0.2117  0.2930
  797MOL0     C 9892   3.915   6.146   0.175 -0.3635  0.6350  0.2980
  797MOL0    Cl 9893   3.999   6.011   0.264 -0.1837 -0.1983 -0.4636
  797MOL0     C 9894   2.828   5.888   0.443 -0.4682 -0.2455 -0.1857
  797MOL0     C 9895   2.693   5.880   0.426  0.2903 -0.0563  0.0539
  797MOL0     O 9896   2.460   6.138   0.228  0.1796 -0.0510 -0.3095
  797MOL0     C 9897   2.207   6.112   0.471 -0.3633  0.4017  0.8749
  797MOL0     C 9898   2.072   6.147   0.487 -0.1507 -0.3644  0.3631
  797MOL0     N 9899   1.358   6.383   0.712  0.3833 -0.6022  0.5689
  797MOL0     N 9900   1.267   6.289   0.711 -0.5117 -0.6674  0.1103
  797MOL0     C 9901   2.069   5.729   0.620  0.4674  0.2657 -0.0185
  797MOL0     C 9902   2.212   5.738   0.632 -0.2133  0.3061 -0.3169
  797MOL0     C 9903   2.629   5.683   0.827 -0.8572 -0.2858 -0.7066
  797MOL0     C 9904   2.717   5.578   0.868 -0.1221 -0.0103 -0.2659
  797MOL0     C 9905   2.859   5.597   0.881 -0.7202  0.1647  0.2155
  797MOL0     C 9906   2.905   5.725   0.833  0.3390 -0.2497 -0.2411
  797MOL0     O 9907   3.044   5.742   0.830 -0.8218  0.6396  1.1471
  797MOL0     C 9908   3.119   5.837   0.746  0.1291  0.0539  0.6735
  797MOL0     C 9909   3.262   5.874   0.802 -0.3149  0.0563  0.2749
  797MOL0     C 9910   3.340   5.754   0.861 -0.3826  0.2623  0.2901
  797MOL0     C 9911   3.482   5.788   0.904 -0.8998 -0.5373 -0.0240
  797MOL0     C 9912   3.578   5.682   0.943  0.7438  0.4433 -0.7318
  797MOL0     C 9913   3.653   5.597   0.981  0.5287  0.3751  0.6372
  797MOL0     C 9914   2.811   5.829   0.803 -0.4678 -0.8593  0.6384
  797MOL0     C 9915   2.676   5.813   0.805  0.7852  0.4166 -0.7565
  797MOL0     C 9916   2.592   5.932   0.762 -0.3065  0.7172  0.3067
  797MOL0     H 9917   2.223   5.657   0.968  1.9905  1.5839 -0.3023
  797MOL0     H 9918   2.004   5.593   0.929  1.4201 -1.1948 -0.6651
  797MOL0     H 9919   1.815   5.729   0.547 -2.1752  2.2131 -1.1370
  797MOL0     H 9920   1.816   5.838   0.681  2.7659 -0.2289 -1.4822
  797MOL0     H 9921   1.618   5.601   0.623 -0.4230  0.2728  0.1862
  797MOL0     H 9922   1.622   5.693   0.777  0.7966 -1.3791 -0.4660
  797MOL0     H 9923   1.533   5.875   0.690  1.4873 -0.7173  1.1643
  797MOL0     H 9924   1.613   5.855   0.533  1.6700  0.6371  1.8373
  797MOL0     H 9925   1.470   5.678   0.474  0.7956 -0.8382  0.5203
  797MOL0     H 9926   1.364   5.708   0.605  3.4510 -1.4131  2.4728
  797MOL0     H 9927   1.294   5.831   0.388 -1.1084 -2.6437  2.2894
  797MOL0     H 9928   1.449   5.924   0.404 -0.8476 -0.4578 -1.3177
  797MOL0     H 9929   1.263   5.933   0.635  2.9340  0.4495  0.4273
  797MOL0     H 9930   1.376   6.054   0.578  0.7007 -0.5527  0.7604
  797MOL0     H 9931   1.099   5.969   0.448 -0.0401  0.0230 -2.2938
  797MOL0     H 9932   1.202   6.091   0.372  2.1131  1.4519  1.7475
  797MOL0     H 9933   1.037   6.201   0.504 -1.7385 -0.8524  2.9586
  797MOL0     H 9934   1.083   6.127   0.646 -0.2112  1.0645 -0.2297
  797MOL0     H 9935   1.317   6.308   0.389 -2.9541  0.9353 -0.7835
  797MOL0     H 9936   1.554   6.520   0.633  1.4413  1.3533 -0.8028
  797MOL0     H 9937   1.485   6.561   0.475 -1.0963 -2.1120 -2.1708
  797MOL0     H 9938   1.607   6.398   0.355 -0.4605  0.2821 -0.3041
  797MOL0     H 9939   1.714   6.457   0.477  0.8508 -2.4698 -0.0527
  797MOL0     H 9940   1.622   6.254   0.613  1.0524  2.9528  0.1119
  797MOL0     H 9941   1.603   6.183   0.449 -2.2066  0.2661  1.6046
  797MOL0     H 9942   1.848   6.292   0.570 -0.0966 -0.7264  0.6058
  797MOL0     H 9943   1.811   6.116   0.581  0.4922  0.6493  1.1462
  797MOL0     H 9944   1.977   6.230   0.177  1.6021 -1.0695 -2.0352
  797MOL0     H 9945   2.306   6.277   0.090  1.7752 -1.1134  2.7202
  797MOL0     H 9946   2.150   6.216   0.026 -0.8769 -3.4339 -0.9808
  797MOL0     H 9947   2.277   6.100   0.054  2.3397  0.7658  2.6247
  797MOL0     H 9948   2.640   6.227   0.473 -1.0292  1.3588 -0.5077
  797MOL0     H 9949   2.868   6.216   0.516  2.9090 -1.7437 -1.5933
  797MOL0     H 9950   3.106   6.112   0.325 -1.8577 -1.1595  0.3927
  797MOL0     H 9951   3.091   6.207   0.483 -1.2267  0.1745  0.5558
  797MOL0     H 9952   3.261   6.075   0.582 -0.9627  2.5258 -0.1955
  797MOL0     H 9953   3.280   5.980   0.430 -2.6025  1.3549 -2.2760
  797MOL0     H 9954   3.349   6.266   0.470 -0.8783 -2.2245  2.2683
  797MOL0     H 9955   3.317   6.185   0.317  0.5833  0.6611 -0.8780
  797MOL0     H 9956   3.500   6.022   0.382  0.1726 -0.3826 -0.3818
  797MOL0     H 9957   3.541   6.113   0.526 -2.7993  1.9599  1.3126
  797MOL0     H 9958   3.559   6.212   0.241 -0.8136 -0.0030 -0.5568
  797MOL0     H 9959   3.601   6.309   0.378  1.7252  0.5309 -0.2249
  797MOL0     H 9960   3.742   6.044   0.334 -0.1881  0.3546 -0.0394
  797MOL0     H 9961   3.770   6.163   0.462 -0.9156 -2.4002  1.4999
  797MOL0     H 9962   3.905   6.289   0.340 -0.0233 -1.9137  1.8208
  797MOL0     H 9963   3.780   6.312   0.214  2.2241  0.5120 -1.8290
  797MOL0     H 9964   3.981   6.200   0.106 -1.0228  0.1126 -0.7759
  797MOL0     H 9965   3.847   6.092   0.109  1.7434 -1.0681 -0.5831
  797MOL0     H 9966   2.883   5.795   0.432 -0.6183 -0.2428 -1.0320
  797MOL0     H 9967   2.653   5.780   0.412  2.0319 -0.9040  0.8759
  797MOL0     H 9968   2.254   6.064   0.556 -0.3668 -1.3209 -0.0405
  797MOL0     H 9969   2.027   6.127   0.584  1.3882  0.2824  1.2446
  797MOL0     H 9970   2.016   5.759   0.530 -2.2056 -1.3520  0.8984
  797MOL0     H 9971   2.276   5.781   0.557  2.8057  2.0018  2.9202
  797MOL0     H 9972   2.684   5.475   0.875  0.3042 -0.5591 -4.1300
  797MOL0     H 9973   2.930   5.525   0.919  2.5569  2.8053 -0.3825
  797MOL0     H 9974   3.123   5.788   0.648 -1.2185 -2.3177  1.7047
  797MOL0     H 9975   3.065   5.930   0.726  0.5473  0.2504  0.4503
  797MOL0     H 9976   3.244   5.948   0.881 -0.3760  0.5753 -0.2237
  797MOL0     H 9977   3.324   5.907   0.719 -0.5633 -0.9526 -0.3337
  797MOL0     H 9978   3.287   5.710   0.945  1.8736 -1.4580  0.8966
  797MOL0     H 9979   3.349   5.684   0.777 -0.1506 -0.0183  0.5500
  797MOL0     H 9980   3.473   5.843   0.998  0.2069  0.3394 -0.4038
  797MOL0     H 9981   3.533   5.849   0.828 -0.3056 -0.6215  0.2982
  797MOL0     H 9982   3.717   5.520   1.019  2.1225  1.0056 -0.6633
  797MOL0     H 9983   2.847   5.927   0.773 -1.1096  0.0155  2.5586
  797MOL0     H 9984   2.548   5.906   0.666  3.3126 -1.3678 -0.9929
  797MOL0     H 9985   2.509   5.945   0.832 -0.1462 -0.1677  0.6813
  797MOL0     H 9986   2.650   6.024   0.752 -2.4850  2.1174 -0.0967
  798MOL0     O 9987   0.575   6.017   2.712 -0.7227  0.6175  0.7629
  798MOL0     C 9988   0.452   6.023   2.682 -0.1097 -0.0907 -0.0675
  798MOL0     O 9989   0.353   6.100   2.748  0.8304 -0.6160  0.4739
  798MOL0     C 9990   0.386   6.115   2.885 -0.3365 -0.5573  1.1438
  798MOL0     C 9991   0.293   6.072   2.983  0.2150  0.3615  0.4279
  798MOL0     C 9992   0.320   6.091   3.116  0.4094  0.3120 -0.3804
  798MOL0     C 9993   0.417   6.172   3.166 -0.2566 -0.0154  0.1831
  798MOL0     O 9994   0.428   6.205   3.302 -0.2318  0.3858  0.1192
  798MOL0     C 9995   0.531   6.124   3.367  0.0851  0.1007 -0.5600
  798MOL0     C 9996   0.551   6.165   3.519  0.0332  0.5219  0.5334
  798MOL0     C 9997   0.569   6.318   3.541  0.1740 -0.3842 -1.3402
  798MOL0     C 9998   0.595   6.345   3.694  0.8975 -0.2666 -0.4744
  798MOL0     C 9999   0.636   6.491   3.725 -0.0370 -0.7965  0.5250
  798MOL0     C10000   0.660   6.512   3.870  0.6204 -0.6850 -0.3764
  798MOL0     C10001   0.685   6.661   3.904  0.5116  0.5256 -0.5620
  798MOL0     C10002   0.775   6.685   4.032 -0.8061 -0.1334  0.9807
  798MOL0     N10003   0.719   6.634   4.159  0.0961 -0.7643  0.0985
  798MOL0     C10004   0.598   6.675   4.224 -0.4819 -0.6131 -0.0912
  798MOL0     C10005   0.550   6.569   4.289 -1.0841 -0.1420  0.0055
  798MOL0     C10006   0.432   6.552   4.382  0.4051  0.0939 -0.6235
  798MOL0     C10007   0.309   6.599   4.308  0.3135  0.1893 -0.5946
  798MOL0     C10008   0.226   6.717   4.359 -0.3614 -0.1491  0.1896
  798MOL0     C10009   0.285   6.854   4.335 -0.7053  0.2906  0.3443
  798MOL0     O10010   0.324   6.859   4.193  0.2046 -0.1405 -0.0109
  798MOL0     C10011   0.387   6.971   4.159 -0.4884  0.4948 -0.0992
  798MOL0     C10012   0.384   7.004   4.018 -0.1614 -0.7724 -0.7268
  798MOL0     C10013   0.449   7.116   3.978 -0.4185 -0.5252  0.2237
  798MOL0     C10014   0.464   7.127   3.827 -0.3168 -0.0262  0.2441
  798MOL0     C10015   0.515   7.206   4.071  0.5538  0.0830 -0.1759
  798MOL0     C10016   0.596   7.330   4.029  0.2841  1.1171 -0.0582
  798MOL0     O10017   0.646   7.403   4.128  0.1770 -0.1431  0.0435
  798MOL0     C10018   0.702   7.523   4.099  0.1407 -0.3064  0.7203
  798MOL0     C10019   0.822   7.558   4.159 -0.1712 -0.4267  0.7854
  798MOL0     C10020   0.888   7.679   4.125 -0.5132 -0.3856 -0.1880
  798MOL0     C10021   0.825   7.769   4.037  0.0010 -0.5734  0.3206
  798MOL0     O10022   0.870   7.899   4.017  0.2885 -0.0363 -0.0245
  798MOL0     C10023   0.997   7.942   4.066  0.6192 -0.5231  0.4930
  798MOL0     C10024   0.987   8.006   4.210  0.4919  0.2452  0.7849
  798MOL0     C10025   1.121   8.061   4.236 -0.5391 -0.1429 -0.5709
  798MOL0     C10026   1.131   8.110   4.381  0.4681 -0.0424  0.1016
  798MOL0     C10027   1.248   8.211   4.408  1.0789  1.2467 -0.1049
  798MOL0     C10028   1.210   8.354   4.351  0.2605 -0.4407 -0.3018
  798MOL0     C10029   1.284   8.472   4.415  0.0874  0.5778  0.4600
  798MOL0     C10030   1.249   8.608   4.355  1.1566 -0.3037 -0.2999
  798MOL0    Cl10031   1.347   8.636   4.213  0.0408  0.0478 -0.0732
  798MOL0     C10032   0.704   7.744   3.983 -0.3702 -0.0512  0.7743
  798MOL0     C10033   0.638   7.620   4.019 -0.7367 -0.6689  0.4864
  798MOL0     O10034   0.628   7.344   3.908 -0.4148 -0.8014 -0.3073
  798MOL0     C10035   0.512   7.177   4.211 -0.1919  0.6849 -0.5786
  798MOL0     C10036   0.447   7.061   4.250 -0.0137 -0.1799 -0.0641
  798MOL0     N10037   0.649   6.466   4.263 -0.1390 -0.7031 -0.5406
  798MOL0     N10038   0.740   6.507   4.194 -0.6926 -0.5998  0.2474
  798MOL0     C10039   0.497   6.232   3.067  0.1929  0.6836  1.1343
  798MOL0     C10040   0.487   6.200   2.929  0.6458 -0.2464  0.6860
  798MOL0     C10041   0.407   5.964   2.552 -0.6738  0.5463 -0.8016
  798MOL0     C10042   0.502   5.915   2.453 -0.7474  0.3972  0.4479
  798MOL0     C10043   0.463   5.879   2.332  1.0861 -0.2799 -0.4049
  798MOL0     C10044   0.332   5.866   2.290  0.0372  1.3830  0.8805
  798MOL0     O10045   0.318   5.830   2.162  0.4086 -0.1680  0.2400
  798MOL0     C10046   0.185   5.788   2.119  0.9022  0.6306  0.0354
  798MOL0     C10047   0.169   5.787   1.974 -0.0220  0.1145 -0.2467
  798MOL0     C10048   0.195   5.919   1.902 -0.5379  0.3879 -0.5388
  798MOL0     C10049   0.206   5.898   1.757  0.1259  0.5366 -0.9408
  798MOL0     C10050   0.217   6.019   1.679  0.1164 -0.2283  1.4830
  798MOL0     C10051   0.228   6.102   1.593  0.1599 -0.5654  0.3622
  798MOL0     C10052   0.236   5.892   2.382 -0.1419  1.4938 -0.5024
  798MOL0     C10053   0.271   5.933   2.516  0.3618  0.6724 -0.6726
  798MOL0     C10054   0.153   5.963   2.609 -0.8051 -0.0814 -0.0839
  798MOL0     H10055   0.202   6.022   2.951  1.0614 -1.0193  0.0812
  798MOL0     H10056   0.243   6.047   3.179 -0.0283 -0.9209 -1.7045
  798MOL0     H10057   0.630   6.131   3.321 -0.3958 -0.0204 -1.6628
  798MOL0     H10058   0.512   6.016   3.369 -2.5600  0.5127  1.5783
  798MOL0     H10059   0.471   6.128   3.584 -0.9078 -0.9909 -1.4122
  798MOL0     H10060   0.640   6.112   3.554  0.8026 -0.1422 -2.2428
  798MOL0     H10061   0.656   6.352   3.483  2.2414 -0.5907  1.4341
  798MOL0     H10062   0.479   6.369   3.506  0.3803  0.0968 -1.1793
  798MOL0     H10063   0.503   6.334   3.752  1.5571  0.5936  0.7646
  798MOL0     H10064   0.665   6.272   3.735  0.0250 -0.8386  0.0234
  798MOL0     H10065   0.546   6.546   3.695 -0.8778 -1.4949  1.6970
  798MOL0     H10066   0.718   6.517   3.659 -1.6564  0.5229 -1.0698
  798MOL0     H10067   0.569   6.476   3.918 -1.2724  1.4409 -2.2082
  798MOL0     H10068   0.739   6.443   3.901 -0.0236 -0.7316  1.2406
  798MOL0     H10069   0.589   6.714   3.910  0.4605  0.4653 -0.8227
  798MOL0     H10070   0.732   6.713   3.820  2.6845 -1.6376 -0.7715
  798MOL0     H10071   0.872   6.636   4.019 -0.0038  1.6224  0.0075
  798MOL0     H10072   0.795   6.792   4.034 -1.1163 -0.0004 -1.1099
  798MOL0     H10073   0.542   6.768   4.223 -1.3896 -1.1048  1.4082
  798MOL0     H10074   0.443   6.609   4.475  0.6181 -2.3700  0.9396
  798MOL0     H10075   0.429   6.450   4.419  1.0424  1.1680  2.7547
  798MOL0     H10076   0.326   6.627   4.203 -1.4699  0.1659 -0.9288
  798MOL0     H10077   0.250   6.507   4.300  3.2704 -1.8726 -0.0383
  798MOL0     H10078   0.129   6.708   4.309 -0.8344 -3.3343  1.5088
  798MOL0     H10079   0.200   6.693   4.462 -0.8577  1.3281  0.4320
  798MOL0     H10080   0.217   6.934   4.367 -0.6844 -0.3720  2.1829
  798MOL0     H10081   0.371   6.867   4.401 -1.5534  1.5874  1.2481
  798MOL0     H10082   0.328   6.934   3.956  0.0845 -0.7100 -1.0190
  798MOL0     H10083   0.444   7.229   3.793  0.9773 -0.0391 -0.6331
  798MOL0     H10084   0.388   7.069   3.773  0.3289 -0.7977  0.1515
  798MOL0     H10085   0.570   7.108   3.812 -0.0180  0.7255  1.3090
  798MOL0     H10086   0.870   7.483   4.220  1.5747  1.2957  1.6092
  798MOL0     H10087   0.984   7.708   4.167 -1.1976  1.6830  0.0558
  798MOL0     H10088   1.072   7.863   4.060 -0.0983 -1.1685 -0.1652
  798MOL0     H10089   1.035   8.027   4.007  2.3623 -0.3591  1.7603
  798MOL0     H10090   0.915   8.088   4.200  0.8880  0.5624  0.4701
  798MOL0     H10091   0.949   7.930   4.278 -3.7551  0.6435 -0.7981
  798MOL0     H10092   1.142   8.147   4.171 -0.6279  0.6726  0.4589
  798MOL0     H10093   1.202   7.991   4.213 -0.2851 -0.0139 -0.0707
  798MOL0     H10094   1.145   8.019   4.441 -1.3542 -1.9652 -2.1849
  798MOL0     H10095   1.039   8.159   4.416 -0.1203 -0.8128 -0.3391
  798MOL0     H10096   1.261   8.219   4.517  1.2734 -2.6510  0.3174
  798MOL0     H10097   1.343   8.165   4.377  0.4511 -0.7799  0.8018
  798MOL0     H10098   1.103   8.374   4.357  0.1913 -1.1472  1.6444
  798MOL0     H10099   1.234   8.359   4.245  0.0642  1.5881 -0.2727
  798MOL0     H10100   1.391   8.454   4.427 -0.0615 -0.9927 -0.3916
  798MOL0     H10101   1.247   8.476   4.518 -2.4602 -0.3044 -0.3471
  798MOL0     H10102   1.273   8.687   4.427 -0.3162  1.0084 -1.1930
  798MOL0     H10103   1.144   8.615   4.327  1.7916  1.9969 -2.3987
  798MOL0     H10104   0.670   7.812   3.905  0.0919  0.7227  1.2288
  798MOL0     H10105   0.539   7.597   3.980 -0.5414 -1.5918  0.5006
  798MOL0     H10106   0.562   7.236   4.287 -1.2822  0.6600  0.1800
  798MOL0     H10107   0.445   7.048   4.358 -0.1656 -3.9001 -0.3959
  798MOL0     H10108   0.569   6.304   3.105  0.2741  0.8452  0.6731
  798MOL0     H10109   0.551   6.265   2.870  1.2332  0.0896  1.6621
  798MOL0     H10110   0.608   5.913   2.472  0.0989  1.6897 -3.2919
  798MOL0     H10111   0.543   5.855   2.262 -0.4749  0.0783 -2.3877
  798MOL0     H10112   0.167   5.688   2.158  2.8219 -1.0166 -2.9047
  798MOL0     H10113   0.110   5.856   2.162  1.2963 -0.6311  2.9523
  798MOL0     H10114   0.068   5.752   1.951  0.6190 -1.6686 -0.5216
  798MOL0     H10115   0.246   5.720   1.935 -0.2043 -1.2849  1.6610
  798MOL0     H10116   0.122   5.994   1.933  1.1824  1.5472  0.9349
  798MOL0     H10117   0.286   5.963   1.943 -2.1005  3.1152  0.1941
  798MOL0     H10118   0.131   5.831   1.714 -0.1428  0.4061 -0.2679
  798MOL0     H10119   0.298   5.842   1.737 -0.9025 -1.7161  0.2644
  798MOL0     H10120   0.244   6.172   1.513 -0.8669  0.0644  0.7004
  798MOL0     H10121   0.131   5.884   2.357 -0.9284 -0.3003  2.7441
  798MOL0     H10122   0.056   5.939   2.566 -0.4444  1.2178 -1.7333
  798MOL0     H10123   0.159   5.907   2.703 -1.2417 -2.6974 -1.5504
  798MOL0     H10124   0.160   6.067   2.643  2.2939 -1.0111  2.5466
  799MOL0     O10125   1.842   0.301   4.825  1.2524 -0.6303 -0.3881
  799MOL0     C10126   1.785   0.247   4.922  0.9249 -0.1232  1.0046
  799MOL0     O10127   1.855   0.186   5.022  0.2526  0.9356 -0.2078
  799MOL0     C10128   1.988   0.200   5.021 -0.0115 -0.4768 -0.4406
  799MOL0     C10129   2.051   0.321   5.061  0.0319  0.0387 -0.0906
  799MOL0     C10130   2.193   0.334   5.040 -0.8042 -0.2513 -0.6508
  799MOL0     C10131   2.278   0.223   5.008 -0.3062 -0.9814  0.5534
  799MOL0     O10132   2.415   0.248   4.998  0.5104  0.3839 -0.0138
  799MOL0     C10133   2.497   0.141   4.951  0.2315  0.4767  0.7167
  799MOL0     C10134   2.646   0.177   4.978  0.1615 -0.2537 -0.7492
  799MOL0     C10135   2.740   0.064   4.988  0.1105  0.5022 -1.2808
  799MOL0     C10136   2.880   0.109   5.031 -0.5591 -0.0170  0.3913
  799MOL0     C10137   2.967   0.126   4.897  0.4777 -0.6882 -1.4979
  799MOL0     C10138   3.115   0.150   4.928  0.5190  0.1530 -0.3548
  799MOL0     C10139   3.199   0.143   4.804  0.3895  0.5853 -0.6418
  799MOL0     C10140   3.355   0.174   4.813  0.8589 -0.2838  0.2170
  799MOL0     N10141   3.427   0.066   4.895 -0.3931 -0.7570 -0.2326
  799MOL0     C10142   3.531   0.083   4.988  1.0892 -0.9099 -0.1351
  799MOL0     C10143   3.567  -0.042   5.023 -0.0285  0.9648 -0.3903
  799MOL0     C10144   3.659  -0.073   5.137 -0.2998 -0.1042  0.0824
  799MOL0     C10145   3.805  -0.061   5.083  0.2939  0.0009 -0.4179
  799MOL0     C10146   3.855  -0.181   5.010 -0.4858  0.5379  0.0507
  799MOL0     C10147   3.995  -0.159   4.962  0.3296  0.3793 -0.0851
  799MOL0     O10148   4.049  -0.262   4.885  0.2314 -0.2344  0.3540
  799MOL0     C10149   4.165  -0.229   4.817 -0.1732  0.6037 -0.7561
  799MOL0     C10150   4.248  -0.121   4.836  0.0489  0.9647  0.1672
  799MOL0     C10151   4.377  -0.113   4.770 -0.4518 -0.0013 -0.2475
  799MOL0     C10152   4.449   0.002   4.807  0.1799 -0.2666  0.2300
  799MOL0     C10153   4.401  -0.199   4.663 -0.3281  0.3074  0.8952
  799MOL0     C10154   4.525  -0.205   4.581 -0.3309  0.3812  0.1379
  799MOL0     O10155   4.526  -0.273   4.465  1.0108  0.6999  0.9005
  799MOL0     C10156   4.639  -0.257   4.393 -0.4616  0.4188 -0.4599
  799MOL0     C10157   4.767  -0.280   4.444 -0.1693 -0.3809  0.4908
  799MOL0     C10158   4.879  -0.248   4.357  0.0106 -0.3263  0.7217
  799MOL0     C10159   4.866  -0.199   4.226  0.5781  0.3850 -0.0725
  799MOL0     O10160   4.967  -0.147   4.155 -0.2526 -0.3445  1.2631
  799MOL0     C10161   4.955  -0.098   4.015  0.0373  0.9666 -0.1534
  799MOL0     C10162   5.097  -0.091   3.955 -0.1556 -0.2447  0.2816
  799MOL0     C10163   5.175  -0.217   3.987 -0.2910  0.4753 -0.5902
  799MOL0     C10164   5.312  -0.240   3.908 -0.4266  0.3843  0.4121
  799MOL0     C10165   5.436  -0.164   3.957  0.1932 -0.0593 -0.0428
  799MOL0     C10166   5.564  -0.186   3.878 -0.4776 -0.0997 -0.1962
  799MOL0     C10167   5.694  -0.132   3.928  0.2265  0.8607  0.4133
  799MOL0     C10168   5.811  -0.148   3.828 -0.7663  0.5222 -0.0987
  799MOL0    Cl10169   5.837  -0.326   3.770 -0.3264 -0.3823 -0.2481
  799MOL0     C10170   4.736  -0.189   4.177  0.6697 -0.2604 -0.5635
  799MOL0     C10171   4.631  -0.220   4.267  0.1158  0.0159  0.5938
  799MOL0     O10172   4.623  -0.148   4.631 -0.1876  0.0664  0.1737
  799MOL0     C10173   4.310  -0.300   4.632 -0.2781 -0.3947 -1.0506
  799MOL0     C10174   4.208  -0.313   4.717  0.9791 -0.6074 -0.2920
  799MOL0     N10175   3.506  -0.133   4.941  0.0619  0.3866  0.1796
  799MOL0     N10176   3.420  -0.066   4.866  0.9255  0.4587  0.6313
  799MOL0     C10177   2.212   0.100   4.991 -0.8417 -0.3254  0.7331
  799MOL0     C10178   2.070   0.093   4.993 -0.0001  0.6350  0.2850
  799MOL0     C10179   1.633   0.237   4.933 -0.2866  0.1040  0.3593
  799MOL0     C10180   1.585   0.183   5.050  0.8236 -0.0381  0.6760
  799MOL0     C10181   1.449   0.180   5.083  0.6591  0.6148  0.7377
  799MOL0     C10182   1.356   0.216   4.980 -0.3111  0.3262 -0.0331
  799MOL0     O10183   1.224   0.202   5.018 -0.1576 -0.6906  1.1760
  799MOL0     C10184   1.129   0.231   4.915  0.4608  0.1062 -0.0853
  799MOL0     C10185   0.989   0.226   4.984  0.0327  0.1646  0.0530
  799MOL0     C10186   0.954   0.096   5.054  0.2310  0.1735  0.3502
  799MOL0     C10187   0.815   0.084   5.128 -0.3700  0.7694 -1.0826
  799MOL0     C10188   0.697   0.122   5.055 -0.2419 -0.7219 -0.8842
  799MOL0     C10189   0.608   0.164   4.980 -0.7092  0.2740  0.0336
  799MOL0     C10190   1.399   0.263   4.849  0.5701  0.0175  0.1178
  799MOL0     C10191   1.541   0.270   4.832  1.1259  0.2186  0.3833
  799MOL0     C10192   1.588   0.324   4.697 -0.4904 -0.1852  0.3863
  799MOL0     H10193   1.986   0.403   5.088 -0.6754 -0.6570  0.3582
  799MOL0     H10194   2.238   0.432   5.052 -1.3006  0.4255 -3.4798
  799MOL0     H10195   2.482   0.134   4.843 -2.3038  1.9077  0.8914
  799MOL0     H10196   2.481   0.045   5.001  4.5056 -0.4643  0.6240
  799MOL0     H10197   2.685   0.237   4.896 -0.6998  1.2582 -0.0930
  799MOL0     H10198   2.653   0.241   5.067 -0.8808  2.1496 -2.2983
  799MOL0     H10199   2.706  -0.008   5.062 -0.4017  1.6246 -0.3921
  799MOL0     H10200   2.743   0.015   4.891 -0.1638 -3.2900  0.4565
  799MOL0     H10201   2.883   0.205   5.084  1.6652 -0.9290  2.0447
  799MOL0     H10202   2.930   0.039   5.099  0.9213  1.5762  1.0098
  799MOL0     H10203   2.923   0.207   4.838  0.4633  0.2872 -0.1889
  799MOL0     H10204   2.958   0.034   4.838 -0.3199 -0.2506 -2.0832
  799MOL0     H10205   3.125   0.250   4.971  1.7629  0.6066 -1.6167
  799MOL0     H10206   3.149   0.077   5.001  0.6820  0.6541  0.0770
  799MOL0     H10207   3.159   0.212   4.729  0.1949 -1.1423 -2.2101
  799MOL0     H10208   3.185   0.042   4.765  0.5290  0.9811 -1.7720
  799MOL0     H10209   3.390   0.161   4.710  0.3669 -2.0577  0.2418
  799MOL0     H10210   3.365   0.279   4.843  0.5042 -0.7884  2.1964
  799MOL0     H10211   3.548   0.182   5.030 -2.3067 -0.7700  1.2206
  799MOL0     H10212   3.630  -0.170   5.179 -1.7749  0.1795 -0.2005
  799MOL0     H10213   3.635   0.003   5.212 -0.7845 -0.6054  0.4500
  799MOL0     H10214   3.813   0.023   5.013 -0.9584  0.5016  0.0150
  799MOL0     H10215   3.864  -0.032   5.171  0.3934  3.1322 -1.4080
  799MOL0     H10216   3.850  -0.267   5.077 -1.3666 -0.4307 -1.2320
  799MOL0     H10217   3.792  -0.200   4.923 -2.0003 -0.1927  1.2780
  799MOL0     H10218   3.999  -0.067   4.901  1.3172 -0.5759 -1.5383
  799MOL0     H10219   4.066  -0.148   5.044  1.9900 -4.5318 -0.5675
  799MOL0     H10220   4.228  -0.045   4.911 -1.5631 -1.2498  2.1360
  799MOL0     H10221   4.557  -0.012   4.797  1.1228  2.8176  3.7583
  799MOL0     H10222   4.434   0.025   4.913  0.8385  0.1792  0.2379
  799MOL0     H10223   4.419   0.087   4.744 -3.1450 -0.2625  1.6267
  799MOL0     H10224   4.786  -0.307   4.547  1.8414  0.8395  0.4998
  799MOL0     H10225   4.981  -0.273   4.383  1.5314  0.4598 -3.6548
  799MOL0     H10226   4.892  -0.173   3.965  0.3491  0.5248  0.1135
  799MOL0     H10227   4.904  -0.002   4.006  1.4037  1.7479  0.3065
  799MOL0     H10228   5.102  -0.075   3.847  0.8484 -0.5055  0.2778
  799MOL0     H10229   5.134  -0.005   4.011 -1.0267  0.2131  0.1773
  799MOL0     H10230   5.110  -0.297   3.951 -0.6185  1.2872 -1.8827
  799MOL0     H10231   5.204  -0.242   4.090  2.7862 -1.8986 -1.8804
  799MOL0     H10232   5.295  -0.203   3.806  2.0969 -0.6891 -0.4866
  799MOL0     H10233   5.329  -0.348   3.909 -0.6428  0.3413  2.5635
  799MOL0     H10234   5.410  -0.058   3.953 -0.3431 -0.1743  0.3231
  799MOL0     H10235   5.453  -0.188   4.062  2.2251 -0.2143 -0.3674
  799MOL0     H10236   5.552  -0.161   3.772  2.5567  0.6101 -0.4774
  799MOL0     H10237   5.574  -0.295   3.878 -1.0015 -0.2231 -2.7418
  799MOL0     H10238   5.719  -0.173   4.026 -0.7141  0.3021  0.4260
  799MOL0     H10239   5.683  -0.023   3.925 -2.6746  0.6370 -0.5061
  799MOL0     H10240   5.905  -0.115   3.873 -1.2611  1.8014  0.0472
  799MOL0     H10241   5.797  -0.093   3.735  1.8762  0.0864 -0.8288
  799MOL0     H10242   4.720  -0.161   4.073  0.6075  0.0361 -0.4758
  799MOL0     H10243   4.528  -0.222   4.233  0.3820  2.4890 -0.5401
  799MOL0     H10244   4.312  -0.377   4.555 -0.2096  0.5596 -2.0159
  799MOL0     H10245   4.128  -0.386   4.707 -0.9124  1.5705 -2.4364
  799MOL0     H10246   2.273   0.016   4.960  1.3532  1.0551  1.0176
  799MOL0     H10247   2.025  -0.002   4.964  2.0247  0.2559 -1.9030
  799MOL0     H10248   1.651   0.135   5.122  0.6583 -1.3160  0.0105
  799MOL0     H10249   1.423   0.158   5.186  1.8048 -0.5109  0.8239
  799MOL0     H10250   1.152   0.334   4.887  1.6692  0.4629  1.9995
  799MOL0     H10251   1.141   0.173   4.823 -0.1867  1.2508 -0.9157
  799MOL0     H10252   0.917   0.259   4.908  1.3456  2.1796 -0.3963
  799MOL0     H10253   0.979   0.304   5.060  0.2369  1.0089 -0.7691
  799MOL0     H10254   0.961   0.015   4.980 -0.3937 -1.4176  1.9572
  799MOL0     H10255   1.031   0.057   5.121  2.1226  0.8802 -1.3298
  799MOL0     H10256   0.830   0.132   5.225  0.2862  0.0687 -0.8223
  799MOL0     H10257   0.807  -0.025   5.130 -0.5300  0.7039 -3.1776
  799MOL0     H10258   0.534   0.214   4.920  0.4252  3.1531  0.8213
  799MOL0     H10259   1.322   0.291   4.777  0.2617 -1.0889 -0.0077
  799MOL0     H10260   1.604   0.433   4.703  0.0095 -0.3247  3.5962
  799MOL0     H10261   1.670   0.270   4.650  0.5445 -1.0332  2.9777
  799MOL0     H10262   1.499   0.311   4.634 -0.8001 -0.2910  0.8399
  800MOL0     O10263   6.745   9.228   8.219  0.4713 -0.4555 -0.3151
  800MOL0     C10264   6.672   9.283   8.301 -0.4887  0.4067  0.3540
  800MOL0     O10265   6.713   9.399   8.370  0.2127  0.3224  0.0072
  800MOL0     C10266   6.843   9.431   8.365  0.9205  0.6017  0.3074
  800MOL0     C10267   6.923   9.429   8.472  0.0624 -0.3927  0.2621
  800MOL0     C10268   7.052   9.482   8.469 -0.0104 -0.3688 -0.1165
  800MOL0     C10269   7.095   9.543   8.344  0.2207  0.0898 -0.8864
  800MOL0     O10270   7.213   9.606   8.353  0.0672  0.2959  0.0763
  800MOL0     C10271   7.247   9.702   8.253  0.0660  0.0826 -0.1548
  800MOL0     C10272   7.391   9.750   8.280 -0.2717 -0.2318 -0.2183
  800MOL0     C10273   7.439   9.876   8.212 -0.4256 -0.4700  0.2371
  800MOL0     C10274   7.586   9.911   8.247  1.1091  0.0089 -0.0952
  800MOL0     C10275   7.687   9.824   8.181 -0.3574  0.0373 -0.3937
  800MOL0     C10276   7.813   9.900   8.138 -0.6463 -0.3198  0.7016
  800MOL0     C10277   7.880   9.975   8.256  0.0081  0.1157 -0.1974
  800MOL0     C10278   7.976  10.079   8.198 -0.8248  0.2418 -0.0708
  800MOL0     N10279   8.070  10.017   8.105 -0.3067  0.7089  1.1743
  800MOL0     C10280   8.141   9.907   8.121  0.1828  0.1200  0.3040
  800MOL0     C10281   8.183   9.870   7.996  0.2586  0.2578 -0.9577
  800MOL0     C10282   8.288   9.766   7.974 -0.8499  0.5869 -0.4677
  800MOL0     C10283   8.299   9.646   8.067 -0.3300 -0.4290 -0.1183
  800MOL0     C10284   8.427   9.565   8.026 -0.2334 -0.7640 -0.1888
  800MOL0     C10285   8.561   9.632   8.066  0.1573  0.3685  0.2387
  800MOL0     O10286   8.643   9.563   7.978 -0.1925 -0.0540  0.5200
  800MOL0     C10287   8.773   9.593   7.973  0.2963 -0.1328 -0.7676
  800MOL0     C10288   8.845   9.556   7.864 -0.7265  0.4480 -0.5916
  800MOL0     C10289   8.990   9.575   7.850  0.4011  0.4398  0.3786
  800MOL0     C10290   9.050   9.546   7.712 -0.0540 -0.4586  0.2586
  800MOL0     C10291   9.068   9.610   7.965  0.2227 -0.3885  0.1177
  800MOL0     C10292   9.216   9.603   7.975  0.4128 -0.1275 -0.0322
  800MOL0     O10293   9.269   9.598   8.102 -0.6298  0.3345  0.2841
  800MOL0     C10294   9.400   9.595   8.108 -0.6914 -1.0543  0.1922
  800MOL0     C10295   9.455   9.468   8.116  0.3268  0.7860 -0.6187
  800MOL0     C10296   9.595   9.457   8.124  0.2008  0.3884  0.2728
  800MOL0     C10297   9.682   9.569   8.114  0.6700  0.1905 -0.0138
  800MOL0     O10298   9.817   9.572   8.095  0.6913 -0.0572  0.3146
  800MOL0     C10299   9.881   9.445   8.067  0.8082 -0.9467  0.1491
  800MOL0     C10300  10.023   9.469   8.020  0.6773 -0.2971 -0.0336
  800MOL0     C10301  10.044   9.563   7.901 -0.1621  0.1550  0.2126
  800MOL0     C10302  10.192   9.569   7.862 -0.8898 -1.2363  0.8770
  800MOL0     C10303  10.215   9.651   7.739 -0.7122 -0.4949  0.7929
  800MOL0     C10304  10.368   9.677   7.719 -0.4479  0.1030 -0.5551
  800MOL0     C10305  10.404   9.753   7.593  0.1339  0.5467 -0.7188
  800MOL0     C10306  10.540   9.817   7.617 -0.3607 -0.1312  0.0933
  800MOL0    Cl10307  10.676   9.696   7.618 -0.3199 -0.3404 -0.2241
  800MOL0     C10308   9.618   9.692   8.108  0.3636  0.1946 -0.0398
  800MOL0     C10309   9.477   9.709   8.100  0.3257  0.4062  0.1767
  800MOL0     O10310   9.282   9.623   7.872 -0.3759 -0.5804 -0.4344
  800MOL0     C10311   8.992   9.633   8.084  0.6736 -0.3049  0.2112
  800MOL0     C10312   8.845   9.635   8.085 -0.4434  0.0704 -0.2083
  800MOL0     N10313   8.142   9.965   7.896 -0.1989 -0.0222 -0.8902
  800MOL0     N10314   8.081  10.047   7.975 -0.5739  0.1708  1.1981
  800MOL0     C10315   7.017   9.542   8.228  0.5263 -0.2598  0.2097
  800MOL0     C10316   6.884   9.486   8.238  0.5285  0.5844 -0.8413
  800MOL0     C10317   6.537   9.220   8.332 -0.7927 -0.7251  0.0229
  800MOL0     C10318   6.463   9.280   8.436  0.2456  0.0966 -0.2690
  800MOL0     C10319   6.331   9.247   8.459  0.2664 -0.1396 -0.2597
  800MOL0     C10320   6.266   9.149   8.381  0.5414 -0.2633 -0.5953
  800MOL0     O10321   6.138   9.125   8.405  0.2856  0.4577 -0.5731
  800MOL0     C10322   6.109   8.984   8.416 -0.5746 -0.6678 -0.0688
  800MOL0     C10323   5.980   8.942   8.487  0.4480 -0.1869  0.9312
  800MOL0     C10324   5.945   8.791   8.473 -0.3768  0.0896  0.0324
  800MOL0     C10325   5.945   8.737   8.324 -0.4108  0.9233 -0.5676
  800MOL0     C10326   5.849   8.804   8.233  0.3936 -0.9742 -0.0250
  800MOL0     C10327   5.771   8.851   8.160  0.4700 -0.3823  0.4998
  800MOL0     C10328   6.349   9.084   8.295  0.0315  0.5282 -0.0112
  800MOL0     C10329   6.482   9.122   8.263  0.2804 -0.0596  0.4954
  800MOL0     C10330   6.545   9.048   8.144 -0.2941 -0.3865  0.3678
  800MOL0     H10331   6.880   9.409   8.569  0.9559  0.6782  0.8878
  800MOL0     H10332   7.118   9.488   8.555  1.6774 -0.6557 -1.3283
  800MOL0     H10333   7.179   9.788   8.261  1.8925  1.5254  0.5151
  800MOL0     H10334   7.249   9.666   8.150 -0.2033  0.0967 -0.1657
  800MOL0     H10335   7.394   9.761   8.388 -0.0478  0.8456 -0.3206
  800MOL0     H10336   7.461   9.675   8.244  0.9441  0.6530  0.2586
  800MOL0     H10337   7.431   9.862   8.104  0.2146  1.3217 -0.0755
  800MOL0     H10338   7.373   9.955   8.248 -1.7067  0.1897 -3.2219
  800MOL0     H10339   7.611  10.010   8.210 -0.0989  0.3754  0.0296
  800MOL0     H10340   7.596   9.916   8.356 -2.8978  0.7870  0.3778
  800MOL0     H10341   7.647   9.779   8.090  1.4203  1.6884 -2.0548
  800MOL0     H10342   7.717   9.740   8.245  1.0548  0.1458 -0.8792
  800MOL0     H10343   7.878   9.834   8.080 -1.0538  1.7222 -2.3518
  800MOL0     H10344   7.786   9.978   8.066  0.5580 -1.4071 -1.0114
  800MOL0     H10345   7.937   9.900   8.312 -0.5283 -0.2860 -0.1859
  800MOL0     H10346   7.805  10.031   8.311  1.3043  2.6414 -0.8634
  800MOL0     H10347   7.921  10.158   8.147 -1.8828  1.2135  2.4502
  800MOL0     H10348   8.033  10.133   8.274  1.1050 -0.4119 -0.9615
  800MOL0     H10349   8.167   9.859   8.215  0.2792  0.0195  0.2260
  800MOL0     H10350   8.382   9.822   7.970 -1.2345  1.1771 -1.9937
  800MOL0     H10351   8.276   9.717   7.877 -0.8103  0.8018 -0.5831
  800MOL0     H10352   8.309   9.684   8.169 -0.6218  3.0653 -1.2539
  800MOL0     H10353   8.207   9.589   8.054  1.0654 -2.5912 -1.0316
  800MOL0     H10354   8.429   9.467   8.074 -0.3573 -1.0381 -0.7280
  800MOL0     H10355   8.424   9.542   7.919 -0.5483 -2.3720  0.1422
  800MOL0     H10356   8.559   9.741   8.055  1.5880  0.2732 -1.3201
  800MOL0     H10357   8.581   9.616   8.173 -0.1105 -1.3871  0.0461
  800MOL0     H10358   8.785   9.507   7.788  1.7604 -2.1484 -1.0327
  800MOL0     H10359   9.125   9.467   7.726  2.3938  1.8831  1.1558
  800MOL0     H10360   9.103   9.631   7.668 -1.1670 -1.1142 -2.5791
  800MOL0     H10361   8.972   9.514   7.642  1.3892 -0.2159 -1.5420
  800MOL0     H10362   9.394   9.382   8.140 -0.4052  2.2169  3.4963
  800MOL0     H10363   9.641   9.359   8.121  2.0314  0.9756  4.0884
  800MOL0     H10364   9.880   9.386   8.159 -1.5646  0.1228  0.8907
  800MOL0     H10365   9.827   9.390   7.989  0.0524  2.2115 -1.7486
  800MOL0     H10366  10.084   9.510   8.101  1.6877 -1.9247  0.0677
  800MOL0     H10367  10.069   9.371   8.005  1.4168 -0.4435  2.7114
  800MOL0     H10368  10.008   9.661   7.932 -0.3363 -0.0045  0.5264
  800MOL0     H10369   9.982   9.525   7.819 -2.0123 -1.8521  2.3766
  800MOL0     H10370  10.227   9.466   7.846 -0.4939 -0.7240 -2.1926
  800MOL0     H10371  10.252   9.609   7.944 -3.0715  2.0271  1.0398
  800MOL0     H10372  10.174   9.582   7.664  0.9429 -1.5072  0.7639
  800MOL0     H10373  10.153   9.741   7.744  3.4898  2.8484 -0.9331
  800MOL0     H10374  10.419   9.581   7.731 -0.6690 -0.0731 -1.0198
  800MOL0     H10375  10.394   9.733   7.809 -1.1736 -2.9936  1.7678
  800MOL0     H10376  10.321   9.823   7.584  0.8934  1.3543 -1.6898
  800MOL0     H10377  10.411   9.684   7.509 -0.6348 -0.4288 -0.0030
  800MOL0     H10378  10.536   9.867   7.714 -1.5253  2.4098 -1.1448
  800MOL0     H10379  10.568   9.891   7.541  2.9431 -1.7892 -0.4653
  800MOL0     H10380   9.678   9.782   8.111  1.2546 -0.4161  0.9066
  800MOL0     H10381   9.435   9.809   8.091  0.6606  0.4483 -1.2059
  800MOL0     H10382   9.036   9.656   8.180  0.3748  2.6402 -0.2768
  800MOL0     H10383   8.793   9.653   8.179 -0.8319  0.0471 -0.4146
  800MOL0     H10384   7.055   9.584   8.136 -1.5141  0.1899 -0.4958
  800MOL0     H10385   6.815   9.483   8.155  0.2169 -4.0542 -0.6732
  800MOL0     H10386   6.510   9.348   8.506 -0.6481 -1.1009  1.5815
  800MOL0     H10387   6.273   9.302   8.533  0.2878 -2.0841  1.2838
  800MOL0     H10388   6.110   8.954   8.311 -0.6043  1.0652 -0.5931
  800MOL0     H10389   6.194   8.939   8.467  0.5842  2.0233  0.5314
  800MOL0     H10390   5.892   8.989   8.443  0.0399 -2.4076 -0.8384
  800MOL0     H10391   5.985   8.962   8.595  1.0771  0.1431  0.8402
  800MOL0     H10392   6.026   8.739   8.525  0.5901  0.5971 -0.9303
  800MOL0     H10393   5.849   8.767   8.520 -1.0592 -0.5240 -1.6021
  800MOL0     H10394   5.929   8.629   8.318  0.4000  0.8650 -4.9897
  800MOL0     H10395   6.044   8.750   8.280  0.3846 -1.6592  0.2929
  800MOL0     H10396   5.707   8.904   8.092  3.1218  2.5199  0.0245
  800MOL0     H10397   6.301   9.005   8.237  0.0358  0.6483 -0.1814
  800MOL0     H10398   6.475   8.975   8.102 -0.1421 -0.6111  0.5067
  800MOL0     H10399   6.566   9.110   8.056 -2.4533  0.4248  0.3791
  800MOL0     H10400   6.635   8.992   8.172 -1.3969 -1.8961  1.0048
  801MOL0     O10401   2.248  10.172  11.422 -0.1708  0.3683 -0.9175
  801MOL0     C10402   2.216  10.182  11.300 -0.6104 -0.3205 -0.5055
  801MOL0     O10403   2.294  10.132  11.195 -0.3709 -0.1048  0.1881
  801MOL0     C10404   2.389  10.033  11.222 -0.2012 -0.2971  0.3395
  801MOL0     C10405   2.521  10.067  11.198  0.3697 -0.7367  0.1997
  801MOL0     C10406   2.617   9.971  11.221 -0.8512 -0.1637  0.0722
  801MOL0     C10407   2.592   9.843  11.262  0.3611  0.1656 -0.4457
  801MOL0     O10408   2.703   9.760  11.287 -0.4327 -0.3877  0.0451
  801MOL0     C10409   2.690   9.631  11.352 -0.1696  1.0234  0.2416
  801MOL0     C10410   2.828   9.589  11.382  0.1907  0.1234 -0.3205
  801MOL0     C10411   2.920   9.554  11.270  0.2413 -0.3025 -0.0189
  801MOL0     C10412   3.032   9.466  11.337 -1.4381 -0.5441  0.4592
  801MOL0     C10413   3.141   9.447  11.223 -0.2304  0.9545 -0.7434
  801MOL0     C10414   3.256   9.341  11.256 -0.0391  0.6812 -0.1645
  801MOL0     C10415   3.331   9.291  11.127 -0.1134  0.0620  0.1125
  801MOL0     C10416   3.431   9.175  11.141 -0.1162 -0.0489  0.2409
  801MOL0     N10417   3.556   9.224  11.189 -0.1992  0.4222 -0.1221
  801MOL0     C10418   3.659   9.277  11.114  0.1558 -0.4720  0.3475
  801MOL0     C10419   3.756   9.302  11.207  0.0593 -0.1680  0.2219
  801MOL0     C10420   3.884   9.361  11.165 -0.6747  0.3728 -0.1436
  801MOL0     C10421   3.995   9.259  11.191  0.3801 -0.3538 -0.1833
  801MOL0     C10422   4.124   9.304  11.126  0.0007  0.4513  0.1012
  801MOL0     C10423   4.242   9.226  11.173  0.3873 -0.2430 -0.3606
  801MOL0     O10424   4.286   9.272  11.305 -0.1939  0.2665  0.3322
  801MOL0     C10425   4.415   9.282  11.336 -0.5764 -1.0474  0.4961
  801MOL0     C10426   4.495   9.170  11.351 -0.4859  1.2085 -0.2845
  801MOL0     C10427   4.634   9.184  11.367  0.1406  0.2643  0.7874
  801MOL0     C10428   4.713   9.069  11.399  0.2191  0.1600  0.1114
  801MOL0     C10429   4.693   9.314  11.348 -0.0546  0.0240 -0.3080
  801MOL0     C10430   4.836   9.345  11.353 -1.5011 -0.1328  0.6967
  801MOL0     O10431   4.881   9.462  11.413  0.0128 -0.3658 -0.1611
  801MOL0     C10432   5.018   9.473  11.429 -0.9408  0.5378 -0.3585
  801MOL0     C10433   5.096   9.586  11.392 -0.0298  0.0368 -0.4289
  801MOL0     C10434   5.227   9.605  11.426  0.5545 -0.0658 -0.2416
  801MOL0     C10435   5.284   9.507  11.510  0.3384 -0.5698  0.8273
  801MOL0     O10436   5.413   9.537  11.555  0.8408 -0.0914  0.2530
  801MOL0     C10437   5.500   9.421  11.607  0.6307 -0.7047 -0.0765
  801MOL0     C10438   5.630   9.431  11.530 -0.5241  0.0363 -0.2487
  801MOL0     C10439   5.702   9.295  11.541  0.2279 -0.1968 -0.4373
  801MOL0     C10440   5.814   9.271  11.437 -0.2220 -0.0264 -0.0296
  801MOL0     C10441   5.853   9.126  11.428 -0.3364 -0.1294  0.3248
  801MOL0     C10442   5.961   9.099  11.321  0.1443  0.6593  0.3035
  801MOL0     C10443   5.999   8.947  11.313  0.1575 -0.1394  0.3827
  801MOL0     C10444   5.888   8.847  11.317 -0.4282  0.3619  0.1630
  801MOL0    Cl10445   5.951   8.682  11.270  0.1670  0.0505 -0.4031
  801MOL0     C10446   5.210   9.398  11.556 -1.0793  0.1497 -0.2910
  801MOL0     C10447   5.081   9.379  11.514 -0.4970  0.2361 -0.3915
  801MOL0     O10448   4.909   9.265  11.292  0.3680 -0.4282  0.3775
  801MOL0     C10449   4.612   9.427  11.352 -0.7593  0.3099  0.4259
  801MOL0     C10450   4.472   9.411  11.335  0.6582  0.4066  0.8682
  801MOL0     N10451   3.711   9.274  11.329  0.8281  0.1400 -0.7756
  801MOL0     N10452   3.592   9.229  11.329 -0.0428  0.0597  0.2866
  801MOL0     C10453   2.454   9.807  11.278  0.0011  0.6250  0.8513
  801MOL0     C10454   2.355   9.906  11.268 -0.0241  0.0930 -0.4030
  801MOL0     C10455   2.103  10.275  11.274 -0.7097 -0.1555 -0.0068
  801MOL0     C10456   2.108  10.365  11.171  0.2186 -0.6661  0.6434
  801MOL0     C10457   2.003  10.452  11.140  0.9449  1.4129  0.5315
  801MOL0     C10458   1.892  10.458  11.221  0.2034  0.1208 -0.8843
  801MOL0     O10459   1.805  10.558  11.201 -0.3379 -0.5935 -0.1141
  801MOL0     C10460   1.731  10.610  11.312 -0.3432 -0.3692 -0.6300
  801MOL0     C10461   1.662  10.740  11.277  0.1938  0.2841  0.7850
  801MOL0     C10462   1.554  10.696  11.167  0.1064  0.4375 -0.4712
  801MOL0     C10463   1.475  10.815  11.128 -0.6063 -0.3391  0.7507
  801MOL0     C10464   1.366  10.775  11.039 -0.0230  0.2672  0.1480
  801MOL0     C10465   1.287  10.741  10.962 -0.1232 -0.2900 -0.0515
  801MOL0     C10466   1.887  10.374  11.335 -0.5767 -0.0705 -0.6927
  801MOL0     C10467   1.979  10.275  11.353 -0.8335 -0.2037 -0.0987
  801MOL0     C10468   1.949  10.183  11.468  0.1563 -0.0268 -0.1346
  801MOL0     H10469   2.553  10.160  11.153  1.5962  0.1427  2.7035
  801MOL0     H10470   2.718  10.002  11.196 -0.9738  0.0651 -0.1480
  801MOL0     H10471   2.634   9.557  11.294  0.1215 -1.6481  3.0410
  801MOL0     H10472   2.629   9.659  11.438 -1.9610  1.8422 -1.2286
  801MOL0     H10473   2.865   9.672  11.443 -0.1897  0.7526 -0.9317
  801MOL0     H10474   2.800   9.504  11.444 -2.4526  2.4514  1.9840
  801MOL0     H10475   2.866   9.492  11.198 -3.3892  3.5892 -1.0702
  801MOL0     H10476   2.949   9.631  11.197  0.1947  0.6301  0.9224
  801MOL0     H10477   3.078   9.522  11.419 -0.9958 -1.6296  0.9717
  801MOL0     H10478   3.000   9.372  11.383  0.6052 -0.3080  2.5152
  801MOL0     H10479   3.184   9.547  11.208 -0.1186  1.0369  0.0950
  801MOL0     H10480   3.083   9.413  11.137 -0.6671  0.7474 -0.3744
  801MOL0     H10481   3.331   9.381  11.325  0.0194 -2.3476  1.6895
  801MOL0     H10482   3.212   9.248  11.292  0.7604  0.5665  0.5436
  801MOL0     H10483   3.384   9.383  11.099  0.4190 -0.4038 -0.4133
  801MOL0     H10484   3.252   9.261  11.057 -0.5217  0.9055  0.1919
  801MOL0     H10485   3.379   9.095  11.195  0.0636 -1.1756 -1.2081
  801MOL0     H10486   3.453   9.138  11.041  0.3098  0.2616  0.2187
  801MOL0     H10487   3.656   9.316  11.013 -2.3877 -1.0649  0.1442
  801MOL0     H10488   3.897   9.457  11.216  0.1331  1.5645 -2.4780
  801MOL0     H10489   3.891   9.372  11.057 -0.9907  2.6005  0.0263
  801MOL0     H10490   4.003   9.264  11.300  0.5666 -0.4044 -0.1932
  801MOL0     H10491   3.957   9.160  11.163 -1.5273  0.3969 -0.3576
  801MOL0     H10492   4.113   9.291  11.018  2.9012  1.3867 -0.3818
  801MOL0     H10493   4.134   9.412  11.141  0.1901  0.8456 -2.5108
  801MOL0     H10494   4.226   9.118  11.171 -0.6028 -0.1237  0.3275
  801MOL0     H10495   4.327   9.227  11.103  1.9796 -0.9954  1.4562
  801MOL0     H10496   4.441   9.076  11.348  1.3918  0.0686 -0.5816
  801MOL0     H10497   4.804   9.095  11.453  1.0237  0.0133 -1.1437
  801MOL0     H10498   4.733   9.002  11.315 -0.7351 -2.1829  1.6450
  801MOL0     H10499   4.661   9.008  11.474 -1.5342 -1.2635 -2.1145
  801MOL0     H10500   5.046   9.660  11.330 -1.4397 -0.0396  0.5598
  801MOL0     H10501   5.277   9.699  11.406 -3.4452  2.7961  1.7902
  801MOL0     H10502   5.522   9.429  11.714 -0.6465 -0.1175  0.1658
  801MOL0     H10503   5.457   9.322  11.585  2.0744 -1.7534  1.5480
  801MOL0     H10504   5.605   9.442  11.424 -0.3313 -1.2948 -0.4389
  801MOL0     H10505   5.702   9.503  11.571  0.5207 -2.2683  2.2772
  801MOL0     H10506   5.625   9.218  11.538 -1.2482  1.2438 -2.1162
  801MOL0     H10507   5.753   9.289  11.637 -0.3343 -4.0535 -0.2369
  801MOL0     H10508   5.902   9.334  11.450  0.9084 -1.1706 -1.7948
  801MOL0     H10509   5.761   9.299  11.345 -0.3455 -2.1649 -0.6670
  801MOL0     H10510   5.878   9.083  11.525  4.0479  0.4724 -0.3347
  801MOL0     H10511   5.763   9.071  11.399 -0.3077 -1.1214  2.0309
  801MOL0     H10512   6.047   9.158  11.354  0.3346  1.3369 -1.3392
  801MOL0     H10513   5.927   9.147  11.229 -1.6017  0.8028  0.9835
  801MOL0     H10514   6.069   8.928  11.395 -0.8338  2.5846  1.9823
  801MOL0     H10515   6.045   8.941  11.214 -2.0139  0.4044 -0.7046
  801MOL0     H10516   5.812   8.861  11.240  0.2699 -2.3833 -1.1722
  801MOL0     H10517   5.830   8.841  11.410 -0.1996 -1.2534  0.2270
  801MOL0     H10518   5.256   9.330  11.626 -1.3189 -1.2311 -1.4313
  801MOL0     H10519   5.017   9.307  11.565 -2.4703  1.3324 -1.1921
  801MOL0     H10520   4.646   9.527  11.327 -1.9195  0.2699 -1.5390
  801MOL0     H10521   4.403   9.490  11.308 -0.1578 -0.6046 -0.1587
  801MOL0     H10522   2.426   9.709  11.317  0.2110 -0.2190 -0.9887
  801MOL0     H10523   2.254   9.883  11.301 -0.4722  2.8071  0.3466
  801MOL0     H10524   2.191  10.373  11.101  0.6991  0.2646  1.3103
  801MOL0     H10525   2.012  10.528  11.064 -1.3051  0.7522 -0.4642
  801MOL0     H10526   1.657  10.537  11.347  1.4656 -1.2014  1.7529
  801MOL0     H10527   1.786  10.617  11.407 -0.8407  0.5959 -0.4037
  801MOL0     H10528   1.724  10.822  11.240 -2.1205  1.6477 -0.2422
  801MOL0     H10529   1.613  10.765  11.371  0.7690 -0.2959  1.2560
  801MOL0     H10530   1.611  10.659  11.081 -0.4534 -3.0714  0.5035
  801MOL0     H10531   1.486  10.619  11.204  0.1579 -0.3058 -1.8376
  801MOL0     H10532   1.537  10.895  11.087 -2.8154  0.7612 -0.6724
  801MOL0     H10533   1.430  10.864  11.216 -0.0566  1.0589  0.2739
  801MOL0     H10534   1.209  10.692  10.906 -0.3802 -0.6863  0.6495
  801MOL0     H10535   1.808  10.369  11.409 -1.8658 -3.0313 -2.0837
  801MOL0     H10536   2.000  10.088  11.446 -1.0541 -0.7210 -0.0013
  801MOL0     H10537   1.994  10.227  11.557 -2.5110  1.6927  0.4675
  801MOL0     H10538   1.842  10.165  11.480  0.3371 -2.3759 -1.3317
  802MOL0     O10539   0.768   2.702   1.956 -0.8015  0.0692  0.4335
  802MOL0     C10540   0.736   2.789   1.867 -0.3766  0.9120 -0.6683
  802MOL0     O10541   0.803   2.911   1.848  0.1784 -0.0430  0.9503
  802MOL0     C10542   0.888   2.960   1.940  0.4206  0.5349  0.2726
  802MOL0     C10543   0.851   2.981   2.070  0.5668  0.1757 -0.3587
  802MOL0     C10544   0.941   3.040   2.158 -0.8284  0.1483 -0.2991
  802MOL0     C10545   1.062   3.099   2.116 -0.4864  0.0793  0.0897
  802MOL0     O10546   1.154   3.174   2.186 -0.6276  0.2666  0.0492
  802MOL0     C10547   1.106   3.235   2.308 -0.8762 -0.0604  0.9874
  802MOL0     C10548   1.226   3.302   2.385  0.6909  0.1756 -1.2360
  802MOL0     C10549   1.284   3.421   2.322  1.1869 -0.3612  0.6403
  802MOL0     C10550   1.428   3.438   2.344 -0.4327  0.6569 -0.1635
  802MOL0     C10551   1.467   3.571   2.276  0.4830 -0.1791  0.3306
  802MOL0     C10552   1.618   3.595   2.275 -0.0328 -0.4678  0.2413
  802MOL0     C10553   1.673   3.692   2.175  1.0320 -0.0794 -0.4890
  802MOL0     C10554   1.808   3.750   2.200  0.2590  0.2649  0.2177
  802MOL0     N10555   1.909   3.640   2.203 -0.5938 -0.0564  0.9127
  802MOL0     C10556   1.977   3.580   2.103  0.5784 -0.7138  0.1003
  802MOL0     C10557   2.057   3.484   2.159 -0.1634  0.2362  0.1603
  802MOL0     C10558   2.153   3.392   2.082  0.2555 -0.1284  0.1584
  802MOL0     C10559   2.293   3.473   2.053  0.4797 -0.6585 -0.3593
  802MOL0     C10560   2.346   3.559   2.171  0.0327 -0.3267  0.2569
  802MOL0     C10561   2.375   3.483   2.298  0.2849 -0.1096  0.0691
  802MOL0     O10562   2.488   3.393   2.281  0.7035  1.0326  0.0981
  802MOL0     C10563   2.605   3.425   2.331 -0.5431  0.0096 -0.1501
  802MOL0     C10564   2.647   3.544   2.378 -0.2109  0.1063 -0.6414
  802MOL0     C10565   2.781   3.573   2.435  0.0702  0.4618  0.4207
  802MOL0     C10566   2.817   3.712   2.469  0.0417 -0.9268  0.4255
  802MOL0     C10567   2.872   3.466   2.452 -0.7140 -0.0771 -0.5721
  802MOL0     C10568   3.013   3.478   2.501  0.2098  0.0453  0.1663
  802MOL0     O10569   3.052   3.570   2.589 -0.1227  0.6078  0.0988
  802MOL0     C10570   3.187   3.581   2.621  0.2964 -0.0088 -0.3095
  802MOL0     C10571   3.250   3.482   2.696 -0.3047 -0.3802 -1.4757
  802MOL0     C10572   3.381   3.504   2.742 -0.1054  0.2346 -0.2196
  802MOL0     C10573   3.455   3.628   2.715  0.9276 -0.5587 -0.0971
  802MOL0     O10574   3.578   3.652   2.761 -0.6341  0.7779  0.1455
  802MOL0     C10575   3.634   3.777   2.750 -0.7584 -0.7511  0.1014
  802MOL0     C10576   3.756   3.776   2.848 -0.0591  0.2179 -0.8033
  802MOL0     C10577   3.837   3.911   2.865 -0.0712 -0.4483  0.0550
  802MOL0     C10578   3.950   3.919   2.755 -0.6670  0.5805  0.1654
  802MOL0     C10579   4.026   4.056   2.750 -0.1387 -0.0863  0.2044
  802MOL0     C10580   4.106   4.090   2.631 -0.0940  0.6349  0.1562
  802MOL0     C10581   4.222   3.995   2.607 -0.3005  0.5372 -0.5622
  802MOL0     C10582   4.335   4.050   2.516 -0.3414 -0.1659 -0.0927
  802MOL0    Cl10583   4.272   4.099   2.354 -0.3585  0.1492 -0.2183
  802MOL0     C10584   3.380   3.727   2.647 -0.5956  0.6336  0.2014
  802MOL0     C10585   3.253   3.704   2.597  0.1405 -0.1597 -0.3298
  802MOL0     O10586   3.078   3.371   2.473  0.3332 -0.1959  0.7617
  802MOL0     C10587   2.821   3.345   2.408 -1.0191  0.1610  0.7465
  802MOL0     C10588   2.696   3.321   2.357 -0.2167 -0.0896  0.8337
  802MOL0     N10589   2.040   3.489   2.297  0.0326 -0.7355  0.2638
  802MOL0     N10590   1.955   3.583   2.320  0.3970  0.0803  0.3220
  802MOL0     C10591   1.097   3.082   1.986  0.1735 -0.0233  0.4296
  802MOL0     C10592   1.014   3.010   1.896  0.3699 -0.4586 -0.1757
  802MOL0     C10593   0.606   2.780   1.793 -0.4402  0.6398  0.1839
  802MOL0     C10594   0.562   2.895   1.719  0.9042 -0.2941 -0.1997
  802MOL0     C10595   0.439   2.893   1.650  0.0900  0.0621  0.1810
  802MOL0     C10596   0.346   2.781   1.665  0.5436  0.4040 -0.3885
  802MOL0     O10597   0.218   2.771   1.608  0.0789 -0.6744 -0.1432
  802MOL0     C10598   0.159   2.893   1.575 -0.0841  0.3336 -0.2041
  802MOL0     C10599   0.196   2.939   1.429  0.2817 -0.3099 -0.3378
  802MOL0     C10600   0.086   2.895   1.321 -0.1632 -0.2033 -0.7014
  802MOL0     C10601   0.094   2.963   1.191 -0.0614 -0.0361  0.1446
  802MOL0     C10602   0.080   3.105   1.207 -0.4622 -0.2668 -0.0640
  802MOL0     C10603   0.079   3.223   1.215 -0.4845 -0.0354 -0.7371
  802MOL0     C10604   0.392   2.667   1.733 -0.5721 -0.3279 -0.2344
  802MOL0     C10605   0.521   2.661   1.792  0.8329  0.4981  0.0585
  802MOL0     C10606   0.566   2.533   1.862  0.7141  0.2172  0.0267
  802MOL0     H10607   0.756   2.952   2.113  1.0447  2.6251  2.7076
  802MOL0     H10608   0.913   3.051   2.263 -2.3384 -0.5217 -0.6222
  802MOL0     H10609   1.062   3.167   2.381  1.7452 -3.5254 -0.3650
  802MOL0     H10610   1.033   3.311   2.277 -0.0001  0.2449 -0.4266
  802MOL0     H10611   1.182   3.332   2.480  0.5100  0.6121 -1.4530
  802MOL0     H10612   1.306   3.229   2.400 -1.3012 -1.8051  0.7209
  802MOL0     H10613   1.255   3.423   2.216  0.3160 -0.9166  0.8577
  802MOL0     H10614   1.239   3.512   2.363  0.3764 -1.0049  1.2053
  802MOL0     H10615   1.452   3.443   2.450  1.9928 -2.6894 -0.3971
  802MOL0     H10616   1.481   3.356   2.295 -2.7298  0.1688 -2.0462
  802MOL0     H10617   1.415   3.652   2.328  0.3261 -0.7409  1.0725
  802MOL0     H10618   1.441   3.555   2.171  0.5265 -2.8828  0.6744
  802MOL0     H10619   1.635   3.633   2.376  0.2540  0.0818 -0.0067
  802MOL0     H10620   1.674   3.502   2.266  0.3306 -0.2209 -0.0825
  802MOL0     H10621   1.593   3.766   2.175 -2.0025 -3.0907 -0.1966
  802MOL0     H10622   1.684   3.634   2.083 -3.3823 -1.4571 -0.3860
  802MOL0     H10623   1.836   3.819   2.119 -1.5572  1.2737  0.4070
  802MOL0     H10624   1.808   3.809   2.292  1.4631  1.6402 -0.6254
  802MOL0     H10625   1.955   3.597   1.999  0.1541  0.0442  0.3084
  802MOL0     H10626   2.111   3.360   1.986 -0.2687  0.1770  0.2866
  802MOL0     H10627   2.171   3.300   2.138 -0.1671 -0.3446 -0.0555
  802MOL0     H10628   2.372   3.401   2.029  1.7122 -0.3255  2.3518
  802MOL0     H10629   2.271   3.543   1.971 -0.8858  1.1334  1.4394
  802MOL0     H10630   2.436   3.610   2.136 -0.1083  0.4321  0.9511
  802MOL0     H10631   2.270   3.633   2.197  2.5415  3.2720 -1.7694
  802MOL0     H10632   2.392   3.558   2.376  1.8773 -2.1521  1.8419
  802MOL0     H10633   2.290   3.428   2.341  1.0370  1.1485  3.4910
  802MOL0     H10634   2.584   3.631   2.371  0.7059  0.8399 -0.0255
  802MOL0     H10635   2.730   3.777   2.459 -0.1210 -0.7816  2.2718
  802MOL0     H10636   2.898   3.756   2.411 -0.8189 -0.2624 -0.2972
  802MOL0     H10637   2.850   3.713   2.574 -0.1123  0.8978  0.4930
  802MOL0     H10638   3.202   3.386   2.708 -2.3513  0.3158 -3.2951
  802MOL0     H10639   3.439   3.420   2.780  0.8356  0.6561 -0.6727
  802MOL0     H10640   3.676   3.788   2.649 -4.6437 -0.0812 -1.6386
  802MOL0     H10641   3.568   3.862   2.772 -1.3534 -0.4067 -2.6592
  802MOL0     H10642   3.711   3.771   2.947  0.1824  1.7965 -0.5871
  802MOL0     H10643   3.822   3.692   2.822  2.1022  0.9826  1.8252
  802MOL0     H10644   3.886   3.911   2.963 -0.3352  0.0485  0.1927
  802MOL0     H10645   3.784   4.006   2.859  1.7004  0.5113 -0.9836
  802MOL0     H10646   3.898   3.910   2.659  1.5266  1.9363 -1.2230
  802MOL0     H10647   4.018   3.834   2.763 -1.0390  0.3459  0.8898
  802MOL0     H10648   3.956   4.138   2.770 -1.6361 -1.3539  0.2713
  802MOL0     H10649   4.098   4.053   2.833  0.3987 -2.9669 -0.2520
  802MOL0     H10650   4.149   4.191   2.637  1.3010 -0.0026  1.7191
  802MOL0     H10651   4.035   4.097   2.548  0.4211  0.6870 -0.2941
  802MOL0     H10652   4.186   3.903   2.561  1.8556 -0.2142 -0.8748
  802MOL0     H10653   4.270   3.971   2.703 -1.6364  5.6163  1.6996
  802MOL0     H10654   4.417   3.979   2.508  0.5024  0.7975 -0.2696
  802MOL0     H10655   4.376   4.135   2.571 -2.2461  0.2046  0.8318
  802MOL0     H10656   3.418   3.817   2.600 -1.8843  0.4199 -1.3492
  802MOL0     H10657   3.215   3.785   2.536 -2.5691 -1.1780 -0.1149
  802MOL0     H10658   2.883   3.256   2.405 -1.1380  0.1059 -0.9480
  802MOL0     H10659   2.666   3.224   2.321 -1.0826  0.2210  0.6817
  802MOL0     H10660   1.200   3.105   1.963 -0.4807  2.3062 -0.4761
  802MOL0     H10661   1.039   3.010   1.790 -1.4422 -1.6601 -0.6505
  802MOL0     H10662   0.614   2.990   1.725 -0.3635  0.3563  1.4234
  802MOL0     H10663   0.407   2.976   1.588  1.8362 -0.5835 -1.7212
  802MOL0     H10664   0.052   2.870   1.571 -0.6330  2.8138 -1.4236
  802MOL0     H10665   0.181   2.976   1.643 -0.9668  1.5758 -1.3891
  802MOL0     H10666   0.292   2.890   1.412  0.0189 -1.4004  1.1880
  802MOL0     H10667   0.201   3.047   1.444 -1.2585 -0.3559  0.7968
  802MOL0     H10668   0.098   2.788   1.303  1.1781  0.0813 -1.7038
  802MOL0     H10669  -0.011   2.930   1.357 -0.0104  2.3823 -2.4969
  802MOL0     H10670   0.010   2.926   1.131  0.5847 -1.0434 -0.1832
  802MOL0     H10671   0.191   2.937   1.146 -0.5284 -1.5473 -0.0437
  802MOL0     H10672   0.071   3.330   1.209 -0.9192 -0.1286 -1.8552
  802MOL0     H10673   0.328   2.579   1.733  2.2010 -2.4911 -1.6751
  802MOL0     H10674   0.540   2.536   1.968 -2.3652 -0.8777 -0.5861
  802MOL0     H10675   0.515   2.446   1.820 -0.4744  0.2835  1.2747
  802MOL0     H10676   0.670   2.508   1.838 -0.5166 -3.1704 -2.7015
  803MOL0     O10677   0.257   8.846   7.537 -0.0815  0.3574 -0.0194
  803MOL0     C10678   0.224   8.808   7.650 -0.4928 -0.7508  0.1270
  803MOL0     O10679   0.312   8.778   7.746  0.0721 -0.1946 -0.1532
  803MOL0     C10680   0.445   8.741   7.715  0.0163  0.1639 -0.2526
  803MOL0     C10681   0.508   8.654   7.799  0.6147  0.5259 -0.3359
  803MOL0     C10682   0.641   8.613   7.787  0.0821  0.5534  0.8940
  803MOL0     C10683   0.711   8.640   7.679 -0.2042  0.4509 -0.4560
  803MOL0     O10684   0.825   8.573   7.654 -0.4462 -0.4144 -0.1786
  803MOL0     C10685   0.940   8.653   7.627  0.4855 -0.8682  0.0002
  803MOL0     C10686   0.970   8.738   7.744  0.0248 -0.2149 -0.8941
  803MOL0     C10687   1.118   8.760   7.774 -0.8333 -0.7999 -0.1615
  803MOL0     C10688   1.158   8.903   7.772 -0.2161  0.7551 -0.0705
  803MOL0     C10689   1.303   8.921   7.784  0.6521  0.0543 -0.3080
  803MOL0     C10690   1.333   9.069   7.762 -0.1862 -0.4732  0.1704
  803MOL0     C10691   1.488   9.100   7.754 -0.1345 -0.0213  0.6021
  803MOL0     C10692   1.533   9.065   7.612 -0.5816  0.3044  0.3038
  803MOL0     N10693   1.664   9.129   7.586  0.0247 -0.0853  0.3667
  803MOL0     C10694   1.780   9.096   7.657  0.4512  0.0248  0.0177
  803MOL0     C10695   1.861   9.202   7.661  0.5154 -0.2341  0.4441
  803MOL0     C10696   1.980   9.219   7.738  0.3700 -0.3437  0.0130
  803MOL0     C10697   2.105   9.180   7.654 -0.3473  0.7703 -0.5168
  803MOL0     C10698   2.231   9.251   7.711  0.2357 -0.2903  0.2962
  803MOL0     C10699   2.362   9.252   7.625 -0.2470  0.0755 -0.2359
  803MOL0     O10700   2.450   9.330   7.709  0.7299  0.0927 -0.1755
  803MOL0     C10701   2.556   9.263   7.767 -0.5948 -0.1209  0.2738
  803MOL0     C10702   2.675   9.236   7.688 -0.7948  0.3641 -0.5754
  803MOL0     C10703   2.783   9.160   7.744 -0.3760  0.2607 -0.2486
  803MOL0     C10704   2.876   9.116   7.635 -0.4860  0.0381  0.1046
  803MOL0     C10705   2.781   9.120   7.880 -0.3929 -0.2235 -0.2364
  803MOL0     C10706   2.898   9.057   7.948  0.1611 -0.0944  0.0861
  803MOL0     O10707   2.876   8.973   8.055  0.1894  0.3946  0.6962
  803MOL0     C10708   2.980   8.902   8.094  0.2132  0.9898 -0.1690
  803MOL0     C10709   3.076   8.951   8.181 -0.4206 -0.2010  0.1347
  803MOL0     C10710   3.187   8.884   8.233  0.4611 -0.3206  0.3114
  803MOL0     C10711   3.197   8.752   8.198 -0.5363  0.2429  1.3207
  803MOL0     O10712   3.300   8.676   8.259 -0.1581 -0.0869 -0.4041
  803MOL0     C10713   3.390   8.602   8.183  0.6693 -0.3935 -0.3597
  803MOL0     C10714   3.485   8.712   8.144 -0.0266 -0.1365  0.1920
  803MOL0     C10715   3.617   8.650   8.090 -0.2768  0.8463 -0.2045
  803MOL0     C10716   3.734   8.754   8.087  0.5678  0.0270  0.5586
  803MOL0     C10717   3.867   8.707   8.042 -0.7149  0.5277  0.8538
  803MOL0     C10718   3.894   8.701   7.892  0.3042  0.3408 -0.2424
  803MOL0     C10719   4.044   8.689   7.870 -0.3450 -0.7623  0.1962
  803MOL0     C10720   4.082   8.707   7.722  0.2921  0.4613  0.4436
  803MOL0    Cl10721   4.250   8.719   7.698 -0.3680  0.0471 -0.0815
  803MOL0     C10722   3.103   8.689   8.118 -0.1988 -0.9481  0.3756
  803MOL0     C10723   3.000   8.766   8.064 -0.3746  0.2274  0.4163
  803MOL0     O10724   3.008   9.081   7.909 -1.0634  0.1145  0.0211
  803MOL0     C10725   2.662   9.138   7.944 -1.6174 -0.2797 -0.0133
  803MOL0     C10726   2.554   9.210   7.895  0.5368 -0.5567 -0.6202
  803MOL0     N10727   1.808   9.300   7.584  0.0497  0.0767  0.1673
  803MOL0     N10728   1.696   9.259   7.535  0.6409 -0.0944 -0.1070
  803MOL0     C10729   0.662   8.741   7.592 -0.3082  0.0467  0.7547
  803MOL0     C10730   0.533   8.793   7.618  0.4011 -0.0355  0.4207
  803MOL0     C10731   0.089   8.785   7.691 -0.1211  0.3771 -0.1883
  803MOL0     C10732  -0.017   8.881   7.678 -0.5011 -0.2602 -0.2374
  803MOL0     C10733  -0.138   8.859   7.730  0.3792  0.5916 -0.1863
  803MOL0     C10734  -0.172   8.743   7.805  0.0134 -0.9570  0.4271
  803MOL0     O10735  -0.293   8.716   7.856 -0.5163  0.5190 -0.2825
  803MOL0     C10736  -0.405   8.741   7.769  0.1814 -0.0400  0.7798
  803MOL0     C10737  -0.422   8.648   7.662 -0.2116 -0.0217  0.2965
  803MOL0     C10738  -0.411   8.499   7.692 -0.1456 -0.2057 -0.2642
  803MOL0     C10739  -0.507   8.451   7.799  0.3812 -0.0795 -0.6445
  803MOL0     C10740  -0.464   8.324   7.867 -1.5826  0.6453  0.5748
  803MOL0     C10741  -0.447   8.219   7.920  0.4015  0.8599 -0.5017
  803MOL0     C10742  -0.075   8.640   7.808 -0.3320 -1.2758  0.5143
  803MOL0     C10743   0.063   8.658   7.756 -0.5422  0.4002 -0.4076
  803MOL0     C10744   0.156   8.547   7.761  0.3925  1.1941  0.2169
  803MOL0     H10745   0.446   8.630   7.886  1.0127  0.6078 -0.0255
  803MOL0     H10746   0.696   8.547   7.852  0.7227  0.3758  0.1850
  803MOL0     H10747   0.943   8.701   7.529 -0.6055 -0.0554  0.3511
  803MOL0     H10748   1.017   8.575   7.619  1.5122  0.3010 -2.6550
  803MOL0     H10749   0.921   8.836   7.738  2.7879  1.8158  3.8484
  803MOL0     H10750   0.916   8.688   7.825 -2.3325  1.0039 -1.6155
  803MOL0     H10751   1.134   8.708   7.869 -3.5052 -3.0691 -0.8145
  803MOL0     H10752   1.181   8.709   7.700  1.1783 -0.4718  1.2394
  803MOL0     H10753   1.134   8.932   7.669  0.7865 -1.5175 -1.0279
  803MOL0     H10754   1.105   8.972   7.837  0.0872  1.1666 -0.2565
  803MOL0     H10755   1.347   8.857   7.707  0.0806  1.4381 -1.8473
  803MOL0     H10756   1.345   8.886   7.878 -1.9420  0.2124  1.0000
  803MOL0     H10757   1.293   9.100   7.666  0.8481  0.8277  0.1293
  803MOL0     H10758   1.294   9.129   7.845  0.6870 -1.6659  1.5037
  803MOL0     H10759   1.554   9.052   7.826  0.1210 -0.7099 -0.0696
  803MOL0     H10760   1.500   9.208   7.766  0.3090 -0.1288  1.1598
  803MOL0     H10761   1.549   8.957   7.619  4.0224  0.8232  1.3436
  803MOL0     H10762   1.473   9.092   7.525  1.5039  0.1183 -1.2470
  803MOL0     H10763   1.783   9.000   7.708 -1.8231  0.8498  1.9070
  803MOL0     H10764   1.971   9.148   7.821  0.2368  0.9647  1.1600
  803MOL0     H10765   1.976   9.321   7.778  0.0100 -0.4776  0.3275
  803MOL0     H10766   2.112   9.071   7.644  2.5184  0.7752  0.5866
  803MOL0     H10767   2.089   9.223   7.555  2.0482  1.5517 -0.6231
  803MOL0     H10768   2.204   9.357   7.702 -0.0605 -0.3911 -0.0396
  803MOL0     H10769   2.251   9.226   7.815 -1.4694  1.1407  1.0123
  803MOL0     H10770   2.409   9.157   7.598 -0.9955 -0.9453  1.8629
  803MOL0     H10771   2.344   9.312   7.535 -0.2677 -0.5195 -0.6303
  803MOL0     H10772   2.674   9.275   7.587  0.1441  0.9748 -0.3566
  803MOL0     H10773   2.820   9.086   7.546  0.5085 -1.3679 -0.0793
  803MOL0     H10774   2.931   9.025   7.662 -0.2351  0.6041  1.5855
  803MOL0     H10775   2.938   9.202   7.608 -1.9343  1.0385 -0.1539
  803MOL0     H10776   3.066   9.056   8.204 -2.0328  0.3204 -2.5029
  803MOL0     H10777   3.256   8.934   8.301 -1.4696  0.1455  2.0436
  803MOL0     H10778   3.440   8.527   8.246  2.0479  0.2208 -0.6776
  803MOL0     H10779   3.341   8.547   8.103 -0.6892 -0.9006  0.7757
  803MOL0     H10780   3.441   8.758   8.055 -0.0972 -1.6140 -0.5683
  803MOL0     H10781   3.513   8.796   8.208 -1.4671  1.9775 -1.7912
  803MOL0     H10782   3.607   8.619   7.986  3.3015 -2.1339  0.1325
  803MOL0     H10783   3.639   8.564   8.154 -0.2119  1.8057  1.0984
  803MOL0     H10784   3.753   8.795   8.186  0.6730  0.7570  0.2401
  803MOL0     H10785   3.699   8.829   8.016  1.2081 -0.1462  0.0481
  803MOL0     H10786   3.946   8.768   8.087 -0.0978  1.2811 -1.1329
  803MOL0     H10787   3.886   8.610   8.088 -1.7118 -0.6411 -1.0623
  803MOL0     H10788   3.855   8.791   7.844 -0.0559 -0.2438 -1.0669
  803MOL0     H10789   3.846   8.613   7.847 -0.7016  0.1262  1.2053
  803MOL0     H10790   4.075   8.591   7.905  0.7122 -0.9273 -1.1176
  803MOL0     H10791   4.101   8.762   7.929 -0.2297 -0.9108  0.2672
  803MOL0     H10792   4.041   8.799   7.680 -4.8530 -1.2082  1.0353
  803MOL0     H10793   4.031   8.631   7.661  0.4039 -0.1295  1.0668
  803MOL0     H10794   3.102   8.584   8.094  1.4510 -0.7585 -0.7179
  803MOL0     H10795   2.912   8.725   8.016  0.7012  0.5853 -2.0263
  803MOL0     H10796   2.652   9.111   8.048  1.6104 -1.4877  0.0849
  803MOL0     H10797   2.465   9.229   7.954  2.1072  0.1058  1.7002
  803MOL0     H10798   0.710   8.753   7.495 -1.9003  0.9136  0.0510
  803MOL0     H10799   0.495   8.872   7.555 -1.3957 -1.6813 -0.6662
  803MOL0     H10800   0.011   8.971   7.626  1.2634 -0.3274  0.5458
  803MOL0     H10801  -0.215   8.936   7.729  1.1130  1.3858  1.1681
  803MOL0     H10802  -0.495   8.747   7.830  0.6794  3.2880  1.3400
  803MOL0     H10803  -0.404   8.844   7.733 -0.8723 -0.1161  0.4963
  803MOL0     H10804  -0.336   8.671   7.599  0.4476 -1.7387  0.5031
  803MOL0     H10805  -0.517   8.667   7.611  0.9763  1.7873 -1.4083
  803MOL0     H10806  -0.407   8.432   7.606 -0.7807 -0.3189 -0.2152
  803MOL0     H10807  -0.312   8.484   7.736  0.1715 -0.2823 -0.9891
  803MOL0     H10808  -0.609   8.429   7.768 -0.3630  1.3597  0.6535
  803MOL0     H10809  -0.513   8.533   7.871 -0.4186  2.0115 -2.9309
  803MOL0     H10810  -0.443   8.129   7.978 -3.2504  0.2822 -0.9271
  803MOL0     H10811  -0.094   8.543   7.852  2.3976 -1.2699  1.9118
  803MOL0     H10812   0.104   8.453   7.781  1.5634  0.6519  0.8465
  803MOL0     H10813   0.209   8.538   7.666  1.3272  1.2358  0.7218
  803MOL0     H10814   0.227   8.559   7.844 -0.4636  3.1030  0.7254
  804MOL0     O10815   1.458  10.447   1.260  1.1757 -0.8576  0.1260
  804MOL0     C10816   1.463  10.441   1.384 -0.3426 -0.3859  1.1559
  804MOL0     O10817   1.577  10.440   1.457 -0.5511 -0.0027  0.5605
  804MOL0     C10818   1.689  10.425   1.384  0.2364 -0.0317 -0.2248
  804MOL0     C10819   1.756  10.534   1.339 -0.5057  0.1334 -0.0967
  804MOL0     C10820   1.872  10.520   1.256  0.2315  0.3959  0.8079
  804MOL0     C10821   1.912  10.393   1.214  0.1354  0.7882  0.7532
  804MOL0     O10822   2.012  10.383   1.120  0.2874  0.5192  0.0862
  804MOL0     C10823   2.134  10.434   1.174  0.2610 -0.4818  0.5359
  804MOL0     C10824   2.247  10.335   1.126  0.2784 -0.1068 -1.0248
  804MOL0     C10825   2.259  10.337   0.976 -0.0884  0.2273 -0.0055
  804MOL0     C10826   2.366  10.249   0.927 -0.5348  0.3746 -0.2288
  804MOL0     C10827   2.344  10.095   0.932 -0.3250  0.1222 -0.2877
  804MOL0     C10828   2.414  10.030   1.053 -0.6273  0.1275 -0.3130
  804MOL0     C10829   2.374   9.882   1.060  0.4019 -0.5199  0.2358
  804MOL0     C10830   2.442   9.823   1.184  0.2969 -0.3909  0.2527
  804MOL0     N10831   2.380   9.689   1.204 -0.7345 -0.1840 -0.0874
  804MOL0     C10832   2.255   9.675   1.259 -0.6064 -0.9304  1.5182
  804MOL0     C10833   2.254   9.540   1.277 -0.6846 -0.3969  0.4161
  804MOL0     C10834   2.150   9.454   1.328 -1.0921  0.1247 -0.1019
  804MOL0     C10835   2.151   9.323   1.243 -0.1054 -0.7725  0.4856
  804MOL0     C10836   2.040   9.221   1.284 -0.5235 -0.1428 -0.2035
  804MOL0     C10837   1.910   9.254   1.209 -0.4697 -0.3337  0.2091
  804MOL0     O10838   1.817   9.154   1.253 -0.1579  1.0338  0.8547
  804MOL0     C10839   1.680   9.185   1.238 -0.0437  0.2067  0.7318
  804MOL0     C10840   1.597   9.158   1.348 -0.3503  0.3949  0.3442
  804MOL0     C10841   1.462   9.183   1.346 -0.8730 -0.6542  0.6950
  804MOL0     C10842   1.387   9.149   1.478  0.2242  0.1157  0.3342
  804MOL0     C10843   1.398   9.237   1.229 -0.2952 -0.3777 -0.5440
  804MOL0     C10844   1.255   9.270   1.213 -0.3167 -0.1400  0.2853
  804MOL0     O10845   1.212   9.304   1.083  0.3264 -0.7091  0.0045
  804MOL0     C10846   1.090   9.362   1.062 -0.7379  0.1785 -0.4440
  804MOL0     C10847   1.033   9.454   1.166  0.1845  0.3074  1.0442
  804MOL0     C10848   0.906   9.498   1.133 -0.0764  0.0545  0.0809
  804MOL0     C10849   0.830   9.470   1.021 -0.3844  1.3291 -0.0615
  804MOL0     O10850   0.707   9.520   1.001 -0.1151 -1.0762  0.5673
  804MOL0     C10851   0.623   9.472   0.892  1.2338  0.1499  0.1759
  804MOL0     C10852   0.477   9.500   0.943  0.6065 -0.2753 -0.3902
  804MOL0     C10853   0.370   9.439   0.850 -0.1982  0.4949  0.5717
  804MOL0     C10854   0.357   9.528   0.726 -0.0084 -0.5133  0.2388
  804MOL0     C10855   0.236   9.486   0.640 -0.3066  0.1934  1.1890
  804MOL0     C10856   0.211   9.583   0.516 -0.2440 -0.1985 -0.2872
  804MOL0     C10857   0.070   9.557   0.472  0.5211 -0.1711 -0.5074
  804MOL0     C10858   0.032   9.621   0.335 -0.1602  0.0804 -0.2564
  804MOL0    Cl10859  -0.125   9.569   0.293  0.2652 -0.0724 -0.0517
  804MOL0     C10860   0.891   9.393   0.922  0.7170 -0.5035  0.6521
  804MOL0     C10861   1.016   9.332   0.941 -0.1850  0.3286 -0.2467
  804MOL0     O10862   1.180   9.252   1.312 -0.0263 -0.6760 -0.1764
  804MOL0     C10863   1.476   9.270   1.116 -0.5695 -0.5379 -0.0749
  804MOL0     C10864   1.617   9.243   1.122  0.2448 -0.6014 -0.1746
  804MOL0     N10865   2.376   9.488   1.248  0.1711  0.1581  1.3631
  804MOL0     N10866   2.459   9.577   1.207 -0.0359  0.2214  0.0715
  804MOL0     C10867   1.840  10.279   1.259 -0.2065 -0.6481 -0.2522
  804MOL0     C10868   1.734  10.297   1.347  0.4960 -0.4692  1.1838
  804MOL0     C10869   1.331  10.420   1.446  0.3101 -0.0430  0.2689
  804MOL0     C10870   1.212  10.466   1.380  0.4284  0.7046 -0.7839
  804MOL0     C10871   1.092  10.464   1.431  1.1671 -0.3998 -0.0608
  804MOL0     C10872   1.073  10.427   1.562 -0.0933  0.0192 -0.0179
  804MOL0     O10873   0.958  10.444   1.640 -0.1525 -0.0031 -0.3494
  804MOL0     C10874   0.833  10.450   1.562  0.1531 -0.1801 -0.1269
  804MOL0     C10875   0.795  10.604   1.552 -0.4274  1.1918 -0.9114
  804MOL0     C10876   0.654  10.631   1.543  0.8191  0.2358 -0.0548
  804MOL0     C10877   0.633  10.769   1.485 -0.8171  0.0450  0.5388
  804MOL0     C10878   0.682  10.873   1.575  0.8070 -1.0593 -0.6960
  804MOL0     C10879   0.718  10.968   1.647 -0.6303  0.7054  0.2407
  804MOL0     C10880   1.180  10.389   1.636  0.6620 -0.1419 -0.6546
  804MOL0     C10881   1.307  10.389   1.584 -0.0869  0.1530  0.0238
  804MOL0     C10882   1.415  10.344   1.675 -0.0374 -0.0233  0.3836
  804MOL0     H10883   1.739  10.639   1.362 -1.2129 -0.4003  2.0325
  804MOL0     H10884   1.931  10.609   1.239 -1.3560  1.3192 -0.1456
  804MOL0     H10885   2.133  10.455   1.282 -2.6481  1.7486  0.1971
  804MOL0     H10886   2.151  10.534   1.133  0.5545 -0.3823  0.8951
  804MOL0     H10887   2.338  10.369   1.177 -0.9997  3.0712 -0.6033
  804MOL0     H10888   2.229  10.234   1.163  1.4464 -0.4869 -1.4495
  804MOL0     H10889   2.167  10.320   0.920  1.6420 -0.2845 -2.9060
  804MOL0     H10890   2.286  10.438   0.941  0.7220  0.3521  0.9379
  804MOL0     H10891   2.365  10.260   0.819  0.2117 -0.1262 -0.2966
  804MOL0     H10892   2.461  10.276   0.974 -0.6100 -0.1453  0.2362
  804MOL0     H10893   2.386  10.045   0.845  1.4110 -1.4799  1.4015
  804MOL0     H10894   2.239  10.064   0.931 -0.1542 -0.8760 -4.1398
  804MOL0     H10895   2.519  10.043   1.028 -0.9110  2.7556 -0.4449
  804MOL0     H10896   2.399  10.076   1.151  2.1836 -0.3958  0.4389
  804MOL0     H10897   2.416   9.838   0.969  0.0958  1.8705 -1.1378
  804MOL0     H10898   2.266   9.869   1.061  0.4343 -0.8033  0.1825
  804MOL0     H10899   2.551   9.816   1.178  0.3218  0.0263  0.1836
  804MOL0     H10900   2.410   9.889   1.265 -1.0145 -1.8792  1.0143
  804MOL0     H10901   2.174   9.746   1.271  1.2494  1.1279  2.6059
  804MOL0     H10902   2.054   9.507   1.328 -1.0763  0.2482 -2.7078
  804MOL0     H10903   2.174   9.432   1.433 -0.6018 -0.4430 -0.3267
  804MOL0     H10904   2.135   9.349   1.138 -1.0347 -1.4616  0.4509
  804MOL0     H10905   2.252   9.284   1.259  0.9163  1.3224 -0.4021
  804MOL0     H10906   2.081   9.121   1.264  1.6518  0.9846 -1.7463
  804MOL0     H10907   2.021   9.232   1.392 -0.7635  1.4296 -0.3837
  804MOL0     H10908   1.874   9.354   1.238  1.6932  0.3988  0.5242
  804MOL0     H10909   1.931   9.252   1.102 -0.2753  1.2658  0.1882
  804MOL0     H10910   1.635   9.105   1.435 -0.3552  0.3435  0.3149
  804MOL0     H10911   1.380   9.241   1.537  1.1877  0.3537  0.0976
  804MOL0     H10912   1.454   9.084   1.535  2.2654  0.5924 -1.3934
  804MOL0     H10913   1.294   9.098   1.451  0.7968  0.0383 -1.6912
  804MOL0     H10914   1.079   9.486   1.259  2.1206 -1.0786  0.6455
  804MOL0     H10915   0.873   9.587   1.186 -2.6163  0.9886 -2.7841
  804MOL0     H10916   0.641   9.515   0.793  1.1535 -1.8153 -0.7337
  804MOL0     H10917   0.634   9.363   0.888  0.1113 -0.1920  3.3509
  804MOL0     H10918   0.458   9.455   1.041 -0.2082  1.0866  0.1071
  804MOL0     H10919   0.467   9.608   0.958  2.2686  0.0995 -1.6177
  804MOL0     H10920   0.279   9.444   0.910 -1.4923  0.6385 -1.2968
  804MOL0     H10921   0.401   9.336   0.829  0.8535  1.0104 -0.5710
  804MOL0     H10922   0.445   9.529   0.661  0.7352  0.1158  1.2370
  804MOL0     H10923   0.338   9.627   0.768  2.8387 -0.9594  2.9704
  804MOL0     H10924   0.247   9.383   0.604 -3.2308 -0.6356  2.4200
  804MOL0     H10925   0.151   9.484   0.709 -0.0263  0.8242  1.5668
  804MOL0     H10926   0.278   9.555   0.434 -2.1242  0.1153 -2.0219
  804MOL0     H10927   0.238   9.688   0.529 -1.0895  0.2598 -1.8903
  804MOL0     H10928   0.005   9.581   0.556  0.3440 -0.0821 -0.6694
  804MOL0     H10929   0.062   9.448   0.463 -1.5036 -0.3639  2.3398
  804MOL0     H10930   0.099   9.588   0.255 -0.1267 -0.8681  0.1607
  804MOL0     H10931   0.039   9.730   0.338  1.7802 -0.0316  0.7218
  804MOL0     H10932   0.839   9.382   0.828  1.0689 -1.1238  0.5290
  804MOL0     H10933   1.056   9.272   0.860 -0.1946 -0.0624  0.0352
  804MOL0     H10934   1.433   9.301   1.022  2.0545 -0.4536 -1.3314
  804MOL0     H10935   1.671   9.267   1.031 -0.2524  1.6609  0.0625
  804MOL0     H10936   1.878  10.180   1.236  0.5539 -0.5184  0.4247
  804MOL0     H10937   1.689  10.208   1.389 -0.6431 -1.9817 -2.7601
  804MOL0     H10938   1.218  10.507   1.280  0.1107  1.3906 -0.5308
  804MOL0     H10939   1.003  10.501   1.380  1.3446 -0.6285 -0.5386
  804MOL0     H10940   0.836  10.411   1.460  1.4966  1.2971 -0.6889
  804MOL0     H10941   0.756  10.405   1.625  0.1801 -0.0394  0.0060
  804MOL0     H10942   0.854  10.648   1.472  1.1418  0.3987 -0.2267
  804MOL0     H10943   0.825  10.654   1.644 -3.1496  1.8422 -0.2680
  804MOL0     H10944   0.610  10.558   1.475  0.1230  0.0932  0.5350
  804MOL0     H10945   0.602  10.622   1.639 -0.3118  1.5215 -0.5185
  804MOL0     H10946   0.531  10.787   1.448 -0.5931  1.5236  0.5737
  804MOL0     H10947   0.701  10.773   1.400  1.0005 -3.0196  1.6805
  804MOL0     H10948   0.765  11.041   1.710  1.2805 -0.9676  0.8611
  804MOL0     H10949   1.164  10.363   1.740 -3.3618  0.7214 -0.8970
  804MOL0     H10950   1.477  10.275   1.618 -2.8407  1.2067 -4.7996
  804MOL0     H10951   1.479  10.431   1.694 -1.0632  0.5968  1.1554
  804MOL0     H10952   1.384  10.291   1.765 -1.5311  1.6250  0.8938
  805MOL0     O10953   9.758   5.067   7.358 -0.3765  0.3743 -0.5315
  805MOL0     C10954   9.816   5.164   7.398  0.2849  0.2560  0.6966
  805MOL0     O10955   9.957   5.175   7.414 -1.2135 -0.1922  0.1722
  805MOL0     C10956  10.037   5.061   7.407 -0.1160  0.4454 -0.4535
  805MOL0     C10957  10.063   4.999   7.286  0.2689  0.3459 -0.3029
  805MOL0     C10958  10.127   4.882   7.271  0.8533  0.0637 -0.1971
  805MOL0     C10959  10.174   4.814   7.380  0.3202 -0.6019 -1.1975
  805MOL0     O10960  10.248   4.706   7.351  0.4841 -0.1881  0.3414
  805MOL0     C10961  10.301   4.621   7.461  1.2924  0.2620 -0.4049
  805MOL0     C10962  10.394   4.514   7.413  0.3758 -0.2065  0.5537
  805MOL0     C10963  10.456   4.436   7.532  0.6797 -0.7111  0.2170
  805MOL0     C10964  10.579   4.493   7.601  0.4400  0.0204 -0.2838
  805MOL0     C10965  10.640   4.400   7.724  0.2862 -0.0386  0.1053
  805MOL0     C10966  10.551   4.409   7.849  0.1795  1.2325 -0.1738
  805MOL0     C10967  10.511   4.540   7.916 -0.2621 -0.5338  0.0059
  805MOL0     C10968  10.626   4.596   7.994 -0.3751 -0.1983  0.1249
  805MOL0     N10969  10.726   4.667   7.913 -0.0503 -0.5732 -0.7059
  805MOL0     C10970  10.855   4.617   7.896  0.0245 -0.2403  1.1778
  805MOL0     C10971  10.915   4.696   7.804  0.4574 -0.2478 -0.7643
  805MOL0     C10972  11.052   4.698   7.741  0.1620  0.5657 -0.3601
  805MOL0     C10973  11.051   4.650   7.596 -0.4676  0.7191 -0.1089
  805MOL0     C10974  11.024   4.506   7.584  0.2357  0.7152 -0.4373
  805MOL0     C10975  11.039   4.451   7.445 -0.8520  1.3071  0.6099
  805MOL0     O10976  11.049   4.303   7.456 -0.0186 -0.3961  0.9336
  805MOL0     C10977  11.170   4.242   7.494  0.6610 -0.0835 -0.6037
  805MOL0     C10978  11.172   4.103   7.498  0.4128  0.1107  0.1927
  805MOL0     C10979  11.282   4.026   7.525  0.3907  0.1693  0.3897
  805MOL0     C10980  11.261   3.877   7.520 -0.6065  0.9679 -0.1979
  805MOL0     C10981  11.405   4.087   7.544 -0.0178  0.0014 -0.7479
  805MOL0     C10982  11.529   4.014   7.580 -0.1077 -0.1502 -0.7123
  805MOL0     O10983  11.622   4.109   7.619 -0.5779 -0.4201 -0.5774
  805MOL0     C10984  11.744   4.049   7.654 -0.1374  0.2170 -0.6800
  805MOL0     C10985  11.785   4.041   7.793 -0.1881  0.1969 -0.2552
  805MOL0     C10986  11.904   3.988   7.823 -0.6520 -0.5492  0.1396
  805MOL0     C10987  11.981   3.921   7.733 -0.4844 -0.0893 -0.9174
  805MOL0     O10988  12.082   3.846   7.780  0.6187  0.3263  0.7065
  805MOL0     C10989  12.197   3.923   7.844 -0.6792 -0.0505  0.3295
  805MOL0     C10990  12.308   3.947   7.736 -0.4760 -0.6122 -0.5593
  805MOL0     C10991  12.374   3.824   7.689 -0.0131 -0.5342  1.1071
  805MOL0     C10992  12.514   3.855   7.633  0.0789 -0.1313  0.7331
  805MOL0     C10993  12.557   3.753   7.537 -0.9327  0.1278  0.0839
  805MOL0     C10994  12.711   3.766   7.492  0.6891  0.2435 -0.4155
  805MOL0     C10995  12.785   3.853   7.594  0.9904  0.5814  0.3280
  805MOL0     C10996  12.932   3.852   7.549  0.4940  0.0811  0.3543
  805MOL0    Cl10997  13.028   3.929   7.681 -0.8112 -0.4148  0.2047
  805MOL0     C10998  11.940   3.918   7.600 -1.1652 -0.8880  0.3796
  805MOL0     C10999  11.824   3.986   7.557 -0.8990  0.7946  0.0777
  805MOL0     O11000  11.552   3.897   7.546  0.2779 -0.1357  0.5774
  805MOL0     C11001  11.404   4.231   7.545 -0.6212  0.1007 -0.1601
  805MOL0     C11002  11.293   4.304   7.517  0.3717  0.6648 -0.2799
  805MOL0     N11003  10.824   4.795   7.779  0.5505 -0.8577 -0.5333
  805MOL0     N11004  10.716   4.791   7.849 -0.6196  0.8057 -0.4263
  805MOL0     C11005  10.148   4.876   7.503  0.0842 -0.6364  0.3125
  805MOL0     C11006  10.083   4.994   7.516  0.1560  0.3152  0.2942
  805MOL0     C11007   9.747   5.303   7.411  0.2127 -0.0150  0.0663
  805MOL0     C11008   9.811   5.417   7.449 -0.4908  0.3087  0.5811
  805MOL0     C11009   9.746   5.538   7.474 -0.3237  0.0903  0.5202
  805MOL0     C11010   9.614   5.559   7.460  0.5274 -0.5680  0.6486
  805MOL0     O11011   9.549   5.678   7.485  0.1162  0.5882 -0.9009
  805MOL0     C11012   9.619   5.790   7.516 -0.2069 -0.5593  0.3380
  805MOL0     C11013   9.699   5.852   7.401 -0.1780  0.2556 -0.3105
  805MOL0     C11014   9.832   5.909   7.463  0.4354 -0.4312  1.1542
  805MOL0     C11015   9.851   6.044   7.386  0.1261 -0.2567 -0.2258
  805MOL0     C11016   9.934   6.131   7.479  0.9940  0.6175  0.7518
  805MOL0     C11017  10.000   6.205   7.544 -0.4220 -0.0699  0.0441
  805MOL0     C11018   9.545   5.451   7.418 -0.0392  0.4224  0.3945
  805MOL0     C11019   9.606   5.325   7.395  0.1143 -0.3717 -0.0830
  805MOL0     C11020   9.509   5.222   7.349 -0.7381  0.2998  0.7969
  805MOL0     H11021  10.031   5.042   7.192 -1.0793  1.2098  0.5204
  805MOL0     H11022  10.135   4.837   7.172  2.4323  2.2828 -1.1511
  805MOL0     H11023  10.219   4.581   7.521 -0.1207  1.3069 -1.5546
  805MOL0     H11024  10.361   4.687   7.524  2.5869 -0.6334 -0.6606
  805MOL0     H11025  10.323   4.457   7.352 -1.3676  1.7757  0.6339
  805MOL0     H11026  10.470   4.553   7.344  0.8648 -2.9644 -0.6110
  805MOL0     H11027  10.380   4.414   7.608 -2.3851 -0.6189 -2.6267
  805MOL0     H11028  10.485   4.341   7.484  0.9451  0.0931 -1.2623
  805MOL0     H11029  10.657   4.496   7.525  0.1907 -1.9137 -0.6769
  805MOL0     H11030  10.552   4.594   7.635 -1.9544 -0.0476 -1.7542
  805MOL0     H11031  10.739   4.443   7.744  0.9777 -1.6490  0.2477
  805MOL0     H11032  10.661   4.299   7.689 -0.8473 -0.8051  1.5654
  805MOL0     H11033  10.463   4.361   7.806  0.4056 -0.8626  1.5279
  805MOL0     H11034  10.579   4.339   7.929 -3.4387  1.3785  1.3797
  805MOL0     H11035  10.418   4.544   7.973 -0.7854  0.6024 -0.8843
  805MOL0     H11036  10.499   4.621   7.843 -2.6166  0.1851  1.0968
  805MOL0     H11037  10.587   4.676   8.058  0.3284  0.2928 -0.0378
  805MOL0     H11038  10.662   4.515   8.057  0.9944 -1.2383 -1.8833
  805MOL0     H11039  10.899   4.528   7.940  2.3596  0.3321  0.1938
  805MOL0     H11040  11.129   4.645   7.798  3.0972  2.7572 -1.9456
  805MOL0     H11041  11.093   4.799   7.743 -1.0194  1.0896 -1.3986
  805MOL0     H11042  10.975   4.694   7.531 -0.5120  1.0278  0.1490
  805MOL0     H11043  11.142   4.686   7.546 -0.8985 -1.0898 -2.3509
  805MOL0     H11044  11.103   4.461   7.646 -1.3572  1.2690  2.0985
  805MOL0     H11045  10.925   4.474   7.618  0.6748 -0.8695 -0.5672
  805MOL0     H11046  10.946   4.471   7.392 -2.8243  0.1039  3.3956
  805MOL0     H11047  11.131   4.494   7.403  0.9389 -2.0994  0.6939
  805MOL0     H11048  11.076   4.057   7.478 -0.4638  1.4816  1.0283
  805MOL0     H11049  11.160   3.844   7.495 -0.4837 -0.5481  1.1432
  805MOL0     H11050  11.271   3.826   7.616 -2.9720  0.2016 -0.2879
  805MOL0     H11051  11.331   3.834   7.448 -0.5852  1.3042 -0.3785
  805MOL0     H11052  11.722   4.079   7.873 -0.9687 -1.1010 -0.2224
  805MOL0     H11053  11.942   3.990   7.924 -2.0290 -2.5966  0.7668
  805MOL0     H11054  12.178   4.020   7.891 -0.8234  1.1283 -2.0179
  805MOL0     H11055  12.243   3.867   7.926  0.3696 -0.2086 -0.3476
  805MOL0     H11056  12.260   3.991   7.649  1.0545 -0.8617 -1.5679
  805MOL0     H11057  12.379   4.014   7.785 -2.2304 -0.1485  1.5158
  805MOL0     H11058  12.321   3.790   7.599 -0.6041  2.5524  0.1610
  805MOL0     H11059  12.355   3.743   7.760 -3.3183 -3.2764 -2.4730
  805MOL0     H11060  12.580   3.876   7.717  0.7346  3.0425 -0.4572
  805MOL0     H11061  12.522   3.946   7.574  5.4458  0.0938  1.3120
  805MOL0     H11062  12.533   3.660   7.591 -1.6452 -0.9420 -1.9703
  805MOL0     H11063  12.497   3.767   7.447 -0.4464  2.5229  0.0753
  805MOL0     H11064  12.725   3.804   7.391 -0.5510  0.0746 -0.6628
  805MOL0     H11065  12.744   3.662   7.498  0.5331  0.1879 -0.5125
  805MOL0     H11066  12.787   3.807   7.693  0.9773  1.3215  0.6754
  805MOL0     H11067  12.745   3.952   7.617  1.6792  0.6805  1.1834
  805MOL0     H11068  12.949   3.899   7.452  1.2502  0.5107  0.6817
  805MOL0     H11069  12.959   3.747   7.543  3.0470  0.7634 -1.7710
  805MOL0     H11070  11.989   3.860   7.523 -2.5722 -2.2056  0.4271
  805MOL0     H11071  11.803   3.977   7.451 -1.3322  0.3599  0.1993
  805MOL0     H11072  11.487   4.292   7.580  1.4202 -1.9126 -1.2536
  805MOL0     H11073  11.283   4.412   7.509 -0.4475  0.5552 -0.8045
  805MOL0     H11074  10.189   4.829   7.592  3.3777  2.4724  0.6698
  805MOL0     H11075  10.075   5.033   7.617  0.9681 -1.6246  1.1664
  805MOL0     H11076   9.919   5.425   7.458 -0.3682 -1.4831  0.9639
  805MOL0     H11077   9.813   5.614   7.510  0.6468 -0.1722 -0.6538
  805MOL0     H11078   9.552   5.872   7.541 -0.4642 -1.5101  3.1445
  805MOL0     H11079   9.677   5.771   7.607 -0.3248 -1.0182  0.3212
  805MOL0     H11080   9.642   5.929   7.349  0.5290  2.4435  1.9366
  805MOL0     H11081   9.726   5.774   7.329  0.7978  0.2851  0.0072
  805MOL0     H11082   9.812   5.927   7.569 -1.4282 -0.1809  0.7957
  805MOL0     H11083   9.917   5.842   7.442  0.8855  0.7822 -1.3205
  805MOL0     H11084   9.755   6.093   7.375 -0.0362  0.3031  2.7147
  805MOL0     H11085   9.898   6.024   7.289  0.0089 -3.1005  0.2190
  805MOL0     H11086  10.055   6.277   7.602 -0.2240  0.5233 -0.8555
  805MOL0     H11087   9.438   5.466   7.406 -0.3073  0.6182  2.5637
  805MOL0     H11088   9.513   5.214   7.240  1.0372  0.7479  0.7852
  805MOL0     H11089   9.524   5.122   7.391  1.5566 -1.0528 -2.7703
  805MOL0     H11090   9.410   5.260   7.375 -0.7097  0.8575  0.1262
  806MOL0     O11091   1.737  10.257   6.360  0.3260 -0.4114  0.1243
  806MOL0     C11092   1.702  10.184   6.265 -0.1645 -0.1046  0.0976
  806MOL0     O11093   1.779  10.095   6.197  0.0983 -0.0718  0.3817
  806MOL0     C11094   1.904  10.070   6.251  0.3978  0.2399 -0.2506
  806MOL0     C11095   2.021  10.108   6.179  0.4959  0.3112  0.0561
  806MOL0     C11096   2.151  10.075   6.222 -0.4291  1.0709 -0.3264
  806MOL0     C11097   2.160  10.013   6.350 -0.6983 -0.2911  1.3762
  806MOL0     O11098   2.287   9.977   6.389 -1.1425 -0.9182  0.0790
  806MOL0     C11099   2.303   9.878   6.492  0.2163  0.3202  0.4134
  806MOL0     C11100   2.458   9.850   6.506  0.7864 -0.5988 -0.1204
  806MOL0     C11101   2.516   9.817   6.368 -0.4382 -0.5008  0.4825
  806MOL0     C11102   2.656   9.760   6.382 -0.1674  1.1161  0.3367
  806MOL0     C11103   2.701   9.709   6.250 -0.3229 -0.2549 -0.5830
  806MOL0     C11104   2.855   9.676   6.252  0.2944 -0.5928 -0.6026
  806MOL0     C11105   2.906   9.582   6.370  0.1096  0.8922 -0.0069
  806MOL0     C11106   3.052   9.534   6.341 -0.0064  0.4680  0.2903
  806MOL0     N11107   3.137   9.637   6.293 -0.1495 -0.3263  0.9043
  806MOL0     C11108   3.155   9.670   6.154 -0.6280  1.0280 -0.0717
  806MOL0     C11109   3.274   9.725   6.145  0.1118 -0.5032  0.6573
  806MOL0     C11110   3.349   9.757   6.026  0.7596 -0.6566  0.4672
  806MOL0     C11111   3.489   9.786   6.062  0.9040 -0.4093 -0.3600
  806MOL0     C11112   3.556   9.829   5.933  0.3377 -0.2685 -0.8358
  806MOL0     C11113   3.707   9.850   5.962  0.5090 -0.0654  0.1766
  806MOL0     O11114   3.768   9.896   5.841  0.0968 -0.5324 -0.5188
  806MOL0     C11115   3.903   9.925   5.853  0.5384 -0.3994 -0.7452
  806MOL0     C11116   3.951  10.001   5.754 -0.4177 -0.0081 -0.0182
  806MOL0     C11117   4.092  10.037   5.748  0.0989 -0.1900 -1.1532
  806MOL0     C11118   4.137  10.127   5.634  0.7565 -0.6765 -0.1164
  806MOL0     C11119   4.175  10.001   5.861 -0.3016  0.5677  0.4357
  806MOL0     C11120   4.316  10.042   5.879  0.5195 -0.0037 -0.1156
  806MOL0     O11121   4.396  10.056   5.770 -0.0501 -0.2202 -0.1127
  806MOL0     C11122   4.534  10.067   5.777  0.9775  0.7507  0.0196
  806MOL0     C11123   4.609  10.040   5.897 -1.2252 -0.5959 -0.6218
  806MOL0     C11124   4.749  10.056   5.897  0.1425 -0.0562 -0.0306
  806MOL0     C11125   4.817  10.095   5.782 -0.1605  0.6238  0.4906
  806MOL0     O11126   4.956  10.104   5.777 -0.3097  0.1950  0.3886
  806MOL0     C11127   5.019  10.197   5.866 -0.4801 -0.6408  0.4062
  806MOL0     C11128   5.104  10.278   5.771 -1.0262  0.2012 -0.3389
  806MOL0     C11129   5.162  10.408   5.837  0.7629  0.9874  0.0525
  806MOL0     C11130   5.283  10.380   5.921 -0.4039  1.0972 -0.6143
  806MOL0     C11131   5.322  10.513   5.989 -1.2351  0.7177 -0.9233
  806MOL0     C11132   5.453  10.496   6.061  0.2861 -0.0218  0.0292
  806MOL0     C11133   5.457  10.596   6.181 -1.2606 -0.0968  0.6328
  806MOL0     C11134   5.581  10.575   6.269  0.0506 -1.0929 -0.0311
  806MOL0    Cl11135   5.553  10.453   6.385  0.1142 -0.1990  0.0386
  806MOL0     C11136   4.748  10.121   5.669  0.4392  0.5273  0.1171
  806MOL0     C11137   4.611  10.105   5.664 -0.4287  0.0470 -0.5578
  806MOL0     O11138   4.338  10.084   5.995  0.1959  0.1802  0.4630
  806MOL0     C11139   4.115   9.940   5.974  0.0201 -0.3845 -0.2035
  806MOL0     C11140   3.983   9.904   5.964 -0.1027  0.5665 -0.3938
  806MOL0     N11141   3.315   9.751   6.280  1.1552  0.5433 -0.3653
  806MOL0     N11142   3.236   9.697   6.362 -0.7147  0.3952 -0.5483
  806MOL0     C11143   2.043   9.988   6.426  0.5310 -0.9362  0.3240
  806MOL0     C11144   1.917  10.021   6.378  0.2569  0.5261 -0.2381
  806MOL0     C11145   1.562  10.194   6.216  0.2991 -0.0722  0.0225
  806MOL0     C11146   1.494  10.073   6.192 -0.0518  0.1033  0.3788
  806MOL0     C11147   1.365  10.078   6.141  0.4150 -1.0290 -0.3238
  806MOL0     C11148   1.299  10.200   6.123 -0.3182  0.4303  0.5441
  806MOL0     O11149   1.173  10.200   6.074  0.4452 -0.3433 -0.4810
  806MOL0     C11150   1.092  10.291   6.148  0.6883  0.5415  0.1921
  806MOL0     C11151   1.059  10.232   6.283  0.5348 -0.3976  0.2529
  806MOL0     C11152   0.947  10.123   6.296 -0.8458  0.2281 -0.2224
  806MOL0     C11153   0.987   9.979   6.244  0.3547 -0.5282 -0.0923
  806MOL0     C11154   0.869   9.894   6.240 -0.0328  0.1517 -0.1657
  806MOL0     C11155   0.780   9.817   6.243 -0.0238  0.5274 -0.5138
  806MOL0     C11156   1.377  10.318   6.137 -0.0607  0.5756 -0.5800
  806MOL0     C11157   1.510  10.314   6.174  0.4451  0.5815  0.3487
  806MOL0     C11158   1.584  10.449   6.162  0.2074  0.0251 -0.7240
  806MOL0     H11159   2.014  10.160   6.085  1.1454  0.9850  0.3662
  806MOL0     H11160   2.240  10.093   6.164  0.3525  0.2494  0.5918
  806MOL0     H11161   2.257   9.785   6.460 -0.7852  1.8133 -2.8681
  806MOL0     H11162   2.270   9.922   6.587  3.5505  3.2707  0.4270
  806MOL0     H11163   2.517   9.932   6.549  0.0294  0.8839 -1.7753
  806MOL0     H11164   2.451   9.763   6.571 -6.8222  0.3179  1.2923
  806MOL0     H11165   2.460   9.746   6.307  0.7741 -1.9110  0.9432
  806MOL0     H11166   2.532   9.905   6.305  1.5039 -0.5320  0.8462
  806MOL0     H11167   2.726   9.833   6.425  1.0880  1.6691 -2.4674
  806MOL0     H11168   2.646   9.676   6.452  2.0912  1.2387  0.9028
  806MOL0     H11169   2.682   9.780   6.169 -3.0127  1.8377  1.6701
  806MOL0     H11170   2.648   9.615   6.233  0.3727 -0.5463 -1.2050
  806MOL0     H11171   2.877   9.625   6.158 -2.3553  1.0234 -2.2108
  806MOL0     H11172   2.919   9.764   6.264 -0.7020  0.2590 -1.3778
  806MOL0     H11173   2.837   9.498   6.376 -1.3878  1.9841 -0.9686
  806MOL0     H11174   2.903   9.637   6.465 -2.0945  0.8248  0.0098
  806MOL0     H11175   3.096   9.484   6.427  2.5028 -0.2526 -1.3085
  806MOL0     H11176   3.044   9.451   6.269 -1.0889  0.4534  0.4068
  806MOL0     H11177   3.085   9.633   6.079 -1.4419  0.5582  0.9028
  806MOL0     H11178   3.296   9.844   5.987 -2.6217 -1.2452  3.1952
  806MOL0     H11179   3.349   9.672   5.957  0.5133 -0.7271  0.5513
  806MOL0     H11180   3.498   9.866   6.136  0.9547 -1.6940  1.0469
  806MOL0     H11181   3.540   9.698   6.102  0.9079  1.1864  3.6203
  806MOL0     H11182   3.557   9.734   5.878  2.3309  0.0631 -1.4609
  806MOL0     H11183   3.508   9.910   5.877  0.3081  0.1573 -0.1950
  806MOL0     H11184   3.721   9.916   6.048  1.9581  0.9434 -0.7834
  806MOL0     H11185   3.745   9.755   5.999 -3.0294 -0.8957  2.0660
  806MOL0     H11186   3.892  10.024   5.665 -0.4079  1.1623  0.2538
  806MOL0     H11187   4.234  10.176   5.648 -0.1389  1.4962 -0.9619
  806MOL0     H11188   4.069  10.213   5.633  3.2329  1.4077 -0.5113
  806MOL0     H11189   4.147  10.067   5.544 -0.7441 -0.8033 -0.2199
  806MOL0     H11190   4.566  10.016   5.994  3.0334 -1.9654  1.1858
  806MOL0     H11191   4.813  10.051   5.984 -0.9626 -0.4606  0.7943
  806MOL0     H11192   4.948  10.252   5.928 -1.1009  1.1974 -1.8125
  806MOL0     H11193   5.091  10.144   5.928  0.0086 -2.1916 -1.3869
  806MOL0     H11194   5.183  10.215   5.731 -1.7985  0.7026 -2.8718
  806MOL0     H11195   5.040  10.317   5.691 -1.4920  0.9090  0.3528
  806MOL0     H11196   5.080  10.436   5.903 -1.7491 -2.1438 -1.4852
  806MOL0     H11197   5.189  10.486   5.766  1.2143  3.7824  3.0355
  806MOL0     H11198   5.365  10.345   5.858 -1.9343 -1.4092 -1.3401
  806MOL0     H11199   5.267  10.309   6.003  0.7506  1.1720 -0.3008
  806MOL0     H11200   5.334  10.588   5.910 -0.1078  2.6109  0.9542
  806MOL0     H11201   5.237  10.554   6.044  0.1310  0.5029  1.4659
  806MOL0     H11202   5.532  10.513   5.988 -1.5775 -0.6341 -2.2706
  806MOL0     H11203   5.473  10.398   6.105  2.9840  1.6684  3.0413
  806MOL0     H11204   5.363  10.584   6.234 -1.4792 -0.2567  0.2172
  806MOL0     H11205   5.470  10.694   6.133  0.3204 -0.2958  0.5725
  806MOL0     H11206   5.612  10.672   6.310  1.7407 -0.7930 -1.8877
  806MOL0     H11207   5.665  10.538   6.210 -0.5600  2.4593 -3.5435
  806MOL0     H11208   4.798  10.151   5.578 -0.0198  0.2569 -0.2235
  806MOL0     H11209   4.563  10.134   5.571 -1.5098 -3.9151 -1.4141
  806MOL0     H11210   4.168   9.915   6.065  0.8162 -1.7769 -1.0134
  806MOL0     H11211   3.935   9.849   6.044  1.5980 -2.0492 -1.0527
  806MOL0     H11212   2.042   9.962   6.531  0.5572  2.0995  1.1841
  806MOL0     H11213   1.824  10.006   6.431 -1.0093 -0.9125 -2.6811
  806MOL0     H11214   1.550   9.981   6.209  0.3719  0.4140  0.6872
  806MOL0     H11215   1.312   9.983   6.138 -2.0313  0.0228  3.5604
  806MOL0     H11216   1.147  10.384   6.169 -0.8490  1.4932  0.1320
  806MOL0     H11217   1.003  10.313   6.089 -1.1793 -0.8942  2.3224
  806MOL0     H11218   1.048  10.317   6.352  1.2988 -0.6140  0.6557
  806MOL0     H11219   1.147  10.181   6.323  0.8215 -1.5050 -1.6715
  806MOL0     H11220   0.909  10.106   6.397 -1.3364 -0.5857 -0.5338
  806MOL0     H11221   0.861  10.151   6.235 -1.8711 -0.0090  1.0602
  806MOL0     H11222   1.063   9.933   6.307 -0.4897  2.2060  3.2544
  806MOL0     H11223   1.020   9.992   6.140  2.7535  0.1626  0.7042
  806MOL0     H11224   0.698   9.748   6.252  1.3921 -1.2681 -0.7230
  806MOL0     H11225   1.340  10.404   6.082 -1.1386 -0.0911 -0.9114
  806MOL0     H11226   1.581  10.491   6.263  0.7967  0.0174 -0.7009
  806MOL0     H11227   1.685  10.440   6.121 -0.1205 -0.2359 -1.4951
  806MOL0     H11228   1.529  10.519   6.099  1.4258  2.2092  0.5200
  807MOL0     O11229   5.851   1.559   1.474  0.0570  0.4663  0.0867
  807MOL0     C11230   5.761   1.497   1.409 -0.3801 -0.1967  0.8002
  807MOL0     O11231   5.786   1.403   1.315 -0.5249 -0.2544 -0.4010
  807MOL0     C11232   5.908   1.389   1.266 -0.3039 -0.0414 -0.3703
  807MOL0     C11233   6.006   1.325   1.344 -0.0394  1.3916  0.4535
  807MOL0     C11234   6.122   1.282   1.288  0.9419  0.8795  0.4767
  807MOL0     C11235   6.146   1.302   1.156  0.2203  0.7111  1.1812
  807MOL0     O11236   6.244   1.231   1.095  0.3534 -0.3783  0.0578
  807MOL0     C11237   6.372   1.304   1.113  0.8228 -0.2008  0.2524
  807MOL0     C11238   6.459   1.270   0.999 -0.1969  0.0087 -0.1091
  807MOL0     C11239   6.612   1.267   1.038 -0.1341  0.4579 -0.1781
  807MOL0     C11240   6.672   1.397   1.090  0.6353  0.0506 -0.1531
  807MOL0     C11241   6.826   1.395   1.115 -0.7526 -1.3371 -0.2319
  807MOL0     C11242   6.874   1.526   1.172  0.1467 -0.1711  0.1027
  807MOL0     C11243   6.949   1.617   1.081  0.6908  0.9138  1.0320
  807MOL0     C11244   6.979   1.754   1.141  0.0528  0.4225  0.1323
  807MOL0     N11245   7.031   1.853   1.041  0.8483 -0.3249  0.4567
  807MOL0     C11246   7.157   1.846   0.974  0.2014  0.0470  0.1901
  807MOL0     C11247   7.152   1.959   0.889 -0.3962 -0.0577 -0.1969
  807MOL0     C11248   7.266   1.984   0.795 -0.2541  0.0634 -0.0464
  807MOL0     C11249   7.301   2.130   0.817 -0.5412  0.6678  0.1266
  807MOL0     C11250   7.392   2.195   0.712  0.5203 -0.0043  0.6586
  807MOL0     C11251   7.331   2.191   0.562 -0.0343  0.6888 -0.2222
  807MOL0     O11252   7.383   2.296   0.478  0.1506 -0.3110 -0.1235
  807MOL0     C11253   7.506   2.282   0.426 -0.1190  0.5340 -0.0465
  807MOL0     C11254   7.595   2.172   0.431 -0.1325  0.2664  0.2538
  807MOL0     C11255   7.720   2.169   0.364 -0.1667  0.1134 -0.6568
  807MOL0     C11256   7.809   2.053   0.405 -0.3688  0.2807 -0.5927
  807MOL0     C11257   7.754   2.266   0.272 -0.4790 -0.1538 -0.6536
  807MOL0     C11258   7.885   2.274   0.205  0.2342 -0.0005 -0.5628
  807MOL0     O11259   7.904   2.378   0.124  0.3340  0.4013 -0.4791
  807MOL0     C11260   8.025   2.379   0.056  0.9741 -0.6210  0.5503
  807MOL0     C11261   8.025   2.353  -0.079 -0.1696 -0.2120 -0.0443
  807MOL0     C11262   8.134   2.397  -0.157  0.8451  0.0503 -0.5520
  807MOL0     C11263   8.253   2.449  -0.090 -0.0088  0.5510 -0.7273
  807MOL0     O11264   8.367   2.484  -0.149  0.3331 -0.4541  0.0408
  807MOL0     C11265   8.390   2.419  -0.275 -0.2870 -0.7212 -0.0474
  807MOL0     C11266   8.531   2.466  -0.313 -1.1838 -0.0275  0.5244
  807MOL0     C11267   8.587   2.381  -0.433  0.1331  0.0889  0.4770
  807MOL0     C11268   8.724   2.428  -0.480 -0.4566  0.2628  0.0790
  807MOL0     C11269   8.817   2.306  -0.520  0.4869  0.8740  0.2363
  807MOL0     C11270   8.750   2.209  -0.623 -0.2644 -0.9527  0.0615
  807MOL0     C11271   8.717   2.281  -0.757 -0.4740 -0.0005  0.4042
  807MOL0     C11272   8.648   2.190  -0.860 -0.6169  0.0874  0.2989
  807MOL0    Cl11273   8.494   2.133  -0.797  0.2432  0.6221  0.5719
  807MOL0     C11274   8.252   2.463   0.052  1.1324 -0.8897 -0.2171
  807MOL0     C11275   8.133   2.434   0.120  0.2843 -0.4474  0.1632
  807MOL0     O11276   7.970   2.193   0.228 -0.4179  0.4957  0.0541
  807MOL0     C11277   7.657   2.373   0.252  0.4340  0.0055 -0.2435
  807MOL0     C11278   7.539   2.378   0.335  0.0658  0.7595  0.3532
  807MOL0     N11279   7.022   2.013   0.902  0.2723  0.3306  0.4135
  807MOL0     N11280   6.966   1.960   1.001  0.5426 -0.7131 -0.1510
  807MOL0     C11281   6.048   1.361   1.068  0.4457  0.3098  0.3569
  807MOL0     C11282   5.924   1.398   1.129  0.1631  0.7334 -0.0176
  807MOL0     C11283   5.612   1.520   1.443 -0.8775  0.2364 -0.2084
  807MOL0     C11284   5.510   1.429   1.396 -0.1935 -0.3073  0.5921
  807MOL0     C11285   5.375   1.458   1.423 -1.0025  0.0425  0.1641
  807MOL0     C11286   5.335   1.560   1.515  0.5732 -0.3250 -0.6106
  807MOL0     O11287   5.204   1.565   1.557  0.3228  1.3094 -0.6453
  807MOL0     C11288   5.156   1.626   1.678 -0.1349  0.3591  0.0098
  807MOL0     C11289   5.165   1.546   1.809  0.3439  0.2844 -0.2961
  807MOL0     C11290   5.184   1.396   1.778 -0.1525  0.2120  0.2185
  807MOL0     C11291   5.126   1.328   1.897  0.0398  0.2289 -0.2367
  807MOL0     C11292   5.156   1.187   1.887  0.1663 -0.2361  0.2144
  807MOL0     C11293   5.190   1.071   1.924 -0.2935  0.4465  0.1217
  807MOL0     C11294   5.436   1.636   1.581  0.6652  0.3287  0.3438
  807MOL0     C11295   5.571   1.627   1.526  0.2804  0.1617  0.7472
  807MOL0     C11296   5.659   1.731   1.590  0.1056 -0.1246  0.2001
  807MOL0     H11297   5.992   1.309   1.451  1.7746  0.9939  0.6733
  807MOL0     H11298   6.198   1.249   1.358 -0.7440 -1.1401  1.4542
  807MOL0     H11299   6.413   1.283   1.212 -3.7755  1.7331  2.9440
  807MOL0     H11300   6.351   1.412   1.118  0.4684 -0.3265  3.1019
  807MOL0     H11301   6.443   1.165   0.972 -2.5481 -0.2817  2.0905
  807MOL0     H11302   6.437   1.332   0.911 -4.4135  1.8890  1.9707
  807MOL0     H11303   6.618   1.188   1.113  3.0408  1.4365  0.7512
  807MOL0     H11304   6.662   1.231   0.948 -2.2874 -1.0653 -0.8440
  807MOL0     H11305   6.652   1.474   1.016 -0.2165  0.1750  0.1933
  807MOL0     H11306   6.622   1.428   1.182  0.9988 -0.5981  0.2710
  807MOL0     H11307   6.877   1.374   1.021  3.3824  1.9977  0.9737
  807MOL0     H11308   6.842   1.322   1.195 -2.6575  0.7133  2.1731
  807MOL0     H11309   6.793   1.589   1.209  0.1920  1.2075 -1.9509
  807MOL0     H11310   6.931   1.504   1.262 -0.3393  1.4325  0.8375
  807MOL0     H11311   6.869   1.633   1.008 -1.2371  4.0518  3.6025
  807MOL0     H11312   7.042   1.580   1.035 -0.5751 -0.4218 -0.5961
  807MOL0     H11313   6.889   1.800   1.183  1.0417  2.5069  0.1192
  807MOL0     H11314   7.050   1.748   1.224  1.5613  0.5430 -1.0901
  807MOL0     H11315   7.235   1.772   0.980  1.1180  0.9834  0.1609
  807MOL0     H11316   7.220   1.972   0.697 -1.7862 -0.3911  0.7034
  807MOL0     H11317   7.356   1.922   0.803  0.6197  1.3739  0.8089
  807MOL0     H11318   7.214   2.196   0.817  0.0359  1.4525  0.5822
  807MOL0     H11319   7.349   2.147   0.914 -1.6460  1.7900  0.5116
  807MOL0     H11320   7.390   2.300   0.742 -0.2091  0.6883 -1.6318
  807MOL0     H11321   7.498   2.168   0.717  0.8736  0.3790 -2.7429
  807MOL0     H11322   7.336   2.091   0.519 -2.1500  1.4663 -2.4749
  807MOL0     H11323   7.223   2.210   0.564 -0.6254 -2.1916 -0.4732
  807MOL0     H11324   7.576   2.087   0.496  2.0248  0.9430  1.9391
  807MOL0     H11325   7.898   2.085   0.460  0.8275 -1.6265 -1.3167
  807MOL0     H11326   7.835   1.988   0.321  2.0274 -2.2056  1.8284
  807MOL0     H11327   7.760   1.978   0.467 -0.5246  1.6970  1.0537
  807MOL0     H11328   7.939   2.300  -0.120 -0.0197 -0.2055 -0.3706
  807MOL0     H11329   8.113   2.383  -0.262  1.2053  0.0263 -0.6205
  807MOL0     H11330   8.395   2.311  -0.258 -1.7636 -0.7660  0.1995
  807MOL0     H11331   8.322   2.450  -0.354  2.4913  0.2713 -2.1921
  807MOL0     H11332   8.533   2.573  -0.334 -3.0091  0.0239  0.4990
  807MOL0     H11333   8.590   2.445  -0.223  1.0449  0.7793 -0.6697
  807MOL0     H11334   8.529   2.384  -0.526  3.3503  0.1868 -1.6775
  807MOL0     H11335   8.575   2.278  -0.396  1.9163 -0.8625 -1.3983
  807MOL0     H11336   8.777   2.477  -0.397  1.3994  1.7443 -1.8629
  807MOL0     H11337   8.712   2.503  -0.558 -0.4764  0.8839  0.6688
  807MOL0     H11338   8.909   2.340  -0.568  1.2946 -1.8106 -0.3214
  807MOL0     H11339   8.846   2.252  -0.430 -2.5791 -0.9114  0.3112
  807MOL0     H11340   8.667   2.151  -0.583 -0.4199 -0.0979  1.0283
  807MOL0     H11341   8.830   2.142  -0.656 -0.8022 -0.7912 -1.6850
  807MOL0     H11342   8.817   2.306  -0.792 -1.0424 -0.0527 -1.3772
  807MOL0     H11343   8.664   2.374  -0.736  3.1312  2.7546 -1.6139
  807MOL0     H11344   8.704   2.101  -0.889 -0.4412  0.7550 -1.5451
  807MOL0     H11345   8.633   2.236  -0.958 -0.4809 -2.8392 -1.1879
  807MOL0     H11346   8.327   2.510   0.116 -0.9590  0.8182  1.1423
  807MOL0     H11347   8.138   2.457   0.226  2.3543 -0.4053  0.1020
  807MOL0     H11348   7.676   2.456   0.186  1.7383  0.2263  0.3830
  807MOL0     H11349   7.467   2.457   0.313  0.5510  1.3063  0.7093
  807MOL0     H11350   6.062   1.342   0.962 -3.0891  0.3198 -0.2378
  807MOL0     H11351   5.839   1.436   1.074 -0.4130  1.9769  1.6550
  807MOL0     H11352   5.555   1.360   1.325  2.4099  1.1691  0.7082
  807MOL0     H11353   5.302   1.390   1.380 -0.2646 -0.4986 -0.2620
  807MOL0     H11354   5.202   1.724   1.687  2.6083 -0.9131  0.9763
  807MOL0     H11355   5.048   1.627   1.663 -0.2577 -2.0622  0.3026
  807MOL0     H11356   5.076   1.560   1.871  2.3357  0.6069  2.6997
  807MOL0     H11357   5.255   1.586   1.857  1.3304 -0.1800 -1.6988
  807MOL0     H11358   5.139   1.362   1.685  3.7400 -3.1114 -0.6862
  807MOL0     H11359   5.291   1.376   1.773 -0.7146 -4.6998  2.1335
  807MOL0     H11360   5.017   1.343   1.890  0.3848  2.4577 -1.7046
  807MOL0     H11361   5.162   1.367   1.992  0.4352 -0.8874  0.0915
  807MOL0     H11362   5.216   0.972   1.956  2.7499  0.1329 -2.8454
  807MOL0     H11363   5.412   1.710   1.657 -2.6788  1.8238 -1.9537
  807MOL0     H11364   5.691   1.695   1.688 -1.2255 -0.8138  0.4036
  807MOL0     H11365   5.747   1.765   1.535  0.9614  0.7120  2.0097
  807MOL0     H11366   5.606   1.825   1.612  0.6666  0.4156 -0.7066
  808MOL0     O11367   8.505   6.528   5.610  0.4090  0.3474  0.5552
  808MOL0     C11368   8.457   6.569   5.714  0.0432  0.7706 -0.1951
  808MOL0     O11369   8.492   6.532   5.840  0.2245 -0.2576  0.3605
  808MOL0     C11370   8.607   6.455   5.846 -0.8690 -0.5388 -0.4253
  808MOL0     C11371   8.605   6.318   5.839 -0.2400 -0.4078  0.5217
  808MOL0     C11372   8.705   6.239   5.877 -0.5422 -0.3219 -0.1695
  808MOL0     C11373   8.827   6.293   5.904  0.1541 -1.1135 -0.2524
  808MOL0     O11374   8.935   6.211   5.921  0.2087 -0.2356  0.0674
  808MOL0     C11375   9.047   6.254   5.840 -0.1667 -0.3889 -0.3332
  808MOL0     C11376   9.020   6.212   5.693  0.0105 -0.0541 -0.5452
  808MOL0     C11377   9.097   6.314   5.606 -0.0171 -0.8933  0.4774
  808MOL0     C11378   9.249   6.323   5.620  0.1788 -0.0452 -0.4631
  808MOL0     C11379   9.320   6.409   5.500 -0.4304 -0.4080  0.1204
  808MOL0     C11380   9.447   6.484   5.549 -0.3623  1.0391  0.3026
  808MOL0     C11381   9.515   6.562   5.434 -0.6475 -0.0523  0.6199
  808MOL0     C11382   9.641   6.630   5.491  0.6869  0.3531  0.7609
  808MOL0     N11383   9.735   6.657   5.384  0.3008 -0.2268  0.0035
  808MOL0     C11384   9.711   6.684   5.253 -0.3414  1.1043  0.4092
  808MOL0     C11385   9.830   6.722   5.211 -0.0474 -0.1611 -0.5186
  808MOL0     C11386   9.860   6.760   5.069  0.0810  1.2939 -0.8015
  808MOL0     C11387   9.918   6.643   4.988 -0.1388 -0.3670 -1.2673
  808MOL0     C11388   9.871   6.658   4.842 -0.2956 -0.4556  0.4374
  808MOL0     C11389   9.964   6.561   4.782 -0.7727 -0.0647 -0.0731
  808MOL0     O11390   9.920   6.538   4.646  0.9805 -0.0403  0.2358
  808MOL0     C11391  10.012   6.459   4.580 -0.2274 -0.5644 -0.5208
  808MOL0     C11392  10.073   6.512   4.464 -0.4560  0.1132 -0.2119
  808MOL0     C11393  10.146   6.430   4.374  0.5689 -0.0527 -0.5433
  808MOL0     C11394  10.206   6.503   4.258  0.7104  0.4710  0.1812
  808MOL0     C11395  10.169   6.293   4.404 -1.6455 -0.3357  0.1519
  808MOL0     C11396  10.260   6.198   4.322 -0.5785 -0.6653 -0.1189
  808MOL0     O11397  10.312   6.252   4.208  0.1036 -0.0051 -0.2797
  808MOL0     C11398  10.385   6.195   4.111  0.2849 -0.7080  0.3278
  808MOL0     C11399  10.427   6.279   4.010  0.6504  0.4040  0.2667
  808MOL0     C11400  10.502   6.232   3.905 -0.1299  0.6511 -0.0907
  808MOL0     C11401  10.529   6.095   3.904 -0.1397 -0.2200 -0.4738
  808MOL0     O11402  10.605   6.035   3.809 -0.7592 -1.1097  0.6992
  808MOL0     C11403  10.553   6.035   3.675 -0.6276 -0.0518 -0.3007
  808MOL0     C11404  10.612   5.919   3.594 -0.3429  0.5366 -0.3285
  808MOL0     C11405  10.584   5.778   3.639 -0.7622 -0.0512 -0.3803
  808MOL0     C11406  10.433   5.746   3.632 -0.2315  0.9706  0.2395
  808MOL0     C11407  10.389   5.701   3.485 -0.4878  0.0320  0.8412
  808MOL0     C11408  10.240   5.653   3.464  0.1232  0.1694 -0.2068
  808MOL0     C11409  10.231   5.503   3.512 -0.2934 -0.2372 -0.2872
  808MOL0     C11410  10.102   5.439   3.476 -0.3668  0.5747 -0.4607
  808MOL0    Cl11411   9.974   5.483   3.589 -0.0594 -0.2475 -0.1211
  808MOL0     C11412  10.492   6.004   4.004  0.6452  0.0881 -0.1979
  808MOL0     C11413  10.419   6.056   4.112 -0.8661  0.1395  1.3153
  808MOL0     O11414  10.261   6.078   4.349 -0.0754  0.3041  0.1858
  808MOL0     C11415  10.115   6.243   4.518  0.7852  0.2768  0.0157
  808MOL0     C11416  10.031   6.317   4.600  0.5145 -0.7589 -0.8716
  808MOL0     N11417   9.912   6.741   5.316  0.4784  0.4019  0.6225
  808MOL0     N11418   9.857   6.694   5.418  0.4948  0.1919  1.2041
  808MOL0     C11419   8.832   6.433   5.927  1.2118  0.6881 -0.1171
  808MOL0     C11420   8.721   6.515   5.898 -0.7629  0.1701 -0.2308
  808MOL0     C11421   8.345   6.668   5.702  0.1806  0.1060  0.2169
  808MOL0     C11422   8.271   6.660   5.581  0.1261 -0.0693  0.1099
  808MOL0     C11423   8.177   6.753   5.546 -0.1554  1.0960 -0.7817
  808MOL0     C11424   8.142   6.855   5.640 -0.5717 -0.3526  0.1322
  808MOL0     O11425   8.057   6.954   5.603 -0.1304  0.0301  0.8681
  808MOL0     C11426   8.096   7.091   5.620 -0.3679  1.4459  0.1246
  808MOL0     C11427   8.039   7.153   5.749 -0.1431  0.0472  0.5685
  808MOL0     C11428   7.990   7.295   5.727 -0.1600 -0.3568 -0.2606
  808MOL0     C11429   8.095   7.405   5.754  0.7407  0.3469  0.0373
  808MOL0     C11430   8.143   7.453   5.621 -0.0542 -0.5602 -0.0137
  808MOL0     C11431   8.163   7.504   5.513  0.5446  0.0347  0.2187
  808MOL0     C11432   8.202   6.853   5.764  0.2371  0.7032 -0.8829
  808MOL0     C11433   8.294   6.757   5.796  0.8487  0.1066 -0.2231
  808MOL0     C11434   8.358   6.769   5.934  0.0300 -0.3371  0.3496
  808MOL0     H11435   8.518   6.266   5.799 -0.3151  0.3866 -0.3826
  808MOL0     H11436   8.697   6.131   5.871  0.7823 -0.3333 -2.6043
  808MOL0     H11437   9.126   6.188   5.877  0.2926  1.5487  2.3656
  808MOL0     H11438   9.073   6.359   5.857 -1.8550 -0.5314  4.2170
  808MOL0     H11439   9.066   6.114   5.682  1.4564  0.3529  1.3241
  808MOL0     H11440   8.913   6.217   5.669 -0.1596 -1.0343 -0.0510
  808MOL0     H11441   9.070   6.293   5.503 -0.6080 -1.0115  0.6541
  808MOL0     H11442   9.055   6.412   5.630 -0.2315 -0.6266 -0.9333
  808MOL0     H11443   9.274   6.363   5.719 -0.3339 -3.4666  1.2045
  808MOL0     H11444   9.297   6.225   5.609  1.2438  0.7234 -3.7403
  808MOL0     H11445   9.257   6.490   5.463  0.3134  0.6022  0.9752
  808MOL0     H11446   9.352   6.348   5.415  0.4110 -0.2553  0.3149
  808MOL0     H11447   9.432   6.556   5.630  1.0823  0.2478  1.3277
  808MOL0     H11448   9.515   6.407   5.588 -0.1909  0.0363 -1.8165
  808MOL0     H11449   9.441   6.640   5.412 -1.5386 -1.1687 -0.4568
  808MOL0     H11450   9.532   6.498   5.346  2.8629 -1.2448  1.9925
  808MOL0     H11451   9.610   6.718   5.550 -1.8971  1.0943 -1.4881
  808MOL0     H11452   9.674   6.557   5.566 -1.2450 -0.3425  1.0004
  808MOL0     H11453   9.621   6.662   5.197 -0.5805  0.0920  1.1572
  808MOL0     H11454   9.940   6.832   5.092  2.3723 -2.4635  5.5624
  808MOL0     H11455   9.779   6.814   5.018  0.9654  3.0661 -0.4249
  808MOL0     H11456  10.025   6.657   5.005 -0.5185  1.2271  0.1133
  808MOL0     H11457   9.887   6.547   5.030 -1.1672  0.2065 -0.6886
  808MOL0     H11458   9.766   6.630   4.829 -0.6835 -0.1944  2.6208
  808MOL0     H11459   9.880   6.761   4.807  0.6508 -0.8759 -0.6403
  808MOL0     H11460  10.068   6.596   4.781 -1.0154  0.6660 -0.9445
  808MOL0     H11461   9.952   6.473   4.845 -2.2028  1.2746  1.6136
  808MOL0     H11462  10.055   6.617   4.444  1.4452  1.0126  2.2765
  808MOL0     H11463  10.158   6.599   4.239 -0.6573  0.2542  2.2336
  808MOL0     H11464  10.189   6.441   4.169  0.8288 -2.5303  2.1199
  808MOL0     H11465  10.314   6.500   4.272  0.4299 -1.9725  2.7874
  808MOL0     H11466  10.410   6.386   4.009  1.9507  0.6198  0.3190
  808MOL0     H11467  10.522   6.299   3.821  0.2619 -0.5383 -0.9704
  808MOL0     H11468  10.447   6.026   3.701 -0.0101 -0.6711  2.3853
  808MOL0     H11469  10.573   6.133   3.632  2.6653 -1.3901 -2.1888
  808MOL0     H11470  10.569   5.928   3.494  0.1998 -0.6653 -0.6861
  808MOL0     H11471  10.720   5.940   3.591 -0.7026  2.8664  0.5878
  808MOL0     H11472  10.626   5.772   3.740  0.0115  1.4838 -0.5810
  808MOL0     H11473  10.632   5.707   3.572 -0.2955  0.8829 -1.0724
  808MOL0     H11474  10.372   5.833   3.657 -2.6746 -0.9460  1.2895
  808MOL0     H11475  10.426   5.661   3.700  1.8538 -1.3141 -2.1585
  808MOL0     H11476  10.410   5.786   3.420  2.9655  0.4782  2.3207
  808MOL0     H11477  10.449   5.616   3.451 -0.6466 -0.3328  1.4523
  808MOL0     H11478  10.220   5.662   3.357  3.8309  2.7297 -0.8936
  808MOL0     H11479  10.178   5.710   3.534  1.1118 -1.1239  1.8323
  808MOL0     H11480  10.255   5.487   3.617  0.3183 -0.9561 -0.5275
  808MOL0     H11481  10.313   5.452   3.461 -1.4067 -0.2077 -2.2250
  808MOL0     H11482  10.128   5.333   3.474 -0.8459  0.4532 -2.6678
  808MOL0     H11483  10.070   5.468   3.375 -5.1593  0.0858  0.6741
  808MOL0     H11484  10.511   5.898   3.991 -1.2291 -0.1009 -1.9018
  808MOL0     H11485  10.384   5.983   4.183 -1.3471 -2.0519 -1.0216
  808MOL0     H11486  10.132   6.138   4.536  0.6317  0.1983 -0.3017
  808MOL0     H11487   9.982   6.275   4.687  2.3861  0.9480  1.1207
  808MOL0     H11488   8.929   6.473   5.955  2.3679  0.1243 -2.9233
  808MOL0     H11489   8.715   6.622   5.918 -2.5307  0.0588  0.0026
  808MOL0     H11490   8.291   6.586   5.505 -2.4236  0.6925 -1.4333
  808MOL0     H11491   8.116   6.749   5.456 -2.2247 -0.2446  0.5720
  808MOL0     H11492   8.204   7.106   5.618 -0.2271  0.8075  1.8013
  808MOL0     H11493   8.053   7.140   5.532 -2.8474  1.1379  1.0711
  808MOL0     H11494   8.114   7.171   5.827  0.1655  1.6042 -0.0418
  808MOL0     H11495   7.963   7.094   5.800  1.2145  0.4646  3.2925
  808MOL0     H11496   7.940   7.301   5.630 -3.1431  0.4875  1.1998
  808MOL0     H11497   7.916   7.314   5.806 -0.0350  0.7421 -0.3908
  808MOL0     H11498   8.177   7.361   5.812  0.4722 -2.1802 -1.3372
  808MOL0     H11499   8.047   7.487   5.807 -0.4376 -1.5679  2.0702
  808MOL0     H11500   8.173   7.547   5.415  0.3131  4.9167  2.0468
  808MOL0     H11501   8.174   6.933   5.832  0.0232 -1.4798  1.7639
  808MOL0     H11502   8.459   6.812   5.938  0.2876 -1.0315  3.3074
  808MOL0     H11503   8.305   6.846   5.991 -0.6194  0.3221 -1.0822
  808MOL0     H11504   8.359   6.673   5.985  1.9939  0.7130  2.4684
  809MOL0     O11505   1.076   9.522   2.984 -0.0666  0.2931  0.3626
  809MOL0     C11506   1.028   9.624   3.037 -0.7941  0.8446  0.3556
  809MOL0     O11507   1.098   9.744   3.047 -0.2811 -0.2817  0.5743
  809MOL0     C11508   1.236   9.739   3.033 -0.4362 -0.2581  0.8299
  809MOL0     C11509   1.311   9.813   3.127  0.1137  1.2486 -0.2946
  809MOL0     C11510   1.449   9.822   3.124  0.1064 -0.2805 -0.8662
  809MOL0     C11511   1.519   9.762   3.023 -0.4104 -0.0777  0.1605
  809MOL0     O11512   1.655   9.773   3.018  0.1608 -0.5532 -0.3535
  809MOL0     C11513   1.741   9.826   3.134 -0.5482 -0.3978 -0.4611
  809MOL0     C11514   1.900   9.819   3.116 -0.6606 -0.8977  0.1873
  809MOL0     C11515   1.955   9.882   2.985 -0.2374  0.2413 -1.1377
  809MOL0     C11516   2.108   9.888   2.971  0.4515  0.5652 -0.8391
  809MOL0     C11517   2.166   9.758   2.905  0.1100  0.6041  0.3619
  809MOL0     C11518   2.123   9.716   2.762  0.5721 -0.1133 -0.6051
  809MOL0     C11519   2.165   9.828   2.667  0.3539  0.0575  0.2966
  809MOL0     C11520   2.221   9.790   2.530 -0.0772  0.6614 -0.5903
  809MOL0     N11521   2.368   9.746   2.535  0.1707  0.3575  0.2588
  809MOL0     C11522   2.406   9.631   2.586 -0.2239 -0.7384 -1.0708
  809MOL0     C11523   2.543   9.632   2.576  0.0585 -0.3170 -0.4765
  809MOL0     C11524   2.641   9.521   2.606 -0.5362 -0.7277 -0.2047
  809MOL0     C11525   2.744   9.546   2.719 -0.1248 -0.2657 -0.3001
  809MOL0     C11526   2.874   9.616   2.665  0.5495  1.1377  0.3310
  809MOL0     C11527   3.000   9.543   2.718 -0.4015 -0.0042 -0.4829
  809MOL0     O11528   3.027   9.573   2.856 -0.0293 -0.0903 -0.6443
  809MOL0     C11529   3.147   9.529   2.898  0.6471 -0.4309 -0.4601
  809MOL0     C11530   3.160   9.388   2.913 -0.5113  0.1654  0.1084
  809MOL0     C11531   3.285   9.327   2.949  0.3770 -0.2765  0.8326
  809MOL0     C11532   3.287   9.175   2.972 -0.6904 -0.4714  0.6342
  809MOL0     C11533   3.395   9.408   2.968 -0.1328  0.0498  0.0011
  809MOL0     C11534   3.535   9.371   3.002 -0.5132 -0.3228 -0.4411
  809MOL0     O11535   3.636   9.449   2.952 -0.1271 -0.4800 -0.3349
  809MOL0     C11536   3.760   9.413   2.993 -0.1522  0.7306  1.1234
  809MOL0     C11537   3.814   9.487   3.094  0.4950  0.0180  0.4568
  809MOL0     C11538   3.946   9.462   3.129  0.7742  0.0307  0.2231
  809MOL0     C11539   4.023   9.378   3.051  0.0391  0.3604 -0.5141
  809MOL0     O11540   4.152   9.349   3.087  0.2354 -0.7260 -0.8834
  809MOL0     C11541   4.160   9.271   3.212  0.4969 -0.3208 -0.2715
  809MOL0     C11542   4.307   9.259   3.255  0.5113 -0.6454 -0.3843
  809MOL0     C11543   4.316   9.141   3.347  0.6274 -0.2806  0.4260
  809MOL0     C11544   4.469   9.125   3.380  0.1143 -0.6258 -0.2501
  809MOL0     C11545   4.504   8.974   3.419  0.4699 -0.5376 -0.8883
  809MOL0     C11546   4.633   8.957   3.488 -0.3147  0.0913  0.0613
  809MOL0     C11547   4.621   9.002   3.636  1.4038 -0.5480  0.4656
  809MOL0     C11548   4.737   8.975   3.730  0.1897  0.1321 -0.9335
  809MOL0    Cl11549   4.677   9.029   3.897  0.0633  0.1323 -0.2593
  809MOL0     C11550   3.973   9.312   2.937  0.4457  0.1238  0.7191
  809MOL0     C11551   3.835   9.330   2.908 -0.6426  0.1728  0.1708
  809MOL0     O11552   3.558   9.270   3.072  0.3466  0.2844  1.0198
  809MOL0     C11553   3.376   9.554   2.952  0.0675  0.3993 -0.4745
  809MOL0     C11554   3.251   9.608   2.926 -0.1008 -0.2329  0.4981
  809MOL0     N11555   2.586   9.750   2.514 -0.0995 -0.6300  0.1559
  809MOL0     N11556   2.475   9.819   2.490 -0.4884 -0.0155 -0.6049
  809MOL0     C11557   1.443   9.706   2.913 -0.1921 -0.7927  0.4275
  809MOL0     C11558   1.302   9.693   2.918 -0.6882  0.5000  0.4829
  809MOL0     C11559   0.900   9.623   3.101  1.0141 -0.1966  0.0895
  809MOL0     C11560   0.885   9.697   3.220 -0.0424  0.4472 -0.7131
  809MOL0     C11561   0.763   9.681   3.281 -0.2162  0.2296 -0.5606
  809MOL0     C11562   0.650   9.620   3.225 -0.1136 -0.1717 -0.2686
  809MOL0     O11563   0.535   9.633   3.301  0.0593 -0.0722  0.3453
  809MOL0     C11564   0.414   9.586   3.237 -0.6635 -1.1224 -1.2937
  809MOL0     C11565   0.288   9.652   3.302 -0.2487  0.0322 -0.4845
  809MOL0     C11566   0.154   9.620   3.236  0.6311 -0.4000 -0.5357
  809MOL0     C11567   0.026   9.688   3.295  0.1945  0.2727 -0.2801
  809MOL0     C11568   0.034   9.830   3.298  0.5873 -0.6435 -0.1504
  809MOL0     C11569   0.053   9.946   3.304 -0.2888 -0.7535  0.4986
  809MOL0     C11570   0.666   9.552   3.103  0.1775 -0.1839 -0.6695
  809MOL0     C11571   0.791   9.561   3.036  0.4913  0.5718  0.1167
  809MOL0     C11572   0.799   9.504   2.895  0.2349  0.1158 -0.4662
  809MOL0     H11573   1.249   9.878   3.189 -2.6963 -1.5764  0.1511
  809MOL0     H11574   1.491   9.888   3.199 -1.5202 -0.6139  0.4075
  809MOL0     H11575   1.714   9.769   3.223  1.2050  0.1007  0.4401
  809MOL0     H11576   1.715   9.928   3.164 -0.3496 -1.0136  2.0867
  809MOL0     H11577   1.933   9.873   3.205  1.3664  0.4526 -1.2919
  809MOL0     H11578   1.929   9.714   3.112  3.7295  0.1692 -2.6205
  809MOL0     H11579   1.919   9.826   2.898  1.5491 -0.9979 -1.1418
  809MOL0     H11580   1.915   9.984   2.984  0.1543  0.7095  4.0625
  809MOL0     H11581   2.139   9.976   2.913 -2.2255  0.9679 -1.7756
  809MOL0     H11582   2.147   9.890   3.073 -0.0440 -0.2323 -0.6280
  809MOL0     H11583   2.126   9.672   2.960  0.3114  1.4958  1.9634
  809MOL0     H11584   2.275   9.752   2.913 -0.0370 -1.4816  1.4885
  809MOL0     H11585   2.182   9.629   2.732  1.8102  0.5656 -0.2068
  809MOL0     H11586   2.019   9.684   2.759  1.2042 -2.6098  0.7000
  809MOL0     H11587   2.239   9.889   2.719 -0.7950 -0.3298  2.4818
  809MOL0     H11588   2.084   9.892   2.630  2.7985  2.1480 -1.8256
  809MOL0     H11589   2.163   9.708   2.486 -0.5605  0.4489  0.4169
  809MOL0     H11590   2.209   9.877   2.465 -2.7763  0.3981 -0.5423
  809MOL0     H11591   2.340   9.558   2.630  0.3235  0.4970  2.0415
  809MOL0     H11592   2.705   9.498   2.520  0.6077  0.5211  0.2641
  809MOL0     H11593   2.593   9.427   2.637 -3.8326  0.5829 -0.9644
  809MOL0     H11594   2.706   9.620   2.790  1.5099  0.3532 -0.0077
  809MOL0     H11595   2.765   9.456   2.778  0.8892 -1.7545 -2.7496
  809MOL0     H11596   2.882   9.597   2.557  1.3844  0.3563  0.5134
  809MOL0     H11597   2.864   9.725   2.675 -1.8590  1.0257 -0.2809
  809MOL0     H11598   2.986   9.435   2.711 -2.3661  0.0928  1.1429
  809MOL0     H11599   3.083   9.577   2.655 -0.3796  1.4914  0.2987
  809MOL0     H11600   3.072   9.335   2.879 -0.4310  1.0437 -1.6209
  809MOL0     H11601   3.390   9.139   2.977 -0.0158  1.2104 -0.3912
  809MOL0     H11602   3.230   9.120   2.895 -0.1016 -0.6062  0.2869
  809MOL0     H11603   3.245   9.167   3.072 -0.5796  1.5729  0.8877
  809MOL0     H11604   3.762   9.565   3.150 -0.5377 -3.3772  4.7889
  809MOL0     H11605   3.988   9.519   3.212  0.5678  0.2220  0.1986
  809MOL0     H11606   4.106   9.310   3.298  0.5349  1.2993 -0.9540
  809MOL0     H11607   4.117   9.174   3.184  2.1731 -0.8345 -1.2389
  809MOL0     H11608   4.371   9.243   3.168  1.5676 -2.9384  0.7142
  809MOL0     H11609   4.340   9.346   3.314  1.9476 -0.3535 -1.5609
  809MOL0     H11610   4.283   9.051   3.294  2.6467  0.3079 -2.0255
  809MOL0     H11611   4.262   9.145   3.442  0.1875  2.9933  0.1664
  809MOL0     H11612   4.491   9.197   3.460  0.8457 -0.8937 -0.1967
  809MOL0     H11613   4.535   9.158   3.299 -2.3332  2.4325 -1.2087
  809MOL0     H11614   4.425   8.937   3.486  0.1110  0.7346 -0.5630
  809MOL0     H11615   4.503   8.912   3.329  0.5708 -1.8657  0.0046
  809MOL0     H11616   4.705   9.016   3.430  0.0044  0.9588  1.3035
  809MOL0     H11617   4.657   8.850   3.483  2.3761  0.6528 -0.6525
  809MOL0     H11618   4.532   8.952   3.676 -2.0932  1.1846 -4.2650
  809MOL0     H11619   4.596   9.108   3.641 -2.2552 -1.2424 -0.6588
  809MOL0     H11620   4.811   9.051   3.703 -3.4276  4.3706 -0.1498
  809MOL0     H11621   4.774   8.873   3.723 -3.7821 -1.6907  1.2504
  809MOL0     H11622   4.037   9.244   2.880 -2.4864  0.3273 -3.2421
  809MOL0     H11623   3.790   9.267   2.832 -0.0453 -1.6845  1.2978
  809MOL0     H11624   3.450   9.632   2.959 -1.3269  1.5897  2.3726
  809MOL0     H11625   3.239   9.715   2.914  0.0327 -0.2272  0.4162
  809MOL0     H11626   1.501   9.672   2.827 -0.8069  1.2517 -0.8506
  809MOL0     H11627   1.252   9.657   2.828  1.6941 -3.5730  0.5599
  809MOL0     H11628   0.964   9.758   3.262 -1.2693  1.3032  0.4514
  809MOL0     H11629   0.750   9.736   3.374  1.9094 -1.4844  0.8485
  809MOL0     H11630   0.412   9.612   3.130 -1.5242 -0.8873 -1.2286
  809MOL0     H11631   0.405   9.478   3.249  2.5534 -1.3618 -0.1042
  809MOL0     H11632   0.310   9.759   3.294  0.7193 -0.1208 -0.0316
  809MOL0     H11633   0.289   9.637   3.411 -0.4911 -0.0251 -0.4894
  809MOL0     H11634   0.164   9.661   3.135  0.8772 -0.4204 -0.5196
  809MOL0     H11635   0.141   9.512   3.222 -0.9187 -0.1470 -1.2723
  809MOL0     H11636   0.001   9.644   3.392 -1.2216  1.6319  0.0127
  809MOL0     H11637  -0.052   9.660   3.223  0.3579 -1.3136  0.1398
  809MOL0     H11638   0.069  10.052   3.306 -0.2956 -0.7612  1.0003
  809MOL0     H11639   0.589   9.484   3.067  1.7540 -2.2315 -0.3736
  809MOL0     H11640   0.858   9.575   2.836  2.1878 -0.1944  0.9924
  809MOL0     H11641   0.839   9.403   2.908 -1.9625 -0.6049  1.3989
  809MOL0     H11642   0.704   9.485   2.844 -0.3230  0.3046  0.4818
  810MOL0     O11643   0.305   6.348   6.605 -0.1823  0.1017  0.7248
  810MOL0     C11644   0.390   6.279   6.652 -0.4144  0.0218  0.3953
  810MOL0     O11645   0.372   6.161   6.718 -0.6037  0.3505  0.1026
  810MOL0     C11646   0.254   6.087   6.712  0.4201 -0.8114  0.7452
  810MOL0     C11647   0.135   6.115   6.634  0.4099 -0.7600 -0.8013
  810MOL0     C11648   0.018   6.035   6.635 -0.5905 -0.0862 -0.9001
  810MOL0     C11649   0.016   5.915   6.718  0.6776 -0.3337  0.6921
  810MOL0     O11650  -0.086   5.829   6.700  0.4462 -0.5436  0.0578
  810MOL0     C11651  -0.103   5.721   6.796  0.0092 -0.6446 -0.4727
  810MOL0     C11652  -0.080   5.581   6.735  0.7466 -0.4014  0.0518
  810MOL0     C11653  -0.179   5.556   6.615 -0.0104 -0.1003  0.2787
  810MOL0     C11654  -0.137   5.441   6.525  0.6622  0.2363 -0.8699
  810MOL0     C11655  -0.231   5.433   6.403  0.5163 -0.3556  0.0548
  810MOL0     C11656  -0.190   5.320   6.309 -0.6069  0.0891  0.3542
  810MOL0     C11657  -0.043   5.320   6.273 -0.1979 -0.4664 -0.4079
  810MOL0     C11658  -0.020   5.246   6.141  0.0449 -0.0053  0.4499
  810MOL0     N11659   0.125   5.236   6.113 -0.6841  0.0970 -0.0313
  810MOL0     C11660   0.209   5.350   6.102 -0.5939 -0.2159 -0.3957
  810MOL0     C11661   0.335   5.312   6.134 -0.0979  0.6534 -0.2919
  810MOL0     C11662   0.472   5.377   6.135  0.2201  0.2226 -0.1530
  810MOL0     C11663   0.574   5.303   6.043 -0.8947  0.7570 -0.0985
  810MOL0     C11664   0.702   5.376   6.045 -0.6947 -0.8035 -0.7335
  810MOL0     C11665   0.823   5.324   5.964  0.0261 -0.2409 -0.0186
  810MOL0     O11666   0.853   5.179   5.981  0.1030 -0.5102  0.0040
  810MOL0     C11667   0.928   5.142   6.091  0.0013  0.1738  0.0471
  810MOL0     C11668   0.873   5.104   6.209 -0.2123 -0.5340 -0.2435
  810MOL0     C11669   0.949   5.049   6.308 -0.6487  0.4813 -0.5460
  810MOL0     C11670   0.877   4.994   6.424 -0.1381  0.2021  0.0940
  810MOL0     C11671   1.087   5.051   6.296 -1.1531  0.9922 -0.1021
  810MOL0     C11672   1.182   4.990   6.399  0.1476 -0.0368  0.1616
  810MOL0     O11673   1.323   5.023   6.387  0.7192  1.0811 -0.8801
  810MOL0     C11674   1.410   4.937   6.443 -0.2157  0.4740  1.1228
  810MOL0     C11675   1.446   4.812   6.385  0.1323  1.2034 -0.0598
  810MOL0     C11676   1.537   4.723   6.452  1.2542  0.0721  0.0470
  810MOL0     C11677   1.603   4.763   6.562  0.6417 -0.6044  0.4374
  810MOL0     O11678   1.703   4.680   6.602  0.6017  0.5450 -0.1649
  810MOL0     C11679   1.807   4.737   6.684  0.1203  0.4936 -0.3703
  810MOL0     C11680   1.902   4.826   6.598 -0.7452 -0.6265  0.7341
  810MOL0     C11681   2.013   4.894   6.686 -0.1509 -0.3892  0.7560
  810MOL0     C11682   2.094   4.993   6.595 -0.2625  0.4542  0.6374
  810MOL0     C11683   2.214   5.067   6.668  0.1143 -0.0489 -0.5250
  810MOL0     C11684   2.263   5.172   6.569  0.1597  0.4070  0.2417
  810MOL0     C11685   2.362   5.277   6.615 -0.7155  0.2630 -0.3699
  810MOL0     C11686   2.490   5.216   6.683  0.6738 -1.0358  0.3870
  810MOL0    Cl11687   2.571   5.084   6.587  0.2026  0.1073  0.2043
  810MOL0     C11688   1.570   4.889   6.610 -0.4003 -1.3226  0.1337
  810MOL0     C11689   1.470   4.972   6.561 -0.0151 -0.2120  0.1473
  810MOL0     O11690   1.135   4.909   6.476  0.1773 -0.0438 -0.1654
  810MOL0     C11691   1.151   5.105   6.185  0.0420 -0.7453  0.3873
  810MOL0     C11692   1.067   5.150   6.081  0.4151 -0.2892  0.6220
  810MOL0     N11693   0.330   5.173   6.145 -0.4824 -0.3656 -0.1014
  810MOL0     N11694   0.209   5.130   6.135  0.1124 -0.0228 -0.0291
  810MOL0     C11695   0.139   5.881   6.795 -0.3862 -1.1798 -0.0875
  810MOL0     C11696   0.248   5.978   6.792  0.0592 -0.1591 -0.1657
  810MOL0     C11697   0.530   6.323   6.621 -0.3304  0.1534  0.0486
  810MOL0     C11698   0.542   6.457   6.582  0.5655 -0.0817 -0.5221
  810MOL0     C11699   0.658   6.515   6.535  0.0762  0.1415  0.2221
  810MOL0     C11700   0.768   6.441   6.536  0.4980  0.7148  0.2002
  810MOL0     O11701   0.896   6.488   6.523  0.4539 -0.5985  0.2675
  810MOL0     C11702   0.914   6.629   6.518 -0.4591  0.7395  0.1866
  810MOL0     C11703   1.043   6.650   6.451  0.0721  0.3948 -0.8273
  810MOL0     C11704   1.070   6.801   6.457 -0.7075  0.7385 -0.4331
  810MOL0     C11705   1.200   6.848   6.389  0.1291 -0.0561  1.0962
  810MOL0     C11706   1.321   6.796   6.452  0.7508 -0.6213 -0.2662
  810MOL0     C11707   1.424   6.756   6.504  0.9890  0.5255  0.5475
  810MOL0     C11708   0.765   6.305   6.570 -0.3405  0.3439 -0.1231
  810MOL0     C11709   0.647   6.241   6.616  0.3533 -0.5815 -0.0616
  810MOL0     C11710   0.656   6.093   6.651 -0.6936  0.4449 -0.4753
  810MOL0     H11711   0.125   6.202   6.570 -2.8231 -0.0459  0.5065
  810MOL0     H11712  -0.066   6.066   6.574 -1.4940  0.2288  0.4488
  810MOL0     H11713  -0.205   5.726   6.834  0.3386 -1.6130  0.6229
  810MOL0     H11714  -0.033   5.722   6.880  0.7964 -1.3600 -1.0864
  810MOL0     H11715   0.020   5.567   6.694 -0.8890 -0.6947 -4.3091
  810MOL0     H11716  -0.083   5.499   6.808  0.3185  0.6926  1.2946
  810MOL0     H11717  -0.277   5.540   6.661  0.1813 -0.1334  0.6853
  810MOL0     H11718  -0.183   5.645   6.552  1.1163 -0.5533 -0.4508
  810MOL0     H11719  -0.033   5.463   6.499  1.1089 -0.6357  0.1098
  810MOL0     H11720  -0.134   5.349   6.584 -0.5243 -0.1844 -1.4323
  810MOL0     H11721  -0.230   5.528   6.348  0.2771 -0.7753 -0.6857
  810MOL0     H11722  -0.334   5.406   6.427 -0.3227  0.4229 -2.4355
  810MOL0     H11723  -0.222   5.224   6.351 -2.5212 -0.0576 -1.2863
  810MOL0     H11724  -0.257   5.344   6.225 -0.3539  2.9307  0.8663
  810MOL0     H11725   0.026   5.280   6.348  0.1511 -0.2553 -0.6184
  810MOL0     H11726  -0.020   5.424   6.252  2.8618 -0.8306  0.7024
  810MOL0     H11727  -0.059   5.144   6.153  1.1227 -0.2673  1.9627
  810MOL0     H11728  -0.076   5.295   6.060 -2.3655 -1.1263  1.3215
  810MOL0     H11729   0.183   5.455   6.092  2.0890  0.7075  1.2339
  810MOL0     H11730   0.503   5.366   6.239  1.0770  0.0235 -0.4197
  810MOL0     H11731   0.457   5.479   6.098 -3.2790 -0.1776 -0.1491
  810MOL0     H11732   0.589   5.205   6.090  0.7658  0.0737 -1.9326
  810MOL0     H11733   0.542   5.280   5.941  3.2756  2.0598 -1.9284
  810MOL0     H11734   0.681   5.478   6.010  1.4612 -0.4109 -0.9930
  810MOL0     H11735   0.737   5.385   6.148 -0.5348 -0.6333 -0.8022
  810MOL0     H11736   0.831   5.353   5.859 -0.7290 -0.1427 -0.0560
  810MOL0     H11737   0.905   5.384   6.006  0.9280 -2.2114  1.2047
  810MOL0     H11738   0.764   5.104   6.209 -0.2396  0.7753  0.4006
  810MOL0     H11739   0.888   4.886   6.412 -0.0550  0.2822 -0.5941
  810MOL0     H11740   0.768   5.005   6.419 -0.3295 -0.2313  2.1718
  810MOL0     H11741   0.913   5.040   6.516 -1.5438  0.2720  0.6377
  810MOL0     H11742   1.401   4.792   6.289  1.6436  1.4472 -0.8501
  810MOL0     H11743   1.550   4.628   6.403  0.9710  0.3254 -0.5214
  810MOL0     H11744   1.769   4.788   6.773  0.5698  2.4078 -1.2139
  810MOL0     H11745   1.873   4.654   6.710 -0.1867  0.1751 -0.6061
  810MOL0     H11746   1.952   4.770   6.519 -1.6227 -1.7122  0.9141
  810MOL0     H11747   1.844   4.901   6.543  1.7860 -0.7829 -2.4213
  810MOL0     H11748   2.089   4.819   6.711  0.5678  0.0406 -0.0705
  810MOL0     H11749   1.973   4.939   6.777  3.5503 -0.9259  2.8364
  810MOL0     H11750   2.025   5.066   6.552 -0.9189  0.5509  1.7937
  810MOL0     H11751   2.142   4.933   6.518 -1.8907 -2.6331  1.8477
  810MOL0     H11752   2.187   5.118   6.760  1.2201 -0.7243  0.1963
  810MOL0     H11753   2.298   4.998   6.677  3.2091  3.5387  0.8032
  810MOL0     H11754   2.175   5.224   6.530 -0.6580 -0.3231  1.0687
  810MOL0     H11755   2.311   5.118   6.487  2.2450 -1.0307  2.2694
  810MOL0     H11756   2.313   5.340   6.691 -1.9727  0.1368 -1.0489
  810MOL0     H11757   2.411   5.329   6.532  1.2045 -1.5460 -0.4448
  810MOL0     H11758   2.464   5.171   6.780  2.6344 -1.6433  0.6640
  810MOL0     H11759   2.555   5.304   6.690  0.8592 -1.0902 -0.5612
  810MOL0     H11760   1.628   4.931   6.692 -0.6864  1.9517 -1.2186
  810MOL0     H11761   1.442   5.066   6.607  1.5721 -0.7586  2.3679
  810MOL0     H11762   1.257   5.108   6.164  0.4802 -0.9569  2.3789
  810MOL0     H11763   1.116   5.187   5.992  0.4665  0.8243  1.1024
  810MOL0     H11764   0.157   5.793   6.856  0.3109 -0.5132  0.6981
  810MOL0     H11765   0.334   5.963   6.858 -1.2549  2.6224  2.4124
  810MOL0     H11766   0.453   6.519   6.577 -0.3162 -1.2284  0.3101
  810MOL0     H11767   0.655   6.623   6.522  0.9030 -0.1771 -4.1608
  810MOL0     H11768   0.845   6.685   6.454  1.6871  1.8917 -1.2462
  810MOL0     H11769   0.914   6.667   6.620  1.9641  0.6382  0.2813
  810MOL0     H11770   1.045   6.612   6.348  1.4792  0.5861 -0.8886
  810MOL0     H11771   1.115   6.589   6.506 -1.9426 -0.2097  1.2893
  810MOL0     H11772   0.988   6.865   6.426 -0.0529  1.0923 -1.4795
  810MOL0     H11773   1.081   6.829   6.562  0.3492 -2.0206  0.3041
  810MOL0     H11774   1.199   6.957   6.388  0.2784 -0.0601  0.1582
  810MOL0     H11775   1.195   6.814   6.286 -1.2175 -0.9827  1.4439
  810MOL0     H11776   1.504   6.703   6.551  1.7201  1.4226  0.3606
  810MOL0     H11777   0.859   6.252   6.562  1.6943  3.3083  1.9981
  810MOL0     H11778   0.613   6.038   6.567 -2.5420 -0.2433  0.8344
  810MOL0     H11779   0.761   6.063   6.661 -0.5079  1.4424  0.8521
  810MOL0     H11780   0.597   6.073   6.741  0.9142 -2.9929 -0.0207
  811MOL0     O11781  10.647  10.144   4.307  0.0794  0.2299 -0.0344
  811MOL0     C11782  10.590  10.074   4.391 -0.3487 -0.0826 -0.4423
  811MOL0     O11783  10.651  10.017   4.495 -0.1233  0.4565  0.0602
  811MOL0     C11784  10.788  10.025   4.516  0.9290 -0.0514 -0.4490
  811MOL0     C11785  10.885  10.023   4.415  0.6114  0.6598  0.5049
  811MOL0     C11786  11.026  10.030   4.452  0.8729 -0.2648 -0.1616
  811MOL0     C11787  11.061  10.006   4.586 -0.8181 -0.7663 -0.4971
  811MOL0     O11788  11.197   9.991   4.611  0.6938 -0.3066 -0.4759
  811MOL0     C11789  11.219   9.983   4.752 -0.6748  0.1796 -0.1373
  811MOL0     C11790  11.371   9.983   4.794  0.1533  0.7122  0.3046
  811MOL0     C11791  11.449  10.102   4.748 -0.3292  0.0578  0.6768
  811MOL0     C11792  11.598  10.095   4.779 -0.1742 -0.5362 -0.0098
  811MOL0     C11793  11.630  10.133   4.929 -0.2274  1.1639 -0.6564
  811MOL0     C11794  11.781  10.112   4.965 -0.1047 -0.2510  0.1645
  811MOL0     C11795  11.805   9.966   4.994  0.8655 -0.6681 -0.2729
  811MOL0     C11796  11.954   9.935   5.037  0.1440 -0.4871 -0.0613
  811MOL0     N11797  12.047   9.974   4.932 -0.0990  0.1764  0.3245
  811MOL0     C11798  12.032   9.933   4.801 -0.8694 -0.4293 -0.1991
  811MOL0     C11799  12.154   9.969   4.741  0.2580  0.7144  0.1087
  811MOL0     C11800  12.184   9.958   4.591  0.4466 -0.7340 -0.3316
  811MOL0     C11801  12.337   9.958   4.577 -0.2312 -0.1400  0.0846
  811MOL0     C11802  12.369   9.970   4.429 -1.1662  0.0544  0.2096
  811MOL0     C11803  12.516   9.992   4.388 -0.0058 -0.4820  0.1844
  811MOL0     O11804  12.603   9.902   4.461  0.5514  0.0333 -0.3825
  811MOL0     C11805  12.738   9.915   4.439 -0.2126 -0.2142  0.4783
  811MOL0     C11806  12.818   9.860   4.546  0.1882  0.3254  0.6713
  811MOL0     C11807  12.957   9.877   4.555 -0.3295 -1.0052 -0.2877
  811MOL0     C11808  13.027   9.804   4.673 -0.0964  0.5402  0.0446
  811MOL0     C11809  13.025   9.955   4.459 -0.5110 -0.1346  0.6153
  811MOL0     C11810  13.169   9.986   4.458 -0.5425 -0.2152  0.7902
  811MOL0     O11811  13.208  10.089   4.377 -0.1306 -1.0898  0.6733
  811MOL0     C11812  13.343  10.123   4.369  0.9405 -0.8953 -0.6467
  811MOL0     C11813  13.416  10.183   4.481 -0.3666  0.0378 -0.1917
  811MOL0     C11814  13.544  10.231   4.461 -0.0568  0.0338 -0.6327
  811MOL0     C11815  13.610  10.213   4.344  0.0585 -0.2514  1.2368
  811MOL0     O11816  13.742  10.251   4.339  0.9050  0.1278  0.6938
  811MOL0     C11817  13.819  10.195   4.232  0.1570  0.4923 -0.0123
  811MOL0     C11818  13.966  10.244   4.240 -0.1875 -0.5514  0.0706
  811MOL0     C11819  14.034  10.142   4.337 -0.0925 -0.5714 -0.7921
  811MOL0     C11820  14.183  10.184   4.348  0.5949 -0.1214 -0.9601
  811MOL0     C11821  14.267  10.127   4.233 -0.3156 -0.3514  0.2267
  811MOL0     C11822  14.417  10.143   4.260  0.6703 -0.3500  0.0179
  811MOL0     C11823  14.508  10.082   4.146  0.4549 -0.5951 -0.2017
  811MOL0     C11824  14.653  10.109   4.179 -0.3718  0.7921  0.0010
  811MOL0    Cl11825  14.721  10.254   4.099 -0.2278  0.1740  0.1094
  811MOL0     C11826  13.539  10.147   4.243 -0.1151 -0.1735 -0.6601
  811MOL0     C11827  13.409  10.104   4.255  0.1623 -0.4044  0.3282
  811MOL0     O11828  13.249   9.918   4.526  0.0447  0.3434  0.0584
  811MOL0     C11829  12.950  10.006   4.352  0.4213 -0.0257  0.5473
  811MOL0     C11830  12.808   9.990   4.338 -0.2888  0.0809  0.3542
  811MOL0     N11831  12.233  10.036   4.832  0.5812 -0.2638  0.2450
  811MOL0     N11832  12.172  10.031   4.947  0.7978 -0.2255 -0.9855
  811MOL0     C11833  10.959  10.006   4.676  0.3806 -0.6515 -0.7787
  811MOL0     C11834  10.823  10.020   4.641 -0.2395  0.0639 -0.0307
  811MOL0     C11835  10.444  10.035   4.366 -0.1605  0.4291 -0.0467
  811MOL0     C11836  10.376   9.992   4.483 -0.4605 -0.3350 -0.4400
  811MOL0     C11837  10.248   9.937   4.482 -0.2301  0.2092  0.1853
  811MOL0     C11838  10.169   9.938   4.363 -0.1794  0.4534  0.4021
  811MOL0     O11839  10.037   9.889   4.360 -0.0568  0.0924  0.0138
  811MOL0     C11840   9.963   9.900   4.484  0.2024 -0.2373 -0.5184
  811MOL0     C11841   9.812   9.930   4.465  0.0234 -0.0546 -0.8155
  811MOL0     C11842   9.739   9.843   4.361  0.6255  0.5935  0.0674
  811MOL0     C11843   9.598   9.888   4.317  1.3231 -0.9211  0.1319
  811MOL0     C11844   9.530   9.799   4.220 -0.2619 -0.0346 -0.2033
  811MOL0     C11845   9.477   9.722   4.146  0.3177 -0.0291 -0.5427
  811MOL0     C11846  10.233   9.991   4.246  0.4830 -0.2733  0.5715
  811MOL0     C11847  10.360  10.042   4.245 -0.0919 -0.2821  0.8853
  811MOL0     C11848  10.412  10.097   4.119 -0.3940  0.5172 -0.3947
  811MOL0     H11849  10.866  10.003   4.311  1.2708 -2.8049  0.9379
  811MOL0     H11850  11.105  10.044   4.379 -0.4963  2.2906 -1.3059
  811MOL0     H11851  11.185   9.884   4.783 -0.4198  0.4572  1.0836
  811MOL0     H11852  11.169  10.061   4.811 -0.4563  1.3351 -1.4221
  811MOL0     H11853  11.385   9.973   4.902 -0.0564  1.4578  0.4014
  811MOL0     H11854  11.416   9.894   4.749 -1.0160 -0.2043  0.9007
  811MOL0     H11855  11.434  10.113   4.641  1.3187 -2.9200  0.0355
  811MOL0     H11856  11.404  10.191   4.794 -0.0696  0.6454 -0.1865
  811MOL0     H11857  11.634   9.995   4.751  1.0702 -0.1810  0.2552
  811MOL0     H11858  11.651  10.168   4.717 -1.1007 -0.7621 -1.1093
  811MOL0     H11859  11.573  10.071   4.998  0.8287  1.8519  0.8874
  811MOL0     H11860  11.596  10.234   4.954 -0.3607  0.7473  0.9475
  811MOL0     H11861  11.834  10.148   4.877 -0.4190 -1.8226 -0.7096
  811MOL0     H11862  11.803  10.175   5.051  0.2912  0.8769 -0.7363
  811MOL0     H11863  11.771   9.906   4.908 -2.0243 -0.4612  0.5989
  811MOL0     H11864  11.746   9.917   5.072  1.0269 -2.0579 -0.9884
  811MOL0     H11865  11.979   9.989   5.129  2.3537 -0.5189 -0.5893
  811MOL0     H11866  11.959   9.828   5.063  1.6982 -0.2844  0.6067
  811MOL0     H11867  11.952   9.879   4.752  0.4828 -1.0339 -1.8012
  811MOL0     H11868  12.147  10.049   4.541  3.2698 -0.8746 -2.9636
  811MOL0     H11869  12.140   9.864   4.559  4.1446 -2.7706  0.0549
  811MOL0     H11870  12.380  10.047   4.624 -1.6442 -0.0485  1.2522
  811MOL0     H11871  12.390   9.873   4.622 -1.7103 -0.2460  1.7160
  811MOL0     H11872  12.329   9.879   4.383 -1.6948 -0.4671  1.6220
  811MOL0     H11873  12.318  10.054   4.381 -0.4499  1.3274  1.5785
  811MOL0     H11874  12.508   9.971   4.281 -0.2113  0.1737  0.0646
  811MOL0     H11875  12.552  10.095   4.396 -0.8900 -0.0668 -0.9599
  811MOL0     H11876  12.761   9.817   4.627 -1.4207  0.5346 -0.2892
  811MOL0     H11877  13.035   9.699   4.645 -2.7574  0.4531 -0.7591
  811MOL0     H11878  12.961   9.813   4.760 -1.1427 -0.0385 -0.6652
  811MOL0     H11879  13.122   9.851   4.701  1.8026 -1.3398 -2.7380
  811MOL0     H11880  13.370  10.196   4.578  0.7201  1.4964  0.1661
  811MOL0     H11881  13.589  10.270   4.552  0.1230 -0.0953 -0.6677
  811MOL0     H11882  13.810  10.086   4.236  1.2846  0.3830 -0.0071
  811MOL0     H11883  13.780  10.216   4.132  0.2734 -0.5847 -0.2982
  811MOL0     H11884  14.013  10.241   4.141  0.4861 -2.1404  0.3940
  811MOL0     H11885  13.997  10.343   4.275  2.5611 -1.1864 -0.2627
  811MOL0     H11886  14.028  10.043   4.290  0.6890 -1.5806  1.1245
  811MOL0     H11887  13.984  10.140   4.434  2.4190  0.6780  0.6119
  811MOL0     H11888  14.228  10.150   4.442 -2.1639  3.3660  1.9312
  811MOL0     H11889  14.188  10.293   4.355 -0.3361 -0.1461  0.8201
  811MOL0     H11890  14.247  10.020   4.234 -0.1179 -0.4221  2.4375
  811MOL0     H11891  14.240  10.174   4.138 -1.2604  1.1139  1.1840
  811MOL0     H11892  14.438  10.104   4.360 -1.4562 -0.5956  0.4209
  811MOL0     H11893  14.426  10.252   4.271 -2.1090  0.0151 -0.5783
  811MOL0     H11894  14.483  10.130   4.051  0.0326 -1.7222 -0.6745
  811MOL0     H11895  14.492   9.974   4.137  0.1449 -0.5028 -0.7752
  811MOL0     H11896  14.724  10.042   4.128  0.1775  2.1600 -1.0746
  811MOL0     H11897  14.675  10.102   4.286 -0.5223 -0.0738 -0.0147
  811MOL0     H11898  13.592  10.126   4.151  1.0311  1.9914 -0.5575
  811MOL0     H11899  13.359  10.062   4.168  1.2977  3.4415 -2.4954
  811MOL0     H11900  12.994  10.064   4.271 -5.1513 -0.6729 -3.5087
  811MOL0     H11901  12.745  10.043   4.267 -1.0936  0.1144  1.0751
  811MOL0     H11902  10.975   9.989   4.782 -3.0177  1.3912  0.2109
  811MOL0     H11903  10.749  10.035   4.719 -1.5698  2.5734 -1.6444
  811MOL0     H11904  10.425  10.003   4.579 -1.0097 -0.6321 -0.1179
  811MOL0     H11905  10.205   9.897   4.574 -2.1983  1.4007 -0.1364
  811MOL0     H11906   9.956   9.806   4.539  1.9124  0.8520  1.7016
  811MOL0     H11907  10.001   9.974   4.554 -0.3601  0.1716 -0.6468
  811MOL0     H11908   9.796  10.028   4.419 -0.7474 -0.6530 -1.8608
  811MOL0     H11909   9.764   9.934   4.563  1.4673 -0.0325 -0.0763
  811MOL0     H11910   9.793   9.839   4.265 -0.9140 -2.4829 -0.8177
  811MOL0     H11911   9.725   9.742   4.401 -1.2964 -0.5213 -3.0221
  811MOL0     H11912   9.585   9.987   4.275 -1.7702 -0.8237  1.0686
  811MOL0     H11913   9.537   9.892   4.408  0.6101  1.6953 -0.3765
  811MOL0     H11914   9.441   9.660   4.066 -0.2521  0.3787 -0.6024
  811MOL0     H11915  10.170  10.005   4.159 -1.2259  3.2421  2.1540
  811MOL0     H11916  10.418  10.205   4.128  4.2888  0.3247  1.9060
  811MOL0     H11917  10.512  10.052   4.114 -0.7164 -0.2406 -0.1879
  811MOL0     H11918  10.355  10.076   4.028  0.9484 -0.2786 -1.0809
  812MOL0     O11919   2.637   0.478  10.508 -0.4589  0.1317  0.7526
  812MOL0     C11920   2.663   0.384  10.431  0.3375  0.0156 -0.5807
  812MOL0     O11921   2.784   0.345  10.383 -0.0894 -0.2504 -0.1722
  812MOL0     C11922   2.897   0.414  10.405 -0.1220 -0.1787  0.4543
  812MOL0     C11923   3.014   0.337  10.378 -0.2049  0.2066  0.1697
  812MOL0     C11924   3.133   0.398  10.375  1.1572  0.2500  0.8930
  812MOL0     C11925   3.154   0.533  10.392 -0.0627 -0.0427 -0.3477
  812MOL0     O11926   3.284   0.573  10.403 -0.8862  0.4026 -0.4138
  812MOL0     C11927   3.312   0.715  10.386  0.2057  0.3211 -0.1491
  812MOL0     C11928   3.462   0.741  10.379  0.6809  0.1599  0.3161
  812MOL0     C11929   3.480   0.878  10.303  0.2168 -0.4104 -0.2172
  812MOL0     C11930   3.626   0.920  10.334  0.0676  0.2902  0.4368
  812MOL0     C11931   3.670   1.051  10.268 -0.0375 -0.3867  0.3158
  812MOL0     C11932   3.575   1.169  10.294 -0.8243  0.1126  0.0487
  812MOL0     C11933   3.639   1.301  10.251  0.3793 -0.1074  0.9547
  812MOL0     C11934   3.523   1.404  10.264  0.4759  0.0733  0.7068
  812MOL0     N11935   3.422   1.391  10.168 -0.0087 -0.1096 -0.5268
  812MOL0     C11936   3.432   1.414  10.031 -0.1639  0.1093  0.4106
  812MOL0     C11937   3.315   1.369   9.979  1.0529 -0.6841 -0.0507
  812MOL0     C11938   3.290   1.360   9.830  1.4856 -0.4090 -0.3693
  812MOL0     C11939   3.141   1.340   9.801 -0.4462  0.4689  0.6502
  812MOL0     C11940   3.117   1.351   9.646  0.2773  0.2238  0.2135
  812MOL0     C11941   2.968   1.296   9.623 -0.9248 -0.2374 -0.1111
  812MOL0     O11942   2.959   1.311   9.482  0.1722 -0.6578  0.9099
  812MOL0     C11943   2.901   1.214   9.412 -0.0825  0.1115  0.3880
  812MOL0     C11944   2.975   1.101   9.375 -1.0696 -0.3110  0.0058
  812MOL0     C11945   2.918   1.005   9.290 -0.1985 -0.3492 -0.2399
  812MOL0     C11946   3.011   0.884   9.256  0.4403  0.2341 -0.1813
  812MOL0     C11947   2.792   1.032   9.227 -0.2583 -0.0873  0.7690
  812MOL0     C11948   2.734   0.944   9.125 -0.3948  0.1301 -0.7950
  812MOL0     O11949   2.609   0.980   9.082  0.4435  0.0492  0.0298
  812MOL0     C11950   2.570   0.902   8.973 -0.2743  0.4708  0.4013
  812MOL0     C11951   2.588   0.942   8.839  0.8384  0.6963  0.4352
  812MOL0     C11952   2.558   0.847   8.743  0.0332 -0.4855 -0.4455
  812MOL0     C11953   2.497   0.723   8.772  0.3562 -0.8685  0.8967
  812MOL0     O11954   2.457   0.646   8.660 -0.6554  0.3254 -0.2598
  812MOL0     C11955   2.317   0.641   8.646  0.4501  0.0354 -0.3000
  812MOL0     C11956   2.288   0.600   8.507 -0.1027  0.8374 -0.7339
  812MOL0     C11957   2.135   0.601   8.469 -0.0293 -0.5504 -0.5743
  812MOL0     C11958   2.064   0.471   8.470 -0.1728  0.7968 -0.8732
  812MOL0     C11959   1.918   0.481   8.439 -0.1289  0.2477  0.6688
  812MOL0     C11960   1.865   0.339   8.411 -0.0384 -0.8514  0.0032
  812MOL0     C11961   1.718   0.362   8.361 -0.1969 -0.2536  0.4113
  812MOL0     C11962   1.651   0.231   8.336  0.1834  0.5074  0.5597
  812MOL0    Cl11963   1.543   0.202   8.471 -0.2970 -0.5618  0.0803
  812MOL0     C11964   2.456   0.698   8.902  0.8333 -0.7497  0.6372
  812MOL0     C11965   2.497   0.787   9.005 -0.0474 -0.0958  0.5948
  812MOL0     O11966   2.803   0.854   9.090 -0.0801 -0.2971 -0.1399
  812MOL0     C11967   2.718   1.141   9.268 -0.3862 -0.9261  0.5087
  812MOL0     C11968   2.771   1.227   9.362 -0.0545  0.2033  0.3357
  812MOL0     N11969   3.233   1.317  10.083  0.2310 -0.7444  0.6645
  812MOL0     N11970   3.302   1.325  10.192  0.6897 -0.3986 -0.0234
  812MOL0     C11971   3.047   0.610  10.434  0.0868  0.3529 -0.3604
  812MOL0     C11972   2.916   0.552  10.434  1.4908 -0.4563  0.3205
  812MOL0     C11973   2.559   0.281  10.413  0.1736  0.6537 -0.3245
  812MOL0     C11974   2.600   0.146  10.401  0.6093  0.1310  1.3368
  812MOL0     C11975   2.504   0.048  10.392 -0.1927 -0.4261  0.3206
  812MOL0     C11976   2.371   0.072  10.384  0.2877  0.1938  0.7153
  812MOL0     O11977   2.267  -0.018  10.368  0.0197  0.4913  0.3614
  812MOL0     C11978   2.296  -0.149  10.337 -0.2373  0.3787 -0.0556
  812MOL0     C11979   2.155  -0.207  10.297 -0.5252 -0.1866  0.3001
  812MOL0     C11980   2.063  -0.198  10.412  0.0245 -0.8863  0.2363
  812MOL0     C11981   1.919  -0.238  10.385 -0.3567  0.0431 -0.9508
  812MOL0     C11982   1.837  -0.236  10.506 -0.8289 -1.8344 -0.1432
  812MOL0     C11983   1.763  -0.237  10.601  0.8152  0.0081  0.5480
  812MOL0     C11984   2.332   0.202  10.395  0.6599  0.2043  0.3758
  812MOL0     C11985   2.423   0.310  10.406 -0.1639 -0.2123 -1.0758
  812MOL0     C11986   2.363   0.450  10.424  0.6159  0.2991  0.4400
  812MOL0     H11987   2.998   0.232  10.357  0.7759 -0.1739  1.2173
  812MOL0     H11988   3.225   0.342  10.356  2.5944  2.2172  1.7886
  812MOL0     H11989   3.257   0.777  10.458 -0.8552  1.4405 -1.8683
  812MOL0     H11990   3.275   0.750  10.289  1.6822  2.7791  0.0705
  812MOL0     H11991   3.501   0.746  10.481 -2.3286  0.4327  1.5573
  812MOL0     H11992   3.514   0.670  10.313  0.3141  0.3091 -0.1432
  812MOL0     H11993   3.465   0.877  10.195 -0.5402  2.3077 -0.1971
  812MOL0     H11994   3.416   0.954  10.349 -1.6105 -0.1051 -3.0286
  812MOL0     H11995   3.635   0.943  10.441  3.5025  0.2477  0.2609
  812MOL0     H11996   3.700   0.844  10.309 -1.2466 -0.9718  0.2462
  812MOL0     H11997   3.666   1.027  10.162 -0.1238 -1.2888  0.5148
  812MOL0     H11998   3.772   1.070  10.303  0.6225 -0.2037 -1.6101
  812MOL0     H11999   3.478   1.158  10.245 -1.3072 -1.5832  1.3187
  812MOL0     H12000   3.554   1.181  10.401  3.5192 -0.4301  1.1603
  812MOL0     H12001   3.668   1.295  10.146 -2.8752 -0.7144 -0.0204
  812MOL0     H12002   3.725   1.330  10.312  1.6409  1.4539 -1.4369
  812MOL0     H12003   3.494   1.396  10.369  1.1900 -0.1591  0.8883
  812MOL0     H12004   3.560   1.506  10.250 -0.6727  0.4772  0.4406
  812MOL0     H12005   3.524   1.456   9.991  1.8409 -0.4137  4.0120
  812MOL0     H12006   3.351   1.277   9.793  0.0882 -0.2095 -3.4271
  812MOL0     H12007   3.320   1.452   9.780  1.9554  0.9982  2.3126
  812MOL0     H12008   3.107   1.242   9.837  1.8649 -0.0128  1.7027
  812MOL0     H12009   3.076   1.412   9.851  0.4166  1.4733  0.3555
  812MOL0     H12010   3.138   1.444   9.593 -0.1935 -1.7442 -3.8623
  812MOL0     H12011   3.178   1.281   9.587 -1.1489  2.0293 -3.7747
  812MOL0     H12012   2.966   1.191   9.652 -4.1298  0.2484  2.0050
  812MOL0     H12013   2.893   1.347   9.685 -0.0703 -0.3513  1.0356
  812MOL0     H12014   3.073   1.091   9.419 -1.0619 -0.0834  0.0392
  812MOL0     H12015   2.974   0.787   9.289  2.3339  0.5787  3.5176
  812MOL0     H12016   3.110   0.885   9.303  1.0064  2.5675 -1.2405
  812MOL0     H12017   3.023   0.890   9.148 -2.2481  0.4417 -0.5296
  812MOL0     H12018   2.644   1.034   8.827 -0.4682  1.3127 -1.4288
  812MOL0     H12019   2.590   0.856   8.639 -0.1678 -1.5215 -0.6134
  812MOL0     H12020   2.268   0.580   8.722 -0.7712  1.1089 -0.1721
  812MOL0     H12021   2.263   0.736   8.655 -0.3338 -0.5007  1.0831
  812MOL0     H12022   2.337   0.673   8.442  0.9074  1.9071  1.1473
  812MOL0     H12023   2.335   0.503   8.489  3.9208  2.0208  2.0297
  812MOL0     H12024   2.134   0.637   8.366  4.0710  0.0654 -0.5797
  812MOL0     H12025   2.077   0.674   8.526  1.5613  1.8691 -1.8746
  812MOL0     H12026   2.082   0.418   8.564 -0.0911 -1.5492 -2.1460
  812MOL0     H12027   2.116   0.413   8.393  0.4473  3.3098 -2.4769
  812MOL0     H12028   1.871   0.518   8.530 -2.3759 -1.5267  0.3112
  812MOL0     H12029   1.897   0.544   8.352 -0.3035 -1.3137 -0.4650
  812MOL0     H12030   1.879   0.282   8.503  0.8624  0.5115  0.7514
  812MOL0     H12031   1.923   0.293   8.330 -2.2390 -1.8491 -1.0830
  812MOL0     H12032   1.725   0.403   8.259 -0.3268 -0.0268  0.4940
  812MOL0     H12033   1.670   0.439   8.421  0.3165  0.6976 -0.3809
  812MOL0     H12034   1.733   0.159   8.330 -1.2596 -1.1323 -0.2789
  812MOL0     H12035   1.593   0.233   8.244  0.0521  0.9240  0.6501
  812MOL0     H12036   2.394   0.614   8.933  1.8164 -0.4874  3.5284
  812MOL0     H12037   2.473   0.793   9.111  0.8716  3.5537  0.7093
  812MOL0     H12038   2.620   1.154   9.223  0.2435  0.1860 -0.5915
  812MOL0     H12039   2.713   1.315   9.387 -1.5877 -0.1218 -1.8275
  812MOL0     H12040   3.055   0.714  10.465  0.2453 -0.8394  4.2936
  812MOL0     H12041   2.831   0.618  10.450  0.5630 -1.9414  1.8557
  812MOL0     H12042   2.702   0.115  10.382  0.7749 -0.2010  2.6779
  812MOL0     H12043   2.538  -0.055  10.385  1.1281  0.0570 -0.9480
  812MOL0     H12044   2.366  -0.151  10.252 -0.2050  1.7607 -0.0797
  812MOL0     H12045   2.330  -0.203  10.425 -3.0258 -0.4652  0.6104
  812MOL0     H12046   2.153  -0.312  10.267  0.2878 -0.6112  1.6488
  812MOL0     H12047   2.112  -0.147  10.217 -0.8157  0.6200  1.0369
  812MOL0     H12048   2.097  -0.257  10.498 -2.7344 -1.3796  1.1009
  812MOL0     H12049   2.055  -0.094  10.444  1.1414 -0.8879  0.5661
  812MOL0     H12050   1.925  -0.335  10.335 -1.7252 -0.1436 -0.7750
  812MOL0     H12051   1.864  -0.175  10.314 -1.9643  0.8121  0.8941
  812MOL0     H12052   1.697  -0.244  10.685 -0.2622  1.7624 -0.0931
  812MOL0     H12053   2.224   0.211  10.402  0.5073 -0.7482 -0.5463
  812MOL0     H12054   2.396   0.491  10.520 -1.1008  1.5323  0.5535
  812MOL0     H12055   2.394   0.515  10.341 -3.6334  0.5116 -1.2307
  812MOL0     H12056   2.254   0.449  10.427  0.6093 -1.0508  0.1992
  813MOL0     O12057   9.596  11.338   2.445 -0.4853 -0.4694  0.1523
  813MOL0     C12058   9.617  11.424   2.355  0.5543 -0.8788 -0.1778
  813MOL0     O12059   9.732  11.499   2.334  0.8466 -0.1319  0.1435
  813MOL0     C12060   9.851  11.478   2.406  0.0384  0.6563 -0.5812
  813MOL0     C12061   9.860  11.449   2.548  0.5587 -0.4000  0.2444
  813MOL0     C12062   9.993  11.431   2.603 -0.2886 -0.7547  0.3364
  813MOL0     C12063  10.111  11.435   2.532 -0.4012 -0.7101 -0.5387
  813MOL0     O12064  10.229  11.402   2.597 -0.2459  0.3910  0.9637
  813MOL0     C12065  10.344  11.442   2.524 -0.1126  0.2087 -0.4527
  813MOL0     C12066  10.471  11.409   2.600  0.0608  0.1084  0.1269
  813MOL0     C12067  10.594  11.431   2.507 -0.2418 -0.1020  0.1722
  813MOL0     C12068  10.716  11.390   2.591  0.2954 -0.0753  0.8777
  813MOL0     C12069  10.834  11.436   2.516 -0.5666  0.1400 -0.5841
  813MOL0     C12070  10.951  11.391   2.612 -0.6111 -0.3213  0.6695
  813MOL0     C12071  11.078  11.426   2.541 -0.0033 -0.1039  0.2622
  813MOL0     C12072  11.184  11.383   2.639  0.8166 -0.8840  0.3555
  813MOL0     N12073  11.314  11.427   2.597  0.2998 -0.5104 -0.0549
  813MOL0     C12074  11.413  11.348   2.544 -0.6981  0.6705 -0.7033
  813MOL0     C12075  11.516  11.430   2.535  0.3202 -0.2303 -1.2523
  813MOL0     C12076  11.657  11.388   2.494 -0.6743  0.4539  0.7886
  813MOL0     C12077  11.725  11.302   2.598  0.8737  0.1471  0.3161
  813MOL0     C12078  11.871  11.292   2.565  0.0817 -0.2035 -0.8232
  813MOL0     C12079  11.900  11.201   2.444 -0.2093  0.6556  0.3938
  813MOL0     O12080  11.880  11.064   2.462 -1.1916  0.9141  0.1814
  813MOL0     C12081  11.773  10.994   2.420  0.1607 -1.1158  0.1743
  813MOL0     C12082  11.665  11.040   2.345 -0.3545  0.0781 -0.1330
  813MOL0     C12083  11.568  10.951   2.305 -0.3371 -0.4572  1.1286
  813MOL0     C12084  11.454  11.011   2.221  0.5572  1.2358  0.0941
  813MOL0     C12085  11.566  10.819   2.349 -1.1127  0.1834 -0.4966
  813MOL0     C12086  11.457  10.726   2.326  0.7137  0.0550 -0.0332
  813MOL0     O12087  11.324  10.761   2.340  0.3307 -0.1826 -0.0930
  813MOL0     C12088  11.234  10.669   2.294  1.3790  0.4481  0.1510
  813MOL0     C12089  11.203  10.558   2.377  1.3422  0.2947  0.5074
  813MOL0     C12090  11.114  10.459   2.344 -0.1938 -0.4571  0.2709
  813MOL0     C12091  11.038  10.474   2.224 -0.1238 -1.0219  0.0469
  813MOL0     O12092  10.940  10.385   2.183  0.5832  0.3921  0.1743
  813MOL0     C12093  10.817  10.398   2.256  0.4788  0.2342 -0.1856
  813MOL0     C12094  10.726  10.294   2.199  0.5627 -0.1604 -0.8407
  813MOL0     C12095  10.601  10.291   2.289  0.0683  0.2669 -0.0853
  813MOL0     C12096  10.488  10.221   2.225  0.8045 -0.2309 -0.2031
  813MOL0     C12097  10.376  10.230   2.322 -0.2581  0.9308 -0.5347
  813MOL0     C12098  10.261  10.127   2.298 -0.0525 -0.4919  0.8330
  813MOL0     C12099  10.204  10.123   2.156  0.4462 -0.0116 -0.4059
  813MOL0     C12100  10.138  10.260   2.128  1.0062 -0.1182  0.0503
  813MOL0    Cl12101  10.082  10.273   1.963  0.2583  1.0154  0.6578
  813MOL0     C12102  11.070  10.576   2.136  0.8511  0.2020 -0.2454
  813MOL0     C12103  11.170  10.676   2.169  0.0351 -0.8536 -1.4672
  813MOL0     O12104  11.489  10.608   2.313  0.4420 -0.1530 -0.2732
  813MOL0     C12105  11.684  10.767   2.419  0.1589 -0.2364 -0.8267
  813MOL0     C12106  11.786  10.856   2.449 -1.0487 -0.2773 -0.0651
  813MOL0     N12107  11.488  11.557   2.576  0.0601  0.1428  0.4058
  813MOL0     N12108  11.362  11.557   2.617 -0.1764  0.4965  0.3971
  813MOL0     C12109  10.096  11.463   2.390  0.2370 -0.0303  0.6653
  813MOL0     C12110   9.971  11.471   2.331  0.3002 -0.2789  0.0847
  813MOL0     C12111   9.493  11.467   2.274 -0.2163  0.6832 -0.1357
  813MOL0     C12112   9.517  11.500   2.135  0.4722  0.5373 -0.8612
  813MOL0     C12113   9.401  11.546   2.059 -0.8485  0.5722  0.3876
  813MOL0     C12114   9.275  11.555   2.111  0.4758  0.9060 -0.2411
  813MOL0     O12115   9.159  11.583   2.049  0.0550 -0.0568  0.8016
  813MOL0     C12116   9.161  11.611   1.913 -0.0234 -0.1537  0.1466
  813MOL0     C12117   9.020  11.628   1.866 -0.1615 -0.4471 -0.2088
  813MOL0     C12118   8.980  11.774   1.906  0.7822  0.7612  0.3628
  813MOL0     C12119   8.863  11.822   1.826  0.6144 -0.0290  0.6293
  813MOL0     C12120   8.735  11.782   1.875 -0.7838 -0.2252 -0.4929
  813MOL0     C12121   8.615  11.735   1.885 -0.4728 -0.1017  0.0662
  813MOL0     C12122   9.255  11.529   2.243  0.0861  0.3564  0.1222
  813MOL0     C12123   9.359  11.483   2.329  0.3312 -0.0419  0.5087
  813MOL0     C12124   9.325  11.454   2.469 -0.1932 -0.3828  0.0380
  813MOL0     H12125   9.770  11.440   2.607  0.2909  0.0060 -0.0954
  813MOL0     H12126  10.003  11.396   2.705 -2.3504 -3.4345 -0.2628
  813MOL0     H12127  10.340  11.546   2.491 -1.9528 -0.6954 -3.4261
  813MOL0     H12128  10.343  11.383   2.432  2.5733  0.2420 -0.5812
  813MOL0     H12129  10.480  11.472   2.689 -2.4801  0.6169  0.1133
  813MOL0     H12130  10.476  11.304   2.632 -1.3997 -0.9301 -2.6946
  813MOL0     H12131  10.597  11.370   2.417 -1.4437 -1.1758  0.8279
  813MOL0     H12132  10.606  11.532   2.468 -1.3180  0.8567  2.1398
  813MOL0     H12133  10.722  11.432   2.692  3.4584 -0.7572  1.0692
  813MOL0     H12134  10.722  11.281   2.604 -1.0758 -0.2097  0.4963
  813MOL0     H12135  10.846  11.543   2.499  1.4207  0.4614  2.1644
  813MOL0     H12136  10.841  11.391   2.417 -0.4789 -0.9036 -0.1208
  813MOL0     H12137  10.939  11.452   2.702 -2.3449  0.2429  0.0981
  813MOL0     H12138  10.953  11.285   2.637 -0.0612 -0.2188  1.0855
  813MOL0     H12139  11.085  11.534   2.522  2.2025  0.4595  3.4550
  813MOL0     H12140  11.089  11.377   2.444  0.3899  0.9128 -0.2171
  813MOL0     H12141  11.166  11.416   2.742 -0.3904  0.4363 -0.2397
  813MOL0     H12142  11.169  11.275   2.628 -0.3182 -0.6877 -0.2494
  813MOL0     H12143  11.400  11.246   2.508 -0.7107  0.0494  1.0003
  813MOL0     H12144  11.721  11.476   2.483  1.5889 -0.9753  1.8347
  813MOL0     H12145  11.649  11.340   2.396  1.1866 -0.6401  1.1209
  813MOL0     H12146  11.709  11.358   2.690 -2.6457 -0.6459  0.3239
  813MOL0     H12147  11.677  11.203   2.597 -2.5740  1.6869 -0.5942
  813MOL0     H12148  11.911  11.391   2.543  0.2635  0.1377  0.9452
  813MOL0     H12149  11.923  11.254   2.653 -0.4780 -3.3926 -1.7065
  813MOL0     H12150  11.837  11.235   2.361 -0.9621 -0.0509  0.6653
  813MOL0     H12151  12.003  11.205   2.408 -0.7048  0.4946 -1.1475
  813MOL0     H12152  11.653  11.146   2.327  1.5888  0.7078  1.8417
  813MOL0     H12153  11.376  10.940   2.192  1.1351  0.7810 -0.3636
  813MOL0     H12154  11.495  11.034   2.122 -0.8449  1.1118 -0.5380
  813MOL0     H12155  11.406  11.096   2.270 -0.1824  1.0815 -0.3559
  813MOL0     H12156  11.261  10.543   2.467  1.2909 -4.1857  0.0037
  813MOL0     H12157  11.105  10.368   2.401  1.6147  0.0202  1.4063
  813MOL0     H12158  10.841  10.363   2.357  1.4453  0.0774 -0.4628
  813MOL0     H12159  10.779  10.500   2.268  2.3437  0.8109  1.2721
  813MOL0     H12160  10.698  10.320   2.097 -1.5521 -4.7728 -1.6819
  813MOL0     H12161  10.775  10.196   2.202  0.3941 -0.2244  0.8651
  813MOL0     H12162  10.564  10.391   2.316  1.2828  0.1970  2.0905
  813MOL0     H12163  10.631  10.250   2.386  0.9655 -3.3490 -1.7178
  813MOL0     H12164  10.516  10.117   2.206 -1.6702 -1.1556  0.8766
  813MOL0     H12165  10.463  10.273   2.132  0.9147  2.5205  1.2095
  813MOL0     H12166  10.416  10.211   2.422  0.3364 -3.7713 -1.3901
  813MOL0     H12167  10.340  10.333   2.325  0.0163  1.1288 -2.5594
  813MOL0     H12168  10.178  10.149   2.366 -0.2427  3.0834 -0.3620
  813MOL0     H12169  10.286  10.024   2.327 -1.3955 -2.1508 -3.1754
  813MOL0     H12170  10.138  10.035   2.154  2.1503 -1.3699 -2.2122
  813MOL0     H12171  10.278  10.103   2.077  0.0209 -3.8934 -0.0512
  813MOL0     H12172  10.216  10.335   2.146  3.0581 -2.3999  1.2187
  813MOL0     H12173  10.052  10.277   2.193  0.1089  2.6213 -1.6582
  813MOL0     H12174  11.007  10.579   2.047  2.0968 -1.3003 -1.2217
  813MOL0     H12175  11.190  10.757   2.099  1.7771  0.0323 -0.0164
  813MOL0     H12176  11.680  10.664   2.453 -0.4562  0.2838  0.8064
  813MOL0     H12177  11.868  10.820   2.511 -2.4279 -1.5480  1.0934
  813MOL0     H12178  10.184  11.460   2.326  0.2385  2.8172  0.3965
  813MOL0     H12179   9.959  11.495   2.226  0.6502 -0.4453  0.0088
  813MOL0     H12180   9.614  11.483   2.091  1.0514  0.7405  0.2897
  813MOL0     H12181   9.417  11.558   1.952 -2.0060  2.1864  0.3638
  813MOL0     H12182   9.212  11.704   1.886 -0.6097 -0.0921 -0.8071
  813MOL0     H12183   9.212  11.531   1.859  0.0921 -1.1699  1.6897
  813MOL0     H12184   8.957  11.562   1.926 -0.1889  0.7574  1.1335
  813MOL0     H12185   9.006  11.617   1.758 -2.8858  0.3217 -0.0140
  813MOL0     H12186   8.948  11.776   2.011 -1.7544 -2.2893 -0.2095
  813MOL0     H12187   9.067  11.840   1.900  0.3085  1.4075  0.3876
  813MOL0     H12188   8.879  11.794   1.722 -0.5493 -0.3405  0.5180
  813MOL0     H12189   8.852  11.930   1.817 -0.6836 -0.1094  0.9554
  813MOL0     H12190   8.513  11.704   1.893 -1.4549  2.4276 -1.4676
  813MOL0     H12191   9.150  11.541   2.269  0.6154  0.5928  2.3894
  813MOL0     H12192   9.221  11.472   2.499 -1.8182 -3.4535 -2.9478
  813MOL0     H12193   9.340  11.346   2.484  0.6778 -0.7061 -2.6743
  813MOL0     H12194   9.396  11.509   2.530 -0.5395  1.8406 -1.4711
  814MOL0     O12195   4.398   6.147   7.585 -0.9107 -0.2391 -0.4532
  814MOL0     C12196   4.317   6.170   7.501  0.4838  0.5119 -0.0826
  814MOL0     O12197   4.341   6.223   7.379  0.5139  0.5742 -0.0466
  814MOL0     C12198   4.458   6.268   7.329 -0.1753  0.5965 -0.9700
  814MOL0     C12199   4.552   6.333   7.398  0.4763  0.3032  0.3235
  814MOL0     C12200   4.673   6.373   7.338  0.3949  0.0359 -0.1571
  814MOL0     C12201   4.699   6.359   7.206  0.8632  0.6626  0.8063
  814MOL0     O12202   4.822   6.396   7.158  0.2544 -0.1139 -0.1090
  814MOL0     C12203   4.927   6.453   7.234 -0.4574  0.2874 -1.4065
  814MOL0     C12204   5.050   6.494   7.138  0.5570  0.3410 -0.5793
  814MOL0     C12205   5.138   6.584   7.229 -0.4571  0.0382  0.0763
  814MOL0     C12206   5.262   6.635   7.160 -0.0384  0.3405 -0.6393
  814MOL0     C12207   5.367   6.517   7.127 -0.6059  0.2483  0.0066
  814MOL0     C12208   5.509   6.570   7.079 -0.0653  0.7890  0.3399
  814MOL0     C12209   5.603   6.448   7.068 -0.9917 -0.7434  0.5786
  814MOL0     C12210   5.734   6.493   7.003  0.3563  0.4431  0.9426
  814MOL0     N12211   5.843   6.402   7.030 -0.8605 -0.1516 -0.7613
  814MOL0     C12212   5.963   6.438   7.098  0.0824  0.2860 -0.8139
  814MOL0     C12213   6.025   6.318   7.101 -0.3745 -0.6106  0.0445
  814MOL0     C12214   6.154   6.290   7.171 -0.2887  0.0590  0.2858
  814MOL0     C12215   6.278   6.308   7.081 -0.1056  0.2145 -0.5873
  814MOL0     C12216   6.284   6.197   6.979  0.4324  0.4328  0.1475
  814MOL0     C12217   6.421   6.161   6.921  0.1302 -0.0821 -0.6985
  814MOL0     O12218   6.518   6.122   7.020 -0.4240 -0.3320 -0.2156
  814MOL0     C12219   6.648   6.166   6.992  0.4480  0.5940 -0.0878
  814MOL0     C12220   6.713   6.125   6.880  0.1099  0.6936  0.2633
  814MOL0     C12221   6.848   6.150   6.855  0.2441 -0.2711  0.3025
  814MOL0     C12222   6.905   6.102   6.721  0.2808 -0.3064  0.3544
  814MOL0     C12223   6.926   6.228   6.951 -0.2450  0.6765 -0.1005
  814MOL0     C12224   7.063   6.269   6.933 -0.0427  0.4079 -0.2082
  814MOL0     O12225   7.133   6.297   7.041 -0.1086 -0.4873  0.7274
  814MOL0     C12226   7.247   6.375   7.049  0.1173  0.5142  0.4104
  814MOL0     C12227   7.305   6.460   6.948  0.0329  0.0417  0.4786
  814MOL0     C12228   7.426   6.530   6.962 -0.4226 -0.5224 -0.1950
  814MOL0     C12229   7.484   6.535   7.095 -0.1052 -0.1997  0.4600
  814MOL0     O12230   7.592   6.609   7.112 -0.6606 -0.1950  0.2012
  814MOL0     C12231   7.694   6.573   7.207 -0.0424  0.2559 -0.6220
  814MOL0     C12232   7.828   6.604   7.149  0.0646 -0.1831  0.3646
  814MOL0     C12233   7.944   6.530   7.221 -0.1950 -0.3516 -0.5268
  814MOL0     C12234   8.065   6.614   7.220 -0.3199 -0.5472 -0.0783
  814MOL0     C12235   8.175   6.540   7.316  0.1111 -0.1558  0.5974
  814MOL0     C12236   8.315   6.590   7.297  0.5556 -0.3463 -0.2730
  814MOL0     C12237   8.414   6.479   7.346 -0.2312 -0.6479  0.2012
  814MOL0     C12238   8.553   6.538   7.333 -1.3772 -0.4287  0.8916
  814MOL0    Cl12239   8.666   6.438   7.426 -0.0453 -0.3669 -0.4213
  814MOL0     C12240   7.426   6.464   7.195 -0.4677 -0.2781  0.1064
  814MOL0     C12241   7.314   6.381   7.174 -0.4418 -0.0128  0.2413
  814MOL0     O12242   7.097   6.283   6.818 -0.0174 -0.0914  0.1413
  814MOL0     C12243   6.856   6.270   7.069  0.0884 -0.2628  0.0664
  814MOL0     C12244   6.718   6.235   7.085 -0.6412 -0.4293 -0.4353
  814MOL0     N12245   5.962   6.221   7.032  0.1614  0.9519  0.1298
  814MOL0     N12246   5.846   6.271   7.000 -0.1537  0.5279  0.2302
  814MOL0     C12247   4.595   6.292   7.122 -0.1718 -0.3028 -0.6609
  814MOL0     C12248   4.481   6.250   7.192  0.2039  0.5382  0.4561
  814MOL0     C12249   4.172   6.133   7.533 -0.2016  0.7180 -0.4777
  814MOL0     C12250   4.119   6.025   7.460  0.1925 -0.4799 -0.5124
  814MOL0     C12251   3.987   5.983   7.477 -0.2165  0.6161  0.0547
  814MOL0     C12252   3.906   6.055   7.562  0.2265 -0.1264 -0.6212
  814MOL0     O12253   3.775   6.027   7.565  0.0834  0.1761  0.4807
  814MOL0     C12254   3.680   6.087   7.470  0.3554  0.8898 -0.0016
  814MOL0     C12255   3.536   6.095   7.532  0.5349 -0.2984 -0.0311
  814MOL0     C12256   3.494   5.974   7.614  0.5273 -1.0381  0.9615
  814MOL0     C12257   3.531   5.834   7.550  0.0658  0.1121  0.0606
  814MOL0     C12258   3.445   5.726   7.602  0.3874 -0.4920  0.6213
  814MOL0     C12259   3.381   5.633   7.634 -0.4386  0.0863 -0.1488
  814MOL0     C12260   3.963   6.165   7.634 -0.2233  0.1110  0.5221
  814MOL0     C12261   4.099   6.202   7.623  0.3488 -0.7106  0.6629
  814MOL0     C12262   4.160   6.323   7.704 -0.3145  0.0337  0.4349
  814MOL0     H12263   4.540   6.360   7.503 -1.9087 -0.1211  0.1994
  814MOL0     H12264   4.747   6.420   7.402  0.7324 -2.4384  1.3882
  814MOL0     H12265   4.949   6.383   7.314  0.3399  1.8528 -0.2079
  814MOL0     H12266   4.881   6.542   7.280  0.1078  1.0401 -2.2527
  814MOL0     H12267   5.111   6.409   7.106  0.0575 -1.3542  2.5638
  814MOL0     H12268   5.013   6.558   7.057 -2.2805 -1.4024 -0.8173
  814MOL0     H12269   5.084   6.676   7.257 -1.5724 -0.5016 -0.2484
  814MOL0     H12270   5.170   6.529   7.318  1.0198 -3.0010 -2.1977
  814MOL0     H12271   5.243   6.691   7.068  1.6733  0.2531 -1.0836
  814MOL0     H12272   5.310   6.709   7.225 -1.6035 -0.0168  0.9979
  814MOL0     H12273   5.325   6.448   7.053 -1.3485  2.3825 -1.6419
  814MOL0     H12274   5.379   6.447   7.210  1.5302  0.4618 -0.0549
  814MOL0     H12275   5.497   6.624   6.985  0.0390 -0.7312 -0.5706
  814MOL0     H12276   5.538   6.649   7.150 -1.0710  1.9672 -0.5082
  814MOL0     H12277   5.565   6.376   6.996  0.3964 -0.4522 -0.5014
  814MOL0     H12278   5.626   6.414   7.169  0.6141  3.8354  1.9991
  814MOL0     H12279   5.713   6.499   6.896 -0.7858  1.7887  1.2037
  814MOL0     H12280   5.754   6.594   7.042  1.7556  0.5460  0.0020
  814MOL0     H12281   6.002   6.522   7.155 -0.6621  2.3283 -3.1378
  814MOL0     H12282   6.160   6.187   7.207 -2.2265 -0.0191  0.4859
  814MOL0     H12283   6.160   6.357   7.257  1.3605  0.0375  0.2149
  814MOL0     H12284   6.263   6.398   7.021  3.8368 -0.8212 -3.5866
  814MOL0     H12285   6.363   6.313   7.150 -0.3261  0.3997 -0.3275
  814MOL0     H12286   6.241   6.106   7.021 -0.6096  1.0278  0.4043
  814MOL0     H12287   6.223   6.218   6.891 -0.2260  0.0942  0.5208
  814MOL0     H12288   6.400   6.075   6.857 -0.2046 -0.8110  0.3637
  814MOL0     H12289   6.459   6.239   6.854  0.0276  0.9986  0.4785
  814MOL0     H12290   6.652   6.067   6.812  0.4266  1.3416 -0.5963
  814MOL0     H12291   6.991   6.036   6.734  2.1516  2.2190  1.5923
  814MOL0     H12292   6.942   6.185   6.660  2.0026 -1.6842 -0.5362
  814MOL0     H12293   6.819   6.054   6.673 -0.5317  2.0212 -0.6741
  814MOL0     H12294   7.258   6.465   6.851  2.4061  1.6447 -0.6873
  814MOL0     H12295   7.475   6.577   6.877  0.7398  3.0535  2.2439
  814MOL0     H12296   7.688   6.630   7.300  0.3006  1.7966 -1.4974
  814MOL0     H12297   7.697   6.465   7.221  2.1641  0.3912  0.4189
  814MOL0     H12298   7.835   6.567   7.046  1.6554 -1.5980  0.9411
  814MOL0     H12299   7.833   6.713   7.143 -1.0897 -0.1618 -0.6843
  814MOL0     H12300   7.966   6.432   7.179  1.7385 -0.4064  0.5244
  814MOL0     H12301   7.910   6.524   7.324  0.8564  0.9628 -0.0769
  814MOL0     H12302   8.037   6.714   7.254  2.2271  2.4225 -5.4980
  814MOL0     H12303   8.104   6.639   7.121  0.3746  1.7510  0.7216
  814MOL0     H12304   8.141   6.571   7.415 -0.7268  3.1859 -0.6164
  814MOL0     H12305   8.165   6.431   7.309 -1.2821 -0.1662  2.0877
  814MOL0     H12306   8.330   6.682   7.353  0.4756 -0.3611 -0.2273
  814MOL0     H12307   8.336   6.615   7.192 -0.7379  2.5249  0.0520
  814MOL0     H12308   8.407   6.389   7.285  1.5819 -1.2017  0.7419
  814MOL0     H12309   8.401   6.455   7.452  1.4115  2.5328  1.2653
  814MOL0     H12310   8.558   6.638   7.377 -0.4945  1.1705 -2.4556
  814MOL0     H12311   8.592   6.540   7.230 -0.6870 -1.0905  1.1320
  814MOL0     H12312   7.477   6.455   7.290  2.6835  1.0761 -1.3184
  814MOL0     H12313   7.272   6.329   7.259  0.3396 -0.1023  0.5837
  814MOL0     H12314   6.900   6.315   7.157  0.0794 -2.5344  1.3071
  814MOL0     H12315   6.682   6.262   7.183  0.9722  1.0058 -0.1852
  814MOL0     H12316   4.608   6.286   7.015 -3.0772 -1.0206 -1.0768
  814MOL0     H12317   4.400   6.209   7.132 -1.1789 -1.9198  3.7058
  814MOL0     H12318   4.163   5.994   7.366  0.4507  1.7546 -1.1956
  814MOL0     H12319   3.937   5.905   7.419 -0.2452  0.1133  0.7456
  814MOL0     H12320   3.707   6.188   7.437  1.1057  0.8658  0.5224
  814MOL0     H12321   3.672   6.025   7.380  3.8608 -1.2426  0.9899
  814MOL0     H12322   3.468   6.109   7.448 -1.9333 -0.7648  1.7830
  814MOL0     H12323   3.515   6.183   7.594  1.3036 -0.4852  0.5196
  814MOL0     H12324   3.541   5.989   7.711  3.0126  3.8065 -0.6411
  814MOL0     H12325   3.385   5.974   7.617  0.4905  1.2519  1.7865
  814MOL0     H12326   3.637   5.819   7.569  0.4799  2.1750 -0.4104
  814MOL0     H12327   3.515   5.841   7.442 -1.2852 -2.9096 -0.0487
  814MOL0     H12328   3.346   5.536   7.663 -2.6263  0.7729 -0.3189
  814MOL0     H12329   3.892   6.224   7.691 -0.0309 -0.1425  1.0389
  814MOL0     H12330   4.085   6.347   7.780  0.5889  2.7501  0.5694
  814MOL0     H12331   4.247   6.292   7.763 -0.8678  0.2673  1.3888
  814MOL0     H12332   4.179   6.411   7.642 -0.5966  0.8207  1.4294
  815MOL0     O12333   4.676  10.523   9.796 -0.0252 -0.1728  0.1248
  815MOL0     C12334   4.724  10.508   9.905 -0.5689  0.2964 -0.5244
  815MOL0     O12335   4.708  10.599  10.013  0.0540 -0.3844 -0.3229
  815MOL0     C12336   4.671  10.729   9.990 -0.7282  0.0673 -0.7868
  815MOL0     C12337   4.746  10.833  10.055  0.5772  0.4637 -1.1461
  815MOL0     C12338   4.707  10.966  10.038  0.2002 -0.0146 -1.0571
  815MOL0     C12339   4.583  10.994   9.972 -0.0725 -0.1461 -0.0957
  815MOL0     O12340   4.539  11.123   9.953 -0.4553 -0.1038 -0.3131
  815MOL0     C12341   4.504  11.212  10.063 -0.4045 -0.5076 -0.0836
  815MOL0     C12342   4.385  11.157  10.136 -0.6012 -0.7098  0.6593
  815MOL0     C12343   4.265  11.165  10.036 -0.2960 -0.0817 -0.7261
  815MOL0     C12344   4.129  11.198  10.096  0.0042  0.7725  0.1518
  815MOL0     C12345   4.016  11.157  10.001 -0.0201  0.4995 -0.0534
  815MOL0     C12346   3.877  11.186  10.062  0.1904 -0.3692 -0.1017
  815MOL0     C12347   3.765  11.144   9.972 -0.2820  0.9101 -0.8034
  815MOL0     C12348   3.634  11.218   9.989  0.8695 -0.0777 -0.5788
  815MOL0     N12349   3.555  11.210   9.872 -0.4968  0.1162 -0.5843
  815MOL0     C12350   3.508  11.102   9.807 -0.0673 -0.3311  0.2134
  815MOL0     C12351   3.458  11.146   9.687  0.1116  0.1814  1.0111
  815MOL0     C12352   3.402  11.058   9.574 -0.5181 -0.7827 -0.7921
  815MOL0     C12353   3.490  10.930   9.552 -0.3199 -0.6661 -0.2038
  815MOL0     C12354   3.637  10.964   9.520 -0.0107 -0.0916 -0.1280
  815MOL0     C12355   3.655  11.062   9.396 -0.0668 -0.0671 -0.1490
  815MOL0     O12356   3.795  11.078   9.375 -0.4139 -0.4939 -0.1340
  815MOL0     C12357   3.839  11.201   9.329  0.4832  0.8271  1.1345
  815MOL0     C12358   3.865  11.304   9.416 -0.0517  0.2041  0.2163
  815MOL0     C12359   3.914  11.425   9.370  0.1315 -0.5042 -0.1873
  815MOL0     C12360   3.950  11.535   9.471 -0.7956 -0.1603  0.0090
  815MOL0     C12361   3.938  11.452   9.231  0.5656  0.7706 -0.6199
  815MOL0     C12362   3.988  11.585   9.177  0.3098  0.0720  0.2627
  815MOL0     O12363   4.080  11.649   9.244 -0.3334 -0.2390  0.2367
  815MOL0     C12364   4.093  11.787   9.223 -0.2903 -1.3539  0.1878
  815MOL0     C12365   3.984  11.869   9.253  1.1416  0.1264  0.7887
  815MOL0     C12366   3.988  12.006   9.216 -0.2238 -0.3766  0.2385
  815MOL0     C12367   4.110  12.059   9.165 -0.3530  0.0848  0.6732
  815MOL0     O12368   4.138  12.187   9.144 -0.0979  0.2421  0.0490
  815MOL0     C12369   4.036  12.283   9.166  0.0132 -0.0467 -0.3825
  815MOL0     C12370   4.101  12.412   9.123 -0.0339 -0.4223 -0.9262
  815MOL0     C12371   4.038  12.536   9.190 -0.9410 -0.7612 -0.1282
  815MOL0     C12372   4.094  12.584   9.318 -0.2557  0.2319 -0.3574
  815MOL0     C12373   4.025  12.707   9.377 -0.4630 -0.1977 -0.4033
  815MOL0     C12374   4.038  12.719   9.527 -0.2038 -0.4911  0.8113
  815MOL0     C12375   4.178  12.741   9.566 -0.3429  0.6483  0.7428
  815MOL0     C12376   4.201  12.724   9.712  0.1239  0.6351 -0.0735
  815MOL0    Cl12377   4.383  12.722   9.730  0.5586 -0.2535 -0.2046
  815MOL0     C12378   4.217  11.978   9.146 -0.1490  0.1552 -0.8024
  815MOL0     C12379   4.211  11.841   9.179 -0.3077  0.6241  0.3054
  815MOL0     O12380   3.942  11.616   9.067  0.1025  0.0845 -0.6618
  815MOL0     C12381   3.915  11.338   9.148  0.2793  0.0074 -0.1822
  815MOL0     C12382   3.861  11.225   9.197 -0.0936  0.2298  1.2171
  815MOL0     N12383   3.478  11.280   9.684  1.0604 -0.5315  0.4157
  815MOL0     N12384   3.539  11.321   9.789  0.1555  1.0510  0.3343
  815MOL0     C12385   4.508  10.885   9.929  0.0659  0.9692  0.2739
  815MOL0     C12386   4.555  10.754   9.928 -0.3035 -0.1105 -1.7375
  815MOL0     C12387   4.796  10.381   9.950 -0.2248 -0.0219 -1.1823
  815MOL0     C12388   4.915  10.336   9.887  0.0604 -0.2901  0.3889
  815MOL0     C12389   4.981  10.219   9.926  0.0391 -0.4635  0.0785
  815MOL0     C12390   4.947  10.150  10.039 -0.0927  0.0342 -0.6251
  815MOL0     O12391   5.011  10.042  10.082 -0.5340  0.6090 -0.6817
  815MOL0     C12392   5.104   9.966  10.002 -0.0335 -0.3169  0.2833
  815MOL0     C12393   5.190   9.880  10.097  0.8126 -1.1216  0.0413
  815MOL0     C12394   5.274   9.986  10.181 -0.4871 -0.1830  0.4823
  815MOL0     C12395   5.381   9.921  10.271  0.5101  0.5277 -0.2785
  815MOL0     C12396   5.454  10.028  10.350  0.0934 -0.2096  0.8021
  815MOL0     C12397   5.508  10.116  10.412 -0.3839 -0.1458  0.5271
  815MOL0     C12398   4.830  10.190  10.105  0.1845 -0.3941 -0.2288
  815MOL0     C12399   4.746  10.294  10.053 -1.1237 -0.2891 -1.4626
  815MOL0     C12400   4.621  10.320  10.127 -0.2208  1.1512 -0.2489
  815MOL0     H12401   4.837  10.814  10.111 -0.1205 -0.4198 -0.2811
  815MOL0     H12402   4.759  11.050  10.083  0.1309 -1.1801  1.3640
  815MOL0     H12403   4.484  11.311  10.020  0.3752 -0.8272 -1.2270
  815MOL0     H12404   4.584  11.241  10.132 -2.8152  4.1731  1.1407
  815MOL0     H12405   4.395  11.058  10.180  2.1986 -0.4573  0.7923
  815MOL0     H12406   4.367  11.230  10.216 -1.1445  0.1965 -0.2550
  815MOL0     H12407   4.287  11.240   9.960  3.4661 -1.0203 -0.7662
  815MOL0     H12408   4.259  11.066   9.990  0.4829 -0.9998  1.0355
  815MOL0     H12409   4.117  11.157  10.197 -3.6606  1.6373  0.2154
  815MOL0     H12410   4.137  11.306  10.107 -1.8676  1.1014 -1.3535
  815MOL0     H12411   4.021  11.048   9.987 -0.5338  0.4613  0.0536
  815MOL0     H12412   4.052  11.203   9.909  2.0612  2.8257  1.7934
  815MOL0     H12413   3.867  11.129  10.155  1.6479 -0.1739  0.2008
  815MOL0     H12414   3.864  11.294  10.073  1.9800  0.3601 -3.7771
  815MOL0     H12415   3.754  11.036   9.982 -2.2866  0.9557 -1.9940
  815MOL0     H12416   3.808  11.167   9.873  4.0477 -1.3025  0.3077
  815MOL0     H12417   3.579  11.182  10.077  1.9043  1.3548  0.6976
  815MOL0     H12418   3.659  11.321  10.018 -1.3384  0.8915 -1.8270
  815MOL0     H12419   3.510  10.999   9.841 -1.9350 -0.5142 -0.1689
  815MOL0     H12420   3.399  11.120   9.483  0.5766 -1.0388 -1.0084
  815MOL0     H12421   3.299  11.027   9.597 -1.4033  1.5154 -1.3691
  815MOL0     H12422   3.482  10.866   9.641 -1.1911  0.9842  0.9613
  815MOL0     H12423   3.463  10.871   9.464  1.8223  0.0495 -1.3951
  815MOL0     H12424   3.688  11.017   9.601 -0.9416  2.6145 -1.1852
  815MOL0     H12425   3.683  10.870   9.489  2.8918  0.8322  1.0385
  815MOL0     H12426   3.623  11.004   9.309 -0.3444  2.8244 -2.1258
  815MOL0     H12427   3.606  11.160   9.395 -1.8552 -0.8912  1.0017
  815MOL0     H12428   3.864  11.291   9.524 -1.5266  1.7560  0.4392
  815MOL0     H12429   3.896  11.628   9.455  1.5815  0.9784 -2.2224
  815MOL0     H12430   4.056  11.564   9.476 -1.2233  1.2458  1.5631
  815MOL0     H12431   3.923  11.498   9.570  0.5305  1.1991  0.9388
  815MOL0     H12432   3.897  11.829   9.304  0.7958  0.1045  0.1910
  815MOL0     H12433   3.911  12.079   9.240 -1.4328 -1.0488 -1.3655
  815MOL0     H12434   3.948  12.261   9.104  0.4315 -1.9716 -0.3655
  815MOL0     H12435   4.012  12.287   9.272 -1.8684 -1.3931 -0.6969
  815MOL0     H12436   4.206  12.399   9.148  0.2205  1.1627 -1.0564
  815MOL0     H12437   4.094  12.419   9.014 -1.6594  2.5239 -0.7386
  815MOL0     H12438   3.930  12.520   9.195 -0.8824 -1.7127 -1.5175
  815MOL0     H12439   4.049  12.618   9.118 -1.5999  0.5413  1.1992
  815MOL0     H12440   4.198  12.612   9.302 -0.1146 -0.1125 -0.0339
  815MOL0     H12441   4.082  12.500   9.386 -0.3562  1.9797  1.9251
  815MOL0     H12442   4.077  12.795   9.339  0.1791  0.0032  0.8802
  815MOL0     H12443   3.926  12.720   9.332 -0.7090  2.5382  0.7015
  815MOL0     H12444   4.012  12.624   9.573 -0.7209 -0.9601 -0.3976
  815MOL0     H12445   3.973  12.796   9.570 -1.3290 -0.9086 -0.0760
  815MOL0     H12446   4.211  12.842   9.539 -0.1025 -0.0368 -1.7284
  815MOL0     H12447   4.234  12.667   9.508 -1.8521  1.6918 -2.2476
  815MOL0     H12448   4.165  12.624   9.740 -1.5356  1.4669  0.9217
  815MOL0     H12449   4.162  12.802   9.779 -0.6814 -2.3483  3.2517
  815MOL0     H12450   4.308  12.022   9.106  0.4129 -0.1879  0.0555
  815MOL0     H12451   4.285  11.763   9.164 -0.8692  0.2535 -0.6122
  815MOL0     H12452   3.943  11.357   9.045  4.7681 -1.4784  0.5378
  815MOL0     H12453   3.837  11.148   9.124 -0.6119  3.2266 -2.0277
  815MOL0     H12454   4.412  10.892   9.879  0.6348  0.4356 -0.9258
  815MOL0     H12455   4.506  10.668   9.883  1.9648  0.2407 -5.2932
  815MOL0     H12456   4.951  10.389   9.799  1.5095  3.2713  2.8880
  815MOL0     H12457   5.062  10.190   9.859  0.4775  2.8360 -0.9944
  815MOL0     H12458   5.043   9.898   9.943 -0.4343 -0.2698  0.6399
  815MOL0     H12459   5.169  10.035   9.947  0.1699  0.3080  1.2645
  815MOL0     H12460   5.253   9.815  10.036 -0.8147 -1.9368 -0.8514
  815MOL0     H12461   5.129   9.812  10.157  2.5486 -1.3677  1.5907
  815MOL0     H12462   5.327  10.053  10.112 -2.9791  0.6738 -0.7349
  815MOL0     H12463   5.206  10.046  10.242  0.0343  0.0098  0.8788
  815MOL0     H12464   5.450   9.865  10.207  0.9475  0.4756  0.2264
  815MOL0     H12465   5.328   9.854  10.339 -1.8057  4.1408  1.8203
  815MOL0     H12466   5.543  10.211  10.448 -2.6237  0.2304  1.9196
  815MOL0     H12467   4.821  10.130  10.195  4.2832 -0.7426  0.1293
  815MOL0     H12468   4.599  10.247  10.206 -1.2941  3.8941  2.1611
  815MOL0     H12469   4.607  10.416  10.177  0.7240  1.2024 -0.0661
  815MOL0     H12470   4.540  10.297  10.058 -1.0559 -1.6364  1.4973
  816MOL0     O12471   6.533  11.108   2.330 -0.3415  0.3082 -1.0400
  816MOL0     C12472   6.562  11.062   2.215  0.7543  0.4122  0.5707
  816MOL0     O12473   6.691  11.057   2.157  0.5069 -0.7166 -0.2174
  816MOL0     C12474   6.787  11.121   2.222 -0.3265 -0.0156  0.2307
  816MOL0     C12475   6.842  11.050   2.325  0.1273  0.4428 -0.3737
  816MOL0     C12476   6.954  11.099   2.387  0.7320  0.1364 -0.2319
  816MOL0     C12477   7.005  11.224   2.362 -0.3644  0.0228 -0.3307
  816MOL0     O12478   7.120  11.270   2.429 -0.3654 -0.3992 -0.4803
  816MOL0     C12479   7.240  11.283   2.359 -0.2218  0.0982  0.1240
  816MOL0     C12480   7.266  11.430   2.328  0.6764  0.3072  0.0036
  816MOL0     C12481   7.400  11.458   2.257  0.0933  0.0022 -0.4724
  816MOL0     C12482   7.436  11.603   2.263 -0.4921  0.1953  0.8929
  816MOL0     C12483   7.586  11.617   2.240 -0.5604 -0.0656 -0.0910
  816MOL0     C12484   7.618  11.768   2.246 -0.6262 -0.6683 -0.1216
  816MOL0     C12485   7.771  11.785   2.241  0.6314 -1.0691  0.5755
  816MOL0     C12486   7.814  11.915   2.172 -0.0235 -0.7609  0.3702
  816MOL0     N12487   7.959  11.912   2.145  0.3867 -0.5489  0.9193
  816MOL0     C12488   8.034  12.007   2.201 -0.5244  0.3709 -0.4280
  816MOL0     C12489   8.156  11.985   2.154 -0.0181 -0.1735  0.2614
  816MOL0     C12490   8.287  12.044   2.187  0.6711 -0.2154  0.2415
  816MOL0     C12491   8.353  11.978   2.305  0.1077 -0.6670  0.2557
  816MOL0     C12492   8.487  11.899   2.265 -0.5990  0.7493  0.4669
  816MOL0     C12493   8.601  11.988   2.221  0.6855 -1.2571  0.1881
  816MOL0     O12494   8.640  12.078   2.327  0.3527  0.1213  0.4857
  816MOL0     C12495   8.763  12.140   2.314 -0.3262  0.5284  0.3276
  816MOL0     C12496   8.844  12.151   2.194  0.1106  0.3678  0.2110
  816MOL0     C12497   8.969  12.211   2.189  0.2120  0.3274  0.2621
  816MOL0     C12498   9.022  12.236   2.052 -0.5282  0.7154 -0.3339
  816MOL0     C12499   9.026  12.261   2.313  0.3122  0.2126  0.3277
  816MOL0     C12500   9.152  12.330   2.331 -0.1583  0.7418 -0.4298
  816MOL0     O12501   9.177  12.398   2.450  0.4324  0.1220 -0.0096
  816MOL0     C12502   9.303  12.432   2.477 -0.5843  0.4446 -0.2604
  816MOL0     C12503   9.330  12.544   2.555  0.2406  0.2177 -0.0608
  816MOL0     C12504   9.458  12.587   2.583  0.1626  0.5708  0.1622
  816MOL0     C12505   9.566  12.518   2.546  0.0877  0.2180  0.1193
  816MOL0     O12506   9.677  12.579   2.581  0.1042  1.0012 -0.7792
  816MOL0     C12507   9.791  12.496   2.615 -0.7579  0.4685 -0.6858
  816MOL0     C12508   9.906  12.589   2.651 -1.0836  0.1010 -0.1335
  816MOL0     C12509  10.022  12.510   2.700  1.0066 -0.3534  0.1029
  816MOL0     C12510  10.129  12.613   2.739 -0.1077 -0.0156 -0.3348
  816MOL0     C12511  10.235  12.547   2.819 -0.0637  0.0283  0.8174
  816MOL0     C12512  10.350  12.640   2.848 -0.2588 -0.5427 -0.7523
  816MOL0     C12513  10.461  12.564   2.928 -0.8054 -0.2160  0.1298
  816MOL0     C12514  10.525  12.661   3.025 -0.2040  0.4775 -0.7604
  816MOL0    Cl12515  10.683  12.597   3.090 -0.3133  0.3864  0.0961
  816MOL0     C12516   9.549  12.403   2.476 -0.6295  1.0173  0.1118
  816MOL0     C12517   9.420  12.359   2.449 -1.0368  0.2679  0.6517
  816MOL0     O12518   9.236  12.323   2.233  0.6810  0.7246  0.5959
  816MOL0     C12519   8.948  12.230   2.429 -0.8000 -1.0647  0.3774
  816MOL0     C12520   8.819  12.184   2.431 -0.9990 -0.4231 -0.4226
  816MOL0     N12521   8.153  11.876   2.067  0.1318 -0.4119 -0.1154
  816MOL0     N12522   8.026  11.832   2.059 -0.1330 -0.0680 -0.5809
  816MOL0     C12523   6.946  11.302   2.264  0.0404  0.5179 -0.8884
  816MOL0     C12524   6.845  11.239   2.190 -0.0497  0.4472 -0.8943
  816MOL0     C12525   6.452  10.992   2.137 -0.1146 -0.4942 -0.1857
  816MOL0     C12526   6.319  11.004   2.175 -0.2451 -0.4443  0.0250
  816MOL0     C12527   6.211  10.929   2.115 -0.4974  0.1210  0.0381
  816MOL0     C12528   6.246  10.840   2.015  0.0839  0.7338 -0.3772
  816MOL0     O12529   6.147  10.760   1.967  0.4150  0.2788 -0.1932
  816MOL0     C12530   6.016  10.814   1.941 -0.6068  0.4850 -0.3567
  816MOL0     C12531   5.922  10.755   2.046  0.4337 -0.3594  0.3521
  816MOL0     C12532   5.782  10.755   1.990 -0.2834 -0.2536  0.5538
  816MOL0     C12533   5.747  10.661   1.872 -0.1409  0.0219 -0.2456
  816MOL0     C12534   5.598  10.647   1.876 -0.3193 -0.9713 -0.6475
  816MOL0     C12535   5.476  10.653   1.895  0.4930 -0.0113 -0.4547
  816MOL0     C12536   6.373  10.817   1.986  0.2488  0.3668  0.5759
  816MOL0     C12537   6.479  10.885   2.044  0.2803 -0.2313  0.2206
  816MOL0     C12538   6.615  10.823   2.027 -0.1257 -0.3131  0.5904
  816MOL0     H12539   6.799  10.953   2.348 -1.2270  1.3868  1.3620
  816MOL0     H12540   7.001  11.036   2.461 -1.5532 -0.9793  0.3552
  816MOL0     H12541   7.233  11.238   2.259 -2.3188  1.6343 -0.4872
  816MOL0     H12542   7.314  11.235   2.423 -1.9574  0.2155  2.3684
  816MOL0     H12543   7.184  11.471   2.268 -0.8057 -2.2930  0.1074
  816MOL0     H12544   7.265  11.495   2.416  0.6701  1.8830 -1.1101
  816MOL0     H12545   7.475  11.406   2.317  0.9075  0.7625 -0.8218
  816MOL0     H12546   7.406  11.423   2.154 -1.8548 -0.6182 -0.4294
  816MOL0     H12547   7.383  11.672   2.197  0.7172 -1.3904 -1.8702
  816MOL0     H12548   7.420  11.649   2.361  0.9568  1.1030  0.7348
  816MOL0     H12549   7.618  11.568   2.147 -1.2058  0.2510 -0.4814
  816MOL0     H12550   7.639  11.563   2.320 -0.9369 -2.2550 -1.2466
  816MOL0     H12551   7.565  11.829   2.173 -0.0885  3.1075  2.3746
  816MOL0     H12552   7.578  11.809   2.339 -1.0062  2.5832 -1.5878
  816MOL0     H12553   7.801  11.704   2.174 -0.8497 -0.2395 -1.2043
  816MOL0     H12554   7.813  11.781   2.342  3.1466 -1.0418 -0.4093
  816MOL0     H12555   7.764  11.942   2.078  1.3899  0.3102 -0.0992
  816MOL0     H12556   7.791  11.992   2.246 -0.0458 -1.2732  0.9027
  816MOL0     H12557   8.004  12.082   2.274 -0.8372 -0.5660  0.4188
  816MOL0     H12558   8.277  12.149   2.217  2.7156 -0.2414  1.1858
  816MOL0     H12559   8.345  12.044   2.095  1.2108  1.6422  0.5330
  816MOL0     H12560   8.376  12.060   2.374 -0.6553 -1.1481  1.1149
  816MOL0     H12561   8.289  11.899   2.346  3.8445 -3.9969  0.2666
  816MOL0     H12562   8.518  11.836   2.349 -0.5765  1.6536  1.1498
  816MOL0     H12563   8.469  11.826   2.185 -0.7600  2.2061 -0.8810
  816MOL0     H12564   8.683  11.925   2.186  0.5939 -1.1491 -0.2277
  816MOL0     H12565   8.577  12.042   2.129  3.1657  1.9758  1.2477
  816MOL0     H12566   8.809  12.109   2.101 -0.7070  3.5133 -1.0377
  816MOL0     H12567   9.105  12.170   2.024 -1.0325 -0.0907  0.0525
  816MOL0     H12568   9.077  12.330   2.035  1.2803 -0.4934 -1.5598
  816MOL0     H12569   8.943  12.232   1.976 -1.6993 -2.4136  0.8921
  816MOL0     H12570   9.239  12.593   2.587  0.2026 -0.1532  0.4068
  816MOL0     H12571   9.462  12.685   2.629 -1.2769  0.0658  1.4650
  816MOL0     H12572   9.758  12.443   2.705  1.7245 -0.3399 -0.1955
  816MOL0     H12573   9.822  12.428   2.535 -2.4096 -1.5578  0.2865
  816MOL0     H12574   9.922  12.648   2.561 -1.0525  2.2768  1.2147
  816MOL0     H12575   9.884  12.657   2.735  1.1656 -1.5242  1.9058
  816MOL0     H12576  10.054  12.441   2.621  0.8694  1.9668 -2.1007
  816MOL0     H12577   9.995  12.444   2.783  0.9411 -0.3301  0.1003
  816MOL0     H12578  10.088  12.695   2.798 -1.4182  1.4316 -3.0526
  816MOL0     H12579  10.165  12.663   2.649 -2.3554 -2.1442 -2.5999
  816MOL0     H12580  10.193  12.513   2.914  0.2163 -1.2940  0.4933
  816MOL0     H12581  10.268  12.464   2.756  0.2668  0.2462  0.7059
  816MOL0     H12582  10.317  12.724   2.910  2.0961 -0.2020  0.1713
  816MOL0     H12583  10.397  12.684   2.760  0.2542 -0.8760 -0.6515
  816MOL0     H12584  10.533  12.526   2.855 -2.0525 -2.7951  0.1521
  816MOL0     H12585  10.424  12.479   2.985 -2.8306  0.4234 -0.1483
  816MOL0     H12586  10.464  12.676   3.114 -0.5275  0.3697 -0.9631
  816MOL0     H12587  10.550  12.754   2.973  0.8825  0.2176 -0.7366
  816MOL0     H12588   9.636  12.347   2.444  0.4982  0.9953  2.8812
  816MOL0     H12589   9.419  12.266   2.393  0.1602  0.8008 -0.2777
  816MOL0     H12590   8.985  12.261   2.526  3.2368 -0.9429 -1.0282
  816MOL0     H12591   8.759  12.181   2.521  0.5231 -2.6848  0.6032
  816MOL0     H12592   6.980  11.403   2.240 -0.1807  0.6636 -0.5904
  816MOL0     H12593   6.806  11.299   2.108  1.3704  4.0386  0.7968
  816MOL0     H12594   6.287  11.061   2.261  2.1680 -1.2894  1.5936
  816MOL0     H12595   6.112  10.941   2.159 -0.1822 -0.7749  1.0309
  816MOL0     H12596   6.020  10.924   1.946  2.3236  0.4367  0.1505
  816MOL0     H12597   5.994  10.783   1.839  0.0679 -0.1173 -0.3223
  816MOL0     H12598   5.932  10.820   2.134  1.3056 -1.8499  1.4075
  816MOL0     H12599   5.950  10.658   2.087 -0.3227 -0.4568  0.6423
  816MOL0     H12600   5.715  10.726   2.072  4.1209 -1.7772  4.0054
  816MOL0     H12601   5.756  10.856   1.956  0.8777 -0.8096 -2.3315
  816MOL0     H12602   5.794  10.562   1.879 -0.0340  0.0610 -0.4118
  816MOL0     H12603   5.788  10.698   1.777  0.8210  0.1489  0.2135
  816MOL0     H12604   5.370  10.668   1.891  0.3127 -1.3386 -1.6267
  816MOL0     H12605   6.398  10.737   1.917 -0.6925  0.1939  0.4247
  816MOL0     H12606   6.603  10.741   1.956  0.7450  0.0033  0.0471
  816MOL0     H12607   6.675  10.894   1.969 -0.4482 -0.1449  0.4663
  816MOL0     H12608   6.670  10.805   2.120 -3.3832  1.5471  3.0882
  817MOL0     O12609   1.521   0.605   1.090  0.2261  0.3273 -0.1537
  817MOL0     C12610   1.535   0.518   1.182  0.8650  0.1024 -0.1443
  817MOL0     O12611   1.644   0.501   1.257 -0.0564  0.1095  0.4522
  817MOL0     C12612   1.753   0.576   1.214 -0.2721  0.0219 -0.0258
  817MOL0     C12613   1.822   0.532   1.103  0.1047 -0.4551 -0.0571
  817MOL0     C12614   1.934   0.596   1.053  0.5029  0.4406 -0.0641
  817MOL0     C12615   1.982   0.713   1.119 -0.4409  0.7411  0.0372
  817MOL0     O12616   2.083   0.793   1.078  0.0483  0.3243  0.1136
  817MOL0     C12617   2.151   0.770   0.951 -0.2617 -0.4916 -0.1505
  817MOL0     C12618   2.238   0.885   0.923 -0.7596 -0.2874  0.0781
  817MOL0     C12619   2.289   0.888   0.783  0.4755 -0.0020 -0.2155
  817MOL0     C12620   2.371   1.010   0.760 -0.4882  0.2578 -0.9507
  817MOL0     C12621   2.470   0.973   0.648 -0.1602  0.3908 -0.1985
  817MOL0     C12622   2.540   1.093   0.599  0.0370  0.9019 -0.7586
  817MOL0     C12623   2.544   1.105   0.453 -0.7504 -0.7805  0.2449
  817MOL0     C12624   2.629   0.996   0.387  0.2955 -0.0091 -0.1627
  817MOL0     N12625   2.756   0.971   0.463  0.7710 -0.6058  0.0702
  817MOL0     C12626   2.778   0.870   0.555  0.6067 -0.6971 -0.0160
  817MOL0     C12627   2.909   0.884   0.592 -0.8623  0.0743 -0.8417
  817MOL0     C12628   2.980   0.811   0.701  0.1929  0.5204  0.0390
  817MOL0     C12629   3.003   0.669   0.653  0.7579  0.0189  0.4645
  817MOL0     C12630   3.029   0.584   0.773  0.4908  0.1262  0.7222
  817MOL0     C12631   3.072   0.439   0.742  0.0279  0.1174  0.5237
  817MOL0     O12632   2.952   0.381   0.683  0.2650 -0.5853 -0.1679
  817MOL0     C12633   2.969   0.307   0.569  0.5319 -0.3059  0.0213
  817MOL0     C12634   2.881   0.318   0.466  0.4779  0.4166 -0.6909
  817MOL0     C12635   2.899   0.249   0.344 -0.1494  0.0260  0.2645
  817MOL0     C12636   2.793   0.289   0.244 -0.0332 -0.2430 -0.4011
  817MOL0     C12637   3.004   0.150   0.331 -0.1989 -0.5282 -1.0784
  817MOL0     C12638   3.024   0.065   0.214  0.6767  0.1662  0.2382
  817MOL0     O12639   3.137  -0.008   0.215  0.9450  0.9014 -0.0911
  817MOL0     C12640   3.139  -0.117   0.128  1.0963  0.0074 -0.3177
  817MOL0     C12641   3.236  -0.131   0.029 -0.1834 -0.1836 -0.6837
  817MOL0     C12642   3.245  -0.246  -0.043 -0.2183 -0.4066  0.6618
  817MOL0     C12643   3.156  -0.363  -0.023  0.1934 -0.4825  0.3276
  817MOL0     O12644   3.162  -0.490  -0.077 -0.7105  0.1508 -0.1415
  817MOL0     C12645   3.215  -0.505  -0.211 -0.1696  0.2688 -0.0997
  817MOL0     C12646   3.097  -0.534  -0.315  0.4165 -0.4194  0.1640
  817MOL0     C12647   3.035  -0.672  -0.297  0.4818 -0.5771 -0.3919
  817MOL0     C12648   2.911  -0.704  -0.389  1.2165  0.3903 -0.1613
  817MOL0     C12649   2.970  -0.730  -0.535  0.0677 -0.4091 -0.1605
  817MOL0     C12650   2.871  -0.804  -0.624 -0.4016  0.5266  0.1391
  817MOL0     C12651   2.751  -0.709  -0.646  0.7694  0.1886  1.0192
  817MOL0     C12652   2.649  -0.770  -0.741  0.6071  0.9443 -0.9950
  817MOL0    Cl12653   2.511  -0.665  -0.734 -0.2548  0.0378  0.0686
  817MOL0     C12654   3.060  -0.347   0.080  0.6093 -0.8049  0.3829
  817MOL0     C12655   3.058  -0.227   0.155 -0.0877 -0.4462 -0.0626
  817MOL0     O12656   2.939   0.065   0.126 -0.2602 -0.2626  0.0113
  817MOL0     C12657   3.095   0.147   0.432 -1.0750  0.4307 -0.7084
  817MOL0     C12658   3.084   0.227   0.551 -0.3358 -0.0852 -0.7352
  817MOL0     N12659   2.957   1.009   0.551  0.4239  0.4883  0.4829
  817MOL0     N12660   2.866   1.053   0.464 -0.0999  0.5542  0.2773
  817MOL0     C12661   1.922   0.753   1.240  0.3300  0.7162 -0.1150
  817MOL0     C12662   1.802   0.685   1.282 -0.6737  0.0775 -0.2570
  817MOL0     C12663   1.412   0.444   1.229 -0.3384 -0.3454 -1.4464
  817MOL0     C12664   1.449   0.317   1.277 -0.2658  0.0291 -0.1434
  817MOL0     C12665   1.350   0.235   1.331  0.2150 -0.3612 -0.6323
  817MOL0     C12666   1.217   0.279   1.336  0.3084 -1.1653  0.2578
  817MOL0     O12667   1.122   0.201   1.393  0.0723  0.2487  0.9046
  817MOL0     C12668   1.151   0.175   1.530 -0.0683  0.7443 -0.2740
  817MOL0     C12669   1.056   0.054   1.579 -0.2342 -0.9733 -0.4425
  817MOL0     C12670   1.077  -0.084   1.503  0.3486  0.0575  0.2455
  817MOL0     C12671   1.014  -0.198   1.582 -0.4939  0.1240  0.6187
  817MOL0     C12672   0.995  -0.319   1.493  0.1502  0.9698  0.3410
  817MOL0     C12673   0.981  -0.416   1.416  0.4765 -0.0202  0.1304
  817MOL0     C12674   1.182   0.408   1.287  0.1016  0.3589  0.5223
  817MOL0     C12675   1.279   0.491   1.236  0.8418 -0.4294 -0.3663
  817MOL0     C12676   1.237   0.626   1.181  0.4892  0.0651  0.0927
  817MOL0     H12677   1.767   0.454   1.051 -1.6926  0.2029  0.7612
  817MOL0     H12678   1.986   0.561   0.964  0.6222  1.2681 -0.3281
  817MOL0     H12679   2.078   0.771   0.869  1.0439  0.9700 -1.3576
  817MOL0     H12680   2.212   0.679   0.953  0.5007 -0.0333  3.1191
  817MOL0     H12681   2.173   0.969   0.950 -0.4697 -0.5654  1.7324
  817MOL0     H12682   2.325   0.877   0.988  0.0883  0.8346 -0.8809
  817MOL0     H12683   2.341   0.793   0.769  1.6731  0.4870  0.7774
  817MOL0     H12684   2.211   0.878   0.706  2.0119 -2.3381 -1.5725
  817MOL0     H12685   2.310   1.097   0.734 -2.0950 -0.1902  1.0181
  817MOL0     H12686   2.425   1.040   0.850  0.2400  0.6381 -1.5114
  817MOL0     H12687   2.410   0.929   0.567 -0.4049 -3.4214  1.8262
  817MOL0     H12688   2.540   0.894   0.678  0.5440  1.9206  2.4278
  817MOL0     H12689   2.485   1.182   0.631 -1.4030  0.3553 -1.5818
  817MOL0     H12690   2.640   1.096   0.643  0.4176  1.8735 -1.6577
  817MOL0     H12691   2.582   1.206   0.434  0.4338 -1.0640  1.0477
  817MOL0     H12692   2.439   1.107   0.421 -0.6356 -1.7038 -0.2014
  817MOL0     H12693   2.583   0.897   0.390  2.1302 -0.9001  2.4856
  817MOL0     H12694   2.642   1.022   0.282 -0.7273 -1.2121 -0.6011
  817MOL0     H12695   2.712   0.791   0.588 -0.0017 -0.3413 -0.3697
  817MOL0     H12696   2.912   0.812   0.787 -0.6591  0.8162 -0.6328
  817MOL0     H12697   3.069   0.863   0.739  0.1441 -0.0293  0.9373
  817MOL0     H12698   2.922   0.635   0.589  1.6405  1.3746 -1.4515
  817MOL0     H12699   3.082   0.666   0.577 -2.2803  0.2663 -2.9645
  817MOL0     H12700   3.116   0.634   0.819  0.9743  1.4688 -1.4788
  817MOL0     H12701   2.947   0.589   0.845 -0.5493  0.2654 -0.4436
  817MOL0     H12702   3.163   0.444   0.682  0.3241  1.2682  1.0322
  817MOL0     H12703   3.085   0.384   0.836 -0.5833 -3.1889 -1.1783
  817MOL0     H12704   2.791   0.379   0.468 -0.1440 -0.4355 -1.5914
  817MOL0     H12705   2.741   0.201   0.204 -1.9419  1.8362 -2.9307
  817MOL0     H12706   2.845   0.332   0.158  0.3447  0.5253  0.1997
  817MOL0     H12707   2.712   0.356   0.276 -1.9612 -2.6794  0.1709
  817MOL0     H12708   3.294  -0.045  -0.003 -2.7883  1.4390 -1.3422
  817MOL0     H12709   3.318  -0.254  -0.123 -0.1213  2.2520  0.3894
  817MOL0     H12710   3.278  -0.421  -0.242 -0.7115  0.6888 -0.0679
  817MOL0     H12711   3.279  -0.593  -0.215 -1.7889 -0.9123 -1.6974
  817MOL0     H12712   3.028  -0.449  -0.311 -0.3858 -0.8549 -2.6119
  817MOL0     H12713   3.146  -0.539  -0.413  0.3786 -1.0041  0.1692
  817MOL0     H12714   3.003  -0.673  -0.192  0.1250 -0.5426 -0.4973
  817MOL0     H12715   3.115  -0.744  -0.314  0.6733 -1.4561  3.3176
  817MOL0     H12716   2.845  -0.617  -0.401 -0.2885 -0.7553 -0.4031
  817MOL0     H12717   2.854  -0.784  -0.342  1.6801 -0.4354 -0.9777
  817MOL0     H12718   2.997  -0.636  -0.583  2.5047 -0.7060  0.4884
  817MOL0     H12719   3.065  -0.780  -0.516  0.5288  1.2549  2.4891
  817MOL0     H12720   2.836  -0.896  -0.577 -2.9640  0.0361 -2.4419
  817MOL0     H12721   2.928  -0.824  -0.715 -2.0755 -2.4613 -0.3970
  817MOL0     H12722   2.775  -0.610  -0.685 -3.7621  0.6309 -1.3263
  817MOL0     H12723   2.701  -0.689  -0.551 -1.0384  0.2338  0.1142
  817MOL0     H12724   2.625  -0.869  -0.701  2.8102  0.4330 -0.7785
  817MOL0     H12725   2.688  -0.783  -0.842 -3.4838 -2.8136 -2.4021
  817MOL0     H12726   2.991  -0.423   0.116 -0.6440  1.3345  2.7259
  817MOL0     H12727   2.987  -0.226   0.237  1.4377  0.7519  1.3047
  817MOL0     H12728   3.179   0.079   0.439 -0.5321  1.2163  0.8077
  817MOL0     H12729   3.153   0.215   0.634 -0.7231 -2.8939 -0.7065
  817MOL0     H12730   1.960   0.834   1.302  0.2211  0.0129  0.8871
  817MOL0     H12731   1.746   0.701   1.373 -0.1671  1.4434 -0.1712
  817MOL0     H12732   1.553   0.283   1.272  0.9374  3.1770  1.2065
  817MOL0     H12733   1.375   0.133   1.360 -1.2718 -0.6601 -0.3272
  817MOL0     H12734   1.256   0.149   1.551 -0.6397 -2.3196 -0.6960
  817MOL0     H12735   1.123   0.264   1.587 -0.3127  1.0008 -0.7829
  817MOL0     H12736   0.952   0.085   1.571  0.7308  2.3565 -1.5914
  817MOL0     H12737   1.082   0.044   1.685  2.9189  2.9755 -0.6127
  817MOL0     H12738   1.030  -0.081   1.404  3.7301 -5.0969 -2.0048
  817MOL0     H12739   1.184  -0.105   1.489  0.5628 -0.6392  2.4900
  817MOL0     H12740   0.915  -0.167   1.615 -2.5949 -4.6121 -0.4158
  817MOL0     H12741   1.079  -0.228   1.665  0.4267 -2.1855 -0.8490
  817MOL0     H12742   0.955  -0.498   1.352 -1.1137  0.3631  0.2646
  817MOL0     H12743   1.076   0.432   1.283 -0.3019 -1.5087 -1.0662
  817MOL0     H12744   1.251   0.644   1.074 -0.1544  2.9857  0.3900
  817MOL0     H12745   1.133   0.655   1.200  0.6742  0.9056 -0.1204
  817MOL0     H12746   1.299   0.708   1.219  2.7877 -0.7574 -1.6460
  818MOL0     O12747   2.282   4.564  10.065 -0.6721 -0.5243 -0.2516
  818MOL0     C12748   2.222   4.501  10.156 -0.7065 -0.1990  0.1113
  818MOL0     O12749   2.283   4.413  10.241 -0.3287  0.1107  0.6708
  818MOL0     C12750   2.418   4.395  10.217 -0.1762  0.4378  0.1664
  818MOL0     C12751   2.458   4.346  10.089 -0.2247 -0.2922  0.9562
  818MOL0     C12752   2.594   4.330  10.052  0.7968 -0.3852  0.0763
  818MOL0     C12753   2.692   4.361  10.146  0.1517  0.2193  0.9747
  818MOL0     O12754   2.831   4.339  10.118  0.5093 -0.1864  0.6152
  818MOL0     C12755   2.867   4.350   9.977  0.0368 -0.2461  0.2091
  818MOL0     C12756   3.021   4.327   9.968 -0.6396  0.4910 -1.5964
  818MOL0     C12757   3.098   4.457   9.992 -0.3915  0.6941  0.2506
  818MOL0     C12758   3.249   4.423  10.005 -0.0064  0.3066  0.0389
  818MOL0     C12759   3.328   4.559  10.021  0.1426 -0.6136  0.4917
  818MOL0     C12760   3.349   4.627   9.892 -0.2371  0.5897  0.7970
  818MOL0     C12761   3.478   4.718   9.905 -0.4619 -0.5300 -0.2052
  818MOL0     C12762   3.520   4.781   9.776 -0.1647  0.4938  0.1649
  818MOL0     N12763   3.649   4.847   9.806 -0.1652  0.5856  0.3812
  818MOL0     C12764   3.673   4.942   9.896  0.2787  0.3549 -0.0724
  818MOL0     C12765   3.814   4.958   9.895 -0.2730  0.4223  0.5490
  818MOL0     C12766   3.888   5.065   9.969 -0.1525  0.9015  0.1833
  818MOL0     C12767   3.877   5.197   9.900 -0.3041  0.0276  0.2950
  818MOL0     C12768   3.978   5.302   9.942 -0.1075 -0.1797  0.2633
  818MOL0     C12769   4.122   5.272   9.912  0.7266  0.3976 -0.1574
  818MOL0     O12770   4.204   5.375   9.970 -0.5397  0.2304  0.1128
  818MOL0     C12771   4.341   5.347   9.986 -0.0586  0.0352  0.7905
  818MOL0     C12772   4.381   5.265  10.085  0.2221  0.9511 -0.8663
  818MOL0     C12773   4.518   5.238  10.106  0.3565 -0.0148 -0.1472
  818MOL0     C12774   4.562   5.154  10.219 -0.0278  0.1920 -0.1123
  818MOL0     C12775   4.615   5.294  10.016  1.3906 -0.3063  0.0643
  818MOL0     C12776   4.764   5.272  10.028 -0.6391 -0.2705 -0.2520
  818MOL0     O12777   4.810   5.148  10.076 -0.4435 -0.1525  0.5759
  818MOL0     C12778   4.948   5.135  10.062  0.3341  0.5032  1.2410
  818MOL0     C12779   4.988   5.053   9.960  0.5004 -0.2462  0.1870
  818MOL0     C12780   5.126   5.045   9.932 -0.6072 -0.0846 -0.5039
  818MOL0     C12781   5.223   5.116  10.004  0.0064  0.5414 -0.3569
  818MOL0     O12782   5.357   5.083   9.977 -0.4901  0.2630  0.6757
  818MOL0     C12783   5.448   5.086  10.088 -0.2759 -0.8325 -1.1613
  818MOL0     C12784   5.590   5.049  10.019  0.1237  0.3340 -0.2708
  818MOL0     C12785   5.694   5.067  10.130 -0.2100  0.2426 -0.2768
  818MOL0     C12786   5.825   5.132  10.072  0.8832 -0.2626 -0.2654
  818MOL0     C12787   5.926   5.148  10.189 -0.0648  0.3953  0.4474
  818MOL0     C12788   6.052   5.216  10.138 -0.6885 -0.0093  0.0133
  818MOL0     C12789   6.150   5.209  10.259 -0.1714 -0.5886 -0.9325
  818MOL0     C12790   6.275   5.268  10.203  0.1572  0.1861  0.1099
  818MOL0    Cl12791   6.396   5.311  10.332  0.2892 -0.2968 -0.0412
  818MOL0     C12792   5.177   5.196  10.108 -0.8616 -0.6400 -0.1944
  818MOL0     C12793   5.044   5.206  10.141 -0.5972 -0.7995  0.7811
  818MOL0     O12794   4.835   5.370  10.005 -0.1974  0.0899 -1.0023
  818MOL0     C12795   4.571   5.378   9.905  0.6120 -0.3954  0.2195
  818MOL0     C12796   4.429   5.401   9.893 -0.4355 -0.2782  0.7184
  818MOL0     N12797   3.865   4.876   9.798  0.4556  0.5620 -0.5977
  818MOL0     N12798   3.763   4.810   9.750  0.1369 -0.0289  1.0929
  818MOL0     C12799   2.657   4.407  10.273 -0.8673  0.2204 -1.1879
  818MOL0     C12800   2.518   4.428  10.308 -1.0676 -0.0289  0.7641
  818MOL0     C12801   2.075   4.514  10.175 -0.1835  0.8678  0.1486
  818MOL0     C12802   2.004   4.391  10.203  0.9670 -0.2426 -0.0509
  818MOL0     C12803   1.865   4.383  10.212  0.0890 -0.3371  0.1620
  818MOL0     C12804   1.785   4.503  10.193  0.4938  0.2017  0.4990
  818MOL0     O12805   1.649   4.492  10.189  0.0464  0.4432 -0.3924
  818MOL0     C12806   1.566   4.603  10.162 -0.5099  0.1879 -0.0547
  818MOL0     C12807   1.419   4.556  10.181  0.1674  0.3627  0.3376
  818MOL0     C12808   1.386   4.518  10.327 -0.4646 -0.1578  0.3228
  818MOL0     C12809   1.234   4.503  10.333  0.2388 -0.0371  0.0077
  818MOL0     C12810   1.192   4.493  10.469  0.5887  0.5752  0.7735
  818MOL0     C12811   1.138   4.488  10.581 -0.0258  0.4446  0.2462
  818MOL0     C12812   1.851   4.621  10.157 -0.5578 -0.1404  0.6535
  818MOL0     C12813   1.997   4.632  10.148  0.1778 -0.2406  0.8769
  818MOL0     C12814   2.073   4.766  10.106  0.4235  0.9573 -0.1833
  818MOL0     H12815   2.381   4.321  10.018 -0.8307  1.8585  0.7830
  818MOL0     H12816   2.608   4.305   9.947  1.2946  1.1327 -0.2357
  818MOL0     H12817   2.847   4.448   9.933 -0.1323 -1.0069 -1.4719
  818MOL0     H12818   2.813   4.271   9.925  0.4295  0.9426 -2.1587
  818MOL0     H12819   3.050   4.240  10.027  0.4615  0.7372 -1.7499
  818MOL0     H12820   3.037   4.301   9.863  0.4548  1.8727 -1.8068
  818MOL0     H12821   3.082   4.527   9.910 -2.7647  0.2106  0.2244
  818MOL0     H12822   3.052   4.491  10.086 -0.8852 -2.7819  1.4310
  818MOL0     H12823   3.255   4.364  10.097 -0.1833 -0.8481 -0.6687
  818MOL0     H12824   3.295   4.369   9.921  0.8859  1.3453 -0.1682
  818MOL0     H12825   3.424   4.533  10.068 -0.9052 -1.8555  2.0450
  818MOL0     H12826   3.291   4.626  10.099  0.5345 -0.0714  0.2224
  818MOL0     H12827   3.374   4.562   9.807  0.2745  1.3400  0.3678
  818MOL0     H12828   3.251   4.672   9.881 -0.1659  0.3091 -1.3801
  818MOL0     H12829   3.558   4.654   9.944 -0.8733 -2.4712 -2.3272
  818MOL0     H12830   3.452   4.794   9.979  4.2104  0.2458  0.9936
  818MOL0     H12831   3.544   4.709   9.697 -0.9872  0.2940  0.0929
  818MOL0     H12832   3.455   4.862   9.740  1.6134  0.4912 -3.5454
  818MOL0     H12833   3.598   4.989   9.959 -0.6239 -3.7155  2.2084
  818MOL0     H12834   3.993   5.036   9.967 -0.1679  0.8649 -0.2133
  818MOL0     H12835   3.843   5.071  10.069  0.5383  1.3093  0.4755
  818MOL0     H12836   3.899   5.177   9.794 -1.0992  1.6113 -0.1988
  818MOL0     H12837   3.775   5.237   9.900 -0.1569  0.4107  1.0161
  818MOL0     H12838   3.946   5.391   9.888  1.6051  1.8570  2.4078
  818MOL0     H12839   3.965   5.326  10.048 -2.6330  1.3489 -0.2977
  818MOL0     H12840   4.151   5.174   9.951  0.4948 -1.0253 -3.2704
  818MOL0     H12841   4.137   5.270   9.804 -0.0040 -0.6724 -0.2507
  818MOL0     H12842   4.312   5.217  10.153  2.9774  0.9514  2.1947
  818MOL0     H12843   4.635   5.215  10.273 -1.1416  1.7112 -0.2342
  818MOL0     H12844   4.596   5.054  10.193 -1.4597 -0.3709  0.0563
  818MOL0     H12845   4.481   5.134  10.290 -0.7402 -1.2995 -1.3170
  818MOL0     H12846   4.925   4.997   9.893  0.5456  0.5078 -0.5045
  818MOL0     H12847   5.161   4.971   9.861  1.1859  3.3710 -3.5745
  818MOL0     H12848   5.456   5.187  10.127  0.8076  0.3978 -4.2664
  818MOL0     H12849   5.422   5.007  10.159  2.8529 -0.9245  0.0552
  818MOL0     H12850   5.598   4.951   9.971  1.6144  1.8613 -3.4482
  818MOL0     H12851   5.606   5.122   9.939  1.5299  0.8190  0.4196
  818MOL0     H12852   5.733   4.977  10.179  1.4470  1.3255  0.4700
  818MOL0     H12853   5.650   5.132  10.206 -1.4133  2.3160 -2.5726
  818MOL0     H12854   5.800   5.230  10.030  0.3835 -1.2604 -2.4558
  818MOL0     H12855   5.863   5.072   9.989  0.2600 -1.4297  0.2750
  818MOL0     H12856   5.881   5.205  10.271 -1.1857  1.4558 -0.8453
  818MOL0     H12857   5.945   5.048  10.229  0.7165 -0.5212 -2.0294
  818MOL0     H12858   6.029   5.318  10.105 -0.2474 -0.6081 -2.3546
  818MOL0     H12859   6.097   5.153  10.061 -0.0122  0.0434  0.3575
  818MOL0     H12860   6.167   5.113  10.308  3.9510  1.0827  1.4219
  818MOL0     H12861   6.121   5.288  10.330  2.7277  0.7902 -1.1424
  818MOL0     H12862   6.253   5.348  10.131 -2.5750 -0.2167  0.3681
  818MOL0     H12863   6.330   5.194  10.144 -1.1946 -0.6685 -0.1368
  818MOL0     H12864   5.241   5.250  10.177 -2.7065 -1.0011  1.9012
  818MOL0     H12865   4.994   5.261  10.220 -1.6915 -2.2558  1.1356
  818MOL0     H12866   4.637   5.425   9.833 -0.8414 -1.2043 -1.7332
  818MOL0     H12867   4.388   5.456   9.808 -1.0627  2.9855  2.9615
  818MOL0     H12868   2.727   4.415  10.356 -4.8282  2.2148  2.3874
  818MOL0     H12869   2.488   4.464  10.406  0.4341  3.0327  0.2193
  818MOL0     H12870   2.055   4.296  10.215 -1.2642 -1.6537 -1.0221
  818MOL0     H12871   1.825   4.283  10.229  0.5007 -0.7160 -1.0035
  818MOL0     H12872   1.590   4.673  10.242 -2.1473  1.2437 -0.4221
  818MOL0     H12873   1.592   4.644  10.063 -0.8118  1.7127  0.4693
  818MOL0     H12874   1.393   4.464  10.128 -1.5605  1.8805 -1.6270
  818MOL0     H12875   1.349   4.636  10.156 -1.7482 -1.1152  0.7015
  818MOL0     H12876   1.443   4.430  10.356 -1.2803 -1.2151 -1.1382
  818MOL0     H12877   1.416   4.606  10.386 -0.3244 -0.9831  1.5157
  818MOL0     H12878   1.208   4.408  10.286 -0.9195 -1.4068  3.1075
  818MOL0     H12879   1.178   4.588  10.293  0.9544  0.5286  0.1978
  818MOL0     H12880   1.129   4.465  10.685  0.3915  0.7248  0.3497
  818MOL0     H12881   1.792   4.712  10.144  0.1717  0.7703  3.1328
  818MOL0     H12882   2.137   4.796  10.190 -0.1974 -0.2120  0.7294
  818MOL0     H12883   2.128   4.749  10.013 -0.2778 -2.1376 -0.1468
  818MOL0     H12884   2.004   4.849  10.091  0.3951  1.0996  0.6769
  819MOL0     O12885   1.475   1.762   8.903  0.1742  0.3676 -1.0548
  819MOL0     C12886   1.443   1.850   8.830  0.1753 -0.6003  0.1535
  819MOL0     O12887   1.536   1.926   8.763  0.4266  0.2340 -0.2398
  819MOL0     C12888   1.670   1.899   8.778 -0.0673  0.6983  1.1325
  819MOL0     C12889   1.754   1.999   8.803  0.0280 -0.1572 -1.1650
  819MOL0     C12890   1.893   1.965   8.820  0.5433  0.4422 -0.4218
  819MOL0     C12891   1.945   1.845   8.782 -0.0082 -0.1289 -0.0769
  819MOL0     O12892   2.076   1.814   8.780 -0.8822 -0.1175 -0.8529
  819MOL0     C12893   2.164   1.924   8.753 -0.7568 -0.3830  0.1735
  819MOL0     C12894   2.302   1.883   8.708 -0.0156 -0.3755  1.7732
  819MOL0     C12895   2.355   1.789   8.809 -0.3120 -0.0488  0.8630
  819MOL0     C12896   2.494   1.745   8.751  1.0936  0.2405 -0.1626
  819MOL0     C12897   2.594   1.700   8.853  0.5087 -0.3712 -0.4011
  819MOL0     C12898   2.739   1.674   8.807  0.5110 -0.9172 -0.6178
  819MOL0     C12899   2.743   1.581   8.686 -0.4231  0.6264  0.6192
  819MOL0     C12900   2.882   1.540   8.643 -0.6793 -0.5731  0.1888
  819MOL0     N12901   2.864   1.440   8.540 -0.8671  0.4611  0.5183
  819MOL0     C12902   2.804   1.463   8.424  0.4456  0.0290 -0.2753
  819MOL0     C12903   2.815   1.345   8.358 -0.4109  0.4895  0.1823
  819MOL0     C12904   2.761   1.287   8.230 -0.6076 -0.2387  0.6818
  819MOL0     C12905   2.658   1.176   8.247  0.4036  0.3367  0.6703
  819MOL0     C12906   2.622   1.117   8.110 -0.2290  0.4369 -0.4037
  819MOL0     C12907   2.526   1.205   8.029 -0.2700 -0.1532  1.1399
  819MOL0     O12908   2.414   1.255   8.093 -0.5208 -0.2053 -0.5904
  819MOL0     C12909   2.320   1.166   8.129  0.3642 -0.2530 -0.7900
  819MOL0     C12910   2.293   1.040   8.085 -0.2820 -0.8370  0.4675
  819MOL0     C12911   2.189   0.959   8.137 -0.4370 -0.4180 -0.2099
  819MOL0     C12912   2.178   0.826   8.072 -0.5257 -0.4965  0.2241
  819MOL0     C12913   2.109   1.009   8.234 -0.2369  1.1401 -0.4298
  819MOL0     C12914   2.002   0.933   8.299 -0.0586 -0.2570  0.9552
  819MOL0     O12915   1.967   0.953   8.425 -0.4265 -1.0435  0.4381
  819MOL0     C12916   1.846   0.906   8.472  0.2213  0.6121  0.0464
  819MOL0     C12917   1.720   0.899   8.411 -0.1373  0.4585  0.1111
  819MOL0     C12918   1.610   0.841   8.472 -0.4034 -0.7464 -0.5806
  819MOL0     C12919   1.617   0.786   8.600 -0.5969  0.8276  0.1746
  819MOL0     O12920   1.518   0.730   8.674 -0.0921  0.5140  0.1292
  819MOL0     C12921   1.394   0.693   8.610 -0.8717 -0.3525 -0.4981
  819MOL0     C12922   1.268   0.685   8.694 -0.5160 -0.0108  0.0074
  819MOL0     C12923   1.261   0.573   8.793 -0.1942  0.6380 -0.1104
  819MOL0     C12924   1.147   0.606   8.890  0.3934  0.4679 -0.4135
  819MOL0     C12925   1.097   0.483   8.965 -0.1867 -0.0154  0.8887
  819MOL0     C12926   0.948   0.474   9.004  0.6214  0.4412 -0.1800
  819MOL0     C12927   0.904   0.595   9.078 -0.1452 -0.0786  0.2173
  819MOL0     C12928   0.746   0.598   9.113 -0.0164 -0.1621  1.4929
  819MOL0    Cl12929   0.634   0.647   8.976 -0.1375  0.1881 -0.4429
  819MOL0     C12930   1.735   0.818   8.673 -0.0343 -0.0558  0.5380
  819MOL0     C12931   1.846   0.876   8.609 -0.0929 -0.1785  0.2644
  819MOL0     O12932   1.939   0.869   8.223  0.2941  0.5663  0.0955
  819MOL0     C12933   2.133   1.136   8.287  0.4829  0.5709  0.8409
  819MOL0     C12934   2.240   1.204   8.237 -0.1011 -0.4045 -0.4778
  819MOL0     N12935   2.886   1.256   8.437  0.4321  0.0513 -1.2217
  819MOL0     N12936   2.916   1.310   8.549  0.3518 -0.7761 -0.0437
  819MOL0     C12937   1.864   1.748   8.731 -0.2005 -0.3896  0.4627
  819MOL0     C12938   1.725   1.770   8.731 -0.2570 -0.3092  0.8382
  819MOL0     C12939   1.298   1.888   8.820 -0.5407  0.3013  0.6772
  819MOL0     C12940   1.261   2.012   8.764 -0.1021 -1.6805 -0.7252
  819MOL0     C12941   1.132   2.059   8.759  0.1834  0.3205  0.0863
  819MOL0     C12942   1.030   1.977   8.806  0.5492 -0.2155  0.4555
  819MOL0     O12943   0.897   2.011   8.832  0.1055 -0.3410  0.1033
  819MOL0     C12944   0.847   2.136   8.787  0.2970  0.7443  0.0237
  819MOL0     C12945   0.895   2.251   8.882  0.5610  0.1653 -0.3050
  819MOL0     C12946   0.846   2.224   9.030  0.1202 -0.1671  0.1467
  819MOL0     C12947   0.693   2.221   9.045  0.6438 -0.0862 -0.7651
  819MOL0     C12948   0.653   2.148   9.171 -0.8587  0.1934  0.4339
  819MOL0     C12949   0.632   2.105   9.285  0.6652 -0.9391  0.0937
  819MOL0     C12950   1.064   1.848   8.827 -0.4696  0.2047 -0.3288
  819MOL0     C12951   1.196   1.797   8.820  0.7824 -0.1964 -0.2905
  819MOL0     C12952   1.223   1.647   8.829  0.2975  0.2908 -0.5412
  819MOL0     H12953   1.718   2.095   8.840 -0.2208 -0.0831 -1.5930
  819MOL0     H12954   1.950   2.042   8.871 -1.1038  0.7912  1.0283
  819MOL0     H12955   2.181   1.978   8.847 -2.0723  2.2266 -0.9882
  819MOL0     H12956   2.131   1.986   8.669  1.8206  2.4089  1.0240
  819MOL0     H12957   2.303   1.843   8.607 -0.0573  0.8662  1.2651
  819MOL0     H12958   2.363   1.973   8.703 -0.8541  0.2680  2.7704
  819MOL0     H12959   2.363   1.855   8.897  1.8504  1.4767 -0.3770
  819MOL0     H12960   2.288   1.704   8.824  0.7884 -1.1200 -0.1445
  819MOL0     H12961   2.475   1.666   8.678 -0.1592  0.2750  0.1091
  819MOL0     H12962   2.535   1.833   8.700 -1.8218  0.2933 -2.7500
  819MOL0     H12963   2.556   1.611   8.905  2.8039 -0.4124  1.4069
  819MOL0     H12964   2.602   1.780   8.927  0.3591  1.1012 -1.9312
  819MOL0     H12965   2.792   1.770   8.803  1.7659 -1.5148  0.6353
  819MOL0     H12966   2.789   1.625   8.891 -1.0759  1.4476  1.8950
  819MOL0     H12967   2.684   1.622   8.603 -2.9979 -0.6767  1.6817
  819MOL0     H12968   2.684   1.491   8.706 -0.3652  0.6535  0.9119
  819MOL0     H12969   2.943   1.621   8.603  0.6390 -1.4463  0.3928
  819MOL0     H12970   2.929   1.496   8.731 -1.8171  2.0060  2.2600
  819MOL0     H12971   2.739   1.541   8.387 -2.8909 -2.5908 -0.4454
  819MOL0     H12972   2.850   1.254   8.176  0.1769  1.8303  0.6135
  819MOL0     H12973   2.714   1.370   8.177  0.5602  0.9512  1.4152
  819MOL0     H12974   2.690   1.096   8.314 -0.6206 -0.3728  0.3217
  819MOL0     H12975   2.576   1.227   8.298  0.1729 -0.1376  0.7757
  819MOL0     H12976   2.717   1.095   8.060  1.2585  0.3092  2.2911
  819MOL0     H12977   2.566   1.026   8.132 -0.3028  0.6891  0.5255
  819MOL0     H12978   2.583   1.295   8.004  1.0951 -1.6572 -1.6041
  819MOL0     H12979   2.502   1.159   7.933  2.3664  0.3399  0.1562
  819MOL0     H12980   2.361   0.988   8.019 -2.1668 -2.5709 -0.2186
  819MOL0     H12981   2.100   0.834   7.995 -1.7308 -2.3028  1.1869
  819MOL0     H12982   2.143   0.739   8.128 -0.0929  0.0810  1.4125
  819MOL0     H12983   2.272   0.794   8.025 -0.3875 -1.0554  0.8660
  819MOL0     H12984   1.697   0.935   8.311  0.0857 -1.5059 -0.6900
  819MOL0     H12985   1.520   0.833   8.411 -0.6244 -2.6875 -0.0843
  819MOL0     H12986   1.375   0.776   8.542  2.6578  0.1972 -0.9770
  819MOL0     H12987   1.412   0.601   8.555  1.8376 -0.6712  0.7535
  819MOL0     H12988   1.266   0.772   8.760  0.8190  0.8529 -1.0352
  819MOL0     H12989   1.172   0.679   8.642 -1.0455 -0.8896  1.0335
  819MOL0     H12990   1.360   0.564   8.837  0.1369 -0.1091 -0.9813
  819MOL0     H12991   1.235   0.479   8.744  0.1826  1.1671 -1.3955
  819MOL0     H12992   1.063   0.660   8.844  0.8701  3.0204  1.4973
  819MOL0     H12993   1.183   0.686   8.956  1.4977  0.8317 -1.4202
  819MOL0     H12994   1.123   0.391   8.912  0.0331  1.0277 -0.8979
  819MOL0     H12995   1.159   0.493   9.055  3.2365 -0.6176 -1.2254
  819MOL0     H12996   0.935   0.397   9.080 -1.8613  0.5075 -0.4661
  819MOL0     H12997   0.883   0.454   8.918  2.5481 -1.1561 -1.3619
  819MOL0     H12998   0.932   0.688   9.027  2.1447  1.6393  4.1036
  819MOL0     H12999   0.958   0.606   9.172 -0.8339  1.4537  0.4742
  819MOL0     H13000   0.729   0.671   9.193 -1.2586  1.3431 -0.0837
  819MOL0     H13001   0.721   0.496   9.143  2.5708 -1.5751 -0.7224
  819MOL0     H13002   1.746   0.793   8.778  3.2382 -1.5199 -0.0173
  819MOL0     H13003   1.940   0.876   8.664  2.5013  1.8306 -3.7462
  819MOL0     H13004   2.068   1.182   8.361 -1.3540  0.7738 -0.8290
  819MOL0     H13005   2.250   1.308   8.269  1.0869 -0.3350 -0.9987
  819MOL0     H13006   1.904   1.659   8.683  2.0494  0.8722 -0.0963
  819MOL0     H13007   1.657   1.695   8.691 -0.3933  1.2168 -2.0360
  819MOL0     H13008   1.342   2.079   8.738 -1.2542 -0.7906 -2.1444
  819MOL0     H13009   1.114   2.161   8.728  1.2352  1.9574  4.2681
  819MOL0     H13010   0.871   2.161   8.684 -1.1470 -0.2801 -0.5813
  819MOL0     H13011   0.738   2.149   8.793  0.3975  1.1302  1.5165
  819MOL0     H13012   0.849   2.347   8.856 -1.0384 -0.4612  0.0860
  819MOL0     H13013   1.004   2.259   8.878  0.4853  1.9088  0.0757
  819MOL0     H13014   0.902   2.137   9.067  0.3726  1.1579  3.1769
  819MOL0     H13015   0.889   2.301   9.095  1.0554 -0.8082  0.3163
  819MOL0     H13016   0.633   2.177   8.966 -1.9836  1.3528  0.3152
  819MOL0     H13017   0.657   2.324   9.058 -1.1177 -0.9620  2.4474
  819MOL0     H13018   0.635   2.071   9.387 -1.9531  0.2198  0.6421
  819MOL0     H13019   0.989   1.779   8.865  0.0928  0.8833  2.1501
  819MOL0     H13020   1.252   1.603   8.925 -2.4983 -2.0550 -0.6203
  819MOL0     H13021   1.133   1.594   8.796  0.9812 -0.5710 -1.0654
  819MOL0     H13022   1.310   1.635   8.764  1.8991  1.3855  1.2749
  820MOL0     O13023   4.568   2.296   7.396 -0.3744 -0.4183  0.7294
  820MOL0     C13024   4.517   2.212   7.315 -0.4587 -0.6791 -0.6723
  820MOL0     O13025   4.592   2.130   7.229  1.0251  0.1395  0.0547
  820MOL0     C13026   4.720   2.154   7.235 -0.8920  0.8115 -0.2307
  820MOL0     C13027   4.774   2.219   7.121 -0.4959 -0.1942  0.2973
  820MOL0     C13028   4.900   2.264   7.124 -0.0677  0.3276  0.1321
  820MOL0     C13029   4.990   2.221   7.219  0.7614 -0.3044 -0.2236
  820MOL0     O13030   5.115   2.264   7.212 -0.4715 -0.1011  0.2057
  820MOL0     C13031   5.214   2.168   7.250 -0.2183  0.7191  0.1252
  820MOL0     C13032   5.330   2.179   7.155 -0.5931  0.2559 -0.1545
  820MOL0     C13033   5.417   2.303   7.159 -0.4731 -0.6392 -0.8034
  820MOL0     C13034   5.560   2.290   7.107 -0.6585  0.0737 -0.1822
  820MOL0     C13035   5.617   2.429   7.072  0.1598  0.0270 -0.0140
  820MOL0     C13036   5.748   2.434   7.001 -0.7556  0.5099  0.6863
  820MOL0     C13037   5.867   2.432   7.108  0.2200 -0.0983  0.4435
  820MOL0     C13038   6.007   2.386   7.061  0.0263  0.9051 -0.9766
  820MOL0     N13039   6.037   2.459   6.937  0.3161 -0.1598  0.0677
  820MOL0     C13040   6.122   2.561   6.927 -0.2711 -0.2356  0.4900
  820MOL0     C13041   6.134   2.579   6.796 -0.1945 -0.8098  0.0833
  820MOL0     C13042   6.236   2.675   6.726  0.0438  0.1044  0.0941
  820MOL0     C13043   6.250   2.820   6.780  1.0279  0.1487 -0.3079
  820MOL0     C13044   6.137   2.915   6.741  0.0468  0.9975 -0.0009
  820MOL0     C13045   6.134   3.050   6.809 -0.0433 -0.1591 -0.1216
  820MOL0     O13046   6.240   3.135   6.765 -0.2669  0.1097 -0.2752
  820MOL0     C13047   6.364   3.144   6.824 -0.7086 -0.4015  0.1360
  820MOL0     C13048   6.467   3.189   6.734 -0.5514 -0.2871  0.1971
  820MOL0     C13049   6.600   3.198   6.785  0.4304  0.1375  0.3637
  820MOL0     C13050   6.691   3.232   6.673  0.5340 -0.1596  0.1602
  820MOL0     C13051   6.634   3.144   6.914 -0.1812  0.2958 -0.2952
  820MOL0     C13052   6.769   3.150   6.974  0.2718  0.9852  0.1389
  820MOL0     O13053   6.780   3.079   7.095 -0.0418 -0.3441 -0.5075
  820MOL0     C13054   6.914   3.084   7.135  0.2523  0.1308 -0.0267
  820MOL0     C13055   6.955   3.180   7.223 -0.1147 -0.1121  0.2110
  820MOL0     C13056   7.082   3.190   7.279 -0.0657  0.7779 -0.3403
  820MOL0     C13057   7.174   3.097   7.236 -0.2933 -0.5746 -0.2644
  820MOL0     O13058   7.305   3.086   7.282  0.9521 -0.2618  0.1055
  820MOL0     C13059   7.372   3.182   7.356 -0.1011 -0.1196 -0.0545
  820MOL0     C13060   7.528   3.152   7.340 -0.8046  0.3356 -0.1263
  820MOL0     C13061   7.582   3.024   7.412 -0.5245  0.2046  0.4488
  820MOL0     C13062   7.737   3.028   7.428  0.0585 -1.4457 -0.0482
  820MOL0     C13063   7.786   2.913   7.517  0.5354  0.8400 -1.1207
  820MOL0     C13064   7.779   2.769   7.450 -0.3138  0.3648 -0.5812
  820MOL0     C13065   7.824   2.668   7.552 -0.1085  0.2634 -0.3268
  820MOL0     C13066   7.757   2.529   7.550  0.1481  0.4349  0.4519
  820MOL0    Cl13067   7.602   2.518   7.638 -0.7789 -0.0765  0.1275
  820MOL0     C13068   7.140   3.004   7.140 -0.4829 -0.0092 -0.5426
  820MOL0     C13069   7.011   2.993   7.089 -0.3544 -0.1579  0.0738
  820MOL0     O13070   6.861   3.206   6.914 -0.4820 -0.0184  0.0608
  820MOL0     C13071   6.528   3.091   6.993 -0.8090  0.9190  0.0720
  820MOL0     C13072   6.394   3.094   6.953  0.0417  0.6831  0.4091
  820MOL0     N13073   6.047   2.496   6.731  0.5827 -1.1706  0.4310
  820MOL0     N13074   5.997   2.417   6.814  0.0580  0.2356  0.5137
  820MOL0     C13075   4.938   2.160   7.335  1.9129 -0.5724  0.0166
  820MOL0     C13076   4.799   2.128   7.347  0.0285  0.2997  0.4742
  820MOL0     C13077   4.374   2.201   7.307 -0.5008  0.1145  0.0378
  820MOL0     C13078   4.319   2.138   7.191  0.2311 -0.2281 -0.9222
  820MOL0     C13079   4.181   2.146   7.163  0.8207  0.6456 -0.3277
  820MOL0     C13080   4.089   2.202   7.244 -0.5233 -0.1468 -1.1773
  820MOL0     O13081   3.955   2.214   7.220  0.9860 -0.2499  0.4460
  820MOL0     C13082   3.863   2.309   7.269  0.8621  0.1150  0.1121
  820MOL0     C13083   3.762   2.345   7.165  0.0365  0.8786  0.8744
  820MOL0     C13084   3.661   2.444   7.218 -0.8976  0.4055 -0.1568
  820MOL0     C13085   3.585   2.503   7.099  0.0814 -0.2141  0.0706
  820MOL0     C13086   3.491   2.404   7.043  0.2251  1.0518  0.4674
  820MOL0     C13087   3.431   2.312   6.985  0.3532 -0.6161 -0.2282
  820MOL0     C13088   4.139   2.264   7.363  0.1363  0.5526 -0.6344
  820MOL0     C13089   4.278   2.264   7.393 -0.0583 -0.1860 -0.3708
  820MOL0     C13090   4.311   2.338   7.523 -0.6026 -0.9692  0.3435
  820MOL0     H13091   4.712   2.242   7.035  0.4615 -1.7298 -0.8772
  820MOL0     H13092   4.943   2.317   7.039  1.2570  0.4049  0.8200
  820MOL0     H13093   5.181   2.064   7.243  1.0117  0.3002  0.2387
  820MOL0     H13094   5.242   2.175   7.356 -0.6227 -1.5605  0.4344
  820MOL0     H13095   5.398   2.095   7.170 -2.3511 -1.2881 -0.4240
  820MOL0     H13096   5.300   2.162   7.051  1.3892 -0.8729 -0.5881
  820MOL0     H13097   5.370   2.378   7.095  0.6876  0.3346 -0.5409
  820MOL0     H13098   5.416   2.334   7.263  0.0927 -0.8047 -0.7443
  820MOL0     H13099   5.619   2.244   7.186 -1.4760 -3.0037 -1.2170
  820MOL0     H13100   5.573   2.233   7.014  2.1619  1.6263 -0.8735
  820MOL0     H13101   5.624   2.480   7.168  1.0554  2.4037 -1.2450
  820MOL0     H13102   5.549   2.485   7.006  0.9604  0.2987 -0.6299
  820MOL0     H13103   5.755   2.353   6.928 -5.3207 -0.0183  0.5354
  820MOL0     H13104   5.735   2.525   6.942 -4.1369 -1.6822 -2.3378
  820MOL0     H13105   5.842   2.364   7.190  1.3838  0.9487  1.7280
  820MOL0     H13106   5.871   2.529   7.159  0.0040  0.5850 -0.7938
  820MOL0     H13107   6.089   2.394   7.132 -0.0599  1.3420 -0.9230
  820MOL0     H13108   5.994   2.280   7.038  1.2858  0.5494 -0.1389
  820MOL0     H13109   6.173   2.625   6.998  1.4757  0.2186 -1.1010
  820MOL0     H13110   6.218   2.688   6.619 -0.7815 -1.6815 -0.0202
  820MOL0     H13111   6.333   2.625   6.734  0.7821  1.5637  0.6975
  820MOL0     H13112   6.257   2.813   6.889 -2.1691  0.1172  0.0049
  820MOL0     H13113   6.330   2.877   6.731  1.4600 -1.3364 -1.3943
  820MOL0     H13114   6.138   2.931   6.632  4.2052 -1.4387 -0.5241
  820MOL0     H13115   6.042   2.863   6.757  0.3338  0.3006 -0.5116
  820MOL0     H13116   6.043   3.105   6.782 -0.8174 -1.9043 -1.2603
  820MOL0     H13117   6.128   3.041   6.918 -1.0157  4.2391  0.3844
  820MOL0     H13118   6.437   3.217   6.634  0.7476  1.9320  0.3671
  820MOL0     H13119   6.779   3.288   6.706  0.8044  0.4375 -1.4691
  820MOL0     H13120   6.649   3.313   6.612 -0.6103 -0.8749 -0.0403
  820MOL0     H13121   6.711   3.146   6.609  1.5203 -0.8390  1.3363
  820MOL0     H13122   6.875   3.247   7.254  1.2800  1.4178  0.6516
  820MOL0     H13123   7.108   3.270   7.348  2.3034 -1.6586  1.7876
  820MOL0     H13124   7.342   3.284   7.332 -1.7773 -0.4751  0.3653
  820MOL0     H13125   7.348   3.164   7.462  1.9664  1.7646  0.8020
  820MOL0     H13126   7.560   3.151   7.235  1.0622 -2.0329  0.3657
  820MOL0     H13127   7.574   3.241   7.384 -2.8341  2.4554 -2.0097
  820MOL0     H13128   7.548   2.942   7.348 -1.2543 -0.7142  1.9795
  820MOL0     H13129   7.542   3.007   7.512  0.3651  0.9934  0.9506
  820MOL0     H13130   7.768   3.122   7.476 -0.4933 -1.0171 -0.5078
  820MOL0     H13131   7.784   3.033   7.330  1.7688  0.2549  0.7954
  820MOL0     H13132   7.889   2.935   7.548  0.2445  0.2077  0.3909
  820MOL0     H13133   7.719   2.909   7.603  2.5994 -1.8733  0.5110
  820MOL0     H13134   7.831   2.764   7.353 -0.0950 -2.1703 -0.3941
  820MOL0     H13135   7.675   2.741   7.429  0.4774 -2.8165 -0.8266
  820MOL0     H13136   7.810   2.703   7.655  0.6983 -0.3242 -0.0146
  820MOL0     H13137   7.930   2.659   7.530  0.5643  2.8560  1.3551
  820MOL0     H13138   7.823   2.450   7.585  0.8880  0.7664 -0.1811
  820MOL0     H13139   7.739   2.503   7.446  1.7767 -0.4801  0.3745
  820MOL0     H13140   7.211   2.929   7.106  0.7548  0.9272 -0.0879
  820MOL0     H13141   6.974   2.914   7.023  1.3394 -2.2741  1.5127
  820MOL0     H13142   6.545   3.054   7.094 -1.5775 -1.1277 -0.5005
  820MOL0     H13143   6.318   3.061   7.024  0.9386  1.4988  1.7943
  820MOL0     H13144   4.992   2.146   7.427  1.3996  0.2256  0.4569
  820MOL0     H13145   4.757   2.096   7.442 -3.3660  3.0611  0.1389
  820MOL0     H13146   4.380   2.105   7.108 -2.3868 -0.7224 -2.7621
  820MOL0     H13147   4.147   2.090   7.076  0.3528  1.3885 -0.6392
  820MOL0     H13148   3.815   2.267   7.358  2.3071 -1.4132  0.2026
  820MOL0     H13149   3.915   2.402   7.295 -0.5596  1.5656 -1.8768
  820MOL0     H13150   3.709   2.256   7.129  0.0478  1.0007  0.5503
  820MOL0     H13151   3.815   2.383   7.078  0.4094 -0.5708  0.4439
  820MOL0     H13152   3.599   2.390   7.289  0.5829  2.8198  3.2025
  820MOL0     H13153   3.725   2.521   7.263  0.8322 -1.0148 -0.0870
  820MOL0     H13154   3.654   2.534   7.020  2.2101 -0.7916  1.6174
  820MOL0     H13155   3.527   2.588   7.137  0.4246 -1.1433  2.9715
  820MOL0     H13156   3.387   2.230   6.932 -1.3290  1.9839 -3.2380
  820MOL0     H13157   4.075   2.304   7.441 -0.6364 -1.9615  0.1137
  820MOL0     H13158   4.330   2.444   7.503 -1.4506 -0.1655  3.2554
  820MOL0     H13159   4.222   2.331   7.586 -2.6175 -0.7088 -2.2916
  820MOL0     H13160   4.387   2.285   7.580 -0.0238  0.3375  0.8341
  821MOL0     O13161   0.610   8.619   8.723  0.9883  0.8413 -0.1116
  821MOL0     C13162   0.615   8.592   8.601  0.0246 -0.7017  0.0987
  821MOL0     O13163   0.654   8.674   8.505  0.0574  0.1838  0.2864
  821MOL0     C13164   0.652   8.812   8.519 -0.2601 -0.1650 -0.4272
  821MOL0     C13165   0.544   8.877   8.584 -0.4217 -0.1560  0.4455
  821MOL0     C13166   0.539   9.017   8.590 -0.1259 -0.5931  0.7394
  821MOL0     C13167   0.620   9.088   8.500 -0.8499 -0.7037  0.4169
  821MOL0     O13168   0.599   9.230   8.492 -0.0046  0.8534 -0.7407
  821MOL0     C13169   0.715   9.305   8.468 -0.7901 -0.1378 -0.4671
  821MOL0     C13170   0.698   9.457   8.475  0.1630 -0.7431 -0.0833
  821MOL0     C13171   0.595   9.490   8.368  0.1192  0.6702 -0.2575
  821MOL0     C13172   0.588   9.641   8.358 -0.6908 -0.0709 -0.4355
  821MOL0     C13173   0.509   9.697   8.238 -0.5716 -0.3432 -0.5800
  821MOL0     C13174   0.466   9.841   8.264 -0.4807  0.5492 -0.2336
  821MOL0     C13175   0.404   9.907   8.137 -0.0082  0.3498  0.2171
  821MOL0     C13176   0.262   9.861   8.117  0.9935  0.4771  0.2234
  821MOL0     N13177   0.167   9.952   8.176 -0.5582  0.3993 -0.6184
  821MOL0     C13178   0.119   9.929   8.301  0.2125 -0.1176  0.0504
  821MOL0     C13179   0.079  10.048   8.338 -0.5983  0.7810  0.4494
  821MOL0     C13180   0.010  10.086   8.470 -0.8132 -0.0534 -0.2961
  821MOL0     C13181  -0.142  10.109   8.453 -0.0836  0.3650 -0.1825
  821MOL0     C13182  -0.211  10.194   8.565  0.8118 -0.2878 -0.0085
  821MOL0     C13183  -0.357  10.195   8.530 -0.4773 -0.2646  0.5462
  821MOL0     O13184  -0.406  10.324   8.588 -0.0550 -0.4935  0.0608
  821MOL0     C13185  -0.544  10.351   8.578 -0.6189 -0.4919 -0.2416
  821MOL0     C13186  -0.582  10.469   8.640 -0.7079 -0.2193  0.5766
  821MOL0     C13187  -0.721  10.503   8.644  0.8881 -0.4744 -0.2502
  821MOL0     C13188  -0.744  10.625   8.735 -0.5967 -0.6052  0.4735
  821MOL0     C13189  -0.825  10.423   8.590 -0.2680 -0.1305  0.1690
  821MOL0     C13190  -0.962  10.461   8.583  0.8770 -0.7248 -0.2719
  821MOL0     O13191  -1.050  10.370   8.562  0.8016  0.6206  0.0890
  821MOL0     C13192  -1.180  10.412   8.540 -0.6198  1.2865  0.1522
  821MOL0     C13193  -1.224  10.455   8.417  0.2900  0.1062  0.0404
  821MOL0     C13194  -1.365  10.465   8.388  0.3843 -0.7071  0.3598
  821MOL0     C13195  -1.459  10.429   8.487 -0.5965  0.0420 -0.2404
  821MOL0     O13196  -1.595  10.451   8.477  0.3456 -0.7290 -0.5025
  821MOL0     C13197  -1.640  10.514   8.355 -0.1033  0.2254  0.0021
  821MOL0     C13198  -1.795  10.496   8.336  0.3878 -0.9076  0.4141
  821MOL0     C13199  -1.860  10.552   8.468  0.6700  0.4705 -0.2502
  821MOL0     C13200  -2.010  10.530   8.472 -1.1685 -0.7120 -0.5989
  821MOL0     C13201  -2.035  10.380   8.494 -0.8709  0.4657 -0.1905
  821MOL0     C13202  -2.191  10.361   8.495  0.4114 -0.4440  0.4894
  821MOL0     C13203  -2.236  10.219   8.511  0.1119  0.6979  0.0677
  821MOL0     C13204  -2.199  10.156   8.644 -0.4800  0.2721 -0.1522
  821MOL0    Cl13205  -2.279  10.248   8.780  0.2060  0.4836 -0.4254
  821MOL0     C13206  -1.413  10.394   8.609 -0.8317 -0.0921  0.0722
  821MOL0     C13207  -1.274  10.383   8.638 -0.0308 -0.9282  0.7676
  821MOL0     O13208  -0.986  10.582   8.585  0.1357  0.2097 -0.0248
  821MOL0     C13209  -0.784  10.299   8.541 -0.2684  0.6844 -0.9576
  821MOL0     C13210  -0.649  10.264   8.534 -0.2643 -0.8310 -0.8642
  821MOL0     N13211   0.088  10.147   8.232  0.1987 -0.1299 -0.1908
  821MOL0     N13212   0.146  10.080   8.135  0.6950 -0.2705  0.0125
  821MOL0     C13213   0.724   9.020   8.425 -0.1844 -1.4195  0.1678
  821MOL0     C13214   0.738   8.887   8.438 -0.2824  0.5012  0.4331
  821MOL0     C13215   0.619   8.449   8.566 -0.1936  0.9423 -0.3892
  821MOL0     C13216   0.705   8.392   8.464 -0.2582  1.0657  0.2295
  821MOL0     C13217   0.707   8.253   8.426  0.5135 -0.6104  0.1825
  821MOL0     C13218   0.625   8.169   8.496  0.8280 -0.5543  0.2983
  821MOL0     O13219   0.644   8.032   8.467 -0.0694  0.7274  0.8392
  821MOL0     C13220   0.552   7.926   8.503  1.0103  0.6604 -1.0826
  821MOL0     C13221   0.592   7.794   8.435  0.0288 -1.1794  0.0269
  821MOL0     C13222   0.499   7.673   8.471 -0.2963  0.1114  0.3829
  821MOL0     C13223   0.541   7.543   8.410  0.0400 -0.8652 -0.3631
  821MOL0     C13224   0.668   7.507   8.473  0.2547  0.6290 -0.2477
  821MOL0     C13225   0.764   7.469   8.523 -0.1592 -0.0417  0.2601
  821MOL0     C13226   0.537   8.219   8.594  0.1083 -0.8119 -0.8073
  821MOL0     C13227   0.520   8.357   8.619  0.1491 -0.3956 -0.5651
  821MOL0     C13228   0.416   8.404   8.717  0.3943 -0.5379  0.1148
  821MOL0     H13229   0.472   8.814   8.635  0.4208 -0.4055  1.3553
  821MOL0     H13230   0.455   9.063   8.641 -0.3223 -0.8263  0.6262
  821MOL0     H13231   0.750   9.284   8.367 -0.4675  0.7721 -0.5529
  821MOL0     H13232   0.799   9.274   8.531  1.7401 -0.4784 -3.7587
  821MOL0     H13233   0.661   9.479   8.575  1.1477  0.6311  0.0057
  821MOL0     H13234   0.794   9.508   8.465  0.0509 -0.4415  0.3668
  821MOL0     H13235   0.624   9.441   8.275  1.8547 -3.1843  2.0656
  821MOL0     H13236   0.498   9.449   8.397 -0.0371  1.4654  0.3985
  821MOL0     H13237   0.552   9.672   8.457 -0.6466 -0.1855 -0.3835
  821MOL0     H13238   0.693   9.667   8.343 -0.5078 -2.1146 -3.6541
  821MOL0     H13239   0.420   9.641   8.210 -1.1177  0.1739  0.0840
  821MOL0     H13240   0.573   9.696   8.149  2.1895 -1.1849  1.2614
  821MOL0     H13241   0.400   9.842   8.351  0.2520 -3.7629  0.5645
  821MOL0     H13242   0.561   9.889   8.287  0.6466 -1.9453  0.6497
  821MOL0     H13243   0.464   9.876   8.051  0.6755 -1.4706  1.2938
  821MOL0     H13244   0.406  10.016   8.144 -5.2429  0.8163 -1.6434
  821MOL0     H13245   0.239   9.868   8.011  0.0186 -0.0355  0.3964
  821MOL0     H13246   0.242   9.763   8.162  0.8230  0.7736  0.8011
  821MOL0     H13247   0.121   9.834   8.353 -0.6061  0.2720  0.8043
  821MOL0     H13248   0.050  10.178   8.514  0.1678 -0.3883 -0.4582
  821MOL0     H13249   0.022  10.012   8.550  2.4803  0.9651  0.3017
  821MOL0     H13250  -0.136  10.168   8.361 -0.4894  1.6749  0.6067
  821MOL0     H13251  -0.198  10.016   8.438  1.8719 -0.7577 -0.8547
  821MOL0     H13252  -0.194  10.143   8.660  0.9548  0.4295  0.3610
  821MOL0     H13253  -0.170  10.295   8.571  0.0272 -0.0458  2.1478
  821MOL0     H13254  -0.376  10.198   8.422 -1.2327  1.2647  0.7017
  821MOL0     H13255  -0.399  10.102   8.568  0.8941 -0.7313  0.9978
  821MOL0     H13256  -0.506  10.533   8.685  0.1933 -0.5494 -0.4276
  821MOL0     H13257  -0.746  10.716   8.675  1.9915 -2.0227 -1.9660
  821MOL0     H13258  -0.661  10.634   8.806  0.2317  0.7955 -0.6419
  821MOL0     H13259  -0.838  10.619   8.791  0.0635  2.1847  2.0847
  821MOL0     H13260  -1.140  10.488   8.358  1.6637 -2.9718  0.0828
  821MOL0     H13261  -1.389  10.511   8.293 -0.2250 -1.1795  0.2755
  821MOL0     H13262  -1.623  10.622   8.362 -0.4603  0.3301 -0.7001
  821MOL0     H13263  -1.593  10.473   8.265 -2.5860  0.0590 -1.3047
  821MOL0     H13264  -1.833  10.554   8.252 -2.9668 -1.7013  1.2354
  821MOL0     H13265  -1.816  10.392   8.309  0.9009 -0.6393 -1.1208
  821MOL0     H13266  -1.828  10.655   8.489 -0.3090  0.6460  0.4998
  821MOL0     H13267  -1.823  10.501   8.558 -1.9476 -0.3877  0.4336
  821MOL0     H13268  -2.060  10.553   8.377 -0.6454  1.9654 -0.3115
  821MOL0     H13269  -2.054  10.590   8.552  1.3404  1.1507 -0.4690
  821MOL0     H13270  -1.988  10.316   8.419  1.3808 -0.3596  1.8037
  821MOL0     H13271  -1.990  10.350   8.589 -0.7766  0.1748 -0.3269
  821MOL0     H13272  -2.229  10.401   8.400 -0.0081  0.5303  1.0512
  821MOL0     H13273  -2.242  10.414   8.576  1.1389 -0.2931  0.8542
  821MOL0     H13274  -2.188  10.162   8.431 -3.1680  0.9953 -2.3124
  821MOL0     H13275  -2.343  10.201   8.496 -0.0707  1.0520  0.9151
  821MOL0     H13276  -2.092  10.163   8.666 -0.5012 -3.1979  1.7778
  821MOL0     H13277  -2.222  10.049   8.643  1.3064 -0.1425 -0.6527
  821MOL0     H13278  -1.493  10.375   8.679 -0.5194 -3.1915 -0.2529
  821MOL0     H13279  -1.241  10.355   8.737 -0.2688  1.2138  1.5092
  821MOL0     H13280  -0.858  10.233   8.498  0.5710  1.6747 -4.2334
  821MOL0     H13281  -0.612  10.172   8.491  0.7369 -0.2703 -1.2529
  821MOL0     H13282   0.780   9.079   8.353 -4.6280  0.5700 -2.0680
  821MOL0     H13283   0.804   8.823   8.380 -0.3426  1.6556 -0.9555
  821MOL0     H13284   0.766   8.467   8.415  0.8734  0.0572  0.0295
  821MOL0     H13285   0.768   8.215   8.344 -2.9774 -0.9686 -2.4760
  821MOL0     H13286   0.551   7.904   8.610  0.2510  1.4003 -0.9221
  821MOL0     H13287   0.448   7.957   8.488  1.3527  1.1890 -2.5704
  821MOL0     H13288   0.696   7.767   8.453  0.3971 -0.0099 -0.2316
  821MOL0     H13289   0.595   7.815   8.328  1.6113  3.2385  0.7185
  821MOL0     H13290   0.477   7.662   8.577  1.5501 -1.0794  0.6704
  821MOL0     H13291   0.405   7.688   8.416  0.4829 -0.4776 -1.1858
  821MOL0     H13292   0.563   7.552   8.303  3.8106 -0.1519  0.3028
  821MOL0     H13293   0.461   7.470   8.419 -1.1881  0.5160  0.2459
  821MOL0     H13294   0.856   7.430   8.561 -1.5694 -1.4315  2.5021
  821MOL0     H13295   0.465   8.146   8.629  1.9027 -3.2435 -1.8048
  821MOL0     H13296   0.459   8.433   8.813  0.8701 -0.4452 -0.1233
  821MOL0     H13297   0.360   8.490   8.678 -1.5607 -1.3451  1.0212
  821MOL0     H13298   0.345   8.323   8.737  0.3454 -0.4910  0.1278
  822MOL0     O13299  10.295   9.279   9.546 -0.2716  0.0664  0.0575
  822MOL0     C13300  10.253   9.302   9.435 -0.5838 -0.0430  0.6401
  822MOL0     O13301  10.330   9.348   9.326 -0.0900 -0.0407 -0.1400
  822MOL0     C13302  10.466   9.358   9.336 -0.7547  0.2413 -0.1398
  822MOL0     C13303  10.523   9.434   9.235  0.4324 -0.7504  0.5085
  822MOL0     C13304  10.662   9.459   9.229  0.0316 -0.1212  0.0121
  822MOL0     C13305  10.747   9.389   9.321  0.5760 -0.4805 -0.0339
  822MOL0     O13306  10.877   9.425   9.330 -0.5197 -0.0093 -0.1290
  822MOL0     C13307  10.965   9.409   9.215 -0.0148  0.3488 -0.5643
  822MOL0     C13308  11.060   9.300   9.232 -0.1535  0.3620  0.4981
  822MOL0     C13309  11.167   9.359   9.329  0.2758  0.5830 -0.6972
  822MOL0     C13310  11.212   9.239   9.426 -0.0499 -0.2838  1.0556
  822MOL0     C13311  11.336   9.257   9.512  0.3254 -0.5977  0.4964
  822MOL0     C13312  11.366   9.142   9.609  0.8677 -0.4400  0.4367
  822MOL0     C13313  11.481   9.176   9.707  0.4535 -0.4929 -0.4012
  822MOL0     C13314  11.614   9.185   9.638 -0.3679  0.4613 -0.1196
  822MOL0     N13315  11.668   9.317   9.654 -0.4753  0.4603 -0.0130
  822MOL0     C13316  11.803   9.334   9.685 -0.3890 -0.1005 -0.0776
  822MOL0     C13317  11.827   9.465   9.711  0.7903  1.2680 -0.9644
  822MOL0     C13318  11.955   9.518   9.753 -0.1083 -0.4974 -0.3999
  822MOL0     C13319  11.968   9.493   9.904 -0.6107 -0.3148  0.9838
  822MOL0     C13320  12.089   9.573   9.950 -0.5660 -0.1960 -0.0898
  822MOL0     C13321  12.205   9.490  10.009  0.7915  0.9207 -0.4715
  822MOL0     O13322  12.257   9.387   9.924  0.6248  0.7262  0.2547
  822MOL0     C13323  12.391   9.346   9.914  0.6512 -0.3809 -0.8674
  822MOL0     C13324  12.483   9.371  10.022  0.5624  0.4454 -0.8698
  822MOL0     C13325  12.621   9.332  10.002  0.9529 -0.0514  0.4700
  822MOL0     C13326  12.721   9.363  10.111 -0.6526  0.0232 -0.1913
  822MOL0     C13327  12.666   9.270   9.872  0.6943 -0.4613 -0.5077
  822MOL0     C13328  12.800   9.224   9.842  0.1849 -0.2093 -0.7545
  822MOL0     O13329  12.905   9.264   9.924  0.4103 -0.2537 -0.2656
  822MOL0     C13330  13.043   9.253   9.900  0.3558 -0.3341 -0.7213
  822MOL0     C13331  13.107   9.239   9.773  0.2015  0.9844  1.1797
  822MOL0     C13332  13.245   9.257   9.777 -0.0494 -0.2681 -0.1949
  822MOL0     C13333  13.319   9.266   9.894  0.0643 -0.8050  0.3610
  822MOL0     O13334  13.456   9.271   9.883  0.2051  0.9476 -0.5031
  822MOL0     C13335  13.525   9.334   9.989  0.1294  0.2249 -0.1253
  822MOL0     C13336  13.671   9.342   9.959 -0.1147 -0.0337 -0.3318
  822MOL0     C13337  13.768   9.349  10.088  0.3168  0.1425  0.6190
  822MOL0     C13338  13.759   9.485  10.158 -0.5090  0.2187 -0.1584
  822MOL0     C13339  13.839   9.510  10.282  0.1459 -0.3302  0.2708
  822MOL0     C13340  13.770   9.439  10.393 -0.3124  0.5822 -0.4186
  822MOL0     C13341  13.818   9.494  10.529 -0.1668 -0.6644 -0.2472
  822MOL0     C13342  13.706   9.491  10.627 -0.8937  0.1024 -0.1431
  822MOL0    Cl13343  13.660   9.315  10.661  0.3591  0.4127 -0.5385
  822MOL0     C13344  13.252   9.263  10.015 -0.1634 -0.1529  0.1410
  822MOL0     C13345  13.117   9.258  10.014 -0.0086 -0.6398  0.2128
  822MOL0     O13346  12.811   9.143   9.755  0.4142  0.5482 -0.1233
  822MOL0     C13347  12.573   9.267   9.763  0.0486  0.1369 -0.8273
  822MOL0     C13348  12.441   9.297   9.790  0.4405  0.0860  1.3216
  822MOL0     N13349  11.706   9.529   9.685  0.6451 -0.2564 -0.1471
  822MOL0     N13350  11.612   9.446   9.665  0.0224 -0.1739 -0.2009
  822MOL0     C13351  10.689   9.301   9.414 -0.0044 -0.1612 -0.4687
  822MOL0     C13352  10.554   9.281   9.424  0.1279 -1.0898 -0.2040
  822MOL0     C13353  10.107   9.288   9.417  0.6116 -0.2325 -0.2967
  822MOL0     C13354  10.027   9.377   9.349 -0.5932  0.6618  0.3992
  822MOL0     C13355   9.892   9.348   9.320 -0.6695  0.2417 -0.5313
  822MOL0     C13356   9.827   9.244   9.376  0.6002 -0.1041 -0.2281
  822MOL0     O13357   9.691   9.218   9.366 -0.0624  0.0214  0.6802
  822MOL0     C13358   9.616   9.298   9.277 -0.2863 -0.0176 -0.5467
  822MOL0     C13359   9.502   9.219   9.227  0.0253  0.1077 -0.0960
  822MOL0     C13360   9.398   9.168   9.336  0.2094 -0.6902 -0.7619
  822MOL0     C13361   9.284   9.265   9.369 -0.6932 -0.5676  0.5354
  822MOL0     C13362   9.204   9.228   9.487  0.9503 -0.1134  0.1637
  822MOL0     C13363   9.150   9.209   9.594  0.6142  0.0665  0.0166
  822MOL0     C13364   9.902   9.156   9.448 -0.2203  0.6303  0.1880
  822MOL0     C13365  10.035   9.174   9.471  0.3686 -0.3605 -0.4434
  822MOL0     C13366  10.102   9.063   9.548 -0.5775 -0.0046  0.2419
  822MOL0     H13367  10.462   9.487   9.162  1.8189 -0.9690 -0.8277
  822MOL0     H13368  10.710   9.518   9.151 -0.5985  0.7191  0.2386
  822MOL0     H13369  11.016   9.502   9.187  0.0728  1.2621  2.3273
  822MOL0     H13370  10.911   9.386   9.123  1.3245  1.4496 -1.6873
  822MOL0     H13371  11.010   9.204   9.250  1.9235 -0.9011 -0.1226
  822MOL0     H13372  11.111   9.277   9.139  0.5550  1.1301  0.6914
  822MOL0     H13373  11.254   9.387   9.269  0.6302 -1.6369 -1.2941
  822MOL0     H13374  11.132   9.442   9.392  0.9312 -0.8027  1.6531
  822MOL0     H13375  11.129   9.217   9.494  1.8384 -1.6015  3.0471
  822MOL0     H13376  11.223   9.153   9.358  1.2389  2.2389 -2.1845
  822MOL0     H13377  11.319   9.340   9.582  0.7308  0.1567 -0.2772
  822MOL0     H13378  11.424   9.273   9.449 -1.4029 -2.0829 -2.5049
  822MOL0     H13379  11.276   9.111   9.663 -1.7563  2.8507 -1.6202
  822MOL0     H13380  11.397   9.059   9.546  0.4506 -1.7169  1.8572
  822MOL0     H13381  11.493   9.086   9.767  1.1473  0.1886  0.5051
  822MOL0     H13382  11.453   9.263   9.768  0.3902 -0.1191 -0.9521
  822MOL0     H13383  11.683   9.107   9.672 -2.7321 -1.2685  1.0056
  822MOL0     H13384  11.603   9.156   9.533  0.8935  0.6685 -0.3198
  822MOL0     H13385  11.878   9.259   9.709 -0.7260 -0.5569 -0.4080
  822MOL0     H13386  11.968   9.623   9.723  1.4978 -0.5254  0.1294
  822MOL0     H13387  12.029   9.469   9.689 -1.9497 -0.1620 -2.9759
  822MOL0     H13388  11.870   9.526   9.940  0.3042  2.5099  1.1078
  822MOL0     H13389  11.990   9.387   9.924  1.2893 -0.2750 -0.5808
  822MOL0     H13390  12.126   9.643   9.876 -0.2858  0.5828  0.7718
  822MOL0     H13391  12.051   9.628  10.037 -2.8968 -1.0154 -0.4992
  822MOL0     H13392  12.282   9.563  10.037  1.4656  0.6442 -1.5358
  822MOL0     H13393  12.168   9.441  10.099  0.2118  0.8771 -0.7304
  822MOL0     H13394  12.437   9.402  10.115  0.7475 -1.0474 -0.2494
  822MOL0     H13395  12.806   9.418  10.069 -0.8621  1.8856  1.6435
  822MOL0     H13396  12.762   9.272  10.156  0.7710  0.2842 -0.9000
  822MOL0     H13397  12.672   9.424  10.187  0.7770 -1.5017  2.0550
  822MOL0     H13398  13.051   9.237   9.680  1.0803  0.3848  0.6530
  822MOL0     H13399  13.294   9.258   9.680 -0.3546  0.5397 -0.3486
  822MOL0     H13400  13.493   9.437  10.005  0.4465  0.1366  1.1626
  822MOL0     H13401  13.508   9.284  10.085 -1.5260  0.8526 -0.0585
  822MOL0     H13402  13.702   9.261   9.893 -0.6336  0.2009 -0.8659
  822MOL0     H13403  13.681   9.441   9.913  0.1368  0.3661  0.5455
  822MOL0     H13404  13.872   9.334  10.059 -0.2401 -1.4833 -0.7052
  822MOL0     H13405  13.735   9.264  10.150  0.2366  0.0469  0.4449
  822MOL0     H13406  13.654   9.499  10.184  0.1737  5.2626  0.9110
  822MOL0     H13407  13.772   9.566  10.086 -0.1312 -1.5596 -2.1947
  822MOL0     H13408  13.945   9.484  10.274  0.7158  2.1553 -2.0243
  822MOL0     H13409  13.849   9.617  10.305 -1.3314  0.0689 -0.7899
  822MOL0     H13410  13.779   9.330  10.398 -0.2111  0.4423 -2.6450
  822MOL0     H13411  13.662   9.457  10.392 -0.4896 -0.3216  0.4839
  822MOL0     H13412  13.852   9.598  10.521  3.4057 -1.3763  2.6391
  822MOL0     H13413  13.907   9.435  10.555  0.5240  0.4926  0.0997
  822MOL0     H13414  13.616   9.546  10.598 -1.6545 -0.7360  0.5345
  822MOL0     H13415  13.752   9.541  10.712 -0.6124  0.8552 -0.7351
  822MOL0     H13416  13.305   9.251  10.109  0.6107 -0.1852 -0.2889
  822MOL0     H13417  13.067   9.259  10.110  2.0884  0.9159  1.3604
  822MOL0     H13418  12.608   9.236   9.665 -2.1690  1.0653 -1.9860
  822MOL0     H13419  12.370   9.292   9.708  3.0739  3.2219 -1.4012
  822MOL0     H13420  10.748   9.233   9.475 -2.0066 -0.8985  0.7584
  822MOL0     H13421  10.502   9.217   9.495 -3.2999  0.0848 -1.4390
  822MOL0     H13422  10.072   9.463   9.299 -2.4009 -0.5592 -3.7221
  822MOL0     H13423   9.842   9.425   9.261  0.6096  0.0020 -1.9869
  822MOL0     H13424   9.580   9.395   9.312  0.0200  0.3075 -1.1149
  822MOL0     H13425   9.672   9.316   9.184  1.5007 -1.1372  0.2670
  822MOL0     H13426   9.546   9.135   9.172 -0.2861  0.8176 -1.4679
  822MOL0     H13427   9.445   9.285   9.161 -4.1554  0.4195  3.4041
  822MOL0     H13428   9.349   9.073   9.308 -0.2545 -1.2828  1.8184
  822MOL0     H13429   9.456   9.149   9.426 -3.8653  0.6014  2.4506
  822MOL0     H13430   9.213   9.250   9.286 -0.1228  1.9459 -0.4891
  822MOL0     H13431   9.317   9.369   9.369 -0.5287 -0.6134  1.4528
  822MOL0     H13432   9.116   9.181   9.692  0.0259  0.1532 -0.1633
  822MOL0     H13433   9.853   9.070   9.491 -1.8711  0.9105 -1.0514
  822MOL0     H13434  10.088   9.091   9.653 -2.9411 -0.7836  0.1934
  822MOL0     H13435  10.050   8.967   9.537 -0.3461 -0.0763 -0.2489
  822MOL0     H13436  10.206   9.043   9.519 -1.2849 -1.6775 -1.3831
  823MOL0     O13437   9.753   1.532   9.725 -0.7350  0.2392 -0.3159
  823MOL0     C13438   9.667   1.466   9.667 -0.3756  0.7589  0.7343
  823MOL0     O13439   9.682   1.363   9.580 -0.4290 -0.6645 -0.0298
  823MOL0     C13440   9.815   1.333   9.540  0.1437 -0.4330 -0.8570
  823MOL0     C13441   9.883   1.429   9.457  0.2501  0.8207 -0.2391
  823MOL0     C13442  10.009   1.403   9.398  1.2416  0.7850  0.2575
  823MOL0     C13443  10.088   1.289   9.441  0.1417  0.4555  0.5422
  823MOL0     O13444  10.214   1.261   9.396  0.3195  0.7106 -0.0326
  823MOL0     C13445  10.289   1.369   9.333 -0.7175  0.3231  0.8689
  823MOL0     C13446  10.422   1.312   9.280 -0.3489 -0.0154  0.2011
  823MOL0     C13447  10.407   1.228   9.155  1.1389  0.4515  0.2566
  823MOL0     C13448  10.543   1.181   9.117 -0.1722  0.1231  0.7667
  823MOL0     C13449  10.645   1.284   9.066 -0.7794  0.3724 -0.1780
  823MOL0     C13450  10.790   1.219   9.052  0.5006 -0.2436 -0.2429
  823MOL0     C13451  10.872   1.298   8.962  0.3768  0.0110 -0.7538
  823MOL0     C13452  11.023   1.256   8.982 -0.1847 -0.2697  1.0046
  823MOL0     N13453  11.122   1.345   8.913  0.5315 -0.4321 -0.1161
  823MOL0     C13454  11.119   1.380   8.786  0.6664 -0.7877 -0.1065
  823MOL0     C13455  11.244   1.444   8.764  0.6580  0.5819 -0.7165
  823MOL0     C13456  11.304   1.479   8.632 -0.0382 -0.2261  0.3010
  823MOL0     C13457  11.405   1.377   8.589 -0.6415 -0.2113  0.0887
  823MOL0     C13458  11.537   1.431   8.539 -0.5688 -0.3456  0.1511
  823MOL0     C13459  11.518   1.558   8.455  0.3939  0.0350  0.2025
  823MOL0     O13460  11.438   1.523   8.338 -0.6583  0.2476 -0.5474
  823MOL0     C13461  11.479   1.443   8.236 -0.6056 -0.0518 -0.0514
  823MOL0     C13462  11.379   1.406   8.145  0.4104  0.1208  0.4945
  823MOL0     C13463  11.401   1.319   8.032 -0.1503 -0.6013 -0.3141
  823MOL0     C13464  11.276   1.289   7.942 -0.5072  0.0632 -0.3502
  823MOL0     C13465  11.541   1.288   8.002 -0.7041 -0.0280 -0.2580
  823MOL0     C13466  11.583   1.219   7.878 -0.6372  0.3016  0.4772
  823MOL0     O13467  11.717   1.239   7.854 -0.1924 -0.3987 -0.0173
  823MOL0     C13468  11.795   1.169   7.773 -0.6249  0.3915 -0.2206
  823MOL0     C13469  11.910   1.225   7.722 -0.8211 -0.0345 -0.3489
  823MOL0     C13470  11.997   1.155   7.642  0.9483  1.0795  0.2024
  823MOL0     C13471  11.974   1.014   7.615 -0.6224 -0.4305  0.2897
  823MOL0     O13472  12.071   0.955   7.536 -0.1298 -0.2442  0.0370
  823MOL0     C13473  12.156   0.846   7.588  0.1229 -0.2148 -0.1951
  823MOL0     C13474  12.272   0.840   7.484 -0.7015  0.9827 -0.2413
  823MOL0     C13475  12.385   0.752   7.527  0.3836 -0.4291 -0.7055
  823MOL0     C13476  12.521   0.796   7.467  0.9464  0.2492 -0.5254
  823MOL0     C13477  12.638   0.711   7.523 -0.5867 -0.4469  0.4904
  823MOL0     C13478  12.711   0.773   7.636 -0.7940  0.1011 -0.7856
  823MOL0     C13479  12.770   0.916   7.624 -0.5981 -0.0325  0.7758
  823MOL0     C13480  12.862   0.920   7.496  0.5495  0.6095 -0.8842
  823MOL0    Cl13481  12.983   0.790   7.499  0.2984 -0.1246 -0.1508
  823MOL0     C13482  11.853   0.955   7.652  0.1877 -0.5639 -0.4807
  823MOL0     C13483  11.769   1.033   7.738 -0.0168  0.0933 -0.6824
  823MOL0     O13484  11.503   1.163   7.805 -0.3179 -0.4836  0.2329
  823MOL0     C13485  11.638   1.336   8.088  0.2106 -1.9797  0.8468
  823MOL0     C13486  11.612   1.402   8.207  0.2679  1.3825 -1.4278
  823MOL0     N13487  11.312   1.450   8.882 -1.1687 -0.7262 -0.6290
  823MOL0     N13488  11.243   1.389   8.964  0.2014  0.1089 -0.0909
  823MOL0     C13489  10.020   1.192   9.528 -0.2846  0.2426  0.4606
  823MOL0     C13490   9.886   1.211   9.567  0.0731 -0.2308  0.2114
  823MOL0     C13491   9.520   1.508   9.677  0.8684  0.3755  0.7304
  823MOL0     C13492   9.423   1.463   9.582 -1.0183 -0.4801 -1.0500
  823MOL0     C13493   9.292   1.489   9.593  0.8040  0.3061  0.1798
  823MOL0     C13494   9.237   1.555   9.708 -0.2821 -0.7330  1.0635
  823MOL0     O13495   9.109   1.596   9.711 -0.5603 -0.3367  0.3432
  823MOL0     C13496   9.015   1.496   9.720 -0.2196  0.4825 -0.0441
  823MOL0     C13497   8.873   1.537   9.677 -0.0567 -0.3567 -0.3262
  823MOL0     C13498   8.875   1.577   9.523 -0.0642 -0.5057 -0.2398
  823MOL0     C13499   8.733   1.618   9.467  0.0777  0.2477 -0.2209
  823MOL0     C13500   8.674   1.734   9.537 -0.2281 -0.3297 -0.7414
  823MOL0     C13501   8.618   1.821   9.598  0.4414 -0.5525  0.0854
  823MOL0     C13502   9.323   1.615   9.801 -0.7132  0.5859  0.3301
  823MOL0     C13503   9.463   1.588   9.784 -0.2887 -0.0800 -0.5191
  823MOL0     C13504   9.545   1.647   9.903 -0.2107  0.1895 -0.2481
  823MOL0     H13505   9.820   1.511   9.424 -0.9930  0.3857  0.9440
  823MOL0     H13506  10.047   1.479   9.330  1.4317  0.6559  0.2195
  823MOL0     H13507  10.317   1.445   9.407  0.6524  0.1978  0.5061
  823MOL0     H13508  10.239   1.408   9.244  0.7791 -0.6674 -0.4612
  823MOL0     H13509  10.488   1.395   9.255 -1.4550  1.1657  1.0469
  823MOL0     H13510  10.469   1.260   9.364 -1.7570 -2.8151 -0.5938
  823MOL0     H13511  10.341   1.144   9.177  0.3873  0.8936 -0.3032
  823MOL0     H13512  10.364   1.283   9.071  0.2713 -2.3532 -1.2734
  823MOL0     H13513  10.583   1.127   9.204 -2.1492 -1.3117  0.8724
  823MOL0     H13514  10.531   1.108   9.036  0.7188  1.0082 -0.1903
  823MOL0     H13515  10.653   1.371   9.132  0.5597  0.3511 -0.2897
  823MOL0     H13516  10.610   1.320   8.969  0.5682 -2.7962 -2.0140
  823MOL0     H13517  10.834   1.219   9.151 -2.0069 -2.3412  1.0186
  823MOL0     H13518  10.797   1.115   9.018  0.0130 -0.0908 -0.8464
  823MOL0     H13519  10.865   1.403   8.988 -3.4568  0.1122 -1.6311
  823MOL0     H13520  10.841   1.270   8.860 -2.4052  1.2714 -0.3399
  823MOL0     H13521  11.037   1.253   9.091 -1.6482  1.7854  1.3172
  823MOL0     H13522  11.029   1.151   8.954 -2.2386 -0.4185  0.9907
  823MOL0     H13523  11.052   1.376   8.701  2.4723  2.7924 -1.8974
  823MOL0     H13524  11.354   1.573   8.655  0.6927 -0.3542 -0.6818
  823MOL0     H13525  11.225   1.498   8.559 -1.0838  2.3679  1.9801
  823MOL0     H13526  11.430   1.316   8.676 -0.7685  2.1190  1.8461
  823MOL0     H13527  11.363   1.308   8.515  1.5668 -2.4679  0.7897
  823MOL0     H13528  11.595   1.459   8.627  1.3910 -2.9598 -0.1600
  823MOL0     H13529  11.591   1.355   8.482 -0.9551 -1.8431  1.6917
  823MOL0     H13530  11.475   1.641   8.512 -0.0015 -0.2020  0.2480
  823MOL0     H13531  11.616   1.585   8.414  0.6281  0.8420  1.2366
  823MOL0     H13532  11.273   1.428   8.162 -0.1001  0.3993 -2.5683
  823MOL0     H13533  11.239   1.187   7.956 -2.0679  0.5912 -0.3986
  823MOL0     H13534  11.307   1.317   7.840  0.8288 -1.3632 -0.3741
  823MOL0     H13535  11.188   1.347   7.969 -0.5487  0.3818 -1.1440
  823MOL0     H13536  11.938   1.326   7.751  1.0963 -0.4468 -0.6156
  823MOL0     H13537  12.088   1.209   7.616  3.1779 -1.4642  2.1817
  823MOL0     H13538  12.199   0.870   7.686 -1.0213 -1.2574  0.5849
  823MOL0     H13539  12.109   0.747   7.587 -0.9139  0.2447 -2.5109
  823MOL0     H13540  12.240   0.810   7.384  2.6753  2.1476 -1.8117
  823MOL0     H13541  12.303   0.943   7.466 -1.1453  1.0326 -0.7604
  823MOL0     H13542  12.372   0.644   7.513 -0.5203 -0.6886  1.6933
  823MOL0     H13543  12.382   0.760   7.636 -0.2622  0.7301 -0.7931
  823MOL0     H13544  12.537   0.905   7.469 -0.3455  0.6955 -4.7698
  823MOL0     H13545  12.523   0.785   7.358 -0.1376  0.7837 -0.6153
  823MOL0     H13546  12.603   0.611   7.553 -1.4371 -0.3756 -0.2158
  823MOL0     H13547  12.694   0.691   7.432 -0.2990 -0.6034  0.7009
  823MOL0     H13548  12.790   0.699   7.656 -1.7575 -0.5576  0.7965
  823MOL0     H13549  12.661   0.767   7.733  2.0674  0.3883  0.8465
  823MOL0     H13550  12.822   0.950   7.714 -1.8389 -1.1224  1.9722
  823MOL0     H13551  12.690   0.991   7.624  1.6108  2.5173  2.5743
  823MOL0     H13552  12.906   1.020   7.503 -3.2236  2.3274  3.2783
  823MOL0     H13553  12.799   0.916   7.407  1.6563 -0.2849 -1.6485
  823MOL0     H13554  11.828   0.853   7.628 -0.3263 -0.9832  1.5937
  823MOL0     H13555  11.686   0.987   7.792  2.2565  0.7258  3.8040
  823MOL0     H13556  11.745   1.320   8.075  0.2087 -3.1227  1.9999
  823MOL0     H13557  11.700   1.427   8.266  1.8269  1.3480 -3.6132
  823MOL0     H13558  10.071   1.100   9.555 -1.0406 -1.1586 -2.5551
  823MOL0     H13559   9.825   1.139   9.621 -4.2168  0.6311 -2.9300
  823MOL0     H13560   9.448   1.407   9.493 -1.1848  0.2847 -1.5885
  823MOL0     H13561   9.229   1.445   9.517  0.8752 -2.7528  1.7190
  823MOL0     H13562   9.040   1.404   9.666 -0.8375  1.8307 -2.8082
  823MOL0     H13563   9.010   1.472   9.826 -0.7917  1.5409  0.1755
  823MOL0     H13564   8.831   1.619   9.736 -0.3889 -0.1502 -0.8412
  823MOL0     H13565   8.811   1.448   9.692  1.4721 -1.6535 -1.3905
  823MOL0     H13566   8.943   1.662   9.511 -2.7757  1.8032 -0.5573
  823MOL0     H13567   8.918   1.495   9.464 -0.0124  0.8791 -2.2381
  823MOL0     H13568   8.660   1.536   9.478 -1.1145  1.2980 -0.0751
  823MOL0     H13569   8.742   1.633   9.359  0.0727  0.7348 -0.1564
  823MOL0     H13570   8.572   1.894   9.662  2.2717 -1.5425  2.6883
  823MOL0     H13571   9.287   1.677   9.883  1.2092  1.0269  0.8755
  823MOL0     H13572   9.596   1.574   9.967  0.6648 -0.9784 -2.1749
  823MOL0     H13573   9.632   1.705   9.872  1.6470 -0.7101  2.7803
  823MOL0     H13574   9.485   1.704   9.974  0.5269 -1.2062  1.5937
  824MOL0     O13575   0.645   2.051   4.458  0.7859 -0.7574 -0.1057
  824MOL0     C13576   0.615   1.966   4.533  0.6867  0.1305 -0.6572
  824MOL0     O13577   0.501   1.890   4.510 -0.2494  0.2630 -0.3034
  824MOL0     C13578   0.472   1.846   4.382 -0.3196  0.0164 -0.3475
  824MOL0     C13579   0.343   1.799   4.381  0.7640  0.7450 -0.4254
  824MOL0     C13580   0.276   1.750   4.270 -0.0989  0.0402  0.5316
  824MOL0     C13581   0.350   1.724   4.149 -0.8931 -0.4343  0.3573
  824MOL0     O13582   0.281   1.696   4.038 -0.3733 -0.0445 -0.0711
  824MOL0     C13583   0.213   1.805   3.964  0.1510 -0.1580  0.6449
  824MOL0     C13584   0.306   1.898   3.887  0.4477  1.4233  0.0472
  824MOL0     C13585   0.369   1.834   3.764  0.4095 -0.0339 -1.0677
  824MOL0     C13586   0.498   1.904   3.732 -0.1301 -0.4654 -0.0401
  824MOL0     C13587   0.525   1.899   3.580  0.1970 -0.1838  0.1684
  824MOL0     C13588   0.616   2.018   3.532 -0.2957  0.7422 -0.7288
  824MOL0     C13589   0.766   2.020   3.592  0.5507  0.1489  0.4414
  824MOL0     C13590   0.862   1.894   3.581 -0.1203 -0.1671 -0.0501
  824MOL0     N13591   0.989   1.930   3.642 -0.6756  0.0495  0.5497
  824MOL0     C13592   1.106   1.958   3.572 -0.0109 -0.4618  0.2787
  824MOL0     C13593   1.206   1.980   3.663  0.4565  0.2526  1.1005
  824MOL0     C13594   1.350   1.989   3.635  0.3242  0.1748 -0.1751
  824MOL0     C13595   1.368   2.125   3.577  0.7626  0.1554 -0.7130
  824MOL0     C13596   1.333   2.248   3.669 -0.3756  0.7723 -0.2671
  824MOL0     C13597   1.400   2.261   3.811  0.5359  0.6932 -0.0719
  824MOL0     O13598   1.545   2.247   3.795 -0.1989  0.5552  0.6185
  824MOL0     C13599   1.619   2.362   3.767 -0.0335 -0.0531 -0.8800
  824MOL0     C13600   1.755   2.345   3.758 -0.5352 -0.5048 -0.1782
  824MOL0     C13601   1.839   2.449   3.719 -0.2167 -0.4920  0.1612
  824MOL0     C13602   1.991   2.402   3.712  0.1527 -0.2201  0.7838
  824MOL0     C13603   1.795   2.587   3.719  0.0592  0.0844 -0.3900
  824MOL0     C13604   1.887   2.707   3.694 -0.0417 -0.3097  0.5309
  824MOL0     O13605   1.830   2.826   3.671  1.0618 -0.7238  0.3043
  824MOL0     C13606   1.902   2.931   3.625 -0.5779  0.0656  0.3129
  824MOL0     C13607   2.017   2.978   3.685 -0.3735  0.0904  0.5483
  824MOL0     C13608   2.073   3.096   3.641  0.3348 -0.9866 -0.1759
  824MOL0     C13609   2.022   3.180   3.546  0.3163 -0.6053 -0.6829
  824MOL0     O13610   2.084   3.301   3.532 -0.4102  0.1337  0.0941
  824MOL0     C13611   2.004   3.418   3.555  0.0078 -1.2340 -0.7082
  824MOL0     C13612   2.100   3.538   3.563 -0.5792 -0.0234 -0.0891
  824MOL0     C13613   2.133   3.586   3.426 -0.8294 -0.4928 -0.2540
  824MOL0     C13614   2.243   3.703   3.426  0.0007  0.7889 -0.1877
  824MOL0     C13615   2.268   3.781   3.300 -1.4849  0.1341  0.0738
  824MOL0     C13616   2.311   3.717   3.169 -0.0538 -0.4370 -0.3977
  824MOL0     C13617   2.417   3.609   3.180 -0.5936  0.2040  0.5318
  824MOL0     C13618   2.538   3.647   3.267  0.4146 -0.4999 -0.5916
  824MOL0    Cl13619   2.647   3.510   3.286  0.6110  0.1563 -0.0936
  824MOL0     C13620   1.907   3.135   3.486 -0.7010  0.6475  0.1952
  824MOL0     C13621   1.846   3.015   3.521  0.0497  0.3036 -0.6778
  824MOL0     O13622   2.003   2.682   3.685  0.0945 -0.3222 -0.0469
  824MOL0     C13623   1.659   2.610   3.737 -0.2960 -1.2138  0.6814
  824MOL0     C13624   1.576   2.496   3.750 -0.1047 -1.2871  0.2543
  824MOL0     N13625   1.144   1.982   3.784  0.1026 -0.1096  0.2244
  824MOL0     N13626   1.020   1.962   3.773  0.1131 -0.3038  0.0277
  824MOL0     C13627   0.490   1.767   4.153 -0.3160  0.1350 -0.2254
  824MOL0     C13628   0.550   1.827   4.267  0.3281 -0.5875  0.5394
  824MOL0     C13629   0.694   1.945   4.651  0.3350 -1.0866 -0.2676
  824MOL0     C13630   0.630   1.948   4.778  0.1682  0.1313  0.4723
  824MOL0     C13631   0.709   1.937   4.898 -0.1672 -0.8345 -0.0703
  824MOL0     C13632   0.848   1.914   4.900 -0.0118 -0.2015  0.2055
  824MOL0     O13633   0.921   1.911   5.011 -0.1379  0.3770  0.4955
  824MOL0     C13634   0.854   1.900   5.135 -0.2468  0.2214  0.1653
  824MOL0     C13635   0.963   1.905   5.242  0.1670  0.5534  0.4892
  824MOL0     C13636   0.913   1.832   5.366 -1.3712  0.0066 -0.3936
  824MOL0     C13637   1.027   1.848   5.478  0.7405 -0.3654  0.4832
  824MOL0     C13638   1.040   1.720   5.556  0.3140  0.2159 -0.1117
  824MOL0     C13639   1.030   1.625   5.631 -0.3891 -0.6485  0.6768
  824MOL0     C13640   0.911   1.915   4.777 -0.0328  0.0213 -0.2581
  824MOL0     C13641   0.838   1.928   4.660  0.5970  0.6728  0.1103
  824MOL0     C13642   0.917   1.896   4.534  0.1557  0.3823  0.2328
  824MOL0     H13643   0.300   1.819   4.478 -0.7624  1.7474 -1.2606
  824MOL0     H13644   0.167   1.752   4.270 -0.0923  1.3634  1.6387
  824MOL0     H13645   0.153   1.866   4.032  1.9831  1.0364  1.2446
  824MOL0     H13646   0.137   1.764   3.896  0.2861 -0.7420  0.8416
  824MOL0     H13647   0.251   1.989   3.860  2.0761  2.9358  1.5505
  824MOL0     H13648   0.383   1.935   3.956 -0.7595  1.1187  1.6086
  824MOL0     H13649   0.380   1.727   3.789  1.8786  0.6158  1.5141
  824MOL0     H13650   0.294   1.826   3.686  0.3879 -2.6604 -0.8770
  824MOL0     H13651   0.491   2.009   3.761  2.7702 -0.9277  2.9428
  824MOL0     H13652   0.584   1.855   3.780  0.6225 -0.2559 -1.1440
  824MOL0     H13653   0.440   1.913   3.513  1.8078 -2.7008 -2.6349
  824MOL0     H13654   0.566   1.802   3.551  0.2919  0.4246 -1.8945
  824MOL0     H13655   0.629   2.020   3.423  0.9036  2.5891 -0.5905
  824MOL0     H13656   0.569   2.110   3.568  1.6513  1.7501 -0.6536
  824MOL0     H13657   0.756   2.029   3.700  2.4059 -0.1403  0.6616
  824MOL0     H13658   0.820   2.108   3.556 -1.9671  0.5940 -2.8036
  824MOL0     H13659   0.828   1.800   3.625 -0.8631  0.0400 -0.1666
  824MOL0     H13660   0.877   1.886   3.473  4.0703 -0.7164  0.4336
  824MOL0     H13661   1.114   1.958   3.463 -3.1255  0.2691 -0.0320
  824MOL0     H13662   1.376   1.900   3.576  0.9849  0.2064  0.0669
  824MOL0     H13663   1.407   1.983   3.727 -1.0685 -3.1526  0.6186
  824MOL0     H13664   1.470   2.130   3.538  0.6246 -2.0953 -1.4767
  824MOL0     H13665   1.303   2.129   3.488  1.8451  0.9181 -1.4988
  824MOL0     H13666   1.378   2.331   3.614 -2.1284  0.1852 -2.8093
  824MOL0     H13667   1.224   2.259   3.676 -0.1939  2.4061  0.3078
  824MOL0     H13668   1.374   2.356   3.859  3.8453  1.5842  0.1951
  824MOL0     H13669   1.378   2.180   3.881  1.0457 -1.6651 -2.4864
  824MOL0     H13670   1.794   2.245   3.776  1.0856  0.3582  1.4389
  824MOL0     H13671   2.004   2.295   3.734  2.4089 -0.1098  0.1952
  824MOL0     H13672   2.050   2.451   3.790 -1.0880  1.4120  0.7478
  824MOL0     H13673   2.036   2.438   3.619  1.4823 -0.7509  1.1975
  824MOL0     H13674   2.062   2.926   3.768 -2.7284  2.2926  3.4571
  824MOL0     H13675   2.162   3.139   3.686  2.3304 -3.1539 -1.7810
  824MOL0     H13676   1.930   3.436   3.476  0.8856  2.4679 -0.8671
  824MOL0     H13677   1.962   3.396   3.654  1.4223 -2.1713 -0.2704
  824MOL0     H13678   2.061   3.614   3.631  0.9395  0.5034  0.2355
  824MOL0     H13679   2.187   3.498   3.616  0.5274 -0.6674 -2.2785
  824MOL0     H13680   2.048   3.642   3.387 -1.5323 -0.3042  1.4602
  824MOL0     H13681   2.156   3.502   3.359  0.6560 -0.4303  0.1361
  824MOL0     H13682   2.336   3.662   3.468 -0.4379 -0.5477 -0.4637
  824MOL0     H13683   2.197   3.776   3.493  0.6491  0.3233  0.7987
  824MOL0     H13684   2.172   3.827   3.274 -0.8470  0.6011 -1.6317
  824MOL0     H13685   2.340   3.859   3.324 -1.3728 -0.0103  0.2024
  824MOL0     H13686   2.330   3.795   3.095  0.8513 -0.5059 -0.2423
  824MOL0     H13687   2.220   3.667   3.133  0.4851 -0.5443 -1.6367
  824MOL0     H13688   2.454   3.586   3.080  1.0544 -1.1573  1.4121
  824MOL0     H13689   2.372   3.520   3.225  2.0102 -1.7350 -0.5115
  824MOL0     H13690   2.504   3.672   3.368 -0.8615 -5.8240  0.6572
  824MOL0     H13691   2.592   3.725   3.214  1.6537 -1.6131 -1.0399
  824MOL0     H13692   1.869   3.209   3.416  0.7823  2.2542  1.0431
  824MOL0     H13693   1.749   2.996   3.476  0.2423 -0.5563 -0.7529
  824MOL0     H13694   1.623   2.713   3.734  2.8809  0.1063  2.8648
  824MOL0     H13695   1.469   2.514   3.759 -0.2095 -2.2418  1.0775
  824MOL0     H13696   0.540   1.773   4.057 -2.8447  0.0928 -1.6440
  824MOL0     H13697   0.654   1.858   4.266  1.4399 -3.8949  1.3889
  824MOL0     H13698   0.526   1.979   4.774  0.7027  2.1111  0.9410
  824MOL0     H13699   0.655   1.955   4.990  0.3062 -1.0854  0.2545
  824MOL0     H13700   0.791   1.986   5.159  0.3807  1.5184 -2.4908
  824MOL0     H13701   0.788   1.813   5.137 -0.7591  0.6144  1.3796
  824MOL0     H13702   0.976   2.009   5.272 -1.6738  0.0768  3.3363
  824MOL0     H13703   1.057   1.868   5.200  0.9159  2.0869  0.7731
  824MOL0     H13704   0.816   1.870   5.400 -2.6105 -0.6817 -2.9099
  824MOL0     H13705   0.889   1.728   5.342  0.1527 -0.8889  1.6873
  824MOL0     H13706   1.019   1.936   5.543  0.6199  0.2212 -0.3092
  824MOL0     H13707   1.119   1.867   5.421 -0.3787 -1.7467 -1.9316
  824MOL0     H13708   1.023   1.540   5.696  1.0492 -0.4665  1.1158
  824MOL0     H13709   1.019   1.907   4.783 -0.1250 -1.8133 -0.3672
  824MOL0     H13710   1.017   1.934   4.557 -0.2845 -0.2675  3.6767
  824MOL0     H13711   0.904   1.791   4.504 -0.8177  0.3188  0.8571
  824MOL0     H13712   0.877   1.961   4.455  1.7033  1.1760  0.0584
  825MOL0     O13713   2.021   9.462   3.116 -0.2243  0.2515 -0.3367
  825MOL0     C13714   1.993   9.448   3.238  0.3173  0.6232 -0.3076
  825MOL0     O13715   2.077   9.450   3.336 -0.1755  0.5279 -0.7148
  825MOL0     C13716   2.208   9.491   3.305 -0.8740 -0.1683  0.8288
  825MOL0     C13717   2.313   9.405   3.315  0.3898 -0.5542  0.4033
  825MOL0     C13718   2.446   9.443   3.273 -0.0002 -0.2045  0.8994
  825MOL0     C13719   2.463   9.572   3.232 -0.9982 -0.0669  0.3814
  825MOL0     O13720   2.595   9.601   3.199  0.0067 -1.5228 -0.4373
  825MOL0     C13721   2.620   9.704   3.111 -0.0288 -0.1993 -0.3073
  825MOL0     C13722   2.773   9.701   3.086 -0.3434  0.6523 -0.2847
  825MOL0     C13723   2.851   9.724   3.216  0.1155 -0.1022 -0.4011
  825MOL0     C13724   3.000   9.703   3.193 -0.0182 -0.8842 -0.1235
  825MOL0     C13725   3.086   9.734   3.315  0.5070  0.0687 -0.2867
  825MOL0     C13726   3.220   9.678   3.309  0.0145  0.6413 -0.1876
  825MOL0     C13727   3.227   9.521   3.306 -0.2824 -0.0209  0.6271
  825MOL0     C13728   3.345   9.471   3.380  0.4506 -0.5117  0.3917
  825MOL0     N13729   3.334   9.329   3.388  0.6586 -0.5547  0.1943
  825MOL0     C13730   3.433   9.241   3.358 -0.4220 -0.0337  0.2463
  825MOL0     C13731   3.398   9.124   3.399 -0.9196 -0.2438 -0.7392
  825MOL0     C13732   3.482   9.004   3.383  0.0872  0.4438  1.0610
  825MOL0     C13733   3.495   8.948   3.241  0.0424  0.0263  0.0721
  825MOL0     C13734   3.561   8.808   3.240 -0.7446 -0.3052 -0.3352
  825MOL0     C13735   3.580   8.737   3.111 -0.1866 -0.0506 -0.8042
  825MOL0     O13736   3.643   8.827   3.019 -0.0058  0.4934 -0.5508
  825MOL0     C13737   3.780   8.853   3.035 -0.0443  0.2374 -1.2625
  825MOL0     C13738   3.873   8.771   3.107  0.0644 -0.2532 -0.2611
  825MOL0     C13739   4.016   8.785   3.097  0.4208  0.6356 -0.1807
  825MOL0     C13740   4.101   8.687   3.164 -0.5568  0.3255 -0.3744
  825MOL0     C13741   4.070   8.884   3.018 -0.4910 -0.6553 -0.4400
  825MOL0     C13742   4.215   8.918   3.002 -0.0437  0.0081 -0.5769
  825MOL0     O13743   4.245   8.963   2.879  0.0058 -0.0740 -0.7328
  825MOL0     C13744   4.380   8.971   2.837  0.2897  0.0683 -0.6596
  825MOL0     C13745   4.406   8.972   2.701 -0.0930  0.7988  0.2215
  825MOL0     C13746   4.534   8.983   2.645 -0.9950 -0.5584  0.1280
  825MOL0     C13747   4.650   8.997   2.731  0.7803  0.0174  0.1843
  825MOL0     O13748   4.770   8.982   2.667  0.1568 -0.6209  0.1707
  825MOL0     C13749   4.891   8.994   2.742  0.2365  0.5698 -0.9274
  825MOL0     C13750   4.997   8.934   2.658  0.3607 -0.2438  1.0689
  825MOL0     C13751   5.137   8.929   2.726 -0.2901 -0.0621  0.6547
  825MOL0     C13752   5.207   9.070   2.738  1.0912 -0.4020  0.1787
  825MOL0     C13753   5.351   9.072   2.757  0.3630  0.6023  0.4099
  825MOL0     C13754   5.395   9.214   2.769 -0.0973 -0.4605 -0.2803
  825MOL0     C13755   5.545   9.229   2.804 -0.6007  0.4878  0.4370
  825MOL0     C13756   5.590   9.370   2.776 -0.5771  0.8840  1.5195
  825MOL0    Cl13757   5.508   9.496   2.875  0.4996 -0.0493 -0.4669
  825MOL0     C13758   4.625   9.008   2.869  0.2011  0.2325 -0.1873
  825MOL0     C13759   4.490   8.995   2.917 -0.4195 -0.1264  0.1066
  825MOL0     O13760   4.293   8.880   3.091  0.0787 -0.1236  0.3401
  825MOL0     C13761   3.980   8.957   2.941 -0.1695 -0.8283  0.0554
  825MOL0     C13762   3.832   8.958   2.964 -1.1271 -0.0292  0.5226
  825MOL0     N13763   3.282   9.140   3.477 -0.3043 -0.1088 -0.5579
  825MOL0     N13764   3.248   9.258   3.463 -0.4301  0.1247  0.2879
  825MOL0     C13765   2.363   9.667   3.236  0.3862  0.8042 -0.7515
  825MOL0     C13766   2.233   9.624   3.272 -0.3789  0.2936  0.5249
  825MOL0     C13767   1.848   9.412   3.264  0.5748 -0.0195 -0.2963
  825MOL0     C13768   1.753   9.469   3.178  0.0657  0.2768 -0.0104
  825MOL0     C13769   1.618   9.433   3.185 -0.5984  0.1375  0.2519
  825MOL0     C13770   1.573   9.357   3.288  0.3068 -0.2573 -0.1389
  825MOL0     O13771   1.442   9.354   3.330 -0.8541  0.5444  0.1185
  825MOL0     C13772   1.365   9.474   3.306 -0.1180  0.1615 -0.2321
  825MOL0     C13773   1.270   9.499   3.423  0.6951 -0.4548 -0.0965
  825MOL0     C13774   1.148   9.405   3.429 -0.6178 -0.5160  0.6753
  825MOL0     C13775   1.025   9.455   3.507 -0.0085 -1.2963 -0.3601
  825MOL0     C13776   0.912   9.365   3.499  0.6227  0.5002  0.4242
  825MOL0     C13777   0.814   9.300   3.477 -0.0118  0.2086  0.5445
  825MOL0     C13778   1.669   9.290   3.370 -0.6443 -0.3022 -0.5237
  825MOL0     C13779   1.802   9.313   3.354 -0.2182 -0.2725  0.4537
  825MOL0     C13780   1.904   9.223   3.428 -0.4174  0.7716 -0.2184
  825MOL0     H13781   2.299   9.303   3.347 -2.4503 -0.7065 -0.9385
  825MOL0     H13782   2.530   9.375   3.291  0.6718  0.7278  1.3582
  825MOL0     H13783   2.596   9.799   3.160 -1.6367 -0.7398  0.0127
  825MOL0     H13784   2.561   9.699   3.020 -1.3328 -1.7650  0.5725
  825MOL0     H13785   2.792   9.600   3.049 -0.4528  0.3006  0.5954
  825MOL0     H13786   2.802   9.764   3.001 -0.7246 -0.9350 -1.6468
  825MOL0     H13787   2.835   9.828   3.246 -1.8630 -0.4620 -0.1098
  825MOL0     H13788   2.811   9.648   3.285 -1.6280  1.8096  0.8006
  825MOL0     H13789   3.021   9.600   3.162  1.7483 -0.1940 -1.3321
  825MOL0     H13790   3.036   9.758   3.106 -0.6861  1.1273  0.8178
  825MOL0     H13791   3.031   9.708   3.405  0.8212  0.4128  0.0098
  825MOL0     H13792   3.104   9.842   3.312 -0.4695  0.2112 -2.4369
  825MOL0     H13793   3.265   9.720   3.219  1.2246 -1.9110 -0.8955
  825MOL0     H13794   3.289   9.711   3.388  2.0194  1.5668 -2.2120
  825MOL0     H13795   3.230   9.483   3.203 -0.9761  0.8893  0.2525
  825MOL0     H13796   3.136   9.481   3.352  0.1240  0.8978  2.3067
  825MOL0     H13797   3.436   9.500   3.325 -1.4369  0.3491 -2.5376
  825MOL0     H13798   3.339   9.509   3.482  1.8739 -1.0375  0.6944
  825MOL0     H13799   3.526   9.263   3.308  0.2541 -2.2405  0.4359
  825MOL0     H13800   3.442   8.922   3.444 -1.7095 -1.2627 -2.1292
  825MOL0     H13801   3.581   9.034   3.417 -0.5102  2.6102  0.9879
  825MOL0     H13802   3.398   8.934   3.193  0.4494 -0.6496 -0.5862
  825MOL0     H13803   3.559   9.019   3.188  0.1420  1.5367  2.0954
  825MOL0     H13804   3.659   8.825   3.284 -0.3546 -1.2278 -0.8189
  825MOL0     H13805   3.511   8.753   3.321  1.9634 -3.7595 -0.7386
  825MOL0     H13806   3.632   8.641   3.114 -0.3209 -0.1859 -2.0056
  825MOL0     H13807   3.478   8.714   3.078  0.4741 -0.7673 -2.4607
  825MOL0     H13808   3.841   8.681   3.159 -0.4304 -0.3608 -0.7396
  825MOL0     H13809   4.162   8.636   3.089 -0.8764 -1.5191  0.5578
  825MOL0     H13810   4.052   8.603   3.214  1.0148 -0.0520  0.6224
  825MOL0     H13811   4.161   8.737   3.241 -0.6817 -0.6493  0.3779
  825MOL0     H13812   4.323   8.966   2.632 -1.8834 -1.1373  2.3784
  825MOL0     H13813   4.556   8.962   2.541 -2.6610  0.4866 -0.4733
  825MOL0     H13814   4.909   9.095   2.778  1.9570 -0.8205  2.5683
  825MOL0     H13815   4.895   8.926   2.827  1.0716 -1.6788 -2.6591
  825MOL0     H13816   4.966   8.831   2.637  3.1061 -0.6411 -1.8454
  825MOL0     H13817   4.994   8.986   2.561 -1.4470 -0.3121  1.0519
  825MOL0     H13818   5.195   8.864   2.660  0.3204 -1.9558  2.9373
  825MOL0     H13819   5.132   8.880   2.823 -1.5327 -1.1663  0.0659
  825MOL0     H13820   5.159   9.116   2.825 -2.0208  0.7783 -1.9615
  825MOL0     H13821   5.192   9.128   2.647  1.1559  1.7966  1.4905
  825MOL0     H13822   5.374   9.009   2.844  0.0590 -0.4019 -0.2186
  825MOL0     H13823   5.414   9.024   2.682  1.3663 -1.4938  2.4604
  825MOL0     H13824   5.337   9.258   2.851 -0.0304 -1.7241  0.4803
  825MOL0     H13825   5.378   9.269   2.677 -4.9182  1.4367  1.4208
  825MOL0     H13826   5.606   9.170   2.735  1.6195  0.7531  2.0720
  825MOL0     H13827   5.551   9.187   2.905 -1.0649 -1.0615 -0.1465
  825MOL0     H13828   5.569   9.396   2.672 -1.1869  0.7243  1.5957
  825MOL0     H13829   5.694   9.382   2.808 -0.1375  0.4137  0.3243
  825MOL0     H13830   4.704   9.033   2.939 -1.1265  0.7567  1.1894
  825MOL0     H13831   4.476   9.009   3.024 -2.8906  2.0933 -0.3830
  825MOL0     H13832   4.012   9.026   2.864 -2.5533 -1.3201 -1.5068
  825MOL0     H13833   3.768   9.026   2.908  0.1901  0.6908 -0.1660
  825MOL0     H13834   2.385   9.772   3.219  0.3913  0.9978  0.3783
  825MOL0     H13835   2.146   9.688   3.272  0.4956  1.6598  3.0511
  825MOL0     H13836   1.777   9.536   3.095 -1.2769 -0.5581 -1.1065
  825MOL0     H13837   1.549   9.484   3.119  2.1050  1.5680 -1.6550
  825MOL0     H13838   1.425   9.566   3.309  0.9177 -0.5220  0.8465
  825MOL0     H13839   1.304   9.463   3.216 -1.9685 -1.9628  1.1736
  825MOL0     H13840   1.226   9.597   3.402  2.1926  0.3983  0.5652
  825MOL0     H13841   1.323   9.488   3.518  4.7183 -0.8476 -2.1668
  825MOL0     H13842   1.121   9.395   3.323  0.6640  0.6693  0.2073
  825MOL0     H13843   1.187   9.310   3.466 -0.1175 -0.7181 -0.3326
  825MOL0     H13844   0.995   9.553   3.469 -1.8470 -0.5818  2.5908
  825MOL0     H13845   1.049   9.475   3.612 -3.1457 -2.3159  0.6568
  825MOL0     H13846   0.725   9.241   3.464  0.0877  0.7054 -3.8539
  825MOL0     H13847   1.625   9.212   3.431 -0.5393  0.6624  0.8381
  825MOL0     H13848   1.860   9.143   3.487  0.0768  0.8159  0.2215
  825MOL0     H13849   1.963   9.179   3.347  0.9025 -0.0747  1.1416
  825MOL0     H13850   1.963   9.287   3.495  1.5912 -0.9921 -0.1768
  826MOL0     O13851   6.237  10.290   7.486 -0.1003  0.2860  0.2209
  826MOL0     C13852   6.191  10.256   7.594 -0.5878 -0.4147 -0.0102
  826MOL0     O13853   6.261  10.188   7.690  0.2669 -0.3608 -0.0373
  826MOL0     C13854   6.398  10.154   7.678  0.7129  0.0126  0.1297
  826MOL0     C13855   6.484  10.165   7.786  0.1089 -0.4303 -0.3145
  826MOL0     C13856   6.616  10.120   7.785 -0.9817 -1.4199  0.1575
  826MOL0     C13857   6.670  10.075   7.663  0.8117 -0.1541 -0.3090
  826MOL0     O13858   6.810  10.054   7.664  0.3565 -0.1543 -0.3455
  826MOL0     C13859   6.867  10.009   7.536  0.0274  0.2914  0.3563
  826MOL0     C13860   7.025  10.036   7.538 -0.5259  0.7186  0.0155
  826MOL0     C13861   7.070  10.178   7.592 -0.1336  1.1328 -0.1983
  826MOL0     C13862   7.100  10.170   7.742 -0.8319  0.8508 -0.2364
  826MOL0     C13863   7.131  10.298   7.816 -0.5641 -0.0639 -0.3193
  826MOL0     C13864   7.049  10.419   7.778 -0.3079  0.9042  0.0444
  826MOL0     C13865   6.897  10.404   7.800 -0.1150 -0.7058 -0.2630
  826MOL0     C13866   6.845  10.430   7.942  0.6846 -0.6292 -0.2962
  826MOL0     N13867   6.831  10.567   7.976  0.2657  0.3363 -0.4161
  826MOL0     C13868   6.823  10.620   8.102  0.0700  0.4659 -0.7200
  826MOL0     C13869   6.798  10.756   8.086  0.2951  0.5351 -0.7989
  826MOL0     C13870   6.776  10.852   8.200  0.3189  0.5427  0.2243
  826MOL0     C13871   6.880  10.965   8.211 -0.0042 -0.0504  0.1749
  826MOL0     C13872   7.019  10.908   8.229  0.1261  0.7821  0.2789
  826MOL0     C13873   7.137  11.006   8.245  0.6540  0.4957  0.0786
  826MOL0     O13874   7.094  11.136   8.302  0.2054  0.0782 -0.5883
  826MOL0     C13875   7.196  11.226   8.329  0.6792 -0.0011 -0.5027
  826MOL0     C13876   7.330  11.202   8.314 -0.3333 -0.0817 -0.1206
  826MOL0     C13877   7.423  11.305   8.342  0.5480  0.4401 -0.5226
  826MOL0     C13878   7.570  11.258   8.328  0.3247 -0.2176  0.3063
  826MOL0     C13879   7.385  11.425   8.405 -0.2883 -0.6567  0.7425
  826MOL0     C13880   7.481  11.527   8.442 -0.7275 -0.1778 -0.1751
  826MOL0     O13881   7.563  11.482   8.540  0.7527 -0.1941  0.0957
  826MOL0     C13882   7.669  11.561   8.571  0.1781  0.4168  0.1466
  826MOL0     C13883   7.677  11.600   8.704 -0.0788 -0.4892 -0.0409
  826MOL0     C13884   7.798  11.655   8.762  0.1451  0.0630  0.4617
  826MOL0     C13885   7.900  11.688   8.679 -0.2551 -0.5299 -0.5072
  826MOL0     O13886   8.016  11.742   8.725  0.8665  0.4874 -0.0286
  826MOL0     C13887   8.023  11.820   8.852 -0.0862  0.2990  0.9385
  826MOL0     C13888   8.176  11.835   8.884  0.1297  0.4836 -0.8552
  826MOL0     C13889   8.194  11.858   9.035  0.5950 -0.2411 -0.3049
  826MOL0     C13890   8.130  11.992   9.089 -0.7668  0.9227 -0.4442
  826MOL0     C13891   8.152  12.001   9.241  0.4166 -0.1010  0.6866
  826MOL0     C13892   8.298  12.033   9.298  0.0540 -0.2353  0.5071
  826MOL0     C13893   8.355  12.167   9.249  0.0955 -0.4109  1.2614
  826MOL0     C13894   8.455  12.219   9.355  0.1830  0.6990  0.3767
  826MOL0    Cl13895   8.369  12.257   9.507  0.0856 -0.1725  0.0043
  826MOL0     C13896   7.892  11.655   8.540  0.0403  0.3322 -0.1436
  826MOL0     C13897   7.777  11.585   8.489 -0.6837  0.4361 -0.4739
  826MOL0     O13898   7.455  11.644   8.412 -0.0455 -0.3634 -0.2216
  826MOL0     C13899   7.248  11.445   8.422  0.5550  0.6899 -0.4350
  826MOL0     C13900   7.153  11.349   8.380 -0.6468 -0.4397  1.0199
  826MOL0     N13901   6.791  10.785   7.952 -0.0425 -0.3752 -0.4620
  826MOL0     N13902   6.813  10.668   7.888 -0.4322 -0.1049  0.3488
  826MOL0     C13903   6.581  10.064   7.551 -0.1694  0.7477 -0.3950
  826MOL0     C13904   6.453  10.103   7.558 -0.0074 -0.6633  0.1480
  826MOL0     C13905   6.055  10.297   7.627 -0.3693  0.4256 -1.0919
  826MOL0     C13906   5.992  10.229   7.729 -1.3289 -0.7166 -0.6729
  826MOL0     C13907   5.869  10.277   7.779 -0.0151  0.1169 -1.2165
  826MOL0     C13908   5.809  10.389   7.723 -1.3911 -0.9058 -0.0463
  826MOL0     O13909   5.704  10.438   7.793  0.1744  0.2300  0.0256
  826MOL0     C13910   5.670  10.578   7.781 -0.0977  0.1031 -0.2721
  826MOL0     C13911   5.528  10.590   7.732  0.2968  0.7656 -1.0964
  826MOL0     C13912   5.470  10.726   7.687 -1.1645 -0.5080 -0.5165
  826MOL0     C13913   5.440  10.820   7.807 -0.6582 -0.3721  0.3441
  826MOL0     C13914   5.300  10.872   7.807 -0.1646 -0.4667  0.3139
  826MOL0     C13915   5.191  10.920   7.803 -0.3198  0.8819  0.1672
  826MOL0     C13916   5.870  10.449   7.617  0.5465  0.4412 -0.7295
  826MOL0     C13917   5.997  10.416   7.565  0.7441 -0.0526  0.0784
  826MOL0     C13918   6.060  10.518   7.473 -0.7687 -0.2572 -0.2259
  826MOL0     H13919   6.456  10.209   7.881  1.0608  0.1191 -0.2782
  826MOL0     H13920   6.670  10.132   7.879  1.7525 -1.5758 -1.2736
  826MOL0     H13921   6.835  10.063   7.446  1.0762  2.6754  1.3283
  826MOL0     H13922   6.834   9.905   7.530  1.0580 -0.0479  0.4789
  826MOL0     H13923   7.057   9.945   7.589 -1.7960  0.7420  0.9084
  826MOL0     H13924   7.064  10.024   7.437  1.4274 -3.2484  1.0247
  826MOL0     H13925   7.153  10.224   7.537  0.6087 -0.9874 -0.9577
  826MOL0     H13926   6.981  10.242   7.587 -1.7178 -0.7505  1.9236
  826MOL0     H13927   7.018  10.112   7.787  1.3442 -3.1152 -0.8689
  826MOL0     H13928   7.190  10.109   7.753 -0.2647  1.2673 -2.2642
  826MOL0     H13929   7.235  10.313   7.784 -0.1499  0.7556  1.3207
  826MOL0     H13930   7.134  10.300   7.925  3.1808 -4.4173 -0.0563
  826MOL0     H13931   7.090  10.504   7.834 -0.6111  1.2225 -0.2075
  826MOL0     H13932   7.069  10.445   7.674  0.7651 -0.6715 -0.1750
  826MOL0     H13933   6.859  10.310   7.761 -1.2656 -0.0474 -0.7885
  826MOL0     H13934   6.847  10.477   7.735 -1.4333  0.6717  2.1372
  826MOL0     H13935   6.741  10.398   7.953 -0.0901  1.9553  0.8011
  826MOL0     H13936   6.912  10.383   8.015  0.3301 -1.3496 -0.4267
  826MOL0     H13937   6.835  10.571   8.198  1.4912  0.7520 -0.7257
  826MOL0     H13938   6.768  10.800   8.295  2.1491  1.7608  1.1134
  826MOL0     H13939   6.681  10.905   8.185 -0.3511 -0.1687  1.8029
  826MOL0     H13940   6.889  11.032   8.125  1.5795  1.9283  1.7702
  826MOL0     H13941   6.845  11.031   8.291 -0.1008 -1.1323  1.0611
  826MOL0     H13942   7.029  10.847   8.320  0.0222  2.4109  1.4213
  826MOL0     H13943   7.035  10.840   8.145 -1.7332  2.1726 -1.2788
  826MOL0     H13944   7.205  10.961   8.317 -1.8671 -0.9898  1.6995
  826MOL0     H13945   7.179  11.012   8.144  1.1355 -1.6587  0.1237
  826MOL0     H13946   7.358  11.108   8.266 -1.0550 -0.6861  0.6032
  826MOL0     H13947   7.568  11.178   8.253 -0.1787  1.6422 -1.7683
  826MOL0     H13948   7.615  11.205   8.413 -1.8006 -3.2402 -0.3084
  826MOL0     H13949   7.630  11.348   8.308  1.4652 -0.3031  2.8818
  826MOL0     H13950   7.593  11.581   8.770  0.0916 -0.9758  0.0359
  826MOL0     H13951   7.795  11.669   8.869 -3.4883  2.4089  0.2180
  826MOL0     H13952   7.976  11.915   8.828 -0.7958 -0.2446  0.0858
  826MOL0     H13953   7.960  11.787   8.934 -2.5314  5.7877  1.6840
  826MOL0     H13954   8.226  11.741   8.860 -0.1234  0.5503 -1.6767
  826MOL0     H13955   8.223  11.913   8.823  1.7869  0.8873  0.8518
  826MOL0     H13956   8.299  11.844   9.061  1.4710  1.5348 -2.5555
  826MOL0     H13957   8.138  11.771   9.071  1.9814 -0.7308  0.7454
  826MOL0     H13958   8.023  12.001   9.068 -1.3979  2.3701  2.8128
  826MOL0     H13959   8.184  12.081   9.055 -1.5647  1.4205 -0.4232
  826MOL0     H13960   8.083  12.077   9.279 -0.3339 -1.5357  2.3398
  826MOL0     H13961   8.111  11.910   9.287 -0.2946  0.5083  1.2858
  826MOL0     H13962   8.365  11.953   9.268  0.3412  0.0253  0.4519
  826MOL0     H13963   8.299  12.042   9.407 -3.1586  2.1711  0.5079
  826MOL0     H13964   8.270  12.235   9.239 -0.0337 -0.5562  1.3806
  826MOL0     H13965   8.406  12.166   9.152  0.3457  0.4456  1.3719
  826MOL0     H13966   8.506  12.306   9.311 -0.9687  0.4279 -1.6479
  826MOL0     H13967   8.532  12.144   9.378 -2.7359 -2.6116  0.1653
  826MOL0     H13968   7.972  11.691   8.476  0.0734  0.0111 -0.2847
  826MOL0     H13969   7.771  11.567   8.383 -1.8103  0.3481 -0.4047
  826MOL0     H13970   7.220  11.537   8.474  0.5009  1.1093 -1.1972
  826MOL0     H13971   7.049  11.369   8.404 -1.3141 -3.3595  0.8671
  826MOL0     H13972   6.624  10.035   7.455  1.8198  1.5956  0.1786
  826MOL0     H13973   6.388  10.099   7.471 -1.3960  3.1879  0.7771
  826MOL0     H13974   6.032  10.142   7.781 -1.5945 -0.0678  0.6556
  826MOL0     H13975   5.829  10.223   7.864  0.8069 -0.5928 -1.2713
  826MOL0     H13976   5.681  10.637   7.872  1.3587  0.6824 -0.7953
  826MOL0     H13977   5.736  10.629   7.711 -1.0883  0.6226 -0.8597
  826MOL0     H13978   5.465  10.540   7.806 -0.2986  1.7908 -0.8883
  826MOL0     H13979   5.512  10.523   7.647 -3.0224 -2.9460  2.0426
  826MOL0     H13980   5.551  10.766   7.625 -0.7415  0.0284  0.3547
  826MOL0     H13981   5.378  10.699   7.635 -2.0305  0.8712  0.2511
  826MOL0     H13982   5.520  10.893   7.823  0.1908 -0.8286 -1.4896
  826MOL0     H13983   5.462  10.755   7.892  0.2690  0.1394  0.5081
  826MOL0     H13984   5.087  10.943   7.802 -1.2409 -2.5370 -2.6912
  826MOL0     H13985   5.815  10.528   7.566 -0.2661  0.8363  0.7173
  826MOL0     H13986   5.997  10.606   7.464 -0.5511 -0.0212  0.4905
  826MOL0     H13987   6.149  10.548   7.529 -1.2333  1.5009 -0.3833
  826MOL0     H13988   6.083  10.474   7.376  1.0858  1.3134 -0.5540
  827MOL0     O13989   7.681   9.944   7.265  0.9857 -0.7601 -0.0356
  827MOL0     C13990   7.668  10.062   7.281  0.3849 -0.5493  0.3057
  827MOL0     O13991   7.774  10.149   7.290  0.8844 -0.2640 -0.2195
  827MOL0     C13992   7.904  10.102   7.276  0.4180 -0.0714  0.0325
  827MOL0     C13993   7.956  10.075   7.144 -0.0156  0.7697  0.2524
  827MOL0     C13994   8.091  10.053   7.126 -0.4362 -0.4035 -0.1332
  827MOL0     C13995   8.180  10.055   7.236 -0.0477  0.0524  0.2547
  827MOL0     O13996   8.310  10.031   7.216 -0.5266 -0.0599 -0.4395
  827MOL0     C13997   8.404  10.140   7.251 -0.0908 -0.3454  0.1770
  827MOL0     C13998   8.546  10.102   7.224 -1.0231  0.2236 -0.0375
  827MOL0     C13999   8.632  10.231   7.262  0.4772  0.2736  0.0266
  827MOL0     C14000   8.634  10.263   7.414 -0.6728 -0.5138  0.6771
  827MOL0     C14001   8.738  10.373   7.440  0.4079 -0.8277  0.6437
  827MOL0     C14002   8.801  10.365   7.585 -0.0666  0.3455 -0.0337
  827MOL0     C14003   8.873  10.497   7.626  0.5961 -0.8632 -0.7590
  827MOL0     C14004   8.787  10.588   7.714  0.0524  0.8325  0.4030
  827MOL0     N14005   8.800  10.536   7.851  0.6155  1.0900 -0.5413
  827MOL0     C14006   8.889  10.582   7.943  0.0116 -0.4651  0.3461
  827MOL0     C14007   8.880  10.495   8.051 -0.6599 -0.7254 -0.1783
  827MOL0     C14008   8.968  10.516   8.179 -0.4256 -0.8654 -0.0623
  827MOL0     C14009   8.894  10.589   8.297 -0.3892 -0.8653  0.6744
  827MOL0     C14010   8.946  10.578   8.439 -0.5042 -0.0768 -0.4073
  827MOL0     C14011   9.072  10.664   8.457  1.5290  0.3651 -0.1552
  827MOL0     O14012   9.029  10.795   8.479 -0.2308  0.1625  0.6711
  827MOL0     C14013   9.116  10.892   8.442 -0.6671  0.0032 -0.0521
  827MOL0     C14014   9.057  11.018   8.419  0.1187 -0.0552  0.2880
  827MOL0     C14015   9.144  11.129   8.389  0.0887 -1.5889 -0.4047
  827MOL0     C14016   9.076  11.264   8.359  0.0766 -0.7950  0.6427
  827MOL0     C14017   9.283  11.117   8.400 -0.3530 -0.4352 -0.3668
  827MOL0     C14018   9.373  11.230   8.396  0.5402  0.3775  0.1423
  827MOL0     O14019   9.334  11.350   8.447 -0.1179 -0.1575 -0.8501
  827MOL0     C14020   9.434  11.453   8.448  0.0557  0.2368  0.8782
  827MOL0     C14021   9.431  11.549   8.347  0.4493  0.0140 -0.2924
  827MOL0     C14022   9.505  11.666   8.366 -0.9661 -0.2553  0.1869
  827MOL0     C14023   9.582  11.693   8.480 -0.6974  0.9188  1.6822
  827MOL0     O14024   9.645  11.812   8.484  0.7589  0.1624 -0.0402
  827MOL0     C14025   9.749  11.825   8.583 -0.9033 -0.6613 -0.1996
  827MOL0     C14026   9.800  11.974   8.587  0.5876 -0.1531  0.5608
  827MOL0     C14027   9.735  12.058   8.688 -0.5980  0.3730  0.3811
  827MOL0     C14028   9.772  12.206   8.647 -0.1122  0.6760  0.0065
  827MOL0     C14029   9.737  12.305   8.753 -0.5738  0.3580 -0.4204
  827MOL0     C14030   9.584  12.341   8.762  0.6490 -0.3056 -0.7420
  827MOL0     C14031   9.541  12.433   8.883 -0.9773 -0.4343 -0.2730
  827MOL0     C14032   9.484  12.345   8.993 -0.6943 -0.6550 -0.0251
  827MOL0    Cl14033   9.582  12.200   9.035  0.0604  0.0775  0.3680
  827MOL0     C14034   9.591  11.583   8.572  0.5195 -0.1398  0.7156
  827MOL0     C14035   9.523  11.470   8.557  0.2746  1.3483  1.0712
  827MOL0     O14036   9.484  11.204   8.354 -0.3570 -0.6511 -0.1051
  827MOL0     C14037   9.341  10.992   8.429 -0.2409 -1.2020 -0.1461
  827MOL0     C14038   9.260  10.879   8.440  0.1399  0.3349  0.1644
  827MOL0     N14039   8.787  10.407   8.019  0.5334  0.7576 -0.4322
  827MOL0     N14040   8.744  10.422   7.900  0.4065 -0.1164  0.4123
  827MOL0     C14041   8.126  10.076   7.362 -0.9077  0.3500  0.0421
  827MOL0     C14042   7.989  10.098   7.388  0.1845  0.4949 -1.0957
  827MOL0     C14043   7.525  10.111   7.281 -0.0098  0.3971 -0.1008
  827MOL0     C14044   7.511  10.259   7.304  0.0528  0.1075  0.1623
  827MOL0     C14045   7.381  10.312   7.302  0.1205 -0.1751 -0.0877
  827MOL0     C14046   7.263  10.241   7.278 -0.6775 -0.4715 -0.6473
  827MOL0     O14047   7.137  10.293   7.270 -0.1202  0.3463 -0.9218
  827MOL0     C14048   7.123  10.435   7.229  0.1614  0.2512  0.0997
  827MOL0     C14049   6.973  10.478   7.214  0.5791  0.4718 -0.1173
  827MOL0     C14050   6.894  10.456   7.347  1.1637 -0.4402 -0.3297
  827MOL0     C14051   6.750  10.522   7.352 -0.7910  0.0741  1.0663
  827MOL0     C14052   6.683  10.469   7.472 -0.4686 -0.0932  0.2526
  827MOL0     C14053   6.619  10.424   7.560 -0.6405 -0.8505 -0.3020
  827MOL0     C14054   7.274  10.106   7.260  0.1696 -1.0531  0.7196
  827MOL0     C14055   7.401  10.039   7.245 -1.1298  0.4858  0.0712
  827MOL0     C14056   7.394   9.903   7.172 -0.0468 -0.0714 -0.3707
  827MOL0     H14057   7.889  10.064   7.060 -0.6740  0.6761  0.7814
  827MOL0     H14058   8.137  10.043   7.028  0.2295  1.3801 -0.0427
  827MOL0     H14059   8.391  10.171   7.355 -2.6432  1.2239 -0.5082
  827MOL0     H14060   8.383  10.225   7.185 -2.9877 -1.1599 -0.0998
  827MOL0     H14061   8.577  10.015   7.282 -0.3955 -0.9111 -1.9935
  827MOL0     H14062   8.570  10.087   7.119 -0.2899  1.7139 -0.1182
  827MOL0     H14063   8.739  10.225   7.243  1.4178 -1.4979  4.5585
  827MOL0     H14064   8.589  10.312   7.202  1.2478 -0.5345 -1.6914
  827MOL0     H14065   8.539  10.304   7.449 -0.4725 -0.5246  1.2481
  827MOL0     H14066   8.664  10.176   7.474 -3.2196 -0.9715  1.3869
  827MOL0     H14067   8.689  10.470   7.423  1.0722 -0.4989  0.5578
  827MOL0     H14068   8.813  10.384   7.361 -0.4944  1.0481 -0.0352
  827MOL0     H14069   8.727  10.341   7.661 -1.0205  3.1492  0.0276
  827MOL0     H14070   8.879  10.288   7.576  2.6947  2.7566  1.3812
  827MOL0     H14071   8.904  10.554   7.538  1.3007 -0.9242 -0.5619
  827MOL0     H14072   8.963  10.459   7.676  1.1624 -1.1589 -1.9757
  827MOL0     H14073   8.828  10.689   7.711  1.2505  0.3287 -1.2856
  827MOL0     H14074   8.681  10.585   7.685  0.1722 -2.2758 -0.0802
  827MOL0     H14075   8.961  10.663   7.941  1.0800 -1.3459  1.3437
  827MOL0     H14076   9.057  10.574   8.156 -0.4253 -0.0397  1.8909
  827MOL0     H14077   9.014  10.421   8.209  2.7475 -0.3864 -2.8517
  827MOL0     H14078   8.897  10.693   8.262 -0.1152 -1.0624  0.0902
  827MOL0     H14079   8.787  10.567   8.300 -1.0626  2.1526  3.5488
  827MOL0     H14080   8.869  10.612   8.509 -0.3914  1.0114 -0.7942
  827MOL0     H14081   8.985  10.476   8.449 -2.1639 -0.7965 -0.8580
  827MOL0     H14082   9.122  10.626   8.547  1.5472 -4.7504 -2.0312
  827MOL0     H14083   9.136  10.645   8.371 -0.6256 -1.0376 -1.5459
  827MOL0     H14084   8.949  11.029   8.413 -0.3551 -3.8623 -1.0219
  827MOL0     H14085   9.126  11.332   8.290  1.5751 -0.5142  1.9362
  827MOL0     H14086   9.060  11.322   8.451  3.4867 -0.8215  1.3692
  827MOL0     H14087   8.975  11.254   8.318  1.8305  0.1599 -4.5236
  827MOL0     H14088   9.380  11.533   8.252 -0.9332  0.9986  0.2573
  827MOL0     H14089   9.503  11.749   8.295  1.1938 -0.8253 -0.6201
  827MOL0     H14090   9.705  11.810   8.682  0.9325 -1.8549  0.4807
  827MOL0     H14091   9.828  11.750   8.570 -2.4469 -2.1640 -1.4433
  827MOL0     H14092   9.908  11.991   8.593  0.3334  1.6898  0.4285
  827MOL0     H14093   9.774  12.017   8.490  0.2063 -1.3199  0.1393
  827MOL0     H14094   9.787  12.030   8.781 -0.5686  2.1032  0.9158
  827MOL0     H14095   9.627  12.044   8.695 -0.8358  2.3301  1.0638
  827MOL0     H14096   9.722  12.234   8.553 -1.3211  1.2255  0.7847
  827MOL0     H14097   9.880  12.219   8.646 -0.1702  1.2708  0.7934
  827MOL0     H14098   9.769  12.267   8.850  1.1144  1.1018 -0.6390
  827MOL0     H14099   9.803  12.390   8.732 -1.0137  0.2514 -2.5051
  827MOL0     H14100   9.526  12.248   8.768 -1.3868  0.9782  1.3926
  827MOL0     H14101   9.555  12.391   8.670  0.5670 -0.3095 -0.7179
  827MOL0     H14102   9.469  12.508   8.849  0.3848  0.4783 -1.2568
  827MOL0     H14103   9.634  12.472   8.924 -0.3521 -1.9292 -0.1984
  827MOL0     H14104   9.391  12.311   8.947 -2.1579  2.2504  0.5364
  827MOL0     H14105   9.452  12.406   9.079 -0.1550  1.2146 -1.0840
  827MOL0     H14106   9.645  11.599   8.665 -1.5546 -0.2303  1.9836
  827MOL0     H14107   9.527  11.406   8.645  0.4822 -1.2227 -0.6971
  827MOL0     H14108   9.448  10.976   8.421  0.1484 -0.6405  2.7403
  827MOL0     H14109   9.303  10.780   8.447  0.0094  0.2444 -0.2593
  827MOL0     H14110   8.195  10.051   7.441  3.0104  1.6742 -2.6786
  827MOL0     H14111   7.952  10.120   7.487  1.2469  2.9799 -1.1942
  827MOL0     H14112   7.592  10.326   7.331  0.1366 -0.1429  0.5484
  827MOL0     H14113   7.363  10.416   7.324 -2.6150 -0.1876 -1.7002
  827MOL0     H14114   7.175  10.494   7.305 -1.6592  1.3086  0.6169
  827MOL0     H14115   7.161  10.446   7.127 -0.5034  0.3896 -0.1422
  827MOL0     H14116   6.924  10.414   7.140 -1.4203  1.7037  0.0684
  827MOL0     H14117   6.965  10.575   7.164  0.8780  0.3709 -0.3603
  827MOL0     H14118   6.878  10.350   7.371  1.1465 -0.9189 -2.2832
  827MOL0     H14119   6.955  10.502   7.425 -1.4191  0.3145  1.3958
  827MOL0     H14120   6.690  10.500   7.263 -2.3111 -0.1071  2.1121
  827MOL0     H14121   6.761  10.629   7.371  0.8572  0.2214 -0.4552
  827MOL0     H14122   6.554  10.392   7.639 -3.0189  0.2682 -1.7000
  827MOL0     H14123   7.176  10.066   7.237 -1.0848  1.4262  1.3909
  827MOL0     H14124   7.392   9.828   7.252 -1.7855  0.5204  0.1935
  827MOL0     H14125   7.295   9.884   7.130 -0.2248 -1.7494  0.6761
  827MOL0     H14126   7.464   9.890   7.089  1.3716  1.9109  0.4464
  828MOL0     O14127  11.214   6.431  10.892 -0.0485 -0.0450 -0.0593
  828MOL0     C14128  11.195   6.514  10.799  0.0245 -0.3124  0.3106
  828MOL0     O14129  11.295   6.585  10.736  0.1666 -0.1810  0.0011
  828MOL0     C14130  11.424   6.558  10.779  0.0825  0.1446 -0.1113
  828MOL0     C14131  11.505   6.465  10.707  0.7170 -0.5996  0.2380
  828MOL0     C14132  11.633   6.444  10.745 -0.3883  0.3492 -0.4006
  828MOL0     C14133  11.679   6.503  10.865  0.0704  0.2554  0.6066
  828MOL0     O14134  11.811   6.487  10.891 -0.2825  0.6561 -0.0012
  828MOL0     C14135  11.863   6.464  11.022 -0.0706  0.9479 -1.0764
  828MOL0     C14136  12.017   6.451  11.009  0.6433  0.1890 -0.0026
  828MOL0     C14137  12.098   6.581  11.020 -0.4767 -0.5922 -0.2805
  828MOL0     C14138  12.247   6.535  11.026  0.7566  0.2117 -0.9182
  828MOL0     C14139  12.338   6.659  11.029  0.2589  0.6961  0.4807
  828MOL0     C14140  12.356   6.703  10.889 -0.4006  0.8653  0.0166
  828MOL0     C14141  12.428   6.831  10.868 -0.0801 -0.0401  0.9534
  828MOL0     C14142  12.576   6.825  10.919  0.1903 -0.3509  0.3755
  828MOL0     N14143  12.656   6.933  10.872  0.1699  0.1104  0.1991
  828MOL0     C14144  12.745   6.918  10.768  0.1346  0.8110  0.5917
  828MOL0     C14145  12.819   7.031  10.772 -1.1477  0.3508 -0.5003
  828MOL0     C14146  12.943   7.061  10.691  0.0996  0.5686 -0.0285
  828MOL0     C14147  13.038   6.935  10.700  0.7426 -0.3708  0.4232
  828MOL0     C14148  13.169   6.954  10.618  0.6847 -0.1618  0.1413
  828MOL0     C14149  13.266   6.845  10.642  0.9444 -0.0045  0.5389
  828MOL0     O14150  13.398   6.891  10.640  0.3456 -0.3843  0.0551
  828MOL0     C14151  13.460   6.941  10.753  0.5736  0.0212 -0.4651
  828MOL0     C14152  13.390   6.953  10.877  0.2203  0.3003  0.3379
  828MOL0     C14153  13.458   6.981  10.991 -0.0723  0.1903 -0.5532
  828MOL0     C14154  13.378   6.967  11.116 -0.1147  0.2747  0.0948
  828MOL0     C14155  13.601   7.008  10.998  0.6465  0.1169  0.6325
  828MOL0     C14156  13.685   7.030  11.112 -0.4292 -0.9109  0.1535
  828MOL0     O14157  13.792   7.096  11.092 -0.7744  0.0437  0.2500
  828MOL0     C14158  13.884   7.117  11.190  0.5921 -0.3165 -0.1927
  828MOL0     C14159  14.017   7.087  11.152  0.5976 -0.2546 -0.5741
  828MOL0     C14160  14.117   7.101  11.242 -0.9807 -0.3875 -0.3833
  828MOL0     C14161  14.096   7.147  11.377 -0.7907  0.4309  0.5728
  828MOL0     O14162  14.195   7.168  11.471  0.1704 -0.3521 -0.4146
  828MOL0     C14163  14.326   7.110  11.466 -0.5502 -1.0445  0.4246
  828MOL0     C14164  14.416   7.180  11.576  0.5314 -0.2252 -0.5772
  828MOL0     C14165  14.346   7.169  11.716 -0.2675 -0.6069 -0.2067
  828MOL0     C14166  14.418   7.265  11.818  0.5607  0.0069 -0.6767
  828MOL0     C14167  14.345   7.266  11.954  0.8809  0.0203 -0.5113
  828MOL0     C14168  14.414   7.354  12.058 -0.2450  0.0894 -0.9866
  828MOL0     C14169  14.346   7.339  12.201  0.1841 -1.6863 -0.0126
  828MOL0     C14170  14.356   7.461  12.283 -0.2725 -1.3126  0.1557
  828MOL0    Cl14171  14.266   7.424  12.438  0.0864  0.2684  0.2610
  828MOL0     C14172  13.963   7.174  11.417  0.4699  0.0993  0.3818
  828MOL0     C14173  13.852   7.167  11.321 -0.4493 -0.0062 -0.9258
  828MOL0     O14174  13.640   6.996  11.223  0.7998 -0.1657  0.4597
  828MOL0     C14175  13.669   6.995  10.875  1.0690  0.0808  0.2355
  828MOL0     C14176  13.596   6.961  10.754 -0.7613  0.1987 -1.0929
  828MOL0     N14177  12.783   7.104  10.885 -0.5708  0.2193 -0.6847
  828MOL0     N14178  12.682   7.048  10.940 -0.0953 -0.5891 -0.1621
  828MOL0     C14179  11.594   6.578  10.947 -0.0413  0.1096  0.5936
  828MOL0     C14180  11.471   6.613  10.898  0.6212  0.1964 -0.1401
  828MOL0     C14181  11.053   6.548  10.757 -0.2306 -0.0945 -0.1181
  828MOL0     C14182  11.042   6.643  10.657 -0.1755  0.1221 -0.9210
  828MOL0     C14183  10.918   6.698  10.613  0.9710 -0.1410 -0.3593
  828MOL0     C14184  10.804   6.656  10.680  0.4685 -0.9988 -0.2730
  828MOL0     O14185  10.678   6.714  10.663 -0.5014 -0.1845 -0.6000
  828MOL0     C14186  10.643   6.828  10.566  0.5820  0.4518  0.2757
  828MOL0     C14187  10.693   6.962  10.613  0.2279  0.2355 -0.4748
  828MOL0     C14188  10.634   7.020  10.748  0.0752  0.0940 -0.5070
  828MOL0     C14189  10.642   7.175  10.749 -0.0537 -0.5689  0.1908
  828MOL0     C14190  10.517   7.224  10.701  0.0981 -0.3226 -0.1399
  828MOL0     C14191  10.407   7.259  10.655 -0.1664 -0.3292 -0.2913
  828MOL0     C14192  10.807   6.560  10.780 -0.2626 -0.0170 -0.2755
  828MOL0     C14193  10.933   6.500  10.817  0.0847 -0.3906  0.3942
  828MOL0     C14194  10.943   6.401  10.924  0.9480  0.5581 -0.1091
  828MOL0     H14195  11.467   6.415  10.618  4.3146 -0.0512 -1.7755
  828MOL0     H14196  11.692   6.375  10.685  0.4019  2.3689 -2.0451
  828MOL0     H14197  11.836   6.363  11.055  1.5027  0.9478  0.4012
  828MOL0     H14198  11.834   6.537  11.098 -1.6170  0.6087 -1.3259
  828MOL0     H14199  12.056   6.396  11.096  1.8231  0.6466 -0.2184
  828MOL0     H14200  12.041   6.391  10.921 -0.7086 -0.8066  0.2740
  828MOL0     H14201  12.077   6.635  10.927  2.6286  1.0098 -0.2087
  828MOL0     H14202  12.078   6.651  11.102  2.4199 -0.3465  0.3150
  828MOL0     H14203  12.257   6.483  11.121  0.6376 -0.2741 -1.1676
  828MOL0     H14204  12.263   6.467  10.942 -1.2233 -2.7063  0.8803
  828MOL0     H14205  12.433   6.627  11.074 -0.6884 -1.2094  1.2206
  828MOL0     H14206  12.302   6.750  11.076  1.3272  1.8200 -0.7806
  828MOL0     H14207  12.412   6.626  10.836  1.8326  1.6209  1.1269
  828MOL0     H14208  12.259   6.714  10.840 -2.0606 -4.5293  1.4531
  828MOL0     H14209  12.379   6.918  10.913  1.9267  1.2788  0.7668
  828MOL0     H14210  12.437   6.847  10.760  1.4458  0.8375  1.1789
  828MOL0     H14211  12.572   6.832  11.028 -2.1114 -0.1644  0.3248
  828MOL0     H14212  12.624   6.729  10.897 -0.3398 -0.2860 -1.1754
  828MOL0     H14213  12.750   6.833  10.700  1.1334  1.0535  0.3415
  828MOL0     H14214  12.991   7.150  10.733  0.3419 -0.8299  2.9424
  828MOL0     H14215  12.916   7.087  10.589 -1.5995  2.1269  0.7642
  828MOL0     H14216  13.061   6.925  10.807 -0.9752  0.4849  0.9057
  828MOL0     H14217  12.989   6.852  10.649  2.2884  1.6792 -5.0469
  828MOL0     H14218  13.151   6.941  10.510  2.0580 -1.1679 -0.0004
  828MOL0     H14219  13.217   7.049  10.644  1.7517 -0.8441  0.7434
  828MOL0     H14220  13.237   6.800  10.737  0.2244 -3.1582 -1.0662
  828MOL0     H14221  13.256   6.767  10.566 -0.9934  0.3299  0.3942
  828MOL0     H14222  13.282   6.944  10.880 -0.1036  2.2803 -1.8509
  828MOL0     H14223  13.409   7.058  11.169 -1.7889  0.7199  0.3774
  828MOL0     H14224  13.401   6.872  11.165 -3.9793 -0.3624  0.9571
  828MOL0     H14225  13.270   6.970  11.103 -0.2203 -1.9240  0.0850
  828MOL0     H14226  14.041   7.051  11.052  0.0280  0.8869 -1.1370
  828MOL0     H14227  14.221   7.084  11.215 -0.4126  1.8594  0.1594
  828MOL0     H14228  14.315   7.001  11.475  0.3793 -1.3143 -1.3454
  828MOL0     H14229  14.366   7.130  11.367  0.5474 -0.2519  1.0079
  828MOL0     H14230  14.517   7.141  11.567  0.2423 -2.4131  3.5252
  828MOL0     H14231  14.436   7.283  11.544 -0.1337 -0.3856 -1.5478
  828MOL0     H14232  14.350   7.071  11.763  0.6569 -0.3724  0.2134
  828MOL0     H14233  14.244   7.208  11.713  0.9555  3.0720  0.4265
  828MOL0     H14234  14.413   7.369  11.785  2.5987  0.4857  0.3519
  828MOL0     H14235  14.523   7.236  11.833  0.4573  0.7620  1.8909
  828MOL0     H14236  14.240   7.295  11.940  0.1987 -0.7729  2.3038
  828MOL0     H14237  14.344   7.168  12.002  0.7078 -1.3440 -3.1002
  828MOL0     H14238  14.389   7.457  12.028  0.9670  0.2702 -1.4208
  828MOL0     H14239  14.520   7.332  12.063 -0.7818 -2.6214 -0.1510
  828MOL0     H14240  14.401   7.257  12.249  1.1953 -0.9448  0.1059
  828MOL0     H14241  14.242   7.306  12.194 -0.1080 -0.4872 -1.9948
  828MOL0     H14242  14.317   7.546  12.227  2.8448  1.1473  1.4077
  828MOL0     H14243  14.461   7.484  12.305 -0.6247  1.2992 -0.5128
  828MOL0     H14244  13.947   7.206  11.520 -1.0544  1.6386 -0.2803
  828MOL0     H14245  13.754   7.197  11.357  0.2992 -1.5778  2.8498
  828MOL0     H14246  13.777   7.008  10.869  1.6813 -3.8261  0.1429
  828MOL0     H14247  13.651   6.963  10.661 -1.7643 -0.7811 -1.7320
  828MOL0     H14248  11.628   6.618  11.041  2.4061 -0.0280 -0.1488
  828MOL0     H14249  11.418   6.682  10.964  0.8859  2.2596 -1.9794
  828MOL0     H14250  11.132   6.690  10.619 -0.2567 -0.1223 -1.4206
  828MOL0     H14251  10.909   6.771  10.534  0.6614 -0.4945 -0.6534
  828MOL0     H14252  10.681   6.816  10.464 -0.4752 -1.1452  0.0486
  828MOL0     H14253  10.536   6.851  10.571  1.1362  3.1132  2.2218
  828MOL0     H14254  10.678   7.033  10.531  1.6590 -1.4712 -2.2987
  828MOL0     H14255  10.799   6.955  10.639 -0.0574  2.0356  1.3924
  828MOL0     H14256  10.530   6.989  10.744  0.3189 -0.8235  0.1233
  828MOL0     H14257  10.680   6.973  10.835 -2.2823 -1.5947 -0.1116
  828MOL0     H14258  10.724   7.215  10.689  1.5744 -1.5223  1.6603
  828MOL0     H14259  10.666   7.200  10.853 -1.1584 -0.1578  0.3552
  828MOL0     H14260  10.308   7.277  10.620 -0.5659 -1.5415  0.1590
  828MOL0     H14261  10.710   6.530  10.820 -0.6338  0.7840 -0.5441
  828MOL0     H14262  10.966   6.302  10.882  2.6097 -0.4396  2.8116
  828MOL0     H14263  11.013   6.436  11.001  2.0615  1.6054 -1.5504
  828MOL0     H14264  10.844   6.381  10.968  1.5604 -1.2024  0.5839
  829MOL0     O14265   1.520   3.806   9.716 -0.6924 -0.4194 -0.1738
  829MOL0     C14266   1.447   3.829   9.815  0.1750 -0.2764  0.5899
  829MOL0     O14267   1.487   3.890   9.933 -0.3840  0.1863  0.2162
  829MOL0     C14268   1.611   3.930   9.962 -0.3680  0.4148  0.2544
  829MOL0     C14269   1.712   3.844   9.986  0.0429 -0.2743 -0.4790
  829MOL0     C14270   1.848   3.885  10.004  0.1141  0.0719 -0.4818
  829MOL0     C14271   1.874   4.020  10.010  0.4605 -0.7508  0.2033
  829MOL0     O14272   1.992   4.086  10.037 -0.2063 -0.6427 -0.4456
  829MOL0     C14273   2.101   4.001  10.085  0.8286 -0.0345 -0.4979
  829MOL0     C14274   2.228   4.087  10.088  0.5296 -0.0882  0.3445
  829MOL0     C14275   2.355   4.006  10.114  0.3928  0.2797  0.7667
  829MOL0     C14276   2.387   3.945   9.973  0.4838 -0.6643 -0.7218
  829MOL0     C14277   2.513   3.866   9.962 -0.8941 -0.1054  0.3349
  829MOL0     C14278   2.528   3.760  10.071 -0.0510 -0.4340 -0.3466
  829MOL0     C14279   2.663   3.695  10.057 -0.1492  0.1039 -0.6579
  829MOL0     C14280   2.675   3.572  10.160  0.1578 -0.0560  0.3331
  829MOL0     N14281   2.822   3.547  10.177  1.0351 -0.1238 -0.2881
  829MOL0     C14282   2.926   3.583  10.096 -0.7181  0.0318  0.1103
  829MOL0     C14283   3.040   3.546  10.162 -0.3680  0.1523 -0.6394
  829MOL0     C14284   3.185   3.564  10.125 -0.2993  0.3194  0.4715
  829MOL0     C14285   3.212   3.541   9.972 -0.2273 -0.3730  0.2007
  829MOL0     C14286   3.342   3.607   9.923  0.0383 -0.5236 -0.7645
  829MOL0     C14287   3.469   3.518   9.958  0.2996  0.1721  0.6913
  829MOL0     O14288   3.577   3.536   9.869 -0.1243 -0.0722  0.5238
  829MOL0     C14289   3.708   3.539   9.913  0.0110 -0.8498  0.1860
  829MOL0     C14290   3.760   3.478  10.024 -0.1459 -0.1823 -0.4454
  829MOL0     C14291   3.897   3.480  10.060 -0.7800  0.5900 -0.0237
  829MOL0     C14292   3.942   3.424  10.197  0.2116  0.2069  1.0031
  829MOL0     C14293   3.985   3.533   9.963  0.7971  0.2363  0.2383
  829MOL0     C14294   4.134   3.547   9.978 -0.4922 -0.3654 -0.4901
  829MOL0     O14295   4.192   3.533  10.103  0.3619 -0.2398  0.1062
  829MOL0     C14296   4.321   3.538  10.127  0.0699  0.4524  0.1737
  829MOL0     C14297   4.375   3.608  10.239 -0.0438 -0.1225 -0.0002
  829MOL0     C14298   4.505   3.593  10.268 -0.0907 -0.1362  0.0726
  829MOL0     C14299   4.599   3.536  10.178 -0.8238  0.5864 -0.5284
  829MOL0     O14300   4.736   3.534  10.193  0.4943 -0.0709  0.3918
  829MOL0     C14301   4.782   3.566  10.322  0.4532  0.8053  0.1012
  829MOL0     C14302   4.939   3.571  10.321  0.5577 -0.1479 -0.4182
  829MOL0     C14303   4.996   3.423  10.335 -0.0377  0.1282  0.4816
  829MOL0     C14304   5.146   3.406  10.332  0.3538  0.1520  0.2023
  829MOL0     C14305   5.208   3.480  10.452 -1.0986  0.8915 -0.7763
  829MOL0     C14306   5.366   3.481  10.455 -0.1854 -1.5167  0.6197
  829MOL0     C14307   5.427   3.532  10.320 -0.0643  0.2462 -0.0316
  829MOL0     C14308   5.582   3.530  10.303 -1.1725  0.2107 -0.7262
  829MOL0    Cl14309   5.676   3.549  10.456  0.2638 -0.0855  0.0113
  829MOL0     C14310   4.550   3.485  10.063  0.7328 -0.1028  0.6476
  829MOL0     C14311   4.414   3.473  10.044  0.0201  0.2820  0.5974
  829MOL0     O14312   4.194   3.598   9.880 -0.4356  0.6723  0.4603
  829MOL0     C14313   3.936   3.586   9.839  0.1177  0.4451 -0.8389
  829MOL0     C14314   3.799   3.594   9.823 -0.0404 -0.2607  0.4553
  829MOL0     N14315   3.001   3.502  10.286 -0.0620  0.3548 -0.3108
  829MOL0     N14316   2.874   3.506  10.296  0.3075 -0.2081 -0.5062
  829MOL0     C14317   1.768   4.108   9.990  0.0536 -0.1235 -0.5929
  829MOL0     C14318   1.644   4.061   9.967  0.1260  1.2559 -0.2041
  829MOL0     C14319   1.304   3.795   9.810 -1.1786 -0.6275 -0.1993
  829MOL0     C14320   1.224   3.832   9.917  0.4979  0.5989  0.7867
  829MOL0     C14321   1.089   3.794   9.917 -0.5497 -0.6642  0.0534
  829MOL0     C14322   1.029   3.719   9.826  0.4725 -0.1478  0.2346
  829MOL0     O14323   0.891   3.681   9.810 -0.2398 -0.0890  0.3112
  829MOL0     C14324   0.796   3.704   9.914  0.8873  0.7151 -1.1795
  829MOL0     C14325   0.724   3.837   9.903 -0.7425 -0.5061  0.8505
  829MOL0     C14326   0.590   3.849   9.986 -0.5460  0.0098 -0.7779
  829MOL0     C14327   0.608   3.803  10.131 -1.3371  0.4907 -0.2810
  829MOL0     C14328   0.559   3.662  10.138 -0.7645 -1.1522  0.7780
  829MOL0     C14329   0.519   3.550  10.124 -0.3463  0.4052 -0.3306
  829MOL0     C14330   1.104   3.688   9.714  0.1685 -0.1721 -0.9645
  829MOL0     C14331   1.242   3.721   9.708  0.1739 -1.0445 -0.5138
  829MOL0     C14332   1.313   3.656   9.593  0.2339  0.0010 -0.2475
  829MOL0     H14333   1.686   3.739   9.987 -1.6840  0.1061  1.3539
  829MOL0     H14334   1.920   3.806  10.025 -0.2498 -0.1467 -0.0449
  829MOL0     H14335   2.106   3.918  10.013 -1.3484 -0.2927 -0.4141
  829MOL0     H14336   2.080   3.957  10.183 -0.4329  0.7206 -0.4138
  829MOL0     H14337   2.243   4.147   9.998 -1.6365  0.2075  0.1284
  829MOL0     H14338   2.216   4.169  10.160  0.7373  2.3733 -2.2547
  829MOL0     H14339   2.438   4.062  10.159  0.6328 -1.0354  2.0564
  829MOL0     H14340   2.332   3.924  10.182  1.5346 -0.0688  0.7668
  829MOL0     H14341   2.305   3.881   9.939 -0.4396 -0.4558  1.0180
  829MOL0     H14342   2.398   4.023   9.897  1.6782  0.5725  0.6735
  829MOL0     H14343   2.594   3.939   9.965 -0.5898 -0.4374  0.1122
  829MOL0     H14344   2.513   3.810   9.868 -0.7384 -0.6813  0.6763
  829MOL0     H14345   2.510   3.807  10.169 -0.6145  0.4733 -0.8696
  829MOL0     H14346   2.443   3.694  10.049 -0.9927  1.3853 -2.6299
  829MOL0     H14347   2.739   3.767  10.085 -0.1580  1.6567 -4.1438
  829MOL0     H14348   2.678   3.658   9.955 -0.9340 -0.6309 -0.5256
  829MOL0     H14349   2.635   3.601  10.257  1.1368  2.1393  0.1433
  829MOL0     H14350   2.620   3.487  10.117  0.2035  1.1537 -2.3501
  829MOL0     H14351   2.918   3.628   9.998  1.4233  0.1449 -0.0586
  829MOL0     H14352   3.249   3.497  10.183  2.3039 -1.0238 -3.4572
  829MOL0     H14353   3.205   3.668  10.153  3.0182 -0.1449  0.2161
  829MOL0     H14354   3.204   3.435   9.946  0.7943 -0.6427  0.9424
  829MOL0     H14355   3.128   3.583   9.915 -0.2075 -0.9924 -0.2984
  829MOL0     H14356   3.332   3.616   9.814 -0.9483 -1.9085 -0.8146
  829MOL0     H14357   3.348   3.707   9.966 -0.4251 -0.7268 -0.2222
  829MOL0     H14358   3.498   3.525  10.064  2.2652  0.6280  0.1670
  829MOL0     H14359   3.429   3.417   9.941  1.1676  0.1182 -1.3429
  829MOL0     H14360   3.684   3.435  10.088 -1.6000  3.1305  0.2736
  829MOL0     H14361   3.849   3.417  10.256  0.7901 -1.3426  1.7765
  829MOL0     H14362   4.021   3.484  10.244  0.2406  1.5812 -0.7046
  829MOL0     H14363   3.982   3.323  10.186 -0.4663 -0.0944  1.2590
  829MOL0     H14364   4.300   3.650  10.306 -0.1861 -2.8350  1.6790
  829MOL0     H14365   4.547   3.633  10.360  0.8448 -1.4286  0.2404
  829MOL0     H14366   4.751   3.660  10.368  2.5506  1.0184  1.1991
  829MOL0     H14367   4.760   3.493  10.401  1.2351  0.5313  0.0710
  829MOL0     H14368   4.982   3.614  10.230  1.7916 -0.1093  0.1593
  829MOL0     H14369   4.973   3.635  10.402  2.0966  0.2195 -1.3029
  829MOL0     H14370   4.959   3.360  10.255  2.9043 -0.2903 -0.6764
  829MOL0     H14371   4.964   3.375  10.428 -0.9656  0.3685  0.3013
  829MOL0     H14372   5.188   3.444  10.238 -0.6618 -1.6757 -1.0689
  829MOL0     H14373   5.180   3.302  10.328  0.4180  0.1868 -0.2831
  829MOL0     H14374   5.168   3.582  10.446  0.1633  1.4889  0.4392
  829MOL0     H14375   5.165   3.440  10.544 -1.2637 -0.4865 -1.4353
  829MOL0     H14376   5.404   3.381  10.477  1.6506 -1.5632 -2.2078
  829MOL0     H14377   5.394   3.547  10.537  1.0796  0.2724 -1.1425
  829MOL0     H14378   5.389   3.635  10.322 -0.2755  0.1710  2.0928
  829MOL0     H14379   5.377   3.481  10.237  2.5965  1.1131 -2.2999
  829MOL0     H14380   5.606   3.608  10.231  1.2126 -0.2195 -0.4845
  829MOL0     H14381   5.598   3.426  10.270 -1.2266  0.3910 -1.3375
  829MOL0     H14382   4.612   3.456   9.979 -1.7254  0.3946 -1.4923
  829MOL0     H14383   4.372   3.447   9.948 -1.0711  1.0278  0.8397
  829MOL0     H14384   3.996   3.626   9.758  1.1542  0.1284 -0.2479
  829MOL0     H14385   3.758   3.627   9.728 -2.7660  0.3964  1.7773
  829MOL0     H14386   1.789   4.214   9.998 -3.5198  0.7124 -0.6282
  829MOL0     H14387   1.563   4.131   9.949  0.5386  2.8461  3.2609
  829MOL0     H14388   1.253   3.900   9.997  1.9387 -2.1851  2.8102
  829MOL0     H14389   1.027   3.840   9.994  0.7127  0.4560  0.4252
  829MOL0     H14390   0.734   3.614   9.918  3.1399 -0.9489 -1.6172
  829MOL0     H14391   0.851   3.701  10.009 -0.2430 -0.6250 -0.5385
  829MOL0     H14392   0.690   3.852   9.800 -2.5738 -1.2646  1.2946
  829MOL0     H14393   0.787   3.922   9.929 -2.7573  1.4833 -0.4283
  829MOL0     H14394   0.574   3.957   9.985  0.2889  0.1596  0.2230
  829MOL0     H14395   0.505   3.794   9.945 -2.6651  3.3206 -1.1389
  829MOL0     H14396   0.542   3.865  10.192 -1.4138 -0.4892  0.6577
  829MOL0     H14397   0.713   3.810  10.158 -1.0516 -2.2347 -0.4432
  829MOL0     H14398   0.484   3.449  10.115 -0.7142  0.3203  1.6844
  829MOL0     H14399   1.047   3.621   9.650 -3.0956 -1.9921  3.3726
  829MOL0     H14400   1.238   3.627   9.519  0.6792  1.9747 -1.5372
  829MOL0     H14401   1.378   3.728   9.543  0.7786  0.2596  0.8010
  829MOL0     H14402   1.370   3.566   9.618  0.4598  0.5066  1.1210
  830MOL0     O14403   9.929   1.918  10.759  1.1877 -0.0457  0.0847
  830MOL0     C14404  10.045   1.898  10.754  0.0046  0.4435 -0.0946
  830MOL0     O14405  10.143   1.913  10.856  0.3225  0.1054 -0.3332
  830MOL0     C14406  10.091   1.935  10.986  0.2268  0.0086  0.5465
  830MOL0     C14407  10.109   2.060  11.054 -0.0495  1.2542  0.1246
  830MOL0     C14408  10.064   2.079  11.191  0.2870 -0.1979  0.9691
  830MOL0     C14409   9.989   1.979  11.253 -1.5593 -0.7815  0.7934
  830MOL0     O14410   9.938   1.989  11.379  0.6707  0.1204  1.1117
  830MOL0     C14411   9.854   2.109  11.401 -1.2643  0.0202 -0.4408
  830MOL0     C14412   9.800   2.114  11.541 -0.3018  0.2471  0.4193
  830MOL0     C14413   9.747   2.243  11.590 -0.2371 -0.2069  0.3341
  830MOL0     C14414   9.679   2.233  11.726 -0.3460  0.0751 -0.8224
  830MOL0     C14415   9.628   2.375  11.761  0.2077 -0.4884 -0.9349
  830MOL0     C14416   9.517   2.377  11.868  0.4141  0.4035 -0.0575
  830MOL0     C14417   9.508   2.510  11.950 -0.2147  0.3237  0.1234
  830MOL0     C14418   9.474   2.637  11.868  0.0004 -0.6159 -0.4636
  830MOL0     N14419   9.589   2.705  11.807  0.3528 -0.1587  0.2335
  830MOL0     C14420   9.637   2.821  11.868 -1.0804 -0.6762  0.4029
  830MOL0     C14421   9.746   2.854  11.795 -0.2865 -0.2255  0.0633
  830MOL0     C14422   9.839   2.979  11.808 -0.8646  0.0024  1.1704
  830MOL0     C14423   9.957   2.943  11.898  0.0629  0.2403  0.2327
  830MOL0     C14424  10.066   3.035  11.868  0.3328 -0.3472  0.3443
  830MOL0     C14425  10.163   2.997  11.974 -0.2142 -0.3351 -0.0696
  830MOL0     O14426  10.293   3.047  11.950  0.3607 -0.5129 -0.3451
  830MOL0     C14427  10.403   3.012  12.017 -1.1449 -0.1175  0.2845
  830MOL0     C14428  10.411   2.913  12.116  0.4201 -0.7305  0.9078
  830MOL0     C14429  10.530   2.874  12.168 -0.8194  0.0670  0.5082
  830MOL0     C14430  10.517   2.751  12.254  0.2304 -0.1663 -1.1951
  830MOL0     C14431  10.645   2.939  12.133 -0.2573  0.0033 -0.1878
  830MOL0     C14432  10.781   2.889  12.171 -0.0232  0.3466 -0.6596
  830MOL0     O14433  10.884   2.920  12.085 -0.1300  0.7879 -0.1940
  830MOL0     C14434  11.001   2.866  12.115  0.3162 -0.3160  0.7524
  830MOL0     C14435  11.025   2.739  12.085  0.0280 -0.1893 -0.1174
  830MOL0     C14436  11.155   2.689  12.111  0.2727  0.0956 -0.6683
  830MOL0     C14437  11.261   2.765  12.169 -0.2347  0.1034 -0.0768
  830MOL0     O14438  11.396   2.726  12.185  0.2806  0.2443 -0.0660
  830MOL0     C14439  11.424   2.586  12.171 -1.0646 -0.8858  0.1404
  830MOL0     C14440  11.573   2.587  12.186 -0.3474 -0.2737 -0.0586
  830MOL0     C14441  11.607   2.437  12.198 -0.0068  0.3331 -1.1043
  830MOL0     C14442  11.762   2.407  12.233  0.7240 -0.2896  0.0955
  830MOL0     C14443  11.863   2.484  12.148  0.4396  0.3215 -0.6460
  830MOL0     C14444  12.011   2.427  12.161  0.2619  0.3786 -0.6307
  830MOL0     C14445  12.116   2.518  12.089 -1.1508  0.6673 -0.4647
  830MOL0     C14446  12.249   2.456  12.102 -0.5226  0.3671 -0.6836
  830MOL0    Cl14447  12.354   2.558  12.014 -0.1705 -0.1695 -0.5236
  830MOL0     C14448  11.228   2.892  12.197  0.2550  0.3798  0.0255
  830MOL0     C14449  11.105   2.952  12.161  0.1863 -0.7295  0.6120
  830MOL0     O14450  10.793   2.851  12.290 -0.6191 -0.3853  0.7436
  830MOL0     C14451  10.638   3.048  12.043  0.2418  0.3242 -0.2881
  830MOL0     C14452  10.516   3.085  11.987  0.0960 -0.0089  0.1723
  830MOL0     N14453   9.753   2.773  11.687  0.2306  0.0758 -0.0112
  830MOL0     N14454   9.661   2.683  11.695 -0.2858 -0.0739  0.4983
  830MOL0     C14455   9.988   1.849  11.190 -0.4013 -0.1059 -0.4774
  830MOL0     C14456  10.033   1.830  11.058  0.1154  0.1177  0.4160
  830MOL0     C14457  10.096   1.854  10.617  0.1167  0.2068  0.2026
  830MOL0     C14458  10.225   1.787  10.608  0.2202 -0.8991  0.0481
  830MOL0     C14459  10.277   1.748  10.480 -0.5864  0.0839 -0.4832
  830MOL0     C14460  10.217   1.783  10.357  0.2285 -0.3770  0.0480
  830MOL0     O14461  10.278   1.738  10.235  0.6470  0.1374 -0.2990
  830MOL0     C14462  10.415   1.698  10.241 -0.2563  0.2910 -0.0820
  830MOL0     C14463  10.467   1.678  10.100 -0.8502 -1.1780  0.2685
  830MOL0     C14464  10.614   1.639  10.100 -0.1856 -0.5261 -0.4955
  830MOL0     C14465  10.659   1.580   9.969  0.6105  0.2315  0.1168
  830MOL0     C14466  10.804   1.556   9.957 -0.2806 -0.2886 -0.2451
  830MOL0     C14467  10.922   1.533   9.950 -0.6178  0.2792  0.3900
  830MOL0     C14468  10.093   1.838  10.370  0.0297  0.1884 -0.4251
  830MOL0     C14469  10.033   1.868  10.495  0.6055 -0.0321  0.5847
  830MOL0     C14470   9.900   1.942  10.483 -0.6329 -0.2137  0.6428
  830MOL0     H14471  10.160   2.141  11.004  1.3423  1.5532  1.9037
  830MOL0     H14472  10.085   2.172  11.243  0.1952 -0.5114  1.5789
  830MOL0     H14473   9.771   2.113  11.331 -0.7906  0.8090 -0.9681
  830MOL0     H14474   9.921   2.195  11.390 -2.3918  1.1139  0.8988
  830MOL0     H14475   9.730   2.031  11.555  3.0483 -2.7952  0.6527
  830MOL0     H14476   9.882   2.090  11.609 -1.2109 -0.8712  1.1576
  830MOL0     H14477   9.820   2.324  11.595 -0.6232  0.1872 -0.2123
  830MOL0     H14478   9.677   2.280  11.515 -2.0336 -3.5723  0.1554
  830MOL0     H14479   9.602   2.156  11.737 -1.8572  1.4842 -1.0469
  830MOL0     H14480   9.764   2.206  11.789  0.4983  2.7898 -0.6808
  830MOL0     H14481   9.585   2.416  11.669  0.8549  1.7472 -0.2952
  830MOL0     H14482   9.713   2.431  11.800  0.1590 -1.1361  0.1356
  830MOL0     H14483   9.416   2.351  11.833  0.8380  1.3497 -2.0866
  830MOL0     H14484   9.535   2.309  11.952  1.1883  0.2251 -0.3621
  830MOL0     H14485   9.603   2.522  12.003 -0.4161  2.2758  0.1106
  830MOL0     H14486   9.427   2.503  12.023 -1.9540  1.4822 -1.5907
  830MOL0     H14487   9.402   2.607  11.792 -0.6095  0.2890 -0.2577
  830MOL0     H14488   9.422   2.709  11.931  3.9733  0.3148  2.1504
  830MOL0     H14489   9.604   2.854  11.966 -0.9772  0.4265  0.0786
  830MOL0     H14490   9.779   3.066  11.834 -1.9201 -1.2296  3.0045
  830MOL0     H14491   9.887   3.012  11.714 -0.4433  2.0319  2.0333
  830MOL0     H14492   9.921   2.947  12.002 -1.4068  2.6853 -0.2978
  830MOL0     H14493   9.989   2.841  11.872  0.3420 -0.0968  1.7875
  830MOL0     H14494  10.110   3.012  11.770 -1.2235 -5.0198  0.4951
  830MOL0     H14495  10.031   3.138  11.879  3.3756  0.6454  1.8702
  830MOL0     H14496  10.130   3.040  12.069 -1.1632 -0.5938 -0.2693
  830MOL0     H14497  10.164   2.888  11.987 -1.3696 -0.7369 -2.7096
  830MOL0     H14498  10.319   2.860  12.140 -0.3806  0.9794  1.8497
  830MOL0     H14499  10.415   2.731  12.288  0.2338 -1.2287 -1.7558
  830MOL0     H14500  10.574   2.769  12.345 -3.3668 -1.9266  1.6662
  830MOL0     H14501  10.556   2.665  12.199  0.9781 -0.6698  0.0883
  830MOL0     H14502  10.957   2.668  12.039  1.0969 -0.5356 -1.2075
  830MOL0     H14503  11.164   2.583  12.090  0.5383 -0.8080  3.3035
  830MOL0     H14504  11.372   2.538  12.254 -0.3213 -0.1037  1.0837
  830MOL0     H14505  11.398   2.547  12.072  0.2505 -1.3660 -0.0355
  830MOL0     H14506  11.608   2.659  12.112 -1.6585  1.1635  0.6470
  830MOL0     H14507  11.607   2.625  12.283 -0.5289  0.2159 -0.1800
  830MOL0     H14508  11.579   2.373  12.114 -0.5957  1.3340 -1.6958
  830MOL0     H14509  11.543   2.394  12.275  0.6510  0.2926 -0.5669
  830MOL0     H14510  11.779   2.300  12.242  1.3444 -0.3082 -1.0271
  830MOL0     H14511  11.778   2.435  12.337  2.3174 -0.1777 -0.1464
  830MOL0     H14512  11.839   2.482  12.041  3.3950 -1.6041 -1.3978
  830MOL0     H14513  11.854   2.588  12.181  0.2637 -0.6177  2.7053
  830MOL0     H14514  12.018   2.339  12.097  1.0741  1.1520 -1.6376
  830MOL0     H14515  12.036   2.405  12.265  0.4622  1.0462 -0.5299
  830MOL0     H14516  12.117   2.619  12.129 -5.3674  0.9227 -0.5818
  830MOL0     H14517  12.092   2.527  11.983 -0.3303 -2.2163 -0.9976
  830MOL0     H14518  12.249   2.357  12.053  1.4349 -0.7384  1.4044
  830MOL0     H14519  12.281   2.442  12.205  1.7623 -0.5150 -1.4485
  830MOL0     H14520  11.305   2.954  12.242  0.3969 -2.7888  4.8767
  830MOL0     H14521  11.087   3.053  12.194 -0.0771 -0.8957  0.9833
  830MOL0     H14522  10.724   3.109  12.019  0.6827  0.6597  1.8836
  830MOL0     H14523  10.511   3.162  11.911  3.1015  1.5814  1.3827
  830MOL0     H14524   9.954   1.763  11.246  0.9067  0.4652  1.2514
  830MOL0     H14525  10.003   1.734  11.016  0.0295  0.6243 -0.7311
  830MOL0     H14526  10.288   1.756  10.691  1.1512  0.3055 -0.1676
  830MOL0     H14527  10.372   1.696  10.481 -0.5724  0.0014  2.7396
  830MOL0     H14528  10.473   1.777  10.290 -2.0315  0.8857  1.2115
  830MOL0     H14529  10.433   1.607  10.299  2.0571 -0.1764 -1.4103
  830MOL0     H14530  10.456   1.771  10.044  2.3903  0.5905  2.2036
  830MOL0     H14531  10.402   1.608  10.048 -1.1169  0.3185 -1.4945
  830MOL0     H14532  10.674   1.728  10.120 -1.2462  0.3979 -1.3635
  830MOL0     H14533  10.636   1.563  10.176 -1.0905 -2.5928 -2.2118
  830MOL0     H14534  10.619   1.648   9.893 -1.2470  0.2179  1.0261
  830MOL0     H14535  10.611   1.482   9.966 -0.1616  0.6155 -2.1057
  830MOL0     H14536  11.027   1.510   9.948 -1.1742 -2.5629 -1.3074
  830MOL0     H14537  10.043   1.840  10.273 -1.8696 -0.8615  0.4774
  830MOL0     H14538   9.820   1.867  10.489  0.1977 -1.3389 -1.3718
  830MOL0     H14539   9.900   2.036  10.539 -1.1087 -0.0766  0.4139
  830MOL0     H14540   9.881   1.976  10.381  1.2008 -2.4966 -0.5658
  831MOL0     O14541   2.517   4.973   3.082 -0.0476 -0.5918 -0.2486
  831MOL0     C14542   2.602   4.910   3.133 -0.2535  0.4244 -0.5301
  831MOL0     O14543   2.590   4.778   3.168 -0.6501 -0.3905 -0.4134
  831MOL0     C14544   2.488   4.709   3.108 -0.1169  0.2685 -0.2331
  831MOL0     C14545   2.358   4.723   3.161  0.2119  0.1700 -0.2339
  831MOL0     C14546   2.259   4.641   3.115  0.6413  0.3329  1.2147
  831MOL0     C14547   2.286   4.534   3.034 -0.4904 -0.1215  0.6068
  831MOL0     O14548   2.191   4.453   2.983  0.4584  0.3634  0.2157
  831MOL0     C14549   2.108   4.404   3.086  0.1461  0.4332  0.4552
  831MOL0     C14550   1.993   4.322   3.037  0.1099 -0.6453 -0.2151
  831MOL0     C14551   2.011   4.201   2.940  0.0412  1.0619  0.4157
  831MOL0     C14552   2.065   4.085   3.026  0.9272  0.8760  0.9247
  831MOL0     C14553   2.029   3.944   2.968  0.9094 -0.4784 -0.1402
  831MOL0     C14554   2.089   3.926   2.832 -0.9492 -0.0655  0.8651
  831MOL0     C14555   2.072   3.790   2.771  0.2734 -0.8262  0.2753
  831MOL0     C14556   2.150   3.760   2.644 -0.0582 -0.5960  0.2934
  831MOL0     N14557   2.292   3.766   2.668 -0.3652 -1.5707  0.0492
  831MOL0     C14558   2.361   3.700   2.764 -0.5940 -0.8664  0.2424
  831MOL0     C14559   2.492   3.719   2.729 -0.2526  0.7622  0.2118
  831MOL0     C14560   2.624   3.668   2.788 -0.0638 -0.7088 -0.7991
  831MOL0     C14561   2.697   3.784   2.853 -0.2217 -0.4542 -0.5098
  831MOL0     C14562   2.814   3.725   2.925  0.2116 -0.4630  0.5711
  831MOL0     C14563   2.906   3.837   2.971  0.7341 -0.6646 -0.4139
  831MOL0     O14564   3.036   3.783   2.979 -0.2015 -0.0481 -1.0045
  831MOL0     C14565   3.148   3.862   3.016 -0.7838 -0.5096  0.7963
  831MOL0     C14566   3.151   3.986   3.077  0.0341  0.7123  0.0183
  831MOL0     C14567   3.264   4.045   3.124 -0.3050 -0.0968  0.4288
  831MOL0     C14568   3.228   4.168   3.200  0.7611 -0.5480 -0.1582
  831MOL0     C14569   3.392   3.978   3.104  0.2538 -0.7184  0.4451
  831MOL0     C14570   3.519   4.039   3.157 -0.1257 -1.1088  0.7074
  831MOL0     O14571   3.638   3.984   3.112  0.1780 -0.4001 -0.3767
  831MOL0     C14572   3.753   4.007   3.179 -0.4911  0.5057 -1.0210
  831MOL0     C14573   3.831   3.901   3.235  0.0694 -0.4436  0.5076
  831MOL0     C14574   3.959   3.931   3.298 -0.6410  0.4295  0.3933
  831MOL0     C14575   4.010   4.064   3.314  1.2913  0.3679  0.3615
  831MOL0     O14576   4.132   4.090   3.370 -0.3537 -0.2551  0.3294
  831MOL0     C14577   4.240   3.992   3.346  0.3622 -0.4346  0.1285
  831MOL0     C14578   4.371   4.075   3.355 -0.6061  0.4012 -0.0084
  831MOL0     C14579   4.475   4.015   3.272 -0.7556  0.3967  0.2035
  831MOL0     C14580   4.608   4.108   3.282  0.5367  0.0991  0.1275
  831MOL0     C14581   4.600   4.241   3.204 -0.9142  0.0914  0.1010
  831MOL0     C14582   4.557   4.367   3.287 -0.5640 -0.5876  0.5293
  831MOL0     C14583   4.584   4.504   3.209  1.3051  0.4279 -0.4278
  831MOL0     C14584   4.562   4.631   3.300  0.6981 -0.7083  0.1652
  831MOL0    Cl14585   4.702   4.658   3.390  0.2233  0.3892  0.0718
  831MOL0     C14586   3.925   4.161   3.263 -0.2488 -0.2203 -0.0522
  831MOL0     C14587   3.806   4.138   3.194  0.0623 -0.2010  0.4850
  831MOL0     O14588   3.506   4.145   3.220  0.0100 -0.4090 -0.1393
  831MOL0     C14589   3.386   3.852   3.043  0.1376  0.5113  0.2949
  831MOL0     C14590   3.265   3.792   3.000  0.3222  0.2031 -0.2095
  831MOL0     N14591   2.499   3.796   2.610 -0.2268 -0.1339  0.0792
  831MOL0     N14592   2.379   3.830   2.578  0.0527  0.1898 -0.7433
  831MOL0     C14593   2.412   4.526   2.975 -0.3767 -0.4547  0.0677
  831MOL0     C14594   2.509   4.617   3.015  0.1018 -0.9079  1.2584
  831MOL0     C14595   2.721   4.988   3.181  0.3055 -0.5829  0.7326
  831MOL0     C14596   2.830   4.909   3.201  0.9818  0.0408  0.0749
  831MOL0     C14597   2.952   4.962   3.232 -0.3328 -0.8508  0.5490
  831MOL0     C14598   2.971   5.101   3.235 -0.0592 -0.5507 -1.5430
  831MOL0     O14599   3.095   5.150   3.254  0.8355 -0.8729 -0.2534
  831MOL0     C14600   3.132   5.278   3.207  0.1873 -0.6753 -0.0543
  831MOL0     C14601   3.113   5.392   3.308 -0.0742  0.7889 -0.3533
  831MOL0     C14602   3.225   5.354   3.409  0.4272 -0.6715  0.5467
  831MOL0     C14603   3.219   5.461   3.514 -0.1572  0.0217  0.2601
  831MOL0     C14604   3.328   5.442   3.610  0.6880 -0.2389  0.1160
  831MOL0     C14605   3.418   5.429   3.686 -0.1290 -0.5014  0.2102
  831MOL0     C14606   2.858   5.185   3.217  1.3153 -1.0536  0.0313
  831MOL0     C14607   2.733   5.134   3.189 -0.0773 -0.5764  0.2689
  831MOL0     C14608   2.608   5.231   3.156 -0.1391  0.2110  0.2114
  831MOL0     H14609   2.341   4.806   3.229  3.0943 -1.6042  2.9532
  831MOL0     H14610   2.161   4.659   3.157 -0.6231 -0.1098 -1.3382
  831MOL0     H14611   2.062   4.487   3.141 -0.2024  1.2873 -1.0540
  831MOL0     H14612   2.172   4.357   3.161  1.4569  2.9517  1.0587
  831MOL0     H14613   1.930   4.275   3.113 -0.1897 -1.9619 -1.2414
  831MOL0     H14614   1.927   4.400   2.997  0.7135 -0.6521 -1.2623
  831MOL0     H14615   1.919   4.166   2.892  1.7134  0.4571 -2.6239
  831MOL0     H14616   2.084   4.216   2.860 -1.6309 -1.0703 -1.6629
  831MOL0     H14617   2.174   4.094   3.033  1.4828 -0.7412 -3.1479
  831MOL0     H14618   2.018   4.082   3.125 -1.9250 -2.7160 -0.2955
  831MOL0     H14619   1.921   3.927   2.969  0.8155  0.0804 -0.7326
  831MOL0     H14620   2.068   3.878   3.047  1.3940 -0.6396 -0.5113
  831MOL0     H14621   2.051   3.997   2.757  2.2017  0.7812 -0.0914
  831MOL0     H14622   2.195   3.951   2.844 -1.0518  2.6405 -2.3658
  831MOL0     H14623   1.968   3.772   2.742  0.3197  2.4304 -2.3788
  831MOL0     H14624   2.094   3.722   2.854 -3.4730 -0.9468  1.3554
  831MOL0     H14625   2.133   3.658   2.606  1.2812 -0.4856 -0.6714
  831MOL0     H14626   2.126   3.845   2.580 -1.2457 -0.1995  1.2205
  831MOL0     H14627   2.334   3.648   2.855 -0.8559  0.5810  1.0248
  831MOL0     H14628   2.682   3.630   2.704 -2.6384 -3.4887 -1.5168
  831MOL0     H14629   2.586   3.587   2.852 -3.3676  0.2029 -1.4039
  831MOL0     H14630   2.737   3.844   2.771 -0.7675 -0.7384 -0.9932
  831MOL0     H14631   2.633   3.851   2.912  0.3281 -1.3035  1.1074
  831MOL0     H14632   2.783   3.672   3.016 -2.2312 -2.5777 -1.3378
  831MOL0     H14633   2.868   3.659   2.856  0.1320  2.7780 -2.8989
  831MOL0     H14634   2.917   3.919   2.900 -0.3616  0.6698  0.8962
  831MOL0     H14635   2.872   3.881   3.065 -2.1429 -1.7149 -0.8432
  831MOL0     H14636   3.049   4.021   3.090 -1.7875 -3.7019 -0.7268
  831MOL0     H14637   3.278   4.257   3.160  1.1095 -1.0126 -0.7775
  831MOL0     H14638   3.258   4.163   3.305 -0.0153  1.4551  0.1982
  831MOL0     H14639   3.122   4.191   3.189  0.6439 -1.0777 -0.1794
  831MOL0     H14640   3.792   3.799   3.238  1.3859 -0.9622  0.3873
  831MOL0     H14641   4.011   3.843   3.334 -1.4238  0.3354  1.3652
  831MOL0     H14642   4.232   3.906   3.413 -4.0409 -0.3142  0.0437
  831MOL0     H14643   4.222   3.963   3.242 -4.2054 -0.5393  0.7547
  831MOL0     H14644   4.343   4.169   3.308 -1.0937  1.0695  1.5424
  831MOL0     H14645   4.393   4.093   3.461 -0.2608  0.4279 -0.0855
  831MOL0     H14646   4.446   4.023   3.167  4.4408 -1.8570 -1.7531
  831MOL0     H14647   4.500   3.917   3.315  0.0786  1.9071  3.5035
  831MOL0     H14648   4.684   4.038   3.244  1.7765  0.8575  1.1569
  831MOL0     H14649   4.623   4.125   3.388 -1.3439 -1.3018  0.6779
  831MOL0     H14650   4.698   4.252   3.157 -0.6225 -2.9638 -0.1646
  831MOL0     H14651   4.538   4.230   3.114  0.8217  0.9300 -1.2578
  831MOL0     H14652   4.616   4.376   3.378 -0.0038  1.8255  0.0141
  831MOL0     H14653   4.450   4.366   3.311 -1.0154  4.3815 -0.1282
  831MOL0     H14654   4.505   4.512   3.133  0.9814  2.8997  0.0895
  831MOL0     H14655   4.680   4.521   3.160  1.6088  1.9323  0.6409
  831MOL0     H14656   4.484   4.601   3.371  1.0700  0.4426  1.0895
  831MOL0     H14657   4.523   4.721   3.252 -1.1773 -1.5345  0.0280
  831MOL0     H14658   3.967   4.261   3.270  0.1298 -0.4990  2.4626
  831MOL0     H14659   3.752   4.222   3.150 -0.4891 -0.3382  0.8913
  831MOL0     H14660   3.477   3.792   3.035  1.6579  2.9030 -2.4408
  831MOL0     H14661   3.265   3.687   2.972  1.2994  0.4155 -1.0395
  831MOL0     H14662   2.433   4.439   2.914  1.2637 -2.6600  3.4737
  831MOL0     H14663   2.607   4.604   2.971 -1.2366 -2.3921 -1.5782
  831MOL0     H14664   2.822   4.801   3.191  0.7802  0.2748 -4.2568
  831MOL0     H14665   3.036   4.894   3.238  0.3237  0.0315  2.2650
  831MOL0     H14666   3.236   5.274   3.174  1.8698 -1.2790  4.5756
  831MOL0     H14667   3.062   5.304   3.127 -0.2166 -0.2648  0.4278
  831MOL0     H14668   3.010   5.403   3.342 -0.3212  0.8532 -1.0955
  831MOL0     H14669   3.140   5.489   3.264  2.0967  0.8854  1.0661
  831MOL0     H14670   3.215   5.256   3.455 -0.2103 -0.9689 -0.1985
  831MOL0     H14671   3.320   5.360   3.354 -0.6617  1.3550 -1.2545
  831MOL0     H14672   3.122   5.461   3.565 -1.1637 -0.8629 -1.5561
  831MOL0     H14673   3.235   5.561   3.474  2.0020 -0.3810  0.0310
  831MOL0     H14674   3.501   5.426   3.754  0.0061 -1.6163  0.0221
  831MOL0     H14675   2.868   5.293   3.230 -1.7286 -0.7262  0.3675
  831MOL0     H14676   2.524   5.206   3.222 -0.1895 -1.8664 -0.5684
  831MOL0     H14677   2.633   5.336   3.173 -1.0964  0.7008 -1.2542
  831MOL0     H14678   2.578   5.221   3.051 -0.1532  0.3749  0.1994
  832MOL0     O14679   4.454   9.597   4.935  0.1758  0.2344  0.2029
  832MOL0     C14680   4.481   9.653   5.036  0.0063  0.4786 -0.4488
  832MOL0     O14681   4.604   9.675   5.078 -0.1567  0.4839  0.2846
  832MOL0     C14682   4.699   9.583   5.052  1.2945  0.7580  0.2926
  832MOL0     C14683   4.715   9.478   5.144 -0.1844 -0.1634  0.3095
  832MOL0     C14684   4.822   9.396   5.125 -0.2470 -0.7367 -0.3972
  832MOL0     C14685   4.899   9.397   5.009 -0.1623  0.2639 -0.2037
  832MOL0     O14686   4.987   9.294   4.991  0.3031  0.0171 -0.8938
  832MOL0     C14687   5.095   9.327   4.904  0.3314  0.6202  0.6905
  832MOL0     C14688   5.185   9.438   4.954 -0.1363  0.0162 -0.6610
  832MOL0     C14689   5.336   9.407   4.932 -0.2878  0.4753  0.6875
  832MOL0     C14690   5.433   9.507   5.005  0.6938 -0.6047 -0.4493
  832MOL0     C14691   5.570   9.453   4.996 -0.8551  0.5279 -0.8773
  832MOL0     C14692   5.659   9.533   5.091  0.3245  0.1581  0.5814
  832MOL0     C14693   5.809   9.502   5.066  0.2206  0.7163 -0.9778
  832MOL0     C14694   5.855   9.352   5.056  0.4497 -0.7188  1.2236
  832MOL0     N14695   6.002   9.348   5.056  0.1046  0.8259 -0.0755
  832MOL0     C14696   6.082   9.390   5.153 -0.2258  0.2650 -0.5463
  832MOL0     C14697   6.210   9.397   5.104 -0.1345 -0.6478  0.5502
  832MOL0     C14698   6.343   9.430   5.163  0.4544  0.6764  0.4182
  832MOL0     C14699   6.391   9.562   5.110 -1.2555 -0.0760 -0.2214
  832MOL0     C14700   6.535   9.589   5.161  0.7475  0.4552 -0.0267
  832MOL0     C14701   6.584   9.723   5.101  0.2075 -0.4708  0.4842
  832MOL0     O14702   6.629   9.677   4.969 -0.6689 -0.8045  0.0803
  832MOL0     C14703   6.744   9.737   4.935 -0.9468  0.4766  0.2989
  832MOL0     C14704   6.834   9.668   4.854  0.1538 -0.5922  0.7929
  832MOL0     C14705   6.952   9.725   4.798  1.3197  0.1635  0.1985
  832MOL0     C14706   7.052   9.640   4.710  0.1052 -0.1564 -0.6857
  832MOL0     C14707   6.983   9.857   4.842 -0.6804  0.0892  0.0870
  832MOL0     C14708   7.107   9.936   4.812 -0.0436  0.4580 -0.1054
  832MOL0     O14709   7.107  10.076   4.828 -0.2173 -0.2868 -0.4446
  832MOL0     C14710   7.225  10.135   4.843  0.5522  0.6796 -1.2046
  832MOL0     C14711   7.247  10.262   4.784  0.4366  0.0355  0.3420
  832MOL0     C14712   7.365  10.328   4.790  0.3338 -0.0831  0.6429
  832MOL0     C14713   7.479  10.277   4.855  0.5160  1.1127  0.4627
  832MOL0     O14714   7.582  10.361   4.866  0.2464  0.0992  0.4749
  832MOL0     C14715   7.575  10.420   4.995  0.3022 -1.0922 -0.0776
  832MOL0     C14716   7.486  10.545   5.004 -0.4119 -0.4266  0.5119
  832MOL0     C14717   7.490  10.636   5.136  0.3580  0.7589  0.3550
  832MOL0     C14718   7.379  10.741   5.142  0.7344  0.1111  0.3649
  832MOL0     C14719   7.395  10.836   5.261  0.4748 -0.0757 -0.3101
  832MOL0     C14720   7.304  10.958   5.236 -0.6657 -0.3799  0.2770
  832MOL0     C14721   7.314  11.049   5.352 -0.6968 -0.5594 -0.4535
  832MOL0     C14722   7.207  11.040   5.462 -0.1175  0.0932  0.2888
  832MOL0    Cl14723   7.046  11.073   5.390 -0.0786 -0.0067 -0.0990
  832MOL0     C14724   7.466  10.151   4.911  0.1371  0.0303  0.3050
  832MOL0     C14725   7.340  10.083   4.907 -0.8303  0.7069  0.4437
  832MOL0     O14726   7.207   9.868   4.774 -0.0227 -0.3911  0.6006
  832MOL0     C14727   6.888   9.933   4.910 -0.0423  0.1029  0.4000
  832MOL0     C14728   6.770   9.874   4.948  0.5876  0.1945  0.8620
  832MOL0     N14729   6.195   9.356   4.968 -1.2683 -0.4913  0.3986
  832MOL0     N14730   6.075   9.322   4.949 -0.6042  0.0401 -0.0765
  832MOL0     C14731   4.870   9.494   4.915 -0.1440 -0.6832 -0.2223
  832MOL0     C14732   4.776   9.593   4.940  0.4787  0.1553  0.3365
  832MOL0     C14733   4.367   9.700   5.118 -0.2123 -0.6139 -1.2909
  832MOL0     C14734   4.389   9.831   5.179  0.4845  0.3111 -0.3090
  832MOL0     C14735   4.284   9.895   5.243  0.1656 -0.0401 -1.0724
  832MOL0     C14736   4.163   9.832   5.266  0.3848 -0.7617 -0.2215
  832MOL0     O14737   4.074   9.913   5.337  0.7947  0.2698 -0.3549
  832MOL0     C14738   3.964   9.839   5.395 -0.9970  0.3132 -0.0906
  832MOL0     C14739   3.849   9.849   5.296  0.0023  0.0410  0.3518
  832MOL0     C14740   3.819  10.000   5.265  0.5938  0.5578 -0.7577
  832MOL0     C14741   3.693  10.023   5.177  0.7982 -0.1951 -0.1467
  832MOL0     C14742   3.571   9.946   5.211  0.0827  0.4145  0.7600
  832MOL0     C14743   3.472   9.888   5.234  0.0351 -0.4562 -0.1678
  832MOL0     C14744   4.142   9.709   5.208  0.8226  0.0089  0.8256
  832MOL0     C14745   4.244   9.642   5.141  0.4470 -0.1078 -0.0104
  832MOL0     C14746   4.216   9.493   5.104 -0.5648  0.0630 -0.5292
  832MOL0     H14747   4.658   9.455   5.233  0.2176 -0.6170  0.4530
  832MOL0     H14748   4.844   9.321   5.200  0.9708 -1.7054 -1.6704
  832MOL0     H14749   5.073   9.334   4.797  1.5997  0.1190  0.3690
  832MOL0     H14750   5.154   9.235   4.909 -0.7513 -0.0084  2.5000
  832MOL0     H14751   5.163   9.539   4.919 -0.6369 -0.6873 -2.5340
  832MOL0     H14752   5.170   9.444   5.062 -0.8534 -0.1200 -0.7451
  832MOL0     H14753   5.356   9.306   4.969 -1.2596 -0.4576 -1.1909
  832MOL0     H14754   5.362   9.409   4.826 -1.8221  1.6517  0.3017
  832MOL0     H14755   5.425   9.609   4.966 -2.8946 -0.7951 -0.5336
  832MOL0     H14756   5.391   9.514   5.106 -0.1110  1.1887 -0.8648
  832MOL0     H14757   5.607   9.466   4.894  0.7964 -2.6258 -0.7903
  832MOL0     H14758   5.570   9.346   5.019 -1.7543  1.1718  2.8415
  832MOL0     H14759   5.636   9.638   5.071  0.6374 -0.0075 -0.7540
  832MOL0     H14760   5.640   9.514   5.197 -1.6884 -1.3371  0.0002
  832MOL0     H14761   5.868   9.557   5.140 -0.4238 -0.8815  0.7941
  832MOL0     H14762   5.839   9.535   4.966 -1.7680  0.1421 -1.8187
  832MOL0     H14763   5.810   9.304   5.143 -1.3579 -0.0838  0.6757
  832MOL0     H14764   5.806   9.303   4.971 -1.5225  2.6612  0.1980
  832MOL0     H14765   6.048   9.416   5.253  2.0511 -0.7858  0.5785
  832MOL0     H14766   6.416   9.352   5.140 -2.1045 -1.7198 -0.1266
  832MOL0     H14767   6.329   9.433   5.272 -1.3516  0.5663  0.2095
  832MOL0     H14768   6.399   9.554   5.001 -0.3373  0.2104 -0.1815
  832MOL0     H14769   6.330   9.647   5.140 -1.4409 -0.7398  1.4092
  832MOL0     H14770   6.529   9.597   5.270  1.2463 -0.2898  0.0600
  832MOL0     H14771   6.597   9.502   5.140 -0.5990 -1.1092  2.0304
  832MOL0     H14772   6.506   9.800   5.099 -0.0954 -0.7442 -2.5718
  832MOL0     H14773   6.661   9.766   5.166 -0.3029 -3.2540  3.1379
  832MOL0     H14774   6.807   9.565   4.833 -0.0889 -0.6583  1.4004
  832MOL0     H14775   7.141   9.610   4.766 -0.1165  1.5984  0.6920
  832MOL0     H14776   7.085   9.704   4.627 -2.0210  0.8624 -0.7978
  832MOL0     H14777   6.989   9.561   4.667  1.8421 -1.7453 -0.4387
  832MOL0     H14778   7.176  10.314   4.720 -0.9624  2.3382  3.4791
  832MOL0     H14779   7.380  10.425   4.744 -0.6209  0.3324  1.1567
  832MOL0     H14780   7.534  10.347   5.066 -1.9989 -0.1438 -0.3319
  832MOL0     H14781   7.677  10.436   5.029 -0.1598  1.5411  0.2733
  832MOL0     H14782   7.509  10.607   4.916 -0.0735  1.5867  1.9478
  832MOL0     H14783   7.379  10.520   5.000 -0.5507  0.0775  0.9867
  832MOL0     H14784   7.585  10.690   5.144 -1.1310  3.8032 -0.8892
  832MOL0     H14785   7.482  10.576   5.227  3.1018  1.1157  0.9120
  832MOL0     H14786   7.282  10.692   5.133  1.0636 -0.2389 -1.7123
  832MOL0     H14787   7.386  10.802   5.051  1.3812  1.2540  1.1526
  832MOL0     H14788   7.373  10.784   5.354 -0.2324  2.1481  0.8276
  832MOL0     H14789   7.498  10.872   5.268  0.4694 -0.4441  2.8143
  832MOL0     H14790   7.200  10.925   5.225 -0.3795 -1.2185  0.0030
  832MOL0     H14791   7.334  11.019   5.150  0.9072 -0.2438  0.8885
  832MOL0     H14792   7.314  11.151   5.311  0.4048  0.1406  1.1648
  832MOL0     H14793   7.411  11.025   5.396 -0.5690 -0.1851 -0.5277
  832MOL0     H14794   7.227  11.112   5.541 -3.5330 -0.1465  1.5235
  832MOL0     H14795   7.198  10.942   5.510  1.8009 -0.1911  0.1430
  832MOL0     H14796   7.550  10.091   4.945  0.0932 -0.3842 -0.3161
  832MOL0     H14797   7.341   9.985   4.954 -0.8214 -0.7558 -2.3866
  832MOL0     H14798   6.899  10.036   4.944 -0.5964 -0.1674  1.4629
  832MOL0     H14799   6.690   9.926   5.000 -1.2821 -2.7026  1.0968
  832MOL0     H14800   4.919   9.483   4.819 -0.1544  2.1582 -0.6552
  832MOL0     H14801   4.769   9.668   4.863  0.9426 -0.2377 -0.0976
  832MOL0     H14802   4.486   9.879   5.166 -0.0445  1.4670 -0.1060
  832MOL0     H14803   4.299   9.993   5.288 -1.5249 -0.9390  1.6767
  832MOL0     H14804   4.001   9.737   5.410 -1.4419  0.0643 -0.6605
  832MOL0     H14805   3.945   9.874   5.496  1.2822  2.3733 -0.2744
  832MOL0     H14806   3.764   9.796   5.342  2.2993 -3.8922  0.5547
  832MOL0     H14807   3.873   9.812   5.196  1.6729  1.1681  0.3135
  832MOL0     H14808   3.804  10.051   5.361  1.9271  0.4861 -0.4960
  832MOL0     H14809   3.902  10.054   5.217 -1.5729  3.1499 -1.8489
  832MOL0     H14810   3.719  10.002   5.073 -0.8319  3.8826 -1.5690
  832MOL0     H14811   3.670  10.130   5.181  0.1215 -0.2915 -1.1108
  832MOL0     H14812   3.381   9.840   5.264 -1.8273  2.9190  0.0850
  832MOL0     H14813   4.045   9.659   5.212  0.6843  0.3721  2.4311
  832MOL0     H14814   4.235   9.478   4.998 -1.8330  0.7145 -0.8681
  832MOL0     H14815   4.282   9.430   5.165  2.0209  1.9600 -1.1825
  832MOL0     H14816   4.112   9.467   5.121 -0.0856 -2.4757 -1.0767
  833MOL0     O14817   8.923   3.838   6.056  0.7662 -0.0755 -0.3702
  833MOL0     C14818   8.979   3.933   6.007 -0.1934 -1.1394 -0.3268
  833MOL0     O14819   9.099   3.921   5.952  0.0341  0.1570  0.7048
  833MOL0     C14820   9.157   3.800   5.947  0.9219 -0.6027  0.0098
  833MOL0     C14821   9.126   3.711   5.847 -0.6181 -0.0391 -0.0924
  833MOL0     C14822   9.184   3.584   5.845 -0.1050  0.0269  0.0423
  833MOL0     C14823   9.285   3.547   5.933 -0.1990 -0.5328 -0.3122
  833MOL0     O14824   9.345   3.427   5.906  0.4450  0.2316  0.2815
  833MOL0     C14825   9.450   3.390   5.999  0.0198 -0.4772 -0.4605
  833MOL0     C14826   9.523   3.258   5.966 -0.2302 -0.0244 -0.2240
  833MOL0     C14827   9.628   3.218   6.071 -0.1338 -0.3445  0.2075
  833MOL0     C14828   9.755   3.302   6.076  0.1971  0.1978  0.7781
  833MOL0     C14829   9.850   3.282   6.196  0.4135 -0.4026 -0.0637
  833MOL0     C14830   9.964   3.376   6.185 -1.0204 -0.0950  0.2229
  833MOL0     C14831  10.075   3.338   6.290 -0.6885  0.3238  0.1100
  833MOL0     C14832  10.027   3.334   6.434  0.4130 -0.2701  0.3625
  833MOL0     N14833  10.137   3.357   6.526 -0.6149  0.2388 -0.3583
  833MOL0     C14834  10.222   3.264   6.575  0.2449 -0.7173  0.5373
  833MOL0     C14835  10.331   3.338   6.626  0.5773  0.2098  0.2233
  833MOL0     C14836  10.453   3.290   6.703  0.2501  0.1354  0.4767
  833MOL0     C14837  10.587   3.289   6.636 -1.4408 -0.0428  0.6688
  833MOL0     C14838  10.702   3.249   6.724 -0.7332  0.8789 -0.3572
  833MOL0     C14839  10.767   3.112   6.689  0.3525 -0.4327  0.3191
  833MOL0     O14840  10.897   3.108   6.753  0.5587 -0.0433 -0.1948
  833MOL0     C14841  11.014   3.156   6.702 -0.1535 -0.7318  0.5408
  833MOL0     C14842  11.027   3.217   6.571  0.8432  0.0026 -0.3899
  833MOL0     C14843  11.144   3.262   6.528 -0.2590  0.2531 -0.5860
  833MOL0     C14844  11.142   3.325   6.394  0.0668 -0.0209  1.3278
  833MOL0     C14845  11.254   3.252   6.615 -0.5752  0.0988  0.1982
  833MOL0     C14846  11.399   3.280   6.577 -0.0468  0.4677  0.2447
  833MOL0     O14847  11.488   3.284   6.679  1.1677  0.1128  0.5510
  833MOL0     C14848  11.623   3.272   6.661 -0.1292 -0.3360  0.3794
  833MOL0     C14849  11.684   3.170   6.582 -0.0492 -0.2133  0.3810
  833MOL0     C14850  11.820   3.174   6.551  0.0348  0.3029  0.6412
  833MOL0     C14851  11.899   3.277   6.595  0.3714  0.7961 -0.1359
  833MOL0     O14852  12.028   3.295   6.555 -0.0374 -1.0510  0.4095
  833MOL0     C14853  12.123   3.317   6.658  0.7858 -0.3435 -0.5645
  833MOL0     C14854  12.251   3.265   6.599  0.4790 -0.1302  0.2641
  833MOL0     C14855  12.351   3.248   6.709 -0.2418 -0.4496  0.3169
  833MOL0     C14856  12.500   3.279   6.659  0.0704  0.7716 -0.6364
  833MOL0     C14857  12.532   3.425   6.626  0.1337 -0.0253  1.0705
  833MOL0     C14858  12.676   3.432   6.591  0.6707 -0.9245 -0.3024
  833MOL0     C14859  12.715   3.550   6.503 -0.7232 -0.1602 -0.2180
  833MOL0     C14860  12.849   3.527   6.417  0.6290 -0.5889 -0.0861
  833MOL0    Cl14861  12.877   3.646   6.294 -0.4196 -0.4828  0.2971
  833MOL0     C14862  11.838   3.370   6.679 -0.3205 -0.2215  0.4236
  833MOL0     C14863  11.704   3.372   6.708 -0.0004  0.7939 -1.3954
  833MOL0     O14864  11.431   3.285   6.461 -0.8076  0.6156 -0.0161
  833MOL0     C14865  11.239   3.208   6.747  0.0665  0.7769  0.6238
  833MOL0     C14866  11.122   3.152   6.784 -0.4009 -0.8699  0.2062
  833MOL0     N14867  10.312   3.471   6.603  0.1714 -0.2976  0.0920
  833MOL0     N14868  10.195   3.483   6.546  0.4116 -0.3002  0.6282
  833MOL0     C14869   9.327   3.634   6.024  0.5400 -0.3715 -0.5821
  833MOL0     C14870   9.266   3.764   6.031  0.4898 -0.4366  1.1243
  833MOL0     C14871   8.905   4.067   5.999 -0.1399 -0.2452 -0.3875
  833MOL0     C14872   8.762   4.062   6.023 -0.4990 -0.4156 -0.7646
  833MOL0     C14873   8.682   4.177   6.024 -0.6593  0.3497  0.1523
  833MOL0     C14874   8.731   4.302   5.993 -0.2407 -0.0256 -0.2100
  833MOL0     O14875   8.652   4.419   5.997  0.1143  0.6236 -0.7311
  833MOL0     C14876   8.510   4.415   5.997  0.2653 -0.3217  0.1940
  833MOL0     C14877   8.455   4.425   6.128  0.1244 -0.5708 -0.5075
  833MOL0     C14878   8.469   4.570   6.196  0.1837 -0.3473 -0.6230
  833MOL0     C14879   8.364   4.608   6.302  0.4025 -0.2599 -0.6927
  833MOL0     C14880   8.229   4.591   6.251 -0.1111  0.6440 -0.6943
  833MOL0     C14881   8.114   4.575   6.225 -0.2532 -0.0880  0.3838
  833MOL0     C14882   8.871   4.309   5.963  0.2034  0.1918 -0.6151
  833MOL0     C14883   8.956   4.192   5.960  0.2931 -0.2810 -0.3608
  833MOL0     C14884   9.098   4.212   5.925  0.4839 -0.0574  0.3039
  833MOL0     H14885   9.050   3.737   5.774  0.7175  2.4102 -0.7416
  833MOL0     H14886   9.141   3.522   5.768  0.0443 -0.4991  0.3741
  833MOL0     H14887   9.416   3.385   6.103  0.8336  0.6831 -0.1217
  833MOL0     H14888   9.527   3.467   6.001  1.6625 -1.9293  3.7982
  833MOL0     H14889   9.454   3.174   5.953  0.0422 -0.1777 -0.7280
  833MOL0     H14890   9.578   3.248   5.872 -2.2658 -4.8270 -1.2400
  833MOL0     H14891   9.577   3.225   6.167  1.0219 -2.3134  1.0204
  833MOL0     H14892   9.652   3.112   6.061 -0.8204 -0.3672 -1.6731
  833MOL0     H14893   9.820   3.275   5.993  1.9510  0.8591  1.8657
  833MOL0     H14894   9.732   3.409   6.067  1.8906  0.4046 -3.1966
  833MOL0     H14895   9.874   3.176   6.203 -1.6869 -0.8787  0.5725
  833MOL0     H14896   9.785   3.304   6.281  0.4802  0.2495 -0.1689
  833MOL0     H14897  10.008   3.364   6.086  0.6958  1.0803  0.8079
  833MOL0     H14898   9.942   3.480   6.208  3.2872  1.3060 -0.9737
  833MOL0     H14899  10.158   3.405   6.265 -0.0040 -0.1782  1.0095
  833MOL0     H14900  10.105   3.235   6.269  0.7866  0.7722 -0.1418
  833MOL0     H14901   9.961   3.421   6.445  3.0954  1.7735  1.2346
  833MOL0     H14902   9.968   3.246   6.460 -0.9360  1.1520  2.5383
  833MOL0     H14903  10.217   3.156   6.564 -2.9898 -0.6572  0.5077
  833MOL0     H14904  10.431   3.195   6.752  1.4181 -0.8846 -0.9065
  833MOL0     H14905  10.467   3.360   6.786 -0.3280 -0.6802  1.2943
  833MOL0     H14906  10.572   3.213   6.559 -0.2645 -0.2708  0.6435
  833MOL0     H14907  10.605   3.374   6.570 -3.0025 -3.1804 -4.3729
  833MOL0     H14908  10.784   3.321   6.715  0.7444 -0.7341 -0.1362
  833MOL0     H14909  10.681   3.239   6.831  2.1276  0.3543  0.2341
  833MOL0     H14910  10.710   3.025   6.725  2.3489 -1.5656  0.8991
  833MOL0     H14911  10.781   3.105   6.581  2.5812 -1.3857  0.6220
  833MOL0     H14912  10.944   3.223   6.501 -1.1795 -0.2633  1.8444
  833MOL0     H14913  11.209   3.410   6.382 -0.5386  0.3375  0.3741
  833MOL0     H14914  11.042   3.356   6.365  0.1091 -0.9315  0.0793
  833MOL0     H14915  11.172   3.251   6.319  0.3969 -0.4708  1.8930
  833MOL0     H14916  11.621   3.090   6.543  1.3956 -1.2490  0.1032
  833MOL0     H14917  11.866   3.097   6.490  0.8089  1.5689 -0.4251
  833MOL0     H14918  12.140   3.422   6.681  2.2958 -0.2501 -1.9876
  833MOL0     H14919  12.098   3.265   6.751  0.4315  0.4612 -0.1947
  833MOL0     H14920  12.236   3.169   6.548 -2.6225  0.3482  0.0360
  833MOL0     H14921  12.292   3.337   6.528  1.1093 -1.4514 -0.7316
  833MOL0     H14922  12.346   3.144   6.742  2.3283 -1.8378 -3.0228
  833MOL0     H14923  12.336   3.314   6.794 -1.9150 -1.0186  0.4811
  833MOL0     H14924  12.530   3.218   6.573 -0.3497  0.5462 -0.6245
  833MOL0     H14925  12.565   3.256   6.743  0.6660 -2.1839 -1.7896
  833MOL0     H14926  12.473   3.468   6.544  2.5172 -0.6321 -1.1202
  833MOL0     H14927  12.510   3.489   6.712 -3.1095  1.6179 -0.7775
  833MOL0     H14928  12.713   3.342   6.540  1.6368  0.8084 -2.8827
  833MOL0     H14929  12.741   3.430   6.679 -0.0653 -0.3354  0.2664
  833MOL0     H14930  12.731   3.637   6.567 -1.6661  0.8696 -1.3325
  833MOL0     H14931  12.642   3.582   6.428 -1.0888 -3.7372 -1.6016
  833MOL0     H14932  12.852   3.425   6.377  2.2254 -1.7908  2.7472
  833MOL0     H14933  12.934   3.527   6.486 -0.9740 -1.2551  1.9653
  833MOL0     H14934  11.905   3.440   6.726 -0.8944  0.5904  0.0607
  833MOL0     H14935  11.674   3.462   6.761 -1.1674 -0.3770  0.0218
  833MOL0     H14936  11.321   3.199   6.818  1.8690 -2.1833 -1.6395
  833MOL0     H14937  11.113   3.106   6.882 -1.3068  0.7501  0.9120
  833MOL0     H14938   9.409   3.620   6.094  0.9730  0.5710 -0.8710
  833MOL0     H14939   9.287   3.835   6.110 -0.8903  0.3473  0.8193
  833MOL0     H14940   8.721   3.966   6.056  1.7003 -1.2358 -0.2815
  833MOL0     H14941   8.578   4.165   6.052 -0.9549  1.9577 -0.1838
  833MOL0     H14942   8.471   4.492   5.929 -0.6089 -0.8294  0.1077
  833MOL0     H14943   8.493   4.319   5.947  2.5000 -1.2805  1.1449
  833MOL0     H14944   8.514   4.358   6.191  0.1569 -0.8755 -0.8578
  833MOL0     H14945   8.350   4.395   6.125  0.9846 -3.9500 -1.3004
  833MOL0     H14946   8.567   4.565   6.244  1.2479 -4.7380 -2.8204
  833MOL0     H14947   8.472   4.645   6.116  0.5994 -1.8971 -2.1124
  833MOL0     H14948   8.374   4.712   6.333 -2.0594  0.4079 -1.9185
  833MOL0     H14949   8.367   4.550   6.395 -1.6236  0.5489 -0.0586
  833MOL0     H14950   8.009   4.574   6.201 -0.2536 -0.9926  0.4125
  833MOL0     H14951   8.919   4.406   5.950 -1.6291  1.5802  2.0033
  833MOL0     H14952   9.168   4.148   5.980  1.5928 -1.2474 -2.3450
  833MOL0     H14953   9.110   4.195   5.818 -1.9889 -0.0647 -0.0393
  833MOL0     H14954   9.125   4.317   5.937  0.8519  0.6774 -4.9641
  834MOL0     O14955   4.665  11.113   8.896  0.2910  0.0446  0.1639
  834MOL0     C14956   4.677  11.140   8.786  0.3196 -0.3831  1.1744
  834MOL0     O14957   4.789  11.199   8.732 -0.2073  0.4306 -0.2624
  834MOL0     C14958   4.891  11.246   8.809 -0.1048  0.4621 -0.1907
  834MOL0     C14959   4.870  11.316   8.930  0.3563  0.0748 -0.4740
  834MOL0     C14960   4.986  11.366   9.001 -0.4833 -0.5120  0.1186
  834MOL0     C14961   5.122  11.357   8.952 -0.2473  0.5202  0.2422
  834MOL0     O14962   5.250  11.386   9.016 -0.2031  0.0313 -0.7414
  834MOL0     C14963   5.248  11.472   9.131 -1.0692  0.6301  0.4281
  834MOL0     C14964   5.252  11.392   9.267  0.0546  0.8035  1.1068
  834MOL0     C14965   5.360  11.280   9.263  0.1957 -0.2007  0.8839
  834MOL0     C14966   5.361  11.207   9.396 -0.5214 -0.2443 -0.4608
  834MOL0     C14967   5.472  11.097   9.385  0.5386  0.0043 -0.6521
  834MOL0     C14968   5.483  10.990   9.498 -1.1334  0.2466 -0.4142
  834MOL0     C14969   5.373  10.880   9.502 -0.3925  0.5422 -0.4920
  834MOL0     C14970   5.369  10.789   9.382 -0.2386  0.6035  0.3934
  834MOL0     N14971   5.474  10.679   9.370  0.7648 -0.4345  0.0774
  834MOL0     C14972   5.608  10.704   9.335  0.5204  0.5895  1.1162
  834MOL0     C14973   5.657  10.576   9.319 -0.0346 -0.2752 -0.4997
  834MOL0     C14974   5.789  10.534   9.260  0.0442  0.6232  0.6822
  834MOL0     C14975   5.918  10.537   9.351  0.2176  0.1933 -0.2117
  834MOL0     C14976   6.024  10.458   9.288  0.6345  0.4385  0.5950
  834MOL0     C14977   6.167  10.498   9.328 -0.6373  0.1520  0.1723
  834MOL0     O14978   6.262  10.409   9.277 -0.1224  0.7567  0.1727
  834MOL0     C14979   6.393  10.464   9.263 -0.1214  1.0805 -0.3275
  834MOL0     C14980   6.435  10.582   9.210  0.1577 -0.7231 -0.1612
  834MOL0     C14981   6.564  10.630   9.222 -0.6963  0.4663 -0.1773
  834MOL0     C14982   6.591  10.769   9.184  0.1177  0.3273  0.2809
  834MOL0     C14983   6.659  10.534   9.274 -0.9599  0.3953  0.9020
  834MOL0     C14984   6.805  10.556   9.309 -0.0857  0.8785 -0.5524
  834MOL0     O14985   6.876  10.457   9.362 -0.1023  0.3760 -0.4206
  834MOL0     C14986   7.007  10.477   9.384 -0.2672 -0.7601  0.1756
  834MOL0     C14987   7.088  10.416   9.289 -0.1690  0.3243 -0.0989
  834MOL0     C14988   7.224  10.449   9.292 -0.1682 -0.1159  0.5255
  834MOL0     C14989   7.273  10.538   9.387  0.2068  0.1642 -0.7126
  834MOL0     O14990   7.398  10.582   9.394 -0.1871  0.1128 -0.1738
  834MOL0     C14991   7.502  10.475   9.379 -0.0333 -0.1225  0.2507
  834MOL0     C14992   7.612  10.506   9.474  0.1223 -0.3137 -0.4670
  834MOL0     C14993   7.730  10.412   9.453  0.5031 -0.1241 -0.4985
  834MOL0     C14994   7.847  10.463   9.541  0.1560  0.5137 -0.3066
  834MOL0     C14995   7.978  10.381   9.519  0.2142 -0.0056  0.5429
  834MOL0     C14996   8.085  10.391   9.633  0.1458  0.1864 -0.3020
  834MOL0     C14997   8.207  10.321   9.592 -0.6605  0.3853  0.6988
  834MOL0     C14998   8.336  10.336   9.674 -0.0857 -0.4271 -0.9214
  834MOL0    Cl14999   8.449  10.206   9.617 -0.1885  0.0264 -0.1685
  834MOL0     C15000   7.187  10.597   9.487 -0.2127 -1.1533  0.8959
  834MOL0     C15001   7.049  10.569   9.481  0.7000 -0.6140  0.8451
  834MOL0     O15002   6.847  10.666   9.273 -0.2725 -0.3848 -0.1481
  834MOL0     C15003   6.618  10.406   9.295  0.6886  0.4116 -0.2814
  834MOL0     C15004   6.489  10.374   9.301  0.5442  0.8094  0.0137
  834MOL0     N15005   5.562  10.484   9.353  0.6876  0.4233 -0.4755
  834MOL0     N15006   5.448  10.543   9.387 -0.3827 -0.3328  0.2855
  834MOL0     C15007   5.130  11.286   8.833 -0.3114  0.2383 -0.9645
  834MOL0     C15008   5.016  11.246   8.760  0.3297  0.2271  0.5962
  834MOL0     C15009   4.568  11.112   8.690  0.1054 -0.4657 -0.7825
  834MOL0     C15010   4.591  11.142   8.556  0.3818  0.3461  0.5385
  834MOL0     C15011   4.504  11.112   8.448 -0.0672 -0.3465  0.1158
  834MOL0     C15012   4.382  11.051   8.480  0.2450 -0.7755  0.0412
  834MOL0     O15013   4.298  11.016   8.373 -0.2912  0.3507 -0.2320
  834MOL0     C15014   4.292  11.105   8.265  0.7851  0.7090  0.5290
  834MOL0     C15015   4.251  11.242   8.313  0.3056  0.5328 -0.7442
  834MOL0     C15016   4.315  11.370   8.255  0.0615  0.8462 -1.0956
  834MOL0     C15017   4.232  11.493   8.287  0.4050 -0.2956  0.7671
  834MOL0     C15018   4.095  11.494   8.230  0.1070 -0.4260 -1.0788
  834MOL0     C15019   3.984  11.502   8.183 -0.0138 -0.1983 -0.1714
  834MOL0     C15020   4.360  11.010   8.610 -0.3192  0.1032 -0.0468
  834MOL0     C15021   4.446  11.045   8.715  0.2321  0.2816  0.5817
  834MOL0     C15022   4.395  10.995   8.853 -0.5636  0.1897  0.8488
  834MOL0     H15023   4.773  11.336   8.975  0.5476  0.9341 -0.4373
  834MOL0     H15024   4.970  11.412   9.098  0.4472  2.9486 -1.2248
  834MOL0     H15025   5.159  11.534   9.119 -1.4728 -0.5242 -4.4004
  834MOL0     H15026   5.333  11.541   9.118 -2.1499  1.8105 -0.7073
  834MOL0     H15027   5.270  11.458   9.352 -1.0682 -0.5984  2.5002
  834MOL0     H15028   5.151  11.353   9.285  0.0356 -0.0914 -0.7679
  834MOL0     H15029   5.339  11.205   9.186  0.7215 -1.7516  2.1923
  834MOL0     H15030   5.456  11.326   9.239 -1.3213  3.0317  0.5504
  834MOL0     H15031   5.395  11.277   9.473  0.5234  0.1790 -1.2895
  834MOL0     H15032   5.264  11.162   9.420 -1.2948  1.8581  0.5883
  834MOL0     H15033   5.570  11.145   9.386 -0.2435  1.6482  0.4955
  834MOL0     H15034   5.456  11.046   9.289 -0.9748  0.4095 -0.6478
  834MOL0     H15035   5.586  10.952   9.497 -0.3181  1.9418  2.5509
  834MOL0     H15036   5.472  11.045   9.593 -2.5405 -0.1582 -0.3202
  834MOL0     H15037   5.277  10.931   9.498 -0.5693  0.1632 -1.3550
  834MOL0     H15038   5.374  10.821   9.594  0.8367  0.1849 -0.7028
  834MOL0     H15039   5.270  10.744   9.371  0.5765 -0.7324 -2.9818
  834MOL0     H15040   5.372  10.843   9.287 -1.5378  0.8434  0.4788
  834MOL0     H15041   5.652  10.797   9.301  0.5441 -0.3691 -1.7304
  834MOL0     H15042   5.813  10.613   9.188  2.5050 -0.3319  0.3455
  834MOL0     H15043   5.778  10.436   9.214  2.5470  1.1138 -1.1658
  834MOL0     H15044   5.939  10.643   9.367 -1.1877  0.1454  2.7280
  834MOL0     H15045   5.886  10.499   9.449 -2.6476  2.0932 -0.3067
  834MOL0     H15046   6.016  10.352   9.310 -0.4650  0.5497  0.7988
  834MOL0     H15047   6.008  10.473   9.181  1.7849  0.0867  0.3640
  834MOL0     H15048   6.193  10.597   9.290  1.1753 -1.2457 -2.5039
  834MOL0     H15049   6.168  10.494   9.438 -1.8100  0.1944  0.1981
  834MOL0     H15050   6.361  10.643   9.158 -1.1694 -1.2268  1.0995
  834MOL0     H15051   6.680  10.778   9.121  1.0754  0.1812  1.5808
  834MOL0     H15052   6.602  10.824   9.278  0.7547  1.7204 -0.5739
  834MOL0     H15053   6.510  10.821   9.133  0.7304 -0.1143 -1.2188
  834MOL0     H15054   7.047  10.343   9.221 -1.4966 -0.5051  1.5225
  834MOL0     H15055   7.285  10.413   9.210 -2.2687 -3.0077  0.0694
  834MOL0     H15056   7.471  10.377   9.418 -0.2938 -0.0284  0.2875
  834MOL0     H15057   7.550  10.476   9.281  0.5543  1.0868  0.5370
  834MOL0     H15058   7.646  10.605   9.444 -1.2049  1.1387  2.3887
  834MOL0     H15059   7.578  10.511   9.578 -2.2612 -1.3163 -1.1332
  834MOL0     H15060   7.767  10.418   9.350  1.5055 -2.3109 -0.3281
  834MOL0     H15061   7.706  10.306   9.469  2.3143 -0.3962  0.7818
  834MOL0     H15062   7.813  10.444   9.643  1.6219  1.6625  0.4252
  834MOL0     H15063   7.874  10.568   9.525  3.0678  0.0117  0.8614
  834MOL0     H15064   7.950  10.276   9.510 -1.0633  0.4406 -1.5918
  834MOL0     H15065   8.012  10.416   9.421 -0.8976  0.7417  0.4028
  834MOL0     H15066   8.043  10.335   9.717  0.6113 -0.5425 -0.5470
  834MOL0     H15067   8.105  10.493   9.665  0.6080  0.6219 -1.8859
  834MOL0     H15068   8.231  10.341   9.487  1.7650  3.9483  1.7516
  834MOL0     H15069   8.181  10.216   9.607  2.7948 -0.6494  0.3246
  834MOL0     H15070   8.319  10.326   9.782 -0.4295  0.9064 -0.8322
  834MOL0     H15071   8.379  10.436   9.667 -1.3866  0.4943  2.3395
  834MOL0     H15072   7.242  10.659   9.558  0.8739  0.0651 -0.9244
  834MOL0     H15073   6.974  10.604   9.550 -0.1838 -1.4527  0.3493
  834MOL0     H15074   6.688  10.330   9.329  2.7674  1.4421 -2.0209
  834MOL0     H15075   6.453  10.275   9.330  1.7081 -0.2132 -1.7998
  834MOL0     H15076   5.229  11.279   8.789  0.5077  0.6053  0.7588
  834MOL0     H15077   5.033  11.204   8.661 -0.6446  1.1282  0.0211
  834MOL0     H15078   4.683  11.188   8.520 -1.1297  1.8546 -1.6530
  834MOL0     H15079   4.523  11.145   8.347 -0.9681  2.7766  0.8480
  834MOL0     H15080   4.385  11.107   8.208 -0.3369 -0.0979 -1.4278
  834MOL0     H15081   4.224  11.076   8.184  0.1275  1.2744  0.8641
  834MOL0     H15082   4.251  11.252   8.422 -0.0636  1.2618 -0.8038
  834MOL0     H15083   4.146  11.244   8.284  0.2538 -1.0840 -0.7643
  834MOL0     H15084   4.405  11.379   8.317 -0.4511 -1.7860  0.2258
  834MOL0     H15085   4.344  11.355   8.151  2.6548 -3.5105 -0.0045
  834MOL0     H15086   4.282  11.587   8.262  0.8115  0.3907  3.8696
  834MOL0     H15087   4.226  11.499   8.396  2.0955 -0.1857  0.8801
  834MOL0     H15088   3.891  11.508   8.131 -0.9191 -2.4603  1.0541
  834MOL0     H15089   4.270  10.949   8.620 -0.8478  0.4259 -2.3980
  834MOL0     H15090   4.300  10.943   8.838  0.4533 -1.6696  0.6677
  834MOL0     H15091   4.462  10.927   8.905 -0.3187  0.7439  1.2681
  834MOL0     H15092   4.370  11.082   8.915  0.9770  0.7233  0.7536
  835MOL0     O15093   3.660   0.725   8.267 -0.0435 -0.4565 -0.5172
  835MOL0     C15094   3.664   0.608   8.285 -0.3250  0.1706  0.5719
  835MOL0     O15095   3.758   0.522   8.240 -1.0566  0.0416 -0.0952
  835MOL0     C15096   3.864   0.563   8.159  0.1691  0.3346  0.6011
  835MOL0     C15097   3.993   0.522   8.184 -0.1765  0.8866 -0.0586
  835MOL0     C15098   4.097   0.540   8.094  0.7079 -0.0301 -0.1467
  835MOL0     C15099   4.066   0.586   7.962 -0.0461 -0.6685 -0.1543
  835MOL0     O15100   4.158   0.594   7.856  0.7036  0.0722  0.4912
  835MOL0     C15101   4.297   0.574   7.867 -0.2172 -0.0681  0.6978
  835MOL0     C15102   4.351   0.562   7.736 -0.0335  0.1030  0.4981
  835MOL0     C15103   4.354   0.694   7.658  0.2175  0.8978  1.1391
  835MOL0     C15104   4.385   0.657   7.508  0.2574  0.0415 -0.4791
  835MOL0     C15105   4.419   0.787   7.419 -0.9596  0.5983  0.1016
  835MOL0     C15106   4.447   0.739   7.286  0.0219 -0.0985  0.4750
  835MOL0     C15107   4.460   0.856   7.185 -0.3998  0.6564 -0.4611
  835MOL0     C15108   4.490   0.805   7.035 -0.1183 -0.5668 -1.1860
  835MOL0     N15109   4.460   0.915   6.942  0.3392  0.3903  0.5018
  835MOL0     C15110   4.352   1.008   6.946 -0.1389  0.3640 -0.3245
  835MOL0     C15111   4.397   1.108   6.869  0.3182  0.3421  0.3091
  835MOL0     C15112   4.329   1.241   6.854 -0.4383  0.0181  0.0117
  835MOL0     C15113   4.397   1.355   6.929 -0.6801 -0.4662 -0.6632
  835MOL0     C15114   4.415   1.324   7.087 -0.4512 -0.7053  0.7982
  835MOL0     C15115   4.455   1.456   7.152 -0.1925 -0.2720 -0.4667
  835MOL0     O15116   4.486   1.432   7.285 -0.0000  0.3913  1.0386
  835MOL0     C15117   4.585   1.507   7.348  0.6621 -0.1064 -0.2930
  835MOL0     C15118   4.621   1.448   7.470  1.2643 -1.5335 -1.0719
  835MOL0     C15119   4.733   1.494   7.547  1.0577  0.1597 -0.1700
  835MOL0     C15120   4.749   1.441   7.691 -0.4406  0.1681  0.2117
  835MOL0     C15121   4.794   1.621   7.503  0.2166 -0.2983 -0.1558
  835MOL0     C15122   4.893   1.696   7.586  0.2259  0.0283 -0.3541
  835MOL0     O15123   4.898   1.837   7.570  0.5366  0.2550 -0.5507
  835MOL0     C15124   5.001   1.902   7.645  0.8708 -0.2320 -0.3211
  835MOL0     C15125   5.009   1.911   7.783 -0.0308  0.5186  1.2447
  835MOL0     C15126   5.107   1.989   7.846 -0.1785  0.0085 -0.7912
  835MOL0     C15127   5.192   2.068   7.776 -0.0598 -0.1170  0.1992
  835MOL0     O15128   5.270   2.159   7.846  0.0104  0.4342  1.2168
  835MOL0     C15129   5.377   2.102   7.911 -0.9634 -0.2218  0.2918
  835MOL0     C15130   5.480   2.214   7.943  0.7043  0.2696 -0.0489
  835MOL0     C15131   5.614   2.213   7.871 -0.4542  0.7690 -0.8516
  835MOL0     C15132   5.709   2.316   7.925  0.8612  0.6470 -0.3104
  835MOL0     C15133   5.848   2.304   7.877  0.3798  0.0591  0.1315
  835MOL0     C15134   5.919   2.419   7.957 -0.4811  1.3066 -1.1181
  835MOL0     C15135   6.065   2.402   7.947 -0.7251  0.1648  0.0806
  835MOL0     C15136   6.120   2.439   7.803  0.3854 -0.5369 -0.6281
  835MOL0    Cl15137   6.304   2.429   7.800  0.5666  0.3192  0.0764
  835MOL0     C15138   5.189   2.049   7.638  0.0732 -0.4440  0.0678
  835MOL0     C15139   5.101   1.965   7.570 -0.5962 -0.4988  0.6242
  835MOL0     O15140   4.965   1.629   7.666  1.0036 -0.4148 -0.4097
  835MOL0     C15141   4.759   1.679   7.381 -0.6487 -0.8298  1.0775
  835MOL0     C15142   4.650   1.627   7.307 -0.5458 -0.0689 -0.2032
  835MOL0     N15143   4.514   1.078   6.809  0.7096 -0.7604 -0.7644
  835MOL0     N15144   4.554   0.964   6.852 -0.2391  0.1280  0.1679
  835MOL0     C15145   3.939   0.638   7.939 -1.1446 -0.6615 -0.1332
  835MOL0     C15146   3.841   0.626   8.040  0.3333 -0.0352 -0.4465
  835MOL0     C15147   3.559   0.558   8.371  0.2957 -0.8669 -0.1709
  835MOL0     C15148   3.583   0.426   8.427  0.8821 -0.5134 -0.4776
  835MOL0     C15149   3.474   0.356   8.498  1.0569 -0.7395 -0.3305
  835MOL0     C15150   3.357   0.421   8.526 -0.4982 -0.9474 -0.4076
  835MOL0     O15151   3.260   0.381   8.611  0.1498 -0.7806  0.6777
  835MOL0     C15152   3.267   0.261   8.679  0.0551  0.8596 -0.3926
  835MOL0     C15153   3.137   0.235   8.760  0.7670 -0.0273  0.1195
  835MOL0     C15154   3.149   0.105   8.840  0.3664  0.7706 -1.0077
  835MOL0     C15155   3.007   0.064   8.897 -0.6811  0.0439 -0.0082
  835MOL0     C15156   2.975  -0.079   8.922 -0.4367  0.0714 -0.3025
  835MOL0     C15157   2.948  -0.199   8.928 -0.7693  0.2253  0.2830
  835MOL0     C15158   3.331   0.546   8.467 -0.1502  0.3196 -0.0488
  835MOL0     C15159   3.428   0.614   8.392  0.6133 -0.6892  0.8699
  835MOL0     C15160   3.383   0.753   8.341  0.7720  0.2293  0.1470
  835MOL0     H15161   4.013   0.462   8.272  1.0934  1.5793  0.1460
  835MOL0     H15162   4.195   0.503   8.124 -0.4726 -4.2897 -0.7813
  835MOL0     H15163   4.323   0.478   7.914  0.7454  0.5351  1.4546
  835MOL0     H15164   4.354   0.655   7.914 -1.8446  1.8964 -0.5545
  835MOL0     H15165   4.453   0.524   7.738  1.0610  2.8052  0.0711
  835MOL0     H15166   4.283   0.495   7.682 -0.2649 -0.2115  1.1673
  835MOL0     H15167   4.259   0.747   7.662 -0.0721  0.4114  0.7532
  835MOL0     H15168   4.434   0.759   7.697  0.1065  3.0150 -1.8589
  835MOL0     H15169   4.471   0.589   7.508  1.5530  1.5792  0.9477
  835MOL0     H15170   4.298   0.608   7.465 -0.4315  0.8672 -0.0454
  835MOL0     H15171   4.509   0.832   7.462 -1.6326  1.0487  1.0942
  835MOL0     H15172   4.329   0.849   7.428 -2.2950 -1.4375  1.9130
  835MOL0     H15173   4.537   0.677   7.279 -0.7445 -1.1501 -0.5321
  835MOL0     H15174   4.362   0.681   7.249  0.2298 -0.4761  0.5874
  835MOL0     H15175   4.536   0.928   7.218 -1.6212  0.9919  1.7828
  835MOL0     H15176   4.360   0.900   7.190 -1.2135 -1.0278 -1.1595
  835MOL0     H15177   4.595   0.777   7.041  0.5060  1.8315  1.5756
  835MOL0     H15178   4.434   0.716   7.006 -1.6634  0.2281 -0.7715
  835MOL0     H15179   4.271   1.004   7.018  1.1934 -0.0676  1.2049
  835MOL0     H15180   4.232   1.226   6.903 -0.2204 -1.7131 -0.0322
  835MOL0     H15181   4.329   1.264   6.747  2.8801 -3.5618 -0.9604
  835MOL0     H15182   4.500   1.361   6.891 -0.5080 -0.8227 -0.2653
  835MOL0     H15183   4.332   1.440   6.912  1.0848  0.5727 -2.6710
  835MOL0     H15184   4.324   1.283   7.131 -0.2736 -1.7856  0.2041
  835MOL0     H15185   4.500   1.255   7.099  0.8385  0.1639 -2.4410
  835MOL0     H15186   4.538   1.504   7.101  2.2243  0.0952  3.4318
  835MOL0     H15187   4.366   1.520   7.146  0.9519  1.2819 -1.8991
  835MOL0     H15188   4.559   1.362   7.495  0.6446 -1.1901 -1.4104
  835MOL0     H15189   4.846   1.399   7.717 -0.2407  0.3660 -0.1964
  835MOL0     H15190   4.672   1.365   7.708  0.8256 -1.6900 -1.8318
  835MOL0     H15191   4.719   1.519   7.762  1.3447 -0.3553  1.6062
  835MOL0     H15192   4.944   1.847   7.842 -0.4252  0.0504  0.3274
  835MOL0     H15193   5.115   1.997   7.954  0.7545 -0.0381 -0.8427
  835MOL0     H15194   5.341   2.056   8.003 -0.6574 -2.1635 -0.5158
  835MOL0     H15195   5.429   2.027   7.850 -2.4575 -1.5597  0.6129
  835MOL0     H15196   5.435   2.304   7.900 -2.8628 -1.8189 -1.0307
  835MOL0     H15197   5.491   2.233   8.050  0.7504  0.9766 -0.1714
  835MOL0     H15198   5.605   2.218   7.762 -0.9102 -1.9532 -0.9958
  835MOL0     H15199   5.654   2.116   7.900 -0.7701  0.9734  0.3340
  835MOL0     H15200   5.706   2.314   8.035 -0.4571  1.2764 -0.3110
  835MOL0     H15201   5.668   2.411   7.891  1.2417  1.5490  1.5854
  835MOL0     H15202   5.881   2.202   7.899 -2.8343 -0.6859  2.1461
  835MOL0     H15203   5.858   2.313   7.768  2.0917  2.2373  0.3990
  835MOL0     H15204   5.883   2.419   8.060 -1.4336 -0.5500 -1.3886
  835MOL0     H15205   5.889   2.514   7.911 -0.1815  1.5969 -0.7147
  835MOL0     H15206   6.084   2.296   7.961 -3.2108 -0.5773 -1.4209
  835MOL0     H15207   6.094   2.466   8.031 -3.1276 -0.0204  1.1438
  835MOL0     H15208   6.091   2.542   7.780 -2.1358 -1.2452 -0.8739
  835MOL0     H15209   6.065   2.379   7.730 -1.5696  0.2897  0.1083
  835MOL0     H15210   5.263   2.109   7.584 -0.1836 -1.4578 -1.4760
  835MOL0     H15211   5.107   1.960   7.462 -0.7697 -0.8011  0.6250
  835MOL0     H15212   4.814   1.761   7.335 -0.1155 -1.5282  0.4418
  835MOL0     H15213   4.627   1.664   7.208 -0.1333 -0.0618 -0.3011
  835MOL0     H15214   3.908   0.688   7.848 -0.7835  1.5536  0.8671
  835MOL0     H15215   3.746   0.665   8.004 -0.2859 -0.4431  0.6887
  835MOL0     H15216   3.665   0.360   8.401 -0.8894 -2.4308 -1.5772
  835MOL0     H15217   3.487   0.256   8.538 -0.6699  0.5656  4.1048
  835MOL0     H15218   3.281   0.172   8.616  1.3255 -2.5706  4.2448
  835MOL0     H15219   3.350   0.258   8.750 -1.9474  0.8798  2.1028
  835MOL0     H15220   3.057   0.219   8.687  3.6418 -2.4422 -2.7840
  835MOL0     H15221   3.112   0.319   8.826 -2.5415  0.2487 -1.2878
  835MOL0     H15222   3.172   0.029   8.764 -0.2780  1.4384 -1.8955
  835MOL0     H15223   3.224   0.108   8.919  0.2269  0.2920 -0.8491
  835MOL0     H15224   2.931   0.110   8.833 -1.6958  2.7120  2.8817
  835MOL0     H15225   3.000   0.116   8.993  1.7662  0.6762 -0.1015
  835MOL0     H15226   2.925  -0.304   8.925 -0.7686  0.2284  0.1755
  835MOL0     H15227   3.233   0.590   8.483 -0.0511  0.1079  1.2158
  835MOL0     H15228   3.421   0.839   8.396 -1.2367  0.4670  1.2824
  835MOL0     H15229   3.406   0.768   8.235  2.0107  2.3048  0.6581
  835MOL0     H15230   3.273   0.758   8.336  0.7948  0.1734 -0.4924
  836MOL0     O15231   9.766   1.391   4.536 -0.2486  0.0544 -0.2524
  836MOL0     C15232   9.852   1.334   4.602  0.0394 -0.5244 -0.2371
  836MOL0     O15233   9.829   1.221   4.693 -0.0422  0.1434  0.3090
  836MOL0     C15234   9.725   1.133   4.680  0.4830 -0.3403 -0.5431
  836MOL0     C15235   9.670   1.093   4.561  0.4618 -0.1717  0.7187
  836MOL0     C15236   9.553   1.019   4.564  0.3041 -0.4783  0.3413
  836MOL0     C15237   9.498   0.973   4.689 -0.6983 -0.4578  0.1950
  836MOL0     O15238   9.397   0.883   4.673 -0.4908  0.1313  0.6091
  836MOL0     C15239   9.340   0.829   4.791  0.5425  0.7191  0.2415
  836MOL0     C15240   9.229   0.725   4.758 -0.6644  0.4061 -0.3197
  836MOL0     C15241   9.263   0.623   4.650 -0.0412 -0.4487 -0.0658
  836MOL0     C15242   9.143   0.531   4.636  0.7585  0.0820  0.1375
  836MOL0     C15243   9.180   0.389   4.610  0.6249  0.3987 -0.6813
  836MOL0     C15244   9.244   0.375   4.480  0.0980 -0.2011 -0.3387
  836MOL0     C15245   9.259   0.228   4.441  0.6915  0.6371  0.5283
  836MOL0     C15246   9.304   0.192   4.301  0.1718  0.3833  0.4953
  836MOL0     N15247   9.449   0.220   4.283 -0.9209  0.7885 -1.1070
  836MOL0     C15248   9.552   0.178   4.369  0.7914 -0.2509  0.3327
  836MOL0     C15249   9.670   0.226   4.326  0.9647 -0.2000 -0.1654
  836MOL0     C15250   9.799   0.218   4.392 -0.0007 -0.0085  0.6095
  836MOL0     C15251   9.862   0.083   4.364 -0.1972  0.4003 -0.1538
  836MOL0     C15252  10.012   0.077   4.373 -0.3904  0.2248  0.2124
  836MOL0     C15253  10.075   0.105   4.513 -0.2908 -0.1066  1.1306
  836MOL0     O15254  10.043   0.237   4.550 -0.5909 -0.2924 -0.1344
  836MOL0     C15255  10.126   0.297   4.645  0.2609 -0.5833 -0.0388
  836MOL0     C15256  10.224   0.234   4.733  0.0964  0.6999 -0.4004
  836MOL0     C15257  10.297   0.311   4.826  0.0177 -0.1542 -0.7659
  836MOL0     C15258  10.392   0.253   4.924  0.4098  0.7381 -0.0504
  836MOL0     C15259  10.274   0.446   4.842 -0.4012  0.0692  0.3118
  836MOL0     C15260  10.318   0.537   4.946  0.6022 -0.2437 -0.8545
  836MOL0     O15261  10.337   0.671   4.921  0.2435  0.1765  0.4325
  836MOL0     C15262  10.413   0.748   5.005  0.6872  0.0118 -0.0437
  836MOL0     C15263  10.392   0.762   5.145  0.0554  0.3430 -0.1797
  836MOL0     C15264  10.478   0.832   5.226 -0.2831 -0.5421  0.3847
  836MOL0     C15265  10.590   0.895   5.169 -0.6190 -0.6475  0.2374
  836MOL0     O15266  10.665   0.958   5.264  0.2558 -0.1026 -0.1621
  836MOL0     C15267  10.802   0.989   5.224 -0.0664  0.5349 -0.1537
  836MOL0     C15268  10.868   1.023   5.358 -0.1379  0.4484  0.6881
  836MOL0     C15269  11.012   1.045   5.341  0.0659 -0.3949 -0.1808
  836MOL0     C15270  11.082   1.086   5.476 -0.7537 -0.5353 -0.1967
  836MOL0     C15271  11.235   1.107   5.457  0.4339 -0.4803 -0.5032
  836MOL0     C15272  11.280   1.166   5.596  0.0066 -0.2912  0.8881
  836MOL0     C15273  11.424   1.218   5.603 -0.6469  0.5571  0.2752
  836MOL0     C15274  11.526   1.111   5.540  0.5194  0.2216 -0.1769
  836MOL0    Cl15275  11.695   1.161   5.571  0.2917  0.3495  0.0996
  836MOL0     C15276  10.613   0.887   5.031  0.2247 -0.0040  0.1968
  836MOL0     C15277  10.530   0.815   4.954  0.5394  0.5515 -0.1083
  836MOL0     O15278  10.336   0.488   5.059 -0.2945 -0.2385 -0.4032
  836MOL0     C15279  10.183   0.500   4.746  0.5744  0.0944 -0.7555
  836MOL0     C15280  10.111   0.435   4.647  0.2694 -1.1063  0.2063
  836MOL0     N15281   9.641   0.287   4.205 -0.3714 -0.6029 -0.1564
  836MOL0     N15282   9.516   0.275   4.176  0.0519 -0.4113  0.4519
  836MOL0     C15283   9.558   1.013   4.808  0.2445 -0.3073  0.0454
  836MOL0     C15284   9.670   1.092   4.803  0.8152  0.1169 -0.1412
  836MOL0     C15285   9.993   1.372   4.588 -0.0480  1.0834  0.5750
  836MOL0     C15286  10.089   1.302   4.674  0.1613 -0.0454 -0.1493
  836MOL0     C15287  10.231   1.336   4.664  0.3613  0.0665  0.0563
  836MOL0     C15288  10.280   1.430   4.574  0.3686 -0.0090 -0.3172
  836MOL0     O15289  10.416   1.446   4.555  1.1303  0.0425  0.9723
  836MOL0     C15290  10.478   1.582   4.522 -0.4492  1.3413  0.1306
  836MOL0     C15291  10.627   1.561   4.503  0.3610  0.3209 -0.0826
  836MOL0     C15292  10.711   1.589   4.628  0.3688  0.5348 -0.4318
  836MOL0     C15293  10.864   1.563   4.619 -0.3745 -0.1493 -0.5781
  836MOL0     C15294  10.913   1.636   4.501  0.0501  0.7174  0.0279
  836MOL0     C15295  10.950   1.675   4.391  0.0853 -0.2883 -0.2739
  836MOL0     C15296  10.183   1.495   4.498  0.3998 -0.7038 -0.2864
  836MOL0     C15297  10.046   1.478   4.505 -0.5395 -0.4922 -0.7058
  836MOL0     C15298   9.959   1.567   4.423  0.0494  0.4800 -0.3098
  836MOL0     H15299   9.721   1.142   4.479 -1.2136 -0.3337 -0.4794
  836MOL0     H15300   9.530   0.985   4.464  1.7600 -0.4452 -0.0234
  836MOL0     H15301   9.299   0.915   4.844  2.1173  2.4786 -1.2614
  836MOL0     H15302   9.420   0.780   4.848 -0.0068 -0.8789 -0.2834
  836MOL0     H15303   9.193   0.682   4.851  1.5584 -0.2333  0.3118
  836MOL0     H15304   9.148   0.784   4.714  0.4763  2.0929 -0.2703
  836MOL0     H15305   9.286   0.679   4.559  0.5941 -0.0797  0.3175
  836MOL0     H15306   9.355   0.573   4.683  0.9579  0.6822 -1.0559
  836MOL0     H15307   9.078   0.530   4.724  0.6352 -0.0247  0.0486
  836MOL0     H15308   9.067   0.567   4.566 -1.3629 -1.5266  1.4679
  836MOL0     H15309   9.087   0.331   4.613 -0.7776  2.4316 -2.1319
  836MOL0     H15310   9.242   0.349   4.691 -1.2771 -1.3457  0.0087
  836MOL0     H15311   9.192   0.437   4.406 -1.4883 -0.9990  0.0608
  836MOL0     H15312   9.347   0.411   4.488 -0.8248  2.4218  0.7069
  836MOL0     H15313   9.157   0.192   4.456  0.2900  1.2412 -0.5915
  836MOL0     H15314   9.328   0.183   4.514  0.6820  0.6395  0.5385
  836MOL0     H15315   9.277   0.088   4.281 -1.7480  1.2648 -1.9668
  836MOL0     H15316   9.262   0.262   4.229 -1.0918  0.0302  0.8589
  836MOL0     H15317   9.536   0.118   4.459  1.0538 -0.1581  0.4426
  836MOL0     H15318   9.796   0.232   4.501  2.1587  1.8469  0.5026
  836MOL0     H15319   9.849   0.309   4.357 -0.9240  1.1380  2.1037
  836MOL0     H15320   9.831  -0.002   4.426  1.9316 -1.0655 -0.9736
  836MOL0     H15321   9.842   0.042   4.264  2.3206 -1.1936 -0.0929
  836MOL0     H15322  10.042  -0.025   4.344 -1.2486 -0.1627  0.6451
  836MOL0     H15323  10.058   0.140   4.296 -1.4549 -0.9072 -1.4266
  836MOL0     H15324  10.032   0.034   4.583 -1.4609  2.0104  2.6896
  836MOL0     H15325  10.184   0.111   4.505 -0.2728  0.1061  1.5161
  836MOL0     H15326  10.242   0.127   4.727  0.9386  0.6573  2.0704
  836MOL0     H15327  10.434   0.165   4.874 -1.3902 -0.2594  0.1436
  836MOL0     H15328  10.355   0.229   5.024  2.7077 -0.1352  0.6616
  836MOL0     H15329  10.468   0.329   4.944  0.3186  1.3068 -1.7237
  836MOL0     H15330  10.304   0.719   5.191 -1.3540  0.6445 -2.4360
  836MOL0     H15331  10.466   0.826   5.334  1.9180 -1.2930  0.6435
  836MOL0     H15332  10.853   0.899   5.190 -0.0791 -0.6561  2.6996
  836MOL0     H15333  10.804   1.075   5.155  2.7921  1.3943  0.8595
  836MOL0     H15334  10.830   1.118   5.396  0.1291  0.7035  0.3196
  836MOL0     H15335  10.839   0.940   5.424 -1.0645 -1.3522 -1.8518
  836MOL0     H15336  11.020   1.122   5.264 -2.5414  0.0748 -0.0941
  836MOL0     H15337  11.062   0.956   5.302 -2.3201 -1.2590 -1.5153
  836MOL0     H15338  11.072   1.008   5.552 -0.4112  0.4756  0.9147
  836MOL0     H15339  11.044   1.182   5.513 -0.4023 -0.2035 -0.6817
  836MOL0     H15340  11.284   1.012   5.432 -0.4167 -1.6829  2.0125
  836MOL0     H15341  11.257   1.186   5.386  0.0504  0.5398  0.4729
  836MOL0     H15342  11.273   1.101   5.683  2.0102 -0.6941  0.8061
  836MOL0     H15343  11.215   1.252   5.614  1.1007  1.5637 -2.9210
  836MOL0     H15344  11.458   1.234   5.706  0.6536  1.2358 -0.2262
  836MOL0     H15345  11.432   1.313   5.549  0.0887 -0.5303 -1.6467
  836MOL0     H15346  11.517   1.098   5.432 -0.7525  0.8638 -0.1693
  836MOL0     H15347  11.508   1.012   5.584 -0.4336  0.3728 -0.2092
  836MOL0     H15348  10.701   0.931   4.985 -0.0888  0.8341  0.3795
  836MOL0     H15349  10.563   0.800   4.852 -0.1057 -1.1414 -0.1081
  836MOL0     H15350  10.155   0.604   4.736  0.0392 -0.0727 -0.9979
  836MOL0     H15351  10.048   0.489   4.577  1.7819  0.2101 -0.1886
  836MOL0     H15352   9.514   0.987   4.904  1.0522 -3.8537 -0.4094
  836MOL0     H15353   9.713   1.125   4.897  0.5869 -1.0970  0.4094
  836MOL0     H15354  10.064   1.236   4.756  0.5400  0.1125  0.0966
  836MOL0     H15355  10.295   1.278   4.729  1.3452  1.7465  0.6506
  836MOL0     H15356  10.435   1.623   4.430 -0.6487  1.4971  0.2922
  836MOL0     H15357  10.461   1.651   4.605  0.1671 -0.1454  1.5254
  836MOL0     H15358  10.663   1.624   4.421 -1.7034  0.3056 -1.0684
  836MOL0     H15359  10.640   1.457   4.473  2.1704  0.3543  0.4784
  836MOL0     H15360  10.701   1.694   4.656 -1.5516  0.6172 -1.2835
  836MOL0     H15361  10.671   1.524   4.706  1.7491  1.5266  1.1749
  836MOL0     H15362  10.910   1.464   4.627 -0.4737 -0.2836 -1.5557
  836MOL0     H15363  10.915   1.610   4.704  0.7655 -0.9063 -0.8230
  836MOL0     H15364  11.005   1.702   4.304  4.2749  1.5931  2.6410
  836MOL0     H15365  10.219   1.560   4.419  1.2680 -1.4337 -0.5073
  836MOL0     H15366   9.878   1.613   4.481 -1.2000 -3.0959  1.1087
  836MOL0     H15367  10.012   1.653   4.383  0.1536  0.3934 -0.3582
  836MOL0     H15368   9.928   1.512   4.333  2.9788  0.5025 -1.4295
  837MOL0     O15369   8.214   1.409   8.382  0.7882 -0.0763  0.3857
  837MOL0     C15370   8.251   1.296   8.336 -0.1297 -0.9176  0.2444
  837MOL0     O15371   8.188   1.227   8.232  0.0894 -0.2850 -1.2464
  837MOL0     C15372   8.062   1.275   8.184 -0.1652  0.0590 -0.0373
  837MOL0     C15373   7.971   1.344   8.256 -0.2493  0.6037 -0.6261
  837MOL0     C15374   7.841   1.375   8.204  0.2274 -1.0038 -0.1119
  837MOL0     C15375   7.817   1.358   8.064  0.7848 -0.2765  0.3256
  837MOL0     O15376   7.698   1.364   7.995  0.1640 -0.1300 -0.1506
  837MOL0     C15377   7.579   1.352   8.085 -0.3389 -0.9821 -0.5736
  837MOL0     C15378   7.452   1.355   7.992 -0.1613  0.1386  0.7568
  837MOL0     C15379   7.409   1.209   7.949 -0.3374 -1.1161 -0.1190
  837MOL0     C15380   7.328   1.201   7.819  0.6219 -0.7629 -0.6807
  837MOL0     C15381   7.309   1.048   7.774  1.0540  0.5990 -0.3511
  837MOL0     C15382   7.241   0.952   7.882 -0.6616  0.1437  0.9376
  837MOL0     C15383   7.223   0.809   7.841 -0.6316 -0.6273  0.1680
  837MOL0     C15384   7.358   0.745   7.800  0.5632  0.1476 -0.2841
  837MOL0     N15385   7.345   0.606   7.747 -0.1033 -0.2140 -0.1349
  837MOL0     C15386   7.284   0.561   7.634  0.0124 -0.1963  0.3808
  837MOL0     C15387   7.335   0.433   7.623 -0.5320 -0.0340  0.2918
  837MOL0     C15388   7.304   0.336   7.516 -0.3740 -0.2667 -0.5289
  837MOL0     C15389   7.403   0.225   7.491  0.1346 -0.6321  0.0142
  837MOL0     C15390   7.532   0.277   7.432  0.5078  0.1876 -0.0514
  837MOL0     C15391   7.594   0.168   7.350  0.3232  0.3250  0.0349
  837MOL0     O15392   7.611   0.042   7.420  0.4476  0.0404 -0.4102
  837MOL0     C15393   7.690   0.031   7.529 -0.6342  0.3681 -0.2755
  837MOL0     C15394   7.824   0.053   7.527  0.0258 -0.3375  0.1800
  837MOL0     C15395   7.911   0.026   7.635  0.2765  0.2916  0.0415
  837MOL0     C15396   8.055   0.055   7.617 -0.0806 -0.2917 -0.0601
  837MOL0     C15397   7.851  -0.018   7.758 -0.2924  0.4594  0.8813
  837MOL0     C15398   7.936  -0.050   7.878 -0.1718  0.2248 -0.7536
  837MOL0     O15399   7.874  -0.031   8.003 -0.2092 -0.2961 -0.7563
  837MOL0     C15400   7.947  -0.024   8.113  1.2305 -0.0318 -0.2370
  837MOL0     C15401   8.052   0.070   8.123  0.7444  0.5345 -0.4056
  837MOL0     C15402   8.103   0.086   8.252 -0.0810  0.1196  0.0119
  837MOL0     C15403   8.072   0.016   8.368 -0.8833 -0.0681 -0.5321
  837MOL0     O15404   8.156   0.037   8.485 -0.4539  0.4542  0.5597
  837MOL0     C15405   8.165  -0.073   8.579  0.2738  0.8408 -0.5817
  837MOL0     C15406   8.293  -0.059   8.667  0.6609 -0.3448 -0.8159
  837MOL0     C15407   8.423  -0.093   8.580  0.2173 -0.8472  0.1882
  837MOL0     C15408   8.473  -0.234   8.600  0.6287 -0.0851 -0.2183
  837MOL0     C15409   8.594  -0.273   8.511 -0.3567  0.1668  0.4239
  837MOL0     C15410   8.734  -0.213   8.549  0.6214 -0.4798  0.0628
  837MOL0     C15411   8.766  -0.276   8.685 -0.0134  0.2836  0.2900
  837MOL0     C15412   8.915  -0.275   8.706  0.0261 -0.5390 -0.5636
  837MOL0    Cl15413   8.969  -0.105   8.693 -0.0453 -0.1556  0.2540
  837MOL0     C15414   7.970  -0.080   8.354  1.1141 -0.4579 -0.5647
  837MOL0     C15415   7.901  -0.101   8.224  0.4666  0.5458  0.5027
  837MOL0     O15416   8.043  -0.107   7.863 -0.4389 -0.5694  0.1929
  837MOL0     C15417   7.711  -0.024   7.763  0.0798 -0.3089 -0.2403
  837MOL0     C15418   7.629  -0.005   7.649  0.4035  0.8416 -0.0769
  837MOL0     N15419   7.423   0.404   7.721  0.4063  0.2583 -0.2359
  837MOL0     N15420   7.423   0.508   7.797  0.3261  0.8916 -0.5652
  837MOL0     C15421   7.916   1.300   7.991 -0.2095  0.2221  0.3153
  837MOL0     C15422   8.033   1.257   8.045  0.0399 -0.2584  0.1584
  837MOL0     C15423   8.384   1.252   8.386 -0.1223  0.6575  0.0933
  837MOL0     C15424   8.492   1.341   8.407 -0.4453  0.1927  1.2670
  837MOL0     C15425   8.615   1.295   8.454  0.0996 -0.3354  0.1578
  837MOL0     C15426   8.635   1.165   8.499  0.6283  1.1258  0.4751
  837MOL0     O15427   8.745   1.122   8.557  0.3533 -0.1676  0.6424
  837MOL0     C15428   8.861   1.197   8.572 -0.4714  0.5725  0.3602
  837MOL0     C15429   8.971   1.099   8.626  0.1588  0.4722 -0.2925
  837MOL0     C15430   9.109   1.177   8.637  0.8990 -1.0547 -0.5700
  837MOL0     C15431   9.204   1.086   8.721  0.1759 -0.1605 -0.5084
  837MOL0     C15432   9.180   1.073   8.867 -0.3866  0.5092  0.0441
  837MOL0     C15433   9.161   1.065   8.990  0.3954 -0.4382  0.4905
  837MOL0     C15434   8.533   1.075   8.470  0.5008 -0.0230 -0.0930
  837MOL0     C15435   8.411   1.117   8.419 -0.7471 -0.0535  0.6358
  837MOL0     C15436   8.301   1.007   8.399  0.1177 -0.3696  0.0746
  837MOL0     H15437   7.993   1.364   8.360 -0.4499  0.1086 -0.4878
  837MOL0     H15438   7.767   1.415   8.273  0.4084 -1.6895  0.4921
  837MOL0     H15439   7.583   1.433   8.158  2.3081 -0.8046 -0.8030
  837MOL0     H15440   7.581   1.263   8.148  0.8171  1.0024  2.3997
  837MOL0     H15441   7.366   1.407   8.036 -1.0753 -0.9810  0.3485
  837MOL0     H15442   7.484   1.414   7.905  0.7414  0.0198  1.0008
  837MOL0     H15443   7.494   1.141   7.934  1.8373  0.7290  2.7051
  837MOL0     H15444   7.356   1.166   8.035  0.5562 -2.9807 -0.4558
  837MOL0     H15445   7.232   1.249   7.835  0.5487 -1.2210  0.3329
  837MOL0     H15446   7.380   1.257   7.740 -1.0007  1.6207 -0.1565
  837MOL0     H15447   7.411   1.009   7.765  1.1101 -0.9317  4.2789
  837MOL0     H15448   7.253   1.057   7.681  1.8298  2.4350 -0.6870
  837MOL0     H15449   7.310   0.943   7.966 -2.9599  0.0246  2.9194
  837MOL0     H15450   7.144   0.997   7.903 -1.4202  0.8354 -3.1393
  837MOL0     H15451   7.154   0.812   7.756  0.0463 -1.0559 -0.4158
  837MOL0     H15452   7.172   0.757   7.922  1.3913  1.9639  3.3670
  837MOL0     H15453   7.396   0.809   7.720 -1.6543  0.4220 -1.2044
  837MOL0     H15454   7.428   0.745   7.883  0.8811 -0.9324 -0.5344
  837MOL0     H15455   7.213   0.611   7.570  0.3788  1.2556  1.0835
  837MOL0     H15456   7.271   0.403   7.437 -1.2262  1.2117  1.0129
  837MOL0     H15457   7.207   0.289   7.537  0.7531 -2.6081 -0.1316
  837MOL0     H15458   7.415   0.161   7.579 -2.6020 -0.3788  0.6754
  837MOL0     H15459   7.350   0.157   7.423  0.3439 -2.6712  1.7555
  837MOL0     H15460   7.522   0.370   7.376 -0.4958  0.8112  1.1154
  837MOL0     H15461   7.610   0.296   7.507  0.0102  1.3471  0.1989
  837MOL0     H15462   7.536   0.162   7.258  1.3314 -0.7995 -0.5590
  837MOL0     H15463   7.688   0.204   7.306  0.3724 -0.0185 -0.1460
  837MOL0     H15464   7.871   0.103   7.443 -1.3732  0.3859 -0.2074
  837MOL0     H15465   8.099  -0.045   7.619 -0.0711 -0.2878 -0.1127
  837MOL0     H15466   8.112   0.116   7.687  0.9427 -2.5878  1.2303
  837MOL0     H15467   8.069   0.112   7.525 -0.6214  3.6368  2.0560
  837MOL0     H15468   8.087   0.114   8.030  1.0769 -0.9712 -1.0319
  837MOL0     H15469   8.173   0.169   8.260 -0.3590  0.2448  1.5995
  837MOL0     H15470   8.073  -0.069   8.638 -0.7505 -1.4950 -1.8765
  837MOL0     H15471   8.160  -0.174   8.535 -0.2047  1.4899 -2.0846
  837MOL0     H15472   8.295   0.039   8.715 -1.1335 -1.5914  2.1129
  837MOL0     H15473   8.288  -0.116   8.760 -1.0654  0.5829 -0.2889
  837MOL0     H15474   8.505  -0.027   8.607 -0.1556 -0.7635  1.1255
  837MOL0     H15475   8.397  -0.090   8.473 -1.9920 -0.7499  0.6885
  837MOL0     H15476   8.389  -0.298   8.571 -0.3608  0.4453  1.3193
  837MOL0     H15477   8.493  -0.251   8.706  3.3800 -0.1592 -0.6687
  837MOL0     H15478   8.592  -0.382   8.513 -0.4653  0.1517  3.0316
  837MOL0     H15479   8.570  -0.219   8.419 -1.2220  1.3405  1.3206
  837MOL0     H15480   8.728  -0.104   8.552  2.8828 -0.1511 -2.6903
  837MOL0     H15481   8.816  -0.232   8.479  0.5335  2.2354 -0.9188
  837MOL0     H15482   8.732  -0.380   8.689  0.7532 -0.0514 -1.0026
  837MOL0     H15483   8.715  -0.212   8.757 -1.3780  3.1952 -2.9368
  837MOL0     H15484   8.972  -0.325   8.627 -0.0090 -1.0436 -0.2682
  837MOL0     H15485   8.935  -0.328   8.799  1.3876 -0.8805 -1.0227
  837MOL0     H15486   7.951  -0.146   8.438  5.7976 -0.4659  0.7693
  837MOL0     H15487   7.841  -0.190   8.213  2.3311 -0.8819  1.2908
  837MOL0     H15488   7.657  -0.057   7.850 -0.9503 -1.3433 -1.2329
  837MOL0     H15489   7.522  -0.021   7.656  0.7903 -2.0822  0.2263
  837MOL0     H15490   7.909   1.296   7.883  5.1303  0.7161 -0.3053
  837MOL0     H15491   8.121   1.212   8.001  1.9944  2.2831  1.2347
  837MOL0     H15492   8.473   1.445   8.381  0.1562  0.0279  0.1082
  837MOL0     H15493   8.686   1.377   8.460 -1.6064  1.3420 -1.2790
  837MOL0     H15494   8.896   1.232   8.475 -2.5972 -1.6722 -1.3392
  837MOL0     H15495   8.848   1.282   8.639 -1.5716  1.5497 -1.0519
  837MOL0     H15496   9.001   1.014   8.564  1.7257  0.2911  0.6617
  837MOL0     H15497   8.934   1.055   8.719  1.4943 -1.0088 -0.4167
  837MOL0     H15498   9.141   1.178   8.533  1.6662  0.7555 -0.3414
  837MOL0     H15499   9.108   1.277   8.680  0.2177 -1.1798 -0.2823
  837MOL0     H15500   9.304   1.124   8.698  0.7385 -2.3244 -1.8642
  837MOL0     H15501   9.194   0.981   8.694  0.3855 -0.7656  1.6281
  837MOL0     H15502   9.155   1.068   9.097  2.1206  1.0322  0.5933
  837MOL0     H15503   8.555   0.970   8.487  3.8054  0.6553  0.5111
  837MOL0     H15504   8.260   1.002   8.297 -0.3027  0.2743  0.2053
  837MOL0     H15505   8.338   0.907   8.422 -1.8425 -1.0746  0.4182
  837MOL0     H15506   8.216   1.038   8.461  1.0102 -0.8983  1.6310
  838MOL0     O15507  10.990   3.358   3.865 -0.1600 -0.0102  0.9701
  838MOL0     C15508  10.945   3.269   3.936 -0.6784 -0.2056  0.4707
  838MOL0     O15509  10.981   3.252   4.067  0.1208 -0.6031  0.0010
  838MOL0     C15510  11.086   3.320   4.123 -0.1685  0.5092 -0.2569
  838MOL0     C15511  11.077   3.345   4.263 -0.4510  0.5536  0.2397
  838MOL0     C15512  11.191   3.400   4.327 -0.9309 -0.3938 -0.0925
  838MOL0     C15513  11.297   3.447   4.256  0.2565  0.8451 -0.3697
  838MOL0     O15514  11.406   3.507   4.318  0.1762  0.7931  0.4428
  838MOL0     C15515  11.482   3.428   4.405 -0.6886 -0.2793  0.0285
  838MOL0     C15516  11.632   3.465   4.401 -0.1827  0.1259  0.5371
  838MOL0     C15517  11.715   3.345   4.457 -0.2772  0.0673 -1.0280
  838MOL0     C15518  11.851   3.397   4.500 -0.1341  0.1204  0.2918
  838MOL0     C15519  11.944   3.284   4.536  0.1845  0.1455  0.6177
  838MOL0     C15520  12.081   3.331   4.592 -0.3278  0.5144 -0.6464
  838MOL0     C15521  12.185   3.218   4.602 -0.4095  0.8900  0.6865
  838MOL0     C15522  12.138   3.075   4.551 -0.8750 -0.2386 -0.2199
  838MOL0     N15523  12.246   2.978   4.578  0.2980  0.8195 -0.4716
  838MOL0     C15524  12.321   2.958   4.697 -0.5356 -0.9186  0.2900
  838MOL0     C15525  12.401   2.846   4.676 -0.1968  0.1761  0.2367
  838MOL0     C15526  12.497   2.794   4.775  0.4285  0.3498  1.1690
  838MOL0     C15527  12.429   2.695   4.862 -0.3345 -0.1715 -0.0828
  838MOL0     C15528  12.495   2.666   4.997 -0.3848 -0.3509 -0.7546
  838MOL0     C15529  12.631   2.598   4.981  0.9152 -0.5739 -0.1459
  838MOL0     O15530  12.688   2.551   5.106 -0.3063  0.3925 -0.3094
  838MOL0     C15531  12.816   2.507   5.106 -0.2770  0.9402  0.4978
  838MOL0     C15532  12.874   2.487   5.227 -0.0217 -0.5736 -0.5230
  838MOL0     C15533  13.006   2.452   5.242 -0.4900  0.9038  0.1786
  838MOL0     C15534  13.057   2.469   5.386  0.0439 -0.4182 -0.2877
  838MOL0     C15535  13.084   2.406   5.131 -0.2321  0.2583  0.0969
  838MOL0     C15536  13.221   2.359   5.146 -0.3684  0.1819  1.1961
  838MOL0     O15537  13.296   2.391   5.255  0.4649  0.9142 -0.5155
  838MOL0     C15538  13.430   2.347   5.269  0.9749  0.1258  0.0156
  838MOL0     C15539  13.512   2.308   5.162 -0.1822 -0.0174 -0.3979
  838MOL0     C15540  13.643   2.273   5.189  0.9917 -0.5870  0.9638
  838MOL0     C15541  13.690   2.274   5.317  0.2800 -0.0195  0.9805
  838MOL0     O15542  13.826   2.258   5.334  0.1205 -0.5291 -0.0544
  838MOL0     C15543  13.908   2.181   5.242 -0.1806  0.1122 -0.1288
  838MOL0     C15544  14.036   2.136   5.320  0.7745 -0.3123  0.1541
  838MOL0     C15545  14.157   2.232   5.319 -0.3090 -0.3034 -0.1499
  838MOL0     C15546  14.229   2.223   5.185 -0.0146  0.3988  0.5482
  838MOL0     C15547  14.365   2.293   5.175  0.1726  0.4505 -0.4536
  838MOL0     C15548  14.479   2.238   5.271 -0.4676 -0.2469 -0.7165
  838MOL0     C15549  14.613   2.307   5.253  0.6362  0.1937  0.9269
  838MOL0     C15550  14.706   2.251   5.357 -0.0529 -0.3565 -0.2966
  838MOL0    Cl15551  14.688   2.323   5.521  0.1981  0.2986  0.0562
  838MOL0     C15552  13.609   2.319   5.419 -0.5972  0.0309 -0.3128
  838MOL0     C15553  13.478   2.347   5.399  0.6194  0.3051  0.3291
  838MOL0     O15554  13.256   2.292   5.055  0.6418  0.6339  0.3395
  838MOL0     C15555  13.028   2.417   5.006 -0.2246 -0.3992 -0.6349
  838MOL0     C15556  12.897   2.480   4.993  0.2849 -0.3858 -0.0448
  838MOL0     N15557  12.380   2.813   4.538  0.0526 -0.0874 -0.0745
  838MOL0     N15558  12.284   2.879   4.497  0.0943  0.2893  0.7700
  838MOL0     C15559  11.302   3.427   4.116 -0.2959 -1.4532 -0.1374
  838MOL0     C15560  11.198   3.368   4.050 -0.8534  0.3495 -0.0178
  838MOL0     C15561  10.852   3.172   3.879 -0.1927  0.8876  0.8339
  838MOL0     C15562  10.785   3.088   3.963  0.6123 -0.4224  0.4161
  838MOL0     C15563  10.695   2.987   3.910 -0.3359 -0.2458  0.5597
  838MOL0     C15564  10.667   2.987   3.771  0.0760 -0.1210  0.2194
  838MOL0     O15565  10.573   2.904   3.707 -0.3664 -0.6871 -0.4168
  838MOL0     C15566  10.466   2.840   3.791  0.5133 -1.0262  0.2673
  838MOL0     C15567  10.383   2.747   3.707 -0.0148 -0.1726  0.7756
  838MOL0     C15568  10.297   2.804   3.595 -0.7265  0.7305  0.1251
  838MOL0     C15569  10.213   2.915   3.627  1.3034 -0.3229 -0.4487
  838MOL0     C15570  10.119   2.944   3.518  0.3916  0.4563  0.2572
  838MOL0     C15571  10.037   2.986   3.439  0.3012 -0.0038  0.1056
  838MOL0     C15572  10.752   3.063   3.685  0.7708 -0.3855 -0.5426
  838MOL0     C15573  10.849   3.148   3.737  1.1445  0.0610  0.2846
  838MOL0     C15574  10.917   3.221   3.621 -1.2329 -0.9230 -0.3788
  838MOL0     H15575  10.986   3.312   4.313 -0.7182 -1.5920 -1.5358
  838MOL0     H15576  11.195   3.409   4.435  1.3450 -1.4005 -0.0284
  838MOL0     H15577  11.471   3.323   4.376 -1.3845  0.8328 -4.4519
  838MOL0     H15578  11.442   3.456   4.503  3.5041 -0.7854  2.0627
  838MOL0     H15579  11.670   3.480   4.299 -0.8902  0.0758  0.2583
  838MOL0     H15580  11.641   3.554   4.464  0.1696 -0.1374  0.8578
  838MOL0     H15581  11.671   3.294   4.543  0.3927  0.4569 -0.4378
  838MOL0     H15582  11.721   3.268   4.379  0.4667 -0.7029 -0.2374
  838MOL0     H15583  11.902   3.447   4.418  2.0181 -1.7829  0.3660
  838MOL0     H15584  11.835   3.469   4.581  1.1863  3.1942 -1.9722
  838MOL0     H15585  11.958   3.222   4.447  0.2145  0.3047  0.5118
  838MOL0     H15586  11.904   3.214   4.610 -0.8595 -1.7402 -1.6377
  838MOL0     H15587  12.127   3.406   4.525 -2.1437  0.4410 -2.0569
  838MOL0     H15588  12.065   3.385   4.686 -0.0153 -0.1801 -0.1924
  838MOL0     H15589  12.218   3.210   4.706 -1.0968  3.1238  1.1381
  838MOL0     H15590  12.268   3.242   4.535 -1.5671  1.3664 -0.6377
  838MOL0     H15591  12.049   3.043   4.606 -2.0015  1.5263 -0.9324
  838MOL0     H15592  12.117   3.073   4.444  3.0611 -1.4294 -1.1444
  838MOL0     H15593  12.317   2.998   4.798  2.3864  1.1190 -0.2691
  838MOL0     H15594  12.529   2.879   4.836 -1.9210  2.7203 -0.6765
  838MOL0     H15595  12.584   2.749   4.726  0.4123 -0.5547  1.9205
  838MOL0     H15596  12.335   2.744   4.887  0.8685  1.7212  1.0043
  838MOL0     H15597  12.411   2.604   4.804  0.2723 -0.2956 -0.0840
  838MOL0     H15598  12.507   2.756   5.058  0.0432 -1.0034  0.1387
  838MOL0     H15599  12.433   2.597   5.055 -1.3523  1.0385 -0.0805
  838MOL0     H15600  12.607   2.518   4.910 -0.9829  0.8932 -1.2343
  838MOL0     H15601  12.698   2.677   4.946 -0.1029  0.1580 -0.4721
  838MOL0     H15602  12.807   2.495   5.313 -0.5278 -0.5576 -0.9131
  838MOL0     H15603  13.080   2.372   5.433  0.9707 -0.4408 -0.7688
  838MOL0     H15604  12.999   2.528   5.458  0.5994 -1.2733  0.9014
  838MOL0     H15605  13.144   2.535   5.381 -0.7712  0.5949 -1.3670
  838MOL0     H15606  13.486   2.311   5.057 -2.7374 -4.5072 -0.1535
  838MOL0     H15607  13.713   2.237   5.114 -0.3956  1.4037 -1.4340
  838MOL0     H15608  13.860   2.093   5.198  4.3872 -3.4822  1.2911
  838MOL0     H15609  13.934   2.258   5.169  2.3618 -1.2331 -0.7325
  838MOL0     H15610  14.005   2.143   5.425 -1.0124 -0.4531 -0.3373
  838MOL0     H15611  14.063   2.032   5.296 -0.8792 -0.4595 -1.2191
  838MOL0     H15612  14.235   2.213   5.393 -1.0769  3.0340  1.7118
  838MOL0     H15613  14.122   2.334   5.335  0.2071  0.2362 -2.1268
  838MOL0     H15614  14.170   2.252   5.097 -0.9927 -1.2122  0.6226
  838MOL0     H15615  14.255   2.117   5.173 -0.5529  0.0483  2.1888
  838MOL0     H15616  14.397   2.282   5.071 -2.5624  0.5727 -1.3900
  838MOL0     H15617  14.342   2.400   5.182  0.3620  0.4609  0.0614
  838MOL0     H15618  14.502   2.132   5.258  1.1981 -0.0666  0.4058
  838MOL0     H15619  14.460   2.260   5.377  1.6287 -0.1009 -0.3180
  838MOL0     H15620  14.610   2.414   5.276  0.7686  0.0159  1.8213
  838MOL0     H15621  14.650   2.298   5.150 -1.1073 -0.5073  0.3306
  838MOL0     H15622  14.811   2.275   5.335 -0.4320  0.0644 -1.7407
  838MOL0     H15623  14.693   2.142   5.368 -2.1856 -0.3454 -2.0098
  838MOL0     H15624  13.647   2.310   5.520  1.0802 -1.8430 -1.0342
  838MOL0     H15625  13.425   2.394   5.482 -1.7878 -0.4114 -0.7100
  838MOL0     H15626  13.077   2.376   4.919  0.9777 -3.7619  1.4393
  838MOL0     H15627  12.862   2.508   4.895 -1.1196  3.6441  1.3924
  838MOL0     H15628  11.384   3.465   4.055 -0.8955 -1.0531 -0.7036
  838MOL0     H15629  11.210   3.354   3.943 -1.7766 -0.7836  0.0046
  838MOL0     H15630  10.782   3.099   4.071 -1.7610 -1.3111  0.5014
  838MOL0     H15631  10.646   2.916   3.976 -1.3277 -0.9038 -0.8341
  838MOL0     H15632  10.502   2.781   3.875  1.3475 -1.0222 -0.0819
  838MOL0     H15633  10.401   2.911   3.843 -1.1292 -0.9638 -1.7250
  838MOL0     H15634  10.323   2.690   3.778  1.0802 -0.8294  1.1973
  838MOL0     H15635  10.454   2.674   3.666  1.7393  1.7950  0.1212
  838MOL0     H15636  10.358   2.822   3.506 -0.3458 -1.0036 -0.0057
  838MOL0     H15637  10.235   2.725   3.550 -1.6273  2.5711 -2.0662
  838MOL0     H15638  10.268   3.010   3.634  0.7811  0.0903 -1.5964
  838MOL0     H15639  10.149   2.895   3.713 -0.1328  0.4750 -1.2951
  838MOL0     H15640   9.966   3.026   3.370 -1.3197 -3.3692 -0.3791
  838MOL0     H15641  10.739   3.065   3.577 -1.2856  3.2540 -0.4098
  838MOL0     H15642  10.889   3.325   3.604  3.7743  0.4337 -1.9877
  838MOL0     H15643  11.023   3.233   3.644 -1.6702  0.1747  1.2368
  838MOL0     H15644  10.910   3.166   3.526 -1.4525 -0.8075 -0.4301
  839MOL0     O15645   9.894   2.142   8.951  0.2588  1.0280  0.0166
  839MOL0     C15646   9.815   2.180   8.864 -0.2233 -0.4802  0.6114
  839MOL0     O15647   9.854   2.251   8.756  0.1822  0.8433 -0.0807
  839MOL0     C15648   9.978   2.312   8.756 -0.7980 -0.2997 -1.0355
  839MOL0     C15649  10.060   2.311   8.641 -0.2104  0.4440 -0.0981
  839MOL0     C15650  10.191   2.363   8.636 -0.6204 -0.2507  0.4430
  839MOL0     C15651  10.249   2.431   8.748 -0.4932  0.7644  0.3793
  839MOL0     O15652  10.380   2.483   8.732 -0.1431 -0.0306 -0.5990
  839MOL0     C15653  10.439   2.550   8.838  0.7524  0.4053 -0.4574
  839MOL0     C15654  10.557   2.642   8.787 -1.4049 -0.0470 -0.2013
  839MOL0     C15655  10.618   2.724   8.892  0.4218 -0.1737  0.3188
  839MOL0     C15656  10.695   2.847   8.839 -0.4423 -0.0051  0.3748
  839MOL0     C15657  10.828   2.819   8.797 -0.4094 -0.0130  1.0483
  839MOL0     C15658  10.901   2.941   8.749 -0.6692  0.3415  0.3916
  839MOL0     C15659  11.043   2.926   8.703  0.6218  0.6808 -0.0475
  839MOL0     C15660  11.050   2.873   8.560 -0.0977  0.0759  0.2863
  839MOL0     N15661  11.186   2.895   8.509  0.7029  0.1803  0.1094
  839MOL0     C15662  11.290   2.813   8.519 -0.1980 -0.0946  0.1128
  839MOL0     C15663  11.391   2.872   8.441 -0.2992 -0.1247  0.6227
  839MOL0     C15664  11.536   2.833   8.423  0.1935 -0.5872  0.1770
  839MOL0     C15665  11.644   2.928   8.485  0.1393  0.8430 -1.0372
  839MOL0     C15666  11.778   2.859   8.473 -0.7526  0.1720 -0.2941
  839MOL0     C15667  11.896   2.941   8.520  1.1353 -0.4254  0.1504
  839MOL0     O15668  11.913   2.889   8.653  0.0817 -0.1433  0.1909
  839MOL0     C15669  12.037   2.908   8.710 -0.0799  0.8326 -0.2742
  839MOL0     C15670  12.040   2.852   8.839 -0.1845  0.5800  0.7927
  839MOL0     C15671  12.159   2.860   8.917  0.3978 -1.1925  0.1695
  839MOL0     C15672  12.179   2.781   9.045 -0.1210 -1.3430 -0.1483
  839MOL0     C15673  12.267   2.934   8.860 -0.0634 -0.2850  0.5068
  839MOL0     C15674  12.407   2.950   8.919  0.8306 -0.4662  0.3374
  839MOL0     O15675  12.514   2.932   8.835  0.1089  0.4223 -0.1278
  839MOL0     C15676  12.645   2.931   8.892  0.4551  0.0477  0.0029
  839MOL0     C15677  12.706   3.051   8.928 -0.4062  0.5393 -0.1353
  839MOL0     C15678  12.830   3.059   8.997 -0.2955 -0.3183  0.6823
  839MOL0     C15679  12.896   2.941   9.033 -1.0206 -0.9828  1.0868
  839MOL0     O15680  13.018   2.959   9.086  0.0554 -0.0113 -0.3085
  839MOL0     C15681  13.100   2.852   9.140  0.4097  0.0249  0.1441
  839MOL0     C15682  13.250   2.869   9.089  0.3932 -0.3581  0.0316
  839MOL0     C15683  13.270   2.844   8.937  0.6681  0.1729 -0.4699
  839MOL0     C15684  13.407   2.892   8.902 -0.5463 -0.4291 -0.5966
  839MOL0     C15685  13.417   2.914   8.757 -0.2139 -0.4660 -0.4064
  839MOL0     C15686  13.442   2.783   8.679 -1.2216  0.1335 -0.0717
  839MOL0     C15687  13.439   2.809   8.526 -0.6973 -0.5310  0.7600
  839MOL0     C15688  13.442   2.672   8.457 -0.7133  0.3132  0.3321
  839MOL0    Cl15689  13.609   2.610   8.474  0.6104 -0.0285  0.2030
  839MOL0     C15690  12.835   2.819   9.000 -0.3284  0.7173 -0.2667
  839MOL0     C15691  12.715   2.818   8.921 -0.0570  0.5115 -0.8529
  839MOL0     O15692  12.413   2.993   9.030 -0.3313  0.4729 -0.4222
  839MOL0     C15693  12.257   2.997   8.735  0.3956  0.4280 -0.6605
  839MOL0     C15694  12.139   2.981   8.661 -0.0645 -0.0596 -0.9598
  839MOL0     N15695  11.344   2.996   8.400  0.6247 -0.2506 -0.2931
  839MOL0     N15696  11.221   3.004   8.438 -0.1781 -0.8348  0.5136
  839MOL0     C15697  10.164   2.435   8.864 -0.3284  0.2545 -0.3064
  839MOL0     C15698  10.029   2.382   8.870  0.9116 -0.3740 -0.5492
  839MOL0     C15699   9.671   2.132   8.860 -0.5563  0.2881  0.5979
  839MOL0     C15700   9.611   2.083   8.738  0.5058 -0.2132 -0.7220
  839MOL0     C15701   9.477   2.061   8.726  0.9027 -0.1672  0.9811
  839MOL0     C15702   9.400   2.057   8.844  0.2374 -0.3788  1.1278
  839MOL0     O15703   9.275   2.003   8.839 -0.0113 -0.2436 -0.6111
  839MOL0     C15704   9.192   2.030   8.728 -0.4055 -0.1319  0.2642
  839MOL0     C15705   9.048   1.984   8.771 -0.1289 -0.8196  0.3947
  839MOL0     C15706   8.929   2.036   8.684  0.1746  0.1118 -0.3525
  839MOL0     C15707   8.899   2.191   8.692  0.0282  0.4108 -0.2412
  839MOL0     C15708   8.843   2.231   8.822 -0.5715 -0.5165  0.0253
  839MOL0     C15709   8.790   2.249   8.931  0.8105  0.9366  0.1732
  839MOL0     C15710   9.462   2.089   8.969  0.3649 -0.0946  0.2399
  839MOL0     C15711   9.590   2.124   8.974 -0.2672 -0.0993 -0.6483
  839MOL0     C15712   9.653   2.149   9.113 -0.6899  0.0299 -0.7483
  839MOL0     H15713  10.013   2.265   8.555 -0.2054 -1.6082  0.9366
  839MOL0     H15714  10.248   2.349   8.545  0.9352  1.3622  1.1093
  839MOL0     H15715  10.494   2.481   8.902 -0.7581  0.0299  0.4954
  839MOL0     H15716  10.372   2.619   8.891  0.9389 -0.1599  0.5367
  839MOL0     H15717  10.631   2.583   8.733 -1.7249 -1.3466  0.7248
  839MOL0     H15718  10.501   2.715   8.727 -1.6943 -1.6901 -2.0449
  839MOL0     H15719  10.526   2.761   8.937  0.0104 -2.0635  1.1211
  839MOL0     H15720  10.672   2.664   8.966  2.8817  0.4626 -0.8643
  839MOL0     H15721  10.645   2.898   8.756 -3.8538  0.5751  2.5758
  839MOL0     H15722  10.705   2.914   8.925  5.7330  0.5850 -0.3475
  839MOL0     H15723  10.824   2.761   8.705 -0.3332  2.4115 -0.5591
  839MOL0     H15724  10.884   2.760   8.871 -0.2807 -1.3375 -0.0589
  839MOL0     H15725  10.835   2.984   8.673 -2.8303  0.2288  2.1255
  839MOL0     H15726  10.896   3.008   8.835  1.4359 -0.2477  1.0440
  839MOL0     H15727  11.110   2.867   8.765 -0.3917 -0.3576  0.0885
  839MOL0     H15728  11.078   3.030   8.707 -2.1574  1.6696  1.9708
  839MOL0     H15729  11.030   2.766   8.550  0.5583 -0.0019 -0.2455
  839MOL0     H15730  10.982   2.931   8.497  0.3712  3.4169  2.5283
  839MOL0     H15731  11.284   2.712   8.556  2.0839  0.4847  2.3604
  839MOL0     H15732  11.551   2.836   8.315  1.5652  0.0599  0.3610
  839MOL0     H15733  11.555   2.734   8.466  1.1990 -0.3970  0.2047
  839MOL0     H15734  11.639   3.025   8.435  2.8472  1.2548 -0.6812
  839MOL0     H15735  11.625   2.948   8.591  0.2170 -0.0809 -0.8377
  839MOL0     H15736  11.775   2.770   8.536  2.3140  2.4898  3.5730
  839MOL0     H15737  11.793   2.825   8.370 -3.0584 -3.4664  0.3817
  839MOL0     H15738  11.972   2.907   8.448 -1.5245 -4.2773 -1.2193
  839MOL0     H15739  11.865   3.045   8.525  0.6498 -0.5533 -0.1464
  839MOL0     H15740  11.954   2.794   8.873 -0.9805 -1.0655 -3.3662
  839MOL0     H15741  12.119   2.828   9.124 -0.8196 -1.0620 -0.8244
  839MOL0     H15742  12.283   2.784   9.079 -0.4581 -2.3225  1.0329
  839MOL0     H15743  12.139   2.680   9.032 -1.9929 -0.5300 -1.1742
  839MOL0     H15744  12.655   3.138   8.887  1.3437  2.1868  1.0076
  839MOL0     H15745  12.878   3.150   9.029 -0.2828 -0.7669  2.0015
  839MOL0     H15746  13.093   2.880   9.245 -0.7826 -0.3974  0.1989
  839MOL0     H15747  13.059   2.753   9.115  1.9681 -0.2856 -1.4267
  839MOL0     H15748  13.278   2.973   9.109 -1.5985  0.7114 -2.1702
  839MOL0     H15749  13.310   2.790   9.134 -0.2666 -1.2042 -0.5373
  839MOL0     H15750  13.200   2.904   8.877 -1.4515 -2.0567 -0.3892
  839MOL0     H15751  13.242   2.741   8.911 -1.1391  0.4686  0.1419
  839MOL0     H15752  13.478   2.819   8.943 -0.5808  0.2941  0.8308
  839MOL0     H15753  13.425   2.989   8.949 -1.3987  0.3785 -1.8795
  839MOL0     H15754  13.326   2.957   8.716  0.7900  0.3749 -1.8451
  839MOL0     H15755  13.504   2.977   8.736  1.2163 -2.2215  0.0012
  839MOL0     H15756  13.363   2.712   8.704 -0.3648 -0.7356  0.2433
  839MOL0     H15757  13.536   2.732   8.701 -1.5912 -0.0685  1.1267
  839MOL0     H15758  13.522   2.874   8.498 -1.7673  0.3296 -0.5666
  839MOL0     H15759  13.351   2.864   8.492 -0.6847 -0.7232  0.4060
  839MOL0     H15760  13.419   2.691   8.352  0.4809  3.6250  0.5503
  839MOL0     H15761  13.382   2.592   8.501 -1.6750  0.4352 -0.7254
  839MOL0     H15762  12.867   2.721   9.035 -3.7176 -0.7450 -0.8195
  839MOL0     H15763  12.658   2.726   8.908 -0.8069  1.0832 -1.7585
  839MOL0     H15764  12.345   3.053   8.706  0.7221  0.9498  1.2112
  839MOL0     H15765  12.113   3.037   8.572 -0.1454 -0.0017 -0.8990
  839MOL0     H15766  10.183   2.493   8.954 -3.5592  1.4636 -0.2528
  839MOL0     H15767   9.966   2.385   8.957 -1.8568  1.9225 -2.4494
  839MOL0     H15768   9.680   2.083   8.654  0.9893 -0.3416 -0.3292
  839MOL0     H15769   9.439   2.031   8.628  3.1958 -4.3409  1.1497
  839MOL0     H15770   9.198   2.135   8.700  0.1460 -0.1248  0.3825
  839MOL0     H15771   9.215   1.968   8.641 -0.4542  2.4233 -1.6571
  839MOL0     H15772   9.022   2.007   8.875 -0.0183 -1.4623  0.5689
  839MOL0     H15773   9.056   1.875   8.767  2.5873 -0.7009 -3.8203
  839MOL0     H15774   8.950   2.007   8.580 -0.3944  1.7086 -0.9539
  839MOL0     H15775   8.838   1.985   8.717 -0.7935  1.4296 -0.8788
  839MOL0     H15776   8.821   2.206   8.616  1.0329  0.8179 -1.2093
  839MOL0     H15777   8.982   2.260   8.674 -1.5973  2.1232 -1.5612
  839MOL0     H15778   8.742   2.278   9.022 -0.4721 -2.2351  0.6254
  839MOL0     H15779   9.402   2.087   9.059 -2.0570 -0.9401 -1.3130
  839MOL0     H15780   9.728   2.071   9.132  1.0014  1.4803 -1.1623
  839MOL0     H15781   9.713   2.240   9.102 -1.2164  0.2876 -1.5871
  839MOL0     H15782   9.575   2.158   9.189  0.4173  1.6598  0.2590
  840MOL0     O15783   5.124   4.506   4.525 -0.4901 -1.1199  0.3600
  840MOL0     C15784   5.231   4.552   4.475 -0.7725  0.6883 -0.7237
  840MOL0     O15785   5.321   4.628   4.542 -0.5502  0.1603 -0.3101
  840MOL0     C15786   5.317   4.667   4.673 -0.5563  0.9215 -0.2677
  840MOL0     C15787   5.425   4.636   4.758 -0.4457 -0.0731 -0.0489
  840MOL0     C15788   5.433   4.662   4.895  0.4674  0.7986 -0.1834
  840MOL0     C15789   5.328   4.738   4.953 -0.1679  0.2799  0.9579
  840MOL0     O15790   5.313   4.780   5.083  0.9534  0.5477 -0.3533
  840MOL0     C15791   5.406   4.748   5.182 -0.6028 -0.1024  0.4875
  840MOL0     C15792   5.355   4.767   5.323 -0.4156 -0.3649 -0.6390
  840MOL0     C15793   5.463   4.753   5.428 -0.1214 -0.0145 -1.5090
  840MOL0     C15794   5.533   4.885   5.465  0.3511  0.0018  0.3469
  840MOL0     C15795   5.635   4.851   5.573 -0.8473  0.2960  0.9693
  840MOL0     C15796   5.572   4.781   5.695 -0.6922  0.2803  0.2649
  840MOL0     C15797   5.669   4.780   5.819 -0.6826  0.0326  0.0386
  840MOL0     C15798   5.799   4.698   5.795  0.7796 -0.2813  0.8571
  840MOL0     N15799   5.797   4.556   5.834 -0.4531 -0.0341 -1.4277
  840MOL0     C15800   5.897   4.500   5.918  0.2664 -0.2199  0.0486
  840MOL0     C15801   5.861   4.374   5.936  0.3619 -0.5620  0.0538
  840MOL0     C15802   5.943   4.273   6.023 -0.7638  0.6722  0.1107
  840MOL0     C15803   6.017   4.338   6.132 -0.2505  0.0605  0.1786
  840MOL0     C15804   6.060   4.239   6.234  0.6927  0.1621 -0.5531
  840MOL0     C15805   6.167   4.295   6.333  0.5081  0.1167 -0.0714
  840MOL0     O15806   6.123   4.406   6.407 -0.1512 -0.2887  0.3006
  840MOL0     C15807   6.178   4.453   6.520 -0.2863 -0.7844  0.0570
  840MOL0     C15808   6.107   4.558   6.579 -0.0528 -0.0588  0.4209
  840MOL0     C15809   6.149   4.617   6.696  1.0496 -0.3003  0.3134
  840MOL0     C15810   6.049   4.723   6.750 -0.5462 -0.1641 -0.5155
  840MOL0     C15811   6.274   4.576   6.754 -0.1468  1.0894  0.0167
  840MOL0     C15812   6.353   4.630   6.881  0.8186 -0.7180 -0.7266
  840MOL0     O15813   6.456   4.562   6.926  1.0380  0.3407  0.1138
  840MOL0     C15814   6.517   4.590   7.046 -0.4907 -0.1503  0.1916
  840MOL0     C15815   6.546   4.725   7.079 -0.0563  0.3965 -0.8788
  840MOL0     C15816   6.611   4.759   7.199  0.4568  0.0489 -0.8183
  840MOL0     C15817   6.648   4.657   7.284  0.1667 -0.2221  0.5519
  840MOL0     O15818   6.690   4.692   7.409 -0.2797 -0.6408 -0.4117
  840MOL0     C15819   6.821   4.658   7.446  0.6559 -0.6880  0.5705
  840MOL0     C15820   6.813   4.575   7.578  0.6991  0.3307 -0.2671
  840MOL0     C15821   6.955   4.530   7.623  0.9092  0.2315 -0.0114
  840MOL0     C15822   7.064   4.642   7.668  0.7250 -0.4645 -0.4937
  840MOL0     C15823   7.179   4.579   7.749 -0.2824  1.1728 -0.1108
  840MOL0     C15824   7.290   4.678   7.801 -0.3967 -0.5009  0.2030
  840MOL0     C15825   7.383   4.722   7.684 -0.2426  0.2820 -0.6315
  840MOL0     C15826   7.476   4.810   7.750 -0.3397  1.0256 -0.2218
  840MOL0    Cl15827   7.580   4.890   7.629 -0.8182 -0.5530 -0.0358
  840MOL0     C15828   6.633   4.527   7.252 -0.0803 -0.5564  0.3040
  840MOL0     C15829   6.571   4.489   7.131  0.4286 -0.0764  0.3146
  840MOL0     O15830   6.304   4.733   6.931 -0.2082  0.1416 -0.2967
  840MOL0     C15831   6.345   4.470   6.685 -0.0135  0.6493 -0.2874
  840MOL0     C15832   6.302   4.411   6.569  0.3811 -0.4438 -0.3349
  840MOL0     N15833   5.731   4.357   5.872  0.1903  0.5869  0.3095
  840MOL0     N15834   5.700   4.464   5.813  0.7096 -0.2473 -0.3259
  840MOL0     C15835   5.215   4.769   4.872 -0.0835  0.3442 -0.5665
  840MOL0     C15836   5.209   4.737   4.731 -0.2090 -0.6892 -0.1886
  840MOL0     C15837   5.250   4.517   4.339 -0.4265  0.4479 -0.5823
  840MOL0     C15838   5.322   4.610   4.268 -0.6642  0.1061  0.4325
  840MOL0     C15839   5.346   4.595   4.131  0.8616 -0.2625 -0.1823
  840MOL0     C15840   5.309   4.482   4.063 -0.2085 -0.3219  1.0161
  840MOL0     O15841   5.321   4.492   3.922 -0.9238 -0.2153  0.2478
  840MOL0     C15842   5.257   4.391   3.840  0.0888  0.2164 -0.3350
  840MOL0     C15843   5.275   4.430   3.695  0.9920  0.6087  0.1500
  840MOL0     C15844   5.236   4.313   3.596 -0.4556  0.5974 -0.2303
  840MOL0     C15845   5.293   4.345   3.458  0.2171 -0.9039 -0.8227
  840MOL0     C15846   5.267   4.228   3.373 -0.3632 -0.0055  0.7356
  840MOL0     C15847   5.247   4.132   3.308 -0.0169  0.0526  0.3072
  840MOL0     C15848   5.244   4.387   4.138 -0.6018 -0.0319 -0.4323
  840MOL0     C15849   5.218   4.397   4.274 -0.6662 -0.3657 -0.6626
  840MOL0     C15850   5.142   4.281   4.341  0.7748  0.4469  0.1746
  840MOL0     H15851   5.517   4.607   4.708  0.0940  0.6706  0.4763
  840MOL0     H15852   5.522   4.633   4.949  0.7115  0.3272 -0.8322
  840MOL0     H15853   5.490   4.815   5.161 -0.6561 -0.0044  0.5888
  840MOL0     H15854   5.448   4.648   5.165  1.0771  0.5002  0.8663
  840MOL0     H15855   5.318   4.870   5.330 -0.8357 -0.5201 -0.5276
  840MOL0     H15856   5.275   4.696   5.346 -1.0129  0.6964  0.7983
  840MOL0     H15857   5.410   4.720   5.518 -1.4086  0.4858 -2.0655
  840MOL0     H15858   5.530   4.672   5.396  2.0519  1.0372  0.1305
  840MOL0     H15859   5.576   4.935   5.378  0.3957  3.1534  1.9969
  840MOL0     H15860   5.451   4.948   5.502  1.0802  0.7772  0.6869
  840MOL0     H15861   5.676   4.950   5.598 -0.8673  1.4924 -3.0587
  840MOL0     H15862   5.712   4.784   5.534 -1.7230  1.5078 -3.2971
  840MOL0     H15863   5.476   4.831   5.716 -1.2658 -0.0596 -1.4268
  840MOL0     H15864   5.551   4.678   5.665  0.8091 -0.4570  1.5896
  840MOL0     H15865   5.629   4.746   5.915 -0.2347  1.7401  0.8688
  840MOL0     H15866   5.694   4.884   5.843 -0.4317  0.2765 -1.1982
  840MOL0     H15867   5.836   4.705   5.692 -0.9261  0.2617  0.2406
  840MOL0     H15868   5.877   4.752   5.849  3.3270 -2.0439 -0.8377
  840MOL0     H15869   5.988   4.545   5.955  1.9871 -2.0363 -1.7478
  840MOL0     H15870   6.008   4.219   5.954 -2.9510 -2.3311  0.1912
  840MOL0     H15871   5.875   4.198   6.062  1.9016 -0.8214  2.2197
  840MOL0     H15872   6.103   4.381   6.081 -1.5235  0.4917 -1.6984
  840MOL0     H15873   5.963   4.419   6.182  0.4372  0.5142  0.1998
  840MOL0     H15874   5.971   4.208   6.289 -0.2607  2.4463 -0.7180
  840MOL0     H15875   6.098   4.150   6.182 -0.4075 -0.4690 -0.2972
  840MOL0     H15876   6.192   4.212   6.400 -2.8420 -2.3413 -1.5334
  840MOL0     H15877   6.254   4.328   6.276 -0.5397  2.8295 -0.2161
  840MOL0     H15878   6.009   4.585   6.543  0.1339  0.6537  0.4423
  840MOL0     H15879   5.960   4.726   6.687 -0.0347 -2.4511 -1.4312
  840MOL0     H15880   6.101   4.819   6.739 -1.1230  0.3838  1.1780
  840MOL0     H15881   6.025   4.708   6.856  0.8631  0.0365 -0.1494
  840MOL0     H15882   6.513   4.804   7.013 -1.7921  0.5421  0.1125
  840MOL0     H15883   6.618   4.863   7.228 -1.9476  0.6773 -2.2498
  840MOL0     H15884   6.871   4.600   7.368  1.4569 -0.1684  0.6817
  840MOL0     H15885   6.876   4.747   7.478 -0.9889 -0.4559  3.0550
  840MOL0     H15886   6.768   4.635   7.658  0.4860  2.4267 -1.8594
  840MOL0     H15887   6.754   4.483   7.568 -1.1985  1.5581 -0.9909
  840MOL0     H15888   6.993   4.451   7.557 -2.1541 -2.2383  0.8915
  840MOL0     H15889   6.936   4.475   7.716 -3.2193  0.0714 -0.7326
  840MOL0     H15890   7.017   4.724   7.723  0.4064 -0.1061 -1.2732
  840MOL0     H15891   7.099   4.676   7.570  0.5130 -1.1532 -0.8192
  840MOL0     H15892   7.141   4.516   7.830  1.9425  2.1408  1.7748
  840MOL0     H15893   7.227   4.503   7.687 -0.1059  0.4154  0.9260
  840MOL0     H15894   7.356   4.640   7.879  0.1885 -0.8213 -0.4426
  840MOL0     H15895   7.236   4.768   7.833 -0.0258 -0.3337  0.3550
  840MOL0     H15896   7.325   4.771   7.605 -1.4165  0.0176  0.0460
  840MOL0     H15897   7.432   4.634   7.641  0.9938 -0.1559  1.5434
  840MOL0     H15898   7.536   4.747   7.815 -1.8493  0.3832  0.5999
  840MOL0     H15899   7.424   4.891   7.802  0.6157 -0.2035  2.8971
  840MOL0     H15900   6.677   4.452   7.317  1.1695 -0.1233 -0.0016
  840MOL0     H15901   6.571   4.388   7.091  1.8033 -0.5541  1.4628
  840MOL0     H15902   6.432   4.427   6.734 -1.1924 -0.4918  0.9084
  840MOL0     H15903   6.364   4.330   6.533  3.2432  0.5463  1.9135
  840MOL0     H15904   5.126   4.820   4.907  1.6226  4.7588 -1.9640
  840MOL0     H15905   5.135   4.772   4.660  0.2511  0.1320 -0.2784
  840MOL0     H15906   5.347   4.711   4.298 -1.2583  0.5825 -0.6035
  840MOL0     H15907   5.397   4.668   4.069  1.1116  1.7525  2.2386
  840MOL0     H15908   5.289   4.292   3.871 -2.3528 -1.1132 -1.7185
  840MOL0     H15909   5.152   4.386   3.873  0.2772  0.2435  0.2913
  840MOL0     H15910   5.373   4.473   3.673  1.3451 -1.1368 -2.0863
  840MOL0     H15911   5.204   4.512   3.677  1.3742  1.2363  1.4385
  840MOL0     H15912   5.271   4.214   3.626 -0.1934  0.4096 -1.1485
  840MOL0     H15913   5.127   4.309   3.588 -0.6163 -0.3631  1.8059
  840MOL0     H15914   5.394   4.384   3.471 -1.2202  3.2278 -0.7040
  840MOL0     H15915   5.234   4.429   3.419  1.2346 -0.5378 -1.6147
  840MOL0     H15916   5.236   4.041   3.252  1.5750 -0.4425  0.7543
  840MOL0     H15917   5.192   4.304   4.091  0.9311 -1.8126  0.8772
  840MOL0     H15918   5.044   4.323   4.364  1.2925  0.7783  1.8752
  840MOL0     H15919   5.133   4.191   4.279 -1.3900 -1.7693  3.4066
  840MOL0     H15920   5.191   4.246   4.432  1.7174  1.2684 -0.0068
  841MOL0     O15921   3.293   2.392   0.074  0.5299  0.7410  0.4443
  841MOL0     C15922   3.294   2.449   0.183 -0.1653 -0.0589 -0.3192
  841MOL0     O15923   3.237   2.400   0.297 -0.4101 -0.3440 -0.4818
  841MOL0     C15924   3.199   2.267   0.313 -0.5929 -0.7245 -0.3128
  841MOL0     C15925   3.216   2.154   0.235  0.0147 -0.3328  0.6657
  841MOL0     C15926   3.160   2.036   0.272 -0.0266 -0.3376  0.9544
  841MOL0     C15927   3.075   2.026   0.385 -0.3437 -0.0680 -1.1601
  841MOL0     O15928   3.019   1.907   0.431 -0.0744 -0.5459 -0.0436
  841MOL0     C15929   3.058   1.785   0.359 -0.5514  0.1728 -0.6431
  841MOL0     C15930   3.048   1.657   0.445 -0.1644  0.5386 -0.5537
  841MOL0     C15931   3.097   1.533   0.372  0.1546  0.7487 -0.2578
  841MOL0     C15932   3.001   1.477   0.263  0.5192 -0.5302 -0.0824
  841MOL0     C15933   3.042   1.342   0.201 -0.3405  0.2422 -0.9900
  841MOL0     C15934   2.921   1.268   0.150  1.0724  0.2986 -0.5627
  841MOL0     C15935   2.947   1.122   0.116 -0.6697  0.2975 -0.7543
  841MOL0     C15936   2.827   1.048   0.061  0.0001  0.3297  0.3989
  841MOL0     N15937   2.856   0.905   0.065  0.0179  0.9106 -0.2124
  841MOL0     C15938   2.904   0.832   0.172 -0.4461 -0.4470 -0.5771
  841MOL0     C15939   2.944   0.714   0.118  0.4078 -0.6382 -0.4043
  841MOL0     C15940   3.010   0.601   0.195  0.2351 -0.3135  0.0992
  841MOL0     C15941   3.155   0.633   0.209  0.3222 -0.3695  0.1729
  841MOL0     C15942   3.239   0.502   0.220  0.4696 -0.2460 -0.0780
  841MOL0     C15943   3.390   0.520   0.217 -0.2338  0.4390 -0.6648
  841MOL0     O15944   3.431   0.624   0.305 -0.4483 -0.3516 -0.1189
  841MOL0     C15945   3.430   0.608   0.444  0.3445 -0.6732  0.6298
  841MOL0     C15946   3.412   0.716   0.525 -0.2686  0.0364 -1.4564
  841MOL0     C15947   3.395   0.707   0.665 -0.0226 -0.0248  0.7138
  841MOL0     C15948   3.379   0.835   0.744 -0.6065 -0.8470 -0.3516
  841MOL0     C15949   3.402   0.578   0.728  0.7336 -0.3918  0.0761
  841MOL0     C15950   3.401   0.545   0.876  0.0202  0.1717  0.6846
  841MOL0     O15951   3.408   0.420   0.901  0.3064  0.0748 -0.6217
  841MOL0     C15952   3.417   0.383   1.037  0.3247 -0.2699 -0.0407
  841MOL0     C15953   3.538   0.375   1.103  0.0899 -0.0628  0.9428
  841MOL0     C15954   3.552   0.316   1.231 -0.4386  0.0801  0.1289
  841MOL0     C15955   3.440   0.247   1.288  0.0532 -0.4630  0.1506
  841MOL0     O15956   3.458   0.191   1.417  0.5496  0.1105 -0.6482
  841MOL0     C15957   3.586   0.139   1.447  0.7990 -0.4521 -0.7580
  841MOL0     C15958   3.570   0.040   1.561  1.1819  0.3712  0.0570
  841MOL0     C15959   3.511   0.113   1.690 -0.0324 -0.2918  0.4743
  841MOL0     C15960   3.384   0.040   1.746 -0.1382  0.2336 -0.2375
  841MOL0     C15961   3.355   0.051   1.896  0.5925  0.7644 -0.9670
  841MOL0     C15962   3.304   0.190   1.929  0.2725  0.4364 -0.5487
  841MOL0     C15963   3.258   0.196   2.076 -0.7721 -0.6782  0.7478
  841MOL0     C15964   3.176   0.314   2.109  0.5493 -1.2191  0.0326
  841MOL0    Cl15965   3.007   0.297   2.048 -0.0466  0.1458 -0.1875
  841MOL0     C15966   3.317   0.259   1.212 -0.0882 -0.5700 -0.3602
  841MOL0     C15967   3.301   0.330   1.096  0.4427 -1.1180  1.5161
  841MOL0     O15968   3.388   0.632   0.965  0.0912 -0.4169  0.9245
  841MOL0     C15969   3.417   0.465   0.635 -0.1301 -0.1462 -0.3213
  841MOL0     C15970   3.420   0.484   0.500 -0.8388  0.4676 -0.4389
  841MOL0     N15971   2.911   0.715  -0.014  0.2530  0.6325  0.1029
  841MOL0     N15972   2.859   0.825  -0.045  0.8415  0.7182 -0.2427
  841MOL0     C15973   3.059   2.146   0.464  0.2537  0.0473  0.3043
  841MOL0     C15974   3.112   2.259   0.420 -0.3996 -0.4574  0.4611
  841MOL0     C15975   3.386   2.578   0.190 -1.1887 -0.1445 -0.4841
  841MOL0     C15976   3.478   2.610   0.088 -0.8264 -0.0226 -0.7072
  841MOL0     C15977   3.542   2.737   0.092  0.1448 -0.3026 -0.2796
  841MOL0     C15978   3.513   2.830   0.198 -0.3438  0.6061  0.3019
  841MOL0     O15979   3.582   2.950   0.204  0.5911  0.0648  0.1336
  841MOL0     C15980   3.698   2.973   0.131 -0.7412 -0.4636  0.4045
  841MOL0     C15981   3.661   3.028  -0.007  0.4659 -0.1765  0.5663
  841MOL0     C15982   3.782   3.091  -0.071  0.7528 -1.3449  0.0195
  841MOL0     C15983   3.763   3.115  -0.225  0.5581 -0.1779  0.0086
  841MOL0     C15984   3.842   3.224  -0.278  0.5475  0.2530 -0.0425
  841MOL0     C15985   3.904   3.304  -0.330  0.0517 -1.1159  0.3468
  841MOL0     C15986   3.432   2.787   0.303 -0.9516 -0.3304  0.6826
  841MOL0     C15987   3.372   2.668   0.298 -0.3463  0.1858 -0.4851
  841MOL0     C15988   3.270   2.662   0.403 -0.0536  0.7331 -0.0434
  841MOL0     H15989   3.286   2.159   0.152  0.3102  1.0784  0.9825
  841MOL0     H15990   3.185   1.952   0.208 -1.3035 -0.6629  0.8514
  841MOL0     H15991   3.164   1.792   0.330  0.1839 -2.0784  1.1469
  841MOL0     H15992   2.995   1.757   0.274 -0.0104  0.3167 -1.1025
  841MOL0     H15993   3.111   1.680   0.532 -0.9384 -2.8700  1.0504
  841MOL0     H15994   2.951   1.625   0.484  0.0731  0.4283 -0.0456
  841MOL0     H15995   3.190   1.564   0.324  0.8116 -1.7322 -0.7105
  841MOL0     H15996   3.103   1.449   0.442  0.9809  2.1945  1.4874
  841MOL0     H15997   2.898   1.464   0.296  0.4312 -0.4756 -0.3334
  841MOL0     H15998   2.997   1.558   0.190 -1.8569 -1.1479 -0.7226
  841MOL0     H15999   3.088   1.278   0.278  2.4936  2.4095 -0.7082
  841MOL0     H16000   3.121   1.353   0.126 -0.0550  0.0271 -0.7253
  841MOL0     H16001   2.841   1.269   0.225  0.8131  0.9085 -0.8450
  841MOL0     H16002   2.884   1.317   0.060 -0.7311 -0.7948 -0.4725
  841MOL0     H16003   2.984   1.079   0.209 -2.6969 -0.3190 -0.1770
  841MOL0     H16004   3.034   1.113   0.051  1.7180  3.0779  1.7394
  841MOL0     H16005   2.739   1.074   0.121 -0.0546 -0.9014  0.8731
  841MOL0     H16006   2.822   1.077  -0.045 -1.0738 -0.8835  0.0890
  841MOL0     H16007   2.924   0.863   0.274  2.8530 -0.1895 -1.1917
  841MOL0     H16008   3.004   0.510   0.135 -2.2286 -0.7058  0.8369
  841MOL0     H16009   2.962   0.586   0.292  1.4428  2.0938  1.1387
  841MOL0     H16010   3.194   0.703   0.135  1.1346  0.1488  1.0667
  841MOL0     H16011   3.154   0.692   0.301 -3.7183  1.0091 -0.5445
  841MOL0     H16012   3.215   0.451   0.313  1.0703 -1.6158 -0.6565
  841MOL0     H16013   3.202   0.437   0.140 -0.7639 -1.0892  1.1394
  841MOL0     H16014   3.441   0.425   0.231  1.1578  1.2245 -0.1857
  841MOL0     H16015   3.425   0.554   0.119 -0.6641 -0.0616 -0.9980
  841MOL0     H16016   3.428   0.816   0.488 -2.4542  0.4534 -1.4363
  841MOL0     H16017   3.465   0.872   0.800 -0.2396 -0.0401 -1.4343
  841MOL0     H16018   3.296   0.809   0.811  0.7906 -4.6556  0.1369
  841MOL0     H16019   3.347   0.919   0.681 -0.4147 -1.5237 -1.3705
  841MOL0     H16020   3.623   0.410   1.046  1.3622  0.2772  2.9482
  841MOL0     H16021   3.646   0.332   1.282 -1.2318  1.7580  1.1691
  841MOL0     H16022   3.632   0.086   1.363  0.7539 -0.2643 -0.9026
  841MOL0     H16023   3.659   0.215   1.474  0.5416 -0.2159 -0.7183
  841MOL0     H16024   3.492  -0.034   1.541  0.0465  1.7060 -0.7052
  841MOL0     H16025   3.667  -0.006   1.581  0.9101 -0.5602 -0.7150
  841MOL0     H16026   3.497   0.219   1.667  2.5989 -0.1776 -1.0173
  841MOL0     H16027   3.584   0.100   1.771  2.9554  0.5801 -1.8857
  841MOL0     H16028   3.396  -0.065   1.718  0.7176  0.3780 -0.4236
  841MOL0     H16029   3.310   0.096   1.688 -2.6067 -2.2413  0.3030
  841MOL0     H16030   3.278  -0.023   1.919  0.4645  0.4851 -2.2206
  841MOL0     H16031   3.445   0.027   1.953  0.8708  1.5113 -1.0806
  841MOL0     H16032   3.226   0.217   1.857  0.6131  0.0723 -1.0698
  841MOL0     H16033   3.384   0.265   1.928  0.4401  0.2803  0.5507
  841MOL0     H16034   3.351   0.195   2.134 -1.0371  2.8629  1.4709
  841MOL0     H16035   3.198   0.112   2.111 -2.3274  0.1576  0.1952
  841MOL0     H16036   3.211   0.406   2.062  1.5848 -1.5506  0.1266
  841MOL0     H16037   3.180   0.332   2.216 -0.2621  3.4244 -0.5389
  841MOL0     H16038   3.229   0.211   1.256  0.6493 -1.6595 -0.0101
  841MOL0     H16039   3.208   0.349   1.044  0.6582 -2.1112  0.7453
  841MOL0     H16040   3.428   0.362   0.668 -1.7248 -1.1728 -2.6886
  841MOL0     H16041   3.435   0.391   0.446 -0.5151 -0.1476  0.6744
  841MOL0     H16042   2.996   2.141   0.552  1.2965 -0.5527  1.0313
  841MOL0     H16043   3.101   2.349   0.479  0.9869  0.4175 -0.5598
  841MOL0     H16044   3.490   2.539   0.007 -2.1374  0.0293 -0.9676
  841MOL0     H16045   3.613   2.747   0.011  1.1638  0.0082  0.6321
  841MOL0     H16046   3.758   3.047   0.184 -0.8251  1.9036 -2.5194
  841MOL0     H16047   3.759   2.882   0.127 -1.1835 -0.7303 -2.0607
  841MOL0     H16048   3.586   3.104   0.016  0.6684 -0.1586  1.1852
  841MOL0     H16049   3.615   2.951  -0.069 -1.2622  0.1696  1.3552
  841MOL0     H16050   3.790   3.190  -0.026  1.1258 -0.6848 -1.4179
  841MOL0     H16051   3.874   3.032  -0.057  0.1774 -2.0409  0.9719
  841MOL0     H16052   3.658   3.135  -0.248  1.3103  4.7581 -0.3153
  841MOL0     H16053   3.795   3.029  -0.284 -0.4372 -1.8792  1.8340
  841MOL0     H16054   3.950   3.391  -0.373 -1.2819 -1.8820 -2.9326
  841MOL0     H16055   3.422   2.859   0.384  0.3869  2.7416 -1.6491
  841MOL0     H16056   3.169   2.658   0.363  0.5205 -1.3389 -1.4369
  841MOL0     H16057   3.285   2.576   0.470  1.9311 -0.0348 -1.3611
  841MOL0     H16058   3.275   2.754   0.461 -1.6529  2.7744 -2.9301
  842MOL0     O16059   0.531   2.338   5.745  0.4491 -0.5480 -0.2244
  842MOL0     C16060   0.440   2.384   5.810  1.0286 -0.3155 -0.1955
  842MOL0     O16061   0.441   2.500   5.874  0.9005 -0.6876 -0.2369
  842MOL0     C16062   0.550   2.578   5.883  0.2150 -0.4060  0.1978
  842MOL0     C16063   0.605   2.631   6.004 -0.2400  0.8804  1.2119
  842MOL0     C16064   0.723   2.707   5.991 -0.7986  0.2530 -0.9014
  842MOL0     C16065   0.769   2.747   5.865 -0.5171  0.5391  0.3673
  842MOL0     O16066   0.873   2.839   5.846 -0.5560 -0.0302 -0.4656
  842MOL0     C16067   0.895   2.947   5.938 -1.0954 -0.6484  0.5677
  842MOL0     C16068   0.982   3.061   5.872 -0.1199  0.4279  0.0363
  842MOL0     C16069   0.962   3.195   5.932 -0.0365  0.4475 -0.1001
  842MOL0     C16070   1.085   3.277   5.924  0.4889 -0.5047  0.2160
  842MOL0     C16071   1.037   3.423   5.907  0.7809  0.9543  0.5297
  842MOL0     C16072   1.148   3.523   5.878  0.3790  0.0896 -0.0793
  842MOL0     C16073   1.098   3.670   5.884 -0.4820 -0.5451 -0.6357
  842MOL0     C16074   1.219   3.763   5.889 -0.2421 -0.7809  0.1345
  842MOL0     N16075   1.278   3.803   5.761  0.3220 -0.4509  0.3431
  842MOL0     C16076   1.329   3.924   5.735 -0.5947  0.0973  0.8486
  842MOL0     C16077   1.418   3.916   5.628 -0.0086  0.6561  0.0058
  842MOL0     C16078   1.516   4.022   5.569  0.3415 -0.1096 -0.2557
  842MOL0     C16079   1.609   4.090   5.672  0.1416  0.6890 -0.3605
  842MOL0     C16080   1.693   3.980   5.750 -0.1737 -0.0914 -0.5817
  842MOL0     C16081   1.792   3.898   5.666  0.5372 -0.6275  0.8685
  842MOL0     O16082   1.882   3.978   5.589  0.6335 -0.9690  0.0562
  842MOL0     C16083   1.994   4.016   5.649  0.2048 -0.0877 -0.1120
  842MOL0     C16084   1.997   4.129   5.727  0.0233 -0.0410  0.8043
  842MOL0     C16085   2.113   4.178   5.783 -0.1545  0.6550  0.0223
  842MOL0     C16086   2.093   4.309   5.860 -0.4795 -0.9739 -0.1831
  842MOL0     C16087   2.237   4.118   5.757 -0.6688 -0.0765 -0.9415
  842MOL0     C16088   2.373   4.168   5.792 -0.3932  0.0173 -1.0263
  842MOL0     O16089   2.484   4.111   5.729 -0.5968 -0.6935  0.3955
  842MOL0     C16090   2.610   4.128   5.786  0.0215 -0.2216 -0.5791
  842MOL0     C16091   2.638   4.096   5.926 -0.4026 -0.1171 -0.8973
  842MOL0     C16092   2.774   4.119   5.975 -0.1030  0.9747 -0.4310
  842MOL0     C16093   2.872   4.164   5.887 -0.0099 -0.3937 -0.1057
  842MOL0     O16094   3.002   4.183   5.946  0.4969  0.1735  0.0821
  842MOL0     C16095   3.116   4.211   5.855 -0.2518  0.8425  0.5376
  842MOL0     C16096   3.238   4.234   5.941  0.0908 -0.1282  0.3624
  842MOL0     C16097   3.352   4.295   5.863  0.1351 -0.1660 -0.5741
  842MOL0     C16098   3.433   4.190   5.788 -0.0738  1.1221 -0.1586
  842MOL0     C16099   3.567   4.240   5.771  0.5308  0.4003  0.4898
  842MOL0     C16100   3.648   4.129   5.700 -0.1983 -0.3197 -0.3276
  842MOL0     C16101   3.799   4.160   5.710  0.5921 -0.0701 -0.5310
  842MOL0     C16102   3.890   4.053   5.661  0.3055 -0.7038 -0.2186
  842MOL0    Cl16103   3.913   3.930   5.783  0.0107 -0.1170 -0.1546
  842MOL0     C16104   2.842   4.194   5.756  0.6550  0.1466  0.7878
  842MOL0     C16105   2.712   4.177   5.701  0.3801  0.8634 -0.1259
  842MOL0     O16106   2.385   4.257   5.879  0.6248 -0.2076 -0.2712
  842MOL0     C16107   2.227   4.001   5.683  0.3624  0.1611 -0.1139
  842MOL0     C16108   2.109   3.947   5.629  0.1630  0.2850  0.2634
  842MOL0     N16109   1.395   3.789   5.573 -0.0924 -1.1624  0.9885
  842MOL0     N16110   1.312   3.728   5.648 -0.0504 -0.6916  0.0172
  842MOL0     C16111   0.715   2.696   5.752 -0.6009 -0.0997  0.2502
  842MOL0     C16112   0.611   2.610   5.766 -0.8355 -0.7204  0.0865
  842MOL0     C16113   0.326   2.295   5.822  0.0176 -0.3010 -0.2906
  842MOL0     C16114   0.200   2.344   5.788 -0.0064  1.1431 -0.5568
  842MOL0     C16115   0.088   2.253   5.782  0.6621  0.6534  0.1482
  842MOL0     C16116   0.105   2.116   5.801  0.9843 -0.4969  0.0250
  842MOL0     O16117   0.002   2.019   5.793  0.4884  0.1089 -0.6721
  842MOL0     C16118  -0.113   2.040   5.709 -0.3450  0.6474 -0.4494
  842MOL0     C16119  -0.073   2.060   5.557  0.3018 -0.3506 -0.0216
  842MOL0     C16120  -0.179   2.040   5.454 -0.6639 -0.1950 -0.4864
  842MOL0     C16121  -0.200   2.143   5.351  0.2233  0.9499 -0.0184
  842MOL0     C16122  -0.079   2.177   5.283  0.0428 -0.4742  0.3233
  842MOL0     C16123   0.023   2.195   5.219  0.0918  0.9498 -1.0676
  842MOL0     C16124   0.229   2.069   5.833 -0.5288 -0.3054 -0.0211
  842MOL0     C16125   0.342   2.155   5.848 -0.1433 -0.1676 -0.6501
  842MOL0     C16126   0.481   2.101   5.891  0.7554 -1.3434  0.0073
  842MOL0     H16127   0.577   2.605   6.106  1.2022  0.3310  1.4933
  842MOL0     H16128   0.763   2.749   6.082 -0.5344  0.1095 -0.9505
  842MOL0     H16129   0.953   2.922   6.028  0.5283 -2.9905 -1.0244
  842MOL0     H16130   0.802   2.992   5.973 -0.5042  0.3368  0.8902
  842MOL0     H16131   1.084   3.023   5.866  1.3397  3.7761  1.2245
  842MOL0     H16132   0.954   3.066   5.767  1.4737 -2.3062 -0.6078
  842MOL0     H16133   0.875   3.228   5.874 -1.4981 -0.3033  1.5727
  842MOL0     H16134   0.933   3.187   6.038  1.7119  1.9804  0.5545
  842MOL0     H16135   1.146   3.261   6.014 -0.5720  0.7745  1.2100
  842MOL0     H16136   1.149   3.255   5.838 -0.5868 -1.7641 -0.2900
  842MOL0     H16137   1.001   3.455   6.005 -2.0452 -3.2807  1.1151
  842MOL0     H16138   0.955   3.435   5.835  2.0653  1.2630 -0.9478
  842MOL0     H16139   1.232   3.516   5.948  1.6024  1.3399 -1.3564
  842MOL0     H16140   1.185   3.510   5.776 -1.5314  1.9545 -1.0713
  842MOL0     H16141   1.039   3.694   5.973  1.7778 -1.5873  1.2598
  842MOL0     H16142   1.060   3.701   5.786  1.5079  1.4751 -0.8423
  842MOL0     H16143   1.192   3.861   5.929  1.4286 -0.6515  1.0131
  842MOL0     H16144   1.294   3.719   5.955  1.5941  0.6027 -0.9586
  842MOL0     H16145   1.336   4.008   5.803 -0.2537  0.0461  0.8794
  842MOL0     H16146   1.464   4.106   5.522  1.3557  0.6056 -0.1080
  842MOL0     H16147   1.569   3.973   5.486 -2.5268  1.1658 -3.0668
  842MOL0     H16148   1.684   4.146   5.615  1.1583 -2.1604 -2.0525
  842MOL0     H16149   1.553   4.150   5.744  0.6537  1.8938 -0.9505
  842MOL0     H16150   1.756   4.029   5.825  1.6397 -1.6926 -0.9646
  842MOL0     H16151   1.635   3.904   5.803  0.7281  0.4519  1.2682
  842MOL0     H16152   1.852   3.833   5.730  0.5264  0.0249  1.5481
  842MOL0     H16153   1.735   3.843   5.590  1.3993  1.3809 -1.3465
  842MOL0     H16154   1.908   4.187   5.748  0.3568  0.7808  0.0142
  842MOL0     H16155   2.137   4.302   5.960 -1.7138  0.8909  0.5325
  842MOL0     H16156   1.993   4.353   5.866 -0.5464 -1.3152  2.5598
  842MOL0     H16157   2.153   4.380   5.802 -3.3436 -0.7780 -3.1854
  842MOL0     H16158   2.558   4.049   5.982 -1.5097  1.1479 -1.3529
  842MOL0     H16159   2.791   4.100   6.080 -0.0444  1.8569 -0.2803
  842MOL0     H16160   3.123   4.116   5.803 -3.5199  0.0646  1.2805
  842MOL0     H16161   3.108   4.298   5.790 -2.4806 -0.4722 -1.0703
  842MOL0     H16162   3.202   4.306   6.015 -0.3845 -1.8933  1.9139
  842MOL0     H16163   3.263   4.143   5.995  1.4752  0.5393  0.8992
  842MOL0     H16164   3.419   4.327   5.943 -0.9062 -1.5698  0.9237
  842MOL0     H16165   3.323   4.378   5.798  0.4857 -1.4884 -2.4912
  842MOL0     H16166   3.387   4.175   5.689  2.0844 -0.5389 -0.9836
  842MOL0     H16167   3.431   4.093   5.837  1.0903 -0.7109 -3.4585
  842MOL0     H16168   3.573   4.330   5.709 -1.0746 -0.3974 -0.8937
  842MOL0     H16169   3.611   4.271   5.867  0.2704  1.0147  0.4167
  842MOL0     H16170   3.611   4.109   5.600 -0.9936  2.1952 -0.5964
  842MOL0     H16171   3.636   4.041   5.764 -1.6140 -1.3848 -1.9713
  842MOL0     H16172   3.832   4.169   5.813  0.5297 -1.6316 -0.3573
  842MOL0     H16173   3.822   4.251   5.653 -1.2443  0.0433 -1.1492
  842MOL0     H16174   3.987   4.087   5.623  0.8321 -1.0972  0.7189
  842MOL0     H16175   3.851   4.013   5.567 -0.5594 -1.7316  0.5577
  842MOL0     H16176   2.916   4.246   5.696  0.3324 -0.6162 -0.3034
  842MOL0     H16177   2.684   4.213   5.603  0.7211 -2.8267 -1.7474
  842MOL0     H16178   2.315   3.938   5.671  1.8499  2.0509  0.3531
  842MOL0     H16179   2.116   3.855   5.572 -2.0497 -0.0852  0.5002
  842MOL0     H16180   0.751   2.728   5.655  0.7513 -0.5365  0.5966
  842MOL0     H16181   0.572   2.575   5.670  0.9424 -1.0032 -0.5623
  842MOL0     H16182   0.177   2.446   5.761 -2.7555  0.8294  0.3110
  842MOL0     H16183  -0.010   2.287   5.749  0.0807 -1.8854 -0.9098
  842MOL0     H16184  -0.168   1.946   5.721 -0.1621  0.7361  1.3486
  842MOL0     H16185  -0.177   2.123   5.742 -2.1214 -1.0713  0.7049
  842MOL0     H16186  -0.005   1.975   5.543 -1.4276 -2.3397  2.6291
  842MOL0     H16187  -0.018   2.152   5.536 -2.1571  1.0428 -0.6813
  842MOL0     H16188  -0.145   1.952   5.398  1.0646  1.2773 -1.8955
  842MOL0     H16189  -0.275   2.019   5.501 -2.5326  1.9557 -3.0556
  842MOL0     H16190  -0.246   2.234   5.390 -1.9331  0.7608 -1.9063
  842MOL0     H16191  -0.272   2.114   5.273  0.3794  4.1852 -1.4947
  842MOL0     H16192   0.122   2.179   5.183  0.1576 -1.7755  0.0377
  842MOL0     H16193   0.247   1.964   5.853  2.0449  0.5699  3.1375
  842MOL0     H16194   0.554   2.178   5.914 -1.9393  1.2806  0.4187
  842MOL0     H16195   0.463   2.057   5.989  0.2489 -1.7444 -0.2600
  842MOL0     H16196   0.524   2.023   5.828  0.6602 -0.5781 -1.0312
  843MOL0     O16197   6.838   6.678   7.901 -0.3469  0.0776 -0.6104
  843MOL0     C16198   6.757   6.673   7.992  0.0021  0.3439 -0.2723
  843MOL0     O16199   6.795   6.648   8.115 -0.1734  0.1250 -0.1392
  843MOL0     C16200   6.924   6.653   8.169  0.2949  0.0110  0.3360
  843MOL0     C16201   6.961   6.554   8.254  0.3485  1.2079 -0.0457
  843MOL0     C16202   7.088   6.552   8.314 -0.0292 -0.6331  0.4694
  843MOL0     C16203   7.176   6.654   8.283 -0.3374 -0.3288  0.1105
  843MOL0     O16204   7.296   6.645   8.340 -0.0915 -0.2978 -0.0687
  843MOL0     C16205   7.386   6.751   8.308  0.9482  0.5620  0.2038
  843MOL0     C16206   7.514   6.720   8.374 -0.3516  0.2944 -0.1256
  843MOL0     C16207   7.584   6.853   8.410 -0.3014 -0.5248 -0.0108
  843MOL0     C16208   7.714   6.826   8.488 -0.1780  0.4113  0.0438
  843MOL0     C16209   7.793   6.945   8.554  0.0326  0.4946 -0.1693
  843MOL0     C16210   7.836   7.048   8.457  0.2751 -0.3100  0.1100
  843MOL0     C16211   7.931   6.983   8.354  1.0199 -0.0398 -0.3984
  843MOL0     C16212   7.999   7.089   8.278  0.4612 -0.2445  0.2508
  843MOL0     N16213   8.103   7.168   8.350 -0.7835  0.3452 -0.2368
  843MOL0     C16214   8.204   7.114   8.427  0.3637 -0.0793 -0.3519
  843MOL0     C16215   8.272   7.225   8.467 -0.4958  0.9394 -0.3695
  843MOL0     C16216   8.411   7.210   8.535  1.1705 -0.5673  1.2765
  843MOL0     C16217   8.469   7.329   8.620 -0.0376  0.0830 -0.4811
  843MOL0     C16218   8.509   7.455   8.537 -0.0625 -0.2872 -0.4241
  843MOL0     C16219   8.578   7.566   8.631 -0.2726 -0.9716 -0.7651
  843MOL0     O16220   8.641   7.666   8.547  0.2522  1.0011 -0.4110
  843MOL0     C16221   8.751   7.731   8.594  0.0648  0.2040 -0.8453
  843MOL0     C16222   8.875   7.710   8.531  0.5116 -0.5574 -0.9357
  843MOL0     C16223   8.990   7.786   8.561 -0.1186 -0.2655  0.4769
  843MOL0     C16224   9.120   7.749   8.490  0.1022  0.2465 -0.2186
  843MOL0     C16225   8.976   7.897   8.656  0.3403 -0.7293  0.2819
  843MOL0     C16226   9.083   7.991   8.686 -0.3491  0.3484 -0.5174
  843MOL0     O16227   9.216   7.944   8.695 -0.1271  0.2197 -0.0547
  843MOL0     C16228   9.311   8.040   8.714  0.4174  0.3263 -1.0817
  843MOL0     C16229   9.297   8.138   8.821 -0.5354  0.1240  0.0957
  843MOL0     C16230   9.397   8.235   8.842 -0.0397  0.1536 -0.3909
  843MOL0     C16231   9.518   8.230   8.773 -0.4955 -0.5315  0.5683
  843MOL0     O16232   9.615   8.315   8.822  0.0596 -0.2044 -0.4224
  843MOL0     C16233   9.743   8.315   8.758  0.7431 -0.9280 -0.3248
  843MOL0     C16234   9.752   8.417   8.641 -0.3783  0.5847 -0.3909
  843MOL0     C16235   9.905   8.453   8.623 -0.1886 -0.5905  0.4198
  843MOL0     C16236   9.958   8.563   8.717  0.3127  0.0590 -0.8153
  843MOL0     C16237  10.097   8.607   8.680  0.6844  0.3709 -0.4171
  843MOL0     C16238  10.165   8.687   8.793 -0.7057 -0.2508 -0.6495
  843MOL0     C16239  10.312   8.702   8.764 -0.0388 -0.1469  0.4523
  843MOL0     C16240  10.392   8.675   8.893 -0.4474 -0.3535  0.2899
  843MOL0    Cl16241  10.571   8.687   8.841  0.4997  0.3066  0.2224
  843MOL0     C16242   9.533   8.137   8.674  0.1395 -0.1925  0.0693
  843MOL0     C16243   9.433   8.039   8.645 -1.1153 -0.0967 -0.3052
  843MOL0     O16244   9.043   8.107   8.709  0.2250 -0.5763  1.0707
  843MOL0     C16245   8.846   7.914   8.720  0.2968 -0.9157 -0.3857
  843MOL0     C16246   8.738   7.821   8.691 -0.6056 -0.6521  0.2184
  843MOL0     N16247   8.221   7.343   8.418  0.3479 -0.2004 -0.8131
  843MOL0     N16248   8.125   7.302   8.350  0.3789  0.1893  0.2459
  843MOL0     C16249   7.141   6.757   8.187  0.7063  0.2737 -0.0208
  843MOL0     C16250   7.011   6.758   8.131 -0.4296  1.2239 -0.2903
  843MOL0     C16251   6.616   6.667   7.956  0.0523  0.2240  0.6075
  843MOL0     C16252   6.535   6.596   8.048 -0.4922  0.1636 -0.3867
  843MOL0     C16253   6.392   6.562   8.025  0.0367  0.8529 -0.0273
  843MOL0     C16254   6.337   6.613   7.909  0.0818 -0.2661  0.2684
  843MOL0     O16255   6.217   6.582   7.863 -0.4204 -0.6340  0.1719
  843MOL0     C16256   6.111   6.653   7.932 -0.1524  0.3416  0.1692
  843MOL0     C16257   6.052   6.551   8.022 -0.0822  0.0571 -0.8466
  843MOL0     C16258   5.906   6.601   8.071  0.4268 -0.1002  1.2892
  843MOL0     C16259   5.821   6.491   8.120 -0.5646  0.1141  0.5169
  843MOL0     C16260   5.797   6.402   8.006  0.0799 -0.5135  0.0896
  843MOL0     C16261   5.769   6.324   7.913 -0.2337  0.1678 -0.3426
  843MOL0     C16262   6.412   6.690   7.825  0.0776 -0.4786  0.6469
  843MOL0     C16263   6.547   6.720   7.848 -0.2261  0.0725  0.6785
  843MOL0     C16264   6.596   6.822   7.745 -0.1822  1.0790  0.2560
  843MOL0     H16265   6.886   6.487   8.295  0.2575  1.5153  0.2955
  843MOL0     H16266   7.125   6.486   8.392  5.6197  0.4162 -0.8779
  843MOL0     H16267   7.349   6.850   8.337 -1.2215 -0.3973  0.8497
  843MOL0     H16268   7.395   6.756   8.199  1.7977  2.2098  0.3036
  843MOL0     H16269   7.493   6.659   8.462 -1.7606 -0.1638 -0.7541
  843MOL0     H16270   7.579   6.659   8.311  1.1716  1.2446  0.4648
  843MOL0     H16271   7.608   6.914   8.322 -1.6791  0.2841  0.1486
  843MOL0     H16272   7.514   6.913   8.469  0.1617 -1.3837  1.4498
  843MOL0     H16273   7.689   6.759   8.571 -0.1716  0.9288  0.4672
  843MOL0     H16274   7.769   6.760   8.421  0.5548 -0.2257  1.2369
  843MOL0     H16275   7.875   6.897   8.608 -0.0712 -0.2941 -0.7041
  843MOL0     H16276   7.731   7.004   8.622  2.0466  3.6495 -0.8481
  843MOL0     H16277   7.753   7.097   8.405 -2.0829  0.7517  4.4328
  843MOL0     H16278   7.890   7.124   8.513  3.1275 -2.9764  1.2480
  843MOL0     H16279   7.866   6.917   8.295 -0.9482 -0.1633  1.7723
  843MOL0     H16280   8.001   6.920   8.408  3.4540  2.0034 -1.0080
  843MOL0     H16281   8.040   7.043   8.188 -1.2201  1.4262 -1.4944
  843MOL0     H16282   7.923   7.158   8.239  0.3419  0.4439  1.6485
  843MOL0     H16283   8.233   7.012   8.451  0.6235  0.2323  0.6993
  843MOL0     H16284   8.474   7.202   8.446 -0.8148 -0.4288 -0.2034
  843MOL0     H16285   8.415   7.119   8.596  1.3868 -0.4020  1.5067
  843MOL0     H16286   8.396   7.357   8.697 -1.6563 -1.1568 -1.4848
  843MOL0     H16287   8.559   7.299   8.674 -1.0474  0.9848  1.8285
  843MOL0     H16288   8.584   7.428   8.463  3.2886  3.9258  1.0418
  843MOL0     H16289   8.416   7.484   8.487  1.5966 -2.3508 -5.2549
  843MOL0     H16290   8.506   7.608   8.702 -0.0990  2.0084 -2.2263
  843MOL0     H16291   8.654   7.521   8.695 -2.4990  1.4051  4.0635
  843MOL0     H16292   8.885   7.627   8.462  1.9770 -0.8094 -0.4566
  843MOL0     H16293   9.109   7.659   8.429  2.0576  0.2212 -0.5966
  843MOL0     H16294   9.197   7.748   8.568 -0.9871  2.7832  1.0096
  843MOL0     H16295   9.147   7.832   8.424 -3.0135 -1.4079 -3.9504
  843MOL0     H16296   9.216   8.136   8.893  1.2387  1.4215  2.2722
  843MOL0     H16297   9.387   8.313   8.917 -0.5793  0.8616 -1.1758
  843MOL0     H16298   9.821   8.343   8.829 -1.8167  1.8093  1.6623
  843MOL0     H16299   9.769   8.213   8.730  1.2065 -0.6430 -0.9637
  843MOL0     H16300   9.714   8.368   8.550 -1.0685  0.7673 -0.2058
  843MOL0     H16301   9.692   8.505   8.668 -1.1225  0.0894 -0.3879
  843MOL0     H16302   9.924   8.480   8.519 -1.9844  3.8007  1.0186
  843MOL0     H16303   9.955   8.357   8.639  1.5542  0.7023  3.6597
  843MOL0     H16304   9.944   8.520   8.816 -1.0884 -1.4219 -1.6054
  843MOL0     H16305   9.890   8.649   8.720 -0.8894 -0.8910  0.9158
  843MOL0     H16306  10.163   8.524   8.654  3.8923  2.7528 -0.5713
  843MOL0     H16307  10.099   8.658   8.583 -2.3064  0.3409 -0.5878
  843MOL0     H16308  10.146   8.634   8.887  2.9189  1.8428  1.4667
  843MOL0     H16309  10.116   8.783   8.808 -0.3064  0.2428 -2.2466
  843MOL0     H16310  10.333   8.805   8.732  1.6718  0.0901  2.1518
  843MOL0     H16311  10.352   8.632   8.690  2.2612 -0.5669  1.9773
  843MOL0     H16312  10.374   8.571   8.923  0.6901 -0.6587 -0.0360
  843MOL0     H16313  10.361   8.745   8.971 -3.1842  0.0086 -0.9971
  843MOL0     H16314   9.622   8.132   8.612  0.1037  3.4911 -0.4969
  843MOL0     H16315   9.445   7.966   8.565  1.0061 -0.6040  0.3957
  843MOL0     H16316   8.832   7.991   8.796  1.5447 -0.9080 -0.1468
  843MOL0     H16317   8.643   7.848   8.737  0.1563  0.2869  1.3107
  843MOL0     H16318   7.202   6.842   8.159 -1.3181  2.0725  0.8290
  843MOL0     H16319   6.978   6.830   8.057  0.7759  1.5398 -0.5390
  843MOL0     H16320   6.583   6.557   8.137  1.4909  2.8508 -0.1486
  843MOL0     H16321   6.337   6.503   8.098  3.2211  2.5121  4.0605
  843MOL0     H16322   6.150   6.741   7.983  2.1663 -1.2116  1.2546
  843MOL0     H16323   6.032   6.680   7.860  0.3965  1.8742  0.1088
  843MOL0     H16324   6.116   6.536   8.109 -0.1819 -0.4436 -0.8540
  843MOL0     H16325   6.054   6.452   7.974 -1.5746  0.3813 -1.6476
  843MOL0     H16326   5.918   6.683   8.142  2.0216  1.6782 -0.8820
  843MOL0     H16327   5.860   6.660   7.991  3.0825 -0.5290 -0.6909
  843MOL0     H16328   5.725   6.527   8.157 -0.3709  0.9491  0.2306
  843MOL0     H16329   5.871   6.443   8.205 -0.6644  1.7472  1.5442
  843MOL0     H16330   5.748   6.244   7.845  1.1190 -0.3316 -0.2128
  843MOL0     H16331   6.363   6.738   7.741  1.1916  0.1292  0.3336
  843MOL0     H16332   6.705   6.828   7.753  0.1611 -0.3418 -2.2730
  843MOL0     H16333   6.587   6.797   7.639 -0.4183 -1.8785  0.8870
  843MOL0     H16334   6.543   6.917   7.761  1.2830  1.7299  1.5216
  844MOL0     O16335   4.107   7.723   5.484  0.8643 -0.5248  0.2411
  844MOL0     C16336   4.038   7.815   5.517 -0.3422  0.1182  0.5998
  844MOL0     O16337   4.052   7.885   5.638 -0.2906 -0.0839 -0.2523
  844MOL0     C16338   4.156   7.843   5.729  0.3245 -0.0548  0.3952
  844MOL0     C16339   4.285   7.902   5.738  0.2880  0.2700  0.5827
  844MOL0     C16340   4.378   7.855   5.833 -1.0669 -0.6217  0.0900
  844MOL0     C16341   4.347   7.755   5.922  1.1351 -0.1111  0.4494
  844MOL0     O16342   4.418   7.709   6.029 -0.5620 -0.7138 -0.1116
  844MOL0     C16343   4.558   7.758   6.034 -0.4269 -0.1852 -0.3256
  844MOL0     C16344   4.638   7.704   6.157  0.1783 -0.2139 -0.8321
  844MOL0     C16345   4.566   7.748   6.279  0.2176  0.3308  0.3517
  844MOL0     C16346   4.625   7.665   6.398  0.4771  0.1823 -0.0010
  844MOL0     C16347   4.778   7.673   6.417 -0.2530  0.0307  0.2248
  844MOL0     C16348   4.836   7.616   6.544  0.2191 -0.1370 -1.2094
  844MOL0     C16349   4.963   7.683   6.599  0.4164  0.3154 -1.1672
  844MOL0     C16350   5.091   7.687   6.504  0.0815 -0.5175  0.2034
  844MOL0     N16351   5.204   7.757   6.566  0.2492  0.0209  0.3335
  844MOL0     C16352   5.261   7.878   6.530 -0.6399 -1.2543 -0.0632
  844MOL0     C16353   5.365   7.889   6.610  0.4285  0.0718 -0.3441
  844MOL0     C16354   5.468   7.999   6.629  0.7765  0.3518 -0.5633
  844MOL0     C16355   5.572   7.977   6.515  0.1179 -0.3011  0.4290
  844MOL0     C16356   5.650   7.845   6.529 -0.6363  0.0485  0.9348
  844MOL0     C16357   5.707   7.808   6.380 -0.8235 -0.1924  1.0667
  844MOL0     O16358   5.628   7.830   6.268  0.1960  0.5323 -0.2997
  844MOL0     C16359   5.506   7.771   6.263  0.6776  0.6168 -0.4001
  844MOL0     C16360   5.434   7.836   6.172  0.5373  0.6170  0.4025
  844MOL0     C16361   5.308   7.798   6.132  0.2568 -0.0263  0.5614
  844MOL0     C16362   5.237   7.880   6.017  0.4881  0.9473 -0.1707
  844MOL0     C16363   5.259   7.671   6.185 -0.1741 -0.2940  0.2065
  844MOL0     C16364   5.127   7.606   6.150 -0.2793  0.0761  0.2449
  844MOL0     O16365   5.098   7.469   6.200  0.5251 -0.5435  0.9404
  844MOL0     C16366   4.967   7.429   6.180 -0.0745 -0.6084 -0.9599
  844MOL0     C16367   4.892   7.449   6.055  0.1135 -0.5131 -0.2496
  844MOL0     C16368   4.762   7.396   6.048  0.4577  0.3252 -0.3174
  844MOL0     C16369   4.705   7.323   6.154  0.0961  0.3975 -0.3545
  844MOL0     O16370   4.579   7.263   6.157  0.1806  0.4915 -0.5120
  844MOL0     C16371   4.495   7.307   6.051 -1.3220  0.8754  0.7367
  844MOL0     C16372   4.347   7.278   6.101  0.6383 -0.3818  0.2391
  844MOL0     C16373   4.292   7.381   6.201 -0.7006  0.0145  1.4733
  844MOL0     C16374   4.141   7.357   6.216  0.2784  0.0202 -0.2695
  844MOL0     C16375   4.087   7.439   6.332 -0.8317  0.2598  0.4265
  844MOL0     C16376   3.938   7.423   6.332  0.5187  0.0823  0.1573
  844MOL0     C16377   3.870   7.466   6.462 -0.7308  0.3845  0.0266
  844MOL0     C16378   3.908   7.380   6.579 -0.5790  0.2045 -0.1758
  844MOL0    Cl16379   3.807   7.420   6.719 -0.2308  0.3303 -0.1268
  844MOL0     C16380   4.783   7.307   6.264  0.4003  0.1685  0.2959
  844MOL0     C16381   4.921   7.351   6.277  0.4065  0.5118  0.0742
  844MOL0     O16382   5.051   7.673   6.079 -0.1677 -0.7698  0.3683
  844MOL0     C16383   5.332   7.603   6.286 -0.1726  0.2855 -0.5464
  844MOL0     C16384   5.458   7.654   6.326 -0.1170  0.1622  0.4025
  844MOL0     N16385   5.373   7.785   6.703  0.4313  0.2979 -0.1116
  844MOL0     N16386   5.274   7.712   6.675 -0.4024 -0.3584 -0.6240
  844MOL0     C16387   4.220   7.693   5.900 -0.2575  0.2415 -0.5838
  844MOL0     C16388   4.123   7.740   5.809 -0.4237  0.4153  0.4421
  844MOL0     C16389   3.934   7.857   5.418 -0.1362  0.2781 -0.7661
  844MOL0     C16390   3.815   7.905   5.474  0.3417  0.1650 -0.5130
  844MOL0     C16391   3.711   7.935   5.388  0.6219 -0.0834  0.0818
  844MOL0     C16392   3.723   7.924   5.249  0.4658  1.3222 -0.0325
  844MOL0     O16393   3.621   7.929   5.159  0.3078 -0.1426  0.3029
  844MOL0     C16394   3.486   7.947   5.208 -0.0063  0.1847 -0.3734
  844MOL0     C16395   3.386   7.912   5.098  0.5585 -0.4089  0.4574
  844MOL0     C16396   3.373   8.030   4.998 -0.1154  0.9437 -0.2177
  844MOL0     C16397   3.290   7.983   4.880 -0.1798 -0.3072  0.0835
  844MOL0     C16398   3.277   8.091   4.787  0.8461 -0.9132 -0.3588
  844MOL0     C16399   3.261   8.191   4.720  0.1578 -0.4048  0.0015
  844MOL0     C16400   3.838   7.876   5.198 -0.1995 -0.3730  0.4483
  844MOL0     C16401   3.947   7.845   5.277 -0.4800  0.5079 -0.5713
  844MOL0     C16402   4.084   7.824   5.214  0.0265 -0.0243  0.8024
  844MOL0     H16403   4.307   7.981   5.667  0.9203 -0.6813 -0.3205
  844MOL0     H16404   4.473   7.899   5.859 -1.7359  0.4123  0.8728
  844MOL0     H16405   4.559   7.867   6.049  0.4180 -0.3325  0.9384
  844MOL0     H16406   4.612   7.734   5.942  0.6753  0.4680  0.1234
  844MOL0     H16407   4.629   7.595   6.150  1.3541 -0.3267 -0.7430
  844MOL0     H16408   4.743   7.735   6.156  0.3593 -0.8118 -2.4187
  844MOL0     H16409   4.584   7.851   6.310  1.0787 -0.6810  3.5391
  844MOL0     H16410   4.458   7.732   6.271  0.1387  1.0525 -0.2174
  844MOL0     H16411   4.568   7.687   6.488 -0.7837 -2.7030  0.0292
  844MOL0     H16412   4.602   7.560   6.377 -1.4656  0.6354 -0.3471
  844MOL0     H16413   4.800   7.780   6.417 -1.6195  0.3368 -0.7053
  844MOL0     H16414   4.827   7.630   6.328  0.9047 -1.8577  1.6847
  844MOL0     H16415   4.759   7.625   6.621 -1.6153  0.5013 -3.0301
  844MOL0     H16416   4.854   7.511   6.521 -1.3493 -0.4840 -0.9685
  844MOL0     H16417   4.994   7.631   6.690 -0.4855 -0.4430 -1.2731
  844MOL0     H16418   4.932   7.784   6.628  1.5828  0.2873  0.3008
  844MOL0     H16419   5.121   7.583   6.485  2.9414 -0.1803  2.1360
  844MOL0     H16420   5.067   7.736   6.410 -1.2714 -0.9240  0.3128
  844MOL0     H16421   5.238   7.938   6.443  0.1930  1.2214  1.3347
  844MOL0     H16422   5.518   7.979   6.724  0.4092 -2.6433 -0.9157
  844MOL0     H16423   5.427   8.100   6.624  0.0673  0.1211  0.4056
  844MOL0     H16424   5.520   7.984   6.418 -0.2964 -0.6034  0.6270
  844MOL0     H16425   5.635   8.065   6.533 -1.0529  1.1018 -1.8459
  844MOL0     H16426   5.726   7.866   6.605  0.6003  3.5360 -1.0503
  844MOL0     H16427   5.582   7.765   6.558 -2.2971  0.2737 -1.9313
  844MOL0     H16428   5.792   7.878   6.378  0.6292 -1.7339  3.0899
  844MOL0     H16429   5.759   7.712   6.385 -2.8020 -1.3043  1.3727
  844MOL0     H16430   5.476   7.926   6.128 -0.7748  1.1738  0.2323
  844MOL0     H16431   5.308   7.951   5.972 -0.1047  1.1039 -0.8734
  844MOL0     H16432   5.145   7.925   6.054  1.1717  2.4099 -0.1376
  844MOL0     H16433   5.212   7.812   5.935  4.2751 -0.2490 -0.5465
  844MOL0     H16434   4.938   7.503   5.973  0.9802  0.6747  0.9849
  844MOL0     H16435   4.720   7.413   5.950 -0.3471  0.9079  0.1194
  844MOL0     H16436   4.510   7.411   6.019  0.8657 -0.1745 -2.0464
  844MOL0     H16437   4.511   7.245   5.963  1.1040  2.0499  0.2667
  844MOL0     H16438   4.280   7.287   6.015  1.3420 -0.4854 -0.3237
  844MOL0     H16439   4.344   7.182   6.153 -2.6000 -0.8533 -0.6169
  844MOL0     H16440   4.315   7.483   6.168  0.0564  0.0593  2.1201
  844MOL0     H16441   4.349   7.375   6.294  0.0722  2.3914  1.2210
  844MOL0     H16442   4.122   7.249   6.221  3.1026 -0.4847  3.2052
  844MOL0     H16443   4.086   7.383   6.125  0.3043 -1.2228 -0.6681
  844MOL0     H16444   4.148   7.414   6.419  0.4990 -1.4881 -0.9282
  844MOL0     H16445   4.106   7.546   6.315  2.1839 -0.1470  0.6441
  844MOL0     H16446   3.916   7.317   6.316  1.6010 -0.0918 -0.2505
  844MOL0     H16447   3.895   7.480   6.249 -1.0837 -0.1423  0.7886
  844MOL0     H16448   3.763   7.450   6.448 -0.5234 -1.0155 -0.0292
  844MOL0     H16449   3.904   7.567   6.487  1.1872 -0.2684  0.1691
  844MOL0     H16450   4.014   7.391   6.606 -1.3288  2.8518  2.0000
  844MOL0     H16451   3.892   7.274   6.554 -1.8837  0.7615 -1.8832
  844MOL0     H16452   4.745   7.255   6.352 -0.8507 -2.0706 -1.4394
  844MOL0     H16453   4.980   7.320   6.363 -0.7143  3.8654  2.2487
  844MOL0     H16454   5.300   7.519   6.347  0.1376  1.8033  1.8365
  844MOL0     H16455   5.528   7.605   6.394  2.9805  2.3902 -0.9438
  844MOL0     H16456   4.211   7.609   5.969  1.0711  1.7713  1.5993
  844MOL0     H16457   4.031   7.684   5.821  0.9708 -2.3489 -0.9644
  844MOL0     H16458   3.805   7.909   5.582  0.0776  0.5339 -0.5483
  844MOL0     H16459   3.619   7.954   5.442  0.6674  4.7659 -1.0995
  844MOL0     H16460   3.466   7.881   5.293  1.2648  2.3456  1.7193
  844MOL0     H16461   3.459   8.045   5.248 -0.8883  0.9974 -2.7190
  844MOL0     H16462   3.284   7.893   5.132  0.5223 -0.9603  0.0552
  844MOL0     H16463   3.421   7.826   5.040 -0.0663  1.0390 -2.2676
  844MOL0     H16464   3.332   8.116   5.051  0.7139 -0.5612  3.1503
  844MOL0     H16465   3.472   8.052   4.960 -0.0856 -0.7670 -1.2442
  844MOL0     H16466   3.200   7.936   4.920  1.7050 -0.3186  5.0190
  844MOL0     H16467   3.341   7.905   4.822 -0.3387 -0.0379 -0.4225
  844MOL0     H16468   3.255   8.278   4.658  2.2791 -0.5329 -0.4583
  844MOL0     H16469   3.847   7.875   5.090  1.3563  1.1342  0.5182
  844MOL0     H16470   4.099   7.873   5.118 -0.8751 -1.5290 -0.1382
  844MOL0     H16471   4.164   7.876   5.268  0.5703  2.0945 -1.8413
  844MOL0     H16472   4.110   7.718   5.208  1.6921  0.4065 -0.1322
  845MOL0     O16473  10.483   4.534   0.461 -0.6750 -0.5713 -0.0265
  845MOL0     C16474  10.439   4.429   0.502  0.0393  0.4136 -0.1196
  845MOL0     O16475  10.522   4.326   0.563 -0.3389 -0.3533  0.2020
  845MOL0     C16476  10.663   4.344   0.560  1.1365  0.0778 -0.4009
  845MOL0     C16477  10.721   4.286   0.674 -0.2723 -0.1020  0.2229
  845MOL0     C16478  10.858   4.298   0.695 -0.1854 -0.1881 -0.3683
  845MOL0     C16479  10.944   4.359   0.602 -0.3441  0.2941 -0.0307
  845MOL0     O16480  11.084   4.379   0.609  0.0328  0.4509 -0.3080
  845MOL0     C16481  11.151   4.291   0.700  1.0608  0.3395 -0.2764
  845MOL0     C16482  11.308   4.310   0.704 -0.8467 -0.4767  0.0119
  845MOL0     C16483  11.379   4.313   0.569 -0.3885 -0.4684  0.0029
  845MOL0     C16484  11.527   4.317   0.582  0.4699  0.2678  0.3942
  845MOL0     C16485  11.604   4.324   0.448 -0.4390  0.0303 -0.3558
  845MOL0     C16486  11.559   4.444   0.370  0.0643 -0.4150  0.3832
  845MOL0     C16487  11.666   4.504   0.275  0.2197  0.3369 -0.9543
  845MOL0     C16488  11.693   4.413   0.155 -0.2051  0.1189  0.2671
  845MOL0     N16489  11.757   4.488   0.051  0.3672  0.2692  0.2094
  845MOL0     C16490  11.874   4.549   0.057  0.5426 -0.5017  0.0179
  845MOL0     C16491  11.880   4.609  -0.063  0.5366 -0.4229 -0.6943
  845MOL0     C16492  12.008   4.685  -0.106 -0.1274  0.4017 -0.0843
  845MOL0     C16493  12.130   4.583  -0.144  0.9008  0.0346 -0.6210
  845MOL0     C16494  12.233   4.637  -0.237  1.1045  0.5824  0.5424
  845MOL0     C16495  12.345   4.528  -0.265 -0.5703 -0.3363  0.6005
  845MOL0     O16496  12.432   4.509  -0.152 -0.5278  0.3225  0.4814
  845MOL0     C16497  12.552   4.449  -0.177 -0.8686  0.6013  0.0153
  845MOL0     C16498  12.662   4.483  -0.094  0.4576  0.2440 -0.1763
  845MOL0     C16499  12.793   4.446  -0.129 -0.1967 -0.1993 -0.3014
  845MOL0     C16500  12.903   4.505  -0.033  0.5656  0.0630 -0.3321
  845MOL0     C16501  12.819   4.361  -0.239  0.1746  0.2324  0.7748
  845MOL0     C16502  12.958   4.302  -0.276  0.2626  0.1510 -0.1029
  845MOL0     O16503  13.070   4.339  -0.197  0.4254 -0.1765  0.2154
  845MOL0     C16504  13.198   4.308  -0.250 -0.8986 -0.9559  0.2965
  845MOL0     C16505  13.302   4.248  -0.171  0.6029 -0.2890  0.4731
  845MOL0     C16506  13.433   4.244  -0.219 -0.5153 -0.4819 -0.2148
  845MOL0     C16507  13.468   4.294  -0.344 -0.4567  0.6514 -0.2333
  845MOL0     O16508  13.595   4.278  -0.403  0.1702 -0.4597 -0.0006
  845MOL0     C16509  13.709   4.277  -0.312  0.0132  0.5988  0.5004
  845MOL0     C16510  13.829   4.289  -0.402 -0.0940 -0.4761 -0.6092
  845MOL0     C16511  13.955   4.317  -0.314 -0.8092  0.4957 -0.8743
  845MOL0     C16512  14.073   4.347  -0.389  0.1306 -0.4323  0.5923
  845MOL0     C16513  14.139   4.217  -0.451  0.3963 -1.0686 -0.3296
  845MOL0     C16514  14.287   4.244  -0.492 -0.2344 -0.4569  0.5378
  845MOL0     C16515  14.341   4.121  -0.559  0.0875  0.6853 -0.2011
  845MOL0     C16516  14.492   4.137  -0.591  0.4305  0.2824  0.4057
  845MOL0    Cl16517  14.542   4.042  -0.733  0.2003 -0.0633  0.3911
  845MOL0     C16518  13.366   4.348  -0.426  0.1628  1.1033  0.3800
  845MOL0     C16519  13.236   4.353  -0.380  0.1292 -0.8445  0.1760
  845MOL0     O16520  12.962   4.232  -0.377  0.1899 -0.8070 -0.9825
  845MOL0     C16521  12.706   4.320  -0.313  0.6230  0.3033  0.5889
  845MOL0     C16522  12.576   4.358  -0.285  0.2072  0.4095 -0.1189
  845MOL0     N16523  11.767   4.573  -0.134 -0.6891 -0.0876 -0.4188
  845MOL0     N16524  11.689   4.510  -0.066 -0.0177  0.9098 -0.2277
  845MOL0     C16525  10.889   4.412   0.489 -0.0604 -0.4687  0.2142
  845MOL0     C16526  10.749   4.396   0.460  0.1661  0.8924  0.3079
  845MOL0     C16527  10.292   4.398   0.519 -0.7294 -0.3141 -0.6903
  845MOL0     C16528  10.259   4.258   0.493  0.0444 -0.8825 -0.8737
  845MOL0     C16529  10.127   4.231   0.473 -0.5031  0.6937  0.8837
  845MOL0     C16530  10.026   4.336   0.480  0.7185 -0.2128 -0.2404
  845MOL0     O16531   9.892   4.316   0.472  0.1394  0.2277 -0.2877
  845MOL0     C16532   9.857   4.210   0.559 -0.3191 -0.4105  0.5733
  845MOL0     C16533   9.716   4.245   0.595  0.6128  0.7679  0.5889
  845MOL0     C16534   9.647   4.130   0.675  0.3785  1.1151  0.6166
  845MOL0     C16535   9.557   4.183   0.791  0.5245  0.5905 -0.7790
  845MOL0     C16536   9.506   4.070   0.866  0.4391  0.5283 -0.0466
  845MOL0     C16537   9.462   3.976   0.935  0.1254  0.6514 -0.0487
  845MOL0     C16538  10.066   4.472   0.497  0.2538  0.6822  0.3300
  845MOL0     C16539  10.192   4.502   0.521  0.1877 -0.0312 -0.0652
  845MOL0     C16540  10.224   4.647   0.558 -0.3502 -0.0809  0.1479
  845MOL0     H16541  10.660   4.238   0.749  1.3661 -0.6817  1.2472
  845MOL0     H16542  10.896   4.271   0.793  0.5219  1.3049 -0.1988
  845MOL0     H16543  11.134   4.187   0.669 -0.2693 -0.0413  1.5510
  845MOL0     H16544  11.114   4.292   0.803  0.3838  1.6864 -0.5034
  845MOL0     H16545  11.325   4.407   0.752 -0.1793 -1.8771  2.8252
  845MOL0     H16546  11.343   4.225   0.763  2.2179 -0.9276 -2.2627
  845MOL0     H16547  11.347   4.229   0.505 -1.7037 -0.7177  0.9446
  845MOL0     H16548  11.352   4.403   0.514  2.6230  1.8556  2.0410
  845MOL0     H16549  11.570   4.402   0.636 -0.1349  0.1408  1.0873
  845MOL0     H16550  11.551   4.223   0.632 -0.2553  0.3268  0.8720
  845MOL0     H16551  11.577   4.235   0.391 -0.7225  0.5337 -1.0128
  845MOL0     H16552  11.712   4.317   0.468 -0.2621 -0.4756 -1.4157
  845MOL0     H16553  11.468   4.433   0.309  0.5354  1.1666 -0.6504
  845MOL0     H16554  11.532   4.526   0.437 -1.4739 -0.5282 -0.0531
  845MOL0     H16555  11.755   4.511   0.337  0.0838 -3.2504 -0.1621
  845MOL0     H16556  11.632   4.604   0.247 -1.4961  1.0676  3.0496
  845MOL0     H16557  11.728   4.312   0.178 -1.5582 -0.9743 -2.1190
  845MOL0     H16558  11.597   4.380   0.116  2.2193 -3.4566 -3.4374
  845MOL0     H16559  11.955   4.545   0.130  0.5334 -1.9924 -0.0193
  845MOL0     H16560  12.051   4.757  -0.036  0.3263 -1.5359  1.7466
  845MOL0     H16561  11.984   4.738  -0.199  0.9080 -1.3514 -1.4332
  845MOL0     H16562  12.183   4.553  -0.053  0.3427 -2.1154 -0.9384
  845MOL0     H16563  12.093   4.490  -0.188  0.8425 -0.8650  1.2274
  845MOL0     H16564  12.184   4.663  -0.331  2.0290  2.9538  0.6470
  845MOL0     H16565  12.275   4.730  -0.198 -2.1571  0.9885  3.6145
  845MOL0     H16566  12.314   4.430  -0.305  0.4697 -1.8305  3.2026
  845MOL0     H16567  12.400   4.564  -0.352 -1.9453 -1.3863 -0.7709
  845MOL0     H16568  12.642   4.554  -0.014  0.2552  0.6739 -0.6029
  845MOL0     H16569  12.972   4.570  -0.088  0.0656 -0.3135 -1.4442
  845MOL0     H16570  12.957   4.424   0.016 -0.1856 -0.7633 -0.8374
  845MOL0     H16571  12.850   4.565   0.042 -1.8009  0.9293 -2.5121
  845MOL0     H16572  13.278   4.218  -0.070 -1.0989  0.7014  0.4009
  845MOL0     H16573  13.509   4.186  -0.167 -0.3355  0.2824  0.4084
  845MOL0     H16574  13.696   4.363  -0.247  2.1009  1.1056  0.3448
  845MOL0     H16575  13.705   4.182  -0.257 -1.6549 -0.9203 -1.9986
  845MOL0     H16576  13.849   4.195  -0.454  2.5301 -0.4546  0.2275
  845MOL0     H16577  13.821   4.379  -0.464 -2.1755  1.5985  2.3641
  845MOL0     H16578  13.968   4.230  -0.250 -1.3418 -1.0823 -2.8108
  845MOL0     H16579  13.930   4.403  -0.251  1.1021  0.6194 -0.1952
  845MOL0     H16580  14.146   4.405  -0.330 -1.4727  1.3834  0.8895
  845MOL0     H16581  14.053   4.424  -0.464  0.4066 -0.8008  0.1325
  845MOL0     H16582  14.142   4.130  -0.385 -0.7441  0.0779  1.3373
  845MOL0     H16583  14.090   4.187  -0.544 -2.4183 -2.5990  1.5017
  845MOL0     H16584  14.346   4.273  -0.405 -0.6369  0.1004  0.6336
  845MOL0     H16585  14.299   4.328  -0.561  2.8112 -1.4161 -0.2443
  845MOL0     H16586  14.280   4.095  -0.646 -2.4697  0.0606  1.6518
  845MOL0     H16587  14.327   4.032  -0.497  3.8713 -0.5175 -0.8074
  845MOL0     H16588  14.557   4.122  -0.504 -0.1923  2.1529  1.2478
  845MOL0     H16589  14.514   4.242  -0.612  3.6462  0.9302  5.3185
  845MOL0     H16590  13.376   4.380  -0.529 -1.2416  1.0877  0.2245
  845MOL0     H16591  13.152   4.384  -0.441 -0.2887 -2.7762 -0.3075
  845MOL0     H16592  12.720   4.263  -0.405  2.5864  1.7754 -0.0979
  845MOL0     H16593  12.503   4.346  -0.364  0.2031 -0.6757  0.0400
  845MOL0     H16594  10.943   4.462   0.410 -1.5416 -0.8379 -1.0733
  845MOL0     H16595  10.698   4.432   0.371 -1.4693 -0.9854  0.4198
  845MOL0     H16596  10.335   4.182   0.481  1.3869 -0.0291  1.5135
  845MOL0     H16597  10.101   4.127   0.455 -0.9332  1.1478 -1.4693
  845MOL0     H16598   9.874   4.112   0.512  1.1034  0.9406 -1.9691
  845MOL0     H16599   9.908   4.202   0.655 -0.9682 -2.5554  0.8007
  845MOL0     H16600   9.660   4.271   0.505  1.1688 -1.2303 -0.4076
  845MOL0     H16601   9.726   4.335   0.657  0.5020  2.4509 -1.7049
  845MOL0     H16602   9.600   4.060   0.605  3.4811 -2.6131  1.9032
  845MOL0     H16603   9.719   4.066   0.727  0.4666  0.7079 -0.0009
  845MOL0     H16604   9.477   4.248   0.754 -0.4574  1.3203  2.3405
  845MOL0     H16605   9.628   4.229   0.862 -0.9520 -1.1165  1.9862
  845MOL0     H16606   9.430   3.907   1.011  2.1985 -0.1932  0.1029
  845MOL0     H16607   9.994   4.552   0.485  1.8772  2.0802 -0.3585
  845MOL0     H16608  10.251   4.648   0.664 -1.0382  0.3768  0.3275
  845MOL0     H16609  10.295   4.701   0.495 -0.8577  1.1224  0.5770
  845MOL0     H16610  10.132   4.705   0.547 -0.5493 -0.4666 -0.2598
  846MOL0     O16611   0.466   9.496   5.587 -0.2693  0.7783  0.4772
  846MOL0     C16612   0.453   9.444   5.473  0.4471 -0.2723  0.3920
  846MOL0     O16613   0.326   9.405   5.419 -0.2958  0.7363  0.1608
  846MOL0     C16614   0.225   9.409   5.509  0.5519 -1.0970 -1.0021
  846MOL0     C16615   0.184   9.520   5.584  0.1733  0.2788  0.1657
  846MOL0     C16616   0.071   9.515   5.671 -0.4471 -0.1182 -0.5825
  846MOL0     C16617   0.008   9.390   5.689 -0.6835  0.2323  0.0702
  846MOL0     O16618  -0.100   9.405   5.783  0.3040 -0.0592 -0.4911
  846MOL0     C16619  -0.196   9.298   5.791 -1.0221  0.2611 -0.5250
  846MOL0     C16620  -0.326   9.318   5.877 -0.8867 -0.0179  0.7070
  846MOL0     C16621  -0.428   9.387   5.784 -0.6997  0.1195 -0.2809
  846MOL0     C16622  -0.566   9.387   5.847  0.8737  0.0432  0.7059
  846MOL0     C16623  -0.682   9.457   5.757 -0.0221 -0.6042 -0.6609
  846MOL0     C16624  -0.677   9.608   5.763  0.0005 -0.9188  0.3214
  846MOL0     C16625  -0.749   9.679   5.644 -0.1358  0.4469  0.7070
  846MOL0     C16626  -0.674   9.686   5.506  0.2098 -0.1333 -0.3982
  846MOL0     N16627  -0.538   9.740   5.524  0.5898 -0.0867  0.3468
  846MOL0     C16628  -0.487   9.867   5.544 -0.2063 -0.2218  0.2815
  846MOL0     C16629  -0.352   9.838   5.552  0.1832  0.0586  0.8461
  846MOL0     C16630  -0.260   9.956   5.571 -0.2312  0.2093  0.8466
  846MOL0     C16631  -0.198  10.037   5.450  0.5377  0.8189  0.5575
  846MOL0     C16632  -0.169   9.955   5.326 -0.8523  0.0871 -0.5307
  846MOL0     C16633  -0.286   9.912   5.243  0.8011  0.5345  0.3420
  846MOL0     O16634  -0.414   9.986   5.255  0.1395 -0.6168 -0.2569
  846MOL0     C16635  -0.526   9.957   5.178 -0.4079  0.3995 -0.1370
  846MOL0     C16636  -0.647  10.011   5.208 -0.1335  0.5534  0.1300
  846MOL0     C16637  -0.768   9.975   5.146 -0.1799  1.0204 -0.1464
  846MOL0     C16638  -0.888  10.040   5.193 -0.6749 -0.2051  0.0394
  846MOL0     C16639  -0.760   9.885   5.036 -0.2695 -0.3540 -0.0266
  846MOL0     C16640  -0.875   9.839   4.952 -0.2310 -0.3658  0.0850
  846MOL0     O16641  -0.862   9.724   4.881 -0.8400 -0.4317 -0.1452
  846MOL0     C16642  -0.971   9.675   4.811 -1.0564  0.5107  0.5568
  846MOL0     C16643  -0.956   9.639   4.675 -0.9566 -0.0708 -0.4632
  846MOL0     C16644  -1.057   9.570   4.610 -0.4399  0.2544  0.1742
  846MOL0     C16645  -1.183   9.544   4.667  0.9722 -0.1329  0.0814
  846MOL0     O16646  -1.296   9.485   4.603 -0.7915 -0.3442 -0.0222
  846MOL0     C16647  -1.292   9.483   4.458  0.1727 -1.2041  0.3997
  846MOL0     C16648  -1.409   9.402   4.405 -0.6018 -0.1734 -0.4920
  846MOL0     C16649  -1.538   9.462   4.448  0.2450 -0.7214  0.5324
  846MOL0     C16650  -1.647   9.370   4.402 -0.1603 -0.0474  0.2857
  846MOL0     C16651  -1.777   9.425   4.460  0.5587  0.6922  0.7378
  846MOL0     C16652  -1.881   9.311   4.467 -0.5284 -0.2475 -0.0008
  846MOL0     C16653  -2.014   9.354   4.516 -0.5111 -0.2857 -0.7284
  846MOL0     C16654  -2.092   9.237   4.571 -0.4784  0.0803  0.2764
  846MOL0    Cl16655  -2.131   9.115   4.448 -0.0529  0.2497 -0.4546
  846MOL0     C16656  -1.198   9.581   4.805  0.5920  0.0644 -0.1876
  846MOL0     C16657  -1.093   9.642   4.881  0.9607  0.0553 -0.1609
  846MOL0     O16658  -0.965   9.923   4.930 -0.1662  0.5349  0.2585
  846MOL0     C16659  -0.640   9.826   5.007  0.1993 -0.2914  0.9127
  846MOL0     C16660  -0.520   9.865   5.073  0.1486 -0.7562  0.9767
  846MOL0     N16661  -0.326   9.712   5.523  0.9416 -0.1434 -0.1966
  846MOL0     N16662  -0.434   9.650   5.519  0.1088  0.0491  0.3683
  846MOL0     C16663   0.044   9.273   5.616 -0.2123 -0.3130  0.9377
  846MOL0     C16664   0.149   9.287   5.531 -0.8979  0.5023  0.0801
  846MOL0     C16665   0.573   9.439   5.386 -0.3312 -0.3512 -0.5560
  846MOL0     C16666   0.538   9.428   5.246 -0.8257 -0.5706  0.2681
  846MOL0     C16667   0.634   9.452   5.149 -0.2150 -0.0143  0.4335
  846MOL0     C16668   0.752   9.516   5.180  0.0834 -0.1463  0.8393
  846MOL0     O16669   0.843   9.564   5.088 -0.6804  0.6218  0.7878
  846MOL0     C16670   0.811   9.608   4.953  0.3771  0.0779 -0.2056
  846MOL0     C16671   0.924   9.699   4.907  0.4940 -0.0720  0.2413
  846MOL0     C16672   1.063   9.657   4.940 -0.2353  0.3927  0.3760
  846MOL0     C16673   1.164   9.734   4.861  0.5762 -0.2309  0.3884
  846MOL0     C16674   1.290   9.675   4.875  0.3779  1.1031 -0.1992
  846MOL0     C16675   1.400   9.630   4.903  0.3933 -0.2730 -0.8096
  846MOL0     C16676   0.792   9.518   5.316 -0.5246  0.8340  0.0118
  846MOL0     C16677   0.712   9.461   5.415  0.2441 -0.6890 -0.3475
  846MOL0     C16678   0.774   9.462   5.557 -0.1664 -1.2002 -0.3810
  846MOL0     H16679   0.242   9.610   5.566 -1.1693  1.5936  2.0805
  846MOL0     H16680   0.023   9.602   5.715  0.3943  0.6396 -1.1209
  846MOL0     H16681  -0.154   9.203   5.825 -1.8862  0.6174  1.6879
  846MOL0     H16682  -0.226   9.271   5.689 -0.8586 -1.9933 -0.0348
  846MOL0     H16683  -0.363   9.223   5.916  1.0546 -0.6262  1.1562
  846MOL0     H16684  -0.299   9.385   5.959  3.0450  0.4015 -0.7208
  846MOL0     H16685  -0.395   9.489   5.762 -3.8638  1.4028  0.3447
  846MOL0     H16686  -0.429   9.349   5.681 -2.0288  3.3748 -1.6184
  846MOL0     H16687  -0.592   9.282   5.859 -0.4157  0.0502 -1.6312
  846MOL0     H16688  -0.558   9.431   5.947  1.4576  1.1858  0.1790
  846MOL0     H16689  -0.780   9.427   5.795 -0.7956  1.9177 -0.5005
  846MOL0     H16690  -0.664   9.424   5.654 -1.0481 -0.2601 -0.9636
  846MOL0     H16691  -0.715   9.649   5.857  2.3885 -2.7621  2.2298
  846MOL0     H16692  -0.573   9.633   5.743  0.6244 -4.3056 -1.3022
  846MOL0     H16693  -0.765   9.782   5.676 -0.5749  0.8974 -0.8783
  846MOL0     H16694  -0.845   9.630   5.625  1.6062 -2.2918 -2.1533
  846MOL0     H16695  -0.678   9.582   5.471 -0.5059 -0.4560  0.5893
  846MOL0     H16696  -0.731   9.748   5.436  3.4832  0.4230 -2.7807
  846MOL0     H16697  -0.527   9.967   5.538  1.8559  0.5779 -2.5383
  846MOL0     H16698  -0.171   9.923   5.625  1.7618 -3.3629 -3.9289
  846MOL0     H16699  -0.315  10.027   5.634 -2.6711 -0.9185  0.1404
  846MOL0     H16700  -0.262  10.121   5.422  1.8345  2.7823  3.0773
  846MOL0     H16701  -0.105  10.084   5.484  1.2671  0.5750 -1.0282
  846MOL0     H16702  -0.099  10.006   5.258 -0.4639  0.2163 -0.0396
  846MOL0     H16703  -0.114   9.866   5.356  1.5165  1.8916  0.8538
  846MOL0     H16704  -0.247   9.909   5.140  1.6469 -0.6593  0.6755
  846MOL0     H16705  -0.307   9.807   5.264 -2.2329  0.5139 -2.0373
  846MOL0     H16706  -0.661  10.079   5.291 -1.3126 -0.6510  0.9529
  846MOL0     H16707  -0.963   9.961   5.197  0.7327 -1.5451  2.0210
  846MOL0     H16708  -0.899  10.127   5.128  0.0770  1.4836  2.0449
  846MOL0     H16709  -0.869  10.077   5.294  1.4973 -0.5216 -0.1842
  846MOL0     H16710  -0.859   9.665   4.634 -0.0618  1.0129  2.1377
  846MOL0     H16711  -1.037   9.543   4.507  2.7381  2.0657  0.1733
  846MOL0     H16712  -1.287   9.581   4.410  3.0294 -2.2905 -1.8387
  846MOL0     H16713  -1.200   9.430   4.429  0.7373 -1.5042  2.4917
  846MOL0     H16714  -1.403   9.394   4.296 -2.0096  1.9764 -0.7872
  846MOL0     H16715  -1.398   9.302   4.447 -0.3097  0.2253  0.3839
  846MOL0     H16716  -1.550   9.560   4.402  3.1728 -0.4421  0.2232
  846MOL0     H16717  -1.557   9.461   4.556 -1.2463 -0.2342  0.2968
  846MOL0     H16718  -1.624   9.269   4.436  0.0176 -0.6014 -1.3650
  846MOL0     H16719  -1.643   9.369   4.292 -1.9404 -0.1192  0.1904
  846MOL0     H16720  -1.767   9.478   4.555 -0.1468  1.1333  0.5757
  846MOL0     H16721  -1.822   9.496   4.389 -1.4419 -0.2736  0.9709
  846MOL0     H16722  -1.834   9.238   4.533  0.3628 -0.6712 -1.0664
  846MOL0     H16723  -1.896   9.267   4.368 -0.1162  1.0763 -0.6781
  846MOL0     H16724  -2.072   9.413   4.445 -2.2691 -1.6027 -0.4424
  846MOL0     H16725  -1.994   9.420   4.601  1.1121  0.9762 -2.0219
  846MOL0     H16726  -2.193   9.272   4.595 -1.8355 -1.5952 -2.4485
  846MOL0     H16727  -2.047   9.187   4.658 -1.8011 -1.1294  0.3084
  846MOL0     H16728  -1.296   9.580   4.853  1.0336  1.9904  0.8862
  846MOL0     H16729  -1.101   9.674   4.984 -3.6115  3.5732 -1.2440
  846MOL0     H16730  -0.646   9.755   4.925 -1.4916 -1.9410  2.3957
  846MOL0     H16731  -0.431   9.811   5.044 -1.1162 -2.2639 -0.3252
  846MOL0     H16732  -0.008   9.178   5.621 -0.0397 -0.6083 -1.5537
  846MOL0     H16733   0.185   9.205   5.470  0.8999  0.6789  0.8196
  846MOL0     H16734   0.445   9.403   5.197 -0.7526 -1.1435  0.4070
  846MOL0     H16735   0.605   9.425   5.048 -0.0614 -1.0322  0.6468
  846MOL0     H16736   0.802   9.522   4.886  2.1098 -1.1348  1.0229
  846MOL0     H16737   0.726   9.677   4.956 -0.2864 -0.6522 -1.4790
  846MOL0     H16738   0.919   9.799   4.949  4.7458  0.7154 -0.6666
  846MOL0     H16739   0.903   9.706   4.800 -2.3427  0.7979  0.7743
  846MOL0     H16740   1.084   9.668   5.047  0.1512  0.9997  0.2447
  846MOL0     H16741   1.069   9.552   4.912  0.6850  1.0406 -2.1052
  846MOL0     H16742   1.163   9.841   4.883 -1.2706  0.6359 -3.1404
  846MOL0     H16743   1.143   9.729   4.754 -0.0100 -1.1108  0.5316
  846MOL0     H16744   1.499   9.595   4.924  0.3162  0.0790  0.1735
  846MOL0     H16745   0.881   9.567   5.354 -2.1482  3.0886  1.0857
  846MOL0     H16746   0.739   9.552   5.609 -3.8037 -2.6518 -0.0493
  846MOL0     H16747   0.740   9.374   5.612  0.0890 -0.9970  0.1085
  846MOL0     H16748   0.883   9.459   5.556 -0.0338 -2.3140  3.3432
  847MOL0     O16749   5.097   9.658   3.699  0.8324  0.3391 -0.8759
  847MOL0     C16750   5.137   9.568   3.630 -0.3350  0.1196  1.0899
  847MOL0     O16751   5.056   9.482   3.552  0.1564 -0.0823 -0.2281
  847MOL0     C16752   4.924   9.470   3.588  0.0224 -0.4375  0.4653
  847MOL0     C16753   4.828   9.502   3.497 -0.4869  0.6028  0.1300
  847MOL0     C16754   4.694   9.489   3.518  0.2485 -0.1284  0.4408
  847MOL0     C16755   4.641   9.461   3.644  0.0906 -0.0574 -0.5709
  847MOL0     O16756   4.501   9.462   3.648  0.5056  0.8126 -0.0160
  847MOL0     C16757   4.436   9.395   3.762  0.6526 -0.3019  0.4607
  847MOL0     C16758   4.296   9.456   3.786  0.2530  0.1742 -0.1326
  847MOL0     C16759   4.201   9.430   3.669  0.8185  0.1283  0.5698
  847MOL0     C16760   4.074   9.512   3.681  0.2906  0.5052  0.2037
  847MOL0     C16761   4.012   9.550   3.550  0.1986  0.2529 -0.6907
  847MOL0     C16762   3.862   9.594   3.564 -0.2704  0.5702 -0.0770
  847MOL0     C16763   3.836   9.735   3.610  0.1441  0.0512 -0.0656
  847MOL0     C16764   3.690   9.776   3.583  0.2562  1.1900 -0.2519
  847MOL0     N16765   3.643   9.802   3.447 -0.4759 -0.4322 -0.2821
  847MOL0     C16766   3.648   9.921   3.380  0.1716  0.1461 -0.4193
  847MOL0     C16767   3.586   9.898   3.256  0.5502  0.0875 -0.2469
  847MOL0     C16768   3.566   9.991   3.139 -0.1261 -0.2733 -0.4894
  847MOL0     C16769   3.625   9.951   3.008  0.0810  0.5174  0.0670
  847MOL0     C16770   3.521   9.928   2.903  0.6253  0.4634 -0.3207
  847MOL0     C16771   3.579   9.903   2.767  0.7114 -0.2208 -0.4382
  847MOL0     O16772   3.652   9.781   2.776  0.2897  0.3243 -0.2194
  847MOL0     C16773   3.787   9.792   2.730  0.1669  0.4891  0.4066
  847MOL0     C16774   3.836   9.864   2.620  0.0718  0.0365  0.0633
  847MOL0     C16775   3.974   9.875   2.602 -1.0378 -0.1685  0.0991
  847MOL0     C16776   4.023   9.953   2.480  0.4168  0.0536  0.3164
  847MOL0     C16777   4.066   9.806   2.693 -0.3139 -0.0138  0.5074
  847MOL0     C16778   4.221   9.813   2.682  0.4592 -0.0338 -1.0268
  847MOL0     O16779   4.285   9.809   2.803 -0.4360  0.6291 -0.0416
  847MOL0     C16780   4.423   9.813   2.807  0.0967 -0.3249  0.4043
  847MOL0     C16781   4.477   9.901   2.906 -0.4226  0.0073 -0.1260
  847MOL0     C16782   4.613   9.921   2.925  1.1056 -0.3482  0.3029
  847MOL0     C16783   4.703   9.839   2.851  0.1849 -0.5754  0.2435
  847MOL0     O16784   4.842   9.846   2.862 -0.0032  0.4750 -0.0489
  847MOL0     C16785   4.914   9.957   2.919  0.5954  0.2949 -0.6229
  847MOL0     C16786   5.066   9.927   2.924 -0.1127  0.3954 -0.1966
  847MOL0     C16787   5.123   9.900   2.783  0.8288  0.0200  0.0989
  847MOL0     C16788   5.272   9.885   2.789  0.1434  0.1424 -0.0736
  847MOL0     C16789   5.345  10.008   2.830  0.2731 -0.1073 -0.2263
  847MOL0     C16790   5.493   9.998   2.794 -0.6093  0.4253 -0.8452
  847MOL0     C16791   5.577  10.117   2.858  0.8900  0.5218 -1.1419
  847MOL0     C16792   5.721  10.110   2.819 -0.4515 -0.3523 -0.8518
  847MOL0    Cl16793   5.837  10.223   2.912  0.3933 -0.5329  0.2110
  847MOL0     C16794   4.655   9.761   2.747  0.6914  0.8206  1.0026
  847MOL0     C16795   4.514   9.758   2.716 -0.0587  0.7252 -0.1627
  847MOL0     O16796   4.269   9.831   2.576  0.3889 -0.0509  0.5936
  847MOL0     C16797   4.013   9.743   2.802 -0.2855 -0.3996 -1.0781
  847MOL0     C16798   3.875   9.735   2.820 -0.9436  0.4195 -0.0005
  847MOL0     N16799   3.538   9.769   3.252  0.8289 -0.6030  0.3880
  847MOL0     N16800   3.579   9.719   3.365  0.0724  0.1829  0.6290
  847MOL0     C16801   4.734   9.419   3.743 -0.4631  0.2023 -0.7703
  847MOL0     C16802   4.874   9.427   3.709  1.4918  0.5091 -1.2333
  847MOL0     C16803   5.285   9.558   3.600 -0.0437 -0.1662 -0.1627
  847MOL0     C16804   5.324   9.496   3.476 -0.4057  0.5388 -0.0367
  847MOL0     C16805   5.453   9.496   3.435 -0.2103 -0.5211 -0.9481
  847MOL0     C16806   5.551   9.562   3.511  0.5866 -0.2628  0.4054
  847MOL0     O16807   5.681   9.558   3.465 -0.4035  0.1644 -0.2888
  847MOL0     C16808   5.729   9.495   3.343  0.3737  0.8374  0.6574
  847MOL0     C16809   5.695   9.575   3.209 -0.5254  0.6813 -0.6367
  847MOL0     C16810   5.764   9.715   3.212 -0.5088 -0.0253  0.0094
  847MOL0     C16811   5.751   9.804   3.087  0.1232  0.4737  0.0608
  847MOL0     C16812   5.747   9.943   3.132  0.6786  0.6923  0.4955
  847MOL0     C16813   5.752  10.060   3.167  0.1604 -0.0855 -0.2952
  847MOL0     C16814   5.520   9.619   3.630 -0.5425  1.3292  0.4037
  847MOL0     C16815   5.384   9.625   3.674  0.0489  0.3100 -0.6345
  847MOL0     C16816   5.358   9.692   3.801  0.2005 -0.1548 -0.5543
  847MOL0     H16817   4.857   9.540   3.400  0.2680 -3.4391 -1.4472
  847MOL0     H16818   4.623   9.513   3.440 -1.0891  2.7467  2.3807
  847MOL0     H16819   4.489   9.402   3.858 -0.6556 -0.1490  1.1960
  847MOL0     H16820   4.437   9.290   3.734 -0.5398  0.0884 -1.2054
  847MOL0     H16821   4.262   9.416   3.882  1.2456 -0.3677  0.0034
  847MOL0     H16822   4.315   9.562   3.799  1.2826  0.4121 -2.9775
  847MOL0     H16823   4.249   9.443   3.572  0.7553 -0.4299  0.4560
  847MOL0     H16824   4.168   9.325   3.666  1.7804 -0.1907  0.7097
  847MOL0     H16825   4.004   9.440   3.724  3.2892 -2.1208  1.0615
  847MOL0     H16826   4.083   9.593   3.754  2.2418 -0.7219  1.4011
  847MOL0     H16827   4.010   9.465   3.481  0.0827 -2.1233  2.0364
  847MOL0     H16828   4.074   9.629   3.507  2.6702 -1.4314 -0.3991
  847MOL0     H16829   3.818   9.584   3.465  1.4762 -1.7208 -0.7192
  847MOL0     H16830   3.812   9.525   3.633  1.0849  0.4096  0.7844
  847MOL0     H16831   3.893   9.807   3.552 -0.5300  0.2810 -0.4616
  847MOL0     H16832   3.850   9.746   3.718 -0.8364 -2.8956  0.4469
  847MOL0     H16833   3.616   9.706   3.625  2.1383 -0.5938  0.3015
  847MOL0     H16834   3.664   9.861   3.646 -2.2819  0.2590  0.1168
  847MOL0     H16835   3.691  10.018   3.402 -1.7573  1.0742 -0.5203
  847MOL0     H16836   3.608  10.088   3.168  1.5512 -0.9465 -0.5277
  847MOL0     H16837   3.460  10.014   3.126  0.6323  1.8253 -4.3635
  847MOL0     H16838   3.699  10.022   2.971 -0.3522  1.9029  1.7179
  847MOL0     H16839   3.678   9.856   3.021  2.5928  2.0282  1.8025
  847MOL0     H16840   3.455   9.844   2.926  0.5363  0.9126  1.1623
  847MOL0     H16841   3.459  10.017   2.890 -0.3627  0.0228  1.1988
  847MOL0     H16842   3.504   9.890   2.688  0.6761 -2.1988 -0.1417
  847MOL0     H16843   3.647   9.987   2.750  0.6720  0.1288  1.0322
  847MOL0     H16844   3.762   9.893   2.546 -3.0808 -2.3509  1.9691
  847MOL0     H16845   3.953  10.035   2.461  1.6838  0.9018 -0.8856
  847MOL0     H16846   4.031   9.891   2.390 -1.0924  0.9276 -0.4494
  847MOL0     H16847   4.118   9.999   2.507  1.9179 -1.4020 -2.0737
  847MOL0     H16848   4.409   9.936   2.983  0.0292 -2.6991  1.6320
  847MOL0     H16849   4.642   9.981   3.011  0.3743 -1.3672  1.2943
  847MOL0     H16850   4.903  10.048   2.858  0.0039  0.1766 -0.6992
  847MOL0     H16851   4.883   9.977   3.022  0.3736  1.0920 -0.8356
  847MOL0     H16852   5.111  10.019   2.964  1.2904 -0.2299 -0.2547
  847MOL0     H16853   5.080   9.841   2.990 -0.8382 -0.5167 -1.2028
  847MOL0     H16854   5.102   9.980   2.712 -1.9809 -1.5329 -1.0046
  847MOL0     H16855   5.076   9.810   2.743 -0.7744  0.3662  1.0853
  847MOL0     H16856   5.306   9.861   2.687  2.7874  1.8029  0.3326
  847MOL0     H16857   5.304   9.800   2.850  0.4313 -0.1204 -0.5810
  847MOL0     H16858   5.322  10.101   2.779  0.8443  0.9102  1.3029
  847MOL0     H16859   5.333  10.033   2.936 -3.8098 -1.2924 -0.2318
  847MOL0     H16860   5.503   9.999   2.686 -3.3449 -0.3778 -1.1917
  847MOL0     H16861   5.535   9.903   2.828 -0.7017  0.0625 -1.7254
  847MOL0     H16862   5.582  10.118   2.967 -2.0567 -1.2136 -0.8783
  847MOL0     H16863   5.537  10.212   2.819 -2.1648  0.9324  2.4929
  847MOL0     H16864   5.739  10.133   2.714 -0.7124  0.8926 -0.6516
  847MOL0     H16865   5.760  10.010   2.839 -1.2795 -0.3234  1.1258
  847MOL0     H16866   4.728   9.713   2.683 -0.1827 -1.4360  1.5796
  847MOL0     H16867   4.477   9.715   2.623 -1.0655 -0.0491  0.5805
  847MOL0     H16868   4.069   9.684   2.874 -0.3162 -1.4779 -1.9170
  847MOL0     H16869   3.823   9.680   2.898 -1.9482 -1.7386 -2.0728
  847MOL0     H16870   4.713   9.392   3.846  3.3579 -1.3389 -0.1963
  847MOL0     H16871   4.936   9.387   3.788  2.4060 -1.5698 -2.9231
  847MOL0     H16872   5.252   9.429   3.430 -0.2045  0.7978 -0.7417
  847MOL0     H16873   5.470   9.443   3.342  0.4585  3.0546 -3.0803
  847MOL0     H16874   5.839   9.490   3.344  0.3367 -0.5284  0.0994
  847MOL0     H16875   5.689   9.393   3.346 -1.4184  1.5442  2.8058
  847MOL0     H16876   5.588   9.596   3.200 -0.5197  0.8296 -0.3734
  847MOL0     H16877   5.742   9.517   3.129  3.6714 -0.2477  2.1631
  847MOL0     H16878   5.732   9.762   3.305 -2.1118  2.2862 -1.5792
  847MOL0     H16879   5.868   9.682   3.218 -0.3138  0.3538 -1.0384
  847MOL0     H16880   5.662   9.775   3.029  2.7519 -1.5563 -3.3892
  847MOL0     H16881   5.832   9.779   3.018  0.6532 -1.0643  1.1854
  847MOL0     H16882   5.749  10.159   3.207 -0.0200  0.7528 -2.2468
  847MOL0     H16883   5.593   9.666   3.695  0.2202 -0.6792  1.0683
  847MOL0     H16884   5.453   9.725   3.845  0.3420  0.5997 -1.4008
  847MOL0     H16885   5.300   9.781   3.775 -0.5923 -1.2034 -2.6212
  847MOL0     H16886   5.297   9.627   3.865  1.7179 -1.5925 -0.4941
  848MOL0     O16887   5.329  10.306   7.789 -0.4672  0.0804 -0.1746
  848MOL0     C16888   5.263  10.281   7.689  0.0099  0.2828 -0.5822
  848MOL0     O16889   5.291  10.187   7.594  0.2453  0.2874  0.1657
  848MOL0     C16890   5.394  10.092   7.610 -0.4215 -0.4191  0.7780
  848MOL0     C16891   5.372   9.953   7.630 -0.5517  0.1244 -0.0413
  848MOL0     C16892   5.487   9.873   7.650  0.0448  0.3941 -0.4383
  848MOL0     C16893   5.619   9.918   7.650 -0.2251 -0.5653 -0.2462
  848MOL0     O16894   5.734   9.849   7.681 -0.2382  0.0944 -0.1332
  848MOL0     C16895   5.727   9.708   7.660  0.0207  1.1734 -0.7954
  848MOL0     C16896   5.857   9.642   7.698 -0.1471 -0.6143  0.5990
  848MOL0     C16897   5.918   9.690   7.829 -1.6926 -0.6808  1.2404
  848MOL0     C16898   6.045   9.605   7.861 -0.3651 -0.8569 -0.2851
  848MOL0     C16899   6.143   9.672   7.961  1.0405 -0.0772  0.5212
  848MOL0     C16900   6.087   9.670   8.098 -0.4959  0.2861 -0.2736
  848MOL0     C16901   6.206   9.684   8.199  0.6334  0.0696  0.5894
  848MOL0     C16902   6.155   9.693   8.344 -0.5301  0.0882 -0.0212
  848MOL0     N16903   6.273   9.707   8.429 -0.0644  0.9831  0.7205
  848MOL0     C16904   6.343   9.819   8.436 -0.6422  0.2184  0.1988
  848MOL0     C16905   6.436   9.792   8.528  0.8250 -0.9275 -0.4101
  848MOL0     C16906   6.528   9.902   8.578 -0.0531  0.1231 -0.6455
  848MOL0     C16907   6.663   9.902   8.502 -0.2472 -0.1276 -0.6868
  848MOL0     C16908   6.768   9.790   8.544  0.1118  0.9838 -0.0200
  848MOL0     C16909   6.915   9.815   8.504  0.0078  0.1350 -0.2412
  848MOL0     O16910   6.965   9.908   8.596  0.0245  0.4859 -0.5337
  848MOL0     C16911   7.098   9.943   8.580 -0.0664  0.6134  0.1479
  848MOL0     C16912   7.202   9.854   8.606  0.2833  0.6646 -0.9482
  848MOL0     C16913   7.332   9.894   8.618 -1.0251  0.2523  0.2162
  848MOL0     C16914   7.442   9.796   8.651 -0.4043  0.3033 -0.5671
  848MOL0     C16915   7.364  10.031   8.584 -0.1302 -0.1127  0.6604
  848MOL0     C16916   7.506  10.102   8.587 -0.2681  0.4998  0.3683
  848MOL0     O16917   7.515  10.223   8.528  0.6389  0.2952 -0.9825
  848MOL0     C16918   7.621  10.309   8.564 -0.5541  0.2918 -0.7577
  848MOL0     C16919   7.676  10.312   8.697  0.1517 -0.8500 -0.4468
  848MOL0     C16920   7.785  10.404   8.729 -0.1714 -0.8803 -0.0954
  848MOL0     C16921   7.820  10.501   8.632 -0.1283  0.2649  0.4397
  848MOL0     O16922   7.910  10.592   8.676  0.4668 -0.4899  0.6041
  848MOL0     C16923   7.989  10.664   8.575  0.2850  0.9725  0.5216
  848MOL0     C16924   8.105  10.734   8.636  0.3370 -0.1267  0.5388
  848MOL0     C16925   8.207  10.786   8.540  0.6672  0.2313  0.0298
  848MOL0     C16926   8.154  10.901   8.458  0.1629 -0.0781 -0.2904
  848MOL0     C16927   8.266  10.935   8.351  0.7091  0.3428 -0.7584
  848MOL0     C16928   8.243  11.076   8.290  0.1770 -0.0645  0.2148
  848MOL0     C16929   8.349  11.115   8.188  0.6344  0.0365 -0.1309
  848MOL0     C16930   8.307  11.250   8.122 -0.3206  0.3031 -0.8053
  848MOL0    Cl16931   8.431  11.296   8.007 -0.1988  0.3515  0.2626
  848MOL0     C16932   7.770  10.485   8.504 -0.2855  0.3095  0.3628
  848MOL0     C16933   7.679  10.390   8.468  0.1502  0.1793 -0.0402
  848MOL0     O16934   7.606  10.040   8.633  0.3861  1.1131  0.2092
  848MOL0     C16935   7.256  10.114   8.565 -0.3161  0.8720  0.4817
  848MOL0     C16936   7.131  10.069   8.552 -0.4017  0.9035  1.1531
  848MOL0     N16937   6.412   9.666   8.584  0.1930 -0.3252 -0.3019
  848MOL0     N16938   6.308   9.620   8.527  0.7070  0.1531 -0.1674
  848MOL0     C16939   5.636  10.053   7.634  0.6583  0.1656  0.6360
  848MOL0     C16940   5.528  10.142   7.617  0.8940  0.7554  0.0967
  848MOL0     C16941   5.131  10.352   7.684 -0.9367  0.0689 -0.1035
  848MOL0     C16942   5.032  10.309   7.592 -0.4343  0.3034  1.0223
  848MOL0     C16943   4.907  10.364   7.578 -0.3095 -0.6025  0.4869
  848MOL0     C16944   4.869  10.465   7.660  0.0935 -0.4170  0.5096
  848MOL0     O16945   4.734  10.498   7.660  0.3275 -0.2252  0.7092
  848MOL0     C16946   4.697  10.633   7.668 -0.1081 -0.0648 -0.2177
  848MOL0     C16947   4.731  10.702   7.533 -0.3815 -0.9301 -0.1896
  848MOL0     C16948   4.635  10.647   7.424 -0.1652  0.2898 -0.5332
  848MOL0     C16949   4.667  10.696   7.282  0.6457 -0.0208  0.3140
  848MOL0     C16950   4.684  10.845   7.280 -0.6632  0.1411  1.0130
  848MOL0     C16951   4.686  10.967   7.275 -0.9181  0.0638  0.5130
  848MOL0     C16952   4.961  10.516   7.758 -0.1980 -0.4695 -0.3030
  848MOL0     C16953   5.085  10.462   7.764  0.2519  0.8054 -0.2804
  848MOL0     C16954   5.174  10.533   7.865 -0.4790 -0.6924  0.1733
  848MOL0     H16955   5.273   9.910   7.643 -0.6115 -0.0612 -0.9804
  848MOL0     H16956   5.469   9.766   7.662  0.7885  0.3895  0.8079
  848MOL0     H16957   5.702   9.695   7.554  0.0368 -2.0086 -0.4794
  848MOL0     H16958   5.653   9.659   7.723 -0.0496  2.0614 -0.1731
  848MOL0     H16959   5.854   9.533   7.703  0.2218 -0.6718 -0.2322
  848MOL0     H16960   5.922   9.669   7.615 -2.3016  3.5234 -0.0493
  848MOL0     H16961   5.935   9.798   7.825 -1.2626 -0.7672  0.7068
  848MOL0     H16962   5.843   9.673   7.907 -1.9111  0.8779  1.4071
  848MOL0     H16963   6.017   9.512   7.911 -0.5806 -1.0192 -0.7085
  848MOL0     H16964   6.101   9.576   7.772 -0.2396  0.7486 -0.7616
  848MOL0     H16965   6.179   9.769   7.925  1.1820 -0.4497 -0.3604
  848MOL0     H16966   6.234   9.613   7.972  0.9310 -0.0267  1.9419
  848MOL0     H16967   6.013   9.749   8.113  1.2815  2.3906 -1.9359
  848MOL0     H16968   6.035   9.575   8.113  0.1731 -0.1845 -0.8719
  848MOL0     H16969   6.272   9.763   8.162 -0.3052  0.9075  0.6449
  848MOL0     H16970   6.260   9.590   8.192 -1.7303 -1.2445 -3.0340
  848MOL0     H16971   6.087   9.778   8.349 -0.0745  0.7295 -2.9327
  848MOL0     H16972   6.107   9.600   8.375 -0.7658  0.5055  0.9133
  848MOL0     H16973   6.334   9.914   8.386 -1.1583  1.6286  2.7664
  848MOL0     H16974   6.541   9.884   8.685 -0.6827  0.2990 -0.5369
  848MOL0     H16975   6.491  10.004   8.565  0.1797  0.0459 -2.1139
  848MOL0     H16976   6.644   9.908   8.394  3.6245 -0.8790 -1.5554
  848MOL0     H16977   6.710   9.998   8.525 -0.2080 -0.5384  1.0991
  848MOL0     H16978   6.761   9.773   8.652 -1.5347  1.1894 -0.0717
  848MOL0     H16979   6.728   9.704   8.491  1.0520 -2.0950  3.7743
  848MOL0     H16980   6.968   9.720   8.517  1.1301  0.9600  1.3680
  848MOL0     H16981   6.917   9.849   8.400  3.6462  3.0079  0.5756
  848MOL0     H16982   7.177   9.751   8.628  1.9961  0.6159  1.0743
  848MOL0     H16983   7.536   9.797   8.595 -0.6175 -1.6234 -1.0293
  848MOL0     H16984   7.406   9.693   8.643  0.0774  0.2004 -1.7069
  848MOL0     H16985   7.474   9.807   8.755 -0.2413  0.4817 -0.6360
  848MOL0     H16986   7.631  10.248   8.772 -1.7629  2.0528  1.0904
  848MOL0     H16987   7.838  10.413   8.823 -0.0977  3.0684 -0.3529
  848MOL0     H16988   8.030  10.604   8.494 -1.4675  0.2802  0.0923
  848MOL0     H16989   7.926  10.738   8.523 -0.5487 -1.3832 -2.0827
  848MOL0     H16990   8.073  10.820   8.696 -1.6109 -0.0394 -0.5482
  848MOL0     H16991   8.148  10.671   8.715  3.3445  2.5110  1.2306
  848MOL0     H16992   8.237  10.705   8.473 -0.2489  0.6851 -0.9787
  848MOL0     H16993   8.294  10.825   8.592  0.1168 -0.4512  1.4981
  848MOL0     H16994   8.132  10.990   8.518 -2.1105 -0.5900 -0.2855
  848MOL0     H16995   8.058  10.873   8.412  0.6914 -0.8137 -0.9655
  848MOL0     H16996   8.370  10.941   8.384 -0.0691 -0.8315  2.1685
  848MOL0     H16997   8.264  10.855   8.276 -0.0990 -1.1568  0.7976
  848MOL0     H16998   8.231  11.148   8.371 -0.1125  1.1047 -0.8286
  848MOL0     H16999   8.148  11.084   8.236  1.4564  0.9163 -2.0188
  848MOL0     H17000   8.356  11.042   8.108 -5.4738  0.8602 -1.9331
  848MOL0     H17001   8.446  11.124   8.237  0.0290  0.9131  0.9868
  848MOL0     H17002   8.306  11.316   8.210 -3.8654  0.4210 -0.7653
  848MOL0     H17003   8.207  11.255   8.078 -1.3245  0.2026  1.3219
  848MOL0     H17004   7.804  10.558   8.431  0.5379 -0.4300 -0.0108
  848MOL0     H17005   7.645  10.381   8.365 -1.1215 -0.9788  0.4451
  848MOL0     H17006   7.267  10.219   8.542  1.0757  0.6123 -0.1378
  848MOL0     H17007   7.049  10.138   8.535  0.3333  1.5738  0.2251
  848MOL0     H17008   5.737  10.091   7.645  1.0480 -0.5534 -0.2757
  848MOL0     H17009   5.555  10.247   7.611  1.0282  0.7724  0.8743
  848MOL0     H17010   5.054  10.233   7.518 -0.8231  2.2596 -1.2074
  848MOL0     H17011   4.828  10.330   7.512 -1.9039  1.4026  1.2449
  848MOL0     H17012   4.590  10.645   7.688  0.5242  1.6748  2.7127
  848MOL0     H17013   4.754  10.690   7.742  0.0353 -0.0042 -0.3764
  848MOL0     H17014   4.832  10.684   7.495  0.3641 -0.2790  1.3902
  848MOL0     H17015   4.716  10.809   7.545  0.3218 -0.6712 -1.3962
  848MOL0     H17016   4.639  10.538   7.428 -0.5754  0.2602 -0.8728
  848MOL0     H17017   4.535  10.674   7.456 -0.6049 -1.0998 -0.6472
  848MOL0     H17018   4.580  10.670   7.221 -2.0818  0.7992  3.5393
  848MOL0     H17019   4.757  10.648   7.243  2.1877  4.7683 -3.0218
  848MOL0     H17020   4.686  11.074   7.264  0.3140 -0.1845 -3.0398
  848MOL0     H17021   4.929  10.587   7.833  0.4608 -2.5662  2.0930
  848MOL0     H17022   5.124  10.620   7.908 -0.8725 -0.6979 -0.2601
  848MOL0     H17023   5.207  10.468   7.947  0.4718 -2.9900 -1.9006
  848MOL0     H17024   5.258  10.580   7.813 -1.8264  2.0771  0.3334
  849MOL0     O17025  11.278   3.303   0.304  0.2650  0.0089 -0.0182
  849MOL0     C17026  11.283   3.226   0.398  0.3143  0.1742 -0.8106
  849MOL0     O17027  11.173   3.168   0.455  0.2398  0.4339 -0.3106
  849MOL0     C17028  11.057   3.236   0.439  0.3867 -0.0627 -0.2027
  849MOL0     C17029  11.039   3.378   0.465 -0.0411  0.2617 -1.2008
  849MOL0     C17030  10.909   3.432   0.458 -1.1819 -0.9589  0.2009
  849MOL0     C17031  10.800   3.359   0.408 -0.1523 -0.2813  0.3163
  849MOL0     O17032  10.673   3.410   0.384 -0.6826  0.3163 -0.1497
  849MOL0     C17033  10.626   3.534   0.450 -0.5859 -0.1315  0.1109
  849MOL0     C17034  10.471   3.520   0.476  0.1346  0.3233 -0.7642
  849MOL0     C17035  10.384   3.496   0.355 -0.3392  1.0531 -0.1177
  849MOL0     C17036  10.376   3.357   0.295  0.7505 -0.3057 -0.4838
  849MOL0     C17037  10.271   3.353   0.176  0.6524 -0.6031  0.5801
  849MOL0     C17038  10.194   3.220   0.158  1.2481  0.7394  0.0609
  849MOL0     C17039  10.276   3.099   0.154 -0.5137  0.3301 -0.1449
  849MOL0     C17040  10.373   3.099   0.035 -0.7171  0.7216  0.0055
  849MOL0     N17041  10.462   2.980   0.052  0.3959 -0.3852 -0.0251
  849MOL0     C17042  10.531   2.942   0.166 -0.3198 -0.5527  0.7433
  849MOL0     C17043  10.563   2.811   0.150 -0.3557 -0.7041 -0.0384
  849MOL0     C17044  10.634   2.724   0.254  0.5964  0.9859 -0.3058
  849MOL0     C17045  10.546   2.606   0.308  0.0945 -0.6899  0.0182
  849MOL0     C17046  10.641   2.502   0.374 -0.2483 -0.5995  0.6453
  849MOL0     C17047  10.723   2.545   0.499  0.3488  0.6286  0.3075
  849MOL0     O17048  10.795   2.424   0.537  0.2423 -0.0738  0.2479
  849MOL0     C17049  10.906   2.383   0.468 -0.8488 -0.0658 -0.3180
  849MOL0     C17050  10.949   2.258   0.500  0.5847  0.3988  0.8276
  849MOL0     C17051  11.067   2.196   0.444  0.7522  0.2606  0.1888
  849MOL0     C17052  11.105   2.064   0.500  0.7513  0.2779  0.1023
  849MOL0     C17053  11.143   2.272   0.356  0.0572  0.2933  0.9948
  849MOL0     C17054  11.271   2.213   0.289 -0.1406  0.2693  0.2480
  849MOL0     O17055  11.352   2.307   0.241 -0.5511  0.1254 -0.3075
  849MOL0     C17056  11.448   2.258   0.163 -0.5878 -0.3963  0.6103
  849MOL0     C17057  11.582   2.261   0.209 -0.1635 -0.2073 -0.1719
  849MOL0     C17058  11.684   2.235   0.118  0.3383  0.1631 -0.5310
  849MOL0     C17059  11.667   2.220  -0.024 -1.5302 -0.1224 -0.0496
  849MOL0     O17060  11.779   2.196  -0.097 -0.1988  0.3764  0.1150
  849MOL0     C17061  11.772   2.214  -0.239 -0.0165  0.6468  0.9326
  849MOL0     C17062  11.915   2.215  -0.307 -0.0806 -0.3594  0.8491
  849MOL0     C17063  12.015   2.122  -0.245 -0.6320  0.2589  0.5083
  849MOL0     C17064  12.151   2.117  -0.316  0.4652 -0.5484  0.0466
  849MOL0     C17065  12.231   2.238  -0.270  0.2115  0.6736 -0.5342
  849MOL0     C17066  12.357   2.232  -0.345 -0.4916  0.1970  0.5163
  849MOL0     C17067  12.446   2.345  -0.297 -0.2807 -0.1097 -0.0777
  849MOL0     C17068  12.589   2.319  -0.354 -0.6039  0.1209  0.3899
  849MOL0    Cl17069  12.660   2.177  -0.260  0.4355 -0.7929  0.4316
  849MOL0     C17070  11.542   2.214  -0.069 -0.2077 -0.7948 -0.5512
  849MOL0     C17071  11.439   2.239   0.023  0.2962  0.5860  0.2569
  849MOL0     O17072  11.275   2.091   0.257 -0.4757  0.4239 -0.7755
  849MOL0     C17073  11.095   2.393   0.311 -0.0413 -0.8761  1.0084
  849MOL0     C17074  10.978   2.451   0.367  1.0597  0.1821  0.6794
  849MOL0     N17075  10.515   2.769   0.027 -0.0178  0.1495 -0.3477
  849MOL0     N17076  10.446   2.869  -0.025 -0.4587 -0.6333 -0.2392
  849MOL0     C17077  10.818   3.223   0.382  0.4523 -0.7312  1.0970
  849MOL0     C17078  10.940   3.164   0.407  0.1530  0.6820 -0.1987
  849MOL0     C17079  11.414   3.175   0.444  0.8076 -0.2646 -0.1129
  849MOL0     C17080  11.419   3.052   0.505  1.1417  0.3813 -0.1555
  849MOL0     C17081  11.537   2.994   0.548 -1.3114  0.8283  0.0368
  849MOL0     C17082  11.666   3.040   0.527  0.0438 -0.1830 -0.0323
  849MOL0     O17083  11.765   2.953   0.542  0.3102  0.3466  0.0093
  849MOL0     C17084  11.907   2.994   0.526  0.5381  0.5712 -0.0951
  849MOL0     C17085  11.964   2.997   0.661 -0.4455 -0.3307 -0.2565
  849MOL0     C17086  12.095   3.062   0.662 -0.0964 -0.1672  0.0868
  849MOL0     C17087  12.206   2.968   0.701 -0.1721  0.4736 -0.5429
  849MOL0     C17088  12.182   2.923   0.840 -0.4609  0.5557  0.4381
  849MOL0     C17089  12.171   2.891   0.957 -0.2520  0.0592  0.2999
  849MOL0     C17090  11.660   3.170   0.464 -1.2710  0.2579 -0.1838
  849MOL0     C17091  11.543   3.232   0.420 -0.1542 -0.5004 -0.2720
  849MOL0     C17092  11.562   3.362   0.344  0.6377 -0.5955  0.2034
  849MOL0     H17093  11.110   3.445   0.512 -0.3782 -1.2298  1.7185
  849MOL0     H17094  10.904   3.538   0.481  2.3619 -0.2633 -1.5538
  849MOL0     H17095  10.658   3.619   0.390 -1.3942  0.3546  0.3604
  849MOL0     H17096  10.676   3.534   0.548 -1.8693 -1.0347  0.7929
  849MOL0     H17097  10.463   3.435   0.545 -1.8067  2.9596  2.5879
  849MOL0     H17098  10.441   3.612   0.527  0.1148 -0.4752  0.7196
  849MOL0     H17099  10.283   3.520   0.388 -1.3485 -1.3545 -1.2146
  849MOL0     H17100  10.422   3.561   0.275 -1.1525  1.2160 -0.3858
  849MOL0     H17101  10.471   3.336   0.245  0.2191 -1.5043 -1.0241
  849MOL0     H17102  10.360   3.283   0.375 -0.1505  0.1819 -0.2000
  849MOL0     H17103  10.317   3.369   0.078 -2.5462 -2.9865 -1.5298
  849MOL0     H17104  10.193   3.429   0.187  0.7233 -0.7708  2.6188
  849MOL0     H17105  10.109   3.208   0.226  0.5452 -0.2204 -0.9534
  849MOL0     H17106  10.145   3.227   0.060 -3.1111 -0.4949  1.9239
  849MOL0     H17107  10.204   3.017   0.151 -1.6976  1.2979  0.8474
  849MOL0     H17108  10.334   3.085   0.246  0.9172 -1.9332 -1.3165
  849MOL0     H17109  10.334   3.088  -0.067 -0.1170  0.1361 -0.1676
  849MOL0     H17110  10.433   3.190   0.043  0.7106 -0.0168 -1.8001
  849MOL0     H17111  10.535   2.993   0.262 -1.4613 -3.0808  2.2452
  849MOL0     H17112  10.677   2.774   0.341  1.0800 -0.6474  0.4502
  849MOL0     H17113  10.717   2.672   0.204 -1.4070 -2.5057 -0.3778
  849MOL0     H17114  10.470   2.622   0.385  0.0354 -2.9814  0.5083
  849MOL0     H17115  10.501   2.550   0.226  1.7509 -2.7552  0.4296
  849MOL0     H17116  10.574   2.419   0.398 -0.6902 -0.4217  0.0303
  849MOL0     H17117  10.714   2.474   0.298 -1.0036  3.8807 -2.0662
  849MOL0     H17118  10.792   2.628   0.480 -0.4678  1.0952 -0.6800
  849MOL0     H17119  10.658   2.578   0.580 -2.2077  2.0654 -2.1510
  849MOL0     H17120  10.890   2.203   0.573  0.3164  0.9050  0.9958
  849MOL0     H17121  11.213   2.057   0.519  0.4878  0.3049  1.7482
  849MOL0     H17122  11.079   1.986   0.427 -2.1315 -0.1619  1.4906
  849MOL0     H17123  11.057   2.041   0.595  1.5998  1.0986  0.7426
  849MOL0     H17124  11.595   2.279   0.315  2.3540  3.2710 -0.8854
  849MOL0     H17125  11.787   2.224   0.151 -0.0733 -1.4315  0.3650
  849MOL0     H17126  11.720   2.122  -0.268 -0.3919  1.7401 -2.2388
  849MOL0     H17127  11.716   2.301  -0.274 -0.3784 -0.0364 -0.2475
  849MOL0     H17128  11.908   2.212  -0.416 -2.2068  3.4884  0.7062
  849MOL0     H17129  11.943   2.316  -0.277 -1.9674  0.2481  0.6873
  849MOL0     H17130  11.966   2.024  -0.253  0.5814 -0.2363 -1.6719
  849MOL0     H17131  12.023   2.153  -0.140 -2.1395 -0.5225  0.8903
  849MOL0     H17132  12.137   2.121  -0.424 -1.1743  0.2282  0.2614
  849MOL0     H17133  12.197   2.021  -0.292  0.7910 -0.6581 -0.9792
  849MOL0     H17134  12.187   2.336  -0.288  1.5889  1.2216 -1.0039
  849MOL0     H17135  12.244   2.223  -0.162  1.3796 -0.9226 -0.8707
  849MOL0     H17136  12.351   2.231  -0.454  0.9894  0.6258  0.4149
  849MOL0     H17137  12.399   2.132  -0.330 -0.1733  0.1048 -0.8408
  849MOL0     H17138  12.443   2.359  -0.188 -3.4169  1.7582 -0.2904
  849MOL0     H17139  12.413   2.440  -0.339  1.7722  1.7103  2.0731
  849MOL0     H17140  12.645   2.413  -0.346 -0.0847 -0.2670  1.5156
  849MOL0     H17141  12.581   2.289  -0.459 -0.3656  1.3803 -0.0060
  849MOL0     H17142  11.514   2.171  -0.165  0.5196  0.6291 -1.4291
  849MOL0     H17143  11.339   2.224  -0.017  0.8046 -1.1980 -0.4306
  849MOL0     H17144  11.139   2.438   0.223 -1.2441  0.6056  1.1235
  849MOL0     H17145  10.945   2.543   0.319 -1.2300 -1.7733 -1.8744
  849MOL0     H17146  10.737   3.158   0.350  1.0276 -0.1547 -1.7484
  849MOL0     H17147  10.949   3.057   0.399 -0.7603  0.5805  0.0115
  849MOL0     H17148  11.325   3.001   0.525  1.4930  0.1232  0.8870
  849MOL0     H17149  11.535   2.902   0.605  1.2023  1.0364  0.5418
  849MOL0     H17150  11.969   2.927   0.465 -0.9048 -2.7547  1.7928
  849MOL0     H17151  11.911   3.096   0.487 -0.7066 -0.0360 -1.9441
  849MOL0     H17152  11.963   2.897   0.704 -3.9238 -0.4017 -0.1902
  849MOL0     H17153  11.899   3.058   0.725  0.9676 -0.0309  0.9635
  849MOL0     H17154  12.123   3.101   0.564  0.9421  0.3769  0.5906
  849MOL0     H17155  12.087   3.153   0.722  1.5038  0.1544 -0.1638
  849MOL0     H17156  12.305   3.012   0.685 -0.3441  0.7343 -0.9164
  849MOL0     H17157  12.220   2.881   0.636  1.7122  0.9663 -0.8428
  849MOL0     H17158  12.156   2.878   1.063  1.0827 -0.8858  0.4036
  849MOL0     H17159  11.755   3.213   0.437 -0.3747 -1.3992  0.1746
  849MOL0     H17160  11.479   3.430   0.365 -0.6636 -1.2000 -2.5178
  849MOL0     H17161  11.661   3.410   0.352  0.1995  0.7087 -1.4821
  849MOL0     H17162  11.561   3.342   0.236  3.2263 -2.8532  0.4898
  850MOL0     O17163   2.085   3.495   2.998  0.3187 -0.5692  0.5282
  850MOL0     C17164   2.040   3.442   2.894 -0.3039 -0.1008 -0.5844
  850MOL0     O17165   2.115   3.386   2.799 -0.3195 -0.1348  0.3951
  850MOL0     C17166   2.246   3.365   2.807 -0.4626  0.3409  0.0263
  850MOL0     C17167   2.323   3.398   2.694  0.0126 -0.0343  0.2100
  850MOL0     C17168   2.457   3.367   2.687 -0.7243  0.7204  0.3889
  850MOL0     C17169   2.529   3.317   2.799 -0.8512 -0.4342  0.3483
  850MOL0     O17170   2.661   3.296   2.785  0.2756 -0.1054 -1.0242
  850MOL0     C17171   2.745   3.299   2.906  1.2893 -0.1317 -0.4231
  850MOL0     C17172   2.894   3.305   2.869 -0.0994 -0.2703  0.8461
  850MOL0     C17173   2.999   3.313   2.975  0.4371 -0.4403 -0.9479
  850MOL0     C17174   2.966   3.417   3.081 -0.6838 -0.1463  0.3263
  850MOL0     C17175   3.078   3.435   3.186 -0.1597  0.1000 -0.4108
  850MOL0     C17176   3.024   3.542   3.288 -0.3260  0.2336 -0.1378
  850MOL0     C17177   3.138   3.618   3.351  0.6053  0.5743 -0.5425
  850MOL0     C17178   3.235   3.545   3.451  0.1685  0.0488  0.5752
  850MOL0     N17179   3.315   3.644   3.522 -0.4514 -0.1412  0.6181
  850MOL0     C17180   3.438   3.687   3.474  0.6107 -0.3450 -0.0736
  850MOL0     C17181   3.484   3.769   3.573 -0.7576  0.6575 -0.5599
  850MOL0     C17182   3.621   3.840   3.577 -0.2161  0.2651 -0.2316
  850MOL0     C17183   3.735   3.738   3.578 -0.2307  0.3585 -0.0478
  850MOL0     C17184   3.737   3.637   3.692  0.6833  0.2977  0.6230
  850MOL0     C17185   3.703   3.700   3.835  0.0675 -0.0326 -0.0190
  850MOL0     O17186   3.742   3.600   3.934  0.7900 -0.5572  0.1776
  850MOL0     C17187   3.763   3.622   4.071 -0.3729  0.7818  0.7451
  850MOL0     C17188   3.830   3.516   4.129  0.5058 -0.3241 -1.0052
  850MOL0     C17189   3.852   3.521   4.268  0.2572 -0.5004  0.1264
  850MOL0     C17190   3.926   3.411   4.328 -0.5139  0.2094 -0.6205
  850MOL0     C17191   3.831   3.641   4.342  0.5957 -0.0390 -0.5218
  850MOL0     C17192   3.874   3.670   4.481  0.0359  0.0831 -0.0028
  850MOL0     O17193   3.919   3.564   4.563  0.2416 -0.4127 -0.8569
  850MOL0     C17194   3.997   3.591   4.670 -0.2338 -0.1710  0.6936
  850MOL0     C17195   3.941   3.582   4.800  0.3936 -0.9180 -0.6516
  850MOL0     C17196   4.020   3.591   4.918  0.3782 -0.4968  0.9539
  850MOL0     C17197   4.144   3.654   4.911 -0.4827  0.6740  0.4600
  850MOL0     O17198   4.205   3.680   5.031  0.1282  0.2543 -0.5283
  850MOL0     C17199   4.274   3.803   5.041  0.3908 -0.0032 -0.4436
  850MOL0     C17200   4.162   3.916   5.029 -0.3957 -0.1195  1.2238
  850MOL0     C17201   4.093   3.955   5.163 -0.0392  0.0396 -0.9897
  850MOL0     C17202   3.975   4.051   5.144  0.4920  0.4094 -0.2959
  850MOL0     C17203   3.925   4.094   5.286 -0.3641  0.1008 -0.2730
  850MOL0     C17204   3.822   4.202   5.278  0.0086 -1.0573 -0.7352
  850MOL0     C17205   3.850   4.332   5.211  0.6815  0.7367 -0.1690
  850MOL0     C17206   3.823   4.451   5.309  0.0053 -0.5339  0.0351
  850MOL0    Cl17207   3.850   4.607   5.206  0.1055  0.1776  0.2007
  850MOL0     C17208   4.204   3.668   4.787 -0.7794 -0.2446 -0.9779
  850MOL0     C17209   4.128   3.646   4.667 -0.0678  0.0474 -0.1825
  850MOL0     O17210   3.896   3.789   4.508 -0.1987 -0.7125 -0.3984
  850MOL0     C17211   3.765   3.744   4.270  0.0992 -0.1076 -0.1994
  850MOL0     C17212   3.727   3.734   4.138  0.1201 -0.0453  0.9012
  850MOL0     N17213   3.396   3.777   3.677 -0.0137 -0.0936  0.1706
  850MOL0     N17214   3.289   3.702   3.640  0.1630 -0.4210  0.2762
  850MOL0     C17215   2.453   3.298   2.916 -0.1831 -0.6608 -0.1666
  850MOL0     C17216   2.312   3.319   2.923 -0.4623  0.0490  0.7589
  850MOL0     C17217   1.903   3.468   2.854  0.3958 -0.3539 -0.0357
  850MOL0     C17218   1.872   3.489   2.711 -0.1135  0.2617  0.1088
  850MOL0     C17219   1.749   3.545   2.669  0.1887 -0.1442 -0.0217
  850MOL0     C17220   1.648   3.555   2.765 -1.0440  0.4540  0.9243
  850MOL0     O17221   1.519   3.589   2.721  0.0698  0.2332  0.3830
  850MOL0     C17222   1.512   3.714   2.649  0.8847  0.1213 -0.3993
  850MOL0     C17223   1.428   3.815   2.730  0.5321 -0.4712  0.7107
  850MOL0     C17224   1.293   3.747   2.772  0.2359 -0.0036  0.1996
  850MOL0     C17225   1.190   3.852   2.831  0.2785  0.0927 -0.3856
  850MOL0     C17226   1.164   3.957   2.734 -0.1785  0.5052 -0.0035
  850MOL0     C17227   1.141   4.057   2.672  0.1824  0.0302  0.4782
  850MOL0     C17228   1.673   3.537   2.899 -0.1904  0.1536  0.7369
  850MOL0     C17229   1.800   3.490   2.946  0.0414  0.2258  0.8649
  850MOL0     C17230   1.806   3.483   3.097  0.9416  1.0553  0.3439
  850MOL0     H17231   2.278   3.439   2.604 -0.9484  1.1753  1.2158
  850MOL0     H17232   2.518   3.398   2.602 -1.8029  0.8789 -0.3573
  850MOL0     H17233   2.738   3.207   2.965  1.2220  0.8589  1.1729
  850MOL0     H17234   2.712   3.382   2.968  4.2742  0.5592  0.4140
  850MOL0     H17235   2.910   3.232   2.790  1.2413  2.2423 -1.3832
  850MOL0     H17236   2.900   3.407   2.829 -1.0965 -1.0864 -1.5552
  850MOL0     H17237   2.998   3.220   3.034 -2.6978 -0.5062 -0.9520
  850MOL0     H17238   3.103   3.333   2.946  1.2058  1.2813  2.4750
  850MOL0     H17239   2.957   3.517   3.037 -0.5008  0.4549  1.5975
  850MOL0     H17240   2.870   3.401   3.132 -1.6603  2.9372 -0.3143
  850MOL0     H17241   3.170   3.460   3.131 -0.0010  2.0777  0.6390
  850MOL0     H17242   3.111   3.349   3.245  0.2279 -0.5235 -1.5000
  850MOL0     H17243   2.965   3.621   3.241 -0.8800  0.5111  1.0004
  850MOL0     H17244   2.958   3.488   3.357  0.1693 -3.6059 -2.3266
  850MOL0     H17245   3.087   3.707   3.390 -4.2288 -1.9325 -0.4641
  850MOL0     H17246   3.207   3.654   3.274  1.2194 -0.5584 -0.5300
  850MOL0     H17247   3.177   3.485   3.522 -2.2336  1.0111 -0.4527
  850MOL0     H17248   3.298   3.476   3.396 -0.1320  0.9591 -0.9613
  850MOL0     H17249   3.499   3.646   3.394 -0.3028 -2.1910  0.1224
  850MOL0     H17250   3.613   3.899   3.669 -0.3594  2.2804 -1.4700
  850MOL0     H17251   3.624   3.914   3.497  0.7850  1.5709  0.9583
  850MOL0     H17252   3.732   3.681   3.485  1.2635  0.4845 -0.2051
  850MOL0     H17253   3.836   3.780   3.590  1.1627 -2.7578  0.1495
  850MOL0     H17254   3.655   3.571   3.663 -1.0543  1.6267  2.2618
  850MOL0     H17255   3.831   3.581   3.686  0.5670  0.1659 -4.5573
  850MOL0     H17256   3.771   3.785   3.843  0.6046 -0.4701  0.1724
  850MOL0     H17257   3.598   3.728   3.844 -0.4893 -1.7370 -0.7793
  850MOL0     H17258   3.849   3.423   4.075  3.3753  0.2937 -1.2142
  850MOL0     H17259   4.019   3.445   4.375 -0.6392  1.6792 -1.3844
  850MOL0     H17260   3.949   3.341   4.248 -2.4156  1.9237 -2.8035
  850MOL0     H17261   3.857   3.367   4.400  0.4631  0.4389  0.5076
  850MOL0     H17262   3.837   3.551   4.804  0.4445 -0.9783  0.2719
  850MOL0     H17263   3.979   3.584   5.018 -2.2184  1.5601  0.1460
  850MOL0     H17264   4.345   3.808   5.124  1.8992  3.0236 -1.7633
  850MOL0     H17265   4.346   3.810   4.959 -0.5678  1.6204 -1.2003
  850MOL0     H17266   4.213   4.010   5.005  1.1624 -1.1706  0.1830
  850MOL0     H17267   4.088   3.902   4.950 -1.8352  0.4135  2.4264
  850MOL0     H17268   4.166   3.993   5.235  0.0319 -2.0056  0.0841
  850MOL0     H17269   4.060   3.867   5.218  1.0672  0.8406  1.0596
  850MOL0     H17270   3.890   4.008   5.090 -1.2106  1.8469  1.0838
  850MOL0     H17271   4.004   4.134   5.080  1.5538 -0.2027 -0.6411
  850MOL0     H17272   3.889   4.009   5.345 -1.2221  0.4459 -0.2833
  850MOL0     H17273   4.011   4.131   5.342 -0.3889  1.4247 -1.0768
  850MOL0     H17274   3.793   4.226   5.381 -4.4119 -0.9240 -1.8167
  850MOL0     H17275   3.729   4.171   5.229 -0.5434  0.6429 -0.8515
  850MOL0     H17276   3.783   4.348   5.127  0.5752  0.6580 -0.0991
  850MOL0     H17277   3.954   4.340   5.176  1.3450 -1.4617  1.0685
  850MOL0     H17278   3.893   4.459   5.393  3.5920  0.5276 -2.7799
  850MOL0     H17279   3.719   4.446   5.341 -0.0476 -1.8034 -0.2741
  850MOL0     H17280   4.308   3.701   4.795 -0.4930 -1.1602 -0.8359
  850MOL0     H17281   4.167   3.670   4.569  0.4858  0.3809  0.1167
  850MOL0     H17282   3.735   3.834   4.322 -2.3752 -0.4558 -0.8987
  850MOL0     H17283   3.681   3.819   4.089  2.5670  0.6066 -0.3861
  850MOL0     H17284   2.506   3.254   3.000  0.5119 -1.3810 -0.9641
  850MOL0     H17285   2.263   3.303   3.019 -1.2013 -0.9727  0.2220
  850MOL0     H17286   1.955   3.479   2.642  0.0542 -0.0884  0.3590
  850MOL0     H17287   1.725   3.567   2.566  0.4610  0.1740 -0.0162
  850MOL0     H17288   1.604   3.764   2.616 -0.5762  1.6018 -2.4795
  850MOL0     H17289   1.461   3.702   2.553 -0.0703  0.2049  0.0922
  850MOL0     H17290   1.409   3.904   2.669  0.9972 -0.3069  0.8083
  850MOL0     H17291   1.490   3.835   2.817  0.8999  0.2874  0.2814
  850MOL0     H17292   1.245   3.701   2.685 -1.8652  2.2472  0.0487
  850MOL0     H17293   1.315   3.672   2.849  0.2827  1.6008  1.7960
  850MOL0     H17294   1.232   3.898   2.921  0.0983  2.4338 -1.4376
  850MOL0     H17295   1.089   3.812   2.847  0.2147  0.6147  0.6308
  850MOL0     H17296   1.108   4.152   2.634 -1.0886  0.5619  2.6984
  850MOL0     H17297   1.589   3.558   2.965 -0.3606 -2.6556  1.5602
  850MOL0     H17298   1.886   3.415   3.129  1.3801 -1.0003 -4.2479
  850MOL0     H17299   1.814   3.583   3.141 -0.3865  0.9603  0.8447
  850MOL0     H17300   1.723   3.425   3.138  1.8878  0.2508  1.1937
  851MOL0     O17301   1.543   8.291   0.872  0.0458  0.0375  0.5376
  851MOL0     C17302   1.490   8.397   0.902  0.1702 -0.0763 -0.3147
  851MOL0     O17303   1.547   8.517   0.941 -0.0512 -0.6853  0.9872
  851MOL0     C17304   1.681   8.525   0.967  0.0141  0.2343 -0.2826
  851MOL0     C17305   1.735   8.424   1.050 -0.7953  0.2681  0.5198
  851MOL0     C17306   1.873   8.427   1.084  0.8204  0.4499 -0.3431
  851MOL0     C17307   1.952   8.526   1.031  0.0234 -0.2292 -0.5557
  851MOL0     O17308   2.085   8.512   1.062 -0.7954  0.1353  0.0983
  851MOL0     C17309   2.177   8.601   0.986 -0.6604 -0.4677  0.4412
  851MOL0     C17310   2.322   8.576   1.030 -0.3777 -0.6580 -0.2971
  851MOL0     C17311   2.429   8.659   0.939 -0.5623  0.5506 -0.3304
  851MOL0     C17312   2.568   8.613   0.979  0.0520  0.8634  0.8334
  851MOL0     C17313   2.680   8.685   0.901  0.1904  0.1388  0.0432
  851MOL0     C17314   2.819   8.656   0.952 -0.0587  0.6920  0.0151
  851MOL0     C17315   2.922   8.717   0.860  0.0958  0.2387 -0.5125
  851MOL0     C17316   2.983   8.620   0.766  0.3828 -0.0027 -0.2185
  851MOL0     N17317   3.070   8.677   0.665  0.3486 -0.0656  0.9166
  851MOL0     C17318   3.197   8.730   0.690  0.1646 -0.0138 -0.0075
  851MOL0     C17319   3.231   8.794   0.572 -0.2804  0.1830 -0.0098
  851MOL0     C17320   3.352   8.885   0.538 -0.1695 -0.2637 -1.0970
  851MOL0     C17321   3.478   8.875   0.636 -0.1767 -0.4975 -0.2804
  851MOL0     C17322   3.600   8.950   0.588  0.3342 -0.2788  0.4092
  851MOL0     C17323   3.569   9.098   0.564 -0.6264 -0.3607  0.4316
  851MOL0     O17324   3.681   9.177   0.505 -0.1393 -0.1288 -0.8326
  851MOL0     C17325   3.804   9.164   0.562  0.0217 -0.5976 -0.1972
  851MOL0     C17326   3.909   9.127   0.483 -0.1927  0.1753  0.3909
  851MOL0     C17327   4.033   9.092   0.531 -1.6016  0.2386  0.2491
  851MOL0     C17328   4.120   9.040   0.416  0.0825  0.8876 -0.4129
  851MOL0     C17329   4.060   9.118   0.668 -0.4272  1.1302 -0.5747
  851MOL0     C17330   4.182   9.067   0.734  0.7330 -0.3457 -0.0033
  851MOL0     O17331   4.264   8.967   0.666 -0.0771 -0.0535 -0.3949
  851MOL0     C17332   4.388   8.958   0.711 -0.8342 -0.9774 -0.6377
  851MOL0     C17333   4.432   8.838   0.773  0.2935 -0.9928  0.4466
  851MOL0     C17334   4.556   8.838   0.831  0.5526  0.3094 -0.1981
  851MOL0     C17335   4.636   8.941   0.836  0.4823  0.0113  0.0188
  851MOL0     O17336   4.760   8.904   0.881  0.2582 -0.1804 -0.2605
  851MOL0     C17337   4.868   8.970   0.810 -0.0600  0.4356 -0.0680
  851MOL0     C17338   5.009   8.922   0.856  0.2544  0.1662  0.5881
  851MOL0     C17339   5.033   8.770   0.865 -0.2214  0.6647  0.0568
  851MOL0     C17340   5.050   8.708   0.727  1.0523  1.3765 -0.0464
  851MOL0     C17341   5.048   8.553   0.726  0.4739  0.5637  0.5846
  851MOL0     C17342   5.153   8.478   0.809  0.1395 -0.7489 -0.7758
  851MOL0     C17343   5.298   8.536   0.810 -0.2372  0.0016  0.5428
  851MOL0     C17344   5.369   8.501   0.682 -0.0009 -0.0265 -0.0203
  851MOL0    Cl17345   5.542   8.543   0.693  0.2382 -0.0939  0.1518
  851MOL0     C17346   4.596   9.068   0.776 -0.0165  0.7600  0.0429
  851MOL0     C17347   4.472   9.082   0.712 -0.4769 -0.1543 -0.2454
  851MOL0     O17348   4.210   9.122   0.843 -0.0500 -0.3321  0.3830
  851MOL0     C17349   3.953   9.165   0.747 -0.4563 -0.0156  0.2474
  851MOL0     C17350   3.825   9.176   0.702  0.1535 -0.0910 -0.6150
  851MOL0     N17351   3.136   8.770   0.475 -0.0745  0.5812 -0.0282
  851MOL0     N17352   3.037   8.705   0.537  0.0589 -0.3426 -0.4786
  851MOL0     C17353   1.894   8.632   0.948  0.4005  0.6042  0.4693
  851MOL0     C17354   1.759   8.634   0.926 -0.9107 -0.0795  0.1739
  851MOL0     C17355   1.343   8.405   0.882 -0.5484 -0.2998 -1.1472
  851MOL0     C17356   1.275   8.283   0.868  0.4109 -0.3203  0.3496
  851MOL0     C17357   1.137   8.274   0.852 -0.4899 -0.3119 -0.7262
  851MOL0     C17358   1.054   8.384   0.854 -0.3050 -0.6720  0.1101
  851MOL0     O17359   0.918   8.363   0.850  0.7929  0.3219 -0.1404
  851MOL0     C17360   0.845   8.453   0.922  0.9383 -0.1280  0.0255
  851MOL0     C17361   0.699   8.420   0.918  0.1649 -0.2438  0.0012
  851MOL0     C17362   0.658   8.285   0.983  0.1555 -0.7099 -0.6136
  851MOL0     C17363   0.508   8.267   0.985  0.4037 -0.9987 -1.1915
  851MOL0     C17364   0.460   8.142   1.062  0.1404  0.3239  0.0179
  851MOL0     C17365   0.398   8.066   1.137 -0.3519  0.1999 -0.2908
  851MOL0     C17366   1.132   8.510   0.853 -0.6871 -0.4758  0.0144
  851MOL0     C17367   1.270   8.523   0.860  1.0604 -0.9405  0.8908
  851MOL0     C17368   1.325   8.667   0.847  0.5190  0.7776  0.7781
  851MOL0     H17369   1.670   8.349   1.097 -0.9209  0.4926  0.7078
  851MOL0     H17370   1.913   8.344   1.141 -1.4559 -3.0091 -3.3370
  851MOL0     H17371   2.158   8.707   1.002 -2.7440 -0.3297 -2.2518
  851MOL0     H17372   2.159   8.574   0.882  0.2105  0.3246  0.0749
  851MOL0     H17373   2.341   8.608   1.133 -2.0341 -0.1849 -0.1202
  851MOL0     H17374   2.344   8.469   1.028 -1.0835 -0.7963 -0.6872
  851MOL0     H17375   2.423   8.633   0.833  2.0896 -0.6824 -0.2517
  851MOL0     H17376   2.414   8.765   0.963  1.2534  0.1502  3.2734
  851MOL0     H17377   2.586   8.637   1.084 -2.6001  1.7711  1.1436
  851MOL0     H17378   2.575   8.505   0.960  0.0851  0.8525  0.9075
  851MOL0     H17379   2.664   8.793   0.902  2.9070  0.7497 -3.0848
  851MOL0     H17380   2.672   8.666   0.793  0.9637 -0.1034  0.0226
  851MOL0     H17381   2.832   8.694   1.053 -2.7884  2.0248 -0.0468
  851MOL0     H17382   2.816   8.546   0.956 -2.3815  0.6961 -0.3120
  851MOL0     H17383   2.993   8.761   0.930  3.1040  0.1855 -3.2717
  851MOL0     H17384   2.874   8.792   0.797 -0.4933 -0.4607 -0.9221
  851MOL0     H17385   3.029   8.545   0.831  1.1026  1.1592  0.6627
  851MOL0     H17386   2.906   8.568   0.709  1.3552 -0.7569 -0.8804
  851MOL0     H17387   3.248   8.738   0.785  3.1679 -0.9995 -1.3992
  851MOL0     H17388   3.325   8.990   0.547 -0.3665 -0.2945 -1.3311
  851MOL0     H17389   3.386   8.867   0.436  2.5778  0.8719 -0.4962
  851MOL0     H17390   3.445   8.903   0.737  0.7593 -0.1457 -0.0616
  851MOL0     H17391   3.505   8.769   0.648 -0.2317 -0.3075  2.1271
  851MOL0     H17392   3.682   8.943   0.660  3.2174 -1.2937 -2.7024
  851MOL0     H17393   3.648   8.900   0.503  2.3958  0.2744  1.1921
  851MOL0     H17394   3.480   9.117   0.502 -1.9229  0.8661  2.5268
  851MOL0     H17395   3.531   9.148   0.653 -0.7102 -0.9177  0.7131
  851MOL0     H17396   3.886   9.115   0.377  2.6238 -1.1064 -0.1786
  851MOL0     H17397   4.226   9.046   0.441 -0.2922  0.2429  1.4654
  851MOL0     H17398   4.098   9.096   0.325 -1.9190  0.3327 -0.3221
  851MOL0     H17399   4.102   8.935   0.393  0.9992  0.9132 -1.2944
  851MOL0     H17400   4.355   8.762   0.778 -1.0403  0.1508 -1.5308
  851MOL0     H17401   4.587   8.740   0.864  1.5381  0.1839 -1.4394
  851MOL0     H17402   4.857   8.945   0.704 -0.9272 -1.2030  0.3670
  851MOL0     H17403   4.861   9.079   0.809 -0.6689  0.4226 -2.2717
  851MOL0     H17404   5.083   8.969   0.791  2.1940 -2.2087  0.9658
  851MOL0     H17405   5.035   8.961   0.954 -2.2286  1.5771  0.7727
  851MOL0     H17406   4.937   8.725   0.890 -0.7864  1.3132 -0.9082
  851MOL0     H17407   5.113   8.726   0.925  0.8633 -1.8683 -2.9696
  851MOL0     H17408   5.140   8.745   0.677  3.2266 -1.3684  1.5440
  851MOL0     H17409   4.958   8.737   0.676  0.3136  1.9675  1.5326
  851MOL0     H17410   4.950   8.509   0.747  0.3250 -1.8650 -3.9710
  851MOL0     H17411   5.058   8.528   0.620  1.4354 -2.2183  1.2767
  851MOL0     H17412   5.162   8.374   0.778  1.0768 -1.3873  1.4506
  851MOL0     H17413   5.124   8.472   0.914 -0.1844  0.6127 -0.7654
  851MOL0     H17414   5.355   8.489   0.891 -0.9985  0.0842  1.1511
  851MOL0     H17415   5.304   8.643   0.831  1.5199 -0.1165  0.7750
  851MOL0     H17416   5.315   8.553   0.602  1.2230  2.6534  0.7723
  851MOL0     H17417   5.364   8.393   0.663 -0.6687 -0.1145  0.6016
  851MOL0     H17418   4.668   9.149   0.786 -0.3422  0.8623  1.8685
  851MOL0     H17419   4.429   9.176   0.678  1.4802  2.0291  2.8055
  851MOL0     H17420   3.964   9.184   0.853  1.7702 -1.6461  0.3848
  851MOL0     H17421   3.743   9.214   0.762 -0.2301  0.4663 -1.4831
  851MOL0     H17422   1.958   8.706   0.900  0.1427 -0.3706 -1.5141
  851MOL0     H17423   1.709   8.708   0.863  0.3747  1.0276  0.4056
  851MOL0     H17424   1.335   8.194   0.856  0.4587 -0.1684 -0.6225
  851MOL0     H17425   1.093   8.175   0.841  0.3821 -0.6367 -1.3192
  851MOL0     H17426   0.877   8.464   1.026 -1.6244  0.6935  0.7952
  851MOL0     H17427   0.862   8.551   0.876  3.0608 -0.0307  0.8870
  851MOL0     H17428   0.682   8.424   0.810  3.7987  0.7211 -0.6708
  851MOL0     H17429   0.660   8.504   0.976  3.9871 -0.8571  3.9618
  851MOL0     H17430   0.695   8.199   0.927  1.6963 -1.5001  1.5039
  851MOL0     H17431   0.698   8.286   1.085 -1.3678  0.2052  0.0165
  851MOL0     H17432   0.458   8.262   0.888  0.8024 -1.6444 -1.3747
  851MOL0     H17433   0.468   8.355   1.035 -0.7036 -2.2754  0.2760
  851MOL0     H17434   0.340   7.999   1.196 -0.1663  0.0171 -0.3140
  851MOL0     H17435   1.074   8.602   0.847 -3.8967 -2.1604  1.8968
  851MOL0     H17436   1.328   8.713   0.947  1.0534  3.3790 -0.3535
  851MOL0     H17437   1.418   8.679   0.792  0.8033  0.9517  1.2906
  851MOL0     H17438   1.253   8.729   0.794  0.0876  1.2369  1.8569
  852MOL0     O17439   4.403   5.741   6.488  0.3237 -0.4095 -0.3835
  852MOL0     C17440   4.347   5.850   6.471  1.1965  0.6120 -0.1804
  852MOL0     O17441   4.254   5.875   6.375  0.5442 -0.1034  0.1247
  852MOL0     C17442   4.247   5.789   6.266  0.3972  0.0671 -0.1264
  852MOL0     C17443   4.346   5.793   6.163  0.3937 -0.1363 -0.1647
  852MOL0     C17444   4.339   5.703   6.049  0.6086 -0.1659 -0.0453
  852MOL0     C17445   4.226   5.624   6.043  0.3256  0.8335  0.0454
  852MOL0     O17446   4.186   5.551   5.934 -0.3711  0.0194  0.2203
  852MOL0     C17447   4.287   5.483   5.864 -0.1945 -0.0509 -0.8820
  852MOL0     C17448   4.223   5.386   5.762  0.1193  0.0674 -0.2083
  852MOL0     C17449   4.323   5.307   5.678 -0.5790 -0.5607 -0.3221
  852MOL0     C17450   4.257   5.232   5.573  0.3007 -0.1241 -0.2238
  852MOL0     C17451   4.355   5.145   5.490  0.1094 -0.5483 -0.0701
  852MOL0     C17452   4.446   5.232   5.405  0.7398  0.4732 -0.6532
  852MOL0     C17453   4.527   5.147   5.312 -1.1405 -0.0868  0.7674
  852MOL0     C17454   4.606   5.236   5.223  0.4963  0.0119  0.3037
  852MOL0     N17455   4.681   5.169   5.116 -0.4101  0.3162  0.0004
  852MOL0     C17456   4.798   5.103   5.128 -0.3806 -0.3871  0.6146
  852MOL0     C17457   4.831   5.076   4.996  0.3298  0.5069  0.1260
  852MOL0     C17458   4.960   5.011   4.963 -0.4914 -0.1916 -0.7921
  852MOL0     C17459   5.015   5.075   4.835  0.2752  0.1501 -0.0369
  852MOL0     C17460   5.073   5.211   4.873 -0.7684 -0.5104  0.7422
  852MOL0     C17461   5.160   5.260   4.757  0.2210 -0.5080 -0.0166
  852MOL0     O17462   5.167   5.397   4.772  0.2507  1.1361  0.0129
  852MOL0     C17463   5.284   5.447   4.729 -0.4050 -0.0231  0.8816
  852MOL0     C17464   5.322   5.441   4.594 -0.9712 -0.1697  0.1032
  852MOL0     C17465   5.428   5.519   4.539  0.0168  0.9610 -0.4421
  852MOL0     C17466   5.470   5.488   4.398  0.2107 -0.2053 -0.1390
  852MOL0     C17467   5.501   5.605   4.621  0.0721  0.4156  0.4744
  852MOL0     C17468   5.610   5.701   4.574 -1.4010  0.0765  0.0014
  852MOL0     O17469   5.688   5.768   4.670 -0.2279  0.4328 -0.1161
  852MOL0     C17470   5.793   5.843   4.631  0.5668 -0.9255  0.7113
  852MOL0     C17471   5.922   5.827   4.701  0.4565  0.4500  0.3088
  852MOL0     C17472   6.038   5.891   4.666  0.6398 -0.2947  0.0548
  852MOL0     C17473   6.024   5.992   4.560  0.3426  0.6981 -0.4189
  852MOL0     O17474   6.117   6.084   4.518 -0.4349 -0.6779  0.0310
  852MOL0     C17475   6.252   6.032   4.534 -0.5135  0.7479  0.0591
  852MOL0     C17476   6.342   6.112   4.445 -0.1106  0.7285  0.3833
  852MOL0     C17477   6.357   6.253   4.493  0.3339 -1.3617  0.1882
  852MOL0     C17478   6.482   6.336   4.444  0.2253 -0.1202  0.3771
  852MOL0     C17479   6.506   6.472   4.512  0.1965 -0.4433  0.0484
  852MOL0     C17480   6.617   6.559   4.453  0.6923 -0.6283  0.6021
  852MOL0     C17481   6.754   6.497   4.450 -0.2691 -0.2079  0.1026
  852MOL0     C17482   6.867   6.591   4.412 -0.1155  0.6774  0.3002
  852MOL0    Cl17483   7.026   6.501   4.397 -0.2531 -0.2827 -0.6008
  852MOL0     C17484   5.901   6.011   4.495 -0.2727  0.5752 -0.6239
  852MOL0     C17485   5.779   5.944   4.535 -0.5543  0.0324 -0.0641
  852MOL0     O17486   5.630   5.719   4.457  0.0293  0.6870 -0.5713
  852MOL0     C17487   5.474   5.603   4.756 -0.1701  0.5256  0.3773
  852MOL0     C17488   5.359   5.533   4.810  0.0489 -0.0478 -0.1629
  852MOL0     N17489   4.738   5.118   4.910  0.1789  0.0691 -0.3004
  852MOL0     N17490   4.655   5.175   4.985 -0.0632 -0.1775  0.7595
  852MOL0     C17491   4.146   5.604   6.159 -0.6172  0.1719 -0.5347
  852MOL0     C17492   4.146   5.693   6.261 -0.7083  0.1630 -0.2262
  852MOL0     C17493   4.363   5.961   6.574  0.5647  0.7290 -0.4105
  852MOL0     C17494   4.260   6.052   6.578  0.0136 -0.9534  0.8017
  852MOL0     C17495   4.269   6.168   6.662  0.3526  0.2535 -0.1019
  852MOL0     C17496   4.377   6.192   6.744  0.7034 -0.2264  0.6158
  852MOL0     O17497   4.395   6.302   6.824 -0.0114 -0.0527 -1.1825
  852MOL0     C17498   4.337   6.421   6.776 -0.1309 -0.1436 -0.2642
  852MOL0     C17499   4.376   6.539   6.868 -0.1983  0.3910  0.1216
  852MOL0     C17500   4.291   6.529   6.991 -0.1844 -0.2459  0.4316
  852MOL0     C17501   4.333   6.610   7.108  0.4354 -0.4527  0.2154
  852MOL0     C17502   4.270   6.579   7.234 -0.7236  0.8517  0.7139
  852MOL0     C17503   4.210   6.534   7.329  0.3126 -0.9039  0.8890
  852MOL0     C17504   4.470   6.090   6.751 -0.0999  0.2668  0.6980
  852MOL0     C17505   4.469   5.979   6.669 -0.1572  0.5006 -0.2689
  852MOL0     C17506   4.581   5.879   6.688 -0.0201 -0.0244  0.7501
  852MOL0     H17507   4.422   5.868   6.182  0.0671 -0.6266  3.8890
  852MOL0     H17508   4.415   5.706   5.972  1.6335  0.5440  0.9399
  852MOL0     H17509   4.364   5.440   5.930  0.8857 -1.0950 -2.7247
  852MOL0     H17510   4.344   5.556   5.804 -2.8081  0.4125 -2.9878
  852MOL0     H17511   4.164   5.312   5.816 -2.4351 -2.2487 -5.4258
  852MOL0     H17512   4.159   5.454   5.705 -0.3389 -0.4749 -0.3465
  852MOL0     H17513   4.391   5.374   5.625 -2.3297  0.0418 -1.9418
  852MOL0     H17514   4.384   5.242   5.741 -1.7425  0.8039  2.3501
  852MOL0     H17515   4.189   5.168   5.630  0.0281  0.2092 -0.1665
  852MOL0     H17516   4.200   5.305   5.515 -1.6315 -0.3642  1.2419
  852MOL0     H17517   4.300   5.078   5.422 -0.7858 -0.7882  0.8651
  852MOL0     H17518   4.406   5.070   5.552  0.7219  0.2304  0.3781
  852MOL0     H17519   4.376   5.304   5.359 -0.6163 -0.1343  0.3919
  852MOL0     H17520   4.525   5.277   5.466  0.0648  0.4417  0.2615
  852MOL0     H17521   4.465   5.076   5.258 -0.8771 -0.1283  0.5207
  852MOL0     H17522   4.589   5.088   5.380 -1.5722 -2.2242 -0.6137
  852MOL0     H17523   4.535   5.306   5.179  0.2415  1.3099  2.6402
  852MOL0     H17524   4.681   5.295   5.276  0.8903 -1.0990  1.0148
  852MOL0     H17525   4.861   5.077   5.213  1.3624 -3.2615 -1.3746
  852MOL0     H17526   4.938   4.906   4.942  0.2953 -0.7987  1.1747
  852MOL0     H17527   5.030   5.008   5.047 -1.3177 -0.2071 -0.0835
  852MOL0     H17528   5.091   5.012   4.786  1.3002  1.8924 -0.8038
  852MOL0     H17529   4.933   5.085   4.763 -0.6486  0.7210  1.0828
  852MOL0     H17530   4.992   5.277   4.903 -0.4582  0.4916 -0.5147
  852MOL0     H17531   5.144   5.199   4.956  0.7290  4.4410  0.5035
  852MOL0     H17532   5.258   5.218   4.778 -0.1879 -0.5463  2.0480
  852MOL0     H17533   5.130   5.230   4.656  4.1317 -0.8939 -1.2180
  852MOL0     H17534   5.271   5.366   4.533 -0.9829 -1.3493  1.5116
  852MOL0     H17535   5.406   5.408   4.360  0.1739 -0.0442 -0.4185
  852MOL0     H17536   5.578   5.472   4.388  0.1421 -0.0677 -1.1561
  852MOL0     H17537   5.451   5.570   4.329 -2.3636 -0.4834  0.1619
  852MOL0     H17538   5.919   5.753   4.780  1.5290 -0.6070 -0.6176
  852MOL0     H17539   6.133   5.866   4.714  0.0909 -0.6126  0.9932
  852MOL0     H17540   6.284   6.048   4.638  0.1298  0.1958 -0.0438
  852MOL0     H17541   6.267   5.928   4.504  1.7710  0.7568  0.9331
  852MOL0     H17542   6.441   6.066   4.447  0.1304  1.2221 -0.1944
  852MOL0     H17543   6.309   6.117   4.341  0.4845 -1.5361  0.0149
  852MOL0     H17544   6.367   6.256   4.602  0.0923 -0.6329  0.1980
  852MOL0     H17545   6.265   6.308   4.472  1.7372  0.0958 -2.8170
  852MOL0     H17546   6.471   6.350   4.336 -1.3838 -0.5703  0.4472
  852MOL0     H17547   6.575   6.281   4.457  2.1556  2.8361 -0.0717
  852MOL0     H17548   6.416   6.534   4.515  0.0430 -0.6783  0.4392
  852MOL0     H17549   6.531   6.450   4.616  0.9820  1.2645  0.2648
  852MOL0     H17550   6.619   6.647   4.518  1.8464  1.0956 -1.6683
  852MOL0     H17551   6.593   6.589   4.351 -1.3197 -1.1137  0.8752
  852MOL0     H17552   6.751   6.423   4.370  1.1535 -3.2941  2.6991
  852MOL0     H17553   6.780   6.436   4.537  0.1746  0.3845  0.3891
  852MOL0     H17554   6.882   6.673   4.483  1.2460  2.1453 -1.5848
  852MOL0     H17555   6.849   6.633   4.313 -0.6231 -2.3634 -1.0136
  852MOL0     H17556   5.882   6.089   4.422 -0.3514  1.1221 -0.0282
  852MOL0     H17557   5.688   5.970   4.482 -0.2545 -1.2418 -1.2727
  852MOL0     H17558   5.525   5.664   4.830  4.0272 -1.6336 -0.4481
  852MOL0     H17559   5.323   5.538   4.912 -2.5358  3.7491 -1.0326
  852MOL0     H17560   4.066   5.530   6.157 -2.1867  1.7263  0.7749
  852MOL0     H17561   4.070   5.683   6.337  1.1419  0.0119  1.6932
  852MOL0     H17562   4.172   6.048   6.514  0.7329 -1.5581 -0.1789
  852MOL0     H17563   4.191   6.243   6.652  0.3865  0.4138  0.7446
  852MOL0     H17564   4.381   6.444   6.679  0.8287 -0.3068  0.1218
  852MOL0     H17565   4.228   6.421   6.765 -0.6400  4.5764  2.1132
  852MOL0     H17566   4.370   6.640   6.827 -3.8252 -0.0595 -0.7959
  852MOL0     H17567   4.479   6.519   6.899  0.1180  0.4247 -0.8769
  852MOL0     H17568   4.190   6.561   6.963  0.1460 -1.2781 -2.2447
  852MOL0     H17569   4.287   6.425   7.024 -0.8581  0.7539  3.9514
  852MOL0     H17570   4.315   6.716   7.089 -1.0283 -0.6567  0.3419
  852MOL0     H17571   4.442   6.604   7.112  0.5084 -0.5825 -1.4227
  852MOL0     H17572   4.154   6.476   7.400 -1.3304  1.1199  1.3459
  852MOL0     H17573   4.549   6.099   6.825 -1.7124  1.9648  2.3396
  852MOL0     H17574   4.662   5.920   6.749  1.0757 -1.3906  0.2826
  852MOL0     H17575   4.537   5.790   6.734 -0.8685  0.0977  0.2029
  852MOL0     H17576   4.623   5.850   6.591 -0.7053  1.0814  0.1052
  853MOL0     O17577   3.399   1.335  10.789 -0.0573  0.4055 -0.0227
  853MOL0     C17578   3.422   1.223  10.837 -0.1925 -0.8312  0.2800
  853MOL0     O17579   3.323   1.121  10.832 -0.5097  0.5004 -0.1451
  853MOL0     C17580   3.272   1.087  10.711  0.3537 -0.2845 -0.4397
  853MOL0     C17581   3.170   1.002  10.715 -0.0209  0.7924 -0.0443
  853MOL0     C17582   3.102   0.959  10.598 -0.0647  0.7756 -0.2092
  853MOL0     C17583   3.153   1.011  10.471 -0.8061  0.0650 -0.9318
  853MOL0     O17584   3.084   0.972  10.365  0.3092 -0.0975 -0.2851
  853MOL0     C17585   3.108   1.052  10.243  0.6485  0.3192 -0.3700
  853MOL0     C17586   3.044   0.988  10.118 -0.0167 -0.5414  0.3127
  853MOL0     C17587   3.049   0.842  10.116 -0.3241 -0.2138 -0.0613
  853MOL0     C17588   2.977   0.788   9.991 -0.3708  0.2795 -0.7503
  853MOL0     C17589   2.993   0.640   9.952  0.9272 -0.3043  0.4484
  853MOL0     C17590   2.937   0.549  10.054 -0.4193  0.7986  0.5283
  853MOL0     C17591   2.777   0.569  10.086 -1.1525  0.2467  0.0533
  853MOL0     C17592   2.696   0.525   9.966  0.1236  0.4006  0.6003
  853MOL0     N17593   2.549   0.523   9.990 -0.0402  0.1760 -0.1756
  853MOL0     C17594   2.466   0.419   9.987  0.1004  0.8239 -0.0181
  853MOL0     C17595   2.341   0.464  10.018 -0.1114  0.3716  0.5385
  853MOL0     C17596   2.211   0.386  10.031  0.5509  0.4150  0.2623
  853MOL0     C17597   2.206   0.243   9.965 -0.0316 -0.0138 -0.1083
  853MOL0     C17598   2.091   0.159  10.018 -0.0781  0.0681 -0.6807
  853MOL0     C17599   1.962   0.235  10.004 -0.9660  0.2757 -0.4692
  853MOL0     O17600   1.850   0.168  10.044  0.1535  0.0114  0.3563
  853MOL0     C17601   1.806   0.155  10.174 -0.7229 -0.7024 -0.4317
  853MOL0     C17602   1.883   0.196  10.277 -0.0280 -0.2750  0.1401
  853MOL0     C17603   1.840   0.172  10.413  0.3344 -0.7094  0.2628
  853MOL0     C17604   1.931   0.234  10.519  0.1950  0.2585 -0.6138
  853MOL0     C17605   1.715   0.108  10.438 -0.3391  0.2867  0.3966
  853MOL0     C17606   1.662   0.087  10.571  0.9679 -0.4523 -0.7542
  853MOL0     O17607   1.544   0.020  10.560  0.6383 -0.5966  0.1556
  853MOL0     C17608   1.445   0.031  10.663 -0.5461  0.0052 -0.2026
  853MOL0     C17609   1.476  -0.001  10.800  0.9151 -0.4532  0.2872
  853MOL0     C17610   1.383   0.010  10.904  0.3229 -0.6919  0.3557
  853MOL0     C17611   1.266   0.078  10.873 -0.6955  0.1076  0.2553
  853MOL0     O17612   1.175   0.080  10.973 -0.3870 -0.3094 -0.2680
  853MOL0     C17613   1.136   0.207  11.024  0.0465 -0.0405 -0.6281
  853MOL0     C17614   1.247   0.290  11.097  0.3664  0.0556 -0.0409
  853MOL0     C17615   1.298   0.213  11.217 -0.2855  0.8114 -0.7055
  853MOL0     C17616   1.326   0.294  11.349  0.7105 -0.8397 -0.2573
  853MOL0     C17617   1.195   0.331  11.422  0.0555  0.2913  0.0424
  853MOL0     C17618   1.131   0.214  11.491  0.3135 -0.0757 -0.5400
  853MOL0     C17619   0.988   0.232  11.521 -0.7216  0.2783 -0.9566
  853MOL0     C17620   0.952   0.365  11.577  1.0357  0.1294  0.1714
  853MOL0    Cl17621   1.030   0.379  11.736  0.0650  0.3345  0.1905
  853MOL0     C17622   1.241   0.122  10.748  0.6638 -0.1033 -0.2417
  853MOL0     C17623   1.323   0.095  10.639  0.6345  0.2149 -0.7032
  853MOL0     O17624   1.708   0.136  10.677 -0.0730  0.1087 -0.7865
  853MOL0     C17625   1.634   0.079  10.328 -0.9385  0.5183 -0.0358
  853MOL0     C17626   1.688   0.094  10.200  0.4740 -0.8950 -0.2157
  853MOL0     N17627   2.350   0.598  10.040 -0.0942 -0.7154 -0.2550
  853MOL0     N17628   2.478   0.626  10.032  0.2738 -0.4142 -0.5876
  853MOL0     C17629   3.258   1.099  10.473  0.4032 -0.6796  0.0859
  853MOL0     C17630   3.321   1.137  10.593 -0.3940  0.9839 -0.2085
  853MOL0     C17631   3.556   1.193  10.895 -0.5620  0.2768  0.2318
  853MOL0     C17632   3.594   1.064  10.906  0.1421  0.5964  0.2522
  853MOL0     C17633   3.702   1.018  10.969  0.3133 -0.2705 -0.3443
  853MOL0     C17634   3.798   1.105  11.018 -0.2360  0.6646 -0.1168
  853MOL0     O17635   3.910   1.072  11.082 -0.0286  0.8192 -0.1025
  853MOL0     C17636   3.923   0.949  11.149 -0.4560 -0.1359  0.1123
  853MOL0     C17637   3.877   0.976  11.287 -0.0155 -0.3598 -0.0632
  853MOL0     C17638   3.724   0.979  11.309 -0.0645  0.2564 -0.1185
  853MOL0     C17639   3.662   0.972  11.448 -0.2659  0.3869 -1.4413
  853MOL0     C17640   3.704   0.852  11.527  0.2018 -0.1150 -0.2522
  853MOL0     C17641   3.740   0.766  11.604 -0.3741 -0.0856 -0.7877
  853MOL0     C17642   3.777   1.235  10.994  0.2472  0.3023 -0.6637
  853MOL0     C17643   3.657   1.280  10.941  0.3399 -0.2052  1.0478
  853MOL0     C17644   3.653   1.424  10.911 -0.3366 -0.5241  0.7933
  853MOL0     H17645   3.122   0.957  10.802 -0.9613 -0.7184 -1.2728
  853MOL0     H17646   3.012   0.899  10.605 -0.3725  0.8690 -2.6006
  853MOL0     H17647   3.216   1.056  10.227  0.7113 -0.0444 -0.0447
  853MOL0     H17648   3.056   1.148  10.249 -0.6241 -0.4445  2.3684
  853MOL0     H17649   2.940   1.019  10.135  0.7690  1.0642  2.7557
  853MOL0     H17650   3.088   1.044  10.035  0.5960  0.1901  1.1040
  853MOL0     H17651   3.153   0.807  10.117 -0.1369  0.3064 -0.9187
  853MOL0     H17652   3.015   0.793  10.208 -0.6149 -0.2863 -0.2082
  853MOL0     H17653   2.871   0.808  10.006 -0.4269 -1.3786  1.5586
  853MOL0     H17654   3.007   0.847   9.903  0.8879 -0.6039 -0.9465
  853MOL0     H17655   3.097   0.617   9.925  0.7103  0.7250 -1.4614
  853MOL0     H17656   2.939   0.614   9.861  3.2500  1.8972 -1.6981
  853MOL0     H17657   2.943   0.445  10.023  1.0887  0.9901  0.1002
  853MOL0     H17658   2.995   0.562  10.147 -1.1017  2.4176  0.7670
  853MOL0     H17659   2.743   0.667  10.122 -2.1899 -0.5515  1.3529
  853MOL0     H17660   2.760   0.501  10.170  1.2678 -0.5219 -0.0031
  853MOL0     H17661   2.722   0.605   9.896  2.4910 -0.4442  0.4222
  853MOL0     H17662   2.727   0.428   9.927 -2.3252 -0.0846 -0.3016
  853MOL0     H17663   2.490   0.316   9.962  2.0874  0.7933  1.7495
  853MOL0     H17664   2.132   0.448   9.988  0.2039 -0.6058 -0.6231
  853MOL0     H17665   2.204   0.372  10.140  2.9044  2.2138  0.7264
  853MOL0     H17666   2.193   0.254   9.857 -1.6260 -1.0463 -0.0587
  853MOL0     H17667   2.298   0.189   9.985  1.5274  2.7772  0.7372
  853MOL0     H17668   2.082   0.070   9.955 -0.3216 -1.7746  1.8057
  853MOL0     H17669   2.105   0.124  10.120 -1.3375 -0.4723 -0.6730
  853MOL0     H17670   1.971   0.321  10.071 -2.2488 -1.8245  2.6268
  853MOL0     H17671   1.947   0.259   9.898  0.1774 -1.4249 -1.0555
  853MOL0     H17672   1.978   0.247  10.263  1.0449 -1.7702  1.5754
  853MOL0     H17673   2.026   0.267  10.476  1.3135 -0.4029  1.2068
  853MOL0     H17674   1.944   0.156  10.595 -1.4522 -2.2181 -2.7336
  853MOL0     H17675   1.878   0.318  10.567  0.2052  0.0484 -0.2248
  853MOL0     H17676   1.575  -0.042  10.818  1.1653 -1.1479 -2.3511
  853MOL0     H17677   1.403  -0.020  11.006  4.0636  0.1728  0.0429
  853MOL0     H17678   1.095   0.270  10.945 -0.0792 -2.1443 -2.3408
  853MOL0     H17679   1.055   0.200  11.098  0.5132  1.9333  0.1476
  853MOL0     H17680   1.328   0.314  11.027  0.7221 -0.2207  0.2737
  853MOL0     H17681   1.200   0.386  11.121 -3.5663 -1.5686 -0.5830
  853MOL0     H17682   1.395   0.166  11.200  0.4147  0.2996  3.5998
  853MOL0     H17683   1.226   0.134  11.241  0.5932  1.2164  4.2760
  853MOL0     H17684   1.377   0.390  11.338 -0.0740  0.0399  2.6852
  853MOL0     H17685   1.387   0.229  11.413  0.5680 -0.9266 -0.2078
  853MOL0     H17686   1.213   0.406  11.500  0.9076 -0.1850  0.3133
  853MOL0     H17687   1.127   0.369  11.345  1.6680 -0.9680 -2.0984
  853MOL0     H17688   1.184   0.202  11.585 -2.2450 -4.0153  0.6323
  853MOL0     H17689   1.140   0.122  11.433 -0.3151 -0.2317 -0.3947
  853MOL0     H17690   0.954   0.161  11.597 -1.6646  1.8036  0.0986
  853MOL0     H17691   0.925   0.209  11.434  0.9049 -1.7268 -1.6951
  853MOL0     H17692   0.845   0.358  11.600  0.7807  0.5734 -0.8438
  853MOL0     H17693   0.951   0.451  11.509  5.0209  1.4112  1.4469
  853MOL0     H17694   1.149   0.179  10.734  0.2303 -0.8070 -0.3385
  853MOL0     H17695   1.285   0.143  10.550 -0.4664  1.0297  0.1858
  853MOL0     H17696   1.536   0.033  10.336  1.1867 -4.4674  1.5603
  853MOL0     H17697   1.639   0.057  10.110  0.0359  0.9389 -0.7787
  853MOL0     H17698   3.300   1.157  10.392  1.1725 -0.8291  0.3767
  853MOL0     H17699   3.415   1.191  10.581  0.9606 -1.2240 -0.0823
  853MOL0     H17700   3.524   0.992  10.865 -2.1623  2.8522 -0.0223
  853MOL0     H17701   3.718   0.912  10.984  3.2069 -0.3326 -2.8121
  853MOL0     H17702   3.870   0.865  11.102 -2.9011  1.1648  0.3777
  853MOL0     H17703   4.030   0.929  11.160 -0.2411 -0.8212 -2.5464
  853MOL0     H17704   3.918   1.073  11.315  0.7346 -0.9235  0.9079
  853MOL0     H17705   3.915   0.905  11.361 -3.1435 -0.2239  1.8365
  853MOL0     H17706   3.691   1.078  11.277  0.8910  0.5581 -0.2207
  853MOL0     H17707   3.669   0.911  11.244  0.3107 -0.0628 -0.1095
  853MOL0     H17708   3.554   0.961  11.436 -0.6077 -0.5536  1.7644
  853MOL0     H17709   3.691   1.057  11.512 -1.9448  0.0780 -0.2196
  853MOL0     H17710   3.789   0.690  11.660  0.2235  1.6404  1.1801
  853MOL0     H17711   3.857   1.302  11.024 -0.5639  0.6911  0.7001
  853MOL0     H17712   3.585   1.478  10.977 -0.5884  1.6522 -1.1173
  853MOL0     H17713   3.752   1.469  10.915  0.1684 -1.6720  2.1171
  853MOL0     H17714   3.633   1.436  10.804 -0.4860  2.4524  1.0917
  854MOL0     O17715   2.211   1.375   0.144  0.0629 -0.4477 -0.4740
  854MOL0     C17716   2.277   1.331   0.238  0.4779 -0.4235  0.8225
  854MOL0     O17717   2.413   1.328   0.249 -0.8864  0.5044 -0.3692
  854MOL0     C17718   2.493   1.370   0.150  0.4316 -0.6087  0.4760
  854MOL0     C17719   2.561   1.489   0.163 -0.5749  0.6537 -0.0229
  854MOL0     C17720   2.642   1.528   0.060 -0.1855  0.2504  0.2528
  854MOL0     C17721   2.659   1.450  -0.051  0.7206 -0.5946  0.4648
  854MOL0     O17722   2.740   1.496  -0.163 -0.0693 -0.6679 -0.6817
  854MOL0     C17723   2.848   1.595  -0.135  0.4821  0.1169  0.0055
  854MOL0     C17724   2.968   1.574  -0.229 -0.7534 -0.0241  0.2143
  854MOL0     C17725   3.030   1.432  -0.208  0.7510  0.4841  0.0446
  854MOL0     C17726   3.137   1.387  -0.307 -0.3019 -0.0219  0.5647
  854MOL0     C17727   3.215   1.258  -0.279 -0.2766  0.1304  0.2312
  854MOL0     C17728   3.151   1.132  -0.336  0.2929 -0.6505 -0.1381
  854MOL0     C17729   3.219   0.998  -0.301  0.0530  0.6174 -0.7682
  854MOL0     C17730   3.190   0.951  -0.158 -0.2297 -0.0330  1.0334
  854MOL0     N17731   3.235   0.817  -0.134 -0.5363 -0.5273  0.0152
  854MOL0     C17732   3.178   0.714  -0.195  0.3132  0.4000 -0.1856
  854MOL0     C17733   3.260   0.607  -0.158 -0.3843  0.0637  0.4185
  854MOL0     C17734   3.231   0.462  -0.206 -0.0056  0.1656  0.1382
  854MOL0     C17735   3.087   0.431  -0.167  0.4584  0.5217 -0.3527
  854MOL0     C17736   3.070   0.286  -0.109  0.0421 -0.2565  0.1279
  854MOL0     C17737   3.096   0.175  -0.207  0.9798  0.8624  0.1331
  854MOL0     O17738   3.236   0.169  -0.222  0.1756  0.3717  0.7743
  854MOL0     C17739   3.283   0.061  -0.288 -0.3214  0.3336 -0.0973
  854MOL0     C17740   3.420   0.050  -0.290  0.0656  0.3211  0.6790
  854MOL0     C17741   3.493  -0.058  -0.346  0.4405  0.5634  0.1587
  854MOL0     C17742   3.647  -0.068  -0.325  0.1191  0.0125  0.7763
  854MOL0     C17743   3.418  -0.165  -0.409  0.7342  0.0445  0.9786
  854MOL0     C17744   3.474  -0.276  -0.486 -1.1833  1.6894 -0.4304
  854MOL0     O17745   3.399  -0.395  -0.488 -0.5726 -0.0787  0.5508
  854MOL0     C17746   3.447  -0.498  -0.564  0.4701  0.5044  0.9178
  854MOL0     C17747   3.341  -0.558  -0.645  0.7641 -0.2171  0.1988
  854MOL0     C17748   3.363  -0.673  -0.723  0.6210  0.3479  0.6225
  854MOL0     C17749   3.503  -0.718  -0.743 -0.0427 -0.2183  0.5978
  854MOL0     O17750   3.519  -0.807  -0.840 -0.3950  0.5621  0.0918
  854MOL0     C17751   3.647  -0.798  -0.909  0.7732  0.2605 -0.6105
  854MOL0     C17752   3.658  -0.683  -1.008  0.0127 -0.0816 -0.3929
  854MOL0     C17753   3.785  -0.692  -1.086  0.7107 -0.3797 -0.7866
  854MOL0     C17754   3.770  -0.638  -1.231  0.1355  0.2175  0.1877
  854MOL0     C17755   3.906  -0.597  -1.288  0.0553 -0.1863 -0.5110
  854MOL0     C17756   4.016  -0.703  -1.273 -0.8077  0.5204 -0.1121
  854MOL0     C17757   4.152  -0.650  -1.336  0.1063  0.5424 -0.0801
  854MOL0     C17758   4.272  -0.747  -1.308  0.9109  0.5811 -0.8742
  854MOL0    Cl17759   4.258  -0.889  -1.430 -0.6006  0.0318  0.6131
  854MOL0     C17760   3.602  -0.661  -0.662  0.7651 -0.4973  0.5140
  854MOL0     C17761   3.573  -0.552  -0.575  0.2306  0.0442 -0.6264
  854MOL0     O17762   3.580  -0.268  -0.543  0.4552  0.5435 -0.5767
  854MOL0     C17763   3.274  -0.151  -0.412  0.4622 -0.0774  0.1547
  854MOL0     C17764   3.211  -0.038  -0.351  0.2069  0.6899 -1.1923
  854MOL0     N17765   3.375   0.646  -0.098  0.1080  0.1072  0.6404
  854MOL0     N17766   3.362   0.778  -0.078  0.3312  0.3205  0.7695
  854MOL0     C17767   2.594   1.333  -0.069 -0.8819  0.1859  0.1060
  854MOL0     C17768   2.508   1.293   0.030  0.2143  0.1627 -0.5182
  854MOL0     C17769   2.200   1.282   0.355  0.2150  0.0027 -0.3054
  854MOL0     C17770   2.136   1.160   0.347 -1.3939 -0.7630 -0.0218
  854MOL0     C17771   2.057   1.112   0.444 -0.0956  0.3880 -0.4583
  854MOL0     C17772   2.032   1.186   0.556  0.0722 -0.0539 -0.0164
  854MOL0     O17773   1.962   1.115   0.653  0.4070  0.3286  0.1780
  854MOL0     C17774   1.944   1.164   0.784 -0.3473 -0.1034  0.5190
  854MOL0     C17775   1.816   1.101   0.855  0.4188 -0.9342 -0.4269
  854MOL0     C17776   1.760   1.172   0.980  0.0566  0.2243  0.2083
  854MOL0     C17777   1.813   1.126   1.114 -0.5440  0.4140 -0.4905
  854MOL0     C17778   1.962   1.131   1.121  0.7271  0.5881  1.2197
  854MOL0     C17779   2.081   1.159   1.137  0.3294  0.0192  0.8375
  854MOL0     C17780   2.106   1.307   0.575  0.3913 -0.4850  0.3346
  854MOL0     C17781   2.189   1.355   0.477 -0.2959 -0.7172  0.0259
  854MOL0     C17782   2.269   1.486   0.503 -0.5386  0.0899 -0.0310
  854MOL0     H17783   2.541   1.548   0.253  0.6467  0.4747  0.3913
  854MOL0     H17784   2.698   1.621   0.069  2.1289 -0.7971 -1.9911
  854MOL0     H17785   2.889   1.588  -0.034  2.0957  1.3053 -0.5274
  854MOL0     H17786   2.816   1.699  -0.149  1.0384  0.3720  0.6206
  854MOL0     H17787   2.931   1.591  -0.330  1.5958  1.8411 -0.4120
  854MOL0     H17788   3.045   1.652  -0.220  0.9011 -1.6964  1.3089
  854MOL0     H17789   3.082   1.419  -0.113  0.1052  4.2333  1.0681
  854MOL0     H17790   2.948   1.359  -0.211 -0.4182  1.5893  2.5498
  854MOL0     H17791   3.108   1.392  -0.413 -2.7004  0.6764  1.1934
  854MOL0     H17792   3.222   1.457  -0.305  1.9871 -2.6491  2.0206
  854MOL0     H17793   3.230   1.260  -0.171  0.7109  0.6281  0.0924
  854MOL0     H17794   3.310   1.266  -0.333 -0.5130  1.0761 -0.0669
  854MOL0     H17795   3.046   1.120  -0.305 -0.0779  2.0421 -0.0929
  854MOL0     H17796   3.143   1.153  -0.443  2.1853 -2.1743 -0.6246
  854MOL0     H17797   3.324   0.985  -0.327 -0.4981 -0.1314 -2.8242
  854MOL0     H17798   3.167   0.924  -0.363  2.8146 -0.6842 -1.6751
  854MOL0     H17799   3.239   1.023  -0.091  1.1458  2.2877 -2.2219
  854MOL0     H17800   3.081   0.949  -0.148 -0.4541  2.9367  0.2077
  854MOL0     H17801   3.082   0.707  -0.245 -0.3722 -0.5593  1.1922
  854MOL0     H17802   3.316   0.401  -0.175  1.7644  2.6776  0.5636
  854MOL0     H17803   3.232   0.464  -0.315 -0.0634  0.3190  0.1386
  854MOL0     H17804   3.055   0.497  -0.086 -0.5350 -1.6369  1.0877
  854MOL0     H17805   3.023   0.443  -0.255  1.5792  2.0724 -1.0010
  854MOL0     H17806   3.150   0.273  -0.035 -0.2290 -0.4463  0.3910
  854MOL0     H17807   2.969   0.275  -0.068 -0.3347  1.8943 -0.1065
  854MOL0     H17808   3.041   0.090  -0.167 -1.7282  1.3923 -2.1906
  854MOL0     H17809   3.053   0.193  -0.306 -1.4463  0.3918  1.0561
  854MOL0     H17810   3.481   0.130  -0.248 -1.6505  0.6473  2.7143
  854MOL0     H17811   3.681  -0.043  -0.224 -3.6467  1.4115  1.8576
  854MOL0     H17812   3.708  -0.008  -0.392  0.8188  0.5196  1.8362
  854MOL0     H17813   3.685  -0.170  -0.338  1.3823  0.7006 -1.4944
  854MOL0     H17814   3.241  -0.516  -0.634  0.8370 -0.3323  1.4504
  854MOL0     H17815   3.296  -0.719  -0.795  0.5434  1.0413  0.2471
  854MOL0     H17816   3.728  -0.795  -0.837 -0.1956  1.1559  0.4859
  854MOL0     H17817   3.664  -0.898  -0.949 -1.8705 -2.1759  3.5780
  854MOL0     H17818   3.574  -0.684  -1.078  1.3957 -0.8609 -2.1068
  854MOL0     H17819   3.654  -0.584  -0.961  1.3893  0.6727 -1.7604
  854MOL0     H17820   3.822  -0.795  -1.088  1.2645 -0.3062  1.6480
  854MOL0     H17821   3.865  -0.631  -1.043  1.0920 -1.3886 -0.0006
  854MOL0     H17822   3.694  -0.559  -1.234 -1.1165 -0.9812 -2.1200
  854MOL0     H17823   3.729  -0.715  -1.297 -1.9311  0.0649  1.5513
  854MOL0     H17824   3.892  -0.571  -1.394 -0.4539 -0.4634 -0.5110
  854MOL0     H17825   3.949  -0.513  -1.233  1.1656 -1.2213  0.2569
  854MOL0     H17826   3.991  -0.789  -1.336 -2.5365  1.6767 -1.0911
  854MOL0     H17827   4.033  -0.737  -1.170 -0.9220 -4.6860 -1.5502
  854MOL0     H17828   4.168  -0.552  -1.291  0.7772  0.1635  0.5207
  854MOL0     H17829   4.151  -0.639  -1.445 -0.9787 -1.1581 -0.2835
  854MOL0     H17830   4.268  -0.788  -1.206 -1.0462  0.3194 -1.0169
  854MOL0     H17831   4.369  -0.697  -1.307  0.8827  0.6547 -1.6659
  854MOL0     H17832   3.706  -0.689  -0.671  0.3774 -1.7894 -0.3370
  854MOL0     H17833   3.652  -0.505  -0.517  1.9785 -1.3003 -1.8042
  854MOL0     H17834   3.212  -0.226  -0.460  1.7288  0.0510 -1.7861
  854MOL0     H17835   3.103  -0.033  -0.358  0.0858  0.4524  0.2096
  854MOL0     H17836   2.612   1.282  -0.163 -3.8482 -1.8408  0.4896
  854MOL0     H17837   2.441   1.207   0.023  1.1440 -0.5884 -0.3193
  854MOL0     H17838   2.151   1.114   0.250  1.8552 -3.9743  1.7717
  854MOL0     H17839   2.008   1.016   0.437  2.2051 -0.9330  0.3864
  854MOL0     H17840   2.030   1.125   0.839 -1.1383 -2.0386  0.4614
  854MOL0     H17841   1.942   1.272   0.802 -0.7919 -0.0769  0.3339
  854MOL0     H17842   1.840   0.999   0.884 -3.2400 -1.4311  1.3838
  854MOL0     H17843   1.727   1.089   0.792 -0.0193 -0.5981  0.1208
  854MOL0     H17844   1.770   1.280   0.968  2.1317  0.0051 -0.4240
  854MOL0     H17845   1.658   1.138   0.997 -0.1362 -0.0321 -1.3749
  854MOL0     H17846   1.787   1.025   1.147 -4.3564  1.0294 -1.1505
  854MOL0     H17847   1.773   1.184   1.198  2.3814  2.6995 -0.4910
  854MOL0     H17848   2.187   1.176   1.140  0.6188 -0.6501 -2.2826
  854MOL0     H17849   2.116   1.348   0.675  1.7253  0.8885 -0.3410
  854MOL0     H17850   2.249   1.553   0.419  0.2627  0.0128 -0.2918
  854MOL0     H17851   2.247   1.532   0.599 -3.2005 -3.2279  1.1883
  854MOL0     H17852   2.376   1.466   0.501 -0.2249  1.4709 -3.2026
  855MOL0     O17853   0.886  10.614   6.215  0.1361  0.5517  0.2101
  855MOL0     C17854   0.822  10.702   6.164  0.9082 -0.3376 -1.0671
  855MOL0     O17855   0.865  10.813   6.090  0.1782 -0.2697  0.1268
  855MOL0     C17856   0.996  10.825   6.065  1.0301 -0.8613  0.2679
  855MOL0     C17857   1.074  10.903   6.151  0.1153  0.9754 -0.5097
  855MOL0     C17858   1.204  10.916   6.121 -0.5002  0.1482 -0.2226
  855MOL0     C17859   1.266  10.858   6.007  0.5035 -0.4046 -1.5112
  855MOL0     O17860   1.401  10.857   5.989 -0.5086  0.4058  0.2046
  855MOL0     C17861   1.482  10.821   6.100  0.4301  0.3793  0.0518
  855MOL0     C17862   1.626  10.814   6.063  1.1302  0.4635 -0.8639
  855MOL0     C17863   1.727  10.787   6.183  0.5053 -0.1763 -1.1481
  855MOL0     C17864   1.857  10.715   6.148  0.3390  0.8419 -0.3405
  855MOL0     C17865   1.918  10.654   6.280 -0.2801 -0.6716 -0.5567
  855MOL0     C17866   1.977  10.515   6.258  0.6452 -0.2006  0.8483
  855MOL0     C17867   2.014  10.443   6.388  0.5629  0.3444 -0.2799
  855MOL0     C17868   2.136  10.521   6.445  0.5531 -0.0348 -0.8323
  855MOL0     N17869   2.260  10.513   6.356  0.8602 -0.0900  0.0325
  855MOL0     C17870   2.358  10.417   6.362  0.3684 -0.4136  0.5619
  855MOL0     C17871   2.471  10.466   6.312  0.4386  0.2408 -0.6935
  855MOL0     C17872   2.596  10.373   6.288  1.0477  0.3491 -0.0447
  855MOL0     C17873   2.568  10.250   6.203  0.1798 -0.4599 -0.4853
  855MOL0     C17874   2.671  10.134   6.204  0.4364  0.0841  0.7224
  855MOL0     C17875   2.800  10.192   6.153  0.1041 -0.3050 -0.1843
  855MOL0     O17876   2.893  10.088   6.175 -0.0394  0.5612 -0.1884
  855MOL0     C17877   3.025  10.133   6.195 -0.4637 -0.0308 -0.1009
  855MOL0     C17878   3.068  10.259   6.148 -0.9696 -0.6041 -0.3881
  855MOL0     C17879   3.204  10.300   6.167 -0.2083 -0.0264  0.9166
  855MOL0     C17880   3.238  10.428   6.085 -0.3567  0.2471  0.0384
  855MOL0     C17881   3.292  10.212   6.228 -0.4964 -0.3328 -0.4050
  855MOL0     C17882   3.438  10.248   6.248  0.6151 -0.0640 -0.0117
  855MOL0     O17883   3.525  10.148   6.238 -0.0965  0.2586 -0.2190
  855MOL0     C17884   3.653  10.162   6.278 -0.3536  0.5968 -0.6198
  855MOL0     C17885   3.682  10.202   6.409  0.7403 -0.2653 -0.0752
  855MOL0     C17886   3.812  10.229   6.456 -0.7483 -0.2978  0.4435
  855MOL0     C17887   3.920  10.204   6.364  0.6577  0.2931 -0.4603
  855MOL0     O17888   4.046  10.186   6.414  0.9388 -0.2860 -0.1837
  855MOL0     C17889   4.153  10.253   6.353  0.0792 -0.0441  0.9198
  855MOL0     C17890   4.277  10.201   6.427 -0.1561  0.0336 -0.3878
  855MOL0     C17891   4.404  10.282   6.390  0.4015 -1.2345 -0.4837
  855MOL0     C17892   4.521  10.270   6.495  0.0369 -0.8757  0.0278
  855MOL0     C17893   4.638  10.368   6.470 -0.7319 -0.9524 -0.1143
  855MOL0     C17894   4.739  10.353   6.587  0.2079 -0.0752 -0.1966
  855MOL0     C17895   4.880  10.403   6.554  0.9224 -1.0501 -0.0842
  855MOL0     C17896   4.985  10.373   6.658  0.0133  0.1415 -0.0130
  855MOL0    Cl17897   5.122  10.471   6.637  0.2619  0.5624 -0.1262
  855MOL0     C17898   3.888  10.188   6.234  0.3523  0.8108 -0.0456
  855MOL0     C17899   3.757  10.167   6.190  0.6410 -0.5465  0.2958
  855MOL0     O17900   3.460  10.364   6.276 -0.1166 -0.3163  0.1806
  855MOL0     C17901   3.244  10.092   6.274 -0.0140  0.4582 -0.6628
  855MOL0     C17902   3.109  10.049   6.262 -0.2103  0.0966  0.2825
  855MOL0     N17903   2.438  10.594   6.259 -0.8632  0.9244  0.6331
  855MOL0     N17904   2.318  10.624   6.302 -0.5084  0.1861 -0.2867
  855MOL0     C17905   1.182  10.791   5.920 -0.0288  0.1136  0.0570
  855MOL0     C17906   1.048  10.771   5.945  0.2966  0.1625 -0.0106
  855MOL0     C17907   0.675  10.699   6.190 -0.9428 -0.0814  0.1464
  855MOL0     C17908   0.591  10.767   6.104 -0.1729  0.1216  0.5763
  855MOL0     C17909   0.459  10.784   6.143  0.4287  0.8457  0.6898
  855MOL0     C17910   0.404  10.718   6.245  0.0714 -0.2261 -0.2794
  855MOL0     O17911   0.275  10.723   6.276  0.6702 -0.6593 -0.3744
  855MOL0     C17912   0.220  10.610   6.343  0.2353 -0.3426 -0.3603
  855MOL0     C17913   0.084  10.578   6.288 -0.5603 -0.2942 -0.2161
  855MOL0     C17914  -0.001  10.514   6.399  0.2614  0.1481 -0.3809
  855MOL0     C17915  -0.074  10.619   6.488 -0.4461  0.3311  0.3392
  855MOL0     C17916  -0.105  10.554   6.617  0.0970  0.0542 -0.4898
  855MOL0     C17917  -0.129  10.481   6.715  0.0604  0.1998 -1.1755
  855MOL0     C17918   0.487  10.646   6.335  0.3196  0.4246  0.3677
  855MOL0     C17919   0.620  10.635   6.304 -0.0892  0.1255 -0.3631
  855MOL0     C17920   0.693  10.537   6.407  0.6884 -0.7020  0.4089
  855MOL0     H17921   1.030  10.955   6.235  0.9094 -1.7755  1.7800
  855MOL0     H17922   1.268  10.972   6.189 -0.8689 -1.5101  1.5977
  855MOL0     H17923   1.458  10.719   6.129  1.6016  0.3021  0.8528
  855MOL0     H17924   1.463  10.900   6.174  1.6573  3.9315 -3.1122
  855MOL0     H17925   1.643  10.742   5.983  0.2523  0.2366 -0.8619
  855MOL0     H17926   1.658  10.911   6.024  2.3319 -0.4367 -2.2052
  855MOL0     H17927   1.758  10.885   6.221  0.9516 -1.1589  1.1488
  855MOL0     H17928   1.674  10.743   6.268 -0.1648  1.9848 -0.3676
  855MOL0     H17929   1.833  10.630   6.084  3.9241 -1.0613  0.6201
  855MOL0     H17930   1.939  10.775   6.109  2.7176 -2.3725 -0.6484
  855MOL0     H17931   1.858  10.647   6.371  4.1264  1.2096  2.8588
  855MOL0     H17932   1.995  10.725   6.310 -1.6761  0.0294  1.5717
  855MOL0     H17933   1.910  10.451   6.199  0.2748  1.8302 -1.0985
  855MOL0     H17934   2.066  10.535   6.198 -1.7753  2.0118 -2.3920
  855MOL0     H17935   2.043  10.339   6.372 -2.1622 -0.8356  1.7583
  855MOL0     H17936   1.926  10.436   6.453 -0.5537 -0.6809 -1.8463
  855MOL0     H17937   2.112  10.625   6.469  2.1454 -0.0335  1.0696
  855MOL0     H17938   2.152  10.471   6.541 -1.5951 -0.6467 -0.7335
  855MOL0     H17939   2.332  10.318   6.398 -1.3986 -0.4780 -0.7575
  855MOL0     H17940   2.630  10.327   6.381  2.3550 -0.5463 -0.9411
  855MOL0     H17941   2.675  10.433   6.242  3.4641 -3.0137 -0.6218
  855MOL0     H17942   2.474  10.206   6.238 -0.2012  0.5740 -0.1799
  855MOL0     H17943   2.556  10.267   6.095  4.4142 -5.4065 -2.1930
  855MOL0     H17944   2.685  10.102   6.308  1.1050  0.1466  0.6590
  855MOL0     H17945   2.638  10.054   6.138  0.5065  0.9354 -0.3806
  855MOL0     H17946   2.795  10.225   6.050  1.5397  1.7977  0.3694
  855MOL0     H17947   2.831  10.277   6.213 -0.0310 -1.0352  0.9627
  855MOL0     H17948   3.014  10.341   6.101  2.4252  1.6831 -0.6594
  855MOL0     H17949   3.195  10.422   5.984 -0.0005 -2.7867 -0.0257
  855MOL0     H17950   3.346  10.444   6.085 -0.1262 -1.0116 -1.3948
  855MOL0     H17951   3.182  10.513   6.126 -3.4537 -0.3189 -2.5639
  855MOL0     H17952   3.601  10.208   6.481  1.7573 -1.2728  1.2162
  855MOL0     H17953   3.831  10.267   6.556 -3.3899 -0.0972  0.9432
  855MOL0     H17954   4.161  10.229   6.246  0.8260 -5.0848  1.8695
  855MOL0     H17955   4.148  10.361   6.365  0.0332  0.0059  0.4866
  855MOL0     H17956   4.256  10.229   6.530 -1.7319 -0.2011 -0.6280
  855MOL0     H17957   4.284  10.094   6.404 -0.1390  0.4423 -2.5297
  855MOL0     H17958   4.379  10.389   6.391 -1.1380 -1.5666 -0.2313
  855MOL0     H17959   4.432  10.254   6.288 -1.4859  2.6294 -2.3096
  855MOL0     H17960   4.559  10.167   6.488  0.6857 -0.5794 -0.9761
  855MOL0     H17961   4.490  10.286   6.599  2.1123  1.5752  0.3584
  855MOL0     H17962   4.692  10.355   6.375  0.6636  0.6869  0.3956
  855MOL0     H17963   4.592  10.466   6.454 -4.5609 -2.4813  0.6287
  855MOL0     H17964   4.753  10.247   6.613  0.9255 -0.1164 -0.7467
  855MOL0     H17965   4.698  10.409   6.672  2.5037  0.4176  0.6488
  855MOL0     H17966   4.867  10.509   6.533 -1.0580 -1.4597 -1.1005
  855MOL0     H17967   4.909  10.361   6.457  1.5978  0.5149 -0.5986
  855MOL0     H17968   5.015  10.268   6.657  0.3354  0.2257  0.5478
  855MOL0     H17969   4.954  10.389   6.761  0.7814 -1.6905  0.5319
  855MOL0     H17970   3.961  10.184   6.153  1.4967  0.3170  0.9674
  855MOL0     H17971   3.731  10.165   6.084 -0.3139  0.6160  0.4869
  855MOL0     H17972   3.319  10.029   6.321 -1.7699  0.1308  1.9053
  855MOL0     H17973   3.076   9.961   6.317 -3.0139  0.7749 -0.1623
  855MOL0     H17974   1.233  10.746   5.836  2.1270  1.2725  0.6739
  855MOL0     H17975   1.003  10.707   5.870 -1.1086 -0.0502  0.9872
  855MOL0     H17976   0.628  10.819   6.016 -0.3126 -0.5619  0.1055
  855MOL0     H17977   0.390  10.851   6.093 -1.7159 -1.2759  0.6175
  855MOL0     H17978   0.273  10.516   6.328 -3.2160 -3.1216  2.8885
  855MOL0     H17979   0.218  10.641   6.447  1.5889 -2.5859  0.4027
  855MOL0     H17980   0.084  10.507   6.205  5.1664 -0.2289 -0.6789
  855MOL0     H17981   0.031  10.670   6.262  1.4288  1.0317  0.2003
  855MOL0     H17982  -0.082  10.461   6.347 -1.3675  0.2984  1.8315
  855MOL0     H17983   0.055  10.445   6.461  0.5617  1.9172  1.4316
  855MOL0     H17984  -0.169  10.645   6.440 -0.6290  1.3705  1.2379
  855MOL0     H17985  -0.022  10.715   6.493  0.0802  0.2825 -2.5223
  855MOL0     H17986  -0.140  10.428   6.807 -0.5721 -0.9806 -1.9094
  855MOL0     H17987   0.451  10.590   6.421  0.9396 -1.0518 -0.3187
  855MOL0     H17988   0.624  10.533   6.492 -1.5985 -2.8189 -1.3550
  855MOL0     H17989   0.721  10.441   6.361  1.5346 -0.0502 -0.4606
  855MOL0     H17990   0.791  10.572   6.437  0.2539  1.0433 -0.1109
  856MOL0     O17991   6.364   4.250   1.325  0.0066  0.1610  0.2984
  856MOL0     C17992   6.279   4.159   1.295 -0.1967 -0.2998  0.6473
  856MOL0     O17993   6.316   4.030   1.264 -0.0014  0.0563  0.1767
  856MOL0     C17994   6.440   4.005   1.215 -0.7627  0.3804  0.1485
  856MOL0     C17995   6.486   4.076   1.104  0.1953  0.0531 -0.8233
  856MOL0     C17996   6.599   4.047   1.040 -0.5792  0.3753  0.7046
  856MOL0     C17997   6.682   3.939   1.088 -0.0512 -0.2252  0.7842
  856MOL0     O17998   6.801   3.932   1.027 -0.0769 -0.0865  0.4465
  856MOL0     C17999   6.815   3.814   0.940  0.7911 -0.0929 -0.5365
  856MOL0     C18000   6.947   3.818   0.871  0.0585  0.2361  0.2991
  856MOL0     C18001   6.978   3.954   0.804 -0.3595  1.2837 -0.6058
  856MOL0     C18002   7.129   3.966   0.777 -0.3426 -0.4193 -0.1129
  856MOL0     C18003   7.186   4.116   0.765 -0.2956  0.2497  0.3942
  856MOL0     C18004   7.164   4.164   0.616  1.3477 -0.1884  0.0057
  856MOL0     C18005   7.187   4.323   0.610  0.9683 -0.0649  0.2869
  856MOL0     C18006   7.126   4.376   0.477 -0.8054  0.9276 -0.5068
  856MOL0     N18007   7.149   4.514   0.446 -0.5107 -0.6675 -0.0619
  856MOL0     C18008   7.247   4.561   0.362  0.1845 -0.1622 -0.0520
  856MOL0     C18009   7.218   4.696   0.368  1.5137  0.4368  0.4820
  856MOL0     C18010   7.296   4.797   0.292  0.3183 -0.4007 -0.5166
  856MOL0     C18011   7.407   4.847   0.384  0.4987  0.3437 -0.0580
  856MOL0     C18012   7.481   4.941   0.310  0.0731 -0.5625  0.8433
  856MOL0     C18013   7.596   4.997   0.393  0.3723 -0.2561  0.4683
  856MOL0     O18014   7.658   5.094   0.304  0.0364 -0.8719  0.0098
  856MOL0     C18015   7.781   5.137   0.332 -0.0821  0.3524 -0.4605
  856MOL0     C18016   7.858   5.186   0.227  0.0121 -0.0106 -0.6029
  856MOL0     C18017   7.986   5.237   0.249 -1.1721 -0.2651  0.4050
  856MOL0     C18018   8.051   5.302   0.124  0.5599 -0.0536  0.2362
  856MOL0     C18019   8.046   5.239   0.379 -0.1685  0.8773  0.3979
  856MOL0     C18020   8.196   5.274   0.395  0.0243  0.8463 -0.2739
  856MOL0     O18021   8.253   5.255   0.517 -0.6043 -0.2448 -0.4555
  856MOL0     C18022   8.386   5.284   0.532  0.2090 -0.6642  0.3138
  856MOL0     C18023   8.486   5.195   0.485  1.0233  0.0677 -0.9991
  856MOL0     C18024   8.619   5.224   0.501 -0.5143 -0.1037  1.2464
  856MOL0     C18025   8.658   5.344   0.560 -0.7798 -0.8662 -0.2392
  856MOL0     O18026   8.787   5.388   0.581  0.1860 -0.0822 -0.6587
  856MOL0     C18027   8.888   5.328   0.506  0.0844 -1.3838  0.8850
  856MOL0     C18028   9.021   5.401   0.529 -0.1546  0.4139  0.3776
  856MOL0     C18029   9.146   5.338   0.465  0.3692  0.8476  1.0651
  856MOL0     C18030   9.134   5.342   0.313  0.1182 -0.4829 -0.8923
  856MOL0     C18031   9.268   5.320   0.251  0.0414 -0.3814 -0.5155
  856MOL0     C18032   9.254   5.325   0.100  0.9023  0.1069 -0.5240
  856MOL0     C18033   9.390   5.284   0.035 -0.9566  0.5420  0.1531
  856MOL0     C18034   9.387   5.255  -0.118  0.4485  0.3748  0.1482
  856MOL0    Cl18035   9.281   5.119  -0.174  0.2050  0.1928  0.1640
  856MOL0     C18036   8.563   5.434   0.600 -0.2316 -0.3467 -0.0987
  856MOL0     C18037   8.430   5.411   0.582  0.1217 -1.0462 -0.1351
  856MOL0     O18038   8.263   5.302   0.298 -0.1047  0.1639  0.4521
  856MOL0     C18039   7.964   5.196   0.485 -0.0358 -0.0792 -0.1531
  856MOL0     C18040   7.833   5.145   0.468 -0.4095  0.5593 -0.0794
  856MOL0     N18041   7.102   4.725   0.431 -0.2951 -0.1055  0.1906
  856MOL0     N18042   7.058   4.611   0.479 -0.2789 -0.0865 -0.4603
  856MOL0     C18043   6.627   3.865   1.187 -0.3161  0.2938  0.9697
  856MOL0     C18044   6.509   3.900   1.255 -0.4083 -0.3730 -0.8772
  856MOL0     C18045   6.137   4.192   1.296  1.1080 -0.2244 -0.9324
  856MOL0     C18046   6.046   4.087   1.330 -0.2820 -1.4700  0.3767
  856MOL0     C18047   5.910   4.113   1.331  0.5971 -0.1458 -0.3978
  856MOL0     C18048   5.856   4.235   1.295  0.3192  0.2696 -0.3207
  856MOL0     O18049   5.716   4.251   1.289 -0.3893  0.0678  0.5647
  856MOL0     C18050   5.646   4.170   1.200  0.6638  0.1229 -0.1156
  856MOL0     C18051   5.592   4.041   1.271 -0.3290 -0.1706 -0.2755
  856MOL0     C18052   5.524   4.073   1.405  0.3579  0.2554  0.1784
  856MOL0     C18053   5.502   3.954   1.499 -0.7311  0.3079  0.1473
  856MOL0     C18054   5.636   3.886   1.517  0.3293 -0.0484 -0.1799
  856MOL0     C18055   5.738   3.821   1.515  0.0411  0.4158 -0.1242
  856MOL0     C18056   5.946   4.337   1.274 -0.4864 -0.1291 -1.0956
  856MOL0     C18057   6.085   4.327   1.274  0.1166  0.5386 -0.9679
  856MOL0     C18058   6.175   4.447   1.244  0.5677  0.3374 -0.3000
  856MOL0     H18059   6.436   4.165   1.068  0.2182  0.3657 -0.0897
  856MOL0     H18060   6.634   4.115   0.962 -1.5011 -1.4929 -1.4530
  856MOL0     H18061   6.729   3.813   0.874  0.1513  0.5946  0.2739
  856MOL0     H18062   6.800   3.719   0.992 -2.4334  0.2475 -0.6538
  856MOL0     H18063   7.028   3.808   0.943  1.4651 -3.2630 -1.5169
  856MOL0     H18064   6.948   3.730   0.806  2.2085 -0.1051  0.7145
  856MOL0     H18065   6.936   3.960   0.704  0.0601  1.0914 -0.7948
  856MOL0     H18066   6.942   4.037   0.866  1.3946 -0.2352  2.7237
  856MOL0     H18067   7.185   3.915   0.856  1.4915 -1.3640 -1.9206
  856MOL0     H18068   7.167   3.913   0.689 -1.8929 -1.8829  0.0453
  856MOL0     H18069   7.293   4.122   0.787 -0.1407  0.7901 -0.4819
  856MOL0     H18070   7.132   4.176   0.839 -0.1269  2.5699 -1.2416
  856MOL0     H18071   7.246   4.122   0.556  2.5068  3.1118 -0.9749
  856MOL0     H18072   7.059   4.150   0.590  0.2595  0.4518  3.5231
  856MOL0     H18073   7.294   4.342   0.620  1.1945 -1.5543  0.8840
  856MOL0     H18074   7.130   4.384   0.681  0.8631  2.7866 -2.0460
  856MOL0     H18075   7.163   4.310   0.397  2.6711  1.1765  0.7037
  856MOL0     H18076   7.018   4.362   0.484 -1.3838  3.6792 -2.2572
  856MOL0     H18077   7.317   4.494   0.312  1.3691  2.0751 -1.5450
  856MOL0     H18078   7.227   4.875   0.259  1.0213  0.9140  0.9581
  856MOL0     H18079   7.337   4.751   0.201 -0.4527 -1.8377 -0.1616
  856MOL0     H18080   7.356   4.906   0.461  2.9666  1.3833  0.8925
  856MOL0     H18081   7.462   4.761   0.425 -0.7159 -1.0874 -1.3023
  856MOL0     H18082   7.528   4.898   0.221  0.2250  0.3458  0.4694
  856MOL0     H18083   7.421   5.028   0.280 -1.7215 -2.2967 -0.9414
  856MOL0     H18084   7.570   5.045   0.488  0.8757  1.9912 -0.4604
  856MOL0     H18085   7.652   4.907   0.421  0.2319  0.6645  4.2697
  856MOL0     H18086   7.813   5.197   0.128  1.4896  2.7579 -1.0843
  856MOL0     H18087   7.985   5.274   0.041  0.3054 -1.0183  0.7505
  856MOL0     H18088   8.153   5.272   0.099  1.0799  0.9447  1.0786
  856MOL0     H18089   8.051   5.411   0.134 -0.9880 -0.0558  0.5294
  856MOL0     H18090   8.447   5.101   0.447  1.0568 -0.2317 -0.3120
  856MOL0     H18091   8.684   5.140   0.479 -1.1596 -0.2428 -0.2359
  856MOL0     H18092   8.894   5.223   0.536 -3.0907 -1.8930  0.0777
  856MOL0     H18093   8.877   5.341   0.398  1.3058  1.4519  1.0174
  856MOL0     H18094   9.016   5.500   0.483 -1.4937 -0.1391 -0.7467
  856MOL0     H18095   9.034   5.410   0.637  1.1035 -1.6412  0.4557
  856MOL0     H18096   9.155   5.234   0.500  2.2532  0.1843 -1.1651
  856MOL0     H18097   9.242   5.383   0.490  1.8445 -0.5224 -1.6341
  856MOL0     H18098   9.103   5.440   0.275  0.0309  0.5230  1.6068
  856MOL0     H18099   9.056   5.273   0.280 -0.1809 -1.0225  0.8362
  856MOL0     H18100   9.344   5.390   0.289 -0.9874 -0.5808  2.1073
  856MOL0     H18101   9.291   5.215   0.270  1.3978 -0.1703 -0.8426
  856MOL0     H18102   9.215   5.422   0.069  0.4328  0.4959  1.1933
  856MOL0     H18103   9.179   5.249   0.075  0.9305  0.3544 -1.3772
  856MOL0     H18104   9.442   5.201   0.084  0.1504  0.3181 -1.3429
  856MOL0     H18105   9.468   5.360   0.051  2.4311 -2.7880  0.8114
  856MOL0     H18106   9.493   5.248  -0.147  0.4613  0.5412  0.1535
  856MOL0     H18107   9.332   5.330  -0.177  0.8270  0.9837  0.5593
  856MOL0     H18108   8.592   5.525   0.651 -0.5829  0.9099 -2.0371
  856MOL0     H18109   8.356   5.485   0.611  2.5712  0.9023  1.6654
  856MOL0     H18110   8.009   5.209   0.582 -1.0829 -6.9827  1.7404
  856MOL0     H18111   7.774   5.120   0.555  1.9486  2.0130  2.0534
  856MOL0     H18112   6.690   3.791   1.236 -2.1109 -0.4496  2.2237
  856MOL0     H18113   6.495   3.847   1.348  0.2456 -1.1025 -1.1849
  856MOL0     H18114   6.078   3.985   1.352  0.6246 -0.9620  1.4981
  856MOL0     H18115   5.843   4.032   1.359 -1.7975  2.4385  2.0264
  856MOL0     H18116   5.559   4.228   1.168  0.1888  0.5345  1.8024
  856MOL0     H18117   5.710   4.133   1.119  0.4642 -1.7750  0.5414
  856MOL0     H18118   5.672   3.968   1.287 -0.2090  0.3313  1.6698
  856MOL0     H18119   5.518   4.000   1.201 -0.8703 -0.0974  0.2474
  856MOL0     H18120   5.586   4.140   1.464  1.7988 -2.3303  1.7971
  856MOL0     H18121   5.429   4.122   1.383  0.7498 -0.5153 -4.3506
  856MOL0     H18122   5.432   3.877   1.465  0.1824  0.0763 -1.2855
  856MOL0     H18123   5.464   4.002   1.589 -1.2628 -1.6672  1.0255
  856MOL0     H18124   5.830   3.765   1.521  0.4575  1.1857  1.0387
  856MOL0     H18125   5.897   4.434   1.267  1.2814  0.9850  0.5843
  856MOL0     H18126   6.112   4.531   1.215 -0.5915 -0.1064  0.8535
  856MOL0     H18127   6.231   4.489   1.328 -0.4748  1.8588 -0.3330
  856MOL0     H18128   6.240   4.425   1.159 -1.5481 -2.6212 -1.3403
  857MOL0     O18129   9.365   6.138   7.441 -0.1568 -0.5375 -0.5990
  857MOL0     C18130   9.402   6.251   7.466 -0.4764  0.2565 -0.8645
  857MOL0     O18131   9.488   6.292   7.564  0.0870  0.5162 -0.6909
  857MOL0     C18132   9.536   6.206   7.669 -0.2924 -0.1115  0.3232
  857MOL0     C18133   9.447   6.129   7.736 -0.5868  0.8084  0.5762
  857MOL0     C18134   9.485   6.025   7.824 -0.4147 -1.3046 -0.2047
  857MOL0     C18135   9.621   6.003   7.842  0.4812 -0.5473 -0.2987
  857MOL0     O18136   9.649   5.889   7.907  0.5732  0.9544  0.4978
  857MOL0     C18137   9.781   5.859   7.949  0.3937  0.2555 -0.4465
  857MOL0     C18138   9.879   5.780   7.861  0.1154 -0.6241  0.3585
  857MOL0     C18139   9.832   5.653   7.793  0.1842  0.3053  0.5763
  857MOL0     C18140   9.853   5.525   7.875 -1.1528  1.3462 -1.0618
  857MOL0     C18141   9.841   5.401   7.792 -0.6527  0.9610 -0.0835
  857MOL0     C18142   9.854   5.267   7.874 -0.2827 -0.1105 -0.3513
  857MOL0     C18143   9.861   5.158   7.757 -0.5577 -0.6412 -0.6533
  857MOL0     C18144   9.876   5.025   7.828  0.3384  0.0799 -0.5514
  857MOL0     N18145   9.996   5.006   7.907  0.6031  0.0375 -0.4661
  857MOL0     C18146   9.997   4.922   8.016 -0.4922 -0.6409 -0.4408
  857MOL0     C18147  10.123   4.910   8.049 -0.3629  0.7605 -0.0267
  857MOL0     C18148  10.182   4.818   8.152 -0.3384  0.4071  0.7985
  857MOL0     C18149  10.268   4.905   8.244  0.4014  0.1265  0.2164
  857MOL0     C18150  10.337   4.816   8.346 -0.0951 -0.4334 -0.0460
  857MOL0     C18151  10.414   4.896   8.451  0.2634 -0.1229 -0.3852
  857MOL0     O18152  10.503   4.811   8.515 -0.7126  0.0843  0.3210
  857MOL0     C18153  10.589   4.842   8.620 -0.6215 -0.4045  0.6804
  857MOL0     C18154  10.648   4.968   8.622  0.8121 -0.1658  0.0800
  857MOL0     C18155  10.735   5.008   8.725  0.6617  0.1811 -0.5686
  857MOL0     C18156  10.765   5.160   8.753 -0.5044  0.1134 -0.7591
  857MOL0     C18157  10.768   4.910   8.824 -0.2195 -0.1497 -0.2287
  857MOL0     C18158  10.855   4.950   8.938 -0.1648  0.4415  0.4805
  857MOL0     O18159  10.795   4.940   9.054 -0.2989 -0.3532  0.1070
  857MOL0     C18160  10.879   4.982   9.159 -0.0383 -0.6593 -0.0404
  857MOL0     C18161  10.935   4.885   9.246  0.0336 -0.3236 -0.0524
  857MOL0     C18162  11.021   4.926   9.343 -0.0376 -0.5486  0.4015
  857MOL0     C18163  11.038   5.059   9.375 -1.1539  0.3838  0.5009
  857MOL0     O18164  11.134   5.102   9.466  0.2109  0.0428  0.0223
  857MOL0     C18165  11.081   5.160   9.585 -0.2688  0.0219 -0.5650
  857MOL0     C18166  11.065   5.064   9.704 -0.3833  0.5538  0.2281
  857MOL0     C18167  11.196   5.016   9.770 -1.0293  0.1911  0.1392
  857MOL0     C18168  11.180   4.954   9.913 -1.2149 -0.1930 -0.4632
  857MOL0     C18169  11.315   4.880   9.949  0.5055 -0.7354  0.4811
  857MOL0     C18170  11.421   4.985   9.983  0.0322 -0.6827  0.9613
  857MOL0     C18171  11.553   4.910  10.032 -0.1401  0.2176 -0.3221
  857MOL0     C18172  11.665   4.986  10.098  1.1159 -0.2978  0.2707
  857MOL0    Cl18173  11.593   5.065  10.241  0.1685  0.0606 -0.0502
  857MOL0     C18174  10.980   5.158   9.297 -0.3857 -0.8410 -0.1708
  857MOL0     C18175  10.902   5.121   9.189 -0.0660  0.7036 -0.3167
  857MOL0     O18176  10.971   4.981   8.923 -0.1568  1.1438  0.5223
  857MOL0     C18177  10.720   4.780   8.812 -0.0589 -0.6026  0.7155
  857MOL0     C18178  10.623   4.747   8.720  0.0868 -0.2756 -0.1988
  857MOL0     N18179  10.195   4.972   7.950  0.1876  0.9716 -0.5464
  857MOL0     N18180  10.121   5.035   7.871 -0.2298  0.2570  0.2648
  857MOL0     C18181   9.711   6.089   7.784 -0.4385 -0.0882  0.3492
  857MOL0     C18182   9.667   6.186   7.697  0.6524  0.6389  0.6710
  857MOL0     C18183   9.367   6.349   7.366 -0.3018 -0.0371  0.2126
  857MOL0     C18184   9.239   6.341   7.310 -0.2139  0.3830  0.2885
  857MOL0     C18185   9.196   6.432   7.212  0.3035  1.3702 -0.1603
  857MOL0     C18186   9.279   6.522   7.168  0.2701 -0.5510 -0.1814
  857MOL0     O18187   9.223   6.605   7.073  0.4547 -0.0004 -0.4019
  857MOL0     C18188   9.240   6.745   7.090  0.4877  0.1206 -0.4371
  857MOL0     C18189   9.121   6.811   7.015  0.4796 -0.1377  0.4288
  857MOL0     C18190   9.103   6.964   7.057 -0.2705 -0.6361 -0.2218
  857MOL0     C18191   9.222   7.042   7.007  0.6432  0.3916 -0.3765
  857MOL0     C18192   9.195   7.192   7.018 -0.1222  0.6465  0.7654
  857MOL0     C18193   9.183   7.312   7.022 -0.0504 -0.0640 -0.2577
  857MOL0     C18194   9.407   6.527   7.220  0.0694  0.0945 -0.9556
  857MOL0     C18195   9.457   6.442   7.317  0.0560 -0.9664 -0.1337
  857MOL0     C18196   9.605   6.440   7.358  0.2015 -0.5366 -0.2780
  857MOL0     H18197   9.344   6.119   7.702 -0.4393 -1.4927  0.6271
  857MOL0     H18198   9.415   5.955   7.868  0.2108 -1.2431  0.9252
  857MOL0     H18199   9.771   5.790   8.033  4.9070 -0.2456 -0.0737
  857MOL0     H18200   9.837   5.948   7.979  1.8299 -1.2807  1.8056
  857MOL0     H18201   9.916   5.844   7.780 -1.1259 -3.6878 -2.8629
  857MOL0     H18202   9.963   5.755   7.927  1.2458 -3.6499 -1.9746
  857MOL0     H18203   9.724   5.668   7.783 -0.0681 -0.9919  1.1843
  857MOL0     H18204   9.884   5.645   7.697  0.0771  0.6830  0.4852
  857MOL0     H18205   9.957   5.519   7.907 -1.1022  4.1816 -0.4061
  857MOL0     H18206   9.790   5.532   7.965  1.5764  2.1368  0.9295
  857MOL0     H18207   9.906   5.406   7.705 -1.1556 -0.4999 -0.5737
  857MOL0     H18208   9.739   5.395   7.753 -0.4701  1.0129 -0.5757
  857MOL0     H18209   9.943   5.274   7.937 -1.3307  0.3160  1.1458
  857MOL0     H18210   9.770   5.263   7.944  1.6106 -1.2593  1.9865
  857MOL0     H18211   9.947   5.178   7.693  0.1326 -2.4547 -0.3456
  857MOL0     H18212   9.762   5.153   7.711 -2.5325 -3.3160  3.3352
  857MOL0     H18213   9.789   5.018   7.895  1.0798 -0.0510  0.4241
  857MOL0     H18214   9.861   4.941   7.759 -2.2278 -0.3281  0.3639
  857MOL0     H18215   9.916   4.859   8.051  1.9991 -5.3373 -2.3019
  857MOL0     H18216  10.259   4.759   8.102  2.4000  2.4974  2.2875
  857MOL0     H18217  10.110   4.751   8.201  0.1832  2.1354  4.2369
  857MOL0     H18218  10.345   4.955   8.184  0.6119  0.9511  1.1504
  857MOL0     H18219  10.207   4.977   8.298  0.6567  0.9169 -0.5113
  857MOL0     H18220  10.267   4.751   8.399 -1.0865  2.2061  2.0884
  857MOL0     H18221  10.406   4.753   8.288 -1.3604 -0.1829 -1.9192
  857MOL0     H18222  10.480   4.976   8.414 -0.7603 -0.2108 -2.5884
  857MOL0     H18223  10.338   4.926   8.523  1.9920 -0.4484  1.6738
  857MOL0     H18224  10.624   5.044   8.548  1.0847 -0.3707 -0.2250
  857MOL0     H18225  10.683   5.226   8.722 -2.2372  0.0006  3.0722
  857MOL0     H18226  10.861   5.179   8.703 -0.1900  1.8257  0.4003
  857MOL0     H18227  10.772   5.180   8.860 -0.9146 -0.9315 -0.5267
  857MOL0     H18228  10.910   4.780   9.233  0.3411 -0.8288  2.8450
  857MOL0     H18229  11.078   4.851   9.396  1.0900 -1.6300 -2.1977
  857MOL0     H18230  11.156   5.236   9.611 -0.4547  1.1893 -3.1364
  857MOL0     H18231  10.983   5.207   9.572 -0.1325  0.0909 -1.4104
  857MOL0     H18232  11.014   5.128   9.777 -0.0435  0.5558  0.4642
  857MOL0     H18233  11.007   4.975   9.676  2.0328 -0.7167 -0.9941
  857MOL0     H18234  11.260   5.104   9.781 -1.0043 -0.0617  2.5813
  857MOL0     H18235  11.247   4.946   9.702 -0.5887 -0.8360  1.4871
  857MOL0     H18236  11.095   4.886   9.901 -2.3612  1.1106  0.0115
  857MOL0     H18237  11.155   5.027   9.990  1.3013  0.1044  0.1626
  857MOL0     H18238  11.302   4.818  10.038 -1.9738 -0.0552  0.6955
  857MOL0     H18239  11.333   4.802   9.874  1.2612 -0.3233  0.2208
  857MOL0     H18240  11.394   5.051  10.066  0.7664  1.7947 -0.6783
  857MOL0     H18241  11.441   5.049   9.897  0.3184 -0.4979  1.1641
  857MOL0     H18242  11.610   4.849   9.960  2.4202  0.2204  1.5609
  857MOL0     H18243  11.518   4.834  10.102  3.2748  0.9532  2.5092
  857MOL0     H18244  11.711   5.051  10.023 -1.8420  0.8696 -0.6699
  857MOL0     H18245  11.741   4.920  10.143  0.4879 -1.0857  0.2055
  857MOL0     H18246  10.997   5.263   9.319 -0.8540 -0.8782  0.3770
  857MOL0     H18247  10.861   5.193   9.118 -0.6995  0.3767 -0.2883
  857MOL0     H18248  10.741   4.701   8.884 -1.0718 -2.4778 -0.9419
  857MOL0     H18249  10.581   4.648   8.735  1.4089 -0.7781  0.2922
  857MOL0     H18250   9.819   6.076   7.784 -0.3335  0.6965  0.0022
  857MOL0     H18251   9.737   6.244   7.639  1.6025  0.3486  1.5099
  857MOL0     H18252   9.167   6.269   7.347  1.0796 -1.2619 -0.2652
  857MOL0     H18253   9.101   6.428   7.162  0.2242  1.2513 -0.0031
  857MOL0     H18254   9.228   6.766   7.197 -1.0568  3.1090 -1.0955
  857MOL0     H18255   9.342   6.774   7.065  0.2201  0.9332 -0.6225
  857MOL0     H18256   9.034   6.748   7.032  0.1678 -1.1515 -3.8470
  857MOL0     H18257   9.138   6.817   6.907 -0.8835  1.5004  0.2675
  857MOL0     H18258   9.010   7.005   7.016 -0.6720 -0.9119  0.3983
  857MOL0     H18259   9.091   6.962   7.166  0.2491 -1.8224 -0.1743
  857MOL0     H18260   9.252   7.018   6.905  4.3030  2.8238 -0.0537
  857MOL0     H18261   9.309   7.018   7.069 -0.3222 -0.8761  0.5644
  857MOL0     H18262   9.176   7.419   7.021  3.1154  0.2415  0.4300
  857MOL0     H18263   9.467   6.603   7.171 -2.2173  3.4268  0.9520
  857MOL0     H18264   9.657   6.502   7.284 -2.0179  0.1913 -1.2859
  857MOL0     H18265   9.635   6.494   7.448  2.5182 -0.3681 -1.0830
  857MOL0     H18266   9.642   6.337   7.363 -1.6071 -1.2391 -0.8540
  858MOL0     O18267   9.432  11.087   5.639 -0.1205 -0.6264  0.2166
  858MOL0     C18268   9.365  11.185   5.658  0.2667 -0.3936 -0.0547
  858MOL0     O18269   9.393  11.315   5.618 -0.4028 -0.2074 -0.4895
  858MOL0     C18270   9.502  11.325   5.533  0.5093  0.5102  1.2893
  858MOL0     C18271   9.628  11.372   5.569  0.5866 -0.0049 -0.4358
  858MOL0     C18272   9.737  11.351   5.492 -0.7620  0.8688 -0.6480
  858MOL0     C18273   9.723  11.306   5.362  0.2733 -0.2629 -0.0821
  858MOL0     O18274   9.843  11.301   5.290  0.5584  0.1635  0.0750
  858MOL0     C18275   9.855  11.240   5.160 -0.5479  0.7342  0.5534
  858MOL0     C18276  10.001  11.184   5.119 -0.2185  0.0640 -0.0960
  858MOL0     C18277  10.104  11.289   5.097 -0.2902  0.4797  0.1039
  858MOL0     C18278  10.243  11.228   5.090  0.0375  0.3849  0.1397
  858MOL0     C18279  10.348  11.341   5.088 -0.0993  0.3881  0.3145
  858MOL0     C18280  10.491  11.292   5.053  0.2701  0.0430  0.3266
  858MOL0     C18281  10.544  11.171   5.137  0.7163  0.5052 -0.4639
  858MOL0     C18282  10.562  11.193   5.290 -0.2887 -0.6914  0.3803
  858MOL0     N18283  10.642  11.313   5.322  0.2538  0.0171  0.7532
  858MOL0     C18284  10.778  11.292   5.354 -0.1297  0.7411 -0.4624
  858MOL0     C18285  10.803  11.413   5.402  1.1473  0.5869 -0.1479
  858MOL0     C18286  10.938  11.449   5.464 -0.4428 -0.3305 -0.0902
  858MOL0     C18287  11.017  11.563   5.405 -0.2172 -0.1893  0.0815
  858MOL0     C18288  10.963  11.690   5.473 -0.2635 -0.6858  1.2456
  858MOL0     C18289  11.059  11.811   5.451  0.4618 -0.3481  0.3424
  858MOL0     O18290  11.083  11.830   5.318  0.0179  0.1036  1.0869
  858MOL0     C18291  11.146  11.944   5.275 -0.8908 -0.1199 -0.4414
  858MOL0     C18292  11.156  11.951   5.135 -0.0127 -1.0522 -1.2292
  858MOL0     C18293  11.220  12.058   5.078  0.2347  0.6424 -0.5690
  858MOL0     C18294  11.222  12.061   4.926 -0.5761 -0.2299 -0.5701
  858MOL0     C18295  11.283  12.162   5.148  0.5386 -0.8978 -1.0015
  858MOL0     C18296  11.376  12.271   5.102  0.0528  0.0754 -0.3090
  858MOL0     O18297  11.387  12.388   5.174 -0.0394 -0.9833  0.5240
  858MOL0     C18298  11.488  12.485   5.142  0.4272  0.1336  0.8950
  858MOL0     C18299  11.617  12.443   5.106  0.9107 -0.2856 -0.2341
  858MOL0     C18300  11.704  12.546   5.081 -0.3437 -0.4247 -0.2212
  858MOL0     C18301  11.681  12.685   5.099 -0.6748  1.2154 -0.7709
  858MOL0     O18302  11.781  12.781   5.087 -0.4358  0.4215  0.5653
  858MOL0     C18303  11.779  12.876   5.193 -0.4200 -0.7264  0.2294
  858MOL0     C18304  11.922  12.934   5.200 -0.2226  0.5086 -0.1911
  858MOL0     C18305  12.028  12.842   5.257  0.1988  0.0518 -0.4322
  858MOL0     C18306  12.156  12.917   5.309 -0.8235  0.5658 -0.1875
  858MOL0     C18307  12.292  12.827   5.303  0.0999 -0.4998  0.0976
  858MOL0     C18308  12.290  12.716   5.408  0.6954 -0.4410  0.5053
  858MOL0     C18309  12.388  12.602   5.376  0.2551  0.0840 -0.5755
  858MOL0     C18310  12.395  12.481   5.476  0.6543 -0.3188  0.2668
  858MOL0    Cl18311  12.453  12.333   5.413  0.1650  0.1645  0.1195
  858MOL0     C18312  11.550  12.717   5.135  0.1109  0.1230  0.2550
  858MOL0     C18313  11.449  12.622   5.155  1.0383  0.0447 -0.7486
  858MOL0     O18314  11.433  12.242   4.997  0.5839  0.5715 -0.5433
  858MOL0     C18315  11.268  12.150   5.288  0.3205 -0.2762 -0.1678
  858MOL0     C18316  11.195  12.047   5.351 -0.9142  0.2220 -0.4751
  858MOL0     N18317  10.690  11.491   5.411  0.5719  0.8327  0.3894
  858MOL0     N18318  10.592  11.432   5.356 -0.1173 -0.6053  0.6076
  858MOL0     C18319   9.586  11.283   5.308  0.1986 -0.3668  0.0339
  858MOL0     C18320   9.479  11.293   5.395 -0.3240 -0.9139 -0.3606
  858MOL0     C18321   9.242  11.158   5.739  0.6266  0.2919 -0.0563
  858MOL0     C18322   9.151  11.263   5.760 -0.2377  0.2358  0.2990
  858MOL0     C18323   9.022  11.255   5.813  0.4713  0.7613 -0.0369
  858MOL0     C18324   8.983  11.140   5.877  0.1497  0.6665  0.7902
  858MOL0     O18325   8.864  11.131   5.944  0.1289 -0.3326 -0.5395
  858MOL0     C18326   8.868  11.169   6.086 -0.8579  0.3339  0.4447
  858MOL0     C18327   8.917  11.309   6.132  0.0995  0.4227  0.2505
  858MOL0     C18328   8.881  11.319   6.276  0.0434 -0.5394 -0.3177
  858MOL0     C18329   8.935  11.431   6.347  0.6179  0.6824 -0.0912
  858MOL0     C18330   9.078  11.410   6.388  1.1597 -0.0584 -0.7636
  858MOL0     C18331   9.190  11.387   6.429 -0.2139 -0.4539  0.9188
  858MOL0     C18332   9.076  11.032   5.857  0.6051  1.0733 -0.6219
  858MOL0     C18333   9.197  11.033   5.788 -0.3852 -1.2385 -0.8717
  858MOL0     C18334   9.268  10.905   5.775  0.3722  0.3600 -0.5731
  858MOL0     H18335   9.635  11.415   5.669 -2.4108 -0.7066  0.1868
  858MOL0     H18336   9.834  11.361   5.538 -0.8536 -1.0967  0.0566
  858MOL0     H18337   9.823  11.308   5.080 -0.3701 -0.2518 -0.3709
  858MOL0     H18338   9.781  11.159   5.162 -0.4055  0.6145  1.4221
  858MOL0     H18339  10.032  11.110   5.193 -1.2509 -0.3348 -0.0421
  858MOL0     H18340   9.993  11.122   5.030 -1.8331 -0.2440  0.2368
  858MOL0     H18341  10.089  11.346   5.005 -0.1287 -1.1799 -0.9945
  858MOL0     H18342  10.102  11.351   5.187 -1.0090  1.6342 -0.6868
  858MOL0     H18343  10.255  11.150   5.166 -0.4687 -0.3856 -0.5565
  858MOL0     H18344  10.241  11.172   4.996 -2.1391 -0.6804  0.7428
  858MOL0     H18345  10.341  11.387   5.187 -1.0787 -1.3592  1.1168
  858MOL0     H18346  10.335  11.411   5.005  0.6243 -0.5581 -0.6264
  858MOL0     H18347  10.508  11.260   4.950  0.2942  0.7806  0.0968
  858MOL0     H18348  10.558  11.378   5.066 -0.7002  0.9884 -0.7841
  858MOL0     H18349  10.642  11.141   5.101  0.7363  0.2317 -0.1896
  858MOL0     H18350  10.480  11.082   5.132  1.8994 -0.3028 -2.3134
  858MOL0     H18351  10.463  11.201   5.336 -1.5858  1.1223 -2.4295
  858MOL0     H18352  10.604  11.104   5.338  2.9094  0.3810 -0.2032
  858MOL0     H18353  10.830  11.198   5.340  2.1376  1.4090  2.4215
  858MOL0     H18354  10.999  11.358   5.459  1.6672  1.0282 -0.3892
  858MOL0     H18355  10.915  11.470   5.569 -0.1996  0.4023 -0.1785
  858MOL0     H18356  11.119  11.551   5.442 -0.5733  0.4400  1.3291
  858MOL0     H18357  11.022  11.564   5.295  0.9786 -1.0909  0.1107
  858MOL0     H18358  10.865  11.715   5.429  1.0192 -1.2876 -2.3219
  858MOL0     H18359  10.937  11.676   5.578 -1.9236 -2.0636  0.6875
  858MOL0     H18360  11.013  11.907   5.476 -1.5058 -0.2466 -2.9951
  858MOL0     H18361  11.152  11.793   5.504  0.7206 -0.1642 -0.0431
  858MOL0     H18362  11.111  11.865   5.088  1.0276 -1.4968 -1.4444
  858MOL0     H18363  11.138  12.002   4.890  0.8705 -2.6545 -0.1925
  858MOL0     H18364  11.312  12.011   4.891  0.1413  0.6745 -0.0618
  858MOL0     H18365  11.219  12.163   4.887 -0.8659 -0.7807 -2.0246
  858MOL0     H18366  11.649  12.340   5.113  1.0253 -0.2051  0.5738
  858MOL0     H18367  11.802  12.512   5.048 -2.6032 -4.4781 -3.9044
  858MOL0     H18368  11.722  12.965   5.165  2.1791  1.0727  0.2569
  858MOL0     H18369  11.751  12.838   5.292  2.1595  2.7004  2.5107
  858MOL0     H18370  11.958  12.963   5.102  1.7273  0.9097  0.5986
  858MOL0     H18371  11.925  13.020   5.267 -1.1064  0.7838 -0.4936
  858MOL0     H18372  12.057  12.777   5.174 -1.8640 -0.7087 -0.6196
  858MOL0     H18373  11.988  12.781   5.338  1.0113 -0.4953 -0.4362
  858MOL0     H18374  12.146  12.956   5.411 -1.7657  0.5481 -0.2677
  858MOL0     H18375  12.168  13.006   5.246 -2.2071  0.2128 -0.9722
  858MOL0     H18376  12.321  12.793   5.203 -0.9791 -1.9769  0.2466
  858MOL0     H18377  12.370  12.897   5.333 -1.7204  2.7228 -2.0576
  858MOL0     H18378  12.193  12.668   5.393  1.0537 -1.2320  0.6325
  858MOL0     H18379  12.310  12.759   5.507  1.5819 -0.9367  0.5610
  858MOL0     H18380  12.485  12.650   5.361  1.0937 -0.9949  1.1098
  858MOL0     H18381  12.363  12.559   5.279 -0.4509  1.3983 -1.0122
  858MOL0     H18382  12.296  12.459   5.517 -1.0033  2.6059 -1.7920
  858MOL0     H18383  12.459  12.503   5.561  1.9586  0.4554 -0.8874
  858MOL0     H18384  11.518  12.820   5.149  1.8928  1.4963 -4.1564
  858MOL0     H18385  11.346  12.648   5.175  1.1715  0.9941 -1.2562
  858MOL0     H18386  11.301  12.234   5.348  1.6182  1.3501 -2.9961
  858MOL0     H18387  11.171  12.031   5.456  1.9423 -4.5580 -0.2249
  858MOL0     H18388   9.566  11.247   5.208  0.6019 -0.8964  0.1375
  858MOL0     H18389   9.381  11.261   5.362 -0.1410 -2.7165  0.7058
  858MOL0     H18390   9.162  11.355   5.703 -1.8988 -0.7078 -1.6619
  858MOL0     H18391   8.959  11.343   5.804 -0.3620  0.3029  1.1570
  858MOL0     H18392   8.766  11.153   6.121 -1.0029  0.4330  0.0637
  858MOL0     H18393   8.939  11.104   6.139 -0.0311 -0.7599 -1.8746
  858MOL0     H18394   8.869  11.393   6.082  2.7153  0.0627 -3.2991
  858MOL0     H18395   9.026  11.302   6.121  0.1340 -0.8293  1.1930
  858MOL0     H18396   8.775  11.345   6.285  0.7308  1.8407  2.3053
  858MOL0     H18397   8.911  11.228   6.329  1.8312  1.4127  2.2758
  858MOL0     H18398   8.878  11.449   6.438  0.4870 -0.4254  0.0696
  858MOL0     H18399   8.931  11.519   6.282  0.2187  0.1238 -0.8357
  858MOL0     H18400   9.290  11.367   6.461 -0.1069 -1.1912  0.1733
  858MOL0     H18401   9.042  10.933   5.887 -0.5282  1.5335 -0.3544
  858MOL0     H18402   9.363  10.913   5.829 -1.0150  1.4726  1.8678
  858MOL0     H18403   9.222  10.818   5.822  1.0027  0.1384 -0.3555
  858MOL0     H18404   9.291  10.876   5.672  0.6542  1.4142 -0.8162
  859MOL0     O18405   0.366   1.941   0.883 -0.2454 -0.0979 -0.3752
  859MOL0     C18406   0.354   2.033   0.963  0.4261 -0.4843  0.9882
  859MOL0     O18407   0.239   2.071   1.020  0.6174  0.1163  0.1654
  859MOL0     C18408   0.128   2.002   0.966 -0.6223 -1.0759 -0.8596
  859MOL0     C18409   0.093   1.886   1.027 -0.7302 -0.6532  0.0238
  859MOL0     C18410  -0.034   1.841   1.000  0.9040  0.5214 -0.0700
  859MOL0     C18411  -0.121   1.899   0.908  0.6929 -0.3985  0.7620
  859MOL0     O18412  -0.248   1.864   0.877 -0.2626 -0.2801  0.6281
  859MOL0     C18413  -0.314   1.747   0.937  0.2446  1.4388  0.2218
  859MOL0     C18414  -0.460   1.773   0.910  0.3537  0.2725 -0.0319
  859MOL0     C18415  -0.538   1.643   0.948  0.5090  0.0386  0.4849
  859MOL0     C18416  -0.658   1.617   0.862  0.1989 -0.2488 -0.0402
  859MOL0     C18417  -0.678   1.466   0.847  0.9157 -0.2002 -0.0889
  859MOL0     C18418  -0.787   1.436   0.741 -0.1195  0.5201  0.0051
  859MOL0     C18419  -0.875   1.315   0.752  0.4886  0.6436 -0.7466
  859MOL0     C18420  -0.972   1.265   0.640  0.7929  0.5124 -0.8513
  859MOL0     N18421  -1.073   1.369   0.606  0.7123  0.0426  0.0250
  859MOL0     C18422  -1.063   1.478   0.522 -0.4496  0.3199  0.8253
  859MOL0     C18423  -1.171   1.555   0.528 -0.3345 -0.5377 -0.4072
  859MOL0     C18424  -1.197   1.690   0.454  0.1291  0.3787  0.0421
  859MOL0     C18425  -1.206   1.661   0.302 -0.4962 -0.0977 -0.2360
  859MOL0     C18426  -1.252   1.778   0.206 -1.5253  1.1296 -0.3828
  859MOL0     C18427  -1.299   1.721   0.071  0.5702 -0.3010 -0.0820
  859MOL0     O18428  -1.192   1.646   0.015  0.4754 -0.6232 -0.5993
  859MOL0     C18429  -1.091   1.714  -0.046 -0.9759  0.2410 -0.3783
  859MOL0     C18430  -1.090   1.846  -0.082  0.0498 -0.6419 -0.1013
  859MOL0     C18431  -0.992   1.903  -0.163  0.1513  0.4037 -0.0112
  859MOL0     C18432  -1.024   2.044  -0.207 -0.2838 -0.8049  0.0031
  859MOL0     C18433  -0.881   1.825  -0.211  1.0899 -0.0451 -0.1015
  859MOL0     C18434  -0.759   1.877  -0.289 -0.2347  0.2725  0.4282
  859MOL0     O18435  -0.677   1.779  -0.352  0.4090 -0.1223 -0.0997
  859MOL0     C18436  -0.564   1.816  -0.417  0.3268 -0.5386  0.7861
  859MOL0     C18437  -0.568   1.841  -0.556 -0.1320  0.1325 -0.3616
  859MOL0     C18438  -0.449   1.877  -0.624 -0.3287 -1.0504 -0.0186
  859MOL0     C18439  -0.323   1.896  -0.558  1.2234  0.3609 -0.4968
  859MOL0     O18440  -0.221   1.936  -0.633 -0.1003  0.3826  0.2823
  859MOL0     C18441  -0.099   1.978  -0.561  1.1129 -0.1571  0.5902
  859MOL0     C18442   0.013   1.987  -0.671  0.1216  1.7055 -1.3236
  859MOL0     C18443   0.145   2.031  -0.604  1.3485  0.6681 -0.3025
  859MOL0     C18444   0.152   2.162  -0.533  0.7474  0.1104  0.0577
  859MOL0     C18445   0.141   2.283  -0.624  0.3123 -0.4529 -1.0995
  859MOL0     C18446   0.195   2.409  -0.559  0.0304 -0.1916  0.7124
  859MOL0     C18447   0.096   2.478  -0.457  0.5956 -0.3829 -0.4157
  859MOL0     C18448  -0.047   2.488  -0.498  0.5404  0.0024  0.0223
  859MOL0    Cl18449  -0.067   2.557  -0.656  0.9917  0.5385 -0.2491
  859MOL0     C18450  -0.334   1.877  -0.420  0.1073 -0.0258 -1.3258
  859MOL0     C18451  -0.446   1.831  -0.351  0.4911  0.5812  0.1175
  859MOL0     O18452  -0.735   1.996  -0.302 -0.1878  0.6372 -1.2384
  859MOL0     C18453  -0.882   1.691  -0.179 -0.5982  0.1178  0.5041
  859MOL0     C18454  -0.990   1.643  -0.101 -0.3165  0.2823  0.4997
  859MOL0     N18455  -1.259   1.487   0.611 -0.7772 -0.5081  0.1687
  859MOL0     N18456  -1.198   1.381   0.658 -0.3559  0.7778 -0.1171
  859MOL0     C18457  -0.068   2.006   0.836  0.2213  0.1797  0.9661
  859MOL0     C18458   0.049   2.058   0.872 -0.8439  0.8320  0.3105
  859MOL0     C18459   0.475   2.110   0.985 -0.2771 -0.4279 -0.7618
  859MOL0     C18460   0.478   2.211   1.096  0.7943  0.3619 -0.6252
  859MOL0     C18461   0.591   2.273   1.136 -0.3480 -0.3441  0.1186
  859MOL0     C18462   0.717   2.252   1.060  1.1548 -0.8314 -0.1522
  859MOL0     O18463   0.836   2.319   1.077  0.0534  0.4916 -0.5716
  859MOL0     C18464   0.838   2.442   1.145 -0.3793 -0.6915 -0.0432
  859MOL0     C18465   0.961   2.513   1.099  0.1943  0.3673 -0.3666
  859MOL0     C18466   0.964   2.659   1.155  0.9805  0.3714 -0.6882
  859MOL0     C18467   1.074   2.745   1.091 -0.3604 -0.1357  0.2108
  859MOL0     C18468   1.074   2.749   0.944  0.2006 -0.0695  0.5162
  859MOL0     C18469   1.072   2.771   0.821 -0.4322  0.0987 -0.5154
  859MOL0     C18470   0.714   2.166   0.952  0.6183 -0.1407  0.1417
  859MOL0     C18471   0.598   2.094   0.911 -0.0436  0.0027 -0.8526
  859MOL0     C18472   0.622   2.006   0.789  0.2018 -0.8783  0.4877
  859MOL0     H18473   0.152   1.852   1.111 -0.5349 -0.1639  0.0871
  859MOL0     H18474  -0.079   1.764   1.062 -1.8711  2.2273  0.2062
  859MOL0     H18475  -0.285   1.729   1.041  0.5443  1.7198  0.1892
  859MOL0     H18476  -0.287   1.654   0.886 -0.1005  1.9087 -0.8577
  859MOL0     H18477  -0.498   1.850   0.977 -1.4063 -2.1250  1.8919
  859MOL0     H18478  -0.473   1.808   0.807  3.5620  1.3104 -0.2024
  859MOL0     H18479  -0.472   1.556   0.944 -2.5399 -2.3844 -1.4876
  859MOL0     H18480  -0.563   1.665   1.053 -1.9936  2.1855 -0.4639
  859MOL0     H18481  -0.751   1.652   0.906 -0.5204  1.2274 -2.4977
  859MOL0     H18482  -0.653   1.660   0.761  1.0057  1.1321  0.5630
  859MOL0     H18483  -0.700   1.419   0.943 -2.1747  1.6838  0.2670
  859MOL0     H18484  -0.585   1.421   0.810  2.7950  2.1782  1.4294
  859MOL0     H18485  -0.861   1.516   0.742  0.0534  0.7138 -0.9526
  859MOL0     H18486  -0.743   1.428   0.641  0.7751 -3.0626  0.5635
  859MOL0     H18487  -0.933   1.335   0.843  0.6643  0.3219 -0.5608
  859MOL0     H18488  -0.805   1.232   0.764  1.0020  0.8976 -1.8195
  859MOL0     H18489  -0.921   1.229   0.550  1.2029  0.9212 -0.7855
  859MOL0     H18490  -1.019   1.176   0.683 -0.7989  1.4577 -0.5705
  859MOL0     H18491  -0.974   1.505   0.467 -1.4786  1.5270 -0.3233
  859MOL0     H18492  -1.118   1.764   0.466  0.7119 -0.3448  0.8055
  859MOL0     H18493  -1.289   1.742   0.484  1.7364  3.0972  0.5588
  859MOL0     H18494  -1.107   1.631   0.268 -0.5787 -0.6502  0.0055
  859MOL0     H18495  -1.271   1.574   0.294  0.5379 -0.8811 -0.4060
  859MOL0     H18496  -1.332   1.829   0.262 -1.5954  3.3532 -2.3313
  859MOL0     H18497  -1.163   1.840   0.195 -0.9056  0.1991 -0.7550
  859MOL0     H18498  -1.378   1.647   0.086  0.9160 -0.4411  1.1673
  859MOL0     H18499  -1.357   1.793   0.012 -1.3244  0.9868  3.1088
  859MOL0     H18500  -1.175   1.905  -0.048  1.9566  1.2469  1.6994
  859MOL0     H18501  -1.119   2.086  -0.173 -1.5477 -2.8420 -0.8572
  859MOL0     H18502  -1.027   2.045  -0.317 -0.0244 -2.2695 -0.0329
  859MOL0     H18503  -0.935   2.103  -0.182  0.5355 -1.4848 -1.1726
  859MOL0     H18504  -0.656   1.818  -0.615 -0.8466 -0.5748  0.9536
  859MOL0     H18505  -0.450   1.912  -0.727  0.8337  1.1131  0.6493
  859MOL0     H18506  -0.119   2.074  -0.512  1.4101  0.7086 -0.9137
  859MOL0     H18507  -0.067   1.909  -0.482 -0.1367 -0.1771  1.1023
  859MOL0     H18508   0.040   1.888  -0.707  1.2051  1.1543  0.8500
  859MOL0     H18509  -0.023   2.054  -0.751  2.2069  3.3276 -1.0051
  859MOL0     H18510   0.230   2.029  -0.673  1.7490  2.2838  0.1104
  859MOL0     H18511   0.157   1.949  -0.533 -2.6208 -1.7799 -2.0999
  859MOL0     H18512   0.240   2.170  -0.469 -0.9002 -2.2658  2.8263
  859MOL0     H18513   0.073   2.170  -0.458 -0.1512  0.1842 -0.8719
  859MOL0     H18514   0.187   2.273  -0.723  0.6777  2.5295 -1.3265
  859MOL0     H18515   0.038   2.304  -0.656 -0.0908 -0.4729  0.1131
  859MOL0     H18516   0.222   2.472  -0.644 -0.4492 -1.8776 -0.7677
  859MOL0     H18517   0.288   2.394  -0.504  0.9919 -0.3614 -0.8897
  859MOL0     H18518   0.136   2.575  -0.428  1.1639 -0.8420  0.3719
  859MOL0     H18519   0.092   2.425  -0.361  1.4585  2.1470  1.1260
  859MOL0     H18520  -0.098   2.560  -0.433 -2.2784  0.4405 -2.5054
  859MOL0     H18521  -0.094   2.390  -0.496 -1.0104  0.7048  2.2256
  859MOL0     H18522  -0.251   1.894  -0.352  0.6423 -1.2597 -1.6466
  859MOL0     H18523  -0.444   1.828  -0.242  0.2034 -1.1989  0.1111
  859MOL0     H18524  -0.819   1.611  -0.216 -1.1562 -1.6439  3.0615
  859MOL0     H18525  -1.000   1.536  -0.086  0.2899  0.3150  1.1867
  859MOL0     H18526  -0.132   2.044   0.758 -1.4439 -3.0489  0.6213
  859MOL0     H18527   0.069   2.157   0.831 -4.5736  1.1213 -1.1874
  859MOL0     H18528   0.387   2.241   1.148 -0.8635 -1.8779 -2.0449
  859MOL0     H18529   0.584   2.345   1.217  0.5606 -1.0179  0.8190
  859MOL0     H18530   0.755   2.503   1.107  0.8481  0.0718 -1.6375
  859MOL0     H18531   0.827   2.428   1.252  2.0669  0.8564  0.4850
  859MOL0     H18532   0.961   2.517   0.990 -1.0293  1.4711 -0.3610
  859MOL0     H18533   1.054   2.462   1.125  1.5341  2.3356 -1.0483
  859MOL0     H18534   0.867   2.707   1.147 -0.6671 -2.5620 -0.0485
  859MOL0     H18535   0.965   2.653   1.265  0.2053 -3.9908 -0.7141
  859MOL0     H18536   1.173   2.712   1.122  0.5057  3.2920  1.4965
  859MOL0     H18537   1.072   2.847   1.130  2.3220  0.5507 -1.1966
  859MOL0     H18538   1.079   2.792   0.716 -2.4436 -2.0246 -1.1497
  859MOL0     H18539   0.803   2.139   0.897 -1.1852 -1.4111 -2.3635
  859MOL0     H18540   0.726   1.997   0.756 -0.2398 -1.5939 -0.7935
  859MOL0     H18541   0.585   1.905   0.810 -0.8312 -1.1206 -2.0814
  859MOL0     H18542   0.572   2.042   0.699  1.2663  1.3714  0.7475
  860MOL0     O18543   2.788   9.724   3.695 -0.1083 -0.2488 -0.4722
  860MOL0     C18544   2.696   9.678   3.637  0.2529 -0.4047  1.1025
  860MOL0     O18545   2.642   9.557   3.641 -0.2402  0.8131  0.2750
  860MOL0     C18546   2.738   9.462   3.677  1.1619 -0.0260 -0.3890
  860MOL0     C18547   2.865   9.446   3.617  0.4282 -1.2368  0.0254
  860MOL0     C18548   2.957   9.356   3.656  0.1739 -0.1903  0.4652
  860MOL0     C18549   2.927   9.269   3.757  0.0133  0.4344  0.4369
  860MOL0     O18550   3.011   9.180   3.811  0.4700 -0.2056  0.5343
  860MOL0     C18551   3.097   9.113   3.713 -0.1542 -0.8861  0.7044
  860MOL0     C18552   3.072   8.965   3.734  0.5327  0.0366 -0.0100
  860MOL0     C18553   3.183   8.882   3.667 -0.1559  0.7971  0.3435
  860MOL0     C18554   3.173   8.735   3.695  0.1849  0.1749  0.3888
  860MOL0     C18555   3.265   8.657   3.598 -0.5752 -0.4998  0.0605
  860MOL0     C18556   3.410   8.663   3.649  0.3669 -0.0458  1.0343
  860MOL0     C18557   3.482   8.548   3.576  0.1299  0.2756  0.4258
  860MOL0     C18558   3.629   8.574   3.594  0.8677 -0.0823  0.0735
  860MOL0     N18559   3.708   8.469   3.528  0.2392 -0.5154  0.6320
  860MOL0     C18560   3.680   8.407   3.407 -0.2455 -0.2876  0.0215
  860MOL0     C18561   3.794   8.334   3.379  0.5880 -0.3077  0.4397
  860MOL0     C18562   3.808   8.235   3.260  0.2831 -1.0937 -0.7351
  860MOL0     C18563   3.849   8.315   3.141  0.1411  0.0153 -0.2746
  860MOL0     C18564   3.865   8.237   3.012  0.3507 -0.2557 -0.7850
  860MOL0     C18565   3.972   8.295   2.917  0.0841 -0.1031 -1.4077
  860MOL0     O18566   3.970   8.438   2.905  0.3675 -1.1188  0.6445
  860MOL0     C18567   4.037   8.503   2.800 -1.0894 -0.3460  0.3464
  860MOL0     C18568   4.001   8.634   2.764 -0.2723  0.4000 -0.2055
  860MOL0     C18569   4.079   8.698   2.666  0.8173 -0.0597  0.8816
  860MOL0     C18570   4.041   8.845   2.635  0.3770 -0.1392  1.2246
  860MOL0     C18571   4.186   8.626   2.595  0.2572 -0.5339 -0.2635
  860MOL0     C18572   4.280   8.699   2.504 -0.0923 -0.5971 -0.4106
  860MOL0     O18573   4.395   8.619   2.473 -0.0872 -0.0639 -0.4286
  860MOL0     C18574   4.490   8.666   2.396 -0.3670 -0.6342  0.5531
  860MOL0     C18575   4.463   8.692   2.258  0.3469 -0.0231 -0.6818
  860MOL0     C18576   4.570   8.738   2.178  0.2772  0.2559  0.1169
  860MOL0     C18577   4.706   8.750   2.231  0.9574  0.5679 -0.2871
  860MOL0     O18578   4.814   8.805   2.165 -0.4978 -0.3037 -0.5764
  860MOL0     C18579   4.932   8.732   2.132 -0.2941 -0.7525 -0.6334
  860MOL0     C18580   5.064   8.811   2.152 -0.1965  0.4744  0.2206
  860MOL0     C18581   5.189   8.731   2.151 -0.5159  0.7500 -0.1463
  860MOL0     C18582   5.313   8.821   2.135 -0.1445  0.2334 -0.7607
  860MOL0     C18583   5.431   8.733   2.090 -0.6003  0.3265  0.2426
  860MOL0     C18584   5.565   8.803   2.114 -0.3016 -0.2092 -1.1581
  860MOL0     C18585   5.567   8.930   2.016  0.0816 -0.3580 -0.4803
  860MOL0     C18586   5.701   9.012   2.055 -0.4201  0.0861 -0.6850
  860MOL0    Cl18587   5.857   8.923   2.087 -0.1664 -0.5135 -0.5415
  860MOL0     C18588   4.722   8.716   2.369  0.2953 -0.7709  0.3454
  860MOL0     C18589   4.616   8.680   2.447 -0.4522 -0.2446 -0.0201
  860MOL0     O18590   4.256   8.815   2.458  0.4007 -0.7994 -0.1654
  860MOL0     C18591   4.211   8.495   2.641 -0.1152 -0.1781  0.2484
  860MOL0     C18592   4.128   8.433   2.720  0.1858  0.4629  0.8531
  860MOL0     N18593   3.887   8.355   3.478 -0.7624  0.6751  0.4837
  860MOL0     N18594   3.833   8.423   3.569 -0.3636  0.4657 -0.7775
  860MOL0     C18595   2.803   9.277   3.816  0.2369  0.4326 -0.0834
  860MOL0     C18596   2.706   9.361   3.764  0.3932  0.3565 -0.4747
  860MOL0     C18597   2.613   9.774   3.568 -0.3130 -0.0359  1.0102
  860MOL0     C18598   2.475   9.740   3.556 -0.6211 -0.3569 -0.4247
  860MOL0     C18599   2.385   9.837   3.510  0.4808  0.2389  0.3601
  860MOL0     C18600   2.417   9.966   3.481 -0.7006 -0.7856 -0.7936
  860MOL0     O18601   2.326  10.059   3.441 -1.1274 -0.7889 -0.0591
  860MOL0     C18602   2.189  10.034   3.457 -0.1362  0.0212  0.4510
  860MOL0     C18603   2.112  10.140   3.372 -0.2957 -0.3191 -1.0906
  860MOL0     C18604   2.184  10.192   3.241 -0.2122 -0.3598  0.0933
  860MOL0     C18605   2.082  10.270   3.161  0.1091 -0.0323  0.5303
  860MOL0     C18606   2.145  10.316   3.043  0.2151 -0.3664  0.5301
  860MOL0     C18607   2.200  10.357   2.938  0.7457  0.6078  0.5551
  860MOL0     C18608   2.550   9.999   3.477  0.0272  0.2991  0.0213
  860MOL0     C18609   2.650   9.910   3.530  0.5862  0.1848  0.1263
  860MOL0     C18610   2.789   9.960   3.534 -1.1846  0.4425 -0.4183
  860MOL0     H18611   2.883   9.518   3.538 -0.2411  0.7944  1.6426
  860MOL0     H18612   3.053   9.360   3.606 -0.0157  1.4613  0.1762
  860MOL0     H18613   3.204   9.135   3.722  0.0813 -0.4337 -2.1094
  860MOL0     H18614   3.063   9.126   3.610 -1.2028 -2.6356  0.7963
  860MOL0     H18615   3.052   8.939   3.838  0.1271  1.7726  0.3675
  860MOL0     H18616   2.991   8.938   3.665  2.7894 -0.1611 -2.8194
  860MOL0     H18617   3.182   8.904   3.560 -1.3566  1.5412  0.4934
  860MOL0     H18618   3.275   8.923   3.709  1.4526  1.4552 -3.3814
  860MOL0     H18619   3.193   8.709   3.800 -0.4653 -0.1620  0.4320
  860MOL0     H18620   3.071   8.704   3.673  0.1933  0.1813  0.3423
  860MOL0     H18621   3.257   8.709   3.502 -1.1667  1.3900  1.0961
  860MOL0     H18622   3.239   8.551   3.598 -0.1002 -0.6218  0.5740
  860MOL0     H18623   3.448   8.762   3.621 -1.4170  0.4304  0.0981
  860MOL0     H18624   3.430   8.643   3.755  1.5741 -1.5768  0.5552
  860MOL0     H18625   3.447   8.564   3.474  1.2922  0.6047  0.0581
  860MOL0     H18626   3.458   8.454   3.626  1.4351 -0.5001 -0.3605
  860MOL0     H18627   3.655   8.670   3.550  0.6412  0.4510  1.0729
  860MOL0     H18628   3.659   8.575   3.699  3.5107 -1.6482 -0.5779
  860MOL0     H18629   3.584   8.404   3.357 -2.0016 -1.2363  3.1976
  860MOL0     H18630   3.725   8.166   3.245  0.1326 -1.2112  0.5389
  860MOL0     H18631   3.887   8.162   3.279  1.0485 -0.4358 -1.3409
  860MOL0     H18632   3.781   8.399   3.126 -1.1064 -1.3584 -2.9218
  860MOL0     H18633   3.947   8.360   3.158  0.3158  0.2439 -1.7830
  860MOL0     H18634   3.890   8.133   3.031  2.8661 -0.0723 -2.6079
  860MOL0     H18635   3.776   8.237   2.949  0.2573 -0.9325 -0.6620
  860MOL0     H18636   4.062   8.256   2.965 -1.3780  0.9401  2.5819
  860MOL0     H18637   3.974   8.241   2.822 -1.4977 -0.6229 -1.1793
  860MOL0     H18638   3.932   8.688   2.829 -0.6344 -0.5526  0.2170
  860MOL0     H18639   4.015   8.845   2.529 -0.3903 -0.9261  1.4024
  860MOL0     H18640   4.121   8.918   2.650 -0.7154  1.8254 -1.6582
  860MOL0     H18641   3.946   8.873   2.682  0.5246  0.7979  0.9966
  860MOL0     H18642   4.358   8.676   2.235  0.5752 -2.7853 -0.1563
  860MOL0     H18643   4.549   8.770   2.076 -0.9768 -1.8470 -0.3332
  860MOL0     H18644   4.935   8.644   2.198 -0.5035 -1.3749 -1.4372
  860MOL0     H18645   4.919   8.702   2.028 -2.7716 -0.2748 -0.5153
  860MOL0     H18646   5.083   8.884   2.072  1.9214  0.3849  0.6004
  860MOL0     H18647   5.060   8.876   2.240  1.1538  0.6488  0.1665
  860MOL0     H18648   5.181   8.660   2.068  0.7573  1.3925 -0.8382
  860MOL0     H18649   5.197   8.664   2.238  0.2661 -1.3019 -1.7186
  860MOL0     H18650   5.326   8.861   2.236  1.0073  0.2431 -0.9037
  860MOL0     H18651   5.284   8.897   2.062 -2.5630 -0.6294 -0.7997
  860MOL0     H18652   5.437   8.644   2.153  1.6469  1.8772  2.3903
  860MOL0     H18653   5.419   8.705   1.985 -1.9276 -0.0530  0.4808
  860MOL0     H18654   5.652   8.739   2.094  1.2658  2.0304 -1.9438
  860MOL0     H18655   5.576   8.841   2.216 -2.4427  2.5480 -1.8390
  860MOL0     H18656   5.479   8.995   2.022  0.5928  0.2314  3.5619
  860MOL0     H18657   5.565   8.904   1.910  2.1971  0.1768 -0.6917
  860MOL0     H18658   5.691   9.067   2.150  0.3194 -3.3745  1.5915
  860MOL0     H18659   5.715   9.079   1.970 -3.7147  1.0936 -0.5752
  860MOL0     H18660   4.812   8.735   2.426  0.1788  3.3760 -0.5518
  860MOL0     H18661   4.630   8.674   2.554 -1.2080 -1.6958  0.0255
  860MOL0     H18662   4.297   8.442   2.600  0.0152  0.4821 -0.3534
  860MOL0     H18663   4.160   8.335   2.756 -0.1434  0.0092 -0.0702
  860MOL0     H18664   2.787   9.203   3.894  3.8003  0.3549  0.7413
  860MOL0     H18665   2.600   9.355   3.789  0.2876 -1.4486 -1.1814
  860MOL0     H18666   2.438   9.639   3.570 -4.5619  0.7574 -1.5976
  860MOL0     H18667   2.283   9.800   3.496 -0.2091  1.4518  1.8719
  860MOL0     H18668   2.167   9.935   3.417  1.4281 -0.5650  0.9656
  860MOL0     H18669   2.156  10.030   3.561 -1.6526 -2.1266 -0.0457
  860MOL0     H18670   2.099  10.220   3.446 -0.2191 -1.1992 -0.1101
  860MOL0     H18671   2.015  10.096   3.346 -1.0318  0.5315  0.1185
  860MOL0     H18672   2.272  10.252   3.266 -0.2919  0.6219 -1.7736
  860MOL0     H18673   2.214  10.114   3.171  0.8036  0.0710  0.0306
  860MOL0     H18674   2.018  10.338   3.218 -0.8060 -3.1608  3.5541
  860MOL0     H18675   2.010  10.195   3.128  0.4052  0.0112 -0.2489
  860MOL0     H18676   2.232  10.392   2.841 -0.6822  2.9223  0.8290
  860MOL0     H18677   2.580  10.097   3.442  1.3016 -0.5927 -1.5471
  860MOL0     H18678   2.852   9.887   3.481  1.6845  0.6319  2.4009
  860MOL0     H18679   2.804  10.052   3.477  3.3609 -0.9468 -1.9523
  860MOL0     H18680   2.831   9.967   3.634  1.8599 -1.1759 -1.4566
  861MOL0     O18681  11.175   4.490   1.920  0.5492 -0.9808 -0.3563
  861MOL0     C18682  11.183   4.522   1.799  0.4336 -0.8389 -0.3022
  861MOL0     O18683  11.257   4.631   1.758  1.0774  0.3341  0.3955
  861MOL0     C18684  11.358   4.692   1.826  0.2026  0.6819 -1.0147
  861MOL0     C18685  11.429   4.640   1.937 -0.4034  0.2450 -0.2436
  861MOL0     C18686  11.493   4.728   2.020 -0.3358 -0.1587  0.4458
  861MOL0     C18687  11.524   4.854   1.978 -1.5603 -0.1773 -0.3687
  861MOL0     O18688  11.605   4.947   2.044  0.2548 -0.1793  0.5376
  861MOL0     C18689  11.658   4.912   2.169  0.2857 -0.8484 -0.0127
  861MOL0     C18690  11.780   4.816   2.158  0.0327  1.5465 -0.6750
  861MOL0     C18691  11.917   4.882   2.139 -0.2366 -0.0166 -0.0612
  861MOL0     C18692  11.963   4.946   2.270  0.4743 -0.1641 -0.4056
  861MOL0     C18693  12.054   5.062   2.255 -0.5352 -0.8200  0.1627
  861MOL0     C18694  12.196   5.022   2.270 -0.0758  0.7260 -0.1248
  861MOL0     C18695  12.282   5.147   2.248 -0.4120  0.5295 -0.5302
  861MOL0     C18696  12.430   5.107   2.266 -1.9203 -0.7946  0.0426
  861MOL0     N18697  12.505   5.233   2.288  0.2563 -0.0041 -0.3566
  861MOL0     C18698  12.524   5.326   2.193  0.4339 -0.0123  0.5317
  861MOL0     C18699  12.606   5.421   2.251 -0.4318 -1.3332  0.4748
  861MOL0     C18700  12.656   5.557   2.197 -0.4746 -0.5025 -0.0702
  861MOL0     C18701  12.814   5.567   2.192 -0.6711  0.4833  0.2436
  861MOL0     C18702  12.875   5.701   2.172  0.2008  0.2502  0.9052
  861MOL0     C18703  13.026   5.690   2.198  0.7177 -0.4471 -0.1259
  861MOL0     O18704  13.077   5.817   2.226 -0.5448 -0.4223 -0.1988
  861MOL0     C18705  13.215   5.832   2.224 -0.1080  0.0221 -0.1010
  861MOL0     C18706  13.285   5.914   2.136  0.5315  0.9165  0.4423
  861MOL0     C18707  13.427   5.936   2.141 -0.0997 -0.6001  0.6794
  861MOL0     C18708  13.480   6.022   2.033  0.4449 -0.4388 -0.0929
  861MOL0     C18709  13.504   5.863   2.245  0.6539 -0.5813  0.6453
  861MOL0     C18710  13.652   5.865   2.276  0.4316  1.0011  0.8417
  861MOL0     O18711  13.734   5.944   2.206  0.3954 -0.2120  0.2343
  861MOL0     C18712  13.857   5.965   2.254 -0.2544  0.1290 -0.0647
  861MOL0     C18713  13.891   6.076   2.337 -0.8153 -0.0869  0.9856
  861MOL0     C18714  14.022   6.085   2.384 -0.2157  0.3302  0.3254
  861MOL0     C18715  14.120   5.994   2.351 -0.3496  0.5386  0.1301
  861MOL0     O18716  14.249   6.021   2.391  0.0884  0.1111  0.0520
  861MOL0     C18717  14.336   5.914   2.431  0.7957 -0.6745  0.1419
  861MOL0     C18718  14.408   5.952   2.562 -0.3407  0.0799 -0.3566
  861MOL0     C18719  14.471   6.094   2.577 -0.5783  0.3982  0.5377
  861MOL0     C18720  14.532   6.153   2.443  0.6855 -0.0439  0.2808
  861MOL0     C18721  14.599   6.292   2.467  0.4580 -0.2575 -0.1711
  861MOL0     C18722  14.694   6.319   2.354 -0.1268 -1.4036 -0.8891
  861MOL0     C18723  14.766   6.454   2.377 -0.3070 -0.2628  0.6394
  861MOL0     C18724  14.667   6.561   2.330  0.1093  0.7781  0.7914
  861MOL0    Cl18725  14.712   6.728   2.389 -0.0943  0.0523  0.0613
  861MOL0     C18726  14.087   5.889   2.266 -0.6174 -0.0183  0.0399
  861MOL0     C18727  13.959   5.871   2.217  0.2411 -0.3688  0.4245
  861MOL0     O18728  13.685   5.798   2.368 -0.1649  0.1007 -1.2063
  861MOL0     C18729  13.425   5.790   2.333  0.4443  0.1893 -0.0712
  861MOL0     C18730  13.285   5.777   2.330  0.5201  0.4909  0.6011
  861MOL0     N18731  12.660   5.370   2.367 -0.1020  0.0603 -0.2056
  861MOL0     N18732  12.587   5.262   2.395  0.0541  0.5540 -0.6432
  861MOL0     C18733  11.470   4.903   1.864 -0.7973 -0.4485  0.2933
  861MOL0     C18734  11.389   4.826   1.787 -1.2738  0.2690  0.2025
  861MOL0     C18735  11.085   4.457   1.702  0.7580  0.0889 -0.5172
  861MOL0     C18736  10.983   4.374   1.752 -0.1338 -0.3083 -0.1644
  861MOL0     C18737  10.872   4.329   1.680 -0.1800 -0.2260 -0.5151
  861MOL0     C18738  10.867   4.372   1.549  0.3613  0.0392 -0.2964
  861MOL0     O18739  10.758   4.367   1.464  0.0786  0.4609  0.2784
  861MOL0     C18740  10.664   4.262   1.495  0.0867  0.1416  0.1683
  861MOL0     C18741  10.540   4.322   1.576  0.0188 -0.6380 -0.2655
  861MOL0     C18742  10.447   4.403   1.484  0.4731 -0.3317 -0.0510
  861MOL0     C18743  10.354   4.494   1.563 -0.1545 -0.6575  0.1912
  861MOL0     C18744  10.256   4.546   1.463  0.4387 -0.5331 -0.2290
  861MOL0     C18745  10.171   4.597   1.390 -0.5865  0.1742 -0.2159
  861MOL0     C18746  10.974   4.431   1.490  0.3428  0.1870  0.1140
  861MOL0     C18747  11.083   4.479   1.562  0.5151  0.2862 -0.2695
  861MOL0     C18748  11.178   4.563   1.480  0.0026 -0.1608 -1.3177
  861MOL0     H18749  11.401   4.537   1.957  1.0192 -0.7680 -3.0106
  861MOL0     H18750  11.533   4.686   2.112  1.5851  0.0986 -0.2264
  861MOL0     H18751  11.579   4.877   2.236 -0.2239  1.3207  0.5975
  861MOL0     H18752  11.693   5.003   2.219 -0.1279 -2.2543  3.0643
  861MOL0     H18753  11.795   4.758   2.249  0.9779 -2.2044 -3.0054
  861MOL0     H18754  11.759   4.746   2.077 -2.3400  1.8506 -0.3912
  861MOL0     H18755  11.992   4.811   2.101  0.9844  2.1389 -1.9019
  861MOL0     H18756  11.899   4.951   2.056 -3.3677 -2.7104 -1.8946
  861MOL0     H18757  11.877   4.977   2.330 -0.6424  1.4358 -2.6973
  861MOL0     H18758  12.008   4.864   2.326 -4.1963 -1.9985  1.1353
  861MOL0     H18759  12.029   5.136   2.332 -1.4794 -0.1985 -0.7130
  861MOL0     H18760  12.040   5.105   2.155  0.2002 -0.1757  0.3326
  861MOL0     H18761  12.219   4.978   2.368  0.3279 -0.6094 -0.7875
  861MOL0     H18762  12.232   4.950   2.196  2.9137  0.3986  1.4944
  861MOL0     H18763  12.248   5.222   2.320 -2.3461 -0.5695 -0.2199
  861MOL0     H18764  12.268   5.180   2.144  1.9246 -0.1173 -1.1040
  861MOL0     H18765  12.432   5.049   2.360 -0.4067 -0.7217  0.0727
  861MOL0     H18766  12.479   5.040   2.195  2.2290 -0.0697  1.9126
  861MOL0     H18767  12.472   5.327   2.098  0.7490  1.0100  0.3641
  861MOL0     H18768  12.622   5.646   2.251  2.3401  1.1849 -0.8639
  861MOL0     H18769  12.606   5.570   2.100 -4.3886  0.8769  1.9172
  861MOL0     H18770  12.846   5.543   2.294  1.5237 -1.8448 -0.8819
  861MOL0     H18771  12.857   5.492   2.125  0.1217  0.0419  1.2078
  861MOL0     H18772  12.852   5.745   2.075 -0.5037  2.0309  1.8244
  861MOL0     H18773  12.835   5.764   2.252 -0.7670  1.3376 -0.3984
  861MOL0     H18774  13.048   5.614   2.274  0.9792  0.4226  0.6945
  861MOL0     H18775  13.074   5.662   2.104  2.1085  2.9587 -0.5787
  861MOL0     H18776  13.229   5.975   2.066  3.4486  2.0720 -1.0681
  861MOL0     H18777  13.587   6.000   2.024  0.6598 -0.3208  1.7336
  861MOL0     H18778  13.479   6.130   2.054  1.5268 -0.7216  1.7199
  861MOL0     H18779  13.433   6.010   1.935 -0.0569  2.3421 -0.2968
  861MOL0     H18780  13.813   6.150   2.352 -1.7600  0.2415 -3.7127
  861MOL0     H18781  14.034   6.165   2.457 -0.5184 -0.3878  1.1875
  861MOL0     H18782  14.285   5.820   2.452  0.6416 -0.3027  1.5288
  861MOL0     H18783  14.414   5.894   2.357 -0.0654 -3.7606 -0.0609
  861MOL0     H18784  14.347   5.927   2.649 -0.1648 -2.7756 -0.9545
  861MOL0     H18785  14.488   5.878   2.574 -0.9379 -0.7065 -1.0924
  861MOL0     H18786  14.555   6.064   2.640  0.8854 -0.7832 -1.8215
  861MOL0     H18787  14.402   6.165   2.625  0.4577  3.2755 -1.9553
  861MOL0     H18788  14.450   6.157   2.371  4.1628  0.7481 -4.0409
  861MOL0     H18789  14.601   6.083   2.396  0.8855  0.3230  0.0211
  861MOL0     H18790  14.523   6.371   2.467  2.5422  1.8744 -0.1554
  861MOL0     H18791  14.652   6.286   2.563  0.4289  0.0104 -0.1369
  861MOL0     H18792  14.641   6.312   2.258  0.9969 -3.9475 -1.3930
  861MOL0     H18793  14.775   6.247   2.341  1.3297 -0.3757  1.7261
  861MOL0     H18794  14.860   6.461   2.323  0.0826 -0.2876  1.3084
  861MOL0     H18795  14.792   6.469   2.482 -0.5709 -2.8286  1.1408
  861MOL0     H18796  14.564   6.539   2.358  0.1945  0.8056  1.1368
  861MOL0     H18797  14.659   6.560   2.221 -1.5679 -1.2509  0.8702
  861MOL0     H18798  14.163   5.817   2.238 -0.1630  0.8614 -1.0873
  861MOL0     H18799  13.937   5.798   2.139 -0.3581 -1.4308  1.5497
  861MOL0     H18800  13.473   5.740   2.416  2.1037  0.6380 -0.7257
  861MOL0     H18801  13.234   5.708   2.396  1.6553  1.0917  2.1741
  861MOL0     H18802  11.499   5.002   1.830 -0.5281 -0.5752  0.1558
  861MOL0     H18803  11.342   4.877   1.703 -0.0960  3.4937  1.3428
  861MOL0     H18804  10.987   4.335   1.853  1.2009  0.3999  0.0821
  861MOL0     H18805  10.792   4.292   1.742  2.9419 -0.1662  3.9959
  861MOL0     H18806  10.635   4.222   1.397  3.9004  0.8061 -1.3860
  861MOL0     H18807  10.716   4.182   1.546 -1.6328 -1.9557 -1.1876
  861MOL0     H18808  10.573   4.396   1.649 -0.2311 -0.2207 -0.5700
  861MOL0     H18809  10.485   4.240   1.624 -0.1286  0.1520  0.9683
  861MOL0     H18810  10.499   4.462   1.408  1.3116 -2.6056 -1.3209
  861MOL0     H18811  10.388   4.326   1.433 -1.2364  1.3369 -0.7206
  861MOL0     H18812  10.416   4.579   1.595 -0.2432  0.4944 -2.4043
  861MOL0     H18813  10.317   4.442   1.652 -0.4759  0.3547  0.6692
  861MOL0     H18814  10.088   4.625   1.329 -1.1295 -1.9050 -0.5180
  861MOL0     H18815  10.960   4.474   1.392  1.3764  0.1669 -0.0557
  861MOL0     H18816  11.189   4.512   1.384 -1.8514 -1.1928 -1.0358
  861MOL0     H18817  11.133   4.658   1.449 -1.3953 -1.0291 -2.0557
  861MOL0     H18818  11.272   4.579   1.534 -2.1660 -1.0296  3.2097
  862MOL0     O18819   4.099   2.384   2.451 -0.2960  0.1634  0.0149
  862MOL0     C18820   4.062   2.414   2.563 -0.0826  0.0110 -0.9162
  862MOL0     O18821   4.126   2.371   2.679  0.5612 -0.2495  0.0670
  862MOL0     C18822   4.215   2.268   2.662  0.9362 -0.1061  0.4025
  862MOL0     C18823   4.350   2.275   2.709  0.5458 -0.0689 -0.7802
  862MOL0     C18824   4.438   2.172   2.700 -0.8968  0.2173 -0.8583
  862MOL0     C18825   4.400   2.052   2.643 -0.9430 -0.5541  0.4562
  862MOL0     O18826   4.489   1.943   2.637  0.3952  0.1376  0.4703
  862MOL0     C18827   4.556   1.911   2.751 -0.6220 -1.1520 -0.0945
  862MOL0     C18828   4.697   1.873   2.693  0.2167  0.1701 -0.2406
  862MOL0     C18829   4.801   1.829   2.801 -0.2547  0.2953 -0.7057
  862MOL0     C18830   4.784   1.697   2.864 -0.0155 -0.4027  0.1866
  862MOL0     C18831   4.869   1.668   2.982 -0.3832  0.0432 -0.7748
  862MOL0     C18832   4.855   1.532   3.049  0.1925 -0.1006 -0.0784
  862MOL0     C18833   4.918   1.435   2.955 -0.0749  0.1593  0.4153
  862MOL0     C18834   4.927   1.290   3.001 -0.1759 -0.5883  0.2884
  862MOL0     N18835   5.057   1.267   3.069  0.3622  0.5358  0.4124
  862MOL0     C18836   5.134   1.165   3.026 -0.7225 -0.0687  0.2173
  862MOL0     C18837   5.247   1.192   3.084 -0.0436 -0.3105 -0.2342
  862MOL0     C18838   5.372   1.111   3.057 -0.4961 -0.1207  0.9414
  862MOL0     C18839   5.504   1.141   3.140  0.0689  0.5965 -0.0236
  862MOL0     C18840   5.623   1.067   3.065 -0.4892 -0.0942 -0.2280
  862MOL0     C18841   5.753   1.046   3.137  0.0688  0.0253 -0.0154
  862MOL0     O18842   5.839   0.988   3.040 -0.1953  0.3050 -0.1468
  862MOL0     C18843   5.974   0.980   3.072 -0.2001  0.2047 -0.2270
  862MOL0     C18844   6.020   0.985   3.207 -0.5603  0.2989  0.5336
  862MOL0     C18845   6.162   0.998   3.227  0.0312  0.4866  0.2809
  862MOL0     C18846   6.208   1.018   3.367 -0.2892  0.7382  0.1929
  862MOL0     C18847   6.247   0.991   3.117 -0.3544 -0.3457  0.6740
  862MOL0     C18848   6.396   0.994   3.122 -0.1809 -0.3667 -0.5863
  862MOL0     O18849   6.466   1.071   3.034  0.2780  0.8255  0.4241
  862MOL0     C18850   6.596   1.097   3.056 -0.7910 -0.0994 -0.7265
  862MOL0     C18851   6.636   1.193   3.151  0.8418  0.3909 -0.1205
  862MOL0     C18852   6.772   1.212   3.178  0.6606 -0.3073 -0.1213
  862MOL0     C18853   6.869   1.141   3.098  0.1818 -0.4068  0.4417
  862MOL0     O18854   6.996   1.142   3.150  0.0571 -0.3482 -0.0527
  862MOL0     C18855   7.112   1.131   3.069  0.3611  0.3259  0.1086
  862MOL0     C18856   7.237   1.134   3.159  0.5582  0.4818 -0.3385
  862MOL0     C18857   7.259   0.992   3.228 -0.5089  0.3479 -0.2415
  862MOL0     C18858   7.348   0.996   3.348 -0.0308  0.2754  0.5874
  862MOL0     C18859   7.335   0.869   3.426  0.7390  1.1366  0.5289
  862MOL0     C18860   7.453   0.842   3.517 -0.1731 -0.3088  0.9026
  862MOL0     C18861   7.585   0.819   3.439  0.8953 -0.3069 -0.4483
  862MOL0     C18862   7.701   0.762   3.519  0.0130 -0.3191  0.2147
  862MOL0    Cl18863   7.681   0.586   3.527 -0.3849  0.4135  0.1660
  862MOL0     C18864   6.828   1.056   2.990 -0.1208 -0.4559  0.5542
  862MOL0     C18865   6.686   1.037   2.971  0.1184  0.3378 -0.3471
  862MOL0     O18866   6.444   0.916   3.199  0.1763  0.1029 -0.4820
  862MOL0     C18867   6.194   0.988   2.993  0.2574 -0.9294  0.2351
  862MOL0     C18868   6.063   0.973   2.970  0.2750 -0.4943  0.5794
  862MOL0     N18869   5.243   1.309   3.163 -0.1026  0.4809 -0.0095
  862MOL0     N18870   5.122   1.362   3.150  0.1601  0.7096 -0.3833
  862MOL0     C18871   4.266   2.031   2.600  1.5694 -0.1423 -0.1683
  862MOL0     C18872   4.176   2.145   2.603 -0.7099 -0.1557 -0.2008
  862MOL0     C18873   3.955   2.513   2.582  0.8767  0.2753  0.5303
  862MOL0     C18874   3.954   2.582   2.706  0.6058  0.6236 -0.3202
  862MOL0     C18875   3.854   2.677   2.737  0.9909  0.0257  0.1591
  862MOL0     C18876   3.759   2.704   2.647  0.9254  0.3851  0.8670
  862MOL0     O18877   3.656   2.790   2.684  0.2864 -0.4771 -0.3914
  862MOL0     C18878   3.549   2.711   2.742  0.3427 -0.1173  0.7244
  862MOL0     C18879   3.465   2.624   2.642  0.4619  0.1296 -0.4447
  862MOL0     C18880   3.312   2.624   2.661  0.6541  0.1937 -0.4668
  862MOL0     C18881   3.281   2.534   2.780 -0.2312  0.2502 -0.5389
  862MOL0     C18882   3.322   2.590   2.913  1.1744 -0.1162 -0.1699
  862MOL0     C18883   3.361   2.647   3.015 -0.7283 -0.8027 -0.1247
  862MOL0     C18884   3.761   2.646   2.525 -0.3290  0.4109  0.6684
  862MOL0     C18885   3.858   2.558   2.481  0.1189  0.4149 -0.1996
  862MOL0     C18886   3.867   2.520   2.329 -0.1667  0.0904  0.2220
  862MOL0     H18887   4.387   2.370   2.748 -2.2727  0.4006  1.0666
  862MOL0     H18888   4.537   2.185   2.743 -0.7874  1.7954 -1.5036
  862MOL0     H18889   4.505   1.831   2.805  0.6417 -1.0497  1.3128
  862MOL0     H18890   4.575   1.999   2.814  0.6652 -0.7780 -0.9798
  862MOL0     H18891   4.702   1.792   2.619 -0.1747 -1.1763  1.1579
  862MOL0     H18892   4.723   1.961   2.633 -0.4808  0.7488  0.2842
  862MOL0     H18893   4.901   1.832   2.757  0.2145 -0.1415  0.2812
  862MOL0     H18894   4.804   1.908   2.877  1.2603 -0.3909  0.0137
  862MOL0     H18895   4.678   1.684   2.885  0.3030 -2.4030  0.8087
  862MOL0     H18896   4.802   1.619   2.790 -2.5206 -0.2463 -0.6670
  862MOL0     H18897   4.838   1.738   3.059 -1.4961 -2.5015  1.2503
  862MOL0     H18898   4.976   1.685   2.967 -0.1043 -0.2432  0.7267
  862MOL0     H18899   4.912   1.533   3.142  1.6738 -2.5258 -0.8675
  862MOL0     H18900   4.755   1.496   3.074  2.3475 -8.2122 -0.4020
  862MOL0     H18901   5.015   1.467   2.917 -0.8509  0.6340 -1.2428
  862MOL0     H18902   4.850   1.437   2.869  0.4075 -0.4050  0.0096
  862MOL0     H18903   4.852   1.270   3.078 -0.0995 -0.7894  0.3107
  862MOL0     H18904   4.906   1.225   2.916  0.9219  0.7656 -1.0873
  862MOL0     H18905   5.100   1.089   2.956 -0.3962  0.7477 -0.8688
  862MOL0     H18906   5.393   1.120   2.950 -0.7280 -0.5836  0.8562
  862MOL0     H18907   5.341   1.006   3.055  0.2151 -0.3296  0.5219
  862MOL0     H18908   5.531   1.245   3.156  1.9646  0.0133  0.8252
  862MOL0     H18909   5.481   1.105   3.241  0.5368 -0.2940 -0.2218
  862MOL0     H18910   5.581   0.969   3.043 -1.3138  0.3102 -0.4961
  862MOL0     H18911   5.665   1.117   2.978  2.3641  1.4055  1.8316
  862MOL0     H18912   5.780   1.144   3.178 -1.9468 -0.3524  2.4629
  862MOL0     H18913   5.726   0.979   3.220  3.2324 -0.9022  0.4299
  862MOL0     H18914   5.958   0.987   3.295 -1.5091  2.2834 -0.1231
  862MOL0     H18915   6.302   1.074   3.366 -0.6735  1.4383  1.7205
  862MOL0     H18916   6.226   0.922   3.416  0.3148  0.9929  0.4856
  862MOL0     H18917   6.137   1.067   3.434 -0.0480  0.5528  0.5874
  862MOL0     H18918   6.561   1.246   3.209 -0.0254 -2.1796  1.2762
  862MOL0     H18919   6.805   1.266   3.266 -1.5458 -0.4742  0.8742
  862MOL0     H18920   7.106   1.037   3.014 -3.6393 -1.2515  2.7851
  862MOL0     H18921   7.112   1.222   3.008  0.4150  1.1329  1.2781
  862MOL0     H18922   7.328   1.158   3.104 -0.0341  3.0905 -0.3079
  862MOL0     H18923   7.220   1.214   3.231 -0.2110  0.8941 -0.9601
  862MOL0     H18924   7.305   0.913   3.169  1.6488  0.5101  1.1095
  862MOL0     H18925   7.161   0.955   3.261  0.6777 -2.3994  0.4606
  862MOL0     H18926   7.313   1.078   3.412 -0.7099  0.3414  0.1359
  862MOL0     H18927   7.452   1.012   3.317 -1.1422  0.0214 -3.9494
  862MOL0     H18928   7.246   0.878   3.490 -0.8234  2.6586 -1.7252
  862MOL0     H18929   7.320   0.779   3.365  1.8973  0.1805  1.6021
  862MOL0     H18930   7.435   0.749   3.571  0.2868  0.6771  2.8711
  862MOL0     H18931   7.461   0.929   3.583  0.3701 -0.8923  1.6228
  862MOL0     H18932   7.624   0.917   3.409 -0.6572  1.5383  2.9729
  862MOL0     H18933   7.568   0.751   3.356 -1.1904 -0.7732  0.3067
  862MOL0     H18934   7.708   0.819   3.612 -2.1965  1.6411 -0.7293
  862MOL0     H18935   7.801   0.769   3.474 -0.1249 -1.1636 -0.2510
  862MOL0     H18936   6.896   0.988   2.939 -0.9633 -1.3621  0.5915
  862MOL0     H18937   6.657   0.963   2.897  2.7153 -0.4713 -0.6523
  862MOL0     H18938   6.260   0.999   2.908 -1.8058  2.8830 -1.0635
  862MOL0     H18939   6.021   0.980   2.871  0.1751  1.3719  0.7067
  862MOL0     H18940   4.246   1.940   2.545 -0.8554  1.4181 -2.0994
  862MOL0     H18941   4.081   2.140   2.551  1.4787  0.0611 -4.7130
  862MOL0     H18942   4.027   2.558   2.783  4.0881  0.5706 -3.3395
  862MOL0     H18943   3.856   2.724   2.835 -1.7143 -0.5260  0.5565
  862MOL0     H18944   3.592   2.651   2.822  2.2653  0.0383 -0.1351
  862MOL0     H18945   3.486   2.789   2.786  1.2337  0.3261  1.2224
  862MOL0     H18946   3.506   2.523   2.632 -1.6520 -0.8434  0.2009
  862MOL0     H18947   3.480   2.671   2.544 -0.2978 -0.0167 -0.6409
  862MOL0     H18948   3.270   2.724   2.675  0.7861  0.0298  1.2352
  862MOL0     H18949   3.263   2.578   2.575  1.0291 -0.4199 -0.3596
  862MOL0     H18950   3.336   2.444   2.748  0.2047  0.9545 -1.8313
  862MOL0     H18951   3.175   2.508   2.787 -0.0969 -0.1362  0.2862
  862MOL0     H18952   3.388   2.677   3.114  0.5591  0.7114 -0.8823
  862MOL0     H18953   3.683   2.676   2.457 -1.3909 -1.0917  1.1756
  862MOL0     H18954   3.950   2.579   2.288  1.0623  0.6911  3.2585
  862MOL0     H18955   3.889   2.413   2.319 -0.4454 -0.0821  1.3058
  862MOL0     H18956   3.768   2.515   2.284 -1.1926 -2.7553  2.5049
  863MOL0     O18957   5.448   2.783   3.899 -0.1876  0.1985  0.4355
  863MOL0     C18958   5.328   2.796   3.922  0.0332 -0.0624  0.4892
  863MOL0     O18959   5.233   2.774   3.822  0.5037  0.0437 -0.1848
  863MOL0     C18960   5.276   2.744   3.693  1.1562  0.3481  1.0543
  863MOL0     C18961   5.296   2.844   3.599  0.6526 -0.4802  0.4481
  863MOL0     C18962   5.356   2.813   3.475  0.1837  0.6223  0.6345
  863MOL0     C18963   5.394   2.678   3.441  0.1753 -0.0969 -0.0128
  863MOL0     O18964   5.466   2.667   3.330  0.3301  0.0556 -0.0741
  863MOL0     C18965   5.515   2.541   3.295  0.5297  0.4187  0.5151
  863MOL0     C18966   5.634   2.483   3.383 -0.4901 -0.5069  0.3839
  863MOL0     C18967   5.777   2.541   3.352 -0.2214  0.4182  0.4306
  863MOL0     C18968   5.871   2.441   3.419  0.4194  0.6550 -0.0926
  863MOL0     C18969   6.009   2.499   3.405  0.0280 -0.4534 -0.6184
  863MOL0     C18970   6.115   2.401   3.475  0.0564 -0.5828 -0.0404
  863MOL0     C18971   6.259   2.377   3.406 -0.2950  0.5426  0.0652
  863MOL0     C18972   6.254   2.314   3.265 -0.7687 -0.1570 -0.4668
  863MOL0     N18973   6.170   2.194   3.271 -0.2560 -0.1997  0.7134
  863MOL0     C18974   6.057   2.155   3.199  0.5380  0.0047 -0.6511
  863MOL0     C18975   6.029   2.026   3.231  0.1121 -0.4352 -0.2746
  863MOL0     C18976   5.919   1.942   3.176 -0.0219 -0.0115 -0.5778
  863MOL0     C18977   5.957   1.914   3.034 -0.2123  0.2905 -0.7073
  863MOL0     C18978   5.888   1.793   2.978 -0.1685  0.2774  0.1519
  863MOL0     C18979   5.731   1.802   2.956 -0.0382 -0.6280 -0.7343
  863MOL0     O18980   5.712   1.918   2.874  0.3252 -0.0805 -0.0926
  863MOL0     C18981   5.586   1.944   2.834  0.7829  0.3783  0.2763
  863MOL0     C18982   5.473   1.871   2.875 -0.2105 -0.1677  0.6481
  863MOL0     C18983   5.348   1.925   2.847  0.4246 -0.8400 -0.5556
  863MOL0     C18984   5.231   1.833   2.867  0.3422 -0.5035 -0.2723
  863MOL0     C18985   5.332   2.044   2.776  1.1111 -1.0502 -0.0440
  863MOL0     C18986   5.203   2.126   2.768  1.0343  0.8808  0.4950
  863MOL0     O18987   5.189   2.223   2.675 -0.8511 -0.6510 -0.2390
  863MOL0     C18988   5.063   2.286   2.666 -0.0208 -0.3115 -0.4824
  863MOL0     C18989   5.048   2.429   2.657  0.2627  0.1754 -0.9180
  863MOL0     C18990   4.918   2.479   2.621  0.6698  0.0100  0.7817
  863MOL0     C18991   4.822   2.390   2.584  0.8877 -0.0774 -0.3595
  863MOL0     O18992   4.702   2.418   2.528  0.6621  0.5975 -0.1004
  863MOL0     C18993   4.658   2.554   2.522 -1.2646  0.7073 -0.4990
  863MOL0     C18994   4.515   2.563   2.489 -0.5145  0.7084  0.6707
  863MOL0     C18995   4.464   2.706   2.515  0.6948 -0.0978  0.1514
  863MOL0     C18996   4.319   2.710   2.445 -0.1443 -0.0519 -0.8530
  863MOL0     C18997   4.250   2.845   2.442  0.1245 -0.4342 -0.3300
  863MOL0     C18998   4.121   2.860   2.348 -0.4397  0.3652 -0.1106
  863MOL0     C18999   4.039   2.987   2.389  0.5621 -0.0720  1.0298
  863MOL0     C19000   3.917   3.007   2.298 -0.1817 -0.6345 -0.2637
  863MOL0    Cl19001   3.824   2.856   2.302  0.6232  0.1020  0.1960
  863MOL0     C19002   4.838   2.250   2.589  0.5540 -0.4578 -0.8503
  863MOL0     C19003   4.963   2.199   2.620 -0.2460 -0.0401  0.7684
  863MOL0     O19004   5.117   2.098   2.853 -0.5094  0.3909  0.3003
  863MOL0     C19005   5.449   2.102   2.720 -0.8382 -0.7147 -0.5925
  863MOL0     C19006   5.576   2.052   2.753 -0.7797  0.3643 -0.0224
  863MOL0     N19007   6.112   1.986   3.332  0.2948  0.2859  0.2473
  863MOL0     N19008   6.190   2.086   3.356  0.4779  0.7350  0.2149
  863MOL0     C19009   5.361   2.576   3.534  0.2940 -1.0550  0.0605
  863MOL0     C19010   5.309   2.611   3.658  1.0234 -0.4101  0.5177
  863MOL0     C19011   5.289   2.824   4.065 -0.5532 -1.0304  0.0445
  863MOL0     C19012   5.147   2.851   4.086 -0.3757 -0.0587  0.3833
  863MOL0     C19013   5.092   2.877   4.210  0.7687  0.4025 -0.4697
  863MOL0     C19014   5.179   2.882   4.325 -0.4683  0.2682  0.4519
  863MOL0     O19015   5.121   2.905   4.445 -0.7495  0.0393 -0.5729
  863MOL0     C19016   5.212   2.905   4.557 -0.3348 -0.3074 -0.3458
  863MOL0     C19017   5.114   2.916   4.679  0.5009  0.2836  0.2479
  863MOL0     C19018   5.190   2.959   4.806  0.6791 -0.4570  0.5291
  863MOL0     C19019   5.298   2.862   4.862  0.3444  0.3733 -0.0199
  863MOL0     C19020   5.421   2.848   4.782 -0.1919 -0.5154 -0.1425
  863MOL0     C19021   5.530   2.846   4.723  0.4190  0.0130  0.2406
  863MOL0     C19022   5.319   2.871   4.302  0.3466 -0.5208  0.0043
  863MOL0     C19023   5.372   2.841   4.173  0.1666  0.2537 -0.7476
  863MOL0     C19024   5.526   2.848   4.173  0.6535 -0.8934 -0.2943
  863MOL0     H19025   5.288   2.951   3.617 -0.6216 -0.5952  0.6524
  863MOL0     H19026   5.393   2.892   3.412 -0.7701  2.0450  1.7857
  863MOL0     H19027   5.555   2.543   3.194  0.6955  0.3829  0.5790
  863MOL0     H19028   5.435   2.468   3.290  1.1855 -0.3976  1.5017
  863MOL0     H19029   5.619   2.496   3.491  3.2274 -1.1511  1.1104
  863MOL0     H19030   5.627   2.376   3.360  0.9181 -0.4067 -0.6333
  863MOL0     H19031   5.787   2.549   3.244 -1.0774  1.1556  0.3972
  863MOL0     H19032   5.776   2.640   3.398  1.7314  0.6568  0.0386
  863MOL0     H19033   5.839   2.429   3.523  0.9234  1.3481  0.1493
  863MOL0     H19034   5.856   2.345   3.368 -0.6297  0.5141  0.4495
  863MOL0     H19035   6.005   2.593   3.462  1.4657 -2.0274  2.3110
  863MOL0     H19036   6.051   2.509   3.305  1.2021  2.6631  0.0540
  863MOL0     H19037   6.137   2.452   3.569 -0.5954  0.8009 -0.5983
  863MOL0     H19038   6.070   2.304   3.498  1.0622 -0.8160  1.0482
  863MOL0     H19039   6.323   2.319   3.473 -1.7730  0.4362  1.4447
  863MOL0     H19040   6.322   2.465   3.393 -0.2054  0.4501 -0.1497
  863MOL0     H19041   6.209   2.385   3.195 -2.7584 -1.1815 -0.3197
  863MOL0     H19042   6.352   2.289   3.226  0.1664  0.7944  1.1521
  863MOL0     H19043   6.018   2.202   3.110 -0.5502 -1.4581 -0.9741
  863MOL0     H19044   5.826   1.999   3.171 -1.0584 -1.6565 -4.1248
  863MOL0     H19045   5.904   1.850   3.233 -2.9844  0.7104 -0.0385
  863MOL0     H19046   5.927   2.000   2.973 -2.4140 -0.1670 -0.3443
  863MOL0     H19047   6.066   1.904   3.024 -0.0813  1.3228 -0.4806
  863MOL0     H19048   5.945   1.780   2.885  0.5500  0.2132  0.5976
  863MOL0     H19049   5.914   1.704   3.036 -1.3841 -1.3749 -1.7018
  863MOL0     H19050   5.702   1.709   2.906  0.5315 -1.2271  0.0395
  863MOL0     H19051   5.682   1.805   3.053  0.8464 -1.3251 -0.2521
  863MOL0     H19052   5.479   1.774   2.923 -1.3823 -0.0314  1.0992
  863MOL0     H19053   5.180   1.845   2.963 -1.7036  3.1864 -1.6356
  863MOL0     H19054   5.262   1.729   2.858  3.0553  0.2717 -0.7161
  863MOL0     H19055   5.150   1.853   2.796 -0.4085  0.3977  0.7933
  863MOL0     H19056   5.134   2.487   2.688 -0.0659 -0.2074  0.8469
  863MOL0     H19057   4.904   2.586   2.610 -0.7229 -0.2298 -0.0559
  863MOL0     H19058   4.681   2.603   2.617  0.9695 -4.2484  1.8962
  863MOL0     H19059   4.725   2.598   2.448 -0.2266  0.3365  0.2031
  863MOL0     H19060   4.507   2.538   2.383  0.9195 -1.3978  1.0061
  863MOL0     H19061   4.460   2.485   2.544  2.0298 -1.2854  0.5430
  863MOL0     H19062   4.525   2.782   2.465  0.8741  1.1564  2.1749
  863MOL0     H19063   4.463   2.730   2.621 -0.0157 -1.0054  0.3637
  863MOL0     H19064   4.254   2.638   2.495  0.9546 -0.9366 -0.6448
  863MOL0     H19065   4.335   2.672   2.344  0.1806  0.0109 -0.8275
  863MOL0     H19066   4.222   2.884   2.540 -1.4561  0.9782 -1.2986
  863MOL0     H19067   4.329   2.908   2.401 -0.1246 -0.8395 -1.4583
  863MOL0     H19068   4.064   2.767   2.363 -1.3955  1.0031  0.3409
  863MOL0     H19069   4.147   2.868   2.242 -0.0986  0.9490  0.0106
  863MOL0     H19070   4.104   3.075   2.384  0.2592  0.0763 -1.6263
  863MOL0     H19071   4.005   2.982   2.493  0.7885 -0.6934  1.0779
  863MOL0     H19072   3.941   3.042   2.198  1.5538 -1.8398 -0.2994
  863MOL0     H19073   3.855   3.084   2.345  0.4891 -1.4049  2.0032
  863MOL0     H19074   4.758   2.183   2.558 -3.6714  1.5618  4.2287
  863MOL0     H19075   4.977   2.092   2.617  0.5571  0.0212  1.8847
  863MOL0     H19076   5.455   2.192   2.660  0.1119  0.1607  0.7562
  863MOL0     H19077   5.660   2.104   2.708 -1.4467  0.8103 -0.7619
  863MOL0     H19078   5.387   2.475   3.503  1.3588 -1.0643  0.9135
  863MOL0     H19079   5.296   2.540   3.739 -0.5768 -0.6302  0.0852
  863MOL0     H19080   5.079   2.851   4.002 -1.6405  0.1695  1.3708
  863MOL0     H19081   4.984   2.887   4.202  0.7578  1.5210  0.7343
  863MOL0     H19082   5.265   2.809   4.561  0.1553 -0.0769 -1.0726
  863MOL0     H19083   5.279   2.991   4.552 -0.0049 -0.0128  4.6385
  863MOL0     H19084   5.042   2.836   4.697  0.7001  0.1764  0.5815
  863MOL0     H19085   5.037   2.992   4.661  0.7910  0.9979  1.8365
  863MOL0     H19086   5.233   3.058   4.790 -1.2838  0.2394 -0.7817
  863MOL0     H19087   5.116   2.980   4.883 -2.2723 -0.9219 -2.0030
  863MOL0     H19088   5.254   2.765   4.888 -0.8775  1.7149  3.6185
  863MOL0     H19089   5.325   2.894   4.963  3.0177 -2.5990  0.3494
  863MOL0     H19090   5.628   2.807   4.703  0.8916  1.8128 -1.1079
  863MOL0     H19091   5.385   2.886   4.387 -4.0667  1.3016  3.5164
  863MOL0     H19092   5.572   2.764   4.225 -1.3427 -0.9535  1.5048
  863MOL0     H19093   5.576   2.843   4.076  1.0185  1.6605 -0.3069
  863MOL0     H19094   5.562   2.941   4.217 -1.5668  0.3019 -0.8580
  864MOL0     O19095   9.522   7.795   4.818  0.6577  0.4443 -0.6937
  864MOL0     C19096   9.446   7.885   4.855 -0.6951  0.2226  0.7812
  864MOL0     O19097   9.470   7.971   4.959 -0.6739  0.2667 -0.2365
  864MOL0     C19098   9.586   7.959   5.018  0.1844  1.2639 -0.7248
  864MOL0     C19099   9.703   8.038   4.986 -0.0289  0.8122  0.7841
  864MOL0     C19100   9.826   8.012   5.046 -1.0650 -0.4410 -0.3217
  864MOL0     C19101   9.827   7.912   5.150 -0.8276  0.3962  0.9630
  864MOL0     O19102   9.934   7.875   5.215 -0.5987  0.7271  0.2357
  864MOL0     C19103  10.049   7.963   5.223 -0.3456  0.4473  0.1725
  864MOL0     C19104  10.171   7.886   5.279  0.4455  0.0461 -0.4553
  864MOL0     C19105  10.299   7.967   5.297 -0.0269  0.0094  0.2366
  864MOL0     C19106  10.263   8.116   5.338 -0.1036 -0.2092  0.0269
  864MOL0     C19107  10.394   8.191   5.369 -0.3589  0.3772  0.2943
  864MOL0     C19108  10.398   8.326   5.438 -0.2627 -0.5776 -0.5386
  864MOL0     C19109  10.327   8.438   5.353  0.2545 -0.2337  0.5927
  864MOL0     C19110  10.363   8.570   5.405  0.5884  0.2887 -0.2456
  864MOL0     N19111  10.292   8.671   5.329  0.5974  0.2116 -0.1048
  864MOL0     C19112  10.154   8.678   5.292 -0.3135  0.8263 -0.1964
  864MOL0     C19113  10.141   8.794   5.229  0.8883 -0.0078 -0.3355
  864MOL0     C19114  10.014   8.864   5.173  0.1729  0.1204 -0.1004
  864MOL0     C19115  10.012   8.862   5.021 -0.0136 -0.3658 -0.4290
  864MOL0     C19116   9.987   8.727   4.966 -0.5586  1.2797  0.3840
  864MOL0     C19117   9.983   8.733   4.810  0.3886 -1.0341 -0.1122
  864MOL0     O19118  10.112   8.762   4.759  0.6933  0.1499  0.8136
  864MOL0     C19119  10.135   8.741   4.628  0.1192  0.5880 -0.3559
  864MOL0     C19120  10.263   8.711   4.591  0.1737 -0.4621 -0.6676
  864MOL0     C19121  10.294   8.694   4.454  0.2234  0.2987 -0.5612
  864MOL0     C19122  10.435   8.647   4.416  1.3048  0.4089 -0.1417
  864MOL0     C19123  10.198   8.702   4.353 -0.9089 -0.4357  0.0608
  864MOL0     C19124  10.221   8.683   4.211  0.2765 -0.1075  0.9511
  864MOL0     O19125  10.108   8.650   4.139  0.6001 -0.4953 -0.3322
  864MOL0     C19126  10.117   8.630   4.003  0.0038 -0.0592  0.6767
  864MOL0     C19127  10.223   8.565   3.944 -0.5223 -0.1889  0.1033
  864MOL0     C19128  10.235   8.547   3.804 -0.1634  0.0038  0.2120
  864MOL0     C19129  10.134   8.583   3.723  0.0476 -0.1709  0.6259
  864MOL0     O19130  10.127   8.560   3.589  0.1669 -1.0347  0.7480
  864MOL0     C19131  10.157   8.676   3.512  0.2219 -0.1249 -0.9821
  864MOL0     C19132  10.141   8.651   3.368  0.0052  0.0518  0.1133
  864MOL0     C19133  10.238   8.723   3.277  0.9358  0.5054  0.2790
  864MOL0     C19134  10.225   8.689   3.128 -0.3630  0.8368 -0.0862
  864MOL0     C19135  10.312   8.776   3.036 -0.5157  0.1312  0.4932
  864MOL0     C19136  10.242   8.794   2.900  0.7269 -0.3162  0.0925
  864MOL0     C19137  10.122   8.897   2.900  0.2110 -0.5996 -0.5857
  864MOL0     C19138  10.097   8.930   2.753  0.0038 -0.1767  0.1056
  864MOL0    Cl19139  10.221   9.037   2.672  0.0431  0.0490 -0.4152
  864MOL0     C19140  10.019   8.640   3.776 -0.1358 -0.0049 -0.1871
  864MOL0     C19141  10.012   8.663   3.913  0.7168 -0.6223  0.0296
  864MOL0     O19142  10.335   8.691   4.161  0.2596 -0.9384 -0.0542
  864MOL0     C19143  10.069   8.728   4.398  0.0839 -0.1202  0.3677
  864MOL0     C19144  10.030   8.739   4.536 -0.1708 -0.6675 -0.1360
  864MOL0     N19145  10.265   8.850   5.220 -0.1055  0.5946 -0.5191
  864MOL0     N19146  10.348   8.788   5.282 -0.2149  0.5518 -0.4021
  864MOL0     C19147   9.712   7.841   5.189 -0.6181  0.6697 -0.2065
  864MOL0     C19148   9.587   7.864   5.126 -0.7082 -1.3343  0.1720
  864MOL0     C19149   9.308   7.891   4.814  0.2254 -0.0210 -0.3518
  864MOL0     C19150   9.210   7.950   4.895  0.1650 -0.0245  0.1474
  864MOL0     C19151   9.076   7.967   4.857 -0.4287  0.4187  0.2045
  864MOL0     C19152   9.032   7.917   4.746  0.2319  0.9622 -0.4949
  864MOL0     O19153   8.901   7.935   4.719  0.0757  0.1275 -0.1603
  864MOL0     C19154   8.853   7.889   4.586 -0.3963  0.1036 -0.2159
  864MOL0     C19155   8.701   7.886   4.590 -0.3660 -0.3848  0.6340
  864MOL0     C19156   8.657   7.817   4.459 -1.0988 -0.2492 -0.2283
  864MOL0     C19157   8.509   7.849   4.431  0.1606 -0.4612  0.9981
  864MOL0     C19158   8.458   7.785   4.307 -0.5153 -0.7226  0.4367
  864MOL0     C19159   8.409   7.750   4.205  0.9531 -0.3073  0.3126
  864MOL0     C19160   9.121   7.847   4.666 -0.3524  0.4967  0.1206
  864MOL0     C19161   9.261   7.842   4.699 -0.2958 -0.0360  0.9525
  864MOL0     C19162   9.347   7.811   4.582 -0.8901 -0.2460  0.4509
  864MOL0     H19163   9.691   8.109   4.904  0.1248 -1.0755 -0.9534
  864MOL0     H19164   9.911   8.069   5.010  0.3767 -2.0783  0.3071
  864MOL0     H19165  10.029   8.026   5.310  0.8459  0.6862  0.2980
  864MOL0     H19166  10.072   8.023   5.134  0.4705  3.6908  2.3891
  864MOL0     H19167  10.148   7.828   5.369  1.3246 -1.7476 -1.3298
  864MOL0     H19168  10.198   7.801   5.216 -0.9018 -2.8264  2.5701
  864MOL0     H19169  10.365   7.929   5.376 -2.8675  1.4432  3.6029
  864MOL0     H19170  10.361   7.967   5.207  2.1058 -3.1683  1.5224
  864MOL0     H19171  10.209   8.168   5.259 -0.2799  3.4597  2.3057
  864MOL0     H19172  10.202   8.106   5.429 -0.2637 -4.3832 -0.3609
  864MOL0     H19173  10.450   8.192   5.275  0.8703  1.8781  1.0083
  864MOL0     H19174  10.450   8.120   5.430 -0.5546  0.1994  0.2670
  864MOL0     H19175  10.351   8.333   5.537  0.2086  4.0507 -0.4417
  864MOL0     H19176  10.505   8.349   5.445  0.4477 -3.5823 -0.1988
  864MOL0     H19177  10.220   8.417   5.357  0.3781 -0.7728  1.3846
  864MOL0     H19178  10.359   8.428   5.249  0.2252 -0.2813  0.5880
  864MOL0     H19179  10.325   8.583   5.507 -1.1604 -0.2135 -0.8006
  864MOL0     H19180  10.470   8.593   5.409  0.7465 -0.2299  4.5800
  864MOL0     H19181  10.081   8.598   5.297 -1.3266  1.7982  1.9471
  864MOL0     H19182  10.003   8.965   5.214 -0.7818 -0.6160  1.5518
  864MOL0     H19183   9.923   8.816   5.209  0.5507 -0.2100  0.4247
  864MOL0     H19184   9.946   8.935   4.974 -1.4128 -0.6376  0.9972
  864MOL0     H19185  10.108   8.905   4.992 -1.1417  1.3903 -1.7717
  864MOL0     H19186  10.060   8.652   4.998 -0.0090  1.6261 -0.0511
  864MOL0     H19187   9.885   8.709   5.003 -1.4020  2.5264 -1.2153
  864MOL0     H19188   9.942   8.642   4.767 -1.6347 -0.0816 -0.3441
  864MOL0     H19189   9.913   8.813   4.781  2.4536  0.0047 -2.5208
  864MOL0     H19190  10.332   8.686   4.671  0.0679 -1.6208 -0.9115
  864MOL0     H19191  10.495   8.616   4.502  1.0949 -1.3586 -0.5807
  864MOL0     H19192  10.485   8.736   4.377 -1.0594  0.7010 -2.8547
  864MOL0     H19193  10.433   8.561   4.348 -0.7138 -0.5497  1.0016
  864MOL0     H19194  10.313   8.526   3.990  0.3859  1.2709 -0.3853
  864MOL0     H19195  10.319   8.500   3.754  0.9470 -0.0880  2.1044
  864MOL0     H19196  10.096   8.763   3.536 -0.0807  0.3853 -3.3764
  864MOL0     H19197  10.258   8.715   3.529 -1.1350  4.1570 -1.5659
  864MOL0     H19198  10.153   8.546   3.339 -1.6767  0.5360 -2.6798
  864MOL0     H19199  10.039   8.667   3.333 -0.2049  1.3655  1.2548
  864MOL0     H19200  10.338   8.685   3.301  0.2288 -3.2802 -1.9507
  864MOL0     H19201  10.229   8.832   3.286 -2.0345  0.1799  2.3715
  864MOL0     H19202  10.120   8.708   3.104 -1.1428 -1.4063  1.2396
  864MOL0     H19203  10.250   8.584   3.114 -0.7424  0.4414  1.8063
  864MOL0     H19204  10.350   8.866   3.085  0.4414 -1.7952  3.5749
  864MOL0     H19205  10.401   8.716   3.015 -0.9864  0.1917 -1.9268
  864MOL0     H19206  10.213   8.695   2.864 -0.2668 -0.1375  0.3482
  864MOL0     H19207  10.312   8.837   2.828 -1.4816  0.8499 -1.4644
  864MOL0     H19208  10.144   8.985   2.962  2.0977 -2.0223  0.8665
  864MOL0     H19209  10.032   8.854   2.944 -0.0653 -0.0680 -0.6186
  864MOL0     H19210  10.000   8.981   2.755 -0.4080 -0.8535  3.3537
  864MOL0     H19211  10.090   8.834   2.701 -0.4528 -1.0830  1.7623
  864MOL0     H19212   9.925   8.663   3.727 -0.4130  2.7953  1.4210
  864MOL0     H19213   9.922   8.704   3.958  0.3112 -0.0468 -1.2577
  864MOL0     H19214   9.984   8.739   4.331  0.1615  1.0146  0.4331
  864MOL0     H19215   9.924   8.742   4.556 -0.2139 -1.3737 -0.2622
  864MOL0     H19216   9.708   7.768   5.268 -3.2111 -2.1884 -2.7025
  864MOL0     H19217   9.503   7.803   5.157 -0.1090 -3.0984 -1.4402
  864MOL0     H19218   9.235   7.976   4.997 -2.6725 -3.8505  2.0603
  864MOL0     H19219   9.008   8.012   4.928 -1.2289 -1.7888  0.9339
  864MOL0     H19220   8.886   7.953   4.503 -1.1201 -1.8786 -2.1353
  864MOL0     H19221   8.890   7.788   4.565 -0.9495 -0.4676  1.3975
  864MOL0     H19222   8.661   7.988   4.585  0.1867 -0.1579  0.7521
  864MOL0     H19223   8.659   7.843   4.681 -1.0949  1.5966  1.3034
  864MOL0     H19224   8.714   7.845   4.370 -2.5312  1.2267 -0.7233
  864MOL0     H19225   8.670   7.709   4.470 -1.2323 -0.3151 -0.7123
  864MOL0     H19226   8.493   7.957   4.421 -1.9155 -0.6004  2.1706
  864MOL0     H19227   8.446   7.812   4.513  0.5782  1.2178  2.1254
  864MOL0     H19228   8.365   7.718   4.112  0.9144  1.9114 -0.4947
  864MOL0     H19229   9.103   7.814   4.564 -0.2322  0.8442 -0.0120
  864MOL0     H19230   9.290   7.783   4.493 -3.2365 -1.5740  2.2503
  864MOL0     H19231   9.407   7.900   4.559 -0.8759 -0.7366 -1.5529
  864MOL0     H19232   9.413   7.728   4.608 -1.8328 -0.1936  3.4573
  865MOL0     O19233   5.248   4.280   9.786 -0.5897  0.6745 -0.5945
  865MOL0     C19234   5.174   4.375   9.803  0.2996  0.2653 -0.0441
  865MOL0     O19235   5.219   4.508   9.824  0.9483  0.4934 -0.5707
  865MOL0     C19236   5.352   4.540   9.836  0.0139  0.2822  0.4670
  865MOL0     C19237   5.388   4.663   9.783 -0.7364  0.1531  0.1348
  865MOL0     C19238   5.526   4.701   9.805  0.9408 -0.1005  0.6503
  865MOL0     C19239   5.611   4.627   9.886  0.5590 -0.0134  0.1852
  865MOL0     O19240   5.742   4.660   9.911  1.0173  0.2188 -0.1865
  865MOL0     C19241   5.798   4.763   9.834 -0.0818 -0.2659 -0.8191
  865MOL0     C19242   5.946   4.760   9.860 -0.4076 -0.9302 -0.6886
  865MOL0     C19243   6.026   4.641   9.816 -0.2016 -0.4273  0.9749
  865MOL0     C19244   6.173   4.643   9.880  0.4864 -0.0544 -0.8675
  865MOL0     C19245   6.270   4.708   9.783 -0.3462  0.8285 -0.1770
  865MOL0     C19246   6.401   4.744   9.864  1.2554 -0.2848  0.4002
  865MOL0     C19247   6.511   4.798   9.773 -0.1581  0.4733 -0.2198
  865MOL0     C19248   6.582   4.682   9.692  0.5018 -0.0923  0.2972
  865MOL0     N19249   6.696   4.641   9.754  0.4099  0.0751 -0.1160
  865MOL0     C19250   6.799   4.725   9.791 -0.7818 -0.3908 -0.0152
  865MOL0     C19251   6.880   4.653   9.869 -0.7740  0.2592 -0.3746
  865MOL0     C19252   7.010   4.696   9.922  0.0178 -0.0337  0.4114
  865MOL0     C19253   7.120   4.626   9.841 -0.4862 -0.6125 -0.3597
  865MOL0     C19254   7.257   4.624   9.921 -0.4116  0.4980  0.1975
  865MOL0     C19255   7.380   4.630   9.820  0.2902  0.4321  0.8050
  865MOL0     O19256   7.499   4.631   9.907  0.2997 -0.7053 -0.4418
  865MOL0     C19257   7.617   4.642   9.843 -1.1469  0.6307 -0.8481
  865MOL0     C19258   7.736   4.643   9.921 -0.0360 -0.2268 -0.0455
  865MOL0     C19259   7.868   4.652   9.866 -0.4525  0.5494  0.0456
  865MOL0     C19260   7.985   4.669   9.959  0.4083  0.3569  0.8422
  865MOL0     C19261   7.880   4.648   9.729 -0.3301 -0.3073  0.2316
  865MOL0     C19262   8.006   4.638   9.645  0.3906  0.0811  0.1531
  865MOL0     O19263   7.993   4.677   9.515  0.3630 -0.5953  0.1784
  865MOL0     C19264   8.097   4.716   9.430  0.4479  0.1568 -0.5294
  865MOL0     C19265   8.071   4.798   9.324  0.0290  0.1410  0.4660
  865MOL0     C19266   8.177   4.834   9.242  0.0720 -0.0780 -0.3713
  865MOL0     C19267   8.303   4.784   9.258 -0.5554  0.2866 -0.3407
  865MOL0     O19268   8.400   4.836   9.166 -0.7604 -0.0093 -0.8133
  865MOL0     C19269   8.532   4.773   9.166 -0.5301  0.1965  0.7230
  865MOL0     C19270   8.524   4.659   9.064 -0.5724 -0.2300  0.2091
  865MOL0     C19271   8.647   4.571   9.078 -0.3626 -0.5206  0.2558
  865MOL0     C19272   8.605   4.433   9.028 -0.8817  0.2644  0.0518
  865MOL0     C19273   8.717   4.328   9.017 -0.6661  0.0831  0.8561
  865MOL0     C19274   8.862   4.368   8.970  0.6078  0.5530  0.3650
  865MOL0     C19275   8.966   4.286   9.037 -0.1651  0.3720  0.1445
  865MOL0     C19276   8.961   4.134   9.002  0.4497 -0.0346 -0.6169
  865MOL0    Cl19277   9.068   4.041   9.118  0.1206  0.4651 -0.0688
  865MOL0     C19278   8.321   4.678   9.347 -0.5517  0.0643  0.2478
  865MOL0     C19279   8.222   4.645   9.433  0.1059 -0.1965  0.0681
  865MOL0     O19280   8.099   4.584   9.692 -0.0890  0.6054 -0.9404
  865MOL0     C19281   7.763   4.634   9.650 -0.2437  0.1088 -0.2224
  865MOL0     C19282   7.631   4.627   9.705 -0.3593 -0.0080 -0.3209
  865MOL0     N19283   6.829   4.522   9.887  0.1652  0.3112  0.1448
  865MOL0     N19284   6.716   4.525   9.824  0.2165  0.3249  0.1107
  865MOL0     C19285   5.571   4.504   9.938 -0.5134 -0.7018  0.3794
  865MOL0     C19286   5.443   4.465   9.912  0.1166 -0.0386 -0.5902
  865MOL0     C19287   5.028   4.362   9.776 -0.0835 -1.2634  0.5561
  865MOL0     C19288   4.952   4.484   9.767  1.1340 -0.1889 -0.1404
  865MOL0     C19289   4.811   4.486   9.750 -0.1040  0.5734 -0.4338
  865MOL0     C19290   4.743   4.361   9.728  0.5427  0.3495 -0.2439
  865MOL0     O19291   4.611   4.350   9.681 -0.2723  0.8118  0.1411
  865MOL0     C19292   4.517   4.431   9.760 -1.1179 -0.3051  0.1081
  865MOL0     C19293   4.375   4.396   9.734 -1.2205 -0.1020  0.6100
  865MOL0     C19294   4.317   4.286   9.824  0.5422 -0.6988 -0.1910
  865MOL0     C19295   4.390   4.152   9.808 -0.9038 -0.2354  0.5696
  865MOL0     C19296   4.328   4.040   9.869 -0.0647 -0.0316 -0.4663
  865MOL0     C19297   4.296   3.930   9.904 -0.0544  0.0971 -0.6373
  865MOL0     C19298   4.817   4.237   9.732  0.1739 -0.7187  0.0722
  865MOL0     C19299   4.957   4.239   9.764 -0.3359  0.0283 -0.3235
  865MOL0     C19300   5.028   4.105   9.775 -0.7032 -0.6192  0.6722
  865MOL0     H19301   5.321   4.730   9.730  1.0954  0.6839 -1.6673
  865MOL0     H19302   5.549   4.796   9.759 -0.3726 -0.7346 -1.4433
  865MOL0     H19303   5.751   4.854   9.872 -1.7175 -2.1118  1.9296
  865MOL0     H19304   5.781   4.740   9.728 -0.4349 -1.6882 -0.4774
  865MOL0     H19305   5.989   4.849   9.814 -0.2040 -1.4310 -1.4899
  865MOL0     H19306   5.968   4.767   9.967  2.3174  1.0311 -1.2766
  865MOL0     H19307   5.970   4.553   9.849  1.3674 -1.0656  2.0740
  865MOL0     H19308   6.039   4.648   9.708 -0.0581  1.6092  1.0901
  865MOL0     H19309   6.177   4.691   9.979 -1.4868 -2.4699  0.4930
  865MOL0     H19310   6.202   4.538   9.891 -3.8190 -1.3627  0.0430
  865MOL0     H19311   6.226   4.796   9.735 -2.7753 -0.3942 -0.3739
  865MOL0     H19312   6.293   4.630   9.709  1.8213 -1.7572  2.9303
  865MOL0     H19313   6.374   4.825   9.933  1.0343 -1.3591  1.6185
  865MOL0     H19314   6.434   4.666   9.932  0.3619  0.3204  1.5643
  865MOL0     H19315   6.573   4.869   9.829 -2.3986 -0.8592  4.4784
  865MOL0     H19316   6.464   4.862   9.699 -1.8180 -1.4256 -0.8900
  865MOL0     H19317   6.521   4.592   9.675  1.5214 -1.4938  3.4338
  865MOL0     H19318   6.616   4.720   9.595 -0.9960  0.3780 -0.0700
  865MOL0     H19319   6.808   4.831   9.772  1.3891 -1.0134 -3.0559
  865MOL0     H19320   7.014   4.682  10.030 -0.8869  1.1823  0.6281
  865MOL0     H19321   7.021   4.805   9.916  0.5380  0.0754  2.6959
  865MOL0     H19322   7.096   4.521   9.822  0.3385 -1.6552  3.4266
  865MOL0     H19323   7.129   4.674   9.744 -0.4179 -2.0583 -1.0919
  865MOL0     H19324   7.265   4.701   9.998 -0.1952 -1.9872  2.8166
  865MOL0     H19325   7.255   4.533   9.981 -2.9100 -0.2137 -0.8297
  865MOL0     H19326   7.385   4.540   9.757  2.8754 -0.9844  2.7973
  865MOL0     H19327   7.376   4.717   9.754  1.2632  0.2865  0.5299
  865MOL0     H19328   7.739   4.662  10.028  0.6025  2.9636 -0.5332
  865MOL0     H19329   7.965   4.712  10.058 -2.1966 -0.0811  0.5681
  865MOL0     H19330   8.072   4.718   9.913  0.5723 -0.5523  0.1492
  865MOL0     H19331   8.007   4.564   9.975 -1.6035 -0.5244 -1.4741
  865MOL0     H19332   7.971   4.840   9.313 -1.2594 -2.2459  2.0461
  865MOL0     H19333   8.152   4.914   9.173  0.8160  0.2758 -0.2316
  865MOL0     H19334   8.600   4.850   9.129 -0.4742  0.7573  1.9437
  865MOL0     H19335   8.567   4.750   9.267  1.4920 -2.0633 -0.3939
  865MOL0     H19336   8.426   4.613   9.080 -0.3186 -0.9888 -0.3629
  865MOL0     H19337   8.519   4.699   8.962  0.8482 -1.4577 -0.3723
  865MOL0     H19338   8.693   4.575   9.178  0.1180  0.6587  0.0059
  865MOL0     H19339   8.722   4.611   9.009 -0.7259 -0.3079 -0.0160
  865MOL0     H19340   8.569   4.430   8.925  1.1896 -2.1258 -0.7193
  865MOL0     H19341   8.537   4.396   9.105  0.2803  1.8691  1.9555
  865MOL0     H19342   8.726   4.282   9.116  0.8623  0.8342  1.0970
  865MOL0     H19343   8.673   4.255   8.949 -1.0069 -0.4850  1.6764
  865MOL0     H19344   8.901   4.467   8.994 -0.1665  1.1668 -0.8056
  865MOL0     H19345   8.867   4.358   8.862 -1.7391  4.3537 -0.3079
  865MOL0     H19346   8.955   4.291   9.145  1.7553  0.9159  0.3382
  865MOL0     H19347   9.060   4.333   9.009 -1.6015  3.1410 -0.3397
  865MOL0     H19348   8.989   4.117   8.898  2.2903  0.6715 -0.2856
  865MOL0     H19349   8.855   4.110   9.010  0.0882  1.3379 -1.0007
  865MOL0     H19350   8.421   4.639   9.364 -0.2867  1.3250  1.8101
  865MOL0     H19351   8.240   4.578   9.516  0.0704  1.2278  1.2749
  865MOL0     H19352   7.774   4.625   9.543  3.0622 -1.5651  0.1160
  865MOL0     H19353   7.550   4.594   9.639  0.1891 -0.3234 -0.8493
  865MOL0     H19354   5.644   4.442   9.990  0.3580  0.2214  0.2994
  865MOL0     H19355   5.404   4.370   9.949  0.2076 -0.3361 -1.2431
  865MOL0     H19356   4.994   4.580   9.792  0.7377 -0.1685  0.4882
  865MOL0     H19357   4.738   4.566   9.740 -1.0656 -0.4789 -2.5248
  865MOL0     H19358   4.538   4.419   9.867  0.9430 -0.2519 -0.2427
  865MOL0     H19359   4.538   4.534   9.729 -1.3607 -0.3324 -0.1510
  865MOL0     H19360   4.377   4.357   9.632 -1.5380 -2.6719  1.4943
  865MOL0     H19361   4.313   4.486   9.738  0.9904  1.4647  2.1640
  865MOL0     H19362   4.310   4.317   9.929  3.6411  0.5375 -0.2332
  865MOL0     H19363   4.216   4.275   9.782  1.0121  0.1820 -1.6585
  865MOL0     H19364   4.489   4.174   9.849 -0.3201  1.0654 -1.3962
  865MOL0     H19365   4.398   4.133   9.700 -2.1131  2.6927 -0.1321
  865MOL0     H19366   4.270   3.831   9.936  1.6826 -0.4469 -0.8363
  865MOL0     H19367   4.767   4.145   9.707 -0.0736 -0.6573  0.3447
  865MOL0     H19368   5.070   4.083   9.676  0.4504 -1.3986  1.3244
  865MOL0     H19369   5.105   4.095   9.852  0.1437  2.4558  0.3648
  865MOL0     H19370   4.958   4.024   9.794  0.2937 -1.3039  1.5235
  866MOL0     O19371   3.092   3.689   5.070 -0.1074  0.9451 -0.8531
  866MOL0     C19372   3.149   3.676   5.179 -0.3584  0.2692 -0.4653
  866MOL0     O19373   3.263   3.605   5.206 -0.1746  0.4976 -0.1485
  866MOL0     C19374   3.347   3.571   5.105 -0.1756 -0.1162  1.4767
  866MOL0     C19375   3.394   3.666   5.004  0.2020  0.6399 -0.8004
  866MOL0     C19376   3.480   3.617   4.900  0.7192 -0.1315 -0.3210
  866MOL0     C19377   3.512   3.481   4.894  0.4574 -0.2010 -0.4901
  866MOL0     O19378   3.590   3.453   4.796 -1.0491 -0.0798 -0.0568
  866MOL0     C19379   3.559   3.330   4.711 -0.3043 -0.2747 -0.1677
  866MOL0     C19380   3.462   3.354   4.598  1.1938  0.3185 -0.3977
  866MOL0     C19381   3.510   3.469   4.514 -0.3380 -0.5899 -0.4306
  866MOL0     C19382   3.397   3.529   4.424 -0.6558  1.3688  0.7439
  866MOL0     C19383   3.456   3.622   4.317  0.0909 -0.3439 -0.6783
  866MOL0     C19384   3.339   3.680   4.237 -0.3832  0.3768  0.8518
  866MOL0     C19385   3.395   3.784   4.143 -1.0796 -0.2816  0.4433
  866MOL0     C19386   3.283   3.867   4.082 -0.0570  0.1083 -0.6447
  866MOL0     N19387   3.339   3.999   4.044  0.5199 -0.1924  0.5276
  866MOL0     C19388   3.423   4.011   3.935 -0.2840  0.6580 -0.1875
  866MOL0     C19389   3.444   4.143   3.919  1.4893  0.0517 -0.3341
  866MOL0     C19390   3.537   4.203   3.819  0.4199 -0.9936  0.4309
  866MOL0     C19391   3.470   4.247   3.685  0.9583 -0.7086 -0.4209
  866MOL0     C19392   3.562   4.328   3.606  0.4875  0.3118 -0.0764
  866MOL0     C19393   3.577   4.477   3.662  0.2901 -0.4772 -0.6876
  866MOL0     O19394   3.629   4.561   3.556  0.8940  0.5955  0.1181
  866MOL0     C19395   3.758   4.583   3.512  0.3919 -0.4523 -0.0365
  866MOL0     C19396   3.872   4.497   3.533 -0.1088 -1.3858  0.3274
  866MOL0     C19397   3.995   4.527   3.473 -0.1891  0.0175 -0.9188
  866MOL0     C19398   4.104   4.420   3.490 -0.5408 -0.2718 -0.2014
  866MOL0     C19399   4.017   4.642   3.397 -0.0465  0.3778 -0.0899
  866MOL0     C19400   4.142   4.674   3.328 -0.3658 -0.8583 -0.6858
  866MOL0     O19401   4.116   4.770   3.239 -0.7325 -0.0809  0.4485
  866MOL0     C19402   4.223   4.834   3.186  0.5429 -0.5515 -0.4608
  866MOL0     C19403   4.218   4.852   3.047 -0.8679 -0.0308 -0.2011
  866MOL0     C19404   4.320   4.930   2.984  0.0733 -0.6984  0.3267
  866MOL0     C19405   4.411   5.002   3.058 -1.3229 -0.0439 -0.9224
  866MOL0     O19406   4.508   5.072   2.988  0.5273 -0.7475 -0.3472
  866MOL0     C19407   4.565   5.180   3.063  0.6497  0.5120  0.0967
  866MOL0     C19408   4.678   5.230   2.983 -0.5709 -0.3258  0.4282
  866MOL0     C19409   4.761   5.329   3.065  0.1447 -0.2243 -0.6337
  866MOL0     C19410   4.899   5.366   3.003 -0.7023 -0.5405  0.7743
  866MOL0     C19411   4.984   5.435   3.113 -0.8639 -0.7479 -0.4298
  866MOL0     C19412   4.932   5.567   3.153  0.3167  0.3761 -0.5648
  866MOL0     C19413   5.031   5.641   3.244 -0.4562 -0.7153  0.0468
  866MOL0     C19414   4.971   5.747   3.337  0.3593 -0.3019 -0.0416
  866MOL0    Cl19415   4.908   5.664   3.477 -0.1539  0.4773 -0.3053
  866MOL0     C19416   4.418   4.982   3.198 -0.1392  0.4944  0.3649
  866MOL0     C19417   4.322   4.900   3.264 -0.0999 -0.6903  0.0616
  866MOL0     O19418   4.247   4.620   3.355 -0.3193 -0.6418  0.4505
  866MOL0     C19419   3.902   4.732   3.387  0.5551 -1.1293  0.0428
  866MOL0     C19420   3.780   4.704   3.447 -0.0778  1.2322  0.0120
  866MOL0     N19421   3.374   4.205   4.022  0.4511 -0.0727 -0.0501
  866MOL0     N19422   3.310   4.119   4.096 -0.2177  0.5468 -0.3184
  866MOL0     C19423   3.470   3.392   4.991  0.9411 -0.3395 -0.4557
  866MOL0     C19424   3.375   3.434   5.085 -0.6378 -0.5654 -0.2647
  866MOL0     C19425   3.066   3.704   5.308 -0.0008  0.2747  0.1398
  866MOL0     C19426   3.092   3.637   5.426 -0.3871  0.0472  0.2723
  866MOL0     C19427   3.014   3.668   5.535  0.2385  0.4606 -0.4499
  866MOL0     C19428   2.916   3.772   5.532 -0.2525 -0.3299 -0.2980
  866MOL0     O19429   2.845   3.806   5.649  0.1035 -1.2597  0.0357
  866MOL0     C19430   2.847   3.713   5.751  0.0232  0.0123 -0.4281
  866MOL0     C19431   2.723   3.732   5.841 -0.4319 -0.4125  0.0892
  866MOL0     C19432   2.592   3.718   5.760  0.5948  0.0186 -0.1018
  866MOL0     C19433   2.531   3.579   5.779  0.3106  0.3133 -0.7863
  866MOL0     C19434   2.393   3.582   5.731  0.0546 -0.2254 -0.3941
  866MOL0     C19435   2.276   3.580   5.702 -0.5325  0.2167  0.5714
  866MOL0     C19436   2.892   3.841   5.413  0.2575  0.9470  1.1019
  866MOL0     C19437   2.967   3.807   5.302  0.9739  0.0202  0.5439
  866MOL0     C19438   2.924   3.880   5.171 -0.0008 -0.3377  0.3568
  866MOL0     H19439   3.381   3.774   5.014 -1.5508  0.4414 -0.7289
  866MOL0     H19440   3.525   3.693   4.836  0.5589  0.7520  0.5926
  866MOL0     H19441   3.519   3.260   4.784 -2.6220  3.1172  2.1348
  866MOL0     H19442   3.650   3.295   4.662 -1.7790 -1.2117 -2.3889
  866MOL0     H19443   3.455   3.264   4.536  1.9861  0.7061 -1.0756
  866MOL0     H19444   3.361   3.362   4.639  0.2256 -2.3081 -1.9920
  866MOL0     H19445   3.557   3.553   4.566 -3.2673  0.1815  1.1392
  866MOL0     H19446   3.585   3.419   4.452 -1.2642 -2.8986  0.2296
  866MOL0     H19447   3.344   3.450   4.370  2.1194 -0.1910  0.1479
  866MOL0     H19448   3.325   3.590   4.481 -1.8175  1.3493 -0.6418
  866MOL0     H19449   3.524   3.567   4.253  0.4896  0.1580 -0.6911
  866MOL0     H19450   3.494   3.712   4.367 -1.5721  0.3119 -0.5139
  866MOL0     H19451   3.288   3.596   4.187  1.5670 -0.3874  0.0402
  866MOL0     H19452   3.270   3.732   4.303 -1.7217  0.6642 -0.6940
  866MOL0     H19453   3.462   3.743   4.068 -1.5951  1.3289 -0.9736
  866MOL0     H19454   3.461   3.852   4.198 -0.7459 -0.8229  0.7145
  866MOL0     H19455   3.249   3.807   3.997 -0.4656  1.3644 -1.4000
  866MOL0     H19456   3.207   3.877   4.160  0.1974  2.1784 -0.5971
  866MOL0     H19457   3.450   3.926   3.874  1.3091  0.0913  1.2262
  866MOL0     H19458   3.611   4.128   3.788  2.8361  1.9190 -1.4173
  866MOL0     H19459   3.591   4.284   3.868  0.4734 -1.2465  0.7990
  866MOL0     H19460   3.435   4.161   3.627 -0.2682 -1.0544  0.7724
  866MOL0     H19461   3.384   4.310   3.711  1.1769 -0.8511  0.6946
  866MOL0     H19462   3.654   4.271   3.595 -0.2732 -1.1396  0.7299
  866MOL0     H19463   3.514   4.335   3.508 -0.9421 -0.1761  0.5577
  866MOL0     H19464   3.481   4.513   3.698  0.5076 -1.3117  0.8152
  866MOL0     H19465   3.646   4.482   3.747  2.1449  1.8397 -2.1947
  866MOL0     H19466   3.864   4.400   3.581  0.2603 -0.1734  3.0771
  866MOL0     H19467   4.196   4.460   3.534 -0.4272  0.4287 -1.0670
  866MOL0     H19468   4.137   4.380   3.394 -0.9799  0.5612 -0.7043
  866MOL0     H19469   4.078   4.326   3.540 -0.9255  0.3445  0.7738
  866MOL0     H19470   4.136   4.812   2.989  1.1994  0.9633 -4.2171
  866MOL0     H19471   4.307   4.927   2.876  0.1654  0.1771  0.2833
  866MOL0     H19472   4.487   5.254   3.080 -0.0184 -0.5030  1.7311
  866MOL0     H19473   4.615   5.156   3.158  2.1473 -0.8921 -0.9860
  866MOL0     H19474   4.749   5.156   2.945 -2.0027 -0.8194 -1.4473
  866MOL0     H19475   4.636   5.283   2.897  2.2817 -0.0807 -0.9384
  866MOL0     H19476   4.789   5.284   3.161  2.3965  0.5790 -0.8739
  866MOL0     H19477   4.706   5.420   3.089  2.9292  0.9181  2.0342
  866MOL0     H19478   4.890   5.438   2.921  0.9086  0.2251  1.2408
  866MOL0     H19479   4.943   5.275   2.962 -0.5514 -0.2605  0.3117
  866MOL0     H19480   4.998   5.363   3.194 -1.1595 -0.0284  0.2743
  866MOL0     H19481   5.086   5.449   3.075 -0.8736  0.8293  0.0346
  866MOL0     H19482   4.844   5.557   3.217  1.5095 -2.5532  0.8037
  866MOL0     H19483   4.907   5.634   3.071  0.5382 -0.1907 -1.0976
  866MOL0     H19484   5.103   5.698   3.184 -1.1297 -0.8256 -0.8885
  866MOL0     H19485   5.093   5.574   3.305 -0.6622  1.0366  2.2766
  866MOL0     H19486   4.902   5.810   3.280  2.3830  1.5058 -0.6146
  866MOL0     H19487   5.053   5.811   3.372  0.4402 -0.0849 -0.6184
  866MOL0     H19488   4.504   5.013   3.257  0.4035 -0.8554  0.3125
  866MOL0     H19489   4.315   4.894   3.372 -0.1607 -0.1162  0.0898
  866MOL0     H19490   3.906   4.830   3.340  4.2955 -0.3501  1.6060
  866MOL0     H19491   3.696   4.773   3.445  0.2619  1.6883 -2.4745
  866MOL0     H19492   3.498   3.287   4.988  0.7986 -0.3948  0.0156
  866MOL0     H19493   3.337   3.358   5.154  0.1199  1.0390  2.0455
  866MOL0     H19494   3.163   3.555   5.423 -0.3374  0.0586 -3.1038
  866MOL0     H19495   3.035   3.613   5.627 -0.4730  1.5539  0.4042
  866MOL0     H19496   2.825   3.621   5.695  0.0196 -0.3278  0.1223
  866MOL0     H19497   2.941   3.707   5.806 -0.6095  0.4739  0.7617
  866MOL0     H19498   2.731   3.834   5.880 -1.6111  0.1878 -1.1750
  866MOL0     H19499   2.730   3.670   5.931  0.2431  2.3565  2.1029
  866MOL0     H19500   2.519   3.793   5.793 -0.3945 -0.5081 -1.0305
  866MOL0     H19501   2.607   3.737   5.653 -0.5496  2.4959  0.0894
  866MOL0     H19502   2.522   3.568   5.887 -3.1380  1.7904 -0.8063
  866MOL0     H19503   2.594   3.504   5.728  0.7796  0.7152 -0.8078
  866MOL0     H19504   2.172   3.571   5.677 -0.1604  1.0542 -1.4504
  866MOL0     H19505   2.814   3.916   5.403  1.3139  1.9829  0.2514
  866MOL0     H19506   2.887   3.810   5.096  2.5663 -0.4638 -0.9059
  866MOL0     H19507   2.852   3.961   5.187  2.7908  2.5468 -0.4862
  866MOL0     H19508   3.015   3.922   5.125 -0.7032  0.3260 -0.4613
  867MOL0     O19509   6.024   9.703   6.850  0.8950  0.9200  0.7803
  867MOL0     C19510   5.947   9.616   6.885  0.1801  0.0981  0.1401
  867MOL0     O19511   5.990   9.503   6.953 -0.0111  0.2505  0.3676
  867MOL0     C19512   6.115   9.487   6.985  0.2480  0.1282  0.2554
  867MOL0     C19513   6.208   9.457   6.880  0.5648 -0.3258 -0.9443
  867MOL0     C19514   6.340   9.421   6.920  0.4579 -0.2854  0.2917
  867MOL0     C19515   6.379   9.420   7.051 -0.4221 -0.0555 -0.3501
  867MOL0     O19516   6.504   9.406   7.105 -0.1413  0.2992  1.0612
  867MOL0     C19517   6.587   9.313   7.026  0.2919 -0.7380  0.5947
  867MOL0     C19518   6.664   9.235   7.121 -0.3179  0.3398 -0.1567
  867MOL0     C19519   6.761   9.343   7.196  0.8385  0.2490  0.2818
  867MOL0     C19520   6.898   9.328   7.138  0.4233 -0.1473  0.5556
  867MOL0     C19521   6.989   9.224   7.215  1.2081  0.1354  0.6141
  867MOL0     C19522   7.130   9.224   7.156  0.2888  1.1315 -0.2280
  867MOL0     C19523   7.225   9.124   7.223 -0.1866 -0.0029  0.7650
  867MOL0     C19524   7.368   9.131   7.168 -0.5236 -0.0904  0.6236
  867MOL0     N19525   7.376   9.080   7.031  1.1299 -0.0812  0.8320
  867MOL0     C19526   7.491   9.096   6.955  0.0525  0.7669 -1.1928
  867MOL0     C19527   7.461   9.051   6.829  0.3231 -0.5797  0.1261
  867MOL0     C19528   7.555   9.044   6.712 -0.7942  0.0425  0.0026
  867MOL0     C19529   7.704   9.077   6.739 -0.2363  0.6358 -0.1426
  867MOL0     C19530   7.792   9.067   6.614 -0.0340  0.3531  0.0136
  867MOL0     C19531   7.941   9.021   6.640 -0.3277  1.2055 -0.9796
  867MOL0     O19532   8.014   9.022   6.523  0.7149  0.7025  0.2661
  867MOL0     C19533   8.142   8.990   6.539 -0.2368  0.5507 -0.4005
  867MOL0     C19534   8.222   8.969   6.423 -0.1145  0.1688 -0.4036
  867MOL0     C19535   8.352   8.910   6.435 -0.4349  0.4577 -0.7588
  867MOL0     C19536   8.427   8.893   6.303 -0.0770  0.4162  0.3250
  867MOL0     C19537   8.402   8.878   6.556 -0.3320  0.7231  0.0360
  867MOL0     C19538   8.528   8.800   6.588 -0.4820 -0.3987  0.9724
  867MOL0     O19539   8.586   8.818   6.714 -0.2007  0.2912  0.3851
  867MOL0     C19540   8.710   8.756   6.738  0.0526 -0.1104 -0.5026
  867MOL0     C19541   8.808   8.838   6.793  0.6929  0.5064 -0.1034
  867MOL0     C19542   8.929   8.782   6.829 -0.3407 -0.0910 -0.2173
  867MOL0     C19543   8.971   8.655   6.794 -1.3273 -0.2938 -0.1710
  867MOL0     O19544   9.096   8.610   6.837 -0.3737 -0.2349  0.2751
  867MOL0     C19545   9.166   8.503   6.770  0.0075 -0.2353  0.7993
  867MOL0     C19546   9.278   8.469   6.862 -0.6697  0.3653 -0.0156
  867MOL0     C19547   9.383   8.388   6.782 -0.4643  0.5620 -0.5019
  867MOL0     C19548   9.513   8.388   6.862  0.5161  0.0076  0.6105
  867MOL0     C19549   9.593   8.267   6.816  0.2634  0.2516 -0.1583
  867MOL0     C19550   9.724   8.246   6.894  0.2042 -0.0382  0.3593
  867MOL0     C19551   9.803   8.118   6.858  0.1214  0.1280 -0.9553
  867MOL0     C19552   9.948   8.133   6.920  0.4228  0.2901  0.6159
  867MOL0    Cl19553  10.033   8.263   6.822  0.0798 -0.0081  0.2134
  867MOL0     C19554   8.879   8.576   6.716 -0.0617  0.0833 -0.0406
  867MOL0     C19555   8.754   8.629   6.700  0.1399  0.2196 -0.3083
  867MOL0     O19556   8.572   8.726   6.508  0.3221 -0.1795  0.6176
  867MOL0     C19557   8.339   8.916   6.670  0.1931 -0.0426  0.1729
  867MOL0     C19558   8.205   8.964   6.660 -0.1713  0.5297  0.0933
  867MOL0     N19559   7.332   8.997   6.830  0.0639 -0.0695 -1.2454
  867MOL0     N19560   7.283   9.017   6.948  0.2858 -0.2583 -0.2691
  867MOL0     C19561   6.285   9.452   7.155 -0.5546  0.4296  1.0860
  867MOL0     C19562   6.159   9.480   7.120  0.6397  0.5493  0.1676
  867MOL0     C19563   5.800   9.642   6.858 -0.2597 -0.0384  0.8525
  867MOL0     C19564   5.721   9.533   6.828  0.9771  0.3906 -0.6910
  867MOL0     C19565   5.588   9.543   6.779 -0.1077  0.4937 -0.9303
  867MOL0     C19566   5.522   9.666   6.757 -0.1346 -0.7355  0.4176
  867MOL0     O19567   5.394   9.687   6.718  0.9910 -0.1138 -1.3056
  867MOL0     C19568   5.333   9.570   6.648  0.9566 -0.1220  0.5235
  867MOL0     C19569   5.227   9.621   6.545 -0.6288 -0.5207 -0.5578
  867MOL0     C19570   5.115   9.699   6.616  0.6506  0.3453 -0.4780
  867MOL0     C19571   5.018   9.767   6.515 -0.0911  0.0647 -0.2302
  867MOL0     C19572   4.913   9.844   6.587  0.8578 -0.3936 -0.0962
  867MOL0     C19573   4.819   9.908   6.643 -0.9126 -0.6229  0.5104
  867MOL0     C19574   5.602   9.779   6.786  0.6554 -0.1839 -0.6845
  867MOL0     C19575   5.738   9.773   6.828 -0.0867  0.2114  0.3520
  867MOL0     C19576   5.801   9.898   6.859  0.5570  0.5450  0.0624
  867MOL0     H19577   6.175   9.463   6.777 -3.3251 -0.9852  0.1035
  867MOL0     H19578   6.399   9.384   6.837 -0.6179  0.4040 -0.8177
  867MOL0     H19579   6.661   9.365   6.963  0.4421 -3.8820 -2.1113
  867MOL0     H19580   6.526   9.236   6.978  1.9110 -0.7155 -1.6859
  867MOL0     H19581   6.599   9.184   7.192 -0.5186  1.5599  0.5512
  867MOL0     H19582   6.731   9.168   7.064  0.4570  1.6050 -0.7830
  867MOL0     H19583   6.736   9.446   7.169 -0.3887 -0.4381 -1.4416
  867MOL0     H19584   6.763   9.322   7.303  3.2342  2.5272  0.7762
  867MOL0     H19585   6.890   9.285   7.038  0.5208 -2.0459  1.3391
  867MOL0     H19586   6.952   9.423   7.126 -0.0906 -0.0489 -1.4699
  867MOL0     H19587   6.949   9.126   7.189 -0.6733  1.4288 -1.7309
  867MOL0     H19588   6.996   9.254   7.320 -0.7728  0.9889  0.5451
  867MOL0     H19589   7.117   9.191   7.052 -1.5138  1.3519 -0.1112
  867MOL0     H19590   7.167   9.327   7.164  1.1301  0.7105  1.7663
  867MOL0     H19591   7.192   9.021   7.206  0.3168 -0.0566  0.0684
  867MOL0     H19592   7.231   9.151   7.329 -0.7824  0.6976  0.6323
  867MOL0     H19593   7.399   9.236   7.160 -0.0756 -0.1754  1.2124
  867MOL0     H19594   7.441   9.071   7.224  0.9840 -1.6040 -2.6894
  867MOL0     H19595   7.588   9.135   6.983 -0.6982  2.2114 -0.4512
  867MOL0     H19596   7.522   9.117   6.637  0.3611  2.0729  1.3517
  867MOL0     H19597   7.539   8.945   6.669 -1.0363  0.7426 -1.5939
  867MOL0     H19598   7.711   9.169   6.798  2.2017  0.3547  0.0812
  867MOL0     H19599   7.743   9.001   6.807  0.0971  2.2812  1.5682
  867MOL0     H19600   7.747   8.990   6.550 -3.2813  1.0414  1.3132
  867MOL0     H19601   7.803   9.165   6.566  0.2340  1.3079  1.9149
  867MOL0     H19602   7.983   9.094   6.709 -0.5785  0.7916 -0.3837
  867MOL0     H19603   7.944   8.926   6.694  0.0519  0.9066 -1.5119
  867MOL0     H19604   8.188   8.987   6.322  1.7948  1.5338 -0.8428
  867MOL0     H19605   8.535   8.910   6.309 -0.3025  4.5697 -2.9338
  867MOL0     H19606   8.388   8.962   6.228 -0.7349 -0.8069 -0.4780
  867MOL0     H19607   8.416   8.792   6.264  2.7511  0.8345 -1.8782
  867MOL0     H19608   8.775   8.938   6.818 -0.9562 -0.3387  1.4318
  867MOL0     H19609   9.000   8.845   6.883 -0.9304  0.3382  0.0687
  867MOL0     H19610   9.102   8.414   6.760  0.4978 -0.7613  2.0729
  867MOL0     H19611   9.197   8.531   6.669 -0.5666 -0.1409  0.6471
  867MOL0     H19612   9.320   8.559   6.907  2.9428  0.3623 -2.9424
  867MOL0     H19613   9.239   8.416   6.950 -0.8245  0.1139 -0.2312
  867MOL0     H19614   9.397   8.427   6.681 -0.7287 -2.2746 -1.7475
  867MOL0     H19615   9.346   8.286   6.763  1.7327 -0.1264 -1.3438
  867MOL0     H19616   9.505   8.378   6.971 -2.2815  0.0429  0.4664
  867MOL0     H19617   9.570   8.478   6.835 -3.4570  2.6181  0.1507
  867MOL0     H19618   9.532   8.178   6.833  1.1802 -0.6969 -1.6087
  867MOL0     H19619   9.624   8.259   6.712 -0.6220 -1.2166 -0.3224
  867MOL0     H19620   9.706   8.253   7.001 -1.8409 -1.3270  0.1496
  867MOL0     H19621   9.792   8.327   6.863  2.5772 -1.6085  1.1932
  867MOL0     H19622   9.803   8.111   6.749 -1.9831 -0.0500 -0.9684
  867MOL0     H19623   9.738   8.037   6.892 -0.7484 -0.5354 -3.8832
  867MOL0     H19624  10.002   8.039   6.904  0.4687 -0.2442  3.4029
  867MOL0     H19625   9.932   8.157   7.026 -2.2740  0.9822  0.1243
  867MOL0     H19626   8.897   8.475   6.681 -0.8886  0.0579 -0.3933
  867MOL0     H19627   8.678   8.567   6.653 -1.1148  1.4572  0.0548
  867MOL0     H19628   8.383   8.892   6.766 -0.6547 -3.0454 -0.1015
  867MOL0     H19629   8.161   8.961   6.759  1.8831  0.7975  1.0594
  867MOL0     H19630   6.324   9.460   7.257  1.1596  2.2392  0.3551
  867MOL0     H19631   6.087   9.507   7.197 -0.5963 -1.3761 -0.2291
  867MOL0     H19632   5.766   9.434   6.822 -0.5265 -0.2958 -1.1077
  867MOL0     H19633   5.535   9.452   6.754 -0.7199  1.2675 -2.6196
  867MOL0     H19634   5.406   9.514   6.587  1.0585  1.7270 -1.1594
  867MOL0     H19635   5.277   9.507   6.717  1.3915  0.6973  1.6430
  867MOL0     H19636   5.186   9.534   6.495 -2.2989 -1.1583  1.7566
  867MOL0     H19637   5.279   9.672   6.464  1.7632 -1.1741  0.4646
  867MOL0     H19638   5.063   9.624   6.676  0.0947  2.0030  1.2223
  867MOL0     H19639   5.153   9.772   6.688  0.7824  0.7230 -0.9187
  867MOL0     H19640   4.981   9.691   6.445  0.6479 -0.5757  0.0588
  867MOL0     H19641   5.083   9.831   6.454  0.7848 -0.8443 -0.2905
  867MOL0     H19642   4.737   9.960   6.690 -1.9156 -0.9538 -0.7951
  867MOL0     H19643   5.555   9.876   6.773  0.3235 -0.3138 -0.4612
  867MOL0     H19644   5.882   9.869   6.926  1.0637  1.0816 -0.3111
  867MOL0     H19645   5.843   9.951   6.773  3.7121 -0.1384  1.0477
  867MOL0     H19646   5.725   9.952   6.917 -0.1974 -0.6408  0.2189
  868MOL0     O19647   3.611   1.114   9.104  0.4222  0.2821 -0.3863
  868MOL0     C19648   3.538   1.055   9.021 -0.1740 -0.6255 -0.6472
  868MOL0     O19649   3.442   0.973   9.058  0.4523  0.2483  0.0841
  868MOL0     C19650   3.410   0.966   9.189 -0.1148 -0.3090  0.2942
  868MOL0     C19651   3.426   0.836   9.249  0.2669 -0.9450 -0.5684
  868MOL0     C19652   3.409   0.827   9.387  0.3418 -0.2584  0.3308
  868MOL0     C19653   3.371   0.941   9.460 -0.3797  0.1988  0.1950
  868MOL0     O19654   3.359   0.921   9.594 -0.4109 -1.0264 -0.3500
  868MOL0     C19655   3.433   1.013   9.674 -0.3858  0.0929  1.4662
  868MOL0     C19656   3.406   0.977   9.819 -0.6961  0.8112  0.0267
  868MOL0     C19657   3.465   0.834   9.846  0.2585 -0.2576 -0.3561
  868MOL0     C19658   3.609   0.847   9.888 -0.1751  0.2684 -1.5237
  868MOL0     C19659   3.673   0.703   9.903 -0.4472  0.4570 -0.0385
  868MOL0     C19660   3.826   0.695   9.903 -0.0075 -0.1482 -0.2384
  868MOL0     C19661   3.883   0.557   9.918 -0.1119  0.0352 -0.9103
  868MOL0     C19662   4.040   0.586   9.908  0.4335 -1.1223  0.4789
  868MOL0     N19663   4.107   0.454   9.881 -0.9125  0.0520 -0.0934
  868MOL0     C19664   4.115   0.347   9.968  0.3693 -0.0758 -0.1688
  868MOL0     C19665   4.177   0.252   9.903 -0.0647  0.5330 -0.7669
  868MOL0     C19666   4.208   0.113   9.956 -0.0872 -0.6962 -0.2832
  868MOL0     C19667   4.331   0.125  10.059  0.7186 -0.4742 -0.6371
  868MOL0     C19668   4.461   0.166   9.989 -0.3700  0.1403  0.3786
  868MOL0     C19669   4.583   0.195  10.086 -0.0568  0.8223  0.0606
  868MOL0     O19670   4.695   0.203   9.996 -0.4115 -0.8885  0.1003
  868MOL0     C19671   4.804   0.193  10.075  0.0823 -0.3897 -0.4462
  868MOL0     C19672   4.863   0.070  10.078 -0.5144  0.9992 -0.7979
  868MOL0     C19673   4.975   0.041  10.154 -0.2320  0.2772 -0.1027
  868MOL0     C19674   5.009  -0.110  10.166 -0.2046  0.3645 -0.3455
  868MOL0     C19675   5.014   0.148  10.231  0.6007  0.4791 -0.9783
  868MOL0     C19676   5.129   0.137  10.320  0.6458 -0.2222  0.2383
  868MOL0     O19677   5.226   0.236  10.323  0.9382 -0.6903 -0.1523
  868MOL0     C19678   5.324   0.244  10.422 -1.1555 -0.0210  0.0067
  868MOL0     C19679   5.458   0.278  10.402 -0.2149  0.0027 -0.6546
  868MOL0     C19680   5.554   0.295  10.505 -0.8257  0.1701  0.7254
  868MOL0     C19681   5.524   0.282  10.640  0.4945  0.0217  0.8493
  868MOL0     O19682   5.596   0.312  10.742 -0.4987 -0.2185 -0.1927
  868MOL0     C19683   5.690   0.199  10.755 -0.5928 -0.5413 -0.3252
  868MOL0     C19684   5.765   0.222  10.884  0.3225  0.9005 -0.8844
  868MOL0     C19685   5.686   0.164  11.000  0.3697  0.0649  0.2428
  868MOL0     C19686   5.681   0.009  11.012  1.3127  0.7686 -1.1416
  868MOL0     C19687   5.587  -0.036  11.136  0.0661  0.6253  1.1797
  868MOL0     C19688   5.582  -0.184  11.152  0.1978  0.3411  0.1972
  868MOL0     C19689   5.481  -0.233  11.259  0.7035 -0.2483 -0.4273
  868MOL0     C19690   5.450  -0.386  11.243 -0.3253  0.1652 -0.6077
  868MOL0    Cl19691   5.339  -0.400  11.094  0.2064 -0.1876 -0.5772
  868MOL0     C19692   5.392   0.239  10.664  0.6084 -0.2075  0.8856
  868MOL0     C19693   5.295   0.225  10.555 -0.1684  0.2474 -0.1891
  868MOL0     O19694   5.134   0.038  10.393  0.1255  0.0856  0.7785
  868MOL0     C19695   4.963   0.278  10.218 -0.5305 -0.0925 -0.3177
  868MOL0     C19696   4.857   0.302  10.140  0.4351 -0.1364  0.2403
  868MOL0     N19697   4.216   0.299   9.784 -0.1526 -0.6442 -0.0403
  868MOL0     N19698   4.182   0.424   9.768 -0.6295 -0.0533 -1.2122
  868MOL0     C19699   3.350   1.066   9.401  0.3166 -0.4665  0.3278
  868MOL0     C19700   3.361   1.076   9.267 -0.6242 -0.1537 -0.5681
  868MOL0     C19701   3.554   1.072   8.879  0.4778  0.5783  0.0608
  868MOL0     C19702   3.443   1.070   8.803  0.2102  0.4077 -0.0676
  868MOL0     C19703   3.446   1.099   8.666  0.2034  0.6640  0.0814
  868MOL0     C19704   3.557   1.123   8.589 -0.0498 -0.6411 -0.2700
  868MOL0     O19705   3.544   1.138   8.454 -0.2786  0.7367 -0.7775
  868MOL0     C19706   3.623   1.251   8.401 -0.0410 -0.2742 -0.0242
  868MOL0     C19707   3.603   1.251   8.243  0.5404 -0.3590  0.1534
  868MOL0     C19708   3.696   1.163   8.157 -0.2906  0.1057  0.0945
  868MOL0     C19709   3.647   1.015   8.172  0.3177  0.7537  0.1007
  868MOL0     C19710   3.523   0.987   8.105  0.4009 -0.5840 -0.0247
  868MOL0     C19711   3.424   0.965   8.041 -0.4024 -0.1546  0.0442
  868MOL0     C19712   3.673   1.140   8.670 -0.0426  1.5194  0.0357
  868MOL0     C19713   3.674   1.106   8.808  0.1358 -0.7398 -0.3464
  868MOL0     C19714   3.806   1.110   8.879 -0.0554  0.0362 -0.6195
  868MOL0     H19715   3.461   0.748   9.195  1.6469  0.0840 -1.4159
  868MOL0     H19716   3.432   0.734   9.439  3.3366  1.7496  2.9433
  868MOL0     H19717   3.414   1.121   9.677  0.1608  0.1804  1.9640
  868MOL0     H19718   3.540   1.015   9.652 -0.8913  2.2360 -1.4672
  868MOL0     H19719   3.462   1.054   9.873  1.3862  0.4935 -1.5695
  868MOL0     H19720   3.299   0.984   9.843 -0.4846  1.0170  0.9674
  868MOL0     H19721   3.401   0.794   9.925  1.3803  0.1328  0.7979
  868MOL0     H19722   3.465   0.762   9.764 -2.2200 -1.3610  0.5009
  868MOL0     H19723   3.678   0.905   9.826  0.5935  0.5755 -0.4226
  868MOL0     H19724   3.624   0.910   9.977  1.8079  0.3899 -1.9012
  868MOL0     H19725   3.653   0.649   9.810  2.5043  1.1462 -1.1592
  868MOL0     H19726   3.622   0.652   9.985 -0.7407  1.9657  0.7567
  868MOL0     H19727   3.864   0.748   9.816  0.5241  2.0078  1.2172
  868MOL0     H19728   3.866   0.758   9.984 -1.2294  0.3775 -0.0173
  868MOL0     H19729   3.845   0.486   9.844 -0.4909 -0.5973 -0.1113
  868MOL0     H19730   3.872   0.508  10.015  0.9047 -1.3115 -1.4435
  868MOL0     H19731   4.060   0.663   9.833  0.2270 -0.8066  0.7502
  868MOL0     H19732   4.075   0.630  10.001  0.8603  1.0794 -0.6573
  868MOL0     H19733   4.067   0.335  10.065 -1.0082  0.1796 -0.7964
  868MOL0     H19734   4.230   0.043   9.875 -0.6694 -2.8026  1.2911
  868MOL0     H19735   4.114   0.093  10.009  0.3952  0.2572  0.9921
  868MOL0     H19736   4.313   0.208  10.128  1.8968  1.9933 -3.1353
  868MOL0     H19737   4.339   0.032  10.116  3.5368 -0.3798 -0.7128
  868MOL0     H19738   4.494   0.082   9.926 -0.8738 -0.2333  0.6029
  868MOL0     H19739   4.449   0.253   9.924  0.8275 -0.5135 -0.7829
  868MOL0     H19740   4.563   0.293  10.131 -0.7163  0.1870  1.2000
  868MOL0     H19741   4.575   0.113  10.158  3.2233 -3.0306 -3.4513
  868MOL0     H19742   4.800  -0.006  10.034 -0.1061  1.6171 -2.5350
  868MOL0     H19743   4.972  -0.153  10.072 -0.1096  3.7941 -2.1017
  868MOL0     H19744   4.970  -0.151  10.259  2.4365  4.4065  2.8766
  868MOL0     H19745   5.118  -0.122  10.172 -0.2738  0.1922  0.6932
  868MOL0     H19746   5.480   0.306  10.300  0.1262  1.1719 -0.2786
  868MOL0     H19747   5.647   0.337  10.468 -0.6009  1.1143  2.2926
  868MOL0     H19748   5.644   0.100  10.748  0.7438 -1.4374  2.1946
  868MOL0     H19749   5.770   0.215  10.682 -1.2579 -1.1052 -1.2110
  868MOL0     H19750   5.860   0.168  10.882 -1.2285 -2.2998  1.7157
  868MOL0     H19751   5.794   0.327  10.894 -1.3174  1.3187 -0.0955
  868MOL0     H19752   5.587   0.208  10.987  1.4355  2.0620 -1.7734
  868MOL0     H19753   5.728   0.207  11.091  0.8432  0.5694 -0.2106
  868MOL0     H19754   5.782  -0.032  11.018  0.9039 -0.0595  0.6724
  868MOL0     H19755   5.628  -0.029  10.925 -0.7278  0.0580  0.3344
  868MOL0     H19756   5.639   0.005  11.223  2.0692  2.5833 -0.8161
  868MOL0     H19757   5.490   0.011  11.117  0.0003 -0.4620 -1.5589
  868MOL0     H19758   5.685  -0.216  11.168 -0.2770 -0.4054  1.9418
  868MOL0     H19759   5.549  -0.224  11.055 -1.0694 -0.8109  1.0597
  868MOL0     H19760   5.388  -0.175  11.258  0.4666 -0.6098  0.1003
  868MOL0     H19761   5.533  -0.211  11.353 -0.8957 -0.7340  0.6160
  868MOL0     H19762   5.401  -0.415  11.336  0.0382  3.2055  0.6286
  868MOL0     H19763   5.545  -0.439  11.229 -0.6117 -0.6149  0.3025
  868MOL0     H19764   5.352   0.231  10.765 -0.8798  1.1545  0.4593
  868MOL0     H19765   5.194   0.209  10.592  0.5280  0.6614  2.0319
  868MOL0     H19766   5.000   0.364  10.273  1.1483 -0.9317 -0.0579
  868MOL0     H19767   4.804   0.396  10.125 -2.9492 -2.0135 -0.8317
  868MOL0     H19768   3.309   1.146   9.462 -2.1352  0.4561 -2.2994
  868MOL0     H19769   3.345   1.166   9.209 -0.8529  1.0550  1.2960
  868MOL0     H19770   3.347   1.048   8.851 -0.6577  0.2928 -1.7919
  868MOL0     H19771   3.358   1.096   8.602  1.9635  1.3728 -2.5575
  868MOL0     H19772   3.583   1.347   8.435 -1.8804 -1.7235  2.2210
  868MOL0     H19773   3.730   1.242   8.422 -0.4411  0.0984  2.4656
  868MOL0     H19774   3.601   1.348   8.192 -0.4816 -0.5803 -0.2548
  868MOL0     H19775   3.503   1.216   8.217  0.6455 -1.2114  0.8583
  868MOL0     H19776   3.690   1.190   8.052 -2.2695 -0.4194  0.0301
  868MOL0     H19777   3.800   1.180   8.187  0.1897 -0.0435 -1.4175
  868MOL0     H19778   3.634   0.993   8.279  0.2886  1.0311  0.1559
  868MOL0     H19779   3.724   0.946   8.137 -0.0925  0.0612  0.5495
  868MOL0     H19780   3.329   0.950   7.993 -0.3158  2.8141 -1.2235
  868MOL0     H19781   3.768   1.157   8.621  1.6929 -2.2391  1.7584
  868MOL0     H19782   3.891   1.147   8.822 -0.1152  1.3557  0.1229
  868MOL0     H19783   3.791   1.177   8.964 -0.6587  0.0885 -0.7675
  868MOL0     H19784   3.829   1.013   8.924 -0.6643  0.0231 -0.3249
  869MOL0     O19785   4.371   7.809   8.549  0.0004 -0.2612  0.5939
  869MOL0     C19786   4.347   7.710   8.618 -0.1307  0.0969  0.3355
  869MOL0     O19787   4.437   7.640   8.693 -0.0326  0.1310 -0.0421
  869MOL0     C19788   4.563   7.689   8.710  0.2882  0.5698  0.1959
  869MOL0     C19789   4.608   7.820   8.736 -0.5549 -0.2951  1.1304
  869MOL0     C19790   4.737   7.852   8.760 -0.2425  0.8554 -0.6873
  869MOL0     C19791   4.830   7.747   8.775 -0.0540  0.3115  0.8582
  869MOL0     O19792   4.956   7.754   8.818 -0.2189 -0.0408  0.1445
  869MOL0     C19793   5.033   7.873   8.803  0.0209  0.2372 -0.4800
  869MOL0     C19794   5.125   7.870   8.680 -0.3292  0.4557 -0.3686
  869MOL0     C19795   5.055   7.930   8.559  0.0838  0.4207  0.0947
  869MOL0     C19796   5.070   8.086   8.561  1.1096  0.3807  0.3170
  869MOL0     C19797   5.017   8.137   8.429 -0.3547  0.3270 -0.4348
  869MOL0     C19798   4.866   8.123   8.418 -0.1304 -0.4893 -1.2328
  869MOL0     C19799   4.788   8.196   8.523  0.4225 -1.0432 -0.1810
  869MOL0     C19800   4.638   8.154   8.541  0.2628  0.0515  0.0201
  869MOL0     N19801   4.573   8.211   8.659  0.8831 -0.0639 -0.0944
  869MOL0     C19802   4.483   8.324   8.653 -0.2370  0.2950  0.3107
  869MOL0     C19803   4.439   8.341   8.781 -1.0890  0.0794 -0.1360
  869MOL0     C19804   4.340   8.446   8.823  0.2603  0.2924 -0.3102
  869MOL0     C19805   4.414   8.577   8.843  0.2785  0.5871  0.3040
  869MOL0     C19806   4.329   8.693   8.898 -0.3681 -0.1271 -0.4281
  869MOL0     C19807   4.389   8.785   8.997 -0.1050 -1.1074  0.0249
  869MOL0     O19808   4.361   8.753   9.131  0.1054  0.3950  0.0759
  869MOL0     C19809   4.441   8.822   9.213  0.1074 -0.0261 -0.0719
  869MOL0     C19810   4.458   8.769   9.338 -0.6289  0.0195  0.8576
  869MOL0     C19811   4.525   8.831   9.441  0.7063  0.3612  0.0655
  869MOL0     C19812   4.526   8.767   9.571 -0.1407  0.1579 -0.0002
  869MOL0     C19813   4.595   8.949   9.419 -0.2957  0.4239  0.0666
  869MOL0     C19814   4.669   9.019   9.530  0.4422 -0.7797  0.1284
  869MOL0     O19815   4.597   9.056   9.641  0.0416 -0.2290 -0.5153
  869MOL0     C19816   4.617   9.166   9.724 -0.0119 -0.3910 -0.8256
  869MOL0     C19817   4.573   9.171   9.859 -0.3421 -0.7638 -0.1396
  869MOL0     C19818   4.597   9.286   9.941 -0.5808 -0.3940 -0.0380
  869MOL0     C19819   4.687   9.385   9.893  0.0214  0.2190 -1.1421
  869MOL0     O19820   4.729   9.473   9.987 -0.0804  0.3765 -0.5849
  869MOL0     C19821   4.824   9.584   9.962 -0.7611 -0.2045 -0.4934
  869MOL0     C19822   4.752   9.717   9.912 -1.3312 -0.4811 -0.3561
  869MOL0     C19823   4.702   9.796  10.042 -0.3159  0.4897  0.9450
  869MOL0     C19824   4.611   9.913   9.997  0.5026  0.5513 -0.3340
  869MOL0     C19825   4.485   9.875   9.930 -0.3393 -0.6220 -0.3536
  869MOL0     C19826   4.389   9.999   9.925 -0.0282  0.3515  0.0268
  869MOL0     C19827   4.259   9.941   9.874 -0.1475 -0.2964  1.0547
  869MOL0     C19828   4.162  10.053   9.821  0.6996  0.1176  0.7631
  869MOL0    Cl19829   4.113  10.168   9.953  0.6136  0.2106 -0.2688
  869MOL0     C19830   4.720   9.382   9.760 -0.4302 -0.5935 -0.4732
  869MOL0     C19831   4.688   9.277   9.676  0.1359  0.3077  0.0429
  869MOL0     O19832   4.776   9.059   9.487 -0.1481  0.3374 -0.1014
  869MOL0     C19833   4.579   9.012   9.291  0.2250  0.1522 -0.7041
  869MOL0     C19834   4.513   8.945   9.188  0.2433  0.1126 -0.0522
  869MOL0     N19835   4.501   8.238   8.860  0.4150  0.3318 -0.0415
  869MOL0     N19836   4.582   8.166   8.789  0.1543 -0.3664  0.0211
  869MOL0     C19837   4.788   7.617   8.742  0.0688  0.1372  1.2798
  869MOL0     C19838   4.656   7.584   8.718  0.5336  0.4816 -0.1203
  869MOL0     C19839   4.209   7.647   8.587 -0.4212  0.2603 -0.9375
  869MOL0     C19840   4.096   7.733   8.590  0.3050  0.1076  0.7401
  869MOL0     C19841   3.964   7.679   8.566 -0.7630  0.3185  0.6877
  869MOL0     C19842   3.948   7.543   8.541 -0.1937 -0.7871  0.3777
  869MOL0     O19843   3.828   7.487   8.539  0.1733 -0.0851  0.7373
  869MOL0     C19844   3.723   7.535   8.625 -0.1104 -0.0141 -0.2988
  869MOL0     C19845   3.611   7.425   8.623 -0.2256  0.2478 -0.1627
  869MOL0     C19846   3.671   7.290   8.666 -0.7660  0.1721  0.2676
  869MOL0     C19847   3.575   7.184   8.710 -0.7009 -0.2653  0.3800
  869MOL0     C19848   3.497   7.124   8.590 -0.7866 -0.4802  0.0074
  869MOL0     C19849   3.445   7.069   8.493 -0.3867 -0.5467 -0.9774
  869MOL0     C19850   4.057   7.465   8.518 -0.1973 -0.2982 -0.2354
  869MOL0     C19851   4.194   7.517   8.534 -0.7716 -0.0981  0.4194
  869MOL0     C19852   4.294   7.427   8.483  0.3582  0.7723  0.0695
  869MOL0     H19853   4.540   7.904   8.733  0.5258  0.6997 -3.3292
  869MOL0     H19854   4.759   7.957   8.778 -0.7827  1.4864 -3.2629
  869MOL0     H19855   5.092   7.898   8.891 -0.9502  3.1449 -0.5378
  869MOL0     H19856   4.972   7.964   8.799  0.0191  0.2054 -1.6366
  869MOL0     H19857   5.216   7.928   8.699 -0.4867  2.0881 -3.8580
  869MOL0     H19858   5.152   7.767   8.656  2.3831  1.3224 -1.4159
  869MOL0     H19859   5.097   7.895   8.464 -0.1324  2.8818 -0.9807
  869MOL0     H19860   4.951   7.896   8.560 -0.1362  1.0706  0.8914
  869MOL0     H19861   5.019   8.118   8.652 -1.6270  0.4373 -1.1481
  869MOL0     H19862   5.178   8.100   8.570  1.7015 -2.5937 -1.0116
  869MOL0     H19863   5.062   8.083   8.345 -1.7737  0.4036 -1.2726
  869MOL0     H19864   5.034   8.245   8.419  0.3374  0.3770  1.0369
  869MOL0     H19865   4.837   8.174   8.325 -1.5057 -0.2133 -0.6838
  869MOL0     H19866   4.838   8.017   8.413  0.7474 -0.7431 -0.8478
  869MOL0     H19867   4.797   8.304   8.517  0.4216 -1.0372 -0.0770
  869MOL0     H19868   4.832   8.176   8.621  0.2809 -1.0807 -0.1242
  869MOL0     H19869   4.581   8.183   8.453 -2.1301 -2.3304  0.6526
  869MOL0     H19870   4.629   8.045   8.540  1.6106 -0.1511  1.9896
  869MOL0     H19871   4.459   8.377   8.562  1.3140  3.0584  1.4120
  869MOL0     H19872   4.281   8.404   8.906 -2.5474 -2.1413 -3.2391
  869MOL0     H19873   4.261   8.469   8.751 -0.1160  1.2501  0.3820
  869MOL0     H19874   4.493   8.559   8.915  1.0622  1.8441 -0.2095
  869MOL0     H19875   4.446   8.609   8.743 -3.8450 -1.6731 -2.0575
  869MOL0     H19876   4.300   8.750   8.809 -0.0812  2.7359  1.1972
  869MOL0     H19877   4.235   8.657   8.940 -0.5935  1.9394  0.9657
  869MOL0     H19878   4.497   8.787   8.979 -0.1470 -1.2379 -0.2308
  869MOL0     H19879   4.342   8.881   8.974  1.0144 -0.5024  0.1787
  869MOL0     H19880   4.419   8.670   9.360  1.3341 -0.8707  0.6253
  869MOL0     H19881   4.509   8.844   9.647  0.5919  1.2424 -0.9083
  869MOL0     H19882   4.631   8.741   9.587  0.4819  1.4002 -1.7954
  869MOL0     H19883   4.463   8.678   9.584 -0.5151  0.2495 -1.0661
  869MOL0     H19884   4.515   9.093   9.908 -0.5227 -0.9649 -0.6663
  869MOL0     H19885   4.550   9.307  10.036  1.2218 -0.6375  0.9423
  869MOL0     H19886   4.883   9.617  10.048 -0.8741 -0.5086 -0.2990
  869MOL0     H19887   4.892   9.534   9.893  0.5271 -2.8094  2.4353
  869MOL0     H19888   4.825   9.778   9.858  0.3133 -0.9167  1.2760
  869MOL0     H19889   4.670   9.690   9.845 -1.6499  1.1811 -0.6660
  869MOL0     H19890   4.792   9.840  10.085  0.6888  1.1355 -1.5818
  869MOL0     H19891   4.654   9.718  10.101  0.9092 -1.4745 -0.5251
  869MOL0     H19892   4.668   9.980   9.932 -1.6493 -0.3434 -3.3573
  869MOL0     H19893   4.585   9.975  10.083 -1.1879  0.0533 -0.4672
  869MOL0     H19894   4.499   9.842   9.827  2.1878  3.0056 -1.3861
  869MOL0     H19895   4.437   9.790   9.979 -2.6664 -0.1133 -1.6083
  869MOL0     H19896   4.417  10.073   9.850 -2.1956  4.1938  2.6488
  869MOL0     H19897   4.382  10.045  10.024  1.2626 -0.3752  0.4773
  869MOL0     H19898   4.213   9.881   9.952 -0.5025 -1.1667  0.1982
  869MOL0     H19899   4.276   9.875   9.788  1.1809  1.5116 -0.1430
  869MOL0     H19900   4.074   9.995   9.790  0.5640  0.0681  1.2403
  869MOL0     H19901   4.202  10.103   9.732  1.1018 -1.6564 -0.1242
  869MOL0     H19902   4.774   9.456   9.701 -2.1570  1.2511  0.1470
  869MOL0     H19903   4.730   9.287   9.576 -0.3566  2.0073 -0.0286
  869MOL0     H19904   4.606   9.114   9.269  0.8889  0.0957 -0.1908
  869MOL0     H19905   4.515   8.988   9.089  1.9162 -1.0280 -0.5524
  869MOL0     H19906   4.865   7.540   8.736 -0.4811 -0.3085 -0.9005
  869MOL0     H19907   4.635   7.479   8.700  0.7577 -0.0445  2.3757
  869MOL0     H19908   4.100   7.842   8.597  3.1500  0.0473  1.2946
  869MOL0     H19909   3.883   7.750   8.577 -1.4751  0.0671 -2.1797
  869MOL0     H19910   3.758   7.547   8.728  0.3683  1.2739 -0.5937
  869MOL0     H19911   3.698   7.636   8.593  2.6371  1.2286  1.0776
  869MOL0     H19912   3.567   7.425   8.523 -0.8615  2.8448  0.0474
  869MOL0     H19913   3.531   7.459   8.689  1.3365  0.7685  1.5676
  869MOL0     H19914   3.728   7.244   8.585 -0.0620  3.1284 -1.0343
  869MOL0     H19915   3.741   7.315   8.746  0.9274  2.8375 -1.8743
  869MOL0     H19916   3.508   7.228   8.785  1.6438 -1.4921  3.3969
  869MOL0     H19917   3.628   7.100   8.755 -2.5250 -1.8258 -0.2013
  869MOL0     H19918   3.391   7.007   8.424 -2.8713  0.1934  0.1782
  869MOL0     H19919   4.048   7.360   8.494 -1.9659  0.0198 -1.1915
  869MOL0     H19920   4.284   7.423   8.374  1.2319 -1.9290  0.0104
  869MOL0     H19921   4.392   7.451   8.524  0.3829 -0.9167  1.1060
  869MOL0     H19922   4.271   7.326   8.519  0.8102  0.8167  0.4952
  870MOL0     O19923   2.095   5.200  10.122  0.0335 -0.4457  0.3436
  870MOL0     C19924   2.137   5.233  10.231 -0.4266 -0.4581  0.1892
  870MOL0     O19925   2.275   5.251  10.264 -0.1554 -0.0726  0.5318
  870MOL0     C19926   2.380   5.239  10.177  0.6715 -0.6432 -1.0603
  870MOL0     C19927   2.371   5.247  10.036  0.2081 -0.3333 -0.3994
  870MOL0     C19928   2.486   5.235   9.957 -0.3578  0.2275  0.5153
  870MOL0     C19929   2.611   5.218  10.018  0.1082 -0.5551  0.7963
  870MOL0     O19930   2.714   5.180   9.937 -0.5638 -0.6449 -0.3733
  870MOL0     C19931   2.726   5.249   9.809 -0.6443  0.8360 -0.7159
  870MOL0     C19932   2.876   5.286   9.790 -0.4723  0.2340 -0.4913
  870MOL0     C19933   2.917   5.306   9.641  0.2665 -0.3853 -0.3190
  870MOL0     C19934   3.049   5.387   9.629 -0.4613  0.9794  0.2113
  870MOL0     C19935   3.103   5.380   9.488  0.2492  0.2092 -0.9027
  870MOL0     C19936   3.242   5.444   9.491 -0.4417  0.6947  0.3222
  870MOL0     C19937   3.335   5.412   9.371 -0.2917 -0.6647  0.5982
  870MOL0     C19938   3.294   5.472   9.229  0.2744  0.0547 -0.2761
  870MOL0     N19939   3.357   5.608   9.226 -0.5941 -0.4320 -0.1264
  870MOL0     C19940   3.485   5.641   9.192 -1.2909  0.1765  0.1087
  870MOL0     C19941   3.506   5.768   9.236 -0.2501 -0.1638 -0.0315
  870MOL0     C19942   3.630   5.849   9.236  0.4126 -1.2020 -1.2220
  870MOL0     C19943   3.765   5.760   9.237  0.0457 -0.5102  0.3283
  870MOL0     C19944   3.886   5.840   9.197 -0.0299  0.4610  0.1938
  870MOL0     C19945   4.007   5.753   9.220 -0.2961 -0.4147 -0.2831
  870MOL0     O19946   4.121   5.829   9.200 -0.3407 -0.1790 -0.1952
  870MOL0     C19947   4.249   5.771   9.191 -0.1237  0.1611 -0.3718
  870MOL0     C19948   4.369   5.841   9.190 -0.1332  0.4985 -0.1812
  870MOL0     C19949   4.497   5.780   9.188  0.0565 -0.3259  0.3357
  870MOL0     C19950   4.602   5.882   9.222  0.2491 -0.1118  0.8613
  870MOL0     C19951   4.512   5.638   9.176 -1.0989  1.1972 -0.8291
  870MOL0     C19952   4.636   5.560   9.182 -0.2905  1.4881 -0.1940
  870MOL0     O19953   4.615   5.429   9.206  0.1166  0.2332 -0.0997
  870MOL0     C19954   4.723   5.340   9.205 -0.3919  0.0624 -0.5754
  870MOL0     C19955   4.787   5.311   9.325 -1.1070 -0.3249 -0.5647
  870MOL0     C19956   4.896   5.228   9.323 -0.0559  0.4142 -0.0294
  870MOL0     C19957   4.947   5.191   9.195  0.6844  0.2761  0.6453
  870MOL0     O19958   5.058   5.114   9.203  0.0348  0.2876  0.2059
  870MOL0     C19959   5.120   5.085   9.084 -0.3338  0.2635  0.4183
  870MOL0     C19960   5.261   5.035   9.105 -0.8998  0.3311 -0.8604
  870MOL0     C19961   5.326   5.006   8.967  0.2468  0.3603 -0.3592
  870MOL0     C19962   5.479   4.989   8.995  0.0719 -0.3159 -0.2513
  870MOL0     C19963   5.554   4.968   8.874  0.9453 -0.1594  0.0434
  870MOL0     C19964   5.706   4.948   8.893  0.5486 -0.1141 -0.2598
  870MOL0     C19965   5.796   4.933   8.764  0.2654  0.4910 -0.3770
  870MOL0     C19966   5.939   4.891   8.792 -0.2928  0.2983 -0.7915
  870MOL0    Cl19967   5.935   4.715   8.863 -0.2854  0.3462  0.5910
  870MOL0     C19968   4.878   5.225   9.079  0.1342  0.4239  0.4374
  870MOL0     C19969   4.768   5.292   9.085  0.0302  0.8489  0.5241
  870MOL0     O19970   4.746   5.608   9.167 -0.1781 -0.4646 -0.0787
  870MOL0     C19971   4.387   5.571   9.171 -1.0914 -0.7205 -0.9470
  870MOL0     C19972   4.269   5.634   9.183  0.4124  0.5160 -0.0389
  870MOL0     N19973   3.388   5.824   9.273  1.0864 -0.0228  0.3805
  870MOL0     N19974   3.303   5.727   9.277  0.4238 -0.8790 -0.3919
  870MOL0     C19975   2.624   5.216  10.155  0.6304  1.2384  0.1378
  870MOL0     C19976   2.507   5.234  10.238 -0.0668 -0.5357 -0.0566
  870MOL0     C19977   2.037   5.260  10.343 -0.4912 -1.1202  0.2266
  870MOL0     C19978   2.068   5.376  10.434  0.9124  0.8071 -0.1690
  870MOL0     C19979   1.978   5.432  10.515 -0.4002 -0.3442 -0.1027
  870MOL0     C19980   1.854   5.374  10.533 -1.2217 -0.2997  0.5235
  870MOL0     O19981   1.761   5.433  10.610 -0.1053 -0.1246 -1.1702
  870MOL0     C19982   1.772   5.564  10.662 -0.3262 -0.3290 -0.5275
  870MOL0     C19983   1.645   5.622  10.730  0.0046  1.2768 -0.4650
  870MOL0     C19984   1.519   5.624  10.634 -0.8980  0.9101 -0.3615
  870MOL0     C19985   1.417   5.732  10.684 -0.2334 -0.0949 -0.3151
  870MOL0     C19986   1.468   5.867  10.662  0.0876 -0.4596 -0.3249
  870MOL0     C19987   1.515   5.980  10.634 -0.6215  0.7003  0.0650
  870MOL0     C19988   1.816   5.264  10.449  0.0749 -1.1469 -0.2020
  870MOL0     C19989   1.904   5.206  10.356  0.5404  0.1678 -0.1676
  870MOL0     C19990   1.860   5.088  10.277  0.0584 -0.0727  0.5090
  870MOL0     H19991   2.282   5.258   9.975 -0.4120 -3.3712 -0.2039
  870MOL0     H19992   2.466   5.226   9.851 -4.0498 -2.6874  1.2370
  870MOL0     H19993   2.673   5.342   9.786 -0.5294  0.8454 -0.9577
  870MOL0     H19994   2.698   5.172   9.736  3.9123 -1.6402 -0.2153
  870MOL0     H19995   2.904   5.371   9.853  1.4408 -1.9426  1.7716
  870MOL0     H19996   2.940   5.207   9.830  0.4076  1.6520  1.0728
  870MOL0     H19997   2.918   5.212   9.585  0.8326 -1.0913  0.8231
  870MOL0     H19998   2.844   5.367   9.587  1.7920  1.2842 -0.5922
  870MOL0     H19999   3.039   5.489   9.666  0.5537  1.5472 -1.0208
  870MOL0     H20000   3.123   5.330   9.687 -2.2303 -0.8613  0.7650
  870MOL0     H20001   3.046   5.434   9.412 -0.7321  2.1437  1.0884
  870MOL0     H20002   3.112   5.276   9.456  2.3803  0.5751 -1.6806
  870MOL0     H20003   3.216   5.550   9.498 -0.5292  0.6555  0.6048
  870MOL0     H20004   3.304   5.421   9.578  0.2956 -2.1628 -0.8432
  870MOL0     H20005   3.326   5.304   9.358 -0.9484 -0.4900 -0.5553
  870MOL0     H20006   3.439   5.435   9.393  0.7181 -3.6239 -0.5520
  870MOL0     H20007   3.360   5.415   9.163  1.5207 -0.2699  1.1868
  870MOL0     H20008   3.186   5.467   9.214 -0.0578 -1.2807  1.9990
  870MOL0     H20009   3.570   5.590   9.147 -0.2813  1.9614 -0.1296
  870MOL0     H20010   3.631   5.909   9.327  0.3404  0.4133 -2.2503
  870MOL0     H20011   3.623   5.920   9.153  0.7318  2.6678  1.7926
  870MOL0     H20012   3.773   5.736   9.344  0.0065  1.0285  0.7041
  870MOL0     H20013   3.761   5.670   9.176  0.0069 -0.1822 -0.1555
  870MOL0     H20014   3.868   5.854   9.090 -0.0493 -2.3110 -0.2607
  870MOL0     H20015   3.883   5.938   9.246 -1.2729  0.5529 -0.0465
  870MOL0     H20016   4.009   5.720   9.324  2.9666 -0.7377 -0.3419
  870MOL0     H20017   3.999   5.664   9.157  1.9387  0.3881 -1.7913
  870MOL0     H20018   4.366   5.950   9.194  2.5760  0.6104  0.7049
  870MOL0     H20019   4.702   5.838   9.226  1.5003  2.4358 -0.0360
  870MOL0     H20020   4.583   5.935   9.316 -0.5250 -1.2154  1.3366
  870MOL0     H20021   4.611   5.957   9.143 -2.7815 -1.7602 -1.2463
  870MOL0     H20022   4.755   5.345   9.423 -0.4894 -1.4719  0.0505
  870MOL0     H20023   4.947   5.183   9.408 -0.1373 -0.9540 -0.6728
  870MOL0     H20024   5.071   4.998   9.040  0.8388 -0.8608  1.2534
  870MOL0     H20025   5.120   5.171   9.016 -1.6592  1.6027  2.0227
  870MOL0     H20026   5.319   5.109   9.160  1.2702 -0.5295 -1.8790
  870MOL0     H20027   5.254   4.934   9.146 -1.4114 -0.5308 -2.9151
  870MOL0     H20028   5.311   5.086   8.895  1.8782  2.4943  1.5259
  870MOL0     H20029   5.278   4.917   8.925 -3.6263  0.6620  2.8827
  870MOL0     H20030   5.492   4.910   9.070  0.5951 -0.3837 -0.4064
  870MOL0     H20031   5.517   5.079   9.045  3.0898 -0.1660 -2.5012
  870MOL0     H20032   5.503   4.880   8.831 -2.3177  1.5666  0.0773
  870MOL0     H20033   5.534   5.056   8.812 -4.0372 -0.8853  0.2134
  870MOL0     H20034   5.730   4.859   8.951  1.3573  0.7057  0.6935
  870MOL0     H20035   5.747   5.025   8.959  0.5489 -2.2185  2.3389
  870MOL0     H20036   5.794   5.028   8.709  0.0366  0.3503 -0.6103
  870MOL0     H20037   5.758   4.850   8.703 -0.4830  1.1379 -0.8131
  870MOL0     H20038   6.000   4.966   8.843 -1.4062  1.7285 -1.4963
  870MOL0     H20039   5.982   4.885   8.691  0.8720  1.9256 -0.4291
  870MOL0     H20040   4.914   5.202   8.979  0.4617  0.8974  0.4431
  870MOL0     H20041   4.721   5.319   8.991 -1.4127 -1.1925  0.5882
  870MOL0     H20042   4.374   5.464   9.154  1.9324 -1.4773  0.7875
  870MOL0     H20043   4.187   5.565   9.171  0.1527  0.4782  1.6956
  870MOL0     H20044   2.719   5.210  10.208 -0.3168 -0.5777  1.7773
  870MOL0     H20045   2.522   5.238  10.345 -1.3112  0.3561  0.1101
  870MOL0     H20046   2.168   5.418  10.436  1.5964 -0.7529 -0.0121
  870MOL0     H20047   2.018   5.522  10.561 -2.0400  1.5553 -2.1464
  870MOL0     H20048   1.846   5.563  10.743 -0.9608 -2.2274  0.0763
  870MOL0     H20049   1.803   5.636  10.586 -0.1496 -1.8725 -1.9788
  870MOL0     H20050   1.663   5.727  10.753  0.5875  0.9975  0.4657
  870MOL0     H20051   1.611   5.568  10.819 -2.7765 -0.7660 -2.5674
  870MOL0     H20052   1.543   5.637  10.528 -0.4654  0.5367 -0.3131
  870MOL0     H20053   1.469   5.527  10.648  0.4453  0.4114  1.4121
  870MOL0     H20054   1.381   5.719  10.787  0.1232 -0.2630 -0.2107
  870MOL0     H20055   1.329   5.724  10.620 -0.8922  0.5149  0.4853
  870MOL0     H20056   1.571   6.067  10.605  3.2969 -2.4484 -2.9702
  870MOL0     H20057   1.712   5.234  10.449 -0.1182 -0.4926 -0.1253
  870MOL0     H20058   1.922   4.998  10.282  0.0031 -0.1384  0.0276
  870MOL0     H20059   1.757   5.061  10.302 -0.2577 -0.7925 -1.4431
  870MOL0     H20060   1.851   5.103  10.169 -0.6032  2.6208  0.8766
  871MOL0     O20061   3.014   5.322   6.639  0.0824  1.0916  0.3302
  871MOL0     C20062   3.043   5.250   6.546 -0.1878 -0.6271 -0.2328
  871MOL0     O20063   3.161   5.175   6.541 -0.2106  0.3130  0.7098
  871MOL0     C20064   3.267   5.214   6.618 -0.3668  0.3089  0.4704
  871MOL0     C20065   3.386   5.147   6.581 -0.4873 -0.4521 -0.1377
  871MOL0     C20066   3.511   5.170   6.644 -0.7212  0.6217 -0.8334
  871MOL0     C20067   3.519   5.259   6.752  0.6378  0.1874 -0.2843
  871MOL0     O20068   3.638   5.275   6.820 -0.6807  0.3372  0.0628
  871MOL0     C20069   3.643   5.317   6.956  0.1943 -0.2700  1.0832
  871MOL0     C20070   3.785   5.316   7.013 -0.2916  0.5425  0.0032
  871MOL0     C20071   3.889   5.215   6.955 -0.0684 -0.2815 -0.5979
  871MOL0     C20072   4.021   5.211   7.028  0.4378  0.1659 -0.5735
  871MOL0     C20073   4.141   5.147   6.958 -0.1830  0.0863  0.2926
  871MOL0     C20074   4.255   5.098   7.045  0.3590  0.1006  0.1448
  871MOL0     C20075   4.362   5.038   6.953  0.1125 -0.0949  0.3518
  871MOL0     C20076   4.441   4.952   7.038 -0.2784 -0.1180 -1.1260
  871MOL0     N20077   4.559   4.909   6.968  0.2859 -0.1563 -0.9405
  871MOL0     C20078   4.692   4.938   7.003 -0.1114  0.1833  0.8416
  871MOL0     C20079   4.764   4.838   6.948 -0.3460 -0.6904 -0.6807
  871MOL0     C20080   4.913   4.828   6.982  0.0671 -1.0057 -0.0213
  871MOL0     C20081   5.009   4.903   6.885  0.6230 -0.1380  0.0067
  871MOL0     C20082   5.007   5.054   6.875 -0.2071  0.0849 -0.7923
  871MOL0     C20083   5.028   5.115   7.010 -0.2044 -0.0763  0.0662
  871MOL0     O20084   5.020   5.258   6.997  0.4412  0.1465  0.5970
  871MOL0     C20085   5.081   5.340   7.086  0.0962  0.2722  0.2838
  871MOL0     C20086   5.099   5.466   7.044  0.0590  0.7907 -0.1958
  871MOL0     C20087   5.166   5.558   7.123  0.8116  0.0682  0.0358
  871MOL0     C20088   5.181   5.698   7.071 -0.0098  0.7782 -1.0466
  871MOL0     C20089   5.233   5.515   7.241 -0.4193 -0.5014  0.2130
  871MOL0     C20090   5.300   5.598   7.346 -0.2654  0.6852  0.3367
  871MOL0     O20091   5.387   5.539   7.439 -0.8940  0.0802  0.8080
  871MOL0     C20092   5.459   5.613   7.533 -0.6971 -0.1698  0.0629
  871MOL0     C20093   5.428   5.743   7.588 -0.5358 -0.3353 -0.3275
  871MOL0     C20094   5.514   5.803   7.678  1.1195 -0.4950  0.0669
  871MOL0     C20095   5.635   5.748   7.724 -0.5667  0.3556 -0.1026
  871MOL0     O20096   5.732   5.814   7.802  0.0698  0.3820 -0.2703
  871MOL0     C20097   5.693   5.917   7.889 -0.0738  0.3404 -1.0156
  871MOL0     C20098   5.795   5.914   8.008 -0.3521  0.5430 -0.3567
  871MOL0     C20099   5.932   5.974   7.977 -0.3868  0.1503  1.3659
  871MOL0     C20100   5.995   6.048   8.098  1.1288 -0.1251  0.2609
  871MOL0     C20101   6.123   6.120   8.073 -0.3035  0.7853 -0.1165
  871MOL0     C20102   6.259   6.026   8.058  0.4843 -0.1924 -0.1307
  871MOL0     C20103   6.362   6.123   7.997  0.3986 -0.3661  0.5408
  871MOL0     C20104   6.497   6.076   8.031  0.2362 -0.9192 -0.4809
  871MOL0    Cl20105   6.602   6.215   7.983  0.0766  0.1985  0.5358
  871MOL0     C20106   5.660   5.622   7.682  0.6022  0.5076 -0.7757
  871MOL0     C20107   5.576   5.556   7.596  0.3765 -0.5281  0.7570
  871MOL0     O20108   5.255   5.708   7.354  0.6500 -0.3603 -0.3764
  871MOL0     C20109   5.226   5.378   7.273  0.0292 -0.9458  0.6300
  871MOL0     C20110   5.147   5.300   7.201 -0.8841  0.0654  1.1981
  871MOL0     N20111   4.683   4.746   6.879  0.2393 -0.4470 -0.0397
  871MOL0     N20112   4.557   4.795   6.891  0.2059 -0.3166 -0.6613
  871MOL0     C20113   3.405   5.330   6.796 -0.0239  1.0780 -0.5372
  871MOL0     C20114   3.281   5.295   6.737  0.0936 -0.0151 -0.5107
  871MOL0     C20115   2.940   5.221   6.451  0.2719  0.5424  0.3593
  871MOL0     C20116   2.814   5.279   6.457 -0.2564  0.1038 -0.7068
  871MOL0     C20117   2.711   5.249   6.372  0.1129  0.0597 -0.3328
  871MOL0     C20118   2.723   5.153   6.271 -0.9962 -0.1010 -0.1416
  871MOL0     O20119   2.619   5.106   6.193  0.5766  0.0913  0.2744
  871MOL0     C20120   2.479   5.154   6.205 -0.7616  0.0233 -0.1141
  871MOL0     C20121   2.401   5.118   6.084  0.3991  0.1597  0.6563
  871MOL0     C20122   2.347   4.968   6.082 -0.5833  0.2607  0.4749
  871MOL0     C20123   2.451   4.863   6.049  0.3333 -0.4809  0.0767
  871MOL0     C20124   2.391   4.735   6.010 -1.6712 -0.4341  0.4817
  871MOL0     C20125   2.351   4.632   5.984  0.1457  0.2377  1.0425
  871MOL0     C20126   2.847   5.097   6.259  0.2021  0.2961  1.1646
  871MOL0     C20127   2.955   5.127   6.341  0.3349 -0.5951  0.3590
  871MOL0     C20128   3.079   5.044   6.317 -1.0793 -0.4264  0.2199
  871MOL0     H20129   3.374   5.073   6.503  2.0945 -0.3767 -0.6948
  871MOL0     H20130   3.598   5.110   6.619 -0.1064  0.9822  0.3539
  871MOL0     H20131   3.573   5.251   7.008  1.2596 -3.4455 -1.2329
  871MOL0     H20132   3.599   5.417   6.963 -0.6946 -0.6815  1.5111
  871MOL0     H20133   3.818   5.419   6.998 -1.3967  0.7774 -0.9269
  871MOL0     H20134   3.770   5.299   7.120 -3.0505  1.9172 -0.0684
  871MOL0     H20135   3.851   5.112   6.949 -0.2062 -0.1882 -1.4928
  871MOL0     H20136   3.900   5.260   6.856 -1.4266  0.8425 -0.2715
  871MOL0     H20137   4.054   5.313   7.051 -4.0379  1.3360  1.8716
  871MOL0     H20138   3.992   5.183   7.129 -1.1942  4.2395  0.2901
  871MOL0     H20139   4.166   5.219   6.880 -1.7938  1.1905  0.7558
  871MOL0     H20140   4.104   5.061   6.902 -3.9138  1.2221  0.7647
  871MOL0     H20141   4.300   5.174   7.109 -1.1109  1.9958 -0.9543
  871MOL0     H20142   4.219   5.023   7.117  1.2499  0.1397  0.6411
  871MOL0     H20143   4.424   5.119   6.912  2.9365 -1.1776  2.1803
  871MOL0     H20144   4.330   4.975   6.870  2.9387 -0.6721 -0.4171
  871MOL0     H20145   4.472   5.013   7.123  0.9791 -1.1095 -0.8459
  871MOL0     H20146   4.383   4.876   7.090 -2.2409  2.1854  0.2209
  871MOL0     H20147   4.718   5.024   7.063 -0.1886  0.6903  0.1558
  871MOL0     H20148   4.947   4.725   6.981 -3.8217 -2.5013 -2.3659
  871MOL0     H20149   4.935   4.859   7.085  2.9065 -2.3076 -0.1498
  871MOL0     H20150   5.111   4.871   6.905  1.4278  0.2010 -3.1439
  871MOL0     H20151   4.996   4.855   6.788  1.0516 -1.3741  0.5301
  871MOL0     H20152   5.087   5.088   6.808  0.0731  1.6984  0.2857
  871MOL0     H20153   4.909   5.085   6.838 -0.2305  2.0239  0.7199
  871MOL0     H20154   4.961   5.071   7.084  0.7622 -1.2363  0.2843
  871MOL0     H20155   5.131   5.096   7.040  0.3347  1.0543 -0.9718
  871MOL0     H20156   5.057   5.502   6.951  1.3089 -0.0253 -1.1183
  871MOL0     H20157   5.104   5.764   7.110  1.4572  1.6029  0.5796
  871MOL0     H20158   5.166   5.698   6.962 -0.9712  0.9202 -0.9217
  871MOL0     H20159   5.280   5.744   7.083 -1.3758  3.5779  0.2169
  871MOL0     H20160   5.342   5.801   7.557 -0.3108  0.6445  0.7972
  871MOL0     H20161   5.494   5.904   7.711  1.4342 -0.2272 -0.5299
  871MOL0     H20162   5.690   6.015   7.840  0.3298  0.3376 -1.0533
  871MOL0     H20163   5.597   5.889   7.932 -1.4194  4.2035 -1.1241
  871MOL0     H20164   5.759   5.963   8.098  1.3203  3.4864 -1.1520
  871MOL0     H20165   5.816   5.809   8.030  1.6114  0.8797 -0.3957
  871MOL0     H20166   5.906   6.039   7.893 -2.1198 -0.5080  1.3534
  871MOL0     H20167   6.001   5.896   7.945  3.7797  2.8698  2.9636
  871MOL0     H20168   6.017   5.970   8.171  3.7257 -0.0124 -0.3044
  871MOL0     H20169   5.920   6.118   8.136  0.5906 -0.3734 -0.3284
  871MOL0     H20170   6.118   6.177   7.979  1.2715  3.3233  1.2261
  871MOL0     H20171   6.153   6.193   8.148  3.0697  1.6280 -2.0594
  871MOL0     H20172   6.240   5.940   7.993  2.0005 -1.5227  1.0961
  871MOL0     H20173   6.288   5.979   8.152 -2.6637 -0.6827  0.6910
  871MOL0     H20174   6.341   6.227   8.022 -4.7261 -1.1677  0.6840
  871MOL0     H20175   6.365   6.107   7.889  3.8969  1.3347  0.2414
  871MOL0     H20176   6.520   5.977   7.990 -1.8992 -1.5171 -0.3092
  871MOL0     H20177   6.509   6.073   8.140  2.9503 -0.2618 -0.6720
  871MOL0     H20178   5.744   5.565   7.722  1.7700  2.9141  0.3867
  871MOL0     H20179   5.601   5.457   7.556 -0.3628 -0.1457 -0.7317
  871MOL0     H20180   5.271   5.343   7.365  3.0504 -0.3606 -0.4917
  871MOL0     H20181   5.138   5.199   7.241  0.0177 -0.0543  1.1267
  871MOL0     H20182   3.411   5.384   6.889 -0.8060  0.5685 -0.1837
  871MOL0     H20183   3.194   5.323   6.796 -0.3385 -2.0469 -0.1267
  871MOL0     H20184   2.789   5.350   6.536 -0.4255 -0.0024 -0.6631
  871MOL0     H20185   2.616   5.291   6.404  0.3679 -1.4773  2.7834
  871MOL0     H20186   2.431   5.102   6.288 -3.6603 -0.1396 -1.7460
  871MOL0     H20187   2.464   5.262   6.217 -0.1369  0.1973 -0.8169
  871MOL0     H20188   2.454   5.131   5.989 -1.4945 -0.1476 -0.4737
  871MOL0     H20189   2.314   5.184   6.082  1.3654  1.4982  1.1333
  871MOL0     H20190   2.290   4.947   6.173 -0.6973 -2.3449 -0.1117
  871MOL0     H20191   2.268   4.955   6.007 -0.8601 -1.8428  1.0527
  871MOL0     H20192   2.504   4.846   6.143 -2.0494 -1.4865  1.3351
  871MOL0     H20193   2.517   4.892   5.967  0.6985  1.5204  1.0278
  871MOL0     H20194   2.299   4.540   5.963  0.3776 -0.0490  1.6738
  871MOL0     H20195   2.860   5.035   6.171  0.3692  1.7953  0.0874
  871MOL0     H20196   3.069   4.983   6.227 -2.1577  1.3758 -0.9357
  871MOL0     H20197   3.175   5.094   6.307 -0.7275 -0.6761  2.0500
  871MOL0     H20198   3.084   4.970   6.398 -0.2212 -0.1047  0.4690
  872MOL0     O20199   9.776   6.313   6.721 -0.1806 -0.4846 -0.3854
  872MOL0     C20200   9.708   6.374   6.802  0.5872 -0.1100 -0.1215
  872MOL0     O20201   9.737   6.401   6.934 -0.6033 -0.0902  0.8135
  872MOL0     C20202   9.863   6.385   6.988  0.6339  0.1645  0.0676
  872MOL0     C20203   9.879   6.287   7.083  0.5696 -0.4346 -0.4540
  872MOL0     C20204  10.005   6.273   7.142  0.4186  0.2757 -0.4662
  872MOL0     C20205  10.112   6.360   7.116  0.5433  0.0685 -0.3887
  872MOL0     O20206  10.229   6.336   7.194  0.1850  0.0187  0.1879
  872MOL0     C20207  10.339   6.286   7.110  0.9355  0.5187  0.0448
  872MOL0     C20208  10.431   6.189   7.189 -0.3160  0.3758 -0.1144
  872MOL0     C20209  10.355   6.059   7.225  0.0253 -1.2721  0.1824
  872MOL0     C20210  10.434   5.963   7.313  0.4331  0.4085  0.1550
  872MOL0     C20211  10.369   5.823   7.323 -0.3666 -0.6213 -0.0923
  872MOL0     C20212  10.226   5.817   7.380  0.3268  0.4803 -0.0665
  872MOL0     C20213  10.233   5.879   7.525  0.2608  0.4199 -0.8097
  872MOL0     C20214  10.316   5.794   7.621  0.2022 -0.0497 -0.7543
  872MOL0     N20215  10.279   5.652   7.615 -0.9546 -0.1086 -1.0680
  872MOL0     C20216  10.362   5.544   7.588 -0.2482  0.1176 -0.8293
  872MOL0     C20217  10.281   5.431   7.591 -0.6635 -0.3957 -0.3702
  872MOL0     C20218  10.334   5.294   7.567 -0.3764 -0.3573 -0.1097
  872MOL0     C20219  10.477   5.272   7.627 -0.0137  1.0274 -0.0980
  872MOL0     C20220  10.505   5.123   7.674  0.4657  0.2010  0.4610
  872MOL0     C20221  10.489   5.014   7.559 -0.5323  0.5395 -0.4804
  872MOL0     O20222  10.555   5.045   7.439  0.3574  0.1283  0.7847
  872MOL0     C20223  10.694   5.035   7.422  0.5637  0.1901 -0.1636
  872MOL0     C20224  10.743   5.056   7.288 -0.5471  0.2002 -0.6729
  872MOL0     C20225  10.881   5.039   7.277  0.0869  0.0026  0.1701
  872MOL0     C20226  10.933   5.064   7.139  0.5110  0.0068 -0.3869
  872MOL0     C20227  10.971   5.004   7.386 -0.1471  0.3435  0.0051
  872MOL0     C20228  11.115   5.010   7.380 -0.1640  0.3362 -0.6262
  872MOL0     O20229  11.168   5.076   7.482 -0.0948  0.1968 -0.4455
  872MOL0     C20230  11.292   5.129   7.477  0.6620 -0.4823 -0.1763
  872MOL0     C20231  11.396   5.051   7.527 -0.2508 -0.3825 -1.0904
  872MOL0     C20232  11.522   5.105   7.553 -0.3016  0.7145 -0.2047
  872MOL0     C20233  11.551   5.234   7.514  0.3454 -0.1284  0.7813
  872MOL0     O20234  11.670   5.304   7.525  0.0579  0.7680 -0.1033
  872MOL0     C20235  11.751   5.282   7.633  0.4141  0.1644 -0.2881
  872MOL0     C20236  11.897   5.275   7.607  0.5721  0.9064  0.0835
  872MOL0     C20237  11.941   5.403   7.544 -0.0703  0.4891 -0.1018
  872MOL0     C20238  12.091   5.397   7.516  0.4142 -0.1641 -0.1130
  872MOL0     C20239  12.141   5.534   7.468  1.2249  0.3097 -0.2814
  872MOL0     C20240  12.153   5.649   7.570 -0.4220 -1.1274  0.5458
  872MOL0     C20241  12.234   5.627   7.696  0.6773 -0.3200 -0.3907
  872MOL0     C20242  12.294   5.763   7.744 -0.6318 -1.0742  0.1369
  872MOL0    Cl20243  12.175   5.879   7.786 -0.5675  0.6012  0.2877
  872MOL0     C20244  11.446   5.311   7.468  0.0196  0.2345  0.0956
  872MOL0     C20245  11.316   5.265   7.445 -0.4198  0.4451  0.4034
  872MOL0     O20246  11.173   4.961   7.289  0.2375  0.0653 -0.2136
  872MOL0     C20247  10.908   4.996   7.512 -0.3179 -0.8697 -0.0579
  872MOL0     C20248  10.774   5.012   7.529 -0.1480  0.0310  0.0499
  872MOL0     N20249  10.151   5.483   7.614 -0.2704 -0.7122  0.5072
  872MOL0     N20250  10.151   5.617   7.606  0.2349  0.4255 -0.7897
  872MOL0     C20251  10.094   6.465   7.027 -0.4503  1.1270 -0.5843
  872MOL0     C20252   9.970   6.479   6.963  0.0747  0.2712  0.5820
  872MOL0     C20253   9.568   6.392   6.762 -0.6797 -0.5027  0.7464
  872MOL0     C20254   9.488   6.493   6.830  0.1999 -0.3183  0.1414
  872MOL0     C20255   9.365   6.533   6.788  0.5097 -0.8141  0.7951
  872MOL0     C20256   9.302   6.473   6.688 -0.5748 -0.1347  0.2678
  872MOL0     O20257   9.185   6.518   6.643 -0.0766  0.0095 -0.8593
  872MOL0     C20258   9.073   6.500   6.741 -0.1366  0.4128  0.4436
  872MOL0     C20259   8.940   6.536   6.677 -1.0659 -1.0463  0.6659
  872MOL0     C20260   8.809   6.495   6.742  0.2675  0.6705  0.1760
  872MOL0     C20261   8.790   6.346   6.782 -0.3664 -0.5968  0.2148
  872MOL0     C20262   8.809   6.255   6.665  0.0618 -0.5017 -0.2489
  872MOL0     C20263   8.803   6.167   6.574  0.4480 -0.6178 -0.0801
  872MOL0     C20264   9.362   6.364   6.621 -0.2319 -0.8769 -0.8622
  872MOL0     C20265   9.499   6.330   6.658  0.0686  0.5932  0.2056
  872MOL0     C20266   9.562   6.233   6.553  0.7204 -0.6479 -0.0130
  872MOL0     H20267   9.791   6.232   7.116 -0.8721  0.1083 -3.1296
  872MOL0     H20268  10.018   6.196   7.217  1.2875 -0.5949 -1.4894
  872MOL0     H20269  10.409   6.362   7.073 -0.9432  0.8825 -3.0913
  872MOL0     H20270  10.298   6.243   7.018  1.7297 -0.9045  0.3276
  872MOL0     H20271  10.519   6.155   7.134  1.6387 -2.5571  4.3207
  872MOL0     H20272  10.466   6.246   7.275 -0.1676  1.6012 -0.9608
  872MOL0     H20273  10.261   6.084   7.276  0.3395 -1.7937  1.0349
  872MOL0     H20274  10.331   6.002   7.134 -0.2567 -1.9874  0.6963
  872MOL0     H20275  10.537   5.953   7.277  0.8236  0.7431  1.1297
  872MOL0     H20276  10.456   6.001   7.414 -0.4855 -0.1884  0.5942
  872MOL0     H20277  10.432   5.750   7.375 -0.9767 -1.5012 -0.5717
  872MOL0     H20278  10.361   5.778   7.224  2.0327  1.7002 -1.4757
  872MOL0     H20279  10.158   5.881   7.324  0.1635 -0.5437 -1.0659
  872MOL0     H20280  10.180   5.718   7.382 -0.6097  0.9042  0.1936
  872MOL0     H20281  10.128   5.890   7.552 -0.0829 -1.2503 -1.3320
  872MOL0     H20282  10.271   5.981   7.526  2.7103 -0.4041 -1.3390
  872MOL0     H20283  10.423   5.809   7.605  0.2526  0.4641  0.0210
  872MOL0     H20284  10.307   5.821   7.727  2.3174  2.5645 -1.1480
  872MOL0     H20285  10.471   5.547   7.588 -0.2678  2.1551  0.2460
  872MOL0     H20286  10.330   5.258   7.464  0.5006 -1.4275  0.2156
  872MOL0     H20287  10.269   5.225   7.621  0.7790 -0.8956  0.6214
  872MOL0     H20288  10.547   5.290   7.545 -0.8627  4.8285 -0.1623
  872MOL0     H20289  10.504   5.341   7.707  0.6812  0.8161 -0.1392
  872MOL0     H20290  10.598   5.121   7.731  1.0947  0.4650 -0.5188
  872MOL0     H20291  10.425   5.100   7.744  0.6194 -2.2905 -0.1206
  872MOL0     H20292  10.526   4.915   7.588  0.3857  0.4021 -1.9796
  872MOL0     H20293  10.382   5.021   7.535 -0.4750  0.0442 -0.9128
  872MOL0     H20294  10.666   5.084   7.218  1.4109  2.3018 -2.1232
  872MOL0     H20295  10.985   4.977   7.097  0.8161  0.0254 -0.0529
  872MOL0     H20296  11.001   5.150   7.139  2.1776 -1.0759 -4.1698
  872MOL0     H20297  10.846   5.087   7.077 -1.8524 -2.7242  1.7246
  872MOL0     H20298  11.368   4.946   7.533  1.6425 -1.0384 -2.6189
  872MOL0     H20299  11.594   5.043   7.606 -1.2207  0.9384  1.3393
  872MOL0     H20300  11.734   5.363   7.704 -2.0368  0.6191 -1.2943
  872MOL0     H20301  11.725   5.186   7.679 -0.6537  0.8271  0.5261
  872MOL0     H20302  11.948   5.267   7.703  0.8744  1.4418 -0.0312
  872MOL0     H20303  11.926   5.183   7.555  3.9838  0.6970  2.0623
  872MOL0     H20304  11.914   5.489   7.606 -0.4578  1.0549 -1.0480
  872MOL0     H20305  11.897   5.403   7.444  1.4823 -1.3494 -0.8620
  872MOL0     H20306  12.106   5.326   7.434  0.5496  1.2428 -1.3499
  872MOL0     H20307  12.148   5.371   7.605 -2.1091  0.1476  1.7013
  872MOL0     H20308  12.241   5.510   7.432  1.5796 -0.3891  1.0995
  872MOL0     H20309  12.090   5.562   7.375  0.7811  0.6303  0.0591
  872MOL0     H20310  12.053   5.687   7.593 -0.6298 -1.0561 -0.4436
  872MOL0     H20311  12.211   5.727   7.520 -2.3950 -0.0431 -0.1477
  872MOL0     H20312  12.309   5.550   7.673 -1.1184 -1.9694 -1.0223
  872MOL0     H20313  12.164   5.585   7.769  0.3627 -2.6389 -1.8950
  872MOL0     H20314  12.351   5.813   7.665  0.0204 -0.5245  0.9402
  872MOL0     H20315  12.353   5.753   7.836  0.6638 -3.5526 -0.8557
  872MOL0     H20316  11.462   5.416   7.441 -1.4453  1.1194  2.3809
  872MOL0     H20317  11.242   5.325   7.392 -0.5206 -0.1441 -0.1349
  872MOL0     H20318  10.970   4.966   7.596 -1.1305  0.8596  1.2233
  872MOL0     H20319  10.731   4.997   7.628  1.2295  0.1015  0.6861
  872MOL0     H20320  10.171   6.529   6.985 -0.6600  0.7580 -1.5577
  872MOL0     H20321   9.951   6.546   6.881  3.4918  0.6985  0.0053
  872MOL0     H20322   9.541   6.543   6.910  0.4052 -0.0367 -0.1645
  872MOL0     H20323   9.308   6.615   6.831  0.3369 -1.1154  1.1404
  872MOL0     H20324   9.067   6.394   6.768 -0.4491  0.5458  0.9016
  872MOL0     H20325   9.083   6.573   6.822 -0.4670 -0.5702  1.3948
  872MOL0     H20326   8.949   6.502   6.574  0.4822  0.2032  0.3510
  872MOL0     H20327   8.941   6.645   6.668  1.8793 -0.7604  2.9785
  872MOL0     H20328   8.798   6.556   6.832  1.2154  0.6803  0.2942
  872MOL0     H20329   8.720   6.520   6.683  1.2993  0.7039 -1.4027
  872MOL0     H20330   8.692   6.332   6.829  0.4908 -0.3185  2.1985
  872MOL0     H20331   8.868   6.319   6.854 -1.0369 -0.6751  0.9192
  872MOL0     H20332   8.802   6.092   6.498 -2.4007 -0.7233 -0.0420
  872MOL0     H20333   9.316   6.308   6.540 -0.0694 -0.2018 -1.4277
  872MOL0     H20334   9.590   6.296   6.468  2.0328  0.3639  1.1283
  872MOL0     H20335   9.648   6.172   6.582  0.2479 -1.3246 -0.0158
  872MOL0     H20336   9.489   6.161   6.516  0.2519  0.0866 -0.5394
  873MOL0     O20337   7.770   7.029   7.137 -0.1937 -0.7059  0.0272
  873MOL0     C20338   7.696   7.073   7.225  0.1722 -0.1031 -0.5612
  873MOL0     O20339   7.746   7.134   7.340  1.3345  0.1400 -0.8281
  873MOL0     C20340   7.876   7.151   7.373 -0.5102 -0.6640 -0.4012
  873MOL0     C20341   7.985   7.137   7.292 -0.9944  0.5626  0.4736
  873MOL0     C20342   8.117   7.173   7.348 -1.0716 -0.1090  0.8587
  873MOL0     C20343   8.135   7.215   7.478  0.7811 -0.2021 -0.4492
  873MOL0     O20344   8.256   7.237   7.527  0.2121  0.2421 -0.3544
  873MOL0     C20345   8.264   7.359   7.612 -1.0217 -0.0976  0.2005
  873MOL0     C20346   8.408   7.387   7.647 -0.4952  1.2138 -0.3711
  873MOL0     C20347   8.419   7.493   7.755 -0.0934 -0.1280 -0.4557
  873MOL0     C20348   8.544   7.582   7.749  0.2076 -0.0912  0.0907
  873MOL0     C20349   8.676   7.509   7.779 -0.2071 -0.3356  0.0128
  873MOL0     C20350   8.782   7.621   7.751  0.5670  0.1284 -0.5465
  873MOL0     C20351   8.915   7.575   7.791  0.1143 -0.0147 -0.3547
  873MOL0     C20352   8.923   7.525   7.931 -0.2264  0.3961  0.2176
  873MOL0     N20353   9.060   7.526   7.978 -0.3775  0.2812  0.7360
  873MOL0     C20354   9.135   7.408   7.970  0.5366 -0.4973 -0.7500
  873MOL0     C20355   9.252   7.434   8.029  0.4336 -0.0362 -0.5940
  873MOL0     C20356   9.364   7.335   8.053  0.1585  0.5659  0.2399
  873MOL0     C20357   9.453   7.318   7.926 -0.4952 -0.6714  0.5245
  873MOL0     C20358   9.604   7.372   7.941  1.2350 -0.0492 -0.1201
  873MOL0     C20359   9.678   7.353   7.812 -0.4088 -0.2492  0.3169
  873MOL0     O20360   9.691   7.215   7.778 -0.0872 -0.1399  0.0678
  873MOL0     C20361   9.799   7.183   7.697  0.2572  0.2595  1.1934
  873MOL0     C20362   9.870   7.062   7.721 -0.2448 -0.7889  0.1104
  873MOL0     C20363   9.975   7.025   7.638  0.3204 -0.2624 -0.4043
  873MOL0     C20364  10.034   6.890   7.675  0.2449  0.1969  0.0246
  873MOL0     C20365  10.028   7.111   7.541 -0.0657  0.5523  0.1971
  873MOL0     C20366  10.146   7.074   7.449 -0.7166  0.3322 -0.8732
  873MOL0     O20367  10.210   6.951   7.472  0.0489  0.5673  1.0059
  873MOL0     C20368  10.283   6.902   7.366 -0.4518 -0.5229 -0.5547
  873MOL0     C20369  10.408   6.956   7.349 -0.3873  0.1264  0.0628
  873MOL0     C20370  10.490   6.904   7.248  0.5513  0.4034 -0.3066
  873MOL0     C20371  10.455   6.783   7.180 -0.2153  0.1977  0.7654
  873MOL0     O20372  10.529   6.722   7.083 -0.2377 -0.0934 -0.6034
  873MOL0     C20373  10.661   6.771   7.049 -0.7181  0.2443  0.4009
  873MOL0     C20374  10.774   6.744   7.162 -0.3825 -0.0203  0.3702
  873MOL0     C20375  10.917   6.796   7.122  0.3083 -0.2460 -0.2262
  873MOL0     C20376  11.017   6.789   7.238 -1.4622 -0.0621 -0.1437
  873MOL0     C20377  11.123   6.900   7.235 -1.1526  0.3445 -0.3254
  873MOL0     C20378  11.241   6.884   7.337  0.7225 -0.3572  0.5757
  873MOL0     C20379  11.341   6.995   7.312 -0.7016 -0.1422  0.1079
  873MOL0     C20380  11.468   6.967   7.404  0.7864 -0.4680 -0.4404
  873MOL0    Cl20381  11.568   7.119   7.410 -0.0832  0.0595  0.0221
  873MOL0     C20382  10.337   6.726   7.217 -0.1920  0.0133  0.5528
  873MOL0     C20383  10.247   6.788   7.303 -0.1152  0.5386  0.8934
  873MOL0     O20384  10.190   7.167   7.377 -0.1018 -0.2370 -0.8819
  873MOL0     C20385   9.965   7.233   7.519  0.2671  1.3145  0.2024
  873MOL0     C20386   9.856   7.268   7.597  0.3497 -0.7026  0.5829
  873MOL0     N20387   9.252   7.561   8.073 -0.0174  0.5907  1.0701
  873MOL0     N20388   9.145   7.623   8.031  0.2383 -0.4783  0.0930
  873MOL0     C20389   8.019   7.222   7.562 -0.2516  0.5278 -0.7155
  873MOL0     C20390   7.896   7.201   7.499  0.1023  0.6957 -0.6030
  873MOL0     C20391   7.553   7.051   7.211  1.2028  0.5547 -0.0198
  873MOL0     C20392   7.511   6.951   7.111  0.8879 -0.2556 -0.0083
  873MOL0     C20393   7.374   6.923   7.087 -0.0520 -0.3859  0.2190
  873MOL0     C20394   7.274   6.973   7.174 -0.2630 -0.3680  0.2875
  873MOL0     O20395   7.142   6.943   7.174  0.8379 -0.6436 -0.3397
  873MOL0     C20396   7.088   6.867   7.066  0.8231  1.1063  0.4632
  873MOL0     C20397   6.947   6.854   7.117  0.2489  0.2754 -0.3900
  873MOL0     C20398   6.866   6.769   7.014  0.0890  0.0848 -1.3809
  873MOL0     C20399   6.921   6.623   6.987  0.0997  0.8554  0.1013
  873MOL0     C20400   6.815   6.560   6.906 -0.8830 -0.0474 -1.1664
  873MOL0     C20401   6.729   6.505   6.846  0.8922  0.2673 -0.4298
  873MOL0     C20402   7.313   7.064   7.266  0.0405 -0.6938 -0.0404
  873MOL0     C20403   7.450   7.097   7.292  0.2274 -0.1653 -0.1915
  873MOL0     C20404   7.483   7.198   7.408  0.6366 -0.0273 -0.2505
  873MOL0     H20405   7.988   7.107   7.187  4.8010  2.8729 -0.4431
  873MOL0     H20406   8.209   7.155   7.292 -1.5190 -1.8939  0.6381
  873MOL0     H20407   8.214   7.346   7.709 -2.2834 -1.4589 -0.5853
  873MOL0     H20408   8.217   7.448   7.569 -0.5611  0.6633  1.2120
  873MOL0     H20409   8.453   7.293   7.680 -0.6288  1.3569  0.2305
  873MOL0     H20410   8.461   7.427   7.560  3.7319 -0.4494  1.2052
  873MOL0     H20411   8.339   7.566   7.743 -1.6389 -1.4557  1.1981
  873MOL0     H20412   8.415   7.449   7.855  2.3153  1.6975  0.5562
  873MOL0     H20413   8.560   7.628   7.651 -0.4653  1.9698  0.9056
  873MOL0     H20414   8.527   7.656   7.827 -2.3579  0.3540 -0.8137
  873MOL0     H20415   8.696   7.423   7.715  0.0061 -0.0928 -0.2475
  873MOL0     H20416   8.681   7.481   7.885 -1.7256  0.4771  0.3220
  873MOL0     H20417   8.790   7.629   7.642 -1.5525  0.5577 -0.7293
  873MOL0     H20418   8.756   7.720   7.790 -0.4637 -0.1784 -0.4134
  873MOL0     H20419   8.978   7.663   7.777 -1.7927  1.5894  0.6205
  873MOL0     H20420   8.951   7.490   7.733  3.1394  0.7366  0.2326
  873MOL0     H20421   8.864   7.591   7.995  0.3758  0.1660  1.0174
  873MOL0     H20422   8.887   7.421   7.934  0.5657  0.0710 -0.7919
  873MOL0     H20423   9.114   7.314   7.920  1.5468 -0.3980 -1.4013
  873MOL0     H20424   9.333   7.231   8.066  0.1785  0.5663  0.2915
  873MOL0     H20425   9.419   7.369   8.141 -0.2299  0.9255  0.3441
  873MOL0     H20426   9.464   7.212   7.899 -0.7479 -0.7719  0.8172
  873MOL0     H20427   9.413   7.383   7.849  1.6561  3.5230  2.6377
  873MOL0     H20428   9.603   7.478   7.967  0.1205  0.1324 -0.8179
  873MOL0     H20429   9.639   7.319   8.030 -1.4425  3.4341  3.3571
  873MOL0     H20430   9.636   7.402   7.725 -1.4832 -2.3382 -0.4167
  873MOL0     H20431   9.776   7.394   7.839 -0.5485 -0.2329  0.8063
  873MOL0     H20432   9.841   6.999   7.805  1.0998 -0.9309  0.4890
  873MOL0     H20433  10.058   6.834   7.584 -0.5352 -0.0384 -0.0423
  873MOL0     H20434   9.959   6.823   7.719 -0.7919  2.2053  1.5077
  873MOL0     H20435  10.111   6.907   7.751  1.2561  0.3660 -1.0120
  873MOL0     H20436  10.436   7.046   7.404  1.9482 -0.5640  0.1140
  873MOL0     H20437  10.571   6.973   7.225 -0.8361  2.0570 -0.4155
  873MOL0     H20438  10.693   6.723   6.956  0.9184 -0.9152  1.4980
  873MOL0     H20439  10.659   6.877   7.024  2.4789  0.0494 -1.2417
  873MOL0     H20440  10.746   6.789   7.258 -1.7629  0.4366 -0.2232
  873MOL0     H20441  10.773   6.639   7.191 -1.6720  0.6145  2.9505
  873MOL0     H20442  10.903   6.899   7.088 -0.9641  0.8827  3.3365
  873MOL0     H20443  10.955   6.734   7.040  1.6415 -0.3665  0.4648
  873MOL0     H20444  11.062   6.689   7.236 -0.8629  0.2125 -0.6400
  873MOL0     H20445  10.969   6.806   7.335  3.1097  0.0421  2.3919
  873MOL0     H20446  11.157   6.905   7.131  2.0476  1.1777  0.6405
  873MOL0     H20447  11.063   6.991   7.248 -1.5105 -0.1214  1.7449
  873MOL0     H20448  11.282   6.785   7.313 -0.2137 -1.4002  3.0114
  873MOL0     H20449  11.206   6.874   7.440  2.6165  2.0129  1.5356
  873MOL0     H20450  11.306   7.098   7.326  3.9593  1.8325 -0.9101
  873MOL0     H20451  11.375   6.997   7.208  2.2145  1.9008  0.9551
  873MOL0     H20452  11.529   6.882   7.371  3.6187  1.4287 -0.3857
  873MOL0     H20453  11.433   6.947   7.506 -1.2056  2.7626 -0.3858
  873MOL0     H20454  10.315   6.625   7.182 -1.5557  0.5365 -0.1485
  873MOL0     H20455  10.160   6.727   7.327  0.6274 -0.1413  1.9493
  873MOL0     H20456  10.006   7.295   7.440  0.1537 -2.0919 -2.8402
  873MOL0     H20457   9.808   7.364   7.582 -1.1690 -1.0525  2.6581
  873MOL0     H20458   8.019   7.260   7.663 -0.7444  1.1212 -0.9280
  873MOL0     H20459   7.806   7.207   7.559  0.8705  0.7977  0.5612
  873MOL0     H20460   7.584   6.901   7.048 -1.9217 -2.6378 -1.6058
  873MOL0     H20461   7.360   6.844   7.014  2.3448 -1.9179  1.2907
  873MOL0     H20462   7.080   6.922   6.972  0.9440 -1.3338 -1.0642
  873MOL0     H20463   7.144   6.773   7.067  0.9618  1.1851  0.3155
  873MOL0     H20464   6.898   6.949   7.142  0.0066 -0.7304  3.8091
  873MOL0     H20465   6.947   6.796   7.210 -1.2585  0.1208 -0.4585
  873MOL0     H20466   6.758   6.773   7.033  0.2841 -0.4570 -0.0546
  873MOL0     H20467   6.867   6.829   6.923 -1.8800 -0.3526 -1.7533
  873MOL0     H20468   6.931   6.583   7.089  2.1325  2.1244  0.4768
  873MOL0     H20469   7.018   6.623   6.935 -0.5545 -1.1260 -1.2263
  873MOL0     H20470   6.653   6.460   6.785 -0.6786  2.8636 -0.5507
  873MOL0     H20471   7.235   7.101   7.331 -0.4487 -2.0490  0.1692
  873MOL0     H20472   7.389   7.238   7.448 -0.9369 -1.3675 -2.4321
  873MOL0     H20473   7.533   7.147   7.490  0.6516 -0.1684 -0.3484
  873MOL0     H20474   7.537   7.288   7.376 -0.2793  0.9462  0.8267
  874MOL0     O20475  11.034   7.944   4.506  0.0620 -0.7033  0.0683
  874MOL0     C20476  11.021   7.960   4.385  0.8392 -0.4998  0.0285
  874MOL0     O20477  11.114   8.013   4.308  0.1566 -0.2400 -0.0394
  874MOL0     C20478  11.242   7.979   4.351  0.0146  0.3337  0.3553
  874MOL0     C20479  11.306   7.871   4.293  0.3739  0.8019 -0.2787
  874MOL0     C20480  11.428   7.835   4.345 -1.1232  0.2967 -0.3292
  874MOL0     C20481  11.493   7.908   4.443  0.1177 -0.1109  0.0639
  874MOL0     O20482  11.616   7.852   4.485 -0.7082  0.6368  0.0516
  874MOL0     C20483  11.711   7.942   4.540 -1.1592  0.3763  0.4388
  874MOL0     C20484  11.835   7.862   4.575  0.0332  0.6810 -0.0278
  874MOL0     C20485  11.954   7.950   4.638  1.1617  0.3729 -0.1558
  874MOL0     C20486  12.033   8.012   4.532 -1.0362  0.0536  0.0146
  874MOL0     C20487  12.154   8.097   4.572  0.4431 -0.2371 -0.1662
  874MOL0     C20488  12.269   8.015   4.627 -0.1682  0.2035  0.5223
  874MOL0     C20489  12.392   8.091   4.692  0.0895 -0.3161  0.6294
  874MOL0     C20490  12.519   8.010   4.724  0.3605 -0.2814 -0.0966
  874MOL0     N20491  12.517   7.921   4.843  0.1763 -0.5855 -0.3881
  874MOL0     C20492  12.480   7.960   4.968  0.8652 -0.0350  0.8584
  874MOL0     C20493  12.490   7.848   5.037  0.2145  0.2033 -0.7636
  874MOL0     C20494  12.458   7.843   5.186  0.4081  0.8277 -0.5288
  874MOL0     C20495  12.552   7.746   5.266 -0.3074  0.3047  0.3655
  874MOL0     C20496  12.526   7.755   5.419  0.2547 -0.7792  0.0518
  874MOL0     C20497  12.604   7.665   5.515 -0.5031 -0.1644 -0.9255
  874MOL0     O20498  12.739   7.671   5.476 -0.4666 -0.0329 -0.0660
  874MOL0     C20499  12.837   7.627   5.564  0.4894 -1.5280  0.0679
  874MOL0     C20500  12.969   7.635   5.512  0.2323 -0.2110 -0.8773
  874MOL0     C20501  13.076   7.583   5.588 -0.1689  0.6051  0.0825
  874MOL0     C20502  13.206   7.568   5.515 -0.0714  0.0129 -0.0008
  874MOL0     C20503  13.050   7.525   5.717 -0.3884 -0.9111 -0.3716
  874MOL0     C20504  13.161   7.469   5.806 -0.5416 -0.1837 -0.3816
  874MOL0     O20505  13.130   7.451   5.934  0.0601 -0.7435  0.0976
  874MOL0     C20506  13.232   7.442   6.027  1.3528 -0.3288 -0.1305
  874MOL0     C20507  13.303   7.555   6.045 -0.8708 -0.5241 -0.0467
  874MOL0     C20508  13.402   7.555   6.142 -0.2692  1.1976  1.5006
  874MOL0     C20509  13.438   7.437   6.210 -0.2659  0.6751  0.3066
  874MOL0     O20510  13.553   7.445   6.287 -0.1608  0.6919  0.6132
  874MOL0     C20511  13.619   7.317   6.319 -0.7064 -0.2509  0.4272
  874MOL0     C20512  13.751   7.361   6.398 -0.6347 -0.2477 -0.6449
  874MOL0     C20513  13.847   7.250   6.435 -0.8042 -0.3022 -0.2035
  874MOL0     C20514  13.992   7.305   6.446  0.6317  0.5721  0.6670
  874MOL0     C20515  14.084   7.180   6.478 -0.4920 -0.0576 -0.6925
  874MOL0     C20516  14.237   7.212   6.482  0.6813 -0.5721 -0.2418
  874MOL0     C20517  14.320   7.093   6.521  0.3881  0.1477 -0.8156
  874MOL0     C20518  14.477   7.112   6.485  0.5355  0.7420 -0.2177
  874MOL0    Cl20519  14.554   7.269   6.528 -0.5989 -0.3095 -0.0113
  874MOL0     C20520  13.370   7.318   6.185  0.2185  1.0867  0.6084
  874MOL0     C20521  13.262   7.327   6.090 -0.4434 -0.2322 -0.2456
  874MOL0     O20522  13.269   7.437   5.759 -0.0439  0.6728 -0.3558
  874MOL0     C20523  12.922   7.525   5.776 -0.1064  0.1621  0.0703
  874MOL0     C20524  12.819   7.571   5.692  0.5069 -0.6955  0.0847
  874MOL0     N20525  12.532   7.744   4.958 -0.2400 -1.6766  0.8833
  874MOL0     N20526  12.545   7.789   4.837  0.0332 -0.0992 -0.4770
  874MOL0     C20527  11.438   8.029   4.493  0.2856  0.3933 -0.3067
  874MOL0     C20528  11.307   8.060   4.452 -0.1487  0.3227  0.5511
  874MOL0     C20529  10.895   7.918   4.320  0.1576 -0.6106  0.5217
  874MOL0     C20530  10.884   7.952   4.176  0.2329 -0.3002 -1.0057
  874MOL0     C20531  10.758   7.932   4.107 -0.6871  0.9695 -0.4163
  874MOL0     C20532  10.652   7.880   4.175  0.0675  0.5825  0.2154
  874MOL0     O20533  10.530   7.868   4.115 -0.1749 -0.5515  0.2957
  874MOL0     C20534  10.481   7.738   4.084 -0.0109  0.1522  0.4518
  874MOL0     C20535  10.455   7.714   3.936  0.0503 -0.0901  0.4785
  874MOL0     C20536  10.581   7.748   3.852  0.6574 -0.0214 -0.4857
  874MOL0     C20537  10.571   7.675   3.717 -0.6820  0.6130  0.5186
  874MOL0     C20538  10.483   7.739   3.619  0.2149  0.3925 -0.2940
  874MOL0     C20539  10.430   7.791   3.519  0.0146  0.4868 -0.7057
  874MOL0     C20540  10.668   7.851   4.311 -0.8611  0.4803  0.0199
  874MOL0     C20541  10.784   7.857   4.389 -0.2102 -1.1762 -0.4725
  874MOL0     C20542  10.775   7.829   4.536  0.5205  0.5371 -0.1267
  874MOL0     H20543  11.256   7.810   4.219  0.8326 -1.2946  1.0585
  874MOL0     H20544  11.489   7.749   4.321  2.3100  2.4671 -0.1727
  874MOL0     H20545  11.687   7.993   4.634  3.3709  0.0049  2.0453
  874MOL0     H20546  11.745   8.012   4.463 -0.6201  0.7042  0.9745
  874MOL0     H20547  11.801   7.793   4.653 -1.7465 -1.3581 -2.4382
  874MOL0     H20548  11.864   7.803   4.488 -3.1789 -1.4094  0.1668
  874MOL0     H20549  11.907   8.021   4.707 -0.0774 -1.0331  0.4950
  874MOL0     H20550  12.024   7.889   4.694  0.9788 -0.6783 -1.0451
  874MOL0     H20551  12.069   7.937   4.461  0.7581  0.0243  0.9008
  874MOL0     H20552  11.965   8.075   4.475  0.6187  0.9575 -1.0485
  874MOL0     H20553  12.130   8.175   4.645  0.8431 -0.1584 -0.1214
  874MOL0     H20554  12.180   8.151   4.481  1.6648  0.0156  0.3108
  874MOL0     H20555  12.233   7.937   4.696  1.3181  0.2111  1.3399
  874MOL0     H20556  12.308   7.955   4.544  0.3819  0.3345  0.6845
  874MOL0     H20557  12.355   8.149   4.777  1.3930  3.9469 -1.4671
  874MOL0     H20558  12.423   8.174   4.628 -0.8119 -0.7012 -0.3276
  874MOL0     H20559  12.534   7.951   4.632  2.9911  0.4466 -0.2041
  874MOL0     H20560  12.600   8.083   4.730  2.4363 -2.3838 -0.9600
  874MOL0     H20561  12.445   8.058   4.998 -1.3519 -0.6957  0.6078
  874MOL0     H20562  12.362   7.795   5.206  0.9213 -0.0512 -0.0959
  874MOL0     H20563  12.455   7.942   5.231  2.2163  0.3537  0.7393
  874MOL0     H20564  12.541   7.646   5.224  1.2289  0.4121 -0.3402
  874MOL0     H20565  12.652   7.787   5.251 -0.9353  3.4049  3.4119
  874MOL0     H20566  12.541   7.856   5.456  0.5920 -0.1395 -1.7195
  874MOL0     H20567  12.422   7.724   5.430 -0.8379  1.7912 -1.9778
  874MOL0     H20568  12.596   7.710   5.614 -1.6832  0.9356 -1.4931
  874MOL0     H20569  12.571   7.561   5.508  0.7565 -0.6622  0.0825
  874MOL0     H20570  12.989   7.665   5.409 -2.1813 -0.8311 -1.5979
  874MOL0     H20571  13.209   7.643   5.436 -0.3771 -0.5625 -0.5609
  874MOL0     H20572  13.214   7.465   5.480 -1.1985  0.3361 -1.2539
  874MOL0     H20573  13.288   7.602   5.580 -0.7437  1.7114  0.0013
  874MOL0     H20574  13.275   7.655   6.013  0.5048  1.4123  4.0741
  874MOL0     H20575  13.463   7.644   6.157  0.3561  0.7831  1.4790
  874MOL0     H20576  13.549   7.262   6.382 -0.6094  1.2799  1.9234
  874MOL0     H20577  13.649   7.262   6.229 -0.5880  0.7844 -0.1867
  874MOL0     H20578  13.804   7.443   6.350  0.9208 -0.9062 -0.1180
  874MOL0     H20579  13.714   7.399   6.493  1.8675 -1.2238  0.8081
  874MOL0     H20580  13.831   7.167   6.366 -4.6294  0.3781 -0.3347
  874MOL0     H20581  13.841   7.208   6.536  3.5938 -1.1847 -0.1207
  874MOL0     H20582  13.992   7.376   6.529 -3.4400  2.8819 -1.0055
  874MOL0     H20583  14.029   7.352   6.355  2.4151  1.7702  1.9359
  874MOL0     H20584  14.056   7.137   6.574 -0.5199  2.4625  0.5147
  874MOL0     H20585  14.071   7.114   6.391  0.1912  0.8678 -1.5335
  874MOL0     H20586  14.262   7.290   6.555  0.3700  0.1568 -0.9039
  874MOL0     H20587  14.269   7.250   6.385  0.5001  0.7046  0.1806
  874MOL0     H20588  14.281   7.008   6.463 -3.1742  0.5186  0.7818
  874MOL0     H20589  14.306   7.068   6.626 -0.0173  0.7497 -0.7214
  874MOL0     H20590  14.480   7.110   6.376 -0.4253  1.1213 -0.2653
  874MOL0     H20591  14.534   7.024   6.514  0.2337  0.7099  0.2958
  874MOL0     H20592  13.391   7.216   6.215 -0.1854  0.3270 -1.5496
  874MOL0     H20593  13.198   7.245   6.059  1.2876 -2.1559  1.0115
  874MOL0     H20594  12.898   7.490   5.876  0.6093 -0.1569  0.1360
  874MOL0     H20595  12.717   7.576   5.730  0.7351 -3.0131  1.1679
  874MOL0     H20596  11.495   8.088   4.565  4.6962 -2.1187 -1.3246
  874MOL0     H20597  11.238   8.135   4.490 -0.9227 -1.1755  2.1958
  874MOL0     H20598  10.967   7.992   4.120  1.8472 -1.2681  0.5994
  874MOL0     H20599  10.741   7.975   4.008 -0.6012  1.7919 -0.0801
  874MOL0     H20600  10.546   7.655   4.115 -1.4860 -0.7116  1.3377
  874MOL0     H20601  10.387   7.716   4.135 -2.5367 -0.4381 -3.9437
  874MOL0     H20602  10.378   7.790   3.920 -0.0953 -0.3468 -0.0415
  874MOL0     H20603  10.422   7.614   3.910 -1.5005  0.2291  1.1304
  874MOL0     H20604  10.587   7.856   3.836 -0.7703  0.1192 -0.2037
  874MOL0     H20605  10.667   7.725   3.915 -1.4733 -2.2516  1.8183
  874MOL0     H20606  10.544   7.573   3.744  1.8714  0.3717  2.5933
  874MOL0     H20607  10.670   7.669   3.672  0.3043  1.5626  2.4129
  874MOL0     H20608  10.373   7.855   3.454 -1.6361  0.8624  1.0050
  874MOL0     H20609  10.588   7.814   4.375  0.6101  1.2971  2.4812
  874MOL0     H20610  10.684   7.783   4.576  1.5544 -0.3402  1.3097
  874MOL0     H20611  10.846   7.749   4.559  0.2708  0.7493  1.4735
  874MOL0     H20612  10.805   7.912   4.600 -0.6773  1.4309 -0.6886
  875MOL0     O20613   8.085  10.722   5.781 -0.0331  0.5456  0.3227
  875MOL0     C20614   8.114  10.823   5.848  0.2355 -0.8831 -0.3857
  875MOL0     O20615   8.239  10.875   5.877  0.1173 -0.8055 -0.5200
  875MOL0     C20616   8.346  10.798   5.888  0.1919  0.7191 -0.6803
  875MOL0     C20617   8.396  10.728   5.780  0.3094  0.7652 -0.4394
  875MOL0     C20618   8.498  10.630   5.794  0.2855 -0.0755  0.2919
  875MOL0     C20619   8.561  10.599   5.920  1.1094  0.4428  1.2879
  875MOL0     O20620   8.646  10.494   5.934 -0.1399  0.1829  0.2077
  875MOL0     C20621   8.762  10.521   5.860 -0.3964  0.6151  0.7054
  875MOL0     C20622   8.826  10.382   5.837 -0.2066  1.0958 -0.6832
  875MOL0     C20623   8.740  10.307   5.734  0.3484  0.4862  0.3619
  875MOL0     C20624   8.791  10.176   5.694  0.5462  0.7880 -0.0661
  875MOL0     C20625   8.704  10.080   5.607 -0.2626 -0.1220 -0.3503
  875MOL0     C20626   8.715  10.117   5.462 -0.1680  0.1007  0.0029
  875MOL0     C20627   8.639  10.014   5.373 -0.4157  0.6467  0.1446
  875MOL0     C20628   8.583  10.076   5.246  0.6205 -0.2707  0.1053
  875MOL0     N20629   8.675  10.137   5.153 -0.2221 -0.6424 -0.1772
  875MOL0     C20630   8.722  10.080   5.039 -0.0611 -0.6307 -0.2015
  875MOL0     C20631   8.793  10.179   4.982 -0.1819 -0.3435 -0.5216
  875MOL0     C20632   8.877  10.191   4.856  0.0673  0.6633  0.5163
  875MOL0     C20633   8.784  10.215   4.735  0.4545  0.6421  0.9183
  875MOL0     C20634   8.862  10.215   4.597  0.7694  0.9675  0.9929
  875MOL0     C20635   8.980  10.314   4.578 -0.2714  0.6095  0.3549
  875MOL0     O20636   9.103  10.238   4.563 -0.4488  0.1287  0.1080
  875MOL0     C20637   9.219  10.299   4.562 -0.6924 -0.7266  0.9529
  875MOL0     C20638   9.337  10.230   4.581  0.6289  0.3953  0.2890
  875MOL0     C20639   9.463  10.296   4.566  0.3165 -0.8400  0.1651
  875MOL0     C20640   9.585  10.212   4.589  0.3217  0.2035  0.4032
  875MOL0     C20641   9.472  10.438   4.541  0.3816 -0.3595  0.2067
  875MOL0     C20642   9.596  10.523   4.534 -0.2924  0.2504  0.2017
  875MOL0     O20643   9.587  10.657   4.485 -0.0716  1.0599 -0.3026
  875MOL0     C20644   9.704  10.718   4.450  0.0972 -0.2281 -0.2127
  875MOL0     C20645   9.817  10.729   4.534 -0.0082 -1.3820 -0.0222
  875MOL0     C20646   9.939  10.780   4.479  0.5715 -0.1426 -0.0454
  875MOL0     C20647   9.941  10.831   4.347 -0.4843 -1.0592 -0.4302
  875MOL0     O20648  10.060  10.871   4.307 -0.1319  0.4281 -0.5542
  875MOL0     C20649  10.076  10.908   4.170 -0.0072  0.3764 -0.4253
  875MOL0     C20650  10.222  10.952   4.142  0.3364 -0.3136 -0.0618
  875MOL0     C20651  10.316  10.826   4.135 -0.4614 -0.1063 -0.0148
  875MOL0     C20652  10.465  10.854   4.109  0.3653  0.2737 -0.1929
  875MOL0     C20653  10.542  10.729   4.059  1.1185 -0.3915  0.6126
  875MOL0     C20654  10.579  10.640   4.178  0.1079  0.1399  0.3458
  875MOL0     C20655  10.597  10.492   4.137  0.7351  0.2178 -0.2087
  875MOL0     C20656  10.727  10.482   4.057 -0.0788 -0.9094 -0.0303
  875MOL0    Cl20657  10.745  10.318   4.010  0.1706  0.0362 -0.1586
  875MOL0     C20658   9.823  10.825   4.266 -0.6269  0.8292 -0.1114
  875MOL0     C20659   9.707  10.771   4.323 -0.2751  0.3763 -0.1523
  875MOL0     O20660   9.698  10.467   4.565  0.6363  0.0110 -0.3153
  875MOL0     C20661   9.345  10.506   4.537 -0.2195  0.1120  0.8785
  875MOL0     C20662   9.226  10.436   4.541  0.2013 -0.7256  0.7388
  875MOL0     N20663   8.800  10.300   5.064  0.3176  0.8288  1.0111
  875MOL0     N20664   8.719  10.265   5.162 -0.2461  0.2697 -0.7218
  875MOL0     C20665   8.509  10.678   6.030  0.8946 -0.2097 -0.0332
  875MOL0     C20666   8.410  10.777   6.014 -0.1158 -0.3078 -0.2529
  875MOL0     C20667   7.998  10.907   5.884 -0.1925 -0.7288  1.1670
  875MOL0     C20668   7.905  10.942   5.783  0.1242 -0.1220 -0.7904
  875MOL0     C20669   7.795  11.023   5.815  0.1255  0.8882 -0.6233
  875MOL0     C20670   7.773  11.065   5.949 -0.0560 -0.7544  0.7969
  875MOL0     O20671   7.671  11.151   5.946  0.3371 -0.1893 -0.4618
  875MOL0     C20672   7.623  11.223   6.067 -0.1216 -1.0663 -0.3860
  875MOL0     C20673   7.578  11.369   6.032  0.2964  0.1031 -0.4943
  875MOL0     C20674   7.692  11.457   5.978  0.2360  0.2304 -0.2538
  875MOL0     C20675   7.657  11.605   5.977 -0.8193  0.2104  0.2834
  875MOL0     C20676   7.598  11.632   5.847 -0.9560  0.5720 -0.3834
  875MOL0     C20677   7.523  11.635   5.757  0.3716  1.3254 -0.5752
  875MOL0     C20678   7.862  11.030   6.048  0.3938 -0.0042  0.1868
  875MOL0     C20679   7.974  10.942   6.024  0.1956 -0.7064 -0.0508
  875MOL0     C20680   8.055  10.903   6.145  0.4742  0.2954  0.4539
  875MOL0     H20681   8.338  10.744   5.689 -2.8501 -3.8557  0.4280
  875MOL0     H20682   8.527  10.570   5.708 -0.8801  1.5648 -1.3028
  875MOL0     H20683   8.826  10.576   5.930  0.1477 -0.8300  1.3855
  875MOL0     H20684   8.756  10.564   5.759  1.6762 -0.5376  0.0344
  875MOL0     H20685   8.931  10.383   5.804 -0.0605  2.8310 -0.2797
  875MOL0     H20686   8.819  10.330   5.932 -0.9079  3.2903  0.5395
  875MOL0     H20687   8.639  10.295   5.775  0.7227  0.8345  1.4263
  875MOL0     H20688   8.727  10.361   5.641 -1.1704 -0.4874 -0.0305
  875MOL0     H20689   8.892  10.174   5.651  0.3086  0.5061 -0.6209
  875MOL0     H20690   8.810  10.129   5.791  1.0734  3.4243  1.1726
  875MOL0     H20691   8.602  10.076   5.647  0.6327  0.5376  2.1891
  875MOL0     H20692   8.749   9.981   5.608 -0.0335 -0.0195  0.6514
  875MOL0     H20693   8.680  10.221   5.454 -0.3397 -0.0131 -0.8372
  875MOL0     H20694   8.812  10.112   5.412 -0.7193  1.1038 -1.2299
  875MOL0     H20695   8.546   9.979   5.421  0.4525 -2.6568 -0.3413
  875MOL0     H20696   8.717   9.947   5.336 -0.2273  1.9390 -1.9691
  875MOL0     H20697   8.530   9.992   5.200  1.4773 -0.4447 -0.6001
  875MOL0     H20698   8.515  10.154   5.280 -1.2242 -1.6242 -0.3754
  875MOL0     H20699   8.705   9.974   5.019  1.9162 -1.4754  2.1800
  875MOL0     H20700   8.926  10.093   4.857 -1.6178 -0.2382  2.2783
  875MOL0     H20701   8.945  10.276   4.865 -0.7217  1.5672 -1.4055
  875MOL0     H20702   8.719  10.128   4.731  0.1984  0.8828 -0.7516
  875MOL0     H20703   8.729  10.308   4.754 -2.4284 -0.4308 -1.5160
  875MOL0     H20704   8.905  10.117   4.577  0.8672  1.4127 -1.2643
  875MOL0     H20705   8.788  10.233   4.519  0.8829  0.6810  0.8201
  875MOL0     H20706   8.960  10.368   4.485  0.2234  1.1805  0.5729
  875MOL0     H20707   8.984  10.379   4.667 -0.2883 -1.3529  1.8530
  875MOL0     H20708   9.327  10.124   4.597  0.2878 -0.0350 -2.3597
  875MOL0     H20709   9.653  10.232   4.505  0.5147  0.1603  0.5471
  875MOL0     H20710   9.549  10.109   4.593 -0.0240  0.1989 -1.5680
  875MOL0     H20711   9.627  10.227   4.688  1.7717 -2.2276  0.2367
  875MOL0     H20712   9.816  10.703   4.639 -0.4511  3.0895  1.2533
  875MOL0     H20713  10.028  10.787   4.540 -0.6088  0.6644  1.6509
  875MOL0     H20714  10.060  10.824   4.102  1.3816  0.1651 -0.5277
  875MOL0     H20715  10.006  10.986   4.138 -0.1144  0.3209 -0.3266
  875MOL0     H20716  10.226  10.996   4.042 -1.0809 -0.5330 -0.2338
  875MOL0     H20717  10.261  11.016   4.221  0.5142 -1.8226  1.1334
  875MOL0     H20718  10.274  10.757   4.063 -1.8440  0.3912  0.2881
  875MOL0     H20719  10.306  10.769   4.228  1.3586 -0.8388 -0.2232
  875MOL0     H20720  10.508  10.903   4.197 -1.0087  1.2915 -0.0660
  875MOL0     H20721  10.473  10.933   4.034 -0.8504  1.7557  1.1982
  875MOL0     H20722  10.479  10.669   3.992  0.8224  2.2850 -1.6965
  875MOL0     H20723  10.625  10.766   3.997  2.7190 -0.7625  2.4119
  875MOL0     H20724  10.504  10.646   4.257 -1.5333 -2.1334 -0.9406
  875MOL0     H20725  10.673  10.666   4.228 -0.4685 -0.7206  1.9599
  875MOL0     H20726  10.512  10.458   4.078  0.1534  1.4711 -0.1089
  875MOL0     H20727  10.612  10.438   4.231 -0.1090  0.6429  0.1828
  875MOL0     H20728  10.810  10.517   4.119 -1.4661  1.4421  0.6273
  875MOL0     H20729  10.723  10.540   3.964 -0.2002 -0.5047  0.2247
  875MOL0     H20730   9.845  10.857   4.165  1.9914  2.0527  0.7467
  875MOL0     H20731   9.612  10.778   4.270 -0.7268  3.6634  0.8187
  875MOL0     H20732   9.337  10.613   4.517 -1.0436 -0.3838 -1.9805
  875MOL0     H20733   9.133  10.491   4.550 -1.0754 -2.2049 -2.1429
  875MOL0     H20734   8.542  10.655   6.131 -0.9962  0.9665  0.9026
  875MOL0     H20735   8.383  10.844   6.094 -0.5921  1.9474 -2.1931
  875MOL0     H20736   7.918  10.914   5.679  1.9350  3.2258 -1.6211
  875MOL0     H20737   7.714  11.046   5.747 -1.0352 -1.0933 -0.0047
  875MOL0     H20738   7.540  11.170   6.115  1.2749 -2.1648  0.9583
  875MOL0     H20739   7.712  11.228   6.130 -1.5195 -0.6533  1.6367
  875MOL0     H20740   7.546  11.405   6.131  3.3630  1.2749  0.1912
  875MOL0     H20741   7.493  11.367   5.963  0.9840  2.7628 -1.5522
  875MOL0     H20742   7.774  11.445   6.050 -1.6665  0.7326  2.1105
  875MOL0     H20743   7.720  11.432   5.876 -1.0465  1.2327 -0.8836
  875MOL0     H20744   7.749  11.665   5.972 -0.3956 -0.4919 -0.5218
  875MOL0     H20745   7.589  11.643   6.054 -1.9358  0.2065 -0.6730
  875MOL0     H20746   7.437  11.627   5.693 -0.7455  1.7861  0.8067
  875MOL0     H20747   7.838  11.050   6.152 -0.2752 -1.3259  0.3096
  875MOL0     H20748   8.038  10.796   6.165 -1.9174  0.3872 -0.7462
  875MOL0     H20749   8.164  10.905   6.136  0.4189 -0.9123 -0.8565
  875MOL0     H20750   8.030  10.959   6.235  0.6274  0.4331  0.4103
  876MOL0     O20751   6.534   7.708   6.661  1.0572 -0.1830  0.4819
  876MOL0     C20752   6.536   7.587   6.625  0.2304  0.6450 -0.3491
  876MOL0     O20753   6.645   7.527   6.562  0.7396 -0.1836 -0.4064
  876MOL0     C20754   6.752   7.611   6.529  0.7916 -0.6155  0.1856
  876MOL0     C20755   6.780   7.637   6.392  0.6314  0.8901 -0.2252
  876MOL0     C20756   6.896   7.706   6.355 -0.1379 -0.4705  0.3386
  876MOL0     C20757   6.984   7.766   6.447  0.1725  0.6200 -0.4451
  876MOL0     O20758   7.099   7.835   6.419 -0.9716 -0.1025  0.1584
  876MOL0     C20759   7.078   7.970   6.369 -0.3064 -0.3897 -0.6927
  876MOL0     C20760   7.201   7.996   6.283  0.6316 -0.1224 -0.3056
  876MOL0     C20761   7.333   8.009   6.359 -0.6497  0.2832  0.9077
  876MOL0     C20762   7.456   8.023   6.263  0.3351  0.5709  0.8123
  876MOL0     C20763   7.576   8.047   6.348  0.4322 -0.0151  0.1057
  876MOL0     C20764   7.686   8.069   6.250 -0.4522 -0.1142  0.0793
  876MOL0     C20765   7.815   8.131   6.313  0.4407 -0.1351  0.4682
  876MOL0     C20766   7.886   8.020   6.399 -0.6629  0.1451 -0.2196
  876MOL0     N20767   7.919   7.899   6.319 -0.4159  0.0874 -0.0851
  876MOL0     C20768   7.983   7.907   6.195 -0.1462  0.0056 -0.0251
  876MOL0     C20769   8.024   7.782   6.181 -0.2077 -0.0371  0.6784
  876MOL0     C20770   8.121   7.728   6.078  0.4478 -0.2172 -0.1389
  876MOL0     C20771   8.255   7.687   6.142  0.0646  0.6686 -0.5658
  876MOL0     C20772   8.351   7.652   6.035 -0.5050  0.0128  0.4461
  876MOL0     C20773   8.491   7.622   6.098  0.1503  0.6715 -0.4490
  876MOL0     O20774   8.588   7.638   5.997 -0.4913  0.6020 -0.1645
  876MOL0     C20775   8.713   7.603   6.031 -0.0590 -0.2715  0.6096
  876MOL0     C20776   8.760   7.550   6.151 -0.8924  0.3991  0.1446
  876MOL0     C20777   8.896   7.529   6.174  0.4144  0.5991 -0.2239
  876MOL0     C20778   8.936   7.442   6.291  0.0143 -0.0033  0.4479
  876MOL0     C20779   8.992   7.576   6.083  0.0146 -0.2964 -0.3892
  876MOL0     C20780   9.142   7.573   6.102  0.0272  0.9072 -0.0346
  876MOL0     O20781   9.199   7.615   6.210  0.4142 -0.5972 -0.6722
  876MOL0     C20782   9.142   7.718   6.284  0.4701  0.3062  0.2110
  876MOL0     C20783   9.138   7.696   6.419  0.2689 -0.2661  0.8816
  876MOL0     C20784   9.098   7.803   6.503  0.1240 -0.5206  0.5771
  876MOL0     C20785   9.058   7.924   6.451  1.4622  0.1881  0.4935
  876MOL0     O20786   9.003   8.017   6.532  0.3115 -0.1540 -0.3038
  876MOL0     C20787   8.863   8.010   6.572 -0.1513 -0.3655  0.1499
  876MOL0     C20788   8.828   8.088   6.701 -0.2560 -0.1765 -0.7850
  876MOL0     C20789   8.694   8.057   6.742 -0.2753  0.2995 -0.5448
  876MOL0     C20790   8.664   8.091   6.889 -0.5650  0.0129 -0.3427
  876MOL0     C20791   8.549   8.023   6.958 -0.0790 -0.3605 -0.1711
  876MOL0     C20792   8.536   8.069   7.102 -0.8430  0.3099 -0.3247
  876MOL0     C20793   8.500   8.216   7.117  0.0723 -0.8303  0.8145
  876MOL0     C20794   8.449   8.253   7.257 -0.0797 -0.2052 -0.4326
  876MOL0    Cl20795   8.579   8.247   7.378  0.0308 -0.2684  0.0373
  876MOL0     C20796   9.067   7.951   6.318 -0.0102 -0.3767 -0.0237
  876MOL0     C20797   9.108   7.847   6.234  0.7125  0.1726  0.9376
  876MOL0     O20798   9.202   7.524   6.005  0.2856  0.6303  0.0273
  876MOL0     C20799   8.946   7.618   5.958  0.2335 -0.0641  0.5717
  876MOL0     C20800   8.812   7.629   5.935 -0.1551  0.1962  0.0882
  876MOL0     N20801   7.975   7.703   6.280  0.2633 -0.1260 -0.5126
  876MOL0     N20802   7.921   7.773   6.367  0.0195  0.4443 -0.0337
  876MOL0     C20803   6.952   7.742   6.582  0.3258 -0.3356 -0.1664
  876MOL0     C20804   6.841   7.672   6.625  0.1718  0.0659  0.5987
  876MOL0     C20805   6.420   7.506   6.666 -1.3336  0.2679  0.4135
  876MOL0     C20806   6.438   7.364   6.681  0.3720  0.3799 -0.4526
  876MOL0     C20807   6.329   7.272   6.702  0.1663  0.2043 -0.6374
  876MOL0     C20808   6.206   7.323   6.733 -0.2200  0.2651 -0.3229
  876MOL0     O20809   6.116   7.226   6.775 -0.3827  0.2259  0.2440
  876MOL0     C20810   5.974   7.249   6.767 -1.1029 -0.2390  0.2694
  876MOL0     C20811   5.905   7.143   6.849  0.0916 -0.0826  1.6781
  876MOL0     C20812   5.963   7.005   6.817 -0.2202 -0.6097  0.1867
  876MOL0     C20813   5.869   6.890   6.864 -0.1100  0.8007 -0.8825
  876MOL0     C20814   5.860   6.886   7.009 -0.4198 -0.2788  0.6989
  876MOL0     C20815   5.861   6.880   7.125  0.9948  0.7077 -0.0211
  876MOL0     C20816   6.179   7.462   6.715  0.2839  0.0590 -0.1750
  876MOL0     C20817   6.283   7.553   6.681 -0.7293  1.0822 -0.0560
  876MOL0     C20818   6.245   7.701   6.679  0.4656  0.7011  0.3783
  876MOL0     H20819   6.708   7.600   6.320 -2.3713  2.3508  1.7920
  876MOL0     H20820   6.913   7.723   6.249 -1.1818 -0.3161  0.1850
  876MOL0     H20821   7.075   8.030   6.460 -2.4873 -2.1376  0.5047
  876MOL0     H20822   6.992   7.970   6.302  1.1011 -0.2731 -2.5828
  876MOL0     H20823   7.193   7.923   6.202 -0.4673  1.7842 -2.0140
  876MOL0     H20824   7.183   8.089   6.229 -0.2337  0.6107  1.1870
  876MOL0     H20825   7.322   8.087   6.435  0.6474  1.8534 -0.4427
  876MOL0     H20826   7.355   7.920   6.419 -0.3436 -0.2300  0.0591
  876MOL0     H20827   7.469   7.946   6.186  2.5267  1.4851  0.1833
  876MOL0     H20828   7.430   8.111   6.204  1.2155  1.2984  1.4916
  876MOL0     H20829   7.601   7.958   6.406  1.0700  0.0889  0.0039
  876MOL0     H20830   7.558   8.138   6.406  0.2444 -0.1720  0.2920
  876MOL0     H20831   7.706   7.975   6.197  2.4224  1.0186 -1.0865
  876MOL0     H20832   7.648   8.140   6.176  1.6001 -0.2567 -1.1842
  876MOL0     H20833   7.795   8.227   6.360 -0.1210 -0.3928  0.7612
  876MOL0     H20834   7.879   8.164   6.230 -2.6598  1.4595 -1.4499
  876MOL0     H20835   7.975   8.061   6.447  0.0405  0.6656 -1.8736
  876MOL0     H20836   7.815   7.998   6.479  0.5536  2.6406  1.6493
  876MOL0     H20837   8.010   7.997   6.140  1.1579  0.8208  1.8394
  876MOL0     H20838   8.144   7.805   6.003 -0.8253  0.3092 -0.0139
  876MOL0     H20839   8.078   7.640   6.030  1.7434 -1.6855  1.2701
  876MOL0     H20840   8.286   7.775   6.199 -2.0391  0.8290  0.4558
  876MOL0     H20841   8.239   7.608   6.216  1.8656  2.4767  1.9595
  876MOL0     H20842   8.329   7.565   5.971  1.1367  1.2992 -2.0223
  876MOL0     H20843   8.379   7.739   5.975  1.9138 -1.6959 -1.1069
  876MOL0     H20844   8.499   7.692   6.182 -0.1526  0.4538 -0.2350
  876MOL0     H20845   8.492   7.521   6.140 -0.2987  1.3651  1.3362
  876MOL0     H20846   8.693   7.506   6.224  0.2459  0.9490  1.5892
  876MOL0     H20847   9.029   7.482   6.332  0.4410 -1.1219  0.5927
  876MOL0     H20848   8.958   7.339   6.263 -0.8868  0.3298 -1.6198
  876MOL0     H20849   8.856   7.442   6.366 -0.2174 -3.1934  0.3287
  876MOL0     H20850   9.160   7.594   6.449  1.4247 -1.1229 -2.4456
  876MOL0     H20851   9.090   7.787   6.610 -0.9949  0.5329  0.6762
  876MOL0     H20852   8.815   8.056   6.485  0.7272  1.6473  0.6674
  876MOL0     H20853   8.837   7.906   6.592  0.5699 -0.8174 -1.1376
  876MOL0     H20854   8.891   8.067   6.788 -0.2138 -3.3840 -1.4528
  876MOL0     H20855   8.841   8.193   6.674  3.4953  0.1558  1.5654
  876MOL0     H20856   8.678   7.949   6.736 -3.1326  0.6637 -0.9988
  876MOL0     H20857   8.620   8.110   6.682 -1.8779  0.4362  1.4311
  876MOL0     H20858   8.630   8.195   6.893 -1.7343 -0.3932  2.6551
  876MOL0     H20859   8.758   8.075   6.944 -1.4516  0.4465  1.3719
  876MOL0     H20860   8.452   8.031   6.907 -1.1677  0.3147  1.8910
  876MOL0     H20861   8.580   7.919   6.972  4.0376  0.7909  0.5188
  876MOL0     H20862   8.627   8.043   7.156 -0.8489 -0.7818 -0.7986
  876MOL0     H20863   8.453   8.013   7.147  0.4644 -0.4066  1.2738
  876MOL0     H20864   8.424   8.260   7.052  0.8514 -0.5995  0.0478
  876MOL0     H20865   8.591   8.270   7.089 -1.7722  1.9837 -0.2249
  876MOL0     H20866   8.361   8.189   7.269 -1.8109  1.6746 -2.1082
  876MOL0     H20867   8.417   8.358   7.261  0.3464 -0.1102  2.2568
  876MOL0     H20868   9.033   8.044   6.273  1.3669 -0.7968 -2.0859
  876MOL0     H20869   9.113   7.870   6.128  1.0090 -0.5645  0.7839
  876MOL0     H20870   9.009   7.658   5.878 -3.2182  0.4728 -2.1492
  876MOL0     H20871   8.795   7.676   5.839 -2.6063 -2.0952 -0.7197
  876MOL0     H20872   7.026   7.775   6.655 -0.7499  2.7204 -0.3133
  876MOL0     H20873   6.844   7.651   6.732  0.3781 -0.7641  0.4445
  876MOL0     H20874   6.535   7.318   6.665 -1.1087 -2.2151 -2.9975
  876MOL0     H20875   6.350   7.165   6.699  3.3173  0.7158 -0.6490
  876MOL0     H20876   5.947   7.348   6.802 -2.9962 -0.1196 -1.3430
  876MOL0     H20877   5.941   7.254   6.663 -2.1278  0.3405  0.6147
  876MOL0     H20878   5.797   7.148   6.836  0.0522  5.0073  2.0461
  876MOL0     H20879   5.933   7.166   6.952 -0.6973  1.5501  1.5557
  876MOL0     H20880   5.992   6.990   6.713  3.2433  1.7549  0.6499
  876MOL0     H20881   6.064   6.996   6.857 -0.4400  0.2384  0.9869
  876MOL0     H20882   5.901   6.792   6.827  2.3645  1.5878 -1.0168
  876MOL0     H20883   5.763   6.900   6.841 -0.6981  0.4923  1.4111
  876MOL0     H20884   5.876   6.874   7.231 -1.0769 -0.3699  0.2586
  876MOL0     H20885   6.083   7.508   6.736  1.1670  2.0874 -0.4005
  876MOL0     H20886   6.314   7.774   6.723  0.5272  1.5276 -1.0251
  876MOL0     H20887   6.233   7.718   6.572 -0.7461 -3.0545 -0.2525
  876MOL0     H20888   6.159   7.729   6.740 -0.3737 -0.0610 -0.4190
  877MOL0     O20889   9.120   7.469   9.656 -0.2862  0.2965 -0.0494
  877MOL0     C20890   9.098   7.502   9.536  0.0839  0.6119 -0.8363
  877MOL0     O20891   9.168   7.590   9.466 -0.8520 -0.0056  0.3445
  877MOL0     C20892   9.302   7.601   9.487  0.9462  0.5634  0.5324
  877MOL0     C20893   9.385   7.492   9.503  0.3968 -0.2839  0.3934
  877MOL0     C20894   9.520   7.520   9.531 -0.1163 -0.8371 -0.7672
  877MOL0     C20895   9.574   7.656   9.542  0.0977 -0.3025 -0.7972
  877MOL0     O20896   9.705   7.677   9.578  0.6533 -0.2108 -0.9068
  877MOL0     C20897   9.732   7.781   9.676 -0.3877 -0.6135  0.7242
  877MOL0     C20898   9.873   7.764   9.731  0.0536 -0.7247 -0.1678
  877MOL0     C20899   9.989   7.816   9.642  0.1762 -0.0614 -0.8148
  877MOL0     C20900   9.998   7.963   9.642  0.0100  0.1127  0.3115
  877MOL0     C20901  10.104   8.019   9.536 -0.0374 -0.6937 -0.3135
  877MOL0     C20902  10.249   7.972   9.569 -0.4835  0.2918 -0.1047
  877MOL0     C20903  10.357   8.041   9.487  0.2903 -0.4024  0.3236
  877MOL0     C20904  10.417   7.943   9.378 -0.2084  0.0038 -0.4407
  877MOL0     N20905  10.507   8.005   9.279  0.1730  0.0198 -0.5264
  877MOL0     C20906  10.488   8.101   9.186  0.0835 -0.5705  0.1294
  877MOL0     C20907  10.612   8.133   9.136 -0.0071 -0.9861 -0.4838
  877MOL0     C20908  10.620   8.253   9.050  0.2802  0.3133 -0.0900
  877MOL0     C20909  10.740   8.332   9.086 -0.8040 -0.4853  0.3800
  877MOL0     C20910  10.723   8.477   9.041 -1.1848  0.6263 -0.7314
  877MOL0     C20911  10.858   8.557   9.068 -0.3824  0.8310  0.0720
  877MOL0     O20912  10.968   8.487   8.997  0.0969  0.7668 -0.5741
  877MOL0     C20913  11.091   8.464   9.063  0.4196 -0.0514  0.4466
  877MOL0     C20914  11.190   8.408   8.975 -0.4953 -0.5673  0.5091
  877MOL0     C20915  11.313   8.357   9.027 -0.1124  0.0418 -0.3385
  877MOL0     C20916  11.416   8.298   8.930  0.1524  0.5885 -0.1458
  877MOL0     C20917  11.334   8.352   9.169 -0.0356  0.4287 -0.6926
  877MOL0     C20918  11.457   8.292   9.240  0.8578  0.0240 -0.4995
  877MOL0     O20919  11.462   8.304   9.374 -0.6002  0.1071  0.1921
  877MOL0     C20920  11.577   8.272   9.437 -0.8333  0.7627 -0.1430
  877MOL0     C20921  11.707   8.325   9.407 -0.1894  0.5696  0.8347
  877MOL0     C20922  11.821   8.306   9.487  0.8124 -1.0709 -0.0729
  877MOL0     C20923  11.808   8.234   9.609  0.1749 -0.2850  0.1738
  877MOL0     O20924  11.914   8.203   9.685  0.4606 -0.5838  0.8669
  877MOL0     C20925  11.954   8.069   9.699 -0.2782  0.1448  0.6959
  877MOL0     C20926  12.080   8.062   9.770  0.3166  0.1688 -0.1357
  877MOL0     C20927  12.212   8.076   9.690  0.9834 -0.1134 -1.0108
  877MOL0     C20928  12.326   8.023   9.778 -0.3449  0.2751 -0.0874
  877MOL0     C20929  12.332   7.871   9.809 -0.9089 -0.0161  0.2156
  877MOL0     C20930  12.429   7.844   9.926 -1.0256 -0.5290 -0.1301
  877MOL0     C20931  12.392   7.918  10.056 -0.7041 -0.5140  0.1389
  877MOL0     C20932  12.454   7.867  10.191 -0.2468 -0.4406 -0.2645
  877MOL0    Cl20933  12.605   7.955  10.241 -0.3917 -0.4083 -0.0441
  877MOL0     C20934  11.684   8.189   9.648  0.2034 -0.4303  0.2039
  877MOL0     C20935  11.571   8.200   9.561  0.1921  0.8802 -0.7098
  877MOL0     O20936  11.536   8.235   9.173  0.2542 -0.6506 -0.7115
  877MOL0     C20937  11.234   8.411   9.253  0.2702 -1.2303 -0.3484
  877MOL0     C20938  11.123   8.467   9.203  0.6428 -0.1637 -0.2602
  877MOL0     N20939  10.702   8.042   9.184 -0.1297  0.4478 -0.0718
  877MOL0     N20940  10.641   7.969   9.277  0.4257  0.6906  0.7710
  877MOL0     C20941   9.477   7.760   9.509  0.2203  0.2654  0.3380
  877MOL0     C20942   9.342   7.733   9.481  0.3254  0.3149 -0.2697
  877MOL0     C20943   8.962   7.464   9.481  1.0756 -0.7007 -0.0078
  877MOL0     C20944   8.892   7.360   9.547  0.5334  0.9131  0.0071
  877MOL0     C20945   8.766   7.310   9.499 -0.1500  0.0860 -0.1209
  877MOL0     C20946   8.699   7.376   9.400 -0.3843 -0.9562  0.2361
  877MOL0     O20947   8.570   7.334   9.382  0.0796 -0.1480 -0.1490
  877MOL0     C20948   8.493   7.393   9.278  0.0179  0.1300 -0.1810
  877MOL0     C20949   8.351   7.341   9.264  1.2227  0.8423  0.0843
  877MOL0     C20950   8.253   7.399   9.364  0.6096  0.3726 -0.0380
  877MOL0     C20951   8.128   7.304   9.407  0.0686  0.0879 -0.1049
  877MOL0     C20952   8.039   7.278   9.290 -0.6889 -0.2156  0.0915
  877MOL0     C20953   7.959   7.247   9.201 -0.1089 -0.0934 -0.0062
  877MOL0     C20954   8.764   7.485   9.344  0.5842 -0.0710  0.4483
  877MOL0     C20955   8.893   7.530   9.378 -0.2122  0.0813  0.6676
  877MOL0     C20956   8.944   7.650   9.302 -0.4385 -0.2556  0.0149
  877MOL0     H20957   9.358   7.387   9.498  2.5440 -0.8789  0.4117
  877MOL0     H20958   9.577   7.432   9.559 -3.0884 -3.5753 -2.7030
  877MOL0     H20959   9.655   7.766   9.752 -1.5724  2.1321  0.1797
  877MOL0     H20960   9.711   7.881   9.638 -1.9806 -1.7505 -1.5959
  877MOL0     H20961   9.888   7.819   9.825 -0.3747  0.4656 -0.7723
  877MOL0     H20962   9.880   7.657   9.753  1.2944 -0.8612 -1.1232
  877MOL0     H20963  10.083   7.776   9.680 -1.2986 -0.6624  2.6174
  877MOL0     H20964   9.964   7.765   9.548 -1.7365  1.5441 -1.2611
  877MOL0     H20965   9.900   7.993   9.604  0.1175 -0.2231 -0.2468
  877MOL0     H20966  10.027   7.992   9.743  2.9801 -2.5772  0.4022
  877MOL0     H20967  10.104   8.127   9.524  3.8045 -0.4309  0.9185
  877MOL0     H20968  10.065   7.971   9.445 -1.3425  1.4212 -0.9338
  877MOL0     H20969  10.262   7.987   9.676  1.6644 -0.9954 -0.1420
  877MOL0     H20970  10.259   7.864   9.564 -0.9770  0.2580 -0.5236
  877MOL0     H20971  10.431   8.091   9.551 -1.0722 -0.0956  1.7140
  877MOL0     H20972  10.311   8.128   9.440 -0.0058 -0.7266  0.0081
  877MOL0     H20973  10.476   7.868   9.430  1.0779  1.5091  0.3615
  877MOL0     H20974  10.333   7.892   9.329 -1.0730 -0.1207  1.1240
  877MOL0     H20975  10.394   8.152   9.169  0.1895 -0.5725 -0.4659
  877MOL0     H20976  10.526   8.307   9.060 -0.5594 -0.6202 -2.4061
  877MOL0     H20977  10.633   8.207   8.952  1.8928 -1.1558  0.7632
  877MOL0     H20978  10.761   8.332   9.193  0.5239 -0.2776  0.1306
  877MOL0     H20979  10.826   8.289   9.033 -2.2123  1.6721 -4.1041
  877MOL0     H20980  10.696   8.486   8.936  0.5809  0.9054 -1.1958
  877MOL0     H20981  10.641   8.525   9.095 -2.6544  0.5107 -2.7713
  877MOL0     H20982  10.840   8.660   9.036 -1.7568  0.6796  0.2965
  877MOL0     H20983  10.883   8.560   9.174  1.0107  1.2234 -0.2533
  877MOL0     H20984  11.173   8.387   8.870 -2.0922  0.4336  0.5291
  877MOL0     H20985  11.427   8.191   8.948 -2.8974  0.2337  0.1352
  877MOL0     H20986  11.512   8.351   8.942  0.8533 -0.9457  1.3868
  877MOL0     H20987  11.388   8.310   8.825  0.4077 -1.0790 -0.4332
  877MOL0     H20988  11.708   8.389   9.319  2.1646  0.6764  0.8539
  877MOL0     H20989  11.918   8.342   9.454  0.4707 -1.6087 -1.8000
  877MOL0     H20990  11.877   8.013   9.753 -0.9164  2.7045  2.6122
  877MOL0     H20991  11.967   8.025   9.599 -0.1487  2.3601 -0.3230
  877MOL0     H20992  12.082   8.134   9.853  0.3913 -2.0827  1.9290
  877MOL0     H20993  12.080   7.963   9.816  0.1488  0.6450  0.9379
  877MOL0     H20994  12.223   8.182   9.667  0.9037  0.5137  1.5718
  877MOL0     H20995  12.207   8.024   9.594  4.0095  1.6116 -2.2309
  877MOL0     H20996  12.329   8.079   9.872  2.4971 -0.2141  0.1951
  877MOL0     H20997  12.417   8.047   9.723 -0.3314  0.0031 -0.1842
  877MOL0     H20998  12.235   7.835   9.847 -0.5588  0.1570  1.3093
  877MOL0     H20999  12.362   7.809   9.724  1.2746  1.6935 -0.3439
  877MOL0     H21000  12.527   7.877   9.893 -1.0149 -1.1910 -0.7890
  877MOL0     H21001  12.431   7.736   9.944 -0.2605 -0.8571 -1.9326
  877MOL0     H21002  12.285   7.901  10.070 -0.5606 -4.0767 -1.9989
  877MOL0     H21003  12.415   8.025  10.045  0.2732 -0.5849  1.2558
  877MOL0     H21004  12.470   7.759  10.181  0.9637 -0.1044 -2.3248
  877MOL0     H21005  12.378   7.895  10.265 -0.2633 -0.7261 -0.1688
  877MOL0     H21006  11.679   8.140   9.745 -0.1287  0.2183  0.5178
  877MOL0     H21007  11.473   8.161   9.585  0.8750 -0.3050  0.3527
  877MOL0     H21008  11.252   8.411   9.360 -3.3468 -0.6184  0.4008
  877MOL0     H21009  11.048   8.511   9.268 -0.2030  0.1890 -1.4352
  877MOL0     H21010   9.498   7.866   9.503 -1.5798  0.8287  2.5753
  877MOL0     H21011   9.278   7.816   9.452 -0.5945 -1.3536 -3.5018
  877MOL0     H21012   8.935   7.307   9.632 -0.2326  0.2757  0.0066
  877MOL0     H21013   8.729   7.232   9.565 -0.4058 -0.4199 -0.8495
  877MOL0     H21014   8.476   7.498   9.300 -2.9218 -0.5284  1.0905
  877MOL0     H21015   8.552   7.377   9.187 -0.7508 -1.3194 -0.4625
  877MOL0     H21016   8.340   7.234   9.283 -0.5512  1.4861  3.3976
  877MOL0     H21017   8.309   7.356   9.164  0.1140  0.8752  0.5377
  877MOL0     H21018   8.310   7.420   9.455  0.7123 -0.5403  0.1204
  877MOL0     H21019   8.214   7.494   9.326 -1.3556  0.1842  1.3769
  877MOL0     H21020   8.070   7.337   9.494  0.3404 -4.5130  2.1311
  877MOL0     H21021   8.161   7.201   9.426  2.0641  0.0638 -3.1097
  877MOL0     H21022   7.883   7.238   9.126  1.9731 -1.0903 -2.1322
  877MOL0     H21023   8.703   7.547   9.279  0.4138 -0.2975  0.3916
  877MOL0     H21024   8.877   7.699   9.229  3.2080  1.9561 -2.1729
  877MOL0     H21025   8.972   7.725   9.376  2.0625 -1.5249  0.4618
  877MOL0     H21026   9.033   7.630   9.243 -0.2324  0.6741 -0.0036
  878MOL0     O21027   5.697   2.005   0.278 -0.3271  0.4735 -0.2676
  878MOL0     C21028   5.696   2.114   0.336  0.0751 -0.2726  0.3311
  878MOL0     O21029   5.805   2.191   0.360  0.1459 -0.3087 -0.7016
  878MOL0     C21030   5.936   2.152   0.334 -1.1868  0.0551  0.5338
  878MOL0     C21031   5.984   2.021   0.375 -0.6228 -0.3828 -0.0759
  878MOL0     C21032   6.115   1.993   0.350  0.1711 -0.2952 -0.2540
  878MOL0     C21033   6.197   2.087   0.293 -0.5648 -0.8262 -0.3650
  878MOL0     O21034   6.330   2.049   0.267 -0.2252  0.4836 -0.1950
  878MOL0     C21035   6.348   2.051   0.122 -0.2453 -0.0749  0.1532
  878MOL0     C21036   6.482   1.998   0.090  0.5188 -0.6129 -0.1272
  878MOL0     C21037   6.592   2.082   0.152 -0.3018 -0.6733  0.0475
  878MOL0     C21038   6.740   2.042   0.118 -0.2596 -0.1477  0.4043
  878MOL0     C21039   6.832   2.120   0.201 -0.0890 -0.6472 -0.8126
  878MOL0     C21040   6.978   2.076   0.215  0.9407 -0.0724  0.9944
  878MOL0     C21041   7.060   2.146   0.322  0.4149  0.6188  0.4110
  878MOL0     C21042   7.059   2.297   0.305 -0.9573  0.1702 -0.4100
  878MOL0     N21043   7.123   2.322   0.172  0.0072 -0.3535  0.6217
  878MOL0     C21044   7.256   2.312   0.149  0.6319  0.6138 -0.9199
  878MOL0     C21045   7.281   2.351   0.024 -0.8568  0.7226  0.6337
  878MOL0     C21046   7.416   2.358  -0.035  0.4870 -0.1459 -0.3953
  878MOL0     C21047   7.401   2.390  -0.179 -0.5067 -0.5487  0.1952
  878MOL0     C21048   7.542   2.382  -0.249 -1.0060  0.3056 -0.1725
  878MOL0     C21049   7.646   2.479  -0.190  0.9098  1.2533 -0.2388
  878MOL0     O21050   7.722   2.526  -0.298 -0.3687 -0.2306 -0.2230
  878MOL0     C21051   7.839   2.598  -0.274  0.1267  0.0258 -0.1823
  878MOL0     C21052   7.853   2.658  -0.147  0.9474 -0.0070 -0.8232
  878MOL0     C21053   7.966   2.734  -0.119  0.6321  0.1837  0.2229
  878MOL0     C21054   7.971   2.781   0.026 -0.9721  0.0267 -0.4217
  878MOL0     C21055   8.058   2.762  -0.220 -1.0281  1.1627 -0.7632
  878MOL0     C21056   8.172   2.865  -0.212  0.0754 -0.1723  0.4656
  878MOL0     O21057   8.234   2.894  -0.329  0.2343 -0.0292 -0.1556
  878MOL0     C21058   8.321   2.996  -0.335 -1.8702 -0.5820 -0.6592
  878MOL0     C21059   8.280   3.116  -0.404 -0.0631 -0.0611 -0.0489
  878MOL0     C21060   8.362   3.231  -0.399 -0.1576  0.6235  0.4880
  878MOL0     C21061   8.485   3.218  -0.338 -1.0670  0.5774 -0.4345
  878MOL0     O21062   8.556   3.338  -0.343 -0.6161  0.1500 -0.0092
  878MOL0     C21063   8.688   3.342  -0.281 -0.4207 -0.6037  0.1424
  878MOL0     C21064   8.771   3.472  -0.301 -1.0145 -0.3095  0.1853
  878MOL0     C21065   8.699   3.595  -0.245 -0.0308  0.0583 -0.3100
  878MOL0     C21066   8.805   3.710  -0.252  0.4317  0.5523 -0.5379
  878MOL0     C21067   8.730   3.830  -0.182  0.6353  0.3659 -0.2823
  878MOL0     C21068   8.821   3.951  -0.163 -0.6822  0.7422 -0.3004
  878MOL0     C21069   8.745   4.078  -0.125  0.1156  0.3465 -0.4843
  878MOL0     C21070   8.652   4.056  -0.014 -0.4199  0.0909 -1.0431
  878MOL0    Cl21071   8.732   3.996   0.133  0.3575 -0.2232  0.1429
  878MOL0     C21072   8.539   3.097  -0.278  1.2819  0.1566  0.6187
  878MOL0     C21073   8.446   2.996  -0.263  0.3225  0.4796 -0.5500
  878MOL0     O21074   8.188   2.927  -0.108 -0.1147 -1.2823 -0.9659
  878MOL0     C21075   8.038   2.698  -0.346  0.0386  0.9616 -0.4878
  878MOL0     C21076   7.928   2.615  -0.375 -0.8055 -0.0911  0.3290
  878MOL0     N21077   7.152   2.366  -0.034  0.3746 -0.3412  0.6027
  878MOL0     N21078   7.057   2.353   0.050  0.3960  0.2262 -0.7101
  878MOL0     C21079   6.156   2.213   0.262  0.5536 -0.1494 -1.0703
  878MOL0     C21080   6.024   2.250   0.286  0.0603  0.3668 -0.0394
  878MOL0     C21081   5.559   2.176   0.363  0.2327 -0.0049 -0.4151
  878MOL0     C21082   5.438   2.091   0.347 -0.6763 -0.2276 -0.9334
  878MOL0     C21083   5.312   2.148   0.364 -0.6903  0.1948  0.6545
  878MOL0     C21084   5.297   2.289   0.382  1.1039 -0.1678 -0.0298
  878MOL0     O21085   5.178   2.350   0.404 -0.1315 -0.5882  0.5707
  878MOL0     C21086   5.071   2.308   0.320  0.0524  0.0371  0.0703
  878MOL0     C21087   4.942   2.394   0.351 -0.1937 -0.2395  1.0650
  878MOL0     C21088   4.916   2.415   0.497 -0.4185 -0.6376 -0.2319
  878MOL0     C21089   4.788   2.492   0.518  0.5769  0.1042  0.2450
  878MOL0     C21090   4.739   2.487   0.660 -0.3164  0.4579  0.1674
  878MOL0     C21091   4.708   2.473   0.778 -0.3106  0.3754 -0.5845
  878MOL0     C21092   5.409   2.359   0.403 -0.2408  0.3766  0.3961
  878MOL0     C21093   5.542   2.315   0.390  0.1309 -0.6320  0.0125
  878MOL0     C21094   5.652   2.417   0.413  0.0982 -0.5231 -0.3052
  878MOL0     H21095   5.912   1.948   0.412 -1.7158  0.4459 -0.5019
  878MOL0     H21096   6.156   1.894   0.368  0.3506 -0.0039  1.0389
  878MOL0     H21097   6.347   2.147   0.071 -1.5928  0.1758  0.5922
  878MOL0     H21098   6.273   1.989   0.071 -1.5010  1.9268 -0.5451
  878MOL0     H21099   6.489   1.898   0.132  1.4342 -0.5189 -0.0281
  878MOL0     H21100   6.495   2.002  -0.019 -2.1240  1.2497 -0.4729
  878MOL0     H21101   6.587   2.179   0.101  1.2468  0.1247  1.3403
  878MOL0     H21102   6.586   2.094   0.261  0.1765  1.1893 -0.0835
  878MOL0     H21103   6.753   1.935   0.133 -0.0083 -0.2522 -0.4940
  878MOL0     H21104   6.757   2.078   0.016 -2.3628  1.0235  0.3932
  878MOL0     H21105   6.807   2.122   0.307  0.9295  0.2157 -0.5714
  878MOL0     H21106   6.825   2.216   0.149 -0.8996 -1.0464 -1.4674
  878MOL0     H21107   6.974   1.972   0.250 -0.4600 -0.5636 -0.4677
  878MOL0     H21108   7.038   2.083   0.124  1.6505  1.6639  1.5558
  878MOL0     H21109   7.160   2.102   0.318  0.8413  1.5959 -3.1335
  878MOL0     H21110   7.015   2.131   0.420 -0.8320 -1.2936 -0.3913
  878MOL0     H21111   6.960   2.341   0.323 -0.2240  1.3051  1.0567
  878MOL0     H21112   7.125   2.341   0.381 -1.5978 -0.0085  0.2640
  878MOL0     H21113   7.327   2.276   0.224 -1.7887  0.4742  1.4411
  878MOL0     H21114   7.473   2.265  -0.025 -0.8896 -1.0890 -1.0186
  878MOL0     H21115   7.468   2.435   0.024  2.1630 -0.8882 -0.8527
  878MOL0     H21116   7.346   2.309  -0.229 -1.4996 -1.3980  2.5151
  878MOL0     H21117   7.352   2.487  -0.187 -1.0935 -0.6728  1.8250
  878MOL0     H21118   7.582   2.280  -0.252 -0.5941  0.4323  0.6220
  878MOL0     H21119   7.519   2.408  -0.353  0.4458  0.7067 -0.4129
  878MOL0     H21120   7.596   2.555  -0.130  0.5880  1.5977 -0.9367
  878MOL0     H21121   7.709   2.433  -0.112 -2.9069 -0.7260  2.0234
  878MOL0     H21122   7.773   2.652  -0.074 -0.2896 -2.6588 -2.2505
  878MOL0     H21123   8.038   2.712   0.078  1.4085  2.4523 -0.0372
  878MOL0     H21124   7.871   2.776   0.070 -1.0619 -0.9238 -0.7245
  878MOL0     H21125   8.003   2.886   0.029  1.2553 -0.4437 -3.2848
  878MOL0     H21126   8.182   3.112  -0.450 -0.4264 -2.1245  0.7881
  878MOL0     H21127   8.332   3.324  -0.447  0.2857  1.1134  1.1462
  878MOL0     H21128   8.677   3.329  -0.173 -1.1061  6.0668  1.3469
  878MOL0     H21129   8.751   3.271  -0.335 -1.5219  1.8915 -5.1139
  878MOL0     H21130   8.866   3.463  -0.248 -0.9898  0.5618  0.3050
  878MOL0     H21131   8.798   3.493  -0.404 -3.7918 -2.0566 -1.0139
  878MOL0     H21132   8.660   3.585  -0.143 -0.7438 -0.6895 -0.6509
  878MOL0     H21133   8.609   3.609  -0.305 -1.2227 -3.6816  0.3474
  878MOL0     H21134   8.825   3.726  -0.358 -0.0769  2.8192 -0.3465
  878MOL0     H21135   8.902   3.678  -0.212  1.4972  1.9082 -1.9278
  878MOL0     H21136   8.640   3.867  -0.231  0.4571  1.5772  0.8882
  878MOL0     H21137   8.704   3.785  -0.085  0.2768  0.5001 -0.3149
  878MOL0     H21138   8.883   3.955  -0.252  0.6603 -3.0767  0.3084
  878MOL0     H21139   8.889   3.927  -0.081 -0.0676  2.3766 -0.2834
  878MOL0     H21140   8.690   4.116  -0.212  1.3231 -1.4289 -2.1395
  878MOL0     H21141   8.813   4.157  -0.092  0.3331 -1.0694  2.7795
  878MOL0     H21142   8.569   3.996  -0.053  0.1112 -0.7719 -0.8619
  878MOL0     H21143   8.612   4.153   0.018  0.7026 -0.6755  3.2083
  878MOL0     H21144   8.641   3.080  -0.245  0.0220 -3.9909  3.2191
  878MOL0     H21145   8.466   2.899  -0.217 -0.9526  0.5223  0.1644
  878MOL0     H21146   8.102   2.719  -0.431 -0.3065  1.3590 -0.6580
  878MOL0     H21147   7.930   2.583  -0.478  0.1640 -2.6705  1.0790
  878MOL0     H21148   6.227   2.284   0.222 -0.7645  2.2779  0.5968
  878MOL0     H21149   5.979   2.346   0.263 -2.7369 -0.9153 -0.3094
  878MOL0     H21150   5.446   1.987   0.320  1.6511  0.0678 -1.6410
  878MOL0     H21151   5.230   2.079   0.345 -0.8793  0.3506  0.8991
  878MOL0     H21152   5.090   2.295   0.213  0.6705  0.2701  0.1464
  878MOL0     H21153   5.044   2.207   0.351 -3.0966 -0.2379 -3.0562
  878MOL0     H21154   4.857   2.348   0.300 -0.5688  2.9487 -1.5469
  878MOL0     H21155   4.955   2.488   0.296  1.7174  0.4768  2.5800
  878MOL0     H21156   4.892   2.317   0.540 -1.3253 -0.2042  0.2686
  878MOL0     H21157   4.999   2.464   0.547 -0.7146 -2.6085  2.4128
  878MOL0     H21158   4.704   2.451   0.462 -0.3215  4.2954 -1.9037
  878MOL0     H21159   4.813   2.596   0.493  0.1362  0.2136  0.2534
  878MOL0     H21160   4.671   2.473   0.878 -3.3455 -2.2912 -1.5289
  878MOL0     H21161   5.397   2.462   0.434 -3.1105 -0.2279  1.5793
  878MOL0     H21162   5.706   2.375   0.498 -0.0481  0.6029  0.3701
  878MOL0     H21163   5.718   2.433   0.327 -0.6387 -1.8628 -1.1512
  878MOL0     H21164   5.627   2.522   0.432 -0.1367 -0.4303 -1.0863
  879MOL0     O21165   2.195   7.827   0.418 -0.8761  0.2532  0.0136
  879MOL0     C21166   2.240   7.745   0.344  0.0533  0.0719 -0.2880
  879MOL0     O21167   2.350   7.762   0.264  0.6027  0.3084  0.4493
  879MOL0     C21168   2.392   7.888   0.255 -0.3312 -0.3220 -0.7670
  879MOL0     C21169   2.496   7.939   0.340 -0.7590  0.2259  0.2705
  879MOL0     C21170   2.522   8.075   0.332  0.1851  1.0861 -0.3387
  879MOL0     C21171   2.464   8.161   0.242 -0.3531  0.4788  0.6726
  879MOL0     O21172   2.498   8.294   0.232  0.1199  0.9497  0.4623
  879MOL0     C21173   2.632   8.333   0.271 -0.4417 -0.5322  0.6125
  879MOL0     C21174   2.657   8.474   0.227  0.6620  0.1442  0.3629
  879MOL0     C21175   2.791   8.539   0.271 -0.2841  0.3496  1.1587
  879MOL0     C21176   2.910   8.461   0.217  1.7324  0.1051 -0.1178
  879MOL0     C21177   3.045   8.523   0.234  0.2124 -1.1113 -0.3911
  879MOL0     C21178   3.158   8.447   0.166 -0.8133 -0.2111  0.5404
  879MOL0     C21179   3.298   8.498   0.194 -0.5868  0.0814  0.1461
  879MOL0     C21180   3.318   8.641   0.142 -0.8595 -0.3127  0.0689
  879MOL0     N21181   3.317   8.657  -0.000 -0.1716  0.1899  0.8262
  879MOL0     C21182   3.430   8.644  -0.083  0.4378  0.2948  0.9020
  879MOL0     C21183   3.378   8.695  -0.201 -0.3729 -0.0689 -0.6753
  879MOL0     C21184   3.450   8.695  -0.331  0.4432 -0.6803 -0.3557
  879MOL0     C21185   3.484   8.840  -0.385 -0.2795 -0.0517 -0.2853
  879MOL0     C21186   3.534   8.823  -0.527  0.0883  0.0041  0.5064
  879MOL0     C21187   3.593   8.943  -0.589 -0.0280 -0.8883 -0.2387
  879MOL0     O21188   3.663   9.024  -0.493  0.7176  0.6518  0.0873
  879MOL0     C21189   3.801   9.008  -0.497  0.6277 -0.9290 -0.4023
  879MOL0     C21190   3.875   8.928  -0.413 -0.6658 -0.7558  0.7814
  879MOL0     C21191   4.014   8.918  -0.422 -0.7136  0.4725  0.1031
  879MOL0     C21192   4.075   8.803  -0.334 -0.1457 -0.1965 -0.1036
  879MOL0     C21193   4.077   8.995  -0.525  0.7587 -1.3072 -0.5478
  879MOL0     C21194   4.224   9.002  -0.546 -0.0191 -0.1645 -1.2029
  879MOL0     O21195   4.310   8.942  -0.456  0.1549 -0.2392 -0.4699
  879MOL0     C21196   4.443   8.921  -0.490 -0.2996  0.6676 -0.2492
  879MOL0     C21197   4.542   9.009  -0.450  0.1267  0.3646 -0.2155
  879MOL0     C21198   4.674   8.978  -0.479 -0.5344 -0.8328  0.1672
  879MOL0     C21199   4.708   8.868  -0.554 -0.2026 -0.5262 -0.5643
  879MOL0     O21200   4.836   8.827  -0.578  0.2561  0.1065 -0.5529
  879MOL0     C21201   4.945   8.915  -0.599  0.1380  0.0288 -0.5689
  879MOL0     C21202   5.078   8.836  -0.624  0.2486  0.5401 -0.2436
  879MOL0     C21203   5.094   8.778  -0.767 -0.1129 -0.2204  0.1442
  879MOL0     C21204   5.233   8.714  -0.784 -0.5122 -0.3452  1.0891
  879MOL0     C21205   5.251   8.652  -0.927  0.0195  0.1797  0.2933
  879MOL0     C21206   5.392   8.601  -0.961  0.2121 -0.6794 -0.0588
  879MOL0     C21207   5.483   8.711  -1.015  0.3683 -0.1921  0.6948
  879MOL0     C21208   5.621   8.670  -1.065 -0.2420  0.3564  0.3748
  879MOL0    Cl21209   5.730   8.805  -1.074 -0.1975  0.0866 -0.5254
  879MOL0     C21210   4.610   8.775  -0.588  0.0701 -0.1819 -0.4613
  879MOL0     C21211   4.475   8.806  -0.556 -0.3512  0.0908  0.2168
  879MOL0     O21212   4.259   9.064  -0.642 -0.3001 -0.4264 -0.4635
  879MOL0     C21213   4.000   9.082  -0.612  0.7565 -0.0431  0.3930
  879MOL0     C21214   3.863   9.077  -0.601  0.1282 -0.6980  0.2424
  879MOL0     N21215   3.243   8.728  -0.187 -0.1266 -0.2350  0.2949
  879MOL0     N21216   3.209   8.708  -0.065  0.2392  0.7010 -0.6185
  879MOL0     C21217   2.373   8.105   0.146 -0.2611  1.1083  0.9187
  879MOL0     C21218   2.332   7.972   0.159 -0.1310 -0.3876 -0.4002
  879MOL0     C21219   2.195   7.601   0.350  0.4429 -1.0442  0.5076
  879MOL0     C21220   2.224   7.513   0.248 -0.2892 -0.0390 -0.0020
  879MOL0     C21221   2.188   7.382   0.248  0.5415  0.6255  0.6341
  879MOL0     C21222   2.109   7.328   0.349 -0.8296 -0.2057 -0.8359
  879MOL0     O21223   2.048   7.206   0.348  0.0122  0.4064 -0.6457
  879MOL0     C21224   2.095   7.107   0.251  0.8963  0.1923  0.1001
  879MOL0     C21225   2.237   7.043   0.276  0.3979 -0.5131  1.2190
  879MOL0     C21226   2.249   6.929   0.178  0.0354 -0.0109 -0.3094
  879MOL0     C21227   2.369   6.839   0.220  0.0647 -0.2413  0.3389
  879MOL0     C21228   2.501   6.899   0.233  0.1976  1.1348  0.1116
  879MOL0     C21229   2.601   6.956   0.251 -0.5682  1.7337  0.5160
  879MOL0     C21230   2.090   7.410   0.460  1.5274  0.0215 -1.1194
  879MOL0     C21231   2.122   7.547   0.462  0.2932  0.0967 -0.3581
  879MOL0     C21232   2.110   7.605   0.601 -0.4698  0.6764 -0.2855
  879MOL0     H21233   2.558   7.871   0.397  2.6025  1.9227 -1.0872
  879MOL0     H21234   2.596   8.101   0.407 -0.6006 -0.4244  1.0389
  879MOL0     H21235   2.709   8.272   0.223  0.8108  0.6048  1.1215
  879MOL0     H21236   2.652   8.331   0.379  0.5872  1.4850  0.5011
  879MOL0     H21237   2.653   8.477   0.118  0.0395  0.4942  0.3892
  879MOL0     H21238   2.577   8.533   0.272 -1.0172 -1.1413 -0.8055
  879MOL0     H21239   2.798   8.645   0.242 -0.8330 -0.4357 -2.2825
  879MOL0     H21240   2.794   8.543   0.380  0.3153 -1.1184  1.2211
  879MOL0     H21241   2.910   8.362   0.264 -1.4864 -0.2399 -0.6102
  879MOL0     H21242   2.890   8.442   0.111  0.2266 -1.1602  0.3456
  879MOL0     H21243   3.064   8.544   0.340 -0.7857 -3.6733  0.3869
  879MOL0     H21244   3.041   8.622   0.188  0.5234 -0.2375  1.3577
  879MOL0     H21245   3.143   8.345   0.202  0.5625  0.2833  2.7046
  879MOL0     H21246   3.144   8.440   0.057 -3.0055 -0.0642  0.7661
  879MOL0     H21247   3.375   8.438   0.146 -0.2800  0.4163  0.2152
  879MOL0     H21248   3.320   8.484   0.301  0.2413 -1.2191 -0.1700
  879MOL0     H21249   3.237   8.704   0.180 -0.4833 -0.4751  1.1570
  879MOL0     H21250   3.406   8.680   0.193 -0.6389 -2.5820  1.5797
  879MOL0     H21251   3.532   8.607  -0.068  0.7654  1.6263  2.2050
  879MOL0     H21252   3.374   8.649  -0.395 -0.6797  0.0797  0.3926
  879MOL0     H21253   3.539   8.633  -0.316  3.2405  2.8922 -0.8968
  879MOL0     H21254   3.392   8.899  -0.377 -1.5359 -2.1244  2.5953
  879MOL0     H21255   3.568   8.874  -0.324 -1.4671 -2.4521  3.0401
  879MOL0     H21256   3.609   8.744  -0.526  0.4091  0.2632 -0.8168
  879MOL0     H21257   3.452   8.783  -0.588 -2.1893  0.7537  2.8562
  879MOL0     H21258   3.659   8.922  -0.674  1.9461  1.6554  0.5361
  879MOL0     H21259   3.519   9.018  -0.620 -1.1723 -1.7079  0.4270
  879MOL0     H21260   3.823   8.868  -0.339 -1.3952  0.0057  0.9080
  879MOL0     H21261   4.004   8.762  -0.262 -0.6572  0.7049 -0.0776
  879MOL0     H21262   4.161   8.825  -0.270 -1.2888 -2.1372  2.2399
  879MOL0     H21263   4.110   8.723  -0.400 -1.4039  0.2895 -1.4455
  879MOL0     H21264   4.518   9.101  -0.398 -1.8952 -2.1293  3.7021
  879MOL0     H21265   4.756   9.046  -0.457  0.0233 -0.5480 -2.5029
  879MOL0     H21266   4.917   8.984  -0.679 -0.5856  1.3067  0.7374
  879MOL0     H21267   4.967   8.970  -0.508 -1.9153  0.5121 -0.3045
  879MOL0     H21268   5.149   8.919  -0.623 -0.9837  1.6289 -0.6736
  879MOL0     H21269   5.091   8.760  -0.546 -0.0853  0.3665 -0.3549
  879MOL0     H21270   5.088   8.858  -0.841  0.4646  0.1376  0.4747
  879MOL0     H21271   5.017   8.708  -0.803  0.1591 -0.1286 -0.6272
  879MOL0     H21272   5.259   8.645  -0.703  0.0588  0.7257  1.8427
  879MOL0     H21273   5.311   8.790  -0.775  0.0712 -0.5779 -1.3732
  879MOL0     H21274   5.181   8.568  -0.927 -2.0478  1.7698 -2.3088
  879MOL0     H21275   5.227   8.728  -1.001 -3.2971  0.2402  1.2912
  879MOL0     H21276   5.377   8.523  -1.037 -3.4076 -1.6511  1.4041
  879MOL0     H21277   5.442   8.566  -0.870  0.7491 -1.1723 -0.5348
  879MOL0     H21278   5.497   8.787  -0.938  0.1289 -1.5334  2.1083
  879MOL0     H21279   5.437   8.763  -1.099  0.8698  2.3898  1.9402
  879MOL0     H21280   5.610   8.628  -1.165  0.1820  2.9916 -0.8712
  879MOL0     H21281   5.649   8.595  -0.991 -2.6792 -1.6431 -0.6057
  879MOL0     H21282   4.644   8.684  -0.636  2.5197 -0.3272  1.3689
  879MOL0     H21283   4.403   8.731  -0.586 -1.1923  1.3206 -0.9342
  879MOL0     H21284   4.034   9.142  -0.695 -0.3981  1.0021  0.6519
  879MOL0     H21285   3.804   9.131  -0.674 -0.2780 -1.3111  0.1050
  879MOL0     H21286   2.335   8.164   0.064 -1.5337 -0.1552  0.5554
  879MOL0     H21287   2.253   7.941   0.091 -0.4570  2.9213 -1.7537
  879MOL0     H21288   2.281   7.549   0.164  0.5347  0.2950  0.6820
  879MOL0     H21289   2.207   7.332   0.154 -2.0737  1.7283 -0.5833
  879MOL0     H21290   2.027   7.022   0.240  2.2761 -1.1708  1.4834
  879MOL0     H21291   2.093   7.150   0.151 -0.1332 -0.3994 -0.1402
  879MOL0     H21292   2.238   7.002   0.378  0.0325 -1.6463  0.7839
  879MOL0     H21293   2.316   7.118   0.272 -0.1033 -0.0319 -0.4678
  879MOL0     H21294   2.157   6.869   0.178  0.3073 -0.4377 -0.0572
  879MOL0     H21295   2.263   6.965   0.076  0.1818  3.5679  0.8435
  879MOL0     H21296   2.370   6.759   0.145 -2.6523  1.2828 -1.5252
  879MOL0     H21297   2.361   6.803   0.323  2.7203 -1.5935  0.1486
  879MOL0     H21298   2.699   6.999   0.256  0.0194  0.3028  2.4524
  879MOL0     H21299   2.020   7.376   0.535  1.0895 -0.1983 -1.6217
  879MOL0     H21300   2.025   7.567   0.658 -0.0122  3.1544  2.2893
  879MOL0     H21301   2.197   7.579   0.661 -0.6764  0.9210  0.1270
  879MOL0     H21302   2.095   7.713   0.590 -2.5770  0.5063  0.4515
  880MOL0     O21303   0.997   9.376   6.126  0.9029  0.0500 -0.6393
  880MOL0     C21304   0.924   9.468   6.081 -0.9713  0.6371 -0.6305
  880MOL0     O21305   0.967   9.596   6.062  0.0655  0.1070  0.5341
  880MOL0     C21306   1.096   9.611   6.109  0.1969 -0.5029 -0.3809
  880MOL0     C21307   1.200   9.610   6.027 -0.2297 -0.3188  1.1184
  880MOL0     C21308   1.329   9.655   6.064 -0.2107  0.6776 -0.2966
  880MOL0     C21309   1.351   9.694   6.198 -0.5256 -0.0784  0.3053
  880MOL0     O21310   1.475   9.726   6.249  0.4174 -0.3458  0.3446
  880MOL0     C21311   1.586   9.641   6.207  0.0970  0.7100 -0.7586
  880MOL0     C21312   1.727   9.694   6.237 -0.0536 -0.4619 -0.0519
  880MOL0     C21313   1.834   9.600   6.183 -0.2236  0.3773  0.0818
  880MOL0     C21314   1.962   9.620   6.261 -0.2703  0.4612  0.2655
  880MOL0     C21315   2.083   9.525   6.228 -0.2181  0.1712 -0.2311
  880MOL0     C21316   2.156   9.549   6.093  0.6898  0.0426 -0.0751
  880MOL0     C21317   2.252   9.433   6.053  0.1425  0.1376 -0.2820
  880MOL0     C21318   2.368   9.422   6.157  0.5096 -0.1480 -0.0214
  880MOL0     N21319   2.493   9.362   6.106 -0.1658 -0.6530 -0.2411
  880MOL0     C21320   2.537   9.242   6.151 -0.8085  0.6506 -0.3276
  880MOL0     C21321   2.672   9.242   6.122  0.7556 -0.5491 -0.8804
  880MOL0     C21322   2.769   9.134   6.159 -0.5567  0.5425 -0.2697
  880MOL0     C21323   2.888   9.188   6.250 -0.1193 -0.2946 -0.1721
  880MOL0     C21324   3.010   9.086   6.261  0.3445 -0.4510  0.0956
  880MOL0     C21325   3.094   9.106   6.393 -0.4303 -0.4389  0.1616
  880MOL0     O21326   3.176   9.226   6.379  0.9128 -0.7061 -0.4625
  880MOL0     C21327   3.305   9.209   6.344 -0.6801  0.3025  0.4216
  880MOL0     C21328   3.396   9.306   6.368 -1.1084 -0.4372  0.4558
  880MOL0     C21329   3.534   9.290   6.346  0.1400 -0.9838  0.4397
  880MOL0     C21330   3.609   9.410   6.382  0.5583 -0.3228 -0.5079
  880MOL0     C21331   3.593   9.176   6.287  0.2944 -0.2377  0.3277
  880MOL0     C21332   3.735   9.151   6.268  0.1957 -0.2630  0.1491
  880MOL0     O21333   3.771   9.015   6.260  0.7234  0.3176 -0.3800
  880MOL0     C21334   3.908   9.003   6.239  0.6434 -0.2870  0.2110
  880MOL0     C21335   3.971   9.046   6.122 -0.5157 -0.0768 -0.4552
  880MOL0     C21336   4.106   9.027   6.089 -0.0998  0.5531  0.8551
  880MOL0     C21337   4.183   8.954   6.187 -0.1794  0.3234  0.6394
  880MOL0     O21338   4.319   8.924   6.160 -0.2859 -1.1767 -0.0348
  880MOL0     C21339   4.389   8.988   6.051  0.3187  0.3868 -0.0357
  880MOL0     C21340   4.537   8.951   6.073  0.2096 -0.8805 -0.6385
  880MOL0     C21341   4.632   9.016   5.970 -1.3461  0.2916  0.2146
  880MOL0     C21342   4.776   8.959   5.970  0.1860  0.0277  0.7115
  880MOL0     C21343   4.847   9.022   5.845  0.2177 -0.1312 -0.1006
  880MOL0     C21344   4.994   8.979   5.843  0.0945  0.5736 -0.0625
  880MOL0     C21345   5.072   9.049   5.730  0.1600 -0.2577  0.2686
  880MOL0     C21346   5.204   9.097   5.781  0.2538  0.2186  0.8822
  880MOL0    Cl21347   5.327   8.972   5.829 -0.4873  0.2886 -0.3833
  880MOL0     C21348   4.121   8.916   6.308 -0.8729  0.2292  1.2320
  880MOL0     C21349   3.987   8.940   6.328  0.0095  0.2310  0.0695
  880MOL0     O21350   3.816   9.244   6.266  1.3655 -0.4787  0.0919
  880MOL0     C21351   3.497   9.076   6.266 -0.4968  0.1323 -0.4381
  880MOL0     C21352   3.357   9.085   6.292  0.5616 -0.0064  0.6236
  880MOL0     N21353   2.709   9.351   6.063 -0.0802 -0.0944  0.5573
  880MOL0     N21354   2.602   9.423   6.052 -0.3342  0.4797  0.0983
  880MOL0     C21355   1.239   9.698   6.287 -0.3056  0.0534  1.1613
  880MOL0     C21356   1.119   9.661   6.238 -0.0482  0.1034 -0.8145
  880MOL0     C21357   0.789   9.437   6.059  0.6021  0.6930 -0.0074
  880MOL0     C21358   0.724   9.461   5.937 -0.1756 -0.0384  0.2130
  880MOL0     C21359   0.582   9.468   5.921 -1.2205  0.6650  0.0611
  880MOL0     C21360   0.507   9.429   6.034  0.9955 -0.3734  0.8779
  880MOL0     O21361   0.368   9.444   6.032  0.3680 -0.6830 -0.4281
  880MOL0     C21362   0.289   9.478   5.914  0.6398 -0.1338  0.4397
  880MOL0     C21363   0.265   9.634   5.924  0.8719 -1.0233  0.6105
  880MOL0     C21364   0.160   9.660   6.034 -0.7124 -0.2232  0.8137
  880MOL0     C21365   0.161   9.808   6.067 -0.5371  1.4167  0.1000
  880MOL0     C21366   0.292   9.848   6.125  0.5723 -0.3820  0.1677
  880MOL0     C21367   0.396   9.878   6.184  0.6942  0.4037  0.9988
  880MOL0     C21368   0.561   9.391   6.151  0.0569  0.2470 -0.3085
  880MOL0     C21369   0.705   9.389   6.170 -0.4788  0.1388  0.9743
  880MOL0     C21370   0.763   9.356   6.314 -0.4371 -0.7521  0.4944
  880MOL0     H21371   1.188   9.571   5.926  1.1776  0.2279  0.7274
  880MOL0     H21372   1.410   9.639   5.993 -1.7132 -0.8120 -1.7539
  880MOL0     H21373   1.584   9.645   6.098  2.7560  1.7407 -0.8488
  880MOL0     H21374   1.568   9.540   6.244  0.8833  0.7354 -0.2843
  880MOL0     H21375   1.740   9.799   6.207 -1.9437 -0.2865 -0.3751
  880MOL0     H21376   1.730   9.707   6.346  0.2299  0.9113 -0.2049
  880MOL0     H21377   1.799   9.497   6.198  2.8506 -0.6151  1.1216
  880MOL0     H21378   1.844   9.615   6.075  1.8820  2.3590  0.4849
  880MOL0     H21379   1.983   9.726   6.248  0.1101  0.4380  0.7023
  880MOL0     H21380   1.934   9.594   6.363 -1.7051 -2.1979 -0.6933
  880MOL0     H21381   2.043   9.423   6.231  1.0986 -0.3984  3.0080
  880MOL0     H21382   2.152   9.547   6.311 -0.9546 -2.8740  1.3537
  880MOL0     H21383   2.080   9.553   6.016  0.1428 -0.1603  0.4477
  880MOL0     H21384   2.217   9.639   6.086  0.2173  0.2492 -2.3711
  880MOL0     H21385   2.292   9.454   5.954  3.6521  0.8888  1.1261
  880MOL0     H21386   2.195   9.340   6.059 -0.2494  0.3186 -1.1502
  880MOL0     H21387   2.396   9.525   6.182  0.7973 -1.0854  4.2085
  880MOL0     H21388   2.341   9.370   6.249  2.0250 -2.6944 -0.9038
  880MOL0     H21389   2.482   9.166   6.206 -0.4470  0.4519 -0.2351
  880MOL0     H21390   2.802   9.095   6.062  2.9939  2.0306  0.1820
  880MOL0     H21391   2.715   9.055   6.212 -2.0163  1.8921  0.3520
  880MOL0     H21392   2.929   9.275   6.197  0.0945  0.3146  0.9696
  880MOL0     H21393   2.854   9.226   6.347 -1.0460  1.2616 -1.0534
  880MOL0     H21394   2.975   8.984   6.246  0.5948 -0.5894  0.4452
  880MOL0     H21395   3.081   9.105   6.179  1.0875 -2.6258  0.1681
  880MOL0     H21396   3.023   9.134   6.472 -1.5916 -0.7859 -0.7243
  880MOL0     H21397   3.139   9.011   6.422 -1.7545 -0.6566  1.6675
  880MOL0     H21398   3.381   9.407   6.405  6.3238  2.2192 -2.0891
  880MOL0     H21399   3.608   9.476   6.295 -1.5603 -1.0311 -1.0844
  880MOL0     H21400   3.707   9.383   6.423  0.1005  0.1474  0.9612
  880MOL0     H21401   3.557   9.462   6.464  1.6007  1.7222 -1.0836
  880MOL0     H21402   3.903   9.099   6.056 -0.3200 -0.3393 -0.8713
  880MOL0     H21403   4.152   9.053   5.994  2.6798  0.8495  2.1909
  880MOL0     H21404   4.348   8.937   5.963 -3.1695 -1.4401  2.4238
  880MOL0     H21405   4.374   9.096   6.043  1.9598  0.8112  1.6806
  880MOL0     H21406   4.569   8.985   6.171  1.7882 -2.9595 -0.3738
  880MOL0     H21407   4.539   8.842   6.066 -0.1507 -1.1704  2.4720
  880MOL0     H21408   4.635   9.124   5.984 -1.4038  0.5470 -1.5753
  880MOL0     H21409   4.584   9.005   5.873 -0.5981 -2.0911  0.0498
  880MOL0     H21410   4.780   8.850   5.980  1.1084  0.0478  0.6962
  880MOL0     H21411   4.835   8.983   6.059  1.4930  0.0874 -0.1358
  880MOL0     H21412   4.805   9.003   5.746  2.8337  0.9612 -1.5138
  880MOL0     H21413   4.845   9.131   5.851  0.1048 -0.1128 -0.4267
  880MOL0     H21414   5.009   8.873   5.819  2.3214  1.0709 -1.0485
  880MOL0     H21415   5.036   9.002   5.942 -0.8611  1.7202  0.0927
  880MOL0     H21416   5.026   9.140   5.692  1.3920 -0.8773 -3.0332
  880MOL0     H21417   5.086   8.978   5.648  2.4304 -1.3654  1.4868
  880MOL0     H21418   5.192   9.161   5.870  5.2045  3.1500 -0.1466
  880MOL0     H21419   5.238   9.152   5.693 -2.0445  0.1544 -0.1089
  880MOL0     H21420   4.182   8.858   6.376  0.5265  2.5139  2.0206
  880MOL0     H21421   3.946   8.888   6.414 -2.0009  0.5014 -0.6748
  880MOL0     H21422   3.542   8.980   6.240  2.0968  1.2046 -0.1939
  880MOL0     H21423   3.286   9.004   6.281  0.7421 -0.1030  0.1381
  880MOL0     H21424   1.241   9.735   6.389  0.7945 -0.1057  1.2081
  880MOL0     H21425   1.026   9.660   6.293 -1.8991  2.3954 -3.6139
  880MOL0     H21426   0.780   9.516   5.862 -3.5471  1.5694 -1.3319
  880MOL0     H21427   0.539   9.508   5.829  1.6026  2.0586 -0.7652
  880MOL0     H21428   0.337   9.455   5.818  0.5237 -1.6810  0.7258
  880MOL0     H21429   0.196   9.420   5.913  0.2618  0.4562  0.6217
  880MOL0     H21430   0.226   9.673   5.830  1.3768  0.8663  1.1402
  880MOL0     H21431   0.356   9.692   5.942  0.2151  0.5437 -0.8127
  880MOL0     H21432   0.060   9.638   5.996 -2.0302  0.3594  3.6923
  880MOL0     H21433   0.177   9.603   6.126 -3.0669 -1.5851  0.5092
  880MOL0     H21434   0.081   9.829   6.137 -1.0477  1.1145 -0.3875
  880MOL0     H21435   0.135   9.863   5.976 -0.3262  0.7994 -0.3375
  880MOL0     H21436   0.495   9.902   6.218  3.3224  0.0140 -5.1063
  880MOL0     H21437   0.496   9.381   6.237  3.5975  0.3563  2.6489
  880MOL0     H21438   0.840   9.282   6.292 -0.7104 -0.1774 -3.1450
  880MOL0     H21439   0.808   9.444   6.360  2.1189 -0.4064 -2.3030
  880MOL0     H21440   0.686   9.318   6.381 -2.5891  0.5450 -1.0778
  881MOL0     O21441   0.558   2.476   4.174 -0.8372  0.0816 -0.2855
  881MOL0     C21442   0.526   2.445   4.285  0.6430  1.0015 -0.4976
  881MOL0     O21443   0.613   2.391   4.378 -0.0614 -0.0832 -0.5180
  881MOL0     C21444   0.748   2.413   4.374 -0.4425  0.7495  0.5615
  881MOL0     C21445   0.799   2.537   4.353  0.1828  0.2420  0.1155
  881MOL0     C21446   0.939   2.561   4.349 -0.7682 -0.5550 -0.1737
  881MOL0     C21447   1.026   2.454   4.360 -0.3863 -1.0262 -0.5354
  881MOL0     O21448   1.155   2.496   4.334 -0.0845 -0.2564 -0.4525
  881MOL0     C21449   1.257   2.392   4.317  0.2601  0.6793 -0.2364
  881MOL0     C21450   1.374   2.439   4.238 -0.2299  0.2642  0.6720
  881MOL0     C21451   1.484   2.343   4.226 -0.2509  0.0408  0.1243
  881MOL0     C21452   1.607   2.416   4.166 -0.8935 -0.3173 -1.0663
  881MOL0     C21453   1.742   2.341   4.170 -0.5273  0.2683 -0.4823
  881MOL0     C21454   1.856   2.430   4.120 -0.3237 -0.0724 -0.7891
  881MOL0     C21455   1.982   2.353   4.107 -1.0034 -0.2059 -0.2508
  881MOL0     C21456   2.099   2.450   4.073  0.6376 -0.0635  0.6557
  881MOL0     N21457   2.227   2.379   4.038  1.6065 -0.3516  0.4944
  881MOL0     C21458   2.302   2.399   3.931 -0.1082  0.1682  0.1709
  881MOL0     C21459   2.404   2.314   3.943  0.0827  0.2709 -0.0267
  881MOL0     C21460   2.516   2.308   3.845  0.2751 -0.3210  0.1449
  881MOL0     C21461   2.658   2.322   3.908 -0.2604 -0.8063 -0.7094
  881MOL0     C21462   2.754   2.357   3.795 -0.5741  0.0019 -0.0169
  881MOL0     C21463   2.891   2.406   3.843  0.8000  0.2514  0.0012
  881MOL0     O21464   2.947   2.322   3.940  0.5151 -0.1743 -0.7389
  881MOL0     C21465   3.081   2.322   3.970 -0.5800  0.2650  0.2954
  881MOL0     C21466   3.180   2.401   3.910 -0.9132  0.2618 -0.3448
  881MOL0     C21467   3.317   2.390   3.938  0.2673  0.3942 -0.2627
  881MOL0     C21468   3.405   2.469   3.849 -0.6945 -0.4971 -0.2632
  881MOL0     C21469   3.363   2.308   4.042  0.5566  0.1366 -0.1079
  881MOL0     C21470   3.510   2.307   4.076  0.0584 -0.2009  0.2292
  881MOL0     O21471   3.578   2.423   4.086 -0.1105 -0.2403 -0.1908
  881MOL0     C21472   3.717   2.427   4.097 -0.2257  1.3085 -0.3638
  881MOL0     C21473   3.759   2.540   4.158  0.4712  0.1406  0.0039
  881MOL0     C21474   3.893   2.557   4.185 -0.4420  0.0540  1.4203
  881MOL0     C21475   3.996   2.466   4.136  0.1749 -0.4345  0.4078
  881MOL0     O21476   4.127   2.480   4.156 -0.6143  0.1991  0.3993
  881MOL0     C21477   4.179   2.583   4.245  0.3894  0.6584 -0.1317
  881MOL0     C21478   4.324   2.609   4.222 -0.5299  0.3349 -0.6090
  881MOL0     C21479   4.416   2.485   4.232 -0.3010 -0.6483 -0.5304
  881MOL0     C21480   4.422   2.410   4.364  0.0272  0.0963  0.5548
  881MOL0     C21481   4.327   2.288   4.381 -0.6833  0.3769  0.5064
  881MOL0     C21482   4.361   2.207   4.512  0.6597 -0.8700 -0.2596
  881MOL0     C21483   4.262   2.094   4.533  0.1766  0.4469 -0.0302
  881MOL0     C21484   4.291   2.014   4.668 -0.2132 -0.4814 -0.1939
  881MOL0    Cl21485   4.185   1.868   4.643  0.2750  0.3474 -0.2674
  881MOL0     C21486   3.952   2.350   4.073  0.4824 -0.0853  0.3724
  881MOL0     C21487   3.815   2.331   4.049  0.7169 -0.2348 -0.3551
  881MOL0     O21488   3.553   2.194   4.105 -0.6351  0.4206 -0.7953
  881MOL0     C21489   3.258   2.234   4.105 -0.5069 -0.5052  0.4912
  881MOL0     C21490   3.130   2.234   4.065  0.1960 -0.9159  0.0447
  881MOL0     N21491   2.403   2.246   4.064  0.4535 -0.0286 -0.2928
  881MOL0     N21492   2.289   2.284   4.117  0.2229 -0.9321 -0.3286
  881MOL0     C21493   0.973   2.328   4.388  0.8961 -0.4479 -0.6126
  881MOL0     C21494   0.836   2.302   4.387 -0.2345  0.5466 -0.3434
  881MOL0     C21495   0.379   2.457   4.313  0.2643  0.4995 -0.0565
  881MOL0     C21496   0.306   2.548   4.233 -0.6646  0.4611  0.8044
  881MOL0     C21497   0.168   2.567   4.240 -0.6585 -0.3146  0.5680
  881MOL0     C21498   0.097   2.498   4.333 -0.5278 -0.0437  1.3614
  881MOL0     O21499  -0.033   2.502   4.362  0.6385 -0.4482  0.0764
  881MOL0     C21500  -0.105   2.618   4.320  0.3290 -0.1413  0.3475
  881MOL0     C21501  -0.209   2.664   4.421 -0.5234 -0.9611 -0.0226
  881MOL0     C21502  -0.318   2.553   4.440  0.3539 -0.2640 -0.1432
  881MOL0     C21503  -0.365   2.558   4.583  0.1949 -0.0304 -0.0706
  881MOL0     C21504  -0.474   2.459   4.615 -0.4503 -0.0954  0.6631
  881MOL0     C21505  -0.559   2.393   4.668  0.1951  0.7873  0.3305
  881MOL0     C21506   0.165   2.411   4.418 -0.2471 -0.9000 -0.0427
  881MOL0     C21507   0.304   2.391   4.415 -0.7875 -0.1818  0.0745
  881MOL0     C21508   0.372   2.295   4.503 -0.4895 -0.0259  0.2883
  881MOL0     H21509   0.733   2.620   4.329  1.2254  0.1912 -3.5953
  881MOL0     H21510   0.974   2.663   4.332 -4.8434  1.2121  0.8196
  881MOL0     H21511   1.219   2.298   4.276  3.6955 -1.4174  0.9875
  881MOL0     H21512   1.272   2.362   4.421 -1.4062  1.0800  0.1631
  881MOL0     H21513   1.329   2.457   4.140 -0.9940 -0.3628  0.9016
  881MOL0     H21514   1.404   2.531   4.289 -0.9549  0.9179 -0.0662
  881MOL0     H21515   1.506   2.308   4.327 -1.6614  4.1521  2.0686
  881MOL0     H21516   1.468   2.260   4.157 -2.6475 -0.0740  0.7107
  881MOL0     H21517   1.583   2.444   4.063 -1.0500  2.4515 -0.3614
  881MOL0     H21518   1.627   2.506   4.226  1.3028  0.8353 -3.3128
  881MOL0     H21519   1.733   2.257   4.101  0.9667  1.5036 -2.2889
  881MOL0     H21520   1.758   2.311   4.273 -0.2096 -0.8588 -0.8482
  881MOL0     H21521   1.827   2.477   4.026 -2.1406  1.5305  0.4955
  881MOL0     H21522   1.870   2.513   4.190 -1.8074  0.2411 -0.8375
  881MOL0     H21523   1.970   2.272   4.035  0.4686 -1.0428  0.4125
  881MOL0     H21524   2.005   2.319   4.208  2.1250 -1.1368 -1.1746
  881MOL0     H21525   2.070   2.515   3.990  3.7346  1.7491  0.8592
  881MOL0     H21526   2.102   2.521   4.156 -0.2203 -1.3118  1.8087
  881MOL0     H21527   2.276   2.463   3.848 -2.5464  0.2509  0.9387
  881MOL0     H21528   2.501   2.390   3.773 -3.1954  1.2391  2.4116
  881MOL0     H21529   2.505   2.213   3.793  3.6972  0.1798 -1.8623
  881MOL0     H21530   2.645   2.406   3.976 -1.5292  1.6158 -3.7010
  881MOL0     H21531   2.680   2.227   3.959  0.1810  0.8539  2.4405
  881MOL0     H21532   2.756   2.266   3.735 -0.2243 -0.6615  0.9638
  881MOL0     H21533   2.718   2.438   3.732  4.3437  2.3504 -0.3031
  881MOL0     H21534   2.954   2.409   3.753 -2.8012  2.8058 -2.7547
  881MOL0     H21535   2.881   2.505   3.889 -0.4018 -0.5149  1.4773
  881MOL0     H21536   3.142   2.468   3.833 -1.5338 -0.8303 -1.0078
  881MOL0     H21537   3.511   2.444   3.854 -0.8401 -0.9518  0.7232
  881MOL0     H21538   3.402   2.576   3.870 -0.1630 -0.1022 -2.0502
  881MOL0     H21539   3.366   2.445   3.749 -4.4676 -2.1618  1.3868
  881MOL0     H21540   3.697   2.622   4.193 -1.1929 -1.0484 -0.0392
  881MOL0     H21541   3.933   2.648   4.227  2.4560 -1.8493  3.0701
  881MOL0     H21542   4.130   2.680   4.237  1.3485  1.2187  0.5407
  881MOL0     H21543   4.160   2.544   4.345 -1.9159  0.7539 -0.4677
  881MOL0     H21544   4.342   2.643   4.120 -0.2585 -1.9003 -1.3755
  881MOL0     H21545   4.365   2.685   4.289  1.0203  0.0225 -1.1636
  881MOL0     H21546   4.510   2.538   4.216 -0.1401 -0.4159  1.0957
  881MOL0     H21547   4.390   2.425   4.144 -2.5735  0.9876 -1.0743
  881MOL0     H21548   4.397   2.478   4.446 -0.5445  2.1396 -1.2051
  881MOL0     H21549   4.521   2.368   4.386 -0.4859 -0.4968  1.8536
  881MOL0     H21550   4.224   2.323   4.381 -1.0079 -0.4546 -1.6138
  881MOL0     H21551   4.349   2.224   4.295  0.4884  2.2341 -0.6407
  881MOL0     H21552   4.366   2.271   4.600 -1.2220 -0.7677 -0.2044
  881MOL0     H21553   4.462   2.167   4.497  0.4941 -1.3564 -0.1046
  881MOL0     H21554   4.260   2.019   4.454  0.0199  1.0837 -0.6432
  881MOL0     H21555   4.162   2.139   4.545  0.6486  1.3979  0.4343
  881MOL0     H21556   4.261   2.065   4.759  1.2884 -0.7828  0.4982
  881MOL0     H21557   4.396   1.991   4.688  0.1354  1.0978 -0.0550
  881MOL0     H21558   4.015   2.265   4.046  0.8639  0.1403  0.5506
  881MOL0     H21559   3.793   2.241   3.993  2.5534 -0.6034 -0.5332
  881MOL0     H21560   3.276   2.170   4.190  3.0044  2.4110  2.2331
  881MOL0     H21561   3.059   2.167   4.113 -1.2616  0.0836 -0.6200
  881MOL0     H21562   1.038   2.244   4.410  0.1784 -0.5679  1.2276
  881MOL0     H21563   0.802   2.200   4.402  3.0129 -0.9470 -2.1838
  881MOL0     H21564   0.361   2.613   4.167  0.4366 -1.7796 -0.6308
  881MOL0     H21565   0.122   2.640   4.175 -1.9604  1.5468  3.3841
  881MOL0     H21566  -0.041   2.706   4.303  2.2716 -1.4362  0.6564
  881MOL0     H21567  -0.163   2.589   4.232 -0.2955 -1.7072  1.2290
  881MOL0     H21568  -0.250   2.758   4.384 -0.1397 -0.7354  0.1245
  881MOL0     H21569  -0.157   2.696   4.512 -0.5209 -1.3535  0.1181
  881MOL0     H21570  -0.400   2.578   4.373  1.5986  1.3768 -1.1238
  881MOL0     H21571  -0.271   2.457   4.416 -0.4610 -1.5476  2.8602
  881MOL0     H21572  -0.398   2.658   4.614  1.0173  0.2390 -0.0440
  881MOL0     H21573  -0.284   2.537   4.653 -0.6973  3.4094  2.2738
  881MOL0     H21574  -0.637   2.333   4.708  1.0471  0.5901  1.7651
  881MOL0     H21575   0.101   2.345   4.476 -2.3904  1.4333  0.4649
  881MOL0     H21576   0.298   2.229   4.550 -2.6975 -0.4344 -3.3609
  881MOL0     H21577   0.449   2.240   4.448  1.7063  1.5588  1.5948
  881MOL0     H21578   0.424   2.356   4.578 -1.6571 -0.0173  1.1209
  882MOL0     O21579  11.013   1.216   9.674  0.1066 -0.8938  0.4078
  882MOL0     C21580  11.097   1.286   9.617 -0.6218  0.1442  0.6953
  882MOL0     O21581  11.233   1.286   9.646  0.1686 -0.1247  0.3643
  882MOL0     C21582  11.282   1.183   9.728 -0.3493  0.7732  0.7547
  882MOL0     C21583  11.270   1.049   9.704 -0.4502 -0.7980  0.4280
  882MOL0     C21584  11.316   0.953   9.801  0.0751  0.1770  0.1088
  882MOL0     C21585  11.382   1.000   9.912 -0.5361 -0.4840 -0.3366
  882MOL0     O21586  11.433   0.919  10.013  0.8195 -0.1696  0.5717
  882MOL0     C21587  11.420   0.769  10.003 -0.4237  0.4549 -0.8544
  882MOL0     C21588  11.284   0.722  10.050 -0.7056  0.7099 -0.0915
  882MOL0     C21589  11.255   0.787  10.186  0.5562 -0.3610  0.1781
  882MOL0     C21590  11.129   0.731  10.253 -0.3503  0.0606 -0.0718
  882MOL0     C21591  11.098   0.800  10.394 -0.8121 -0.3877  0.0034
  882MOL0     C21592  10.973   0.744  10.460 -0.1527 -0.4835  0.1858
  882MOL0     C21593  10.845   0.824  10.422  0.2114  0.5531 -1.0210
  882MOL0     C21594  10.729   0.766  10.500  0.3900  0.9983 -0.1737
  882MOL0     N21595  10.737   0.796  10.641 -0.7495 -0.4172 -0.4230
  882MOL0     C21596  10.743   0.919  10.698 -0.6940 -0.1317 -0.1372
  882MOL0     C21597  10.765   0.900  10.828  0.5226  0.6641  0.4236
  882MOL0     C21598  10.777   1.000  10.940 -0.5115  0.3272  0.0176
  882MOL0     C21599  10.890   1.093  10.906 -1.4103 -0.7176  0.4652
  882MOL0     C21600  11.031   1.026  10.889 -0.6804  0.0121  0.3367
  882MOL0     C21601  11.081   0.927  10.995  0.1017 -0.5382 -0.4537
  882MOL0     O21602  11.218   0.884  10.981  0.6078 -0.4062 -0.0832
  882MOL0     C21603  11.317   0.978  10.974  0.2540  0.9411 -0.6928
  882MOL0     C21604  11.431   0.947  10.901  0.5367  0.0634 -0.4586
  882MOL0     C21605  11.545   1.027  10.892 -0.1529 -0.0680  0.4517
  882MOL0     C21606  11.664   0.958  10.813  0.6329  0.0988  0.5947
  882MOL0     C21607  11.546   1.151  10.949 -0.1500  0.5315  0.1693
  882MOL0     C21608  11.652   1.254  10.929  0.1459 -0.2157 -0.6099
  882MOL0     O21609  11.652   1.359  11.018  0.6535 -0.1790  0.5425
  882MOL0     C21610  11.739   1.466  10.990  0.4586 -0.8445 -0.4959
  882MOL0     C21611  11.875   1.443  10.977 -0.3880  0.3029 -0.5537
  882MOL0     C21612  11.973   1.543  10.976 -0.7543 -0.3619  1.3421
  882MOL0     C21613  11.928   1.671  10.973 -0.9987  0.2372  0.7201
  882MOL0     O21614  12.020   1.767  10.961  0.0710 -0.3302 -0.4153
  882MOL0     C21615  11.987   1.886  10.878  0.6499  0.2009  0.3496
  882MOL0     C21616  11.996   1.847  10.724  0.0826  0.0668 -0.8127
  882MOL0     C21617  11.941   1.948  10.632 -0.0898 -0.0625 -0.1246
  882MOL0     C21618  11.978   1.911  10.491 -0.0406 -0.9358  0.3392
  882MOL0     C21619  11.905   2.000  10.387  0.0819  0.3614  0.3481
  882MOL0     C21620  11.756   1.989  10.404  0.2808 -0.7091 -0.4251
  882MOL0     C21621  11.671   2.010  10.274  0.1394 -0.5502  0.5819
  882MOL0     C21622  11.572   1.896  10.263 -0.8618  0.4936  0.6814
  882MOL0    Cl21623  11.502   1.916  10.096  0.3216 -0.1180 -0.0886
  882MOL0     C21624  11.788   1.700  10.970 -0.8194 -0.2511 -0.3314
  882MOL0     C21625  11.698   1.598  10.990  0.3311 -0.0589 -0.1598
  882MOL0     O21626  11.736   1.234  10.835  0.4533  0.5055 -0.1749
  882MOL0     C21627  11.427   1.184  11.030  0.1278  0.1884 -0.3921
  882MOL0     C21628  11.315   1.096  11.041 -0.3265  0.5517  0.6762
  882MOL0     N21629  10.767   0.755  10.848 -0.0353  0.7532  0.5693
  882MOL0     N21630  10.764   0.699  10.737  0.1547  0.0710  1.0456
  882MOL0     C21631  11.392   1.133   9.941  0.3471  0.2399  0.0104
  882MOL0     C21632  11.347   1.224   9.847  0.5320  0.8748 -0.1147
  882MOL0     C21633  11.054   1.371   9.502  1.4525 -0.1987  0.1457
  882MOL0     C21634  11.150   1.462   9.466  0.1587  0.6105  0.9106
  882MOL0     C21635  11.122   1.544   9.357 -0.3474  0.6670  0.4316
  882MOL0     C21636  10.997   1.554   9.300  0.2707  1.7465  0.2995
  882MOL0     O21637  10.967   1.631   9.196  0.3661  0.2176  0.0524
  882MOL0     C21638  11.084   1.657   9.113  0.4128  0.2490 -0.1790
  882MOL0     C21639  11.025   1.678   8.969  0.3047 -0.6464 -0.4610
  882MOL0     C21640  10.949   1.817   8.945  0.3212 -1.1666 -0.2826
  882MOL0     C21641  10.856   1.819   8.822 -0.9982  0.0340 -0.8341
  882MOL0     C21642  10.746   1.723   8.830 -0.0920 -0.5199  0.6024
  882MOL0     C21643  10.653   1.644   8.828 -0.3174 -0.4977 -0.1764
  882MOL0     C21644  10.904   1.458   9.342  0.5236  0.1382  0.8909
  882MOL0     C21645  10.926   1.370   9.446 -0.0296  0.1445  0.6414
  882MOL0     C21646  10.809   1.277   9.473  0.8381 -0.6470  0.4023
  882MOL0     H21647  11.223   1.012   9.613  3.8552 -1.7777 -1.6720
  882MOL0     H21648  11.309   0.847   9.780 -0.8869  0.4425 -1.0924
  882MOL0     H21649  11.497   0.726  10.067  0.0316  4.2962  1.5523
  882MOL0     H21650  11.434   0.729   9.902 -1.2618  0.8678 -1.1490
  882MOL0     H21651  11.206   0.738   9.975 -1.7048  0.5391  0.8702
  882MOL0     H21652  11.282   0.613  10.059 -0.3559  0.6886 -0.2758
  882MOL0     H21653  11.337   0.777  10.257 -0.3505 -2.9279  0.9737
  882MOL0     H21654  11.236   0.895  10.179 -0.2689 -0.3975  1.6251
  882MOL0     H21655  11.048   0.753  10.183  0.0639  2.9013  0.2215
  882MOL0     H21656  11.139   0.624  10.271  1.4358 -0.1676 -1.9962
  882MOL0     H21657  11.087   0.909  10.387  0.1216 -0.1306  2.0407
  882MOL0     H21658  11.183   0.781  10.460  1.6715  2.9269 -1.8803
  882MOL0     H21659  10.962   0.638  10.437  3.1454 -1.4303  2.2573
  882MOL0     H21660  10.996   0.731  10.566  3.5983  0.3361 -0.3589
  882MOL0     H21661  10.832   0.811  10.315 -2.1923  2.7133 -1.0973
  882MOL0     H21662  10.864   0.929  10.444  2.0585  0.3581 -1.5791
  882MOL0     H21663  10.635   0.802  10.458  0.3804  0.1382 -0.9162
  882MOL0     H21664  10.737   0.660  10.477 -2.7671  0.7840 -0.7896
  882MOL0     H21665  10.722   1.011  10.644 -3.1369 -0.0890  0.7329
  882MOL0     H21666  10.785   0.950  11.037  0.9340  0.9623  0.2574
  882MOL0     H21667  10.686   1.058  10.922  0.1640  1.0050 -1.3949
  882MOL0     H21668  10.876   1.139  10.808  1.0371 -1.4392 -0.2902
  882MOL0     H21669  10.896   1.173  10.981 -0.6812 -0.6619  0.3578
  882MOL0     H21670  11.032   0.977  10.791  2.3509 -2.1300  1.2755
  882MOL0     H21671  11.109   1.102  10.880 -1.5566  0.7007 -1.7265
  882MOL0     H21672  11.072   0.975  11.093  0.7851  1.4022 -1.2923
  882MOL0     H21673  11.014   0.840  11.001  1.3896 -1.5069  0.3591
  882MOL0     H21674  11.425   0.851  10.851  2.7821  0.0780 -0.8840
  882MOL0     H21675  11.713   1.022  10.740 -3.1141  1.4376 -1.0186
  882MOL0     H21676  11.622   0.871  10.762 -0.3202 -0.3003  1.9983
  882MOL0     H21677  11.741   0.929  10.885  0.1500 -0.4665  0.8981
  882MOL0     H21678  11.913   1.343  10.989  1.2394  1.0256  0.6538
  882MOL0     H21679  12.079   1.521  10.979 -0.4099  1.2151  3.2879
  882MOL0     H21680  11.895   1.941  10.897  0.6365  0.3779 -0.2163
  882MOL0     H21681  12.062   1.964  10.894 -1.0018  1.5418  1.9875
  882MOL0     H21682  12.102   1.839  10.701  1.3559  0.2002  3.9700
  882MOL0     H21683  11.963   1.748  10.690  1.3109  0.7918 -4.5952
  882MOL0     H21684  11.974   2.052  10.645 -1.5609  0.5406 -0.9529
  882MOL0     H21685  11.833   1.946  10.650  0.0337 -1.4164  0.5582
  882MOL0     H21686  11.964   1.804  10.474 -0.5317 -0.7575 -0.3891
  882MOL0     H21687  12.085   1.921  10.470 -0.4217 -0.1220 -1.3692
  882MOL0     H21688  11.937   2.104  10.385 -0.1517  0.4289 -0.5922
  882MOL0     H21689  11.932   1.947  10.295 -1.1309 -1.2074  0.8410
  882MOL0     H21690  11.723   2.058  10.482 -0.1337 -1.7084  0.3091
  882MOL0     H21691  11.731   1.890  10.443  2.2804 -1.2532 -0.4195
  882MOL0     H21692  11.737   2.007  10.187 -0.4586  0.5997  0.0831
  882MOL0     H21693  11.621   2.107  10.270  0.3276 -0.4984 -1.9399
  882MOL0     H21694  11.499   1.913  10.343  1.9036  0.6760  3.3580
  882MOL0     H21695  11.619   1.797  10.275  1.5761  1.1905 -2.0105
  882MOL0     H21696  11.756   1.804  10.966 -1.3892 -0.2425  2.5613
  882MOL0     H21697  11.593   1.624  10.984  0.3531  0.2257  0.6624
  882MOL0     H21698  11.421   1.278  11.084 -3.2124  1.4798 -2.6590
  882MOL0     H21699  11.234   1.122  11.109  0.5800 -1.1235  2.5106
  882MOL0     H21700  11.444   1.156  10.034 -0.7717 -1.4229  1.1018
  882MOL0     H21701  11.355   1.332   9.861 -0.4912  0.5600  4.4867
  882MOL0     H21702  11.253   1.471   9.501  1.1515  2.3827 -1.9959
  882MOL0     H21703  11.203   1.603   9.317  0.2736 -0.7636 -0.4668
  882MOL0     H21704  11.134   1.752   9.137  3.7764 -0.6457 -2.8728
  882MOL0     H21705  11.157   1.576   9.105 -0.6475 -0.7709  0.1154
  882MOL0     H21706  10.945   1.608   8.946  0.6513 -0.9026 -0.9200
  882MOL0     H21707  11.096   1.659   8.887 -0.1598  0.7508 -1.2307
  882MOL0     H21708  10.885   1.824   9.034 -0.1093  1.6444 -0.7126
  882MOL0     H21709  11.024   1.896   8.940  1.0622 -1.9141 -1.7034
  882MOL0     H21710  10.921   1.799   8.737  3.3782  0.4297  2.1277
  882MOL0     H21711  10.810   1.918   8.829 -4.1577 -1.3995  3.8741
  882MOL0     H21712  10.575   1.570   8.832  0.5743 -1.4392  0.6583
  882MOL0     H21713  10.807   1.457   9.292  0.5675 -0.0904  0.8076
  882MOL0     H21714  10.728   1.314   9.410  1.1728 -1.7738 -0.7286
  882MOL0     H21715  10.815   1.176   9.433  0.8579 -0.3512 -0.3494
  882MOL0     H21716  10.791   1.284   9.581  0.2319  3.2530  0.1867
  883MOL0     O21717   1.798   0.718   5.192 -0.1456 -0.7662 -0.1064
  883MOL0     C21718   1.704   0.709   5.274  0.1783  0.2616 -0.1308
  883MOL0     O21719   1.704   0.628   5.385  0.5044 -1.0372 -0.5585
  883MOL0     C21720   1.805   0.541   5.407 -0.5239  0.5939 -0.0525
  883MOL0     C21721   1.822   0.421   5.327 -0.4203  1.0236 -0.3906
  883MOL0     C21722   1.926   0.330   5.357 -0.3232 -0.9764 -0.3185
  883MOL0     C21723   2.014   0.356   5.468 -0.3976  0.3552 -0.1228
  883MOL0     O21724   2.102   0.261   5.516 -0.1188 -0.6340 -0.0880
  883MOL0     C21725   2.237   0.303   5.526  0.0675 -0.4334  0.4572
  883MOL0     C21726   2.313   0.291   5.401  0.3081 -0.7320 -0.0450
  883MOL0     C21727   2.457   0.315   5.438 -0.0269 -0.1412  0.1617
  883MOL0     C21728   2.528   0.345   5.308 -0.5830  0.2795  0.8625
  883MOL0     C21729   2.673   0.390   5.336 -0.4265 -0.8221  0.2036
  883MOL0     C21730   2.691   0.503   5.440  0.2350  0.0781 -0.1860
  883MOL0     C21731   2.833   0.558   5.458 -0.4125  0.7946 -0.2386
  883MOL0     C21732   2.926   0.459   5.538 -0.0700  0.1643  0.6662
  883MOL0     N21733   3.063   0.495   5.531 -0.1131 -0.1231 -0.4279
  883MOL0     C21734   3.157   0.450   5.623  0.4744  0.1080  0.2168
  883MOL0     C21735   3.271   0.518   5.600 -0.7567 -0.5111  1.1794
  883MOL0     C21736   3.401   0.468   5.657 -0.7740 -0.8245  0.2049
  883MOL0     C21737   3.529   0.542   5.604 -0.0830  0.6702 -0.5264
  883MOL0     C21738   3.639   0.485   5.682  0.3042  0.3818  0.3525
  883MOL0     C21739   3.778   0.538   5.642  0.0844  0.0664  0.6343
  883MOL0     O21740   3.878   0.509   5.737  0.0512 -0.2999 -0.0174
  883MOL0     C21741   4.005   0.544   5.704  0.5568  0.4611 -0.7559
  883MOL0     C21742   4.044   0.593   5.585 -0.2992  0.4845  0.2856
  883MOL0     C21743   4.175   0.638   5.557  0.0972  0.7499  0.8849
  883MOL0     C21744   4.222   0.679   5.413 -0.1990 -0.7016 -0.8326
  883MOL0     C21745   4.270   0.630   5.658  0.1115 -0.2188 -0.7878
  883MOL0     C21746   4.411   0.669   5.641 -0.4712  0.1387  0.7178
  883MOL0     O21747   4.495   0.607   5.729 -0.1433 -0.3191 -0.1708
  883MOL0     C21748   4.612   0.665   5.756 -0.3371 -0.6441  1.1538
  883MOL0     C21749   4.643   0.698   5.884  0.0701  0.1994 -0.3297
  883MOL0     C21750   4.762   0.755   5.922 -0.5833 -0.2806 -0.0084
  883MOL0     C21751   4.862   0.774   5.828  0.9243  0.3252 -0.5049
  883MOL0     O21752   4.980   0.810   5.890  0.4301 -0.4239 -0.0857
  883MOL0     C21753   5.097   0.828   5.818  0.2667 -0.0034 -0.2815
  883MOL0     C21754   5.125   0.983   5.789  0.4786  0.6814 -0.7112
  883MOL0     C21755   5.149   1.048   5.920  0.3274  0.2138  0.5039
  883MOL0     C21756   5.200   1.196   5.903  0.1018 -0.0710  0.1356
  883MOL0     C21757   5.102   1.303   5.848 -0.3818  0.1184  0.5215
  883MOL0     C21758   5.128   1.451   5.891 -0.2367  0.3731  0.1549
  883MOL0     C21759   5.040   1.562   5.821 -0.5252 -0.4638 -0.1110
  883MOL0     C21760   4.893   1.557   5.874 -0.1549 -0.1451  0.1725
  883MOL0    Cl21761   4.912   1.616   6.042 -0.2016 -0.2945  0.1407
  883MOL0     C21762   4.840   0.725   5.701 -0.0872 -0.0099 -0.5797
  883MOL0     C21763   4.714   0.675   5.661 -0.2479 -0.1943 -0.0941
  883MOL0     O21764   4.452   0.763   5.566  0.3422 -0.3070 -0.0162
  883MOL0     C21765   4.234   0.579   5.782  0.4727  0.4826 -0.8818
  883MOL0     C21766   4.104   0.535   5.806  1.0039  0.2259 -0.0480
  883MOL0     N21767   3.239   0.617   5.503 -0.2992 -0.4180  0.4263
  883MOL0     N21768   3.116   0.596   5.461 -0.0215  0.1150  0.2378
  883MOL0     C21769   1.997   0.475   5.533  0.9046 -0.4690  0.3960
  883MOL0     C21770   1.892   0.559   5.502 -0.7334  0.3204  0.1099
  883MOL0     C21771   1.597   0.811   5.262  0.5083  0.3475 -0.2800
  883MOL0     C21772   1.516   0.834   5.372  0.2012 -0.2165  0.2656
  883MOL0     C21773   1.419   0.947   5.372  0.1621  0.2746  0.2142
  883MOL0     C21774   1.393   1.017   5.249 -0.2278  0.9453 -0.3333
  883MOL0     O21775   1.288   1.113   5.252 -0.5365  0.9422 -0.3367
  883MOL0     C21776   1.259   1.197   5.144  0.4667  0.4267 -0.1727
  883MOL0     C21777   1.156   1.127   5.048  0.4081  0.9250  0.9073
  883MOL0     C21778   1.171   1.188   4.901  0.0898  0.1217 -0.9475
  883MOL0     C21779   1.044   1.141   4.824 -0.3657 -0.0335 -0.2365
  883MOL0     C21780   0.920   1.209   4.875 -0.2460 -0.1596 -0.2824
  883MOL0     C21781   0.822   1.273   4.910  0.7373 -0.2348 -0.3484
  883MOL0     C21782   1.485   0.993   5.144  0.4005 -0.5016 -0.4387
  883MOL0     C21783   1.583   0.891   5.144  1.0093  0.3152 -0.3002
  883MOL0     C21784   1.662   0.867   5.021  0.1238  0.2059 -0.3851
  883MOL0     H21785   1.748   0.413   5.248 -1.4021 -1.8878  0.6664
  883MOL0     H21786   1.950   0.237   5.307 -1.6412 -1.7964  0.5089
  883MOL0     H21787   2.278   0.234   5.600 -2.6637 -1.5327  1.0983
  883MOL0     H21788   2.237   0.403   5.569 -2.8478 -0.9413  1.9156
  883MOL0     H21789   2.298   0.192   5.355  1.9057 -1.7093  1.3923
  883MOL0     H21790   2.269   0.363   5.332 -0.7140 -2.2144 -1.0106
  883MOL0     H21791   2.465   0.400   5.506  3.0244 -3.3019  4.2649
  883MOL0     H21792   2.503   0.232   5.493 -1.2950 -1.7125 -1.0557
  883MOL0     H21793   2.523   0.252   5.250 -0.3435  0.2110  0.9544
  883MOL0     H21794   2.478   0.425   5.252  1.5865  1.5656  0.6300
  883MOL0     H21795   2.712   0.421   5.239 -2.9558 -2.5228 -1.4588
  883MOL0     H21796   2.737   0.307   5.368 -3.3995 -2.1359  3.4358
  883MOL0     H21797   2.630   0.584   5.397  1.1475 -0.2512 -2.2292
  883MOL0     H21798   2.660   0.470   5.539  3.2098  1.0413  1.1885
  883MOL0     H21799   2.837   0.645   5.524  2.2201  0.4761  0.1631
  883MOL0     H21800   2.874   0.579   5.358 -1.7630 -2.7396 -1.7174
  883MOL0     H21801   2.892   0.439   5.640  0.6883 -0.0181  0.8917
  883MOL0     H21802   2.914   0.363   5.487 -1.5735  0.6380  0.0596
  883MOL0     H21803   3.154   0.387   5.711 -1.1540  1.1401  0.9371
  883MOL0     H21804   3.405   0.361   5.636 -0.6414 -0.6313 -0.7878
  883MOL0     H21805   3.397   0.479   5.766  0.5465 -0.6247  0.2466
  883MOL0     H21806   3.549   0.528   5.498 -1.4704 -1.4131 -0.5754
  883MOL0     H21807   3.523   0.650   5.616 -0.9160  0.5570  0.2002
  883MOL0     H21808   3.631   0.510   5.789  0.0378  0.5304  0.2984
  883MOL0     H21809   3.647   0.376   5.672  2.2469  0.6383 -1.3685
  883MOL0     H21810   3.804   0.492   5.546  2.4069 -0.3034  1.3804
  883MOL0     H21811   3.779   0.644   5.616  3.5238 -0.4062 -1.8841
  883MOL0     H21812   3.977   0.593   5.500  0.2267 -3.2886 -0.2815
  883MOL0     H21813   4.310   0.625   5.376  1.0782  1.3639 -0.9876
  883MOL0     H21814   4.244   0.786   5.404  1.9168 -0.4586  4.0793
  883MOL0     H21815   4.130   0.664   5.356 -0.4137  0.7440 -0.9157
  883MOL0     H21816   4.561   0.682   5.954 -1.3635 -0.1744 -2.0250
  883MOL0     H21817   4.773   0.792   6.023  0.2880  2.4310 -0.9997
  883MOL0     H21818   5.172   0.785   5.885 -1.0504  1.3878  2.2368
  883MOL0     H21819   5.093   0.777   5.721  1.0451 -0.0223 -0.3128
  883MOL0     H21820   5.214   0.987   5.727  1.2539  1.5444  0.4234
  883MOL0     H21821   5.041   1.027   5.734  0.3667  1.2027 -0.1280
  883MOL0     H21822   5.226   1.009   5.987  0.3999  1.6803  1.3283
  883MOL0     H21823   5.056   1.047   5.977  1.8725  0.8587  3.1966
  883MOL0     H21824   5.298   1.203   5.855  0.8704  1.3878  1.8179
  883MOL0     H21825   5.226   1.218   6.007 -1.8751 -1.2425  0.9360
  883MOL0     H21826   5.098   1.288   5.739 -0.0197  0.2613  0.4888
  883MOL0     H21827   4.999   1.294   5.882 -0.6009  1.9550  0.4411
  883MOL0     H21828   5.233   1.468   5.867  0.3147 -0.9860  1.4444
  883MOL0     H21829   5.120   1.457   6.000  1.0986 -0.2638  0.3087
  883MOL0     H21830   5.048   1.536   5.715  0.1725  1.3863 -0.5473
  883MOL0     H21831   5.085   1.659   5.842  3.3505 -2.0822 -0.1714
  883MOL0     H21832   4.858   1.454   5.859  0.7015 -0.1938 -1.8680
  883MOL0     H21833   4.835   1.632   5.820 -0.0940 -1.6494 -2.1419
  883MOL0     H21834   4.910   0.724   5.618 -1.7526  0.8399 -2.0499
  883MOL0     H21835   4.704   0.650   5.556 -1.9858 -0.2784  0.0602
  883MOL0     H21836   4.302   0.569   5.867  0.4683 -1.7041 -1.0878
  883MOL0     H21837   4.072   0.494   5.902  0.1010  2.6667  0.7877
  883MOL0     H21838   2.054   0.498   5.622  1.8475  0.4757 -0.4297
  883MOL0     H21839   1.886   0.652   5.559  0.8781  0.0654  0.7282
  883MOL0     H21840   1.525   0.789   5.470  0.0708  1.1458  0.9366
  883MOL0     H21841   1.357   0.975   5.456 -1.5853 -2.2123 -0.1419
  883MOL0     H21842   1.225   1.297   5.169  2.3608  2.2556 -3.9502
  883MOL0     H21843   1.351   1.216   5.086 -1.2382 -1.2994 -3.8053
  883MOL0     H21844   1.054   1.128   5.087 -0.8584  0.7943 -2.0753
  883MOL0     H21845   1.171   1.019   5.036 -2.9212  0.6177 -2.7564
  883MOL0     H21846   1.186   1.295   4.890  1.6656 -0.2281 -2.7237
  883MOL0     H21847   1.255   1.145   4.846  1.4887  2.0859 -0.4171
  883MOL0     H21848   1.041   1.032   4.841  1.4217  0.2916  3.2171
  883MOL0     H21849   1.059   1.159   4.718  0.1808 -1.5353 -0.4531
  883MOL0     H21850   0.730   1.319   4.941  1.0211  0.3028 -0.3054
  883MOL0     H21851   1.501   1.041   5.048  4.2131 -1.6848 -0.5473
  883MOL0     H21852   1.679   0.761   4.997  0.4430  0.7736 -2.9587
  883MOL0     H21853   1.624   0.922   4.934  0.7658  2.3479  0.6326
  883MOL0     H21854   1.765   0.899   5.039  0.1342  0.1438 -0.3343
  884MOL0     O21855   5.128   1.317  10.934  0.1280 -0.1270  0.2153
  884MOL0     C21856   5.069   1.349  10.831 -0.3947 -0.3380  0.8287
  884MOL0     O21857   5.126   1.383  10.710 -0.2341  0.2541  0.4839
  884MOL0     C21858   5.263   1.388  10.704 -0.6483  1.0578 -0.0330
  884MOL0     C21859   5.337   1.484  10.759  0.3761 -0.5495  0.0299
  884MOL0     C21860   5.478   1.489  10.753 -0.0268 -0.7342 -0.0164
  884MOL0     C21861   5.543   1.378  10.694 -0.5492  0.4404  0.9835
  884MOL0     O21862   5.678   1.381  10.668  0.2429 -0.2332 -0.0609
  884MOL0     C21863   5.756   1.477  10.731 -0.3380 -0.1243  0.4126
  884MOL0     C21864   5.766   1.615  10.649  0.0466 -0.1787  0.3563
  884MOL0     C21865   5.869   1.721  10.705  0.3909  0.7908  0.2382
  884MOL0     C21866   5.836   1.798  10.830  0.5406  0.1588  0.4246
  884MOL0     C21867   5.930   1.917  10.849 -0.2730  0.5869  0.2959
  884MOL0     C21868   6.084   1.884  10.835 -0.1699 -0.2516  0.4807
  884MOL0     C21869   6.156   2.020  10.817 -0.4467  0.3109 -0.6933
  884MOL0     C21870   6.314   2.015  10.831  0.3110 -0.7806  0.5393
  884MOL0     N21871   6.351   2.052  10.962  0.0353 -0.0858 -0.2296
  884MOL0     C21872   6.443   2.147  10.989  0.1632  0.6786 -0.1575
  884MOL0     C21873   6.469   2.126  11.124  0.5949  0.1842 -0.1505
  884MOL0     C21874   6.566   2.206  11.201  0.1730  0.1791 -0.1487
  884MOL0     C21875   6.721   2.184  11.175 -0.6043 -0.1753  0.3397
  884MOL0     C21876   6.798   2.308  11.211 -0.0004  0.2463  0.8315
  884MOL0     C21877   6.930   2.306  11.140 -1.3806 -0.1149 -0.5913
  884MOL0     O21878   6.923   2.320  10.995  0.7249  0.7146  0.6183
  884MOL0     C21879   7.036   2.323  10.911 -0.0546 -0.9797 -0.4017
  884MOL0     C21880   7.023   2.356  10.778  0.5459  0.9783 -0.4713
  884MOL0     C21881   7.133   2.357  10.694 -0.6405 -0.5219 -0.7756
  884MOL0     C21882   7.110   2.380  10.550 -0.1423 -0.6545 -0.1743
  884MOL0     C21883   7.264   2.337  10.745  0.4893 -0.6690 -0.1951
  884MOL0     C21884   7.388   2.337  10.652 -0.5991 -0.0702 -0.2340
  884MOL0     O21885   7.494   2.275  10.715  0.3964 -0.1796  0.8330
  884MOL0     C21886   7.620   2.310  10.675  0.2231 -0.4520  0.2314
  884MOL0     C21887   7.670   2.261  10.552  0.2064  0.3539 -0.0899
  884MOL0     C21888   7.800   2.287  10.505 -0.0775  0.3931 -0.0423
  884MOL0     C21889   7.894   2.352  10.583 -0.4455 -0.8413 -0.3867
  884MOL0     O21890   8.025   2.368  10.533  0.0001 -0.5407 -0.4488
  884MOL0     C21891   8.113   2.472  10.595 -0.5502  1.1571  0.1390
  884MOL0     C21892   8.252   2.440  10.548  1.2053  0.7930 -0.6553
  884MOL0     C21893   8.268   2.438  10.397 -0.5513 -0.1109  0.0702
  884MOL0     C21894   8.411   2.492  10.366  0.1103  0.1808  0.0829
  884MOL0     C21895   8.439   2.484  10.211  0.0146 -0.6723  0.5313
  884MOL0     C21896   8.590   2.496  10.183 -0.4653  1.0787 -0.5832
  884MOL0     C21897   8.619   2.471  10.036  1.2111 -0.3010  0.4471
  884MOL0     C21898   8.760   2.484   9.985 -0.6713 -0.7582  0.9665
  884MOL0    Cl21899   8.862   2.339  10.030  0.2061 -0.0608 -0.1232
  884MOL0     C21900   7.856   2.388  10.716  0.1426  0.5059 -0.9965
  884MOL0     C21901   7.715   2.370  10.760 -0.6689 -0.9208 -0.3963
  884MOL0     O21902   7.397   2.398  10.544  0.4322 -0.3136  0.2294
  884MOL0     C21903   7.280   2.321  10.882  1.4713  0.9891 -0.0793
  884MOL0     C21904   7.164   2.301  10.963 -0.1248 -0.4608 -0.3717
  884MOL0     N21905   6.396   2.018  11.174  0.3239 -0.1530 -0.0997
  884MOL0     N21906   6.327   1.976  11.076  0.0913  0.2854  0.4415
  884MOL0     C21907   5.475   1.279  10.633 -0.0695  0.2955 -0.5913
  884MOL0     C21908   5.339   1.277  10.646  0.1751  0.7922  0.5101
  884MOL0     C21909   4.919   1.328  10.842  0.8605 -0.5355  0.2925
  884MOL0     C21910   4.847   1.401  10.743 -0.1937  0.2873 -0.3422
  884MOL0     C21911   4.714   1.430  10.760  0.8337  0.1852 -0.1241
  884MOL0     C21912   4.632   1.369  10.854 -0.7122 -0.0586 -0.4980
  884MOL0     O21913   4.495   1.386  10.827 -0.1159  0.4797 -1.0835
  884MOL0     C21914   4.409   1.332  10.926  0.6737  0.2433 -0.8564
  884MOL0     C21915   4.257   1.361  10.917 -0.2739  0.5598  0.2065
  884MOL0     C21916   4.206   1.373  10.770 -0.5750  0.2910 -0.1828
  884MOL0     C21917   4.056   1.374  10.786  0.2390  0.3406 -0.0423
  884MOL0     C21918   3.983   1.360  10.658 -0.7230 -0.1290  0.1951
  884MOL0     C21919   3.927   1.338  10.554  0.0429 -0.1436 -0.3598
  884MOL0     C21920   4.704   1.289  10.955  0.2137 -0.3862  0.1778
  884MOL0     C21921   4.842   1.266  10.948  0.0142  0.6932 -0.3206
  884MOL0     C21922   4.898   1.212  11.077 -0.1849  0.7177 -0.2388
  884MOL0     H21923   5.288   1.566  10.810 -2.2740  0.4879 -3.7541
  884MOL0     H21924   5.519   1.578  10.800 -1.8425  0.7790 -1.1614
  884MOL0     H21925   5.857   1.435  10.723  0.1180 -0.1459  4.3169
  884MOL0     H21926   5.740   1.492  10.839 -1.1321  0.3906  0.2316
  884MOL0     H21927   5.783   1.589  10.544 -1.9644  1.2634 -0.3948
  884MOL0     H21928   5.668   1.662  10.662 -0.4870 -1.3000  0.5852
  884MOL0     H21929   5.955   1.656  10.725 -0.2284  0.8123  3.4795
  884MOL0     H21930   5.888   1.788  10.621 -0.6615  0.7672 -0.0284
  884MOL0     H21931   5.734   1.836  10.833  1.6340  3.7155 -1.2913
  884MOL0     H21932   5.842   1.727  10.913 -1.5119 -0.7225 -0.1190
  884MOL0     H21933   5.924   1.975  10.941 -2.3348  3.5254 -1.5088
  884MOL0     H21934   5.908   1.992  10.773  0.8358  0.8737  0.2450
  884MOL0     H21935   6.122   1.826  10.920  0.0381  1.9846  2.0100
  884MOL0     H21936   6.095   1.820  10.748 -3.0496  0.7352 -0.7259
  884MOL0     H21937   6.111   2.099  10.878  0.5886  2.1638 -2.2073
  884MOL0     H21938   6.137   2.066  10.719 -0.9573  2.6454  0.4494
  884MOL0     H21939   6.353   1.918  10.801 -0.4770 -0.1806 -2.8701
  884MOL0     H21940   6.365   2.080  10.759 -1.0861 -1.2917 -0.9893
  884MOL0     H21941   6.503   2.207  10.922  2.6340 -1.2694  0.1228
  884MOL0     H21942   6.538   2.195  11.306  1.1890 -0.2754  0.0901
  884MOL0     H21943   6.544   2.312  11.190 -4.2764 -0.4272  1.0358
  884MOL0     H21944   6.757   2.104  11.240  0.9224 -0.7840 -1.1812
  884MOL0     H21945   6.741   2.153  11.072  1.0988  0.0538  0.5722
  884MOL0     H21946   6.749   2.397  11.171 -1.6473 -1.7548 -1.9205
  884MOL0     H21947   6.808   2.306  11.320 -1.7950 -1.5788  1.0210
  884MOL0     H21948   6.996   2.387  11.173 -0.6721 -0.5619 -0.8708
  884MOL0     H21949   6.978   2.212  11.169  0.0925  1.3525  2.1913
  884MOL0     H21950   6.922   2.368  10.740  0.3060 -1.9899 -1.0487
  884MOL0     H21951   7.157   2.306  10.484  3.7670  1.9173 -0.6148
  884MOL0     H21952   7.161   2.474  10.528  1.1489 -1.0608  0.9685
  884MOL0     H21953   7.002   2.387  10.533 -0.0843 -0.5589 -0.5184
  884MOL0     H21954   7.601   2.199  10.496 -1.3439  0.7975  1.2346
  884MOL0     H21955   7.829   2.261  10.404 -1.6263  1.3139 -0.7656
  884MOL0     H21956   8.076   2.570  10.564 -1.0858  1.1692  0.7904
  884MOL0     H21957   8.119   2.463  10.704 -0.1533 -1.0384 -0.0180
  884MOL0     H21958   8.311   2.520  10.592  2.4452 -0.5075  0.1488
  884MOL0     H21959   8.285   2.347  10.595 -0.1912  1.4617  1.8188
  884MOL0     H21960   8.200   2.504  10.344 -1.0815  0.3919  1.3285
  884MOL0     H21961   8.255   2.337  10.359  1.2811  0.3071 -1.8675
  884MOL0     H21962   8.483   2.432  10.423 -0.0802  0.3142  0.4729
  884MOL0     H21963   8.423   2.595  10.401  2.1123 -0.4606  1.5319
  884MOL0     H21964   8.407   2.385  10.175 -1.8982  1.7056 -5.6294
  884MOL0     H21965   8.381   2.558  10.155 -1.3931 -0.3335  2.3146
  884MOL0     H21966   8.635   2.423  10.251  0.8506  0.0743 -2.4649
  884MOL0     H21967   8.630   2.593  10.213  1.1421  0.1189  0.5212
  884MOL0     H21968   8.554   2.541   9.983 -0.3599 -1.0096  1.3616
  884MOL0     H21969   8.585   2.369  10.012 -4.4396  1.0689  1.2835
  884MOL0     H21970   8.805   2.574  10.026 -0.4491  0.5068 -1.8110
  884MOL0     H21971   8.760   2.497   9.876 -1.5728 -0.0586  1.0371
  884MOL0     H21972   7.921   2.431  10.792  2.1056 -1.0347 -1.6855
  884MOL0     H21973   7.688   2.412  10.856  0.7744  4.0096 -1.8737
  884MOL0     H21974   7.376   2.292  10.924  1.3791  0.9683  0.1175
  884MOL0     H21975   7.171   2.261  11.064 -4.8366 -1.3576 -0.1701
  884MOL0     H21976   5.533   1.195  10.596  1.2546  0.6667  0.5656
  884MOL0     H21977   5.305   1.189  10.593 -0.2690  0.8509  0.6937
  884MOL0     H21978   4.901   1.453  10.665  0.0483 -0.8480 -0.9460
  884MOL0     H21979   4.674   1.507  10.695  0.0149  0.6148  0.8648
  884MOL0     H21980   4.414   1.224  10.915 -1.9041 -0.5755  3.6139
  884MOL0     H21981   4.433   1.358  11.029  0.5816  1.5128 -1.1356
  884MOL0     H21982   4.244   1.456  10.970  1.7867 -0.2489  2.3779
  884MOL0     H21983   4.198   1.287  10.972 -0.1568  0.4089  0.1311
  884MOL0     H21984   4.243   1.466  10.727  0.7901  0.3168  1.0027
  884MOL0     H21985   4.231   1.280  10.718 -0.8821 -1.4722  2.5919
  884MOL0     H21986   4.023   1.470  10.827 -0.0418  0.2580 -0.0740
  884MOL0     H21987   4.021   1.293  10.850 -0.7692 -0.0719 -1.0792
  884MOL0     H21988   3.883   1.335  10.457 -2.9876  1.7151  0.8048
  884MOL0     H21989   4.644   1.226  11.020 -1.7622  0.2643 -0.9247
  884MOL0     H21990   4.947   1.116  11.055 -2.1764 -1.0094  2.1457
  884MOL0     H21991   4.965   1.286  11.123 -0.1223  1.7507 -1.9333
  884MOL0     H21992   4.831   1.180  11.158  1.1702 -1.7056  0.0277
  885MOL0     O21993   5.561   7.770   3.994  0.0503  0.0678 -0.4057
  885MOL0     C21994   5.564   7.644   4.002 -0.6175  0.7792  0.8834
  885MOL0     O21995   5.663   7.566   3.942 -0.1012 -0.0526  0.0403
  885MOL0     C21996   5.724   7.630   3.846 -0.8874  0.3335  0.7398
  885MOL0     C21997   5.839   7.698   3.870  0.2702  0.3130 -0.1544
  885MOL0     C21998   5.913   7.769   3.777  0.7971  0.0561  0.4029
  885MOL0     C21999   5.878   7.738   3.642 -0.1495  0.2821 -0.1002
  885MOL0     O22000   5.963   7.767   3.530  0.2890  0.2114 -1.1563
  885MOL0     C22001   6.029   7.651   3.480  0.4236  0.5837 -0.2333
  885MOL0     C22002   6.125   7.688   3.365 -0.0197 -0.4848  0.2153
  885MOL0     C22003   6.071   7.782   3.254 -0.7318 -0.4759 -0.8153
  885MOL0     C22004   6.162   7.779   3.131 -0.3300  0.5687  0.0991
  885MOL0     C22005   6.140   7.891   3.038 -0.2478  0.3879  0.1683
  885MOL0     C22006   6.234   7.901   2.927  0.1532  0.0632  0.0738
  885MOL0     C22007   6.386   7.887   2.969 -0.2837  0.9058  0.3962
  885MOL0     C22008   6.461   7.891   2.842 -0.7898 -0.2756  0.8693
  885MOL0     N22009   6.599   7.933   2.865  0.0916  0.4073  0.5724
  885MOL0     C22010   6.638   8.057   2.903 -0.8816  0.2479 -0.3532
  885MOL0     C22011   6.777   8.055   2.904 -0.4640  0.1471  0.3437
  885MOL0     C22012   6.874   8.164   2.950 -0.2492  0.3552  0.2704
  885MOL0     C22013   7.008   8.181   2.876  0.6026 -0.8625  0.6425
  885MOL0     C22014   7.079   8.290   2.946 -0.9182  0.8007  0.0744
  885MOL0     C22015   7.128   8.399   2.848 -0.0349  0.3052  0.1108
  885MOL0     O22016   7.202   8.498   2.914 -0.0442  0.0837 -0.2514
  885MOL0     C22017   7.340   8.505   2.884  0.0273  0.1748  0.4591
  885MOL0     C22018   7.389   8.553   2.761  0.4915  0.2166 -0.7039
  885MOL0     C22019   7.522   8.554   2.723 -0.1679 -0.7851  0.4469
  885MOL0     C22020   7.553   8.589   2.576  0.3503 -0.9769  0.3553
  885MOL0     C22021   7.617   8.500   2.811 -0.5561  0.1052 -0.0114
  885MOL0     C22022   7.758   8.500   2.778  0.8054  0.0017  0.5590
  885MOL0     O22023   7.843   8.464   2.882  0.7344  0.2311 -0.5495
  885MOL0     C22024   7.974   8.442   2.851 -0.2941  0.0388  0.0209
  885MOL0     C22025   8.058   8.545   2.835 -0.4956 -1.2401 -0.8677
  885MOL0     C22026   8.189   8.524   2.788  0.8169  0.7320 -0.1879
  885MOL0     C22027   8.239   8.399   2.762  0.5195 -0.1060 -0.0321
  885MOL0     O22028   8.358   8.400   2.689  0.7239 -0.0687  0.0662
  885MOL0     C22029   8.419   8.269   2.671  0.0885  0.1171 -0.0868
  885MOL0     C22030   8.529   8.296   2.558 -0.6600 -0.4690 -0.8319
  885MOL0     C22031   8.639   8.396   2.608 -0.1872 -0.7851 -0.7565
  885MOL0     C22032   8.727   8.425   2.488 -0.4790  0.2989  0.2409
  885MOL0     C22033   8.863   8.463   2.532 -0.0982 -0.1704 -0.7835
  885MOL0     C22034   8.935   8.525   2.410 -0.6996 -0.0242 -0.1662
  885MOL0     C22035   9.086   8.566   2.443  0.1863 -0.5968 -0.1543
  885MOL0     C22036   9.160   8.621   2.319  0.1276  0.1491  0.5312
  885MOL0    Cl22037   9.239   8.484   2.223 -0.1010 -0.9107 -0.7945
  885MOL0     C22038   8.159   8.289   2.784  0.7135 -0.3960  0.2251
  885MOL0     C22039   8.026   8.313   2.819 -0.4786 -0.1535 -0.1278
  885MOL0     O22040   7.803   8.518   2.661 -0.0563 -0.5319  0.6721
  885MOL0     C22041   7.566   8.455   2.935  0.6587  0.3404  1.0038
  885MOL0     C22042   7.430   8.448   2.966  0.2450 -0.5167 -0.0318
  885MOL0     N22043   6.814   7.927   2.864 -0.7307 -0.4751 -0.3328
  885MOL0     N22044   6.712   7.857   2.840  0.1969  1.0813 -0.0763
  885MOL0     C22045   5.760   7.673   3.608 -0.3144 -0.0596  1.3251
  885MOL0     C22046   5.683   7.625   3.707 -0.1319  1.2608  0.0760
  885MOL0     C22047   5.475   7.570   4.097 -0.3914  0.2892  0.3926
  885MOL0     C22048   5.503   7.432   4.134  0.3490 -0.0813 -0.0671
  885MOL0     C22049   5.416   7.355   4.209 -0.0480 -0.0704 -0.7194
  885MOL0     C22050   5.294   7.400   4.243  0.2324 -0.3302  0.1353
  885MOL0     O22051   5.197   7.328   4.315  0.2577  0.1130  0.4018
  885MOL0     C22052   5.222   7.189   4.346  0.0239 -0.2120  0.0146
  885MOL0     C22053   5.093   7.109   4.388 -0.1332  0.5744  1.1260
  885MOL0     C22054   5.009   7.188   4.490 -0.2725 -0.4961 -0.0530
  885MOL0     C22055   4.907   7.085   4.546 -0.1941 -0.1789 -0.4556
  885MOL0     C22056   4.807   7.157   4.635 -0.1982  0.2082  0.0877
  885MOL0     C22057   4.724   7.219   4.706 -0.3136  0.1414 -0.3240
  885MOL0     C22058   5.266   7.534   4.214 -0.7544  0.5195 -0.0349
  885MOL0     C22059   5.358   7.623   4.148  0.0211  0.0118  0.4222
  885MOL0     C22060   5.319   7.768   4.152 -0.0525 -0.1335  0.2478
  885MOL0     H22061   5.872   7.699   3.973  0.2645 -0.0140 -0.1495
  885MOL0     H22062   5.996   7.833   3.802 -0.0519  1.3197  0.0968
  885MOL0     H22063   5.950   7.589   3.438 -0.3645  0.4258  1.4149
  885MOL0     H22064   6.075   7.587   3.556 -1.0753 -1.8773 -1.2808
  885MOL0     H22065   6.219   7.729   3.405  0.6863 -1.8374 -0.0080
  885MOL0     H22066   6.163   7.606   3.304  0.3942  1.0922 -1.7625
  885MOL0     H22067   5.966   7.757   3.239 -1.1037 -1.1870  2.2738
  885MOL0     H22068   6.070   7.886   3.289  1.1057 -0.6013 -0.2861
  885MOL0     H22069   6.267   7.784   3.163 -0.6474  1.1736  1.0960
  885MOL0     H22070   6.146   7.682   3.085 -0.0781 -1.6122  4.1267
  885MOL0     H22071   6.159   7.983   3.094  0.7542  0.4446 -0.2527
  885MOL0     H22072   6.038   7.895   2.999  0.0583  0.6109 -0.6338
  885MOL0     H22073   6.216   7.811   2.867  1.3822  0.5936 -1.1655
  885MOL0     H22074   6.216   7.993   2.871 -0.1179  0.7254  1.2346
  885MOL0     H22075   6.417   7.798   3.025  0.2457  0.8654  0.0501
  885MOL0     H22076   6.406   7.975   3.030 -0.2285  0.7724  0.5713
  885MOL0     H22077   6.454   7.793   2.794 -0.1928 -1.3977  2.9487
  885MOL0     H22078   6.421   7.973   2.782  0.7559 -1.1185 -1.4679
  885MOL0     H22079   6.577   8.139   2.940 -1.0672 -0.2873  0.5641
  885MOL0     H22080   6.898   8.132   3.052  1.3438  0.6819  0.0177
  885MOL0     H22081   6.828   8.263   2.954  0.7370  0.7866  2.2919
  885MOL0     H22082   7.065   8.088   2.873  1.4032 -0.4291 -3.2737
  885MOL0     H22083   6.983   8.216   2.775 -0.4158  0.0118  1.1800
  885MOL0     H22084   7.020   8.338   3.025  0.2325  1.4587  0.5568
  885MOL0     H22085   7.166   8.236   2.984 -0.1292 -1.8810 -4.7712
  885MOL0     H22086   7.180   8.349   2.765  0.7734  2.2658 -0.6458
  885MOL0     H22087   7.049   8.455   2.798 -1.3144 -1.2791  0.2739
  885MOL0     H22088   7.310   8.597   2.701 -0.7039 -0.8839  0.0066
  885MOL0     H22089   7.462   8.619   2.522  1.5616  1.3892 -0.5056
  885MOL0     H22090   7.600   8.509   2.519  0.0568 -0.0038 -1.3343
  885MOL0     H22091   7.618   8.673   2.601 -1.3215  0.4955 -0.0083
  885MOL0     H22092   8.024   8.648   2.842 -1.2418 -1.5653  1.4028
  885MOL0     H22093   8.247   8.615   2.777  2.5376 -0.4857 -1.8490
  885MOL0     H22094   8.471   8.222   2.755  2.0296 -2.9793 -2.7860
  885MOL0     H22095   8.351   8.191   2.636  1.7868 -0.9300 -1.1946
  885MOL0     H22096   8.572   8.199   2.530 -0.2979 -0.8881  1.0317
  885MOL0     H22097   8.480   8.320   2.463  1.4239 -1.9907 -2.3783
  885MOL0     H22098   8.693   8.361   2.696  1.7893 -2.4055 -2.4954
  885MOL0     H22099   8.581   8.487   2.628  4.2743  2.0972  0.4092
  885MOL0     H22100   8.688   8.505   2.424  1.1916 -1.3396 -3.0759
  885MOL0     H22101   8.724   8.339   2.420  2.8200 -1.2755  1.8613
  885MOL0     H22102   8.854   8.528   2.619  1.1250 -0.5218 -0.3850
  885MOL0     H22103   8.919   8.372   2.554 -0.5944 -0.7271 -1.7106
  885MOL0     H22104   8.877   8.607   2.368 -0.0182  0.2014 -0.6859
  885MOL0     H22105   8.937   8.453   2.328 -2.7846 -1.8933  1.3142
  885MOL0     H22106   9.142   8.482   2.485 -1.0698 -0.9251  0.9366
  885MOL0     H22107   9.078   8.640   2.524  0.8556  0.0874 -0.6973
  885MOL0     H22108   9.238   8.692   2.349 -1.1956  1.1687  1.6718
  885MOL0     H22109   9.092   8.676   2.253 -0.4042 -2.7337 -1.5160
  885MOL0     H22110   8.191   8.187   2.769  0.0230 -0.7151  0.8688
  885MOL0     H22111   7.944   8.243   2.805 -0.7575  0.6389 -2.9826
  885MOL0     H22112   7.636   8.413   3.007  3.0127  2.0207 -0.1594
  885MOL0     H22113   7.399   8.404   3.061  0.9413 -1.4111 -0.2066
  885MOL0     H22114   5.744   7.671   3.501 -0.1985  0.7876  1.2888
  885MOL0     H22115   5.593   7.569   3.685  0.0501  0.8236  0.4232
  885MOL0     H22116   5.591   7.384   4.094  0.5286  2.5275 -3.1961
  885MOL0     H22117   5.447   7.254   4.232  0.2881  0.1322 -0.2507
  885MOL0     H22118   5.283   7.135   4.272  0.3912  2.5301 -1.8266
  885MOL0     H22119   5.290   7.201   4.431 -0.0813 -0.9794  0.2182
  885MOL0     H22120   5.124   7.015   4.435 -3.5910 -1.3460 -0.1091
  885MOL0     H22121   5.039   7.087   4.296 -0.3232  0.2308  1.3173
  885MOL0     H22122   5.069   7.217   4.576 -0.1606 -0.7885 -0.0316
  885MOL0     H22123   4.956   7.273   4.445  0.2498 -0.2184 -0.1631
  885MOL0     H22124   4.967   7.017   4.607  0.0057  1.1678  0.8900
  885MOL0     H22125   4.857   7.037   4.461  0.0044 -1.9442  0.3739
  885MOL0     H22126   4.649   7.244   4.779  0.5240  0.2334  0.5150
  885MOL0     H22127   5.167   7.563   4.247 -0.2820 -1.5901  3.7236
  885MOL0     H22128   5.215   7.794   4.176  0.0884 -0.0821  0.8275
  885MOL0     H22129   5.377   7.821   4.229 -3.1298  0.5663  2.2532
  885MOL0     H22130   5.340   7.812   4.055  0.5097  0.8748  0.8050
  886MOL0     O22131   4.452   9.603   1.734 -0.2351 -0.7231 -0.5015
  886MOL0     C22132   4.363   9.686   1.742  0.6055  0.1387  0.1963
  886MOL0     O22133   4.382   9.821   1.754  0.3087  0.2029 -0.1821
  886MOL0     C22134   4.511   9.851   1.752 -0.1478 -0.5206 -0.6275
  886MOL0     C22135   4.578   9.861   1.877 -0.3950 -0.1919 -0.7716
  886MOL0     C22136   4.718   9.886   1.886  0.7112 -0.9203 -0.1862
  886MOL0     C22137   4.783   9.924   1.769  0.3502  1.4080 -0.1918
  886MOL0     O22138   4.909   9.948   1.770 -0.5475 -0.8684 -0.0467
  886MOL0     C22139   4.964  10.033   1.878 -0.6564 -0.2298 -0.5352
  886MOL0     C22140   5.019  10.161   1.812 -0.1380  0.2384  0.2741
  886MOL0     C22141   5.148  10.134   1.734 -0.1456  0.4286 -0.0185
  886MOL0     C22142   5.204  10.271   1.693 -0.1694  0.0177 -0.1931
  886MOL0     C22143   5.337  10.251   1.606  0.5601 -0.1164 -0.0621
  886MOL0     C22144   5.387  10.382   1.537 -0.2660  1.2175  0.1046
  886MOL0     C22145   5.512  10.357   1.450 -0.2065  0.2981 -0.4771
  886MOL0     C22146   5.579  10.491   1.408 -0.4629 -0.4465  0.7801
  886MOL0     N22147   5.722  10.491   1.449 -0.0193  0.4065  0.2058
  886MOL0     C22148   5.829  10.474   1.358  0.3448  0.8687 -0.4235
  886MOL0     C22149   5.935  10.511   1.434 -0.0821  0.4503 -0.0591
  886MOL0     C22150   6.076  10.516   1.380 -0.2856  0.6371 -0.7813
  886MOL0     C22151   6.136  10.381   1.402 -0.1768  0.1995  0.3085
  886MOL0     C22152   6.286  10.380   1.377 -0.3523  0.4246  0.7117
  886MOL0     C22153   6.363  10.416   1.503  0.1428 -0.4508  0.2877
  886MOL0     O22154   6.502  10.407   1.472 -0.1236 -0.3256 -0.1498
  886MOL0     C22155   6.593  10.451   1.566 -0.5542  0.0625  0.0721
  886MOL0     C22156   6.721  10.450   1.519 -0.1608  0.0015  0.8783
  886MOL0     C22157   6.832  10.489   1.593  0.3041  0.4247  0.5116
  886MOL0     C22158   6.964  10.482   1.520  1.1158  0.5237 -0.0608
  886MOL0     C22159   6.813  10.530   1.732 -0.8152 -0.1349  0.3695
  886MOL0     C22160   6.930  10.564   1.821  0.5240  0.0809  0.1968
  886MOL0     O22161   6.903  10.640   1.934 -0.7715 -0.0817  0.2474
  886MOL0     C22162   7.002  10.697   2.011 -1.0034  0.2708 -0.1212
  886MOL0     C22163   7.087  10.618   2.084 -0.3626 -0.2013 -0.5079
  886MOL0     C22164   7.179  10.680   2.170 -0.3217 -0.4003 -0.6883
  886MOL0     C22165   7.182  10.819   2.183 -0.5198  0.1859 -0.2052
  886MOL0     O22166   7.259  10.898   2.268 -0.3464  0.0501  0.1368
  886MOL0     C22167   7.329  10.838   2.375 -0.2251  1.1063  0.0770
  886MOL0     C22168   7.417  10.947   2.432  0.5694 -0.2095  0.1665
  886MOL0     C22169   7.523  11.006   2.345 -0.8594 -0.1524 -0.2313
  886MOL0     C22170   7.597  11.120   2.413  0.0051  0.9213 -0.4006
  886MOL0     C22171   7.689  11.176   2.308  0.0937  0.1564  0.9093
  886MOL0     C22172   7.789  11.268   2.371 -0.3543 -0.3938  0.3034
  886MOL0     C22173   7.860  11.349   2.260 -0.0062  0.0596 -0.1726
  886MOL0     C22174   7.964  11.450   2.309 -0.3227 -0.4452  0.2552
  886MOL0    Cl22175   8.088  11.352   2.379  0.1506 -0.0271 -0.0703
  886MOL0     C22176   7.088  10.898   2.111  0.0454  0.2028  0.5706
  886MOL0     C22177   7.004  10.833   2.024  0.3227 -0.5281  0.4948
  886MOL0     O22178   7.042  10.528   1.787  0.1748  0.9583 -0.1550
  886MOL0     C22179   6.680  10.522   1.780  0.9787 -0.4805 -0.2855
  886MOL0     C22180   6.572  10.493   1.699  0.0013 -0.1198  0.3332
  886MOL0     N22181   5.897  10.545   1.559 -0.2113  0.3442  0.0061
  886MOL0     N22182   5.768  10.531   1.569  0.0921  0.1750  0.6032
  886MOL0     C22183   4.719   9.919   1.643 -0.0837  0.4188 -0.1115
  886MOL0     C22184   4.583   9.887   1.640  0.8365 -0.6982  0.4985
  886MOL0     C22185   4.222   9.638   1.756  0.3667  0.7316 -0.7735
  886MOL0     C22186   4.126   9.733   1.792  0.6788  0.4032 -0.0511
  886MOL0     C22187   4.001   9.700   1.838 -0.4635 -0.6531  1.5880
  886MOL0     C22188   3.959   9.565   1.842 -0.0219 -1.2276 -1.0957
  886MOL0     O22189   3.828   9.525   1.861  1.1216 -0.2613 -0.0956
  886MOL0     C22190   3.721   9.623   1.877  0.3040  0.1385 -0.2509
  886MOL0     C22191   3.588   9.553   1.911  0.3286 -0.3146  0.1570
  886MOL0     C22192   3.592   9.482   2.046 -0.2901  0.2227 -0.3780
  886MOL0     C22193   3.448   9.474   2.121  0.6338  0.5281 -0.4122
  886MOL0     C22194   3.345   9.405   2.039  0.1169 -0.2799 -0.0532
  886MOL0     C22195   3.265   9.341   1.976 -0.0094  0.2225  0.2418
  886MOL0     C22196   4.048   9.474   1.804  0.0211  0.5023 -1.4765
  886MOL0     C22197   4.180   9.501   1.757  0.7305 -0.1683 -1.1541
  886MOL0     C22198   4.264   9.382   1.729  0.0652 -0.3664  0.5641
  886MOL0     H22199   4.525   9.850   1.971 -4.2807  0.9893 -2.5854
  886MOL0     H22200   4.779   9.876   1.975  0.0347  0.5011  0.4692
  886MOL0     H22201   5.043   9.986   1.937 -0.5978  1.6724  1.0219
  886MOL0     H22202   4.886  10.066   1.947 -0.2637 -1.5286  0.5788
  886MOL0     H22203   4.943  10.203   1.746 -0.8684 -2.1702 -0.5158
  886MOL0     H22204   5.039  10.234   1.891  0.0378  0.4879  0.0018
  886MOL0     H22205   5.224  10.088   1.798 -0.3166 -0.9035 -0.7514
  886MOL0     H22206   5.130  10.060   1.655  1.1588 -0.6509  0.6513
  886MOL0     H22207   5.118  10.328   1.657 -0.8633 -0.2347  0.9960
  886MOL0     H22208   5.240  10.324   1.782  2.5848  1.9239 -2.3036
  886MOL0     H22209   5.317  10.176   1.529  0.1133  2.2120 -2.3660
  886MOL0     H22210   5.416  10.207   1.668  1.7881  0.8889 -0.8627
  886MOL0     H22211   5.315  10.439   1.478 -0.2789  0.8692 -0.2264
  886MOL0     H22212   5.425  10.449   1.614 -0.1476 -0.0260  1.1840
  886MOL0     H22213   5.495  10.283   1.371  1.6846 -2.4063  1.4736
  886MOL0     H22214   5.579  10.302   1.517  0.1483  0.6669 -0.5271
  886MOL0     H22215   5.563  10.491   1.300 -2.7010  2.1510  0.9803
  886MOL0     H22216   5.522  10.581   1.433 -0.9068  0.3328 -2.6117
  886MOL0     H22217   5.819  10.440   1.255 -0.0897 -0.6112  0.0784
  886MOL0     H22218   6.135  10.599   1.419  1.4099 -0.7624 -0.2035
  886MOL0     H22219   6.072  10.529   1.271  2.9902 -2.1838 -1.4366
  886MOL0     H22220   6.105  10.332   1.495  0.7438 -3.0444 -0.9586
  886MOL0     H22221   6.087  10.323   1.323  0.6761  0.7568 -0.6448
  886MOL0     H22222   6.317  10.278   1.354  1.9491  0.8480  1.6550
  886MOL0     H22223   6.311  10.449   1.296  0.6473 -3.0857 -2.2127
  886MOL0     H22224   6.323  10.510   1.541  0.8153  1.4921 -3.3733
  886MOL0     H22225   6.342  10.338   1.577 -0.9311 -0.0205  0.4459
  886MOL0     H22226   6.740  10.430   1.414 -0.5501 -5.2885  1.5285
  886MOL0     H22227   7.007  10.582   1.524 -0.3364  1.1973 -0.5041
  886MOL0     H22228   6.951  10.445   1.418  2.6349  2.1596 -0.8897
  886MOL0     H22229   7.037  10.415   1.566  0.8871 -1.3213 -2.1902
  886MOL0     H22230   7.087  10.510   2.069  1.9242 -0.5535  1.4499
  886MOL0     H22231   7.254  10.619   2.221 -1.3005  0.2511  1.6650
  886MOL0     H22232   7.258  10.808   2.453  0.7823 -0.2803  0.5103
  886MOL0     H22233   7.392  10.753   2.347  2.1166  2.0063  2.1820
  886MOL0     H22234   7.340  11.013   2.472 -1.7025 -1.8893 -1.2317
  886MOL0     H22235   7.465  10.918   2.526  2.0115  1.9360  0.1752
  886MOL0     H22236   7.479  11.041   2.252 -3.3709 -2.4892 -0.0493
  886MOL0     H22237   7.601  10.933   2.319  1.9710  3.0131 -1.3353
  886MOL0     H22238   7.659  11.084   2.496 -0.0797  0.7344 -0.4157
  886MOL0     H22239   7.529  11.188   2.465 -0.7739 -1.0051  1.2427
  886MOL0     H22240   7.735  11.099   2.245 -0.4619  1.1968 -0.8638
  886MOL0     H22241   7.627  11.239   2.242  0.2383  1.0886  1.6429
  886MOL0     H22242   7.863  11.207   2.424  1.2931 -2.1363 -3.5951
  886MOL0     H22243   7.738  11.339   2.436  1.1046  0.6437  0.3548
  886MOL0     H22244   7.777  11.404   2.215  0.0619  0.2954 -0.0132
  886MOL0     H22245   7.902  11.290   2.178 -0.9410 -0.7186 -0.1098
  886MOL0     H22246   7.913  11.519   2.377 -0.4547  0.3825 -0.6670
  886MOL0     H22247   8.007  11.500   2.222  0.9044 -0.6975  0.7021
  886MOL0     H22248   7.075  11.005   2.130 -2.2040  0.5162 -2.0292
  886MOL0     H22249   6.935  10.879   1.954 -0.0295 -1.0566  0.4855
  886MOL0     H22250   6.662  10.552   1.883 -0.6157 -0.2973 -0.5863
  886MOL0     H22251   6.469  10.509   1.728 -0.1483  2.4216 -1.2457
  886MOL0     H22252   4.774   9.922   1.550 -0.4728 -3.0607 -0.5975
  886MOL0     H22253   4.525   9.870   1.550 -1.9397 -0.3649  2.1120
  886MOL0     H22254   4.155   9.838   1.793 -2.9437  1.5310  1.2722
  886MOL0     H22255   3.936   9.780   1.872 -0.1403 -0.4545  1.7469
  886MOL0     H22256   3.748   9.695   1.954 -1.7876  0.3361  0.3395
  886MOL0     H22257   3.713   9.674   1.780  2.2902  0.7562 -0.1420
  886MOL0     H22258   3.573   9.472   1.840  3.2489 -1.4595  0.6791
  886MOL0     H22259   3.505   9.624   1.913 -1.0594 -1.8789  2.3624
  886MOL0     H22260   3.637   9.383   2.033  0.7881  0.6867 -0.3298
  886MOL0     H22261   3.648   9.533   2.126  0.6518 -1.4303  0.0595
  886MOL0     H22262   3.404   9.571   2.148 -0.0380 -0.2247  1.3845
  886MOL0     H22263   3.452   9.410   2.210  2.4636  0.4142 -0.5459
  886MOL0     H22264   3.207   9.306   1.894  2.0179 -0.5586 -0.9196
  886MOL0     H22265   4.014   9.372   1.814 -2.5958  1.4392  0.2439
  886MOL0     H22266   4.273   9.358   1.623 -1.5984 -0.1201  0.3530
  886MOL0     H22267   4.370   9.386   1.757 -0.1593  2.3372  1.2943
  886MOL0     H22268   4.236   9.287   1.776  1.5950 -1.5530 -0.7860
  887MOL0     O22269   9.040   1.141   9.666  0.0341 -0.4181  0.0724
  887MOL0     C22270   9.003   1.091   9.560  0.1479  0.2781 -0.0972
  887MOL0     O22271   9.084   1.036   9.465  0.2463  0.1071  0.1186
  887MOL0     C22272   9.220   1.010   9.492  1.1523 -0.0246  0.2000
  887MOL0     C22273   9.308   1.085   9.568 -0.1428  0.1169 -0.3342
  887MOL0     C22274   9.446   1.046   9.567 -0.3517  0.5508 -0.2792
  887MOL0     C22275   9.495   0.947   9.490  0.1992  0.2386  0.5877
  887MOL0     O22276   9.631   0.929   9.486 -0.0546  0.5936 -0.0799
  887MOL0     C22277   9.686   0.803   9.457 -0.2596  0.0670  0.3448
  887MOL0     C22278   9.828   0.819   9.495  0.0245  0.0791  0.2181
  887MOL0     C22279   9.903   0.687   9.475  0.5229 -0.2881  0.5430
  887MOL0     C22280   9.981   0.643   9.596 -0.1709  0.2674 -0.4702
  887MOL0     C22281  10.071   0.525   9.565  0.3151  0.6128 -0.0417
  887MOL0     C22282  10.169   0.479   9.682  0.4787  0.5368 -0.5701
  887MOL0     C22283  10.236   0.341   9.665 -0.1448 -1.4379  0.1845
  887MOL0     C22284  10.288   0.318   9.529  0.5839  0.5588 -0.7284
  887MOL0     N22285  10.357   0.186   9.504  0.7905 -0.9038 -0.4507
  887MOL0     C22286  10.284   0.072   9.498 -0.9029  0.0184 -0.1918
  887MOL0     C22287  10.383  -0.015   9.461  0.7356  0.2820  0.4852
  887MOL0     C22288  10.348  -0.158   9.444 -0.6878  0.1799 -0.0821
  887MOL0     C22289  10.458  -0.251   9.488  0.4207 -0.7276 -0.9754
  887MOL0     C22290  10.429  -0.389   9.434 -0.3617  0.0356 -0.2416
  887MOL0     C22291  10.534  -0.492   9.476 -0.7004  0.9695  0.3241
  887MOL0     O22292  10.665  -0.480   9.411 -0.6321  0.4990 -0.3644
  887MOL0     C22293  10.758  -0.582   9.440  0.1795  0.0601  0.3053
  887MOL0     C22294  10.717  -0.710   9.478  0.8662 -0.2839 -0.5696
  887MOL0     C22295  10.816  -0.808   9.511  0.3355  0.0487  0.0626
  887MOL0     C22296  10.762  -0.945   9.547  0.4529  0.4249 -0.1402
  887MOL0     C22297  10.959  -0.778   9.502 -0.2001 -0.3268  0.0307
  887MOL0     C22298  11.072  -0.869   9.528 -0.3800  0.5495  0.0493
  887MOL0     O22299  11.188  -0.809   9.489 -0.1863 -0.2481  0.0828
  887MOL0     C22300  11.308  -0.874   9.452 -0.0006 -0.7996 -0.1387
  887MOL0     C22301  11.420  -0.793   9.442 -0.0998  0.0841  0.0685
  887MOL0     C22302  11.540  -0.841   9.412 -0.2065 -0.1405 -0.2701
  887MOL0     C22303  11.560  -0.972   9.370  0.2977  0.0914  0.4206
  887MOL0     O22304  11.691  -1.004   9.327 -0.3600  0.3051 -0.8009
  887MOL0     C22305  11.723  -1.142   9.358 -0.7400 -0.6005 -0.6331
  887MOL0     C22306  11.871  -1.165   9.331  0.8474 -0.3689 -0.1667
  887MOL0     C22307  11.905  -1.317   9.328  1.0062  0.2538 -0.2541
  887MOL0     C22308  11.853  -1.389   9.199 -0.1270 -0.0905 -0.0927
  887MOL0     C22309  11.911  -1.329   9.075 -0.7991  1.1311 -0.3719
  887MOL0     C22310  11.881  -1.425   8.954 -0.3037  0.1242 -1.7084
  887MOL0     C22311  11.949  -1.367   8.831  1.0024  0.3924  1.0305
  887MOL0     C22312  11.938  -1.473   8.712 -0.8047 -0.0994  0.4175
  887MOL0    Cl22313  11.773  -1.496   8.652 -0.2302 -0.2409 -0.2013
  887MOL0     C22314  11.451  -1.062   9.377  1.1844 -0.5670 -0.1496
  887MOL0     C22315  11.326  -1.007   9.420  0.6096  0.1929  0.9935
  887MOL0     O22316  11.050  -0.980   9.565 -0.3003  1.3359 -0.1826
  887MOL0     C22317  10.989  -0.642   9.467 -0.3400  0.3460  0.2439
  887MOL0     C22318  10.893  -0.546   9.434 -0.2294  0.4290  0.4189
  887MOL0     N22319  10.498   0.050   9.427  0.1129 -1.0963 -0.2437
  887MOL0     N22320  10.486   0.168   9.465  0.4391 -0.2030 -0.5992
  887MOL0     C22321   9.407   0.878   9.412 -0.9237  0.3780 -0.5613
  887MOL0     C22322   9.268   0.914   9.412  0.4292  0.4391  0.3479
  887MOL0     C22323   8.861   1.103   9.533 -0.0949 -0.5760 -0.1586
  887MOL0     C22324   8.821   1.114   9.395 -0.8951 -0.5267 -0.1969
  887MOL0     C22325   8.696   1.157   9.361 -0.6231 -0.4454 -0.6112
  887MOL0     C22326   8.595   1.175   9.454  0.5095  0.7842 -0.4190
  887MOL0     O22327   8.473   1.214   9.399 -0.0047 -0.4118  0.1034
  887MOL0     C22328   8.362   1.229   9.485  0.2346  0.3959 -0.3320
  887MOL0     C22329   8.260   1.306   9.401 -0.3119 -1.2470  0.6387
  887MOL0     C22330   8.150   1.221   9.328 -0.8654 -0.0181 -0.4638
  887MOL0     C22331   8.066   1.312   9.243  1.1143  0.5596 -0.6392
  887MOL0     C22332   7.991   1.411   9.324  0.0075 -0.9308  0.2057
  887MOL0     C22333   7.929   1.486   9.391 -0.6614 -0.0033  0.1679
  887MOL0     C22334   8.632   1.156   9.596 -0.5501 -0.3735  1.1651
  887MOL0     C22335   8.761   1.119   9.634 -0.1674  0.5208  0.2454
  887MOL0     C22336   8.787   1.116   9.782  1.0144  0.4633  0.0706
  887MOL0     H22337   9.273   1.167   9.630  0.9620  0.1194  0.3225
  887MOL0     H22338   9.525   1.106   9.612 -0.8253  1.1129 -0.1824
  887MOL0     H22339   9.666   0.762   9.358 -2.1881 -0.8558  1.0648
  887MOL0     H22340   9.646   0.732   9.530 -1.1369  0.4816  0.2890
  887MOL0     H22341   9.881   0.887   9.428 -1.0917 -2.6757 -3.8522
  887MOL0     H22342   9.831   0.846   9.601  0.6829  1.9900 -0.2573
  887MOL0     H22343   9.833   0.608   9.445  0.7422  0.3812 -1.9755
  887MOL0     H22344   9.976   0.691   9.393  2.8215 -0.8051  2.4579
  887MOL0     H22345  10.056   0.716   9.630  1.9622 -1.4163 -1.3145
  887MOL0     H22346   9.912   0.624   9.679  2.6894 -1.2968  1.7488
  887MOL0     H22347  10.138   0.556   9.484 -0.0796  1.2742 -0.1201
  887MOL0     H22348  10.017   0.440   9.522  1.5852 -0.5858  0.6491
  887MOL0     H22349  10.249   0.553   9.692  0.6254  0.7886 -2.9264
  887MOL0     H22350  10.120   0.479   9.779  2.6625 -0.0891  0.5956
  887MOL0     H22351  10.161   0.265   9.689 -1.2039 -0.3134  0.5407
  887MOL0     H22352  10.325   0.338   9.729  0.6419  3.1656 -0.3501
  887MOL0     H22353  10.209   0.329   9.454 -0.8011 -2.0655  0.1909
  887MOL0     H22354  10.364   0.390   9.498 -0.2252  0.0649 -4.2536
  887MOL0     H22355  10.178   0.055   9.515 -0.7349 -1.5212 -0.5417
  887MOL0     H22356  10.332  -0.177   9.338  2.5519  0.3879 -0.7181
  887MOL0     H22357  10.266  -0.189   9.509 -0.7407  1.1491  0.3404
  887MOL0     H22358  10.553  -0.211   9.452  1.4262 -0.1685  2.0120
  887MOL0     H22359  10.462  -0.253   9.598 -1.8315 -0.4684 -0.8448
  887MOL0     H22360  10.338  -0.415   9.489  0.9804 -1.2085  1.5294
  887MOL0     H22361  10.414  -0.390   9.326 -0.0871 -0.5877 -0.2762
  887MOL0     H22362  10.535  -0.491   9.585 -0.9985  1.9359  0.3267
  887MOL0     H22363  10.495  -0.590   9.446 -0.5712  1.0807 -0.2177
  887MOL0     H22364  10.614  -0.745   9.482  0.7749 -0.5758 -3.4769
  887MOL0     H22365  10.655  -0.943   9.567  0.0491 -1.1201 -1.8592
  887MOL0     H22366  10.800  -0.991   9.638 -3.3980 -1.8933  0.5116
  887MOL0     H22367  10.774  -1.010   9.459  0.9347 -0.2887  0.4377
  887MOL0     H22368  11.408  -0.691   9.479 -0.2603 -0.5809  1.9756
  887MOL0     H22369  11.620  -0.768   9.409 -0.7817  0.6494  1.8594
  887MOL0     H22370  11.697  -1.170   9.460  2.5796  2.0356  1.1543
  887MOL0     H22371  11.663  -1.196   9.284  0.4309 -0.9459 -1.3605
  887MOL0     H22372  11.896  -1.110   9.239 -0.8691  0.0035 -0.4521
  887MOL0     H22373  11.930  -1.120   9.411 -0.1991  2.1674 -0.7168
  887MOL0     H22374  11.874  -1.381   9.412  3.0478 -0.5871 -0.0955
  887MOL0     H22375  12.012  -1.334   9.319  0.7431 -1.4117 -0.7414
  887MOL0     H22376  11.744  -1.400   9.204  0.0191 -1.4702  3.2083
  887MOL0     H22377  11.884  -1.493   9.215  3.1311  1.0812  2.2856
  887MOL0     H22378  11.858  -1.237   9.047 -1.5139  0.0668 -2.7209
  887MOL0     H22379  12.017  -1.302   9.081 -0.9437  1.9531 -1.2691
  887MOL0     H22380  11.772  -1.429   8.940 -0.4775 -2.7624 -0.3124
  887MOL0     H22381  11.911  -1.528   8.976 -0.8900  0.4523  1.0064
  887MOL0     H22382  12.057  -1.355   8.843  1.2748  0.7485 -1.2735
  887MOL0     H22383  11.905  -1.272   8.798 -0.1953 -0.8430 -1.1859
  887MOL0     H22384  11.980  -1.564   8.755  0.1627 -0.0489 -0.4080
  887MOL0     H22385  11.998  -1.436   8.629 -1.9123 -0.8849 -0.7615
  887MOL0     H22386  11.463  -1.166   9.347 -3.5984 -1.9649  1.7520
  887MOL0     H22387  11.253  -1.087   9.431  1.9710 -1.5542 -1.5830
  887MOL0     H22388  11.094  -0.612   9.465 -0.2059 -0.1578 -1.1414
  887MOL0     H22389  10.921  -0.447   9.400  0.5931  0.0852  0.0715
  887MOL0     H22390   9.451   0.810   9.340  1.1714  3.2983 -2.2508
  887MOL0     H22391   9.195   0.866   9.347  0.6780 -0.2863  0.5972
  887MOL0     H22392   8.892   1.108   9.313  1.6148  4.2857  1.2195
  887MOL0     H22393   8.669   1.178   9.258  0.5993 -0.9405 -1.0449
  887MOL0     H22394   8.331   1.127   9.510  0.3016  0.3319 -0.5075
  887MOL0     H22395   8.388   1.281   9.578  3.7393  0.8163 -1.4006
  887MOL0     H22396   8.309   1.374   9.331  0.6094  1.6505  3.8377
  887MOL0     H22397   8.206   1.374   9.468 -0.7898 -2.3558  1.4120
  887MOL0     H22398   8.194   1.133   9.281 -1.4284  0.0699 -1.1707
  887MOL0     H22399   8.086   1.183   9.409 -0.0748  0.2462  0.2995
  887MOL0     H22400   8.004   1.239   9.190  0.3007 -0.1755  1.2433
  887MOL0     H22401   8.127   1.359   9.165 -1.6063 -0.1545 -3.4224
  887MOL0     H22402   7.891   1.561   9.457 -3.7193 -0.0009 -1.4419
  887MOL0     H22403   8.560   1.188   9.670 -1.9791  0.6521 -0.5808
  887MOL0     H22404   8.700   1.129   9.847 -0.8022 -0.7745 -1.9682
  887MOL0     H22405   8.822   1.015   9.804 -4.7733 -2.0632 -0.4321
  887MOL0     H22406   8.864   1.188   9.811 -0.2882  1.8787  0.1357
  888MOL0     O22407   5.680   5.485   2.656  0.2520  0.7108 -0.0614
  888MOL0     C22408   5.700   5.374   2.597 -0.2845 -0.0707 -1.1547
  888MOL0     O22409   5.639   5.329   2.485 -0.2752 -0.1663 -0.1258
  888MOL0     C22410   5.529   5.390   2.428 -0.6902  0.2680  0.7568
  888MOL0     C22411   5.410   5.431   2.489  0.1979 -0.0052 -0.6719
  888MOL0     C22412   5.312   5.512   2.426 -0.6633 -1.1402 -0.0143
  888MOL0     C22413   5.343   5.551   2.304 -0.0128  0.5150 -0.1311
  888MOL0     O22414   5.239   5.631   2.245 -0.2413  0.2717 -0.3681
  888MOL0     C22415   5.294   5.745   2.175 -0.6402 -0.2792 -0.0712
  888MOL0     C22416   5.245   5.871   2.247 -0.6852  0.2316 -0.0296
  888MOL0     C22417   5.337   5.938   2.355 -0.7944 -0.0342  0.0585
  888MOL0     C22418   5.451   6.012   2.281  0.4730 -0.0074 -0.0097
  888MOL0     C22419   5.559   6.067   2.380  0.4647  0.0467  0.0861
  888MOL0     C22420   5.607   5.974   2.504 -0.8247  0.4797  0.4211
  888MOL0     C22421   5.690   5.845   2.465  0.3577 -0.0803 -0.4908
  888MOL0     C22422   5.747   5.761   2.580 -0.2211 -0.4591 -0.0163
  888MOL0     N22423   5.880   5.801   2.628 -0.4454  0.1649  0.0077
  888MOL0     C22424   5.912   5.814   2.761 -0.2859 -0.7945  0.6661
  888MOL0     C22425   6.048   5.851   2.755 -1.1469 -0.2205  0.7468
  888MOL0     C22426   6.143   5.870   2.875  0.8717 -0.3147  0.4215
  888MOL0     C22427   6.268   5.786   2.856  0.4444  0.5237 -0.7112
  888MOL0     C22428   6.230   5.639   2.834  0.2430  0.0568  0.5992
  888MOL0     C22429   6.361   5.567   2.841 -0.4986  0.8455  0.4164
  888MOL0     O22430   6.338   5.432   2.786  0.4567  1.0706 -0.6664
  888MOL0     C22431   6.444   5.350   2.782 -0.6709 -0.5369  0.4180
  888MOL0     C22432   6.575   5.393   2.808  0.8460  0.0148  0.0225
  888MOL0     C22433   6.690   5.312   2.818  1.2326 -0.2910  0.0763
  888MOL0     C22434   6.828   5.350   2.846  0.0706 -0.6206 -0.6131
  888MOL0     C22435   6.662   5.186   2.758  0.8312  0.3274  0.6360
  888MOL0     C22436   6.769   5.083   2.741  0.5811  0.4242  0.1232
  888MOL0     O22437   6.756   4.952   2.798 -0.3410  0.4318  0.3619
  888MOL0     C22438   6.871   4.873   2.810 -0.2829  0.2376 -0.0469
  888MOL0     C22439   6.868   4.741   2.745 -0.3743 -0.6658 -0.7880
  888MOL0     C22440   6.987   4.663   2.749  0.2652 -0.2209 -0.0526
  888MOL0     C22441   7.101   4.702   2.820 -0.0329  0.1226 -0.3648
  888MOL0     O22442   7.229   4.644   2.822  0.1818 -0.0476  0.4571
  888MOL0     C22443   7.241   4.532   2.734  0.2325  0.0439 -0.5194
  888MOL0     C22444   7.377   4.473   2.768 -0.0609  0.1542 -0.8591
  888MOL0     C22445   7.394   4.437   2.919  0.1624  0.7170  0.9590
  888MOL0     C22446   7.539   4.372   2.934 -0.4636  0.4689 -0.1508
  888MOL0     C22447   7.561   4.314   3.074  1.1824 -0.2641 -0.0607
  888MOL0     C22448   7.701   4.257   3.083 -0.5930  0.1356 -0.5363
  888MOL0     C22449   7.748   4.222   3.227 -0.0552 -0.0102 -0.1818
  888MOL0     C22450   7.666   4.116   3.290 -0.5082 -0.6328 -0.4195
  888MOL0    Cl22451   7.745   4.058   3.429 -0.1616  0.6229  0.4382
  888MOL0     C22452   7.087   4.815   2.900  0.1321 -0.2996 -0.0153
  888MOL0     C22453   6.983   4.913   2.888  0.1079  0.7480  0.8994
  888MOL0     O22454   6.864   5.123   2.675 -1.0262 -0.0910  0.0086
  888MOL0     C22455   6.531   5.142   2.738 -0.7234  0.6036 -0.9925
  888MOL0     C22456   6.425   5.220   2.752 -0.1009  0.4436  0.7218
  888MOL0     N22457   6.088   5.873   2.616  1.1819 -0.0245 -0.4313
  888MOL0     N22458   5.986   5.835   2.550 -1.0677  0.2742  0.6109
  888MOL0     C22459   5.453   5.499   2.229  0.1996 -0.6281  0.8440
  888MOL0     C22460   5.539   5.420   2.290  0.4677  0.4577 -0.2271
  888MOL0     C22461   5.806   5.294   2.662 -0.2167 -0.2718  0.1647
  888MOL0     C22462   5.825   5.167   2.608  0.3387  1.1032  0.0024
  888MOL0     C22463   5.930   5.085   2.646  0.2191 -0.1430  0.3300
  888MOL0     C22464   6.010   5.126   2.742 -1.2359 -0.3695 -0.6381
  888MOL0     O22465   6.107   5.038   2.775  0.2996  0.3511  0.1725
  888MOL0     C22466   6.146   5.019   2.910 -0.1945 -0.0364 -0.5093
  888MOL0     C22467   6.179   4.874   2.914  0.8435 -0.1403  0.4401
  888MOL0     C22468   6.263   4.845   3.032  0.7978  0.0718  0.2373
  888MOL0     C22469   6.351   4.721   3.029  0.4486  0.4026  0.3059
  888MOL0     C22470   6.429   4.697   2.910 -0.3242 -0.0418 -0.3755
  888MOL0     C22471   6.495   4.659   2.816 -0.4720 -0.1421  0.0794
  888MOL0     C22472   5.992   5.250   2.818 -0.6254  0.7800  0.6197
  888MOL0     C22473   5.896   5.341   2.764 -0.4229  0.8659  0.4538
  888MOL0     C22474   5.886   5.474   2.833  0.0617  0.5503  0.3988
  888MOL0     H22475   5.394   5.403   2.593  0.8950  0.3273 -0.4682
  888MOL0     H22476   5.218   5.548   2.465  1.0242 -0.0178  3.4222
  888MOL0     H22477   5.260   5.741   2.072 -1.7799 -0.1447  0.2926
  888MOL0     H22478   5.403   5.754   2.169 -0.5923  1.2739  1.8039
  888MOL0     H22479   5.219   5.939   2.165  0.1304 -1.7777 -2.0812
  888MOL0     H22480   5.148   5.854   2.294 -0.7595 -1.0566 -0.6056
  888MOL0     H22481   5.282   6.013   2.413 -0.4904  0.0463  0.2414
  888MOL0     H22482   5.362   5.867   2.434 -0.1014  0.9807  0.7749
  888MOL0     H22483   5.507   5.946   2.213 -1.4454  1.3158 -3.1328
  888MOL0     H22484   5.419   6.101   2.226  0.8827 -0.0905 -0.3879
  888MOL0     H22485   5.515   6.159   2.420 -0.8884 -0.0028 -1.2390
  888MOL0     H22486   5.640   6.091   2.310 -0.7915  1.2255 -1.0158
  888MOL0     H22487   5.672   6.030   2.571  0.5433  0.1950 -0.6185
  888MOL0     H22488   5.517   5.951   2.562  0.3387  0.0337  2.0989
  888MOL0     H22489   5.760   5.871   2.385  0.0076  3.3342  0.1506
  888MOL0     H22490   5.607   5.789   2.420 -0.9713  0.3534  1.3164
  888MOL0     H22491   5.681   5.764   2.667 -0.0050 -0.8823  0.1679
  888MOL0     H22492   5.750   5.666   2.527  0.1017 -0.4777  0.0321
  888MOL0     H22493   5.848   5.811   2.848  1.1597 -0.8534  1.7705
  888MOL0     H22494   6.098   5.843   2.971 -0.8443  0.5040 -0.1132
  888MOL0     H22495   6.186   5.970   2.878  0.1688  0.0229 -0.3867
  888MOL0     H22496   6.338   5.831   2.785 -1.0627  3.6108 -0.4225
  888MOL0     H22497   6.326   5.779   2.948 -0.9769 -1.4328  0.1073
  888MOL0     H22498   6.178   5.598   2.921  0.8071 -0.7332  0.5752
  888MOL0     H22499   6.169   5.628   2.744  1.7961 -1.5308 -0.2991
  888MOL0     H22500   6.436   5.626   2.788 -0.8896 -0.5840 -1.8485
  888MOL0     H22501   6.387   5.565   2.948  0.4555 -0.2258  0.1788
  888MOL0     H22502   6.602   5.498   2.807  1.9088 -0.2474 -0.1937
  888MOL0     H22503   6.883   5.364   2.753  3.0250  1.9203  1.3107
  888MOL0     H22504   6.878   5.281   2.915 -0.5195 -0.1873  0.2818
  888MOL0     H22505   6.829   5.447   2.898  2.3652  0.9914 -3.3859
  888MOL0     H22506   6.780   4.707   2.691 -0.0025  0.2983 -2.0563
  888MOL0     H22507   6.991   4.576   2.684  1.3461 -0.8131  0.7651
  888MOL0     H22508   7.169   4.454   2.763  2.1632 -1.3779  0.7110
  888MOL0     H22509   7.234   4.558   2.628 -1.6422 -1.3529 -0.7925
  888MOL0     H22510   7.392   4.386   2.704 -0.2291  0.0991 -0.8247
  888MOL0     H22511   7.453   4.546   2.739  0.3700  0.7945  1.6125
  888MOL0     H22512   7.322   4.361   2.950  1.5101 -1.8976 -1.8084
  888MOL0     H22513   7.388   4.526   2.983  0.4497  0.7208  0.9834
  888MOL0     H22514   7.620   4.441   2.909 -1.4623  1.0334 -2.0559
  888MOL0     H22515   7.538   4.289   2.862 -0.9706 -0.4354  0.8669
  888MOL0     H22516   7.563   4.397   3.145  0.1871 -0.0784 -0.2253
  888MOL0     H22517   7.482   4.243   3.102  0.7795 -0.1979 -0.9997
  888MOL0     H22518   7.780   4.323   3.046  0.8477 -0.4870  1.2419
  888MOL0     H22519   7.701   4.163   3.028  1.1180 -0.7414  0.8414
  888MOL0     H22520   7.751   4.302   3.302  2.2880 -2.7246  2.9650
  888MOL0     H22521   7.854   4.193   3.228 -0.2791 -0.8742  1.0459
  888MOL0     H22522   7.649   4.042   3.211 -0.5821 -0.6796 -0.3594
  888MOL0     H22523   7.565   4.150   3.314 -0.5098 -0.7175 -0.3095
  888MOL0     H22524   7.169   4.825   2.970 -1.2268 -2.6466  2.0767
  888MOL0     H22525   6.988   5.009   2.939  1.5847  0.9313  0.4583
  888MOL0     H22526   6.508   5.039   2.711  1.2775 -0.9908  2.6001
  888MOL0     H22527   6.321   5.195   2.732 -0.1372  1.7185 -0.9003
  888MOL0     H22528   5.458   5.520   2.123 -2.3227  3.2390  1.2923
  888MOL0     H22529   5.623   5.381   2.234  1.0738  0.2608  0.7887
  888MOL0     H22530   5.763   5.124   2.530  0.0929 -1.7853  1.6480
  888MOL0     H22531   5.950   4.995   2.588 -1.9262 -0.6271  0.2721
  888MOL0     H22532   6.236   5.078   2.925  0.5378 -1.3647  0.4532
  888MOL0     H22533   6.075   5.056   2.984  0.8652  4.1165 -1.2700
  888MOL0     H22534   6.229   4.854   2.819 -0.3305  1.3283 -0.5385
  888MOL0     H22535   6.081   4.827   2.924  0.7080 -0.3627 -1.6248
  888MOL0     H22536   6.347   4.915   3.037  3.0943 -2.4026 -0.9310
  888MOL0     H22537   6.202   4.860   3.122 -2.0376  1.0830 -1.7117
  888MOL0     H22538   6.285   4.636   3.049  0.2686  0.6582  0.8178
  888MOL0     H22539   6.425   4.718   3.110  0.4901 -2.4884  0.2796
  888MOL0     H22540   6.570   4.616   2.753  3.4807  2.2211  2.7183
  888MOL0     H22541   6.071   5.275   2.888  0.6358 -1.0793 -0.0538
  888MOL0     H22542   5.961   5.479   2.912  0.9856  0.7947 -0.4763
  888MOL0     H22543   5.914   5.550   2.758  1.4428  0.3917  0.7303
  888MOL0     H22544   5.792   5.490   2.887  0.7560 -2.0150  2.5650
  889MOL0     O22545   6.066   3.241   7.513 -0.4323 -0.4856  1.0679
  889MOL0     C22546   6.010   3.341   7.459 -0.3411  1.1261  0.0978
  889MOL0     O22547   6.041   3.472   7.487 -0.0425 -0.1112  0.0693
  889MOL0     C22548   6.122   3.503   7.588 -0.0247 -0.8470  0.0044
  889MOL0     C22549   6.103   3.458   7.721  1.6034 -0.0168 -0.7084
  889MOL0     C22550   6.191   3.500   7.829  0.5407  0.6014  0.5707
  889MOL0     C22551   6.304   3.579   7.794 -0.2051  0.1696 -0.2505
  889MOL0     O22552   6.390   3.598   7.903 -0.4046 -0.2980 -0.2940
  889MOL0     C22553   6.505   3.684   7.878 -0.2524  0.6584  0.1000
  889MOL0     C22554   6.596   3.711   7.994 -0.6284 -0.3170  0.2176
  889MOL0     C22555   6.527   3.787   8.106 -0.0098 -0.0352  0.8330
  889MOL0     C22556   6.620   3.795   8.230 -0.2326  0.6898  0.0191
  889MOL0     C22557   6.567   3.897   8.338  0.5399 -0.2109 -0.4641
  889MOL0     C22558   6.686   3.933   8.437  0.0927 -0.4411  0.3899
  889MOL0     C22559   6.715   3.825   8.533 -0.2924  0.7950 -0.2936
  889MOL0     C22560   6.822   3.866   8.629  0.3295  0.0425  0.2786
  889MOL0     N22561   6.889   3.754   8.689  0.3019  1.6596 -0.2961
  889MOL0     C22562   6.853   3.681   8.797 -0.7580  0.3426  0.6465
  889MOL0     C22563   6.947   3.584   8.816  0.2607 -0.2630 -0.1421
  889MOL0     C22564   6.939   3.486   8.922 -0.4663 -0.4140 -0.4033
  889MOL0     C22565   6.852   3.366   8.884 -0.7575  0.1609 -1.0772
  889MOL0     C22566   6.937   3.285   8.781  0.2568 -0.6054  0.8412
  889MOL0     C22567   7.042   3.197   8.842  0.4307  0.1542  0.1328
  889MOL0     O22568   7.108   3.124   8.737  0.3161 -0.5978 -0.1734
  889MOL0     C22569   7.223   3.180   8.684 -0.7128 -0.5260  0.2647
  889MOL0     C22570   7.270   3.312   8.704  0.5470 -0.4333  0.2029
  889MOL0     C22571   7.388   3.367   8.652  0.0757 -0.7523 -0.0098
  889MOL0     C22572   7.423   3.515   8.691  0.3215  0.2600  0.6535
  889MOL0     C22573   7.462   3.289   8.572  0.0439 -0.2862 -0.1808
  889MOL0     C22574   7.586   3.328   8.498 -0.3425 -0.5837 -0.8008
  889MOL0     O22575   7.599   3.272   8.368 -0.1940 -0.2794 -0.4602
  889MOL0     C22576   7.721   3.291   8.306  0.7148  0.8038 -0.3674
  889MOL0     C22577   7.837   3.228   8.357  0.2684 -0.2273  0.2633
  889MOL0     C22578   7.963   3.255   8.296 -0.3554  0.7794  0.5186
  889MOL0     C22579   7.970   3.333   8.174  0.6358 -0.7241  0.3643
  889MOL0     O22580   8.088   3.337   8.101 -0.0934  0.0051  0.0873
  889MOL0     C22581   8.211   3.353   8.180  0.2500 -0.3673 -0.7032
  889MOL0     C22582   8.317   3.393   8.076  0.2730  0.4978 -0.1893
  889MOL0     C22583   8.461   3.403   8.137  0.3682 -0.5780  0.5195
  889MOL0     C22584   8.547   3.416   8.010 -0.0815 -0.7077  0.2059
  889MOL0     C22585   8.692   3.468   8.033 -0.3078 -0.4461 -0.7324
  889MOL0     C22586   8.807   3.355   8.027  0.5813 -0.5766 -0.8706
  889MOL0     C22587   8.949   3.423   8.034  0.7487  0.6320 -0.2547
  889MOL0     C22588   8.978   3.480   8.173  0.6513 -0.6772  0.1378
  889MOL0    Cl22589   9.145   3.547   8.173  0.2351  0.4870  0.3228
  889MOL0     C22590   7.848   3.397   8.131  0.2966  0.7779  0.1184
  889MOL0     C22591   7.729   3.371   8.193 -0.6738 -0.0852 -1.1468
  889MOL0     O22592   7.667   3.405   8.558 -0.8296  0.1238 -0.3277
  889MOL0     C22593   7.420   3.154   8.554  0.0258  0.5050 -0.0102
  889MOL0     C22594   7.303   3.102   8.610 -0.6401  0.5353  0.1233
  889MOL0     N22595   7.047   3.595   8.722 -0.0280  0.4053 -0.0290
  889MOL0     N22596   7.007   3.695   8.649  0.5502 -0.7012  0.1305
  889MOL0     C22597   6.319   3.631   7.661 -0.1631 -0.4993  0.7898
  889MOL0     C22598   6.226   3.589   7.559 -0.7422 -0.5374  0.4997
  889MOL0     C22599   5.898   3.315   7.366 -0.5520 -0.1396  0.8932
  889MOL0     C22600   5.877   3.413   7.265 -0.3157  0.2215  0.0743
  889MOL0     C22601   5.774   3.403   7.182  0.0309 -1.2545 -0.9451
  889MOL0     C22602   5.702   3.292   7.166 -0.3432  0.2964  0.1860
  889MOL0     O22603   5.592   3.291   7.079 -0.0697 -0.1684  0.1900
  889MOL0     C22604   5.568   3.183   6.988 -0.4010  0.1120 -0.6667
  889MOL0     C22605   5.679   3.172   6.881  0.9675  0.2751 -0.3093
  889MOL0     C22606   5.707   3.314   6.824 -0.4969 -0.1159 -0.4934
  889MOL0     C22607   5.833   3.325   6.743  0.4238  0.2225  0.5201
  889MOL0     C22608   5.858   3.461   6.697  0.0005 -0.0580 -0.0319
  889MOL0     C22609   5.876   3.578   6.679 -0.3910 -0.4215 -0.2980
  889MOL0     C22610   5.721   3.193   7.257  0.3532  0.3194 -0.2630
  889MOL0     C22611   5.814   3.199   7.364 -0.9105 -0.5586  0.8871
  889MOL0     C22612   5.833   3.072   7.452 -0.3914  0.9638  0.1121
  889MOL0     H22613   6.026   3.390   7.755  2.8041 -1.6099 -1.0315
  889MOL0     H22614   6.164   3.466   7.929  1.1757  2.1337  1.2904
  889MOL0     H22615   6.468   3.777   7.834 -2.6817  0.5190  1.6537
  889MOL0     H22616   6.573   3.643   7.803  1.3751 -0.1847  1.9407
  889MOL0     H22617   6.639   3.615   8.025 -1.1608 -1.6024 -2.6382
  889MOL0     H22618   6.677   3.763   7.943 -2.1343  0.9331 -0.9943
  889MOL0     H22619   6.519   3.888   8.064 -3.7181 -0.1215  0.9723
  889MOL0     H22620   6.426   3.757   8.137  0.0848  1.7180  3.0759
  889MOL0     H22621   6.626   3.695   8.274  0.5033 -0.6126 -2.8104
  889MOL0     H22622   6.724   3.813   8.204  0.2838  0.8976  2.0454
  889MOL0     H22623   6.484   3.854   8.394  1.2818 -2.3582 -0.9108
  889MOL0     H22624   6.527   3.983   8.284 -0.0660 -1.7823 -2.6243
  889MOL0     H22625   6.775   3.959   8.379 -0.9174  2.1556 -0.1049
  889MOL0     H22626   6.656   4.021   8.495  0.2184 -0.6857  0.8364
  889MOL0     H22627   6.745   3.735   8.478  0.2108  1.0013 -0.3603
  889MOL0     H22628   6.643   3.790   8.608  2.1752  2.7013  3.2257
  889MOL0     H22629   6.895   3.942   8.601 -0.4168  2.2119  3.5995
  889MOL0     H22630   6.768   3.913   8.712  2.6695  1.3112  1.1613
  889MOL0     H22631   6.761   3.688   8.853 -1.9081 -0.6116 -1.0562
  889MOL0     H22632   6.892   3.528   9.011 -0.6232 -0.3435 -0.5195
  889MOL0     H22633   7.039   3.474   8.966 -1.1080 -1.1110  0.8925
  889MOL0     H22634   6.827   3.303   8.970  0.1391 -0.1678 -1.0485
  889MOL0     H22635   6.752   3.390   8.848 -1.7397 -2.6772 -0.4808
  889MOL0     H22636   6.871   3.219   8.725  0.1943 -0.1768  0.4053
  889MOL0     H22637   6.979   3.356   8.710  1.3184 -0.9919  1.0594
  889MOL0     H22638   7.106   3.256   8.908  0.6132 -1.9467  1.9526
  889MOL0     H22639   6.998   3.120   8.907  2.2212 -1.5935 -0.6184
  889MOL0     H22640   7.213   3.380   8.767  1.2002  0.7655 -0.4634
  889MOL0     H22641   7.397   3.581   8.607 -2.9980  1.0298  2.1069
  889MOL0     H22642   7.526   3.524   8.727 -0.3063  3.3813  2.0884
  889MOL0     H22643   7.355   3.558   8.767 -2.4541  0.6125 -1.8326
  889MOL0     H22644   7.827   3.159   8.440 -1.4468  0.1292  0.3879
  889MOL0     H22645   8.051   3.206   8.337 -1.9735 -0.0536  3.2099
  889MOL0     H22646   8.198   3.433   8.253  1.1531 -0.1651 -0.7532
  889MOL0     H22647   8.236   3.259   8.230 -3.5632 -0.2451  1.7961
  889MOL0     H22648   8.302   3.311   8.004  0.6609  1.9607 -2.0265
  889MOL0     H22649   8.294   3.487   8.025  1.6236  2.1142  2.0242
  889MOL0     H22650   8.492   3.310   8.184 -0.1302 -1.8185 -1.4739
  889MOL0     H22651   8.468   3.484   8.210 -1.1987  0.6593 -0.5991
  889MOL0     H22652   8.517   3.491   7.936 -0.8693  0.6523  1.8469
  889MOL0     H22653   8.541   3.321   7.956  0.6867  0.1523 -1.4897
  889MOL0     H22654   8.721   3.551   7.968  3.0741 -1.1257 -0.3189
  889MOL0     H22655   8.692   3.506   8.136 -1.8534  0.2255 -0.9646
  889MOL0     H22656   8.792   3.313   7.928 -2.2898 -1.7045 -0.0646
  889MOL0     H22657   8.798   3.287   8.113 -2.2297  1.3734  0.5745
  889MOL0     H22658   8.958   3.500   7.957 -1.2451  0.2600 -0.9153
  889MOL0     H22659   9.031   3.351   8.028  2.3426  2.0479  2.4190
  889MOL0     H22660   8.959   3.407   8.252  0.8792  0.1804  1.0034
  889MOL0     H22661   8.907   3.560   8.197  0.6585 -0.6249 -0.0150
  889MOL0     H22662   7.834   3.454   8.039 -1.1666 -0.0908 -0.2337
  889MOL0     H22663   7.638   3.420   8.161 -0.7472  0.2583 -0.4353
  889MOL0     H22664   7.490   3.097   8.493  0.2796  0.8621 -0.0569
  889MOL0     H22665   7.286   2.997   8.587 -2.2704  1.1749 -1.8271
  889MOL0     H22666   6.404   3.682   7.618  0.8743 -0.6205  2.6143
  889MOL0     H22667   6.228   3.615   7.454  0.0331 -0.9657  0.3982
  889MOL0     H22668   5.918   3.513   7.270 -0.8474  0.3787  1.8567
  889MOL0     H22669   5.734   3.492   7.135 -0.3414 -1.1338 -0.4127
  889MOL0     H22670   5.568   3.092   7.050  1.6362 -0.1373 -0.9856
  889MOL0     H22671   5.468   3.196   6.944 -0.6129  1.0957  0.0725
  889MOL0     H22672   5.656   3.098   6.803 -2.6812 -0.8362  1.5851
  889MOL0     H22673   5.766   3.132   6.934  0.6278  0.1922  0.1911
  889MOL0     H22674   5.622   3.353   6.766  1.0534  0.0564 -2.7995
  889MOL0     H22675   5.727   3.384   6.906  1.1245  0.2337 -1.1318
  889MOL0     H22676   5.838   3.263   6.653 -0.1897  1.5383 -0.4615
  889MOL0     H22677   5.909   3.288   6.813 -1.2569 -1.7463  1.4013
  889MOL0     H22678   5.913   3.677   6.656 -0.0721 -0.9932 -2.4730
  889MOL0     H22679   5.660   3.103   7.264  0.9604 -0.0466  0.6022
  889MOL0     H22680   5.917   3.014   7.413 -0.4428  2.2631 -2.0843
  889MOL0     H22681   5.861   3.096   7.555  1.9164 -1.1070  0.0495
  889MOL0     H22682   5.734   3.024   7.454 -0.3937  0.8007  3.7045
  890MOL0     O22683   0.327   7.898   1.865 -0.1116 -0.1897 -0.0856
  890MOL0     C22684   0.303   7.854   1.979  0.8614  0.3006  0.0715
  890MOL0     O22685   0.362   7.892   2.097 -0.0773  0.2823 -0.0802
  890MOL0     C22686   0.439   8.007   2.108  0.1620 -0.3796 -0.3400
  890MOL0     C22687   0.371   8.128   2.091 -0.7292  0.1678 -0.4584
  890MOL0     C22688   0.445   8.249   2.095 -0.5060 -0.7803 -0.0026
  890MOL0     C22689   0.588   8.245   2.121 -0.8508 -0.2354  1.2622
  890MOL0     O22690   0.660   8.366   2.112 -0.1935 -0.0937 -0.4491
  890MOL0     C22691   0.793   8.371   2.165  0.5363 -0.0615 -0.2734
  890MOL0     C22692   0.856   8.499   2.125 -0.2126 -0.0403  0.1326
  890MOL0     C22693   0.909   8.486   1.983  0.7077 -0.2333 -0.4000
  890MOL0     C22694   0.955   8.617   1.934  0.7238 -0.5841  1.1328
  890MOL0     C22695   1.029   8.608   1.799 -0.4623 -1.1182 -0.6686
  890MOL0     C22696   1.112   8.734   1.765  0.1109 -0.3263 -0.7079
  890MOL0     C22697   1.145   8.768   1.618 -0.4159  0.1811  0.5042
  890MOL0     C22698   1.022   8.807   1.535  0.4200 -0.1869 -0.0184
  890MOL0     N22699   0.954   8.936   1.574 -0.1970  0.6595 -0.0436
  890MOL0     C22700   0.999   9.064   1.529  0.6615 -0.3291 -0.0278
  890MOL0     C22701   0.893   9.148   1.556  0.3898 -0.4551 -0.8261
  890MOL0     C22702   0.889   9.296   1.519 -1.3053  0.1799 -0.3079
  890MOL0     C22703   1.001   9.377   1.593 -0.2415  0.1231 -0.2837
  890MOL0     C22704   0.980   9.519   1.552 -0.2137  0.3294 -0.1297
  890MOL0     C22705   1.064   9.612   1.645  0.1185  0.4555 -0.0389
  890MOL0     O22706   1.207   9.584   1.644  0.3720  0.3443  0.0732
  890MOL0     C22707   1.284   9.596   1.527  0.1363  0.0415 -0.1723
  890MOL0     C22708   1.241   9.662   1.408  0.3837 -0.3420  0.7341
  890MOL0     C22709   1.313   9.679   1.293  0.7865 -0.4944 -0.2119
  890MOL0     C22710   1.242   9.736   1.165 -0.5196 -0.2126  0.0527
  890MOL0     C22711   1.447   9.639   1.293 -0.3302  0.3647 -0.2563
  890MOL0     C22712   1.533   9.643   1.174  0.2398 -0.2102  0.4738
  890MOL0     O22713   1.643   9.560   1.175 -0.4988 -0.2428 -0.6502
  890MOL0     C22714   1.720   9.549   1.059  0.2012  0.1155 -0.1679
  890MOL0     C22715   1.862   9.567   1.069 -0.3200 -0.2927 -0.2655
  890MOL0     C22716   1.932   9.557   0.950 -0.2818 -0.3184  0.6960
  890MOL0     C22717   1.879   9.523   0.827  0.6028  0.1893  0.3000
  890MOL0     O22718   1.941   9.525   0.709 -0.6537 -0.0599 -0.3890
  890MOL0     C22719   2.080   9.579   0.716 -0.6250  0.0621  0.4619
  890MOL0     C22720   2.125   9.631   0.583 -0.4115 -0.1247 -0.3031
  890MOL0     C22721   2.278   9.636   0.590 -0.6669 -0.1271 -0.3443
  890MOL0     C22722   2.339   9.712   0.707  0.2065 -0.3094  0.1530
  890MOL0     C22723   2.496   9.721   0.703  0.6582  0.2382 -0.5212
  890MOL0     C22724   2.545   9.841   0.627 -0.8061 -0.2352  0.0778
  890MOL0     C22725   2.697   9.855   0.640 -0.1722  0.1256 -0.4996
  890MOL0     C22726   2.755   9.915   0.769 -0.3010 -0.0033 -0.0606
  890MOL0    Cl22727   2.699  10.087   0.787  0.0311  0.0349 -0.3552
  890MOL0     C22728   1.743   9.489   0.825 -0.2615 -0.2245 -0.4911
  890MOL0     C22729   1.660   9.513   0.943  0.0237 -0.6693  0.3553
  890MOL0     O22730   1.510   9.729   1.085 -0.4510  0.0181  0.1609
  890MOL0     C22731   1.487   9.566   1.406  0.5760 -0.1694 -0.3792
  890MOL0     C22732   1.406   9.549   1.518 -0.3310  0.6573 -0.5730
  890MOL0     N22733   0.799   9.070   1.620  0.5449 -0.2536 -0.2783
  890MOL0     N22734   0.844   8.950   1.643  0.1589  0.4896  0.2306
  890MOL0     C22735   0.649   8.117   2.139 -0.2835 -0.0012  0.0582
  890MOL0     C22736   0.571   7.998   2.136  0.1798  0.2189 -0.4644
  890MOL0     C22737   0.202   7.743   1.983 -0.2057  0.7381 -0.6743
  890MOL0     C22738   0.201   7.641   2.090 -0.0302 -0.5107  0.2230
  890MOL0     C22739   0.116   7.536   2.091  0.1561  0.4272 -0.6735
  890MOL0     C22740   0.028   7.507   1.986 -0.3665  1.1757  0.3876
  890MOL0     O22741  -0.047   7.395   1.991 -0.1907  0.8944  0.1440
  890MOL0     C22742  -0.124   7.371   1.872  0.3651 -0.0631 -0.1589
  890MOL0     C22743  -0.220   7.251   1.902  0.5144  0.1533 -0.1756
  890MOL0     C22744  -0.252   7.168   1.776  0.6662 -0.2841 -0.1034
  890MOL0     C22745  -0.285   7.025   1.819 -0.8589  0.5558 -0.4098
  890MOL0     C22746  -0.306   6.941   1.703 -0.6759  0.2434 -0.0383
  890MOL0     C22747  -0.299   6.860   1.612 -0.7295  0.1984  0.2179
  890MOL0     C22748   0.031   7.603   1.884 -0.1868  0.2118 -0.1424
  890MOL0     C22749   0.112   7.720   1.878  0.4611 -0.4230  0.8641
  890MOL0     C22750   0.085   7.809   1.760 -0.1252 -0.2109  0.3368
  890MOL0     H22751   0.264   8.123   2.077 -0.4463 -1.5793 -2.4937
  890MOL0     H22752   0.388   8.337   2.067  2.0867  0.3844 -1.9426
  890MOL0     H22753   0.865   8.292   2.142  1.2916  0.2653  0.8883
  890MOL0     H22754   0.787   8.370   2.274  2.1490  1.4921 -0.1268
  890MOL0     H22755   0.779   8.578   2.122 -0.2372 -0.1011 -1.2168
  890MOL0     H22756   0.929   8.535   2.198  0.8888  0.0496 -0.9881
  890MOL0     H22757   0.991   8.415   1.989  1.0453  0.1133 -0.8490
  890MOL0     H22758   0.824   8.451   1.924  1.4067 -1.7638 -0.5384
  890MOL0     H22759   0.879   8.694   1.916  1.2867 -0.4845 -1.1082
  890MOL0     H22760   1.029   8.661   2.002 -0.6121  1.6428  1.2289
  890MOL0     H22761   0.957   8.586   1.720 -0.5314  1.6942 -1.4729
  890MOL0     H22762   1.099   8.524   1.801  0.1324 -0.6672 -1.6628
  890MOL0     H22763   1.063   8.826   1.800  0.7837 -0.6256  1.1859
  890MOL0     H22764   1.204   8.726   1.824 -0.7934 -0.1106  0.7852
  890MOL0     H22765   1.189   8.680   1.569 -1.3378  0.3641 -0.6952
  890MOL0     H22766   1.218   8.849   1.626  1.6304 -1.6642  1.9431
  890MOL0     H22767   1.062   8.823   1.434  0.7237 -2.6683 -0.3458
  890MOL0     H22768   0.944   8.733   1.522 -1.3025  1.9508 -2.9655
  890MOL0     H22769   1.095   9.084   1.483  1.3919  0.6022  1.7793
  890MOL0     H22770   0.789   9.336   1.538  0.4878  5.5060 -0.3967
  890MOL0     H22771   0.900   9.308   1.411  1.7744  1.5143  0.0170
  890MOL0     H22772   0.982   9.369   1.701  0.5938  1.0658 -0.0462
  890MOL0     H22773   1.096   9.330   1.568  0.3880  0.5062  1.2359
  890MOL0     H22774   1.022   9.532   1.452  1.3970  0.6330  0.5504
  890MOL0     H22775   0.877   9.555   1.548  0.0379  0.9651 -1.1155
  890MOL0     H22776   1.065   9.716   1.612  2.6833  0.8667  1.1098
  890MOL0     H22777   1.032   9.614   1.749  1.6398 -0.8542  0.4883
  890MOL0     H22778   1.142   9.707   1.409  0.8376  0.8728  4.4146
  890MOL0     H22779   1.134   9.732   1.178 -0.5198  1.9249  1.0893
  890MOL0     H22780   1.274   9.687   1.072  1.5038  0.2398  0.4675
  890MOL0     H22781   1.268   9.841   1.153  0.6934 -0.7129 -2.3234
  890MOL0     H22782   1.915   9.603   1.156  0.1638 -2.0803  0.2266
  890MOL0     H22783   2.035   9.589   0.968  1.1272 -4.4923  1.1058
  890MOL0     H22784   2.083   9.669   0.779  0.3122  0.8765 -0.6849
  890MOL0     H22785   2.152   9.505   0.753  0.4268  1.3159  1.0459
  890MOL0     H22786   2.089   9.564   0.503 -1.2175  1.4853 -1.3451
  890MOL0     H22787   2.089   9.729   0.551  0.9174 -0.3041 -2.5810
  890MOL0     H22788   2.312   9.670   0.492 -1.3353  0.9631 -0.2191
  890MOL0     H22789   2.308   9.531   0.601 -0.7053 -0.3832 -2.3973
  890MOL0     H22790   2.316   9.666   0.803  2.8195 -1.7379  0.1936
  890MOL0     H22791   2.289   9.810   0.705 -1.3082 -0.9333  2.8865
  890MOL0     H22792   2.544   9.713   0.801  2.7463 -1.0956 -1.5761
  890MOL0     H22793   2.524   9.626   0.656 -2.0651 -0.1251 -1.6010
  890MOL0     H22794   2.500   9.936   0.658 -1.3432 -0.3617 -0.3059
  890MOL0     H22795   2.512   9.830   0.524  0.1588 -0.5635 -0.2069
  890MOL0     H22796   2.740   9.915   0.559  1.5067 -1.2468 -0.6763
  890MOL0     H22797   2.747   9.760   0.620  0.1497 -0.5572  2.9121
  890MOL0     H22798   2.863   9.906   0.760 -0.1574  1.6793 -0.3581
  890MOL0     H22799   2.724   9.862   0.860 -2.6771 -0.4931 -1.0814
  890MOL0     H22800   1.700   9.434   0.742  1.8252  1.1610 -2.5911
  890MOL0     H22801   1.555   9.489   0.946 -0.0752 -0.1474  1.4998
  890MOL0     H22802   1.591   9.533   1.409  0.9373  0.9307 -0.2277
  890MOL0     H22803   1.425   9.510   1.618 -2.0970  2.5301  0.5506
  890MOL0     H22804   0.757   8.117   2.146 -0.2726  1.3543  0.1181
  890MOL0     H22805   0.630   7.911   2.164 -1.4900 -0.1795  2.1629
  890MOL0     H22806   0.266   7.652   2.176 -3.1101  0.0480  2.6600
  890MOL0     H22807   0.126   7.472   2.177  0.2834  2.0740  0.5885
  890MOL0     H22808  -0.180   7.453   1.826 -1.5656 -0.6415  1.0158
  890MOL0     H22809  -0.052   7.351   1.793  0.5996  3.1520 -0.8875
  890MOL0     H22810  -0.305   7.288   1.961  0.0859 -1.5134  0.3129
  890MOL0     H22811  -0.170   7.179   1.968 -0.4345  1.5470  2.2054
  890MOL0     H22812  -0.340   7.218   1.734  0.8097 -0.2836 -0.4075
  890MOL0     H22813  -0.172   7.176   1.702  0.7303  0.6754  0.0484
  890MOL0     H22814  -0.384   7.010   1.865 -0.8159  0.4523 -0.3505
  890MOL0     H22815  -0.217   6.986   1.895 -0.5496  0.5151 -0.7055
  890MOL0     H22816  -0.299   6.788   1.533 -0.0564  0.4213  0.0067
  890MOL0     H22817  -0.040   7.587   1.803  0.2584  0.4788 -0.5902
  890MOL0     H22818   0.000   7.785   1.695  1.0888  2.9731 -2.7994
  890MOL0     H22819   0.068   7.911   1.796 -2.1378 -0.7905  1.1729
  890MOL0     H22820   0.174   7.810   1.696 -0.9963 -3.6216 -1.1407
  891MOL0     O22821   0.360   0.840   4.307  0.0948 -0.8537 -0.8154
  891MOL0     C22822   0.308   0.745   4.358  1.3333  0.9216 -0.3966
  891MOL0     O22823   0.369   0.624   4.388  0.4678  0.5339  0.4158
  891MOL0     C22824   0.502   0.603   4.356 -0.6162  1.0690  0.5525
  891MOL0     C22825   0.601   0.654   4.442 -0.1435  0.4586 -0.2986
  891MOL0     C22826   0.734   0.643   4.402 -0.5547  0.1688 -1.0141
  891MOL0     C22827   0.770   0.575   4.281 -0.7218 -0.1599  0.0034
  891MOL0     O22828   0.899   0.571   4.245 -0.2941  0.7262 -0.1837
  891MOL0     C22829   0.915   0.593   4.108 -0.3592 -0.5074  0.1487
  891MOL0     C22830   0.860   0.727   4.056 -0.3402  0.1073  0.2667
  891MOL0     C22831   0.906   0.846   4.142 -0.3830 -0.3793 -0.1511
  891MOL0     C22832   1.017   0.936   4.075 -0.1070  0.8939  0.2497
  891MOL0     C22833   1.155   0.869   4.102 -0.4479 -0.1695  0.0430
  891MOL0     C22834   1.274   0.964   4.069 -0.2919 -0.5638 -0.4076
  891MOL0     C22835   1.403   0.924   4.141 -0.8158 -0.6898 -0.2753
  891MOL0     C22836   1.457   0.782   4.108  0.3419 -0.4536  0.6505
  891MOL0     N22837   1.589   0.736   4.172  0.3483 -0.4762  0.8822
  891MOL0     C22838   1.605   0.736   4.307  0.2421  0.6025  0.6803
  891MOL0     C22839   1.724   0.679   4.337 -0.2002 -0.9215 -1.0461
  891MOL0     C22840   1.787   0.645   4.467  0.7059  0.1218 -0.0567
  891MOL0     C22841   1.833   0.764   4.543 -0.3785 -0.3102  0.7386
  891MOL0     C22842   1.894   0.728   4.680 -0.0953  0.4644  0.2808
  891MOL0     C22843   1.982   0.844   4.744  0.1869  0.3738  0.6906
  891MOL0     O22844   1.959   0.811   4.879  0.7494 -0.5840 -0.1663
  891MOL0     C22845   2.059   0.834   4.972  0.0754 -0.7939  0.9540
  891MOL0     C22846   2.078   0.731   5.064 -0.3575 -0.8213 -0.1700
  891MOL0     C22847   2.180   0.747   5.165 -0.1201  0.6727 -0.0833
  891MOL0     C22848   2.199   0.619   5.259 -0.1478  0.1135 -1.3509
  891MOL0     C22849   2.255   0.865   5.165  0.2402  1.7941 -0.2301
  891MOL0     C22850   2.343   0.887   5.276 -0.0067 -0.1364  0.4044
  891MOL0     O22851   2.463   0.948   5.243  0.0871  1.0956 -0.3422
  891MOL0     C22852   2.563   0.939   5.330 -1.2827  0.0258 -0.4376
  891MOL0     C22853   2.573   1.015   5.446 -0.0711  0.5591 -0.2808
  891MOL0     C22854   2.697   1.030   5.519  0.7340 -0.5214  0.2320
  891MOL0     C22855   2.813   0.959   5.478  0.2628  0.5747  0.5291
  891MOL0     O22856   2.918   0.978   5.562 -0.8064 -0.2884  0.5252
  891MOL0     C22857   3.043   0.920   5.519 -0.5889 -0.0111 -0.1183
  891MOL0     C22858   3.143   0.922   5.634 -0.4656  0.9366  0.1840
  891MOL0     C22859   3.185   1.064   5.682  0.4185  0.3806 -0.3234
  891MOL0     C22860   3.284   1.066   5.802  0.2344 -0.4593  0.6071
  891MOL0     C22861   3.298   1.207   5.861  0.1864  0.9420  0.5248
  891MOL0     C22862   3.413   1.203   5.961  0.1299 -1.6455 -0.7303
  891MOL0     C22863   3.426   1.341   6.035 -0.1663 -0.3637 -0.6894
  891MOL0     C22864   3.558   1.377   6.103 -0.5419  0.3158  0.5299
  891MOL0    Cl22865   3.535   1.535   6.173 -0.0768 -0.4858  1.1542
  891MOL0     C22866   2.804   0.888   5.352 -0.2880  0.4472  0.0266
  891MOL0     C22867   2.684   0.886   5.283  0.5557 -0.9022 -0.4658
  891MOL0     O22868   2.309   0.853   5.388  0.1689 -0.7029 -0.3063
  891MOL0     C22869   2.232   0.968   5.077  1.0631 -0.4131 -0.4701
  891MOL0     C22870   2.135   0.956   4.980  0.0502  0.1869 -0.7317
  891MOL0     N22871   1.772   0.644   4.215  0.5024 -0.7044  0.0443
  891MOL0     N22872   1.698   0.680   4.115 -0.1556 -0.8933  1.0490
  891MOL0     C22873   0.662   0.522   4.207  0.2200 -1.1742  0.1856
  891MOL0     C22874   0.531   0.545   4.238  1.4872 -0.8620  0.7694
  891MOL0     C22875   0.158   0.757   4.388  0.5120 -0.6112 -0.3930
  891MOL0     C22876   0.090   0.851   4.311 -0.5658  0.1730  1.0387
  891MOL0     C22877  -0.044   0.859   4.314  0.6431 -0.4540  0.2551
  891MOL0     C22878  -0.114   0.771   4.398 -0.2489  0.8792 -0.3799
  891MOL0     O22879  -0.253   0.765   4.402 -0.3156  0.2797 -0.2239
  891MOL0     C22880  -0.329   0.846   4.303  1.0578  0.2874  0.1592
  891MOL0     C22881  -0.482   0.809   4.297  0.9273 -0.0255 -0.4644
  891MOL0     C22882  -0.563   0.900   4.207  0.2155 -0.5389 -0.2785
  891MOL0     C22883  -0.715   0.871   4.207 -0.1394 -0.8584  0.7375
  891MOL0     C22884  -0.751   0.728   4.212  0.6362 -0.5605  0.4072
  891MOL0     C22885  -0.789   0.614   4.205 -0.4402  0.0888  0.2009
  891MOL0     C22886  -0.045   0.690   4.486  0.2029  1.0882 -0.2141
  891MOL0     C22887   0.094   0.677   4.486  0.9958  0.3458  1.0028
  891MOL0     C22888   0.163   0.587   4.585  0.1392  0.4330  0.7014
  891MOL0     H22889   0.571   0.703   4.534 -2.1726  3.3610 -2.3421
  891MOL0     H22890   0.822   0.686   4.448 -1.0124  1.0013 -0.9001
  891MOL0     H22891   0.872   0.512   4.049  1.0684  0.3567 -2.2466
  891MOL0     H22892   1.021   0.588   4.079 -0.4516  0.8098 -0.4712
  891MOL0     H22893   0.898   0.746   3.955 -0.2116  0.4651  0.3825
  891MOL0     H22894   0.751   0.732   4.053 -0.2803  1.3581 -1.3962
  891MOL0     H22895   0.820   0.911   4.162 -1.0376 -1.6244  1.2462
  891MOL0     H22896   0.957   0.804   4.230  0.7595 -0.5044 -0.8427
  891MOL0     H22897   0.995   0.955   3.969  0.6213  1.2436  0.1550
  891MOL0     H22898   1.016   1.036   4.118 -0.0766  0.2243  1.8755
  891MOL0     H22899   1.158   0.774   4.047 -0.0902  0.1903 -0.5717
  891MOL0     H22900   1.152   0.851   4.210 -0.3422 -2.9380 -0.3312
  891MOL0     H22901   1.294   0.965   3.961 -0.1130  2.1586 -0.4192
  891MOL0     H22902   1.239   1.064   4.095  0.9704 -0.0124 -0.7505
  891MOL0     H22903   1.388   0.928   4.249 -1.7798  0.1165 -0.4210
  891MOL0     H22904   1.475   1.005   4.125 -2.1929  0.3882 -1.2812
  891MOL0     H22905   1.380   0.707   4.130 -0.0160 -0.6578 -1.1086
  891MOL0     H22906   1.473   0.785   3.999  1.3440 -1.1847  0.7585
  891MOL0     H22907   1.527   0.753   4.380 -1.3297 -0.4188 -0.6940
  891MOL0     H22908   1.878   0.587   4.448  0.4174 -0.3058 -0.1451
  891MOL0     H22909   1.718   0.581   4.524 -0.2564  2.4444  1.5278
  891MOL0     H22910   1.909   0.823   4.491 -2.4209  3.8106  1.9838
  891MOL0     H22911   1.757   0.842   4.553 -0.3025  0.6022 -3.6719
  891MOL0     H22912   1.810   0.704   4.745  0.3560 -4.1749 -0.4903
  891MOL0     H22913   1.954   0.637   4.672 -0.4010  0.1609  1.3298
  891MOL0     H22914   2.085   0.853   4.708 -0.1591  0.5969 -0.2840
  891MOL0     H22915   1.931   0.938   4.721  1.0107  0.3569 -1.5506
  891MOL0     H22916   2.011   0.645   5.058  0.8939 -1.7792 -0.9857
  891MOL0     H22917   2.298   0.571   5.253 -0.6319 -1.6400  2.0413
  891MOL0     H22918   2.128   0.541   5.232  2.0654 -1.7745 -2.0907
  891MOL0     H22919   2.198   0.640   5.366  1.0852  1.9605 -1.6603
  891MOL0     H22920   2.488   1.069   5.484 -1.4291 -1.6118 -0.0621
  891MOL0     H22921   2.707   1.092   5.607 -0.0894 -2.5276  1.8075
  891MOL0     H22922   3.027   0.817   5.487  3.0548 -0.7295 -0.1204
  891MOL0     H22923   3.087   0.974   5.435  2.9353 -0.7403  1.0681
  891MOL0     H22924   3.099   0.868   5.718 -3.9503  3.4389  0.1783
  891MOL0     H22925   3.235   0.876   5.596 -0.7921 -0.6093  1.1901
  891MOL0     H22926   3.098   1.123   5.714  1.4115  1.2270  0.9067
  891MOL0     H22927   3.230   1.121   5.600 -0.6409  1.5565 -0.1329
  891MOL0     H22928   3.379   1.023   5.769  0.1711  0.2909 -0.6113
  891MOL0     H22929   3.252   1.007   5.888  0.0341  2.7472  2.9017
  891MOL0     H22930   3.327   1.275   5.781 -1.0652  1.8570  0.8305
  891MOL0     H22931   3.198   1.237   5.894 -1.2190 -1.9098 -0.7555
  891MOL0     H22932   3.505   1.173   5.911 -0.3244  0.3676 -2.9714
  891MOL0     H22933   3.398   1.132   6.043 -1.2418  2.2295  2.7827
  891MOL0     H22934   3.346   1.335   6.110 -0.0158 -0.5289 -0.5406
  891MOL0     H22935   3.416   1.422   5.963  0.8901  0.6499  0.2691
  891MOL0     H22936   3.638   1.384   6.028 -1.2326  2.5622 -0.0928
  891MOL0     H22937   3.581   1.300   6.177  1.0267 -0.3396 -0.5598
  891MOL0     H22938   2.899   0.850   5.316 -0.7692 -2.3635  1.4570
  891MOL0     H22939   2.681   0.843   5.184  1.1706 -0.7031 -0.5694
  891MOL0     H22940   2.291   1.059   5.083 -3.0010  2.7018 -2.3156
  891MOL0     H22941   2.118   1.029   4.902 -1.8875 -0.5941 -1.1009
  891MOL0     H22942   0.672   0.473   4.110 -0.8176 -0.2726 -0.4065
  891MOL0     H22943   0.455   0.497   4.179  2.0996  0.3083 -1.0570
  891MOL0     H22944   0.146   0.912   4.241 -1.2224  0.3211  0.6251
  891MOL0     H22945  -0.093   0.933   4.251  0.9397  2.0351  2.7194
  891MOL0     H22946  -0.324   0.952   4.330  0.6323  0.6743 -1.1882
  891MOL0     H22947  -0.295   0.824   4.201  2.6205  0.5211  0.6124
  891MOL0     H22948  -0.533   0.806   4.394 -1.7110 -0.8001 -1.7750
  891MOL0     H22949  -0.497   0.709   4.255  3.2079 -1.2130  1.2772
  891MOL0     H22950  -0.552   1.005   4.237 -0.7517 -0.8556  1.2835
  891MOL0     H22951  -0.541   0.882   4.102 -1.1304  0.0725 -0.6809
  891MOL0     H22952  -0.758   0.915   4.117  0.3565 -0.5201  0.6613
  891MOL0     H22953  -0.757   0.922   4.295 -0.8447 -0.5504  0.2297
  891MOL0     H22954  -0.834   0.520   4.177 -1.6544 -0.3813  3.3499
  891MOL0     H22955  -0.101   0.622   4.550  1.1799  0.7947  0.3589
  891MOL0     H22956   0.261   0.615   4.624  0.7100 -2.1362  1.3129
  891MOL0     H22957   0.096   0.579   4.671 -1.3380  2.0382 -0.2463
  891MOL0     H22958   0.169   0.487   4.541 -2.0745  1.1348 -1.3996
  892MOL0     O22959   4.253   7.586  10.226  0.3831 -0.3321 -0.3021
  892MOL0     C22960   4.184   7.643  10.303 -0.5012 -0.3359  0.6434
  892MOL0     O22961   4.200   7.772  10.346  0.0983 -0.3057  0.5743
  892MOL0     C22962   4.308   7.847  10.300  0.3717 -1.0926 -0.1122
  892MOL0     C22963   4.429   7.825  10.351  0.2182  0.5434 -0.3642
  892MOL0     C22964   4.541   7.898  10.300  0.9674 -0.2800 -0.0524
  892MOL0     C22965   4.526   7.988  10.198  0.2632 -0.1137  0.1934
  892MOL0     O22966   4.630   8.060  10.147 -0.4288  0.6676  0.0599
  892MOL0     C22967   4.757   8.063  10.215 -0.4582 -0.0968  0.5307
  892MOL0     C22968   4.820   8.189  10.174 -0.4269 -0.1399  0.3536
  892MOL0     C22969   4.865   8.177  10.017  1.1127 -0.0853 -0.4774
  892MOL0     C22970   4.944   8.047   9.977  0.7902 -0.1503 -0.5712
  892MOL0     C22971   5.008   8.083   9.845 -0.9424 -0.1571 -0.1114
  892MOL0     C22972   5.011   7.955   9.757 -1.0416 -0.1607  0.3693
  892MOL0     C22973   5.127   7.952   9.657  0.2218 -0.2897 -0.5000
  892MOL0     C22974   5.135   7.816   9.589 -0.2684  0.2181  0.5589
  892MOL0     N22975   5.236   7.809   9.480 -0.1250 -0.0243 -0.0129
  892MOL0     C22976   5.238   7.878   9.359 -0.2907 -0.4425 -1.3683
  892MOL0     C22977   5.339   7.822   9.293  0.0713 -0.1607 -0.0069
  892MOL0     C22978   5.383   7.846   9.158 -0.2676 -0.8424 -0.4783
  892MOL0     C22979   5.388   7.718   9.072 -0.6967  0.7586 -0.3498
  892MOL0     C22980   5.415   7.733   8.922 -0.0947  0.9185 -0.2713
  892MOL0     C22981   5.550   7.794   8.901  0.4654  0.2950 -0.2373
  892MOL0     O22982   5.552   7.846   8.766  0.8683  0.9237  0.1500
  892MOL0     C22983   5.674   7.827   8.706  0.3792  0.6956  0.4828
  892MOL0     C22984   5.668   7.788   8.575  1.1117  0.0193 -0.5672
  892MOL0     C22985   5.784   7.762   8.501  0.1844 -1.1438  0.6053
  892MOL0     C22986   5.777   7.737   8.350  0.7601  0.2635 -0.6285
  892MOL0     C22987   5.907   7.768   8.566  0.5387 -0.5734  1.3254
  892MOL0     C22988   6.039   7.735   8.499  0.3018  1.0595 -1.0122
  892MOL0     O22989   6.147   7.813   8.542 -0.4369  0.5621  0.0274
  892MOL0     C22990   6.269   7.798   8.483  0.5425 -0.4300  0.1542
  892MOL0     C22991   6.310   7.913   8.405 -0.6366 -0.3224  0.2607
  892MOL0     C22992   6.438   7.916   8.341 -0.0425 -0.0242 -0.6315
  892MOL0     C22993   6.515   7.805   8.354 -0.4307  0.3138  0.0438
  892MOL0     O22994   6.641   7.791   8.302  0.1786 -0.4065 -0.3393
  892MOL0     C22995   6.731   7.898   8.320  0.0561 -0.6918  1.0532
  892MOL0     C22996   6.865   7.839   8.277 -0.4726  0.2765 -0.4339
  892MOL0     C22997   6.958   7.950   8.227 -0.3453 -0.3867 -0.2955
  892MOL0     C22998   7.021   8.008   8.346  0.1187  0.7233  0.0350
  892MOL0     C22999   7.125   8.113   8.312 -0.9738  0.5111 -0.7222
  892MOL0     C23000   7.195   8.160   8.434 -0.3746 -0.1368  0.7518
  892MOL0     C23001   7.327   8.245   8.411  0.5432  0.2086  0.0097
  892MOL0     C23002   7.428   8.173   8.328  0.8967 -0.3891  0.1608
  892MOL0    Cl23003   7.492   8.018   8.399  0.2617  0.4627 -0.0097
  892MOL0     C23004   6.467   7.692   8.422 -0.2738  0.7100 -0.9825
  892MOL0     C23005   6.343   7.686   8.481 -1.0909 -0.3097 -0.7529
  892MOL0     O23006   6.045   7.643   8.414  0.1539 -0.6717  0.4800
  892MOL0     C23007   5.915   7.807   8.697  0.0665  0.5304 -1.1256
  892MOL0     C23008   5.799   7.828   8.765 -0.2007  0.2383 -0.6432
  892MOL0     N23009   5.400   7.725   9.371  0.9317  0.4262 -0.1346
  892MOL0     N23010   5.332   7.717   9.485 -0.7351 -0.4410 -0.2362
  892MOL0     C23011   4.396   8.010  10.146 -0.4266  0.4359 -0.3203
  892MOL0     C23012   4.287   7.937  10.190 -0.0386  0.0720 -0.4374
  892MOL0     C23013   4.061   7.574  10.347  0.0601  0.6647 -0.9763
  892MOL0     C23014   3.952   7.655  10.384 -0.4057  0.3205 -0.4060
  892MOL0     C23015   3.839   7.602  10.428 -0.0141 -0.0884 -0.5627
  892MOL0     C23016   3.822   7.464  10.442 -0.3622  0.6093 -0.1113
  892MOL0     O23017   3.705   7.410  10.478 -0.4547 -0.2713 -0.2935
  892MOL0     C23018   3.584   7.460  10.421  1.1505 -0.8707 -0.7078
  892MOL0     C23019   3.484   7.483  10.536  0.0217 -0.6847  0.1295
  892MOL0     C23020   3.411   7.347  10.567 -0.2123 -0.7155 -0.8519
  892MOL0     C23021   3.298   7.373  10.669  0.0112  0.5809 -0.7491
  892MOL0     C23022   3.248   7.239  10.718 -0.5035 -0.4909  0.3980
  892MOL0     C23023   3.194   7.138  10.746  0.9271  0.3966  0.2856
  892MOL0     C23024   3.922   7.380  10.388 -0.2202  0.1019 -0.0429
  892MOL0     C23025   4.050   7.435  10.347  0.4411  0.1257  0.3431
  892MOL0     C23026   4.152   7.332  10.305 -0.2980 -0.1610 -0.4079
  892MOL0     H23027   4.449   7.753  10.430 -0.0997  0.4434 -0.3738
  892MOL0     H23028   4.633   7.871  10.352  0.9795 -0.3173 -0.0927
  892MOL0     H23029   4.820   7.982  10.178 -0.1874  0.9720 -1.4906
  892MOL0     H23030   4.745   8.062  10.323  0.6452  0.1330  0.6637
  892MOL0     H23031   4.748   8.272  10.180 -0.4233 -0.2514  2.9419
  892MOL0     H23032   4.895   8.212  10.251 -2.6700  4.7514  1.4940
  892MOL0     H23033   4.777   8.177   9.952  1.6046 -1.1812 -1.1728
  892MOL0     H23034   4.933   8.259   9.996 -1.3359  2.2819  0.2549
  892MOL0     H23035   5.021   8.028  10.052  2.1890 -0.1121 -1.9270
  892MOL0     H23036   4.871   7.966   9.967  1.4080 -0.4726 -3.2095
  892MOL0     H23037   5.114   8.105   9.862 -0.2164 -1.8462 -2.0876
  892MOL0     H23038   4.952   8.164   9.797 -1.6497 -1.0651 -0.8450
  892MOL0     H23039   5.010   7.869   9.824 -6.3453  0.1223  1.0975
  892MOL0     H23040   4.916   7.951   9.702 -0.4700 -0.6814 -0.6160
  892MOL0     H23041   5.226   7.965   9.701 -1.8501  0.1302  4.6804
  892MOL0     H23042   5.109   8.025   9.577 -1.2982 -1.9242 -1.7085
  892MOL0     H23043   5.160   7.739   9.662 -1.4034 -0.4670  0.2500
  892MOL0     H23044   5.039   7.789   9.544  1.0899  1.6057 -3.6497
  892MOL0     H23045   5.160   7.948   9.330  1.3974  0.8365 -3.1750
  892MOL0     H23046   5.483   7.890   9.170 -1.1225  0.6371  2.0178
  892MOL0     H23047   5.318   7.923   9.117  1.0398  1.8837  2.1487
  892MOL0     H23048   5.455   7.644   9.118 -0.2776  0.9015 -0.7292
  892MOL0     H23049   5.288   7.673   9.083  0.6300 -2.1638  0.8878
  892MOL0     H23050   5.424   7.638   8.868 -1.2672  0.0476  0.9952
  892MOL0     H23051   5.330   7.786   8.877 -0.8848  1.5712  1.8369
  892MOL0     H23052   5.562   7.881   8.966 -0.8748 -0.2700  0.8330
  892MOL0     H23053   5.622   7.717   8.932 -0.4349  0.4621  2.6069
  892MOL0     H23054   5.571   7.789   8.525 -0.2928  0.4704  2.0125
  892MOL0     H23055   5.677   7.768   8.318  1.2834  0.6514 -1.9518
  892MOL0     H23056   5.792   7.628   8.342  2.7340  0.5316 -1.3117
  892MOL0     H23057   5.847   7.787   8.283 -0.1001 -0.8399 -2.4553
  892MOL0     H23058   6.259   8.008   8.392  2.3933  1.3290 -0.5042
  892MOL0     H23059   6.465   7.994   8.271  0.2254  0.4576  0.0016
  892MOL0     H23060   6.696   7.988   8.268 -1.6058 -2.6696 -1.4955
  892MOL0     H23061   6.731   7.918   8.428  1.7143  1.1463  0.7795
  892MOL0     H23062   6.902   7.790   8.367 -4.8739  1.2795  2.2175
  892MOL0     H23063   6.853   7.757   8.205 -2.5573  0.3362 -0.2169
  892MOL0     H23064   6.887   8.020   8.182 -2.9382 -2.1762  0.7762
  892MOL0     H23065   7.028   7.901   8.159 -1.5016  0.9559 -2.6022
  892MOL0     H23066   7.072   7.929   8.404  1.7076  2.1256  0.6266
  892MOL0     H23067   6.940   8.056   8.403 -0.3868 -0.1090  0.0418
  892MOL0     H23068   7.200   8.062   8.250 -2.0897 -0.5387 -1.2431
  892MOL0     H23069   7.078   8.193   8.254  0.8689 -0.1333 -3.2942
  892MOL0     H23070   7.221   8.073   8.495  3.7174 -0.3271 -0.9464
  892MOL0     H23071   7.126   8.220   8.495 -0.2548  1.1855 -0.3741
  892MOL0     H23072   7.374   8.269   8.507 -0.5190 -1.0164  0.8644
  892MOL0     H23073   7.296   8.338   8.362  0.8253 -0.7707 -2.1306
  892MOL0     H23074   7.515   8.237   8.311  0.5394  1.0326  3.1033
  892MOL0     H23075   7.398   8.157   8.224  2.0345 -1.1631 -0.0565
  892MOL0     H23076   6.532   7.605   8.425  1.1411  1.6253 -2.9277
  892MOL0     H23077   6.294   7.600   8.525 -1.7022 -0.2222 -1.2566
  892MOL0     H23078   6.006   7.793   8.754 -1.2172 -2.5958  0.4071
  892MOL0     H23079   5.812   7.827   8.873  1.3876 -1.6917 -0.7903
  892MOL0     H23080   4.383   8.078  10.062  1.6025  1.9432  0.5084
  892MOL0     H23081   4.190   7.946  10.142 -0.6540 -0.7786  0.5929
  892MOL0     H23082   3.945   7.763  10.369  0.8672  0.6301  1.0365
  892MOL0     H23083   3.764   7.669  10.468 -1.7980 -3.4559  2.3184
  892MOL0     H23084   3.598   7.559  10.375 -1.0046  1.0720  2.3786
  892MOL0     H23085   3.549   7.385  10.350  2.7668 -0.8825 -1.5363
  892MOL0     H23086   3.410   7.554  10.501  1.6565  0.7741 -0.5104
  892MOL0     H23087   3.527   7.536  10.622  3.1678 -1.0518 -1.0991
  892MOL0     H23088   3.362   7.309  10.477 -3.1527 -0.4513  0.4933
  892MOL0     H23089   3.484   7.278  10.610  0.8931 -0.1039 -1.7094
  892MOL0     H23090   3.215   7.429  10.626  0.0164 -0.2112 -1.8178
  892MOL0     H23091   3.348   7.426  10.750  1.2474 -1.2893 -0.2184
  892MOL0     H23092   3.141   7.048  10.772  2.0688 -0.5237 -0.4626
  892MOL0     H23093   3.906   7.273  10.377  1.1323 -0.0132 -1.2457
  892MOL0     H23094   4.250   7.360  10.344  0.1061 -0.4954 -1.1738
  892MOL0     H23095   4.117   7.238  10.348 -1.4427 -0.2383 -1.4419
  892MOL0     H23096   4.150   7.312  10.197  2.1527  0.6641 -0.6769
  893MOL0     O23097   8.787   7.097   0.497 -0.2076  0.1893 -0.2039
  893MOL0     C23098   8.861   7.119   0.404  0.2479 -0.6724  0.2758
  893MOL0     O23099   8.916   7.025   0.327  0.3930  0.2883  0.8785
  893MOL0     C23100   8.933   6.903   0.390  0.0244  0.1593  0.4345
  893MOL0     C23101   9.039   6.887   0.480 -0.3957 -0.1189  0.3627
  893MOL0     C23102   9.077   6.755   0.526  0.2233 -0.0745  0.3876
  893MOL0     C23103   9.004   6.642   0.486 -0.3253  0.1106 -0.2855
  893MOL0     O23104   9.048   6.516   0.530  0.2277  0.4281 -0.1607
  893MOL0     C23105   8.980   6.395   0.492 -0.0225 -0.6473  0.0812
  893MOL0     C23106   9.037   6.267   0.544 -0.5883 -0.8346 -0.1216
  893MOL0     C23107   9.176   6.237   0.494 -0.4571  0.3185 -0.5068
  893MOL0     C23108   9.236   6.123   0.574 -0.3055 -0.2089 -0.2943
  893MOL0     C23109   9.386   6.110   0.539 -0.1298 -0.5353 -0.0627
  893MOL0     C23110   9.450   5.998   0.629  0.2244 -0.5541 -0.1203
  893MOL0     C23111   9.594   5.970   0.583 -0.3742  0.4632 -0.6427
  893MOL0     C23112   9.696   6.083   0.561  0.1031 -0.1236 -0.9005
  893MOL0     N23113   9.760   6.132   0.679  0.2681  0.4109 -0.1689
  893MOL0     C23114   9.691   6.193   0.786 -0.0235 -0.7759  0.3393
  893MOL0     C23115   9.795   6.242   0.862  0.4104 -0.5796 -0.2768
  893MOL0     C23116   9.761   6.330   0.983 -0.4924 -0.1228 -0.5600
  893MOL0     C23117   9.822   6.267   1.108  0.9241  1.2024  0.5634
  893MOL0     C23118   9.966   6.306   1.139 -0.3875  0.4004 -0.1043
  893MOL0     C23119   9.994   6.263   1.281  0.4196 -0.6642  0.3517
  893MOL0     O23120   9.933   6.143   1.329 -0.2416  0.2276  0.0040
  893MOL0     C23121   9.953   6.099   1.464  0.1473  0.1441  0.5736
  893MOL0     C23122  10.012   6.182   1.567 -0.2901  0.5517  0.2714
  893MOL0     C23123  10.019   6.138   1.700  0.0106 -0.4107 -0.5383
  893MOL0     C23124  10.076   6.232   1.799  0.5665  0.6914 -0.0472
  893MOL0     C23125   9.971   6.009   1.739  0.3080  1.0061  0.3171
  893MOL0     C23126   9.991   5.954   1.878  0.4350 -0.3641 -0.0112
  893MOL0     O23127   9.941   6.028   1.984 -0.6481  0.1163 -0.0043
  893MOL0     C23128   9.926   5.972   2.110 -0.2925  0.3370 -0.7485
  893MOL0     C23129  10.013   5.884   2.184  0.5708 -0.8263 -0.4401
  893MOL0     C23130   9.991   5.842   2.308 -1.0453 -0.0513 -0.4743
  893MOL0     C23131   9.867   5.869   2.366  0.7837  0.2623 -0.3182
  893MOL0     O23132   9.848   5.807   2.496  0.5286  0.2908  0.3269
  893MOL0     C23133   9.772   5.686   2.484  0.3418  0.2551  0.2030
  893MOL0     C23134   9.841   5.565   2.531  0.0036 -0.0378  0.3476
  893MOL0     C23135   9.816   5.541   2.683 -0.3979 -0.1358  0.6488
  893MOL0     C23136   9.943   5.483   2.741 -0.1791 -0.1041  0.3327
  893MOL0     C23137   9.925   5.437   2.886 -0.5675  0.5730  0.6063
  893MOL0     C23138   9.855   5.297   2.889 -0.3394 -0.3624 -0.0954
  893MOL0     C23139   9.826   5.238   3.031 -0.1381 -0.4766 -0.1992
  893MOL0     C23140   9.730   5.315   3.116 -0.9158 -0.6341  0.6036
  893MOL0    Cl23141   9.574   5.340   3.011  0.1594  0.0608  0.5559
  893MOL0     C23142   9.773   5.961   2.304  0.6847  0.1056 -0.3023
  893MOL0     C23143   9.810   6.013   2.178  0.3417  0.7939 -0.4526
  893MOL0     O23144  10.030   5.838   1.883  0.1027 -0.0713  0.0863
  893MOL0     C23145   9.905   5.933   1.637 -1.0458  0.0178  0.0499
  893MOL0     C23146   9.911   5.976   1.503 -0.0495 -0.1136  0.2234
  893MOL0     N23147   9.923   6.220   0.797  0.8045 -0.2603  0.3671
  893MOL0     N23148   9.893   6.152   0.689  0.8508 -0.8721  0.1970
  893MOL0     C23149   8.890   6.668   0.406  0.6091  0.0566  0.4380
  893MOL0     C23150   8.869   6.791   0.346  0.2729  0.2107 -0.5022
  893MOL0     C23151   8.890   7.252   0.358 -0.4990 -0.1199 -0.2414
  893MOL0     C23152   9.024   7.297   0.361 -0.4966 -0.1224  0.1618
  893MOL0     C23153   9.053   7.433   0.341 -0.5094  0.1532  0.0811
  893MOL0     C23154   8.951   7.522   0.311  0.3344  0.0385 -0.7402
  893MOL0     O23155   8.983   7.654   0.301 -0.1480 -0.0227 -0.4247
  893MOL0     C23156   8.941   7.724   0.182  0.4244  1.3411  0.5505
  893MOL0     C23157   9.068   7.746   0.105 -0.3154  1.0902  0.3721
  893MOL0     C23158   9.137   7.883   0.154 -0.8916 -0.0471 -0.1445
  893MOL0     C23159   9.231   7.939   0.050 -0.4188 -0.1300  0.9168
  893MOL0     C23160   9.338   7.843   0.002  1.1384 -0.3018 -0.5808
  893MOL0     C23161   9.416   7.755  -0.027 -0.7832 -0.3292 -0.0077
  893MOL0     C23162   8.821   7.475   0.301 -0.4467  0.0017  0.5612
  893MOL0     C23163   8.790   7.344   0.331  0.0475  0.1105  0.2695
  893MOL0     C23164   8.640   7.305   0.307  0.0920 -1.3133 -0.2708
  893MOL0     H23165   9.110   6.968   0.496  0.2569 -0.6946  0.4651
  893MOL0     H23166   9.170   6.735   0.578 -1.3818  0.3237  3.6497
  893MOL0     H23167   8.964   6.381   0.384  0.1735  2.0344 -0.3597
  893MOL0     H23168   8.887   6.398   0.549  0.6694 -1.8716  1.3578
  893MOL0     H23169   9.037   6.277   0.653  2.1730 -2.2633  0.0940
  893MOL0     H23170   8.975   6.185   0.508  0.9458 -1.7394 -0.8186
  893MOL0     H23171   9.162   6.187   0.398  1.0854 -1.9024  0.3565
  893MOL0     H23172   9.228   6.333   0.486 -1.4037  0.9262  0.2936
  893MOL0     H23173   9.220   6.157   0.677 -2.5404  4.3058 -1.8547
  893MOL0     H23174   9.192   6.023   0.570  0.1568 -0.8747  4.7375
  893MOL0     H23175   9.434   6.207   0.559  1.7652 -1.7704  1.7622
  893MOL0     H23176   9.399   6.086   0.433  0.2634  0.2732 -0.2097
  893MOL0     H23177   9.437   6.029   0.733 -3.5156 -0.5931 -0.4308
  893MOL0     H23178   9.391   5.906   0.620  2.0303 -1.6621 -1.2904
  893MOL0     H23179   9.589   5.906   0.494 -1.7138 -0.3519 -0.0184
  893MOL0     H23180   9.638   5.919   0.668  2.6870  3.0871 -0.4706
  893MOL0     H23181   9.778   6.056   0.493  1.1196  0.3609  0.1009
  893MOL0     H23182   9.649   6.167   0.509  0.8015  0.3327 -0.8078
  893MOL0     H23183   9.587   6.195   0.813  0.3298  2.7920  1.9619
  893MOL0     H23184   9.653   6.346   0.997 -0.6415 -1.7039  0.2062
  893MOL0     H23185   9.811   6.426   0.966  1.5244 -0.9326  0.5261
  893MOL0     H23186   9.761   6.303   1.191 -0.0958  0.3257  0.2197
  893MOL0     H23187   9.812   6.158   1.106 -0.1578  1.2037 -3.5099
  893MOL0     H23188  10.035   6.243   1.082 -0.3217 -1.3248  1.7391
  893MOL0     H23189   9.993   6.412   1.140 -0.9237  0.5420  0.9048
  893MOL0     H23190  10.101   6.245   1.290  0.1525 -3.3473 -0.8236
  893MOL0     H23191   9.971   6.349   1.345 -2.1242 -0.2355 -1.0217
  893MOL0     H23192  10.035   6.286   1.544  0.1694  0.3066 -0.3986
  893MOL0     H23193   9.997   6.307   1.812 -1.9056 -1.7584 -0.0623
  893MOL0     H23194  10.162   6.291   1.767  0.4719  1.1512  0.5201
  893MOL0     H23195  10.111   6.188   1.893  1.9173 -0.3333 -0.9961
  893MOL0     H23196  10.106   5.885   2.129 -1.1509  2.6031 -3.7509
  893MOL0     H23197  10.070   5.785   2.355  0.1048 -0.0602 -2.2891
  893MOL0     H23198   9.679   5.696   2.541 -0.1582  0.8778 -0.7026
  893MOL0     H23199   9.747   5.667   2.379 -2.6048 -0.8797  1.0059
  893MOL0     H23200   9.806   5.479   2.473 -0.9669  1.6297 -1.6634
  893MOL0     H23201   9.948   5.581   2.520  0.0760  1.2796  2.3193
  893MOL0     H23202   9.730   5.476   2.703 -0.3178  0.1837  2.1775
  893MOL0     H23203   9.794   5.638   2.728  0.6330  0.6498 -0.5069
  893MOL0     H23204  10.019   5.563   2.740 -2.9222  2.7513  1.7756
  893MOL0     H23205   9.968   5.399   2.677  1.4151 -0.2958  1.1540
  893MOL0     H23206  10.022   5.439   2.936 -0.8537  3.2641  1.1767
  893MOL0     H23207   9.857   5.503   2.942  0.0529  1.5167  0.2571
  893MOL0     H23208   9.910   5.223   2.830 -1.0875  0.5031 -1.9719
  893MOL0     H23209   9.759   5.303   2.836 -0.8503  0.1972  0.8561
  893MOL0     H23210   9.919   5.220   3.085  1.2720  2.6255 -1.3283
  893MOL0     H23211   9.774   5.143   3.021 -1.2316 -0.1743  2.0518
  893MOL0     H23212   9.783   5.407   3.143  1.1034 -1.9311  1.2153
  893MOL0     H23213   9.707   5.258   3.206  0.4121 -1.6478  0.3365
  893MOL0     H23214   9.684   5.990   2.359 -1.2070 -0.5850 -2.8534
  893MOL0     H23215   9.750   6.078   2.115 -2.2663 -0.4118  0.6621
  893MOL0     H23216   9.868   5.833   1.655  0.1325 -0.3640  0.4083
  893MOL0     H23217   9.885   5.909   1.422 -2.5384 -1.6396  2.1473
  893MOL0     H23218   8.828   6.592   0.360  1.3329 -0.2801  0.0105
  893MOL0     H23219   8.791   6.799   0.271  0.4148 -0.4257 -0.7250
  893MOL0     H23220   9.103   7.228   0.389  0.8151  1.8504  1.5373
  893MOL0     H23221   9.155   7.468   0.352  1.5528 -3.3743 -4.4158
  893MOL0     H23222   8.864   7.666   0.130  1.4305  0.9658 -0.5404
  893MOL0     H23223   8.905   7.824   0.207  0.3481  1.3756  0.3006
  893MOL0     H23224   9.040   7.770   0.001  2.0104  0.2001 -0.5151
  893MOL0     H23225   9.127   7.654   0.107 -0.4063  1.0448  1.2269
  893MOL0     H23226   9.064   7.956   0.188 -0.8962 -1.4316  3.1244
  893MOL0     H23227   9.205   7.871   0.238  1.6407  1.0375 -1.9197
  893MOL0     H23228   9.267   8.033   0.092 -1.8124  1.8476 -1.9806
  893MOL0     H23229   9.173   7.964  -0.040  0.9085 -2.2305 -0.6194
  893MOL0     H23230   9.483   7.678  -0.060 -0.4662  0.1878 -0.5828
  893MOL0     H23231   8.740   7.541   0.272  0.8141  0.4341 -2.2958
  893MOL0     H23232   8.602   7.332   0.208 -0.6910 -5.9529 -1.4702
  893MOL0     H23233   8.625   7.197   0.315  3.7498 -1.9588 -0.0155
  893MOL0     H23234   8.570   7.345   0.380  0.9018  0.7991 -0.5759
  894MOL0     O23235   6.597   0.415   1.198 -0.4085 -0.4798 -0.5779
  894MOL0     C23236   6.561   0.400   1.086  0.1272  0.4386  0.1756
  894MOL0     O23237   6.626   0.330   0.983  0.2318 -0.0292  0.0440
  894MOL0     C23238   6.750   0.287   0.996 -0.1267 -0.4635  0.4818
  894MOL0     C23239   6.788   0.155   0.980  0.2620  0.2893  0.3439
  894MOL0     C23240   6.923   0.110   0.966  0.6878 -0.6505  0.4428
  894MOL0     C23241   7.025   0.206   0.964 -0.3960 -0.1744 -0.2096
  894MOL0     O23242   7.161   0.180   0.949  0.5331  0.6316 -0.1943
  894MOL0     C23243   7.204   0.042   0.975  0.7105  0.4806  0.5160
  894MOL0     C23244   7.355   0.041   0.940  0.1689 -1.0231 -0.3498
  894MOL0     C23245   7.435  -0.068   1.010 -0.3926 -0.1919 -0.5825
  894MOL0     C23246   7.586  -0.063   0.976  0.3513 -0.6986 -0.0230
  894MOL0     C23247   7.661  -0.173   1.045  0.0425  1.1283 -0.3813
  894MOL0     C23248   7.646  -0.307   0.977  0.1014 -0.2395  0.5005
  894MOL0     C23249   7.749  -0.329   0.860 -1.1429  0.1656 -0.6960
  894MOL0     C23250   7.894  -0.301   0.900  0.5270  0.0830  0.1326
  894MOL0     N23251   7.992  -0.347   0.802  0.2147  0.4099 -0.4482
  894MOL0     C23252   8.079  -0.277   0.724 -0.2575  0.2591 -0.4732
  894MOL0     C23253   8.154  -0.365   0.660 -0.1024 -0.2976 -0.0659
  894MOL0     C23254   8.267  -0.342   0.572  0.6547  0.1235  0.3480
  894MOL0     C23255   8.366  -0.236   0.612 -0.3577  0.2673 -0.2519
  894MOL0     C23256   8.463  -0.264   0.723  0.2841 -0.1660  0.4001
  894MOL0     C23257   8.544  -0.392   0.719 -0.2187 -0.0386 -0.2872
  894MOL0     O23258   8.655  -0.381   0.620  0.7792  0.0269  0.2319
  894MOL0     C23259   8.787  -0.414   0.655  0.2347  0.6666  0.3440
  894MOL0     C23260   8.837  -0.467   0.783 -0.0708 -0.3474  0.5394
  894MOL0     C23261   8.974  -0.507   0.795  0.1091 -0.1047 -0.0798
  894MOL0     C23262   9.026  -0.577   0.916  0.3562  0.5621 -0.4295
  894MOL0     C23263   9.062  -0.475   0.686 -0.3854 -0.1391 -0.5215
  894MOL0     C23264   9.210  -0.498   0.696  0.5566  0.5682 -0.4540
  894MOL0     O23265   9.288  -0.393   0.658  0.1631  0.1440 -0.0291
  894MOL0     C23266   9.423  -0.413   0.667 -0.4423 -1.2423  0.6323
  894MOL0     C23267   9.493  -0.374   0.782 -0.1708  0.1390 -0.6549
  894MOL0     C23268   9.632  -0.386   0.781 -0.4496  0.3680 -0.6912
  894MOL0     C23269   9.701  -0.428   0.664  0.0537 -0.7942  0.2121
  894MOL0     O23270   9.837  -0.444   0.680 -0.1775 -0.6878 -0.3091
  894MOL0     C23271   9.916  -0.468   0.566 -0.9459  0.0177  1.1825
  894MOL0     C23272   9.936  -0.621   0.542 -0.3575 -0.1048  0.6896
  894MOL0     C23273  10.030  -0.685   0.650 -0.5042 -0.0819 -0.0846
  894MOL0     C23274  10.168  -0.631   0.642  0.0060 -0.0995  0.3098
  894MOL0     C23275  10.264  -0.737   0.714  0.8770 -0.1920 -0.3338
  894MOL0     C23276  10.417  -0.716   0.697 -0.1657  0.1648  0.4835
  894MOL0     C23277  10.470  -0.764   0.557 -0.6802  0.0424  0.6233
  894MOL0     C23278  10.603  -0.835   0.577 -0.2929 -0.2250 -0.8050
  894MOL0    Cl23279  10.729  -0.727   0.632 -0.1915 -0.4459  0.0941
  894MOL0     C23280   9.629  -0.475   0.558  0.5240  0.7298 -0.2674
  894MOL0     C23281   9.488  -0.460   0.551  0.2298  0.6743  0.2218
  894MOL0     O23282   9.255  -0.604   0.751  0.5674  0.2409  0.0181
  894MOL0     C23283   9.010  -0.424   0.569  0.5424 -0.2982  0.0919
  894MOL0     C23284   8.876  -0.400   0.551  0.3510 -0.0852 -0.3144
  894MOL0     N23285   8.114  -0.491   0.695 -0.3667  0.4128 -0.3184
  894MOL0     N23286   8.033  -0.475   0.793  0.9816  0.1522  0.5446
  894MOL0     C23287   6.990   0.341   0.970  0.9250  0.6739  0.7717
  894MOL0     C23288   6.857   0.380   0.989 -0.8387  0.4620 -0.2197
  894MOL0     C23289   6.437   0.471   1.034  0.6694 -0.0657 -0.2776
  894MOL0     C23290   6.417   0.521   0.898  0.5251  1.0299 -0.2314
  894MOL0     C23291   6.292   0.579   0.861 -0.2198  0.3115  1.0778
  894MOL0     C23292   6.186   0.573   0.950  0.0569  0.9510  0.8664
  894MOL0     O23293   6.051   0.586   0.921  0.3958  0.1277  0.6829
  894MOL0     C23294   5.999   0.595   0.784 -0.3495 -0.2846  0.2469
  894MOL0     C23295   5.847   0.581   0.775 -0.2214  0.9857  0.9849
  894MOL0     C23296   5.780   0.559   0.637 -0.8709 -0.0807 -0.1624
  894MOL0     C23297   5.631   0.541   0.650  0.1192  0.7907  0.2535
  894MOL0     C23298   5.561   0.570   0.520 -0.5947 -0.1224  0.0805
  894MOL0     C23299   5.482   0.588   0.431 -0.8206 -0.8558 -0.0296
  894MOL0     C23300   6.203   0.518   1.079  0.5279  0.8021  0.8694
  894MOL0     C23301   6.330   0.490   1.131  0.7514 -0.2686  1.0572
  894MOL0     C23302   6.339   0.463   1.272  0.0720  0.4960 -0.6492
  894MOL0     H23303   6.710   0.080   0.983  2.4458 -2.2157 -1.2510
  894MOL0     H23304   6.954   0.007   0.952  1.0403 -0.6962  1.4927
  894MOL0     H23305   7.155  -0.028   0.907 -1.3073  0.8035  1.5661
  894MOL0     H23306   7.191   0.002   1.077 -2.0026 -1.8410 -0.6105
  894MOL0     H23307   7.372   0.036   0.832 -3.9086 -2.0095 -1.0947
  894MOL0     H23308   7.396   0.137   0.972 -1.0479 -0.3115 -0.8520
  894MOL0     H23309   7.442  -0.071   1.119  0.1034 -1.2981 -0.6285
  894MOL0     H23310   7.384  -0.161   0.983 -0.9258 -0.0784  0.0068
  894MOL0     H23311   7.598  -0.076   0.868 -2.1681 -0.5061 -0.3820
  894MOL0     H23312   7.626   0.034   1.006 -3.4331  1.0750 -0.1151
  894MOL0     H23313   7.643  -0.174   1.153 -0.4788  0.3761 -0.4676
  894MOL0     H23314   7.764  -0.138   1.039  0.6436 -0.3717  0.5090
  894MOL0     H23315   7.664  -0.384   1.054  0.4152 -0.2394  0.4304
  894MOL0     H23316   7.542  -0.316   0.945 -0.3407 -0.4025  1.8980
  894MOL0     H23317   7.722  -0.253   0.786  0.3163  2.7208  1.2270
  894MOL0     H23318   7.743  -0.433   0.824 -0.2530 -0.4845  0.9318
  894MOL0     H23319   7.915  -0.195   0.919 -0.8231  1.2030 -3.6994
  894MOL0     H23320   7.918  -0.366   0.984 -2.1992 -0.7294  0.3657
  894MOL0     H23321   8.088  -0.169   0.730 -0.6017  0.2787 -0.2208
  894MOL0     H23322   8.222  -0.312   0.477 -1.8743  0.5277  1.5996
  894MOL0     H23323   8.323  -0.435   0.556  0.4068 -0.1125  0.8467
  894MOL0     H23324   8.426  -0.219   0.522 -1.2946  1.4188 -0.6865
  894MOL0     H23325   8.323  -0.141   0.646  0.2056 -0.2591  2.1097
  894MOL0     H23326   8.538  -0.184   0.728  1.6764 -1.4981  2.5869
  894MOL0     H23327   8.400  -0.273   0.812 -0.4789 -1.6820 -0.2664
  894MOL0     H23328   8.583  -0.402   0.821  2.3376 -2.0089 -1.3301
  894MOL0     H23329   8.476  -0.474   0.696 -0.9047 -0.1641  1.9617
  894MOL0     H23330   8.767  -0.484   0.864  0.2996 -1.3080  0.6742
  894MOL0     H23331   9.036  -0.680   0.881 -1.2547  0.8979 -2.0638
  894MOL0     H23332   8.951  -0.576   0.996 -3.8097 -3.8849 -3.6869
  894MOL0     H23333   9.124  -0.537   0.942  0.3238 -1.4510  3.4985
  894MOL0     H23334   9.442  -0.353   0.875  0.8370 -2.3231  0.5484
  894MOL0     H23335   9.692  -0.348   0.863 -2.6193  1.7306  0.3531
  894MOL0     H23336   9.869  -0.427   0.476 -1.5971 -0.2652  1.3880
  894MOL0     H23337  10.013  -0.417   0.575 -0.9194 -0.4137  4.7506
  894MOL0     H23338   9.842  -0.677   0.539  0.5989 -2.1282  3.3834
  894MOL0     H23339   9.980  -0.633   0.443  0.0086  0.7234  0.7463
  894MOL0     H23340  10.024  -0.794   0.646 -0.2378 -0.0439 -2.4119
  894MOL0     H23341   9.985  -0.671   0.749  0.7496  0.9015  0.3860
  894MOL0     H23342  10.167  -0.534   0.693  0.2270 -0.5498  1.1982
  894MOL0     H23343  10.209  -0.612   0.543 -1.6198  0.4754 -0.2776
  894MOL0     H23344  10.243  -0.749   0.821  1.6146 -0.0629 -0.1683
  894MOL0     H23345  10.237  -0.828   0.659  0.1682  0.9867 -2.0199
  894MOL0     H23346  10.460  -0.786   0.770 -1.2526  0.8142  1.7814
  894MOL0     H23347  10.444  -0.614   0.724 -2.2020  0.2733  2.4133
  894MOL0     H23348  10.499  -0.680   0.494  0.3484 -2.2386 -2.1692
  894MOL0     H23349  10.400  -0.833   0.510  2.4167 -1.3096 -2.4137
  894MOL0     H23350  10.633  -0.890   0.488 -0.7783 -0.1875 -0.9954
  894MOL0     H23351  10.584  -0.909   0.655 -0.3732  1.7773  1.1794
  894MOL0     H23352   9.672  -0.521   0.469 -1.3549  0.7457 -1.2332
  894MOL0     H23353   9.426  -0.497   0.471  0.7636 -0.1078  0.1542
  894MOL0     H23354   9.090  -0.406   0.498  1.6791  1.9793  1.7978
  894MOL0     H23355   8.827  -0.353   0.466 -2.3475 -1.7813  0.1869
  894MOL0     H23356   7.072   0.410   0.955  0.9863 -0.0255 -3.0875
  894MOL0     H23357   6.832   0.486   0.980  0.5116  0.6837 -1.9003
  894MOL0     H23358   6.499   0.509   0.829 -1.3130 -2.7076 -2.0692
  894MOL0     H23359   6.279   0.618   0.761  2.6549  1.3360  1.0194
  894MOL0     H23360   6.028   0.690   0.739  0.3913  0.0754  1.4215
  894MOL0     H23361   6.043   0.523   0.715 -0.3942 -0.7059  0.6546
  894MOL0     H23362   5.807   0.669   0.826  0.9760  1.9897  0.2580
  894MOL0     H23363   5.819   0.497   0.838 -0.8154 -0.3636 -1.0052
  894MOL0     H23364   5.798   0.657   0.592 -0.5954 -0.0318  0.0563
  894MOL0     H23365   5.827   0.485   0.572 -1.9518 -2.2474  1.4048
  894MOL0     H23366   5.593   0.612   0.724  2.1350 -0.1315  2.2532
  894MOL0     H23367   5.614   0.439   0.686  1.5292  0.7314  0.8087
  894MOL0     H23368   5.411   0.583   0.350  0.1288 -0.8315 -0.8865
  894MOL0     H23369   6.117   0.526   1.145 -1.8242  0.4720 -1.9569
  894MOL0     H23370   6.244   0.481   1.323 -0.6721  0.2647 -1.9387
  894MOL0     H23371   6.375   0.362   1.295 -2.7532 -0.4735 -0.1776
  894MOL0     H23372   6.411   0.529   1.323 -0.2975 -0.7990  1.7148
  895MOL0     O23373   7.576   8.462   7.488 -0.2844  0.2181  0.0902
  895MOL0     C23374   7.487   8.417   7.560 -0.4007 -0.1037 -0.1301
  895MOL0     O23375   7.509   8.371   7.688 -0.1454  0.6196 -0.1218
  895MOL0     C23376   7.630   8.378   7.743  0.0221 -0.2560  0.3486
  895MOL0     C23377   7.680   8.254   7.789 -0.5657  0.4475  0.0925
  895MOL0     C23378   7.807   8.253   7.859  0.1917 -1.2107  0.3121
  895MOL0     C23379   7.878   8.379   7.875  0.4340  0.8905 -0.7673
  895MOL0     O23380   8.003   8.394   7.936 -0.6253 -0.7355  0.5389
  895MOL0     C23381   8.025   8.293   8.037  0.5880  0.3521 -0.1887
  895MOL0     C23382   8.163   8.307   8.088 -0.1053 -0.1035 -0.5827
  895MOL0     C23383   8.263   8.280   7.980 -0.0354 -0.4865 -0.7531
  895MOL0     C23384   8.402   8.334   8.000  0.4260  0.0881 -0.7565
  895MOL0     C23385   8.475   8.271   8.127  0.3813  0.0602  0.2880
  895MOL0     C23386   8.615   8.330   8.160  1.3334 -0.3388 -0.4965
  895MOL0     C23387   8.657   8.299   8.302 -1.1123  0.2992 -0.2475
  895MOL0     C23388   8.765   8.396   8.363 -0.6675  0.0407  0.1492
  895MOL0     N23389   8.896   8.362   8.311  0.2907 -0.3727 -0.0208
  895MOL0     C23390   8.955   8.240   8.311 -0.1309  0.6626 -1.1873
  895MOL0     C23391   9.080   8.262   8.266 -0.1965 -0.2652  0.5791
  895MOL0     C23392   9.177   8.147   8.271  0.4371  0.3632  1.0626
  895MOL0     C23393   9.271   8.167   8.156 -0.2389  0.3655  0.4546
  895MOL0     C23394   9.363   8.047   8.121  0.5799  0.1361  0.0010
  895MOL0     C23395   9.484   8.056   8.211 -0.5008 -0.6281  0.1281
  895MOL0     O23396   9.579   8.155   8.177 -0.3766 -0.1941 -0.7655
  895MOL0     C23397   9.705   8.147   8.242 -0.2389  0.0628 -0.2909
  895MOL0     C23398   9.754   8.053   8.334  0.1140  0.0906 -0.0734
  895MOL0     C23399   9.880   8.063   8.400  0.1203  0.3220  0.4143
  895MOL0     C23400   9.914   7.944   8.485  1.0624 -0.4124 -0.1404
  895MOL0     C23401   9.968   8.166   8.348  0.5681  0.3110 -0.2782
  895MOL0     C23402  10.119   8.175   8.356  0.3423  0.2200  0.2082
  895MOL0     O23403  10.177   8.247   8.257 -0.3365  0.1980  0.6998
  895MOL0     C23404  10.303   8.297   8.290  0.4075 -0.0006 -0.4868
  895MOL0     C23405  10.310   8.417   8.367 -0.1836  0.4379  0.2913
  895MOL0     C23406  10.432   8.466   8.419  0.1071  0.5224 -1.0419
  895MOL0     C23407  10.550   8.388   8.398 -0.4328 -0.2063 -0.4075
  895MOL0     O23408  10.672   8.419   8.454  0.3503 -0.0889 -0.0117
  895MOL0     C23409  10.670   8.486   8.582 -0.3581  0.6872 -0.3579
  895MOL0     C23410  10.798   8.475   8.651 -0.6550  0.0156 -0.0214
  895MOL0     C23411  10.913   8.567   8.585  0.0433  0.2373 -0.3986
  895MOL0     C23412  11.041   8.549   8.659  0.3956  0.9296 -0.0837
  895MOL0     C23413  11.155   8.597   8.575  0.2810 -0.5001 -0.3304
  895MOL0     C23414  11.276   8.592   8.662  0.4077  0.2249  0.0764
  895MOL0     C23415  11.394   8.660   8.593 -0.4242  0.0250 -0.0799
  895MOL0     C23416  11.525   8.645   8.668 -0.7306  0.4007 -0.5292
  895MOL0    Cl23417  11.644   8.752   8.592  0.4517 -0.1211  0.2401
  895MOL0     C23418  10.543   8.276   8.317 -0.7475  0.4668 -0.1404
  895MOL0     C23419  10.422   8.230   8.262 -0.6747  0.5199  0.3693
  895MOL0     O23420  10.174   8.100   8.434  0.3139 -0.0552  0.5071
  895MOL0     C23421   9.910   8.257   8.264 -1.0764 -0.9474 -0.1104
  895MOL0     C23422   9.778   8.259   8.218  0.2611  0.4066  0.3740
  895MOL0     N23423   9.085   8.393   8.216  0.1797  0.7617  0.0135
  895MOL0     N23424   8.973   8.447   8.245  0.0961 -0.8438 -0.3910
  895MOL0     C23425   7.820   8.499   7.834  0.2230  0.3043 -0.6742
  895MOL0     C23426   7.703   8.498   7.767  0.3345  0.2190 -0.7828
  895MOL0     C23427   7.353   8.388   7.494 -0.0489  0.3323 -0.8757
  895MOL0     C23428   7.268   8.298   7.556  0.2250 -0.0315  0.2014
  895MOL0     C23429   7.143   8.257   7.502  0.9320 -1.2413 -0.2074
  895MOL0     C23430   7.100   8.316   7.378  0.4887  0.5264 -0.3084
  895MOL0     O23431   6.969   8.279   7.350  0.5837 -0.4545 -0.0134
  895MOL0     C23432   6.880   8.367   7.276 -0.2020 -0.0803 -0.8174
  895MOL0     C23433   6.779   8.280   7.199 -0.2228  0.1656  0.0082
  895MOL0     C23434   6.685   8.364   7.105  0.9742 -0.4081 -0.9520
  895MOL0     C23435   6.578   8.280   7.045 -1.1296  0.1258  0.9314
  895MOL0     C23436   6.490   8.218   7.143  0.3065 -0.2480  0.7255
  895MOL0     C23437   6.413   8.156   7.213 -0.0157 -1.2698  0.0897
  895MOL0     C23438   7.191   8.392   7.307 -0.5837 -0.2803  1.1877
  895MOL0     C23439   7.316   8.421   7.360 -0.1588 -0.9551 -0.0409
  895MOL0     C23440   7.399   8.505   7.262 -0.2901  0.2936 -0.1029
  895MOL0     H23441   7.628   8.160   7.781 -0.8250  0.4221  1.7894
  895MOL0     H23442   7.842   8.158   7.900  0.9081  0.5459  4.2433
  895MOL0     H23443   8.020   8.191   7.997 -3.5066 -0.4751  1.8513
  895MOL0     H23444   7.949   8.304   8.115  1.5238  0.5261  0.7135
  895MOL0     H23445   8.184   8.403   8.138  2.5195 -0.0478 -1.6230
  895MOL0     H23446   8.186   8.226   8.158  0.4075 -1.1005 -1.8560
  895MOL0     H23447   8.253   8.172   7.963 -4.8998 -0.0635 -2.4357
  895MOL0     H23448   8.237   8.332   7.887 -1.5967  3.1935  1.5363
  895MOL0     H23449   8.460   8.315   7.909 -0.8683  0.1917 -1.6253
  895MOL0     H23450   8.392   8.442   8.015  0.2480  0.0315 -0.4589
  895MOL0     H23451   8.491   8.165   8.108  2.6199  0.5276 -0.7373
  895MOL0     H23452   8.408   8.264   8.213  0.5732 -1.9760  0.3143
  895MOL0     H23453   8.684   8.289   8.086 -1.7349 -0.3856 -3.6040
  895MOL0     H23454   8.608   8.439   8.150 -5.9208 -0.4546 -2.4306
  895MOL0     H23455   8.691   8.195   8.306  3.6267  1.4004 -3.1115
  895MOL0     H23456   8.570   8.301   8.368 -0.7371  0.3272  0.2575
  895MOL0     H23457   8.732   8.498   8.342 -2.2215 -0.8973 -2.3800
  895MOL0     H23458   8.763   8.381   8.472  0.6633 -3.1190 -0.1450
  895MOL0     H23459   8.928   8.148   8.362  2.9399  0.9571  1.2839
  895MOL0     H23460   9.114   8.059   8.259 -0.3178  0.9103  0.9331
  895MOL0     H23461   9.231   8.153   8.365 -1.1785  2.0574  1.9531
  895MOL0     H23462   9.211   8.179   8.065  2.0878  1.3639 -1.0457
  895MOL0     H23463   9.330   8.259   8.150  1.1722 -0.5868 -3.4927
  895MOL0     H23464   9.308   7.953   8.135 -0.3479  0.7313  0.4533
  895MOL0     H23465   9.390   8.050   8.015 -0.8638 -2.0252 -0.5001
  895MOL0     H23466   9.461   8.062   8.317 -0.3010  0.6310  0.1148
  895MOL0     H23467   9.535   7.961   8.195  3.9670  1.1174  2.4499
  895MOL0     H23468   9.695   7.962   8.333 -0.0178  0.1350  1.7395
  895MOL0     H23469   9.933   7.857   8.422 -0.8086 -0.3419 -0.8446
  895MOL0     H23470   9.824   7.925   8.544  0.1977  1.4523 -0.7732
  895MOL0     H23471   9.993   7.962   8.559  1.3702 -0.8368 -0.3624
  895MOL0     H23472  10.221   8.471   8.397 -1.8709 -2.1342  0.2352
  895MOL0     H23473  10.426   8.552   8.485  2.2258 -1.8861  2.6817
  895MOL0     H23474  10.644   8.591   8.568 -0.2809  0.5148 -1.9992
  895MOL0     H23475  10.608   8.430   8.654 -2.2985  0.4788 -2.1068
  895MOL0     H23476  10.791   8.514   8.753  0.6421  1.6493 -0.5196
  895MOL0     H23477  10.829   8.370   8.655 -0.9226 -0.0458  0.6646
  895MOL0     H23478  10.885   8.673   8.579 -0.6045  0.1536  0.8790
  895MOL0     H23479  10.925   8.541   8.479 -2.8949 -1.2638 -0.4585
  895MOL0     H23480  11.054   8.442   8.678  1.1941  0.9627 -0.3754
  895MOL0     H23481  11.038   8.598   8.757  0.0068  0.8722 -0.0667
  895MOL0     H23482  11.167   8.524   8.494 -0.2279 -1.1392  0.1656
  895MOL0     H23483  11.146   8.700   8.538  3.8675 -0.8474 -2.7851
  895MOL0     H23484  11.297   8.488   8.690 -0.4771  0.5695  2.2685
  895MOL0     H23485  11.263   8.640   8.760 -0.8744  0.1172 -0.0341
  895MOL0     H23486  11.371   8.767   8.589  2.7857  0.7812 -2.5469
  895MOL0     H23487  11.407   8.624   8.490  0.2730 -3.1247  0.9908
  895MOL0     H23488  11.562   8.542   8.672 -1.0437  0.0909 -3.4326
  895MOL0     H23489  11.512   8.673   8.773 -0.4307 -1.0517 -0.0732
  895MOL0     H23490  10.635   8.221   8.299 -1.2054 -0.6261  0.7815
  895MOL0     H23491  10.416   8.136   8.208  1.9367  0.5780 -0.1586
  895MOL0     H23492   9.972   8.338   8.226 -3.1670  0.3077 -1.0514
  895MOL0     H23493   9.736   8.342   8.164  0.1086  0.5645  0.7354
  895MOL0     H23494   7.870   8.594   7.849  0.1108  0.7460 -2.7948
  895MOL0     H23495   7.666   8.586   7.716 -0.2798 -0.0307 -0.7715
  895MOL0     H23496   7.294   8.262   7.655 -1.6106  0.7364  1.0096
  895MOL0     H23497   7.079   8.190   7.560  1.7136 -2.1174 -0.3430
  895MOL0     H23498   6.815   8.422   7.345  1.7126  1.3843 -0.1027
  895MOL0     H23499   6.937   8.438   7.216  0.6173  1.0242  1.1524
  895MOL0     H23500   6.715   8.220   7.265  0.6160  0.0987  0.7740
  895MOL0     H23501   6.827   8.200   7.142 -1.5600 -2.2647  2.0783
  895MOL0     H23502   6.639   8.444   7.163 -1.2276 -2.3526  0.1901
  895MOL0     H23503   6.749   8.414   7.032  1.1391 -0.1220 -0.6101
  895MOL0     H23504   6.638   8.203   6.996  3.0786  2.2804  2.1372
  895MOL0     H23505   6.509   8.333   6.979 -1.2976 -1.0679  0.1345
  895MOL0     H23506   6.327   8.121   7.266 -0.3497  2.0851  2.0039
  895MOL0     H23507   7.167   8.422   7.205  1.5599 -2.0894  0.0646
  895MOL0     H23508   7.464   8.578   7.310 -0.8063  0.2996  0.6062
  895MOL0     H23509   7.468   8.437   7.211 -2.7406 -2.0721 -0.5447
  895MOL0     H23510   7.344   8.558   7.183 -1.0072  0.9630  0.8280
  896MOL0     O23511   6.342   2.324   8.487  0.6067  0.4001  1.0565
  896MOL0     C23512   6.263   2.405   8.435 -0.2404 -0.0419  0.6162
  896MOL0     O23513   6.275   2.467   8.310  0.3782 -0.4058 -0.9415
  896MOL0     C23514   6.385   2.438   8.242  0.5512 -0.1293  0.0908
  896MOL0     C23515   6.376   2.361   8.132 -0.1525 -0.1800 -0.2344
  896MOL0     C23516   6.486   2.317   8.058 -0.3509  0.5891  1.1465
  896MOL0     C23517   6.610   2.363   8.098  0.1850  0.3739 -0.6857
  896MOL0     O23518   6.731   2.327   8.039  0.1631 -0.2948  0.4291
  896MOL0     C23519   6.738   2.192   7.966 -0.0384 -0.3480  1.0972
  896MOL0     C23520   6.879   2.158   7.910 -0.6103  0.2246  0.6013
  896MOL0     C23521   6.977   2.134   8.023  0.1306 -0.5942  0.4868
  896MOL0     C23522   7.121   2.122   7.978 -0.3278  0.3966 -0.7495
  896MOL0     C23523   7.187   1.980   7.965  0.2381  0.2350  1.0940
  896MOL0     C23524   7.103   1.896   7.873 -0.1232  0.2645  0.9465
  896MOL0     C23525   7.166   1.751   7.862  0.6197  0.5546  0.1587
  896MOL0     C23526   7.194   1.681   7.996 -0.5041  0.0318 -0.3906
  896MOL0     N23527   7.326   1.708   8.041  0.3354  0.1716 -0.4870
  896MOL0     C23528   7.443   1.684   7.962 -0.2592  0.8408 -0.0219
  896MOL0     C23529   7.544   1.702   8.050 -0.5356  0.7636 -0.1731
  896MOL0     C23530   7.693   1.682   8.010  0.8852 -0.3785  0.4970
  896MOL0     C23531   7.750   1.812   7.955  0.1144 -0.3736  0.1659
  896MOL0     C23532   7.838   1.804   7.831  0.3560 -0.3730 -0.8471
  896MOL0     C23533   7.983   1.771   7.870  0.7837 -0.4657 -0.6520
  896MOL0     O23534   8.059   1.758   7.746  0.3484  0.3384  0.2769
  896MOL0     C23535   8.134   1.638   7.736  0.5543  0.0084  0.0179
  896MOL0     C23536   8.282   1.645   7.718  0.9270 -0.0252 -0.3746
  896MOL0     C23537   8.362   1.518   7.709  0.1671 -0.6800  0.4255
  896MOL0     C23538   8.509   1.544   7.695 -0.2534 -0.3891 -0.2465
  896MOL0     C23539   8.298   1.393   7.714  0.3797 -1.0227 -0.7435
  896MOL0     C23540   8.373   1.266   7.707  0.3938 -1.0434  0.2299
  896MOL0     O23541   8.328   1.156   7.786  0.1933  0.0717 -0.4431
  896MOL0     C23542   8.420   1.059   7.825  0.1760 -0.7393 -0.9207
  896MOL0     C23543   8.499   0.988   7.745  0.4954 -0.2923  0.7330
  896MOL0     C23544   8.600   0.902   7.785  0.2190  0.3051  0.1542
  896MOL0     C23545   8.622   0.878   7.917  0.3858 -0.0344  0.1670
  896MOL0     O23546   8.721   0.786   7.954  0.5279 -0.2504 -0.1857
  896MOL0     C23547   8.748   0.761   8.099  0.8336 -0.2877  0.1525
  896MOL0     C23548   8.846   0.644   8.115 -0.0266 -1.0637 -1.0791
  896MOL0     C23549   8.867   0.613   8.270 -0.2847 -0.2554 -0.2954
  896MOL0     C23550   8.945   0.486   8.286 -0.2406 -0.1295  0.8482
  896MOL0     C23551   9.090   0.519   8.266  0.3795  0.6139 -0.2350
  896MOL0     C23552   9.169   0.595   8.381  0.6498  0.7723  0.6415
  896MOL0     C23553   9.321   0.593   8.349 -0.5645 -0.3346 -0.1347
  896MOL0     C23554   9.409   0.681   8.450 -0.4821 -0.4060  0.5157
  896MOL0    Cl23555   9.353   0.851   8.460 -0.0938 -0.2171 -0.2528
  896MOL0     C23556   8.530   0.938   8.012  0.7178  0.0360  0.0283
  896MOL0     C23557   8.435   1.028   7.965 -0.4119 -0.3250  0.1372
  896MOL0     O23558   8.473   1.268   7.637  0.2286  0.9728 -0.4152
  896MOL0     C23559   8.154   1.398   7.737 -0.2936 -0.3937  0.4818
  896MOL0     C23560   8.079   1.514   7.757 -0.3674 -0.1058 -0.1179
  896MOL0     N23561   7.490   1.739   8.174 -0.0424 -0.5029  0.7100
  896MOL0     N23562   7.356   1.741   8.173 -0.1980 -0.3520  0.6553
  896MOL0     C23563   6.616   2.462   8.200 -0.0362 -0.3581  0.1208
  896MOL0     C23564   6.502   2.502   8.272  0.3248 -0.0210 -0.3260
  896MOL0     C23565   6.129   2.421   8.515 -0.2971  0.3381  0.5649
  896MOL0     C23566   6.117   2.345   8.635 -0.8620  0.2830 -1.0487
  896MOL0     C23567   6.008   2.358   8.721 -0.1578 -0.6613  0.0597
  896MOL0     C23568   5.903   2.433   8.673 -0.2420 -0.6669 -1.2040
  896MOL0     O23569   5.789   2.439   8.743  0.7353  0.1746  0.3365
  896MOL0     C23570   5.792   2.550   8.841  0.9302  0.5734  0.1785
  896MOL0     C23571   5.674   2.533   8.933 -0.8836 -0.4977 -0.0177
  896MOL0     C23572   5.555   2.624   8.905  0.0867  0.2670 -0.2379
  896MOL0     C23573   5.471   2.556   8.789 -0.2764 -0.0899 -0.1635
  896MOL0     C23574   5.366   2.466   8.845  0.2084 -0.6490 -0.6722
  896MOL0     C23575   5.295   2.395   8.908  0.9527  0.2410 -0.6405
  896MOL0     C23576   5.913   2.513   8.555 -0.7427  0.6233 -0.8783
  896MOL0     C23577   6.024   2.509   8.470  0.2639  0.4607  0.6662
  896MOL0     C23578   6.023   2.585   8.338  0.4097 -0.7500  0.3667
  896MOL0     H23579   6.276   2.334   8.098 -0.0072 -0.4498 -0.4475
  896MOL0     H23580   6.468   2.256   7.970  0.6383  1.3611  0.3791
  896MOL0     H23581   6.680   2.207   7.875  0.2912  0.0798  0.9564
  896MOL0     H23582   6.704   2.102   8.019 -0.7977 -0.2791  0.7332
  896MOL0     H23583   6.862   2.071   7.847 -1.3707  1.2949 -0.7203
  896MOL0     H23584   6.914   2.239   7.845 -1.8532 -0.6737 -1.2768
  896MOL0     H23585   6.958   2.210   8.100  0.4181 -1.2128  1.1862
  896MOL0     H23586   6.951   2.035   8.063 -0.7915 -1.0046 -1.0507
  896MOL0     H23587   7.130   2.175   7.883  0.2556  1.0278 -0.3537
  896MOL0     H23588   7.187   2.180   8.043  2.0572 -0.9794 -1.8390
  896MOL0     H23589   7.181   1.944   8.068 -1.8886 -1.4129  0.4750
  896MOL0     H23590   7.287   1.991   7.922 -1.0525 -4.1547 -4.1696
  896MOL0     H23591   7.000   1.892   7.908 -0.1763  2.9469  1.3431
  896MOL0     H23592   7.101   1.945   7.776 -1.5160 -0.2732  0.6946
  896MOL0     H23593   7.258   1.750   7.804  1.2976  0.6974  1.2083
  896MOL0     H23594   7.090   1.687   7.817 -1.0745 -0.2404  3.7166
  896MOL0     H23595   7.121   1.694   8.076  1.8573 -0.3365  1.9244
  896MOL0     H23596   7.189   1.574   7.977 -2.4181  0.0685 -0.3490
  896MOL0     H23597   7.454   1.646   7.861 -1.7439 -1.1650  0.5013
  896MOL0     H23598   7.699   1.597   7.942 -2.1255 -0.3610  0.0849
  896MOL0     H23599   7.757   1.656   8.095 -0.4992 -0.9794  1.3973
  896MOL0     H23600   7.666   1.877   7.927 -0.2416 -0.9521 -0.1255
  896MOL0     H23601   7.809   1.863   8.032  0.6616  0.7226 -0.9402
  896MOL0     H23602   7.791   1.725   7.771 -2.1950 -1.9792  2.9149
  896MOL0     H23603   7.834   1.901   7.782  1.4793  1.6875  2.7760
  896MOL0     H23604   8.022   1.860   7.920 -2.1259 -0.5123  2.0327
  896MOL0     H23605   7.984   1.676   7.925 -1.6839 -0.6387 -0.8155
  896MOL0     H23606   8.318   1.747   7.706 -2.1662  1.1650 -0.3481
  896MOL0     H23607   8.539   1.645   7.724  1.1553  0.1778 -3.2158
  896MOL0     H23608   8.551   1.520   7.597  1.9665 -0.2516  0.6133
  896MOL0     H23609   8.560   1.473   7.761  0.5346  1.3788  1.1174
  896MOL0     H23610   8.479   0.993   7.638 -0.2158 -0.6145  0.8460
  896MOL0     H23611   8.662   0.859   7.707  0.4109 -1.2454  1.1224
  896MOL0     H23612   8.795   0.844   8.152  2.1126 -1.5532  1.1027
  896MOL0     H23613   8.647   0.747   8.139 -1.1261  1.9825 -3.4737
  896MOL0     H23614   8.803   0.549   8.082 -0.9548 -1.3094  0.7541
  896MOL0     H23615   8.945   0.660   8.070  1.6653 -3.6694  1.3296
  896MOL0     H23616   8.773   0.600   8.325  1.0895  3.1187  3.2976
  896MOL0     H23617   8.909   0.691   8.333  0.1799 -1.2112  0.6147
  896MOL0     H23618   8.909   0.409   8.218 -0.5567  2.6855 -2.4631
  896MOL0     H23619   8.921   0.443   8.384 -0.7049 -1.2877  0.2382
  896MOL0     H23620   9.147   0.426   8.255  2.6974  1.7065  1.6346
  896MOL0     H23621   9.117   0.571   8.174  0.6151 -2.3698 -2.0055
  896MOL0     H23622   9.139   0.538   8.470 -1.0578 -1.4483 -1.2048
  896MOL0     H23623   9.149   0.703   8.383  2.7450  1.2079  0.3657
  896MOL0     H23624   9.326   0.632   8.247  1.7589  0.5746  0.2684
  896MOL0     H23625   9.341   0.486   8.344 -1.8091 -0.6255  0.6822
  896MOL0     H23626   9.513   0.685   8.416 -0.4398 -1.3979  0.5200
  896MOL0     H23627   9.418   0.644   8.552  0.5265  0.4556  0.7547
  896MOL0     H23628   8.530   0.929   8.120  0.1069 -1.5480 -0.0750
  896MOL0     H23629   8.365   1.070   8.037  1.1594  1.4568  0.7107
  896MOL0     H23630   8.103   1.302   7.732  2.4630 -1.9391 -0.3059
  896MOL0     H23631   7.973   1.504   7.779  0.2041  0.0289  3.1634
  896MOL0     H23632   6.713   2.498   8.234 -0.2283 -0.5413  0.8811
  896MOL0     H23633   6.504   2.573   8.354 -2.2419  3.3801 -2.9159
  896MOL0     H23634   6.192   2.274   8.669 -2.3542  0.4786  3.2775
  896MOL0     H23635   6.009   2.302   8.814  0.0980 -2.2646 -0.8572
  896MOL0     H23636   5.886   2.542   8.897  0.9688 -0.0390  0.0314
  896MOL0     H23637   5.799   2.651   8.799 -0.0624  0.3590 -0.5536
  896MOL0     H23638   5.712   2.557   9.033 -2.1336  0.0149  0.3495
  896MOL0     H23639   5.639   2.430   8.935  1.1838 -1.2608 -0.6058
  896MOL0     H23640   5.503   2.630   9.000  1.6628 -4.4205  1.2350
  896MOL0     H23641   5.602   2.715   8.866 -0.9246  1.4452  1.1967
  896MOL0     H23642   5.537   2.492   8.731 -0.4811 -1.0019  0.5872
  896MOL0     H23643   5.432   2.634   8.722  0.0896 -0.8950 -1.3443
  896MOL0     H23644   5.235   2.336   8.974  1.9657 -0.6861 -0.5308
  896MOL0     H23645   5.834   2.585   8.535 -0.9125  0.8702  0.6154
  896MOL0     H23646   5.945   2.661   8.337  1.3694  0.2687  0.5556
  896MOL0     H23647   6.106   2.656   8.330  0.1594 -0.2043  2.2445
  896MOL0     H23648   5.998   2.517   8.256  0.1850 -1.0280  0.6656
  897MOL0     O23649  11.262   2.162   1.667 -0.1124 -0.3827 -0.1065
  897MOL0     C23650  11.257   2.286   1.648  0.0909 -0.1114  0.1477
  897MOL0     O23651  11.351   2.373   1.699  0.1547  0.2108  0.4802
  897MOL0     C23652  11.458   2.333   1.772 -1.0231 -0.3308 -0.3142
  897MOL0     C23653  11.548   2.226   1.740  0.3731  0.6245  0.4641
  897MOL0     C23654  11.667   2.211   1.804  0.8019  0.6809 -0.1679
  897MOL0     C23655  11.704   2.300   1.910 -0.6191  0.3651  0.4560
  897MOL0     O23656  11.820   2.289   1.972 -0.3198 -0.4012  0.3873
  897MOL0     C23657  11.841   2.348   2.110 -0.1278 -0.4598  0.5794
  897MOL0     C23658  11.954   2.295   2.190  0.0264  1.8235 -1.0209
  897MOL0     C23659  12.100   2.317   2.134 -0.2960  0.5172  0.4828
  897MOL0     C23660  12.215   2.281   2.230  0.3275  0.0547 -0.3686
  897MOL0     C23661  12.348   2.308   2.168 -0.0487 -0.4018 -0.4868
  897MOL0     C23662  12.468   2.246   2.243  0.1500  0.2517 -0.3480
  897MOL0     C23663  12.588   2.262   2.154  0.1212 -0.4044  0.0188
  897MOL0     C23664  12.622   2.404   2.138 -0.2173 -0.4275  0.1761
  897MOL0     N23665  12.727   2.415   2.035  0.1862 -0.6838 -0.4247
  897MOL0     C23666  12.850   2.341   2.025 -0.1147 -0.6139  0.4960
  897MOL0     C23667  12.907   2.398   1.917 -0.5831 -0.2104  0.9711
  897MOL0     C23668  13.036   2.353   1.857 -0.0489  0.2484  0.2947
  897MOL0     C23669  13.158   2.442   1.867  0.1335  0.1385 -0.5951
  897MOL0     C23670  13.159   2.561   1.772 -0.5719 -0.3336  0.1812
  897MOL0     C23671  13.139   2.526   1.615  0.7259  0.0843  0.5464
  897MOL0     O23672  13.230   2.423   1.577  0.1376  0.1317 -0.2563
  897MOL0     C23673  13.359   2.463   1.562 -0.2328  0.6117  0.3103
  897MOL0     C23674  13.399   2.550   1.464  0.0633 -0.3043 -0.4207
  897MOL0     C23675  13.535   2.582   1.461  1.3900 -0.2717  0.7160
  897MOL0     C23676  13.569   2.670   1.343  0.1899 -0.3395 -0.3902
  897MOL0     C23677  13.630   2.528   1.554  0.2347  0.1492  0.4475
  897MOL0     C23678  13.778   2.554   1.544 -0.0856  0.1614 -0.4459
  897MOL0     O23679  13.852   2.499   1.646  0.4907  0.2652  0.2661
  897MOL0     C23680  13.982   2.529   1.653 -0.0872  0.1233  0.3509
  897MOL0     C23681  14.021   2.653   1.706 -0.9685 -0.1749 -0.3367
  897MOL0     C23682  14.159   2.685   1.717 -0.5443  0.6004  0.3918
  897MOL0     C23683  14.260   2.595   1.683  0.1663  0.1620 -0.8495
  897MOL0     O23684  14.392   2.616   1.695 -0.0033 -0.2367  0.0416
  897MOL0     C23685  14.428   2.723   1.778 -0.4210 -0.3119 -0.5257
  897MOL0     C23686  14.584   2.722   1.810  0.3948 -0.3442 -0.3233
  897MOL0     C23687  14.675   2.720   1.686  0.0865 -0.2913 -0.9036
  897MOL0     C23688  14.719   2.575   1.643  0.5013 -0.4958 -0.8485
  897MOL0     C23689  14.819   2.504   1.739 -0.4739  0.0805 -0.5003
  897MOL0     C23690  14.890   2.373   1.681 -0.2927 -0.6158  0.2234
  897MOL0     C23691  14.946   2.289   1.805 -0.0156 -0.0405  1.0311
  897MOL0     C23692  15.045   2.186   1.753 -0.2675  0.3388 -0.2618
  897MOL0    Cl23693  15.192   2.263   1.668  0.0536 -0.3287 -0.1065
  897MOL0     C23694  14.211   2.474   1.631  0.1915 -0.5926  0.3218
  897MOL0     C23695  14.079   2.440   1.614  0.2811 -0.0945  0.4210
  897MOL0     O23696  13.824   2.625   1.454 -0.8497  0.4475  0.2158
  897MOL0     C23697  13.588   2.441   1.656  0.0770  0.0662 -0.0055
  897MOL0     C23698  13.451   2.402   1.654  0.5914 -0.0936  0.2793
  897MOL0     N23699  12.831   2.501   1.865 -0.4580 -0.4327  0.4873
  897MOL0     N23700  12.726   2.511   1.940  0.0054 -0.9623  0.6525
  897MOL0     C23701  11.620   2.408   1.942  0.8565  0.5994  0.2191
  897MOL0     C23702  11.506   2.429   1.863  0.9435  0.1767  0.4149
  897MOL0     C23703  11.147   2.328   1.555  0.6569  0.2900  0.9036
  897MOL0     C23704  11.053   2.223   1.510 -0.2558  0.3242 -0.3622
  897MOL0     C23705  10.947   2.258   1.434 -0.6244  0.2686 -0.3978
  897MOL0     C23706  10.922   2.386   1.386 -0.8573  0.4804 -0.6862
  897MOL0     O23707  10.812   2.406   1.305  0.1725 -0.3619  0.4268
  897MOL0     C23708  10.801   2.532   1.230 -0.5567  0.4582 -1.0329
  897MOL0     C23709  10.718   2.530   1.106  0.8693 -0.1891  0.4772
  897MOL0     C23710  10.587   2.474   1.142  0.7358  0.1816 -0.9603
  897MOL0     C23711  10.487   2.460   1.031  0.2947 -0.3581  0.1429
  897MOL0     C23712  10.557   2.364   0.937 -0.5056 -0.2090  0.2838
  897MOL0     C23713  10.609   2.282   0.861  0.3616  0.2965 -0.1248
  897MOL0     C23714  11.009   2.485   1.428 -0.0767  0.2137  0.1699
  897MOL0     C23715  11.118   2.465   1.509  0.2526 -0.1650  0.1397
  897MOL0     C23716  11.209   2.580   1.546 -1.2980  0.2106 -0.2263
  897MOL0     H23717  11.523   2.147   1.670  0.1813  2.0990 -1.1946
  897MOL0     H23718  11.727   2.122   1.788  0.6164  0.5229  0.0070
  897MOL0     H23719  11.749   2.339   2.168 -1.8452 -1.3669 -2.1206
  897MOL0     H23720  11.850   2.457   2.099  3.1642 -0.5972  0.8088
  897MOL0     H23721  11.940   2.336   2.290 -2.3913 -1.0515 -0.0182
  897MOL0     H23722  11.938   2.187   2.200 -2.6396  2.0340 -2.1527
  897MOL0     H23723  12.124   2.259   2.044  0.0946  0.9186  0.3217
  897MOL0     H23724  12.102   2.424   2.110  0.2646  0.3083 -0.4169
  897MOL0     H23725  12.206   2.337   2.324  0.7769 -2.4116  1.2451
  897MOL0     H23726  12.205   2.174   2.252  0.5098  0.1340  0.1271
  897MOL0     H23727  12.348   2.417   2.178 -0.8600 -0.2562 -1.8241
  897MOL0     H23728  12.355   2.275   2.064 -1.0684 -4.7650  0.6246
  897MOL0     H23729  12.491   2.293   2.339 -1.7427  1.2671 -0.3472
  897MOL0     H23730  12.450   2.139   2.260  1.2806  0.1869  0.5980
  897MOL0     H23731  12.566   2.221   2.055  0.9813  1.6037 -1.0573
  897MOL0     H23732  12.668   2.205   2.202 -0.2857 -0.4277  0.6852
  897MOL0     H23733  12.540   2.470   2.108  0.8684  0.6570 -0.5162
  897MOL0     H23734  12.661   2.447   2.231 -2.3727  3.2127 -0.4530
  897MOL0     H23735  12.888   2.263   2.091  1.6671 -0.2533 -0.0462
  897MOL0     H23736  13.010   2.332   1.752 -0.2957  0.6217  0.2800
  897MOL0     H23737  13.062   2.260   1.910  1.3593 -2.4266 -4.4520
  897MOL0     H23738  13.156   2.480   1.969  0.6317 -0.5521 -0.3183
  897MOL0     H23739  13.251   2.387   1.849  0.5276  0.8720 -0.8577
  897MOL0     H23740  13.085   2.635   1.806 -2.0237 -1.7321  0.1733
  897MOL0     H23741  13.253   2.616   1.785 -0.2321 -1.2159  1.7043
  897MOL0     H23742  13.035   2.499   1.593  0.8011  0.7681 -0.7453
  897MOL0     H23743  13.156   2.615   1.554 -0.6066  0.3230  0.4815
  897MOL0     H23744  13.321   2.587   1.398  0.8032  0.0756 -1.0852
  897MOL0     H23745  13.476   2.711   1.303 -0.2725  3.1347  3.5943
  897MOL0     H23746  13.628   2.619   1.267  2.7080  4.0149 -1.6991
  897MOL0     H23747  13.633   2.751   1.380  1.3628 -2.1214  1.7437
  897MOL0     H23748  13.945   2.718   1.748 -0.3323  1.6064 -1.8455
  897MOL0     H23749  14.194   2.783   1.747  3.7317  0.0120 -1.8366
  897MOL0     H23750  14.398   2.818   1.734 -1.0981 -0.9793 -1.5476
  897MOL0     H23751  14.385   2.713   1.878  1.0770 -0.2257  0.1557
  897MOL0     H23752  14.610   2.812   1.866 -1.4853 -0.4398  0.7979
  897MOL0     H23753  14.597   2.642   1.883 -1.1794 -0.5672 -0.2523
  897MOL0     H23754  14.773   2.764   1.702  0.1118  0.4271 -2.7999
  897MOL0     H23755  14.630   2.774   1.603  0.0086  0.2240 -0.5300
  897MOL0     H23756  14.776   2.583   1.550 -0.3326  2.4156 -1.2122
  897MOL0     H23757  14.626   2.517   1.642  0.2628 -0.2055  1.0128
  897MOL0     H23758  14.893   2.573   1.781 -0.9854 -0.6489  1.7055
  897MOL0     H23759  14.757   2.463   1.819 -1.8522  3.1972  0.1645
  897MOL0     H23760  14.959   2.392   1.599 -1.4459 -1.4767 -0.9806
  897MOL0     H23761  14.819   2.310   1.628 -0.3019 -2.3168  2.1538
  897MOL0     H23762  14.864   2.235   1.852  1.3647 -2.5714  0.7140
  897MOL0     H23763  14.996   2.347   1.882  0.0177  1.2155  0.1026
  897MOL0     H23764  15.001   2.117   1.681  1.0311 -0.6262 -0.1628
  897MOL0     H23765  15.077   2.120   1.834  1.3751  2.2259  0.7174
  897MOL0     H23766  14.285   2.399   1.606 -0.3643 -0.2623 -2.6631
  897MOL0     H23767  14.047   2.347   1.567 -1.9542  0.5342  0.5546
  897MOL0     H23768  13.657   2.396   1.727 -0.6931  0.0709  0.7707
  897MOL0     H23769  13.415   2.331   1.728  0.5551 -0.5100 -0.1307
  897MOL0     H23770  11.632   2.484   2.019 -0.6497  1.2805 -0.1607
  897MOL0     H23771  11.460   2.526   1.875  0.3412  0.0017 -0.4171
  897MOL0     H23772  11.053   2.125   1.559  1.2853 -0.7190 -2.3021
  897MOL0     H23773  10.863   2.190   1.420 -1.5124  1.8607 -3.9618
  897MOL0     H23774  10.772   2.612   1.299  0.6402  1.5369 -1.7432
  897MOL0     H23775  10.900   2.564   1.195 -0.2581 -0.1487 -0.7586
  897MOL0     H23776  10.762   2.471   1.025 -2.8564 -0.4089 -1.5986
  897MOL0     H23777  10.703   2.628   1.060 -2.0597 -0.2893  1.0617
  897MOL0     H23778  10.597   2.375   1.186 -0.3024  0.0430 -1.0074
  897MOL0     H23779  10.554   2.543   1.221  2.0357  0.8223 -0.9516
  897MOL0     H23780  10.465   2.553   0.977 -2.4320 -0.6366  0.6709
  897MOL0     H23781  10.393   2.426   1.074 -1.1508  2.1843 -0.7773
  897MOL0     H23782  10.645   2.207   0.793  2.2271  0.2572  0.8375
  897MOL0     H23783  10.994   2.588   1.399 -0.1916  0.0317 -0.4472
  897MOL0     H23784  11.315   2.559   1.531 -1.0300  0.8490  0.6630
  897MOL0     H23785  11.189   2.677   1.501 -1.1415 -0.0469 -0.8561
  897MOL0     H23786  11.208   2.599   1.654  2.4799  1.7268 -0.3397
  898MOL0     O23787   5.682  10.460   5.110  0.6769  0.3741  0.3995
  898MOL0     C23788   5.788  10.425   5.060  0.5955  1.4966 -0.6172
  898MOL0     O23789   5.906  10.484   5.070 -0.2890  0.3804  0.3962
  898MOL0     C23790   5.925  10.610   5.133  0.2347 -0.3296 -0.6571
  898MOL0     C23791   5.832  10.714   5.167 -0.0659  0.3361  0.1759
  898MOL0     C23792   5.885  10.832   5.214 -0.1488  0.0647 -0.1527
  898MOL0     C23793   6.017  10.848   5.240 -0.1547  0.7462 -0.0846
  898MOL0     O23794   6.054  10.956   5.311 -0.8242 -0.8992 -0.6217
  898MOL0     C23795   6.167  11.039   5.259 -0.3217  0.1033 -0.6121
  898MOL0     C23796   6.129  11.183   5.218 -0.3234 -0.2399 -0.9280
  898MOL0     C23797   6.251  11.233   5.140 -0.1924 -0.3128  0.4702
  898MOL0     C23798   6.298  11.367   5.186 -0.1220 -0.7074  0.3059
  898MOL0     C23799   6.386  11.366   5.313  0.4016 -0.5998  0.0375
  898MOL0     C23800   6.461  11.498   5.332  1.0204 -0.3411 -0.5216
  898MOL0     C23801   6.357  11.611   5.358 -1.0966 -0.4350 -0.6999
  898MOL0     C23802   6.431  11.740   5.405  0.3116 -0.7377  0.0282
  898MOL0     N23803   6.512  11.807   5.299  0.3022  0.1834 -0.2599
  898MOL0     C23804   6.637  11.856   5.324  0.4140  0.6199  0.4244
  898MOL0     C23805   6.669  11.931   5.207  0.3262  0.4865 -0.2614
  898MOL0     C23806   6.792  12.005   5.171 -0.6661 -0.3679 -0.3397
  898MOL0     C23807   6.913  11.921   5.192  0.8052  0.0011 -0.1480
  898MOL0     C23808   7.039  11.983   5.126 -0.1168  0.0831 -0.4926
  898MOL0     C23809   7.169  11.899   5.125  0.5818 -0.0507 -0.4038
  898MOL0     O23810   7.144  11.757   5.126 -0.4479 -0.7059 -0.1966
  898MOL0     C23811   7.253  11.669   5.103  1.0931  0.0503 -0.2902
  898MOL0     C23812   7.385  11.707   5.070  0.7980  0.0053  0.1093
  898MOL0     C23813   7.484  11.617   5.051 -0.2788  1.1090 -0.3271
  898MOL0     C23814   7.624  11.674   5.029 -0.5027 -0.1276 -0.1889
  898MOL0     C23815   7.455  11.479   5.043  0.0827  0.0474 -0.4515
  898MOL0     C23816   7.561  11.371   5.031  1.4110 -0.7052 -0.4249
  898MOL0     O23817   7.515  11.247   5.042 -0.3172 -0.0848 -0.1133
  898MOL0     C23818   7.588  11.136   5.003 -0.1997  0.9529  0.3795
  898MOL0     C23819   7.601  11.110   4.864  0.5909 -0.0676  0.3166
  898MOL0     C23820   7.666  10.996   4.822 -0.5311 -0.0655 -0.1231
  898MOL0     C23821   7.726  10.907   4.911  0.0532 -0.5982 -0.4756
  898MOL0     O23822   7.771  10.783   4.867 -0.5295  1.0746 -0.2990
  898MOL0     C23823   7.827  10.767   4.733  0.7391  0.5863 -0.7596
  898MOL0     C23824   7.739  10.658   4.649  0.3027  0.8359 -0.0492
  898MOL0     C23825   7.776  10.666   4.501 -0.4673  0.0356 -0.3295
  898MOL0     C23826   7.695  10.565   4.418  1.3071 -0.1448  0.0466
  898MOL0     C23827   7.730  10.565   4.269 -0.1627 -0.5294  0.0116
  898MOL0     C23828   7.639  10.462   4.192  0.2349 -0.4604 -0.3271
  898MOL0     C23829   7.637  10.488   4.039  0.1778  0.3146 -0.4819
  898MOL0     C23830   7.542  10.382   3.976 -0.2436  0.1999  0.3203
  898MOL0    Cl23831   7.382  10.373   4.064  0.1268  0.3624  0.3841
  898MOL0     C23832   7.727  10.942   5.049  0.5903 -0.0077  0.4765
  898MOL0     C23833   7.652  11.055   5.088 -0.4235 -0.2686 -0.3525
  898MOL0     O23834   7.673  11.395   5.003  0.2898  0.8758  0.2369
  898MOL0     C23835   7.318  11.435   5.066 -0.4085 -0.5678 -0.6355
  898MOL0     C23836   7.217  11.533   5.098  0.1423 -0.4449  0.1689
  898MOL0     N23837   6.562  11.922   5.120 -0.0228 -0.0522  0.1772
  898MOL0     N23838   6.462  11.855   5.175  0.1945  0.3874 -0.7155
  898MOL0     C23839   6.106  10.738   5.220  0.1508 -0.1274  1.1744
  898MOL0     C23840   6.061  10.621   5.162 -0.5803 -0.5590  0.1466
  898MOL0     C23841   5.780  10.302   4.978  0.9045  0.6003  0.2037
  898MOL0     C23842   5.894  10.220   4.960  0.4337 -0.2916  1.0119
  898MOL0     C23843   5.899  10.112   4.866  0.7563  0.0614  0.0437
  898MOL0     C23844   5.786  10.070   4.801  0.4487  0.2002 -0.3962
  898MOL0     O23845   5.800   9.966   4.715  0.1395  0.1705  0.1183
  898MOL0     C23846   5.701   9.892   4.653  0.2191 -0.5434  0.4634
  898MOL0     C23847   5.617   9.795   4.741 -0.7227 -0.1760 -0.8313
  898MOL0     C23848   5.506   9.731   4.662 -0.2528  0.3006 -0.6053
  898MOL0     C23849   5.402   9.825   4.588 -0.7234 -0.2037 -0.1478
  898MOL0     C23850   5.329   9.900   4.688  1.5339  0.3131  0.4767
  898MOL0     C23851   5.277   9.961   4.781 -0.3714 -0.0247  0.2360
  898MOL0     C23852   5.672  10.153   4.813  0.2732 -0.0024 -0.0103
  898MOL0     C23853   5.662  10.261   4.903  0.6033 -0.1064 -0.3258
  898MOL0     C23854   5.526  10.305   4.912 -0.1374  0.1632  0.8706
  898MOL0     H23855   5.729  10.692   5.142 -0.5457  1.2742  1.2704
  898MOL0     H23856   5.804  10.895   5.249 -2.2994 -1.0731 -2.7120
  898MOL0     H23857   6.214  10.979   5.180 -0.3254  0.2543 -0.7301
  898MOL0     H23858   6.242  11.048   5.338 -0.2593  0.5598 -0.7211
  898MOL0     H23859   6.038  11.174   5.157 -1.6700  0.8254  0.8103
  898MOL0     H23860   6.111  11.238   5.311  0.2836 -0.4549 -0.6862
  898MOL0     H23861   6.334  11.162   5.131 -0.3108 -0.1782 -2.8898
  898MOL0     H23862   6.226  11.259   5.036  1.5518 -0.5444 -0.0383
  898MOL0     H23863   6.344  11.431   5.111 -1.6744 -1.2633 -1.1748
  898MOL0     H23864   6.207  11.421   5.213  0.1623  1.7247 -3.0441
  898MOL0     H23865   6.469  11.298   5.298  1.2114 -0.3115  2.6464
  898MOL0     H23866   6.335  11.345   5.407  1.8458 -0.4189  0.8897
  898MOL0     H23867   6.524  11.484   5.420  0.3763 -1.0064 -0.1637
  898MOL0     H23868   6.532  11.517   5.250 -0.0359  0.5626 -1.2606
  898MOL0     H23869   6.295  11.577   5.441  0.7255 -0.7618  0.5882
  898MOL0     H23870   6.297  11.639   5.271  1.0013  0.7912 -1.8515
  898MOL0     H23871   6.366  11.817   5.448  0.4698  0.1210 -1.2214
  898MOL0     H23872   6.489  11.708   5.492  0.9778 -0.7172 -0.4019
  898MOL0     H23873   6.703  11.855   5.410 -1.9924 -1.0758  2.3797
  898MOL0     H23874   6.813  12.102   5.217  0.5100 -0.8763  0.2572
  898MOL0     H23875   6.797  12.019   5.063 -1.4816 -0.0722 -0.3436
  898MOL0     H23876   6.927  11.917   5.300 -1.7297  2.2316  0.3840
  898MOL0     H23877   6.897  11.820   5.153 -1.3231 -0.3916  1.5291
  898MOL0     H23878   7.012  12.001   5.021 -1.5925 -0.6646 -0.2664
  898MOL0     H23879   7.066  12.081   5.165 -2.3570  0.6157 -0.1465
  898MOL0     H23880   7.247  11.931   5.055  2.5913 -1.8125  0.9291
  898MOL0     H23881   7.217  11.913   5.222  1.4500 -2.8005 -0.3455
  898MOL0     H23882   7.403  11.814   5.065 -2.1187  0.5570 -0.4565
  898MOL0     H23883   7.693  11.647   5.109 -0.8814 -0.1256  0.1397
  898MOL0     H23884   7.614  11.782   5.016  0.0893 -0.3269 -2.6911
  898MOL0     H23885   7.661  11.648   4.930 -2.6596  0.6664 -1.2783
  898MOL0     H23886   7.562  11.170   4.782  1.1175 -1.4069 -0.9750
  898MOL0     H23887   7.661  10.976   4.716  2.1441 -1.6754 -0.0432
  898MOL0     H23888   7.832  10.864   4.684  0.6071  0.5893 -0.7660
  898MOL0     H23889   7.929  10.729   4.735 -0.3527 -2.6987 -0.0482
  898MOL0     H23890   7.760  10.562   4.696 -0.0426  1.6862  1.9291
  898MOL0     H23891   7.632  10.661   4.674  0.2163 -2.3443  0.4025
  898MOL0     H23892   7.882  10.640   4.500 -0.3545  0.2714  1.6818
  898MOL0     H23893   7.759  10.768   4.464 -2.4246  0.1358  0.7343
  898MOL0     H23894   7.589  10.592   4.424  1.3253 -0.2641  1.1549
  898MOL0     H23895   7.699  10.468   4.469  1.3028  0.1824  0.6816
  898MOL0     H23896   7.718  10.667   4.232 -1.4947 -0.7158 -0.1429
  898MOL0     H23897   7.834  10.533   4.256 -0.9231 -2.1833 -2.9494
  898MOL0     H23898   7.539  10.476   4.235 -1.2406 -1.6568 -3.0544
  898MOL0     H23899   7.673  10.361   4.216  1.0924  0.1102  0.9545
  898MOL0     H23900   7.732  10.479   3.986 -0.1575 -2.1873 -0.7719
  898MOL0     H23901   7.606  10.591   4.019 -0.6848  0.3637  1.0287
  898MOL0     H23902   7.597  10.288   3.964  2.7641  1.7037  1.1738
  898MOL0     H23903   7.509  10.413   3.877 -0.3536 -1.1522 -0.0933
  898MOL0     H23904   7.789  10.877   5.110 -1.7024 -2.7301  0.1191
  898MOL0     H23905   7.664  11.077   5.193  1.4349 -0.0761 -0.5656
  898MOL0     H23906   7.297  11.329   5.056  1.5907 -1.2111  1.3587
  898MOL0     H23907   7.113  11.507   5.117 -0.1546  0.3667 -0.3344
  898MOL0     H23908   6.210  10.755   5.247  0.5586 -1.3115  0.4104
  898MOL0     H23909   6.130  10.542   5.134  0.6589  1.2117 -2.1785
  898MOL0     H23910   5.979  10.254   5.018 -1.6763  4.1067  1.9284
  898MOL0     H23911   5.990  10.062   4.834  1.2872  1.8611 -1.3934
  898MOL0     H23912   5.628   9.952   4.597  1.2757 -0.9913 -1.4826
  898MOL0     H23913   5.748   9.828   4.578 -1.5912  0.3567 -1.5650
  898MOL0     H23914   5.574   9.852   4.824  1.4859 -1.1684  1.1234
  898MOL0     H23915   5.691   9.727   4.784  1.8374  2.4094 -0.8903
  898MOL0     H23916   5.548   9.661   4.590  0.7865  0.3306 -0.0496
  898MOL0     H23917   5.447   9.661   4.721 -1.3776 -0.6389 -2.7256
  898MOL0     H23918   5.335   9.754   4.537  0.1861 -0.7245 -0.6507
  898MOL0     H23919   5.453   9.882   4.510 -0.3428 -1.2077 -0.6514
  898MOL0     H23920   5.238   9.993   4.875  0.2295 -1.3959  0.9929
  898MOL0     H23921   5.590  10.116   4.751 -0.8424  1.5826  0.4574
  898MOL0     H23922   5.474  10.249   4.990 -0.3295  1.0965  1.4232
  898MOL0     H23923   5.511  10.409   4.941  2.6791  0.1798  2.5578
  898MOL0     H23924   5.472  10.298   4.817  0.1902  0.7168  0.6356
  899MOL0     O23925   6.840   1.736   2.520 -0.2912 -0.0577  0.0074
  899MOL0     C23926   6.775   1.760   2.619 -0.0181 -0.1603 -0.9490
  899MOL0     O23927   6.813   1.838   2.721  0.3003  0.0686  0.9304
  899MOL0     C23928   6.940   1.891   2.710  1.2099 -0.7102 -1.2133
  899MOL0     C23929   7.033   1.848   2.798 -0.4418 -0.9127  0.2111
  899MOL0     C23930   7.159   1.889   2.811  0.5366  0.0508  0.1636
  899MOL0     C23931   7.201   1.996   2.734 -0.1420 -0.7496  0.2790
  899MOL0     O23932   7.337   2.027   2.725 -0.2032  0.3532  0.2450
  899MOL0     C23933   7.369   2.168   2.699  0.3143 -0.7635  0.0100
  899MOL0     C23934   7.430   2.179   2.561 -0.6384  0.6662  0.7541
  899MOL0     C23935   7.422   2.324   2.513  0.4642  0.2332  0.1460
  899MOL0     C23936   7.483   2.438   2.607  0.4299  1.0341  0.0515
  899MOL0     C23937   7.453   2.573   2.552  0.4510  0.1113  0.2472
  899MOL0     C23938   7.522   2.596   2.416 -0.3333 -0.1207 -0.6112
  899MOL0     C23939   7.524   2.751   2.402 -0.5960  0.1379 -0.4561
  899MOL0     C23940   7.611   2.798   2.279  0.7103  0.0836 -0.1667
  899MOL0     N23941   7.752   2.762   2.287 -0.5095  0.5671 -0.0282
  899MOL0     C23942   7.837   2.809   2.380 -0.6106 -0.1894  0.2422
  899MOL0     C23943   7.942   2.727   2.388  0.9269  0.0722 -0.0519
  899MOL0     C23944   8.052   2.734   2.494  0.1569 -0.3055  0.3965
  899MOL0     C23945   8.115   2.880   2.502 -0.3536 -0.7926  1.1773
  899MOL0     C23946   8.187   2.912   2.375  0.1907 -0.1312  0.2601
  899MOL0     C23947   8.310   3.002   2.392  0.2984 -0.8310 -0.4542
  899MOL0     O23948   8.417   2.942   2.466 -0.1375  0.1924  0.6188
  899MOL0     C23949   8.534   3.012   2.493  0.3463 -0.0411 -0.6077
  899MOL0     C23950   8.640   2.945   2.560 -0.2990  0.4155 -1.1326
  899MOL0     C23951   8.759   3.011   2.579  0.8559 -0.3842 -0.9497
  899MOL0     C23952   8.866   2.921   2.645 -0.3695  0.3562  0.2288
  899MOL0     C23953   8.772   3.145   2.559 -0.5333 -0.3999 -0.4104
  899MOL0     C23954   8.889   3.223   2.605  0.3199  1.1325  0.2107
  899MOL0     O23955   8.965   3.171   2.708 -0.3068  0.4664 -0.1919
  899MOL0     C23956   9.065   3.244   2.768  0.0451  0.1732  0.0077
  899MOL0     C23957   9.034   3.347   2.852 -0.5784 -0.3253 -0.2701
  899MOL0     C23958   9.132   3.417   2.914  0.2274 -0.3843  0.5446
  899MOL0     C23959   9.267   3.378   2.905 -0.0356 -0.7715 -0.3906
  899MOL0     O23960   9.365   3.453   2.965 -1.0435 -0.1032  0.5398
  899MOL0     C23961   9.338   3.589   3.007 -0.2405  0.3859 -0.3694
  899MOL0     C23962   9.461   3.654   3.069 -0.3617 -0.0521  0.3889
  899MOL0     C23963   9.588   3.647   2.978  1.0390 -0.4737 -0.4071
  899MOL0     C23964   9.703   3.707   3.051 -0.0982 -0.5260  0.4627
  899MOL0     C23965   9.827   3.707   2.958  0.7636 -0.5610 -0.5177
  899MOL0     C23966   9.954   3.756   3.034 -0.7375  0.2457  0.2070
  899MOL0     C23967  10.068   3.777   2.931  0.7856 -0.7817 -0.1399
  899MOL0     C23968  10.199   3.779   3.006  0.3382  0.8159 -0.1467
  899MOL0    Cl23969  10.202   3.943   3.105 -0.0959 -0.3145 -0.2832
  899MOL0     C23970   9.301   3.261   2.838  0.2754 -0.6725 -0.2365
  899MOL0     C23971   9.203   3.206   2.758  1.0597  0.4257  0.0682
  899MOL0     O23972   8.905   3.335   2.561  0.0575  0.5129  0.5859
  899MOL0     C23973   8.670   3.216   2.493  0.7049 -0.2287 -0.0938
  899MOL0     C23974   8.556   3.144   2.455  1.2351 -0.9782 -0.6517
  899MOL0     N23975   7.923   2.636   2.296 -0.9731 -0.1518  0.1308
  899MOL0     N23976   7.811   2.648   2.232 -0.6174  0.5303  0.2964
  899MOL0     C23977   7.105   2.054   2.642  0.1252  0.8803 -0.2710
  899MOL0     C23978   6.969   2.011   2.638 -1.0131  0.0426 -0.5390
  899MOL0     C23979   6.629   1.715   2.636 -0.6928  0.1249 -0.0790
  899MOL0     C23980   6.549   1.783   2.735  0.2631  0.5748  0.1069
  899MOL0     C23981   6.406   1.774   2.725 -0.2001  0.2196  0.1920
  899MOL0     C23982   6.344   1.700   2.627 -0.0296  0.1276 -0.3647
  899MOL0     O23983   6.208   1.692   2.630  0.6231 -0.0896 -0.4726
  899MOL0     C23984   6.125   1.630   2.531 -0.7310  0.4689  0.1302
  899MOL0     C23985   5.979   1.654   2.552 -0.6409 -0.0651 -0.2694
  899MOL0     C23986   5.950   1.800   2.533  0.6118 -0.9407 -0.0739
  899MOL0     C23987   5.795   1.831   2.511  0.1760 -0.3546 -0.3097
  899MOL0     C23988   5.756   1.973   2.479  0.1078  1.1985  0.1390
  899MOL0     C23989   5.716   2.081   2.457 -1.0485  0.5830 -0.1033
  899MOL0     C23990   6.427   1.635   2.537  0.0476  0.7997 -0.3229
  899MOL0     C23991   6.568   1.638   2.539  0.5730  0.5465 -0.3559
  899MOL0     C23992   6.625   1.549   2.423 -0.2337 -0.1390 -0.0859
  899MOL0     H23993   7.017   1.762   2.862  2.3755 -0.9753  0.9954
  899MOL0     H23994   7.228   1.840   2.878  2.2503 -1.8249 -2.7318
  899MOL0     H23995   7.445   2.198   2.773 -0.8817 -0.2498  1.0586
  899MOL0     H23996   7.283   2.234   2.714 -1.3532 -2.4147 -1.7205
  899MOL0     H23997   7.532   2.140   2.569 -1.0760 -1.6538 -2.5600
  899MOL0     H23998   7.373   2.108   2.500 -0.8707  2.7492 -1.6046
  899MOL0     H23999   7.474   2.337   2.418  2.0734 -1.8575  0.6887
  899MOL0     H24000   7.318   2.358   2.502  1.2968  3.5863  1.3790
  899MOL0     H24001   7.451   2.435   2.712 -2.4703  0.7870 -0.7472
  899MOL0     H24002   7.588   2.410   2.602 -0.3386 -1.9807 -1.6147
  899MOL0     H24003   7.483   2.650   2.625  0.8699 -0.5050  0.7357
  899MOL0     H24004   7.347   2.583   2.530 -0.2312  0.6880  3.2774
  899MOL0     H24005   7.627   2.569   2.428 -0.6442 -1.4851 -0.8231
  899MOL0     H24006   7.471   2.555   2.328  0.9169 -2.4078 -0.3528
  899MOL0     H24007   7.564   2.803   2.490 -1.9175  2.8296 -1.3271
  899MOL0     H24008   7.420   2.780   2.385 -1.7728 -2.6109  1.3283
  899MOL0     H24009   7.569   2.767   2.183 -2.2567 -0.3532  1.1804
  899MOL0     H24010   7.609   2.908   2.276 -3.0287  0.1501  0.5052
  899MOL0     H24011   7.825   2.905   2.429 -3.8726 -0.9438  1.1926
  899MOL0     H24012   8.136   2.671   2.465  0.2854  0.3983 -0.8549
  899MOL0     H24013   8.013   2.699   2.590 -2.1841 -3.9231 -1.6328
  899MOL0     H24014   8.044   2.958   2.531  1.0809  1.8684 -1.7969
  899MOL0     H24015   8.197   2.873   2.574 -0.3065  0.0137  1.2118
  899MOL0     H24016   8.216   2.820   2.324 -0.0005 -1.9656  3.2350
  899MOL0     H24017   8.115   2.969   2.316 -0.0702  1.0132  1.6372
  899MOL0     H24018   8.337   3.019   2.288 -2.7019  0.5254 -1.1135
  899MOL0     H24019   8.275   3.093   2.442 -0.2529  0.3898 -2.9167
  899MOL0     H24020   8.615   2.847   2.598 -0.8458  1.5211  1.6352
  899MOL0     H24021   8.892   2.958   2.744 -0.7622 -0.6640  0.7280
  899MOL0     H24022   8.955   2.926   2.582 -0.2744 -0.8134  0.2345
  899MOL0     H24023   8.822   2.821   2.659 -3.3460  0.9618 -3.1730
  899MOL0     H24024   8.932   3.376   2.873 -0.4200  0.3200 -0.3574
  899MOL0     H24025   9.108   3.505   2.973 -0.2314 -1.1381  1.4939
  899MOL0     H24026   9.311   3.655   2.924 -1.2379  1.4457  0.7514
  899MOL0     H24027   9.257   3.592   3.081 -2.5778 -0.7132 -2.7194
  899MOL0     H24028   9.435   3.756   3.099  1.9956  1.7125 -2.8926
  899MOL0     H24029   9.486   3.593   3.156  0.2990 -0.5399 -0.1330
  899MOL0     H24030   9.570   3.707   2.888  1.2823  0.7227  0.3251
  899MOL0     H24031   9.595   3.541   2.949 -2.1081 -1.3688  1.6311
  899MOL0     H24032   9.715   3.650   3.143  0.5416  0.8320  1.2552
  899MOL0     H24033   9.681   3.809   3.086 -0.1147 -1.1218  2.2917
  899MOL0     H24034   9.842   3.600   2.940 -1.2274 -1.1518  0.9636
  899MOL0     H24035   9.809   3.760   2.863 -3.4887 -2.4406 -0.9923
  899MOL0     H24036   9.976   3.671   3.099 -0.2982  2.3028  2.9727
  899MOL0     H24037   9.953   3.839   3.105  3.2457  1.9152 -1.3745
  899MOL0     H24038  10.051   3.877   2.888  0.8514 -0.4066  0.6794
  899MOL0     H24039  10.074   3.708   2.847  1.7281 -1.7788  0.7187
  899MOL0     H24040  10.287   3.777   2.941  0.4996  0.9995  0.0617
  899MOL0     H24041  10.215   3.691   3.069 -0.6298  0.6878 -0.0645
  899MOL0     H24042   9.407   3.240   2.834  0.9959  2.2094  1.2876
  899MOL0     H24043   9.218   3.129   2.683 -0.4031  0.0626  0.1238
  899MOL0     H24044   8.673   3.323   2.474  0.6227  0.0853  1.5472
  899MOL0     H24045   8.480   3.189   2.392  0.6240 -1.0843 -0.0068
  899MOL0     H24046   7.117   2.146   2.584 -1.3417  1.6081  0.5210
  899MOL0     H24047   6.904   2.063   2.569 -2.5057 -1.2943 -0.2043
  899MOL0     H24048   6.594   1.855   2.802 -1.2104  2.3375 -0.6931
  899MOL0     H24049   6.339   1.830   2.790 -1.4617 -0.7726 -0.2050
  899MOL0     H24050   6.153   1.670   2.433  0.7689 -1.5987 -0.3609
  899MOL0     H24051   6.154   1.525   2.524 -0.3581  0.6446 -1.6409
  899MOL0     H24052   5.956   1.623   2.654  2.4950 -0.1770  0.5003
  899MOL0     H24053   5.922   1.594   2.480 -1.3313 -2.6906  2.2437
  899MOL0     H24054   5.986   1.859   2.617 -2.2984  0.3108  0.4254
  899MOL0     H24055   5.993   1.844   2.442 -0.8708  0.1892 -0.2642
  899MOL0     H24056   5.739   1.785   2.593  0.3949 -0.3513 -0.1580
  899MOL0     H24057   5.752   1.774   2.428  0.0719  1.3625 -1.4901
  899MOL0     H24058   5.681   2.182   2.457 -0.1403  0.9063  0.1280
  899MOL0     H24059   6.384   1.566   2.466  0.9585 -0.0724 -0.0368
  899MOL0     H24060   6.573   1.453   2.424 -2.4108  0.9771 -1.0713
  899MOL0     H24061   6.604   1.589   2.324 -2.0887 -1.1968 -0.1451
  899MOL0     H24062   6.733   1.532   2.433 -0.2068  0.5470  1.0496
  900MOL0     O24063   4.691   4.784   7.878 -0.0695  0.0591  0.5263
  900MOL0     C24064   4.573   4.749   7.863  0.4152 -0.1388 -0.6227
  900MOL0     O24065   4.530   4.608   7.856 -0.8042  0.2698  0.3691
  900MOL0     C24066   4.634   4.524   7.830 -0.3580 -0.2390 -0.8849
  900MOL0     C24067   4.659   4.487   7.701 -0.3519  0.2443 -0.7237
  900MOL0     C24068   4.765   4.405   7.678  0.4434  0.3831  0.1782
  900MOL0     C24069   4.850   4.362   7.778  1.0526 -0.1295  0.4436
  900MOL0     O24070   4.953   4.275   7.751 -0.8748  0.3726  0.2403
  900MOL0     C24071   4.975   4.169   7.846  0.1505  0.2879  1.2418
  900MOL0     C24072   5.115   4.181   7.888 -0.4712  0.7644 -0.4069
  900MOL0     C24073   5.215   4.145   7.785 -0.0256 -0.0489  0.2181
  900MOL0     C24074   5.359   4.171   7.838 -0.2524  0.0524 -0.8193
  900MOL0     C24075   5.459   4.070   7.771 -0.5004 -0.1232  0.0335
  900MOL0     C24076   5.596   4.060   7.831 -0.9310 -0.0545 -0.5632
  900MOL0     C24077   5.666   4.192   7.803 -0.3120 -0.6198 -0.1157
  900MOL0     C24078   5.811   4.196   7.866 -0.4118  1.0736  1.0832
  900MOL0     N24079   5.824   4.184   8.011  0.4747 -0.1889  0.7822
  900MOL0     C24080   5.751   4.260   8.098  0.2015  0.4579 -0.0512
  900MOL0     C24081   5.796   4.220   8.218  0.5232 -0.2768  0.3348
  900MOL0     C24082   5.745   4.276   8.347 -0.3715 -0.3212 -0.4275
  900MOL0     C24083   5.857   4.360   8.414 -0.2390  0.3594 -0.2714
  900MOL0     C24084   5.880   4.311   8.555  0.0925 -0.0983  0.8769
  900MOL0     C24085   6.014   4.364   8.619 -0.2166 -0.0665 -0.3775
  900MOL0     O24086   6.129   4.307   8.554 -0.1258 -0.2166  0.5869
  900MOL0     C24087   6.246   4.388   8.545 -0.1212  0.7722  0.1961
  900MOL0     C24088   6.346   4.340   8.449  0.2227  0.5942 -0.5939
  900MOL0     C24089   6.472   4.390   8.440 -0.5866  0.5680 -0.4174
  900MOL0     C24090   6.574   4.324   8.348  0.3111 -0.2948 -0.1249
  900MOL0     C24091   6.508   4.497   8.528 -0.3350 -0.1665  0.9064
  900MOL0     C24092   6.633   4.574   8.519 -0.5742  0.7723  0.8900
  900MOL0     O24093   6.683   4.606   8.395  0.5903 -0.0807  0.3289
  900MOL0     C24094   6.806   4.662   8.392  0.7669 -0.0349  1.0546
  900MOL0     C24095   6.830   4.798   8.418  0.0815  0.2192 -0.2079
  900MOL0     C24096   6.961   4.853   8.420  0.5063 -0.4799  0.1945
  900MOL0     C24097   7.068   4.772   8.395  0.0712 -0.9126 -0.2718
  900MOL0     O24098   7.186   4.844   8.381 -0.3125  0.7542  0.0458
  900MOL0     C24099   7.293   4.782   8.306 -0.0773  0.5223 -1.0601
  900MOL0     C24100   7.410   4.876   8.312  0.1501  0.5566  0.0010
  900MOL0     C24101   7.518   4.829   8.215  0.3204 -0.0424 -0.0014
  900MOL0     C24102   7.631   4.930   8.227  0.3261  0.1815 -0.7396
  900MOL0     C24103   7.753   4.901   8.138  0.4480  0.2985 -0.4308
  900MOL0     C24104   7.870   4.987   8.169 -1.0570 -0.9442 -0.1648
  900MOL0     C24105   7.978   4.962   8.065  0.8918 -0.6298  0.9799
  900MOL0     C24106   8.112   5.005   8.107 -0.3944  0.2045 -0.3823
  900MOL0    Cl24107   8.105   5.177   8.170 -0.3279 -0.4077 -0.1316
  900MOL0     C24108   7.052   4.636   8.367 -0.2573  0.2703  0.1286
  900MOL0     C24109   6.919   4.579   8.374  1.2050  0.5551 -0.9516
  900MOL0     O24110   6.689   4.608   8.622  0.3060 -0.2108  0.7037
  900MOL0     C24111   6.414   4.542   8.626 -0.9220  0.5109 -0.2774
  900MOL0     C24112   6.285   4.483   8.637  0.3826 -0.9746  1.0753
  900MOL0     N24113   5.884   4.115   8.195 -0.5001  0.0207 -0.6652
  900MOL0     N24114   5.904   4.091   8.073  0.1445 -0.2527 -0.7014
  900MOL0     C24115   4.825   4.402   7.910 -0.1879  0.3402  0.0657
  900MOL0     C24116   4.718   4.480   7.933  0.0300  0.6866  0.5213
  900MOL0     C24117   4.459   4.855   7.844 -1.5248 -0.2597  0.1431
  900MOL0     C24118   4.331   4.802   7.818  0.0758  0.6269 -0.8319
  900MOL0     C24119   4.222   4.878   7.804  0.2020 -0.1899 -0.2431
  900MOL0     C24120   4.226   5.015   7.806  0.4469 -0.6621 -0.8820
  900MOL0     O24121   4.115   5.098   7.796  0.8600 -0.0733  0.0379
  900MOL0     C24122   4.068   5.112   7.929  0.6946  0.1573 -0.2146
  900MOL0     C24123   3.952   5.213   7.950  0.6761 -0.3502  0.0630
  900MOL0     C24124   3.920   5.229   8.096 -0.2964  0.6223 -0.2913
  900MOL0     C24125   3.782   5.262   8.123 -0.2459 -0.0030  0.3581
  900MOL0     C24126   3.741   5.389   8.057  1.5071 -0.1530  0.0588
  900MOL0     C24127   3.717   5.500   8.008  0.6383  0.6262 -0.1192
  900MOL0     C24128   4.354   5.073   7.826 -0.1580  0.8444  0.8153
  900MOL0     C24129   4.471   4.996   7.843 -0.2041  0.0672 -0.5390
  900MOL0     C24130   4.598   5.071   7.852  0.8090  0.1630 -0.4536
  900MOL0     H24131   4.607   4.537   7.620 -1.0063  0.4101 -0.2155
  900MOL0     H24132   4.793   4.380   7.576  0.2997 -1.0038  0.4659
  900MOL0     H24133   4.959   4.074   7.796  1.0852  1.1750 -0.8881
  900MOL0     H24134   4.919   4.173   7.941  0.6052  1.5973  1.4754
  900MOL0     H24135   5.118   4.279   7.937 -2.2192  1.0454 -0.8009
  900MOL0     H24136   5.138   4.109   7.967  1.6766 -0.2849 -1.8957
  900MOL0     H24137   5.204   4.040   7.756  3.2422 -0.5724  0.5415
  900MOL0     H24138   5.188   4.212   7.702 -0.9175  0.5912  0.9978
  900MOL0     H24139   5.395   4.273   7.825 -1.4661  0.8868  1.7400
  900MOL0     H24140   5.366   4.145   7.944 -1.5909  2.0100 -0.2115
  900MOL0     H24141   5.473   4.090   7.664 -1.2225  1.3381  0.1959
  900MOL0     H24142   5.414   3.970   7.774 -1.4899  0.3197  0.1361
  900MOL0     H24143   5.599   4.036   7.938  1.2981 -0.8232 -0.7406
  900MOL0     H24144   5.652   3.978   7.786 -2.6264 -2.5020  1.4262
  900MOL0     H24145   5.611   4.279   7.839  2.1205 -0.1850  2.8590
  900MOL0     H24146   5.671   4.203   7.694 -0.8301  3.2027  0.1306
  900MOL0     H24147   5.861   4.113   7.816  1.2911  3.4848 -1.5189
  900MOL0     H24148   5.859   4.289   7.836  1.1970 -0.2963 -0.8082
  900MOL0     H24149   5.677   4.336   8.078  1.1022  1.0691 -1.1375
  900MOL0     H24150   5.724   4.186   8.406  1.6122 -2.3317 -2.5781
  900MOL0     H24151   5.648   4.324   8.330 -0.0895 -0.7064 -3.8646
  900MOL0     H24152   5.951   4.330   8.367  0.0720  2.3400 -1.0188
  900MOL0     H24153   5.848   4.468   8.396 -0.6411  0.3406 -0.1937
  900MOL0     H24154   5.792   4.348   8.608 -0.5260  3.7341 -2.3313
  900MOL0     H24155   5.891   4.203   8.551  0.9542  0.0268 -2.2429
  900MOL0     H24156   6.018   4.473   8.615  1.6230 -0.1277 -2.5761
  900MOL0     H24157   6.008   4.332   8.723 -0.5255 -0.4881 -0.5198
  900MOL0     H24158   6.319   4.253   8.390  1.2135  0.5039 -0.9385
  900MOL0     H24159   6.554   4.352   8.244  1.0272  0.4692 -0.0678
  900MOL0     H24160   6.557   4.216   8.352 -0.4271 -0.1790  0.1497
  900MOL0     H24161   6.677   4.334   8.381  0.3705 -1.2278 -0.0216
  900MOL0     H24162   6.744   4.864   8.430 -0.9075 -0.6097 -2.2830
  900MOL0     H24163   6.965   4.961   8.425 -1.4972 -0.3630  0.1301
  900MOL0     H24164   7.333   4.694   8.357 -2.6407 -0.6287 -0.9000
  900MOL0     H24165   7.260   4.756   8.205 -1.3774  0.2601 -0.5840
  900MOL0     H24166   7.378   4.972   8.271 -4.3175 -1.9876 -3.3956
  900MOL0     H24167   7.450   4.884   8.414  1.0161 -4.9526  0.3608
  900MOL0     H24168   7.473   4.819   8.115 -0.9830 -1.0143  0.6468
  900MOL0     H24169   7.554   4.731   8.245 -1.5609 -0.8548 -0.2116
  900MOL0     H24170   7.665   4.930   8.331 -3.3109  2.1406  0.6360
  900MOL0     H24171   7.594   5.031   8.205 -0.5370  0.0357 -0.0330
  900MOL0     H24172   7.787   4.802   8.170  0.9051  0.0240 -1.7033
  900MOL0     H24173   7.727   4.904   8.031  2.3976  0.8297 -0.9286
  900MOL0     H24174   7.908   4.967   8.270  1.8009 -1.9241 -1.3289
  900MOL0     H24175   7.839   5.091   8.166  1.4058 -0.1476 -0.4006
  900MOL0     H24176   7.951   5.008   7.970 -1.7613 -1.1720  1.4079
  900MOL0     H24177   7.981   4.854   8.055 -0.0019 -0.5306 -0.6816
  900MOL0     H24178   8.179   4.988   8.022 -1.3156 -1.9781 -0.7494
  900MOL0     H24179   8.144   4.941   8.190 -1.5876  5.3809  4.6704
  900MOL0     H24180   7.136   4.576   8.335  1.1015  1.1890  1.7583
  900MOL0     H24181   6.909   4.472   8.361  0.3762  0.5831 -0.5634
  900MOL0     H24182   6.445   4.618   8.697 -0.2411 -0.6313  0.6977
  900MOL0     H24183   6.225   4.499   8.726  1.2759 -0.5499  1.6123
  900MOL0     H24184   4.886   4.359   7.989  0.7175  2.1728  0.4079
  900MOL0     H24185   4.698   4.521   8.031  0.8674  1.3572  0.4185
  900MOL0     H24186   4.309   4.697   7.799 -1.3122  1.0351 -1.5597
  900MOL0     H24187   4.127   4.829   7.781  1.6558 -3.0522 -0.6436
  900MOL0     H24188   4.040   5.014   7.970  1.9116  0.0344  0.3598
  900MOL0     H24189   4.149   5.153   7.990 -0.7600  1.0019  1.2344
  900MOL0     H24190   3.864   5.177   7.896  1.0736 -0.6148 -0.4202
  900MOL0     H24191   3.989   5.304   7.901 -3.3101  0.4126 -2.0242
  900MOL0     H24192   3.938   5.132   8.144  0.2762  0.9132  0.1009
  900MOL0     H24193   3.989   5.303   8.138  0.3588 -0.1681  0.0634
  900MOL0     H24194   3.774   5.274   8.231 -0.4416  3.8140  0.0648
  900MOL0     H24195   3.714   5.181   8.093  0.3113 -1.0451  1.8106
  900MOL0     H24196   3.679   5.590   7.963 -0.3459  1.2234  1.7796
  900MOL0     H24197   4.349   5.182   7.825 -0.4605  0.8275  0.6541
  900MOL0     H24198   4.585   5.167   7.904 -0.4702 -2.5021  4.7749
  900MOL0     H24199   4.674   5.013   7.905 -0.2778 -2.7260 -1.8773
  900MOL0     H24200   4.629   5.104   7.752  0.8033 -0.9289 -0.8210
  901MOL0     O24201   4.374   7.323   1.462 -0.1414  0.0344  0.1738
  901MOL0     C24202   4.327   7.414   1.530 -0.3839  0.0478 -0.0022
  901MOL0     O24203   4.396   7.541   1.554  0.2486 -0.0734 -0.4388
  901MOL0     C24204   4.526   7.554   1.511 -0.0219 -0.1364 -0.5877
  901MOL0     C24205   4.628   7.464   1.534 -0.7525 -0.6675 -0.6094
  901MOL0     C24206   4.757   7.493   1.488  0.1915 -0.2290 -1.3945
  901MOL0     C24207   4.786   7.616   1.427  0.7459 -0.4157  0.6207
  901MOL0     O24208   4.914   7.645   1.398  0.1664  0.0401 -0.2114
  901MOL0     C24209   4.923   7.761   1.319  1.0573  0.2860  0.7999
  901MOL0     C24210   5.064   7.777   1.275  0.3918 -0.6189 -1.2452
  901MOL0     C24211   5.159   7.825   1.395  0.4747  0.4878  0.1629
  901MOL0     C24212   5.300   7.854   1.327 -0.7306  0.2424 -0.1127
  901MOL0     C24213   5.421   7.858   1.423 -0.1824  0.2925 -0.1794
  901MOL0     C24214   5.568   7.894   1.356  0.3401 -0.2524 -0.0707
  901MOL0     C24215   5.603   7.788   1.252  0.2139  0.1500  0.5740
  901MOL0     C24216   5.736   7.815   1.189 -1.4522 -0.3283  1.0206
  901MOL0     N24217   5.743   7.766   1.049  0.3078  0.0981  0.2731
  901MOL0     C24218   5.846   7.695   0.993 -0.0028  0.1448 -0.2152
  901MOL0     C24219   5.829   7.696   0.860 -0.1749 -0.0615 -0.1138
  901MOL0     C24220   5.932   7.638   0.762  0.5763  0.2045 -0.3968
  901MOL0     C24221   6.006   7.746   0.687  0.3027 -0.0803 -0.1813
  901MOL0     C24222   5.915   7.813   0.572 -1.1897  0.2843 -0.4720
  901MOL0     C24223   5.992   7.921   0.486 -0.1496 -0.4872 -0.2369
  901MOL0     O24224   6.091   7.872   0.404 -0.1178 -0.7548  0.0939
  901MOL0     C24225   6.223   7.878   0.445 -0.3572  0.3769  0.4454
  901MOL0     C24226   6.281   7.939   0.556  0.7720 -0.0071 -0.9699
  901MOL0     C24227   6.419   7.945   0.583  0.0291  0.2764  0.2616
  901MOL0     C24228   6.463   8.003   0.718  0.0891  0.1260 -0.4995
  901MOL0     C24229   6.510   7.908   0.483 -0.3688  0.7023 -0.4836
  901MOL0     C24230   6.659   7.912   0.504 -0.6329  0.2698  0.1254
  901MOL0     O24231   6.741   7.841   0.413  0.0095  0.1031  0.9735
  901MOL0     C24232   6.872   7.845   0.449  0.1056  0.1083 -0.1427
  901MOL0     C24233   6.915   7.756   0.542 -0.4002  0.4981 -0.2703
  901MOL0     C24234   7.052   7.754   0.570  0.4543 -0.2005 -0.6214
  901MOL0     C24235   7.146   7.838   0.509  0.2023  0.4615 -0.1450
  901MOL0     O24236   7.275   7.825   0.560 -0.0675 -0.6128 -0.4405
  901MOL0     C24237   7.365   7.912   0.499  0.4778  0.3460  0.1239
  901MOL0     C24238   7.506   7.876   0.544  0.3584 -0.1677  0.3896
  901MOL0     C24239   7.567   7.750   0.476  0.7134 -0.9809  0.2616
  901MOL0     C24240   7.703   7.722   0.551 -0.3076 -0.0135 -0.5573
  901MOL0     C24241   7.757   7.583   0.541 -0.0744 -0.5763 -0.0798
  901MOL0     C24242   7.900   7.580   0.590  0.2262  1.0443 -0.9173
  901MOL0     C24243   7.952   7.434   0.595  0.4214 -0.0379 -0.3132
  901MOL0     C24244   8.090   7.419   0.663 -0.4560  0.2181 -0.2534
  901MOL0    Cl24245   8.084   7.508   0.818 -0.5341  0.0499 -0.0717
  901MOL0     C24246   7.100   7.927   0.407  0.0916  0.1188  0.3353
  901MOL0     C24247   6.961   7.930   0.375  0.7199 -0.0100 -0.7214
  901MOL0     O24248   6.700   7.983   0.593  0.6714 -0.0637  0.3140
  901MOL0     C24249   6.454   7.838   0.373  1.1607 -0.2011  0.1804
  901MOL0     C24250   6.310   7.832   0.353 -0.3010  0.4676  0.1130
  901MOL0     N24251   5.702   7.750   0.845 -0.2116 -1.0880  0.0875
  901MOL0     N24252   5.648   7.790   0.952  0.9289  0.4695 -0.2286
  901MOL0     C24253   4.675   7.707   1.406 -0.4292 -0.0730  0.3003
  901MOL0     C24254   4.551   7.671   1.459 -0.7808 -0.4845 -0.3716
  901MOL0     C24255   4.199   7.399   1.593  0.4967 -0.0694 -0.2378
  901MOL0     C24256   4.110   7.509   1.584 -0.5374  0.7298 -0.9437
  901MOL0     C24257   3.969   7.487   1.604  0.2730  0.7523  0.5007
  901MOL0     C24258   3.916   7.370   1.648  0.3472 -0.3224  0.8573
  901MOL0     O24259   3.779   7.365   1.669 -0.4175  0.2676 -0.3130
  901MOL0     C24260   3.720   7.244   1.699  0.9624  0.9820 -0.5264
  901MOL0     C24261   3.565   7.257   1.696 -0.2299  0.1989 -0.3575
  901MOL0     C24262   3.517   7.384   1.778  0.6074 -0.3348 -0.1763
  901MOL0     C24263   3.366   7.391   1.784  0.0471 -0.5043  0.6178
  901MOL0     C24264   3.318   7.518   1.835 -0.4823  0.1978 -0.7296
  901MOL0     C24265   3.274   7.614   1.895 -0.0938  0.4967  0.5254
  901MOL0     C24266   4.009   7.268   1.690  0.0191  0.1879 -0.1601
  901MOL0     C24267   4.148   7.278   1.652  0.4214  0.3295 -0.7014
  901MOL0     C24268   4.236   7.155   1.669  0.1928  0.1251  0.0171
  901MOL0     H24269   4.626   7.367   1.583 -0.5492 -0.5261 -0.3182
  901MOL0     H24270   4.833   7.419   1.513 -0.7265 -0.4584  0.9230
  901MOL0     H24271   4.894   7.852   1.373 -1.9400 -0.0236 -0.1148
  901MOL0     H24272   4.857   7.744   1.234  1.2523 -1.1725  0.9230
  901MOL0     H24273   5.107   7.680   1.249  0.9271 -0.3962 -1.2024
  901MOL0     H24274   5.074   7.840   1.185  0.8989 -1.2431 -1.6314
  901MOL0     H24275   5.123   7.914   1.447  1.1602 -0.4736  2.3830
  901MOL0     H24276   5.169   7.739   1.462 -0.3525  0.0247 -0.2876
  901MOL0     H24277   5.319   7.779   1.250 -0.3303  1.7108 -1.4843
  901MOL0     H24278   5.291   7.955   1.286 -4.1048  0.4959  0.9208
  901MOL0     H24279   5.433   7.764   1.479  0.2451 -0.4730 -1.5082
  901MOL0     H24280   5.395   7.941   1.489  1.0277  1.8949 -1.6342
  901MOL0     H24281   5.566   7.996   1.316  1.0482  0.3884  1.4495
  901MOL0     H24282   5.643   7.894   1.435  0.8027 -0.1114 -0.5094
  901MOL0     H24283   5.527   7.774   1.175 -0.1304 -1.8225  1.2144
  901MOL0     H24284   5.593   7.693   1.305 -0.5440 -0.3116 -0.3697
  901MOL0     H24285   5.765   7.920   1.177 -0.5981 -0.6104  0.5102
  901MOL0     H24286   5.815   7.765   1.246 -0.9832  0.6093  1.2036
  901MOL0     H24287   5.931   7.648   1.042  1.2014 -1.6631 -3.6345
  901MOL0     H24288   5.888   7.568   0.691  1.8441 -1.8088  0.7028
  901MOL0     H24289   5.994   7.582   0.832 -0.1080 -1.1503 -0.8461
  901MOL0     H24290   6.026   7.826   0.759 -1.9417  1.0665 -0.7279
  901MOL0     H24291   6.100   7.703   0.654 -1.6827 -3.4315 -1.9903
  901MOL0     H24292   5.898   7.740   0.493  5.1419  0.2693 -2.3630
  901MOL0     H24293   5.831   7.860   0.622 -2.5450 -3.5301  1.2191
  901MOL0     H24294   5.915   7.966   0.424 -1.3562  1.8019  2.6451
  901MOL0     H24295   6.028   8.001   0.551 -0.2389 -0.2973 -0.4240
  901MOL0     H24296   6.218   7.979   0.634 -0.4521  1.3013 -2.5643
  901MOL0     H24297   6.385   8.018   0.793 -0.4776 -2.1201 -0.5576
  901MOL0     H24298   6.516   8.098   0.706 -0.3140  0.8001  2.3347
  901MOL0     H24299   6.528   7.929   0.767  0.0668  0.8506  0.6805
  901MOL0     H24300   6.845   7.688   0.590 -0.3618  1.2572  0.8987
  901MOL0     H24301   7.084   7.687   0.649  1.3088 -0.1262 -0.8960
  901MOL0     H24302   7.359   7.908   0.390 -2.5907  0.7104  0.1985
  901MOL0     H24303   7.338   8.016   0.520  0.7986  0.5800 -0.5925
  901MOL0     H24304   7.567   7.966   0.533 -0.9578  0.4539 -2.5980
  901MOL0     H24305   7.510   7.856   0.652 -2.2667 -2.3885  0.1962
  901MOL0     H24306   7.583   7.767   0.370 -0.9433  0.5830  0.2090
  901MOL0     H24307   7.506   7.665   0.506  1.9525 -1.6151  1.0870
  901MOL0     H24308   7.693   7.740   0.658 -0.7342  0.0392 -0.6040
  901MOL0     H24309   7.776   7.798   0.522 -0.1643  0.3445  0.6687
  901MOL0     H24310   7.691   7.507   0.585  0.2093  0.4110  2.1653
  901MOL0     H24311   7.755   7.562   0.433 -0.1971 -1.3050  0.0555
  901MOL0     H24312   7.911   7.621   0.691 -0.3493 -0.5779 -0.1463
  901MOL0     H24313   7.967   7.645   0.534 -0.6723  3.2282  0.4047
  901MOL0     H24314   7.957   7.388   0.496 -2.4662  0.6551 -0.8877
  901MOL0     H24315   7.882   7.370   0.650 -0.0174  0.6351 -0.0734
  901MOL0     H24316   8.163   7.473   0.602  0.1070  0.6196  0.7490
  901MOL0     H24317   8.115   7.315   0.686 -2.6187 -0.2975 -0.0353
  901MOL0     H24318   7.165   8.006   0.371  1.4326  0.2588  2.7988
  901MOL0     H24319   6.919   7.997   0.301 -2.9253 -0.2901  0.8714
  901MOL0     H24320   6.528   7.809   0.299  1.3890  0.2804  0.2173
  901MOL0     H24321   6.261   7.799   0.262  0.6526 -0.4760 -0.0669
  901MOL0     H24322   4.684   7.806   1.362  0.6528 -0.0689  0.5150
  901MOL0     H24323   4.475   7.747   1.477 -0.1336  0.5525 -1.8166
  901MOL0     H24324   4.142   7.610   1.561  0.8807  0.7552  0.8635
  901MOL0     H24325   3.896   7.566   1.596  2.1615  2.5747  0.3022
  901MOL0     H24326   3.754   7.173   1.623  3.9077  0.7285  0.8566
  901MOL0     H24327   3.745   7.203   1.797  0.2899  1.8341  0.0151
  901MOL0     H24328   3.527   7.162   1.736 -0.6499  0.9103  1.0037
  901MOL0     H24329   3.527   7.267   1.594 -2.1945  3.3088  0.5526
  901MOL0     H24330   3.553   7.376   1.881  0.9297  1.7441 -0.0853
  901MOL0     H24331   3.569   7.476   1.749  1.7814 -0.5757  1.0801
  901MOL0     H24332   3.336   7.311   1.853  2.1620 -0.3429  1.8085
  901MOL0     H24333   3.318   7.360   1.691 -1.3524  0.0156  1.1449
  901MOL0     H24334   3.227   7.693   1.950 -2.5930  0.0067 -0.7778
  901MOL0     H24335   3.974   7.177   1.737  0.3781 -0.1575 -0.5495
  901MOL0     H24336   4.334   7.191   1.702  0.2819  1.5905 -1.7153
  901MOL0     H24337   4.197   7.097   1.753  2.2232 -0.2609  0.7620
  901MOL0     H24338   4.241   7.107   1.571  0.3237  1.6704 -0.7558
  902MOL0     O24339   9.557   2.638   2.916 -0.3129 -0.3576 -0.3174
  902MOL0     C24340   9.489   2.739   2.947 -1.0926 -0.5963  0.5380
  902MOL0     O24341   9.545   2.865   2.946  0.0836 -1.0504 -0.2844
  902MOL0     C24342   9.679   2.863   2.967  0.2641  0.5103  0.3933
  902MOL0     C24343   9.773   2.862   2.860  0.0259  0.0494  0.4733
  902MOL0     C24344   9.905   2.856   2.885  0.8088 -0.5697  0.3406
  902MOL0     C24345   9.952   2.848   3.023  0.1468 -0.3480 -0.8722
  902MOL0     O24346  10.086   2.818   3.045  0.3238 -0.3373  0.5688
  902MOL0     C24347  10.171   2.924   3.100  0.4608 -0.4690  0.8230
  902MOL0     C24348  10.278   2.890   3.199  0.0413 -0.6094  0.2024
  902MOL0     C24349  10.374   3.015   3.193  0.5231  0.0704  1.0159
  902MOL0     C24350  10.510   2.979   3.264  0.9841 -0.1997  0.1578
  902MOL0     C24351  10.595   3.097   3.300  0.3646  0.2750  0.1571
  902MOL0     C24352  10.643   3.170   3.182 -0.5205  0.0789 -0.1831
  902MOL0     C24353  10.713   3.080   3.073 -0.1546  0.3380 -1.6295
  902MOL0     C24354  10.807   3.152   2.978 -1.3811 -0.7985 -0.8882
  902MOL0     N24355  10.758   3.231   2.863 -0.5309  0.2478  0.7143
  902MOL0     C24356  10.658   3.188   2.777 -0.0262  0.2370  0.5076
  902MOL0     C24357  10.660   3.276   2.677 -0.1432  0.7543 -0.5031
  902MOL0     C24358  10.560   3.261   2.559 -0.6592  0.0735  0.1018
  902MOL0     C24359  10.469   3.391   2.545 -0.6644  0.4494  0.5433
  902MOL0     C24360  10.344   3.369   2.635  0.4637 -0.3493  0.6676
  902MOL0     C24361  10.265   3.503   2.637  0.8647  0.0357 -0.3022
  902MOL0     O24362  10.146   3.484   2.713 -0.3884 -0.0843 -0.6879
  902MOL0     C24363  10.042   3.410   2.661 -0.1250 -0.4800 -0.1696
  902MOL0     C24364   9.936   3.386   2.744  1.0752 -0.6802 -0.0808
  902MOL0     C24365   9.821   3.318   2.707  0.5190  0.2761  0.0200
  902MOL0     C24366   9.726   3.285   2.826 -0.3578  0.4405 -0.7768
  902MOL0     C24367   9.818   3.256   2.577 -0.3130 -0.0477 -0.0912
  902MOL0     C24368   9.708   3.174   2.531  1.5248 -0.6338 -1.0914
  902MOL0     O24369   9.585   3.200   2.588 -0.4192 -0.5131 -0.4289
  902MOL0     C24370   9.475   3.139   2.541  0.1581 -0.9731  0.9247
  902MOL0     C24371   9.461   3.006   2.561 -1.0126  0.2491 -0.0539
  902MOL0     C24372   9.352   2.938   2.509  0.3849  0.3197 -0.6419
  902MOL0     C24373   9.249   3.010   2.443 -0.4245 -0.8703  0.5104
  902MOL0     O24374   9.150   2.938   2.393  0.2639 -0.1339  0.1729
  902MOL0     C24375   9.094   2.993   2.263 -0.4084  0.3297 -0.0260
  902MOL0     C24376   8.998   2.889   2.192 -0.5169  0.2039  0.3467
  902MOL0     C24377   8.881   2.844   2.282  0.0711 -0.6157  0.2748
  902MOL0     C24378   8.782   2.762   2.196  0.8689 -0.0949  0.1543
  902MOL0     C24379   8.655   2.717   2.275 -0.1014 -0.1819  0.1532
  902MOL0     C24380   8.545   2.669   2.189  0.4078 -0.1440  0.4278
  902MOL0     C24381   8.427   2.616   2.272 -0.1919  0.3361 -0.8046
  902MOL0     C24382   8.312   2.577   2.190 -0.0266 -1.2020  0.3391
  902MOL0    Cl24383   8.260   2.713   2.070  0.1055 -0.6430  0.4138
  902MOL0     C24384   9.267   3.148   2.414  0.3243 -0.5495 -0.1024
  902MOL0     C24385   9.383   3.217   2.465  0.8268  0.0269 -0.4718
  902MOL0     O24386   9.725   3.100   2.440 -0.6973 -0.3590 -0.4679
  902MOL0     C24387   9.924   3.277   2.490  0.5079 -0.5899 -0.1433
  902MOL0     C24388  10.033   3.363   2.530  0.5181  0.9373 -0.3895
  902MOL0     N24389  10.754   3.381   2.702  0.4059  0.0716  0.1154
  902MOL0     N24390  10.807   3.353   2.815  0.6005  0.2709  0.5203
  902MOL0     C24391   9.864   2.857   3.132 -0.2370  0.2335  0.3147
  902MOL0     C24392   9.726   2.874   3.097  0.8102  0.3502  0.1833
  902MOL0     C24393   9.345   2.720   2.951  0.2086 -0.3392 -0.3765
  902MOL0     C24394   9.260   2.834   2.915  0.0917 -0.2326  0.3117
  902MOL0     C24395   9.120   2.830   2.920 -0.2207  0.2093 -0.1904
  902MOL0     C24396   9.057   2.709   2.948 -0.2622 -0.3030 -0.4051
  902MOL0     O24397   8.921   2.710   2.958 -0.1241 -0.3917  0.3884
  902MOL0     C24398   8.847   2.597   2.984 -0.2530  0.6728  0.1496
  902MOL0     C24399   8.707   2.636   2.926 -0.1155  0.6919  0.0714
  902MOL0     C24400   8.592   2.546   2.964 -0.2820  0.6942 -0.3204
  902MOL0     C24401   8.449   2.599   2.946 -0.2554  0.6710 -0.6137
  902MOL0     C24402   8.420   2.650   2.809  0.3027 -0.3634 -0.4547
  902MOL0     C24403   8.385   2.698   2.703 -0.4849  0.2912 -0.3028
  902MOL0     C24404   9.135   2.595   2.990 -0.2929  0.4299 -0.4109
  902MOL0     C24405   9.273   2.601   2.994 -0.4599  0.3477  0.9090
  902MOL0     C24406   9.357   2.476   3.044 -0.5455  0.3464 -0.3793
  902MOL0     H24407   9.736   2.860   2.758  1.8250  1.2063 -0.2460
  902MOL0     H24408   9.979   2.845   2.807 -0.6460 -0.5974 -1.0803
  902MOL0     H24409  10.113   3.010   3.134 -0.1680 -1.1198  1.4129
  902MOL0     H24410  10.213   2.962   3.006 -1.7196  1.8999  0.6945
  902MOL0     H24411  10.240   2.875   3.301 -0.6205 -0.8298 -0.0737
  902MOL0     H24412  10.348   2.812   3.167  3.4856  2.2493  0.0645
  902MOL0     H24413  10.389   3.052   3.092 -1.9215 -1.8089 -0.1326
  902MOL0     H24414  10.319   3.099   3.236  1.0573  1.2348 -0.5269
  902MOL0     H24415  10.476   2.928   3.354  0.0006  0.0816 -0.0450
  902MOL0     H24416  10.576   2.913   3.206 -0.5265 -1.5199 -0.1112
  902MOL0     H24417  10.675   3.052   3.359  1.6446  0.0714 -1.6277
  902MOL0     H24418  10.536   3.163   3.364 -2.2531 -1.4354 -0.3163
  902MOL0     H24419  10.562   3.227   3.135 -0.0812 -0.5161 -1.7540
  902MOL0     H24420  10.710   3.251   3.212 -2.0333  1.6253 -0.7776
  902MOL0     H24421  10.627   3.035   3.024  0.0044 -1.1722 -0.5875
  902MOL0     H24422  10.763   2.995   3.122  0.9074  1.2945 -0.9768
  902MOL0     H24423  10.868   3.224   3.033 -0.5435 -0.8358 -1.7476
  902MOL0     H24424  10.869   3.071   2.940 -1.6448 -1.2981 -0.2884
  902MOL0     H24425  10.596   3.100   2.779 -0.9648  0.8360 -0.8140
  902MOL0     H24426  10.508   3.165   2.563  1.1808 -1.0606 -1.6343
  902MOL0     H24427  10.616   3.249   2.466  0.5946 -2.1445  1.0811
  902MOL0     H24428  10.523   3.485   2.562 -0.9918  0.5536  1.0306
  902MOL0     H24429  10.425   3.401   2.445 -0.3572  3.6613  0.6381
  902MOL0     H24430  10.288   3.287   2.589 -1.1757  1.2973 -0.4385
  902MOL0     H24431  10.371   3.341   2.738 -1.7211 -1.7082  0.9472
  902MOL0     H24432  10.315   3.590   2.681  1.8712 -0.2860 -0.7738
  902MOL0     H24433  10.256   3.528   2.531  4.1816 -0.0440 -0.7224
  902MOL0     H24434   9.948   3.423   2.845 -1.2336 -0.2117  0.0747
  902MOL0     H24435   9.781   3.321   2.913  2.4739  0.1421 -2.3236
  902MOL0     H24436   9.713   3.179   2.851  0.1650  0.6573  0.4706
  902MOL0     H24437   9.624   3.325   2.825 -0.8114 -0.5543  0.9731
  902MOL0     H24438   9.532   2.959   2.628 -0.8819  2.4592  1.4801
  902MOL0     H24439   9.347   2.832   2.532  2.4183 -0.1381 -2.0086
  902MOL0     H24440   9.020   3.068   2.291  0.1510  0.8269  0.1429
  902MOL0     H24441   9.168   3.035   2.194  1.1331 -1.0465  0.6942
  902MOL0     H24442   8.956   2.934   2.101  0.7091 -2.9572 -1.9672
  902MOL0     H24443   9.054   2.800   2.162 -0.5266 -0.2759  1.6995
  902MOL0     H24444   8.839   2.933   2.329  1.5116  0.9367 -1.2326
  902MOL0     H24445   8.918   2.786   2.366  3.0793 -0.9076 -1.1383
  902MOL0     H24446   8.841   2.678   2.158 -0.2939 -0.2245 -1.4528
  902MOL0     H24447   8.760   2.820   2.106  2.1205 -1.9502 -1.4459
  902MOL0     H24448   8.684   2.635   2.341 -0.3162  1.0441  1.8298
  902MOL0     H24449   8.609   2.799   2.331  0.4227 -1.1159  2.0059
  902MOL0     H24450   8.573   2.584   2.126 -3.3245 -1.0167 -0.2726
  902MOL0     H24451   8.509   2.751   2.126  1.2760  0.3070  0.4938
  902MOL0     H24452   8.401   2.693   2.345  0.1330  2.8873 -3.1969
  902MOL0     H24453   8.463   2.527   2.324 -0.2866 -1.2184 -3.2409
  902MOL0     H24454   8.225   2.558   2.254 -0.2472 -1.0269  0.0887
  902MOL0     H24455   8.346   2.492   2.131  0.0585 -0.2990 -0.9441
  902MOL0     H24456   9.197   3.206   2.355 -0.5960 -2.1408 -0.6469
  902MOL0     H24457   9.407   3.320   2.438  2.9401 -0.4198 -0.4581
  902MOL0     H24458   9.920   3.238   2.389 -2.5219  1.0629 -0.7621
  902MOL0     H24459  10.117   3.383   2.464  0.1232  0.5275 -1.0205
  902MOL0     H24460   9.910   2.857   3.230 -1.5344 -1.4222  0.9623
  902MOL0     H24461   9.646   2.887   3.169  1.0315  1.2413  0.2765
  902MOL0     H24462   9.309   2.927   2.889  1.2920 -0.5221  1.4467
  902MOL0     H24463   9.063   2.919   2.898 -0.1315  0.5085  0.7470
  902MOL0     H24464   8.882   2.507   2.931 -2.9967 -0.6392  0.3835
  902MOL0     H24465   8.846   2.581   3.092  2.6398  2.6904  0.5865
  902MOL0     H24466   8.713   2.643   2.817 -3.1237 -0.7481 -0.2818
  902MOL0     H24467   8.693   2.739   2.961 -0.0596  0.5013  0.6576
  902MOL0     H24468   8.608   2.448   2.919  4.2596 -0.9414  3.8732
  902MOL0     H24469   8.597   2.529   3.072 -2.9469 -1.1044 -0.3770
  902MOL0     H24470   8.428   2.680   3.016 -0.1748  2.3108 -2.3833
  902MOL0     H24471   8.379   2.515   2.951  0.8178 -0.5126 -3.3136
  902MOL0     H24472   8.384   2.741   2.605  2.7791 -1.7960 -1.4402
  902MOL0     H24473   9.077   2.512   3.028 -1.1402  2.3437  2.8015
  902MOL0     H24474   9.412   2.492   3.137 -0.4233  2.7944 -0.8021
  902MOL0     H24475   9.289   2.396   3.073  1.1688  0.3283  4.3442
  902MOL0     H24476   9.424   2.429   2.971 -0.2511  0.4641 -0.1870
  903MOL0     O24477  11.381  11.008   1.914  0.1492 -1.1187  0.6015
  903MOL0     C24478  11.350  10.934   1.820  0.1159 -0.4856  0.3956
  903MOL0     O24479  11.438  10.852   1.752  0.4863 -0.1520 -0.0544
  903MOL0     C24480  11.549  10.824   1.817 -1.2650  0.6613  0.0801
  903MOL0     C24481  11.560  10.769   1.950  0.6413 -0.2829 -0.1566
  903MOL0     C24482  11.684  10.752   2.015 -0.1623 -0.9713 -0.0622
  903MOL0     C24483  11.804  10.784   1.945  0.3002 -0.1957 -0.8176
  903MOL0     O24484  11.926  10.797   2.003  0.0567  0.6112 -0.6269
  903MOL0     C24485  11.932  10.779   2.153  0.3842  0.3256  0.6894
  903MOL0     C24486  12.065  10.827   2.200 -0.4791  0.0953 -1.1557
  903MOL0     C24487  12.180  10.761   2.131 -0.5272 -0.4715 -0.3334
  903MOL0     C24488  12.213  10.826   1.995 -0.0176  0.4898  0.0724
  903MOL0     C24489  12.364  10.796   1.981  0.0417  0.5472  0.3096
  903MOL0     C24490  12.420  10.875   1.864 -0.1960  0.0688 -0.0791
  903MOL0     C24491  12.559  10.836   1.821  0.3496 -0.7906 -0.0022
  903MOL0     C24492  12.669  10.839   1.935  0.1186 -0.1927  0.1506
  903MOL0     N24493  12.793  10.763   1.907 -0.6842 -0.5670  0.7809
  903MOL0     C24494  12.870  10.781   1.789  0.1751 -0.2095 -0.5027
  903MOL0     C24495  12.992  10.726   1.826  1.0144  0.3606 -0.2639
  903MOL0     C24496  13.113  10.726   1.733 -0.1667 -0.3473  0.2015
  903MOL0     C24497  13.210  10.610   1.761 -0.5331 -0.1095  0.4013
  903MOL0     C24498  13.328  10.623   1.664 -0.9467  0.2034  0.3496
  903MOL0     C24499  13.406  10.494   1.646  0.9811 -0.4470  0.3312
  903MOL0     O24500  13.532  10.539   1.597 -0.6280 -0.4867 -0.0313
  903MOL0     C24501  13.625  10.456   1.543  0.3427 -0.4089  0.3442
  903MOL0     C24502  13.602  10.320   1.534  0.1757  0.1061 -0.6415
  903MOL0     C24503  13.704  10.239   1.498 -0.1721  0.1230 -0.1408
  903MOL0     C24504  13.681  10.083   1.483 -0.0689 -0.2805  0.1000
  903MOL0     C24505  13.840  10.282   1.468 -0.2019 -0.0858 -0.0803
  903MOL0     C24506  13.955  10.211   1.422  0.3448  0.2179  0.7617
  903MOL0     O24507  14.043  10.275   1.342 -0.4840  0.4263  0.3741
  903MOL0     C24508  14.167  10.214   1.316 -0.1982  1.3085  0.1037
  903MOL0     C24509  14.176  10.096   1.243  0.2780 -0.4165 -0.3044
  903MOL0     C24510  14.298  10.023   1.226 -0.1307 -0.3773 -0.0807
  903MOL0     C24511  14.415  10.083   1.273  0.3683  0.8640 -0.0254
  903MOL0     O24512  14.537  10.020   1.234 -0.9984 -0.4561  0.7869
  903MOL0     C24513  14.644  10.099   1.175 -0.2941  0.4882  0.3341
  903MOL0     C24514  14.771  10.108   1.264 -1.0057 -0.2254  0.2016
  903MOL0     C24515  14.856  10.222   1.218 -0.2928  0.1999  0.0623
  903MOL0     C24516  14.982  10.222   1.308 -0.0717 -0.7344 -0.1020
  903MOL0     C24517  15.085  10.324   1.250  0.1493 -0.4921 -0.2334
  903MOL0     C24518  15.203  10.358   1.341  1.0853 -0.7470 -0.6252
  903MOL0     C24519  15.267  10.483   1.275 -0.2118  0.5506 -0.7085
  903MOL0     C24520  15.338  10.565   1.385 -0.2042 -0.4086 -0.5206
  903MOL0    Cl24521  15.430  10.464   1.497 -0.0222  0.0882 -0.2542
  903MOL0     C24522  14.409  10.199   1.345  0.2175  0.3928  0.8092
  903MOL0     C24523  14.291  10.274   1.368  0.1307  1.1434 -0.9397
  903MOL0     O24524  13.971  10.101   1.469  0.1153 -0.1973 -0.7609
  903MOL0     C24525  13.850  10.423   1.472 -0.3128  0.4956 -0.3925
  903MOL0     C24526  13.743  10.509   1.503 -0.2214  0.0694  1.5309
  903MOL0     N24527  12.995  10.684   1.953  0.3662  0.1160 -0.2737
  903MOL0     N24528  12.873  10.703   2.001  0.1727 -0.5418 -0.2221
  903MOL0     C24529  11.790  10.825   1.812 -0.4513  0.3852  0.6089
  903MOL0     C24530  11.665  10.839   1.745 -0.2710 -0.2567  0.6296
  903MOL0     C24531  11.202  10.904   1.801  0.5272 -0.4626 -0.7085
  903MOL0     C24532  11.160  10.781   1.741  0.1009  0.2598 -0.2243
  903MOL0     C24533  11.025  10.729   1.748  0.5948 -0.4883  0.3510
  903MOL0     C24534  10.926  10.809   1.812  0.3653 -0.1219 -1.1512
  903MOL0     O24535  10.789  10.774   1.824  0.0325  0.5332 -0.5599
  903MOL0     C24536  10.754  10.638   1.794  0.7535 -0.5976 -0.1512
  903MOL0     C24537  10.614  10.605   1.822  0.4371  0.1208 -0.0278
  903MOL0     C24538  10.563  10.608   1.963 -0.8441  0.3575 -0.4811
  903MOL0     C24539  10.427  10.680   1.982 -1.3628 -0.8684  0.1566
  903MOL0     C24540  10.393  10.698   2.129  0.4085 -0.0186  1.2424
  903MOL0     C24541  10.361  10.711   2.249 -1.1383  0.1309  0.0285
  903MOL0     C24542  10.961  10.929   1.871 -0.4992 -0.1269 -0.1064
  903MOL0     C24543  11.090  10.981   1.857 -0.1588  0.2164  0.6390
  903MOL0     C24544  11.112  11.118   1.904 -0.7716  0.9555  0.4828
  903MOL0     H24545  11.463  10.750   1.995  0.1217 -1.4762 -1.7029
  903MOL0     H24546  11.676  10.729   2.121  2.2462  1.6886  0.7941
  903MOL0     H24547  11.926  10.676   2.191 -0.0877  0.9831  2.5140
  903MOL0     H24548  11.852  10.830   2.207  1.5940  1.8637  1.1229
  903MOL0     H24549  12.065  10.935   2.182 -0.4447  0.1286 -0.9576
  903MOL0     H24550  12.070  10.810   2.308 -0.9365  2.2790 -0.7418
  903MOL0     H24551  12.262  10.768   2.202 -0.8943  1.6940 -0.0596
  903MOL0     H24552  12.151  10.656   2.117 -0.5855 -0.5715  0.4991
  903MOL0     H24553  12.158  10.779   1.913  0.3692  0.4490 -0.1639
  903MOL0     H24554  12.188  10.932   1.994 -0.8331  0.3185 -2.2496
  903MOL0     H24555  12.393  10.692   1.967  4.3043  1.3073  1.8820
  903MOL0     H24556  12.429  10.825   2.064  3.7288  0.5984 -2.3352
  903MOL0     H24557  12.353  10.852   1.781 -1.2808 -1.0674  1.0856
  903MOL0     H24558  12.423  10.982   1.890  1.3434  0.1750 -0.6032
  903MOL0     H24559  12.595  10.899   1.739  0.7754 -0.3150  0.5403
  903MOL0     H24560  12.553  10.734   1.782  1.1080 -0.4261 -1.1131
  903MOL0     H24561  12.686  10.946   1.951  0.1612 -0.0306 -0.9296
  903MOL0     H24562  12.623  10.797   2.025 -1.0787  0.1077 -0.3078
  903MOL0     H24563  12.841  10.832   1.698  0.3848 -0.8750 -0.9460
  903MOL0     H24564  13.167  10.815   1.767 -0.4043  0.1697 -0.7588
  903MOL0     H24565  13.089  10.730   1.627 -0.0440 -4.0127 -0.0636
  903MOL0     H24566  13.238  10.631   1.864 -0.8086  0.7741  0.3007
  903MOL0     H24567  13.159  10.513   1.756 -3.9614  1.5886 -3.1431
  903MOL0     H24568  13.295  10.646   1.562 -0.8685 -0.9015  0.0707
  903MOL0     H24569  13.390  10.705   1.701  0.7689 -0.2259 -1.4245
  903MOL0     H24570  13.414  10.441   1.741 -1.9503 -0.7994  0.4519
  903MOL0     H24571  13.358  10.428   1.574 -0.0291  2.0662 -1.4417
  903MOL0     H24572  13.505  10.277   1.557  0.0863 -0.6448 -2.2598
  903MOL0     H24573  13.718  10.043   1.388 -0.0426  2.8044 -1.3160
  903MOL0     H24574  13.575  10.061   1.496  0.2793 -0.7667  2.5747
  903MOL0     H24575  13.734  10.026   1.559 -0.4744 -1.1566 -0.2579
  903MOL0     H24576  14.079  10.063   1.209 -0.2046  0.4302  0.2138
  903MOL0     H24577  14.296   9.921   1.188 -0.6920 -0.5229  0.3266
  903MOL0     H24578  14.679  10.046   1.086  2.0453  0.3178  1.2712
  903MOL0     H24579  14.605  10.199   1.151 -0.4287  0.5940  0.9703
  903MOL0     H24580  14.728  10.115   1.364 -2.2023 -0.8486 -0.2392
  903MOL0     H24581  14.825  10.012   1.258  0.5437  0.6372 -0.1599
  903MOL0     H24582  14.792  10.310   1.218  1.8016  1.9137 -2.8322
  903MOL0     H24583  14.888  10.205   1.115  0.1188 -2.7487  0.5604
  903MOL0     H24584  15.024  10.122   1.315  1.6818 -0.1801 -1.6510
  903MOL0     H24585  14.958  10.253   1.410 -1.5799 -1.0032 -0.3462
  903MOL0     H24586  15.125  10.287   1.155  0.2401  0.1041 -0.4375
  903MOL0     H24587  15.024  10.414   1.232  1.5138  0.5044 -0.0451
  903MOL0     H24588  15.268  10.272   1.356  1.7775  0.0353  1.0659
  903MOL0     H24589  15.167  10.390   1.439  1.2477  1.5333 -1.2555
  903MOL0     H24590  15.189  10.543   1.228 -0.1493  1.0211 -0.2186
  903MOL0     H24591  15.338  10.452   1.198  0.5781  2.8505 -0.9929
  903MOL0     H24592  15.264  10.625   1.439 -0.3713 -0.6532 -0.4814
  903MOL0     H24593  15.409  10.630   1.332 -1.2795 -0.5270 -2.1450
  903MOL0     H24594  14.501  10.241   1.386  0.8798  0.7937 -0.9992
  903MOL0     H24595  14.287  10.363   1.429  1.0039  0.3313  0.3420
  903MOL0     H24596  13.943  10.474   1.448  0.3277 -1.1772 -1.7287
  903MOL0     H24597  13.776  10.612   1.508  0.5879 -0.0977  0.1204
  903MOL0     H24598  11.879  10.860   1.760 -1.6634  1.6865 -0.6683
  903MOL0     H24599  11.668  10.874   1.642  0.0148 -0.6338  0.5087
  903MOL0     H24600  11.235  10.720   1.692  0.5945 -0.3991  1.2882
  903MOL0     H24601  10.991  10.641   1.694 -0.9901  0.5536 -0.4227
  903MOL0     H24602  10.777  10.624   1.688  0.3257  1.4301 -0.5574
  903MOL0     H24603  10.823  10.576   1.850 -0.9753 -0.8138  1.8537
  903MOL0     H24604  10.604  10.503   1.785 -4.6026  0.1835  0.5047
  903MOL0     H24605  10.549  10.673   1.766  1.0760  0.5658 -0.2396
  903MOL0     H24606  10.563  10.504   1.996  3.0672  0.9389  2.0513
  903MOL0     H24607  10.632  10.659   2.031 -0.7492  2.2569 -1.9320
  903MOL0     H24608  10.345  10.622   1.939 -1.4878 -0.0927 -0.6828
  903MOL0     H24609  10.424  10.779   1.936 -0.0815 -0.3706  1.0726
  903MOL0     H24610  10.340  10.709   2.354 -1.6892 -0.4743 -0.0887
  903MOL0     H24611  10.887  10.990   1.921 -0.4348  0.2849 -0.5089
  903MOL0     H24612  11.185  11.162   1.836  1.3481 -1.4494  1.0434
  903MOL0     H24613  11.019  11.175   1.912 -2.4223 -1.1051 -2.1760
  903MOL0     H24614  11.161  11.141   1.999 -0.2026  0.6364  0.2717
  904MOL0     O24615   9.140   5.637   4.127 -0.0717  0.4312  0.1200
  904MOL0     C24616   9.083   5.739   4.102  1.7194 -0.0194 -0.9552
  904MOL0     O24617   9.021   5.769   3.973  0.7979 -0.2673  0.1865
  904MOL0     C24618   9.027   5.668   3.876 -0.4110 -0.2440  0.8958
  904MOL0     C24619   9.135   5.583   3.839 -0.2197  0.1847 -0.8568
  904MOL0     C24620   9.121   5.493   3.725 -0.1262 -0.2485 -0.6322
  904MOL0     C24621   8.999   5.470   3.671  0.4557  0.4768 -0.0728
  904MOL0     O24622   8.991   5.387   3.564  0.0064  0.1776  0.6449
  904MOL0     C24623   8.895   5.282   3.570 -0.5958 -0.8724  0.1184
  904MOL0     C24624   8.878   5.254   3.422 -0.2275 -0.0463  0.4442
  904MOL0     C24625   8.784   5.130   3.403 -0.0129  0.2102  0.7150
  904MOL0     C24626   8.868   5.003   3.396  0.4150  0.1228  0.8194
  904MOL0     C24627   8.786   4.886   3.428  0.6736 -0.8889  0.4501
  904MOL0     C24628   8.855   4.758   3.381  0.1223  0.4922  0.2727
  904MOL0     C24629   8.988   4.733   3.449  0.4029 -0.6677 -0.7009
  904MOL0     C24630   9.061   4.621   3.392  0.2108  1.1778  0.5106
  904MOL0     N24631   9.121   4.640   3.256  0.5357 -0.4828 -0.1839
  904MOL0     C24632   9.210   4.742   3.228  0.3966 -0.4363 -0.4675
  904MOL0     C24633   9.231   4.737   3.096 -0.1671  0.4501  0.0758
  904MOL0     C24634   9.323   4.827   3.012 -0.2190 -0.2361 -0.0219
  904MOL0     C24635   9.476   4.806   3.061 -0.3850  0.0993 -0.3676
  904MOL0     C24636   9.544   4.670   3.019 -0.3079 -0.3562 -0.1875
  904MOL0     C24637   9.577   4.678   2.865 -0.2987 -0.7562  0.8387
  904MOL0     O24638   9.672   4.788   2.830 -0.9601  0.5611  0.0196
  904MOL0     C24639   9.807   4.755   2.846 -0.1040 -0.9220  0.3017
  904MOL0     C24640   9.903   4.858   2.816  0.4972  0.2644  0.2224
  904MOL0     C24641  10.034   4.840   2.846 -0.5918  0.3468  0.5393
  904MOL0     C24642  10.130   4.956   2.828 -0.2243  0.1314 -0.5851
  904MOL0     C24643  10.081   4.704   2.876  0.1559  0.3386 -0.0377
  904MOL0     C24644  10.225   4.662   2.878  0.2782  0.2884  0.0470
  904MOL0     O24645  10.253   4.523   2.887  1.1219 -0.0669 -0.0306
  904MOL0     C24646  10.371   4.472   2.936  0.3664 -0.9045 -0.1236
  904MOL0     C24647  10.440   4.525   3.047  0.6791 -0.4487 -0.3759
  904MOL0     C24648  10.533   4.452   3.115 -0.9143  0.0925  0.2735
  904MOL0     C24649  10.554   4.312   3.087  0.4569 -0.8557 -0.6143
  904MOL0     O24650  10.633   4.243   3.163  0.3598  0.7522 -0.6275
  904MOL0     C24651  10.708   4.144   3.102 -0.4840  0.5045  0.7937
  904MOL0     C24652  10.810   4.082   3.201 -0.9418 -0.5557 -0.0581
  904MOL0     C24653  10.871   4.187   3.292 -0.1482  0.7341  0.3988
  904MOL0     C24654  11.011   4.145   3.358  1.0871 -0.0564 -0.6869
  904MOL0     C24655  11.086   4.272   3.410 -0.7022 -0.5760 -0.3828
  904MOL0     C24656  11.153   4.353   3.302  0.3929 -0.2800 -0.2053
  904MOL0     C24657  11.215   4.477   3.364 -0.3076 -0.1200  0.0910
  904MOL0     C24658  11.118   4.588   3.389 -0.0051 -0.3331  0.2640
  904MOL0    Cl24659  11.205   4.739   3.429  0.0987 -0.2636  0.0433
  904MOL0     C24660  10.488   4.265   2.975 -0.1331  0.1840  0.1525
  904MOL0     C24661  10.404   4.343   2.896 -0.5561 -0.2250  1.0220
  904MOL0     O24662  10.312   4.746   2.881  0.7153 -0.2060 -0.0956
  904MOL0     C24663   9.994   4.608   2.913 -0.7581  0.4545 -0.2216
  904MOL0     C24664   9.856   4.639   2.900  0.0015  0.3696 -0.6568
  904MOL0     N24665   9.135   4.646   3.042  0.2487  0.4045 -0.2009
  904MOL0     N24666   9.073   4.589   3.143  0.5866 -0.0186 -0.0879
  904MOL0     C24667   8.895   5.548   3.712  0.1520  0.3665 -0.5817
  904MOL0     C24668   8.905   5.643   3.814  0.6581  0.6377 -0.1672
  904MOL0     C24669   9.075   5.841   4.201 -0.4670  0.5517 -0.9951
  904MOL0     C24670   8.989   5.949   4.172  0.2862  0.1366  0.3479
  904MOL0     C24671   8.959   6.057   4.246 -0.3855  0.7981 -0.6647
  904MOL0     C24672   9.026   6.063   4.374  0.5122  0.5444 -0.0099
  904MOL0     O24673   8.995   6.168   4.459  0.5450 -0.5923  0.6162
  904MOL0     C24674   9.035   6.292   4.410  0.0470 -0.1424 -0.0250
  904MOL0     C24675   8.968   6.402   4.492 -0.2008  0.6810  0.6398
  904MOL0     C24676   8.824   6.427   4.447 -0.1159  0.0148 -0.3094
  904MOL0     C24677   8.784   6.561   4.505  0.1516 -0.9992 -0.7558
  904MOL0     C24678   8.755   6.558   4.651 -1.0803 -0.2932  0.8297
  904MOL0     C24679   8.730   6.543   4.766 -0.2260 -0.3351 -0.1694
  904MOL0     C24680   9.122   5.961   4.412 -0.1559 -0.1185  0.6167
  904MOL0     C24681   9.149   5.850   4.326  0.7589 -0.0289 -0.1391
  904MOL0     C24682   9.258   5.748   4.370 -0.0632  0.8637 -0.3210
  904MOL0     H24683   9.226   5.598   3.895 -1.0076  1.2285  0.1695
  904MOL0     H24684   9.201   5.439   3.674  0.3738  0.8468 -1.0312
  904MOL0     H24685   8.798   5.314   3.611 -0.2143 -0.0455  0.4006
  904MOL0     H24686   8.946   5.201   3.622 -0.2101  0.1094  1.3286
  904MOL0     H24687   8.823   5.338   3.379  0.8439  0.5118  0.1395
  904MOL0     H24688   8.971   5.232   3.368 -2.3681 -2.0651 -2.7836
  904MOL0     H24689   8.705   5.137   3.479 -1.3589 -3.2364 -0.1833
  904MOL0     H24690   8.737   5.138   3.304 -0.2114 -0.9768  0.7017
  904MOL0     H24691   8.894   4.980   3.292  3.3061 -0.3384  1.5535
  904MOL0     H24692   8.957   5.007   3.460  1.3051 -2.3624 -0.1099
  904MOL0     H24693   8.685   4.899   3.388 -0.3216 -3.4457  1.8656
  904MOL0     H24694   8.774   4.874   3.536  0.8153  1.2677  0.7432
  904MOL0     H24695   8.787   4.673   3.395  1.8183 -0.7872  1.2218
  904MOL0     H24696   8.874   4.768   3.274 -1.7725 -0.1473 -0.1635
  904MOL0     H24697   8.971   4.713   3.555  3.0938 -0.2052 -0.0943
  904MOL0     H24698   9.052   4.822   3.450  0.5760 -0.7920 -0.1563
  904MOL0     H24699   9.144   4.596   3.460  0.2660 -3.0391 -0.7711
  904MOL0     H24700   9.004   4.527   3.397  1.2884  0.3601 -1.2990
  904MOL0     H24701   9.250   4.810   3.303 -1.5550 -0.0748  0.3055
  904MOL0     H24702   9.276   4.926   3.013 -0.5727 -0.4044 -0.0117
  904MOL0     H24703   9.316   4.794   2.908 -0.6232  0.7963 -0.3420
  904MOL0     H24704   9.535   4.892   3.026 -1.0399  1.2378  1.2066
  904MOL0     H24705   9.468   4.809   3.170 -4.2619 -0.3914 -0.5116
  904MOL0     H24706   9.637   4.652   3.073 -0.0537  0.1518 -0.4495
  904MOL0     H24707   9.479   4.583   3.029  0.2373 -0.8948 -1.1453
  904MOL0     H24708   9.613   4.578   2.840 -1.2439 -0.6619 -1.0128
  904MOL0     H24709   9.485   4.681   2.806  0.8729 -1.4004 -1.0854
  904MOL0     H24710   9.865   4.952   2.776  1.8956 -0.2470 -2.5104
  904MOL0     H24711  10.179   4.977   2.923 -0.1128 -0.8190 -0.4226
  904MOL0     H24712  10.080   5.050   2.803 -1.9860 -1.0125 -1.5796
  904MOL0     H24713  10.210   4.941   2.756  0.2037 -0.9677  0.0857
  904MOL0     H24714  10.431   4.629   3.077  3.0752 -0.7493  1.6716
  904MOL0     H24715  10.585   4.497   3.199 -0.0067 -0.1462 -0.1400
  904MOL0     H24716  10.646   4.060   3.071  1.6230  0.2931 -3.5951
  904MOL0     H24717  10.769   4.179   3.018  1.6015 -2.9447  0.6728
  904MOL0     H24718  10.761   4.012   3.270 -2.1668  0.5647  0.2521
  904MOL0     H24719  10.892   4.032   3.147 -1.4015 -0.5872 -0.7331
  904MOL0     H24720  10.795   4.199   3.370 -4.7330 -1.5584 -3.2706
  904MOL0     H24721  10.881   4.278   3.231  3.4403 -0.8906 -1.7228
  904MOL0     H24722  11.073   4.096   3.282 -0.2103  0.5967 -2.2230
  904MOL0     H24723  10.998   4.075   3.441  0.3453 -2.3417 -2.6129
  904MOL0     H24724  11.020   4.334   3.472  2.4138  3.2282 -0.4828
  904MOL0     H24725  11.158   4.229   3.481 -2.7776 -2.9594  0.4420
  904MOL0     H24726  11.071   4.386   3.238  0.5063 -1.2192 -0.8533
  904MOL0     H24727  11.231   4.298   3.248  2.1863  1.6285  0.2867
  904MOL0     H24728  11.315   4.498   3.323  0.2045  1.8007  2.1288
  904MOL0     H24729  11.243   4.464   3.468 -3.1353 -0.6845  0.8552
  904MOL0     H24730  11.065   4.544   3.474 -1.8400 -0.6793 -0.9865
  904MOL0     H24731  11.055   4.603   3.300  0.2992 -1.1444 -0.0979
  904MOL0     H24732  10.494   4.158   2.957 -0.1023  0.1717  0.2380
  904MOL0     H24733  10.346   4.287   2.823  1.9790 -0.3725 -0.9854
  904MOL0     H24734  10.028   4.507   2.936 -1.4161  0.4967  1.0445
  904MOL0     H24735   9.793   4.564   2.947  0.6870  1.0098  1.4168
  904MOL0     H24736   8.797   5.539   3.667 -0.6259 -1.4232  1.2975
  904MOL0     H24737   8.819   5.700   3.847  1.0522  1.3820 -0.3929
  904MOL0     H24738   8.944   5.960   4.073  2.9200 -0.2864 -0.9955
  904MOL0     H24739   8.891   6.139   4.223  1.1117  3.2273  2.7285
  904MOL0     H24740   9.144   6.292   4.411  0.0813 -1.7363  1.6162
  904MOL0     H24741   9.005   6.316   4.308  1.0848  1.7604  0.0790
  904MOL0     H24742   9.019   6.494   4.463 -1.5134  0.1604 -4.3208
  904MOL0     H24743   8.979   6.389   4.600  0.0566  2.3019  0.8296
  904MOL0     H24744   8.815   6.435   4.338 -2.2458  1.3181 -0.0967
  904MOL0     H24745   8.757   6.346   4.479 -0.7301  1.4028  2.1143
  904MOL0     H24746   8.701   6.598   4.444  1.1311  0.1098 -1.4613
  904MOL0     H24747   8.861   6.636   4.488 -0.7062  0.0761  0.0180
  904MOL0     H24748   8.715   6.523   4.870 -0.2599 -3.3336 -0.6653
  904MOL0     H24749   9.174   5.956   4.508 -0.2714 -3.7359  0.6519
  904MOL0     H24750   9.291   5.679   4.292 -1.2296  2.5128 -2.4081
  904MOL0     H24751   9.351   5.800   4.394 -0.3099  0.4939  1.5602
  904MOL0     H24752   9.227   5.684   4.453  3.4142 -4.8650 -2.8340
  905MOL0     O24753   8.585   5.925   2.132  0.5950 -0.3664  0.6010
  905MOL0     C24754   8.513   6.027   2.120  0.1425 -0.0344 -0.3542
  905MOL0     O24755   8.509   6.118   2.210 -1.0133 -0.4760  0.0112
  905MOL0     C24756   8.595   6.113   2.316  0.1564 -0.3159  0.2337
  905MOL0     C24757   8.728   6.163   2.317  0.2777 -0.3606  0.1617
  905MOL0     C24758   8.816   6.131   2.427  0.4861  1.4612 -0.5875
  905MOL0     C24759   8.773   6.053   2.536  0.1451 -0.0275 -0.2026
  905MOL0     O24760   8.855   6.037   2.649  0.6928  0.3946  0.5312
  905MOL0     C24761   8.881   5.898   2.683  1.4555  0.0078  0.0175
  905MOL0     C24762   9.028   5.866   2.666 -0.1131  0.2311  0.0580
  905MOL0     C24763   9.117   5.979   2.730 -0.0502  1.2669  0.9576
  905MOL0     C24764   9.109   5.972   2.882  0.0485 -0.8362  0.0343
  905MOL0     C24765   9.216   6.050   2.957 -0.4153  0.2142  0.0829
  905MOL0     C24766   9.213   6.201   2.938 -1.1489  0.7287  0.4632
  905MOL0     C24767   9.237   6.276   3.067 -0.2762 -0.3300 -0.6352
  905MOL0     C24768   9.361   6.235   3.152  0.5781  0.7725  0.3600
  905MOL0     N24769   9.484   6.247   3.076  0.4263  0.2624 -1.1197
  905MOL0     C24770   9.575   6.339   3.112  0.9942  0.3763 -0.5955
  905MOL0     C24771   9.675   6.318   3.026  0.0188  0.5656 -0.1533
  905MOL0     C24772   9.804   6.409   3.008  0.3882  0.4220 -0.4945
  905MOL0     C24773   9.933   6.342   3.045  0.0337  0.7707  0.0071
  905MOL0     C24774  10.053   6.440   3.050 -0.4584  0.7649  0.3862
  905MOL0     C24775  10.147   6.411   3.164 -1.0539  0.1446 -0.2841
  905MOL0     O24776  10.273   6.484   3.150  0.2460  0.4348  0.2540
  905MOL0     C24777  10.378   6.433   3.069 -0.3380  0.0045 -0.4462
  905MOL0     C24778  10.497   6.506   3.064 -1.0758 -0.6404  0.3212
  905MOL0     C24779  10.612   6.455   3.010 -0.3696  0.3873 -0.4217
  905MOL0     C24780  10.739   6.532   3.032 -0.1108 -0.1911 -1.2274
  905MOL0     C24781  10.611   6.322   2.956  0.1141 -0.4396  0.0244
  905MOL0     C24782  10.727   6.270   2.889 -0.7301 -0.1406 -0.1040
  905MOL0     O24783  10.816   6.190   2.949  0.0081 -0.4040 -0.0698
  905MOL0     C24784  10.915   6.131   2.882 -0.3366  0.0272 -0.4047
  905MOL0     C24785  11.038   6.198   2.843  0.1808 -0.2680 -0.0143
  905MOL0     C24786  11.140   6.133   2.772  0.0298 -0.1582 -0.6745
  905MOL0     C24787  11.117   5.999   2.753  0.3731 -0.0557  0.2834
  905MOL0     O24788  11.224   5.937   2.687  0.1775 -0.0607  0.4106
  905MOL0     C24789  11.265   5.817   2.748 -0.0928  0.0089  0.4844
  905MOL0     C24790  11.338   5.852   2.880  0.2448 -0.0959  0.3375
  905MOL0     C24791  11.393   5.723   2.954 -0.4641  0.2427  0.0867
  905MOL0     C24792  11.435   5.748   3.104 -0.1095  0.1933  0.9235
  905MOL0     C24793  11.490   5.616   3.158  0.8405 -0.1037 -1.0413
  905MOL0     C24794  11.498   5.609   3.313  0.1246  1.3703 -0.4407
  905MOL0     C24795  11.572   5.730   3.368 -0.1482 -0.4039  0.0045
  905MOL0     C24796  11.636   5.691   3.503  0.1768  0.1283  0.3853
  905MOL0    Cl24797  11.746   5.826   3.551 -0.0195 -0.1747 -0.1564
  905MOL0     C24798  10.999   5.933   2.774  0.1558  0.1250  0.2639
  905MOL0     C24799  10.898   6.000   2.842 -0.1611  0.6216  0.7572
  905MOL0     O24800  10.727   6.296   2.769 -0.2205 -0.4896  0.3146
  905MOL0     C24801  10.488   6.246   2.950  0.2412 -0.1833 -0.1338
  905MOL0     C24802  10.375   6.311   3.004  0.0360 -0.5670 -0.2800
  905MOL0     N24803   9.644   6.208   2.945  0.4587 -0.4186  0.1921
  905MOL0     N24804   9.530   6.164   2.976 -0.2030  0.6297  0.1098
  905MOL0     C24805   8.638   6.006   2.538  0.0190  0.0731  0.4168
  905MOL0     C24806   8.553   6.034   2.423  0.1929 -0.1703 -0.1601
  905MOL0     C24807   8.412   6.035   2.011 -0.8643 -0.7359 -0.0538
  905MOL0     C24808   8.273   6.045   2.041  0.0382 -0.2671  0.1362
  905MOL0     C24809   8.172   6.043   1.950 -0.6497 -0.4344  0.2169
  905MOL0     C24810   8.209   6.029   1.814  0.5789 -0.2223 -0.2387
  905MOL0     O24811   8.113   6.031   1.715 -0.3986 -0.1786  0.1819
  905MOL0     C24812   7.975   6.046   1.751  0.4578 -0.8166 -0.4860
  905MOL0     C24813   7.878   6.017   1.633 -1.0202 -0.2619  0.1483
  905MOL0     C24814   7.732   6.030   1.681 -0.2880  0.7504 -0.0985
  905MOL0     C24815   7.626   6.030   1.571  0.3043 -0.2637 -0.8383
  905MOL0     C24816   7.593   5.890   1.528  0.4342  0.4969  0.4232
  905MOL0     C24817   7.546   5.782   1.500 -0.4584 -0.5153  0.2977
  905MOL0     C24818   8.346   6.009   1.779  0.1953 -0.0213  0.1786
  905MOL0     C24819   8.449   6.020   1.875 -0.2416  0.1138  0.3781
  905MOL0     C24820   8.595   6.005   1.819  0.2665 -0.4098  0.0043
  905MOL0     H24821   8.767   6.224   2.237 -1.0013  0.2173 -0.0466
  905MOL0     H24822   8.918   6.167   2.425  1.6061 -0.8882  3.1768
  905MOL0     H24823   8.821   5.837   2.616  1.4942  2.2451 -2.2146
  905MOL0     H24824   8.847   5.885   2.786  4.0443  1.9628  1.2433
  905MOL0     H24825   9.042   5.768   2.713  0.0914 -0.5203 -1.5190
  905MOL0     H24826   9.050   5.851   2.560  3.7391 -0.1001  0.7513
  905MOL0     H24827   9.222   5.956   2.708 -0.1394  0.2096  1.5529
  905MOL0     H24828   9.092   6.071   2.676 -1.2772  0.9292  0.9223
  905MOL0     H24829   9.014   6.018   2.911  1.7237  2.4796  0.7267
  905MOL0     H24830   9.123   5.869   2.918  0.5268 -1.0770 -0.8182
  905MOL0     H24831   9.309   5.996   2.938 -1.0938 -1.5182  1.4412
  905MOL0     H24832   9.189   6.031   3.061 -1.5329 -0.0924 -0.2488
  905MOL0     H24833   9.289   6.234   2.867 -1.2726 -0.6903 -0.3672
  905MOL0     H24834   9.115   6.225   2.897 -1.4174 -1.3599 -0.2638
  905MOL0     H24835   9.156   6.243   3.133  0.8213  0.3399  1.1292
  905MOL0     H24836   9.218   6.383   3.057 -1.4997 -0.5858 -1.2513
  905MOL0     H24837   9.380   6.306   3.233 -1.6869 -0.3884  2.0524
  905MOL0     H24838   9.353   6.135   3.197 -2.7362  0.1674 -1.2068
  905MOL0     H24839   9.573   6.421   3.184  2.0953  2.1695 -2.5023
  905MOL0     H24840   9.804   6.494   3.076 -1.5588  0.6764 -0.7676
  905MOL0     H24841   9.810   6.436   2.902  2.3750  1.5637 -0.1394
  905MOL0     H24842   9.925   6.295   3.144 -0.8837  0.9266  0.0201
  905MOL0     H24843   9.953   6.254   2.983 -0.5304  0.4274  0.3012
  905MOL0     H24844  10.095   6.438   2.948 -0.3623  1.1263  0.4141
  905MOL0     H24845  10.025   6.545   3.064  1.6085  1.5423 -0.7290
  905MOL0     H24846  10.098   6.436   3.258 -2.5156 -0.0318 -0.9782
  905MOL0     H24847  10.160   6.303   3.176  1.1080  0.4264  0.3823
  905MOL0     H24848  10.498   6.606   3.106 -2.0061  0.3089 -1.7641
  905MOL0     H24849  10.743   6.594   3.122  0.6994  2.7936 -3.1902
  905MOL0     H24850  10.780   6.590   2.950 -1.3070  0.8252 -1.1293
  905MOL0     H24851  10.818   6.458   3.053  0.9530  0.0741 -3.9217
  905MOL0     H24852  11.062   6.303   2.859  0.8477 -0.4110 -0.0433
  905MOL0     H24853  11.231   6.184   2.741 -1.1951  1.6706 -1.4630
  905MOL0     H24854  11.175   5.763   2.781 -0.8295  1.0849  0.2871
  905MOL0     H24855  11.333   5.758   2.686  0.9086  1.0795  0.5273
  905MOL0     H24856  11.421   5.920   2.860 -1.6611  2.3328  0.2469
  905MOL0     H24857  11.260   5.897   2.942 -0.9508  2.3101 -2.7063
  905MOL0     H24858  11.479   5.680   2.903 -0.2769 -0.9140  1.3123
  905MOL0     H24859  11.311   5.651   2.955  0.2887 -0.6296  1.3921
  905MOL0     H24860  11.352   5.783   3.165 -0.0583  1.1256  0.4829
  905MOL0     H24861  11.516   5.822   3.106  1.5943 -1.5956  2.3036
  905MOL0     H24862  11.431   5.528   3.130  2.2716 -1.7537  0.9051
  905MOL0     H24863  11.596   5.620   3.128  0.6847  2.2969 -1.4615
  905MOL0     H24864  11.546   5.515   3.344 -0.6016  0.8550 -0.8543
  905MOL0     H24865  11.396   5.592   3.350  0.2176 -2.2243 -1.3940
  905MOL0     H24866  11.507   5.818   3.367 -3.0474 -2.3253 -3.6404
  905MOL0     H24867  11.659   5.749   3.305  2.0507  1.4779  3.2695
  905MOL0     H24868  11.698   5.601   3.492 -1.2782 -1.0615  1.5421
  905MOL0     H24869  11.553   5.676   3.572  1.2555 -2.1046  1.3080
  905MOL0     H24870  10.982   5.827   2.759  1.0250  0.1064 -0.6916
  905MOL0     H24871  10.799   5.964   2.867 -0.8560  1.3077 -0.8990
  905MOL0     H24872  10.495   6.145   2.911  0.9680 -0.2818  0.2393
  905MOL0     H24873  10.280   6.261   2.995  0.7509 -2.3546  1.3281
  905MOL0     H24874   8.596   5.954   2.623 -0.6668  0.2458  0.1930
  905MOL0     H24875   8.446   6.017   2.416  0.4448 -0.9969 -3.6626
  905MOL0     H24876   8.244   6.047   2.146 -0.5093 -3.4096  0.1511
  905MOL0     H24877   8.070   6.069   1.978 -1.5014 -3.3366  0.1623
  905MOL0     H24878   7.953   5.978   1.834 -0.5359 -1.1014 -0.9607
  905MOL0     H24879   7.972   6.151   1.780  2.2149 -0.3040 -1.9551
  905MOL0     H24880   7.904   5.918   1.595 -0.5140  0.7100 -2.1725
  905MOL0     H24881   7.900   6.095   1.559 -0.4167 -0.9163 -0.3681
  905MOL0     H24882   7.702   5.949   1.749 -0.2332 -0.2719 -1.2557
  905MOL0     H24883   7.723   6.131   1.722  0.0116  1.5296 -1.8750
  905MOL0     H24884   7.675   6.096   1.499  0.9145  0.5769  0.2989
  905MOL0     H24885   7.534   6.079   1.603  0.0885 -0.4064 -1.2459
  905MOL0     H24886   7.508   5.684   1.478  1.2777 -1.3871  0.9629
  905MOL0     H24887   8.352   6.005   1.670 -2.9786  0.4955 -0.1134
  905MOL0     H24888   8.607   6.067   1.729  0.7024 -1.5007 -0.7023
  905MOL0     H24889   8.665   6.035   1.898 -0.5972 -2.3782  1.6019
  905MOL0     H24890   8.610   5.901   1.791 -2.5294 -1.4887  2.0550
  906MOL0     O24891   8.594   7.706   0.134  0.0893  0.6766 -0.0930
  906MOL0     C24892   8.539   7.661   0.034  0.4213  0.5076  0.2966
  906MOL0     O24893   8.574   7.678  -0.099  0.8913  0.0317  0.6293
  906MOL0     C24894   8.666   7.777  -0.124 -0.3082 -0.2023 -0.2576
  906MOL0     C24895   8.660   7.907  -0.078  0.2698  0.1481 -0.5796
  906MOL0     C24896   8.774   7.989  -0.090  0.3492  0.1000  0.2028
  906MOL0     C24897   8.887   7.945  -0.160 -0.0085 -0.2416  0.1838
  906MOL0     O24898   8.987   8.031  -0.200  0.0318 -0.0939 -0.3415
  906MOL0     C24899   8.966   8.166  -0.247 -0.3046 -0.2622 -0.0944
  906MOL0     C24900   9.093   8.205  -0.333  0.5983  0.3983 -0.1425
  906MOL0     C24901   9.224   8.218  -0.255 -0.3082 -0.3339  0.3011
  906MOL0     C24902   9.353   8.262  -0.331 -0.3982  0.7164  0.7354
  906MOL0     C24903   9.474   8.270  -0.238 -0.3760 -0.0017 -0.4256
  906MOL0     C24904   9.609   8.320  -0.285  0.1809 -1.0288  0.3127
  906MOL0     C24905   9.666   8.236  -0.399  0.0265  0.1164  0.2621
  906MOL0     C24906   9.820   8.257  -0.432  0.0768  0.1347 -0.4963
  906MOL0     N24907   9.869   8.190  -0.555  0.7742  0.0525 -0.5927
  906MOL0     C24908   9.853   8.233  -0.683  0.6813  0.0854  0.3330
  906MOL0     C24909   9.934   8.149  -0.754 -0.0554  0.0708 -0.6166
  906MOL0     C24910   9.958   8.172  -0.906  0.8699  0.7176 -0.9141
  906MOL0     C24911   9.847   8.116  -0.980 -0.3876  0.7417  0.2470
  906MOL0     C24912   9.898   8.062  -1.119  0.8783 -0.4808  0.0534
  906MOL0     C24913   9.776   8.018  -1.203 -0.5437 -0.0084 -0.1988
  906MOL0     O24914   9.712   7.906  -1.140  0.0022  0.9760  0.1492
  906MOL0     C24915   9.584   7.877  -1.188  0.9496 -0.2063 -0.6163
  906MOL0     C24916   9.514   7.778  -1.118  0.0403  0.3762  0.1578
  906MOL0     C24917   9.381   7.731  -1.151 -0.3579 -0.3854  0.5477
  906MOL0     C24918   9.328   7.627  -1.055  0.2507  0.5660  0.0292
  906MOL0     C24919   9.316   7.788  -1.270  0.6266 -0.5430 -1.0513
  906MOL0     C24920   9.185   7.740  -1.314  0.0106  0.6077 -0.3725
  906MOL0     O24921   9.125   7.815  -1.413  0.4281  0.0765 -0.1556
  906MOL0     C24922   8.991   7.786  -1.449  0.4233  0.3394 -0.4829
  906MOL0     C24923   8.960   7.681  -1.529  0.0541 -0.3649 -0.0794
  906MOL0     C24924   8.825   7.646  -1.566  0.8906  0.1986 -0.4966
  906MOL0     C24925   8.722   7.722  -1.509 -0.1595 -0.2851 -0.4238
  906MOL0     O24926   8.590   7.682  -1.527 -0.4790 -0.0529  0.1026
  906MOL0     C24927   8.570   7.542  -1.517 -0.1901 -0.0247  0.3936
  906MOL0     C24928   8.522   7.466  -1.649  0.8112  0.2631 -0.4299
  906MOL0     C24929   8.491   7.324  -1.639 -0.2993  0.7848 -0.4567
  906MOL0     C24930   8.335   7.295  -1.621  0.2055  0.4545 -0.0372
  906MOL0     C24931   8.316   7.150  -1.575 -0.8279  1.2018  0.3237
  906MOL0     C24932   8.172   7.090  -1.567  0.2652  0.2092 -1.5393
  906MOL0     C24933   8.076   7.128  -1.683  0.0152  0.6347 -0.9447
  906MOL0     C24934   7.933   7.088  -1.658  0.7331 -0.2595  0.8625
  906MOL0    Cl24935   7.843   7.116  -1.805  0.8117 -0.0549  0.2743
  906MOL0     C24936   8.754   7.834  -1.436  0.1161 -0.2622  0.4015
  906MOL0     C24937   8.892   7.868  -1.413  0.8366 -1.1118 -0.4420
  906MOL0     O24938   9.136   7.646  -1.254  0.5272 -0.2071 -0.0356
  906MOL0     C24939   9.390   7.894  -1.334 -0.0500  0.0670 -0.9709
  906MOL0     C24940   9.518   7.933  -1.298 -0.7380 -0.4248  0.0413
  906MOL0     N24941   9.985   8.051  -0.673  0.2172 -0.1268 -0.4947
  906MOL0     N24942   9.957   8.090  -0.553 -0.4528 -0.4298  0.1156
  906MOL0     C24943   8.879   7.822  -0.226 -0.6945 -0.0593 -0.8791
  906MOL0     C24944   8.773   7.735  -0.198 -1.0715  0.0386 -0.0329
  906MOL0     C24945   8.419   7.565   0.059 -0.2292  0.2587 -0.2996
  906MOL0     C24946   8.355   7.494  -0.048  0.1268 -0.1402  0.1585
  906MOL0     C24947   8.247   7.407  -0.031 -0.7318 -0.1412  0.1071
  906MOL0     C24948   8.198   7.395   0.096  0.1071  0.3747 -0.6004
  906MOL0     O24949   8.079   7.337   0.129  0.1005  0.1362  0.1343
  906MOL0     C24950   8.020   7.235   0.044 -0.4039  0.1227  0.0637
  906MOL0     C24951   7.948   7.285  -0.077 -0.1613 -0.2732  0.3894
  906MOL0     C24952   7.861   7.412  -0.052  0.1475 -0.1179  0.0991
  906MOL0     C24953   7.788   7.454  -0.173 -0.4317  0.3642 -0.7891
  906MOL0     C24954   7.864   7.492  -0.287 -1.1611 -0.9536  0.9989
  906MOL0     C24955   7.939   7.519  -0.379  0.0288  0.3187  0.3320
  906MOL0     C24956   8.253   7.459   0.204 -0.4851 -0.1270  0.0460
  906MOL0     C24957   8.365   7.544   0.188 -0.9589  0.7486 -0.1089
  906MOL0     C24958   8.390   7.617   0.321 -0.1065  0.7493 -1.0314
  906MOL0     H24959   8.578   7.955  -0.026 -0.5436 -1.3066 -0.4735
  906MOL0     H24960   8.763   8.089  -0.049 -0.7460  1.2471 -2.6197
  906MOL0     H24961   8.961   8.230  -0.159 -0.4828 -2.0132  1.2323
  906MOL0     H24962   8.875   8.176  -0.307  0.1359 -1.1545 -0.9454
  906MOL0     H24963   9.099   8.133  -0.415  1.1464 -1.5525  1.5436
  906MOL0     H24964   9.072   8.301  -0.382  1.0081 -0.4526 -2.0622
  906MOL0     H24965   9.205   8.296  -0.181 -2.5009  0.2870 -0.8217
  906MOL0     H24966   9.251   8.123  -0.206  0.8367  0.2800  0.8876
  906MOL0     H24967   9.373   8.191  -0.412  0.5202  0.4440  1.1898
  906MOL0     H24968   9.342   8.359  -0.380 -1.2262  0.2406 -0.0523
  906MOL0     H24969   9.495   8.170  -0.199 -0.1194  0.4906  0.7163
  906MOL0     H24970   9.445   8.325  -0.148  2.8018 -1.1839  1.4958
  906MOL0     H24971   9.599   8.422  -0.323  0.8879 -1.2962 -0.6180
  906MOL0     H24972   9.676   8.325  -0.198 -0.5077  0.6629  0.7979
  906MOL0     H24973   9.616   8.268  -0.491  4.3203  1.6509 -1.8292
  906MOL0     H24974   9.650   8.129  -0.380 -2.6541 -0.4223 -3.8070
  906MOL0     H24975   9.842   8.364  -0.429  0.1542  0.1403 -1.1469
  906MOL0     H24976   9.864   8.209  -0.344 -0.7903  0.2262 -0.0044
  906MOL0     H24977   9.809   8.321  -0.729 -2.7045 -0.7417  1.7311
  906MOL0     H24978  10.055   8.125  -0.924  0.5837 -0.8566  1.3303
  906MOL0     H24979   9.965   8.280  -0.924 -4.5665  2.0453  2.6112
  906MOL0     H24980   9.804   8.034  -0.921 -0.5938  1.7787  1.5724
  906MOL0     H24981   9.761   8.183  -0.986 -1.0868 -0.1674 -0.1395
  906MOL0     H24982   9.953   8.145  -1.164 -1.0863 -0.3070 -2.1994
  906MOL0     H24983   9.971   7.983  -1.104  2.5181  0.0872 -3.7541
  906MOL0     H24984   9.706   8.102  -1.205  1.1895  1.6510 -4.6449
  906MOL0     H24985   9.808   7.992  -1.305 -2.2416 -1.2675 -0.4542
  906MOL0     H24986   9.571   7.721  -1.046  0.3086 -1.0978 -1.1398
  906MOL0     H24987   9.314   7.537  -1.117 -1.2055  2.3445 -2.4113
  906MOL0     H24988   9.226   7.660  -1.033 -0.3119  0.7986 -2.5505
  906MOL0     H24989   9.387   7.621  -0.964 -1.4359  1.0587  1.2133
  906MOL0     H24990   9.036   7.616  -1.571  0.7210  1.1025 -1.2490
  906MOL0     H24991   8.811   7.562  -1.633 -2.4304  0.0025  0.2614
  906MOL0     H24992   8.654   7.487  -1.474  0.0424 -0.0172 -0.0452
  906MOL0     H24993   8.497   7.528  -1.437 -2.0377 -2.3001 -1.5123
  906MOL0     H24994   8.434   7.520  -1.685 -0.0147  0.8989  2.3436
  906MOL0     H24995   8.598   7.468  -1.728  0.1644  0.5717 -1.0553
  906MOL0     H24996   8.545   7.284  -1.553 -2.8155  1.3711  1.5186
  906MOL0     H24997   8.520   7.282  -1.736 -2.6702 -1.3004 -0.3565
  906MOL0     H24998   8.279   7.304  -1.715 -0.6830  0.3078  0.4668
  906MOL0     H24999   8.288   7.365  -1.551  2.1464  0.7241  1.0670
  906MOL0     H25000   8.362   7.088  -1.653 -0.1456  0.4598  1.2951
  906MOL0     H25001   8.378   7.132  -1.487 -2.0108 -0.9557  0.7637
  906MOL0     H25002   8.137   7.120  -1.468  1.5949  0.4357 -1.1216
  906MOL0     H25003   8.181   6.981  -1.564  2.3065  0.3335 -1.8809
  906MOL0     H25004   8.101   7.072  -1.774  0.0590 -2.3490  0.7913
  906MOL0     H25005   8.086   7.236  -1.701  1.9402  0.5754 -0.4580
  906MOL0     H25006   7.881   7.135  -1.574 -0.2645 -1.8774  1.1884
  906MOL0     H25007   7.925   6.980  -1.647 -1.0219 -1.2119 -5.3670
  906MOL0     H25008   8.679   7.904  -1.401  1.8427  1.8058  0.1493
  906MOL0     H25009   8.904   7.957  -1.352 -1.2332  0.8555 -2.6836
  906MOL0     H25010   9.339   7.946  -1.414 -0.0537  1.6491 -0.0026
  906MOL0     H25011   9.573   8.000  -1.364  0.5913 -2.1775 -0.7001
  906MOL0     H25012   8.966   7.795  -0.285 -0.8848 -0.5329 -0.9457
  906MOL0     H25013   8.776   7.632  -0.235 -2.6132 -1.0464  2.6344
  906MOL0     H25014   8.384   7.508  -0.152 -1.5041 -0.1849 -0.3412
  906MOL0     H25015   8.198   7.357  -0.114 -0.7648 -0.0498  0.0717
  906MOL0     H25016   8.107   7.172   0.023  1.3162  2.1094  0.9352
  906MOL0     H25017   7.942   7.171   0.088 -0.3509  1.9462  3.1063
  906MOL0     H25018   7.887   7.197  -0.100  2.0175 -1.5314 -0.9153
  906MOL0     H25019   8.021   7.307  -0.155 -1.7681  0.5505 -0.9419
  906MOL0     H25020   7.783   7.392   0.022 -2.7405  2.3757 -2.0627
  906MOL0     H25021   7.927   7.492  -0.017  0.4747 -0.2770 -0.1455
  906MOL0     H25022   7.714   7.534  -0.167 -1.5314 -0.6254 -0.8546
  906MOL0     H25023   7.738   7.362  -0.203  0.1801 -0.5974  0.9986
  906MOL0     H25024   8.000   7.554  -0.460  0.9757 -3.1895 -0.6815
  906MOL0     H25025   8.204   7.455   0.301 -2.9896  1.8907 -0.9931
  906MOL0     H25026   8.489   7.590   0.357 -1.6494 -1.2610  2.1562
  906MOL0     H25027   8.382   7.727   0.318  1.0934  0.9297  0.9524
  906MOL0     H25028   8.322   7.583   0.399  0.6952 -0.5797 -0.8910
  907MOL0     O25029   4.870   8.408   0.452 -0.6273  0.4282  0.1610
  907MOL0     C25030   4.814   8.510   0.416 -0.3482  0.4147  1.0240
  907MOL0     O25031   4.862   8.608   0.321  0.0507 -0.0947 -0.5077
  907MOL0     C25032   4.993   8.621   0.296  0.4657 -0.8878 -0.2982
  907MOL0     C25033   5.036   8.747   0.282  0.1239  0.1123  0.2881
  907MOL0     C25034   5.163   8.773   0.230  0.4906  0.1871 -0.5681
  907MOL0     C25035   5.250   8.667   0.194  0.2314 -0.3042  1.1201
  907MOL0     O25036   5.370   8.703   0.135 -0.1754  0.5926  0.9911
  907MOL0     C25037   5.465   8.601   0.094  0.5900  0.6638 -0.2590
  907MOL0     C25038   5.529   8.544   0.228 -0.6511  0.4022 -0.5746
  907MOL0     C25039   5.623   8.439   0.185  0.2166 -0.5069  0.2954
  907MOL0     C25040   5.715   8.393   0.296 -0.7432 -0.3136 -0.0634
  907MOL0     C25041   5.811   8.506   0.342 -1.9582 -0.8221 -0.8056
  907MOL0     C25042   5.920   8.447   0.449 -0.1450 -0.0120  0.4036
  907MOL0     C25043   5.978   8.309   0.420  0.0326 -0.2723 -0.7074
  907MOL0     C25044   6.099   8.287   0.507 -0.3306 -0.2636 -1.2224
  907MOL0     N25045   6.216   8.376   0.475 -0.5380  0.3094  0.1922
  907MOL0     C25046   6.332   8.332   0.416 -0.1190 -0.5357 -0.7979
  907MOL0     C25047   6.417   8.439   0.434 -0.3054 -0.2141  0.2159
  907MOL0     C25048   6.558   8.451   0.387  0.3351  0.4491 -0.8548
  907MOL0     C25049   6.655   8.356   0.470  0.9515 -0.6510 -0.2357
  907MOL0     C25050   6.788   8.421   0.486  0.4798  1.2284  0.4839
  907MOL0     C25051   6.890   8.312   0.527  0.7896  0.2240 -0.4890
  907MOL0     O25052   7.012   8.388   0.514 -0.2446 -0.4438 -0.1189
  907MOL0     C25053   7.127   8.346   0.585 -0.3365 -0.3590 -0.3320
  907MOL0     C25054   7.244   8.425   0.567 -0.6159 -0.3440  0.3045
  907MOL0     C25055   7.368   8.382   0.619  0.0581  0.0587  0.1513
  907MOL0     C25056   7.492   8.463   0.572 -0.1572 -0.9608 -0.8408
  907MOL0     C25057   7.384   8.271   0.706  0.2567  0.0699 -0.2459
  907MOL0     C25058   7.512   8.226   0.768 -0.0919  0.1243  1.3335
  907MOL0     O25059   7.525   8.093   0.790  0.5624  0.4519 -0.0984
  907MOL0     C25060   7.645   8.055   0.833 -0.8944 -0.4281  0.0793
  907MOL0     C25061   7.652   8.035   0.972  0.4846  0.5648 -0.8899
  907MOL0     C25062   7.775   7.992   1.035  0.0257  0.5866  0.2742
  907MOL0     C25063   7.887   7.970   0.954 -0.1576  0.3529  0.0675
  907MOL0     O25064   8.010   7.926   0.994  0.0235 -0.8061 -0.4809
  907MOL0     C25065   8.024   7.884   1.128 -0.6535  0.8928  0.3859
  907MOL0     C25066   8.157   7.822   1.165  0.4218  0.1527  0.2236
  907MOL0     C25067   8.290   7.894   1.138 -0.9569  1.1253 -0.6368
  907MOL0     C25068   8.404   7.793   1.168 -0.2974  0.0944 -0.4906
  907MOL0     C25069   8.529   7.835   1.094 -0.3762  0.4851 -0.7807
  907MOL0     C25070   8.658   7.751   1.126 -0.5152  0.4828  0.1349
  907MOL0     C25071   8.660   7.608   1.068  0.5507  0.3051  0.4792
  907MOL0     C25072   8.626   7.505   1.172 -0.2313 -0.0481 -1.0956
  907MOL0    Cl25073   8.673   7.342   1.118 -0.0759  0.6172  0.0492
  907MOL0     C25074   7.884   7.997   0.820  0.1413  0.5008 -0.2455
  907MOL0     C25075   7.764   8.038   0.758 -0.1079  0.2518  1.1719
  907MOL0     O25076   7.593   8.317   0.794 -0.6970  0.5983 -0.2712
  907MOL0     C25077   7.269   8.198   0.731  0.4637  0.1011  0.0427
  907MOL0     C25078   7.141   8.235   0.673 -0.2791 -0.9210  0.3932
  907MOL0     N25079   6.361   8.546   0.502  0.8256 -0.3102  0.2166
  907MOL0     N25080   6.243   8.500   0.532 -0.1166  1.4440 -0.1297
  907MOL0     C25081   5.209   8.537   0.218 -0.1438  0.2535  0.6113
  907MOL0     C25082   5.085   8.512   0.280 -0.1112  1.0459 -0.4375
  907MOL0     C25083   4.676   8.515   0.469  1.3569  0.0373  0.2652
  907MOL0     C25084   4.602   8.398   0.482 -0.5412  0.4628 -0.2796
  907MOL0     C25085   4.463   8.395   0.518  0.2302 -0.3405 -0.2213
  907MOL0     C25086   4.396   8.513   0.523 -0.0503  0.0518 -0.5643
  907MOL0     O25087   4.264   8.505   0.544  1.0926 -0.1903 -0.0745
  907MOL0     C25088   4.187   8.619   0.518  0.7496  0.0514  0.0622
  907MOL0     C25089   4.037   8.596   0.545 -0.7887  0.7606  0.2270
  907MOL0     C25090   3.940   8.696   0.498  1.1265 -0.1483  0.4163
  907MOL0     C25091   3.792   8.643   0.517  0.2127 -0.5276  0.3487
  907MOL0     C25092   3.766   8.654   0.657 -0.6889 -0.7889  0.8212
  907MOL0     C25093   3.736   8.674   0.775  0.0903 -0.4998 -1.0087
  907MOL0     C25094   4.469   8.635   0.500  0.5111  0.5738  0.8817
  907MOL0     C25095   4.608   8.637   0.478 -0.5583 -0.4784 -0.0475
  907MOL0     C25096   4.686   8.767   0.465  0.1553  0.0848  0.6569
  907MOL0     H25097   4.961   8.826   0.285  0.2757  0.4589 -2.5628
  907MOL0     H25098   5.194   8.876   0.213  0.6961  0.7972  2.8733
  907MOL0     H25099   5.542   8.646   0.031 -0.7382  3.0221 -0.3031
  907MOL0     H25100   5.406   8.529   0.036  0.5632 -1.2401  1.9934
  907MOL0     H25101   5.578   8.630   0.276 -1.8623  0.9969 -0.3421
  907MOL0     H25102   5.456   8.493   0.292 -1.6348 -1.7350 -3.2476
  907MOL0     H25103   5.566   8.348   0.162 -1.8069  0.8730 -0.4874
  907MOL0     H25104   5.677   8.466   0.094 -1.3811  2.8420  0.2055
  907MOL0     H25105   5.656   8.363   0.382 -0.6398 -0.6806 -0.1158
  907MOL0     H25106   5.770   8.305   0.259 -4.2317 -2.2719 -1.0778
  907MOL0     H25107   5.769   8.593   0.393  1.6106  2.4723 -2.9286
  907MOL0     H25108   5.861   8.543   0.252  1.3011 -0.3480  1.0492
  907MOL0     H25109   6.002   8.519   0.442  0.5707 -0.9614 -2.2422
  907MOL0     H25110   5.870   8.446   0.547 -2.3495  3.6063 -0.4944
  907MOL0     H25111   6.015   8.297   0.318  0.6659  0.3182 -0.5589
  907MOL0     H25112   5.916   8.226   0.452 -1.6210  1.0577 -0.3191
  907MOL0     H25113   6.073   8.301   0.612  1.6862 -0.1841 -0.7060
  907MOL0     H25114   6.138   8.186   0.493  1.5708  0.5123 -1.7940
  907MOL0     H25115   6.351   8.244   0.355  0.6120  0.7497 -2.4953
  907MOL0     H25116   6.599   8.553   0.391 -2.5867  1.7326  3.4015
  907MOL0     H25117   6.567   8.420   0.283  1.9274  0.4726 -0.7519
  907MOL0     H25118   6.612   8.339   0.569  0.6138 -2.1203 -0.6089
  907MOL0     H25119   6.655   8.260   0.418  0.7198 -0.8222  0.0747
  907MOL0     H25120   6.822   8.472   0.395 -1.2724  0.8685 -0.4120
  907MOL0     H25121   6.785   8.496   0.565  5.0001  2.0090  0.2082
  907MOL0     H25122   6.876   8.271   0.627  1.9687 -0.2694 -0.5022
  907MOL0     H25123   6.893   8.232   0.452 -0.1968  0.9190 -1.3024
  907MOL0     H25124   7.227   8.511   0.505  0.1002  1.1016  2.0238
  907MOL0     H25125   7.473   8.520   0.481 -1.7700 -0.1057  0.0030
  907MOL0     H25126   7.574   8.392   0.556 -0.8714 -1.5001 -2.2717
  907MOL0     H25127   7.517   8.539   0.646  0.9263 -2.0737 -0.0241
  907MOL0     H25128   7.564   8.062   1.027  0.4057  1.5480 -1.4739
  907MOL0     H25129   7.793   7.993   1.142  2.9443  1.2427 -0.1243
  907MOL0     H25130   7.999   7.978   1.179  0.2528  0.8583  0.9023
  907MOL0     H25131   7.949   7.805   1.140  0.6297 -0.9669 -2.7746
  907MOL0     H25132   8.150   7.805   1.273 -2.3347  0.9244  0.2419
  907MOL0     H25133   8.158   7.723   1.119  0.2659 -0.2093  0.9873
  907MOL0     H25134   8.300   7.974   1.211 -0.3873 -1.5947  2.5525
  907MOL0     H25135   8.303   7.933   1.037 -0.9017 -1.9948 -1.9468
  907MOL0     H25136   8.376   7.688   1.151 -0.8300  0.0398  0.6486
  907MOL0     H25137   8.420   7.796   1.276 -0.6736  1.8116 -0.4598
  907MOL0     H25138   8.508   7.831   0.987  0.8670 -0.8648 -1.0005
  907MOL0     H25139   8.543   7.941   1.116  2.2002  0.6813 -2.9000
  907MOL0     H25140   8.692   7.754   1.229  4.2667  1.5959 -1.2253
  907MOL0     H25141   8.736   7.800   1.067  1.2837 -0.1673  1.8823
  907MOL0     H25142   8.757   7.574   1.031 -0.5170 -0.9015 -1.3798
  907MOL0     H25143   8.607   7.592   0.974  3.5708 -0.8700 -1.1355
  907MOL0     H25144   8.519   7.515   1.194 -0.0604  1.1106 -0.7235
  907MOL0     H25145   8.691   7.525   1.257  1.4244  0.2643 -2.3736
  907MOL0     H25146   7.975   7.990   0.762  0.6334  0.1135  0.5527
  907MOL0     H25147   7.772   8.069   0.654  0.1377 -1.6172  0.5964
  907MOL0     H25148   7.273   8.109   0.793 -1.3135 -0.2998 -0.3538
  907MOL0     H25149   7.056   8.170   0.688 -1.2066  0.3375  0.7317
  907MOL0     H25150   5.268   8.447   0.204 -0.6649 -0.2702  1.6849
  907MOL0     H25151   5.053   8.410   0.299 -1.8885  1.3454 -1.6331
  907MOL0     H25152   4.655   8.304   0.470 -1.5153 -0.0550 -0.6562
  907MOL0     H25153   4.432   8.294   0.545  2.1962 -0.5094  1.6683
  907MOL0     H25154   4.223   8.691   0.592  0.8803  0.8479 -0.7601
  907MOL0     H25155   4.191   8.665   0.419 -2.1677  1.2853  0.4129
  907MOL0     H25156   4.033   8.585   0.654  0.3633  1.4440  0.3502
  907MOL0     H25157   4.012   8.505   0.490 -0.4614  1.3324 -0.9050
  907MOL0     H25158   3.964   8.780   0.564  5.2178 -0.2305 -0.7199
  907MOL0     H25159   3.958   8.715   0.392  2.8843 -2.8873  0.1125
  907MOL0     H25160   3.786   8.537   0.488 -1.1857  0.2904 -2.8051
  907MOL0     H25161   3.714   8.694   0.461 -2.2407 -0.1421  3.7974
  907MOL0     H25162   3.705   8.697   0.875  4.7542  1.8181  0.1970
  907MOL0     H25163   4.415   8.729   0.501  1.0617  0.8949  1.9170
  907MOL0     H25164   4.793   8.749   0.478  0.4591  0.6276 -0.8368
  907MOL0     H25165   4.676   8.818   0.368  1.4504 -0.6480  0.1144
  907MOL0     H25166   4.669   8.832   0.550  1.4433  1.2802  0.0472
  908MOL0     O25167   3.234   5.551   7.346  0.5694 -0.0035  0.5603
  908MOL0     C25168   3.229   5.486   7.238  0.0165 -0.0653  0.0794
  908MOL0     O25169   3.334   5.479   7.141 -0.6831 -0.6881 -0.2034
  908MOL0     C25170   3.445   5.574   7.141  0.1020 -0.4087  0.8605
  908MOL0     C25171   3.491   5.652   7.033  0.6393  0.2864  0.2323
  908MOL0     C25172   3.605   5.739   7.050 -0.1746  0.2774  0.2195
  908MOL0     C25173   3.690   5.736   7.165  0.1022  0.5987  0.0404
  908MOL0     O25174   3.808   5.797   7.198 -0.8042 -0.0097  0.4703
  908MOL0     C25175   3.921   5.726   7.150 -0.1641 -0.3214  0.6631
  908MOL0     C25176   4.048   5.786   7.221 -0.2495 -0.4083  0.8336
  908MOL0     C25177   4.170   5.730   7.159  0.3575 -0.2711 -0.3362
  908MOL0     C25178   4.297   5.787   7.214  0.1234  0.3005 -0.4670
  908MOL0     C25179   4.417   5.734   7.130  1.0922  0.3094  0.4271
  908MOL0     C25180   4.540   5.806   7.178  1.0960  0.4582 -0.2911
  908MOL0     C25181   4.564   5.784   7.330  0.0235 -0.1046  0.3255
  908MOL0     C25182   4.694   5.858   7.371 -0.0380 -0.3967 -0.2407
  908MOL0     N25183   4.760   5.799   7.486  0.5405 -0.7638 -0.3891
  908MOL0     C25184   4.841   5.689   7.481 -0.5264  0.7986  0.3899
  908MOL0     C25185   4.895   5.668   7.603 -0.0411 -0.0892  0.2283
  908MOL0     C25186   4.974   5.550   7.639 -0.6102 -0.2670 -0.1102
  908MOL0     C25187   5.115   5.586   7.693  0.0126  0.0446 -0.7523
  908MOL0     C25188   5.116   5.631   7.843  0.8567  0.2895  0.5743
  908MOL0     C25189   5.258   5.632   7.893 -0.4179 -0.1363 -0.5584
  908MOL0     O25190   5.258   5.681   8.030  0.0113  0.4078 -0.7415
  908MOL0     C25191   5.375   5.681   8.102  0.9330  0.0484 -0.9124
  908MOL0     C25192   5.374   5.736   8.231  0.0341 -0.0356  0.1468
  908MOL0     C25193   5.489   5.732   8.310 -1.0905  0.7679 -1.3073
  908MOL0     C25194   5.477   5.801   8.446 -0.1370 -0.5853 -0.0582
  908MOL0     C25195   5.609   5.672   8.259 -0.2276  0.0189 -0.5353
  908MOL0     C25196   5.732   5.663   8.348  0.3186 -0.1813 -0.3235
  908MOL0     O25197   5.826   5.584   8.314 -0.0886  0.6317  0.1167
  908MOL0     C25198   5.955   5.596   8.359 -0.3453  0.2471  0.5539
  908MOL0     C25199   6.033   5.480   8.349  0.3755  0.7201 -0.8418
  908MOL0     C25200   6.167   5.483   8.398  0.8211  0.0051 -0.2354
  908MOL0     C25201   6.225   5.600   8.453  1.2474 -0.6729  0.3312
  908MOL0     O25202   6.348   5.622   8.516  0.1629  0.8682 -0.6706
  908MOL0     C25203   6.416   5.498   8.544  0.3007 -0.0932  0.1929
  908MOL0     C25204   6.525   5.510   8.657  0.0512  0.8580 -0.8254
  908MOL0     C25205   6.650   5.584   8.617  0.6602 -0.2542 -0.0956
  908MOL0     C25206   6.753   5.556   8.721  0.6779  0.2546 -1.1826
  908MOL0     C25207   6.872   5.651   8.694 -1.0586  0.4018  0.1062
  908MOL0     C25208   6.859   5.802   8.726  0.4058 -0.2053 -0.3906
  908MOL0     C25209   7.007   5.858   8.755 -0.0048  0.2960 -0.5160
  908MOL0     C25210   7.017   6.006   8.787 -0.0305  0.3417 -1.0979
  908MOL0    Cl25211   6.940   6.038   8.946  0.3205 -0.4022  0.1491
  908MOL0     C25212   6.143   5.717   8.460 -0.3417  0.3925 -0.7134
  908MOL0     C25213   6.014   5.711   8.412  0.5546 -0.4794  0.4140
  908MOL0     O25214   5.740   5.742   8.441  0.3244 -0.4352  0.1069
  908MOL0     C25215   5.607   5.639   8.126 -0.6552 -0.0765 -0.6253
  908MOL0     C25216   5.494   5.631   8.046  0.3988 -0.0433  0.4301
  908MOL0     N25217   4.844   5.759   7.682 -0.3178 -0.7590 -0.2754
  908MOL0     N25218   4.758   5.837   7.617 -0.3636  0.8605  0.7953
  908MOL0     C25219   3.646   5.657   7.267  0.4434  0.3966 -0.4687
  908MOL0     C25220   3.529   5.575   7.253 -0.3026  0.1070 -0.3352
  908MOL0     C25221   3.106   5.413   7.205  0.7846 -0.9530 -0.0099
  908MOL0     C25222   3.085   5.377   7.066  0.8141  0.2209  0.0414
  908MOL0     C25223   2.983   5.293   7.026 -0.5111 -0.1215 -0.0431
  908MOL0     C25224   2.899   5.239   7.125  0.3671  0.5904 -0.7144
  908MOL0     O25225   2.797   5.144   7.098 -0.8420  0.3036  0.0692
  908MOL0     C25226   2.764   5.129   6.962 -0.0425  0.7375  0.1052
  908MOL0     C25227   2.638   5.041   6.947 -0.1790  0.2053 -0.4658
  908MOL0     C25228   2.646   4.889   6.972  0.6516 -0.1219 -0.0181
  908MOL0     C25229   2.705   4.850   7.102 -0.8434 -0.0153 -0.0318
  908MOL0     C25230   2.692   4.711   7.140 -0.1395 -0.8043 -0.5386
  908MOL0     C25231   2.682   4.598   7.189  0.2281 -0.2234  0.2340
  908MOL0     C25232   2.909   5.281   7.258  0.9358 -0.8820  0.2490
  908MOL0     C25233   3.015   5.365   7.299 -0.3115 -0.2599 -0.7286
  908MOL0     C25234   3.020   5.392   7.453 -0.0510  0.2374  0.1865
  908MOL0     H25235   3.423   5.651   6.949 -0.9518 -1.5773  1.4566
  908MOL0     H25236   3.638   5.787   6.958 -0.1712 -1.3591 -0.6686
  908MOL0     H25237   3.937   5.730   7.042  0.8124 -0.3270  0.7959
  908MOL0     H25238   3.908   5.621   7.175  0.4731 -0.6968 -0.5146
  908MOL0     H25239   4.049   5.895   7.210  2.2686 -0.4628 -0.2402
  908MOL0     H25240   4.062   5.766   7.328  2.4489  3.5397  1.4262
  908MOL0     H25241   4.175   5.621   7.164  0.7991 -0.1777  2.6835
  908MOL0     H25242   4.167   5.758   7.053  0.2063  3.5558  0.5475
  908MOL0     H25243   4.293   5.896   7.204 -0.1152  0.3082 -0.3049
  908MOL0     H25244   4.297   5.755   7.319  0.7213  0.4495 -0.4172
  908MOL0     H25245   4.403   5.737   7.021 -1.7579 -0.5482  0.6824
  908MOL0     H25246   4.432   5.630   7.158 -2.1224  0.1494  2.0243
  908MOL0     H25247   4.621   5.772   7.112 -2.0643 -1.9786 -3.3507
  908MOL0     H25248   4.528   5.914   7.163 -2.8990  0.2502  0.3498
  908MOL0     H25249   4.588   5.680   7.355 -2.1542 -0.3764  1.5433
  908MOL0     H25250   4.482   5.816   7.395 -1.7034 -1.1694 -1.2155
  908MOL0     H25251   4.762   5.872   7.286 -1.0174 -0.2208 -1.0113
  908MOL0     H25252   4.667   5.959   7.403 -3.9388 -0.5835 -2.3638
  908MOL0     H25253   4.851   5.632   7.389  0.3304  1.6646 -0.0753
  908MOL0     H25254   4.974   5.499   7.542  2.6953  0.7773 -0.7651
  908MOL0     H25255   4.924   5.479   7.706  0.5847 -0.0613  1.0343
  908MOL0     H25256   5.187   5.505   7.676  0.4677  0.9117 -3.5123
  908MOL0     H25257   5.154   5.668   7.632  1.9333 -0.0234  0.2798
  908MOL0     H25258   5.069   5.729   7.848 -1.1152 -0.5352 -0.6866
  908MOL0     H25259   5.058   5.561   7.905 -1.2197  2.4428  1.2190
  908MOL0     H25260   5.294   5.529   7.886  1.0606  0.2359  0.8624
  908MOL0     H25261   5.324   5.690   7.828 -2.5316  1.6441 -1.2325
  908MOL0     H25262   5.272   5.755   8.262  0.2863 -0.9699  1.6222
  908MOL0     H25263   5.496   5.722   8.519  1.7998 -1.1174 -1.0805
  908MOL0     H25264   5.376   5.843   8.458  0.4422  1.9505 -2.7787
  908MOL0     H25265   5.545   5.886   8.456 -1.9611  0.8365  1.2212
  908MOL0     H25266   5.993   5.391   8.300 -1.3349  0.9483  0.0468
  908MOL0     H25267   6.221   5.389   8.397  0.4299 -0.2286 -1.8882
  908MOL0     H25268   6.347   5.419   8.577 -0.6678  0.0625 -1.3644
  908MOL0     H25269   6.464   5.473   8.449  0.4261  3.0763 -0.6559
  908MOL0     H25270   6.490   5.558   8.748  2.0664  1.3573 -0.2758
  908MOL0     H25271   6.552   5.405   8.670 -1.8726  0.4591  0.4397
  908MOL0     H25272   6.625   5.690   8.616 -1.5804 -0.7130 -1.5183
  908MOL0     H25273   6.683   5.550   8.518  1.1792 -1.3504  0.4300
  908MOL0     H25274   6.787   5.452   8.725  2.6915  0.8714 -1.1739
  908MOL0     H25275   6.696   5.568   8.814 -1.8661 -1.3870 -2.4208
  908MOL0     H25276   6.953   5.610   8.755 -0.3523 -0.1298 -1.1438
  908MOL0     H25277   6.897   5.651   8.587 -1.0150 -1.6927  0.0663
  908MOL0     H25278   6.794   5.817   8.813  1.8011  0.0677  0.6267
  908MOL0     H25279   6.808   5.845   8.639  0.6757  2.1355  0.5405
  908MOL0     H25280   7.071   5.839   8.668 -0.2420  0.7849 -0.8063
  908MOL0     H25281   7.055   5.815   8.843 -0.1704 -1.7417 -1.3684
  908MOL0     H25282   6.966   6.068   8.713 -0.4031  3.3652  1.4550
  908MOL0     H25283   7.121   6.038   8.797 -0.2926  1.3174 -1.3696
  908MOL0     H25284   6.165   5.812   8.508 -2.9064 -0.5389  2.7752
  908MOL0     H25285   5.972   5.809   8.397 -0.7465 -0.1778  4.6405
  908MOL0     H25286   5.700   5.630   8.071  1.6949  2.1750  2.6620
  908MOL0     H25287   5.502   5.600   7.942 -3.9522 -2.3190  0.5380
  908MOL0     H25288   3.707   5.652   7.357 -2.2560 -0.8153  1.4151
  908MOL0     H25289   3.500   5.514   7.338  1.4548 -1.0586 -0.5345
  908MOL0     H25290   3.153   5.416   6.991  0.1874 -0.8042 -1.0884
  908MOL0     H25291   2.977   5.273   6.919  1.4703  0.3189 -0.2820
  908MOL0     H25292   2.746   5.223   6.909  3.5943 -0.4674 -3.8532
  908MOL0     H25293   2.847   5.092   6.901 -1.0204  3.0020 -2.8256
  908MOL0     H25294   2.609   5.052   6.842  4.2045 -3.7546 -2.4576
  908MOL0     H25295   2.564   5.084   7.015  0.2944 -2.1563  1.6981
  908MOL0     H25296   2.541   4.858   6.967  0.0260  1.9553 -1.1361
  908MOL0     H25297   2.700   4.836   6.893 -0.4530  2.5381 -2.7831
  908MOL0     H25298   2.663   4.919   7.176  0.7866  0.4219  0.5273
  908MOL0     H25299   2.812   4.870   7.112 -0.7647 -0.4212 -0.0429
  908MOL0     H25300   2.673   4.505   7.241 -1.0305  0.3473  1.0927
  908MOL0     H25301   2.830   5.251   7.325  0.4733  0.0851  0.1495
  908MOL0     H25302   3.012   5.499   7.476  2.6151  0.7075 -0.7221
  908MOL0     H25303   2.947   5.330   7.506  0.7830 -0.6167  0.3401
  908MOL0     H25304   3.117   5.361   7.491 -0.6068  1.2178  2.5719
  909MOL0     O25305   6.882   1.394   6.484  0.2064 -0.0689  0.2565
  909MOL0     C25306   6.883   1.460   6.581 -0.4618 -0.5797 -0.5162
  909MOL0     O25307   6.997   1.492   6.657 -0.6100  0.1285  0.5219
  909MOL0     C25308   7.119   1.443   6.628  0.6742  0.3527  0.2827
  909MOL0     C25309   7.160   1.402   6.498  1.2173  0.0093 -0.1281
  909MOL0     C25310   7.291   1.359   6.477 -0.2225 -0.8081  0.2044
  909MOL0     C25311   7.396   1.352   6.568 -0.0905 -0.0515 -0.4388
  909MOL0     O25312   7.519   1.305   6.532 -0.6497 -0.0195  0.5969
  909MOL0     C25313   7.618   1.293   6.634 -0.1197 -0.6294 -0.7426
  909MOL0     C25314   7.746   1.212   6.595 -0.3107  0.5336 -0.5428
  909MOL0     C25315   7.830   1.276   6.478 -0.0162 -0.9011  0.5308
  909MOL0     C25316   7.905   1.167   6.400 -0.7219 -0.1528  0.1866
  909MOL0     C25317   7.984   1.236   6.281 -0.1689  0.5563  0.4116
  909MOL0     C25318   8.041   1.128   6.193 -0.7087  0.4582 -0.1315
  909MOL0     C25319   8.134   1.183   6.078 -0.3495 -0.2019 -0.1737
  909MOL0     C25320   8.165   1.062   5.996  0.2065 -0.7383  0.1944
  909MOL0     N25321   8.289   1.085   5.924  0.5203 -0.8503 -0.5077
  909MOL0     C25322   8.304   1.159   5.812 -0.6347  0.1568  0.8452
  909MOL0     C25323   8.428   1.131   5.765 -0.6700 -0.8555  0.1885
  909MOL0     C25324   8.480   1.169   5.623  1.0295  0.0534 -0.7884
  909MOL0     C25325   8.604   1.256   5.633 -0.3671 -0.4236  0.0270
  909MOL0     C25326   8.656   1.278   5.490 -0.1453 -0.1511 -0.5013
  909MOL0     C25327   8.719   1.157   5.422 -1.5049  0.2553  0.0287
  909MOL0     O25328   8.824   1.102   5.509  0.0809  0.7357 -0.0267
  909MOL0     C25329   8.942   1.070   5.469 -0.2375  0.9460 -0.3783
  909MOL0     C25330   8.957   0.995   5.357 -0.1221  0.3087 -0.3488
  909MOL0     C25331   9.087   0.968   5.312  0.2943  0.0913 -0.2031
  909MOL0     C25332   9.106   0.880   5.189 -0.1498 -0.3661  0.6121
  909MOL0     C25333   9.206   1.023   5.374 -0.0253 -0.1967  0.4418
  909MOL0     C25334   9.345   1.018   5.332  0.9950  0.6310  0.5051
  909MOL0     O25335   9.436   1.017   5.436  0.1448  0.2035  0.2565
  909MOL0     C25336   9.567   1.010   5.392  0.5611 -0.3471 -0.0170
  909MOL0     C25337   9.642   1.110   5.328  0.9596 -0.4985 -0.7421
  909MOL0     C25338   9.772   1.079   5.281  0.5003  0.1022  0.5341
  909MOL0     C25339   9.832   0.954   5.303  1.1834 -0.0193  0.0939
  909MOL0     O25340   9.952   0.927   5.249  0.0952 -0.2196 -0.9842
  909MOL0     C25341  10.060   0.921   5.338  0.9943  0.1833 -0.1143
  909MOL0     C25342  10.088   1.061   5.389  0.0913  0.1995 -0.0664
  909MOL0     C25343  10.221   1.049   5.461 -0.1315  0.1428  0.2229
  909MOL0     C25344  10.299   1.181   5.459 -1.2523  0.0728  0.3627
  909MOL0     C25345  10.430   1.171   5.544 -0.3769 -0.6730 -0.7785
  909MOL0     C25346  10.489   1.320   5.566  0.2714  0.3529 -1.2100
  909MOL0     C25347  10.644   1.314   5.593  0.0422  0.1054 -0.2497
  909MOL0     C25348  10.718   1.450   5.599 -1.0286 -0.2811  0.1605
  909MOL0    Cl25349  10.658   1.546   5.738  0.5167  0.4630  0.0495
  909MOL0     C25350   9.752   0.856   5.366 -0.8148  0.9994  0.0822
  909MOL0     C25351   9.623   0.881   5.409 -0.1682  0.7706  0.2089
  909MOL0     O25352   9.370   1.002   5.212 -0.2619  0.1851  0.8081
  909MOL0     C25353   9.181   1.089   5.495 -0.2970  0.2932  0.4568
  909MOL0     C25354   9.055   1.100   5.548  0.1299  0.0495  0.3441
  909MOL0     N25355   8.504   1.072   5.867  0.3182  0.5915 -0.4688
  909MOL0     N25356   8.412   1.030   5.954 -0.4787 -0.1331  0.0435
  909MOL0     C25357   7.352   1.393   6.699  0.5029 -0.4795 -0.4317
  909MOL0     C25358   7.217   1.437   6.727 -0.7077  0.2009  0.0241
  909MOL0     C25359   6.759   1.509   6.630  1.0449 -0.4843 -0.7144
  909MOL0     C25360   6.766   1.615   6.732  0.5712 -0.0160  0.1991
  909MOL0     C25361   6.657   1.679   6.789  0.8387  0.3505  0.4478
  909MOL0     C25362   6.528   1.628   6.761 -0.3087 -0.6277 -1.2356
  909MOL0     O25363   6.427   1.668   6.849  0.2094  0.0938  0.0681
  909MOL0     C25364   6.300   1.591   6.858 -0.6743 -0.5550  0.7372
  909MOL0     C25365   6.206   1.640   6.969  0.2885 -0.4586 -0.3599
  909MOL0     C25366   6.061   1.594   6.937 -0.3195  0.0562  0.5790
  909MOL0     C25367   5.970   1.649   7.054 -0.3303 -0.6490 -0.2690
  909MOL0     C25368   6.018   1.612   7.192  0.8590 -0.4746 -0.1934
  909MOL0     C25369   6.044   1.601   7.310 -0.6036  0.2492  0.2317
  909MOL0     C25370   6.510   1.536   6.655  0.7009 -0.3659 -0.2352
  909MOL0     C25371   6.622   1.487   6.585 -0.0285  0.9782  0.2677
  909MOL0     C25372   6.591   1.384   6.478  0.1128 -0.0236  0.3077
  909MOL0     H25373   7.092   1.416   6.415 -0.5274 -0.4851  1.1412
  909MOL0     H25374   7.315   1.323   6.378 -1.3503  2.7687 -1.5489
  909MOL0     H25375   7.579   1.249   6.726  1.2870  0.2546  0.3089
  909MOL0     H25376   7.652   1.394   6.658 -1.7689  0.1445 -1.5028
  909MOL0     H25377   7.809   1.221   6.684 -1.1416 -0.9706  0.2223
  909MOL0     H25378   7.719   1.108   6.578  0.9341  0.0943  0.0603
  909MOL0     H25379   7.756   1.330   6.418  0.5487 -2.3130 -1.5512
  909MOL0     H25380   7.903   1.353   6.505 -0.3293 -0.3740 -0.1015
  909MOL0     H25381   7.979   1.130   6.472 -1.5167  1.6116  2.0265
  909MOL0     H25382   7.842   1.083   6.369 -1.8016 -0.1681  2.2218
  909MOL0     H25383   8.068   1.299   6.311 -0.2974  0.5730  0.7384
  909MOL0     H25384   7.923   1.301   6.217  0.5510 -0.0218 -0.9005
  909MOL0     H25385   8.107   1.063   6.251 -2.2849 -0.2303  0.9548
  909MOL0     H25386   7.957   1.064   6.166 -0.2289 -1.8479  3.1775
  909MOL0     H25387   8.231   1.211   6.122 -0.6115  1.2956 -0.4832
  909MOL0     H25388   8.096   1.267   6.020 -1.3106 -1.0849 -0.8470
  909MOL0     H25389   8.185   0.975   6.059 -2.4215 -1.9305 -0.4918
  909MOL0     H25390   8.087   1.027   5.928  2.2483 -2.7381 -1.2404
  909MOL0     H25391   8.225   1.218   5.765 -0.2103  0.9366  1.0830
  909MOL0     H25392   8.402   1.234   5.582  0.5433  0.4551  0.7056
  909MOL0     H25393   8.487   1.086   5.552  1.7212  0.4705 -1.2246
  909MOL0     H25394   8.573   1.351   5.677 -0.8225 -0.7644  0.4640
  909MOL0     H25395   8.670   1.214   5.709 -2.9748  1.4889  3.6787
  909MOL0     H25396   8.580   1.314   5.421  0.8282  0.8619 -1.0841
  909MOL0     H25397   8.730   1.359   5.494  0.3505 -0.6496  1.7035
  909MOL0     H25398   8.648   1.076   5.403  1.0642 -3.6215  4.8278
  909MOL0     H25399   8.753   1.193   5.324 -0.9059 -1.2073 -0.3297
  909MOL0     H25400   8.873   0.951   5.303 -0.9396 -1.3904  2.1300
  909MOL0     H25401   9.162   0.927   5.108  0.8201 -2.3573  0.0642
  909MOL0     H25402   9.005   0.857   5.152 -0.6630  0.7299  1.2691
  909MOL0     H25403   9.159   0.787   5.210 -0.5552 -0.2069  2.4987
  909MOL0     H25404   9.593   1.205   5.310 -0.8002 -0.9586  1.2657
  909MOL0     H25405   9.826   1.158   5.230  4.7598 -1.7378  1.8175
  909MOL0     H25406  10.037   0.854   5.421  2.1637  1.9108  1.6842
  909MOL0     H25407  10.144   0.892   5.275  0.3854 -3.5977  0.5393
  909MOL0     H25408  10.087   1.119   5.296 -0.4220  2.7832  1.4608
  909MOL0     H25409  10.007   1.095   5.454  0.5255 -0.3255  0.7708
  909MOL0     H25410  10.281   0.974   5.408 -0.5795  0.6798 -1.0873
  909MOL0     H25411  10.220   1.023   5.567  1.9030  4.9378  1.6570
  909MOL0     H25412  10.235   1.253   5.511  0.2638  1.8291 -0.1125
  909MOL0     H25413  10.322   1.214   5.357  1.1759 -1.9620  0.1452
  909MOL0     H25414  10.414   1.113   5.636 -1.4572 -2.3542 -1.9713
  909MOL0     H25415  10.504   1.120   5.483 -0.6795 -0.4415 -1.3483
  909MOL0     H25416  10.440   1.366   5.653 -0.4530 -1.5048 -0.5789
  909MOL0     H25417  10.480   1.396   5.488  0.6022  1.5405 -0.1407
  909MOL0     H25418  10.692   1.251   5.518  0.8677  1.6354 -1.0585
  909MOL0     H25419  10.651   1.272   5.693 -1.0594  1.1762  0.3125
  909MOL0     H25420  10.707   1.496   5.500  3.1505  1.3347  0.2676
  909MOL0     H25421  10.826   1.440   5.609 -0.8532  0.5232 -0.7953
  909MOL0     H25422   9.792   0.757   5.384 -3.0592  0.1852  0.9571
  909MOL0     H25423   9.554   0.804   5.442  1.1286  0.0219  1.2888
  909MOL0     H25424   9.251   1.134   5.565  0.2054 -1.4047  1.0814
  909MOL0     H25425   9.030   1.147   5.642  4.2080  1.0887  1.1226
  909MOL0     H25426   7.416   1.388   6.786  0.5383 -2.4519 -0.5161
  909MOL0     H25427   7.192   1.472   6.827 -3.0712  0.4927 -0.6010
  909MOL0     H25428   6.862   1.658   6.756  1.4533 -0.3719 -2.4125
  909MOL0     H25429   6.654   1.761   6.860 -1.1866  0.6392  0.1091
  909MOL0     H25430   6.254   1.617   6.763 -0.3125  2.4460  1.2790
  909MOL0     H25431   6.318   1.483   6.868 -1.6144 -0.6021  2.3137
  909MOL0     H25432   6.209   1.749   6.957 -0.2877 -0.2705  1.0065
  909MOL0     H25433   6.240   1.615   7.070  0.9871 -0.4180 -0.5817
  909MOL0     H25434   6.028   1.631   6.840 -0.2867 -1.0387  0.1399
  909MOL0     H25435   6.042   1.486   6.943 -0.5536  0.0521 -0.1996
  909MOL0     H25436   5.867   1.614   7.040 -0.7772  0.6970 -0.5326
  909MOL0     H25437   5.985   1.757   7.049  0.7358 -0.5215  3.0255
  909MOL0     H25438   6.069   1.599   7.414  0.3211 -2.6326  0.0470
  909MOL0     H25439   6.411   1.502   6.626  1.4878  0.4924 -4.7647
  909MOL0     H25440   6.635   1.429   6.388  2.4994 -1.6130  0.5785
  909MOL0     H25441   6.646   1.294   6.505  1.1122  0.6924  0.6963
  909MOL0     H25442   6.483   1.368   6.475  0.0019  0.7031  0.3098
  910MOL0     O25443   5.410   0.112   2.668  0.5580  0.1066 -0.1408
  910MOL0     C25444   5.390   0.066   2.782  0.9285  0.4807  0.9606
  910MOL0     O25445   5.481   0.015   2.862 -0.2794 -0.2303 -0.6693
  910MOL0     C25446   5.618   0.038   2.828 -0.0052  0.4867  0.0658
  910MOL0     C25447   5.682   0.154   2.865  0.1629 -0.7216  0.0492
  910MOL0     C25448   5.812   0.177   2.831  0.1450  0.2710 -0.0883
  910MOL0     C25449   5.881   0.086   2.748  0.0134  0.8248 -0.3318
  910MOL0     O25450   6.004   0.112   2.698  0.5501  0.2343 -0.1088
  910MOL0     C25451   6.108   0.134   2.793  0.2721 -0.2542  0.4982
  910MOL0     C25452   6.246   0.145   2.717 -0.2487 -0.1680  0.5765
  910MOL0     C25453   6.256   0.257   2.615  0.9846  0.7678 -0.1615
  910MOL0     C25454   6.396   0.326   2.608 -0.0508 -0.3206  0.2298
  910MOL0     C25455   6.400   0.448   2.515 -0.4587  1.2620 -0.0851
  910MOL0     C25456   6.376   0.571   2.608 -0.2870 -0.4359  0.0262
  910MOL0     C25457   6.355   0.695   2.525 -0.1577  0.0661 -1.0364
  910MOL0     C25458   6.459   0.715   2.418 -0.2815 -0.6126  0.1230
  910MOL0     N25459   6.586   0.765   2.478  0.0697 -0.8219 -0.1362
  910MOL0     C25460   6.704   0.690   2.475 -0.8162  0.0792  0.3689
  910MOL0     C25461   6.795   0.784   2.516 -0.2227 -0.0945  0.0421
  910MOL0     C25462   6.949   0.796   2.521  0.5382  0.0836 -0.2945
  910MOL0     C25463   7.030   0.662   2.504 -1.3045 -0.7187 -0.4205
  910MOL0     C25464   7.183   0.694   2.523 -0.4433 -0.0999 -0.4757
  910MOL0     C25465   7.256   0.567   2.488 -0.9131  0.5656  0.9944
  910MOL0     O25466   7.279   0.571   2.346  0.2880 -0.3495 -0.3920
  910MOL0     C25467   7.396   0.630   2.305  0.1233  0.1208 -1.0034
  910MOL0     C25468   7.408   0.628   2.163 -0.6925  0.0911 -0.3719
  910MOL0     C25469   7.518   0.678   2.093  0.7547  0.2982  0.1788
  910MOL0     C25470   7.520   0.644   1.951  0.8131 -1.2152  0.0740
  910MOL0     C25471   7.619   0.749   2.163 -1.3445  0.3351  0.0242
  910MOL0     C25472   7.744   0.818   2.112  0.1440 -0.2062 -0.3327
  910MOL0     O25473   7.828   0.862   2.214 -0.4796  0.6954  0.3341
  910MOL0     C25474   7.936   0.938   2.181  0.0382  1.1751  0.1027
  910MOL0     C25475   7.943   1.071   2.229  0.1163  0.1279  0.2891
  910MOL0     C25476   8.055   1.157   2.200  0.3082 -0.3408 -0.0483
  910MOL0     C25477   8.163   1.112   2.133  0.3713  0.3258  0.8024
  910MOL0     O25478   8.264   1.193   2.086  0.2872  0.1462 -1.2028
  910MOL0     C25479   8.308   1.300   2.179  0.6832  0.0185 -0.0115
  910MOL0     C25480   8.459   1.321   2.153  0.3820  0.1422  0.0039
  910MOL0     C25481   8.521   1.440   2.240  0.0976  0.5712 -0.0785
  910MOL0     C25482   8.471   1.576   2.190  0.3474  0.0111 -1.1167
  910MOL0     C25483   8.566   1.640   2.081  0.1638  0.4004 -0.0287
  910MOL0     C25484   8.713   1.638   2.114  0.0022  0.2671 -0.4426
  910MOL0     C25485   8.799   1.744   2.032  0.4554 -0.0742  0.8204
  910MOL0     C25486   8.845   1.688   1.887 -0.3321 -0.8687 -1.0229
  910MOL0    Cl25487   8.936   1.805   1.796 -0.1407  0.1970 -0.1528
  910MOL0     C25488   8.148   0.981   2.082 -0.5964  0.4592  0.0801
  910MOL0     C25489   8.039   0.897   2.096 -0.9549  0.6764  0.0815
  910MOL0     O25490   7.761   0.827   1.991  0.2616 -0.8049 -0.1975
  910MOL0     C25491   7.606   0.738   2.311 -0.4407  0.1094 -0.1133
  910MOL0     C25492   7.501   0.679   2.380  0.2903  0.0621  0.4611
  910MOL0     N25493   6.726   0.901   2.544 -0.3060 -0.4172  0.0544
  910MOL0     N25494   6.603   0.888   2.533  0.2878  0.3051 -0.0524
  910MOL0     C25495   5.800  -0.020   2.694 -0.1176  0.4789 -0.6895
  910MOL0     C25496   5.672  -0.051   2.738  0.1298  0.6648  0.2179
  910MOL0     C25497   5.248   0.073   2.835 -0.5285  0.5287  0.1545
  910MOL0     C25498   5.234   0.019   2.970  0.3433 -0.4206 -1.0082
  910MOL0     C25499   5.111  -0.000   3.033 -1.5420  0.0218 -0.2690
  910MOL0     C25500   4.990   0.036   2.971  0.8425 -0.3404 -0.7939
  910MOL0     O25501   4.873   0.015   3.038 -0.3620 -0.9285 -0.5236
  910MOL0     C25502   4.829  -0.117   3.036  0.2323  0.4142  0.1663
  910MOL0     C25503   4.742  -0.152   3.162  0.2996  0.6213 -0.3831
  910MOL0     C25504   4.648  -0.049   3.213 -1.3511  0.9028  0.1337
  910MOL0     C25505   4.547   0.001   3.102  0.2337 -0.3816 -0.3071
  910MOL0     C25506   4.463   0.099   3.159 -0.1098 -0.4529  1.0121
  910MOL0     C25507   4.397   0.197   3.189  0.8936  0.4332  0.6218
  910MOL0     C25508   5.001   0.096   2.850 -0.5004  0.2466 -0.2137
  910MOL0     C25509   5.125   0.113   2.783  0.3684  1.1043  0.1338
  910MOL0     C25510   5.119   0.178   2.651  0.1692  0.0376 -0.4238
  910MOL0     H25511   5.633   0.238   2.915  0.3677  0.8322 -2.2023
  910MOL0     H25512   5.870   0.263   2.862  2.2214 -1.4305  1.0341
  910MOL0     H25513   6.122   0.046   2.855  2.7050 -0.3835 -0.1424
  910MOL0     H25514   6.101   0.227   2.851 -0.1309  1.1883 -1.7231
  910MOL0     H25515   6.330   0.158   2.786  0.0934  2.1023 -0.2141
  910MOL0     H25516   6.255   0.047   2.669 -0.2849  0.1691 -0.1321
  910MOL0     H25517   6.227   0.215   2.518  1.2737 -0.6588  0.3393
  910MOL0     H25518   6.188   0.339   2.640 -0.2509  0.0680 -1.1171
  910MOL0     H25519   6.426   0.354   2.710  0.0633  0.9845 -0.1555
  910MOL0     H25520   6.480   0.257   2.595  2.6030  2.3388  1.9308
  910MOL0     H25521   6.331   0.445   2.431 -1.3036  1.3649  0.5956
  910MOL0     H25522   6.502   0.453   2.474  0.3533 -1.0877  1.4245
  910MOL0     H25523   6.293   0.558   2.677 -0.0466  0.4137  0.4866
  910MOL0     H25524   6.469   0.587   2.664 -0.8834  1.8846  0.4156
  910MOL0     H25525   6.352   0.787   2.583  1.5592  1.4916 -3.0500
  910MOL0     H25526   6.260   0.678   2.472 -0.6808 -2.3304  0.5088
  910MOL0     H25527   6.477   0.625   2.359  2.4623 -2.0332  2.8810
  910MOL0     H25528   6.431   0.785   2.339 -2.6249 -3.3188 -1.6467
  910MOL0     H25529   6.729   0.595   2.429 -1.3282 -0.1924  0.6442
  910MOL0     H25530   6.981   0.850   2.611 -2.3434 -0.1942  1.0254
  910MOL0     H25531   6.971   0.860   2.435 -0.5849 -0.0737 -0.7117
  910MOL0     H25532   6.999   0.591   2.581  1.2837  2.5911  4.1848
  910MOL0     H25533   7.015   0.611   2.408 -0.7567 -1.8052  0.0524
  910MOL0     H25534   7.220   0.776   2.460 -0.3332  0.0382 -0.2350
  910MOL0     H25535   7.196   0.720   2.628 -2.6206 -2.2375  0.4025
  910MOL0     H25536   7.352   0.567   2.540 -0.3432  2.5242  0.0506
  910MOL0     H25537   7.204   0.472   2.503 -0.3597 -0.1786 -1.4153
  910MOL0     H25538   7.338   0.576   2.099 -0.4719  0.7881 -1.1914
  910MOL0     H25539   7.600   0.569   1.950  1.1995 -0.9467  2.6599
  910MOL0     H25540   7.558   0.725   1.889 -1.7323 -0.4173 -0.5613
  910MOL0     H25541   7.421   0.610   1.919 -0.4136 -0.7837  3.1047
  910MOL0     H25542   7.854   1.107   2.280  0.2265  1.3206 -0.3321
  910MOL0     H25543   8.056   1.255   2.245  0.4292  0.2061 -1.2062
  910MOL0     H25544   8.256   1.396   2.171  1.7463  0.8350  2.0387
  910MOL0     H25545   8.286   1.272   2.283 -1.4924  1.6807  0.0679
  910MOL0     H25546   8.515   1.231   2.179  0.5580  0.5321  1.0502
  910MOL0     H25547   8.469   1.349   2.048 -2.2987  1.0631 -0.0878
  910MOL0     H25548   8.630   1.438   2.244  0.2055  1.0181 -1.9080
  910MOL0     H25549   8.509   1.419   2.347 -1.4644 -2.7729 -0.7541
  910MOL0     H25550   8.478   1.642   2.276  1.1911 -2.4277  0.8192
  910MOL0     H25551   8.372   1.565   2.143  0.2881 -0.8376 -0.8246
  910MOL0     H25552   8.559   1.584   1.988  0.5442  0.1959  0.0628
  910MOL0     H25553   8.527   1.740   2.057  1.7138  1.2494  0.8365
  910MOL0     H25554   8.760   1.540   2.103  2.7058  1.2065  1.6387
  910MOL0     H25555   8.715   1.656   2.222 -2.9713 -0.5535 -0.1564
  910MOL0     H25556   8.896   1.766   2.079  2.1672  3.1405 -3.6102
  910MOL0     H25557   8.746   1.839   2.024  1.3301  0.6859  3.1241
  910MOL0     H25558   8.757   1.653   1.831  1.1905 -3.4735 -1.9420
  910MOL0     H25559   8.904   1.597   1.902 -0.5359 -0.8329  0.0797
  910MOL0     H25560   8.229   0.946   2.019 -3.1885 -0.0314 -3.2802
  910MOL0     H25561   8.042   0.796   2.056 -2.8853  0.3816  0.6061
  910MOL0     H25562   7.673   0.792   2.378  1.0752 -0.1506 -1.3535
  910MOL0     H25563   7.501   0.680   2.488 -0.9513 -2.8703  0.5649
  910MOL0     H25564   5.842  -0.093   2.625 -0.8383  0.6896 -1.3488
  910MOL0     H25565   5.617  -0.134   2.696  0.6360  0.6635 -0.4520
  910MOL0     H25566   5.321  -0.006   3.031  0.3957 -1.8047 -1.6123
  910MOL0     H25567   5.104  -0.034   3.136  2.4520  3.2532  1.3334
  910MOL0     H25568   4.762  -0.127   2.949 -1.5408  1.3599  1.3523
  910MOL0     H25569   4.911  -0.188   3.029  2.2014  2.3397  2.2028
  910MOL0     H25570   4.815  -0.170   3.242 -0.0260  0.2447 -0.1696
  910MOL0     H25571   4.689  -0.247   3.151  2.5122 -0.6153 -1.1440
  910MOL0     H25572   4.603  -0.099   3.300 -3.3345  3.4888  0.7195
  910MOL0     H25573   4.703   0.038   3.249  2.8670 -1.0831 -0.9025
  910MOL0     H25574   4.499  -0.082   3.051 -1.9073 -0.2537  1.3512
  910MOL0     H25575   4.603   0.060   3.029 -1.6402  1.6622 -0.1988
  910MOL0     H25576   4.343   0.289   3.198  1.1391  0.6821 -0.2889
  910MOL0     H25577   4.909   0.132   2.804 -0.6235 -0.0055 -0.1636
  910MOL0     H25578   5.178   0.270   2.655 -0.6643  0.5928  3.7513
  910MOL0     H25579   5.154   0.112   2.572  1.2819  0.4929 -0.3278
  910MOL0     H25580   5.017   0.208   2.624 -0.6702 -3.3514 -1.4930
  911MOL0     O25581  11.198  11.297   1.109 -0.1218 -0.2474  0.2243
  911MOL0     C25582  11.174  11.415   1.070  0.2918  0.3287 -0.3917
  911MOL0     O25583  11.269  11.509   1.063  0.0975 -0.9118 -0.6285
  911MOL0     C25584  11.393  11.467   1.082  0.0003  0.2748  0.2274
  911MOL0     C25585  11.447  11.456   1.212 -0.8746  0.1506  0.4184
  911MOL0     C25586  11.579  11.413   1.233  0.5633  0.5321  0.0696
  911MOL0     C25587  11.655  11.362   1.129 -0.2834  0.3799  0.2071
  911MOL0     O25588  11.784  11.319   1.139 -0.1881 -0.0374 -1.1251
  911MOL0     C25589  11.857  11.302   1.264 -0.3945 -0.1449  0.2445
  911MOL0     C25590  11.956  11.181   1.247  0.1689 -0.2657  0.0963
  911MOL0     C25591  12.091  11.223   1.186  0.1298 -0.0373  0.7717
  911MOL0     C25592  12.096  11.328   1.070 -0.4244 -0.3553  0.0911
  911MOL0     C25593  12.252  11.351   1.038 -0.6845  0.7205  0.3090
  911MOL0     C25594  12.284  11.466   0.939 -0.0238 -0.5390  1.0930
  911MOL0     C25595  12.429  11.507   0.901  0.7931  0.0690 -0.2600
  911MOL0     C25596  12.488  11.596   1.011 -0.3470 -0.1339  0.4792
  911MOL0     N25597  12.396  11.696   1.076  0.2604  0.7120 -0.2046
  911MOL0     C25598  12.314  11.672   1.191  0.2275 -0.2982  0.1253
  911MOL0     C25599  12.237  11.781   1.201  0.1190 -1.1847  0.2516
  911MOL0     C25600  12.128  11.827   1.295  0.6185  0.3835  0.1651
  911MOL0     C25601  12.004  11.729   1.293  0.3029 -0.6634 -0.2557
  911MOL0     C25602  11.940  11.712   1.158  0.0720  0.4973 -1.2442
  911MOL0     C25603  11.857  11.831   1.114  0.8716 -0.0351  0.6608
  911MOL0     O25604  11.741  11.864   1.196 -0.2356  0.4474 -0.3384
  911MOL0     C25605  11.628  11.884   1.127  0.4227 -0.8042 -0.5173
  911MOL0     C25606  11.627  11.968   1.013  0.0376  0.1522  0.3402
  911MOL0     C25607  11.515  11.980   0.931 -0.4970  0.6651  0.5146
  911MOL0     C25608  11.531  12.065   0.811  1.1112 -0.4662  0.2248
  911MOL0     C25609  11.393  11.916   0.964 -0.6371 -0.0182  0.0152
  911MOL0     C25610  11.266  11.937   0.901 -0.5489  0.5844  1.2497
  911MOL0     O25611  11.238  12.057   0.867 -0.8420  0.1950 -1.0575
  911MOL0     C25612  11.144  12.085   0.768 -0.1453 -0.3197  0.3573
  911MOL0     C25613  11.022  12.149   0.799  0.0581 -0.6691  0.4780
  911MOL0     C25614  10.925  12.160   0.698  0.0148  0.4569 -0.2536
  911MOL0     C25615  10.937  12.116   0.562  0.0086 -0.0033 -0.2551
  911MOL0     O25616  10.833  12.142   0.473 -0.5544 -0.3750 -0.3136
  911MOL0     C25617  10.843  12.109   0.337 -0.2891 -0.5001 -0.1591
  911MOL0     C25618  10.703  12.101   0.279 -0.4888  0.2376 -0.2007
  911MOL0     C25619  10.643  12.238   0.277  0.6737  0.4369  0.3720
  911MOL0     C25620  10.503  12.235   0.207 -1.1583  0.4754 -0.2368
  911MOL0     C25621  10.382  12.215   0.303 -0.5100  0.1161  0.3951
  911MOL0     C25622  10.253  12.166   0.229  0.6051  0.2820  0.0024
  911MOL0     C25623  10.155  12.101   0.326  0.7122  1.1990 -0.1528
  911MOL0     C25624  10.027  12.053   0.258 -0.8492  0.3693  0.3653
  911MOL0    Cl25625  10.060  11.938   0.135 -0.3392  0.2674 -0.2672
  911MOL0     C25626  11.057  12.055   0.530 -0.0509 -0.8668 -1.3975
  911MOL0     C25627  11.161  12.042   0.634 -0.1810 -0.3866 -0.1374
  911MOL0     O25628  11.188  11.841   0.875 -0.5193  0.1839 -0.7590
  911MOL0     C25629  11.395  11.829   1.080  0.7518  0.5166 -0.2631
  911MOL0     C25630  11.511  11.814   1.159 -0.7322 -0.3110  0.6460
  911MOL0     N25631  12.267  11.864   1.094 -0.3616 -0.3926 -0.1180
  911MOL0     N25632  12.360  11.812   1.019 -0.1254 -0.1641 -0.5480
  911MOL0     C25633  11.604  11.380   0.993 -0.1659  0.2286  0.2769
  911MOL0     C25634  11.478  11.425   0.975 -0.4330  0.0082 -0.1786
  911MOL0     C25635  11.034  11.443   1.045  1.1191  0.1929 -0.5562
  911MOL0     C25636  11.014  11.572   1.007  0.6491 -1.4979 -0.0514
  911MOL0     C25637  10.887  11.617   0.975 -0.5410  0.2627 -0.0278
  911MOL0     C25638  10.780  11.541   0.998 -0.4034 -0.0304 -1.1479
  911MOL0     O25639  10.653  11.586   0.963 -0.3337 -0.2538 -0.0956
  911MOL0     C25640  10.591  11.501   0.871  1.1107 -0.6224  0.7453
  911MOL0     C25641  10.441  11.463   0.912  0.7641  0.3567  0.0474
  911MOL0     C25642  10.357  11.590   0.950  0.2124  0.5267 -0.5288
  911MOL0     C25643  10.205  11.576   0.974  0.0404 -0.2153  0.7527
  911MOL0     C25644  10.141  11.704   0.954 -0.1308 -0.0605 -1.2780
  911MOL0     C25645  10.082  11.805   0.917  0.1674 -0.1509 -0.6777
  911MOL0     C25646  10.793  11.412   1.051  0.0118  0.3042  1.4672
  911MOL0     C25647  10.918  11.354   1.074  0.1418 -0.4145 -0.7583
  911MOL0     C25648  10.934  11.222   1.139  0.2605  0.1529 -0.1669
  911MOL0     H25649  11.391  11.494   1.297 -2.8217  1.1453 -1.1927
  911MOL0     H25650  11.615  11.417   1.336  2.3066 -2.6643 -0.3018
  911MOL0     H25651  11.784  11.280   1.343 -0.6719 -0.1301 -0.0080
  911MOL0     H25652  11.917  11.392   1.281 -0.4495 -0.0837  0.1195
  911MOL0     H25653  11.982  11.143   1.346  0.9006  0.6190  0.2531
  911MOL0     H25654  11.914  11.102   1.184 -1.0768  0.8001 -0.4599
  911MOL0     H25655  12.161  11.259   1.262 -0.4736  2.3439  0.2590
  911MOL0     H25656  12.133  11.129   1.148  1.9359  1.1412 -0.2812
  911MOL0     H25657  12.063  11.280   0.978  1.9538  1.2271 -1.6973
  911MOL0     H25658  12.054  11.424   1.101  2.0234  1.1196 -0.9227
  911MOL0     H25659  12.289  11.254   1.001  0.0655 -0.1857  3.1517
  911MOL0     H25660  12.297  11.375   1.135 -2.7175  1.0605  1.2179
  911MOL0     H25661  12.247  11.429   0.843 -1.1915 -0.0171  1.3238
  911MOL0     H25662  12.222  11.555   0.953 -1.1991 -0.8978 -1.2193
  911MOL0     H25663  12.431  11.564   0.808  2.6272 -0.4387 -0.5740
  911MOL0     H25664  12.486  11.417   0.875  0.3569  0.1123 -1.3812
  911MOL0     H25665  12.507  11.523   1.090 -0.9355 -0.4231  0.3615
  911MOL0     H25666  12.584  11.646   0.992  1.5728 -3.0583  1.8106
  911MOL0     H25667  12.313  11.593   1.265 -0.8536  1.7403  2.4707
  911MOL0     H25668  12.101  11.930   1.270 -3.9741 -0.6646  0.0761
  911MOL0     H25669  12.170  11.828   1.396  0.0481 -2.1497  0.4808
  911MOL0     H25670  12.033  11.642   1.353  0.3000 -0.6168 -0.1864
  911MOL0     H25671  11.922  11.760   1.358  1.4644 -0.0779  0.9811
  911MOL0     H25672  12.020  11.693   1.085 -0.2496 -2.9708 -0.8682
  911MOL0     H25673  11.879  11.621   1.161  0.6218  0.1319 -1.0904
  911MOL0     H25674  11.920  11.921   1.113  0.5533  0.3400  4.0442
  911MOL0     H25675  11.825  11.814   1.011 -0.6981 -1.0775  1.2876
  911MOL0     H25676  11.720  12.020   0.994  0.0691  0.3928  1.1331
  911MOL0     H25677  11.487  12.008   0.728  1.0394 -1.8748  1.2044
  911MOL0     H25678  11.632  12.098   0.786  0.6305  1.9468  1.1506
  911MOL0     H25679  11.475  12.158   0.821  3.7671  1.6174 -2.4485
  911MOL0     H25680  10.996  12.194   0.894 -0.8038 -1.4454  0.6285
  911MOL0     H25681  10.828  12.202   0.723 -0.1235  0.3141 -0.5311
  911MOL0     H25682  10.902  12.182   0.280 -1.8380  3.4590  2.8987
  911MOL0     H25683  10.877  12.005   0.330  0.7822 -0.3541  2.0553
  911MOL0     H25684  10.719  12.070   0.176 -0.5614 -0.3607 -0.0356
  911MOL0     H25685  10.636  12.032   0.331  2.0581 -2.4477 -0.2213
  911MOL0     H25686  10.700  12.306   0.213  0.7797  0.7051  0.7515
  911MOL0     H25687  10.626  12.280   0.376  0.3658  0.4828  0.3020
  911MOL0     H25688  10.507  12.164   0.123  1.2277 -0.0912  0.2683
  911MOL0     H25689  10.493  12.329   0.152  0.0421  1.2701  0.8482
  911MOL0     H25690  10.411  12.141   0.377  0.5574  0.7784  0.6555
  911MOL0     H25691  10.369  12.309   0.357  1.8094  0.7156  0.0221
  911MOL0     H25692  10.295  12.099   0.153 -0.3956 -2.0136  1.3721
  911MOL0     H25693  10.215  12.255   0.177  0.9136  0.1031 -0.5341
  911MOL0     H25694  10.127  12.165   0.410 -1.0731 -1.9632  1.8733
  911MOL0     H25695  10.205  12.024   0.386  0.5461  3.4826  3.2280
  911MOL0     H25696   9.963  12.136   0.227  0.5316  1.0661 -0.7221
  911MOL0     H25697   9.967  12.010   0.339 -1.5474  0.5007 -0.0687
  911MOL0     H25698  11.077  12.018   0.430  0.6399 -0.2678 -1.4966
  911MOL0     H25699  11.262  12.003   0.621 -0.3618 -0.5551 -1.1237
  911MOL0     H25700  11.308  11.771   1.110 -0.0815  1.8549 -0.0142
  911MOL0     H25701  11.502  11.751   1.248  2.4296 -0.6156  0.8608
  911MOL0     H25702  11.664  11.348   0.909  0.3239  0.6326  0.4698
  911MOL0     H25703  11.450  11.422   0.871  1.8033 -2.1915 -0.8144
  911MOL0     H25704  11.096  11.642   0.990  0.0194 -0.9240 -0.8412
  911MOL0     H25705  10.870  11.718   0.939  0.2866  1.0423  1.6527
  911MOL0     H25706  10.584  11.553   0.775 -1.9507  0.7269  1.5793
  911MOL0     H25707  10.653  11.415   0.843  1.1285 -0.2381 -0.4422
  911MOL0     H25708  10.431  11.378   0.980  0.6883 -0.4949 -1.0000
  911MOL0     H25709  10.385  11.433   0.822 -1.0627 -0.4858  1.4047
  911MOL0     H25710  10.400  11.650   1.030 -0.4978  0.0627  0.2141
  911MOL0     H25711  10.366  11.658   0.864 -1.7225  0.7503 -0.6037
  911MOL0     H25712  10.186  11.545   1.077  0.5975  0.8709  1.2027
  911MOL0     H25713  10.154  11.501   0.913 -0.0895 -0.6100  1.3338
  911MOL0     H25714  10.040  11.893   0.873  1.0198  0.4304 -0.3591
  911MOL0     H25715  10.702  11.358   1.070 -0.0037  0.2268  1.1585
  911MOL0     H25716  10.983  11.232   1.237  1.1613  2.7377 -0.7940
  911MOL0     H25717  10.842  11.179   1.178  0.5607  1.6821  2.4834
  911MOL0     H25718  10.995  11.156   1.077  0.4229 -0.0300  0.1800
  912MOL0     O25719   6.627   1.774   3.752  0.3467 -0.0768  0.2173
  912MOL0     C25720   6.639   1.825   3.864  0.2163  0.5945  0.4499
  912MOL0     O25721   6.534   1.888   3.931 -0.2828  0.4330  0.0120
  912MOL0     C25722   6.421   1.929   3.869 -0.8405 -0.1067  0.3098
  912MOL0     C25723   6.320   1.833   3.835 -0.2190 -0.7570 -0.1780
  912MOL0     C25724   6.202   1.871   3.764  1.2812 -0.1780 -0.2922
  912MOL0     C25725   6.184   2.013   3.739 -0.7310  0.4993 -1.2859
  912MOL0     O25726   6.087   2.071   3.678  0.3379  0.3701 -0.1407
  912MOL0     C25727   5.960   2.008   3.648  0.4018 -0.0365 -0.1601
  912MOL0     C25728   5.844   2.103   3.603 -0.1520  0.6728 -0.1046
  912MOL0     C25729   5.738   2.017   3.531  0.2413  0.3704 -0.5129
  912MOL0     C25730   5.658   2.114   3.445 -0.0529 -0.5384  0.1456
  912MOL0     C25731   5.536   2.041   3.382 -0.5871 -0.5569  0.9571
  912MOL0     C25732   5.430   2.141   3.333 -0.1708  0.6378 -0.4047
  912MOL0     C25733   5.325   2.057   3.268  0.4261 -0.3268  0.4460
  912MOL0     C25734   5.210   2.150   3.213 -0.3421 -0.0534 -0.6756
  912MOL0     N25735   5.118   2.204   3.311  0.0870  0.8908  0.1953
  912MOL0     C25736   5.010   2.139   3.366 -0.4825 -0.8622 -0.2121
  912MOL0     C25737   4.933   2.238   3.416 -0.3592 -0.5699  0.0450
  912MOL0     C25738   4.796   2.226   3.476 -0.1384  0.6709  0.0006
  912MOL0     C25739   4.734   2.358   3.514  0.5577 -0.0511 -0.2254
  912MOL0     C25740   4.612   2.357   3.608 -0.6614 -0.4253  0.3969
  912MOL0     C25741   4.487   2.292   3.547  0.4169  0.6986  0.2849
  912MOL0     O25742   4.466   2.358   3.422  0.8145  0.2176  0.0673
  912MOL0     C25743   4.352   2.322   3.345  0.7420 -0.4785 -0.5888
  912MOL0     C25744   4.323   2.402   3.239  0.1827 -0.2842  0.4915
  912MOL0     C25745   4.206   2.388   3.158  0.4114  0.8401  0.6887
  912MOL0     C25746   4.186   2.487   3.051  0.6361  0.1388  0.0450
  912MOL0     C25747   4.108   2.283   3.191  1.2408 -0.1846  0.2243
  912MOL0     C25748   3.986   2.254   3.111 -1.0704  1.3907 -0.0855
  912MOL0     O25749   3.957   2.337   3.006 -0.1360  0.3874 -1.1350
  912MOL0     C25750   3.860   2.293   2.920 -1.0334 -0.9262  0.0424
  912MOL0     C25751   3.741   2.363   2.911 -0.5032 -0.1995  0.7396
  912MOL0     C25752   3.655   2.336   2.811  0.4172  0.8590  0.6021
  912MOL0     C25753   3.687   2.243   2.702 -0.0334  0.0160  0.3037
  912MOL0     O25754   3.602   2.231   2.603  0.1033 -0.3787 -0.3020
  912MOL0     C25755   3.654   2.266   2.474 -0.0391  0.3143 -0.1516
  912MOL0     C25756   3.548   2.249   2.370 -0.4604 -0.7610  0.2496
  912MOL0     C25757   3.435   2.358   2.365  0.1026  0.6510 -0.0004
  912MOL0     C25758   3.453   2.469   2.255  0.2221 -0.8559  0.2324
  912MOL0     C25759   3.345   2.576   2.256 -0.1269 -0.1558 -0.8243
  912MOL0     C25760   3.217   2.518   2.195 -0.2792  0.8932  0.1639
  912MOL0     C25761   3.109   2.619   2.185 -0.2104  0.6943  0.6076
  912MOL0     C25762   2.974   2.559   2.132  0.2646  0.0736 -0.4145
  912MOL0    Cl25763   2.852   2.690   2.114 -0.3557 -0.0557  0.3362
  912MOL0     C25764   3.807   2.167   2.720 -0.5194 -0.7734  0.2548
  912MOL0     C25765   3.895   2.193   2.828  0.6258 -0.2101  0.1444
  912MOL0     O25766   3.909   2.166   3.156 -0.8526  0.2026  0.3646
  912MOL0     C25767   4.138   2.204   3.305  0.8464 -0.7246 -0.8990
  912MOL0     C25768   4.262   2.216   3.380 -1.0838 -0.3183  0.6642
  912MOL0     N25769   4.998   2.360   3.402  0.0258 -0.4219 -0.2893
  912MOL0     N25770   5.106   2.335   3.338  0.4524 -1.0043  0.2225
  912MOL0     C25771   6.285   2.098   3.777 -0.9038  0.4564 -0.3238
  912MOL0     C25772   6.401   2.058   3.838 -0.2590 -0.2975 -0.1122
  912MOL0     C25773   6.777   1.829   3.926 -0.3480  0.6092  0.1317
  912MOL0     C25774   6.789   1.891   4.041 -0.5488 -0.0103  0.0623
  912MOL0     C25775   6.924   1.913   4.097  0.3743  0.2732  0.2356
  912MOL0     C25776   7.035   1.847   4.039  0.0360 -0.2448  0.2419
  912MOL0     O25777   7.163   1.854   4.086  0.8865  0.1261 -0.5567
  912MOL0     C25778   7.196   1.962   4.178 -0.4522  0.3538 -0.3451
  912MOL0     C25779   7.328   2.016   4.129 -0.5260 -0.7808 -0.2459
  912MOL0     C25780   7.435   1.907   4.091 -0.7144  0.1477 -0.2218
  912MOL0     C25781   7.568   1.986   4.053  0.3134  0.1478 -0.2983
  912MOL0     C25782   7.645   2.033   4.164  0.0734  0.8263 -0.2781
  912MOL0     C25783   7.709   2.060   4.260 -0.6969 -0.5592 -0.1207
  912MOL0     C25784   7.018   1.783   3.917  0.2879  0.3842  0.3388
  912MOL0     C25785   6.889   1.756   3.868  0.2158 -0.4771 -0.3603
  912MOL0     C25786   6.885   1.663   3.746 -0.7394 -0.0600 -0.6596
  912MOL0     H25787   6.343   1.730   3.858  1.1556 -0.7138 -1.2519
  912MOL0     H25788   6.115   1.811   3.739 -0.3888  1.0597  2.1825
  912MOL0     H25789   5.916   1.960   3.736  1.7952 -1.5588 -0.2539
  912MOL0     H25790   5.981   1.926   3.579  2.2104 -0.4640  0.8200
  912MOL0     H25791   5.808   2.158   3.690 -0.8116  0.8527 -0.4833
  912MOL0     H25792   5.890   2.175   3.534 -0.8461  0.0406 -1.2505
  912MOL0     H25793   5.778   1.940   3.466 -2.8982 -0.5648 -1.5180
  912MOL0     H25794   5.672   1.962   3.599 -0.1560 -1.8384 -2.5762
  912MOL0     H25795   5.615   2.200   3.497 -1.0337  0.0177 -1.5226
  912MOL0     H25796   5.721   2.153   3.364  1.3026 -1.1782  0.8463
  912MOL0     H25797   5.495   1.967   3.451  0.3510 -2.4586 -0.4353
  912MOL0     H25798   5.563   1.987   3.291  0.3228  3.0980 -1.1205
  912MOL0     H25799   5.396   2.187   3.426  0.3164 -1.6339  0.9809
  912MOL0     H25800   5.474   2.214   3.265  0.9233 -0.4958 -0.9475
  912MOL0     H25801   5.283   1.995   3.348 -0.4289  0.0052  0.2591
  912MOL0     H25802   5.364   1.998   3.184  1.8460 -2.1510  2.2630
  912MOL0     H25803   5.253   2.233   3.155 -0.3087 -0.4987 -1.3006
  912MOL0     H25804   5.153   2.088   3.143 -0.5407 -0.3262 -0.2759
  912MOL0     H25805   4.974   2.038   3.347 -0.7209 -0.1927 -4.1463
  912MOL0     H25806   4.811   2.158   3.561  0.8737 -2.8237 -2.7159
  912MOL0     H25807   4.732   2.185   3.397  1.5926 -1.9343 -0.1943
  912MOL0     H25808   4.817   2.417   3.555 -0.5619 -0.4007  2.7718
  912MOL0     H25809   4.724   2.412   3.420  4.0547  0.9836 -0.1413
  912MOL0     H25810   4.631   2.308   3.705 -2.7512 -2.8819 -0.3303
  912MOL0     H25811   4.593   2.459   3.642  0.6244 -0.6298  1.8362
  912MOL0     H25812   4.499   2.183   3.537 -1.8339  0.2430  1.9028
  912MOL0     H25813   4.401   2.311   3.611 -0.6143 -2.0476 -0.1247
  912MOL0     H25814   4.402   2.477   3.231  0.4065 -0.5389  0.2904
  912MOL0     H25815   4.205   2.451   2.949  0.0044  1.9952 -0.7718
  912MOL0     H25816   4.244   2.574   3.082 -0.9671  1.2102  0.2085
  912MOL0     H25817   4.086   2.531   3.055 -0.3335 -1.8752 -0.4837
  912MOL0     H25818   3.716   2.441   2.982  1.1029  1.4850 -0.4378
  912MOL0     H25819   3.564   2.396   2.808 -0.5986 -0.3105  3.7394
  912MOL0     H25820   3.700   2.365   2.476  2.4392 -0.6382 -3.0010
  912MOL0     H25821   3.738   2.204   2.444 -0.5232 -0.5758  0.2830
  912MOL0     H25822   3.595   2.253   2.272 -2.0596  2.5437 -0.5363
  912MOL0     H25823   3.508   2.149   2.387 -0.6942 -0.6669  0.2645
  912MOL0     H25824   3.420   2.408   2.462  4.1004 -0.8225  1.5903
  912MOL0     H25825   3.347   2.300   2.334  0.3285 -0.3494  1.1179
  912MOL0     H25826   3.461   2.428   2.154 -0.1924 -1.4922  0.4505
  912MOL0     H25827   3.550   2.519   2.270  1.1705 -1.8798 -2.0887
  912MOL0     H25828   3.329   2.605   2.360 -0.5090  0.1310 -0.9602
  912MOL0     H25829   3.382   2.659   2.195  0.7455 -1.2692 -1.8777
  912MOL0     H25830   3.185   2.438   2.263  2.0626 -0.8334 -0.6395
  912MOL0     H25831   3.233   2.465   2.100  0.4503 -0.3626  0.9466
  912MOL0     H25832   3.151   2.689   2.112  1.4805 -1.4365 -0.5657
  912MOL0     H25833   3.107   2.674   2.280  2.3921  1.1529  0.4637
  912MOL0     H25834   2.937   2.481   2.199  0.4100 -0.3617 -0.8372
  912MOL0     H25835   2.987   2.510   2.035  0.2917 -1.4941  0.3436
  912MOL0     H25836   3.838   2.100   2.640  1.6200  0.1174  0.2772
  912MOL0     H25837   3.978   2.125   2.843  2.5511  1.4000 -2.4463
  912MOL0     H25838   4.064   2.136   3.346  2.6587 -2.1036  0.2460
  912MOL0     H25839   4.277   2.147   3.463  1.6606  0.5049  0.9535
  912MOL0     H25840   6.283   2.203   3.752 -2.4141  0.3618 -0.6500
  912MOL0     H25841   6.476   2.129   3.872  0.1018 -1.5237  1.8055
  912MOL0     H25842   6.710   1.919   4.109  0.4231  0.9744  0.8238
  912MOL0     H25843   6.938   1.967   4.190  1.2343  0.6134 -0.0847
  912MOL0     H25844   7.122   2.043   4.175 -1.0800 -0.1527  0.8018
  912MOL0     H25845   7.193   1.924   4.280 -2.4198  1.9361  0.2521
  912MOL0     H25846   7.369   2.071   4.214 -0.8829  2.0778 -1.8065
  912MOL0     H25847   7.313   2.080   4.042 -3.4932  1.8126  1.9397
  912MOL0     H25848   7.464   1.846   4.177  2.5818  2.5944  0.5949
  912MOL0     H25849   7.395   1.854   4.003 -1.9624  1.0877 -0.2408
  912MOL0     H25850   7.548   2.068   3.983 -2.9362 -1.7245 -1.7921
  912MOL0     H25851   7.623   1.914   3.992 -0.6050 -0.3903 -0.5093
  912MOL0     H25852   7.766   2.077   4.349 -0.6073  0.0218 -0.2890
  912MOL0     H25853   7.102   1.739   3.864 -1.1460 -0.8080 -1.0377
  912MOL0     H25854   6.980   1.609   3.741 -0.3057  0.6516 -0.2226
  912MOL0     H25855   6.809   1.585   3.757 -1.5766  0.9694  1.5365
  912MOL0     H25856   6.884   1.713   3.649 -0.3058 -0.5620 -0.9286
  913MOL0     O25857   9.644   8.614   5.164 -0.0328  0.7805 -0.5453
  913MOL0     C25858   9.579   8.561   5.076  0.2574  0.6971 -0.1891
  913MOL0     O25859   9.626   8.470   4.981 -0.4358  0.0105 -0.2101
  913MOL0     C25860   9.755   8.427   4.987  0.2182  0.6981 -0.5168
  913MOL0     C25861   9.809   8.372   4.866  0.0375  0.3068 -0.0700
  913MOL0     C25862   9.942   8.322   4.855  0.2384 -0.6905  0.3824
  913MOL0     C25863  10.023   8.319   4.966  0.7723  0.0985 -0.5862
  913MOL0     O25864  10.145   8.259   4.966 -0.2314 -0.4329  0.2152
  913MOL0     C25865  10.202   8.225   4.835 -0.4173 -0.7246 -0.1753
  913MOL0     C25866  10.329   8.153   4.876 -0.2873 -0.9036 -0.2941
  913MOL0     C25867  10.434   8.114   4.770  0.3037 -0.2520  0.8224
  913MOL0     C25868  10.440   8.203   4.652 -0.2346 -0.5124  0.5843
  913MOL0     C25869  10.568   8.186   4.567  1.3941 -0.3194  0.2629
  913MOL0     C25870  10.582   8.318   4.480  0.1410  0.0787 -0.3930
  913MOL0     C25871  10.675   8.307   4.367 -0.5020 -0.2287 -0.5374
  913MOL0     C25872  10.813   8.251   4.393  0.3165  1.1278 -0.2436
  913MOL0     N25873  10.902   8.344   4.472  0.0945  0.2185  1.1699
  913MOL0     C25874  10.924   8.483   4.450 -0.3537 -0.3569  1.4506
  913MOL0     C25875  11.011   8.515   4.548  0.1643 -0.6207 -0.1042
  913MOL0     C25876  11.061   8.653   4.588 -0.3576 -0.4815  0.4403
  913MOL0     C25877  11.211   8.681   4.535 -0.2554  0.0019 -0.3192
  913MOL0     C25878  11.202   8.713   4.382 -0.1520 -0.0671  0.2129
  913MOL0     C25879  11.322   8.776   4.325 -1.2054  0.4443 -0.1849
  913MOL0     O25880  11.362   8.887   4.407 -0.4463 -1.6320  0.4542
  913MOL0     C25881  11.482   8.943   4.371 -0.0627  0.3460 -0.0946
  913MOL0     C25882  11.540   8.940   4.242 -0.5766 -0.1905 -0.4945
  913MOL0     C25883  11.677   8.965   4.218  0.6379 -0.9872 -0.3878
  913MOL0     C25884  11.722   8.974   4.075 -0.0933  0.1893  0.1380
  913MOL0     C25885  11.749   9.000   4.332 -0.5901  0.3810 -0.1485
  913MOL0     C25886  11.893   9.014   4.314  0.5242 -0.2373  0.6560
  913MOL0     O25887  11.959   8.903   4.256  0.2562  0.3869 -0.4366
  913MOL0     C25888  12.095   8.908   4.226  0.3299 -0.1553 -0.0124
  913MOL0     C25889  12.136   8.866   4.098  0.6236 -0.0047 -0.2538
  913MOL0     C25890  12.274   8.858   4.071 -0.3955  0.3661 -0.4287
  913MOL0     C25891  12.370   8.906   4.165 -0.0876 -0.3227  0.2859
  913MOL0     O25892  12.505   8.886   4.150 -0.1526 -0.1201  0.1174
  913MOL0     C25893  12.563   8.939   4.032  0.7223  0.3754 -0.2340
  913MOL0     C25894  12.666   9.052   4.069 -0.2901 -0.3671  0.1879
  913MOL0     C25895  12.786   8.987   4.141 -0.2871  0.1312 -0.0882
  913MOL0     C25896  12.885   9.094   4.177  0.3197  0.0514  0.1943
  913MOL0     C25897  13.003   9.032   4.245 -0.6293 -0.0384  0.6688
  913MOL0     C25898  12.984   8.964   4.382  1.1543  0.0669 -0.5418
  913MOL0     C25899  13.104   8.899   4.436  0.2093  0.4386 -0.1764
  913MOL0     C25900  13.079   8.810   4.563  0.4651  0.2631  0.6105
  913MOL0    Cl25901  12.975   8.902   4.683  0.1530 -0.6483 -0.2684
  913MOL0     C25902  12.332   8.950   4.294  0.4007  0.8368  0.4595
  913MOL0     C25903  12.196   8.963   4.317  0.3492  0.6285  0.2416
  913MOL0     O25904  11.943   9.121   4.347 -0.7759  0.6506  0.1700
  913MOL0     C25905  11.692   9.007   4.458  0.6125 -0.6942  0.3567
  913MOL0     C25906  11.554   8.984   4.483 -0.2691 -0.1202  0.4655
  913MOL0     N25907  11.046   8.402   4.618  0.2477 -0.8965  0.1343
  913MOL0     N25908  10.987   8.306   4.573  0.9686  0.0809  1.0019
  913MOL0     C25909   9.969   8.362   5.091 -0.3932  0.5485  0.9232
  913MOL0     C25910   9.838   8.409   5.096 -0.0841  0.5307  0.2616
  913MOL0     C25911   9.427   8.568   5.095 -0.0343  1.1687 -0.4403
  913MOL0     C25912   9.373   8.678   5.175 -0.2344  0.2037  0.1077
  913MOL0     C25913   9.235   8.699   5.192 -0.6102  0.2930  0.2135
  913MOL0     C25914   9.145   8.612   5.136  0.8929  0.0835 -0.0365
  913MOL0     O25915   9.010   8.622   5.140  0.0997  0.0331 -0.4593
  913MOL0     C25916   8.952   8.738   5.215  0.1494  0.4923  0.2202
  913MOL0     C25917   8.940   8.707   5.363 -1.7924  0.2664  0.8017
  913MOL0     C25918   8.821   8.619   5.399 -0.5360  0.1792 -0.1048
  913MOL0     C25919   8.816   8.483   5.331 -0.4105 -0.3487 -0.3273
  913MOL0     C25920   8.700   8.409   5.367  0.1007 -0.7448 -0.2257
  913MOL0     C25921   8.597   8.370   5.415  1.0062 -0.2504 -0.1766
  913MOL0     C25922   9.187   8.511   5.053 -0.1929 -0.7617 -0.0395
  913MOL0     C25923   9.326   8.481   5.037 -0.1496  0.3310  0.5873
  913MOL0     C25924   9.355   8.374   4.942  0.1576 -0.7117  0.4774
  913MOL0     H25925   9.750   8.370   4.775  1.5286 -3.6021 -1.1487
  913MOL0     H25926   9.981   8.280   4.763 -0.1258 -1.6561  0.6631
  913MOL0     H25927  10.227   8.308   4.768 -0.0375 -0.1546  0.6523
  913MOL0     H25928  10.140   8.145   4.792  1.6879 -2.0978 -0.8248
  913MOL0     H25929  10.379   8.204   4.958  1.1798 -0.4490 -1.4288
  913MOL0     H25930  10.295   8.055   4.912  0.4205 -1.5850 -1.4164
  913MOL0     H25931  10.528   8.113   4.825 -1.6352 -0.3598  4.3885
  913MOL0     H25932  10.408   8.014   4.734 -0.2262  0.6353 -1.4600
  913MOL0     H25933  10.352   8.205   4.588  0.3455 -0.6589 -0.2253
  913MOL0     H25934  10.450   8.305   4.691  0.5103 -0.4769  0.3226
  913MOL0     H25935  10.544   8.104   4.499 -2.8336  2.5889 -2.1692
  913MOL0     H25936  10.660   8.173   4.626  1.6670  0.6746  0.0740
  913MOL0     H25937  10.485   8.351   4.442  0.3365  2.0326  0.6894
  913MOL0     H25938  10.615   8.394   4.552 -0.7679 -0.3715  0.5269
  913MOL0     H25939  10.681   8.406   4.320 -1.4625  0.9362  1.6565
  913MOL0     H25940  10.628   8.235   4.300  0.4818 -1.8935  0.4910
  913MOL0     H25941  10.797   8.157   4.447  1.8290  1.6416  1.1640
  913MOL0     H25942  10.863   8.230   4.298  1.4672 -1.2777  0.8154
  913MOL0     H25943  10.884   8.549   4.374  1.9727 -0.2964  0.1881
  913MOL0     H25944  11.059   8.659   4.697 -1.8340 -1.4719  0.4972
  913MOL0     H25945  10.992   8.733   4.560  0.7831  1.4229  2.6961
  913MOL0     H25946  11.244   8.772   4.586  0.4663  0.1546 -1.0487
  913MOL0     H25947  11.288   8.604   4.552  0.3229  0.4365 -0.9375
  913MOL0     H25948  11.175   8.623   4.325  2.9392 -0.7447 -0.4009
  913MOL0     H25949  11.113   8.774   4.365  0.5658  0.7356 -0.7753
  913MOL0     H25950  11.398   8.699   4.310 -1.2530 -0.0006  1.6154
  913MOL0     H25951  11.297   8.817   4.227 -1.6841 -0.0643 -0.2768
  913MOL0     H25952  11.474   8.925   4.157 -1.9621 -0.4674  0.6095
  913MOL0     H25953  11.787   8.889   4.053 -0.5620 -0.5358  1.4416
  913MOL0     H25954  11.761   9.067   4.033 -0.8530 -0.6490 -2.6095
  913MOL0     H25955  11.636   8.954   4.011 -0.5020  1.0019  0.4170
  913MOL0     H25956  12.071   8.833   4.018 -0.1882  0.5152  0.1806
  913MOL0     H25957  12.307   8.814   3.977  1.5584  0.2257  0.2833
  913MOL0     H25958  12.613   8.868   3.966 -0.0246  0.3669 -0.8046
  913MOL0     H25959  12.480   8.983   3.976  2.7081  1.4946 -2.5074
  913MOL0     H25960  12.688   9.094   3.970  1.8282 -0.6979  0.4772
  913MOL0     H25961  12.626   9.130   4.135 -1.1859 -0.1069 -0.6337
  913MOL0     H25962  12.827   8.900   4.088 -1.2239  0.6113 -1.6265
  913MOL0     H25963  12.755   8.945   4.238 -3.5334  0.4337 -0.8964
  913MOL0     H25964  12.832   9.175   4.229  0.3013  0.6739 -0.7530
  913MOL0     H25965  12.941   9.135   4.092 -0.0977 -1.0478 -0.6423
  913MOL0     H25966  13.049   8.955   4.182 -1.9475 -0.7856  0.5869
  913MOL0     H25967  13.084   9.105   4.249  0.0421 -0.6057 -1.2047
  913MOL0     H25968  12.907   8.888   4.368  0.3591  0.9447 -1.0336
  913MOL0     H25969  12.941   9.033   4.455 -0.0619 -0.7703 -0.4501
  913MOL0     H25970  13.179   8.973   4.466  0.3388  0.4820 -0.5980
  913MOL0     H25971  13.138   8.831   4.356 -1.0190 -1.8016  1.1029
  913MOL0     H25972  13.176   8.780   4.602  0.2370 -3.1418 -1.1019
  913MOL0     H25973  13.012   8.729   4.533 -0.4397  1.4053 -0.5557
  913MOL0     H25974  12.423   8.980   4.345  0.8073  3.0026 -1.3525
  913MOL0     H25975  12.181   8.995   4.420 -0.2392 -2.4599  1.2265
  913MOL0     H25976  11.767   9.024   4.534  1.0938  3.9897 -0.8258
  913MOL0     H25977  11.508   8.981   4.581 -1.3401  1.1062  0.0377
  913MOL0     H25978  10.026   8.366   5.183 -0.1977  1.2799  0.7811
  913MOL0     H25979   9.815   8.436   5.198  2.4055 -1.3372  1.4222
  913MOL0     H25980   9.447   8.740   5.224  0.9087 -0.5421 -0.6064
  913MOL0     H25981   9.207   8.786   5.251 -2.5806  1.8210 -2.7235
  913MOL0     H25982   9.018   8.824   5.202  3.1024 -1.6910 -0.4259
  913MOL0     H25983   8.852   8.764   5.179 -0.5992 -0.3721  1.6003
  913MOL0     H25984   8.940   8.806   5.409 -1.2410  0.8394 -0.3686
  913MOL0     H25985   9.027   8.647   5.392  0.5267  1.8304 -2.3357
  913MOL0     H25986   8.829   8.607   5.508  1.2080 -0.6271 -0.2909
  913MOL0     H25987   8.723   8.667   5.383 -0.2381  0.1841 -2.1383
  913MOL0     H25988   8.907   8.427   5.356 -0.3327 -0.1670 -0.2051
  913MOL0     H25989   8.814   8.489   5.222  1.2704 -2.9592 -0.6030
  913MOL0     H25990   8.499   8.364   5.456  1.3202  0.2233  0.6680
  913MOL0     H25991   9.098   8.461   5.014 -1.6444  1.8156 -0.2241
  913MOL0     H25992   9.265   8.320   4.910 -0.0437  0.2140 -0.6223
  913MOL0     H25993   9.394   8.427   4.854 -0.4060 -0.2066  0.5231
  913MOL0     H25994   9.427   8.304   4.985  2.2798  0.5260 -0.8393
  914MOL0     O25995   0.518   1.055   2.397  0.1325  0.6490  0.3440
  914MOL0     C25996   0.511   1.096   2.515  0.3045 -0.8366  1.0792
  914MOL0     O25997   0.606   1.183   2.575  0.1219 -0.2565  0.0792
  914MOL0     C25998   0.720   1.216   2.501  1.0905 -0.3735 -0.0637
  914MOL0     C25999   0.709   1.266   2.371  0.5282 -0.7964 -0.9081
  914MOL0     C26000   0.823   1.307   2.300  0.9816 -0.6629 -0.2723
  914MOL0     C26001   0.947   1.303   2.361 -0.2672  0.5455  0.3509
  914MOL0     O26002   1.036   1.346   2.275  0.7245  0.5567 -0.6908
  914MOL0     C26003   1.169   1.333   2.327  0.0181 -0.3149  0.1130
  914MOL0     C26004   1.257   1.372   2.211 -0.5545 -0.9745 -0.1649
  914MOL0     C26005   1.380   1.439   2.271 -0.6906 -0.3081 -0.1259
  914MOL0     C26006   1.483   1.468   2.159  0.9466  0.2315 -1.1062
  914MOL0     C26007   1.627   1.492   2.215  0.2823 -1.3718 -0.1989
  914MOL0     C26008   1.721   1.567   2.114 -0.0657  0.2086 -0.1309
  914MOL0     C26009   1.732   1.484   1.982 -0.3006 -0.2657  0.0012
  914MOL0     C26010   1.814   1.360   1.991  0.0491  0.9014  0.3534
  914MOL0     N26011   1.950   1.374   2.041  0.0462 -0.6746 -0.1826
  914MOL0     C26012   2.031   1.293   2.125  0.1018  0.2542 -0.7368
  914MOL0     C26013   2.162   1.314   2.102  1.0466  0.2849 -1.0498
  914MOL0     C26014   2.276   1.248   2.168 -0.4576 -0.1817 -0.0482
  914MOL0     C26015   2.279   1.280   2.310 -0.5009 -0.0684 -0.3319
  914MOL0     C26016   2.411   1.236   2.375 -0.9343  0.5414 -0.3122
  914MOL0     C26017   2.410   1.086   2.406 -0.1600  0.2089  0.1347
  914MOL0     O26018   2.544   1.048   2.446  1.2323  0.8426  0.3743
  914MOL0     C26019   2.630   1.017   2.349 -0.0868 -0.6341  0.0150
  914MOL0     C26020   2.756   0.982   2.396  0.8466  0.7416  0.7989
  914MOL0     C26021   2.864   0.946   2.306 -0.0484 -1.7055  0.7737
  914MOL0     C26022   2.995   0.889   2.366  0.6472  0.5872 -0.2675
  914MOL0     C26023   2.845   0.965   2.170 -0.6110 -0.1435  0.6740
  914MOL0     C26024   2.938   0.930   2.064  1.0845  0.5417  0.5048
  914MOL0     O26025   2.923   0.806   2.009 -0.2802  0.6375 -0.0348
  914MOL0     C26026   3.009   0.765   1.914  0.0591  0.2768 -0.0248
  914MOL0     C26027   3.038   0.838   1.794  0.3083 -0.0648 -0.7101
  914MOL0     C26028   3.116   0.775   1.698  0.7312  0.1056 -1.0280
  914MOL0     C26029   3.154   0.643   1.722 -0.6306  0.4358 -0.2925
  914MOL0     O26030   3.236   0.584   1.626  0.5950  0.4714 -0.5562
  914MOL0     C26031   3.211   0.451   1.585 -0.6577  0.7162 -0.3330
  914MOL0     C26032   3.071   0.428   1.542 -0.5570 -0.5652 -0.5378
  914MOL0     C26033   3.044   0.276   1.499  0.3589  0.5730  0.1968
  914MOL0     C26034   2.924   0.261   1.402  0.1270 -0.4738 -0.0818
  914MOL0     C26035   2.883   0.115   1.391 -0.0514  1.1536  0.0547
  914MOL0     C26036   2.791   0.064   1.498  0.6174  0.1007  0.8206
  914MOL0     C26037   2.648   0.132   1.501 -0.3484 -0.1011 -1.1249
  914MOL0     C26038   2.545   0.035   1.430 -0.0324  0.8586 -0.0323
  914MOL0    Cl26039   2.374   0.098   1.412  0.1712  0.5105 -0.2294
  914MOL0     C26040   3.122   0.576   1.840  0.3206  0.4171  0.9117
  914MOL0     C26041   3.047   0.639   1.934  0.2939  0.5588  0.2461
  914MOL0     O26042   3.023   1.012   2.035  0.0475  0.3619 -0.0165
  914MOL0     C26043   2.726   1.013   2.128 -0.8482  0.5782 -0.0989
  914MOL0     C26044   2.623   1.044   2.214  0.5626  0.0913  0.4867
  914MOL0     N26045   2.162   1.424   2.023 -1.4127 -0.9995 -0.4250
  914MOL0     N26046   2.040   1.461   1.992 -0.3348  0.5857  0.0722
  914MOL0     C26047   0.960   1.262   2.499  0.4452  0.0965 -0.2284
  914MOL0     C26048   0.846   1.213   2.569 -0.0350 -0.5161  1.1208
  914MOL0     C26049   0.408   1.035   2.607  0.2757  0.7750 -0.1581
  914MOL0     C26050   0.290   0.985   2.544  1.1195 -0.0851 -0.0579
  914MOL0     C26051   0.185   0.931   2.622 -0.7209 -0.2334  0.2114
  914MOL0     C26052   0.188   0.940   2.760 -0.9334  0.8807 -0.2570
  914MOL0     O26053   0.084   0.897   2.849  0.9432 -0.5625  0.0751
  914MOL0     C26054  -0.041   0.845   2.785 -0.8794  0.0937 -0.8497
  914MOL0     C26055  -0.145   0.826   2.899 -1.2054 -0.0667  0.2203
  914MOL0     C26056  -0.285   0.800   2.838  0.6757  0.0452 -0.7440
  914MOL0     C26057  -0.388   0.906   2.848 -0.3332 -0.1243 -0.4006
  914MOL0     C26058  -0.462   0.905   2.971  0.8357 -0.2344 -0.1109
  914MOL0     C26059  -0.518   0.929   3.081  0.2721 -0.2197  0.3458
  914MOL0     C26060   0.310   0.972   2.826  0.3440 -0.0060  1.1217
  914MOL0     C26061   0.413   1.023   2.748 -0.0668 -0.7260 -0.0079
  914MOL0     C26062   0.524   1.086   2.824 -0.0754  0.1468 -1.0856
  914MOL0     H26063   0.613   1.280   2.323  0.4357  0.8765 -0.3083
  914MOL0     H26064   0.803   1.354   2.204 -1.6270 -3.4388 -1.2284
  914MOL0     H26065   1.195   1.231   2.355 -3.4991 -2.0965 -2.3588
  914MOL0     H26066   1.181   1.401   2.412  0.0265 -1.5013  1.0891
  914MOL0     H26067   1.296   1.290   2.151  1.9294 -0.1348  0.2193
  914MOL0     H26068   1.205   1.445   2.147 -2.8391 -0.3641  2.1889
  914MOL0     H26069   1.358   1.538   2.312 -0.6633  0.7772 -2.5507
  914MOL0     H26070   1.413   1.367   2.346 -2.1507 -0.0100  0.8413
  914MOL0     H26071   1.495   1.372   2.108 -0.4453 -0.2941 -0.4887
  914MOL0     H26072   1.448   1.548   2.094 -0.4465 -1.7793 -3.0031
  914MOL0     H26073   1.667   1.397   2.252 -1.4325 -1.4063  1.7944
  914MOL0     H26074   1.616   1.558   2.303 -2.4239  0.8711 -2.0284
  914MOL0     H26075   1.662   1.658   2.100 -0.6273  0.2692  2.2200
  914MOL0     H26076   1.820   1.588   2.154 -0.2787 -0.7108  0.9286
  914MOL0     H26077   1.774   1.541   1.899 -0.0234 -1.2435 -0.5530
  914MOL0     H26078   1.637   1.443   1.948  0.6639 -0.5726 -2.4735
  914MOL0     H26079   1.752   1.294   2.053  0.3356  0.3156  0.0179
  914MOL0     H26080   1.808   1.321   1.889 -2.0917  1.5027  0.2069
  914MOL0     H26081   2.004   1.223   2.204  2.1180 -0.4279 -0.5909
  914MOL0     H26082   2.373   1.267   2.123 -1.5766 -0.2692 -2.6522
  914MOL0     H26083   2.258   1.141   2.155  0.4277 -0.2906 -0.4461
  914MOL0     H26084   2.277   1.390   2.313  2.2019  0.0476 -0.1639
  914MOL0     H26085   2.194   1.245   2.368  2.0259 -1.3093  2.9827
  914MOL0     H26086   2.486   1.249   2.296 -0.3680 -1.3940 -0.1258
  914MOL0     H26087   2.434   1.294   2.465  1.1361  2.1545 -1.7780
  914MOL0     H26088   2.347   1.056   2.490  1.9133 -1.7578  1.0921
  914MOL0     H26089   2.377   1.032   2.316  2.1838 -0.3735 -0.4240
  914MOL0     H26090   2.784   0.961   2.499  0.9080  1.9439  1.0439
  914MOL0     H26091   3.010   0.795   2.312 -0.8588 -0.7184  1.4651
  914MOL0     H26092   2.983   0.862   2.472  0.3906  1.0890 -0.1640
  914MOL0     H26093   3.080   0.955   2.344  1.4091 -0.5379 -0.7655
  914MOL0     H26094   3.006   0.940   1.777  0.1219  0.4206  2.0674
  914MOL0     H26095   3.133   0.837   1.611 -1.0028  1.4692 -0.4515
  914MOL0     H26096   3.287   0.434   1.508 -1.2252  3.6300 -1.6981
  914MOL0     H26097   3.232   0.384   1.668  2.2455 -0.2855 -1.7243
  914MOL0     H26098   3.001   0.443   1.624  0.0439 -0.8250  0.0256
  914MOL0     H26099   3.046   0.483   1.450 -0.5688 -0.1240 -0.2725
  914MOL0     H26100   3.022   0.216   1.587 -0.5985 -3.2440 -2.4047
  914MOL0     H26101   3.135   0.245   1.447  0.5958  2.4605 -0.6158
  914MOL0     H26102   2.944   0.292   1.299  0.4660 -1.1708 -0.2344
  914MOL0     H26103   2.834   0.311   1.439 -2.4133 -3.3246 -1.8852
  914MOL0     H26104   2.853   0.092   1.288  1.2933  0.1614 -0.1433
  914MOL0     H26105   2.977   0.058   1.390 -2.7731 -3.8542  0.0368
  914MOL0     H26106   2.839   0.071   1.597  0.0764 -1.4680  1.2175
  914MOL0     H26107   2.777  -0.042   1.477  4.5502 -0.2843 -0.6646
  914MOL0     H26108   2.659   0.226   1.446  1.1423  0.6426  0.3352
  914MOL0     H26109   2.622   0.139   1.607 -1.4077 -3.1931 -1.0946
  914MOL0     H26110   2.550  -0.060   1.484  1.3505  0.5355 -0.6806
  914MOL0     H26111   2.574   0.026   1.325 -1.0399 -2.0701 -0.1528
  914MOL0     H26112   3.160   0.476   1.858 -0.6207  0.2348  2.0184
  914MOL0     H26113   3.015   0.595   2.028 -1.6269 -0.9432 -1.0355
  914MOL0     H26114   2.705   1.020   2.022 -0.6356 -2.0958 -0.3933
  914MOL0     H26115   2.539   1.092   2.165  0.6561 -0.0699  0.1648
  914MOL0     H26116   1.047   1.259   2.563 -1.9446  0.7155  3.4005
  914MOL0     H26117   0.846   1.171   2.669  0.9694 -2.2580  0.4403
  914MOL0     H26118   0.280   0.991   2.436 -1.1062 -1.0791  0.0315
  914MOL0     H26119   0.102   0.888   2.568 -3.3436  2.7657  1.5452
  914MOL0     H26120  -0.090   0.904   2.707 -2.5831  0.7284  0.6343
  914MOL0     H26121  -0.021   0.747   2.740  0.4777 -1.8990  3.5769
  914MOL0     H26122  -0.140   0.916   2.961 -0.1708 -0.2950  0.5017
  914MOL0     H26123  -0.117   0.739   2.960  0.1062  1.2308  1.5684
  914MOL0     H26124  -0.272   0.772   2.733 -2.3470 -1.0988 -0.9197
  914MOL0     H26125  -0.330   0.712   2.886 -1.7721  1.5706 -0.0369
  914MOL0     H26126  -0.458   0.897   2.764 -1.3981  0.7764  0.3668
  914MOL0     H26127  -0.338   1.004   2.842  1.2765 -0.7588  1.5325
  914MOL0     H26128  -0.579   0.963   3.162 -0.0910  0.2177 -0.1038
  914MOL0     H26129   0.295   0.965   2.933 -0.8780  1.3696  1.0674
  914MOL0     H26130   0.618   1.039   2.795  0.2333  1.0936 -1.6619
  914MOL0     H26131   0.527   1.195   2.813  1.1662  0.1252 -1.1125
  914MOL0     H26132   0.514   1.070   2.931  0.3483  0.1972 -1.0377
  915MOL0     O26133   9.068   0.234   8.821 -0.2300  0.3012 -0.1741
  915MOL0     C26134   9.117   0.243   8.706  2.0795  0.2377  0.8929
  915MOL0     O26135   9.244   0.271   8.673 -0.1151  0.0409  0.3552
  915MOL0     C26136   9.340   0.284   8.774 -0.7250  0.6261  0.1703
  915MOL0     C26137   9.365   0.168   8.847 -0.6335  0.7870 -0.1535
  915MOL0     C26138   9.465   0.169   8.949  0.2000 -0.3171 -0.3213
  915MOL0     C26139   9.544   0.281   8.973 -0.6863 -0.6747 -0.3504
  915MOL0     O26140   9.630   0.286   9.078 -0.5211 -0.5837 -0.0410
  915MOL0     C26141   9.653   0.412   9.134  1.0169  0.0542 -0.7607
  915MOL0     C26142   9.694   0.416   9.280  0.1166  0.6370  0.1456
  915MOL0     C26143   9.581   0.365   9.372 -0.7165  0.0860 -0.2088
  915MOL0     C26144   9.602   0.397   9.520  0.0707  0.3055 -0.4542
  915MOL0     C26145   9.728   0.322   9.582 -0.4198 -0.0478 -0.2996
  915MOL0     C26146   9.692   0.180   9.616  0.3372 -0.6369 -0.1328
  915MOL0     C26147   9.803   0.100   9.650 -0.2498  0.0752  0.3651
  915MOL0     C26148   9.906   0.150   9.750  0.5299  0.2809  0.3000
  915MOL0     N26149   9.995   0.049   9.805  0.2887  0.6517 -0.3906
  915MOL0     C26150  10.045  -0.063   9.739 -0.7759 -0.4009  0.0535
  915MOL0     C26151  10.134  -0.117   9.833  0.7131 -0.8002 -0.5020
  915MOL0     C26152  10.203  -0.252   9.818 -0.0039 -0.1110 -0.1862
  915MOL0     C26153  10.348  -0.236   9.854  1.0903 -0.8109  0.5378
  915MOL0     C26154  10.410  -0.374   9.871 -0.5311 -0.1348  0.1760
  915MOL0     C26155  10.564  -0.363   9.864 -0.0433  0.5900 -1.6416
  915MOL0     O26156  10.623  -0.478   9.803  0.3090  0.2414 -0.3918
  915MOL0     C26157  10.733  -0.541   9.858 -0.0130 -1.2335  1.1249
  915MOL0     C26158  10.838  -0.488   9.926  0.4436 -0.0446  0.4731
  915MOL0     C26159  10.947  -0.570   9.970 -0.3386  0.9764  0.1355
  915MOL0     C26160  11.045  -0.510  10.070  0.9433  0.5020  0.8707
  915MOL0     C26161  10.954  -0.712   9.937  0.5083 -0.1123 -0.4806
  915MOL0     C26162  11.064  -0.808   9.968 -0.5013  0.3373 -0.0057
  915MOL0     O26163  11.061  -0.933   9.913  0.0913  0.2137 -0.0454
  915MOL0     C26164  11.173  -1.010   9.944 -0.1599  0.0129  0.2200
  915MOL0     C26165  11.279  -1.027   9.844 -0.3989  0.4477  0.4396
  915MOL0     C26166  11.401  -1.093   9.883 -0.2752  0.7659  0.3531
  915MOL0     C26167  11.431  -1.106  10.019  0.1983  0.3982 -0.1006
  915MOL0     O26168  11.546  -1.172  10.054 -0.5235 -1.0456 -0.3230
  915MOL0     C26169  11.604  -1.136  10.180  0.3125  0.3267 -0.2719
  915MOL0     C26170  11.757  -1.149  10.174  0.1354 -0.2590  0.1038
  915MOL0     C26171  11.792  -1.293  10.192 -1.0756  0.2860  0.7127
  915MOL0     C26172  11.942  -1.311  10.157  0.2108  1.0067  1.1606
  915MOL0     C26173  11.989  -1.453  10.191 -0.0967  0.3680 -0.2665
  915MOL0     C26174  12.024  -1.460  10.337 -0.1759  0.5013 -0.2511
  915MOL0     C26175  12.076  -1.603  10.364  0.1189 -0.1524 -0.7540
  915MOL0     C26176  12.228  -1.619  10.315  0.9729 -0.8112  0.2395
  915MOL0    Cl26177  12.310  -1.733  10.418  0.2012  0.0183 -0.0284
  915MOL0     C26178  11.330  -1.079  10.118  0.8603 -0.3297 -0.6471
  915MOL0     C26179  11.195  -1.039  10.081 -0.2969 -0.3627 -0.0897
  915MOL0     O26180  11.163  -0.756  10.025  0.4266  0.4976 -0.0329
  915MOL0     C26181  10.845  -0.760   9.853 -0.5113 -0.2947 -0.4660
  915MOL0     C26182  10.739  -0.673   9.811 -0.2518  0.6532  0.1854
  915MOL0     N26183  10.142  -0.035   9.950  0.2696  0.5355  0.2017
  915MOL0     N26184  10.055   0.065   9.929  0.1720 -0.5290 -0.2946
  915MOL0     C26185   9.529   0.386   8.882 -0.9724 -0.0903 -0.5348
  915MOL0     C26186   9.431   0.384   8.790 -0.3030 -0.6713  0.0602
  915MOL0     C26187   9.011   0.217   8.591  0.1581  0.3263 -0.3520
  915MOL0     C26188   9.068   0.192   8.467  0.4919 -0.8605  1.1700
  915MOL0     C26189   8.982   0.153   8.361 -0.4271  0.9149  0.7644
  915MOL0     C26190   8.850   0.152   8.372 -0.8831  0.3736  0.5155
  915MOL0     O26191   8.771   0.136   8.259  0.1381  0.1771 -0.0016
  915MOL0     C26192   8.625   0.125   8.266  0.1595  0.0646 -0.3955
  915MOL0     C26193   8.545   0.253   8.243 -0.1296  0.9775 -0.6905
  915MOL0     C26194   8.577   0.313   8.107 -0.9075  0.2326 -0.2885
  915MOL0     C26195   8.473   0.418   8.069 -0.2725 -1.0921 -0.2934
  915MOL0     C26196   8.498   0.479   7.936  0.6274  0.5211  0.3733
  915MOL0     C26197   8.519   0.539   7.836  0.6697 -0.5654  0.1812
  915MOL0     C26198   8.796   0.178   8.495 -0.1755 -0.2966 -0.0013
  915MOL0     C26199   8.872   0.210   8.610 -1.2779 -0.1873  0.7180
  915MOL0     C26200   8.794   0.231   8.734 -0.1202  0.5438  0.1813
  915MOL0     H26201   9.296   0.086   8.829 -1.7471  1.6035  0.3174
  915MOL0     H26202   9.466   0.095   9.029  2.0752 -0.0676 -0.0681
  915MOL0     H26203   9.560   0.468   9.129 -0.6367 -2.5158 -0.7917
  915MOL0     H26204   9.734   0.468   9.086  1.9451  0.9576  1.6806
  915MOL0     H26205   9.785   0.355   9.290 -0.1268  0.0333 -1.0715
  915MOL0     H26206   9.717   0.521   9.297  0.6990  0.3186  1.5371
  915MOL0     H26207   9.484   0.404   9.340  0.3416  2.3987 -0.8542
  915MOL0     H26208   9.559   0.258   9.363 -1.9677  0.2021  1.1381
  915MOL0     H26209   9.627   0.502   9.534 -1.0565  1.0276 -3.1327
  915MOL0     H26210   9.511   0.382   9.579  1.5184  0.8915  2.0742
  915MOL0     H26211   9.756   0.378   9.672  1.5419 -1.2686 -0.1137
  915MOL0     H26212   9.802   0.331   9.502  2.0517 -0.4862  1.7883
  915MOL0     H26213   9.631   0.189   9.707  0.5301  2.9384 -0.2320
  915MOL0     H26214   9.635   0.134   9.535 -0.6967  0.6633 -0.1859
  915MOL0     H26215   9.863   0.077   9.562  0.7085 -2.0763  1.5199
  915MOL0     H26216   9.760   0.007   9.689  0.1149 -0.4974 -0.5824
  915MOL0     H26217   9.967   0.232   9.714 -0.2591  0.5181 -0.5250
  915MOL0     H26218   9.845   0.197   9.828  0.2182  0.6118 -0.1402
  915MOL0     H26219  10.016  -0.096   9.640 -1.7628 -0.2846  0.2958
  915MOL0     H26220  10.191  -0.291   9.717 -0.9731  1.5653 -0.7671
  915MOL0     H26221  10.147  -0.321   9.882 -1.0444 -1.5734 -2.5511
  915MOL0     H26222  10.401  -0.171   9.783  0.1666 -1.3600 -0.6882
  915MOL0     H26223  10.353  -0.172   9.942 -1.1468  0.0718  0.0862
  915MOL0     H26224  10.388  -0.418   9.969 -0.6555 -3.3146 -1.1418
  915MOL0     H26225  10.365  -0.445   9.801 -1.8131  1.5567 -0.7894
  915MOL0     H26226  10.590  -0.266   9.821 -1.0829  0.7438 -1.9423
  915MOL0     H26227  10.587  -0.367   9.971 -2.2439 -1.0251 -1.1556
  915MOL0     H26228  10.840  -0.383   9.952  2.6281 -0.0759  0.6561
  915MOL0     H26229  11.051  -0.575  10.158 -3.3154  2.5521  3.0096
  915MOL0     H26230  11.001  -0.414  10.097 -1.5906 -1.1028  3.0209
  915MOL0     H26231  11.136  -0.501  10.011  0.2270 -2.5329 -0.9220
  915MOL0     H26232  11.259  -1.022   9.738  0.3589 -1.0899  0.1856
  915MOL0     H26233  11.475  -1.100   9.804 -2.6858  0.1554 -1.9778
  915MOL0     H26234  11.586  -1.034  10.215 -0.5186 -0.4336  1.6902
  915MOL0     H26235  11.565  -1.209  10.252  1.0785  0.1703 -0.0015
  915MOL0     H26236  11.799  -1.105  10.084 -0.1325  0.6634  0.4171
  915MOL0     H26237  11.796  -1.098  10.263  1.3682 -0.5869 -0.2233
  915MOL0     H26238  11.733  -1.353  10.122  0.6190  0.1221 -0.6238
  915MOL0     H26239  11.776  -1.340  10.290 -1.0310 -2.7565 -0.6104
  915MOL0     H26240  12.008  -1.246  10.215  0.3696  0.1115  2.0279
  915MOL0     H26241  11.958  -1.282  10.053  1.2222 -2.5944  0.1679
  915MOL0     H26242  11.900  -1.514  10.173  0.2716 -0.5761  0.9537
  915MOL0     H26243  12.076  -1.473  10.127  0.1546 -1.3442  0.5716
  915MOL0     H26244  11.945  -1.430  10.405  0.3954  0.8686  0.2635
  915MOL0     H26245  12.106  -1.391  10.359 -0.3371  0.8865 -0.8334
  915MOL0     H26246  12.008  -1.684  10.335 -0.7848 -0.3684  1.6943
  915MOL0     H26247  12.074  -1.620  10.472  0.3514 -2.3284 -1.0478
  915MOL0     H26248  12.278  -1.523  10.328 -1.5683  1.2152 -3.1347
  915MOL0     H26249  12.222  -1.653  10.211  1.3995 -1.7562  0.5117
  915MOL0     H26250  11.346  -1.099  10.224  3.4066  0.0313 -0.8947
  915MOL0     H26251  11.120  -1.013  10.154 -2.3234  0.1889 -2.2370
  915MOL0     H26252  10.849  -0.864   9.822 -1.4830 -0.6079  0.4225
  915MOL0     H26253  10.664  -0.705   9.740  0.9609 -2.5398  0.1802
  915MOL0     H26254   9.586   0.477   8.895  2.4679 -1.9589 -1.2768
  915MOL0     H26255   9.426   0.464   8.716 -0.3836 -2.3829 -1.8710
  915MOL0     H26256   9.171   0.208   8.434 -0.2001  2.2129  0.2404
  915MOL0     H26257   9.022   0.124   8.265  0.3723  0.8619  1.1079
  915MOL0     H26258   8.592   0.057   8.187 -2.2868  0.1473  0.4744
  915MOL0     H26259   8.598   0.080   8.362  2.2056 -1.6801 -0.5827
  915MOL0     H26260   8.559   0.321   8.328 -1.7042  2.8453 -1.8201
  915MOL0     H26261   8.439   0.231   8.262  0.4870  0.8927  3.8612
  915MOL0     H26262   8.677   0.358   8.119 -1.4375  2.1926 -2.4389
  915MOL0     H26263   8.584   0.231   8.035  0.1414  0.9360 -1.0269
  915MOL0     H26264   8.482   0.512   8.125  0.7305 -0.3959 -1.5556
  915MOL0     H26265   8.370   0.382   8.075 -0.4465 -0.6493 -0.5554
  915MOL0     H26266   8.530   0.592   7.743 -1.5767 -0.5029 -0.1249
  915MOL0     H26267   8.691   0.164   8.520 -0.6323  1.9684 -0.4245
  915MOL0     H26268   8.686   0.245   8.726 -0.3237 -0.8395  0.3941
  915MOL0     H26269   8.811   0.144   8.797  0.7168  2.1337  2.2799
  915MOL0     H26270   8.830   0.324   8.780 -1.2540  0.7566  0.6680
  916MOL0     O26271   9.964   5.206   4.465  0.3700 -0.0656  0.2884
  916MOL0     C26272   9.863   5.246   4.405  0.2580  0.1670  0.0657
  916MOL0     O26273   9.792   5.162   4.322  0.1556  0.0304 -0.1529
  916MOL0     C26274   9.831   5.038   4.287 -0.3000  0.4724  0.3047
  916MOL0     C26275   9.932   5.011   4.189  0.5821  0.0831 -0.2380
  916MOL0     C26276   9.963   4.876   4.151  0.1126 -0.0516  0.6415
  916MOL0     C26277   9.906   4.769   4.217  0.0559 -0.7115  0.0384
  916MOL0     O26278   9.936   4.643   4.188 -0.0094 -0.6190 -0.5744
  916MOL0     C26279   9.952   4.552   4.299  0.6582 -0.2977  0.3765
  916MOL0     C26280  10.033   4.430   4.276  0.2739  0.4264 -0.3844
  916MOL0     C26281   9.953   4.337   4.178  0.0105  0.3948 -0.2580
  916MOL0     C26282  10.029   4.217   4.113  0.3056 -0.2875 -0.3631
  916MOL0     C26283  10.110   4.132   4.216  0.1512 -0.4684  0.1158
  916MOL0     C26284  10.020   4.042   4.308 -0.1922 -0.7264 -0.1912
  916MOL0     C26285  10.038   3.894   4.286 -0.5580 -0.2808  0.0599
  916MOL0     C26286   9.950   3.806   4.376  0.1693 -0.1517 -1.0390
  916MOL0     N26287   9.983   3.823   4.517  0.2957 -0.0115  0.7646
  916MOL0     C26288   9.920   3.770   4.632 -0.3470 -0.7478  0.8773
  916MOL0     C26289  10.007   3.787   4.732 -0.4915 -0.4414  0.6072
  916MOL0     C26290   9.976   3.723   4.856  0.0067  1.0589 -0.0514
  916MOL0     C26291   9.999   3.575   4.869  0.9277  0.4759  0.8647
  916MOL0     C26292  10.150   3.540   4.854 -0.0417  0.0942 -0.6383
  916MOL0     C26293  10.248   3.582   4.970  0.7055 -0.0459  0.5518
  916MOL0     O26294  10.195   3.532   5.094 -0.0821  0.1021  0.4785
  916MOL0     C26295  10.282   3.551   5.194  0.3138 -0.3285 -0.0480
  916MOL0     C26296  10.398   3.485   5.210  0.2074 -0.9660  0.1004
  916MOL0     C26297  10.490   3.514   5.308  0.7442  0.1331  1.1285
  916MOL0     C26298  10.621   3.434   5.295  0.0607  0.5427 -0.1735
  916MOL0     C26299  10.456   3.608   5.402  0.0253  0.8829 -0.2383
  916MOL0     C26300  10.554   3.657   5.502 -0.0305  0.5508  0.4790
  916MOL0     O26301  10.512   3.744   5.598 -0.0341  0.0804 -0.4347
  916MOL0     C26302  10.589   3.781   5.708 -0.1568  1.0386  0.1243
  916MOL0     C26303  10.727   3.777   5.726 -0.0709 -1.1015 -0.0298
  916MOL0     C26304  10.781   3.807   5.847 -0.6945  0.3903  0.2108
  916MOL0     C26305  10.706   3.860   5.957  0.1154 -0.0937  0.4840
  916MOL0     O26306  10.775   3.894   6.070 -0.2834  0.0190 -0.3130
  916MOL0     C26307  10.704   3.954   6.175 -0.0619 -0.0058 -0.5777
  916MOL0     C26308  10.670   4.098   6.162 -0.8634 -0.0633 -0.4250
  916MOL0     C26309  10.579   4.140   6.281  0.9807 -0.1516 -0.7229
  916MOL0     C26310  10.563   4.290   6.285  0.1724  0.6615 -0.6259
  916MOL0     C26311  10.484   4.330   6.411 -0.4415 -0.4077  0.5140
  916MOL0     C26312  10.538   4.466   6.456 -0.3415 -0.7643 -1.1735
  916MOL0     C26313  10.455   4.542   6.568 -1.1145 -0.1796  0.3327
  916MOL0     C26314  10.477   4.474   6.707 -0.0399  0.7480  0.9394
  916MOL0    Cl26315  10.388   4.548   6.838  0.2728  0.2161  0.3456
  916MOL0     C26316  10.565   3.871   5.939 -0.6910  0.0374  0.3506
  916MOL0     C26317  10.510   3.837   5.819 -0.5326  0.8366 -0.4576
  916MOL0     O26318  10.665   3.605   5.495  0.2285 -0.1809 -0.5798
  916MOL0     C26319  10.330   3.668   5.403  0.1857  0.1678 -0.0669
  916MOL0     C26320  10.241   3.639   5.296  0.1245 -0.0657  0.1763
  916MOL0     N26321  10.129   3.830   4.677 -0.0832  0.2818 -0.4774
  916MOL0     N26322  10.115   3.841   4.553  0.4978  0.1913 -1.4211
  916MOL0     C26323   9.815   4.799   4.324 -0.2531 -0.2467 -0.2262
  916MOL0     C26324   9.780   4.926   4.364 -0.3141 -0.7102  0.3509
  916MOL0     C26325   9.823   5.387   4.425 -0.0189  0.5444 -0.1414
  916MOL0     C26326   9.918   5.482   4.473 -0.0686  0.2449  0.3866
  916MOL0     C26327   9.883   5.617   4.491 -0.0716  0.5070  0.8480
  916MOL0     C26328   9.756   5.664   4.458  0.6386 -1.0334  0.2072
  916MOL0     O26329   9.728   5.795   4.479 -1.0581  0.2952  0.5261
  916MOL0     C26330   9.660   5.863   4.376 -0.2442 -0.0400  0.7509
  916MOL0     C26331   9.631   6.006   4.413 -0.2019 -1.4005 -0.4659
  916MOL0     C26332   9.560   6.075   4.298 -0.2003  0.4364 -0.1291
  916MOL0     C26333   9.511   6.214   4.330  0.3795 -0.0875 -0.2752
  916MOL0     C26334   9.620   6.294   4.387 -0.5050  0.7836  0.3942
  916MOL0     C26335   9.706   6.366   4.436 -0.1651 -0.1679  0.3508
  916MOL0     C26336   9.658   5.572   4.422  0.9705 -0.0297  0.2171
  916MOL0     C26337   9.690   5.435   4.407 -0.0028  0.4527  0.7538
  916MOL0     C26338   9.577   5.345   4.375  0.0601  0.1373 -0.0679
  916MOL0     H26339   9.973   5.092   4.130  0.6509  0.2341  0.0170
  916MOL0     H26340  10.028   4.844   4.069  0.3158 -2.2859  1.6118
  916MOL0     H26341   9.854   4.530   4.343  0.5795 -0.8135 -0.0556
  916MOL0     H26342  10.002   4.606   4.381 -2.6656  1.8101  1.2054
  916MOL0     H26343  10.132   4.463   4.242 -0.2741  2.6935  0.0583
  916MOL0     H26344  10.053   4.386   4.374  1.0487  1.5801 -0.0010
  916MOL0     H26345   9.888   4.283   4.248  1.5853  0.3531  1.2358
  916MOL0     H26346   9.899   4.390   4.099 -1.7298 -1.1796 -0.1860
  916MOL0     H26347   9.959   4.155   4.056  2.0077 -1.2940 -1.4240
  916MOL0     H26348  10.101   4.265   4.047  1.4444 -2.3273 -0.6913
  916MOL0     H26349  10.179   4.193   4.275  0.5850 -1.1908  0.3579
  916MOL0     H26350  10.177   4.071   4.156  1.6489  0.7979  0.4381
  916MOL0     H26351  10.056   4.065   4.409  0.2463 -0.7494 -0.3412
  916MOL0     H26352   9.912   4.051   4.294 -0.4082 -4.2657 -1.8437
  916MOL0     H26353  10.145   3.873   4.297 -0.1112  2.1276  1.1033
  916MOL0     H26354  10.002   3.875   4.185 -3.7275 -0.5116  1.1091
  916MOL0     H26355   9.851   3.851   4.367  0.1096 -0.6048 -2.8656
  916MOL0     H26356   9.953   3.701   4.346 -0.1873 -1.3452  2.6168
  916MOL0     H26357   9.821   3.725   4.629 -0.5793 -0.2200  0.2367
  916MOL0     H26358   9.874   3.753   4.881  0.2370  1.5323  0.3481
  916MOL0     H26359  10.041   3.770   4.930  0.7895 -0.8919  0.5445
  916MOL0     H26360   9.962   3.525   4.959  0.9775 -2.4506 -0.6316
  916MOL0     H26361   9.938   3.521   4.796 -1.6062  1.2393  2.2834
  916MOL0     H26362  10.151   3.430   4.853 -1.1274  0.0581 -2.0581
  916MOL0     H26363  10.180   3.567   4.752 -0.7059 -1.3644 -1.2634
  916MOL0     H26364  10.348   3.545   4.946  0.6837  1.6580 -2.7748
  916MOL0     H26365  10.251   3.692   4.970 -0.1157 -0.0065 -0.1912
  916MOL0     H26366  10.421   3.416   5.130 -0.7280  2.2708 -3.1976
  916MOL0     H26367  10.623   3.373   5.204  1.4972  1.1139 -0.5504
  916MOL0     H26368  10.639   3.377   5.387  0.7185  1.5007  0.3122
  916MOL0     H26369  10.706   3.500   5.278 -1.3892  2.0552 -2.0697
  916MOL0     H26370  10.800   3.745   5.652 -2.2177 -0.4763 -2.5546
  916MOL0     H26371  10.889   3.796   5.850 -0.8149 -1.0141 -0.1788
  916MOL0     H26372  10.612   3.898   6.195  0.7607 -1.2727 -0.2041
  916MOL0     H26373  10.771   3.942   6.261  0.4323  1.5092 -0.7276
  916MOL0     H26374  10.763   4.155   6.166  0.2261 -1.8289  1.5858
  916MOL0     H26375  10.615   4.122   6.070 -2.0142  1.6665  0.6460
  916MOL0     H26376  10.624   4.102   6.372 -0.3396 -1.3446 -0.5253
  916MOL0     H26377  10.483   4.089   6.268 -0.1947  1.7579  0.0369
  916MOL0     H26378  10.521   4.324   6.190  1.4234  0.6770 -1.1937
  916MOL0     H26379  10.666   4.327   6.286  0.5702 -0.2989 -2.0042
  916MOL0     H26380  10.376   4.316   6.406 -0.3693 -0.9411  0.2788
  916MOL0     H26381  10.522   4.260   6.487  0.6024 -0.9060 -0.4325
  916MOL0     H26382  10.552   4.535   6.372  0.4352  2.4223  1.3886
  916MOL0     H26383  10.639   4.448   6.494 -0.2102 -0.5751 -1.4289
  916MOL0     H26384  10.349   4.539   6.542 -1.4967  3.0604  0.9737
  916MOL0     H26385  10.488   4.646   6.576 -0.8814  0.1868 -3.4192
  916MOL0     H26386  10.585   4.473   6.722 -0.1873 -0.5496  2.1209
  916MOL0     H26387  10.431   4.376   6.691  1.0674  0.5904 -1.7258
  916MOL0     H26388  10.499   3.913   6.014  1.1745  3.1625  0.4151
  916MOL0     H26389  10.404   3.844   5.799 -0.0664  0.5606 -3.6261
  916MOL0     H26390  10.312   3.739   5.482 -0.4803  0.8931 -0.8555
  916MOL0     H26391  10.142   3.682   5.291  0.1753 -0.0133 -0.3457
  916MOL0     H26392   9.768   4.722   4.384 -1.5779  1.4743  1.0352
  916MOL0     H26393   9.707   4.959   4.438 -2.5454 -2.0746 -1.1171
  916MOL0     H26394  10.021   5.449   4.483 -0.5661 -2.3229 -1.7481
  916MOL0     H26395   9.965   5.684   4.517  0.3535  1.2023 -1.8873
  916MOL0     H26396   9.708   5.860   4.278 -4.4906  1.4163 -1.6288
  916MOL0     H26397   9.568   5.809   4.353 -1.1106 -0.3865  4.3531
  916MOL0     H26398   9.724   6.058   4.439  0.8926 -2.7048 -1.5985
  916MOL0     H26399   9.557   6.018   4.492 -2.0321 -1.1826 -2.1463
  916MOL0     H26400   9.631   6.088   4.216  1.7663  2.0091  1.6885
  916MOL0     H26401   9.477   6.014   4.263  0.9905 -0.7221 -1.0249
  916MOL0     H26402   9.428   6.212   4.401  0.1845 -0.0553 -0.4998
  916MOL0     H26403   9.465   6.268   4.247  0.7779 -0.4893 -0.7626
  916MOL0     H26404   9.766   6.435   4.492 -0.8344 -1.5881  3.0243
  916MOL0     H26405   9.560   5.615   4.405  0.3713 -0.4889  2.2850
  916MOL0     H26406   9.552   5.341   4.269 -2.5040 -1.5524  0.5028
  916MOL0     H26407   9.603   5.246   4.415 -1.5188 -0.5650 -0.7034
  916MOL0     H26408   9.484   5.387   4.417  0.0262  2.2754 -2.0710
  917MOL0     O26409   6.816  10.168   3.862  0.2440  0.0069 -0.1278
  917MOL0     C26410   6.901  10.211   3.935  0.6597 -0.5402  0.5776
  917MOL0     O26411   7.023  10.156   3.956  0.2778  0.7483 -1.0662
  917MOL0     C26412   7.061  10.032   3.915  0.0494  0.8475 -0.6568
  917MOL0     C26413   7.200  10.013   3.892 -0.1337 -0.6757 -0.2546
  917MOL0     C26414   7.256   9.891   3.856  0.6558  0.0694 -0.3941
  917MOL0     C26415   7.174   9.780   3.835  0.0309  0.5897 -0.3234
  917MOL0     O26416   7.228   9.667   3.789 -0.3388  0.3805 -0.4464
  917MOL0     C26417   7.354   9.615   3.831  0.0300 -0.8621  0.4267
  917MOL0     C26418   7.356   9.529   3.961 -0.5113  0.0930  0.5931
  917MOL0     C26419   7.264   9.580   4.074 -0.5401  0.1912 -0.2199
  917MOL0     C26420   7.318   9.527   4.212  0.1430  0.0029  0.0478
  917MOL0     C26421   7.335   9.641   4.312  0.5496  0.8366  0.3620
  917MOL0     C26422   7.402   9.581   4.440  0.2983  0.6367  0.5115
  917MOL0     C26423   7.423   9.698   4.541  0.7228 -0.1822 -0.4423
  917MOL0     C26424   7.487   9.636   4.678 -0.2381 -0.9694 -0.6178
  917MOL0     N26425   7.607   9.712   4.727  0.3529 -0.2039  0.4303
  917MOL0     C26426   7.725   9.715   4.665 -1.0945  0.2295 -0.3270
  917MOL0     C26427   7.817   9.749   4.761 -0.1033 -0.2012  0.1618
  917MOL0     C26428   7.961   9.790   4.738  0.2172 -0.0788 -0.0574
  917MOL0     C26429   8.051   9.709   4.833  1.3125 -0.6712 -0.3599
  917MOL0     C26430   8.046   9.563   4.797 -0.6889  0.0143  0.1909
  917MOL0     C26431   8.140   9.493   4.892  1.5925 -0.0079  0.0948
  917MOL0     O26432   8.273   9.512   4.838  0.4559  0.6842 -0.0786
  917MOL0     C26433   8.391   9.459   4.890  0.4458 -0.8280 -0.4192
  917MOL0     C26434   8.387   9.369   5.005  0.1865 -0.8231  0.4156
  917MOL0     C26435   8.506   9.308   5.051 -0.4580 -0.0622  0.1654
  917MOL0     C26436   8.491   9.209   5.163  0.1791  0.0590  1.2100
  917MOL0     C26437   8.630   9.343   5.002  0.4975 -0.5411 -0.1656
  917MOL0     C26438   8.759   9.281   5.045  0.1091  0.4071 -1.0379
  917MOL0     O26439   8.866   9.359   5.039  0.2744  0.6060  0.0292
  917MOL0     C26440   8.992   9.317   5.043 -0.2996 -0.6440 -0.9064
  917MOL0     C26441   9.088   9.375   4.960 -0.5169 -0.2826  0.3272
  917MOL0     C26442   9.216   9.325   4.955 -1.0679 -0.1162 -0.1910
  917MOL0     C26443   9.262   9.226   5.047  0.1562 -0.2383  0.2927
  917MOL0     O26444   9.388   9.185   5.027  0.2595  0.0242  0.6378
  917MOL0     C26445   9.453   9.086   5.110 -0.3224 -0.1498 -1.0010
  917MOL0     C26446   9.565   9.014   5.036 -0.4680 -0.4985  1.5086
  917MOL0     C26447   9.674   9.116   4.989 -0.1221  0.1050 -0.2557
  917MOL0     C26448   9.693   9.151   4.845 -0.0243  0.4160 -0.4879
  917MOL0     C26449   9.770   9.273   4.800  0.2555 -0.3590 -0.0464
  917MOL0     C26450   9.907   9.281   4.855 -0.0427  0.0507 -0.0989
  917MOL0     C26451   9.989   9.179   4.787 -0.4707  0.6207 -0.5058
  917MOL0     C26452  10.140   9.188   4.829 -0.1798  0.3663 -0.2038
  917MOL0    Cl26453  10.169   9.159   5.001  0.2211 -0.1681 -0.1595
  917MOL0     C26454   9.170   9.175   5.140  0.2403 -0.8422 -0.4050
  917MOL0     C26455   9.041   9.217   5.137  0.4591  0.4068  0.0178
  917MOL0     O26456   8.762   9.162   5.067  0.3426  0.1842 -0.7854
  917MOL0     C26457   8.628   9.430   4.889  0.4024  0.5221  0.2118
  917MOL0     C26458   8.514   9.479   4.828  0.4052 -0.4232  0.0359
  917MOL0     N26459   7.746   9.766   4.882  0.0734 -0.5190  0.5426
  917MOL0     N26460   7.626   9.754   4.850  0.5453 -0.2420 -0.9047
  917MOL0     C26461   7.040   9.801   3.842 -1.0506  0.3299 -0.2251
  917MOL0     C26462   6.980   9.923   3.880  1.1155 -0.0871 -0.0515
  917MOL0     C26463   6.874  10.348   4.006 -0.5693 -0.0224 -0.3802
  917MOL0     C26464   6.994  10.413   4.060  0.2881 -0.2761  1.2582
  917MOL0     C26465   6.980  10.535   4.124  0.2469  0.1663  0.2213
  917MOL0     C26466   6.854  10.601   4.141 -1.1435 -0.3989 -0.4153
  917MOL0     O26467   6.847  10.726   4.199 -0.6409  0.0628  0.2749
  917MOL0     C26468   6.750  10.748   4.294 -0.2623 -0.0874  0.1028
  917MOL0     C26469   6.800  10.847   4.395 -0.2712  0.3878 -0.0836
  917MOL0     C26470   6.793  10.998   4.344 -0.6753  1.4431  0.2748
  917MOL0     C26471   6.863  11.093   4.434 -0.8010 -1.1450  0.0323
  917MOL0     C26472   6.811  11.084   4.567 -0.3594 -0.2762 -1.4632
  917MOL0     C26473   6.762  11.074   4.682 -0.6164  0.5043 -0.1415
  917MOL0     C26474   6.741  10.533   4.105  0.7255  0.5996  1.2269
  917MOL0     C26475   6.748  10.414   4.025 -0.5924  0.0755 -0.0911
  917MOL0     C26476   6.619  10.356   3.955 -0.5091  0.2797 -0.1222
  917MOL0     H26477   7.264  10.100   3.903  0.1380 -0.7721 -1.0028
  917MOL0     H26478   7.364   9.885   3.845  0.6809  0.4235 -0.3528
  917MOL0     H26479   7.424   9.697   3.845 -0.7077 -0.6601  3.7960
  917MOL0     H26480   7.396   9.547   3.757  1.1075 -2.2590  2.2217
  917MOL0     H26481   7.350   9.424   3.930 -1.2801  0.2638  0.1574
  917MOL0     H26482   7.454   9.536   4.009  1.4347  0.2153 -3.0774
  917MOL0     H26483   7.273   9.689   4.087  2.7085 -0.1732  1.6864
  917MOL0     H26484   7.160   9.550   4.059 -1.1411  0.5472  2.5800
  917MOL0     H26485   7.260   9.448   4.259  0.2050  0.7352  1.4126
  917MOL0     H26486   7.418   9.484   4.198  0.6443  1.9501 -3.7494
  917MOL0     H26487   7.238   9.683   4.336 -0.4831 -1.7827  1.1852
  917MOL0     H26488   7.408   9.711   4.270  2.0890  0.1411  1.7411
  917MOL0     H26489   7.344   9.499   4.482  1.9111 -1.4179 -1.0497
  917MOL0     H26490   7.499   9.540   4.410  0.0727 -0.2812  1.0000
  917MOL0     H26491   7.326   9.745   4.558  0.6290 -0.4543 -0.1955
  917MOL0     H26492   7.481   9.777   4.494 -2.8486  2.4303 -0.8953
  917MOL0     H26493   7.410   9.625   4.755  0.5520  0.3996  0.4156
  917MOL0     H26494   7.527   9.541   4.641 -1.0367 -0.5027 -2.8413
  917MOL0     H26495   7.753   9.713   4.560 -1.2055 -2.5197 -0.3867
  917MOL0     H26496   7.961   9.890   4.782  0.2196 -1.1257  2.4723
  917MOL0     H26497   7.986   9.780   4.631 -0.6926 -1.1997 -0.1839
  917MOL0     H26498   8.154   9.745   4.831  0.6600  1.5531  1.4224
  917MOL0     H26499   8.018   9.728   4.936 -0.5504 -1.2312 -0.8211
  917MOL0     H26500   7.945   9.526   4.818  0.4575 -2.2365  2.3957
  917MOL0     H26501   8.066   9.540   4.692 -2.0093  1.5764 -0.4397
  917MOL0     H26502   8.131   9.538   4.991 -2.1208 -1.6544  0.6902
  917MOL0     H26503   8.112   9.388   4.905  0.1588  0.4610  1.0910
  917MOL0     H26504   8.292   9.330   5.041  0.7176 -2.7512 -0.1129
  917MOL0     H26505   8.402   9.226   5.225 -1.6832  0.2181 -1.3201
  917MOL0     H26506   8.580   9.195   5.225  1.2147 -2.1591 -0.6219
  917MOL0     H26507   8.480   9.109   5.119 -0.8591  0.9771 -0.7572
  917MOL0     H26508   9.048   9.454   4.898 -0.1162 -0.7261 -0.5189
  917MOL0     H26509   9.281   9.374   4.883  0.3184 -0.1451  0.9979
  917MOL0     H26510   9.506   9.134   5.192 -0.3656  0.0333 -1.0812
  917MOL0     H26511   9.389   9.004   5.145 -0.4205 -0.3528 -1.6540
  917MOL0     H26512   9.610   8.936   5.097 -1.8238 -3.0885 -0.6026
  917MOL0     H26513   9.531   8.970   4.941 -0.4104  1.8315  0.3212
  917MOL0     H26514   9.774   9.079   5.014  1.4819  3.4473 -1.2229
  917MOL0     H26515   9.654   9.205   5.049 -0.3195  0.4405 -0.8151
  917MOL0     H26516   9.597   9.162   4.792 -0.2370  4.4664  0.4613
  917MOL0     H26517   9.729   9.060   4.795  1.0158 -0.3352  1.5358
  917MOL0     H26518   9.774   9.283   4.691 -1.8294  0.0869 -0.1057
  917MOL0     H26519   9.714   9.360   4.835 -0.1831 -0.1351 -1.2612
  917MOL0     H26520   9.904   9.262   4.963 -1.9047  1.0541  0.0628
  917MOL0     H26521   9.943   9.383   4.842  0.7534  0.0965  2.0965
  917MOL0     H26522   9.979   9.168   4.679  1.0227  0.6471 -0.6707
  917MOL0     H26523   9.963   9.080   4.825 -0.2553  1.5464  2.3016
  917MOL0     H26524  10.186   9.281   4.796 -1.9011  0.9453 -1.0867
  917MOL0     H26525  10.199   9.112   4.777 -0.1738  1.1169 -1.3105
  917MOL0     H26526   9.196   9.116   5.228 -0.9528 -0.2358  0.3817
  917MOL0     H26527   8.964   9.189   5.208  0.0681  2.9654  0.6889
  917MOL0     H26528   8.723   9.448   4.840  0.6307  0.6911  0.7171
  917MOL0     H26529   8.522   9.543   4.741 -0.1404 -0.7261 -0.2506
  917MOL0     H26530   6.990   9.708   3.817 -0.3023 -0.2028  0.2363
  917MOL0     H26531   6.873   9.934   3.895  1.6433  4.5571  2.1281
  917MOL0     H26532   7.089  10.361   4.065 -0.0163 -0.9257  0.5406
  917MOL0     H26533   7.076  10.583   4.144  0.2298  1.2214 -1.9620
  917MOL0     H26534   6.654  10.772   4.246 -0.9734 -1.8330  0.5721
  917MOL0     H26535   6.719  10.652   4.337  0.6039  0.1975  1.3825
  917MOL0     H26536   6.904  10.825   4.421 -0.1576  0.4088 -0.5062
  917MOL0     H26537   6.737  10.831   4.482  0.9883  3.7727  1.6116
  917MOL0     H26538   6.831  11.016   4.242 -2.9785 -0.1701 -0.9510
  917MOL0     H26539   6.688  11.020   4.319 -0.9442  0.6859  0.7318
  917MOL0     H26540   6.860  11.192   4.389  0.6569 -1.2612 -0.3733
  917MOL0     H26541   6.969  11.070   4.429 -0.4033  0.8035 -3.5868
  917MOL0     H26542   6.709  11.065   4.774  0.0582 -0.1825  0.1820
  917MOL0     H26543   6.641  10.575   4.111  0.1750 -0.5423  0.4178
  917MOL0     H26544   6.525  10.403   3.987 -1.7846 -1.8430 -0.5673
  917MOL0     H26545   6.636  10.354   3.847 -2.6079  0.5714 -0.5046
  917MOL0     H26546   6.597  10.254   3.988  0.7611  0.4026  1.2231
  918MOL0     O26547   5.709   8.126   1.960 -0.4461 -0.7536 -0.1043
  918MOL0     C26548   5.629   8.037   1.944  0.9560  0.7027 -0.3215
  918MOL0     O26549   5.650   7.910   1.908  0.5580 -0.6950  0.2437
  918MOL0     C26550   5.778   7.906   1.849  0.4176 -0.3422  0.6988
  918MOL0     C26551   5.797   7.938   1.709  0.2082 -0.6130 -0.7221
  918MOL0     C26552   5.924   7.930   1.651  0.3273 -0.4967 -0.5446
  918MOL0     C26553   6.033   7.889   1.716 -0.3349 -0.1884  0.1848
  918MOL0     O26554   6.150   7.892   1.637  0.0550  0.2564 -0.5261
  918MOL0     C26555   6.279   7.871   1.696  0.5506  0.3348  0.9328
  918MOL0     C26556   6.412   7.919   1.631  0.9242  0.0256  0.6454
  918MOL0     C26557   6.391   8.023   1.521  0.0247  1.0666 -0.7336
  918MOL0     C26558   6.345   7.954   1.391  0.0205 -0.2591  0.0456
  918MOL0     C26559   6.269   8.050   1.297  0.0243 -0.0830  0.0469
  918MOL0     C26560   6.196   7.982   1.189 -0.3207  0.2257 -0.2076
  918MOL0     C26561   6.062   8.048   1.133 -0.1345 -0.7032 -0.1435
  918MOL0     C26562   6.090   8.163   1.038  0.4049 -0.9788 -0.5445
  918MOL0     N26563   5.974   8.199   0.950 -0.1382 -0.6287  0.1188
  918MOL0     C26564   5.860   8.263   0.976 -0.1514 -0.1766 -0.0586
  918MOL0     C26565   5.789   8.243   0.864  0.0590 -0.7435 -0.3850
  918MOL0     C26566   5.650   8.294   0.844 -0.2635  0.0145 -0.9188
  918MOL0     C26567   5.540   8.187   0.864 -0.4434  0.6920  0.4384
  918MOL0     C26568   5.525   8.103   0.733  0.0544  0.2289  0.1387
  918MOL0     C26569   5.409   7.995   0.743 -0.0664  0.3872 -0.0510
  918MOL0     O26570   5.292   8.065   0.793 -0.3206 -0.0901 -0.3556
  918MOL0     C26571   5.180   8.001   0.842 -0.2372  0.6585 -0.0115
  918MOL0     C26572   5.163   7.858   0.847 -0.1161  0.3589 -0.4095
  918MOL0     C26573   5.041   7.803   0.884  0.1072 -0.4842  0.0916
  918MOL0     C26574   5.048   7.654   0.916  0.1621 -1.1192  0.2642
  918MOL0     C26575   4.929   7.884   0.906  0.4418 -0.1696 -0.2635
  918MOL0     C26576   4.798   7.832   0.949  0.5542  0.8203 -0.5468
  918MOL0     O26577   4.730   7.897   1.047 -0.0737 -0.6792  0.6566
  918MOL0     C26578   4.600   7.875   1.079 -0.3149 -0.0823  0.3348
  918MOL0     C26579   4.518   7.768   1.050 -1.0472 -0.1563 -0.1231
  918MOL0     C26580   4.386   7.764   1.093 -0.1138  0.5026 -0.9350
  918MOL0     C26581   4.331   7.868   1.167 -0.0509 -0.1130  0.4924
  918MOL0     O26582   4.200   7.851   1.218 -0.5170 -0.4030  1.0596
  918MOL0     C26583   4.143   7.963   1.293 -0.3768 -0.0610  0.3654
  918MOL0     C26584   4.001   7.931   1.326  0.6599  0.7249 -0.3121
  918MOL0     C26585   3.916   8.050   1.384 -0.0690 -0.2023  1.3602
  918MOL0     C26586   3.931   8.041   1.534 -0.0139  0.2460 -0.1523
  918MOL0     C26587   3.852   8.168   1.592  0.5433  0.0131 -1.5239
  918MOL0     C26588   3.708   8.140   1.610 -1.0241 -0.2232  0.7582
  918MOL0     C26589   3.617   8.256   1.640  0.0238  0.0196  0.3298
  918MOL0     C26590   3.647   8.340   1.760 -0.2466 -0.8409  0.1076
  918MOL0    Cl26591   3.642   8.255   1.924 -0.1591 -0.3215  0.2064
  918MOL0     C26592   4.415   7.982   1.189 -0.0782  0.1203 -0.6567
  918MOL0     C26593   4.549   7.980   1.147  0.9502  0.8207 -0.0618
  918MOL0     O26594   4.751   7.733   0.889  0.2407  0.8037  0.4878
  918MOL0     C26595   4.940   8.025   0.897 -0.3044 -0.7742  0.1638
  918MOL0     C26596   5.067   8.079   0.865 -0.5506  0.7546  0.2801
  918MOL0     N26597   5.878   8.190   0.764  1.4837  0.1243 -0.0471
  918MOL0     N26598   5.991   8.168   0.817 -0.3845 -0.2443 -0.0520
  918MOL0     C26599   6.017   7.841   1.846 -0.0232  0.4509 -0.5600
  918MOL0     C26600   5.891   7.840   1.908  0.5746 -0.0071 -0.1455
  918MOL0     C26601   5.494   8.095   1.922  0.5818 -0.8184  0.5557
  918MOL0     C26602   5.488   8.221   1.857  0.9163  0.2305 -0.0422
  918MOL0     C26603   5.369   8.288   1.843  0.3397 -0.3276 -1.0208
  918MOL0     C26604   5.249   8.220   1.892  0.3134 -1.2846  0.0643
  918MOL0     O26605   5.135   8.286   1.876 -0.7593 -0.4343 -0.7516
  918MOL0     C26606   5.018   8.251   1.960  0.5815  0.0251  0.0532
  918MOL0     C26607   5.007   8.304   2.104 -0.4082  0.5978 -0.0858
  918MOL0     C26608   4.899   8.236   2.192  0.4971 -0.2768 -0.1728
  918MOL0     C26609   4.859   8.309   2.317 -0.8499 -0.6331 -0.4512
  918MOL0     C26610   4.949   8.409   2.381 -0.6697 -0.8090  0.0746
  918MOL0     C26611   5.016   8.498   2.424  0.1135 -0.0600  0.9561
  918MOL0     C26612   5.260   8.101   1.971  0.9887 -0.1657 -0.6634
  918MOL0     C26613   5.380   8.038   1.971 -0.1500  1.0160 -1.0067
  918MOL0     C26614   5.390   7.909   2.063  0.1881  0.0091  0.5211
  918MOL0     H26615   5.720   7.970   1.640  0.2229  0.0231 -0.4568
  918MOL0     H26616   5.934   7.937   1.543 -0.4414  0.6211 -0.5595
  918MOL0     H26617   6.279   7.765   1.721 -0.4478  0.0058 -0.2939
  918MOL0     H26618   6.279   7.925   1.791 -2.0322 -1.8465  2.3274
  918MOL0     H26619   6.473   7.962   1.711  0.3466 -0.9449  1.6348
  918MOL0     H26620   6.463   7.832   1.589 -0.4023  0.2248 -1.5355
  918MOL0     H26621   6.316   8.099   1.546 -0.6051  0.0310  0.6550
  918MOL0     H26622   6.487   8.070   1.500  0.2412  0.4665 -1.1105
  918MOL0     H26623   6.427   7.914   1.330 -0.4792  0.2758 -0.9933
  918MOL0     H26624   6.266   7.881   1.409 -0.8934 -0.7938 -4.8694
  918MOL0     H26625   6.332   8.132   1.262 -1.6374  0.4825 -1.7528
  918MOL0     H26626   6.194   8.086   1.368  0.5800 -1.6312  1.4947
  918MOL0     H26627   6.256   7.955   1.102  0.5103  2.3319 -0.3429
  918MOL0     H26628   6.159   7.891   1.238  1.2913 -1.2123 -1.5506
  918MOL0     H26629   5.999   8.070   1.220 -0.3417 -3.8217  0.6303
  918MOL0     H26630   6.016   7.979   1.063  1.5991 -0.8778 -1.1672
  918MOL0     H26631   6.123   8.254   1.090  1.2455 -0.1031 -2.5002
  918MOL0     H26632   6.168   8.114   0.980 -1.8964 -3.6664 -1.5420
  918MOL0     H26633   5.824   8.306   1.069 -0.3216 -0.0228 -0.1947
  918MOL0     H26634   5.651   8.321   0.738  1.3140 -3.4666 -1.9497
  918MOL0     H26635   5.630   8.385   0.901 -1.3243 -0.0563 -1.1737
  918MOL0     H26636   5.581   8.114   0.933  1.4442 -1.3143 -2.5760
  918MOL0     H26637   5.443   8.222   0.902 -0.5968 -0.3463  1.0381
  918MOL0     H26638   5.504   8.161   0.642 -2.5235  0.1204  0.5999
  918MOL0     H26639   5.621   8.054   0.714  0.1474  0.1033  0.9274
  918MOL0     H26640   5.400   7.946   0.646  5.0160 -1.8169  0.2652
  918MOL0     H26641   5.436   7.915   0.813 -1.2426 -2.3370 -2.5213
  918MOL0     H26642   5.243   7.790   0.822 -1.5719 -1.5749 -0.0077
  918MOL0     H26643   5.018   7.636   1.019 -0.4775  0.4113  0.3815
  918MOL0     H26644   5.149   7.614   0.900  1.7312  2.3739  0.5008
  918MOL0     H26645   4.986   7.599   0.845  1.3013 -0.6579 -1.1543
  918MOL0     H26646   4.563   7.678   1.009  2.1323  0.4202  1.7822
  918MOL0     H26647   4.319   7.679   1.080 -0.5794  0.7561 -0.2499
  918MOL0     H26648   4.194   7.977   1.389  1.2258  1.8623 -0.6980
  918MOL0     H26649   4.146   8.051   1.229 -3.5705  0.7960  1.2195
  918MOL0     H26650   3.949   7.892   1.238  2.1205 -0.4441 -0.7041
  918MOL0     H26651   4.003   7.848   1.396 -2.4774  2.3884  1.9743
  918MOL0     H26652   3.814   8.048   1.346  0.8069 -3.4752 -1.2782
  918MOL0     H26653   3.955   8.144   1.343  0.4909 -1.3789 -0.9946
  918MOL0     H26654   4.038   8.038   1.557 -0.5655 -1.3025  2.6745
  918MOL0     H26655   3.880   7.951   1.568  2.3577 -0.3958  1.9397
  918MOL0     H26656   3.892   8.200   1.689 -3.6517 -0.8262  0.7307
  918MOL0     H26657   3.869   8.257   1.531 -0.6246  0.7359 -0.8307
  918MOL0     H26658   3.695   8.068   1.692  1.4541  0.6756  2.0632
  918MOL0     H26659   3.672   8.100   1.515  1.3805  1.1715 -0.8634
  918MOL0     H26660   3.513   8.227   1.656  0.0585  0.2507  1.0180
  918MOL0     H26661   3.615   8.325   1.555 -1.5082 -0.8141 -0.3449
  918MOL0     H26662   3.580   8.425   1.748  1.9849  0.9494 -0.5324
  918MOL0     H26663   3.748   8.374   1.733  0.9769 -4.0996  0.1511
  918MOL0     H26664   4.373   8.075   1.225 -0.6419 -0.3450 -0.0654
  918MOL0     H26665   4.619   8.063   1.151  0.9981  0.7122  2.2189
  918MOL0     H26666   4.859   8.095   0.916  0.4514 -0.0288  0.7434
  918MOL0     H26667   5.073   8.187   0.866  0.9115  0.7043 -0.4188
  918MOL0     H26668   6.096   7.822   1.917 -1.0551  2.9404  1.4158
  918MOL0     H26669   5.878   7.803   2.009  0.2780  2.3612  0.7465
  918MOL0     H26670   5.581   8.264   1.823  1.8491 -0.1082  1.9092
  918MOL0     H26671   5.357   8.382   1.790 -2.5730  0.9896  1.6146
  918MOL0     H26672   4.933   8.295   1.909  0.4551  0.0190  0.2572
  918MOL0     H26673   4.998   8.143   1.953 -0.9415  0.3431 -5.4815
  918MOL0     H26674   4.981   8.410   2.098 -1.1359  0.5926  2.1213
  918MOL0     H26675   5.105   8.302   2.150  0.0870  1.7290 -1.0527
  918MOL0     H26676   4.814   8.203   2.131  0.4300  3.2357 -2.2845
  918MOL0     H26677   4.946   8.148   2.238 -2.4457 -1.1479  1.3998
  918MOL0     H26678   4.845   8.230   2.391  2.0966  0.2686  1.2411
  918MOL0     H26679   4.762   8.358   2.313  0.3909  2.0637 -0.0710
  918MOL0     H26680   5.067   8.572   2.482  1.0482 -0.3323  0.5038
  918MOL0     H26681   5.179   8.056   2.027  1.5107  0.5414  0.7102
  918MOL0     H26682   5.294   7.875   2.101  0.2620 -1.3038 -0.3807
  918MOL0     H26683   5.427   7.833   1.993  0.4417  0.5907  0.0172
  918MOL0     H26684   5.459   7.921   2.147 -1.5349 -3.5564  2.6829
  919MOL0     O26685   6.752   7.120   6.978 -0.7192 -0.3184  0.0390
  919MOL0     C26686   6.686   7.097   6.872 -0.2438  0.1215  0.5610
  919MOL0     O26687   6.728   7.148   6.747 -0.2621  0.4010 -0.5702
  919MOL0     C26688   6.849   7.209   6.747  0.0094 -0.2322  1.0619
  919MOL0     C26689   6.869   7.349   6.754 -0.1049  0.3315 -0.2606
  919MOL0     C26690   6.998   7.399   6.734 -0.5727  0.1209 -0.3120
  919MOL0     C26691   7.110   7.316   6.710 -0.3659  0.5583  0.0582
  919MOL0     O26692   7.245   7.352   6.705 -0.1750  0.0381 -0.3136
  919MOL0     C26693   7.269   7.479   6.645  0.1534 -0.7908 -0.5426
  919MOL0     C26694   7.410   7.498   6.605 -0.0607 -0.4375  0.3502
  919MOL0     C26695   7.442   7.647   6.617  0.1905  0.0219 -0.0434
  919MOL0     C26696   7.589   7.672   6.589 -0.0626  0.5622  0.0189
  919MOL0     C26697   7.671   7.682   6.714  0.5541 -0.0276 -0.5536
  919MOL0     C26698   7.814   7.718   6.677 -0.6359 -0.3799  0.0266
  919MOL0     C26699   7.887   7.717   6.807 -0.4743  0.1190 -0.0039
  919MOL0     C26700   8.033   7.761   6.783  0.1066  0.8755  0.4688
  919MOL0     N26701   8.052   7.886   6.846  0.3555  0.8276 -0.1713
  919MOL0     C26702   7.975   7.991   6.825 -0.2544 -0.0806 -1.2766
  919MOL0     C26703   8.020   8.080   6.915 -0.0421  0.3705 -0.2300
  919MOL0     C26704   7.983   8.231   6.931  0.0281  0.3421 -0.0416
  919MOL0     C26705   8.067   8.311   7.026 -0.0563 -0.1178 -0.2934
  919MOL0     C26706   8.047   8.460   7.019 -0.5697 -0.2082  0.3309
  919MOL0     C26707   8.159   8.544   7.097 -1.3261 -0.3032  0.3933
  919MOL0     O26708   8.290   8.527   7.018 -0.2093  0.2593 -0.4496
  919MOL0     C26709   8.392   8.593   7.077 -0.3957 -0.2684  0.8498
  919MOL0     C26710   8.393   8.669   7.194 -0.5199 -0.0772  0.6849
  919MOL0     C26711   8.511   8.729   7.247  0.0085 -0.3092 -0.3788
  919MOL0     C26712   8.486   8.810   7.370 -0.4120 -0.1777  0.2467
  919MOL0     C26713   8.632   8.720   7.175  0.4451  0.1573  0.2306
  919MOL0     C26714   8.761   8.775   7.225  0.8442 -0.1517 -1.6559
  919MOL0     O26715   8.862   8.755   7.137 -0.5041  0.2337  0.3538
  919MOL0     C26716   8.991   8.804   7.160  0.6428  1.0506 -0.5423
  919MOL0     C26717   9.005   8.935   7.181 -0.8846 -0.0184  0.0384
  919MOL0     C26718   9.127   8.994   7.170 -0.4019  0.5702 -0.4464
  919MOL0     C26719   9.244   8.915   7.143  0.4747 -0.4885 -0.4226
  919MOL0     O26720   9.370   8.970   7.129 -0.0259  0.4987 -0.1242
  919MOL0     C26721   9.376   9.111   7.100 -0.4131  0.7722  0.0988
  919MOL0     C26722   9.516   9.168   7.092 -0.1507  0.0120 -0.3799
  919MOL0     C26723   9.596   9.091   6.978  0.6990 -0.2043 -0.4380
  919MOL0     C26724   9.730   9.166   6.942 -0.0550  0.5759 -0.1214
  919MOL0     C26725   9.817   9.061   6.866  0.0741 -0.4772 -0.4852
  919MOL0     C26726   9.961   9.114   6.841 -0.8311 -0.0938  0.9266
  919MOL0     C26727  10.045   9.014   6.757  0.0732  0.3985  0.0856
  919MOL0     C26728  10.182   9.073   6.741 -0.4281  0.4909  0.4537
  919MOL0    Cl26729  10.270   8.969   6.623  0.0660  0.0620  0.4932
  919MOL0     C26730   9.226   8.779   7.134  0.3426  0.4581 -0.0494
  919MOL0     C26731   9.102   8.720   7.139  0.0115  0.2203  0.7255
  919MOL0     O26732   8.764   8.845   7.331 -0.7127  0.7050 -0.3753
  919MOL0     C26733   8.628   8.639   7.065 -0.5490  0.2195  0.1551
  919MOL0     C26734   8.509   8.579   7.014 -1.0177  1.0432 -0.6134
  919MOL0     N26735   8.119   8.014   6.998  0.3882  0.2067  0.0753
  919MOL0     N26736   8.137   7.900   6.954 -0.2716 -0.2104 -0.6563
  919MOL0     C26737   7.092   7.177   6.718  0.5225 -0.1168 -0.4273
  919MOL0     C26738   6.962   7.127   6.732 -0.0631  0.0396 -0.6342
  919MOL0     C26739   6.564   7.006   6.864  1.0347  1.2894 -0.7187
  919MOL0     C26740   6.531   6.937   6.746  0.6250 -0.4022 -0.6750
  919MOL0     C26741   6.422   6.847   6.744 -0.2697  0.2667  0.6160
  919MOL0     C26742   6.338   6.830   6.849  0.0194  0.5070  0.1107
  919MOL0     O26743   6.230   6.742   6.855 -0.2668 -0.8475 -0.2601
  919MOL0     C26744   6.217   6.641   6.758 -0.1005 -0.7110 -0.5564
  919MOL0     C26745   6.092   6.564   6.767  0.5062 -0.0124  0.1461
  919MOL0     C26746   6.091   6.423   6.703 -0.6843 -0.2334  0.0315
  919MOL0     C26747   5.950   6.380   6.670  0.5520  0.1977  0.1926
  919MOL0     C26748   5.905   6.450   6.551 -0.6642  0.3498 -0.2829
  919MOL0     C26749   5.881   6.506   6.454 -0.1605  0.4047 -0.0052
  919MOL0     C26750   6.376   6.899   6.965  0.5112  0.0841  1.2000
  919MOL0     C26751   6.489   6.980   6.980 -0.6469  0.5282  0.5035
  919MOL0     C26752   6.516   7.026   7.118  0.1039  0.9353  0.5106
  919MOL0     H26753   6.791   7.424   6.765 -0.0647  0.1010  2.0330
  919MOL0     H26754   7.008   7.507   6.736  1.3076  0.0917 -2.9556
  919MOL0     H26755   7.237   7.548   6.724 -2.4080 -2.4515 -0.0063
  919MOL0     H26756   7.203   7.500   6.561 -0.7527  0.4157  0.4283
  919MOL0     H26757   7.477   7.452   6.678 -0.4556  2.3580  2.6781
  919MOL0     H26758   7.435   7.466   6.503  4.9842  1.7073  0.5911
  919MOL0     H26759   7.381   7.705   6.547  1.9388  3.1166  0.8474
  919MOL0     H26760   7.418   7.690   6.715 -1.4324  1.2365 -0.9188
  919MOL0     H26761   7.634   7.592   6.528  0.0724 -2.4956  3.7073
  919MOL0     H26762   7.592   7.767   6.535 -2.3803 -0.1513 -1.5021
  919MOL0     H26763   7.677   7.586   6.767 -0.9308  0.3276  0.3033
  919MOL0     H26764   7.624   7.760   6.774  2.6460  2.2992 -1.7675
  919MOL0     H26765   7.846   7.637   6.612  0.7099 -1.0900  1.5153
  919MOL0     H26766   7.853   7.811   6.635  2.1591 -1.7504 -0.6389
  919MOL0     H26767   7.891   7.619   6.856  2.2814  1.8013  3.6279
  919MOL0     H26768   7.832   7.786   6.870  1.4549  1.0145  0.7790
  919MOL0     H26769   8.101   7.687   6.827 -0.0594  1.3494  1.5442
  919MOL0     H26770   8.049   7.769   6.675 -5.5628 -2.1894 -0.9983
  919MOL0     H26771   7.896   8.002   6.751  1.4960 -1.1545 -3.4200
  919MOL0     H26772   7.876   8.252   6.943  0.5604  3.5445 -0.0368
  919MOL0     H26773   8.014   8.274   6.835  1.1123 -1.6287 -0.6332
  919MOL0     H26774   8.037   8.274   7.125 -1.1020 -0.9545 -0.9006
  919MOL0     H26775   8.172   8.303   6.995 -0.2233 -1.1502 -0.6427
  919MOL0     H26776   8.053   8.505   6.919  2.1237  1.8810  1.3108
  919MOL0     H26777   7.951   8.487   7.064  0.3492 -0.9810  2.8791
  919MOL0     H26778   8.133   8.650   7.089 -0.9632 -0.2356  0.0444
  919MOL0     H26779   8.163   8.515   7.202  0.6745 -2.2293 -0.1321
  919MOL0     H26780   8.300   8.690   7.245 -1.9475  3.7594 -2.9530
  919MOL0     H26781   8.386   8.799   7.415 -0.7247  6.2470  2.2152
  919MOL0     H26782   8.485   8.918   7.350 -1.3735  0.6935  4.0793
  919MOL0     H26783   8.556   8.781   7.448  2.5954 -0.7180 -2.4503
  919MOL0     H26784   8.912   8.989   7.200  0.0574  0.8500  2.7126
  919MOL0     H26785   9.134   9.101   7.189 -0.9478  0.8055 -1.5034
  919MOL0     H26786   9.328   9.136   7.005 -2.4000  2.1682  1.4034
  919MOL0     H26787   9.324   9.158   7.184 -0.6340 -0.9606  0.9756
  919MOL0     H26788   9.523   9.276   7.076 -2.8007  0.5550  1.4785
  919MOL0     H26789   9.566   9.145   7.186 -1.1496  0.8168  0.3644
  919MOL0     H26790   9.531   9.095   6.891  1.0700  1.2769 -0.6829
  919MOL0     H26791   9.623   8.989   7.007  2.8632  0.3924 -0.1689
  919MOL0     H26792   9.783   9.196   7.033  2.4948 -2.3553 -0.4414
  919MOL0     H26793   9.719   9.246   6.870  1.2747  0.5140 -0.4145
  919MOL0     H26794   9.832   8.964   6.916  1.0262 -0.4505 -0.6899
  919MOL0     H26795   9.761   9.045   6.774 -1.6148  0.0466  0.4213
  919MOL0     H26796  10.012   9.124   6.938  0.7049 -1.2271  0.2710
  919MOL0     H26797   9.949   9.211   6.791 -1.0283 -0.1936  0.7807
  919MOL0     H26798   9.997   8.989   6.662 -0.4344  1.0995  0.1445
  919MOL0     H26799  10.067   8.922   6.812  1.9951 -0.3680 -1.8435
  919MOL0     H26800  10.228   9.057   6.839  0.0881 -0.7569  0.0217
  919MOL0     H26801  10.176   9.179   6.714  1.1150  0.9828  1.8630
  919MOL0     H26802   9.306   8.713   7.101  1.6389  1.4746  0.9799
  919MOL0     H26803   9.098   8.613   7.122  0.2415  0.6358 -2.6366
  919MOL0     H26804   8.716   8.620   7.004  0.1039  1.0927  0.8068
  919MOL0     H26805   8.508   8.516   6.926  3.6260 -0.8963  0.3906
  919MOL0     H26806   7.182   7.116   6.725  0.3047 -0.3466  0.7125
  919MOL0     H26807   6.951   7.019   6.736 -1.3910  0.1290 -1.3863
  919MOL0     H26808   6.590   6.952   6.657 -0.8326 -1.1638 -1.8179
  919MOL0     H26809   6.391   6.805   6.649  0.6343  2.3707 -0.6751
  919MOL0     H26810   6.223   6.676   6.655  1.4226 -0.9818 -0.5771
  919MOL0     H26811   6.306   6.580   6.773 -0.3833 -1.1357 -0.5868
  919MOL0     H26812   6.014   6.624   6.719  0.6750  1.0479  1.1262
  919MOL0     H26813   6.056   6.562   6.870  0.7960  1.9671  0.3268
  919MOL0     H26814   6.144   6.437   6.608  1.0156  0.7054  1.0558
  919MOL0     H26815   6.152   6.357   6.765  0.9639  0.2697 -0.9820
  919MOL0     H26816   5.878   6.397   6.751 -1.3073 -0.9575 -1.1734
  919MOL0     H26817   5.950   6.272   6.656 -1.6436 -0.1238  2.0632
  919MOL0     H26818   5.863   6.546   6.356  2.4983 -0.7763 -1.0467
  919MOL0     H26819   6.321   6.874   7.056 -1.6869  0.9246  0.1678
  919MOL0     H26820   6.594   6.961   7.157  0.1479 -0.6539 -1.9740
  919MOL0     H26821   6.542   7.132   7.114  0.7441  0.8013  1.0150
  919MOL0     H26822   6.431   7.006   7.183 -0.4869 -1.0136 -0.7490
  920MOL0     O26823   6.153   4.192   0.554 -0.2956 -0.3565 -0.0584
  920MOL0     C26824   6.133   4.310   0.583  0.4279  0.7758  0.5614
  920MOL0     O26825   6.060   4.356   0.695 -0.3142  0.5653  0.1775
  920MOL0     C26826   6.008   4.244   0.760  0.1671 -1.1176  0.9812
  920MOL0     C26827   5.878   4.198   0.731  0.1156  0.3705 -0.1581
  920MOL0     C26828   5.825   4.089   0.808 -0.5456 -0.0767 -0.2514
  920MOL0     C26829   5.893   4.041   0.918  0.3875  0.3914  0.6213
  920MOL0     O26830   5.826   3.940   0.980  0.2482 -0.4216  0.3212
  920MOL0     C26831   5.900   3.843   1.053 -0.4620 -0.0942  0.5439
  920MOL0     C26832   5.816   3.735   1.116 -0.2129  0.2802 -0.1076
  920MOL0     C26833   5.708   3.696   1.016  0.2549 -0.2391 -0.1777
  920MOL0     C26834   5.632   3.561   1.040 -0.3490  0.3149 -0.4249
  920MOL0     C26835   5.593   3.555   1.190 -0.1580  0.4224 -0.0664
  920MOL0     C26836   5.498   3.436   1.220 -0.3914 -0.2564  0.3938
  920MOL0     C26837   5.512   3.375   1.358 -0.7842 -0.2824  0.0184
  920MOL0     C26838   5.632   3.271   1.373  0.5785  0.9034  0.0009
  920MOL0     N26839   5.763   3.326   1.365 -0.8997 -0.0723 -0.6532
  920MOL0     C26840   5.866   3.296   1.282 -0.1625 -1.0727  0.6597
  920MOL0     C26841   5.976   3.370   1.310 -0.6722  0.4214 -0.2881
  920MOL0     C26842   6.119   3.358   1.249  0.6577 -0.5631  0.2677
  920MOL0     C26843   6.173   3.494   1.204  0.0033 -0.7575 -0.2024
  920MOL0     C26844   6.306   3.465   1.137  0.0087 -0.0774 -0.3367
  920MOL0     C26845   6.371   3.592   1.086 -0.3297  0.0821  1.0907
  920MOL0     O26846   6.274   3.662   1.006 -0.5778  0.2364 -0.0176
  920MOL0     C26847   6.313   3.679   0.877 -1.2767 -0.3678  0.4427
  920MOL0     C26848   6.368   3.801   0.842  0.8808  0.6455 -0.5214
  920MOL0     C26849   6.390   3.834   0.709 -1.2233 -0.3320  0.3918
  920MOL0     C26850   6.439   3.978   0.683 -0.7271  0.8057 -0.0652
  920MOL0     C26851   6.389   3.728   0.612 -0.3891 -0.0281 -0.8767
  920MOL0     C26852   6.442   3.741   0.473  0.5596  0.6913  0.9407
  920MOL0     O26853   6.400   3.641   0.382  1.0949 -0.0674 -0.6043
  920MOL0     C26854   6.459   3.622   0.265  0.6204 -0.9220 -0.5289
  920MOL0     C26855   6.590   3.657   0.231  0.6774  0.8226 -0.9751
  920MOL0     C26856   6.645   3.635   0.107 -0.9805 -0.2271 -0.7110
  920MOL0     C26857   6.572   3.568   0.010 -0.4947  0.0131 -0.0176
  920MOL0     O26858   6.627   3.550  -0.113 -0.2710 -0.5936  0.9663
  920MOL0     C26859   6.658   3.424  -0.167  0.4791  0.0192 -0.3405
  920MOL0     C26860   6.816   3.402  -0.153  0.4633  0.5066  0.1952
  920MOL0     C26861   6.917   3.478  -0.241 -0.8852 -0.0217 -0.4508
  920MOL0     C26862   7.057   3.419  -0.219 -0.5828  0.0574  0.2658
  920MOL0     C26863   7.168   3.508  -0.272  0.3123 -0.1647 -0.9442
  920MOL0     C26864   7.172   3.653  -0.222 -0.8921  0.2931  0.1526
  920MOL0     C26865   7.194   3.660  -0.069  0.2219 -0.1063 -0.0975
  920MOL0     C26866   7.286   3.776  -0.021 -0.4715  0.3801 -0.1686
  920MOL0    Cl26867   7.450   3.751  -0.072 -0.6049 -0.3807  0.1231
  920MOL0     C26868   6.435   3.543   0.034  0.5447 -0.5165 -0.5039
  920MOL0     C26869   6.389   3.566   0.163  0.0248  0.4192  0.1723
  920MOL0     O26870   6.513   3.835   0.440 -0.3141 -0.3653  0.5121
  920MOL0     C26871   6.340   3.606   0.652  0.2545  0.0513  0.8920
  920MOL0     C26872   6.302   3.580   0.782  0.1873  0.2406 -0.5657
  920MOL0     N26873   5.941   3.442   1.422 -0.0696  0.5822  0.0327
  920MOL0     N26874   5.815   3.420   1.454 -0.6612 -0.1015  0.3189
  920MOL0     C26875   6.017   4.086   0.953  0.4834 -0.3108  1.1884
  920MOL0     C26876   6.070   4.182   0.876 -0.2446  0.2472  0.5813
  920MOL0     C26877   6.194   4.418   0.494  0.4270 -0.3444  0.5863
  920MOL0     C26878   6.140   4.544   0.491  0.4276  0.5140  0.8199
  920MOL0     C26879   6.185   4.643   0.399  0.6445 -0.9879 -0.7801
  920MOL0     C26880   6.306   4.636   0.336  0.2206 -0.3309  0.9370
  920MOL0     O26881   6.356   4.759   0.277 -0.0959  0.4532  0.1932
  920MOL0     C26882   6.502   4.776   0.264 -0.8127 -0.4263  0.3912
  920MOL0     C26883   6.539   4.918   0.225  0.0318 -1.0713  0.9627
  920MOL0     C26884   6.454   5.036   0.270 -0.3491  0.6763  0.4337
  920MOL0     C26885   6.494   5.072   0.413 -0.5111  0.4549  1.2416
  920MOL0     C26886   6.468   4.965   0.506  0.0950 -0.4846 -0.3738
  920MOL0     C26887   6.430   4.881   0.587  0.4974 -0.6391 -0.1622
  920MOL0     C26888   6.375   4.514   0.337 -0.0293 -0.7272  0.3213
  920MOL0     C26889   6.308   4.405   0.401  0.1059 -0.3018  0.3878
  920MOL0     C26890   6.374   4.271   0.390  0.1262  0.4840  0.7644
  920MOL0     H26891   5.834   4.236   0.640  2.0567 -0.3972 -1.4986
  920MOL0     H26892   5.736   4.033   0.781 -0.3295 -0.7586  0.4332
  920MOL0     H26893   5.959   3.880   1.137  0.9071 -1.4329  0.2241
  920MOL0     H26894   5.956   3.783   0.981 -2.2807 -1.5994  0.2998
  920MOL0     H26895   5.885   3.656   1.145  0.2669  0.9596  0.6353
  920MOL0     H26896   5.778   3.768   1.213 -0.8401 -2.5084  0.6929
  920MOL0     H26897   5.636   3.778   1.020  2.8232  2.2586 -1.0075
  920MOL0     H26898   5.748   3.705   0.915  0.5541  2.1672  0.0813
  920MOL0     H26899   5.543   3.565   0.976 -0.2026 -1.2648 -0.7671
  920MOL0     H26900   5.704   3.482   1.017 -1.5416 -1.1807  0.7131
  920MOL0     H26901   5.549   3.653   1.213 -0.7213  0.5557 -1.6131
  920MOL0     H26902   5.680   3.551   1.257 -0.4618  2.8841  0.5712
  920MOL0     H26903   5.393   3.466   1.215 -1.3770 -3.0422  1.8288
  920MOL0     H26904   5.521   3.357   1.147  3.7706  0.2433  0.9195
  920MOL0     H26905   5.419   3.321   1.380 -0.6513  1.0717  5.3214
  920MOL0     H26906   5.526   3.449   1.438 -2.9253  0.4180 -0.1796
  920MOL0     H26907   5.623   3.219   1.469 -0.7292 -0.8478 -0.9961
  920MOL0     H26908   5.626   3.196   1.293  3.0093 -1.7810  2.1020
  920MOL0     H26909   5.859   3.232   1.195 -0.3029  1.1233 -1.0445
  920MOL0     H26910   6.119   3.283   1.170 -1.4219  1.5118 -1.8393
  920MOL0     H26911   6.188   3.317   1.324 -0.7022  0.0987  1.9709
  920MOL0     H26912   6.109   3.551   1.137  0.9478  2.6417  1.5151
  920MOL0     H26913   6.174   3.569   1.284  3.6211  2.0171 -2.5024
  920MOL0     H26914   6.366   3.419   1.216  1.3886  0.6212 -0.9511
  920MOL0     H26915   6.284   3.391   1.059  0.1663  0.5493 -0.9861
  920MOL0     H26916   6.406   3.639   1.179 -0.0639 -0.1657  1.1184
  920MOL0     H26917   6.453   3.559   1.021 -1.3168 -0.4743  0.0946
  920MOL0     H26918   6.369   3.867   0.928 -2.0421 -1.9940  1.8119
  920MOL0     H26919   6.402   4.056   0.750 -1.7520  0.5638 -0.3243
  920MOL0     H26920   6.406   4.001   0.581  0.2262 -2.6602 -1.2895
  920MOL0     H26921   6.548   3.981   0.682 -0.5656 -2.3202  0.3524
  920MOL0     H26922   6.658   3.689   0.309  1.3014  2.1294 -2.0077
  920MOL0     H26923   6.750   3.656   0.090 -1.1130 -1.2042 -3.0430
  920MOL0     H26924   6.601   3.343  -0.120  1.2883 -0.0364  0.5838
  920MOL0     H26925   6.622   3.422  -0.270  1.7621 -3.0929 -0.8487
  920MOL0     H26926   6.846   3.427  -0.051 -0.1981  0.3814  0.4289
  920MOL0     H26927   6.835   3.294  -0.162  0.8025  0.3249  2.4699
  920MOL0     H26928   6.918   3.582  -0.205 -0.0366 -0.6242  1.3766
  920MOL0     H26929   6.883   3.471  -0.345  2.7832 -0.0860 -1.8015
  920MOL0     H26930   7.062   3.319  -0.264  1.5372  0.7761 -1.2366
  920MOL0     H26931   7.071   3.395  -0.113 -1.4617  0.6229  0.5230
  920MOL0     H26932   7.264   3.460  -0.254 -0.9810 -2.8446 -0.7780
  920MOL0     H26933   7.164   3.520  -0.381  1.4577  1.9938 -0.8149
  920MOL0     H26934   7.085   3.717  -0.232 -0.3051  2.5705  5.8672
  920MOL0     H26935   7.250   3.717  -0.265 -1.1329 -0.2207 -1.1091
  920MOL0     H26936   7.228   3.562  -0.033 -0.4819 -0.4079 -0.2406
  920MOL0     H26937   7.093   3.678  -0.032  1.1533  2.2608  1.5237
  920MOL0     H26938   7.277   3.773   0.088  0.3573 -0.4336 -0.1066
  920MOL0     H26939   7.259   3.877  -0.053 -1.0258  1.3841  3.0843
  920MOL0     H26940   6.366   3.515  -0.045  1.9333 -1.9460 -1.2707
  920MOL0     H26941   6.283   3.546   0.171  0.1464 -0.4737 -0.3027
  920MOL0     H26942   6.337   3.514   0.596 -3.0640 -0.1332  1.1454
  920MOL0     H26943   6.266   3.482   0.812  2.0520  0.0126  1.1408
  920MOL0     H26944   6.071   4.052   1.041  2.8281  0.1433  0.0064
  920MOL0     H26945   6.172   4.205   0.907  1.1199 -2.9714 -1.0132
  920MOL0     H26946   6.052   4.549   0.555 -0.5827 -3.3676 -0.0162
  920MOL0     H26947   6.132   4.738   0.399  0.2749 -1.1889 -0.1840
  920MOL0     H26948   6.555   4.746   0.355  0.9113 -2.1978 -1.1039
  920MOL0     H26949   6.535   4.712   0.182  2.5417  1.5973 -0.0238
  920MOL0     H26950   6.539   4.926   0.116  1.1603  1.2102  1.0519
  920MOL0     H26951   6.645   4.928   0.247  0.5148  0.4095 -1.5465
  920MOL0     H26952   6.465   5.123   0.204 -1.2457 -0.4630 -1.3176
  920MOL0     H26953   6.347   5.013   0.261 -0.4110  1.5318 -1.6713
  920MOL0     H26954   6.458   5.168   0.450 -3.0712  0.1081 -0.1351
  920MOL0     H26955   6.603   5.077   0.411 -0.5663  2.4342 -0.6716
  920MOL0     H26956   6.390   4.817   0.663 -1.6186 -0.4727 -1.0754
  920MOL0     H26957   6.467   4.499   0.282 -0.6728  1.7260 -1.5791
  920MOL0     H26958   6.391   4.224   0.487  1.2226 -0.7839 -0.0004
  920MOL0     H26959   6.313   4.198   0.335 -0.5430  0.9676  0.8579
  920MOL0     H26960   6.473   4.285   0.346 -0.1918 -1.1888 -0.6170
  921MOL0     O26961   3.311   7.272   9.644 -0.7609  0.8280 -0.2725
  921MOL0     C26962   3.247   7.261   9.540 -0.0681  0.4461 -0.2625
  921MOL0     O26963   3.267   7.345   9.437 -0.1637 -0.0511 -0.3406
  921MOL0     C26964   3.380   7.407   9.411  0.6181  0.4013 -0.7082
  921MOL0     C26965   3.369   7.516   9.329 -0.2414  0.4016  0.1142
  921MOL0     C26966   3.481   7.602   9.313 -0.0860 -1.8135  0.2729
  921MOL0     C26967   3.610   7.575   9.362 -0.8615  0.2785  0.4993
  921MOL0     O26968   3.708   7.670   9.344  0.3952 -0.3822 -1.0438
  921MOL0     C26969   3.839   7.650   9.399 -0.5744 -0.6443  0.6279
  921MOL0     C26970   3.921   7.782   9.397  0.0674 -0.4643 -0.2242
  921MOL0     C26971   4.068   7.787   9.420 -0.1869 -0.8469 -0.6814
  921MOL0     C26972   4.132   7.683   9.321 -0.4323  0.2458  0.8727
  921MOL0     C26973   4.288   7.684   9.345 -0.1340 -0.7522  0.5470
  921MOL0     C26974   4.343   7.557   9.282  0.2589 -0.0905 -0.5912
  921MOL0     C26975   4.496   7.550   9.281 -0.1809  0.0536  0.7280
  921MOL0     C26976   4.546   7.418   9.236  0.2825  0.3580  0.2300
  921MOL0     N26977   4.561   7.326   9.346  0.0331 -0.1904  0.7159
  921MOL0     C26978   4.684   7.273   9.369 -0.8736  0.0338 -0.1199
  921MOL0     C26979   4.666   7.201   9.483  0.4317 -0.9020  0.5090
  921MOL0     C26980   4.779   7.144   9.568 -0.4410  0.3247 -0.1122
  921MOL0     C26981   4.783   6.995   9.564  0.3352  0.1811 -0.0991
  921MOL0     C26982   4.878   6.938   9.671 -0.1041 -0.0534  0.2234
  921MOL0     C26983   5.027   6.988   9.659  0.9438 -0.5117 -0.9252
  921MOL0     O26984   5.079   6.955   9.530  0.1381  0.7580 -0.0033
  921MOL0     C26985   5.202   6.994   9.500  0.4500  0.1021  0.3026
  921MOL0     C26986   5.250   6.980   9.370 -0.5831  0.9340 -0.2891
  921MOL0     C26987   5.384   7.026   9.328 -0.1591  0.0623 -0.2261
  921MOL0     C26988   5.416   7.012   9.177  0.1800  0.3239  0.7624
  921MOL0     C26989   5.469   7.092   9.424 -0.1940  0.6812  1.5137
  921MOL0     C26990   5.605   7.140   9.390  0.1436 -0.1594 -0.4748
  921MOL0     O26991   5.638   7.264   9.433  0.1580  0.3481  0.1240
  921MOL0     C26992   5.759   7.330   9.426  0.3974 -0.3288  0.7131
  921MOL0     C26993   5.755   7.462   9.461  0.5059  0.0087  0.0082
  921MOL0     C26994   5.874   7.539   9.477 -0.5461 -0.6688  0.5638
  921MOL0     C26995   5.992   7.490   9.429 -0.2187 -0.1170  0.6934
  921MOL0     O26996   6.101   7.573   9.418 -0.3270  0.3477  0.4862
  921MOL0     C26997   6.234   7.521   9.413 -0.4349 -0.2946  0.7356
  921MOL0     C26998   6.338   7.626   9.407 -0.2540  0.6342 -0.5872
  921MOL0     C26999   6.480   7.575   9.437 -0.2560 -0.0100  0.0166
  921MOL0     C27000   6.568   7.696   9.469 -0.1547  0.5772 -0.7112
  921MOL0     C27001   6.712   7.656   9.488 -0.5921 -0.1755 -1.2493
  921MOL0     C27002   6.734   7.608   9.634  0.1716  0.1783 -0.0708
  921MOL0     C27003   6.870   7.549   9.656  0.2260 -0.3314 -0.7002
  921MOL0     C27004   6.978   7.658   9.688 -0.2141 -0.1877  0.2838
  921MOL0    Cl27005   6.974   7.707   9.867 -0.3664  0.0075  0.2809
  921MOL0     C27006   5.994   7.354   9.391 -0.6428 -0.0916 -0.4267
  921MOL0     C27007   5.883   7.279   9.388 -0.6435  0.1582 -0.0942
  921MOL0     O27008   5.676   7.057   9.339 -0.2210 -0.3313  0.2827
  921MOL0     C27009   5.414   7.113   9.553  0.9701  0.5312 -1.1412
  921MOL0     C27010   5.284   7.071   9.589  0.1142  0.4673 -0.3761
  921MOL0     N27011   4.532   7.193   9.508  0.1755  0.5977 -0.0140
  921MOL0     N27012   4.472   7.256   9.416  0.0962  0.8111  0.1878
  921MOL0     C27013   3.622   7.452   9.435  0.1117 -0.2155  0.2796
  921MOL0     C27014   3.507   7.369   9.455 -0.1272 -0.3156  0.3878
  921MOL0     C27015   3.126   7.164   9.531 -0.0087 -0.4935  0.1076
  921MOL0     C27016   3.045   7.174   9.417 -1.0434 -0.7908 -0.0724
  921MOL0     C27017   2.935   7.092   9.391 -0.3632 -0.7593  0.0973
  921MOL0     C27018   2.895   7.006   9.491 -0.3044  1.1990 -0.6390
  921MOL0     O27019   2.796   6.904   9.476 -0.2717  0.0794  0.2503
  921MOL0     C27020   2.818   6.809   9.370 -0.4545  0.6347 -0.8579
  921MOL0     C27021   2.691   6.747   9.313  0.4533 -0.7863  0.3478
  921MOL0     C27022   2.628   6.646   9.414  0.1687  0.5745 -0.4029
  921MOL0     C27023   2.516   6.702   9.500 -0.4082 -0.8235 -0.6052
  921MOL0     C27024   2.386   6.717   9.422 -0.3188 -0.2559 -0.3090
  921MOL0     C27025   2.281   6.710   9.365  0.1352 -0.4484  0.3175
  921MOL0     C27026   2.971   6.988   9.607  0.1084  0.6696 -0.3601
  921MOL0     C27027   3.095   7.061   9.623 -0.3376 -0.5408  0.6881
  921MOL0     C27028   3.188   7.023   9.740  0.2437 -0.2636  0.6299
  921MOL0     H27029   3.268   7.541   9.300 -0.1423  1.0697  0.3150
  921MOL0     H27030   3.473   7.701   9.269  2.0527 -1.5464  0.3653
  921MOL0     H27031   3.898   7.584   9.335  1.1352  1.3336  0.0646
  921MOL0     H27032   3.839   7.624   9.505 -1.5393 -0.6347  0.6366
  921MOL0     H27033   3.897   7.828   9.300  1.8074 -2.8342 -1.9194
  921MOL0     H27034   3.870   7.849   9.466  1.0924  0.3394 -0.2154
  921MOL0     H27035   4.094   7.891   9.402 -1.4582 -0.4981 -0.5776
  921MOL0     H27036   4.090   7.757   9.523  1.6129  0.8350 -0.5169
  921MOL0     H27037   4.096   7.580   9.320  0.0823 -0.0106 -2.5687
  921MOL0     H27038   4.100   7.713   9.221 -1.6591 -2.2673  0.4112
  921MOL0     H27039   4.319   7.687   9.449  2.4916  2.9193 -0.1406
  921MOL0     H27040   4.337   7.776   9.311 -1.4039 -1.0000 -2.2392
  921MOL0     H27041   4.305   7.475   9.344  0.7747  1.1222  1.4272
  921MOL0     H27042   4.310   7.560   9.178 -0.7787  0.5845 -0.2592
  921MOL0     H27043   4.537   7.556   9.382 -1.1123 -2.7876  1.3600
  921MOL0     H27044   4.554   7.630   9.234  2.0700 -1.6464  0.4271
  921MOL0     H27045   4.471   7.383   9.163  2.3191 -1.8773 -0.9121
  921MOL0     H27046   4.633   7.434   9.171 -1.4116 -0.2742 -2.3650
  921MOL0     H27047   4.780   7.296   9.323  0.0987  0.4283  1.9734
  921MOL0     H27048   4.764   7.171   9.673  5.1487  0.3859  0.9749
  921MOL0     H27049   4.874   7.187   9.535  1.1165 -1.8733  1.3080
  921MOL0     H27050   4.677   6.968   9.562  0.2876  0.2810 -2.9521
  921MOL0     H27051   4.812   6.957   9.466  0.9639 -0.4844  0.3332
  921MOL0     H27052   4.829   6.966   9.764 -1.8413 -0.0320 -0.6464
  921MOL0     H27053   4.870   6.830   9.662 -0.8641  0.0440 -0.4285
  921MOL0     H27054   5.028   7.097   9.664 -1.3969 -0.2850 -3.3625
  921MOL0     H27055   5.088   6.946   9.740 -2.4921  0.2281  2.3559
  921MOL0     H27056   5.186   6.924   9.303  1.7854 -2.8247  0.3403
  921MOL0     H27057   5.476   6.922   9.163 -1.2906 -0.8330  1.6510
  921MOL0     H27058   5.463   7.104   9.140 -0.5899  1.4978  2.5171
  921MOL0     H27059   5.325   7.003   9.118  1.6206  2.4569 -2.0422
  921MOL0     H27060   5.658   7.509   9.475  1.0630  0.6346  2.3319
  921MOL0     H27061   5.866   7.638   9.520 -2.8286 -1.1898  1.4963
  921MOL0     H27062   6.249   7.452   9.496 -1.8632  0.2699  1.4873
  921MOL0     H27063   6.253   7.460   9.324 -0.8504  1.5618 -0.6693
  921MOL0     H27064   6.342   7.690   9.318 -0.6438  0.2429 -0.8893
  921MOL0     H27065   6.298   7.698   9.480  1.0412  1.1205 -0.3320
  921MOL0     H27066   6.515   7.533   9.342 -1.4971 -1.4972  0.1729
  921MOL0     H27067   6.487   7.505   9.521  0.8205 -2.8054 -2.2255
  921MOL0     H27068   6.535   7.748   9.560 -1.2186  1.4856 -1.5908
  921MOL0     H27069   6.562   7.775   9.393  3.4806 -1.2970 -3.2519
  921MOL0     H27070   6.734   7.578   9.414  2.0935  0.2320 -0.9518
  921MOL0     H27071   6.772   7.745   9.467  1.4643 -0.1692  3.3716
  921MOL0     H27072   6.658   7.531   9.653  0.9286 -0.3019  1.1264
  921MOL0     H27073   6.713   7.685   9.708 -1.4400  0.1460 -0.4488
  921MOL0     H27074   6.909   7.494   9.570  1.3081  1.0316 -1.1214
  921MOL0     H27075   6.855   7.477   9.737  1.1352  0.7041  0.4308
  921MOL0     H27076   6.973   7.751   9.631  0.3012  2.0453  3.5790
  921MOL0     H27077   7.076   7.616   9.661 -2.1947 -3.2096 -3.0867
  921MOL0     H27078   6.086   7.303   9.366 -0.5275 -0.0807 -0.0216
  921MOL0     H27079   5.889   7.172   9.369 -1.1134  0.2545 -0.8138
  921MOL0     H27080   5.470   7.168   9.628  0.1755  1.9948 -1.5839
  921MOL0     H27081   5.243   7.100   9.685  0.5094  1.6844 -0.5497
  921MOL0     H27082   3.715   7.416   9.478  0.1170 -0.2639  0.2269
  921MOL0     H27083   3.524   7.275   9.506 -1.7196 -2.0380 -2.0234
  921MOL0     H27084   3.070   7.251   9.345  1.5738 -1.2958  0.1939
  921MOL0     H27085   2.871   7.103   9.304  2.9166  1.6743 -2.2815
  921MOL0     H27086   2.863   6.856   9.282 -3.2907 -0.1730 -2.8744
  921MOL0     H27087   2.890   6.736   9.409 -2.2681  0.3645  2.2685
  921MOL0     H27088   2.718   6.693   9.222 -0.6446 -0.1585 -0.3826
  921MOL0     H27089   2.626   6.828   9.277  1.0765 -0.8481 -0.9934
  921MOL0     H27090   2.597   6.557   9.360  3.8159 -0.7860 -0.5768
  921MOL0     H27091   2.700   6.611   9.489 -1.2024  3.4269  2.5121
  921MOL0     H27092   2.545   6.784   9.566 -1.0872 -0.7567 -0.3838
  921MOL0     H27093   2.495   6.614   9.562  0.0973 -1.5817 -1.4730
  921MOL0     H27094   2.186   6.708   9.315 -0.3094  0.5661  1.0944
  921MOL0     H27095   2.933   6.909   9.671 -3.3036  3.6731  1.6830
  921MOL0     H27096   3.285   7.013   9.689 -0.3334  2.1817 -1.1386
  921MOL0     H27097   3.182   7.103   9.815  0.7149  0.2721  0.1101
  921MOL0     H27098   3.154   6.931   9.788  0.9658 -0.8729  0.0114
  922MOL0     O27099   0.311   1.240  10.250  0.0986  0.2108  0.4751
  922MOL0     C27100   0.274   1.248  10.130 -0.2133  0.0241  0.4280
  922MOL0     O27101   0.299   1.160  10.028  0.1115  0.7076 -0.3518
  922MOL0     C27102   0.365   1.043  10.043  0.8203 -0.1644  0.2635
  922MOL0     C27103   0.463   1.030  10.137 -0.2272  0.6477  0.8434
  922MOL0     C27104   0.521   0.905  10.155  0.4615  1.0999  0.9149
  922MOL0     C27105   0.490   0.800  10.063 -0.3159 -0.2157  0.0586
  922MOL0     O27106   0.545   0.682  10.083  0.0754  0.8634  0.5257
  922MOL0     C27107   0.667   0.672  10.019  0.3694  0.3777  0.1550
  922MOL0     C27108   0.688   0.520   9.981 -1.0715 -0.0556 -1.4229
  922MOL0     C27109   0.806   0.495   9.896 -0.1561  0.1110  0.0658
  922MOL0     C27110   0.932   0.479   9.990 -1.0855 -1.0239 -0.0142
  922MOL0     C27111   1.059   0.455   9.922  0.7539 -0.1512  0.1168
  922MOL0     C27112   1.094   0.550   9.817  0.0111  0.0654 -0.1345
  922MOL0     C27113   1.223   0.515   9.735  0.1744 -0.1148 -0.9113
  922MOL0     C27114   1.358   0.538   9.796  0.2924  0.6008  1.1100
  922MOL0     N27115   1.388   0.682   9.778  0.6285  0.8404 -0.0761
  922MOL0     C27116   1.460   0.737   9.678  0.2083  0.6406 -0.0525
  922MOL0     C27117   1.443   0.870   9.687  0.0417 -0.1827  0.1659
  922MOL0     C27118   1.509   0.966   9.598 -0.7165 -0.4912  0.0392
  922MOL0     C27119   1.663   0.932   9.600 -0.1452 -0.2156 -0.1975
  922MOL0     C27120   1.746   1.045   9.542  0.4616  0.8319  1.6039
  922MOL0     C27121   1.895   1.009   9.511  0.1833 -0.1002  0.7906
  922MOL0     O27122   1.902   0.900   9.420 -0.6669  0.6432  0.0057
  922MOL0     C27123   2.024   0.829   9.425  0.5054 -0.4187 -0.5765
  922MOL0     C27124   2.037   0.729   9.330  0.2654  0.2247 -0.3383
  922MOL0     C27125   2.153   0.654   9.314 -0.3913  0.0082  0.4195
  922MOL0     C27126   2.151   0.565   9.191 -0.4338 -0.1391  0.5274
  922MOL0     C27127   2.263   0.673   9.392 -1.8177  0.1403  0.2722
  922MOL0     C27128   2.399   0.604   9.372 -0.1299 -0.0963 -0.6464
  922MOL0     O27129   2.488   0.636   9.468  0.0949 -0.4614  0.2150
  922MOL0     C27130   2.621   0.587   9.479  0.1636 -0.2952  0.0813
  922MOL0     C27131   2.719   0.595   9.378 -0.0862 -0.0840  0.1273
  922MOL0     C27132   2.843   0.534   9.393 -1.2903  0.2658  0.4232
  922MOL0     C27133   2.873   0.462   9.512  0.0095  0.2610 -0.4692
  922MOL0     O27134   2.996   0.408   9.538 -0.3698 -0.1653 -0.1606
  922MOL0     C27135   3.117   0.469   9.484  0.2332  0.1196  0.7429
  922MOL0     C27136   3.249   0.416   9.553 -0.3710 -0.5430  0.0764
  922MOL0     C27137   3.254   0.477   9.697 -0.1459 -0.9337 -0.4197
  922MOL0     C27138   3.393   0.476   9.766  0.0829 -0.3135  0.0901
  922MOL0     C27139   3.451   0.332   9.764  1.2106  0.4423  0.1351
  922MOL0     C27140   3.591   0.326   9.825  0.2589  0.5242  0.2892
  922MOL0     C27141   3.643   0.187   9.819  0.6128  0.0832 -0.3349
  922MOL0     C27142   3.780   0.185   9.885  0.4839  0.1032 -0.6509
  922MOL0    Cl27143   3.798   0.235  10.051 -0.0471 -0.0495 -0.6321
  922MOL0     C27144   2.776   0.451   9.608 -0.2244 -0.2006  0.0101
  922MOL0     C27145   2.653   0.514   9.593 -0.7557 -0.0940  0.1662
  922MOL0     O27146   2.425   0.532   9.276  0.1450 -0.4669 -0.4412
  922MOL0     C27147   2.245   0.768   9.499 -0.5521  0.2307  0.8105
  922MOL0     C27148   2.131   0.856   9.512  0.4284  0.0953  0.6902
  922MOL0     N27149   1.375   0.894   9.806  0.4797  0.5731 -0.4029
  922MOL0     N27150   1.352   0.781   9.863  0.5876 -0.0512  0.2421
  922MOL0     C27151   0.402   0.822   9.963  0.2623  0.0249 -0.0391
  922MOL0     C27152   0.335   0.939   9.951  0.6192  0.2808  0.1080
  922MOL0     C27153   0.177   1.367  10.108 -0.0890  0.4837  1.4353
  922MOL0     C27154   0.103   1.425  10.211 -0.0125 -0.5108 -0.5625
  922MOL0     C27155  -0.003   1.517  10.185  0.3224  0.0584 -0.0485
  922MOL0     C27156  -0.021   1.569  10.059 -0.6570  0.0026  1.6237
  922MOL0     O27157  -0.104   1.665  10.025  0.4096 -0.3153  0.6285
  922MOL0     C27158  -0.194   1.721  10.123 -0.1052 -0.3832 -1.3674
  922MOL0     C27159  -0.277   1.833  10.063  0.8189 -0.4395  0.5454
  922MOL0     C27160  -0.389   1.873  10.162 -0.5013 -0.1126 -0.4027
  922MOL0     C27161  -0.485   1.966  10.093 -0.9110 -0.4077 -0.2954
  922MOL0     C27162  -0.576   2.019  10.193  0.2943 -0.1734  0.7418
  922MOL0     C27163  -0.653   2.077  10.259 -0.4656  1.3928 -0.5785
  922MOL0     C27164   0.063   1.511   9.959 -0.2226 -0.8165  0.1994
  922MOL0     C27165   0.166   1.418   9.977 -0.8857 -0.6339 -0.7967
  922MOL0     C27166   0.255   1.383   9.865 -0.3132 -0.0138 -0.6222
  922MOL0     H27167   0.492   1.109  10.205 -0.4093  1.1007  0.3955
  922MOL0     H27168   0.599   0.891  10.230  1.1308 -2.2288 -0.2407
  922MOL0     H27169   0.742   0.705  10.091 -0.3799  1.0338  0.6365
  922MOL0     H27170   0.663   0.719   9.920 -1.4331 -1.9311 -0.9798
  922MOL0     H27171   0.695   0.460  10.072 -1.0805  0.9553 -0.7317
  922MOL0     H27172   0.598   0.480   9.933 -0.8282 -2.8365  0.2200
  922MOL0     H27173   0.790   0.407   9.832 -0.2971  0.1430  0.0556
  922MOL0     H27174   0.823   0.584   9.835  0.9743  1.6762  2.5403
  922MOL0     H27175   0.947   0.568  10.051 -0.3524 -0.0915 -1.5072
  922MOL0     H27176   0.903   0.396  10.055 -5.0532  0.3393  0.2656
  922MOL0     H27177   1.057   0.354   9.880  0.1301  1.3606 -4.0623
  922MOL0     H27178   1.137   0.444   9.998  1.5596 -1.3328 -0.8202
  922MOL0     H27179   1.013   0.557   9.743 -0.0632  1.0418  0.0271
  922MOL0     H27180   1.104   0.652   9.857  1.1667 -0.3249  0.6058
  922MOL0     H27181   1.220   0.567   9.639 -1.3627  2.0949  0.2602
  922MOL0     H27182   1.217   0.410   9.704  1.8655 -1.1142  1.8237
  922MOL0     H27183   1.348   0.499   9.898 -0.8875  0.4433  0.9492
  922MOL0     H27184   1.434   0.481   9.742  0.3548 -0.7816  2.5984
  922MOL0     H27185   1.519   0.693   9.598 -0.7420  1.4806 -1.2403
  922MOL0     H27186   1.494   1.065   9.642  0.9186 -0.3511  0.3706
  922MOL0     H27187   1.473   0.956   9.495  0.7353 -3.2513 -0.3085
  922MOL0     H27188   1.695   0.928   9.704 -0.9633 -0.3159  0.0589
  922MOL0     H27189   1.687   0.837   9.552  2.3371  0.8222 -1.1356
  922MOL0     H27190   1.696   1.078   9.451  2.8629 -1.9532 -0.9281
  922MOL0     H27191   1.746   1.132   9.609  1.1998  0.5116  2.0267
  922MOL0     H27192   1.946   1.096   9.469  0.7921 -0.8141  0.0357
  922MOL0     H27193   1.937   0.977   9.607 -0.0272 -1.6535  0.3868
  922MOL0     H27194   1.952   0.716   9.263 -0.8121  1.8960  0.6345
  922MOL0     H27195   2.152   0.631   9.104 -0.5200  0.1263  0.7260
  922MOL0     H27196   2.051   0.520   9.197  0.1511 -1.4543  0.9486
  922MOL0     H27197   2.218   0.478   9.185  0.7182  0.7363  0.5058
  922MOL0     H27198   2.690   0.657   9.293 -1.5964 -1.0028 -0.0561
  922MOL0     H27199   2.924   0.533   9.321 -0.6358  1.5011  1.1186
  922MOL0     H27200   3.129   0.451   9.377 -2.6936  2.5898 -0.1489
  922MOL0     H27201   3.121   0.575   9.511  3.7782 -0.4028  2.9106
  922MOL0     H27202   3.260   0.307   9.548  0.7895 -0.5417  1.6951
  922MOL0     H27203   3.328   0.458   9.491 -0.5521 -1.9467 -1.1747
  922MOL0     H27204   3.191   0.416   9.762  0.9390  0.4024  2.0440
  922MOL0     H27205   3.236   0.585   9.698  0.0601 -0.8951 -1.0049
  922MOL0     H27206   3.393   0.506   9.871  3.5554  0.1816  0.0649
  922MOL0     H27207   3.448   0.555   9.714 -2.8611  1.8309 -0.0338
  922MOL0     H27208   3.382   0.266   9.816  0.3934  0.8672 -0.3783
  922MOL0     H27209   3.461   0.289   9.664 -0.1560 -4.1582  1.7168
  922MOL0     H27210   3.599   0.374   9.923 -3.5760  1.0512  0.4800
  922MOL0     H27211   3.658   0.383   9.760 -0.6018  0.7778 -0.3895
  922MOL0     H27212   3.659   0.148   9.718 -0.4509 -1.9984  0.2502
  922MOL0     H27213   3.581   0.118   9.877 -1.8282  3.3731  1.2751
  922MOL0     H27214   3.854   0.240   9.827  2.4639 -1.3765  0.3495
  922MOL0     H27215   3.810   0.080   9.882  0.8757  0.1255  1.2251
  922MOL0     H27216   2.795   0.378   9.686 -2.0349 -3.1488 -2.1292
  922MOL0     H27217   2.591   0.519   9.682  1.2548 -0.4429  1.6590
  922MOL0     H27218   2.317   0.814   9.566 -0.6718  0.4166  0.8131
  922MOL0     H27219   2.142   0.930   9.591  3.8303 -1.0212  1.4425
  922MOL0     H27220   0.379   0.751   9.884  0.0172  0.8883 -0.7491
  922MOL0     H27221   0.254   0.937   9.879  2.0840  0.6395 -1.6250
  922MOL0     H27222   0.118   1.388  10.312  1.5059 -0.5206 -0.7627
  922MOL0     H27223  -0.066   1.553  10.266  0.0615  4.2281 -1.8920
  922MOL0     H27224  -0.261   1.640  10.151 -0.2166 -0.1180 -0.8606
  922MOL0     H27225  -0.143   1.751  10.215  0.3141  0.8212 -1.9672
  922MOL0     H27226  -0.317   1.788   9.971  0.5284  1.2411 -0.1963
  922MOL0     H27227  -0.199   1.908  10.043  0.8387 -1.0166 -1.9437
  922MOL0     H27228  -0.439   1.783  10.199 -1.5842 -0.5129 -2.7204
  922MOL0     H27229  -0.347   1.926  10.248  1.5742 -0.5960 -1.0572
  922MOL0     H27230  -0.547   1.915  10.018  0.5267 -2.1285 -0.3726
  922MOL0     H27231  -0.434   2.047  10.041 -0.6056 -0.9959 -0.9330
  922MOL0     H27232  -0.720   2.140  10.314  2.0912  2.9923  0.9213
  922MOL0     H27233   0.042   1.554   9.862 -1.1823  1.2867  1.2797
  922MOL0     H27234   0.235   1.462   9.793 -0.3917  0.3484 -0.2009
  922MOL0     H27235   0.361   1.393   9.890 -0.5795  3.3074 -0.3990
  922MOL0     H27236   0.225   1.284   9.828  1.2174 -1.0742  0.8070
  923MOL0     O27237   2.657   2.051   1.231  0.2461 -0.3172  0.3180
  923MOL0     C27238   2.579   2.108   1.308  0.2060  0.0184 -0.8106
  923MOL0     O27239   2.610   2.138   1.440 -0.2602 -0.7896 -0.4599
  923MOL0     C27240   2.741   2.113   1.478 -0.0777 -0.7877  0.9009
  923MOL0     C27241   2.764   2.036   1.593  0.0229  0.5403 -0.5305
  923MOL0     C27242   2.896   2.005   1.640 -0.0530  0.5883  0.2631
  923MOL0     C27243   3.008   2.046   1.566  0.1643 -0.3171  0.1361
  923MOL0     O27244   3.144   2.033   1.606 -0.6164  0.5001  0.1984
  923MOL0     C27245   3.196   1.900   1.594  0.0474 -0.4666  0.1572
  923MOL0     C27246   3.349   1.904   1.611  0.6876 -0.1567 -0.2167
  923MOL0     C27247   3.431   1.922   1.485  0.4354 -1.1513 -0.1359
  923MOL0     C27248   3.410   2.058   1.408  0.2655 -0.0843  0.2150
  923MOL0     C27249   3.510   2.067   1.298  0.1692  0.0555  0.5131
  923MOL0     C27250   3.475   2.135   1.174  1.0649  0.6366  0.0711
  923MOL0     C27251   3.595   2.129   1.080 -0.1052 -0.2247  0.1158
  923MOL0     C27252   3.566   2.193   0.947  0.3979  0.0406  0.5918
  923MOL0     N27253   3.677   2.171   0.846  1.0706 -0.1564 -0.7049
  923MOL0     C27254   3.702   2.053   0.770  0.2871  0.1740 -0.2444
  923MOL0     C27255   3.814   2.075   0.698 -0.1319  0.4066 -0.7843
  923MOL0     C27256   3.885   1.991   0.592  0.0921  0.8656  0.3087
  923MOL0     C27257   3.986   1.901   0.655 -0.6810  0.0854 -0.8245
  923MOL0     C27258   4.112   1.983   0.698  0.2529 -0.1514 -0.3048
  923MOL0     C27259   4.188   2.020   0.571 -0.3835 -0.2465 -0.0846
  923MOL0     O27260   4.254   1.902   0.518 -0.0628 -0.7636 -0.2526
  923MOL0     C27261   4.381   1.905   0.476 -0.3712 -0.6637 -0.2628
  923MOL0     C27262   4.439   2.028   0.427  0.6728  0.0805 -0.6023
  923MOL0     C27263   4.576   2.034   0.394 -0.2814  1.5206 -0.1042
  923MOL0     C27264   4.634   2.160   0.330 -0.3630  0.2020 -0.4395
  923MOL0     C27265   4.659   1.913   0.408  0.3726  0.4897  0.3763
  923MOL0     C27266   4.810   1.909   0.386  0.8560  0.1010 -0.1080
  923MOL0     O27267   4.869   1.799   0.427 -0.0202  0.0249  0.3121
  923MOL0     C27268   5.000   1.786   0.419  0.2239 -1.0323  0.6635
  923MOL0     C27269   5.068   1.813   0.536  0.0247  0.0539 -0.1153
  923MOL0     C27270   5.206   1.814   0.537 -0.0166 -0.4919 -0.2431
  923MOL0     C27271   5.286   1.773   0.427 -0.2265 -0.0247  0.2601
  923MOL0     O27272   5.424   1.768   0.440 -0.0009  0.5123  0.3017
  923MOL0     C27273   5.488   1.748   0.562 -0.0398 -0.4220 -0.0804
  923MOL0     C27274   5.642   1.757   0.553  0.9547 -0.6995  0.2270
  923MOL0     C27275   5.713   1.663   0.458  0.2114  0.4173 -0.0333
  923MOL0     C27276   5.827   1.595   0.533  1.1938 -0.5989  0.1742
  923MOL0     C27277   5.909   1.502   0.451  0.3748  0.1906 -0.7271
  923MOL0     C27278   5.980   1.563   0.327  0.1684 -1.0478  1.0955
  923MOL0     C27279   6.085   1.453   0.287 -0.1268 -0.3925  0.7335
  923MOL0     C27280   6.228   1.495   0.314 -0.0006  0.7275 -0.1715
  923MOL0    Cl27281   6.257   1.499   0.490 -0.0433  0.1111 -0.4078
  923MOL0     C27282   5.211   1.736   0.313 -0.0571 -1.3364 -0.2090
  923MOL0     C27283   5.073   1.754   0.302  0.2191  0.3398 -0.1728
  923MOL0     O27284   4.865   1.996   0.328 -0.1233 -0.4615 -0.6558
  923MOL0     C27285   4.597   1.797   0.462  0.4133 -1.4576  0.0643
  923MOL0     C27286   4.463   1.794   0.496 -0.1910  0.1034  0.0692
  923MOL0     N27287   3.855   2.202   0.731 -0.4852  0.5223 -0.3055
  923MOL0     N27288   3.774   2.260   0.813  0.0299  0.1809 -0.4148
  923MOL0     C27289   2.979   2.111   1.447  0.0733 -0.6055  0.2691
  923MOL0     C27290   2.854   2.160   1.406  0.3723  0.0228  0.3161
  923MOL0     C27291   2.440   2.107   1.262 -0.0157 -0.3316  0.1366
  923MOL0     C27292   2.421   2.077   1.124 -0.0212  0.9500 -0.0814
  923MOL0     C27293   2.303   2.086   1.055  0.4937  0.1934  0.3565
  923MOL0     C27294   2.189   2.114   1.140  0.4692  0.5718  0.5160
  923MOL0     O27295   2.059   2.136   1.107 -0.2365 -0.3729  0.0849
  923MOL0     C27296   2.006   2.096   0.978  0.2055  0.3864 -0.6006
  923MOL0     C27297   1.996   1.940   0.973 -0.7358  0.1754  0.3411
  923MOL0     C27298   1.885   1.875   1.062 -0.2721 -0.7872  0.3080
  923MOL0     C27299   1.927   1.734   1.100 -0.5805  0.1570 -0.5315
  923MOL0     C27300   1.954   1.648   0.987  0.4315  0.4180  0.1506
  923MOL0     C27301   1.963   1.575   0.886  0.1569  0.5060 -0.0950
  923MOL0     C27302   2.206   2.131   1.279  0.3040  0.4240 -0.1059
  923MOL0     C27303   2.328   2.133   1.341 -0.2335  0.7455 -1.5315
  923MOL0     C27304   2.335   2.184   1.489 -0.2945  0.5046  0.5984
  923MOL0     H27305   2.679   1.995   1.648 -1.7901  1.5115 -2.4760
  923MOL0     H27306   2.909   1.941   1.727 -0.1555 -1.1525 -0.9422
  923MOL0     H27307   3.169   1.856   1.498 -0.3480  0.8154 -0.3239
  923MOL0     H27308   3.165   1.839   1.680  1.0522  1.8299  2.2575
  923MOL0     H27309   3.364   1.989   1.679 -1.1390 -0.4469  0.6134
  923MOL0     H27310   3.382   1.814   1.664  0.6104  0.0885  0.2579
  923MOL0     H27311   3.540   1.922   1.497  1.5806  4.4511 -5.6100
  923MOL0     H27312   3.408   1.838   1.420  0.3059 -0.5604 -0.8645
  923MOL0     H27313   3.311   2.063   1.362  1.4082  2.3489 -2.3549
  923MOL0     H27314   3.419   2.146   1.473 -0.1741 -0.2915  0.5573
  923MOL0     H27315   3.529   1.963   1.268  0.4913 -0.0166  0.9521
  923MOL0     H27316   3.600   2.117   1.335  0.7597 -0.7748  0.2350
  923MOL0     H27317   3.393   2.075   1.132  2.8345 -1.2362 -0.8922
  923MOL0     H27318   3.442   2.238   1.191  2.7247  1.8278 -3.0605
  923MOL0     H27319   3.617   2.025   1.055  0.4308  0.6424 -3.4839
  923MOL0     H27320   3.671   2.185   1.134  0.0880 -0.9794  0.6448
  923MOL0     H27321   3.474   2.141   0.918 -0.0096  0.9740  0.1900
  923MOL0     H27322   3.549   2.298   0.970  1.6997  0.0721  1.5057
  923MOL0     H27323   3.655   1.956   0.780 -0.2362  0.2662 -1.6527
  923MOL0     H27324   3.920   2.059   0.514  1.0424  2.1067  1.7809
  923MOL0     H27325   3.801   1.933   0.553  1.1692  0.0389 -0.8430
  923MOL0     H27326   3.935   1.852   0.739  2.6791 -1.4881  0.4523
  923MOL0     H27327   4.011   1.820   0.586  2.8317 -1.0230  1.5139
  923MOL0     H27328   4.078   2.063   0.763 -3.4237 -2.9161  1.5180
  923MOL0     H27329   4.171   1.913   0.758  0.5593 -1.8206 -2.4345
  923MOL0     H27330   4.133   2.070   0.492 -2.0910 -1.1780  0.4672
  923MOL0     H27331   4.263   2.096   0.596 -3.4755  2.5325  1.4001
  923MOL0     H27332   4.376   2.115   0.412  1.4724  0.5383 -1.4305
  923MOL0     H27333   4.554   2.232   0.314  0.5379  0.8232 -2.4103
  923MOL0     H27334   4.685   2.133   0.237  3.5013 -0.8677  1.7596
  923MOL0     H27335   4.716   2.197   0.392 -0.0877 -1.4050  0.2134
  923MOL0     H27336   5.029   1.845   0.632 -1.7355  1.7351 -1.3164
  923MOL0     H27337   5.263   1.849   0.623  3.5766 -1.6279 -1.9413
  923MOL0     H27338   5.457   1.821   0.639  3.3656  0.3439  0.7587
  923MOL0     H27339   5.456   1.647   0.589 -0.5869 -0.1208  0.4315
  923MOL0     H27340   5.666   1.861   0.529  1.5039 -1.1542 -1.2945
  923MOL0     H27341   5.686   1.761   0.653 -0.6009  1.1052  0.9127
  923MOL0     H27342   5.738   1.713   0.363  0.2809 -1.0298 -0.8061
  923MOL0     H27343   5.661   1.577   0.413  3.2347 -0.8213 -1.4721
  923MOL0     H27344   5.785   1.534   0.613 -0.5537  0.7239  0.3373
  923MOL0     H27345   5.895   1.660   0.589  2.3366 -0.8564 -0.8686
  923MOL0     H27346   5.982   1.468   0.525  1.2713  0.8858 -1.2612
  923MOL0     H27347   5.846   1.416   0.427 -2.6618  2.1318 -0.1925
  923MOL0     H27348   6.028   1.654   0.365 -3.2839  0.6128  1.9128
  923MOL0     H27349   5.904   1.595   0.255 -1.2993 -0.7972  2.6870
  923MOL0     H27350   6.088   1.444   0.178  0.5852  1.5295  0.5615
  923MOL0     H27351   6.057   1.360   0.337 -0.9635 -0.5439  0.0016
  923MOL0     H27352   6.252   1.592   0.269  3.5882  0.3610  0.6195
  923MOL0     H27353   6.298   1.419   0.278  1.2901  1.1546  1.3287
  923MOL0     H27354   5.264   1.698   0.226 -1.1178 -0.3110 -1.3318
  923MOL0     H27355   5.020   1.746   0.208 -1.3356  1.9481  0.5013
  923MOL0     H27356   4.658   1.706   0.463  0.1835 -1.6171 -0.2381
  923MOL0     H27357   4.439   1.702   0.549  3.4931 -0.3348  1.2774
  923MOL0     H27358   3.070   2.144   1.398  0.5918  0.0740  1.6086
  923MOL0     H27359   2.841   2.231   1.325 -2.2351 -1.9293 -1.1333
  923MOL0     H27360   2.506   2.048   1.063  0.2136 -1.8212  1.3821
  923MOL0     H27361   2.303   2.080   0.947  3.5324 -1.0670  0.3168
  923MOL0     H27362   1.903   2.130   0.965 -0.4133 -0.8004  0.8547
  923MOL0     H27363   2.064   2.133   0.893 -2.1303 -4.6669 -4.9306
  923MOL0     H27364   2.094   1.906   1.007 -0.6224  1.3247  1.2129
  923MOL0     H27365   1.981   1.912   0.868 -0.8576 -1.6180  0.8069
  923MOL0     H27366   1.877   1.942   1.148  0.0543 -1.0110  0.5143
  923MOL0     H27367   1.793   1.878   1.003  0.2863 -0.2373 -0.5574
  923MOL0     H27368   1.859   1.697   1.177  2.1662 -0.6358  1.6886
  923MOL0     H27369   2.020   1.746   1.157  0.1280 -2.1522 -1.1156
  923MOL0     H27370   1.976   1.518   0.796 -1.4481 -3.2594  1.8056
  923MOL0     H27371   2.121   2.154   1.342 -1.0270 -1.0775 -1.2823
  923MOL0     H27372   2.370   2.288   1.492 -2.2639  1.1865  1.7366
  923MOL0     H27373   2.237   2.181   1.538  0.0317 -2.2852  1.2387
  923MOL0     H27374   2.391   2.114   1.551 -2.6967 -0.3570  1.9210
  924MOL0     O27375   6.322   0.951   7.297  0.2115 -0.1620 -0.0935
  924MOL0     C27376   6.358   0.840   7.266  0.5523 -0.1285  0.7255
  924MOL0     O27377   6.284   0.735   7.266 -0.6639 -0.1514 -0.1049
  924MOL0     C27378   6.150   0.753   7.245  0.0222  0.0412 -0.2623
  924MOL0     C27379   6.061   0.667   7.308  0.0980 -0.1823 -1.0173
  924MOL0     C27380   5.925   0.661   7.274 -0.3470 -0.3977 -0.5116
  924MOL0     C27381   5.869   0.735   7.174 -0.7036 -0.1578 -0.2316
  924MOL0     O27382   5.732   0.714   7.147  0.8421 -0.4782 -0.1911
  924MOL0     C27383   5.681   0.835   7.094  0.3683 -0.3690  0.2484
  924MOL0     C27384   5.528   0.841   7.105  0.3597 -0.4701 -0.4138
  924MOL0     C27385   5.472   0.810   7.245 -0.1951 -0.5915 -0.3878
  924MOL0     C27386   5.318   0.827   7.252 -0.5350  0.1965  0.6051
  924MOL0     C27387   5.256   0.802   7.389 -0.0571 -0.2914 -0.1192
  924MOL0     C27388   5.233   0.657   7.437 -0.5760 -0.4927 -0.0292
  924MOL0     C27389   5.170   0.656   7.574 -0.7364  0.9938  0.4955
  924MOL0     C27390   5.147   0.515   7.617  0.6488  0.1753  0.2163
  924MOL0     N27391   5.264   0.422   7.613  0.0931  0.2026  0.0519
  924MOL0     C27392   5.384   0.450   7.661  0.0587  1.0077  0.6356
  924MOL0     C27393   5.460   0.342   7.636  0.7224  0.7844  0.0892
  924MOL0     C27394   5.604   0.325   7.672  0.1728  0.1298  0.3161
  924MOL0     C27395   5.685   0.424   7.591  0.6374  0.5660 -0.3412
  924MOL0     C27396   5.837   0.437   7.634 -0.5612 -0.4398  0.5556
  924MOL0     C27397   5.923   0.319   7.587 -0.3106 -0.4252  0.2910
  924MOL0     O27398   6.060   0.359   7.601 -0.2584 -0.2543  1.1850
  924MOL0     C27399   6.160   0.270   7.565 -0.1824 -0.1747 -0.7191
  924MOL0     C27400   6.161   0.136   7.594  0.3485 -0.0685 -0.5131
  924MOL0     C27401   6.275   0.054   7.570  0.2635 -0.3225  0.6570
  924MOL0     C27402   6.252  -0.098   7.601  0.0779 -0.2558 -0.0595
  924MOL0     C27403   6.391   0.108   7.512 -0.2283 -0.0678 -0.3967
  924MOL0     C27404   6.509   0.018   7.486 -0.7774 -0.1267 -0.4887
  924MOL0     O27405   6.616   0.078   7.421 -0.1971  0.1772 -0.4191
  924MOL0     C27406   6.742   0.022   7.437 -0.4604 -0.9781 -0.0595
  924MOL0     C27407   6.772  -0.100   7.388 -0.4642  0.2668  0.6514
  924MOL0     C27408   6.905  -0.149   7.399  0.2691 -0.0238 -0.3604
  924MOL0     C27409   7.000  -0.078   7.476 -0.5440  0.7455  0.2055
  924MOL0     O27410   7.132  -0.112   7.498  1.0134 -0.2794  0.1526
  924MOL0     C27411   7.162  -0.253   7.472 -0.3821  0.5224  0.3173
  924MOL0     C27412   7.303  -0.285   7.523 -0.0023  1.0884  0.0887
  924MOL0     C27413   7.421  -0.299   7.428 -0.5455 -0.0249  0.0243
  924MOL0     C27414   7.548  -0.341   7.489 -0.0360  0.2034  0.3643
  924MOL0     C27415   7.668  -0.320   7.392 -0.0407  1.0888  0.3652
  924MOL0     C27416   7.802  -0.326   7.479 -0.2060 -0.1560 -0.4091
  924MOL0     C27417   7.930  -0.276   7.404 -0.5426  0.3996  0.5236
  924MOL0     C27418   8.054  -0.317   7.476 -0.5809 -0.8069  0.6082
  924MOL0    Cl27419   8.189  -0.229   7.376 -0.0352 -0.1439 -0.5340
  924MOL0     C27420   6.966   0.043   7.521  0.3068  0.4073 -0.7420
  924MOL0     C27421   6.833   0.093   7.509  0.1072 -0.0317 -0.6594
  924MOL0     O27422   6.508  -0.100   7.532 -0.2417 -0.7810  0.1793
  924MOL0     C27423   6.393   0.245   7.484 -0.1619 -0.8212  0.5195
  924MOL0     C27424   6.275   0.321   7.509 -0.9410 -0.3532 -0.2728
  924MOL0     N27425   5.389   0.260   7.553  0.6976 -0.1200 -0.4843
  924MOL0     N27426   5.261   0.301   7.550 -0.2012 -0.6372 -0.5510
  924MOL0     C27427   5.957   0.817   7.106 -0.3286  0.7828  0.1154
  924MOL0     C27428   6.096   0.824   7.135  0.0231  0.1910  0.4272
  924MOL0     C27429   6.491   0.832   7.221 -0.3648 -0.1952 -0.0494
  924MOL0     C27430   6.551   0.937   7.144 -0.1954  0.7451 -0.3010
  924MOL0     C27431   6.689   0.930   7.110  0.0592 -0.2608  0.0476
  924MOL0     C27432   6.771   0.822   7.139 -0.2532  0.4760 -0.2669
  924MOL0     O27433   6.906   0.834   7.106  0.4002 -0.0207 -0.2963
  924MOL0     C27434   6.987   0.742   7.178  0.1956 -0.4568  0.8679
  924MOL0     C27435   7.139   0.766   7.160  0.0645  0.0971  0.1540
  924MOL0     C27436   7.159   0.760   7.006 -0.4524 -0.4488  0.2605
  924MOL0     C27437   7.311   0.768   6.985  0.3870  0.6360  0.8328
  924MOL0     C27438   7.345   0.772   6.843  0.6974  0.8058 -0.1811
  924MOL0     C27439   7.383   0.769   6.729  0.2151  0.7747  0.6908
  924MOL0     C27440   6.712   0.721   7.223 -0.5792  0.0975  0.6307
  924MOL0     C27441   6.575   0.716   7.258  0.0741  0.4915  1.1871
  924MOL0     C27442   6.538   0.599   7.347 -0.0310  0.1824  0.4087
  924MOL0     H27443   6.089   0.589   7.379 -1.9876 -1.6137 -1.7081
  924MOL0     H27444   5.855   0.593   7.321 -0.6074 -0.2822 -0.7324
  924MOL0     H27445   5.716   0.823   6.990  0.6714  2.5771 -0.0553
  924MOL0     H27446   5.726   0.925   7.136 -2.3623  0.2230  2.1060
  924MOL0     H27447   5.497   0.942   7.077 -3.1315 -1.2762  0.0790
  924MOL0     H27448   5.487   0.766   7.037 -0.1004 -1.0854  0.5172
  924MOL0     H27449   5.504   0.709   7.271  1.2305  0.6064  3.0728
  924MOL0     H27450   5.524   0.879   7.312 -0.4062 -0.5394 -0.2785
  924MOL0     H27451   5.288   0.927   7.221  0.4876 -0.4906 -3.0215
  924MOL0     H27452   5.282   0.751   7.181  1.1655 -3.3999  3.2579
  924MOL0     H27453   5.157   0.840   7.364  0.0578 -1.4355 -2.5410
  924MOL0     H27454   5.309   0.871   7.456 -1.6658  1.1569 -0.2611
  924MOL0     H27455   5.175   0.608   7.359  0.9483 -2.0662 -0.2321
  924MOL0     H27456   5.336   0.621   7.445  0.3409  1.5689 -1.6134
  924MOL0     H27457   5.069   0.697   7.564 -1.4857 -0.9272 -0.2207
  924MOL0     H27458   5.227   0.708   7.651 -1.3852  0.0373  1.6722
  924MOL0     H27459   5.105   0.515   7.718 -2.4464 -0.3387 -0.9520
  924MOL0     H27460   5.072   0.468   7.553 -0.4453  0.4496  1.2560
  924MOL0     H27461   5.412   0.537   7.720 -1.0469  1.3988  0.6028
  924MOL0     H27462   5.631   0.223   7.643 -2.1825 -0.1072 -1.3220
  924MOL0     H27463   5.619   0.345   7.779  1.4952  0.1207  0.1535
  924MOL0     H27464   5.679   0.404   7.483 -0.1863 -0.2213 -0.1584
  924MOL0     H27465   5.633   0.521   7.588 -0.4535 -0.0093 -2.8722
  924MOL0     H27466   5.886   0.527   7.598  0.9011 -1.4173  0.0211
  924MOL0     H27467   5.835   0.447   7.742  2.4328 -3.1409  1.0013
  924MOL0     H27468   5.907   0.229   7.649  0.2073 -0.3011  0.6133
  924MOL0     H27469   5.899   0.300   7.482  0.9611  0.1373 -0.1220
  924MOL0     H27470   6.073   0.088   7.635  0.9692 -1.5226 -0.8191
  924MOL0     H27471   6.277  -0.157   7.512  1.6540  1.4922 -0.8474
  924MOL0     H27472   6.151  -0.119   7.639  0.1773 -0.4749  0.0840
  924MOL0     H27473   6.311  -0.129   7.687 -1.2520 -0.0629  0.9624
  924MOL0     H27474   6.698  -0.161   7.338  0.3883 -2.3501  2.3661
  924MOL0     H27475   6.935  -0.241   7.350  2.3755  0.2412  0.3067
  924MOL0     H27476   7.087  -0.322   7.513  0.0875 -0.5253 -0.5359
  924MOL0     H27477   7.154  -0.272   7.364 -2.3561  0.5025  0.4367
  924MOL0     H27478   7.347  -0.206   7.585  0.0357  1.6867 -0.6793
  924MOL0     H27479   7.294  -0.372   7.588 -2.8334  2.6742  2.0101
  924MOL0     H27480   7.437  -0.204   7.377  1.5668 -0.9441 -1.1504
  924MOL0     H27481   7.410  -0.374   7.348  4.3075 -0.0821 -0.9297
  924MOL0     H27482   7.544  -0.449   7.508 -0.5495  0.1867  0.1539
  924MOL0     H27483   7.563  -0.288   7.583 -2.1529 -2.9027  2.6554
  924MOL0     H27484   7.668  -0.401   7.318  1.0512  3.0931 -1.9920
  924MOL0     H27485   7.666  -0.229   7.331  1.3888  1.9351  1.4967
  924MOL0     H27486   7.808  -0.431   7.509  0.8823  0.0851  0.2607
  924MOL0     H27487   7.786  -0.254   7.560 -1.1385  0.7435 -1.3510
  924MOL0     H27488   7.932  -0.168   7.388 -1.4569  0.2581 -0.7631
  924MOL0     H27489   7.936  -0.320   7.304 -0.1283  2.1927 -0.2664
  924MOL0     H27490   8.069  -0.425   7.475 -1.4244 -1.1407 -4.9218
  924MOL0     H27491   8.061  -0.265   7.572  2.0066  0.0793  0.0172
  924MOL0     H27492   7.042   0.084   7.587 -0.1409  0.6755 -0.3840
  924MOL0     H27493   6.810   0.185   7.562  2.0591  0.7475 -1.0829
  924MOL0     H27494   6.484   0.296   7.454 -0.7541  0.6666  1.1125
  924MOL0     H27495   6.271   0.427   7.487 -2.4716 -0.4896 -0.7791
  924MOL0     H27496   5.935   0.864   7.011  1.4727  1.1251 -0.1777
  924MOL0     H27497   6.159   0.887   7.073 -0.9482  3.5517  2.5738
  924MOL0     H27498   6.485   1.013   7.103 -1.0272  1.1369  1.6455
  924MOL0     H27499   6.727   1.012   7.050 -1.8343 -1.0977 -2.4865
  924MOL0     H27500   6.973   0.749   7.286  2.3007  2.8396  1.0537
  924MOL0     H27501   6.975   0.642   7.135  0.1621 -0.0712 -0.0465
  924MOL0     H27502   7.204   0.696   7.213  0.5789 -0.6523 -1.4026
  924MOL0     H27503   7.150   0.860   7.215 -2.7034  1.9920 -2.2508
  924MOL0     H27504   7.116   0.668   6.964 -0.4462 -1.2344  1.9222
  924MOL0     H27505   7.105   0.842   6.956 -1.4469 -2.1954 -1.6972
  924MOL0     H27506   7.355   0.676   7.024  3.0828  0.4011 -2.3468
  924MOL0     H27507   7.354   0.859   7.027 -0.1825  1.8183 -1.0276
  924MOL0     H27508   7.415   0.766   6.627 -2.9363  1.4321 -0.4259
  924MOL0     H27509   6.765   0.630   7.249 -0.5810 -0.5632 -1.4822
  924MOL0     H27510   6.438   0.608   7.390 -0.8624  0.5847 -1.5084
  924MOL0     H27511   6.532   0.505   7.291 -2.6302  0.7897 -0.4521
  924MOL0     H27512   6.608   0.590   7.431  0.5984  4.2532  0.5122
  925MOL0     O27513   4.563   5.220   0.046 -0.0628  0.1835 -0.0772
  925MOL0     C27514   4.551   5.095   0.033 -0.6980  0.2322 -0.8829
  925MOL0     O27515   4.650   5.001   0.018 -0.0006  0.1313  0.5506
  925MOL0     C27516   4.778   5.045   0.020  1.2357  0.1650 -0.0480
  925MOL0     C27517   4.835   5.115   0.122 -0.0092  0.2916 -0.7419
  925MOL0     C27518   4.971   5.140   0.114 -0.2151 -0.6084 -0.0883
  925MOL0     C27519   5.043   5.093   0.007 -0.6147 -0.7816  0.1720
  925MOL0     O27520   5.177   5.128  -0.013 -0.5089 -0.6180 -0.5424
  925MOL0     C27521   5.258   5.178   0.096 -0.0618  0.9492 -0.0681
  925MOL0     C27522   5.407   5.187   0.062  0.8317  0.4437  1.2251
  925MOL0     C27523   5.474   5.045   0.024 -0.7234 -0.3502 -0.1479
  925MOL0     C27524   5.464   5.005  -0.120  0.0655  0.7862 -0.4163
  925MOL0     C27525   5.548   4.879  -0.137 -0.3635  0.1311 -0.2414
  925MOL0     C27526   5.544   4.837  -0.287 -0.2948 -0.0416  0.6691
  925MOL0     C27527   5.639   4.726  -0.307 -0.4225  0.8518  0.5244
  925MOL0     C27528   5.698   4.734  -0.449 -0.3135  0.7284  0.8984
  925MOL0     N27529   5.621   4.683  -0.554 -0.0286  0.3470  0.0166
  925MOL0     C27530   5.563   4.552  -0.570 -0.7365 -0.2959  0.5010
  925MOL0     C27531   5.506   4.553  -0.689  0.3922  1.3341  0.7742
  925MOL0     C27532   5.438   4.434  -0.766  0.3472 -0.0928 -0.1369
  925MOL0     C27533   5.305   4.382  -0.703 -0.0405  0.1778 -0.0904
  925MOL0     C27534   5.217   4.315  -0.810  0.0385 -0.3448  0.2083
  925MOL0     C27535   5.074   4.269  -0.758 -1.5645 -0.0091 -0.1781
  925MOL0     O27536   5.090   4.176  -0.645 -0.1646 -0.0809  0.3542
  925MOL0     C27537   4.988   4.183  -0.553 -0.3028  0.1573 -0.0735
  925MOL0     C27538   5.020   4.128  -0.431 -0.0827  0.2616 -0.1766
  925MOL0     C27539   4.926   4.098  -0.333 -0.3616 -0.0014 -0.4292
  925MOL0     C27540   4.974   4.032  -0.212  0.2167 -0.1531 -0.7262
  925MOL0     C27541   4.791   4.146  -0.352 -0.1823 -0.4399 -0.2925
  925MOL0     C27542   4.685   4.126  -0.249  0.5470  0.2050  0.0051
  925MOL0     O27543   4.564   4.154  -0.297  1.2333  0.3016  0.0136
  925MOL0     C27544   4.449   4.087  -0.240  0.1391 -0.8089 -0.0866
  925MOL0     C27545   4.321   4.137  -0.271  0.1219  0.0619 -0.0857
  925MOL0     C27546   4.206   4.086  -0.213  0.5987 -0.0327 -0.1046
  925MOL0     C27547   4.217   3.971  -0.134  0.2594 -0.8070  0.6351
  925MOL0     O27548   4.107   3.921  -0.068 -0.2733  0.1732  0.1080
  925MOL0     C27549   4.008   3.871  -0.155  0.2701  0.2074 -0.3243
  925MOL0     C27550   3.874   3.927  -0.108 -1.2206 -0.3230  0.1584
  925MOL0     C27551   3.756   3.865  -0.177 -0.0642 -0.1665 -0.1585
  925MOL0     C27552   3.624   3.930  -0.136 -0.1327 -0.0373  0.5026
  925MOL0     C27553   3.500   3.858  -0.192  0.2855 -0.1377 -1.0673
  925MOL0     C27554   3.366   3.924  -0.155 -0.7936 -0.2774  0.8707
  925MOL0     C27555   3.246   3.835  -0.182 -0.4717  0.4082  0.3607
  925MOL0     C27556   3.124   3.889  -0.114  0.2163 -0.2349  0.0585
  925MOL0    Cl27557   3.071   4.058  -0.184  0.2147  0.2299  0.6252
  925MOL0     C27558   4.340   3.906  -0.112 -0.8702 -0.5401  0.4046
  925MOL0     C27559   4.458   3.965  -0.155 -0.1081 -0.9863  0.2758
  925MOL0     O27560   4.718   4.110  -0.127 -0.0496 -0.1407  0.2435
  925MOL0     C27561   4.754   4.209  -0.477 -0.0705  0.0482 -0.0873
  925MOL0     C27562   4.853   4.220  -0.580 -0.2470 -0.1585 -0.1116
  925MOL0     N27563   5.521   4.675  -0.743  0.3818 -0.1429 -0.1535
  925MOL0     N27564   5.605   4.744  -0.670 -0.3583 -0.3651 -0.4263
  925MOL0     C27565   4.991   5.006  -0.075  0.5531  0.2271  0.1015
  925MOL0     C27566   4.855   4.988  -0.076 -0.7051 -0.0880 -0.3656
  925MOL0     C27567   4.417   5.049   0.055  0.9788  0.1279  0.0741
  925MOL0     C27568   4.321   5.148   0.057  0.3574  0.0463 -0.1582
  925MOL0     C27569   4.183   5.108   0.057 -0.3614  0.2560  0.3228
  925MOL0     C27570   4.148   4.973   0.059  0.2210  0.1880  0.5214
  925MOL0     O27571   4.019   4.940   0.052  0.7042  0.2839  0.1328
  925MOL0     C27572   3.973   4.823  -0.015 -0.1583 -0.9125  0.5873
  925MOL0     C27573   3.923   4.718   0.086 -0.3706  0.5417  0.1157
  925MOL0     C27574   3.769   4.716   0.088  0.0548  0.3233  0.5212
  925MOL0     C27575   3.733   4.585   0.170 -0.0166  0.3554 -0.1805
  925MOL0     C27576   3.588   4.578   0.193  0.2026 -0.1341 -0.7294
  925MOL0     C27577   3.468   4.578   0.206  0.9304  0.3047 -0.4045
  925MOL0     C27578   4.242   4.881   0.078 -0.2558 -0.0545 -0.0244
  925MOL0     C27579   4.377   4.913   0.063 -0.0743  0.4038  0.2829
  925MOL0     C27580   4.467   4.802   0.094 -0.0395  0.4643  0.2080
  925MOL0     H27581   4.780   5.155   0.207  0.4617 -1.3684  0.4016
  925MOL0     H27582   5.011   5.203   0.193  0.8156 -2.3653  0.8420
  925MOL0     H27583   5.243   5.125   0.190 -0.7299  2.1727  0.5472
  925MOL0     H27584   5.228   5.282   0.115  1.1102  0.9699  1.8749
  925MOL0     H27585   5.428   5.254  -0.022  0.9948 -0.1514  0.7856
  925MOL0     H27586   5.461   5.230   0.148  1.1565  1.1715  0.6705
  925MOL0     H27587   5.582   5.047   0.040 -0.5124 -0.3585 -1.5207
  925MOL0     H27588   5.427   4.968   0.085 -0.8748  0.5494  0.9142
  925MOL0     H27589   5.358   4.980  -0.135  0.2566 -0.0377 -0.4271
  925MOL0     H27590   5.505   5.087  -0.181 -0.9397  1.8902  0.3507
  925MOL0     H27591   5.505   4.789  -0.092 -0.1955 -1.2126 -2.6192
  925MOL0     H27592   5.650   4.898  -0.101 -0.8975  4.0480 -0.4179
  925MOL0     H27593   5.443   4.809  -0.319 -0.3394  0.9830 -0.1331
  925MOL0     H27594   5.573   4.922  -0.348 -1.8167 -0.7192 -1.0778
  925MOL0     H27595   5.585   4.633  -0.291 -1.9220  1.8779  1.6914
  925MOL0     H27596   5.726   4.726  -0.240 -1.0453  1.1050  1.3550
  925MOL0     H27597   5.729   4.835  -0.478  1.2577  0.5563  1.8455
  925MOL0     H27598   5.793   4.680  -0.442  0.6800  2.4328  0.9639
  925MOL0     H27599   5.574   4.463  -0.509 -1.5240 -2.6056 -2.4433
  925MOL0     H27600   5.513   4.354  -0.764  2.7423  2.0651  0.4498
  925MOL0     H27601   5.416   4.464  -0.869 -1.1102  1.0181  0.4784
  925MOL0     H27602   5.330   4.312  -0.623 -0.2911  0.8179  0.5656
  925MOL0     H27603   5.242   4.461  -0.662  2.9765  0.6177  4.4447
  925MOL0     H27604   5.197   4.382  -0.895 -0.1520 -1.0663 -0.3291
  925MOL0     H27605   5.260   4.228  -0.860 -4.1461 -0.9047 -3.0189
  925MOL0     H27606   5.008   4.351  -0.728 -3.0553 -1.4739  0.7850
  925MOL0     H27607   5.026   4.223  -0.845  1.8249 -0.1056 -2.1541
  925MOL0     H27608   5.121   4.101  -0.404  0.0571  1.6319  0.8065
  925MOL0     H27609   5.081   4.009  -0.210  0.0101 -1.1001  1.5536
  925MOL0     H27610   4.920   3.937  -0.201  0.9443 -0.4474  0.3988
  925MOL0     H27611   4.957   4.088  -0.120  0.7452 -0.0515 -0.6893
  925MOL0     H27612   4.322   4.234  -0.321  1.0830  1.2129  2.0036
  925MOL0     H27613   4.112   4.138  -0.223  0.0222  0.0148  3.8139
  925MOL0     H27614   4.033   3.894  -0.259  0.1638  0.0251 -0.3922
  925MOL0     H27615   4.015   3.763  -0.139  2.4448  0.6057  2.1262
  925MOL0     H27616   3.866   3.921   0.001 -0.0750  0.8567  0.3329
  925MOL0     H27617   3.876   4.035  -0.125  3.2612 -0.1115  0.9231
  925MOL0     H27618   3.754   3.757  -0.165 -1.3629 -0.1700 -0.2508
  925MOL0     H27619   3.778   3.886  -0.282  0.2555  1.8353  0.2597
  925MOL0     H27620   3.630   4.027  -0.188  0.0930  0.4552  1.4368
  925MOL0     H27621   3.622   3.961  -0.031  3.3895  2.7811 -0.0763
  925MOL0     H27622   3.508   3.848  -0.300 -1.4073 -0.5285 -1.1951
  925MOL0     H27623   3.515   3.757  -0.152  0.2238  0.5359  0.7737
  925MOL0     H27624   3.360   4.014  -0.217  3.2679 -0.4259 -0.0343
  925MOL0     H27625   3.378   3.954  -0.051  3.4108  0.9413  0.2168
  925MOL0     H27626   3.263   3.732  -0.148 -2.4182  0.4600  1.6223
  925MOL0     H27627   3.243   3.823  -0.291 -2.6805  0.1669  0.3954
  925MOL0     H27628   3.142   3.900  -0.007 -1.5244  0.7475  0.2874
  925MOL0     H27629   3.048   3.812  -0.131 -3.2385  2.6775  1.1032
  925MOL0     H27630   4.362   3.821  -0.048  5.7896  1.8205  2.0286
  925MOL0     H27631   4.549   3.911  -0.135  0.7015  0.7570  1.5971
  925MOL0     H27632   4.653   4.246  -0.486 -0.4900 -0.6858  1.3983
  925MOL0     H27633   4.823   4.262  -0.675  2.3052 -2.6549 -2.1961
  925MOL0     H27634   5.053   4.965  -0.154 -1.3504 -0.3272 -1.1663
  925MOL0     H27635   4.819   4.935  -0.163  0.2687 -0.2709 -0.6728
  925MOL0     H27636   4.333   5.255   0.043  2.3041 -0.4358 -3.2002
  925MOL0     H27637   4.102   5.179   0.048 -2.4687 -1.9836  0.6723
  925MOL0     H27638   3.896   4.840  -0.091  1.6512  0.4505 -1.0187
  925MOL0     H27639   4.063   4.782  -0.063  1.8569  0.2370  3.1517
  925MOL0     H27640   3.963   4.740   0.185 -0.2077  2.0888 -0.2663
  925MOL0     H27641   3.952   4.617   0.053  0.3616  1.1220 -1.1068
  925MOL0     H27642   3.731   4.806   0.137 -2.8319  0.7058 -2.1072
  925MOL0     H27643   3.727   4.705  -0.013  1.1828 -1.0734  0.1763
  925MOL0     H27644   3.774   4.574   0.271 -0.5817  0.2469  0.0408
  925MOL0     H27645   3.763   4.496   0.114 -0.0695  0.1235  0.1576
  925MOL0     H27646   3.362   4.565   0.208  0.9468 -1.0436 -3.3764
  925MOL0     H27647   4.211   4.777   0.091 -4.3170  0.5643 -2.8599
  925MOL0     H27648   4.540   4.776   0.016 -0.2762  0.5080 -0.0294
  925MOL0     H27649   4.530   4.829   0.179 -1.6247  0.0050  1.5746
  925MOL0     H27650   4.412   4.711   0.118  1.2151 -1.3658 -3.2015
  926MOL0     O27651   2.097   7.992   9.257  0.1435  0.4115  0.2270
  926MOL0     C27652   2.033   7.904   9.204 -1.3453 -0.0634  0.8295
  926MOL0     O27653   2.087   7.774   9.191  0.0925  0.0564  0.1490
  926MOL0     C27654   2.208   7.751   9.245  0.0318  0.6015  0.1916
  926MOL0     C27655   2.229   7.745   9.385 -0.1967  0.4584 -0.4404
  926MOL0     C27656   2.356   7.729   9.444  0.0094  0.2557  0.3611
  926MOL0     C27657   2.471   7.701   9.356  0.2376  0.0387 -0.4306
  926MOL0     O27658   2.606   7.684   9.384 -0.5309  0.4548 -0.6420
  926MOL0     C27659   2.652   7.661   9.519 -0.0264  0.3698  0.4560
  926MOL0     C27660   2.785   7.581   9.525 -0.9953 -0.2098 -0.0760
  926MOL0     C27661   2.871   7.604   9.655  0.1024  0.1837 -0.0344
  926MOL0     C27662   2.991   7.509   9.671 -0.3476  0.5159  0.1276
  926MOL0     C27663   3.086   7.559   9.781 -0.5639 -0.4462  1.1064
  926MOL0     C27664   3.190   7.662   9.719  0.0502  0.0340 -0.9037
  926MOL0     C27665   3.309   7.698   9.806  0.5929  0.3886 -0.1559
  926MOL0     C27666   3.398   7.574   9.847  0.0526  0.1656  0.4665
  926MOL0     N27667   3.510   7.612   9.920 -1.0613  0.1514 -0.2469
  926MOL0     C27668   3.640   7.610   9.873  0.3539 -0.2082 -0.5605
  926MOL0     C27669   3.709   7.665   9.975 -0.5422 -0.2059 -0.0863
  926MOL0     C27670   3.853   7.700   9.946  0.7868 -0.6690  0.2518
  926MOL0     C27671   3.937   7.584   9.988 -1.1053 -0.5957  1.0278
  926MOL0     C27672   4.034   7.561   9.874  0.7687 -0.6770  0.6848
  926MOL0     C27673   4.124   7.448   9.907  0.0431  0.7166 -1.1560
  926MOL0     O27674   4.209   7.429   9.798  1.2061  0.2339  0.5984
  926MOL0     C27675   4.336   7.480   9.795  0.3910 -0.5795 -0.2518
  926MOL0     C27676   4.386   7.560   9.893  0.1690  0.2050 -0.0059
  926MOL0     C27677   4.527   7.593   9.905 -0.1356  0.1771  0.6114
  926MOL0     C27678   4.556   7.682  10.027  0.7151  0.2232  0.8317
  926MOL0     C27679   4.621   7.536   9.817 -0.3196 -0.1402 -0.4935
  926MOL0     C27680   4.773   7.557   9.820 -0.3371 -0.1580  0.3831
  926MOL0     O27681   4.840   7.455   9.754  1.0236  0.6549 -0.8139
  926MOL0     C27682   4.977   7.453   9.751 -0.6414  0.4299 -0.4898
  926MOL0     C27683   5.046   7.412   9.639  0.5914 -0.2201  0.1273
  926MOL0     C27684   5.185   7.401   9.640  0.1170  0.1923  0.8355
  926MOL0     C27685   5.263   7.433   9.753 -0.0880 -0.2196 -0.1193
  926MOL0     O27686   5.398   7.420   9.756 -0.1356  0.4721 -0.5425
  926MOL0     C27687   5.478   7.538   9.749 -0.2325 -0.0897  0.0044
  926MOL0     C27688   5.618   7.492   9.783 -0.4784 -0.0749  0.3327
  926MOL0     C27689   5.633   7.449   9.931 -0.8432 -0.2337  0.0210
  926MOL0     C27690   5.777   7.399   9.993 -0.0816 -0.0087 -0.3572
  926MOL0     C27691   5.889   7.500   9.967 -1.1072  0.3841 -0.7330
  926MOL0     C27692   5.862   7.647  10.022  0.7741  0.0852 -0.2352
  926MOL0     C27693   5.870   7.653  10.173  0.7232  0.0072  0.4598
  926MOL0     C27694   5.828   7.782  10.230  0.8190  0.2863  0.0249
  926MOL0    Cl27695   5.934   7.905  10.161 -0.0883 -0.1889 -0.3522
  926MOL0     C27696   5.190   7.465   9.870 -0.6708  0.6106 -0.3296
  926MOL0     C27697   5.052   7.477   9.871 -0.4178  1.0896 -0.7398
  926MOL0     O27698   4.828   7.664   9.851 -0.5604 -0.2124 -1.0037
  926MOL0     C27699   4.566   7.464   9.714  0.3730 -0.3495  0.5592
  926MOL0     C27700   4.425   7.429   9.707 -0.9502  0.1825 -0.2870
  926MOL0     N27701   3.622   7.692  10.081 -0.4148 -0.8418  0.2629
  926MOL0     N27702   3.504   7.642  10.048  0.2418  0.2127  0.6336
  926MOL0     C27703   2.441   7.691   9.221 -0.0698  0.1178  0.1543
  926MOL0     C27704   2.313   7.708   9.167  0.3179 -0.5387  0.3925
  926MOL0     C27705   1.895   7.925   9.161 -0.6288 -1.1305 -1.0043
  926MOL0     C27706   1.832   7.809   9.119  0.5538  0.4628  0.9009
  926MOL0     C27707   1.703   7.817   9.069  0.1527 -0.4392  0.1723
  926MOL0     C27708   1.631   7.936   9.075  0.2783  0.3339  0.5814
  926MOL0     O27709   1.493   7.914   9.064  0.2247 -0.5987 -0.2511
  926MOL0     C27710   1.406   8.014   9.019  0.3516 -0.7476  0.2859
  926MOL0     C27711   1.267   7.961   9.005 -0.8804  0.4892  0.2362
  926MOL0     C27712   1.240   7.863   8.890  0.2215  1.1189  0.4457
  926MOL0     C27713   1.109   7.780   8.895 -0.7459  0.1232 -1.1633
  926MOL0     C27714   1.092   7.677   8.786  1.1259 -0.2349 -0.4487
  926MOL0     C27715   1.073   7.601   8.699  0.4317 -0.2851  0.0059
  926MOL0     C27716   1.691   8.059   9.118 -0.9811 -0.3192  0.7944
  926MOL0     C27717   1.835   8.053   9.138  0.4022 -0.5545 -0.2036
  926MOL0     C27718   1.892   8.186   9.178  0.4869 -0.5907  0.2286
  926MOL0     H27719   2.158   7.742   9.467 -0.2122 -1.7901 -0.4868
  926MOL0     H27720   2.357   7.733   9.552  0.3804 -1.9875  0.4857
  926MOL0     H27721   2.580   7.605   9.580 -1.8567 -0.6813 -2.4410
  926MOL0     H27722   2.679   7.759   9.559 -0.6251  1.5432 -1.8190
  926MOL0     H27723   2.763   7.474   9.510 -2.4718  0.2294 -1.4303
  926MOL0     H27724   2.842   7.618   9.439  1.5444 -0.3472  1.4577
  926MOL0     H27725   2.894   7.710   9.664 -2.5250  1.0312 -1.8622
  926MOL0     H27726   2.807   7.591   9.743 -1.5584  0.5142 -1.1451
  926MOL0     H27727   2.948   7.413   9.701  0.0082  0.4100  0.3044
  926MOL0     H27728   3.054   7.504   9.582  0.8143  3.4199  0.7043
  926MOL0     H27729   3.148   7.478   9.819 -0.1630 -0.9772 -0.5946
  926MOL0     H27730   3.033   7.594   9.870  0.4375  2.6858  0.6279
  926MOL0     H27731   3.234   7.632   9.624 -0.9996  0.1457 -1.4387
  926MOL0     H27732   3.136   7.753   9.692 -0.8884  0.5364  2.2265
  926MOL0     H27733   3.280   7.743   9.901 -0.1985 -3.0920  1.4349
  926MOL0     H27734   3.375   7.776   9.768  2.2988  1.3883  4.2572
  926MOL0     H27735   3.346   7.503   9.913  0.9248 -0.3738  0.5911
  926MOL0     H27736   3.425   7.510   9.762  2.6018  0.7828  0.7248
  926MOL0     H27737   3.685   7.583   9.778  0.6931 -1.7847  0.0173
  926MOL0     H27738   3.899   7.788   9.991  1.1602 -0.9073  0.3364
  926MOL0     H27739   3.851   7.714   9.838  0.4714 -2.4403 -0.0014
  926MOL0     H27740   3.999   7.631  10.065  2.2177 -1.4033 -0.9176
  926MOL0     H27741   3.881   7.499  10.027  1.1486 -1.7803  1.8856
  926MOL0     H27742   3.987   7.546   9.776  1.7235  0.4050  0.0281
  926MOL0     H27743   4.095   7.651   9.858  2.6740 -2.0969 -0.4669
  926MOL0     H27744   4.164   7.452  10.009 -0.6307 -4.9877 -0.3214
  926MOL0     H27745   4.062   7.358   9.911  1.3916 -0.2552 -1.2083
  926MOL0     H27746   4.302   7.592   9.954 -1.3060  0.2869 -1.9585
  926MOL0     H27747   4.579   7.622  10.116  0.4065  0.0702  0.8114
  926MOL0     H27748   4.458   7.729  10.042 -0.6723 -0.9215 -3.1727
  926MOL0     H27749   4.631   7.759  10.012  0.4055  0.8768  2.4306
  926MOL0     H27750   4.985   7.396   9.551 -0.4821 -1.0140  0.9901
  926MOL0     H27751   5.232   7.378   9.544 -1.8181  0.7942 -0.3208
  926MOL0     H27752   5.484   7.579   9.648 -0.5968 -0.3688 -0.1349
  926MOL0     H27753   5.449   7.619   9.817 -1.3011 -1.1700  0.8786
  926MOL0     H27754   5.638   7.399   9.730 -1.6090  0.0955 -0.4169
  926MOL0     H27755   5.696   7.562   9.751 -1.3742 -0.0193 -1.8763
  926MOL0     H27756   5.568   7.361   9.937  0.8932 -1.4805  1.8128
  926MOL0     H27757   5.599   7.522  10.005  3.2657 -1.2004  3.2861
  926MOL0     H27758   5.812   7.301   9.959  1.6077 -0.2525  1.8859
  926MOL0     H27759   5.767   7.385  10.101 -1.2985  0.5848 -0.3786
  926MOL0     H27760   5.975   7.455  10.017 -3.7487 -1.6430  2.3210
  926MOL0     H27761   5.904   7.492   9.858 -2.1164 -2.7491 -0.7603
  926MOL0     H27762   5.766   7.676   9.980  0.6276 -2.4497 -1.8665
  926MOL0     H27763   5.935   7.712   9.972  0.5074 -0.4133 -1.2965
  926MOL0     H27764   5.977   7.635  10.189  1.4143  1.0976 -2.4411
  926MOL0     H27765   5.820   7.566  10.217  1.8847  0.0437  1.9204
  926MOL0     H27766   5.832   7.779  10.339  0.1530 -1.3302  0.0241
  926MOL0     H27767   5.722   7.795  10.207  0.5051 -1.4819  0.3884
  926MOL0     H27768   5.244   7.481   9.963 -0.0892 -1.5016 -0.2384
  926MOL0     H27769   4.995   7.489   9.963 -0.9129  0.3676 -0.9385
  926MOL0     H27770   4.618   7.419   9.630 -3.6733 -1.7398 -1.4755
  926MOL0     H27771   4.372   7.353   9.651 -0.4597 -0.8192  0.5890
  926MOL0     H27772   2.525   7.665   9.158 -2.0261  2.5487 -3.8390
  926MOL0     H27773   2.298   7.705   9.059 -0.9706 -0.1545  0.5494
  926MOL0     H27774   1.871   7.708   9.111 -2.0752 -0.4618 -2.5974
  926MOL0     H27775   1.662   7.721   9.040  0.9320 -0.9507  0.7374
  926MOL0     H27776   1.401   8.095   9.092 -1.3469 -0.3980 -0.1641
  926MOL0     H27777   1.452   8.045   8.924  0.0731 -3.4549 -0.8303
  926MOL0     H27778   1.203   8.050   9.008 -0.2290  0.9426  1.1136
  926MOL0     H27779   1.245   7.913   9.101  1.1394  2.7574  1.9486
  926MOL0     H27780   1.227   7.923   8.799 -1.6464  0.0239 -0.0735
  926MOL0     H27781   1.326   7.797   8.875 -0.7033  0.1821 -1.1042
  926MOL0     H27782   1.017   7.837   8.883 -0.9452  0.1072  0.1915
  926MOL0     H27783   1.095   7.730   8.991  0.0942  2.7399  0.4115
  926MOL0     H27784   1.067   7.527   8.622 -0.1292 -1.6279  1.3020
  926MOL0     H27785   1.639   8.154   9.111 -0.6813 -0.2009 -0.0301
  926MOL0     H27786   1.958   8.220   9.097  1.2828 -0.2144  1.0174
  926MOL0     H27787   1.812   8.259   9.197 -0.0240 -0.7703 -1.0782
  926MOL0     H27788   1.946   8.177   9.272  0.7255 -0.5320  0.0967
  927MOL0     O27789   1.563   2.015   2.308  0.3863 -0.2216 -0.2826
  927MOL0     C27790   1.541   1.989   2.191  0.1138 -0.4022 -0.3262
  927MOL0     O27791   1.633   2.007   2.089 -0.2529  0.7161 -0.3630
  927MOL0     C27792   1.750   2.074   2.101  0.5950 -0.3451 -0.5893
  927MOL0     C27793   1.751   2.212   2.153 -0.2056  0.6201  0.5341
  927MOL0     C27794   1.877   2.283   2.140  0.6592  0.0178 -0.1147
  927MOL0     C27795   1.992   2.234   2.083  0.2645 -0.6920  0.3768
  927MOL0     O27796   2.109   2.306   2.095 -0.1695 -0.2990  0.0913
  927MOL0     C27797   2.226   2.253   2.024  0.2974  0.0094 -0.2904
  927MOL0     C27798   2.349   2.352   2.057  1.1436  0.7536 -0.3853
  927MOL0     C27799   2.491   2.297   2.067 -0.0608 -0.0940 -0.6980
  927MOL0     C27800   2.535   2.244   1.924 -0.2371  0.8358 -0.4873
  927MOL0     C27801   2.678   2.189   1.927 -0.8258 -0.5138 -0.3512
  927MOL0     C27802   2.787   2.294   1.945 -0.8161 -0.4762  0.1890
  927MOL0     C27803   2.929   2.248   1.884  0.4658 -0.1183  0.0130
  927MOL0     C27804   2.995   2.118   1.926  0.0126  0.2259 -0.8561
  927MOL0     N27805   3.038   2.115   2.069  0.6527  0.3769  0.6553
  927MOL0     C27806   3.052   1.996   2.131  1.1925  0.0190  0.0477
  927MOL0     C27807   3.087   2.016   2.258 -0.2719  0.1368 -0.5530
  927MOL0     C27808   3.113   1.921   2.366  0.1337  0.1980  0.2049
  927MOL0     C27809   3.264   1.911   2.368  0.1236 -0.1895  0.2695
  927MOL0     C27810   3.305   1.793   2.460  0.0446  0.2221  0.2592
  927MOL0     C27811   3.460   1.787   2.481  0.2386 -0.6324  0.0981
  927MOL0     O27812   3.506   1.660   2.429 -0.1401  0.0001 -0.3775
  927MOL0     C27813   3.554   1.568   2.515  0.3653 -0.2700  0.3073
  927MOL0     C27814   3.658   1.487   2.470 -0.0370  0.1186 -0.1371
  927MOL0     C27815   3.731   1.400   2.559  0.1235  0.0537  0.1429
  927MOL0     C27816   3.851   1.334   2.508  0.7200  0.6786  0.7990
  927MOL0     C27817   3.676   1.382   2.684  0.2134 -0.9004 -0.0796
  927MOL0     C27818   3.736   1.292   2.771 -0.4749 -0.5864  0.5128
  927MOL0     O27819   3.838   1.350   2.851  0.0545  0.3942 -0.4645
  927MOL0     C27820   3.916   1.260   2.924 -0.5073 -0.2748 -0.3146
  927MOL0     C27821   3.967   1.129   2.885  0.2274 -0.6798  0.2640
  927MOL0     C27822   4.062   1.061   2.956 -0.5093  0.2541  0.7702
  927MOL0     C27823   4.123   1.117   3.071 -0.3144 -0.2029  0.0661
  927MOL0     O27824   4.231   1.062   3.137  0.0747 -0.1065  0.8171
  927MOL0     C27825   4.344   1.045   3.042  0.1805 -0.4509  0.4991
  927MOL0     C27826   4.449   0.956   3.098 -0.0228 -0.8548  0.4713
  927MOL0     C27827   4.400   0.806   3.111  0.8510 -0.4497  0.4312
  927MOL0     C27828   4.316   0.773   3.238 -0.2591  0.0662 -0.5610
  927MOL0     C27829   4.278   0.624   3.242  0.4270  0.2668  0.2377
  927MOL0     C27830   4.171   0.586   3.144  0.3599 -0.1096  0.6250
  927MOL0     C27831   4.042   0.669   3.160  1.1426  0.0717 -0.0733
  927MOL0     C27832   3.931   0.583   3.095 -0.2315 -0.6678 -0.3027
  927MOL0    Cl27833   3.914   0.615   2.911  0.1957 -0.0655 -0.2644
  927MOL0     C27834   4.082   1.251   3.107  0.0197 -0.1422 -0.1127
  927MOL0     C27835   3.994   1.317   3.031  0.0662 -0.2481  0.8691
  927MOL0     O27836   3.703   1.174   2.768  0.5380 -0.0379  0.5281
  927MOL0     C27837   3.571   1.463   2.730  0.4101  0.8833  0.5512
  927MOL0     C27838   3.512   1.548   2.642 -0.1267 -0.4181 -0.4762
  927MOL0     N27839   3.088   2.156   2.269 -0.7000 -0.9989  0.0887
  927MOL0     N27840   3.058   2.207   2.153 -0.8006  0.1237 -0.5718
  927MOL0     C27841   1.984   2.109   2.015  0.3159 -0.1836 -0.0139
  927MOL0     C27842   1.865   2.036   2.028 -0.3316  0.4095 -0.2162
  927MOL0     C27843   1.421   1.918   2.149  0.2055 -0.2713  0.4090
  927MOL0     C27844   1.427   1.872   2.016  0.3752 -0.6479 -0.1717
  927MOL0     C27845   1.324   1.797   1.956  0.2879 -1.1556  0.2376
  927MOL0     C27846   1.210   1.762   2.034  0.1270 -0.7996 -0.4794
  927MOL0     O27847   1.105   1.685   1.986 -0.2848  0.2041 -0.0377
  927MOL0     C27848   1.136   1.565   1.924  0.0631  1.2179 -0.1589
  927MOL0     C27849   1.099   1.560   1.777  0.8273  0.1142  0.2720
  927MOL0     C27850   0.958   1.616   1.762 -0.0203 -0.2303  0.3249
  927MOL0     C27851   0.917   1.599   1.618  0.2441 -0.4745 -0.4549
  927MOL0     C27852   0.770   1.622   1.611  0.0403 -0.6188  0.7027
  927MOL0     C27853   0.656   1.650   1.590  0.1727 -0.0212 -0.1821
  927MOL0     C27854   1.200   1.822   2.160  0.3882  0.5886 -0.0725
  927MOL0     C27855   1.306   1.885   2.222 -0.2535 -0.3185  0.1311
  927MOL0     C27856   1.283   1.924   2.363 -0.8570 -0.8484 -0.3695
  927MOL0     H27857   1.656   2.237   2.200 -1.0243 -1.0137 -0.1951
  927MOL0     H27858   1.869   2.381   2.187 -0.1510  0.6259 -1.4610
  927MOL0     H27859   2.209   2.247   1.916 -1.2418  1.9225 -0.2104
  927MOL0     H27860   2.252   2.154   2.062  1.5777 -0.7452 -2.9499
  927MOL0     H27861   2.355   2.430   1.982  0.8775 -1.4247 -2.8037
  927MOL0     H27862   2.334   2.399   2.155  1.7001  0.8855 -0.3595
  927MOL0     H27863   2.565   2.368   2.104  0.1130 -1.0845  0.9266
  927MOL0     H27864   2.480   2.227   2.150 -0.4008  0.3823 -0.3349
  927MOL0     H27865   2.477   2.152   1.909  2.1557 -1.1719  1.5360
  927MOL0     H27866   2.503   2.314   1.848 -1.4856  1.9408  0.9907
  927MOL0     H27867   2.692   2.141   1.829 -0.4382 -0.1804 -0.4623
  927MOL0     H27868   2.687   2.112   2.004  1.7077 -2.3563 -2.3211
  927MOL0     H27869   2.772   2.394   1.903  3.5454  0.4161  0.2698
  927MOL0     H27870   2.802   2.306   2.053 -2.7801  0.1566  0.4277
  927MOL0     H27871   2.999   2.331   1.896  2.7278 -1.7014 -1.4029
  927MOL0     H27872   2.916   2.237   1.776  1.1964  0.2455 -0.1189
  927MOL0     H27873   2.925   2.040   1.894 -3.9267  4.2341 -3.3071
  927MOL0     H27874   3.089   2.109   1.870  1.0012  0.3754  0.7139
  927MOL0     H27875   3.046   1.896   2.089 -1.7773  0.4821 -0.8865
  927MOL0     H27876   3.072   1.824   2.339  0.2926  0.2766 -0.3475
  927MOL0     H27877   3.072   1.953   2.462 -1.7128 -0.7079 -0.2399
  927MOL0     H27878   3.305   1.915   2.266  1.8954 -2.0194  0.8440
  927MOL0     H27879   3.299   2.004   2.415 -3.0201  1.7498 -0.8609
  927MOL0     H27880   3.245   1.810   2.550 -0.1752  1.3594 -0.0917
  927MOL0     H27881   3.276   1.701   2.409 -0.7017 -0.7808  2.3575
  927MOL0     H27882   3.511   1.862   2.421  3.2256 -0.2293  2.8540
  927MOL0     H27883   3.499   1.800   2.583  2.2340  0.2040 -0.7212
  927MOL0     H27884   3.693   1.527   2.375 -0.7144 -0.0006 -0.4451
  927MOL0     H27885   3.835   1.340   2.400  0.5270 -2.6749  0.5449
  927MOL0     H27886   3.866   1.229   2.532 -1.4941 -0.6069 -2.6565
  927MOL0     H27887   3.940   1.389   2.538  1.5489 -0.9198  1.3630
  927MOL0     H27888   3.930   1.073   2.800 -1.5643 -2.6395  2.2032
  927MOL0     H27889   4.086   0.964   2.916 -0.7702 -0.1416  1.5504
  927MOL0     H27890   4.312   0.995   2.950  0.2611 -0.5980  0.5503
  927MOL0     H27891   4.383   1.144   3.021  1.3772  0.3288  5.3214
  927MOL0     H27892   4.541   0.965   3.039 -0.7602 -0.2493 -0.6243
  927MOL0     H27893   4.473   1.004   3.193  0.3425  0.4685 -0.2640
  927MOL0     H27894   4.479   0.732   3.096  0.7948 -0.6889  1.2209
  927MOL0     H27895   4.326   0.783   3.033 -0.8240  0.4224  1.6951
  927MOL0     H27896   4.233   0.842   3.257 -2.3034 -2.6493  1.2392
  927MOL0     H27897   4.387   0.793   3.318  2.4937  1.5773 -3.1610
  927MOL0     H27898   4.366   0.564   3.216 -0.0393  0.3166 -1.5539
  927MOL0     H27899   4.244   0.597   3.343 -2.4333  1.5452 -0.3019
  927MOL0     H27900   4.157   0.478   3.158  1.3328 -0.2525  0.5674
  927MOL0     H27901   4.208   0.601   3.042  0.7937 -0.2084  0.7667
  927MOL0     H27902   4.056   0.765   3.109  2.8804 -0.7831 -1.2989
  927MOL0     H27903   4.021   0.678   3.267 -0.9435 -2.7357 -0.1488
  927MOL0     H27904   3.832   0.609   3.134  0.3892 -1.0436  1.6251
  927MOL0     H27905   3.949   0.476   3.109 -0.7064 -0.9567 -1.7472
  927MOL0     H27906   4.125   1.304   3.191 -1.2861  0.8347 -0.0144
  927MOL0     H27907   3.970   1.420   3.055  0.5549  0.2095 -0.5269
  927MOL0     H27908   3.548   1.454   2.835  1.9695  3.1709  1.1827
  927MOL0     H27909   3.435   1.615   2.680 -1.1674 -2.6070  1.5537
  927MOL0     H27910   2.061   2.069   1.949  0.8817  2.2026 -0.9090
  927MOL0     H27911   1.851   1.931   2.006  0.5704 -0.2337  2.0253
  927MOL0     H27912   1.501   1.911   1.947  0.9275  0.5159  1.0318
  927MOL0     H27913   1.317   1.781   1.849  0.2007  1.6632 -0.2574
  927MOL0     H27914   1.244   1.547   1.936  0.0243  2.5043  2.8395
  927MOL0     H27915   1.069   1.492   1.970 -1.5528  2.6254 -0.2048
  927MOL0     H27916   1.103   1.454   1.749 -2.8773  0.8176 -4.0963
  927MOL0     H27917   1.163   1.628   1.719 -0.6072  3.2888  2.1436
  927MOL0     H27918   0.894   1.560   1.831 -0.3432 -1.1620 -0.6887
  927MOL0     H27919   0.961   1.724   1.780 -0.4017 -0.1300 -0.1960
  927MOL0     H27920   0.937   1.498   1.581 -3.7180 -1.0850 -1.4043
  927MOL0     H27921   0.965   1.677   1.558 -0.5874 -1.1408 -2.0312
  927MOL0     H27922   0.554   1.667   1.564 -0.7331 -3.4443  0.7481
  927MOL0     H27923   1.109   1.793   2.210 -1.2026  0.2986 -2.9003
  927MOL0     H27924   1.358   1.874   2.425  0.3459  3.2690  1.8975
  927MOL0     H27925   1.302   2.030   2.384 -1.0843 -0.9951  0.6143
  927MOL0     H27926   1.178   1.903   2.383 -1.0685 -0.5982 -1.1665
  928MOL0     O27927   3.909   1.162   6.948  0.1083 -0.3531  0.2040
  928MOL0     C27928   3.865   1.051   6.950 -0.5427  0.1139  0.3359
  928MOL0     O27929   3.812   0.987   6.844 -0.1523  0.2821  0.4665
  928MOL0     C27930   3.800   1.063   6.728 -0.0151  0.0464  0.2809
  928MOL0     C27931   3.915   1.100   6.656  0.0154  1.1504 -0.3383
  928MOL0     C27932   3.908   1.171   6.538 -0.1520  0.0771  0.4393
  928MOL0     C27933   3.781   1.213   6.491 -0.0319 -0.5831 -0.7330
  928MOL0     O27934   3.760   1.285   6.379  1.0395 -0.8890  0.1997
  928MOL0     C27935   3.827   1.417   6.360  0.3828 -0.2556 -0.0487
  928MOL0     C27936   3.759   1.517   6.447  0.1717  0.5150 -0.4041
  928MOL0     C27937   3.842   1.649   6.437 -0.1819 -0.3833 -0.2649
  928MOL0     C27938   3.969   1.650   6.520  0.1293  0.6720  0.3685
  928MOL0     C27939   4.051   1.775   6.494 -0.8290  0.4154 -0.0928
  928MOL0     C27940   4.200   1.761   6.513 -0.0396 -0.0392  0.7931
  928MOL0     C27941   4.292   1.888   6.529 -0.0754  0.1909  0.6442
  928MOL0     C27942   4.252   1.978   6.647  0.6055 -0.4510  0.0459
  928MOL0     N27943   4.351   2.085   6.667  0.1457 -0.6315  0.5337
  928MOL0     C27944   4.403   2.184   6.582 -0.7705  0.4050  0.3903
  928MOL0     C27945   4.493   2.256   6.654  1.0749 -0.5521  0.5297
  928MOL0     C27946   4.577   2.363   6.603 -0.0984  0.3819 -0.8217
  928MOL0     C27947   4.675   2.322   6.491  0.3353 -0.2502  0.2440
  928MOL0     C27948   4.770   2.208   6.528 -0.0126  0.2843 -0.6077
  928MOL0     C27949   4.844   2.202   6.662  0.3685  0.4850 -0.3593
  928MOL0     O27950   4.934   2.317   6.668 -0.2072  0.7005 -0.2000
  928MOL0     C27951   5.061   2.286   6.649  0.0081 -0.2006 -0.7582
  928MOL0     C27952   5.106   2.260   6.520  0.4019  0.3989 -0.5040
  928MOL0     C27953   5.236   2.216   6.491 -0.1219  1.1947 -0.8033
  928MOL0     C27954   5.281   2.193   6.347 -0.7307 -0.0915 -0.0500
  928MOL0     C27955   5.333   2.222   6.606  0.3198 -0.2164 -0.2950
  928MOL0     C27956   5.476   2.226   6.595 -1.1170  0.5418  0.2458
  928MOL0     O27957   5.539   2.277   6.483 -0.4516 -0.7118  0.2208
  928MOL0     C27958   5.673   2.276   6.454 -0.5255  0.8007  0.3366
  928MOL0     C27959   5.779   2.203   6.526  0.1829 -0.0619  0.1734
  928MOL0     C27960   5.910   2.220   6.485 -0.1058 -0.8435 -0.9140
  928MOL0     C27961   5.946   2.304   6.377  0.5100  0.4853 -0.1804
  928MOL0     O27962   6.074   2.328   6.337  0.2915 -0.2934  0.6134
  928MOL0     C27963   6.181   2.275   6.421 -0.0469 -0.4463  0.7544
  928MOL0     C27964   6.326   2.299   6.368  0.2844 -0.6628 -0.1901
  928MOL0     C27965   6.384   2.426   6.433 -0.1235 -0.0729 -0.4591
  928MOL0     C27966   6.436   2.416   6.575  0.1425 -0.2218 -0.3466
  928MOL0     C27967   6.563   2.494   6.598  0.2187  0.2836  0.8416
  928MOL0     C27968   6.644   2.455   6.719 -0.5082  0.3490  0.9189
  928MOL0     C27969   6.798   2.465   6.704  0.4654  0.8062 -0.4924
  928MOL0     C27970   6.867   2.600   6.743  0.7249 -0.6872 -0.4159
  928MOL0    Cl27971   6.796   2.737   6.644 -0.2222  0.4115  0.1135
  928MOL0     C27972   5.840   2.363   6.302  0.1505 -0.6093  0.0837
  928MOL0     C27973   5.710   2.351   6.343  0.5515 -0.0075 -0.0271
  928MOL0     O27974   5.531   2.160   6.685 -0.2560 -0.5063 -0.6989
  928MOL0     C27975   5.278   2.248   6.737  0.6100  0.6401  1.1139
  928MOL0     C27976   5.144   2.273   6.761  0.0911 -0.0887 -0.5325
  928MOL0     N27977   4.487   2.200   6.780 -0.2164  0.1341  0.2800
  928MOL0     N27978   4.406   2.111   6.794 -0.0067  0.3325  0.6090
  928MOL0     C27979   3.671   1.161   6.556  0.1153  0.2177 -0.2347
  928MOL0     C27980   3.674   1.083   6.673 -0.8447 -0.0840 -0.3109
  928MOL0     C27981   3.910   0.964   7.063  0.9040 -0.5168 -0.3683
  928MOL0     C27982   3.845   0.986   7.185 -0.1719 -0.2349 -0.0169
  928MOL0     C27983   3.895   0.927   7.301  0.9357  0.1292  0.5600
  928MOL0     C27984   3.984   0.821   7.290  0.0151  0.4967 -0.4682
  928MOL0     O27985   4.028   0.724   7.384 -0.2565  0.0372 -1.4565
  928MOL0     C27986   3.961   0.713   7.515 -0.7075 -0.3985  0.1230
  928MOL0     C27987   3.955   0.568   7.565  0.6084  0.0956  0.6547
  928MOL0     C27988   3.849   0.480   7.495 -0.5209 -0.0707  0.4433
  928MOL0     C27989   3.723   0.472   7.583  0.8132  0.4892 -0.4932
  928MOL0     C27990   3.644   0.595   7.574 -0.5733 -0.0483 -0.1047
  928MOL0     C27991   3.577   0.695   7.555  0.0511 -0.1479 -0.2669
  928MOL0     C27992   4.045   0.797   7.170  0.8210 -0.3533 -0.3272
  928MOL0     C27993   4.012   0.871   7.056  0.5424  0.1039  0.1043
  928MOL0     C27994   4.074   0.834   6.921 -0.1651 -0.5662  0.3046
  928MOL0     H27995   4.013   1.065   6.688 -0.6856 -0.0776  0.5622
  928MOL0     H27996   3.999   1.212   6.495 -0.3279  4.4556  3.5812
  928MOL0     H27997   3.809   1.461   6.261 -3.8186  0.3047  0.7493
  928MOL0     H27998   3.935   1.408   6.368  0.5778  0.3520 -1.5314
  928MOL0     H27999   3.656   1.520   6.411  0.3575  0.0252 -0.9812
  928MOL0     H28000   3.754   1.477   6.548 -3.4233 -1.1461 -1.1038
  928MOL0     H28001   3.859   1.667   6.331  0.3111 -2.5306 -0.5912
  928MOL0     H28002   3.777   1.724   6.484 -0.6211  0.9509 -2.8293
  928MOL0     H28003   3.942   1.636   6.625 -0.8153  1.0805  0.1829
  928MOL0     H28004   4.032   1.566   6.488 -0.1333 -0.5884  2.8697
  928MOL0     H28005   4.012   1.860   6.551 -2.8025 -0.1232 -0.5518
  928MOL0     H28006   4.034   1.813   6.392  1.8821  2.3385  0.0695
  928MOL0     H28007   4.212   1.699   6.602  2.6193 -0.0045  0.5416
  928MOL0     H28008   4.237   1.702   6.429 -1.4661  0.4741 -0.2346
  928MOL0     H28009   4.300   1.948   6.438  1.0147  0.7257  1.0800
  928MOL0     H28010   4.394   1.851   6.545  0.7440 -0.0892 -3.9954
  928MOL0     H28011   4.160   2.033   6.623  1.9193  1.7576 -0.1858
  928MOL0     H28012   4.214   1.914   6.727 -2.8015  0.5635 -0.5629
  928MOL0     H28013   4.366   2.207   6.482  1.0307  1.8215  0.0024
  928MOL0     H28014   4.622   2.400   6.695 -0.8773 -2.9596  1.0495
  928MOL0     H28015   4.497   2.431   6.571 -0.1777  0.5325 -0.3156
  928MOL0     H28016   4.615   2.298   6.403 -1.0803  1.0815  0.7946
  928MOL0     H28017   4.726   2.412   6.454 -3.0764  1.6866 -0.1707
  928MOL0     H28018   4.700   2.124   6.537 -1.1661  1.2168 -0.7026
  928MOL0     H28019   4.825   2.178   6.438 -2.0822  0.5229 -2.0354
  928MOL0     H28020   4.776   2.208   6.748 -0.2825 -2.6113 -0.5258
  928MOL0     H28021   4.896   2.106   6.670  2.5947  1.4424 -2.3489
  928MOL0     H28022   5.038   2.269   6.435  1.7444 -1.5081 -1.8815
  928MOL0     H28023   5.370   2.254   6.329 -0.7864 -0.1534 -0.5411
  928MOL0     H28024   5.200   2.214   6.277 -1.1327 -0.5603  0.2676
  928MOL0     H28025   5.305   2.088   6.332 -2.0984 -0.9566  2.9303
  928MOL0     H28026   5.752   2.132   6.604 -0.6759 -1.6203 -1.4751
  928MOL0     H28027   5.980   2.156   6.539 -0.0978 -0.6328 -0.6727
  928MOL0     H28028   6.170   2.319   6.521 -1.8309 -0.6057  0.6646
  928MOL0     H28029   6.170   2.167   6.431 -0.2297 -0.4266  0.7830
  928MOL0     H28030   6.386   2.210   6.389  0.9784 -0.6085 -1.8376
  928MOL0     H28031   6.322   2.306   6.259  0.4130 -4.0759 -0.5277
  928MOL0     H28032   6.297   2.490   6.421 -0.7915 -1.0777 -1.0705
  928MOL0     H28033   6.465   2.467   6.371 -1.3820 -0.2642 -2.3281
  928MOL0     H28034   6.455   2.311   6.601 -0.3750 -0.6016 -1.4314
  928MOL0     H28035   6.352   2.441   6.641 -2.4455 -3.1282 -2.2176
  928MOL0     H28036   6.621   2.478   6.507 -2.6556 -2.5540 -0.6766
  928MOL0     H28037   6.533   2.598   6.614 -0.0144 -0.1273  3.5251
  928MOL0     H28038   6.623   2.353   6.752  4.1159 -1.6623 -1.4182
  928MOL0     H28039   6.604   2.523   6.795 -1.7642 -0.2178  0.7997
  928MOL0     H28040   6.822   2.443   6.599 -0.4478 -0.5625 -0.4457
  928MOL0     H28041   6.850   2.396   6.771 -1.0049  1.7118  1.6527
  928MOL0     H28042   6.973   2.600   6.717  0.5816  1.5562 -1.2451
  928MOL0     H28043   6.860   2.626   6.849 -0.6895  0.4454 -0.7416
  928MOL0     H28044   5.865   2.419   6.212 -1.4512  1.8383  1.0567
  928MOL0     H28045   5.629   2.395   6.286  0.4737 -0.6852 -0.4514
  928MOL0     H28046   5.341   2.245   6.825 -0.6821 -1.8517  2.0490
  928MOL0     H28047   5.098   2.285   6.859  2.6288  0.0605  0.7070
  928MOL0     H28048   3.572   1.190   6.521  0.3480 -1.7891 -2.8858
  928MOL0     H28049   3.587   1.054   6.730 -0.3878 -0.6483  0.1134
  928MOL0     H28050   3.772   1.064   7.202 -0.4466 -0.8067  1.6905
  928MOL0     H28051   3.872   0.954   7.404 -0.5905  0.4919  0.1432
  928MOL0     H28052   4.015   0.770   7.592 -2.7061  1.0544  0.5177
  928MOL0     H28053   3.856   0.744   7.517 -0.5754  0.0671  1.9462
  928MOL0     H28054   3.934   0.554   7.672 -0.6330 -1.7423  0.2154
  928MOL0     H28055   4.051   0.522   7.540 -0.5049 -1.7463 -0.4488
  928MOL0     H28056   3.835   0.513   7.392  2.6606  0.4201  0.0743
  928MOL0     H28057   3.895   0.381   7.486  3.0188  1.6603 -3.6090
  928MOL0     H28058   3.734   0.451   7.689  2.2615  2.2892 -0.2327
  928MOL0     H28059   3.674   0.380   7.550  2.4571 -0.0129 -1.6593
  928MOL0     H28060   3.504   0.773   7.546  0.1887 -0.2260 -4.0794
  928MOL0     H28061   4.113   0.713   7.173  1.6273  0.3142  1.9201
  928MOL0     H28062   4.097   0.927   6.867 -3.5787 -0.6126 -1.5599
  928MOL0     H28063   4.155   0.767   6.949 -0.3415  0.0119  2.3302
  928MOL0     H28064   4.007   0.779   6.855  0.6425 -2.2358  0.8231
  929MOL0     O28065   0.441   3.845   9.363 -0.5255 -0.4857  0.1731
  929MOL0     C28066   0.450   3.855   9.485 -0.3802 -0.0297  0.0009
  929MOL0     O28067   0.544   3.789   9.557  0.3098  0.5355 -0.9010
  929MOL0     C28068   0.636   3.701   9.508 -1.0770 -0.1303 -0.1270
  929MOL0     C28069   0.668   3.598   9.599 -0.6004 -0.1853 -0.4429
  929MOL0     C28070   0.771   3.504   9.560  0.1671 -0.9354 -0.6075
  929MOL0     C28071   0.838   3.528   9.436 -0.1171 -1.0202 -0.5804
  929MOL0     O28072   0.951   3.465   9.390  0.9548  0.4262 -0.2413
  929MOL0     C28073   1.007   3.366   9.476  0.6647 -0.9113 -0.7420
  929MOL0     C28074   1.129   3.321   9.404 -0.2929  0.2778  0.4053
  929MOL0     C28075   1.215   3.231   9.496 -1.2131 -1.0581 -0.0412
  929MOL0     C28076   1.343   3.159   9.427  0.3041  0.2604 -0.1845
  929MOL0     C28077   1.435   3.258   9.344  0.3824  0.2616  0.2947
  929MOL0     C28078   1.581   3.217   9.341 -0.5064  0.5138 -0.7312
  929MOL0     C28079   1.672   3.292   9.242 -0.5590 -0.5711  0.8083
  929MOL0     C28080   1.715   3.432   9.297  0.6202 -0.3202  0.6859
  929MOL0     N28081   1.782   3.424   9.426  0.4307  0.6117  0.1134
  929MOL0     C28082   1.737   3.494   9.540  0.1124 -0.0112  0.6848
  929MOL0     C28083   1.808   3.441   9.644  0.4646 -0.2713 -0.1950
  929MOL0     C28084   1.803   3.484   9.786 -0.2634  0.6898 -0.2861
  929MOL0     C28085   1.677   3.445   9.848  0.3233  0.8986 -0.2758
  929MOL0     C28086   1.689   3.294   9.867  0.4044 -0.3768 -0.4077
  929MOL0     C28087   1.560   3.219   9.842  0.2314  0.4171 -0.3821
  929MOL0     O28088   1.439   3.282   9.897 -0.2855  0.0143 -0.2595
  929MOL0     C28089   1.312   3.227   9.887  0.1858 -0.7877  0.3906
  929MOL0     C28090   1.207   3.312   9.904 -1.0500 -0.0227 -0.5887
  929MOL0     C28091   1.069   3.268   9.890  0.1113 -1.0266  0.0953
  929MOL0     C28092   0.967   3.373   9.919  0.3009  0.8610  0.0225
  929MOL0     C28093   1.044   3.133   9.856 -0.2839  0.3228 -0.1548
  929MOL0     C28094   0.909   3.077   9.829  0.2626  0.0744 -0.6836
  929MOL0     O28095   0.894   2.946   9.835  0.2151  0.6066 -0.5248
  929MOL0     C28096   0.777   2.881   9.803  0.7127 -0.4495 -0.5483
  929MOL0     C28097   0.643   2.929   9.826 -0.1874 -0.1974  0.0933
  929MOL0     C28098   0.535   2.845   9.806  0.5555 -0.9398  0.0919
  929MOL0     C28099   0.553   2.708   9.764  0.8159 -0.2851 -0.3983
  929MOL0     O28100   0.443   2.618   9.735 -0.0228  0.0204 -0.6425
  929MOL0     C28101   0.316   2.645   9.803  0.7579  0.3765 -0.3334
  929MOL0     C28102   0.314   2.572   9.944 -0.6289  0.3996  0.7496
  929MOL0     C28103   0.298   2.426   9.934 -0.0356 -0.5817 -0.5720
  929MOL0     C28104   0.152   2.378   9.940  0.2488 -0.4601  0.4698
  929MOL0     C28105   0.072   2.397   9.811  0.0013 -1.0688  0.0528
  929MOL0     C28106   0.129   2.353   9.674  0.9155  0.1757 -0.1192
  929MOL0     C28107   0.154   2.200   9.685 -0.5016 -0.2209 -0.2709
  929MOL0     C28108   0.150   2.136   9.550 -0.2810 -0.3895  0.6002
  929MOL0    Cl28109   0.294   2.182   9.455  0.0430  0.3719  0.2317
  929MOL0     C28110   0.683   2.673   9.730  0.6131 -0.1359  0.5998
  929MOL0     C28111   0.790   2.758   9.750  0.3268 -0.1381  1.0439
  929MOL0     O28112   0.822   3.160   9.803  0.0224  0.0571  0.9486
  929MOL0     C28113   1.156   3.047   9.843  0.5486  0.1488 -0.2970
  929MOL0     C28114   1.286   3.093   9.867 -0.7815  0.1599 -0.4584
  929MOL0     N28115   1.898   3.350   9.589 -0.0848 -0.2262  0.1515
  929MOL0     N28116   1.886   3.347   9.465 -1.0984  0.0718 -0.1611
  929MOL0     C28117   0.813   3.642   9.357 -0.2282  0.5015  0.2921
  929MOL0     C28118   0.711   3.731   9.394  0.5561  0.0711 -0.3689
  929MOL0     C28119   0.350   3.940   9.567  0.2760  0.1949 -0.1940
  929MOL0     C28120   0.344   3.902   9.699  0.6283  0.0914 -0.1744
  929MOL0     C28121   0.251   3.964   9.787  0.6672 -0.5909 -0.5506
  929MOL0     C28122   0.187   4.086   9.746 -0.0191  1.0262  0.4879
  929MOL0     O28123   0.121   4.179   9.821  0.1481 -0.0389  0.3706
  929MOL0     C28124   0.034   4.135   9.921  0.2483  0.2890  0.0748
  929MOL0     C28125  -0.019   4.257   9.994  0.5427 -0.1895  0.4695
  929MOL0     C28126  -0.124   4.334   9.912 -0.3138 -0.3157 -0.5944
  929MOL0     C28127  -0.221   4.424   9.998  0.6336 -0.4324  0.5652
  929MOL0     C28128  -0.334   4.478   9.923 -0.3417 -0.0083  0.2211
  929MOL0     C28129  -0.436   4.506   9.866 -0.0422 -0.6411  0.4866
  929MOL0     C28130   0.200   4.116   9.610 -0.1478  0.2990  0.0057
  929MOL0     C28131   0.269   4.047   9.517  0.5774  0.3567  0.6933
  929MOL0     C28132   0.257   4.097   9.374  0.6435  0.4039  0.0288
  929MOL0     H28133   0.617   3.567   9.689  0.5735 -2.9744 -0.6532
  929MOL0     H28134   0.798   3.424   9.628 -3.5919 -1.8903 -0.0264
  929MOL0     H28135   0.947   3.275   9.490  0.3034 -1.2142 -3.6858
  929MOL0     H28136   1.044   3.404   9.571 -0.9661 -0.1580 -0.3652
  929MOL0     H28137   1.098   3.276   9.309  0.3000 -0.5378  0.5826
  929MOL0     H28138   1.198   3.403   9.382 -1.7886  1.1919 -1.2128
  929MOL0     H28139   1.255   3.293   9.577 -2.6887  1.7283 -1.2743
  929MOL0     H28140   1.154   3.153   9.542 -1.6343 -0.1708  0.9372
  929MOL0     H28141   1.406   3.117   9.506  1.5622  1.1336 -0.6826
  929MOL0     H28142   1.295   3.083   9.365 -3.7219  1.9950  0.4794
  929MOL0     H28143   1.422   3.355   9.394 -1.4667 -0.5007  1.4249
  929MOL0     H28144   1.392   3.273   9.245  0.2254  0.8339  0.4434
  929MOL0     H28145   1.621   3.224   9.443 -0.0926 -0.4883 -0.8169
  929MOL0     H28146   1.575   3.113   9.308  1.4332 -0.2814  1.1420
  929MOL0     H28147   1.624   3.292   9.144  1.8184 -1.2263 -0.4403
  929MOL0     H28148   1.763   3.237   9.219  1.6392  3.2642 -0.6408
  929MOL0     H28149   1.771   3.482   9.217 -1.5343 -2.2179 -2.2388
  929MOL0     H28150   1.630   3.501   9.305  0.2424 -0.5993 -0.6722
  929MOL0     H28151   1.659   3.569   9.543 -2.6320 -2.6998  1.1448
  929MOL0     H28152   1.812   3.593   9.785 -0.4031  0.7053 -1.4017
  929MOL0     H28153   1.891   3.448   9.840 -1.5903 -0.3441  1.2883
  929MOL0     H28154   1.663   3.499   9.942 -1.0658  1.6679 -0.8924
  929MOL0     H28155   1.588   3.470   9.791 -0.7411  0.8556  1.2943
  929MOL0     H28156   1.765   3.250   9.802  5.6074  0.3775  4.3589
  929MOL0     H28157   1.725   3.277   9.969 -0.4931 -2.7254 -0.4306
  929MOL0     H28158   1.542   3.214   9.734 -0.9564  2.6107 -0.3512
  929MOL0     H28159   1.566   3.117   9.881  0.4139  1.3287  2.1651
  929MOL0     H28160   1.237   3.414   9.925 -0.6336  0.6418 -3.8376
  929MOL0     H28161   0.915   3.385   9.824 -2.2607 -1.4706  1.0127
  929MOL0     H28162   1.012   3.467   9.953 -0.1477  1.3317 -0.6736
  929MOL0     H28163   0.889   3.339   9.987  0.4853 -1.4519 -0.8459
  929MOL0     H28164   0.634   3.035   9.844 -3.6990  0.1594 -2.5657
  929MOL0     H28165   0.436   2.888   9.820  0.4262 -1.4546  0.7936
  929MOL0     H28166   0.287   2.750   9.812  1.6227  0.7031 -1.2552
  929MOL0     H28167   0.237   2.603   9.740 -0.5354 -0.3724  1.7068
  929MOL0     H28168   0.413   2.588   9.988  0.2511 -0.9751 -0.5956
  929MOL0     H28169   0.228   2.609  10.000 -1.6952 -1.9077  0.7673
  929MOL0     H28170   0.340   2.374  10.021 -0.1051 -1.0031 -0.7865
  929MOL0     H28171   0.358   2.393   9.849 -2.1895  0.9637 -2.8311
  929MOL0     H28172   0.100   2.417  10.028  0.3456  0.5718  0.0810
  929MOL0     H28173   0.158   2.274   9.974 -1.0097 -0.4476  0.7824
  929MOL0     H28174  -0.030   2.362   9.827  0.0804 -1.1518  0.3979
  929MOL0     H28175   0.056   2.504   9.795 -1.5074 -1.3526 -0.5248
  929MOL0     H28176   0.210   2.415   9.635 -0.4342  1.2921 -1.2527
  929MOL0     H28177   0.045   2.366   9.605  2.2681 -0.2951 -1.9154
  929MOL0     H28178   0.079   2.148   9.743 -1.7826  2.2804  0.4687
  929MOL0     H28179   0.254   2.184   9.725  0.9611 -2.2196 -4.1703
  929MOL0     H28180   0.058   2.170   9.501  0.3877 -1.1660 -1.2537
  929MOL0     H28181   0.136   2.028   9.549 -0.9879 -0.2969  0.3028
  929MOL0     H28182   0.703   2.576   9.686  1.4936 -0.9274  2.6541
  929MOL0     H28183   0.895   2.739   9.731  0.9795  2.8851  1.0726
  929MOL0     H28184   1.136   2.945   9.815  0.4152  0.5856 -1.8460
  929MOL0     H28185   1.363   3.016   9.869  1.2770  2.0875 -1.4044
  929MOL0     H28186   0.885   3.659   9.278  0.5010  3.0105  1.3736
  929MOL0     H28187   0.697   3.832   9.357  1.1915  0.1594 -0.3752
  929MOL0     H28188   0.392   3.816   9.744 -1.0249  0.5524  2.6680
  929MOL0     H28189   0.248   3.951   9.895 -1.0374  0.8222 -0.3914
  929MOL0     H28190  -0.049   4.091   9.864 -1.9485  1.4281  2.2162
  929MOL0     H28191   0.076   4.072  10.000  1.4040  1.2956  0.2867
  929MOL0     H28192   0.068   4.314  10.027  1.4116 -0.6166 -0.9927
  929MOL0     H28193  -0.071   4.220  10.083 -2.8637  1.4915 -0.6756
  929MOL0     H28194  -0.061   4.396   9.847  3.5507 -1.2754  1.9352
  929MOL0     H28195  -0.184   4.262   9.855 -1.4544  0.8993 -0.9885
  929MOL0     H28196  -0.161   4.502  10.044 -0.6325 -1.0862  3.6224
  929MOL0     H28197  -0.258   4.369  10.085  1.0726 -0.6502  0.6160
  929MOL0     H28198  -0.523   4.520   9.806  0.5395 -0.9955 -0.4594
  929MOL0     H28199   0.135   4.200   9.587  0.1489  0.3519 -0.6663
  929MOL0     H28200   0.206   4.024   9.311  1.8050 -1.5454  1.2319
  929MOL0     H28201   0.197   4.187   9.365  2.7581  1.6692 -2.9142
  929MOL0     H28202   0.355   4.119   9.330  1.4848 -1.8260  0.6383
  930MOL0     O28203   7.573  11.420   6.622 -0.0991  0.7799  0.3433
  930MOL0     C28204   7.499  11.426   6.525  0.5181  0.4595  0.0490
  930MOL0     O28205   7.526  11.494   6.405 -0.2023  0.2221 -0.2414
  930MOL0     C28206   7.648  11.537   6.383  0.1019 -0.1853  0.3620
  930MOL0     C28207   7.744  11.448   6.322  0.9617  0.2955 -0.4922
  930MOL0     C28208   7.874  11.488   6.294  0.0967 -0.5532 -0.4075
  930MOL0     C28209   7.914  11.620   6.323  0.8499 -1.4789  0.6169
  930MOL0     O28210   8.032  11.679   6.300  0.1315 -0.2665 -0.2096
  930MOL0     C28211   8.118  11.605   6.213 -1.0356 -0.8114  0.4362
  930MOL0     C28212   8.249  11.688   6.209  0.6151 -0.0313  0.2051
  930MOL0     C28213   8.328  11.700   6.336  0.3434  0.5726  0.4184
  930MOL0     C28214   8.295  11.823   6.426 -0.2688 -0.2311  0.6963
  930MOL0     C28215   8.394  11.844   6.538  0.3775 -0.9524 -0.0419
  930MOL0     C28216   8.340  11.963   6.636 -0.1285 -0.3139  0.4228
  930MOL0     C28217   8.446  12.004   6.751  0.8602 -0.2686 -0.3775
  930MOL0     C28218   8.585  12.023   6.692  1.4888 -0.3233  0.4818
  930MOL0     N28219   8.672  12.104   6.782 -0.2579 -0.5167  0.8532
  930MOL0     C28220   8.769  12.059   6.869 -1.0227 -0.8856 -0.8515
  930MOL0     C28221   8.800  12.171   6.942  0.4264 -0.5139 -1.1270
  930MOL0     C28222   8.902  12.188   7.058 -0.5992  0.0787 -0.4053
  930MOL0     C28223   9.046  12.204   7.007 -0.1460 -0.0724  0.7118
  930MOL0     C28224   9.081  12.345   6.938  0.2538 -0.1835  0.9766
  930MOL0     C28225   9.078  12.463   7.041 -1.3187 -0.2729 -0.5670
  930MOL0     O28226   9.167  12.431   7.151  0.0314 -0.4819  0.2984
  930MOL0     C28227   9.290  12.488   7.157  0.7420 -1.0162  0.2726
  930MOL0     C28228   9.337  12.596   7.074  0.2566 -0.4080 -0.2123
  930MOL0     C28229   9.464  12.657   7.097  0.0274 -0.3201 -0.1123
  930MOL0     C28230   9.489  12.772   7.005  0.7627 -1.6093 -0.1639
  930MOL0     C28231   9.543  12.609   7.212  0.4497  1.2994 -0.1312
  930MOL0     C28232   9.669  12.677   7.256  0.1762  0.7991 -0.9428
  930MOL0     O28233   9.745  12.626   7.365  0.4445  0.6858  0.1682
  930MOL0     C28234   9.877  12.657   7.390 -0.7293 -0.5474 -0.2695
  930MOL0     C28235   9.918  12.664   7.522  0.0554 -0.1161  0.0542
  930MOL0     C28236  10.054  12.688   7.552  0.4374  0.0648 -0.1376
  930MOL0     C28237  10.142  12.712   7.447 -0.7723 -0.2873 -0.7973
  930MOL0     O28238  10.274  12.734   7.472 -0.2705 -0.2717  1.0139
  930MOL0     C28239  10.310  12.865   7.528  0.7365 -0.7962  0.1918
  930MOL0     C28240  10.462  12.867   7.565  0.2791 -0.3587  0.7713
  930MOL0     C28241  10.476  12.759   7.671 -0.0707 -0.2674 -0.6030
  930MOL0     C28242  10.624  12.768   7.739  0.6987  0.6402  1.0114
  930MOL0     C28243  10.657  12.641   7.815  0.4075  0.3692 -0.1442
  930MOL0     C28244  10.798  12.632   7.865 -0.0672  0.7965 -0.4067
  930MOL0     C28245  10.896  12.589   7.755 -0.0409  0.2761  0.4444
  930MOL0     C28246  10.918  12.436   7.753 -0.0985 -0.0451  0.4582
  930MOL0    Cl28247  11.006  12.374   7.907 -0.3413 -0.0413  0.4076
  930MOL0     C28248  10.103  12.700   7.318 -0.7267  0.7198 -0.0895
  930MOL0     C28249   9.978  12.667   7.291 -0.0310 -1.1839  0.0413
  930MOL0     O28250   9.709  12.775   7.198 -0.2933  0.8904  0.8455
  930MOL0     C28251   9.502  12.501   7.288 -0.4367 -0.0224  0.4117
  930MOL0     C28252   9.375  12.442   7.265  0.2310 -0.3524  0.0227
  930MOL0     N28253   8.721  12.280   6.903  0.6596  0.5077 -0.5006
  930MOL0     N28254   8.646  12.232   6.802  0.2929 -0.4045  0.4923
  930MOL0     C28255   7.823  11.702   6.393 -0.5007  0.3688  0.0574
  930MOL0     C28256   7.688  11.668   6.413 -0.1926  0.1293 -0.3314
  930MOL0     C28257   7.359  11.394   6.556  0.3678  0.7072 -0.4870
  930MOL0     C28258   7.329  11.301   6.659  0.5030 -1.3854  0.3318
  930MOL0     C28259   7.198  11.259   6.680  0.2337 -0.3674 -0.4739
  930MOL0     C28260   7.092  11.313   6.609 -0.1600  0.0447 -0.3816
  930MOL0     O28261   6.960  11.282   6.628 -0.3732 -0.4441 -0.1039
  930MOL0     C28262   6.927  11.149   6.665  0.7976  0.0929  0.1021
  930MOL0     C28263   6.779  11.128   6.660  0.3042 -0.0737 -0.0228
  930MOL0     C28264   6.733  11.140   6.511 -0.2913  0.3381  0.3614
  930MOL0     C28265   6.588  11.098   6.503 -0.3001 -0.3141 -0.0940
  930MOL0     C28266   6.556  10.963   6.552 -0.2249 -0.6392  0.3775
  930MOL0     C28267   6.522  10.855   6.595 -0.6355  0.4299  0.1763
  930MOL0     C28268   7.119  11.406   6.518 -0.8413  0.3953 -0.2063
  930MOL0     C28269   7.248  11.436   6.475  0.9449  0.0612 -0.2675
  930MOL0     C28270   7.259  11.515   6.351  0.8872 -0.0085  0.4360
  930MOL0     H28271   7.718  11.343   6.314 -2.7027  1.0469 -0.3213
  930MOL0     H28272   7.949  11.421   6.253  0.1243  0.2862 -1.8039
  930MOL0     H28273   8.067  11.598   6.117 -1.1291 -1.0363  0.5029
  930MOL0     H28274   8.140  11.505   6.250  1.2241 -0.1636  1.0275
  930MOL0     H28275   8.304  11.634   6.132  0.9576  0.9393 -0.2532
  930MOL0     H28276   8.232  11.791   6.176  5.6073  2.1074  3.1875
  930MOL0     H28277   8.308  11.617   6.404 -0.8483 -0.4018 -1.0422
  930MOL0     H28278   8.432  11.699   6.302  0.4168 -0.7716  0.6173
  930MOL0     H28279   8.303  11.916   6.369 -1.5474  0.0640  0.9584
  930MOL0     H28280   8.194  11.820   6.467 -0.1169  1.6106  1.3008
  930MOL0     H28281   8.487  11.872   6.487 -1.5159  1.1209 -2.5959
  930MOL0     H28282   8.396  11.749   6.592 -1.7324 -0.7147  0.5235
  930MOL0     H28283   8.327  12.052   6.573  0.8563  0.3415  1.1071
  930MOL0     H28284   8.243  11.936   6.678 -0.4227  1.6211  1.0934
  930MOL0     H28285   8.459  11.917   6.816  1.7864 -0.4768 -0.8280
  930MOL0     H28286   8.417  12.085   6.818  2.8609  0.5332 -0.4161
  930MOL0     H28287   8.632  11.933   6.650 -3.1184 -3.0052  0.2768
  930MOL0     H28288   8.568  12.068   6.594 -0.7294 -2.9540 -0.5012
  930MOL0     H28289   8.813  11.961   6.887 -0.3243 -0.5239 -0.5565
  930MOL0     H28290   8.888  12.099   7.121 -1.8434 -0.4617 -1.3946
  930MOL0     H28291   8.874  12.276   7.115  0.3111  2.3225 -3.1991
  930MOL0     H28292   9.117  12.189   7.088  0.7289 -0.5182 -0.1053
  930MOL0     H28293   9.072  12.125   6.936  1.4383  0.3554  0.7920
  930MOL0     H28294   9.180  12.340   6.892 -1.4312 -0.3606 -3.0421
  930MOL0     H28295   9.006  12.372   6.863 -0.2760  3.4823  2.5828
  930MOL0     H28296   9.102  12.556   6.988 -1.2066 -1.0440 -1.9123
  930MOL0     H28297   8.983  12.477   7.092 -0.7429 -0.1537  0.4922
  930MOL0     H28298   9.281  12.634   6.989  0.0855  0.4749  0.2935
  930MOL0     H28299   9.426  12.860   7.024 -0.3189 -2.4601  0.3234
  930MOL0     H28300   9.475  12.756   6.898  0.9814  1.7386 -0.7798
  930MOL0     H28301   9.593  12.806   7.003  0.6890 -1.2280  1.3833
  930MOL0     H28302   9.847  12.626   7.594  0.4534  0.1964  0.6227
  930MOL0     H28303  10.090  12.684   7.654 -2.3979 -2.1255  0.9173
  930MOL0     H28304  10.277  12.942   7.458  1.5822  0.4070  1.0726
  930MOL0     H28305  10.259  12.882   7.624 -1.2571  1.3669 -1.1446
  930MOL0     H28306  10.524  12.838   7.480  0.2235  1.2503  0.1475
  930MOL0     H28307  10.480  12.969   7.600 -1.8722  0.9953 -1.6787
  930MOL0     H28308  10.463  12.656   7.638 -1.0899  0.3246 -2.1591
  930MOL0     H28309  10.403  12.780   7.750  2.7319 -0.5287  2.3182
  930MOL0     H28310  10.637  12.858   7.800  0.5884  1.2102  0.2090
  930MOL0     H28311  10.694  12.783   7.656 -1.0728  2.5210 -0.2603
  930MOL0     H28312  10.589  12.615   7.897  0.9534 -2.5664 -0.5234
  930MOL0     H28313  10.633  12.565   7.740  2.3329 -1.8261  1.3260
  930MOL0     H28314  10.804  12.557   7.945 -0.5987  0.9176 -0.2512
  930MOL0     H28315  10.825  12.726   7.914  0.4385 -0.3758  1.7098
  930MOL0     H28316  10.994  12.631   7.777  0.8654 -1.3724 -0.2507
  930MOL0     H28317  10.862  12.624   7.657  0.7720  0.3380  0.1758
  930MOL0     H28318  10.981  12.404   7.669  0.7161 -0.1575  1.0928
  930MOL0     H28319  10.821  12.386   7.752  0.0555 -0.3707 -1.1512
  930MOL0     H28320  10.178  12.736   7.249  0.0835 -1.4371 -0.4066
  930MOL0     H28321   9.938  12.657   7.190 -0.8045 -1.2520  0.3424
  930MOL0     H28322   9.580  12.459   7.352  0.1465  1.0271  0.3998
  930MOL0     H28323   9.338  12.360   7.325 -2.5391  0.5265 -0.3234
  930MOL0     H28324   7.852  11.806   6.406  3.5468 -0.8032  1.7552
  930MOL0     H28325   7.625  11.744   6.458 -0.2132 -1.0687  1.8562
  930MOL0     H28326   7.413  11.253   6.708  1.0745  0.9032  1.7657
  930MOL0     H28327   7.173  11.185   6.756 -2.2917  1.1995  0.3575
  930MOL0     H28328   6.983  11.080   6.601  1.9396  1.9816 -1.0399
  930MOL0     H28329   6.958  11.139   6.769  0.6915  2.2400  0.3858
  930MOL0     H28330   6.728  11.189   6.735  0.6989  1.5510 -1.0398
  930MOL0     H28331   6.762  11.025   6.692  1.1625 -0.8165 -1.8669
  930MOL0     H28332   6.751  11.236   6.463  0.1480 -0.2497 -0.6818
  930MOL0     H28333   6.792  11.074   6.447 -1.6395 -1.8081  1.2317
  930MOL0     H28334   6.554  11.098   6.400 -0.4875  3.3508 -0.1473
  930MOL0     H28335   6.530  11.172   6.558 -2.0592  0.9329 -3.3676
  930MOL0     H28336   6.491  10.771   6.653  1.4583 -0.8334 -0.4057
  930MOL0     H28337   7.040  11.432   6.449  1.7642 -1.4013 -4.2455
  930MOL0     H28338   7.329  11.599   6.357 -0.1169  0.9087 -0.4535
  930MOL0     H28339   7.304  11.446   6.279  2.4888 -0.4785  1.8097
  930MOL0     H28340   7.162  11.553   6.319  1.8186  1.2283 -1.0442
  931MOL0     O28341  10.209  10.617   7.083 -0.1351 -0.7561 -0.0850
  931MOL0     C28342  10.134  10.707   7.052 -0.0431 -0.0126  0.3932
  931MOL0     O28343  10.170  10.822   6.994 -0.3528 -0.0763 -0.2638
  931MOL0     C28344  10.302  10.858   6.989 -0.5554  0.0442  0.8927
  931MOL0     C28345  10.381  10.870   7.105  0.3892 -0.7447  0.0289
  931MOL0     C28346  10.516  10.900   7.102 -0.0428  0.4180  0.9132
  931MOL0     C28347  10.578  10.929   6.978  0.5699 -0.1138  0.2079
  931MOL0     O28348  10.703  10.954   6.965 -0.1903 -0.1901  0.2324
  931MOL0     C28349  10.796  10.936   7.065 -0.3600 -0.3950  0.8350
  931MOL0     C28350  10.944  10.965   7.034 -0.9405 -0.6185  0.6171
  931MOL0     C28351  10.957  11.114   7.028  0.4550 -0.0005  0.4646
  931MOL0     C28352  11.087  11.164   6.969  0.4800 -0.5155  0.3274
  931MOL0     C28353  11.195  11.149   7.067  0.3310 -0.5456  0.8755
  931MOL0     C28354  11.309  11.246   7.036 -0.1704 -0.3508  0.2476
  931MOL0     C28355  11.391  11.205   6.911 -0.4470 -0.0545  0.2152
  931MOL0     C28356  11.521  11.273   6.884  0.3064 -0.3463 -0.0906
  931MOL0     N28357  11.503  11.409   6.840 -0.0790 -0.8015  0.4759
  931MOL0     C28358  11.442  11.516   6.902  1.4721  0.4503  0.4394
  931MOL0     C28359  11.437  11.616   6.805  0.1716  0.9429 -0.0242
  931MOL0     C28360  11.386  11.763   6.819  0.0483 -0.2756 -0.1839
  931MOL0     C28361  11.498  11.845   6.877 -1.4383 -0.5926 -0.1626
  931MOL0     C28362  11.614  11.863   6.777 -0.3827 -0.3114 -0.8905
  931MOL0     C28363  11.715  11.971   6.819  0.6122  0.4118 -0.1344
  931MOL0     O28364  11.802  11.916   6.920 -0.2893  0.3086  0.1168
  931MOL0     C28365  11.917  11.991   6.947 -1.5473  0.0369  0.0954
  931MOL0     C28366  11.916  12.117   6.991 -0.0418  0.2891 -0.3614
  931MOL0     C28367  12.030  12.185   7.038 -0.1542  0.8278  0.2912
  931MOL0     C28368  12.008  12.331   7.077  0.3246 -0.3568 -0.2077
  931MOL0     C28369  12.159  12.118   7.017 -0.2962 -0.4644 -0.0612
  931MOL0     C28370  12.292  12.185   7.049  0.3331 -0.2850 -0.2309
  931MOL0     O28371  12.399  12.128   6.987 -0.7183 -0.3732 -0.1911
  931MOL0     C28372  12.529  12.148   7.031  0.3639  0.0139 -0.4684
  931MOL0     C28373  12.589  12.069   7.128  1.5464 -0.2102 -0.5901
  931MOL0     C28374  12.725  12.064   7.147 -1.2107 -0.2241 -0.2161
  931MOL0     C28375  12.804  12.155   7.073 -0.9426 -0.3822 -0.8889
  931MOL0     O28376  12.943  12.154   7.065 -0.0228 -0.5389 -0.2342
  931MOL0     C28377  13.004  12.069   7.163  0.1529  0.1424 -0.1627
  931MOL0     C28378  13.154  12.063   7.143 -0.6671 -0.0342 -0.4620
  931MOL0     C28379  13.207  11.931   7.098 -0.2369  0.4180  0.3853
  931MOL0     C28380  13.363  11.913   7.107  0.2828 -0.7000 -0.6821
  931MOL0     C28381  13.402  11.772   7.086  0.0024 -0.6026 -0.4072
  931MOL0     C28382  13.559  11.765   7.081  0.1672 -0.1931  0.2656
  931MOL0     C28383  13.603  11.628   7.126  0.2426  0.7264  0.5830
  931MOL0     C28384  13.712  11.572   7.041  0.6678 -0.4350 -0.7893
  931MOL0    Cl28385  13.870  11.635   7.070  0.1022  0.2792 -0.2167
  931MOL0     C28386  12.744  12.253   6.988 -0.1355  0.0038  0.7450
  931MOL0     C28387  12.603  12.245   6.963 -1.0396  0.4814 -0.0977
  931MOL0     O28388  12.296  12.277   7.128 -0.1838  0.0389  0.4289
  931MOL0     C28389  12.153  11.985   6.965 -0.2818  0.2830  0.3467
  931MOL0     C28390  12.037  11.921   6.934  0.2330  0.2678  0.8390
  931MOL0     N28391  11.492  11.569   6.688  0.0467 -0.4500 -0.1049
  931MOL0     N28392  11.526  11.445   6.710 -0.8841  0.7223 -0.3206
  931MOL0     C28393  10.501  10.926   6.859 -1.4480  0.8594  0.1830
  931MOL0     C28394  10.365  10.888   6.874  0.4469 -0.5794  0.8896
  931MOL0     C28395   9.985  10.685   7.085 -0.2175  0.0978 -0.2086
  931MOL0     C28396   9.901  10.793   7.107 -0.4530 -0.7561 -1.1754
  931MOL0     C28397   9.762  10.785   7.126 -0.3804 -0.1540 -0.3454
  931MOL0     C28398   9.710  10.659   7.136 -0.4333 -0.2779  0.2987
  931MOL0     O28399   9.591  10.630   7.183  0.4849 -0.1515  0.0295
  931MOL0     C28400   9.537  10.721   7.280  0.2316 -0.6810  0.3906
  931MOL0     C28401   9.399  10.682   7.336 -0.2285 -1.1619  0.1110
  931MOL0     C28402   9.288  10.643   7.233 -0.4741 -0.0896 -0.5762
  931MOL0     C28403   9.274  10.738   7.107 -0.3197 -0.9098  0.0411
  931MOL0     C28404   9.306  10.881   7.124  0.2999 -0.6889  0.2561
  931MOL0     C28405   9.327  11.002   7.153 -0.7539  0.0847 -0.2402
  931MOL0     C28406   9.795  10.551   7.131  0.1001 -0.6148 -0.6240
  931MOL0     C28407   9.929  10.554   7.100  0.5450 -0.5248 -0.3337
  931MOL0     C28408  10.005  10.428   7.070 -0.4959  0.1917  0.4176
  931MOL0     H28409  10.326  10.860   7.198  1.4595  0.7883  0.8682
  931MOL0     H28410  10.581  10.908   7.188 -0.7173  2.1227  1.2986
  931MOL0     H28411  10.782  10.831   7.092 -3.5745 -0.1464  0.4913
  931MOL0     H28412  10.776  11.013   7.140 -0.1087  0.7418 -0.2463
  931MOL0     H28413  11.019  10.919   7.099 -0.8262 -2.3604 -0.7000
  931MOL0     H28414  10.955  10.926   6.933  1.4450  0.5126  0.3867
  931MOL0     H28415  10.868  11.154   6.980 -0.1177  1.8777  2.9032
  931MOL0     H28416  10.943  11.148   7.131  1.5425 -3.0415  1.7358
  931MOL0     H28417  11.097  11.108   6.876 -2.7514 -2.4459  0.9860
  931MOL0     H28418  11.079  11.269   6.940  2.0412 -0.1561  1.0602
  931MOL0     H28419  11.230  11.046   7.078  1.0478 -0.3828  0.1964
  931MOL0     H28420  11.155  11.191   7.160 -0.1030 -1.5279  1.1484
  931MOL0     H28421  11.266  11.346   7.021  0.4450  0.5543  3.6600
  931MOL0     H28422  11.368  11.268   7.125  1.8919  2.1934 -1.5846
  931MOL0     H28423  11.332  11.222   6.821 -1.4990 -0.4638  0.8142
  931MOL0     H28424  11.409  11.099   6.931  0.5473  0.1771  0.6447
  931MOL0     H28425  11.587  11.262   6.971  0.5128 -0.9891 -0.3200
  931MOL0     H28426  11.577  11.226   6.803 -1.0201 -1.2153 -0.5475
  931MOL0     H28427  11.400  11.528   7.001  1.8485 -1.9927  0.9706
  931MOL0     H28428  11.293  11.768   6.875  0.3465 -0.0872  0.3048
  931MOL0     H28429  11.362  11.818   6.727  2.1632 -1.8508 -1.7833
  931MOL0     H28430  11.465  11.941   6.918  1.9082  0.2115  0.9364
  931MOL0     H28431  11.549  11.795   6.960 -0.2876  1.0320  0.1598
  931MOL0     H28432  11.662  11.767   6.753 -0.2082 -0.7356  1.0124
  931MOL0     H28433  11.565  11.892   6.684 -2.3496 -1.4643 -0.2827
  931MOL0     H28434  11.774  11.997   6.730  0.0931  2.0575 -0.0285
  931MOL0     H28435  11.664  12.059   6.859 -0.1460  1.1355 -2.5019
  931MOL0     H28436  11.822  12.170   7.000  0.7298  1.4636  1.2576
  931MOL0     H28437  12.062  12.371   7.164 -2.1021  1.0334  0.7458
  931MOL0     H28438  11.902  12.341   7.100  0.0445 -2.5718 -0.3058
  931MOL0     H28439  12.035  12.390   6.990 -1.4869  2.6008  1.0996
  931MOL0     H28440  12.529  12.004   7.191 -1.5440  2.3279 -0.6453
  931MOL0     H28441  12.764  11.990   7.216  0.0365  0.2433 -0.3958
  931MOL0     H28442  12.978  12.108   7.262 -0.1078  2.6695 -1.1494
  931MOL0     H28443  12.965  11.967   7.157 -1.2338  0.3126  3.3161
  931MOL0     H28444  13.174  12.132   7.060  0.6137  1.9025  1.3321
  931MOL0     H28445  13.214  12.104   7.225 -3.2353 -0.6956  1.8978
  931MOL0     H28446  13.179  11.912   6.994 -1.5657 -0.8913  0.9445
  931MOL0     H28447  13.162  11.860   7.168 -2.9246  1.9049  0.2896
  931MOL0     H28448  13.388  11.944   7.209 -1.5305 -3.6977  0.8028
  931MOL0     H28449  13.404  11.982   7.032 -2.4440  0.8144 -0.9178
  931MOL0     H28450  13.353  11.716   7.166 -1.0815 -0.4703 -0.9613
  931MOL0     H28451  13.362  11.724   6.996 -3.6107 -0.8669  1.1634
  931MOL0     H28452  13.599  11.833   7.157 -1.9361 -1.6137  2.7976
  931MOL0     H28453  13.600  11.798   6.985 -2.4413  2.1212 -0.1829
  931MOL0     H28454  13.519  11.559   7.125  2.4738 -2.2602 -2.0769
  931MOL0     H28455  13.640  11.636   7.229 -2.4008  0.9896  1.5899
  931MOL0     H28456  13.687  11.593   6.936 -2.2870 -0.2960 -0.1418
  931MOL0     H28457  13.717  11.465   7.062  1.0717 -0.2937 -0.1571
  931MOL0     H28458  12.806  12.322   6.933 -0.5570  0.3882  0.7483
  931MOL0     H28459  12.558  12.312   6.890  0.1580 -1.0595 -2.3912
  931MOL0     H28460  12.245  11.928   6.954  1.4281  3.2981 -3.4945
  931MOL0     H28461  12.040  11.820   6.894  2.8928  0.3830  0.5639
  931MOL0     H28462  10.556  10.946   6.768  1.4415 -0.5534  1.4955
  931MOL0     H28463  10.309  10.886   6.781  1.0156 -2.8980  0.5287
  931MOL0     H28464   9.939  10.895   7.114  0.5753 -1.1648 -0.6142
  931MOL0     H28465   9.709  10.877   7.148 -2.4353 -1.2082 -0.6047
  931MOL0     H28466   9.602  10.749   7.364 -0.6231  2.1745  0.2037
  931MOL0     H28467   9.517  10.814   7.225  0.5064 -1.3386 -0.8460
  931MOL0     H28468   9.367  10.751   7.415  1.2186 -1.3041  0.8640
  931MOL0     H28469   9.407  10.591   7.397  0.0207 -1.2950 -0.1152
  931MOL0     H28470   9.313  10.540   7.203  0.3216 -0.5064  1.3465
  931MOL0     H28471   9.189  10.650   7.279  1.2132 -0.8419  3.6452
  931MOL0     H28472   9.185  10.714   7.049 -2.7806 -0.0924  3.2070
  931MOL0     H28473   9.358  10.701   7.046 -0.8451  1.7062 -2.4806
  931MOL0     H28474   9.357  11.100   7.187  0.1049 -0.5982  1.0659
  931MOL0     H28475   9.753  10.455   7.158 -2.1638  0.4176 -0.1658
  931MOL0     H28476  10.068  10.396   7.153  0.6828  2.6194  0.5457
  931MOL0     H28477   9.933  10.345   7.064  1.5134 -1.6125 -0.2034
  931MOL0     H28478  10.068  10.432   6.980  1.1956  1.2636  1.6006
  932MOL0     O28479   2.083   9.253  10.331 -0.0291 -0.5489  0.6716
  932MOL0     C28480   2.025   9.147  10.303  0.0314  0.7375 -0.2247
  932MOL0     O28481   2.087   9.035  10.258  0.5997  0.1761  0.5580
  932MOL0     C28482   2.223   9.030  10.269 -0.1636  0.0919 -0.4782
  932MOL0     C28483   2.294   9.046  10.386 -0.0353  0.4734 -0.3631
  932MOL0     C28484   2.436   9.033  10.392  0.3859 -0.5807  0.0739
  932MOL0     C28485   2.501   9.000  10.279 -1.4288 -0.9340  0.1807
  932MOL0     O28486   2.634   8.969  10.283 -0.0404  0.1119 -0.3330
  932MOL0     C28487   2.715   9.072  10.233 -0.2265  0.5996  0.5531
  932MOL0     C28488   2.862   9.049  10.211 -0.3637 -0.5648 -0.2959
  932MOL0     C28489   2.911   8.910  10.169 -0.3222  0.2266 -0.1443
  932MOL0     C28490   3.056   8.872  10.209 -0.0908  0.0976 -0.0996
  932MOL0     C28491   3.094   8.727  10.184 -0.3729 -0.2655 -0.5407
  932MOL0     C28492   3.247   8.705  10.185  0.0921  0.5062 -0.2444
  932MOL0     C28493   3.279   8.550  10.179 -0.5198 -0.1267  0.2731
  932MOL0     C28494   3.247   8.469  10.308  0.8552 -0.4631 -0.3150
  932MOL0     N28495   3.340   8.488  10.413  0.8774 -1.2407  0.0292
  932MOL0     C28496   3.465   8.431  10.405  0.3458  1.2629  0.3381
  932MOL0     C28497   3.527   8.505  10.495  0.2529 -0.1660 -0.3245
  932MOL0     C28498   3.661   8.482  10.547  0.7108  0.1883 -0.0383
  932MOL0     C28499   3.724   8.593  10.636  0.2252 -0.1978 -1.0041
  932MOL0     C28500   3.871   8.568  10.665 -0.3055  0.6568 -0.0384
  932MOL0     C28501   3.945   8.688  10.736  0.2376  0.4753  0.1592
  932MOL0     O28502   4.061   8.636  10.811  0.2293 -0.2535  0.3342
  932MOL0     C28503   4.177   8.607  10.742 -0.4304 -0.3473 -0.7939
  932MOL0     C28504   4.214   8.679  10.626  0.0644  0.4908 -0.2843
  932MOL0     C28505   4.345   8.650  10.567  0.4742 -0.6922  0.2099
  932MOL0     C28506   4.376   8.732  10.442 -1.2857 -0.8687  0.7423
  932MOL0     C28507   4.428   8.552  10.628  0.0423  0.3010 -0.2528
  932MOL0     C28508   4.570   8.538  10.578  0.7691  0.2670 -1.2413
  932MOL0     O28509   4.628   8.627  10.499  0.3612  0.0703 -0.1993
  932MOL0     C28510   4.724   8.584  10.417  0.3656 -0.1986 -0.1146
  932MOL0     C28511   4.846   8.542  10.464 -0.3710  0.0867  0.4109
  932MOL0     C28512   4.943   8.491  10.373  0.0536 -0.1258  0.6379
  932MOL0     C28513   4.926   8.509  10.236 -0.2404  0.1540 -0.1640
  932MOL0     O28514   5.022   8.464  10.152  0.9190  0.1287 -0.0737
  932MOL0     C28515   5.129   8.553  10.144 -0.1501  0.8541 -0.2570
  932MOL0     C28516   5.186   8.554  10.003  0.5858 -0.5586 -1.4698
  932MOL0     C28517   5.265   8.430   9.965 -0.5737  0.2422 -0.1652
  932MOL0     C28518   5.251   8.391   9.813 -0.4219  0.4073 -0.7692
  932MOL0     C28519   5.353   8.291   9.774 -0.0506 -0.2375  0.2338
  932MOL0     C28520   5.322   8.244   9.630  0.0545  0.8715  0.5392
  932MOL0     C28521   5.433   8.269   9.524 -0.4256  0.1669 -0.5139
  932MOL0     C28522   5.389   8.225   9.386  0.4481 -0.4029  0.0186
  932MOL0    Cl28523   5.251   8.325   9.336  0.0803 -0.1319  0.1991
  932MOL0     C28524   4.800   8.557  10.187  0.6604  0.3474  0.1295
  932MOL0     C28525   4.705   8.597  10.277 -0.1869 -0.5374  0.4623
  932MOL0     O28526   4.605   8.423  10.600 -0.3807  0.3162 -0.4128
  932MOL0     C28527   4.383   8.483  10.740 -0.1056 -0.6745 -0.4169
  932MOL0     C28528   4.263   8.509  10.795  0.9375 -0.2201  0.2104
  932MOL0     N28529   3.453   8.614  10.552 -0.5213  0.0321 -1.1450
  932MOL0     N28530   3.337   8.593  10.504  0.5605  0.2309 -0.1884
  932MOL0     C28531   2.436   8.975  10.158  0.3452 -0.9871 -0.9133
  932MOL0     C28532   2.294   9.001  10.151  0.3804  0.0308 -0.2095
  932MOL0     C28533   1.887   9.145  10.332  0.6947  0.0967  0.0590
  932MOL0     C28534   1.808   9.039  10.299  0.0951  1.0372 -0.1050
  932MOL0     C28535   1.676   9.033  10.320 -0.6801  0.4892  0.5597
  932MOL0     C28536   1.606   9.127  10.382  0.7273 -0.1478 -0.8610
  932MOL0     O28537   1.476   9.124  10.408 -0.4392 -0.9089 -0.0212
  932MOL0     C28538   1.393   9.006  10.403  0.9016 -0.2971 -0.3651
  932MOL0     C28539   1.254   9.019  10.471 -0.1803  0.2882  0.3347
  932MOL0     C28540   1.176   9.133  10.406  0.4473  0.0315 -0.1855
  932MOL0     C28541   1.045   9.154  10.475  0.3413  0.5307  0.5337
  932MOL0     C28542   0.964   9.255  10.411  0.2134  0.4827  0.1840
  932MOL0     C28543   0.903   9.344  10.368 -0.5075  0.3244  0.5657
  932MOL0     C28544   1.678   9.244  10.412  0.4209 -0.1291 -0.2431
  932MOL0     C28545   1.819   9.258  10.389  1.3393  0.1599 -0.2534
  932MOL0     C28546   1.869   9.392  10.433  0.0225 -0.2732 -0.3252
  932MOL0     H28547   2.239   9.047  10.480  0.7785 -3.2648  0.3529
  932MOL0     H28548   2.499   9.037  10.480 -0.1556  3.4668  0.4271
  932MOL0     H28549   2.707   9.163  10.292 -0.8471  2.3576 -2.0911
  932MOL0     H28550   2.673   9.117  10.142 -0.4878  0.1597  0.4501
  932MOL0     H28551   2.910   9.117  10.140 -2.1264 -0.3030 -1.2942
  932MOL0     H28552   2.909   9.061  10.308  0.0089 -2.3639 -0.2101
  932MOL0     H28553   2.848   8.831  10.212 -0.2540  0.9378  1.3076
  932MOL0     H28554   2.912   8.907  10.059  1.6488 -1.6606 -0.1462
  932MOL0     H28555   3.124   8.931  10.148  0.1821 -0.0156  0.0965
  932MOL0     H28556   3.061   8.888  10.317  0.7830 -1.1510  0.0626
  932MOL0     H28557   3.052   8.697  10.087  0.8468  3.1098 -2.2565
  932MOL0     H28558   3.050   8.671  10.267  2.0690  2.2580  2.7239
  932MOL0     H28559   3.302   8.757  10.106  0.5119 -0.5553 -0.6662
  932MOL0     H28560   3.278   8.745  10.281  0.8599 -2.6891  0.9412
  932MOL0     H28561   3.386   8.539  10.164  0.1052  3.6157  1.2064
  932MOL0     H28562   3.226   8.511  10.092  0.8822  2.1336 -1.6927
  932MOL0     H28563   3.145   8.477  10.347  1.4512  0.2315  1.1793
  932MOL0     H28564   3.262   8.362  10.291  0.7779 -0.6345  0.6320
  932MOL0     H28565   3.494   8.334  10.367 -1.1942  0.2883  1.5784
  932MOL0     H28566   3.721   8.455  10.460 -0.1183 -1.9522 -0.0040
  932MOL0     H28567   3.663   8.387  10.602  1.4410 -0.2884 -0.8734
  932MOL0     H28568   3.712   8.692  10.590 -0.9940 -0.4069 -1.1692
  932MOL0     H28569   3.679   8.594  10.736 -0.9780  0.3166 -1.5291
  932MOL0     H28570   3.873   8.476  10.724  0.5041  0.3715 -0.4887
  932MOL0     H28571   3.911   8.549  10.565 -0.2226 -1.4111  0.3588
  932MOL0     H28572   3.969   8.756  10.653  2.0587 -0.1250  0.1578
  932MOL0     H28573   3.892   8.738  10.818  3.4927  2.8317  1.0383
  932MOL0     H28574   4.158   8.764  10.589  2.3426  1.4034 -1.8335
  932MOL0     H28575   4.280   8.763  10.399  0.4051  0.6999 -2.2232
  932MOL0     H28576   4.429   8.671  10.369 -0.1915  1.4623 -0.5148
  932MOL0     H28577   4.433   8.818  10.479 -1.0015 -0.4511 -0.6249
  932MOL0     H28578   4.873   8.546  10.569  1.2135  0.6299  0.0113
  932MOL0     H28579   5.030   8.437  10.410  0.9452  1.8296  1.5216
  932MOL0     H28580   5.092   8.653  10.167  0.3845  1.1664 -0.7518
  932MOL0     H28581   5.194   8.514  10.223 -1.5367  2.7194  1.9149
  932MOL0     H28582   5.105   8.583   9.935 -0.1715  1.7251  0.2682
  932MOL0     H28583   5.261   8.633   9.990  1.2150 -1.2796 -2.4144
  932MOL0     H28584   5.242   8.343  10.028 -0.4670  1.9948  2.4575
  932MOL0     H28585   5.370   8.449   9.991 -1.9780  2.5399  5.0952
  932MOL0     H28586   5.259   8.475   9.743  1.8115  0.9152  0.0033
  932MOL0     H28587   5.152   8.344   9.815 -0.5275  0.5665  1.8779
  932MOL0     H28588   5.453   8.335   9.775  0.0880 -0.3209 -2.2532
  932MOL0     H28589   5.355   8.210   9.848 -0.5387  1.0357  1.6739
  932MOL0     H28590   5.227   8.283   9.591 -0.3080  0.3329  0.8579
  932MOL0     H28591   5.305   8.136   9.630  1.6521  0.5967  0.2049
  932MOL0     H28592   5.527   8.221   9.556  0.2243  2.0052  0.4373
  932MOL0     H28593   5.450   8.377   9.522 -0.4565  0.2110  0.8567
  932MOL0     H28594   5.358   8.121   9.384  0.2709 -0.3725  0.7692
  932MOL0     H28595   5.473   8.253   9.321  1.7931  1.4046  2.3608
  932MOL0     H28596   4.794   8.562  10.079 -2.0128 -2.0106  0.0483
  932MOL0     H28597   4.616   8.645  10.239  0.4135  0.1843 -0.0674
  932MOL0     H28598   4.454   8.419  10.790  1.1837 -1.4359 -3.0256
  932MOL0     H28599   4.232   8.459  10.886  1.8358 -2.1815 -0.5203
  932MOL0     H28600   2.492   8.954  10.067 -0.4988 -1.0626 -1.4291
  932MOL0     H28601   2.242   8.975  10.060  0.3131 -1.2212  0.1705
  932MOL0     H28602   1.853   8.949  10.258 -2.5914 -1.2189  1.5813
  932MOL0     H28603   1.643   8.936  10.282  1.0600  0.8592 -2.2051
  932MOL0     H28604   1.373   8.970  10.302  0.3883  1.8591 -1.0876
  932MOL0     H28605   1.441   8.923  10.457 -0.9581 -1.7525 -0.8403
  932MOL0     H28606   1.277   9.042  10.575  1.0683 -1.4606  0.4839
  932MOL0     H28607   1.200   8.924  10.465 -1.3144  0.9865 -1.2971
  932MOL0     H28608   1.228   9.228  10.401  1.3466  0.0376  4.6673
  932MOL0     H28609   1.160   9.106  10.301 -0.1585  1.2159 -0.4162
  932MOL0     H28610   1.062   9.185  10.578 -2.0571 -0.0636  1.1741
  932MOL0     H28611   0.986   9.062  10.484  2.7727 -1.0808  0.8501
  932MOL0     H28612   0.859   9.426  10.315 -0.9506 -0.2908 -0.0423
  932MOL0     H28613   1.626   9.334  10.444 -0.2117 -0.9374  1.0727
  932MOL0     H28614   1.961   9.393  10.492 -1.6325  1.5092  2.4576
  932MOL0     H28615   1.894   9.447  10.341 -1.9591  0.1817 -0.6263
  932MOL0     H28616   1.801   9.455  10.492  0.7467  3.0759 -2.7080
  933MOL0     O28617   1.385   5.306   6.204  0.0121 -0.2288  0.7301
  933MOL0     C28618   1.357   5.408   6.260  0.0284 -0.1964  0.0805
  933MOL0     O28619   1.435   5.521   6.262 -0.1257 -0.0545  0.3431
  933MOL0     C28620   1.545   5.523   6.171  0.3558 -0.4526 -0.7522
  933MOL0     C28621   1.670   5.483   6.216 -0.3064  0.6455  0.1383
  933MOL0     C28622   1.784   5.502   6.137  0.6169  0.7499  0.9618
  933MOL0     C28623   1.775   5.541   6.002 -0.2780 -0.2377  0.2039
  933MOL0     O28624   1.900   5.558   5.940 -0.1758 -0.0412  0.4411
  933MOL0     C28625   1.903   5.584   5.795 -0.1280  0.4962 -0.0144
  933MOL0     C28626   2.047   5.630   5.761 -0.2715 -0.0493  0.0483
  933MOL0     C28627   2.083   5.769   5.820 -0.5218  0.1057  0.3364
  933MOL0     C28628   2.206   5.832   5.750 -1.0221 -0.6854 -0.5835
  933MOL0     C28629   2.228   5.984   5.782  0.1389  0.7305 -0.6696
  933MOL0     C28630   2.360   6.040   5.741  0.5040  0.7762  0.4289
  933MOL0     C28631   2.481   6.042   5.836  0.9720  0.5843 -0.2214
  933MOL0     C28632   2.584   6.138   5.770  0.7009  0.4112 -0.5388
  933MOL0     N28633   2.594   6.264   5.845 -0.2583 -0.2294  0.2484
  933MOL0     C28634   2.527   6.374   5.805 -0.1682 -0.3910 -0.1883
  933MOL0     C28635   2.552   6.472   5.901 -0.4133  0.7026  0.4571
  933MOL0     C28636   2.495   6.611   5.909  0.5854  0.7759 -0.1228
  933MOL0     C28637   2.559   6.706   5.814  0.4775  0.4739  0.5946
  933MOL0     C28638   2.491   6.844   5.799  0.8938 -0.6257  0.4638
  933MOL0     C28639   2.489   6.942   5.917 -0.6541  0.0765  0.6333
  933MOL0     O28640   2.408   6.893   6.026 -0.5750  0.5278  0.3086
  933MOL0     C28641   2.268   6.901   6.012 -0.5499  0.5439 -0.0478
  933MOL0     C28642   2.187   6.837   6.115 -0.5956 -0.5287  0.1847
  933MOL0     C28643   2.042   6.860   6.127 -0.0660  0.8866  0.2471
  933MOL0     C28644   1.965   6.790   6.235  0.4635 -0.2377  0.0573
  933MOL0     C28645   1.978   6.943   6.037  0.6735  0.5154 -0.0339
  933MOL0     C28646   1.824   6.970   6.042 -0.4708  0.9666  0.3697
  933MOL0     O28647   1.747   6.968   6.154  0.3498 -0.4814  0.1253
  933MOL0     C28648   1.625   7.031   6.174 -1.8420  0.4070 -0.6391
  933MOL0     C28649   1.567   7.027   6.302 -0.6071  0.1507  0.1156
  933MOL0     C28650   1.442   7.087   6.330  0.0881  0.2710  0.2952
  933MOL0     C28651   1.360   7.134   6.228 -0.1042 -0.3862 -0.0873
  933MOL0     O28652   1.234   7.169   6.256  0.5978 -0.0859 -0.5621
  933MOL0     C28653   1.149   7.185   6.140  0.3921  0.3035 -0.7818
  933MOL0     C28654   1.011   7.249   6.184 -0.9749  0.3003  0.2406
  933MOL0     C28655   0.898   7.234   6.085 -0.7767 -0.0662  0.2792
  933MOL0     C28656   0.776   7.242   6.170 -0.2913 -0.4437  0.0413
  933MOL0     C28657   0.708   7.110   6.214  0.1604  0.5651 -0.2600
  933MOL0     C28658   0.603   7.144   6.318 -0.3311  0.1371  0.5053
  933MOL0     C28659   0.540   7.032   6.408 -0.6561 -0.1532  0.8060
  933MOL0     C28660   0.469   6.933   6.312 -0.2673 -0.0499 -0.0976
  933MOL0    Cl28661   0.364   6.830   6.414  0.1678 -0.4751 -0.0739
  933MOL0     C28662   1.425   7.145   6.101 -0.7017 -0.8206  0.1309
  933MOL0     C28663   1.553   7.098   6.074 -0.4050 -0.5634 -0.7700
  933MOL0     O28664   1.773   6.986   5.931 -0.5391  1.2646  0.6151
  933MOL0     C28665   2.052   6.991   5.927 -0.2191 -0.7435 -0.3390
  933MOL0     C28666   2.192   6.975   5.920  1.2601 -0.3185 -0.4594
  933MOL0     N28667   2.634   6.413   5.994  0.1681  0.4897  0.0953
  933MOL0     N28668   2.653   6.289   5.956 -0.3289 -0.4201 -0.0886
  933MOL0     C28669   1.642   5.581   5.960 -0.8356  0.1244  0.1342
  933MOL0     C28670   1.540   5.584   6.057  1.1148  0.0173  0.6830
  933MOL0     C28671   1.221   5.411   6.317 -0.0917 -0.2275  0.1421
  933MOL0     C28672   1.185   5.318   6.415 -0.0556 -0.3224 -0.0084
  933MOL0     C28673   1.058   5.329   6.481  0.4154  0.6751  0.6784
  933MOL0     C28674   0.966   5.427   6.446  0.3144 -0.1406  0.5096
  933MOL0     O28675   0.835   5.439   6.473  0.1403 -0.1217 -0.2774
  933MOL0     C28676   0.792   5.375   6.593 -0.3626  0.0445 -0.4712
  933MOL0     C28677   0.659   5.426   6.645 -0.0981 -0.7693 -0.3320
  933MOL0     C28678   0.550   5.440   6.536  0.1985 -0.0760 -0.2921
  933MOL0     C28679   0.406   5.475   6.594  0.2179  0.2786 -0.3379
  933MOL0     C28680   0.307   5.509   6.492  0.2727  0.8093  0.6813
  933MOL0     C28681   0.210   5.546   6.419 -0.8640 -0.1236  1.4660
  933MOL0     C28682   1.008   5.515   6.349 -0.0577 -0.0699 -0.4980
  933MOL0     C28683   1.132   5.510   6.286  0.0088  0.3319  0.8883
  933MOL0     C28684   1.150   5.603   6.165  0.3276 -0.2871 -0.2002
  933MOL0     H28685   1.679   5.442   6.316 -1.1433 -2.0374 -0.8084
  933MOL0     H28686   1.885   5.482   6.171  0.3765  0.0758  1.3017
  933MOL0     H28687   1.827   5.660   5.772 -0.2087  0.0792 -1.1767
  933MOL0     H28688   1.877   5.488   5.751 -0.8508 -1.2520  3.8236
  933MOL0     H28689   2.118   5.558   5.803 -2.1585 -0.5501  2.6442
  933MOL0     H28690   2.052   5.623   5.652  1.1332 -0.0307  0.0986
  933MOL0     H28691   2.006   5.844   5.804  0.1581  0.7405 -0.0632
  933MOL0     H28692   2.106   5.749   5.925 -0.7237 -2.0075  0.0052
  933MOL0     H28693   2.297   5.776   5.775 -1.2930 -0.2857  1.4770
  933MOL0     H28694   2.197   5.824   5.642  0.0956 -1.6494 -0.6259
  933MOL0     H28695   2.234   5.992   5.890  1.4405 -4.8223  0.0020
  933MOL0     H28696   2.143   6.040   5.742 -1.3130 -1.4563 -0.8656
  933MOL0     H28697   2.387   5.983   5.651 -0.3146  0.4019  0.4109
  933MOL0     H28698   2.336   6.144   5.716  1.0385  0.7488 -0.2264
  933MOL0     H28699   2.524   5.941   5.842  1.9568  0.8542 -1.9898
  933MOL0     H28700   2.441   6.090   5.926 -2.5033 -1.0132 -0.7386
  933MOL0     H28701   2.677   6.080   5.765  0.1914 -0.5578  0.6030
  933MOL0     H28702   2.563   6.154   5.664 -1.8352 -0.4555 -0.2313
  933MOL0     H28703   2.458   6.383   5.721 -0.3784 -1.8213 -0.1983
  933MOL0     H28704   2.511   6.642   6.012 -0.6092 -0.0876  0.3431
  933MOL0     H28705   2.388   6.607   5.889  0.5338  1.9190 -0.1170
  933MOL0     H28706   2.664   6.718   5.841  0.4990 -1.2328  1.3835
  933MOL0     H28707   2.565   6.652   5.719 -0.5998  1.4371 -0.0500
  933MOL0     H28708   2.532   6.899   5.714  2.9058  0.5242  2.0771
  933MOL0     H28709   2.388   6.824   5.768  1.6157 -0.6432 -2.2510
  933MOL0     H28710   2.590   6.946   5.957 -0.6996  1.8615  0.6795
  933MOL0     H28711   2.458   7.044   5.891  1.0095  0.2748 -0.7579
  933MOL0     H28712   2.235   6.761   6.176  3.4957  1.9274  0.3443
  933MOL0     H28713   1.942   6.866   6.310  1.1402 -3.0353  3.3402
  933MOL0     H28714   2.019   6.713   6.289 -1.5722 -1.0110  1.0962
  933MOL0     H28715   1.871   6.742   6.207  0.2746 -0.3725  0.9013
  933MOL0     H28716   1.617   6.983   6.386 -1.5032 -1.2576 -0.0592
  933MOL0     H28717   1.409   7.084   6.433 -2.9915 -2.2890 -0.6064
  933MOL0     H28718   1.189   7.250   6.061 -2.7508  0.9626 -1.9891
  933MOL0     H28719   1.122   7.091   6.092  4.4536  1.0968 -5.4415
  933MOL0     H28720   0.996   7.196   6.278 -0.6766  0.9391  0.6568
  933MOL0     H28721   1.020   7.356   6.203  0.0318 -0.1894  2.9389
  933MOL0     H28722   0.911   7.141   6.028  2.6317  0.8816 -0.7186
  933MOL0     H28723   0.899   7.320   6.018 -0.2714 -0.7142 -0.5622
  933MOL0     H28724   0.708   7.290   6.099 -0.8652 -0.7127  0.4115
  933MOL0     H28725   0.781   7.307   6.258  0.7167 -0.6207  0.1257
  933MOL0     H28726   0.676   7.056   6.124 -1.1338 -0.7207  0.9303
  933MOL0     H28727   0.779   7.043   6.264 -0.0798 -0.6412 -1.4539
  933MOL0     H28728   0.517   7.184   6.264 -1.0126 -1.3156  0.4514
  933MOL0     H28729   0.635   7.231   6.376 -1.1050  1.4228 -0.9501
  933MOL0     H28730   0.461   7.078   6.468 -2.5546 -1.9344 -0.1869
  933MOL0     H28731   0.617   6.982   6.467  0.4382 -0.5383 -0.8611
  933MOL0     H28732   0.537   6.861   6.265  1.2375 -0.4574  2.5726
  933MOL0     H28733   0.402   6.979   6.238 -1.5412 -1.9377 -0.1951
  933MOL0     H28734   1.380   7.190   6.013 -2.5929 -1.6910  0.6012
  933MOL0     H28735   1.591   7.112   5.974  1.4213 -1.5221 -0.2610
  933MOL0     H28736   2.015   7.059   5.851 -0.8377  3.1007  3.0546
  933MOL0     H28737   2.236   7.019   5.831  4.3398  0.2974  1.2199
  933MOL0     H28738   1.636   5.620   5.859  1.0416  0.9280  0.2924
  933MOL0     H28739   1.449   5.633   6.026 -0.2584 -1.1806  2.6436
  933MOL0     H28740   1.255   5.244   6.453  2.1132  1.4835 -0.2611
  933MOL0     H28741   1.028   5.257   6.556  0.1426  1.2205  1.1042
  933MOL0     H28742   0.787   5.269   6.564 -0.1341 -0.1177  0.0776
  933MOL0     H28743   0.864   5.386   6.674 -0.8749  3.0181 -0.3071
  933MOL0     H28744   0.676   5.522   6.695 -1.0758  0.4316 -2.1609
  933MOL0     H28745   0.612   5.352   6.710 -3.3040  0.5110 -0.9747
  933MOL0     H28746   0.579   5.520   6.467 -0.1532 -0.7340 -1.2199
  933MOL0     H28747   0.524   5.351   6.477 -2.6446  1.9867 -2.4589
  933MOL0     H28748   0.416   5.556   6.667 -0.2556  0.0991 -0.0724
  933MOL0     H28749   0.370   5.382   6.639  1.1596  1.0232  2.1086
  933MOL0     H28750   0.125   5.569   6.359  0.4100 -2.1250 -1.3735
  933MOL0     H28751   0.939   5.592   6.315 -1.4118 -1.3606 -0.7901
  933MOL0     H28752   1.253   5.634   6.146  0.5340 -1.3298 -0.8388
  933MOL0     H28753   1.121   5.548   6.075  0.7752  1.0336 -1.1867
  933MOL0     H28754   1.088   5.691   6.187  1.2754 -0.6572  5.5274
  934MOL0     O28755   3.975   6.839   2.403  0.1329 -0.1920 -0.6521
  934MOL0     C28756   3.880   6.785   2.346 -0.1992  0.5055 -0.0580
  934MOL0     O28757   3.779   6.715   2.410  0.0834 -0.2157  0.0153
  934MOL0     C28758   3.767   6.716   2.546 -0.3918  0.2539 -0.2494
  934MOL0     C28759   3.875   6.721   2.641  0.2155  0.8762 -0.1517
  934MOL0     C28760   3.844   6.735   2.775  0.7721  0.2165  0.0573
  934MOL0     C28761   3.713   6.735   2.823 -0.3566 -0.0855  0.8084
  934MOL0     O28762   3.703   6.738   2.954  0.0510 -0.0804  0.2698
  934MOL0     C28763   3.577   6.695   3.009 -0.2450  0.0244 -0.8728
  934MOL0     C28764   3.581   6.646   3.158 -0.0573  1.1151  0.8723
  934MOL0     C28765   3.654   6.504   3.180  0.5995  0.5675 -0.3450
  934MOL0     C28766   3.581   6.382   3.120 -0.2413 -0.3813  1.0930
  934MOL0     C28767   3.648   6.247   3.173  0.3898  0.5138 -0.3096
  934MOL0     C28768   3.538   6.137   3.156  0.3074 -0.0488 -0.8497
  934MOL0     C28769   3.584   6.013   3.245 -0.0037  0.3569 -0.6116
  934MOL0     C28770   3.711   5.946   3.178 -0.3150 -0.2073  0.7696
  934MOL0     N28771   3.680   5.868   3.052 -0.0443  0.3901  0.1728
  934MOL0     C28772   3.698   5.920   2.925 -0.1007  0.0557 -0.2533
  934MOL0     C28773   3.647   5.828   2.846 -0.9331  0.1348  0.4209
  934MOL0     C28774   3.635   5.847   2.697  0.3852 -0.2079  0.6230
  934MOL0     C28775   3.727   5.769   2.618 -0.5097  0.5814  0.2549
  934MOL0     C28776   3.725   5.809   2.472  0.1092  0.1163 -0.0293
  934MOL0     C28777   3.854   5.767   2.395  0.0513 -0.7517  0.0926
  934MOL0     O28778   3.972   5.818   2.458 -0.0820  0.1874 -1.1054
  934MOL0     C28779   4.074   5.869   2.388 -0.8524 -0.5611  0.3335
  934MOL0     C28780   4.202   5.844   2.428  0.2767  0.3340  0.7786
  934MOL0     C28781   4.313   5.895   2.376 -0.3613 -0.4137  0.4048
  934MOL0     C28782   4.441   5.850   2.427 -0.8771 -0.2593 -0.2375
  934MOL0     C28783   4.295   6.000   2.276 -0.1904  0.1980 -0.0624
  934MOL0     C28784   4.403   6.077   2.210 -0.2617 -0.9534 -0.2634
  934MOL0     O28785   4.376   6.133   2.086 -0.6749  0.7889  0.7241
  934MOL0     C28786   4.480   6.179   2.013  0.4382 -0.5270  0.0896
  934MOL0     C28787   4.557   6.085   1.941  0.2999 -0.3846  0.8446
  934MOL0     C28788   4.648   6.125   1.842  0.5437  0.0268 -1.2444
  934MOL0     C28789   4.677   6.261   1.823  0.4051  0.2765 -0.6449
  934MOL0     O28790   4.771   6.317   1.731  0.0448  0.0538  0.3858
  934MOL0     C28791   4.871   6.227   1.681  0.0276  0.1501 -0.6152
  934MOL0     C28792   4.989   6.302   1.615  0.1593  0.3633 -0.5605
  934MOL0     C28793   5.084   6.199   1.550 -0.2029  0.2025  0.2808
  934MOL0     C28794   5.210   6.262   1.502  0.3795  0.0549  0.4472
  934MOL0     C28795   5.335   6.162   1.510 -0.2435 -0.3855 -0.9323
  934MOL0     C28796   5.455   6.224   1.454  0.2501 -0.8746  1.0145
  934MOL0     C28797   5.574   6.138   1.454  0.2311 -0.7290  0.1328
  934MOL0     C28798   5.697   6.230   1.425 -0.2857 -0.3815 -0.1855
  934MOL0    Cl28799   5.846   6.128   1.436  0.4449  0.5371  0.0238
  934MOL0     C28800   4.599   6.350   1.911 -0.4587  0.9527  0.7630
  934MOL0     C28801   4.507   6.311   2.010 -0.1538 -0.4298  0.3691
  934MOL0     O28802   4.514   6.058   2.251 -0.5104 -0.0134 -0.6983
  934MOL0     C28803   4.165   6.034   2.247  0.2515 -0.0871  0.3809
  934MOL0     C28804   4.050   5.962   2.293 -0.5462 -0.3779  0.7191
  934MOL0     N28805   3.605   5.716   2.920  0.4747 -0.4032  0.3421
  934MOL0     N28806   3.619   5.743   3.046  0.7987 -0.2698 -0.0511
  934MOL0     C28807   3.607   6.740   2.729 -0.8558 -0.0152  0.9963
  934MOL0     C28808   3.635   6.722   2.592 -0.6425 -0.3550  0.4523
  934MOL0     C28809   3.871   6.810   2.203 -0.4137 -1.7855 -0.0412
  934MOL0     C28810   3.984   6.859   2.133 -0.6913 -0.4828  0.5695
  934MOL0     C28811   3.982   6.883   1.999 -0.4149 -0.0807  0.7051
  934MOL0     C28812   3.881   6.856   1.910 -0.7425 -0.8114 -0.5373
  934MOL0     O28813   3.884   6.902   1.777 -0.9795  0.0375  0.6550
  934MOL0     C28814   3.815   6.823   1.674 -0.3468 -0.0067  0.1951
  934MOL0     C28815   3.896   6.812   1.546  0.0898  0.0729  0.2077
  934MOL0     C28816   3.922   6.954   1.489 -0.0950 -0.5598 -0.7577
  934MOL0     C28817   4.008   6.971   1.366 -0.1608 -0.1209  0.0939
  934MOL0     C28818   3.924   6.939   1.246 -0.1675 -0.0550  0.3239
  934MOL0     C28819   3.855   6.898   1.150  0.2242 -0.7688 -0.8113
  934MOL0     C28820   3.774   6.796   1.984  0.2670  0.2455  0.4195
  934MOL0     C28821   3.762   6.764   2.128  0.3338 -0.3389 -0.0719
  934MOL0     C28822   3.637   6.700   2.182  0.0886  0.5674 -0.7521
  934MOL0     H28823   3.980   6.709   2.615  0.5267 -1.9010  1.9213
  934MOL0     H28824   3.918   6.735   2.855  0.6324  0.0551  0.1891
  934MOL0     H28825   3.529   6.626   2.939  1.7956  0.5627 -2.9722
  934MOL0     H28826   3.526   6.791   3.001  2.2751  1.4677 -0.8262
  934MOL0     H28827   3.631   6.725   3.213  1.3703  0.4291  0.6111
  934MOL0     H28828   3.478   6.633   3.193 -0.1882  0.1975  0.2185
  934MOL0     H28829   3.752   6.513   3.133 -0.4162  1.4248 -2.4783
  934MOL0     H28830   3.665   6.487   3.287  0.8532  1.4570 -0.2216
  934MOL0     H28831   3.475   6.384   3.149 -0.3040  0.1654  0.8487
  934MOL0     H28832   3.581   6.384   3.011 -0.5403 -1.9493  1.0411
  934MOL0     H28833   3.675   6.270   3.277 -2.4491  0.6520  0.4814
  934MOL0     H28834   3.736   6.221   3.113 -0.3336 -1.9581 -0.4097
  934MOL0     H28835   3.436   6.168   3.183  0.3184 -0.0097 -0.8535
  934MOL0     H28836   3.529   6.118   3.049 -1.1797 -2.2304 -0.4237
  934MOL0     H28837   3.500   5.942   3.249 -0.0468  0.4121  2.4698
  934MOL0     H28838   3.609   6.039   3.348  1.7418 -0.9202 -0.6728
  934MOL0     H28839   3.777   6.030   3.154 -1.9221  1.1235  0.8232
  934MOL0     H28840   3.765   5.868   3.233 -2.0043 -1.1814  1.1270
  934MOL0     H28841   3.751   6.014   2.910  0.6534 -0.2669  0.3051
  934MOL0     H28842   3.662   5.950   2.674 -1.7890  0.5165  1.0120
  934MOL0     H28843   3.528   5.842   2.674  0.8190 -2.3215 -1.2869
  934MOL0     H28844   3.830   5.794   2.647  0.5533  0.4474 -2.9605
  934MOL0     H28845   3.710   5.662   2.638  2.5860  0.3406  2.3070
  934MOL0     H28846   3.644   5.757   2.420  0.2109  1.1875 -1.3160
  934MOL0     H28847   3.720   5.916   2.451  1.1872 -0.1715 -1.9928
  934MOL0     H28848   3.858   5.658   2.400 -2.0748 -0.8292  1.9182
  934MOL0     H28849   3.837   5.803   2.293  3.1238  0.1513 -0.1909
  934MOL0     H28850   4.207   5.753   2.486 -0.1909 -0.0576  0.2108
  934MOL0     H28851   4.511   5.835   2.345 -1.4055  1.9309 -1.1491
  934MOL0     H28852   4.433   5.762   2.493 -3.0297  0.4031  0.4754
  934MOL0     H28853   4.469   5.929   2.497 -0.7126  0.5695 -1.2255
  934MOL0     H28854   4.534   5.979   1.942 -0.1228 -0.3440 -1.1661
  934MOL0     H28855   4.695   6.049   1.780 -0.2443 -0.8758 -0.7623
  934MOL0     H28856   4.901   6.159   1.761  0.2623  2.0948  1.0305
  934MOL0     H28857   4.822   6.167   1.604 -0.0336 -1.7144  0.7961
  934MOL0     H28858   4.955   6.380   1.547  1.3319  2.6488  1.3192
  934MOL0     H28859   5.043   6.357   1.692 -1.0894  0.5115  0.2440
  934MOL0     H28860   5.036   6.154   1.463 -2.3736  0.5114  1.2491
  934MOL0     H28861   5.107   6.114   1.615  0.3614 -0.0005 -0.1751
  934MOL0     H28862   5.232   6.353   1.558 -1.9691  0.3298  1.0404
  934MOL0     H28863   5.186   6.295   1.400  1.1003 -0.4605  0.1045
  934MOL0     H28864   5.359   6.145   1.615  1.9878  1.8247 -0.9909
  934MOL0     H28865   5.315   6.064   1.465 -3.1705 -0.8510  1.0996
  934MOL0     H28866   5.472   6.316   1.511 -1.4363 -0.2444  0.5652
  934MOL0     H28867   5.428   6.253   1.352  2.4482  1.0029  0.8772
  934MOL0     H28868   5.571   6.057   1.381 -0.8387  0.5769 -1.3336
  934MOL0     H28869   5.582   6.089   1.552 -1.0824  0.5870  0.9399
  934MOL0     H28870   5.698   6.308   1.502 -1.0399 -2.0115  1.5476
  934MOL0     H28871   5.689   6.270   1.324 -3.9089  0.1045  0.1760
  934MOL0     H28872   4.623   6.456   1.915  0.7038  0.6629  2.4337
  934MOL0     H28873   4.452   6.388   2.063  1.0032  1.1037 -0.5769
  934MOL0     H28874   4.157   6.115   2.176  1.0580  0.7445  1.2056
  934MOL0     H28875   3.949   5.989   2.260  0.3277  0.8693 -1.1477
  934MOL0     H28876   3.504   6.754   2.761 -1.1048 -0.9446  0.6489
  934MOL0     H28877   3.556   6.714   2.518  0.2986 -0.9329 -0.5143
  934MOL0     H28878   4.067   6.897   2.191  2.2844  1.7197 -4.4396
  934MOL0     H28879   4.066   6.917   1.939 -0.4101  1.0475  1.3182
  934MOL0     H28880   3.815   6.718   1.706  1.9130 -0.7004 -1.7790
  934MOL0     H28881   3.714   6.861   1.659 -1.0708 -2.0021 -0.3802
  934MOL0     H28882   3.831   6.778   1.465 -1.8729  0.9563  1.3400
  934MOL0     H28883   3.984   6.750   1.567  0.5733  0.9540  0.8351
  934MOL0     H28884   3.827   7.003   1.470 -0.4053 -0.2314  1.3682
  934MOL0     H28885   3.977   7.016   1.560 -1.3122 -1.2383  0.8446
  934MOL0     H28886   4.096   6.905   1.367 -0.5450 -0.6707 -0.9730
  934MOL0     H28887   4.031   7.077   1.356  0.6044 -0.3955 -1.2091
  934MOL0     H28888   3.794   6.850   1.076 -0.3210 -2.1090  0.4492
  934MOL0     H28889   3.692   6.765   1.919  3.8739 -0.4798 -4.3538
  934MOL0     H28890   3.577   6.665   2.097 -1.7091  1.7893 -0.0580
  934MOL0     H28891   3.641   6.614   2.249 -3.3297 -0.8314 -2.1049
  934MOL0     H28892   3.580   6.773   2.240 -1.2383 -1.1034  0.1370
  935MOL0     O28893   4.130   2.082   8.178  0.1360  0.3233 -0.2919
  935MOL0     C28894   4.109   1.998   8.093  0.5876  0.2550 -0.0249
  935MOL0     O28895   4.139   1.865   8.104  0.1002 -0.3384 -0.0525
  935MOL0     C28896   4.208   1.827   8.211 -0.1736  0.1522 -0.5517
  935MOL0     C28897   4.145   1.817   8.335  0.3298  0.2729 -0.5633
  935MOL0     C28898   4.206   1.763   8.447 -1.2109  0.1013 -0.2168
  935MOL0     C28899   4.342   1.717   8.437 -0.2064  0.1298 -0.2813
  935MOL0     O28900   4.419   1.676   8.545  0.6681  1.0390 -0.0177
  935MOL0     C28901   4.388   1.716   8.683  0.1395  0.3935  0.3321
  935MOL0     C28902   4.503   1.684   8.767  0.2202  0.6888 -0.5657
  935MOL0     C28903   4.513   1.791   8.884  0.5935  0.0472 -0.1735
  935MOL0     C28904   4.566   1.716   9.011 -0.0199 -0.6712  0.4636
  935MOL0     C28905   4.719   1.687   8.993  0.3275  0.0978  0.6076
  935MOL0     C28906   4.789   1.630   9.117  0.1527  0.2735 -0.5571
  935MOL0     C28907   4.766   1.713   9.246  0.0699  1.3646  0.3040
  935MOL0     C28908   4.850   1.672   9.365  0.4481 -0.6516  1.2079
  935MOL0     N28909   4.987   1.654   9.332  0.7129 -0.2884 -0.6160
  935MOL0     C28910   5.085   1.757   9.316 -0.7283 -0.5441  0.6392
  935MOL0     C28911   5.202   1.696   9.302 -0.0182  0.0892  0.5439
  935MOL0     C28912   5.339   1.757   9.291  0.1470  0.0449  0.6210
  935MOL0     C28913   5.448   1.694   9.384 -0.1751 -0.0035  1.1470
  935MOL0     C28914   5.486   1.548   9.341  0.3396 -0.0731 -0.0623
  935MOL0     C28915   5.623   1.520   9.403 -0.1705  0.2409 -0.2349
  935MOL0     O28916   5.726   1.607   9.366 -0.1198  0.1473 -0.3469
  935MOL0     C28917   5.859   1.586   9.410  0.6010 -1.4606  0.1369
  935MOL0     C28918   5.922   1.460   9.402  0.3056 -0.1681  0.2817
  935MOL0     C28919   6.055   1.442   9.447 -0.2434  0.2129 -0.4456
  935MOL0     C28920   6.101   1.304   9.444 -0.3995  0.2911  0.1252
  935MOL0     C28921   6.128   1.560   9.493  0.8345  0.3038 -0.5594
  935MOL0     C28922   6.271   1.551   9.546  0.2566 -0.1800  0.9381
  935MOL0     O28923   6.335   1.671   9.565  0.0688  0.0493  0.4933
  935MOL0     C28924   6.464   1.646   9.608  0.1945 -0.1650  0.0950
  935MOL0     C28925   6.570   1.632   9.518 -0.7469 -0.5192  0.3011
  935MOL0     C28926   6.704   1.614   9.560  0.3125  0.5279  0.0778
  935MOL0     C28927   6.740   1.632   9.694 -0.4352  0.1488 -0.2541
  935MOL0     O28928   6.863   1.646   9.734 -0.8449 -0.0587  0.7984
  935MOL0     C28929   6.956   1.541   9.685 -0.7619  0.1760 -0.2963
  935MOL0     C28930   7.080   1.542   9.770 -0.9252  0.1967  0.4373
  935MOL0     C28931   7.189   1.655   9.733 -0.5362 -0.4556  0.1168
  935MOL0     C28932   7.304   1.660   9.833 -0.1404 -0.4465 -0.0405
  935MOL0     C28933   7.427   1.601   9.766  0.1043  0.1515 -0.1157
  935MOL0     C28934   7.550   1.643   9.858  1.1635  0.1334  0.2425
  935MOL0     C28935   7.662   1.563   9.802  0.0196  0.1535 -0.1755
  935MOL0     C28936   7.801   1.617   9.840 -0.5676 -0.1669  0.2162
  935MOL0    Cl28937   7.798   1.610  10.019 -0.1354 -0.0245 -0.0969
  935MOL0     C28938   6.633   1.658   9.783  0.5413  0.3105 -0.7996
  935MOL0     C28939   6.502   1.660   9.741 -0.5362 -0.5121  0.0216
  935MOL0     O28940   6.317   1.437   9.569 -0.1506 -0.3934 -0.1532
  935MOL0     C28941   6.060   1.682   9.491  0.3154 -0.5762 -0.2560
  935MOL0     C28942   5.933   1.697   9.447  0.2130  0.3945  0.6464
  935MOL0     N28943   5.177   1.556   9.321  0.4629 -0.0325 -0.2231
  935MOL0     N28944   5.049   1.528   9.329  0.7173 -0.4858  0.3937
  935MOL0     C28945   4.401   1.730   8.313 -0.1347  0.7315  0.0140
  935MOL0     C28946   4.342   1.791   8.197  0.0168  0.5702  0.5198
  935MOL0     C28947   4.033   2.027   7.964  0.8353 -0.3359 -0.3896
  935MOL0     C28948   3.931   1.938   7.911  0.7991 -0.6139  0.2050
  935MOL0     C28949   3.864   1.963   7.788 -0.1103 -0.0061 -0.3163
  935MOL0     C28950   3.887   2.089   7.726  0.1509 -0.2306  0.4385
  935MOL0     O28951   3.816   2.130   7.610 -0.1419 -0.7575 -0.5261
  935MOL0     C28952   3.710   2.054   7.548  0.4042  0.4109  0.1543
  935MOL0     C28953   3.581   2.078   7.636  0.6013  0.8267  0.3333
  935MOL0     C28954   3.462   1.993   7.604  0.7076  0.7714 -0.0515
  935MOL0     C28955   3.393   2.024   7.471  0.6235  0.1528 -0.5492
  935MOL0     C28956   3.283   1.930   7.435  0.2732 -0.0524  0.6184
  935MOL0     C28957   3.191   1.856   7.419 -0.1740  0.5996 -0.2496
  935MOL0     C28958   3.987   2.174   7.773 -0.7965  0.2490  0.2065
  935MOL0     C28959   4.057   2.144   7.889 -0.0917  0.0557  0.0884
  935MOL0     C28960   4.168   2.239   7.924 -0.0853  0.3495  0.2506
  935MOL0     H28961   4.037   1.830   8.336  0.0960 -1.3886 -1.0553
  935MOL0     H28962   4.152   1.744   8.540  0.1864  0.4979  0.7096
  935MOL0     H28963   4.294   1.667   8.712  0.4638  0.5278  1.6533
  935MOL0     H28964   4.363   1.823   8.680 -0.2514  0.3662  1.8047
  935MOL0     H28965   4.474   1.586   8.808  2.1460  1.8035  4.1395
  935MOL0     H28966   4.599   1.679   8.714  0.5754 -0.2942  0.1310
  935MOL0     H28967   4.573   1.877   8.852 -0.3001  0.1746 -1.5970
  935MOL0     H28968   4.410   1.822   8.902 -0.0614 -1.5609 -0.9566
  935MOL0     H28969   4.553   1.791   9.090  3.5025  0.9459 -0.3093
  935MOL0     H28970   4.512   1.625   9.040 -0.6433 -0.3166  0.4432
  935MOL0     H28971   4.768   1.781   8.965 -2.9747  1.9399  0.4001
  935MOL0     H28972   4.726   1.617   8.909  0.3122  0.7789  0.0242
  935MOL0     H28973   4.765   1.524   9.128  0.2584  0.2966 -0.0692
  935MOL0     H28974   4.898   1.634   9.102  0.6076  0.5624  2.2385
  935MOL0     H28975   4.662   1.699   9.276 -0.2121  1.8762 -0.4108
  935MOL0     H28976   4.782   1.818   9.221 -2.1195  1.4619 -0.8811
  935MOL0     H28977   4.839   1.753   9.438  0.6139  2.4654 -1.9634
  935MOL0     H28978   4.815   1.581   9.415  0.4025  0.2047  2.7607
  935MOL0     H28979   5.067   1.864   9.315  1.6488 -0.0725  0.7491
  935MOL0     H28980   5.324   1.865   9.301  1.7633  0.2778  0.8376
  935MOL0     H28981   5.366   1.737   9.187  1.6295  1.8778  0.6011
  935MOL0     H28982   5.529   1.768   9.382 -1.6545  1.6894  1.6662
  935MOL0     H28983   5.408   1.693   9.485  0.4771  0.8400  1.4239
  935MOL0     H28984   5.401   1.492   9.380 -0.6446  1.7654  0.5608
  935MOL0     H28985   5.490   1.540   9.231 -0.9829 -1.7910 -0.0254
  935MOL0     H28986   5.617   1.515   9.513 -1.4972 -3.3748 -0.3351
  935MOL0     H28987   5.647   1.415   9.386  1.7826  0.8251 -1.3904
  935MOL0     H28988   5.857   1.384   9.360 -0.8961  1.6729 -1.3299
  935MOL0     H28989   6.157   1.276   9.533  2.3520 -0.9876 -1.8720
  935MOL0     H28990   6.180   1.298   9.368  0.2465 -2.3176  0.8894
  935MOL0     H28991   6.017   1.236   9.428  0.2121 -0.4998  0.1926
  935MOL0     H28992   6.545   1.629   9.412 -0.8631  0.1390  0.3046
  935MOL0     H28993   6.776   1.614   9.479  0.7306  2.4965  0.3966
  935MOL0     H28994   6.900   1.447   9.683  1.4150 -1.1920  0.3949
  935MOL0     H28995   6.978   1.554   9.579  0.5497 -0.0703 -0.0635
  935MOL0     H28996   7.059   1.544   9.878  0.4916 -1.6988  0.8035
  935MOL0     H28997   7.132   1.448   9.747  0.2664  1.2957 -1.6106
  935MOL0     H28998   7.147   1.756   9.728 -2.1810 -1.1243 -0.3285
  935MOL0     H28999   7.213   1.639   9.627 -5.2692 -1.0392 -1.0943
  935MOL0     H29000   7.289   1.613   9.930  1.7168  1.4703  1.2580
  935MOL0     H29001   7.329   1.764   9.858  0.8036 -0.5773 -0.4175
  935MOL0     H29002   7.418   1.493   9.750 -0.0349  0.1870 -0.2853
  935MOL0     H29003   7.444   1.648   9.669  0.8452 -1.0882 -0.6129
  935MOL0     H29004   7.530   1.615   9.962  1.4091  2.1591  0.8602
  935MOL0     H29005   7.564   1.751   9.866 -0.1338  0.3582 -0.2107
  935MOL0     H29006   7.654   1.555   9.693 -1.6406 -0.5587 -0.0406
  935MOL0     H29007   7.664   1.461   9.842  3.0049  0.1507 -0.1741
  935MOL0     H29008   7.814   1.722   9.811 -2.3615  0.2068  0.6162
  935MOL0     H29009   7.877   1.559   9.788 -0.4810  0.0355  0.1145
  935MOL0     H29010   6.653   1.680   9.887 -1.9292  0.6673 -0.3452
  935MOL0     H29011   6.423   1.672   9.814 -1.7175 -0.2967 -1.2431
  935MOL0     H29012   6.120   1.769   9.514  0.7256 -0.9173 -0.0026
  935MOL0     H29013   5.892   1.796   9.428 -3.8195 -1.0967  0.6650
  935MOL0     H29014   4.508   1.723   8.298 -0.2482  0.6430 -0.8188
  935MOL0     H29015   4.389   1.801   8.100  0.4760 -0.9044  0.5572
  935MOL0     H29016   3.913   1.838   7.949  1.5585 -2.6151 -4.1169
  935MOL0     H29017   3.805   1.882   7.746  1.3005 -1.1996 -0.0492
  935MOL0     H29018   3.693   2.095   7.448  2.0422  0.0832 -0.2985
  935MOL0     H29019   3.728   1.947   7.541 -4.5967 -0.5678 -3.1946
  935MOL0     H29020   3.543   2.180   7.628 -2.4425 -0.2297  0.1027
  935MOL0     H29021   3.601   2.072   7.744 -1.5648  2.1412  0.8654
  935MOL0     H29022   3.491   1.888   7.596  2.7964  1.3957 -1.2805
  935MOL0     H29023   3.390   2.003   7.686  2.1982 -0.5092  1.4829
  935MOL0     H29024   3.467   2.043   7.393  0.5613 -0.5765 -0.7896
  935MOL0     H29025   3.352   2.123   7.493 -2.3167 -1.6654  3.3871
  935MOL0     H29026   3.103   1.798   7.399  0.6287  0.2140 -3.0684
  935MOL0     H29027   3.997   2.274   7.731 -0.5401  0.3579  0.5201
  935MOL0     H29028   4.130   2.305   8.002  0.4121  0.1157  0.6899
  935MOL0     H29029   4.264   2.193   7.946  0.0335 -0.0317 -0.9455
  935MOL0     H29030   4.188   2.292   7.831 -0.6874 -0.8308 -0.5895
  936MOL0     O29031  11.120   6.586   5.997 -0.0823  0.0159  0.5498
  936MOL0     C29032  11.110   6.544   6.110 -0.4132  0.3240 -0.2356
  936MOL0     O29033  11.209   6.531   6.211 -0.6263 -0.0336 -0.7902
  936MOL0     C29034  11.338   6.576   6.182  0.1740  0.1295 -0.4738
  936MOL0     C29035  11.385   6.679   6.256 -0.1741 -0.0809 -0.1410
  936MOL0     C29036  11.511   6.738   6.235  0.4055  0.3567 -1.1757
  936MOL0     C29037  11.587   6.702   6.123 -0.0044 -0.0594  0.2416
  936MOL0     O29038  11.705   6.769   6.099  0.0463  0.0706 -0.1405
  936MOL0     C29039  11.745   6.778   5.960 -0.1972  0.2507  0.2018
  936MOL0     C29040  11.863   6.875   5.952  0.3117  0.4114  0.5480
  936MOL0     C29041  11.934   6.915   5.812  0.5590  0.0350  0.5320
  936MOL0     C29042  12.034   7.024   5.836  0.2973  0.2267 -0.2195
  936MOL0     C29043  12.074   7.091   5.710  0.2587  1.2597  0.6937
  936MOL0     C29044  12.201   7.179   5.743  0.4414  0.0633  0.6974
  936MOL0     C29045  12.245   7.281   5.635  0.3070 -0.6756  0.6610
  936MOL0     C29046  12.359   7.368   5.705 -0.6996 -0.2043  0.4600
  936MOL0     N29047  12.486   7.289   5.728 -0.5470  1.2555 -0.6948
  936MOL0     C29048  12.538   7.207   5.627 -0.1927 -0.4064  0.3794
  936MOL0     C29049  12.668   7.208   5.650 -0.3967 -0.1824 -0.4703
  936MOL0     C29050  12.775   7.113   5.592  0.2984  0.7052  0.1108
  936MOL0     C29051  12.916   7.169   5.611 -0.3780  0.0972 -0.5194
  936MOL0     C29052  13.020   7.064   5.564  0.3907 -0.4997 -0.3931
  936MOL0     C29053  13.157   7.116   5.586 -0.3386  0.3138  0.5407
  936MOL0     O29054  13.265   7.016   5.582 -0.0119 -0.6820  0.3731
  936MOL0     C29055  13.391   7.064   5.541  0.4156  0.4234 -0.1764
  936MOL0     C29056  13.423   7.199   5.524  0.0170 -0.1296 -0.6432
  936MOL0     C29057  13.544   7.230   5.479 -0.8337  0.0857 -0.5860
  936MOL0     C29058  13.575   7.376   5.493 -0.1069  0.3009  0.8617
  936MOL0     C29059  13.647   7.139   5.461  0.3559  0.0521  0.2733
  936MOL0     C29060  13.782   7.168   5.413 -0.6592 -0.1329 -0.2801
  936MOL0     O29061  13.880   7.072   5.428  0.0332 -0.5112  0.4054
  936MOL0     C29062  14.003   7.116   5.395 -0.5402 -0.0759 -0.2322
  936MOL0     C29063  14.058   7.091   5.266  0.0681 -0.5876 -0.6753
  936MOL0     C29064  14.185   7.140   5.235  0.3248  0.4980  0.1564
  936MOL0     C29065  14.267   7.191   5.338  0.2824  0.1664 -0.8892
  936MOL0     O29066  14.388   7.249   5.337 -0.3011  0.4734  0.1289
  936MOL0     C29067  14.449   7.252   5.206  0.3135  0.3686 -0.0111
  936MOL0     C29068  14.549   7.366   5.194  0.4303  0.3274 -1.4493
  936MOL0     C29069  14.672   7.315   5.259 -0.7362 -0.1719 -0.2391
  936MOL0     C29070  14.787   7.415   5.276  0.2781  0.0965 -0.6345
  936MOL0     C29071  14.907   7.353   5.342 -0.6888 -0.3906  0.4369
  936MOL0     C29072  15.009   7.465   5.373  0.1795  0.9268 -0.4300
  936MOL0     C29073  15.140   7.401   5.439  0.4792 -0.8537 -0.3241
  936MOL0     C29074  15.246   7.497   5.476  0.3066 -0.2924  0.1970
  936MOL0    Cl29075  15.215   7.610   5.611  0.0146  0.0775 -0.2994
  936MOL0     C29076  14.217   7.217   5.462 -0.4331 -0.8876  0.0453
  936MOL0     C29077  14.082   7.176   5.488 -0.6972 -0.8735  0.6464
  936MOL0     O29078  13.805   7.277   5.356  0.1779  0.9708  0.0854
  936MOL0     C29079  13.613   7.007   5.483 -0.7581  0.1816 -0.9231
  936MOL0     C29080  13.494   6.968   5.539 -0.1988 -0.5134  0.2618
  936MOL0     N29081  12.694   7.271   5.773  0.3133  0.0606  0.8378
  936MOL0     N29082  12.583   7.322   5.815 -0.0243  0.3840 -0.0095
  936MOL0     C29083  11.536   6.597   6.039  0.5499  0.2104 -0.4673
  936MOL0     C29084  11.415   6.529   6.074  0.0986  0.0321 -0.1988
  936MOL0     C29085  10.974   6.503   6.137 -0.2896 -0.2027 -0.1389
  936MOL0     C29086  10.928   6.536   6.263  0.3600 -0.0041  0.3608
  936MOL0     C29087  10.795   6.518   6.293 -0.3839 -0.0973  0.3550
  936MOL0     C29088  10.711   6.448   6.209 -0.5161 -0.0648 -0.9087
  936MOL0     O29089  10.582   6.420   6.258 -0.5730 -0.3539 -0.2468
  936MOL0     C29090  10.487   6.391   6.156  0.5539 -0.1535  0.2157
  936MOL0     C29091  10.346   6.365   6.211  0.5268 -0.7009 -0.1917
  936MOL0     C29092  10.296   6.493   6.286 -0.5931 -0.0149 -0.0154
  936MOL0     C29093  10.142   6.505   6.280  0.2928 -0.7303  0.1116
  936MOL0     C29094  10.082   6.424   6.388  0.8430  0.4657 -0.1608
  936MOL0     C29095  10.050   6.369   6.494 -1.3699  1.0429  0.5076
  936MOL0     C29096  10.755   6.422   6.082 -0.0794 -0.0274  0.1451
  936MOL0     C29097  10.889   6.437   6.046 -0.1379 -0.5343  0.4081
  936MOL0     C29098  10.936   6.377   5.912 -0.2055  0.7029 -0.4960
  936MOL0     H29099  11.340   6.706   6.351  0.0356 -0.3694  0.0400
  936MOL0     H29100  11.543   6.823   6.294  2.2496  0.1817 -1.8311
  936MOL0     H29101  11.655   6.816   5.909  0.3235  1.3012  0.0366
  936MOL0     H29102  11.790   6.683   5.929 -0.9245 -0.0434  0.0131
  936MOL0     H29103  11.829   6.966   6.002 -0.2336  1.5453 -1.7842
  936MOL0     H29104  11.939   6.822   6.011  0.1383  1.9138  2.2132
  936MOL0     H29105  11.988   6.837   5.757  4.1486  1.5278  1.6224
  936MOL0     H29106  11.860   6.948   5.739 -0.8051 -1.2433  1.2912
  936MOL0     H29107  11.993   7.099   5.904  1.2401  1.1414 -0.6450
  936MOL0     H29108  12.120   6.976   5.883 -0.8639  1.9408  4.1536
  936MOL0     H29109  11.991   7.147   5.666  0.9787  2.0054  0.2675
  936MOL0     H29110  12.097   7.012   5.637 -0.8173 -0.1524  1.8157
  936MOL0     H29111  12.172   7.243   5.827  1.6803  3.5114 -1.2708
  936MOL0     H29112  12.283   7.111   5.768 -0.6733 -2.4776 -1.9613
  936MOL0     H29113  12.154   7.339   5.617 -0.8491 -2.3332  0.9037
  936MOL0     H29114  12.282   7.240   5.540  2.2113 -0.2981  1.1971
  936MOL0     H29115  12.387   7.457   5.648 -0.1860 -0.1662  0.7616
  936MOL0     H29116  12.327   7.394   5.807 -0.8646 -1.9655  0.8912
  936MOL0     H29117  12.474   7.153   5.558  1.3013 -2.3405  0.4327
  936MOL0     H29118  12.753   7.098   5.486 -0.6382 -1.9740  0.6161
  936MOL0     H29119  12.765   7.016   5.640  3.5224  0.6192  0.8658
  936MOL0     H29120  12.919   7.253   5.542  1.4835 -1.3320 -2.3085
  936MOL0     H29121  12.935   7.199   5.715  2.0251 -0.5601 -0.7101
  936MOL0     H29122  13.008   6.982   5.636 -3.1632 -0.0230 -0.2464
  936MOL0     H29123  13.004   7.039   5.459  0.6580  2.7580 -1.3078
  936MOL0     H29124  13.168   7.195   5.512  1.3728 -0.4549 -0.0906
  936MOL0     H29125  13.163   7.153   5.689  0.8712 -2.0477  1.4036
  936MOL0     H29126  13.358   7.281   5.554 -2.2428 -1.0120 -2.7617
  936MOL0     H29127  13.676   7.388   5.534 -0.7302 -1.7947  3.2656
  936MOL0     H29128  13.502   7.425   5.557 -0.0830  1.1264  0.2768
  936MOL0     H29129  13.572   7.423   5.394 -3.2037  1.0337  1.2233
  936MOL0     H29130  13.994   7.045   5.190 -0.1594 -0.9087 -0.2932
  936MOL0     H29131  14.222   7.119   5.135  2.6257 -0.5858  1.1690
  936MOL0     H29132  14.486   7.153   5.179 -0.1321 -0.2691  1.6346
  936MOL0     H29133  14.367   7.281   5.140 -0.1314  0.9507  0.7831
  936MOL0     H29134  14.573   7.407   5.096 -1.1726  0.9927 -1.6016
  936MOL0     H29135  14.515   7.452   5.253  1.5953  0.3918 -0.8647
  936MOL0     H29136  14.703   7.225   5.204 -0.9664  0.4483 -1.4063
  936MOL0     H29137  14.652   7.290   5.364  0.4857  0.4920  0.1786
  936MOL0     H29138  14.749   7.503   5.328 -1.1666 -0.4908 -0.6482
  936MOL0     H29139  14.799   7.452   5.174 -0.3618  0.7938 -0.4655
  936MOL0     H29140  14.866   7.310   5.434 -3.3734 -1.1668 -1.0225
  936MOL0     H29141  14.948   7.274   5.278  0.4998  0.1680  0.4742
  936MOL0     H29142  14.961   7.539   5.438  0.4717  0.6169  0.1454
  936MOL0     H29143  15.038   7.522   5.283 -1.5018  0.0511 -1.5691
  936MOL0     H29144  15.178   7.325   5.370  1.9022  0.9000 -1.5820
  936MOL0     H29145  15.125   7.347   5.533 -1.0765 -0.3926 -0.2884
  936MOL0     H29146  15.264   7.559   5.388 -2.3892  0.1795 -0.1135
  936MOL0     H29147  15.339   7.444   5.497  0.8909  0.7273  0.2541
  936MOL0     H29148  14.267   7.272   5.541 -2.2361 -1.5372  1.7106
  936MOL0     H29149  14.044   7.206   5.585 -0.3077  1.2615  0.1906
  936MOL0     H29150  13.696   6.938   5.473 -1.3470 -0.8902  1.0409
  936MOL0     H29151  13.482   6.863   5.562 -2.4546 -0.0893  1.3539
  936MOL0     H29152  11.595   6.572   5.952  1.0714 -0.5544  0.0986
  936MOL0     H29153  11.382   6.450   6.008  0.2744  0.8357 -1.2702
  936MOL0     H29154  10.993   6.582   6.337 -0.2321  1.0308  0.2545
  936MOL0     H29155  10.753   6.550   6.388 -0.5422  3.9049 -0.8577
  936MOL0     H29156  10.488   6.463   6.073  2.2039 -1.2662 -0.7852
  936MOL0     H29157  10.529   6.298   6.117 -2.3188 -0.6441 -2.0903
  936MOL0     H29158  10.359   6.283   6.282  1.2162  1.2687  2.1177
  936MOL0     H29159  10.281   6.338   6.127 -1.0514 -1.2616  1.1518
  936MOL0     H29160  10.329   6.482   6.389 -1.0176 -1.8505 -0.0332
  936MOL0     H29161  10.338   6.589   6.256 -1.5865  0.4628  0.0774
  936MOL0     H29162  10.120   6.480   6.176  1.2846 -0.7687 -0.1032
  936MOL0     H29163  10.112   6.609   6.298  0.1854 -1.1384  2.7151
  936MOL0     H29164  10.025   6.318   6.585  1.2033 -2.3211 -0.4394
  936MOL0     H29165  10.696   6.374   6.004  0.6632 -2.8200  1.1655
  936MOL0     H29166  10.914   6.442   5.826  3.2082 -3.0609 -4.7300
  936MOL0     H29167  11.044   6.367   5.904 -0.0057  1.6645  0.6329
  936MOL0     H29168  10.894   6.277   5.900  1.7876 -0.3141  0.6558
  937MOL0     O29169   0.737   3.279   7.058 -0.1835 -0.1118  0.6075
  937MOL0     C29170   0.723   3.158   7.044  0.0985 -1.0073  0.0833
  937MOL0     O29171   0.824   3.070   7.071  0.0359  0.0402 -0.5846
  937MOL0     C29172   0.933   3.106   7.139 -0.5341 -1.3432  0.3267
  937MOL0     C29173   0.921   3.065   7.276 -0.3122 -0.5567 -0.6047
  937MOL0     C29174   1.018   3.087   7.367 -0.3767  0.8226 -0.5311
  937MOL0     C29175   1.135   3.158   7.320 -0.4417  0.2169 -0.0994
  937MOL0     O29176   1.217   3.174   7.428 -1.0274  0.0514  0.0987
  937MOL0     C29177   1.362   3.180   7.388  0.8487  0.5647 -0.9884
  937MOL0     C29178   1.459   3.170   7.509 -0.2201 -0.4939  0.0009
  937MOL0     C29179   1.591   3.235   7.483  0.4671 -0.4257 -0.1630
  937MOL0     C29180   1.720   3.171   7.522 -0.7235  0.1617 -0.0992
  937MOL0     C29181   1.744   3.169   7.672 -0.0568 -1.2300  0.5939
  937MOL0     C29182   1.891   3.173   7.730  0.1526  0.0077  0.4112
  937MOL0     C29183   1.885   3.119   7.873  0.4307  0.4189  0.4904
  937MOL0     C29184   1.784   3.193   7.969 -0.3048 -0.0091 -0.2155
  937MOL0     N29185   1.641   3.175   7.968  0.4461 -0.4185 -0.6763
  937MOL0     C29186   1.544   3.280   7.961 -0.9668 -0.2619  0.3839
  937MOL0     C29187   1.434   3.223   8.009 -0.4323 -1.1706 -0.1394
  937MOL0     C29188   1.310   3.297   8.040  0.1961  0.6219  0.1143
  937MOL0     C29189   1.217   3.325   7.916 -0.1868 -0.5182 -0.1218
  937MOL0     C29190   1.181   3.196   7.839 -0.7315 -0.2137 -0.5393
  937MOL0     C29191   1.084   3.233   7.719  0.1151  0.3790 -0.9968
  937MOL0     O29192   0.981   3.317   7.765  0.0325 -0.6570  0.2688
  937MOL0     C29193   0.921   3.405   7.674 -0.0165  0.3625 -0.0409
  937MOL0     C29194   0.971   3.437   7.549 -0.4162  0.2132 -0.1153
  937MOL0     C29195   0.893   3.503   7.453 -0.1629  0.5729  0.3397
  937MOL0     C29196   0.945   3.525   7.301 -0.4381  0.2559 -0.3212
  937MOL0     C29197   0.768   3.553   7.491  0.6544 -0.2201 -0.1351
  937MOL0     C29198   0.682   3.635   7.405  1.3056  0.4946  0.3951
  937MOL0     O29199   0.549   3.610   7.418 -0.1710 -0.0976 -0.1621
  937MOL0     C29200   0.468   3.649   7.315  0.2783 -0.2291  0.4469
  937MOL0     C29201   0.488   3.639   7.180 -0.2751 -0.4735  0.0078
  937MOL0     C29202   0.386   3.677   7.089 -0.5533 -0.6253  0.0738
  937MOL0     C29203   0.252   3.705   7.119  1.2593 -0.0627 -0.3295
  937MOL0     O29204   0.157   3.743   7.028 -0.4053 -0.0059 -0.8330
  937MOL0     C29205   0.033   3.810   7.076 -0.4529 -1.0339 -0.0180
  937MOL0     C29206  -0.028   3.906   6.974  0.0020 -0.3921  0.3234
  937MOL0     C29207  -0.163   3.979   7.022 -0.4516  0.5297  0.5982
  937MOL0     C29208  -0.287   3.884   7.035  0.1477 -0.6312 -1.1095
  937MOL0     C29209  -0.416   3.959   7.077 -0.1288 -0.3494 -0.3319
  937MOL0     C29210  -0.464   4.059   6.967  0.0416 -0.2778 -0.2428
  937MOL0     C29211  -0.608   4.093   6.983 -0.0027 -0.1058 -0.2335
  937MOL0     C29212  -0.653   4.214   6.897  0.2390  0.0532  0.1175
  937MOL0    Cl29213  -0.816   4.204   6.856  0.3268 -0.3319  0.6423
  937MOL0     C29214   0.238   3.715   7.259  0.2945 -0.1069  0.2562
  937MOL0     C29215   0.343   3.699   7.355  0.3063  0.6735 -0.6633
  937MOL0     O29216   0.736   3.718   7.334 -0.3820  0.0747 -0.2194
  937MOL0     C29217   0.716   3.525   7.618  0.3370 -0.8686 -0.6763
  937MOL0     C29218   0.794   3.437   7.704 -0.3402 -0.1987  0.0854
  937MOL0     N29219   1.456   3.093   8.034 -0.0050 -0.2908 -0.5524
  937MOL0     N29220   1.575   3.068   8.013 -0.0240 -0.1405 -0.2273
  937MOL0     C29221   1.150   3.201   7.182  0.5799  0.0266 -0.5374
  937MOL0     C29222   1.040   3.181   7.088 -0.0614  0.2494 -0.4633
  937MOL0     C29223   0.597   3.113   6.979  0.3559 -0.3567 -1.7069
  937MOL0     C29224   0.592   2.978   6.943  0.8132 -0.8005 -0.5421
  937MOL0     C29225   0.468   2.914   6.918 -0.1139  0.6175  0.0091
  937MOL0     C29226   0.345   2.991   6.903  0.2787 -0.8354  0.1419
  937MOL0     O29227   0.229   2.928   6.861 -0.3921 -0.7447 -0.7349
  937MOL0     C29228   0.104   2.983   6.888 -0.0005 -0.6756 -0.7576
  937MOL0     C29229  -0.020   2.909   6.838 -0.0082  0.3546 -0.0643
  937MOL0     C29230  -0.009   2.864   6.691 -0.6256 -0.1860 -0.1541
  937MOL0     C29231  -0.139   2.778   6.659  0.2400  0.5842  0.6040
  937MOL0     C29232  -0.146   2.757   6.513 -1.0558  0.5925  0.2293
  937MOL0     C29233  -0.135   2.743   6.392 -0.3576  0.3741  1.0260
  937MOL0     C29234   0.358   3.130   6.930 -0.8572 -0.2066  0.1113
  937MOL0     C29235   0.475   3.195   6.972 -0.0340 -0.4301 -0.8456
  937MOL0     C29236   0.475   3.339   7.000  0.4093  0.2348 -0.3186
  937MOL0     H29237   0.839   3.005   7.313  0.1674  0.0994  1.6544
  937MOL0     H29238   1.011   3.053   7.469 -2.6893 -0.4318 -1.0174
  937MOL0     H29239   1.396   3.270   7.336  0.8565 -0.1078 -2.1903
  937MOL0     H29240   1.380   3.095   7.320  0.0824  0.9995 -1.7605
  937MOL0     H29241   1.419   3.224   7.595  1.1410  0.3576  0.1290
  937MOL0     H29242   1.482   3.069   7.546  3.5767  0.7740  1.6073
  937MOL0     H29243   1.597   3.251   7.375 -2.5814  1.7544 -0.1419
  937MOL0     H29244   1.603   3.335   7.525 -0.2860 -0.1631 -0.5600
  937MOL0     H29245   1.723   3.067   7.487 -2.8975  0.3644 -0.9941
  937MOL0     H29246   1.805   3.221   7.474  0.7392 -1.5038  0.5926
  937MOL0     H29247   1.697   3.073   7.697 -1.8187 -0.3171  0.9919
  937MOL0     H29248   1.690   3.257   7.709  1.4123  0.0806 -0.2332
  937MOL0     H29249   1.949   3.104   7.668 -2.7452 -1.4751 -0.8605
  937MOL0     H29250   1.941   3.270   7.732 -0.0004  0.0923  0.1958
  937MOL0     H29251   1.983   3.131   7.921  0.2939 -1.7517  1.4385
  937MOL0     H29252   1.860   3.013   7.874  0.2158  0.4573  2.1305
  937MOL0     H29253   1.817   3.161   8.068  2.8702 -0.2926 -1.2421
  937MOL0     H29254   1.794   3.301   7.959 -1.9721  0.2627  0.7669
  937MOL0     H29255   1.560   3.386   7.942 -4.4622  0.7518  2.3887
  937MOL0     H29256   1.356   3.384   8.086  1.2141 -0.6795  1.6804
  937MOL0     H29257   1.257   3.245   8.121 -1.6437  1.8924 -0.2215
  937MOL0     H29258   1.129   3.371   7.961 -0.1289 -0.5280  0.0040
  937MOL0     H29259   1.260   3.400   7.850  0.9665 -1.4238 -0.4288
  937MOL0     H29260   1.274   3.152   7.802 -0.5701 -0.6162  0.3398
  937MOL0     H29261   1.141   3.117   7.903 -3.3130  0.1921 -1.5400
  937MOL0     H29262   1.138   3.278   7.635 -1.5276 -2.4035 -3.7686
  937MOL0     H29263   1.041   3.142   7.675  2.0614 -1.2440  0.2529
  937MOL0     H29264   1.072   3.414   7.519 -0.9828 -0.6836 -1.4310
  937MOL0     H29265   0.978   3.626   7.274  2.1167 -0.8742 -1.7946
  937MOL0     H29266   0.859   3.500   7.238 -0.2340  1.4782 -1.1107
  937MOL0     H29267   1.028   3.455   7.287  1.1478  0.9242  4.1612
  937MOL0     H29268   0.582   3.605   7.138 -1.0747  0.0960 -2.4110
  937MOL0     H29269   0.413   3.674   6.984  1.8210 -1.0838  0.6315
  937MOL0     H29270  -0.038   3.734   7.110 -2.4102  0.4054 -0.6822
  937MOL0     H29271   0.059   3.875   7.160  0.3504 -0.5407 -0.6281
  937MOL0     H29272   0.043   3.986   6.949 -0.9312  0.2734 -0.2861
  937MOL0     H29273  -0.058   3.861   6.878  1.2041  0.5329 -0.5179
  937MOL0     H29274  -0.190   4.059   6.951  1.0392 -0.2016 -0.8664
  937MOL0     H29275  -0.136   4.022   7.119  0.8125 -0.3916  0.6672
  937MOL0     H29276  -0.264   3.820   7.120  0.5591  1.0289  0.0892
  937MOL0     H29277  -0.296   3.834   6.938 -0.3971 -2.1579 -0.2981
  937MOL0     H29278  -0.490   3.880   7.097  2.4839 -3.1456 -0.9184
  937MOL0     H29279  -0.390   4.007   7.171 -1.8979 -1.4439  0.7799
  937MOL0     H29280  -0.453   4.022   6.865  1.7600  3.0436 -1.4235
  937MOL0     H29281  -0.409   4.153   6.979  1.5281 -1.0823 -0.4372
  937MOL0     H29282  -0.638   4.120   7.085  0.1392 -2.4158  0.4748
  937MOL0     H29283  -0.671   4.007   6.959 -3.3652  1.3150  2.4539
  937MOL0     H29284  -0.590   4.210   6.808  0.0306  0.5445 -0.0594
  937MOL0     H29285  -0.637   4.303   6.958  3.7116 -0.4244  0.0706
  937MOL0     H29286   0.143   3.750   7.297  0.0379  1.2435 -1.4622
  937MOL0     H29287   0.328   3.701   7.462  1.9974 -2.4238 -0.2603
  937MOL0     H29288   0.619   3.562   7.650  1.6628 -0.1983  3.1711
  937MOL0     H29289   0.746   3.418   7.799  1.1927 -0.7611  0.7825
  937MOL0     H29290   1.229   3.270   7.152  0.1253  0.0823 -1.6635
  937MOL0     H29291   1.040   3.220   6.987 -0.4569 -2.3773 -1.5518
  937MOL0     H29292   0.691   2.933   6.944  2.2290  2.0548  0.7216
  937MOL0     H29293   0.463   2.812   6.880 -0.1026  0.9281 -0.8499
  937MOL0     H29294   0.095   2.982   6.997 -0.7961 -1.5872 -0.8284
  937MOL0     H29295   0.099   3.087   6.854 -0.3429  0.3509  2.1929
  937MOL0     H29296  -0.105   2.974   6.861 -0.0418  0.5370 -0.6832
  937MOL0     H29297  -0.027   2.823   6.905  0.3254 -0.2317 -0.7609
  937MOL0     H29298   0.004   2.951   6.625  3.1439  1.4944  2.4200
  937MOL0     H29299   0.080   2.800   6.696 -0.2929  0.2411 -0.4293
  937MOL0     H29300  -0.227   2.839   6.682 -0.7451  0.7153 -2.9504
  937MOL0     H29301  -0.137   2.687   6.718 -0.7543  0.8384  1.0455
  937MOL0     H29302  -0.129   2.726   6.286 -0.3377  1.7748  0.7833
  937MOL0     H29303   0.264   3.185   6.929  0.1260  1.7542  2.8874
  937MOL0     H29304   0.511   3.348   7.103 -0.5311 -1.8875  0.2467
  937MOL0     H29305   0.533   3.401   6.931 -2.0438  2.2581 -0.7069
  937MOL0     H29306   0.372   3.374   6.995 -0.4946 -2.3504 -1.1775
  938MOL0     O29307   5.270   0.162   3.893  0.3543 -0.8243 -0.1280
  938MOL0     C29308   5.276   0.271   3.844 -0.2029 -0.3039 -0.1718
  938MOL0     O29309   5.183   0.371   3.859 -0.0895  0.2423 -0.2515
  938MOL0     C29310   5.067   0.337   3.921 -0.6861 -0.4958 -0.0026
  938MOL0     C29311   5.045   0.347   4.061 -0.3679 -0.1150 -0.4022
  938MOL0     C29312   4.918   0.329   4.110 -0.1101 -0.1274  0.0657
  938MOL0     C29313   4.814   0.289   4.036  0.2255  0.1657  0.1325
  938MOL0     O29314   4.700   0.246   4.097  0.5174  0.2740  0.4124
  938MOL0     C29315   4.592   0.200   4.019 -0.5667 -0.2846  0.1235
  938MOL0     C29316   4.498   0.315   3.967  0.0982 -0.5672 -0.1125
  938MOL0     C29317   4.392   0.348   4.072  0.5233  0.0213  0.4537
  938MOL0     C29318   4.308   0.475   4.027 -0.8481  0.5103  0.3766
  938MOL0     C29319   4.245   0.555   4.133  0.1716  0.6568  0.2795
  938MOL0     C29320   4.174   0.467   4.228  0.9685  0.0248 -0.2232
  938MOL0     C29321   4.074   0.548   4.313  0.9821  0.0023 -0.1939
  938MOL0     C29322   4.141   0.655   4.406  0.3068  0.3829 -0.0450
  938MOL0     N29323   4.041   0.747   4.460  0.4561 -0.5657 -0.1879
  938MOL0     C29324   3.954   0.724   4.556  0.4488 -0.2016 -0.0998
  938MOL0     C29325   3.920   0.842   4.603  0.6821  0.1555  0.7601
  938MOL0     C29326   3.822   0.880   4.708 -0.5968  0.0225  0.3480
  938MOL0     C29327   3.689   0.919   4.656 -0.3986 -0.7281  0.5372
  938MOL0     C29328   3.593   0.932   4.779 -0.1357 -0.2890  0.1908
  938MOL0     C29329   3.460   0.993   4.745  0.2188 -0.3092  0.5492
  938MOL0     O29330   3.388   0.925   4.639 -0.3059 -0.2162  0.3206
  938MOL0     C29331   3.300   0.828   4.679 -0.3858 -0.0209 -1.1956
  938MOL0     C29332   3.162   0.854   4.649 -0.0872 -0.8111  0.0338
  938MOL0     C29333   3.055   0.759   4.652  0.4755 -0.5340  0.1548
  938MOL0     C29334   2.912   0.799   4.608 -0.2127  0.0997 -0.5825
  938MOL0     C29335   3.079   0.628   4.693 -0.3401  0.3188  0.6619
  938MOL0     C29336   2.977   0.521   4.693 -0.9641 -0.5861 -1.0070
  938MOL0     O29337   2.883   0.510   4.590 -0.3695  0.1096  0.3362
  938MOL0     C29338   2.818   0.384   4.591  0.2243  0.0372  0.5423
  938MOL0     C29339   2.687   0.385   4.621 -0.3540 -0.1442 -0.3463
  938MOL0     C29340   2.619   0.265   4.602 -0.0480  0.0425 -0.0211
  938MOL0     C29341   2.675   0.150   4.550  0.0766 -0.2950  0.4978
  938MOL0     O29342   2.583   0.048   4.520  0.6465  0.1768 -0.3931
  938MOL0     C29343   2.633  -0.074   4.483 -0.1617 -0.1272  0.7455
  938MOL0     C29344   2.523  -0.168   4.460  0.9107 -0.3179  0.0403
  938MOL0     C29345   2.456  -0.139   4.325 -0.2264 -0.4387 -0.4839
  938MOL0     C29346   2.339  -0.240   4.299 -0.8701  0.0927 -0.8928
  938MOL0     C29347   2.257  -0.219   4.176  0.3134  0.3376  0.2740
  938MOL0     C29348   2.152  -0.325   4.168  1.0558 -0.0917 -0.1319
  938MOL0     C29349   2.093  -0.335   4.028 -0.6845 -0.0301 -0.2933
  938MOL0     C29350   1.994  -0.450   4.024 -0.2694 -0.6207 -0.2016
  938MOL0    Cl29351   1.908  -0.434   3.864 -0.0914  0.2966 -0.4934
  938MOL0     C29352   2.809   0.154   4.522  0.7110 -0.6953  0.1210
  938MOL0     C29353   2.884   0.271   4.550  0.9930 -0.0280  0.1379
  938MOL0     O29354   2.975   0.458   4.804  0.8883 -0.9422  1.0902
  938MOL0     C29355   3.215   0.604   4.726 -0.7845  0.5655  0.0329
  938MOL0     C29356   3.322   0.697   4.726 -0.6613 -0.3250  0.2097
  938MOL0     N29357   3.974   0.946   4.527  0.1791  0.3883  1.2563
  938MOL0     N29358   4.054   0.883   4.442 -0.0171  0.2316 -0.8031
  938MOL0     C29359   4.836   0.280   3.898  0.0901  1.5387 -0.0051
  938MOL0     C29360   4.959   0.310   3.831  0.1484 -0.3096 -0.2447
  938MOL0     C29361   5.390   0.303   3.762  0.0384 -0.0183  0.2944
  938MOL0     C29362   5.494   0.207   3.763  0.0679 -0.3499 -0.2129
  938MOL0     C29363   5.617   0.235   3.696 -0.6749 -0.5798 -0.5081
  938MOL0     C29364   5.628   0.339   3.609 -0.4218  0.3971  0.1660
  938MOL0     O29365   5.732   0.368   3.520  0.4169 -0.0568 -0.5723
  938MOL0     C29366   5.857   0.292   3.544  0.2621 -0.0362  0.7743
  938MOL0     C29367   5.864   0.158   3.473  0.6688  0.8757  0.5094
  938MOL0     C29368   5.797   0.147   3.335 -0.0782  0.6002 -0.6731
  938MOL0     C29369   5.847   0.247   3.234  0.7005 -0.3845  0.9665
  938MOL0     C29370   5.969   0.210   3.163  0.7693 -0.0257  0.3365
  938MOL0     C29371   6.080   0.174   3.125 -0.1661 -0.2273  0.4031
  938MOL0     C29372   5.521   0.426   3.593  0.7109  0.1930 -1.1156
  938MOL0     C29373   5.402   0.410   3.665 -0.6346  0.5401  0.2544
  938MOL0     C29374   5.294   0.517   3.643  0.3398  0.2650  1.0266
  938MOL0     H29375   5.129   0.387   4.117 -1.1215  1.8722 -0.5967
  938MOL0     H29376   4.905   0.344   4.217  0.2628 -2.5108  0.5070
  938MOL0     H29377   4.541   0.142   4.097 -4.3064  3.6460  0.9394
  938MOL0     H29378   4.624   0.133   3.939 -0.5471 -0.9693  0.6921
  938MOL0     H29379   4.552   0.406   3.939 -1.4332  0.3559 -0.1354
  938MOL0     H29380   4.452   0.269   3.880  0.7353 -1.2820 -0.0792
  938MOL0     H29381   4.333   0.258   4.090 -1.9528  0.9564 -2.2136
  938MOL0     H29382   4.450   0.377   4.161  1.8020 -0.1613 -0.2960
  938MOL0     H29383   4.377   0.543   3.976  0.0399  0.1575  1.0907
  938MOL0     H29384   4.230   0.448   3.954 -1.7119  0.9531  1.1092
  938MOL0     H29385   4.177   0.634   4.100 -0.5322  0.6597  1.6463
  938MOL0     H29386   4.328   0.605   4.184 -0.3673  1.4424  0.3988
  938MOL0     H29387   4.120   0.397   4.163  2.0979  0.2358 -1.4112
  938MOL0     H29388   4.235   0.412   4.300  0.4778  1.7676  1.6259
  938MOL0     H29389   4.026   0.473   4.377  1.3994 -0.6544 -0.6371
  938MOL0     H29390   3.995   0.582   4.246  0.1389  2.7191  1.9790
  938MOL0     H29391   4.188   0.601   4.489  1.9693  2.0234  0.1606
  938MOL0     H29392   4.221   0.717   4.364 -3.1559  2.7112 -3.9413
  938MOL0     H29393   3.923   0.625   4.590  2.2975 -0.3316  1.3894
  938MOL0     H29394   3.866   0.963   4.764 -2.3803  0.2154  1.5333
  938MOL0     H29395   3.804   0.791   4.770 -1.0670  1.2722  2.0629
  938MOL0     H29396   3.687   1.009   4.594 -4.3216 -1.4291 -0.6706
  938MOL0     H29397   3.650   0.837   4.595  2.2930 -1.0772 -0.8451
  938MOL0     H29398   3.590   0.836   4.831  1.8394 -1.4442 -1.6645
  938MOL0     H29399   3.643   0.997   4.851  1.7193 -1.6435  0.2062
  938MOL0     H29400   3.389   0.995   4.828 -0.7016 -0.9969 -0.1947
  938MOL0     H29401   3.484   1.097   4.720  1.4768  0.3469  4.0085
  938MOL0     H29402   3.145   0.955   4.614  2.3140 -0.1743  0.4686
  938MOL0     H29403   2.833   0.752   4.667 -1.5661  1.5181 -1.1860
  938MOL0     H29404   2.897   0.760   4.507  0.1966  0.8940 -0.9638
  938MOL0     H29405   2.889   0.906   4.609  3.6881  1.0573  0.0880
  938MOL0     H29406   2.642   0.482   4.641  0.3890 -0.1941  1.8522
  938MOL0     H29407   2.513   0.254   4.620 -0.3486  5.0306  3.1752
  938MOL0     H29408   2.689  -0.072   4.389 -0.5616 -3.0549  0.3442
  938MOL0     H29409   2.693  -0.109   4.567 -1.1603 -0.4122  1.3608
  938MOL0     H29410   2.560  -0.271   4.449  0.0190 -0.4610 -2.3037
  938MOL0     H29411   2.444  -0.152   4.534  0.7306  0.1262 -0.2478
  938MOL0     H29412   2.526  -0.140   4.241 -1.6804 -0.3317 -1.7645
  938MOL0     H29413   2.415  -0.037   4.329  4.1026  1.4835  1.0527
  938MOL0     H29414   2.274  -0.242   4.386  0.4025 -1.6136  0.0791
  938MOL0     H29415   2.380  -0.340   4.285 -3.3927 -1.2133  0.4459
  938MOL0     H29416   2.217  -0.119   4.194  2.1858  0.5177  4.6110
  938MOL0     H29417   2.323  -0.224   4.089  0.9947 -0.1508  0.8066
  938MOL0     H29418   2.073  -0.303   4.240  2.5455 -0.3537  1.6601
  938MOL0     H29419   2.201  -0.420   4.191  1.1450 -0.8283 -2.9095
  938MOL0     H29420   2.180  -0.359   3.967  0.6617  1.0016  1.1609
  938MOL0     H29421   2.050  -0.243   3.987 -2.6695 -0.8088 -0.1171
  938MOL0     H29422   1.926  -0.442   4.109  1.6597  0.2487  1.3355
  938MOL0     H29423   2.043  -0.548   4.029  0.2901 -0.4668 -1.9322
  938MOL0     H29424   2.869   0.074   4.481  1.8058 -0.4650  1.2016
  938MOL0     H29425   2.992   0.271   4.548  0.9926  0.1289  0.0961
  938MOL0     H29426   3.248   0.507   4.761  0.4551  0.5413 -1.1271
  938MOL0     H29427   3.421   0.689   4.768  0.9362  3.8339 -2.1485
  938MOL0     H29428   4.756   0.251   3.831  1.4640 -2.0190 -0.3060
  938MOL0     H29429   4.981   0.307   3.725 -0.0105 -1.1091 -0.2586
  938MOL0     H29430   5.490   0.113   3.817  0.5902 -0.2352  0.0293
  938MOL0     H29431   5.699   0.167   3.716 -0.1669  0.1811  0.0640
  938MOL0     H29432   5.934   0.362   3.511 -1.7073  1.4416 -0.9591
  938MOL0     H29433   5.873   0.272   3.650  2.5277 -0.8366  0.3507
  938MOL0     H29434   5.813   0.088   3.540 -0.9860  3.6819  2.4010
  938MOL0     H29435   5.969   0.129   3.468  0.4099  0.0296 -0.1629
  938MOL0     H29436   5.807   0.047   3.292  1.3975  1.2982 -2.0578
  938MOL0     H29437   5.693   0.168   3.360  0.3200  0.0732  1.6214
  938MOL0     H29438   5.864   0.339   3.291  0.0851 -0.4669  1.2928
  938MOL0     H29439   5.768   0.260   3.160  0.7547 -0.4431  0.8984
  938MOL0     H29440   6.177   0.144   3.090 -0.0131 -0.6949  1.2109
  938MOL0     H29441   5.537   0.516   3.535  1.8925 -0.1565 -1.3444
  938MOL0     H29442   5.274   0.574   3.733  1.0065 -0.5094  1.6842
  938MOL0     H29443   5.321   0.589   3.565 -3.4710  0.2081 -0.5643
  938MOL0     H29444   5.202   0.474   3.600 -1.0814  3.4601  0.6066
  939MOL0     O29445   3.435   7.964   2.597 -0.2428  0.8390  0.8205
  939MOL0     C29446   3.360   7.862   2.621 -0.2963  0.3180 -0.1842
  939MOL0     O29447   3.391   7.732   2.585  0.4793  0.0313 -0.0066
  939MOL0     C29448   3.512   7.703   2.527 -0.3890  0.5125 -0.2527
  939MOL0     C29449   3.635   7.701   2.594  0.3879 -0.3947 -0.6487
  939MOL0     C29450   3.759   7.674   2.528  0.6551 -0.5488  0.0606
  939MOL0     C29451   3.747   7.625   2.400 -0.2227  0.5570  1.0429
  939MOL0     O29452   3.860   7.570   2.333  0.0172  0.3544  0.4062
  939MOL0     C29453   3.985   7.590   2.380  0.4960 -0.1801 -0.0235
  939MOL0     C29454   4.024   7.736   2.366 -0.1347 -0.4431  0.0768
  939MOL0     C29455   4.168   7.759   2.361 -0.5900  0.6445 -0.7436
  939MOL0     C29456   4.251   7.691   2.479  0.4591  0.6237  0.0382
  939MOL0     C29457   4.402   7.744   2.488  0.4546  0.3446 -0.1897
  939MOL0     C29458   4.478   7.748   2.355  0.1532 -0.5889 -0.2677
  939MOL0     C29459   4.630   7.761   2.361  0.5135 -0.9445 -0.2380
  939MOL0     C29460   4.690   7.776   2.223  0.3243 -0.0164 -0.1100
  939MOL0     N29461   4.839   7.775   2.221  0.3912  0.2041 -0.6640
  939MOL0     C29462   4.912   7.665   2.222  0.2772  0.1650 -0.6909
  939MOL0     C29463   5.036   7.708   2.205 -0.4969 -0.3179 -0.4109
  939MOL0     C29464   5.158   7.617   2.225 -0.1396 -0.0618 -0.2535
  939MOL0     C29465   5.236   7.652   2.351  0.4262 -0.3477  0.5577
  939MOL0     C29466   5.340   7.550   2.375  0.7599  0.0646  0.5509
  939MOL0     C29467   5.442   7.622   2.464 -0.3751 -0.6751  0.8401
  939MOL0     O29468   5.507   7.727   2.384  0.2977 -0.1401  0.4867
  939MOL0     C29469   5.632   7.768   2.424 -0.1571 -0.7421  0.2188
  939MOL0     C29470   5.698   7.836   2.321 -0.9338 -0.1529 -0.6748
  939MOL0     C29471   5.834   7.881   2.342  0.6345  0.3051 -0.4260
  939MOL0     C29472   5.902   7.944   2.228  0.2499 -0.0978 -0.0694
  939MOL0     C29473   5.900   7.848   2.466 -0.1712 -0.3749 -0.0190
  939MOL0     C29474   6.050   7.877   2.497 -0.2347  0.5678  0.3657
  939MOL0     O29475   6.131   7.942   2.409  0.0302  0.4324 -0.0001
  939MOL0     C29476   6.240   8.002   2.453  0.8246  0.5639  0.6936
  939MOL0     C29477   6.240   8.137   2.469 -0.4940  0.3613 -0.5984
  939MOL0     C29478   6.365   8.199   2.512 -0.5268 -1.0385  0.6813
  939MOL0     C29479   6.483   8.124   2.525 -0.3292 -0.9572 -0.3755
  939MOL0     O29480   6.605   8.195   2.549  0.4399  0.2629  0.4351
  939MOL0     C29481   6.721   8.119   2.576 -0.4237 -0.6781 -0.0633
  939MOL0     C29482   6.791   8.080   2.451  1.2105 -0.1862  0.0231
  939MOL0     C29483   6.936   8.036   2.480 -0.7744  0.0481  1.5072
  939MOL0     C29484   7.013   8.170   2.459  0.3405  0.8872  0.0751
  939MOL0     C29485   7.165   8.148   2.482 -0.9822  0.0879  0.1129
  939MOL0     C29486   7.232   8.071   2.370 -0.1421  0.3932 -0.2999
  939MOL0     C29487   7.382   8.087   2.375  0.6440  0.2959 -0.9401
  939MOL0     C29488   7.450   8.018   2.257  0.7210  0.1547 -0.8199
  939MOL0    Cl29489   7.369   8.050   2.105 -0.4976  0.1526 -0.6078
  939MOL0     C29490   6.484   7.985   2.503 -0.6981  0.7528  0.1177
  939MOL0     C29491   6.361   7.924   2.465  0.2879 -0.2745 -0.3468
  939MOL0     O29492   6.093   7.825   2.599 -0.2916 -0.0852 -0.2320
  939MOL0     C29493   5.823   7.778   2.564  0.4272 -0.0805  0.4378
  939MOL0     C29494   5.694   7.737   2.544  0.4357 -0.2485  0.7124
  939MOL0     N29495   5.038   7.851   2.208  0.2643  1.3466 -0.0349
  939MOL0     N29496   4.920   7.885   2.220 -0.6395 -0.0294 -0.9945
  939MOL0     C29497   3.624   7.625   2.337  0.8468 -0.3522  0.7916
  939MOL0     C29498   3.510   7.673   2.391 -0.1263  0.6750 -0.9769
  939MOL0     C29499   3.222   7.874   2.664 -0.1791 -0.2305 -0.5925
  939MOL0     C29500   3.139   7.759   2.657 -0.1963  1.0296 -0.4447
  939MOL0     C29501   3.011   7.764   2.715 -1.0382  0.2712 -0.5608
  939MOL0     C29502   2.955   7.886   2.770  0.0204  0.1483 -0.3937
  939MOL0     O29503   2.826   7.899   2.824  0.9744  0.8126  0.2184
  939MOL0     C29504   2.722   7.791   2.813  1.1730  1.1432 -1.6814
  939MOL0     C29505   2.679   7.770   2.663  0.5508 -0.8171  1.1472
  939MOL0     C29506   2.588   7.644   2.644  0.1319 -0.3101  0.4393
  939MOL0     C29507   2.549   7.621   2.497 -0.6933  0.0077 -0.0635
  939MOL0     C29508   2.490   7.491   2.488  1.1070  0.2180 -0.2034
  939MOL0     C29509   2.430   7.383   2.481 -0.1067 -0.3042  0.2494
  939MOL0     C29510   3.042   7.993   2.776  0.7751 -0.0520  0.0376
  939MOL0     C29511   3.174   7.990   2.729 -0.9609 -0.7512  0.3267
  939MOL0     C29512   3.254   8.125   2.738 -0.0737  0.3272  0.7542
  939MOL0     H29513   3.632   7.720   2.701 -4.0060 -2.2394 -0.2293
  939MOL0     H29514   3.849   7.663   2.589  2.9273  1.6367 -2.6233
  939MOL0     H29515   4.063   7.533   2.329  0.7883  0.3346 -0.1567
  939MOL0     H29516   3.997   7.558   2.485 -1.3557  2.5252  1.1055
  939MOL0     H29517   3.967   7.771   2.280 -0.9056  0.6992  1.0316
  939MOL0     H29518   3.985   7.789   2.454  1.4526 -0.9094  1.1038
  939MOL0     H29519   4.193   7.727   2.259 -1.8260 -0.8460 -0.6023
  939MOL0     H29520   4.197   7.864   2.371 -1.0632  0.6108  1.3636
  939MOL0     H29521   4.208   7.715   2.577 -2.1841 -1.5157 -0.4814
  939MOL0     H29522   4.254   7.582   2.470  0.3257  0.7657 -2.2527
  939MOL0     H29523   4.461   7.674   2.549 -1.4964 -1.9876 -0.8052
  939MOL0     H29524   4.395   7.834   2.550  1.6685  0.6981 -0.5510
  939MOL0     H29525   4.469   7.654   2.299  0.9052 -2.0612  1.9484
  939MOL0     H29526   4.429   7.833   2.307  0.1710  1.7313  3.4469
  939MOL0     H29527   4.660   7.669   2.411  2.1127 -1.3079 -1.7325
  939MOL0     H29528   4.660   7.847   2.422  0.6620  0.3753 -2.0875
  939MOL0     H29529   4.657   7.690   2.164 -2.9802  0.9124  0.1766
  939MOL0     H29530   4.648   7.871   2.190 -0.4388 -0.5086 -0.5893
  939MOL0     H29531   4.884   7.560   2.227  4.3764 -1.0571  0.6466
  939MOL0     H29532   5.226   7.631   2.141 -0.0686 -3.5492 -0.9122
  939MOL0     H29533   5.122   7.514   2.234 -0.6008 -0.0383 -1.6179
  939MOL0     H29534   5.276   7.750   2.322 -0.3329 -0.7741 -2.2081
  939MOL0     H29535   5.179   7.668   2.442  2.3476 -0.6150  1.8726
  939MOL0     H29536   5.288   7.470   2.427 -0.5068 -0.7934 -1.9002
  939MOL0     H29537   5.391   7.515   2.284 -1.6164  0.1661 -0.8875
  939MOL0     H29538   5.395   7.654   2.557 -3.0292  1.6934 -1.1342
  939MOL0     H29539   5.516   7.544   2.481 -1.0929 -0.9993  2.6478
  939MOL0     H29540   5.634   7.873   2.242 -4.1663 -1.3580  1.1994
  939MOL0     H29541   5.980   7.877   2.192  0.3726  0.2597 -0.4727
  939MOL0     H29542   5.951   8.034   2.265  0.5748  0.7170 -2.3461
  939MOL0     H29543   5.838   7.963   2.141 -0.4820 -1.5167  0.1146
  939MOL0     H29544   6.145   8.190   2.459 -0.6700  1.6378  4.8526
  939MOL0     H29545   6.382   8.301   2.545  1.4613 -0.7532 -1.0028
  939MOL0     H29546   6.784   8.181   2.641 -0.3572  0.2857 -1.0202
  939MOL0     H29547   6.697   8.027   2.630 -1.6899  0.1467  0.8391
  939MOL0     H29548   6.739   7.993   2.410  0.4149  0.7182 -0.9371
  939MOL0     H29549   6.780   8.163   2.380  1.3373 -1.3918 -1.4739
  939MOL0     H29550   6.967   7.964   2.405  1.8374  2.3937  0.1546
  939MOL0     H29551   6.959   7.988   2.576  2.0335  0.2905  1.0550
  939MOL0     H29552   6.969   8.242   2.529  0.0276  0.4496  0.3363
  939MOL0     H29553   6.992   8.201   2.357  1.5081 -1.9024 -1.1127
  939MOL0     H29554   7.206   8.249   2.492  0.7444 -0.5286 -0.2857
  939MOL0     H29555   7.187   8.086   2.570 -1.9576 -1.8323 -0.9210
  939MOL0     H29556   7.196   8.117   2.277  0.5279  0.8554 -0.3364
  939MOL0     H29557   7.213   7.964   2.366 -1.3019  0.6050 -1.7973
  939MOL0     H29558   7.421   8.038   2.465  0.3850  0.2976 -0.8266
  939MOL0     H29559   7.399   8.194   2.361 -0.8671  0.4409 -1.8536
  939MOL0     H29560   7.439   7.911   2.272  0.6101 -0.2079 -3.0817
  939MOL0     H29561   7.556   8.045   2.246  0.6889 -0.1178 -1.9860
  939MOL0     H29562   6.568   7.917   2.504 -1.4031 -0.1535  1.8282
  939MOL0     H29563   6.371   7.816   2.457  2.0329 -0.1463 -0.2710
  939MOL0     H29564   5.867   7.733   2.651  0.6576 -2.5832 -0.8918
  939MOL0     H29565   5.666   7.655   2.609  0.3569 -1.4655 -0.7962
  939MOL0     H29566   3.629   7.593   2.233  2.4720  0.2779  0.6387
  939MOL0     H29567   3.417   7.668   2.334  0.0879 -1.5687 -1.2170
  939MOL0     H29568   3.160   7.662   2.614 -0.8002 -0.1128  1.6674
  939MOL0     H29569   2.956   7.671   2.699 -1.3586  0.8626 -3.5477
  939MOL0     H29570   2.768   7.700   2.850  1.5039  0.7746 -2.9322
  939MOL0     H29571   2.636   7.815   2.876  2.5597 -0.1921  0.8548
  939MOL0     H29572   2.768   7.764   2.599 -0.3198  0.3060 -0.2159
  939MOL0     H29573   2.625   7.861   2.638  3.1852  0.4634 -0.2898
  939MOL0     H29574   2.655   7.561   2.670 -0.7990 -1.9214 -1.9625
  939MOL0     H29575   2.500   7.642   2.709 -0.8069  0.1874 -0.7531
  939MOL0     H29576   2.632   7.631   2.426  0.0719 -0.7473  0.6988
  939MOL0     H29577   2.476   7.694   2.459 -0.8864 -1.2407 -2.2742
  939MOL0     H29578   2.391   7.285   2.459 -0.2439  0.3625 -2.9775
  939MOL0     H29579   3.004   8.081   2.827  0.4452 -0.3959  0.3938
  939MOL0     H29580   3.348   8.110   2.791 -0.4977  1.7756  1.9799
  939MOL0     H29581   3.268   8.155   2.634 -3.1056  2.2781  0.8032
  939MOL0     H29582   3.207   8.207   2.793  0.2199  2.1902 -1.6105
  940MOL0     O29583   0.186   9.975   2.911  0.4765  0.2615 -0.1149
  940MOL0     C29584   0.088  10.041   2.959 -0.8001  0.2641  0.0899
  940MOL0     O29585   0.105  10.171   3.003 -0.1856 -0.3242  0.3709
  940MOL0     C29586   0.227  10.238   3.022  0.3390 -0.1392  0.0615
  940MOL0     C29587   0.344  10.202   2.945  1.0336 -0.6160 -0.6227
  940MOL0     C29588   0.461  10.273   2.957 -0.0895  0.4518  0.2922
  940MOL0     C29589   0.473  10.376   3.056 -0.9765  0.3922 -0.2814
  940MOL0     O29590   0.586  10.450   3.074 -0.1852 -0.0594  0.2583
  940MOL0     C29591   0.689  10.441   2.969  0.2511 -0.0149  0.4108
  940MOL0     C29592   0.811  10.524   2.980  1.1498 -0.5975 -0.3079
  940MOL0     C29593   0.898  10.493   2.859  1.0421  0.2291  0.3759
  940MOL0     C29594   1.042  10.565   2.873 -0.0563 -0.4214  0.3743
  940MOL0     C29595   1.149  10.478   2.803 -0.3240 -0.2073 -0.2445
  940MOL0     C29596   1.198  10.540   2.673 -0.4270 -0.0980 -0.0026
  940MOL0     C29597   1.336  10.511   2.617  0.3783 -0.9157  0.3946
  940MOL0     C29598   1.361  10.376   2.547 -0.0051  0.3169 -0.8332
  940MOL0     N29599   1.501  10.394   2.507 -0.8407 -0.3456  0.3870
  940MOL0     C29600   1.545  10.423   2.378  0.0064 -0.5719 -0.1751
  940MOL0     C29601   1.681  10.420   2.387  0.0198 -0.8702 -0.0470
  940MOL0     C29602   1.780  10.467   2.274  0.1992  0.1594  0.0761
  940MOL0     C29603   1.815  10.615   2.297 -0.0851  0.3573 -0.7978
  940MOL0     C29604   1.916  10.656   2.182  1.4517  0.2316 -0.4896
  940MOL0     C29605   2.011  10.767   2.215 -0.3137  0.0974  0.7407
  940MOL0     O29606   1.956  10.895   2.185 -0.1974 -0.7158 -0.0007
  940MOL0     C29607   1.995  10.947   2.069 -0.6001 -0.4357  1.1017
  940MOL0     C29608   1.903  10.983   1.972  0.2975 -0.1670  0.2342
  940MOL0     C29609   1.933  11.031   1.843 -0.9245 -0.0712 -0.0248
  940MOL0     C29610   1.825  11.086   1.753  0.2706 -1.0751 -0.3626
  940MOL0     C29611   2.069  11.036   1.809  0.3517  1.1146  0.1766
  940MOL0     C29612   2.118  11.039   1.677  0.8588  1.0630 -0.0604
  940MOL0     O29613   2.050  10.960   1.595  0.0512 -0.3370 -0.4585
  940MOL0     C29614   2.067  10.968   1.465 -0.3339 -0.3472 -0.5615
  940MOL0     C29615   2.055  11.085   1.396  0.1885  0.0228 -0.4005
  940MOL0     C29616   2.069  11.088   1.255  0.8624 -0.0438 -0.3150
  940MOL0     C29617   2.083  10.975   1.182 -0.0493 -0.1842  0.5632
  940MOL0     O29618   2.094  10.970   1.048 -0.3468  0.5751  0.7825
  940MOL0     C29619   2.050  11.071   0.959 -0.2898  0.5701  0.2356
  940MOL0     C29620   1.899  11.082   0.963  0.3429  0.1643 -0.1573
  940MOL0     C29621   1.838  11.182   0.867  1.2393  0.2312 -0.1465
  940MOL0     C29622   1.689  11.178   0.846 -0.0313 -0.2853 -0.5769
  940MOL0     C29623   1.651  11.040   0.803 -0.0816  0.2712  0.1001
  940MOL0     C29624   1.512  11.027   0.736  0.5388 -0.4194 -0.2676
  940MOL0     C29625   1.485  10.873   0.738  0.7161  0.3336 -0.2690
  940MOL0     C29626   1.334  10.861   0.705  0.5650  0.3245 -0.2095
  940MOL0    Cl29627   1.302  10.685   0.684  0.2973  0.3199  0.2191
  940MOL0     C29628   2.093  10.859   1.247 -0.3863  0.9237 -0.5363
  940MOL0     C29629   2.088  10.849   1.388  1.0845 -0.4863  0.5158
  940MOL0     O29630   2.198  11.120   1.640 -0.4237 -0.4204 -0.2715
  940MOL0     C29631   2.169  11.020   1.905  0.2938  0.0120 -0.2125
  940MOL0     C29632   2.132  10.966   2.033  0.5180  1.2789  0.8145
  940MOL0     N29633   1.715  10.377   2.518 -1.0809 -0.9969  0.2067
  940MOL0     N29634   1.607  10.370   2.589 -0.8195 -0.4210  0.2175
  940MOL0     C29635   0.365  10.405   3.137  0.1266 -0.5157 -0.1165
  940MOL0     C29636   0.244  10.346   3.110 -0.2268 -0.1858 -0.4660
  940MOL0     C29637  -0.038   9.959   2.963 -0.4358 -0.0387  0.5847
  940MOL0     C29638  -0.030   9.836   2.899  0.7330 -0.4624  0.5643
  940MOL0     C29639  -0.144   9.764   2.886  0.3638 -0.3186 -0.2645
  940MOL0     C29640  -0.265   9.814   2.943  0.9211  0.1027  0.1131
  940MOL0     O29641  -0.381   9.749   2.933  0.0019 -0.8840  0.2255
  940MOL0     C29642  -0.407   9.679   3.052 -0.5793 -0.5221 -0.3233
  940MOL0     C29643  -0.543   9.611   3.046  0.5441  1.0495 -0.0750
  940MOL0     C29644  -0.656   9.670   2.951  0.2555  0.2707 -0.7337
  940MOL0     C29645  -0.779   9.584   2.945 -0.2104  0.8702 -0.3897
  940MOL0     C29646  -0.753   9.459   2.873 -0.8188 -0.2730  1.3140
  940MOL0     C29647  -0.713   9.356   2.820  0.4294 -0.2365 -0.1216
  940MOL0     C29648  -0.271   9.939   3.011  0.5514 -0.1103  0.2242
  940MOL0     C29649  -0.156  10.013   3.028 -0.3837 -0.2477  0.1633
  940MOL0     C29650  -0.176  10.151   3.086 -0.1048 -0.3689 -0.0887
  940MOL0     H29651   0.349  10.122   2.872  3.5210 -0.1587 -1.0514
  940MOL0     H29652   0.546  10.248   2.895  0.5827  0.6739  1.0979
  940MOL0     H29653   0.636  10.462   2.876 -2.9870  2.4200  2.5747
  940MOL0     H29654   0.716  10.336   2.986 -0.4596 -0.9189 -3.2427
  940MOL0     H29655   0.775  10.627   2.985 -1.9979 -1.5644 -0.8032
  940MOL0     H29656   0.849  10.497   3.079  1.5783  1.0455 -0.0009
  940MOL0     H29657   0.909  10.385   2.844 -0.6846  0.0531  0.1787
  940MOL0     H29658   0.852  10.529   2.766 -1.3030 -0.6075  1.1428
  940MOL0     H29659   1.039  10.667   2.834  1.5854  0.4300  2.2703
  940MOL0     H29660   1.067  10.577   2.979  0.9970  0.0577  0.0828
  940MOL0     H29661   1.126  10.374   2.779 -2.2373  0.0205  0.4346
  940MOL0     H29662   1.232  10.470   2.873 -2.5999 -1.8730  2.4796
  940MOL0     H29663   1.124  10.519   2.595 -0.3458 -2.5313  0.5126
  940MOL0     H29664   1.201  10.648   2.690 -0.0644  0.1673 -1.5338
  940MOL0     H29665   1.408  10.519   2.699  1.8245  1.8707 -1.0049
  940MOL0     H29666   1.359  10.589   2.544  0.8837  0.1804  1.6865
  940MOL0     H29667   1.348  10.298   2.623 -2.4874  0.5572 -0.9167
  940MOL0     H29668   1.293  10.354   2.464  1.4758 -0.1978 -1.9541
  940MOL0     H29669   1.486  10.449   2.291 -1.3398 -1.8480  0.3159
  940MOL0     H29670   1.731  10.461   2.177 -0.9749  0.0951  0.6446
  940MOL0     H29671   1.870  10.404   2.272  0.9798  1.2826 -1.8212
  940MOL0     H29672   1.729  10.682   2.298  0.4594  1.0663  0.7234
  940MOL0     H29673   1.859  10.624   2.396 -1.8426 -2.1454  0.3231
  940MOL0     H29674   1.975  10.567   2.157 -2.2623 -2.8583  0.7667
  940MOL0     H29675   1.852  10.680   2.097 -1.0835  0.3036  1.3154
  940MOL0     H29676   2.056  10.765   2.314 -1.4230 -1.7168  1.2512
  940MOL0     H29677   2.093  10.740   2.147 -0.1382  1.7451  0.2465
  940MOL0     H29678   1.802  10.973   2.008  0.2482  0.8010  0.3629
  940MOL0     H29679   1.858  11.132   1.659 -2.0679 -0.6392 -1.0396
  940MOL0     H29680   1.799  11.172   1.815 -0.5762 -0.5802 -1.3752
  940MOL0     H29681   1.740  11.020   1.733 -1.1820  0.5879  0.1556
  940MOL0     H29682   2.045  11.180   1.446  2.5854 -1.7728  4.1267
  940MOL0     H29683   2.050  11.187   1.216  1.5388  0.3080  0.2168
  940MOL0     H29684   2.079  11.174   0.979 -1.4351  1.1741 -1.0207
  940MOL0     H29685   2.079  11.043   0.857  0.9916  2.6837 -0.0268
  940MOL0     H29686   1.873  10.977   0.945  3.5158 -0.9201  0.9199
  940MOL0     H29687   1.870  11.106   1.066 -2.4789 -1.9174 -0.3562
  940MOL0     H29688   1.882  11.159   0.769  0.9783 -0.7326 -0.0443
  940MOL0     H29689   1.877  11.278   0.899  0.8714  1.0670 -2.0441
  940MOL0     H29690   1.660  11.256   0.775  1.5925 -1.2113 -2.3518
  940MOL0     H29691   1.639  11.196   0.942  0.6758 -1.1703 -0.0247
  940MOL0     H29692   1.725  11.001   0.733 -1.8615 -0.2953 -1.5621
  940MOL0     H29693   1.651  10.988   0.899 -1.1296  2.4521  1.3780
  940MOL0     H29694   1.495  11.068   0.636 -1.7403  1.0560  0.6433
  940MOL0     H29695   1.441  11.085   0.796  1.4934  0.5687 -0.0645
  940MOL0     H29696   1.495  10.833   0.839 -0.4130  1.8803  0.5164
  940MOL0     H29697   1.551  10.827   0.665  1.6255 -0.2750  0.9001
  940MOL0     H29698   1.308  10.924   0.619  2.4405 -0.7215 -1.6328
  940MOL0     H29699   1.273  10.893   0.790  1.2706  1.9279 -0.2508
  940MOL0     H29700   2.104  10.767   1.190 -1.1206  0.5248 -0.0520
  940MOL0     H29701   2.101  10.751   1.431  3.7043 -0.7537 -0.7309
  940MOL0     H29702   2.269  11.042   1.868 -0.1444 -1.4290 -2.4106
  940MOL0     H29703   2.215  10.943   2.099  0.6799  0.2412  0.2856
  940MOL0     H29704   0.367  10.488   3.207 -1.5398 -0.0474 -0.5875
  940MOL0     H29705   0.166  10.371   3.181  0.1351  0.5468 -0.3166
  940MOL0     H29706   0.059   9.793   2.855 -0.1941 -0.3739 -1.5098
  940MOL0     H29707  -0.131   9.663   2.849  1.5117 -0.1131 -0.4416
  940MOL0     H29708  -0.322   9.612   3.064  1.6707  2.1704 -0.0866
  940MOL0     H29709  -0.412   9.745   3.139 -3.8420  1.0043 -1.4967
  940MOL0     H29710  -0.584   9.606   3.147  0.7774  0.0100 -0.0253
  940MOL0     H29711  -0.522   9.506   3.026 -0.0351  0.9397 -0.1302
  940MOL0     H29712  -0.684   9.772   2.982 -2.4300 -0.9337  1.2482
  940MOL0     H29713  -0.610   9.687   2.854  1.7844  0.1299 -0.0550
  940MOL0     H29714  -0.856   9.629   2.881 -2.3493 -3.1190 -0.9190
  940MOL0     H29715  -0.819   9.561   3.044 -1.5303 -1.1118 -1.3330
  940MOL0     H29716  -0.672   9.277   2.762  1.2672  1.1600 -1.5170
  940MOL0     H29717  -0.367   9.969   3.050  1.6076  2.0605  1.3287
  940MOL0     H29718  -0.276  10.160   3.129 -0.9339 -2.2022 -1.5044
  940MOL0     H29719  -0.092  10.160   3.156  0.9518  0.0745 -1.3830
  940MOL0     H29720  -0.154  10.229   3.012  1.8535 -0.1693  0.6303
  941MOL0     O29721   4.504   6.564   2.220  0.4673 -0.3144 -0.1009
  941MOL0     C29722   4.501   6.493   2.317  1.0269  0.2553 -0.5881
  941MOL0     O29723   4.609   6.448   2.389 -0.2959  1.3583 -0.4058
  941MOL0     C29724   4.709   6.535   2.428 -0.4832 -0.4869  0.1700
  941MOL0     C29725   4.703   6.676   2.428  0.2674  0.4985 -0.6844
  941MOL0     C29726   4.817   6.755   2.438 -0.0131  0.2790  0.3601
  941MOL0     C29727   4.943   6.688   2.440  0.5025 -0.1022 -0.2715
  941MOL0     O29728   5.059   6.772   2.449 -0.0782  0.3178  0.1636
  941MOL0     C29729   5.188   6.707   2.426  0.4335 -0.5410  0.3218
  941MOL0     C29730   5.309   6.812   2.410  0.2031 -0.1830 -0.3057
  941MOL0     C29731   5.361   6.880   2.539  0.4418 -0.4673 -0.0187
  941MOL0     C29732   5.437   6.794   2.640  0.2516  0.3708 -0.0531
  941MOL0     C29733   5.481   6.871   2.774  0.2823 -0.5786  0.8370
  941MOL0     C29734   5.565   6.767   2.856 -0.5277  0.2537  0.8254
  941MOL0     C29735   5.620   6.853   2.971 -0.4012 -0.5303 -0.1195
  941MOL0     C29736   5.760   6.804   3.024 -0.5865  0.8102  1.2899
  941MOL0     N29737   5.862   6.797   2.916  0.0565 -0.7563 -0.1964
  941MOL0     C29738   5.939   6.902   2.880 -0.1061 -1.9164  1.1747
  941MOL0     C29739   6.025   6.854   2.784 -0.3340  0.2858 -1.6455
  941MOL0     C29740   6.127   6.922   2.700 -0.2417 -0.3506  0.0914
  941MOL0     C29741   6.267   6.879   2.748  0.0403 -0.4182  0.5243
  941MOL0     C29742   6.374   6.941   2.657 -0.2273 -1.4559 -0.5378
  941MOL0     C29743   6.513   6.887   2.700  0.1421  0.3439  0.1685
  941MOL0     O29744   6.627   6.969   2.646  0.4955  0.6277  0.1280
  941MOL0     C29745   6.764   6.930   2.664  0.5245 -0.7179 -0.4418
  941MOL0     C29746   6.809   6.812   2.719 -0.1806 -0.6959 -0.2466
  941MOL0     C29747   6.948   6.787   2.741  0.4449 -0.4042 -0.5155
  941MOL0     C29748   6.993   6.652   2.781 -0.2029  0.4052 -0.6046
  941MOL0     C29749   7.042   6.889   2.710 -0.4531  0.0896 -0.5922
  941MOL0     C29750   7.186   6.871   2.746 -0.3221 -1.1074 -0.1957
  941MOL0     O29751   7.265   6.954   2.675  0.1227 -0.1894 -0.1053
  941MOL0     C29752   7.394   6.921   2.649 -0.2387 -0.3484 -0.4481
  941MOL0     C29753   7.496   6.945   2.745 -0.2299  0.0096 -0.0160
  941MOL0     C29754   7.627   6.915   2.722 -0.7730  0.4950  0.8485
  941MOL0     C29755   7.673   6.870   2.592 -0.0234  0.3960 -0.4712
  941MOL0     O29756   7.805   6.857   2.552 -0.5585 -0.0557 -0.6744
  941MOL0     C29757   7.898   6.840   2.662  0.4538 -0.1125  0.7052
  941MOL0     C29758   8.036   6.794   2.602  0.5913  0.2688  0.2363
  941MOL0     C29759   8.147   6.781   2.708  0.2226 -0.1312 -0.8490
  941MOL0     C29760   8.272   6.869   2.667  0.2158 -0.0524  0.0465
  941MOL0     C29761   8.391   6.860   2.761  0.3157 -0.5328 -0.5606
  941MOL0     C29762   8.496   6.971   2.718  0.5185  0.0511  0.0235
  941MOL0     C29763   8.619   6.977   2.814 -0.4238 -0.5088  0.1745
  941MOL0     C29764   8.706   7.107   2.802 -0.3716 -0.0311 -0.3532
  941MOL0    Cl29765   8.841   7.091   2.926  0.0774  0.5421 -0.0861
  941MOL0     C29766   7.569   6.863   2.497 -0.0149 -0.5058  0.4832
  941MOL0     C29767   7.437   6.882   2.525  0.4480 -0.6893 -0.2603
  941MOL0     O29768   7.220   6.812   2.844  0.0344 -0.1548  0.1072
  941MOL0     C29769   6.996   7.003   2.647  1.0840 -0.5579  0.4961
  941MOL0     C29770   6.856   7.023   2.626 -0.7778 -0.5466 -0.1205
  941MOL0     N29771   5.990   6.724   2.760 -0.5568 -0.1482 -0.7891
  941MOL0     N29772   5.891   6.693   2.838 -0.2946  0.3396  0.2901
  941MOL0     C29773   4.944   6.542   2.451 -0.0251  0.2731 -0.8874
  941MOL0     C29774   4.827   6.467   2.456 -0.4341  0.5019 -0.6526
  941MOL0     C29775   4.369   6.425   2.349 -0.1404 -0.2464  0.5912
  941MOL0     C29776   4.373   6.313   2.434 -0.5088 -1.3668  0.0925
  941MOL0     C29777   4.252   6.270   2.493  1.2067  0.7715  0.7516
  941MOL0     C29778   4.128   6.315   2.452  0.7008  0.2925 -0.7339
  941MOL0     O29779   4.007   6.267   2.496 -0.1009 -0.2678  1.4148
  941MOL0     C29780   4.016   6.192   2.615  0.3399  1.1095  0.0797
  941MOL0     C29781   3.875   6.191   2.688  0.1980  0.3283 -0.3724
  941MOL0     C29782   3.818   6.329   2.721 -0.2791 -0.5490 -0.2056
  941MOL0     C29783   3.697   6.373   2.634  0.4142  0.0810  0.6577
  941MOL0     C29784   3.591   6.275   2.637 -0.9897 -0.1487 -0.6186
  941MOL0     C29785   3.505   6.191   2.645  0.1432 -0.4128  0.0221
  941MOL0     C29786   4.136   6.415   2.356 -1.0572 -0.8510  0.5987
  941MOL0     C29787   4.255   6.474   2.306  0.4878  0.1693  0.1640
  941MOL0     C29788   4.231   6.584   2.202  0.8833 -0.3931 -0.6892
  941MOL0     H29789   4.611   6.728   2.402  0.8550  0.9869 -1.8854
  941MOL0     H29790   4.806   6.862   2.421  1.8731  0.3859 -0.4168
  941MOL0     H29791   5.180   6.653   2.332 -0.6160 -0.0504  0.1116
  941MOL0     H29792   5.209   6.632   2.502  2.5879 -1.0419 -0.7006
  941MOL0     H29793   5.390   6.758   2.360 -0.2078  1.6247 -3.1341
  941MOL0     H29794   5.284   6.877   2.326 -0.0131 -1.2917 -1.1161
  941MOL0     H29795   5.417   6.971   2.517 -0.1024  0.1840  1.1449
  941MOL0     H29796   5.273   6.927   2.585  0.8355  0.1341  0.1308
  941MOL0     H29797   5.380   6.707   2.672  1.3987 -0.2022  0.4602
  941MOL0     H29798   5.523   6.737   2.604 -2.4116 -2.6438 -2.2488
  941MOL0     H29799   5.391   6.904   2.826 -2.3180  0.5215 -3.7882
  941MOL0     H29800   5.539   6.959   2.744  0.1286 -1.1493 -1.3709
  941MOL0     H29801   5.496   6.685   2.877  0.1243 -1.6330 -3.4131
  941MOL0     H29802   5.642   6.730   2.788  0.1647 -1.0343  2.2308
  941MOL0     H29803   5.543   6.836   3.048  1.1158  1.3893  1.9655
  941MOL0     H29804   5.624   6.960   2.947 -2.7229 -0.6202 -1.1762
  941MOL0     H29805   5.794   6.873   3.101  1.4284  0.4099  0.8176
  941MOL0     H29806   5.744   6.703   3.062  0.1562 -0.2696 -1.0469
  941MOL0     H29807   5.946   7.003   2.918  3.1493 -1.6954  0.2723
  941MOL0     H29808   6.122   7.029   2.720  0.2184  0.0784 -1.8424
  941MOL0     H29809   6.107   6.913   2.593 -3.2485  2.3780  0.2557
  941MOL0     H29810   6.281   6.921   2.848  1.3476  1.5701 -0.4094
  941MOL0     H29811   6.280   6.771   2.750  3.1482 -0.2522 -1.6760
  941MOL0     H29812   6.380   6.915   2.550  1.9432  0.3869 -0.9514
  941MOL0     H29813   6.367   7.050   2.659 -2.6674 -1.5749  0.5709
  941MOL0     H29814   6.523   6.881   2.809  2.0342 -1.7991 -0.0460
  941MOL0     H29815   6.520   6.784   2.665  1.2952 -0.2960  2.1118
  941MOL0     H29816   6.743   6.728   2.741  1.5092 -1.7842  0.9648
  941MOL0     H29817   6.917   6.575   2.762  0.3334 -0.4512  0.5725
  941MOL0     H29818   7.010   6.652   2.889 -4.0336  2.4988  0.2115
  941MOL0     H29819   7.076   6.631   2.715  0.3653 -2.1746  0.8072
  941MOL0     H29820   7.470   6.976   2.845  3.0554  1.3894  0.5423
  941MOL0     H29821   7.710   6.916   2.792  0.7382 -0.0475 -0.8751
  941MOL0     H29822   7.913   6.934   2.715  1.4403 -0.2631  0.7144
  941MOL0     H29823   7.861   6.764   2.732 -1.2883  0.0938  0.0678
  941MOL0     H29824   8.009   6.702   2.549 -1.2613  0.2275  1.1873
  941MOL0     H29825   8.072   6.870   2.532 -0.0879 -1.1584 -1.7648
  941MOL0     H29826   8.177   6.676   2.710 -0.4764 -0.4114  2.6770
  941MOL0     H29827   8.120   6.808   2.811  3.8002  0.6130  0.0266
  941MOL0     H29828   8.243   6.973   2.648 -2.2647 -0.7993 -0.5922
  941MOL0     H29829   8.309   6.833   2.571  1.5611 -0.4549  0.6942
  941MOL0     H29830   8.353   6.883   2.861  1.3767 -0.5522 -0.1356
  941MOL0     H29831   8.433   6.759   2.764  0.8755 -0.2965  1.3645
  941MOL0     H29832   8.442   7.064   2.737 -3.1094 -2.0321  0.9109
  941MOL0     H29833   8.527   6.946   2.616  1.0380  1.0776 -0.0758
  941MOL0     H29834   8.691   6.897   2.794 -1.7869 -2.1608  1.6009
  941MOL0     H29835   8.593   6.974   2.920  2.2348  4.4543  1.2839
  941MOL0     H29836   8.653   7.200   2.820  3.9188  2.9490 -1.6083
  941MOL0     H29837   8.748   7.119   2.701 -1.2501  0.5141 -0.6669
  941MOL0     H29838   7.595   6.833   2.396 -1.1484  0.0841 -0.0083
  941MOL0     H29839   7.364   6.855   2.450  0.2532 -2.0172  0.3774
  941MOL0     H29840   7.070   7.071   2.607  2.2658 -0.8628  2.1016
  941MOL0     H29841   6.842   7.112   2.565  0.5908  1.5188  2.3904
  941MOL0     H29842   5.040   6.493   2.455  0.6765  1.6922  1.3412
  941MOL0     H29843   4.829   6.358   2.452 -1.8775  0.3073  1.8576
  941MOL0     H29844   4.471   6.272   2.454  1.6923  2.7058 -1.2350
  941MOL0     H29845   4.260   6.181   2.554  1.8344 -1.0198 -1.8111
  941MOL0     H29846   4.045   6.091   2.585 -1.7393  0.4862  0.0141
  941MOL0     H29847   4.094   6.228   2.683  0.6420  2.2680 -0.8578
  941MOL0     H29848   3.892   6.140   2.783  0.1500  3.4045  1.4355
  941MOL0     H29849   3.805   6.133   2.627 -1.7944 -0.2295  2.2341
  941MOL0     H29850   3.790   6.321   2.827  0.5277 -1.1378 -0.0178
  941MOL0     H29851   3.895   6.406   2.726 -0.2609 -0.5945  0.2638
  941MOL0     H29852   3.736   6.396   2.534  2.6820 -1.2692  1.1648
  941MOL0     H29853   3.658   6.472   2.660 -0.3069  0.9142 -3.0071
  941MOL0     H29854   3.426   6.120   2.630 -2.5868  2.5645 -0.8820
  941MOL0     H29855   4.038   6.449   2.325  0.7167  3.7031 -0.9047
  941MOL0     H29856   4.129   6.625   2.199  1.5145  1.2194 -1.1535
  941MOL0     H29857   4.296   6.668   2.227  2.3859 -1.6181 -0.3922
  941MOL0     H29858   4.260   6.550   2.102 -0.6493  1.9589 -2.0438
  942MOL0     O29859  11.368   4.691   7.702 -0.1383  0.8599  0.0411
  942MOL0     C29860  11.460   4.744   7.751 -0.6726  0.1280 -0.2328
  942MOL0     O29861  11.452   4.801   7.868 -0.6234 -0.9106  0.3492
  942MOL0     C29862  11.333   4.821   7.926  0.0984 -0.7668 -0.1615
  942MOL0     C29863  11.252   4.938   7.896  0.0753  0.4969 -0.2586
  942MOL0     C29864  11.131   4.963   7.958  0.6844  0.4801 -0.0785
  942MOL0     C29865  11.076   4.873   8.053  0.5526  0.3582 -0.1675
  942MOL0     O29866  10.953   4.885   8.116  0.2096 -0.5154 -0.4515
  942MOL0     C29867  10.864   4.996   8.089  0.4332  0.4896 -0.1453
  942MOL0     C29868  10.732   4.997   8.164  0.6677  0.6885 -0.7018
  942MOL0     C29869  10.658   5.129   8.155  0.3127 -0.2560 -0.4656
  942MOL0     C29870  10.635   5.184   8.012 -0.6565 -0.2888  0.6555
  942MOL0     C29871  10.556   5.314   8.016 -0.4323 -0.0965  0.2299
  942MOL0     C29872  10.411   5.292   8.039 -0.3400 -0.2292 -0.4862
  942MOL0     C29873  10.345   5.422   8.071  0.0360 -0.1121  0.4037
  942MOL0     C29874  10.313   5.525   7.954 -0.0757  0.1507  0.5418
  942MOL0     N29875  10.408   5.636   7.953 -1.1677  0.6966  0.4113
  942MOL0     C29876  10.525   5.626   7.875 -0.0977  0.3889 -0.3550
  942MOL0     C29877  10.603   5.728   7.906  0.5348  0.0526  0.2109
  942MOL0     C29878  10.734   5.757   7.833 -0.7487  0.2721 -0.2278
  942MOL0     C29879  10.856   5.728   7.930 -0.0027  0.8843 -0.0649
  942MOL0     C29880  10.987   5.740   7.856  0.0062  0.5337 -0.0661
  942MOL0     C29881  11.111   5.711   7.951  0.3537  0.5111  0.4622
  942MOL0     O29882  11.099   5.800   8.062  0.3934  0.0134  0.3441
  942MOL0     C29883  11.219   5.836   8.124 -0.2624  0.5604  0.4442
  942MOL0     C29884  11.310   5.734   8.171 -0.0918 -0.4354  0.7082
  942MOL0     C29885  11.424   5.764   8.238 -0.9481 -0.9812 -0.7874
  942MOL0     C29886  11.490   5.649   8.302 -0.3061  0.4713  0.6507
  942MOL0     C29887  11.462   5.903   8.260  0.4821  0.4464  0.1710
  942MOL0     C29888  11.579   5.957   8.337  0.3732 -0.4503  0.9044
  942MOL0     O29889  11.565   6.087   8.384  0.4185  0.0446  0.4838
  942MOL0     C29890  11.683   6.168   8.379 -0.1898 -0.4680 -0.2976
  942MOL0     C29891  11.776   6.170   8.487  0.3514  0.7308  1.3170
  942MOL0     C29892  11.881   6.264   8.501  0.0122  0.2629  0.1057
  942MOL0     C29893  11.902   6.360   8.411  0.2768 -0.6942  0.0503
  942MOL0     O29894  12.002   6.446   8.441 -0.4778  0.0061 -0.0677
  942MOL0     C29895  12.019   6.545   8.346 -0.1444 -1.0659  0.0310
  942MOL0     C29896  12.166   6.596   8.384  0.2402 -0.3113 -0.1965
  942MOL0     C29897  12.207   6.720   8.304  0.2469  0.3002 -0.2541
  942MOL0     C29898  12.245   6.680   8.162 -0.2506 -0.3093  0.3720
  942MOL0     C29899  12.376   6.600   8.157 -0.1684  0.0149  0.2935
  942MOL0     C29900  12.453   6.592   8.020  0.5714  0.1986 -0.3038
  942MOL0     C29901  12.595   6.534   8.049 -0.9859  1.1047  0.7563
  942MOL0     C29902  12.704   6.648   8.056  0.4399 -0.2746 -0.1299
  942MOL0    Cl29903  12.719   6.718   8.211 -0.4349  0.3916  0.2379
  942MOL0     C29904  11.808   6.367   8.301 -0.2076  0.2686 -0.2608
  942MOL0     C29905  11.699   6.273   8.294  0.7329 -0.2616  0.0361
  942MOL0     O29906  11.679   5.893   8.353 -0.9256  0.2199  0.1035
  942MOL0     C29907  11.366   6.000   8.217 -0.4630  0.7223 -0.6456
  942MOL0     C29908  11.250   5.969   8.150  0.0805 -0.3272 -0.1576
  942MOL0     N29909  10.535   5.799   8.003  0.3219 -0.4079 -0.5838
  942MOL0     N29910  10.427   5.737   8.042 -0.6690  0.6834 -1.1780
  942MOL0     C29911  11.165   4.771   8.101  0.5209 -0.3280 -0.3229
  942MOL0     C29912  11.283   4.741   8.030 -0.2846  0.4062  0.6280
  942MOL0     C29913  11.599   4.723   7.688 -0.0696 -0.1454 -1.3157
  942MOL0     C29914  11.611   4.651   7.573  0.9751 -0.0493 -0.1021
  942MOL0     C29915  11.727   4.634   7.503 -0.2035  0.5407 -1.1816
  942MOL0     C29916  11.843   4.696   7.548  0.4899  0.2241 -0.8051
  942MOL0     O29917  11.968   4.678   7.490  0.6942  1.1929 -0.0269
  942MOL0     C29918  11.980   4.638   7.348  0.2268 -0.1899  0.9648
  942MOL0     C29919  12.010   4.481   7.342 -0.1726 -0.8307  0.1564
  942MOL0     C29920  12.141   4.440   7.410  0.3405  0.1776  0.4350
  942MOL0     C29921  12.193   4.302   7.358  0.3705  0.0643 -0.0440
  942MOL0     C29922  12.312   4.249   7.426 -0.6297  0.0712 -0.7234
  942MOL0     C29923  12.414   4.220   7.484 -0.3038  0.8858 -0.5038
  942MOL0     C29924  11.838   4.756   7.673 -0.2941  0.0994  0.0648
  942MOL0     C29925  11.722   4.763   7.744 -0.3808 -0.4910 -0.4590
  942MOL0     C29926  11.723   4.855   7.862 -0.2975 -0.6292  0.2674
  942MOL0     H29927  11.277   5.012   7.821 -1.4612  0.9666 -0.3500
  942MOL0     H29928  11.067   5.034   7.906  1.3435 -0.6671 -2.5889
  942MOL0     H29929  10.835   4.992   7.983  1.1535  0.8355 -0.3654
  942MOL0     H29930  10.904   5.095   8.110 -0.9719  0.6853  1.8850
  942MOL0     H29931  10.676   4.916   8.118  0.0011  1.2007 -0.8046
  942MOL0     H29932  10.750   4.971   8.268 -0.9829 -2.1296 -1.0258
  942MOL0     H29933  10.562   5.120   8.206  1.0915  1.0604  1.3289
  942MOL0     H29934  10.711   5.203   8.215  0.1207 -1.6008  1.4809
  942MOL0     H29935  10.724   5.209   7.954 -2.4390 -0.9103 -2.6090
  942MOL0     H29936  10.582   5.107   7.956  2.7980 -1.4872 -1.2523
  942MOL0     H29937  10.561   5.371   7.923 -3.0746  0.6687  0.4633
  942MOL0     H29938  10.604   5.368   8.097  0.4925  1.2453 -1.1622
  942MOL0     H29939  10.367   5.242   7.952  0.2832 -0.6864 -0.5467
  942MOL0     H29940  10.395   5.233   8.129  1.8554 -1.0708 -0.5726
  942MOL0     H29941  10.380   5.473   8.161 -0.3654  0.4904  0.2253
  942MOL0     H29942  10.246   5.383   8.098 -1.1252  1.0932 -1.8114
  942MOL0     H29943  10.308   5.469   7.861 -0.2042 -1.1191  1.2895
  942MOL0     H29944  10.212   5.568   7.958  0.2105  0.7567  1.7838
  942MOL0     H29945  10.565   5.548   7.811  0.3771 -0.8982  1.4146
  942MOL0     H29946  10.735   5.859   7.795 -0.8460  0.4675  0.2763
  942MOL0     H29947  10.741   5.686   7.750 -0.8493 -0.6241  0.5019
  942MOL0     H29948  10.851   5.788   8.022  1.5844  0.5514  0.2711
  942MOL0     H29949  10.836   5.624   7.956  1.1656  0.6341 -0.1398
  942MOL0     H29950  11.000   5.666   7.776  3.8437 -0.7512  1.5060
  942MOL0     H29951  10.995   5.844   7.823  0.4426  0.2358 -0.9235
  942MOL0     H29952  11.108   5.614   8.001  0.9934 -0.1813 -0.7990
  942MOL0     H29953  11.208   5.717   7.900 -0.1099 -2.6148 -0.9862
  942MOL0     H29954  11.283   5.632   8.148 -0.6825 -0.3196  0.8691
  942MOL0     H29955  11.588   5.676   8.343 -0.6677 -0.0622  1.9064
  942MOL0     H29956  11.506   5.570   8.229  1.0253 -0.7040  2.1576
  942MOL0     H29957  11.436   5.603   8.386  0.2672 -2.0638 -0.2778
  942MOL0     H29958  11.753   6.102   8.568 -2.0083  1.1635  1.0725
  942MOL0     H29959  11.953   6.244   8.579  1.0994  1.8563 -0.4307
  942MOL0     H29960  12.022   6.523   8.239  0.9156  1.2878 -0.4879
  942MOL0     H29961  11.947   6.625   8.366 -0.1128 -0.3664 -2.3515
  942MOL0     H29962  12.179   6.618   8.490 -0.5457 -1.7534  0.2176
  942MOL0     H29963  12.232   6.514   8.358  1.7367  1.0845 -1.0174
  942MOL0     H29964  12.290   6.767   8.357  0.6885 -1.7707  1.0106
  942MOL0     H29965  12.122   6.789   8.298 -1.3007 -1.4532  0.3480
  942MOL0     H29966  12.262   6.777   8.114  3.4735 -0.6949  0.6255
  942MOL0     H29967  12.164   6.628   8.112 -1.2004  0.1142  1.4112
  942MOL0     H29968  12.458   6.628   8.223  2.5246 -1.6283 -2.1386
  942MOL0     H29969  12.346   6.498   8.184 -0.7506  0.6854  2.3705
  942MOL0     H29970  12.463   6.691   7.974 -0.2153  0.6445  0.4269
  942MOL0     H29971  12.392   6.534   7.951  0.0492  1.5641 -1.0153
  942MOL0     H29972  12.631   6.480   7.961  1.2031  2.5422  0.7147
  942MOL0     H29973  12.598   6.472   8.139 -2.1113  0.2532  0.2343
  942MOL0     H29974  12.679   6.730   7.989  0.2442 -0.8432 -0.7602
  942MOL0     H29975  12.804   6.611   8.032  1.1536  0.6875  1.2255
  942MOL0     H29976  11.819   6.441   8.222  1.3481 -0.0179 -0.3610
  942MOL0     H29977  11.629   6.293   8.214 -1.3898 -1.7694  1.4163
  942MOL0     H29978  11.378   6.105   8.245 -1.6647  0.6844  0.0959
  942MOL0     H29979  11.185   6.051   8.120  2.3428  1.4604 -0.3977
  942MOL0     H29980  11.127   4.706   8.178 -1.1280  0.3086 -0.5509
  942MOL0     H29981  11.346   4.658   8.062 -0.6621  0.2994  1.0967
  942MOL0     H29982  11.527   4.607   7.520  1.2204  1.4253 -1.8180
  942MOL0     H29983  11.740   4.570   7.416  0.4745 -0.4286 -0.3879
  942MOL0     H29984  11.888   4.663   7.294  0.6239 -2.5344 -0.9829
  942MOL0     H29985  12.068   4.684   7.302  0.5863 -0.7266  1.1105
  942MOL0     H29986  12.009   4.442   7.240  0.4674 -1.3669  0.3512
  942MOL0     H29987  11.936   4.429   7.403  2.8445 -4.6772  0.9292
  942MOL0     H29988  12.222   4.510   7.383  2.8617 -2.3187  1.0487
  942MOL0     H29989  12.116   4.446   7.516 -0.2781  3.4161  0.2155
  942MOL0     H29990  12.198   4.318   7.250 -1.2009  0.0558 -0.1404
  942MOL0     H29991  12.116   4.224   7.360  0.0709  0.2974 -1.4363
  942MOL0     H29992  12.506   4.184   7.525  0.6983  0.5892 -2.8405
  942MOL0     H29993  11.927   4.784   7.729  0.1524 -0.1200 -0.5319
  942MOL0     H29994  11.826   4.891   7.874 -0.0088 -1.4897  0.4609
  942MOL0     H29995  11.662   4.942   7.836 -0.6068 -1.2227 -1.1025
  942MOL0     H29996  11.675   4.816   7.952 -1.7271  1.4613  0.4630
  943MOL0     O29997  10.923   9.836  10.672  0.0721 -0.1616  0.2006
  943MOL0     C29998  10.934   9.958  10.658  0.7188  0.1497 -0.4027
  943MOL0     O29999  11.036  10.032  10.696 -0.0246  0.2752 -0.3592
  943MOL0     C30000  11.125   9.974  10.786 -0.6929 -0.4249 -0.2026
  943MOL0     C30001  11.266   9.985  10.749  1.2610 -0.2667 -0.1420
  943MOL0     C30002  11.363   9.937  10.840  0.3871 -0.0887 -0.3923
  943MOL0     C30003  11.332   9.895  10.972  0.8568  0.2672 -0.8559
  943MOL0     O30004  11.424   9.876  11.074 -0.1135 -0.4903  0.0543
  943MOL0     C30005  11.555   9.922  11.054 -0.1600 -0.5028  0.6413
  943MOL0     C30006  11.557  10.080  11.067  0.0106 -0.0826 -0.4174
  943MOL0     C30007  11.698  10.134  11.048  0.0362 -0.1741 -0.0442
  943MOL0     C30008  11.778  10.109  11.175  0.3702  0.5528 -0.7729
  943MOL0     C30009  11.927  10.167  11.167  0.9275 -0.5614 -0.4713
  943MOL0     C30010  11.916  10.329  11.162 -0.6560 -0.0949 -0.5747
  943MOL0     C30011  12.051  10.407  11.171 -0.7255 -0.0799 -0.3889
  943MOL0     C30012  12.139  10.371  11.296  0.1276  0.2793  0.2164
  943MOL0     N30013  12.263  10.448  11.303 -0.0373  0.3544  0.3149
  943MOL0     C30014  12.275  10.573  11.361 -0.1150  0.1038  0.6554
  943MOL0     C30015  12.407  10.599  11.355  0.8022  0.0562  0.9371
  943MOL0     C30016  12.471  10.730  11.391 -0.3534 -0.3233  0.1011
  943MOL0     C30017  12.539  10.733  11.529 -0.0682 -0.7883 -0.3217
  943MOL0     C30018  12.634  10.618  11.558 -0.3821 -1.0068 -0.0400
  943MOL0     C30019  12.762  10.620  11.472  0.5988  0.0282 -0.0112
  943MOL0     O30020  12.856  10.529  11.530  0.8882 -0.1316 -0.4283
  943MOL0     C30021  12.844  10.396  11.511  0.2064 -1.0658  0.3037
  943MOL0     C30022  12.931  10.320  11.583 -0.4138  0.8486 -0.7473
  943MOL0     C30023  12.930  10.180  11.582 -0.4044  0.1564  0.4251
  943MOL0     C30024  13.019  10.100  11.676 -0.2233  0.3409 -0.6843
  943MOL0     C30025  12.843  10.119  11.491 -0.9506  0.2719  0.7999
  943MOL0     C30026  12.829   9.975  11.476  0.4487  0.2387 -1.2500
  943MOL0     O30027  12.917   9.890  11.532  0.1334 -0.1965  0.0171
  943MOL0     C30028  12.890   9.756  11.539  0.1956  0.6231 -0.7206
  943MOL0     C30029  12.963   9.666  11.462 -0.3700 -0.0969 -0.4031
  943MOL0     C30030  12.931   9.525  11.473 -0.7382 -0.4931 -0.2743
  943MOL0     C30031  12.831   9.472  11.553  0.9823 -0.6278 -0.0864
  943MOL0     O30032  12.799   9.339  11.563  0.4561 -0.6077 -0.0227
  943MOL0     C30033  12.857   9.260  11.450 -0.2989 -0.3780 -0.4829
  943MOL0     C30034  12.818   9.111  11.444  0.3644 -0.3410  0.5907
  943MOL0     C30035  12.827   9.048  11.584  0.2638 -0.7922  0.4510
  943MOL0     C30036  12.801   8.896  11.587 -0.2447 -0.5517 -0.0289
  943MOL0     C30037  12.792   8.863  11.736  0.1771 -0.4716 -0.3902
  943MOL0     C30038  12.813   8.706  11.760  0.0699  0.0293  0.9339
  943MOL0     C30039  12.826   8.680  11.912 -0.2207  0.1469  0.1927
  943MOL0     C30040  12.859   8.540  11.951  0.4106  0.6643  0.4160
  943MOL0    Cl30041  12.740   8.435  11.880 -0.0711  0.1990  0.0238
  943MOL0     C30042  12.768   9.568  11.638  0.3986  0.5819 -0.1191
  943MOL0     C30043  12.798   9.707  11.632  0.2470 -0.7571  0.7104
  943MOL0     O30044  12.723   9.946  11.416 -0.7024 -0.0616  0.0823
  943MOL0     C30045  12.754  10.199  11.420  0.0238 -0.8206  0.0953
  943MOL0     C30046  12.760  10.338  11.414 -0.0939  0.3006  0.2853
  943MOL0     N30047  12.467  10.488  11.292 -0.1620  1.1430  0.1401
  943MOL0     N30048  12.382  10.401  11.265  0.0572  0.0069 -0.7082
  943MOL0     C30049  11.200   9.882  11.000 -0.5686 -0.2060 -0.1711
  943MOL0     C30050  11.102   9.925  10.914 -0.8362 -0.0300 -0.3779
  943MOL0     C30051  10.821  10.020  10.584  0.1194  0.8400  0.2819
  943MOL0     C30052  10.721   9.935  10.530  0.2421 -0.0769 -0.5489
  943MOL0     C30053  10.608   9.979  10.456  0.0082 -0.0461 -0.5153
  943MOL0     C30054  10.596  10.114  10.427 -0.3903  0.5199  0.7464
  943MOL0     O30055  10.483  10.144  10.359 -0.6627  0.8038  0.5773
  943MOL0     C30056  10.429  10.272  10.393 -0.2602 -0.9179  0.3427
  943MOL0     C30057  10.285  10.286  10.358  0.7197  0.4626 -0.2892
  943MOL0     C30058  10.242  10.431  10.379  0.1114  1.0913  0.4525
  943MOL0     C30059  10.178  10.458  10.515 -0.5704 -0.1617  0.3831
  943MOL0     C30060  10.122  10.594  10.541 -0.2974 -0.0360  0.0337
  943MOL0     C30061  10.073  10.701  10.574 -0.1329  0.8215 -0.3827
  943MOL0     C30062  10.694  10.206  10.470 -0.0278  0.2355  0.1827
  943MOL0     C30063  10.801  10.159  10.551  0.8148 -0.2849 -0.0365
  943MOL0     C30064  10.903  10.262  10.598  0.1306 -1.0400 -0.0735
  943MOL0     H30065  11.270  10.024  10.648 -0.5484 -0.5126 -0.3313
  943MOL0     H30066  11.461   9.955  10.797 -0.4058  0.8876 -1.8709
  943MOL0     H30067  11.599   9.886  10.961  0.6088 -1.9601  1.5178
  943MOL0     H30068  11.611   9.876  11.136  0.4998  0.4067  0.7157
  943MOL0     H30069  11.496  10.125  10.988  1.1864  1.1498 -0.6539
  943MOL0     H30070  11.515  10.116  11.161 -1.4038  1.2033 -1.4815
  943MOL0     H30071  11.747  10.071  10.972 -1.2827 -2.2721  0.7373
  943MOL0     H30072  11.697  10.241  11.028  2.8993  0.2790  1.7390
  943MOL0     H30073  11.731  10.149  11.264 -1.5659  1.6379 -2.2199
  943MOL0     H30074  11.776   9.999  11.178 -1.9379  0.5705  0.0190
  943MOL0     H30075  11.978  10.117  11.084 -1.4517 -2.2738 -1.0212
  943MOL0     H30076  11.974  10.139  11.262  0.1915  1.9127  0.6919
  943MOL0     H30077  11.878  10.360  11.065 -1.4192 -1.1417 -0.6328
  943MOL0     H30078  11.843  10.368  11.234  0.1425  2.7357 -1.2131
  943MOL0     H30079  12.031  10.514  11.160 -3.8350 -0.8149 -5.2005
  943MOL0     H30080  12.114  10.386  11.085  0.0083  0.3719  0.0233
  943MOL0     H30081  12.072  10.378  11.383  0.6850 -1.6652  0.8669
  943MOL0     H30082  12.157  10.263  11.297  1.0947  0.4361  0.7703
  943MOL0     H30083  12.195  10.639  11.391  0.4537  0.7114  0.8725
  943MOL0     H30084  12.399  10.812  11.393  0.2183  0.2045 -0.6339
  943MOL0     H30085  12.546  10.757  11.316 -1.5537  0.7677 -0.7553
  943MOL0     H30086  12.601  10.823  11.535 -1.0338 -0.1823  1.3357
  943MOL0     H30087  12.460  10.740  11.604  1.1640  3.3893  0.8891
  943MOL0     H30088  12.666  10.622  11.662 -0.7187  1.9241  0.0400
  943MOL0     H30089  12.590  10.520  11.540  0.9328 -1.7925  0.9236
  943MOL0     H30090  12.743  10.603  11.365 -0.3020 -0.5886  0.2280
  943MOL0     H30091  12.801  10.721  11.480  1.0027 -0.1768  0.6386
  943MOL0     H30092  12.995  10.374  11.652 -1.2934  0.9115  0.0433
  943MOL0     H30093  12.966  10.031  11.742  1.3228  1.6046  2.0064
  943MOL0     H30094  13.072  10.171  11.739 -2.3831 -0.4978  2.2842
  943MOL0     H30095  13.089  10.028  11.632 -0.1121 -0.2597  0.4336
  943MOL0     H30096  13.039   9.706  11.397  1.5501 -1.6892  0.7540
  943MOL0     H30097  12.996   9.469  11.407  0.8486  3.1513 -2.0324
  943MOL0     H30098  12.816   9.293  11.354 -1.1722 -2.3010 -0.8074
  943MOL0     H30099  12.966   9.269  11.447 -0.1865 -1.6011 -3.3957
  943MOL0     H30100  12.717   9.094  11.404  1.0560 -3.6932 -0.0235
  943MOL0     H30101  12.884   9.059  11.374 -0.7355 -1.0610  0.0673
  943MOL0     H30102  12.762   9.102  11.653  0.2940 -0.5498  0.2891
  943MOL0     H30103  12.922   9.075  11.631 -0.0407 -0.1641  0.7089
  943MOL0     H30104  12.888   8.851  11.537 -1.0311 -0.4297 -1.5843
  943MOL0     H30105  12.707   8.869  11.537 -0.1191 -0.0374 -0.5617
  943MOL0     H30106  12.870   8.914  11.792  0.9789 -1.5495 -0.5089
  943MOL0     H30107  12.697   8.908  11.768  0.3634  1.5119 -2.3345
  943MOL0     H30108  12.896   8.672  11.698 -0.0934 -0.4028  0.9458
  943MOL0     H30109  12.723   8.655  11.722  0.3081  0.1486  0.1950
  943MOL0     H30110  12.729   8.698  11.958 -0.6073 -0.7918 -0.2269
  943MOL0     H30111  12.907   8.740  11.955  1.0049 -1.4814  0.2963
  943MOL0     H30112  12.882   8.531  12.057  1.3533 -0.6129  0.1307
  943MOL0     H30113  12.958   8.515  11.913 -0.0042 -2.6971  1.2018
  943MOL0     H30114  12.705   9.522  11.713  2.0313  0.9246  1.5339
  943MOL0     H30115  12.746   9.783  11.690  0.2596 -0.8462  0.8394
  943MOL0     H30116  12.686  10.159  11.345  1.4674 -1.1782 -1.0746
  943MOL0     H30117  12.686  10.387  11.353 -0.6888 -0.6478  0.2176
  943MOL0     H30118  11.176   9.852  11.102  0.4542  2.5894  1.0099
  943MOL0     H30119  10.996   9.935  10.936 -1.2319 -1.4861 -1.4622
  943MOL0     H30120  10.728   9.831  10.559  1.5060 -0.7679 -3.0712
  943MOL0     H30121  10.533   9.910  10.420 -1.3833  0.9774  0.3335
  943MOL0     H30122  10.448  10.286  10.500  2.8473 -1.8759  0.0416
  943MOL0     H30123  10.485  10.353  10.345 -2.4370  0.6311  0.2840
  943MOL0     H30124  10.225  10.222  10.424  1.0678  0.0576 -0.3559
  943MOL0     H30125  10.268  10.262  10.253 -1.5293  0.0036  0.1276
  943MOL0     H30126  10.328  10.498  10.373  0.9580  0.0038  0.0314
  943MOL0     H30127  10.172  10.452  10.298 -0.8709 -2.0213  0.3551
  943MOL0     H30128  10.253  10.447  10.593  0.2423  1.8250 -0.0718
  943MOL0     H30129  10.098  10.385  10.534 -0.7072  0.3559  1.9429
  943MOL0     H30130  10.035  10.800  10.590 -0.7079  0.3363  1.5122
  943MOL0     H30131  10.698  10.312  10.445  1.7322  0.0008 -0.6724
  943MOL0     H30132  10.924  10.247  10.704 -0.5673 -1.3860  0.0157
  943MOL0     H30133  10.994  10.256  10.537  1.1183  2.4465  0.8177
  943MOL0     H30134  10.863  10.362  10.579  1.0295 -0.4985  0.7440
  944MOL0     O30135   1.289   1.611  10.547 -0.1649  0.6022 -0.4311
  944MOL0     C30136   1.281   1.539  10.441  0.8969 -0.1420  0.5580
  944MOL0     O30137   1.388   1.489  10.372 -0.4125  0.2797 -0.1177
  944MOL0     C30138   1.506   1.546  10.415 -0.1577  0.5524 -0.0427
  944MOL0     C30139   1.560   1.660  10.355 -1.1562 -0.2640 -0.3534
  944MOL0     C30140   1.683   1.710  10.393  0.1036  0.2441 -0.0167
  944MOL0     C30141   1.762   1.640  10.488 -0.5917  0.2359  0.5768
  944MOL0     O30142   1.887   1.694  10.504  0.0066 -0.8795 -0.3123
  944MOL0     C30143   1.887   1.826  10.566  0.0168 -0.2458  0.5729
  944MOL0     C30144   1.875   1.815  10.718 -0.6575 -0.6376 -1.0229
  944MOL0     C30145   1.879   1.953  10.781 -0.5895 -0.4082  0.2499
  944MOL0     C30146   2.003   1.986  10.868 -1.0185 -0.6324 -0.6224
  944MOL0     C30147   2.136   2.020  10.800  0.1117  0.4878 -0.8991
  944MOL0     C30148   2.244   2.033  10.915  0.1496 -0.4785  0.4665
  944MOL0     C30149   2.386   2.035  10.859 -0.6101  0.4427  1.1673
  944MOL0     C30150   2.433   2.182  10.850 -0.6559 -0.3527 -0.5223
  944MOL0     N30151   2.570   2.197  10.793  0.1221  0.1031 -0.3415
  944MOL0     C30152   2.656   2.098  10.750 -0.2409 -0.1805  0.9543
  944MOL0     C30153   2.752   2.162  10.680  0.2796  0.0091  0.0852
  944MOL0     C30154   2.868   2.081  10.631 -0.1424 -0.2150  0.6692
  944MOL0     C30155   2.995   2.169  10.608 -0.5304 -0.1296  0.0641
  944MOL0     C30156   3.004   2.252  10.479  0.6083 -0.0082 -0.2800
  944MOL0     C30157   3.137   2.330  10.475 -0.2278  0.5163  0.0040
  944MOL0     O30158   3.246   2.241  10.499  1.1423 -0.2881 -0.2730
  944MOL0     C30159   3.361   2.311  10.542 -0.1351 -0.4388  0.1724
  944MOL0     C30160   3.434   2.271  10.652 -0.4728  0.7312  0.7319
  944MOL0     C30161   3.547   2.327  10.692 -0.4211  0.6741  0.1083
  944MOL0     C30162   3.614   2.266  10.810 -0.0031 -0.5192 -0.1205
  944MOL0     C30163   3.608   2.434  10.617 -0.2512  0.9705 -0.5222
  944MOL0     C30164   3.746   2.498  10.640  0.9254 -0.8965 -1.0501
  944MOL0     O30165   3.802   2.574  10.547 -0.2479 -0.3424  0.2155
  944MOL0     C30166   3.942   2.568  10.542  0.2395 -0.3428  0.0007
  944MOL0     C30167   4.015   2.461  10.587 -0.1287  0.2410  0.5078
  944MOL0     C30168   4.155   2.459  10.584 -0.3993  0.6292  0.0130
  944MOL0     C30169   4.223   2.572  10.540  0.2178 -0.8107 -0.2908
  944MOL0     O30170   4.358   2.598  10.555  0.0867  0.9627  0.0649
  944MOL0     C30171   4.437   2.476  10.566  0.3372  0.2314 -0.3556
  944MOL0     C30172   4.580   2.508  10.551 -0.6665  0.2162 -0.7027
  944MOL0     C30173   4.659   2.519  10.690  0.2350 -0.1662 -0.0156
  944MOL0     C30174   4.795   2.593  10.676 -0.6431 -0.6932  0.8033
  944MOL0     C30175   4.906   2.499  10.723  0.5452  0.4480  0.2408
  944MOL0     C30176   5.045   2.556  10.696  1.6931  0.8001 -0.8090
  944MOL0     C30177   5.165   2.463  10.738  0.5877  0.4160 -0.8745
  944MOL0     C30178   5.179   2.446  10.884 -0.5116  0.1544 -0.2268
  944MOL0    Cl30179   5.309   2.330  10.908 -0.3030  0.3886  0.1579
  944MOL0     C30180   4.145   2.688  10.504  0.2358 -0.5408  0.1078
  944MOL0     C30181   4.007   2.685  10.512 -0.1636  0.0594  0.5524
  944MOL0     O30182   3.791   2.488  10.759 -0.2839  0.5898  0.3418
  944MOL0     C30183   3.537   2.478  10.504 -0.5674  0.0579  0.7522
  944MOL0     C30184   3.421   2.412  10.464 -0.9399 -0.8385  0.5249
  944MOL0     N30185   2.723   2.298  10.694 -0.2256  0.5547 -0.2279
  944MOL0     N30186   2.620   2.319  10.769  0.1395  0.3350  0.1156
  944MOL0     C30187   1.716   1.530  10.550  0.0124  1.2664  0.1518
  944MOL0     C30188   1.587   1.481  10.513 -0.4859 -0.6097 -0.2418
  944MOL0     C30189   1.148   1.498  10.394 -0.5224 -0.0984 -0.8187
  944MOL0     C30190   1.142   1.382  10.318 -0.2361  0.2372  0.3232
  944MOL0     C30191   1.033   1.347  10.244  0.2256 -0.9916 -0.4447
  944MOL0     C30192   0.913   1.428  10.248  0.1244 -0.4910 -0.4650
  944MOL0     O30193   0.812   1.417  10.162 -0.4325 -0.0509  1.1238
  944MOL0     C30194   0.756   1.293  10.149  0.3024 -0.1166  0.1407
  944MOL0     C30195   0.798   1.243  10.016 -0.4628  0.4594  0.0591
  944MOL0     C30196   0.820   1.350   9.898 -0.1855  0.5901 -0.4799
  944MOL0     C30197   0.862   1.267   9.771 -0.1031 -1.3459  0.0413
  944MOL0     C30198   1.003   1.236   9.771 -0.7808 -0.2453  0.0580
  944MOL0     C30199   1.116   1.216   9.743  0.8400  0.6999  0.9687
  944MOL0     C30200   0.909   1.533  10.342  0.6711  0.3821 -0.2964
  944MOL0     C30201   1.025   1.570  10.421 -0.4175 -0.3990 -0.0448
  944MOL0     C30202   0.995   1.665  10.535  0.1465  0.3981 -0.6141
  944MOL0     H30203   1.511   1.708  10.271  0.8476 -0.4440 -1.7002
  944MOL0     H30204   1.722   1.796  10.340 -0.4568  0.2676 -0.3966
  944MOL0     H30205   1.801   1.888  10.539  0.7367  0.5711  0.0952
  944MOL0     H30206   1.977   1.877  10.532 -0.5052 -0.3098 -1.0025
  944MOL0     H30207   1.772   1.779  10.730 -0.8210 -0.3565 -1.5705
  944MOL0     H30208   1.947   1.752  10.771  0.3606  0.2864 -1.2783
  944MOL0     H30209   1.865   2.028  10.702 -1.6286  1.8466  2.4152
  944MOL0     H30210   1.788   1.959  10.842  0.2256 -0.9741  1.5523
  944MOL0     H30211   1.959   2.062  10.933 -2.5724 -1.6625 -0.4181
  944MOL0     H30212   2.020   1.890  10.917 -1.7540 -0.0831  0.7578
  944MOL0     H30213   2.124   2.108  10.737 -0.4675  0.7747 -0.3963
  944MOL0     H30214   2.158   1.937  10.731 -0.7905 -0.4559 -0.0812
  944MOL0     H30215   2.232   2.129  10.966  1.7804 -0.8242  1.5940
  944MOL0     H30216   2.239   1.958  10.993 -0.7202 -2.0916 -1.0730
  944MOL0     H30217   2.391   1.999  10.755  3.6578 -1.1367  1.7293
  944MOL0     H30218   2.454   1.981  10.925  0.8928 -2.0201 -2.1279
  944MOL0     H30219   2.361   2.242  10.793  0.0723  0.2719 -0.7936
  944MOL0     H30220   2.431   2.234  10.947 -0.3769  0.6978 -1.0692
  944MOL0     H30221   2.654   1.991  10.766 -0.7509  0.1527  3.5199
  944MOL0     H30222   2.834   2.045  10.533  0.5539  2.5144 -0.6643
  944MOL0     H30223   2.890   2.001  10.702 -1.5410  0.1049  1.4979
  944MOL0     H30224   3.001   2.247  10.685  0.8142  0.2318 -0.3736
  944MOL0     H30225   3.082   2.103  10.617 -1.8528 -1.6310  3.3555
  944MOL0     H30226   2.990   2.185  10.394  1.8424  0.4367 -0.8545
  944MOL0     H30227   2.916   2.316  10.487 -0.2066 -1.2072  1.0435
  944MOL0     H30228   3.138   2.389  10.383 -2.2720  0.5187 -0.0573
  944MOL0     H30229   3.124   2.396  10.561  0.8518 -1.4173  1.7653
  944MOL0     H30230   3.379   2.196  10.709  1.5953 -0.6217  1.0738
  944MOL0     H30231   3.606   2.343  10.888  2.4265  1.1649 -1.3868
  944MOL0     H30232   3.721   2.248  10.799 -0.0059  0.1885 -1.4982
  944MOL0     H30233   3.555   2.178  10.837  1.3631 -0.9043  1.7869
  944MOL0     H30234   3.963   2.369  10.610 -2.3662  1.2932 -0.0400
  944MOL0     H30235   4.215   2.376  10.619 -0.9013  0.7473  1.2279
  944MOL0     H30236   4.430   2.417  10.658 -0.5189  2.3262  1.0232
  944MOL0     H30237   4.415   2.416  10.477 -3.2255 -0.3994  0.8022
  944MOL0     H30238   4.619   2.419  10.500 -0.0533 -1.2030  2.0240
  944MOL0     H30239   4.594   2.595  10.487  1.8318  0.0559 -0.4894
  944MOL0     H30240   4.672   2.426  10.746 -2.0256 -0.3622  0.2750
  944MOL0     H30241   4.616   2.585  10.766  1.8629  4.3634 -2.6680
  944MOL0     H30242   4.794   2.678  10.744 -3.2550 -0.8051  0.9815
  944MOL0     H30243   4.804   2.623  10.571 -2.4109 -1.4182  0.4173
  944MOL0     H30244   4.892   2.480  10.830 -0.7203 -1.1021 -0.1563
  944MOL0     H30245   4.891   2.399  10.679  0.5929  0.4615  0.1941
  944MOL0     H30246   5.047   2.647  10.757  1.4603 -1.0753  2.1844
  944MOL0     H30247   5.047   2.578  10.589  2.0781 -1.7521 -1.3891
  944MOL0     H30248   5.251   2.521  10.703 -0.0669  1.9580 -0.0185
  944MOL0     H30249   5.159   2.365  10.690 -0.2687 -1.4622  2.7575
  944MOL0     H30250   5.092   2.386  10.910  0.2885 -0.0895  2.1700
  944MOL0     H30251   5.194   2.535  10.947  2.6700 -2.6042  3.4347
  944MOL0     H30252   4.177   2.786  10.471 -2.4818 -0.0762 -1.4222
  944MOL0     H30253   3.938   2.767  10.493  1.3577  1.6839  1.7042
  944MOL0     H30254   3.564   2.568  10.449 -1.8207  0.1947  0.3370
  944MOL0     H30255   3.373   2.446  10.373  0.6092 -1.9013 -0.7465
  944MOL0     H30256   1.777   1.476  10.621  0.8236 -0.2440 -1.6204
  944MOL0     H30257   1.561   1.386  10.558 -1.7502  0.1624  0.7383
  944MOL0     H30258   1.224   1.315  10.297 -1.5369 -1.6758  1.0762
  944MOL0     H30259   1.043   1.254  10.189  2.9088 -1.8233  1.2524
  944MOL0     H30260   0.792   1.216  10.217  1.4504 -1.0535 -1.4503
  944MOL0     H30261   0.647   1.307  10.153  0.5168  1.5556  0.6053
  944MOL0     H30262   0.732   1.161   9.985 -0.4571  0.4260  0.1352
  944MOL0     H30263   0.891   1.192  10.041 -0.6034  1.2460  2.3972
  944MOL0     H30264   0.735   1.417   9.883 -1.6492 -0.0840  3.4223
  944MOL0     H30265   0.896   1.421   9.930 -0.5043  1.3074 -1.2790
  944MOL0     H30266   0.824   1.322   9.685 -1.9883 -2.3948  0.1403
  944MOL0     H30267   0.811   1.170   9.773 -0.4840 -1.1372  0.5981
  944MOL0     H30268   1.220   1.202   9.721  0.3258  0.9421 -2.1658
  944MOL0     H30269   0.812   1.581  10.352 -0.4343 -2.0425  1.5282
  944MOL0     H30270   0.984   1.611  10.629  2.3489  0.0536 -0.5017
  944MOL0     H30271   1.075   1.739  10.546  0.5421 -0.0919 -0.1339
  944MOL0     H30272   0.899   1.711  10.510 -0.5348  0.6253  2.1343
  945MOL0     O30273   7.330  10.712   7.398  0.2893 -0.5230 -0.9311
  945MOL0     C30274   7.243  10.708   7.495  0.1113  0.3743  0.5737
  945MOL0     O30275   7.256  10.638   7.614  0.0065 -0.0238 -0.0233
  945MOL0     C30276   7.378  10.575   7.631  0.1945 -0.5653  0.1827
  945MOL0     C30277   7.396  10.443   7.593  0.5662  0.0500  0.1026
  945MOL0     C30278   7.518  10.379   7.613 -0.2481 -0.4822 -0.0581
  945MOL0     C30279   7.622  10.439   7.688  0.1326 -0.3041 -0.3004
  945MOL0     O30280   7.752  10.386   7.697  0.7871 -0.9374 -0.1553
  945MOL0     C30281   7.760  10.291   7.807  0.1165  0.0987 -0.1614
  945MOL0     C30282   7.818  10.161   7.749  0.1877  0.4896  0.7767
  945MOL0     C30283   7.727  10.082   7.653  0.4773 -0.1870 -0.0366
  945MOL0     C30284   7.593  10.018   7.708 -0.2652 -0.9341  0.5020
  945MOL0     C30285   7.538   9.927   7.602  0.1538  0.5454  0.1651
  945MOL0     C30286   7.410   9.860   7.659  0.3531  0.1496 -0.1448
  945MOL0     C30287   7.428   9.738   7.750  0.1518 -0.3337 -0.4548
  945MOL0     C30288   7.294   9.673   7.787  0.1923  0.0168 -0.3477
  945MOL0     N30289   7.192   9.757   7.846 -0.0800  0.1371  0.7570
  945MOL0     C30290   7.053   9.738   7.828 -0.4781  0.0668 -0.3168
  945MOL0     C30291   6.999   9.818   7.913 -0.5136  0.2028  0.5753
  945MOL0     C30292   6.852   9.841   7.933 -0.0814 -0.1309  0.6184
  945MOL0     C30293   6.792   9.723   8.011  0.0237 -0.8450  1.1377
  945MOL0     C30294   6.634   9.747   8.028  0.6092 -0.0333  0.1097
  945MOL0     C30295   6.555   9.622   8.044  0.4448 -0.6302 -0.1730
  945MOL0     O30296   6.574   9.562   7.913 -0.3630  0.3198 -0.1980
  945MOL0     C30297   6.512   9.438   7.884 -0.0018 -0.0676 -0.1976
  945MOL0     C30298   6.560   9.367   7.772  0.0902  0.2488  0.4248
  945MOL0     C30299   6.511   9.240   7.744 -0.6579 -0.3433  0.8584
  945MOL0     C30300   6.587   9.173   7.627  0.2313 -0.4210  0.1202
  945MOL0     C30301   6.403   9.187   7.822 -0.5588 -0.0561  0.6355
  945MOL0     C30302   6.328   9.057   7.779 -0.7686 -0.3245 -0.4841
  945MOL0     O30303   6.225   9.027   7.860  0.1769 -0.5120 -0.3456
  945MOL0     C30304   6.154   8.915   7.829 -0.3048 -0.2943 -0.2117
  945MOL0     C30305   6.085   8.905   7.708 -0.1409  0.6774  0.7636
  945MOL0     C30306   6.005   8.787   7.689 -1.0317  0.0979 -0.1196
  945MOL0     C30307   5.984   8.689   7.794 -0.5663  0.8648 -0.5762
  945MOL0     O30308   5.902   8.579   7.793 -0.3992 -0.6058  0.5054
  945MOL0     C30309   5.808   8.576   7.685  0.4385  0.0021  0.7530
  945MOL0     C30310   5.702   8.471   7.703 -0.0927  1.1969 -0.1715
  945MOL0     C30311   5.604   8.469   7.589  0.0433  0.0660  0.3659
  945MOL0     C30312   5.475   8.388   7.618  0.4324  0.1712  0.4583
  945MOL0     C30313   5.360   8.417   7.530 -0.3750  0.5226  0.1041
  945MOL0     C30314   5.304   8.561   7.554 -0.3726  0.0378 -0.5598
  945MOL0     C30315   5.173   8.576   7.483 -0.5808 -0.3311 -0.6278
  945MOL0     C30316   5.110   8.708   7.522 -0.6970 -1.0750  0.0809
  945MOL0    Cl30317   5.035   8.720   7.693 -0.4063  0.4302  0.4341
  945MOL0     C30318   6.059   8.709   7.913  0.5867 -0.3384  0.9062
  945MOL0     C30319   6.135   8.824   7.936  0.4735 -1.5281  0.3450
  945MOL0     O30320   6.380   8.985   7.692 -0.8053  0.1996  0.4393
  945MOL0     C30321   6.363   9.256   7.937 -0.7007 -0.6207 -0.5206
  945MOL0     C30322   6.417   9.379   7.970  0.4871  0.4197 -0.7946
  945MOL0     N30323   7.093   9.887   7.981 -0.3908  0.2913  0.1525
  945MOL0     N30324   7.215   9.840   7.947  0.2653  0.0516 -0.5893
  945MOL0     C30325   7.612  10.579   7.716  0.8647  0.4573 -0.8259
  945MOL0     C30326   7.491  10.644   7.695  0.0087 -0.4445 -0.2550
  945MOL0     C30327   7.116  10.770   7.467 -0.1200 -0.5165 -0.0842
  945MOL0     C30328   7.027  10.762   7.572  0.6536  0.4969  0.0577
  945MOL0     C30329   6.892  10.812   7.579  0.1874  0.0455 -0.2064
  945MOL0     C30330   6.850  10.886   7.470  0.6166 -0.3419 -0.2486
  945MOL0     O30331   6.728  10.955   7.455  0.4045  0.0012  0.6993
  945MOL0     C30332   6.623  10.949   7.554  1.1590  0.3144 -0.5089
  945MOL0     C30333   6.555  10.809   7.564 -0.2391 -0.2664  0.3734
  945MOL0     C30334   6.438  10.792   7.467  0.8696  0.5635  0.0913
  945MOL0     C30335   6.295  10.829   7.517 -0.7291  0.8988  1.2164
  945MOL0     C30336   6.194  10.819   7.406 -0.3163 -0.1569 -0.9408
  945MOL0     C30337   6.104  10.800   7.325  0.0306  0.1144 -0.1037
  945MOL0     C30338   6.938  10.892   7.356 -0.1704  0.3113 -0.1276
  945MOL0     C30339   7.062  10.827   7.349 -0.1082  0.0979  0.3906
  945MOL0     C30340   7.133  10.848   7.223  0.8655  0.0740  0.5278
  945MOL0     H30341   7.308  10.386   7.565  0.1172  0.8166 -0.0888
  945MOL0     H30342   7.515  10.273   7.592  1.3291 -0.5913  0.1596
  945MOL0     H30343   7.661  10.267   7.846 -0.2421 -0.5890 -1.4311
  945MOL0     H30344   7.831  10.315   7.888 -1.0272 -0.6899  1.1199
  945MOL0     H30345   7.913  10.193   7.705  2.2838 -3.8268  1.5731
  945MOL0     H30346   7.839  10.109   7.843  1.6959  4.0572  2.5856
  945MOL0     H30347   7.698  10.157   7.579 -0.4157  0.7262  1.2185
  945MOL0     H30348   7.784  10.004   7.601 -0.0447  0.5493 -1.7951
  945MOL0     H30349   7.607   9.959   7.800  0.2699  1.4051  2.0242
  945MOL0     H30350   7.523  10.099   7.734 -0.3196 -1.4434  2.0656
  945MOL0     H30351   7.612   9.854   7.569  0.8140  1.1883  0.1782
  945MOL0     H30352   7.521   9.987   7.512  1.8018 -0.3037 -0.7562
  945MOL0     H30353   7.358   9.935   7.719  4.2513  2.8365  0.3076
  945MOL0     H30354   7.339   9.834   7.580 -0.6612 -0.4603  0.9418
  945MOL0     H30355   7.480   9.753   7.844 -0.8503 -0.0847  0.0784
  945MOL0     H30356   7.484   9.665   7.690 -1.9517  0.1965 -3.3300
  945MOL0     H30357   7.257   9.622   7.698  0.3539  2.0542 -1.6298
  945MOL0     H30358   7.317   9.597   7.862 -0.6488 -0.6806 -0.7718
  945MOL0     H30359   6.999   9.669   7.764  0.3389 -0.1340 -0.7928
  945MOL0     H30360   6.804   9.837   7.835 -0.8284 -2.5167  1.0056
  945MOL0     H30361   6.836   9.936   7.985 -0.0978 -0.7246  1.7185
  945MOL0     H30362   6.817   9.636   7.949  2.0737  0.9561 -0.7428
  945MOL0     H30363   6.836   9.719   8.111  0.8940  0.6631  0.8491
  945MOL0     H30364   6.615   9.802   8.121 -0.4086 -0.9847  0.4950
  945MOL0     H30365   6.591   9.794   7.939 -0.6246  0.4205  0.9114
  945MOL0     H30366   6.587   9.561   8.128  1.9538  3.1464  2.2314
  945MOL0     H30367   6.449   9.649   8.054  0.6025  0.6679 -1.5617
  945MOL0     H30368   6.635   9.414   7.709  0.9537 -0.5811  0.8086
  945MOL0     H30369   6.641   9.086   7.664  0.2574 -0.4265  0.0713
  945MOL0     H30370   6.654   9.247   7.581  0.6446 -0.8092  0.0929
  945MOL0     H30371   6.515   9.144   7.549  1.0709 -2.3954  0.0323
  945MOL0     H30372   6.075   8.972   7.623 -0.2451  0.9923  1.0219
  945MOL0     H30373   5.956   8.772   7.594 -1.0390 -3.4955  0.3105
  945MOL0     H30374   5.765   8.676   7.676  0.6187  0.1594  1.5385
  945MOL0     H30375   5.849   8.558   7.585 -3.7804  1.8024 -1.5550
  945MOL0     H30376   5.743   8.370   7.707 -2.9766 -0.2029 -2.5631
  945MOL0     H30377   5.636   8.490   7.788 -2.4382 -0.2596 -1.5690
  945MOL0     H30378   5.657   8.429   7.502  2.8437  0.1305  1.9387
  945MOL0     H30379   5.582   8.572   7.559  1.6723 -0.3608 -2.6850
  945MOL0     H30380   5.446   8.394   7.723  0.5090  1.0449  0.4409
  945MOL0     H30381   5.508   8.286   7.602  2.8342  0.4729  2.8926
  945MOL0     H30382   5.392   8.400   7.427 -0.5266 -0.0007  0.1400
  945MOL0     H30383   5.284   8.344   7.562  0.9839 -0.9960 -0.0303
  945MOL0     H30384   5.382   8.625   7.510  0.2788  0.4656  1.1185
  945MOL0     H30385   5.288   8.583   7.660 -2.3074 -1.2314 -0.5647
  945MOL0     H30386   5.113   8.487   7.503 -2.8484  0.9004 -1.6234
  945MOL0     H30387   5.186   8.578   7.374  2.7307  1.2310 -0.3458
  945MOL0     H30388   5.024   8.734   7.460 -1.1169 -1.2727  0.5680
  945MOL0     H30389   5.183   8.789   7.515 -1.8571  0.2884  2.5291
  945MOL0     H30390   6.057   8.636   7.993 -3.6835 -1.1340  0.3199
  945MOL0     H30391   6.174   8.837   8.036 -1.4825 -1.4029  1.1342
  945MOL0     H30392   6.278   9.221   7.994 -1.6560  1.3782 -0.6303
  945MOL0     H30393   6.377   9.413   8.065 -1.9501  1.0548 -1.9695
  945MOL0     H30394   7.696  10.624   7.767  2.2575 -1.6984 -1.0536
  945MOL0     H30395   7.468  10.743   7.734 -1.1019 -0.3441 -1.1273
  945MOL0     H30396   7.050  10.723   7.671 -1.5569 -0.3335  0.3094
  945MOL0     H30397   6.838  10.801   7.672  3.7616  3.4524  2.5956
  945MOL0     H30398   6.655  10.967   7.657 -1.1572  1.4071  0.0934
  945MOL0     H30399   6.556  11.033   7.536 -0.4408 -1.0807 -1.3950
  945MOL0     H30400   6.509  10.793   7.662  0.0589 -2.2883  0.2243
  945MOL0     H30401   6.616  10.719   7.565 -3.4176 -2.6109  1.8070
  945MOL0     H30402   6.460  10.841   7.371 -1.5650 -1.5153 -1.6741
  945MOL0     H30403   6.439  10.689   7.430 -0.8367  0.9044 -1.0419
  945MOL0     H30404   6.297  10.930   7.558  1.1012  2.1923 -1.7611
  945MOL0     H30405   6.280  10.760   7.601  1.6932 -0.4366  0.6454
  945MOL0     H30406   6.034  10.782   7.245  0.0380  1.6516 -0.4986
  945MOL0     H30407   6.897  10.936   7.265  1.0103 -0.2086 -0.9342
  945MOL0     H30408   7.214  10.921   7.230  1.1388  0.0717 -1.7742
  945MOL0     H30409   7.177  10.754   7.190  0.9077  0.5580 -0.8680
  945MOL0     H30410   7.072  10.885   7.140 -1.5240  3.9953  3.6374
  946MOL0     O30411   0.230   4.647   6.473  0.6600  0.1137 -0.4711
  946MOL0     C30412   0.256   4.757   6.516  0.0578 -0.5231  0.3902
  946MOL0     O30413   0.378   4.819   6.508 -0.5653 -0.0783 -0.8904
  946MOL0     C30414   0.460   4.811   6.397 -0.2317 -0.0051  0.5394
  946MOL0     C30415   0.435   4.883   6.283 -0.2612  0.3240  0.2200
  946MOL0     C30416   0.526   4.877   6.175 -0.5278  0.3199  0.1484
  946MOL0     C30417   0.645   4.797   6.183  0.7585 -0.4285  1.1057
  946MOL0     O30418   0.731   4.818   6.077  0.0028 -0.6524 -0.0240
  946MOL0     C30419   0.866   4.746   6.078  0.1900 -0.5979  0.6656
  946MOL0     C30420   0.927   4.769   5.936 -0.4478 -0.2468 -0.6861
  946MOL0     C30421   0.838   4.695   5.834  0.1971 -0.2959 -0.9346
  946MOL0     C30422   0.921   4.676   5.713  0.3509  0.0588  0.2080
  946MOL0     C30423   0.825   4.626   5.605 -0.2050 -0.3406  0.2823
  946MOL0     C30424   0.910   4.575   5.494  0.1770  0.3147  0.9671
  946MOL0     C30425   0.989   4.688   5.424  0.6466 -1.4309 -0.7698
  946MOL0     C30426   1.043   4.637   5.293 -0.7409  0.9232 -0.2084
  946MOL0     N30427   1.133   4.733   5.224  0.0051  0.1019 -1.2704
  946MOL0     C30428   1.105   4.867   5.199  0.1710  0.2604 -0.4193
  946MOL0     C30429   1.225   4.908   5.153 -0.1391  0.0732 -0.0414
  946MOL0     C30430   1.246   5.039   5.099 -0.7707  0.6266  0.4480
  946MOL0     C30431   1.366   5.066   5.002 -0.0923  0.1535  0.0372
  946MOL0     C30432   1.500   5.070   5.078 -0.1420 -0.3648 -0.5574
  946MOL0     C30433   1.610   5.129   5.002 -0.9090  0.4338  0.4220
  946MOL0     O30434   1.739   5.123   5.066 -0.0105 -0.2726  0.7339
  946MOL0     C30435   1.845   5.202   5.025 -0.0515 -0.3058 -0.3902
  946MOL0     C30436   1.845   5.280   4.902  0.7381 -0.8458  0.6455
  946MOL0     C30437   1.941   5.377   4.872 -0.0183 -0.0013 -0.0204
  946MOL0     C30438   1.932   5.455   4.745 -0.1605  1.0538 -0.6396
  946MOL0     C30439   2.068   5.372   4.949 -0.7569 -0.3094  0.0109
  946MOL0     C30440   2.188   5.452   4.911 -0.3149 -0.3057 -0.2091
  946MOL0     O30441   2.309   5.416   4.968 -0.2812  0.0673 -0.3865
  946MOL0     C30442   2.416   5.487   4.935  0.0210 -0.0758 -0.0679
  946MOL0     C30443   2.497   5.531   5.043  1.0552 -0.3837  0.3852
  946MOL0     C30444   2.604   5.618   5.023 -0.7618 -0.4695 -0.1400
  946MOL0     C30445   2.660   5.633   4.892 -0.4015  1.2176  0.5555
  946MOL0     O30446   2.773   5.711   4.873  0.2572  0.3328  0.0908
  946MOL0     C30447   2.884   5.656   4.945  0.0647 -0.0262  0.2455
  946MOL0     C30448   2.945   5.748   5.055 -0.0155  0.1252  1.0565
  946MOL0     C30449   3.045   5.660   5.129 -0.0438 -0.0813  0.0096
  946MOL0     C30450   3.126   5.733   5.242  0.2299  0.3170 -1.3496
  946MOL0     C30451   3.190   5.866   5.208 -0.3566  0.4913  0.0146
  946MOL0     C30452   3.282   5.914   5.322  0.4679  0.8479  0.2938
  946MOL0     C30453   3.203   5.971   5.444  0.4788  0.7645 -0.5420
  946MOL0     C30454   3.263   6.083   5.528  0.6472  0.0506 -0.3503
  946MOL0    Cl30455   3.310   6.228   5.429  0.4775  0.2190 -0.1073
  946MOL0     C30456   2.587   5.578   4.781 -0.0008  1.1137 -0.0792
  946MOL0     C30457   2.469   5.503   4.805  0.1925  0.0653  0.0526
  946MOL0     O30458   2.179   5.548   4.832  0.7063 -0.5555  0.3358
  946MOL0     C30459   2.062   5.291   5.059  0.3357 -0.4074 -0.8726
  946MOL0     C30460   1.954   5.219   5.107  0.6445 -0.0203  0.2080
  946MOL0     N30461   1.316   4.804   5.146  0.5668  0.4784  0.5615
  946MOL0     N30462   1.257   4.700   5.186 -0.4648  0.0094  0.0947
  946MOL0     C30463   0.665   4.722   6.299 -0.0774  0.4838 -0.1251
  946MOL0     C30464   0.574   4.728   6.400  0.1988 -0.7122  0.0057
  946MOL0     C30465   0.140   4.811   6.595 -0.2479 -0.4166 -1.2089
  946MOL0     C30466   0.077   4.725   6.687 -0.5441  0.3164  0.4433
  946MOL0     C30467  -0.010   4.775   6.789 -1.1104 -0.5888  0.0462
  946MOL0     C30468  -0.031   4.910   6.799 -0.1912 -0.2114  0.4933
  946MOL0     O30469  -0.115   4.963   6.890 -0.5575  0.2474 -0.4409
  946MOL0     C30470  -0.254   4.938   6.868 -0.8485 -0.3370  1.0415
  946MOL0     C30471  -0.301   5.017   6.743  0.0664  0.0847 -0.0671
  946MOL0     C30472  -0.450   5.003   6.725  0.5040 -0.0411  0.1273
  946MOL0     C30473  -0.504   5.092   6.618  0.1132  0.5712  0.8048
  946MOL0     C30474  -0.649   5.084   6.607 -0.3087 -0.3505  0.0285
  946MOL0     C30475  -0.769   5.068   6.588  0.4750 -0.1975 -0.8111
  946MOL0     C30476   0.033   4.996   6.716 -0.7529 -0.4560  0.6206
  946MOL0     C30477   0.122   4.952   6.616 -0.3448 -0.3329 -0.4669
  946MOL0     C30478   0.174   5.054   6.514  0.6447 -0.5723  0.3966
  946MOL0     H30479   0.353   4.954   6.272  0.7470  1.4538 -0.2364
  946MOL0     H30480   0.515   4.949   6.095  0.3526  1.6147  1.1570
  946MOL0     H30481   0.866   4.643   6.115 -0.6611 -0.0488  2.3171
  946MOL0     H30482   0.938   4.795   6.145  0.2117 -0.6999  0.7174
  946MOL0     H30483   0.926   4.879   5.933 -0.9798 -0.1776  1.1808
  946MOL0     H30484   1.028   4.728   5.939 -0.1581  0.4721  1.6010
  946MOL0     H30485   0.812   4.598   5.875  0.5462  0.4733  1.2463
  946MOL0     H30486   0.748   4.756   5.819  2.0125  3.0897  0.6637
  946MOL0     H30487   0.969   4.765   5.671  1.3926 -0.3139  0.5758
  946MOL0     H30488   0.986   4.589   5.728 -1.5956 -1.5791 -0.4935
  946MOL0     H30489   0.771   4.708   5.556  0.7662 -0.3395 -0.8557
  946MOL0     H30490   0.760   4.547   5.641 -0.2897 -0.9109 -1.0491
  946MOL0     H30491   0.964   4.490   5.536 -1.7120 -0.8024  1.2430
  946MOL0     H30492   0.839   4.538   5.419  0.4133  1.2714  0.2476
  946MOL0     H30493   1.068   4.726   5.490 -0.1695 -2.8957  1.1788
  946MOL0     H30494   0.923   4.773   5.407  1.0783 -0.6187  1.2964
  946MOL0     H30495   1.097   4.545   5.320 -0.6099  1.1495  0.3089
  946MOL0     H30496   0.956   4.619   5.229  0.1540  0.5804 -1.3815
  946MOL0     H30497   1.007   4.913   5.204  0.5908  1.3203 -1.4854
  946MOL0     H30498   1.263   5.107   5.183 -0.3462  0.4100  0.5372
  946MOL0     H30499   1.160   5.069   5.038 -1.0566 -1.4165 -0.2244
  946MOL0     H30500   1.358   4.990   4.923  0.6844 -0.2125  0.2935
  946MOL0     H30501   1.348   5.165   4.960  0.1284  0.6801  1.1555
  946MOL0     H30502   1.480   5.145   5.154 -0.7730 -0.1369 -0.9397
  946MOL0     H30503   1.525   4.968   5.108 -0.5658 -0.5650 -0.8649
  946MOL0     H30504   1.609   5.076   4.906 -1.9459  0.9053  0.1658
  946MOL0     H30505   1.597   5.235   4.980  0.8331  0.4784 -0.5794
  946MOL0     H30506   1.759   5.272   4.836  1.7552 -0.0325 -0.8557
  946MOL0     H30507   1.855   5.420   4.676 -1.3924 -1.7499  1.9110
  946MOL0     H30508   2.020   5.427   4.686  0.0486  2.0330 -0.7940
  946MOL0     H30509   1.911   5.561   4.759 -1.8687  1.1293 -3.0777
  946MOL0     H30510   2.470   5.513   5.147  4.5094 -0.6731  1.3766
  946MOL0     H30511   2.658   5.659   5.109 -0.8951  1.3168 -0.8671
  946MOL0     H30512   2.856   5.558   4.985  0.5833  0.6529  2.4557
  946MOL0     H30513   2.959   5.637   4.868  1.4483  0.8630  1.3127
  946MOL0     H30514   3.000   5.828   5.005 -0.1555 -0.5522 -0.2279
  946MOL0     H30515   2.873   5.773   5.134 -2.3777 -2.6477 -0.0370
  946MOL0     H30516   3.124   5.623   5.063  0.2075  0.7784 -0.1836
  946MOL0     H30517   2.987   5.574   5.164 -0.0842  0.6005  1.6780
  946MOL0     H30518   3.203   5.659   5.266  0.3683  0.5790 -0.9740
  946MOL0     H30519   3.057   5.746   5.325  0.8252  0.8959 -0.9305
  946MOL0     H30520   3.255   5.850   5.122 -2.3884 -1.9646 -1.1783
  946MOL0     H30521   3.108   5.935   5.187 -1.1918 -0.4855  0.0176
  946MOL0     H30522   3.334   6.001   5.280 -1.6622  1.9794 -0.1311
  946MOL0     H30523   3.357   5.842   5.356  0.0863  0.1162 -0.3870
  946MOL0     H30524   3.186   5.889   5.514  0.5002  0.6589 -0.6606
  946MOL0     H30525   3.105   6.006   5.410 -1.4591 -4.0125 -0.5733
  946MOL0     H30526   3.355   6.046   5.575 -1.2094 -4.6193  0.1462
  946MOL0     H30527   3.189   6.107   5.605  1.2474 -1.0829  0.6131
  946MOL0     H30528   2.613   5.586   4.676 -4.7158 -0.6208 -1.6265
  946MOL0     H30529   2.412   5.465   4.720 -0.3874  0.0126  0.4587
  946MOL0     H30530   2.145   5.304   5.128 -1.0639 -0.6502  0.9260
  946MOL0     H30531   1.938   5.180   5.207  0.0343  1.1579  0.5810
  946MOL0     H30532   0.741   4.644   6.302  0.5696  1.1116  0.2440
  946MOL0     H30533   0.589   4.670   6.491  1.0589  0.8303  0.8880
  946MOL0     H30534   0.100   4.620   6.674  0.9205  0.8029 -1.3701
  946MOL0     H30535  -0.046   4.706   6.864 -1.1526 -1.1899 -0.5189
  946MOL0     H30536  -0.265   4.830   6.857 -0.8701 -0.0521 -3.1184
  946MOL0     H30537  -0.316   4.969   6.954 -1.1431 -0.2066  0.7859
  946MOL0     H30538  -0.261   4.988   6.646 -1.3017 -0.7935 -0.4026
  946MOL0     H30539  -0.260   5.116   6.764  0.9016 -0.3443  0.3556
  946MOL0     H30540  -0.463   4.898   6.699 -1.1097 -0.2453  1.5387
  946MOL0     H30541  -0.509   5.022   6.816 -0.4135 -0.3691 -0.3909
  946MOL0     H30542  -0.452   5.067   6.525 -1.6791  1.6745 -0.5575
  946MOL0     H30543  -0.467   5.194   6.635  0.3071  0.7710 -0.6990
  946MOL0     H30544  -0.872   5.063   6.560 -0.6675 -2.1294  3.0315
  946MOL0     H30545   0.016   5.102   6.732 -0.5952  0.0756 -2.1993
  946MOL0     H30546   0.282   5.046   6.500  0.7431 -3.0085  1.8650
  946MOL0     H30547   0.122   5.039   6.419 -0.6968  0.4463  0.9296
  946MOL0     H30548   0.162   5.157   6.549  0.5123 -0.3337 -0.3435
  947MOL0     O30549   7.879   6.481   9.566  0.0667  0.0469 -0.0210
  947MOL0     C30550   7.791   6.534   9.637 -0.5181 -1.2760  0.3594
  947MOL0     O30551   7.822   6.643   9.725  0.1446  0.1309  0.6592
  947MOL0     C30552   7.948   6.649   9.775  0.2686  0.6930  0.3167
  947MOL0     C30553   8.044   6.731   9.730 -0.1529 -0.2779  0.8485
  947MOL0     C30554   8.166   6.729   9.791 -0.2386 -0.3481 -0.4251
  947MOL0     C30555   8.186   6.653   9.906 -0.5425 -0.6440 -0.2981
  947MOL0     O30556   8.305   6.647   9.972 -0.0885  0.2498 -0.3042
  947MOL0     C30557   8.370   6.773  10.001 -0.3265  0.3337 -0.2218
  947MOL0     C30558   8.461   6.747  10.128  0.5523 -0.1661  0.1988
  947MOL0     C30559   8.524   6.883  10.177  0.3539 -0.2841  0.5133
  947MOL0     C30560   8.605   6.850  10.301 -0.0451  0.3945  0.8775
  947MOL0     C30561   8.715   6.955  10.328 -0.8153  1.0962 -0.7635
  947MOL0     C30562   8.778   6.935  10.465 -0.2445 -1.3737  0.3324
  947MOL0     C30563   8.821   7.056  10.537 -0.0358  0.8994  0.0114
  947MOL0     C30564   8.946   7.032  10.621  0.3177  0.5722  0.6286
  947MOL0     N30565   8.983   7.159  10.693 -0.3961 -0.4018  1.5253
  947MOL0     C30566   8.905   7.247  10.760 -0.8977 -0.5894  0.3601
  947MOL0     C30567   8.994   7.332  10.815 -0.7422  0.8484 -0.1341
  947MOL0     C30568   8.960   7.430  10.927  0.1634 -0.3663  0.4124
  947MOL0     C30569   8.908   7.558  10.863 -0.7564 -1.0997  0.5905
  947MOL0     C30570   8.759   7.567  10.824 -0.0740  0.1949  0.6316
  947MOL0     C30571   8.657   7.510  10.917  0.3086 -0.1919 -0.7083
  947MOL0     O30572   8.532   7.516  10.844 -0.2576  0.1651 -0.2303
  947MOL0     C30573   8.439   7.606  10.881  0.0065  0.6449 -0.5004
  947MOL0     C30574   8.395   7.640  11.008  0.3514 -0.3107 -0.7303
  947MOL0     C30575   8.283   7.725  11.038 -0.2896 -0.3230  0.3970
  947MOL0     C30576   8.259   7.760  11.182  0.1256  0.6808  0.3792
  947MOL0     C30577   8.212   7.778  10.930  0.5818 -0.1683 -0.4848
  947MOL0     C30578   8.081   7.851  10.942  0.0636  0.3723 -0.1054
  947MOL0     O30579   8.032   7.896  10.826  0.3875  0.3726 -0.2415
  947MOL0     C30580   7.904   7.945  10.828  0.1609  0.1394  0.5514
  947MOL0     C30581   7.890   8.070  10.771 -0.7614  0.3729 -0.5451
  947MOL0     C30582   7.767   8.128  10.764  0.3511  0.7068  0.5008
  947MOL0     C30583   7.648   8.063  10.818 -0.3276  0.0615  0.5412
  947MOL0     O30584   7.522   8.116  10.813  0.4280 -0.3429 -0.1846
  947MOL0     C30585   7.496   8.259  10.805  0.4841  0.1688 -0.7362
  947MOL0     C30586   7.346   8.295  10.804  0.4514  0.8399 -0.0256
  947MOL0     C30587   7.285   8.263  10.668 -0.9054  0.8704  0.2755
  947MOL0     C30588   7.324   8.360  10.560 -0.4752 -0.1339 -0.1716
  947MOL0     C30589   7.222   8.373  10.442 -0.6195 -0.5117 -0.2376
  947MOL0     C30590   7.094   8.440  10.488  0.1657 -0.3637 -0.2115
  947MOL0     C30591   7.000   8.467  10.373  0.4305 -0.2615  0.5052
  947MOL0     C30592   6.925   8.336  10.330  0.2576 -0.7402  0.6597
  947MOL0    Cl30593   6.787   8.294  10.434  0.1413  0.0183  0.4744
  947MOL0     C30594   7.669   7.933  10.868 -0.0513 -0.2409 -0.3103
  947MOL0     C30595   7.790   7.880  10.883  0.0575 -0.5204 -0.0536
  947MOL0     O30596   8.031   7.871  11.049  0.1004 -0.2512 -0.3039
  947MOL0     C30597   8.258   7.745  10.800  1.7393 -0.5102 -0.0532
  947MOL0     C30598   8.362   7.661  10.774 -0.2105  0.3121 -0.0171
  947MOL0     N30599   9.122   7.300  10.776 -0.8790  0.0232 -0.0553
  947MOL0     N30600   9.110   7.197  10.697  0.1558  0.0372 -0.7944
  947MOL0     C30601   8.089   6.574   9.960 -0.2860 -0.0398  0.3679
  947MOL0     C30602   7.965   6.571   9.888 -0.7915  0.4646 -0.6448
  947MOL0     C30603   7.644   6.504   9.599 -0.8346 -0.1413  0.2631
  947MOL0     C30604   7.608   6.498   9.461 -0.1374  0.3452  0.0429
  947MOL0     C30605   7.476   6.474   9.424  1.1195 -0.4248  0.2376
  947MOL0     C30606   7.383   6.455   9.528 -0.1606 -0.1985  0.7792
  947MOL0     O30607   7.257   6.407   9.503 -0.0799 -0.2524 -0.1326
  947MOL0     C30608   7.162   6.506   9.460  0.2234 -0.3121  0.7591
  947MOL0     C30609   7.048   6.510   9.565 -0.4348  0.7196  0.7182
  947MOL0     C30610   6.942   6.601   9.512  0.2438 -0.5452  0.6563
  947MOL0     C30611   6.820   6.598   9.609 -0.4461 -0.0375 -0.9121
  947MOL0     C30612   6.709   6.651   9.539 -0.1193  0.6648 -0.3023
  947MOL0     C30613   6.617   6.687   9.469  0.2655  0.6839  0.1547
  947MOL0     C30614   7.412   6.467   9.662 -0.9310 -0.4371  0.1586
  947MOL0     C30615   7.547   6.493   9.702  0.2427  0.4160  0.1061
  947MOL0     C30616   7.581   6.491   9.852  0.1966 -0.4269  0.2366
  947MOL0     H30617   8.036   6.798   9.645  1.2111 -0.3167  0.6530
  947MOL0     H30618   8.247   6.789   9.751 -1.2059  0.5092 -1.1544
  947MOL0     H30619   8.293   6.845  10.030 -0.7269  0.1027 -0.6927
  947MOL0     H30620   8.430   6.814   9.919  0.4473 -0.0060  0.1686
  947MOL0     H30621   8.396   6.695  10.199 -0.9131  3.4610  1.7859
  947MOL0     H30622   8.543   6.683  10.094 -0.7788 -1.4672 -0.6806
  947MOL0     H30623   8.589   6.918  10.096 -0.0188 -2.7995 -0.9491
  947MOL0     H30624   8.450   6.957  10.209  1.6509  0.8311  1.0404
  947MOL0     H30625   8.532   6.842  10.382 -1.5504  2.0181 -0.2744
  947MOL0     H30626   8.656   6.753  10.298  1.1693  1.0126  0.8901
  947MOL0     H30627   8.670   7.054  10.335 -0.7401  1.0216  1.5343
  947MOL0     H30628   8.788   6.956  10.247  0.2495 -0.4479  0.1279
  947MOL0     H30629   8.702   6.895  10.533 -0.9403  0.8828  0.9714
  947MOL0     H30630   8.862   6.865  10.466 -1.2230 -2.5763  1.6497
  947MOL0     H30631   8.740   7.095  10.599 -0.8254 -1.5338  0.5874
  947MOL0     H30632   8.846   7.134  10.464 -1.0128 -0.3136 -1.6740
  947MOL0     H30633   8.921   6.953  10.693  0.3109 -0.4889 -0.4923
  947MOL0     H30634   9.032   6.996  10.562  1.5525 -2.7071  4.0069
  947MOL0     H30635   8.799   7.238  10.782 -1.0415 -3.5565 -1.1006
  947MOL0     H30636   9.048   7.446  10.990  0.0756  2.3294  0.0017
  947MOL0     H30637   8.882   7.396  10.995 -1.6441  3.0970  0.2750
  947MOL0     H30638   8.922   7.647  10.925 -0.9813  0.8260 -1.9559
  947MOL0     H30639   8.968   7.571  10.772  0.8925 -1.6114  1.5611
  947MOL0     H30640   8.728   7.666  10.788 -0.1129 -0.1248 -0.2218
  947MOL0     H30641   8.751   7.508  10.733  3.1647 -0.0101  0.3614
  947MOL0     H30642   8.682   7.408  10.948  1.8955  1.7944  6.3376
  947MOL0     H30643   8.654   7.572  11.008  2.5746 -0.4159 -0.4240
  947MOL0     H30644   8.441   7.594  11.095  1.2763 -2.4266 -2.2618
  947MOL0     H30645   8.200   7.683  11.233  1.5949 -1.3909 -0.9247
  947MOL0     H30646   8.206   7.854  11.204  0.4151  0.0460  4.7587
  947MOL0     H30647   8.354   7.780  11.233 -0.2671  2.3040  0.5482
  947MOL0     H30648   7.976   8.123  10.732  0.2628  0.2624  1.4474
  947MOL0     H30649   7.764   8.222  10.710 -1.3277 -0.3272 -1.3120
  947MOL0     H30650   7.540   8.310  10.891  1.0850 -1.8073  0.1994
  947MOL0     H30651   7.543   8.307  10.719  2.0338 -0.1809 -0.1242
  947MOL0     H30652   7.295   8.234  10.880 -0.4412  1.9264  0.2780
  947MOL0     H30653   7.335   8.402  10.827  1.5012  0.6439  1.6089
  947MOL0     H30654   7.177   8.267  10.685 -1.2700 -1.4335 -1.1125
  947MOL0     H30655   7.317   8.160  10.649 -0.1561  1.1460 -0.0154
  947MOL0     H30656   7.418   8.335  10.510 -2.2001 -0.9895 -3.2909
  947MOL0     H30657   7.333   8.458  10.609  1.7873 -0.4353  0.1192
  947MOL0     H30658   7.280   8.421  10.363  1.3887  0.2411  1.5927
  947MOL0     H30659   7.193   8.272  10.412  1.8194 -1.9331  1.8352
  947MOL0     H30660   7.122   8.538  10.528  0.8851 -0.6168 -0.0816
  947MOL0     H30661   7.046   8.390  10.571  0.4617  0.1163  0.2552
  947MOL0     H30662   7.048   8.510  10.283 -0.5220 -0.0305  0.0964
  947MOL0     H30663   6.940   8.550  10.412  1.1137  0.7555 -0.5040
  947MOL0     H30664   6.989   8.248  10.327  0.6435 -0.5042  1.7528
  947MOL0     H30665   6.883   8.343  10.229 -2.8690  0.6340  1.9121
  947MOL0     H30666   7.585   7.869  10.892 -0.0807 -0.1520 -0.1794
  947MOL0     H30667   7.806   7.780  10.923  1.2715 -0.1517  0.4309
  947MOL0     H30668   8.210   7.780  10.709  1.5028  0.6052  0.4891
  947MOL0     H30669   8.382   7.634  10.671 -0.8682 -1.3489  0.2570
  947MOL0     H30670   8.103   6.513  10.049 -1.6394 -0.0343  0.6030
  947MOL0     H30671   7.884   6.516   9.936  0.0211  0.5956  0.9492
  947MOL0     H30672   7.684   6.534   9.392  0.7758  1.4221  1.5372
  947MOL0     H30673   7.442   6.470   9.321 -3.5021 -1.9222  1.5923
  947MOL0     H30674   7.208   6.605   9.459 -0.4994  0.1574  3.6533
  947MOL0     H30675   7.121   6.475   9.364 -0.3219 -0.7520  1.1265
  947MOL0     H30676   7.075   6.541   9.666  2.3470 -2.5915  1.1766
  947MOL0     H30677   7.004   6.410   9.573  0.3550  0.4477  1.7529
  947MOL0     H30678   6.991   6.697   9.492  0.9619 -0.7482  1.3866
  947MOL0     H30679   6.912   6.556   9.418  2.2511 -0.4212 -0.0932
  947MOL0     H30680   6.842   6.672   9.687 -0.3150 -2.3609  1.4280
  947MOL0     H30681   6.799   6.505   9.662  1.0915  1.6042  2.9948
  947MOL0     H30682   6.533   6.719   9.410  0.9046  0.7143 -0.7707
  947MOL0     H30683   7.333   6.447   9.733  0.6853 -0.4086  2.0452
  947MOL0     H30684   7.666   6.421   9.853  2.3887  2.0454  2.3338
  947MOL0     H30685   7.618   6.584   9.896  0.8459 -0.9058  0.7325
  947MOL0     H30686   7.499   6.448   9.911  2.6600 -2.6168  2.4013
  948MOL0     O30687  10.255   0.333   4.319  0.5745 -0.0756 -0.2689
  948MOL0     C30688  10.305   0.447   4.349 -0.2389  0.1325  0.0031
  948MOL0     O30689  10.265   0.570   4.306  0.5813 -0.0759 -0.4531
  948MOL0     C30690  10.150   0.593   4.222 -0.0437 -0.3456  0.0513
  948MOL0     C30691  10.162   0.689   4.116  0.3321 -1.2280 -0.2334
  948MOL0     C30692  10.068   0.700   4.024  0.5693  0.3416  1.1998
  948MOL0     C30693   9.950   0.633   4.024  0.9542  1.2891  0.5984
  948MOL0     O30694   9.855   0.661   3.918  0.2507 -0.3781 -1.5711
  948MOL0     C30695   9.724   0.604   3.939  0.6751  0.2858 -0.9628
  948MOL0     C30696   9.651   0.620   3.801  0.4329  0.2628 -0.8173
  948MOL0     C30697   9.642   0.489   3.732 -0.1447 -0.0586  0.4938
  948MOL0     C30698   9.554   0.381   3.799 -0.1078 -0.1958 -0.4885
  948MOL0     C30699   9.563   0.260   3.717  0.0621 -0.1735 -0.5833
  948MOL0     C30700   9.475   0.147   3.777  0.2459 -0.2189 -0.7710
  948MOL0     C30701   9.466   0.028   3.677 -0.0818  0.7612  0.1074
  948MOL0     C30702   9.408   0.057   3.537 -0.7966 -0.4948 -0.9386
  948MOL0     N30703   9.269   0.091   3.550  0.2634 -0.1145  0.2169
  948MOL0     C30704   9.163   0.009   3.581  0.2297 -0.4854  0.7231
  948MOL0     C30705   9.058   0.096   3.574 -0.0959  0.4357  0.5893
  948MOL0     C30706   8.910   0.054   3.602 -0.0723  0.2878 -0.7513
  948MOL0     C30707   8.857  -0.049   3.503  0.2653 -0.1904  1.3554
  948MOL0     C30708   8.841   0.014   3.360 -0.3069 -0.3072 -0.6383
  948MOL0     C30709   8.751  -0.081   3.281 -0.4311  0.1248  0.3304
  948MOL0     O30710   8.731  -0.035   3.142 -0.2834  0.3435 -0.2504
  948MOL0     C30711   8.803  -0.091   3.044  0.2412 -0.1672 -0.1147
  948MOL0     C30712   8.868  -0.008   2.963  0.5848  0.4395  0.5245
  948MOL0     C30713   8.932  -0.057   2.849  0.3406 -0.0903  0.2328
  948MOL0     C30714   9.017   0.033   2.762  0.3012 -0.2487  0.1028
  948MOL0     C30715   8.936  -0.200   2.823  0.2298  0.5159 -0.4949
  948MOL0     C30716   9.030  -0.260   2.716  0.5094 -1.2570  0.7699
  948MOL0     O30717   9.075  -0.380   2.746 -0.4141  0.1712 -0.1300
  948MOL0     C30718   9.161  -0.451   2.662  0.0721  0.2549 -1.0557
  948MOL0     C30719   9.124  -0.556   2.575  0.7416 -0.0982  0.1428
  948MOL0     C30720   9.220  -0.626   2.489  0.4922  0.0939  0.3407
  948MOL0     C30721   9.348  -0.602   2.494 -0.2166 -0.6919 -1.0188
  948MOL0     O30722   9.434  -0.672   2.417  0.4008 -0.1627  0.3008
  948MOL0     C30723   9.569  -0.703   2.470 -0.2346 -0.3732  0.1827
  948MOL0     C30724   9.614  -0.838   2.405  0.6222  0.2034 -0.2392
  948MOL0     C30725   9.733  -0.911   2.478 -0.1582  0.3109 -1.0286
  948MOL0     C30726   9.864  -0.843   2.441  0.6761  0.0896 -0.5854
  948MOL0     C30727   9.971  -0.925   2.517 -0.1155 -0.3766  0.0678
  948MOL0     C30728  10.107  -0.871   2.469  0.2694  1.7258 -0.7773
  948MOL0     C30729  10.223  -0.938   2.550 -0.1616 -0.3071  0.9523
  948MOL0     C30730  10.234  -0.896   2.693  0.8351 -1.1951  0.7091
  948MOL0    Cl30731  10.375  -0.997   2.745  0.3301  0.1793 -0.1650
  948MOL0     C30732   9.391  -0.500   2.584 -0.1122  0.4634 -0.7800
  948MOL0     C30733   9.298  -0.428   2.666 -0.3836 -0.3684 -0.9469
  948MOL0     O30734   9.071  -0.190   2.622  0.2198  0.0917 -0.3588
  948MOL0     C30735   8.872  -0.281   2.918 -0.2773 -0.7587  0.0611
  948MOL0     C30736   8.793  -0.222   3.014  0.4326 -0.9983 -0.0932
  948MOL0     N30737   9.103   0.221   3.545  0.9782 -0.1092 -0.3074
  948MOL0     N30738   9.232   0.219   3.538 -0.9790  0.5692 -0.0285
  948MOL0     C30739   9.936   0.532   4.122 -0.4360  0.5625 -0.3911
  948MOL0     C30740  10.036   0.509   4.224  0.4995 -0.4874  0.0938
  948MOL0     C30741  10.399   0.455   4.452  0.1851  0.2876 -0.1589
  948MOL0     C30742  10.402   0.574   4.535 -0.3556  0.9528  0.4168
  948MOL0     C30743  10.498   0.576   4.638  0.7132  0.3497  0.4516
  948MOL0     C30744  10.580   0.473   4.667  0.5576  0.7239 -1.1847
  948MOL0     O30745  10.653   0.483   4.784  0.3034  0.0691 -0.1620
  948MOL0     C30746  10.743   0.368   4.817  0.8070 -0.5208  0.3190
  948MOL0     C30747  10.828   0.392   4.943  0.3805  0.2566 -0.3004
  948MOL0     C30748  10.768   0.324   5.067 -0.2891 -0.1149  0.2166
  948MOL0     C30749  10.662   0.400   5.151 -0.5311  0.6392  0.5330
  948MOL0     C30750  10.740   0.518   5.208 -0.4711  0.3800 -0.4762
  948MOL0     C30751  10.796   0.611   5.269 -0.0566 -0.1801 -0.4534
  948MOL0     C30752  10.580   0.364   4.584  0.6493  0.6863  0.0947
  948MOL0     C30753  10.494   0.353   4.471 -1.1947 -0.7617 -0.4025
  948MOL0     C30754  10.512   0.247   4.366  1.0613 -0.4820  0.0850
  948MOL0     H30755  10.251   0.751   4.117  0.1432 -0.7957 -2.6373
  948MOL0     H30756  10.074   0.772   3.943  1.5845  1.7842  2.4869
  948MOL0     H30757   9.676   0.660   4.020 -1.9821 -1.7708 -0.9945
  948MOL0     H30758   9.724   0.499   3.969  0.3706  0.3518 -0.7277
  948MOL0     H30759   9.559   0.672   3.828  1.4033  1.6777 -0.1064
  948MOL0     H30760   9.690   0.699   3.737  0.9337  0.1171 -0.6995
  948MOL0     H30761   9.608   0.500   3.629 -0.4844 -1.5121  0.4331
  948MOL0     H30762   9.741   0.442   3.732 -0.1767 -0.1955 -1.1176
  948MOL0     H30763   9.569   0.374   3.907 -1.7163  1.1216 -0.1300
  948MOL0     H30764   9.451   0.418   3.793 -0.5928 -1.6024 -1.3488
  948MOL0     H30765   9.664   0.218   3.720 -0.2905 -1.0219 -0.0475
  948MOL0     H30766   9.545   0.287   3.613 -2.6698 -0.8788 -0.3550
  948MOL0     H30767   9.523   0.118   3.871  0.9075  1.0005 -0.7042
  948MOL0     H30768   9.373   0.181   3.795  1.9090  3.4053  4.1258
  948MOL0     H30769   9.401  -0.050   3.715 -1.8076  0.4803 -3.0818
  948MOL0     H30770   9.570  -0.004   3.665 -0.4198 -0.7991  1.1733
  948MOL0     H30771   9.459   0.136   3.482 -3.7522  0.4312 -2.5911
  948MOL0     H30772   9.419  -0.037   3.482 -0.3367 -0.5070 -0.8251
  948MOL0     H30773   9.168  -0.096   3.607  0.6198 -0.5864  0.2515
  948MOL0     H30774   8.856   0.149   3.609  1.5742  1.5601 -3.6567
  948MOL0     H30775   8.906   0.003   3.699 -1.1394 -0.9319 -1.3916
  948MOL0     H30776   8.931  -0.129   3.503  1.3259  0.7130 -0.5868
  948MOL0     H30777   8.766  -0.091   3.547  0.0086 -1.8555 -0.5962
  948MOL0     H30778   8.784   0.107   3.362  0.8626  0.5814 -3.6757
  948MOL0     H30779   8.941   0.019   3.316  0.6518 -1.0400  1.3180
  948MOL0     H30780   8.803  -0.177   3.282  1.1315  0.9287 -0.0604
  948MOL0     H30781   8.652  -0.089   3.327 -1.6231  2.2592 -1.6579
  948MOL0     H30782   8.855   0.099   2.977 -3.3715  0.5770 -2.4666
  948MOL0     H30783   9.122   0.005   2.774  0.3744 -0.0764 -0.1268
  948MOL0     H30784   9.016   0.138   2.794  1.6524  0.4611 -1.9634
  948MOL0     H30785   8.982   0.033   2.659  0.4059  0.4729  0.0598
  948MOL0     H30786   9.023  -0.593   2.582  1.1550 -1.1344  0.9645
  948MOL0     H30787   9.174  -0.712   2.441  1.1261 -0.9029  1.4661
  948MOL0     H30788   9.641  -0.623   2.449  0.2710 -0.6149  0.9287
  948MOL0     H30789   9.575  -0.715   2.579 -2.3032  0.6518  0.4507
  948MOL0     H30790   9.524  -0.899   2.408  0.9935 -0.5035 -1.9036
  948MOL0     H30791   9.636  -0.816   2.300 -2.6564  2.6098 -0.5664
  948MOL0     H30792   9.748  -1.017   2.457  0.1454  0.2606 -0.5783
  948MOL0     H30793   9.705  -0.913   2.583  3.1617 -2.4484 -0.0452
  948MOL0     H30794   9.861  -0.737   2.468  1.9084 -0.0917  0.3629
  948MOL0     H30795   9.880  -0.841   2.333 -1.4829  0.6280 -0.9245
  948MOL0     H30796   9.959  -0.922   2.625  1.3592  4.3994  0.3457
  948MOL0     H30797   9.965  -1.026   2.476  0.3107 -0.4927  0.2878
  948MOL0     H30798  10.111  -0.762   2.462 -2.8818  1.9021 -1.7786
  948MOL0     H30799  10.116  -0.911   2.368  0.0386  2.3059 -1.0337
  948MOL0     H30800  10.319  -0.906   2.509 -1.8823  2.0260 -1.6423
  948MOL0     H30801  10.211  -1.047   2.555 -1.3600 -0.1982  0.9044
  948MOL0     H30802  10.145  -0.896   2.756 -0.3937  1.1673 -0.8730
  948MOL0     H30803  10.267  -0.792   2.689  1.0231 -1.2709  0.1902
  948MOL0     H30804   9.494  -0.476   2.607 -0.3522  1.3580 -0.5723
  948MOL0     H30805   9.323  -0.340   2.724  0.8588  0.2606 -2.3930
  948MOL0     H30806   8.859  -0.389   2.918 -2.2390 -0.5623  0.1025
  948MOL0     H30807   8.731  -0.278   3.084  3.9688 -0.2663  4.0545
  948MOL0     H30808   9.856   0.459   4.120  0.5927 -0.5718 -1.1152
  948MOL0     H30809  10.024   0.438   4.305  2.9646  0.6399  1.5588
  948MOL0     H30810  10.344   0.661   4.507 -1.1937  1.0074  2.1616
  948MOL0     H30811  10.507   0.664   4.700  1.0520  0.7087 -0.1019
  948MOL0     H30812  10.691   0.272   4.830 -1.7688  0.7298 -0.1608
  948MOL0     H30813  10.810   0.365   4.731 -0.2174 -1.2079 -0.4834
  948MOL0     H30814  10.854   0.498   4.958  1.4500  0.0154 -0.3380
  948MOL0     H30815  10.918   0.334   4.923 -0.3492 -0.1236 -2.8671
  948MOL0     H30816  10.728   0.227   5.034 -1.3133 -0.1990  1.6097
  948MOL0     H30817  10.845   0.304   5.142 -0.1680  0.1273  0.1573
  948MOL0     H30818  10.635   0.331   5.232 -2.4691  1.4412  0.6177
  948MOL0     H30819  10.576   0.428   5.090  0.8565 -1.4830 -2.6862
  948MOL0     H30820  10.856   0.678   5.327  0.5657  0.7269 -2.0950
  948MOL0     H30821  10.637   0.274   4.606 -1.4752 -0.6501  0.3609
  948MOL0     H30822  10.426   0.181   4.376  2.3050 -1.9436  1.5413
  948MOL0     H30823  10.521   0.297   4.269  2.9281  1.9558  1.4093
  948MOL0     H30824  10.594   0.179   4.388  0.8585 -1.0178 -0.7447
  949MOL0     O30825   2.196  11.244   5.312 -0.4781  0.2155 -0.0523
  949MOL0     C30826   2.203  11.312   5.413 -0.7860  0.0129  0.4679
  949MOL0     O30827   2.319  11.328   5.482 -0.5374 -0.2165 -0.8681
  949MOL0     C30828   2.429  11.256   5.451 -0.2834  0.2569  0.6069
  949MOL0     C30829   2.454  11.128   5.509 -0.2232 -0.1601 -0.2614
  949MOL0     C30830   2.564  11.059   5.468 -0.6471 -0.0756  0.5881
  949MOL0     C30831   2.664  11.113   5.387  0.1727 -0.0467 -0.3966
  949MOL0     O30832   2.777  11.051   5.354 -0.3116 -0.0677  0.4099
  949MOL0     C30833   2.850  10.957   5.441  0.0572  0.4412  0.1791
  949MOL0     C30834   2.912  11.019   5.562 -0.3926  0.4606  0.6258
  949MOL0     C30835   2.999  10.922   5.653 -0.5238 -0.7975  1.2268
  949MOL0     C30836   3.128  10.870   5.576  0.0551 -0.1690 -0.1019
  949MOL0     C30837   3.202  10.756   5.647  0.3445  0.4266  0.1478
  949MOL0     C30838   3.267  10.810   5.773  0.0631 -0.1529  0.4508
  949MOL0     C30839   3.322  10.698   5.861 -0.3013 -0.0135  0.3690
  949MOL0     C30840   3.383  10.742   5.993  0.0920 -0.2900 -0.2821
  949MOL0     N30841   3.487  10.843   5.994 -0.3026 -0.5727 -0.5470
  949MOL0     C30842   3.540  10.891   6.111  0.2920  0.2775 -0.4905
  949MOL0     C30843   3.654  10.950   6.079 -0.5024  0.5178 -0.6041
  949MOL0     C30844   3.750  11.006   6.185  0.0267  0.5457  0.4928
  949MOL0     C30845   3.722  11.141   6.238  0.3054 -0.4054 -0.2558
  949MOL0     C30846   3.816  11.179   6.363 -0.3631 -0.8140 -1.0485
  949MOL0     C30847   3.802  11.336   6.400 -0.3768  0.3564  0.5260
  949MOL0     O30848   3.874  11.377   6.518 -0.4321  0.9598 -0.6378
  949MOL0     C30849   4.000  11.432   6.493  0.1829 -0.2402 -0.0917
  949MOL0     C30850   4.097  11.340   6.493  0.1611  0.0852 -0.0002
  949MOL0     C30851   4.224  11.383   6.494 -0.5139 -0.1332 -0.5032
  949MOL0     C30852   4.319  11.268   6.477  0.1788  0.1661 -0.1588
  949MOL0     C30853   4.257  11.522   6.484 -0.0510 -0.1686  0.7382
  949MOL0     C30854   4.401  11.569   6.484 -0.1488 -0.5636 -0.4304
  949MOL0     O30855   4.510  11.481   6.504 -0.1713 -0.5270 -1.2345
  949MOL0     C30856   4.627  11.543   6.520 -0.9984  0.5321  1.1200
  949MOL0     C30857   4.703  11.595   6.413  0.6384 -1.2281 -0.3005
  949MOL0     C30858   4.820  11.660   6.437 -0.4878  0.1126  0.8702
  949MOL0     C30859   4.850  11.691   6.568 -0.6780  0.4862  0.2644
  949MOL0     O30860   4.948  11.784   6.596 -0.6388 -0.0659  0.4827
  949MOL0     C30861   5.078  11.717   6.578  0.2217  0.1531  0.2163
  949MOL0     C30862   5.198  11.807   6.598  0.5624  0.5537 -0.2362
  949MOL0     C30863   5.193  11.882   6.732 -0.4866  1.2229 -1.0678
  949MOL0     C30864   5.222  11.802   6.856  0.7338  0.1549  1.0653
  949MOL0     C30865   5.218  11.893   6.982 -0.2096 -0.5412 -1.1687
  949MOL0     C30866   5.278  11.824   7.102  0.2431  0.0504 -0.3157
  949MOL0     C30867   5.429  11.852   7.113  0.5625 -0.7157 -0.4804
  949MOL0     C30868   5.491  11.727   7.169 -0.5826  0.0260  0.9600
  949MOL0    Cl30869   5.662  11.759   7.222 -0.4452 -0.0961 -0.6910
  949MOL0     C30870   4.782  11.645   6.677  0.2037  0.8525  0.0552
  949MOL0     C30871   4.672  11.565   6.650 -0.4490 -0.0654 -0.2305
  949MOL0     O30872   4.408  11.685   6.475  0.3292  0.2793 -0.0369
  949MOL0     C30873   4.155  11.614   6.485 -0.1518  0.6931  0.7162
  949MOL0     C30874   4.026  11.566   6.500 -0.3470 -0.7827  0.2132
  949MOL0     N30875   3.664  10.939   5.941  0.1602 -0.4547  0.1524
  949MOL0     N30876   3.568  10.872   5.890  0.4588  0.2061 -0.1215
  949MOL0     C30877   2.635  11.239   5.327 -0.2073  0.4981  0.5499
  949MOL0     C30878   2.519  11.305   5.354 -1.3011 -0.2706 -0.7126
  949MOL0     C30879   2.072  11.361   5.456  0.4405 -0.0847  0.6746
  949MOL0     C30880   1.972  11.396   5.359 -0.0860 -0.7576 -0.4592
  949MOL0     C30881   1.841  11.443   5.392  0.1034  0.1314 -0.4108
  949MOL0     C30882   1.817  11.458   5.529  0.0364 -0.3906 -0.8036
  949MOL0     O30883   1.697  11.494   5.579  0.5199  0.6324  0.7043
  949MOL0     C30884   1.633  11.600   5.514 -0.2305 -0.5478 -0.3581
  949MOL0     C30885   1.489  11.611   5.556  0.1609  0.8083 -0.6433
  949MOL0     C30886   1.468  11.653   5.701 -0.6856  0.5900  0.1984
  949MOL0     C30887   1.331  11.622   5.767  0.2353 -0.0916  0.1690
  949MOL0     C30888   1.310  11.690   5.895  0.1938  0.7686  0.1259
  949MOL0     C30889   1.310  11.739   6.008  0.5548 -0.3239  0.5037
  949MOL0     C30890   1.908  11.431   5.626 -0.5655  0.3843  0.0736
  949MOL0     C30891   2.035  11.383   5.591 -1.1374  0.5588 -0.0068
  949MOL0     C30892   2.117  11.334   5.714 -0.4393  0.5133  1.1792
  949MOL0     H30893   2.387  11.079   5.578 -1.1474  1.7049  0.2291
  949MOL0     H30894   2.582  10.962   5.512  0.5778  0.8191  2.1747
  949MOL0     H30895   2.926  10.907   5.380  0.0389  1.1345 -0.4222
  949MOL0     H30896   2.777  10.879   5.464 -0.9606  2.1695  3.2931
  949MOL0     H30897   2.977  11.098   5.522  1.3987 -0.9517  0.5956
  949MOL0     H30898   2.837  11.057   5.632  0.1599  2.1985  0.3258
  949MOL0     H30899   3.018  10.971   5.749 -0.2252 -2.5069  2.0831
  949MOL0     H30900   2.936  10.838   5.683  0.2410 -1.5750  0.7277
  949MOL0     H30901   3.090  10.833   5.481 -3.6995  1.5703  0.5295
  949MOL0     H30902   3.195  10.952   5.549  0.6248 -0.6170 -0.0634
  949MOL0     H30903   3.283  10.710   5.590  0.5251 -0.0018  0.7350
  949MOL0     H30904   3.127  10.682   5.676 -0.3522  1.8736  2.3360
  949MOL0     H30905   3.346  10.876   5.738  0.8824 -0.8806  0.8672
  949MOL0     H30906   3.206  10.876   5.835 -1.8567 -0.6873 -0.7917
  949MOL0     H30907   3.404  10.642   5.816  0.9997  1.4425  0.7988
  949MOL0     H30908   3.243  10.624   5.872 -0.8645  0.3657 -0.9690
  949MOL0     H30909   3.306  10.784   6.058  1.4633  1.1854  0.4641
  949MOL0     H30910   3.425  10.653   6.042 -0.9638 -2.4771 -3.0969
  949MOL0     H30911   3.508  10.877   6.214  1.7841  1.6246  0.1932
  949MOL0     H30912   3.849  11.001   6.138  0.7997  1.8055  1.8932
  949MOL0     H30913   3.762  10.935   6.267  4.8539 -2.0474 -2.0219
  949MOL0     H30914   3.730  11.215   6.158 -4.4723 -0.5906 -1.1975
  949MOL0     H30915   3.616  11.145   6.265  0.5142  1.7946  0.4441
  949MOL0     H30916   3.788  11.122   6.452 -2.4975  1.4683 -0.1239
  949MOL0     H30917   3.919  11.148   6.341  0.4081 -1.5197  2.8492
  949MOL0     H30918   3.828  11.387   6.306 -0.7179 -2.2236 -1.0764
  949MOL0     H30919   3.698  11.360   6.422 -1.0452  0.0261 -1.9807
  949MOL0     H30920   4.065  11.238   6.511 -3.3116  1.1855  0.9114
  949MOL0     H30921   4.374  11.255   6.570  1.4562 -3.7491 -1.2824
  949MOL0     H30922   4.380  11.274   6.386  0.5831 -4.4004 -0.3913
  949MOL0     H30923   4.264  11.174   6.464  0.7373 -0.2984  0.7708
  949MOL0     H30924   4.665  11.580   6.312 -0.7055 -3.3677  0.4577
  949MOL0     H30925   4.870  11.722   6.363  0.4671  0.5510  1.8717
  949MOL0     H30926   5.081  11.631   6.645 -2.5306 -0.7471 -0.6888
  949MOL0     H30927   5.092  11.679   6.476  0.0388  0.5116  0.0557
  949MOL0     H30928   5.287  11.743   6.603  0.2605  0.1661  0.2855
  949MOL0     H30929   5.207  11.869   6.508 -0.6716  0.6929 -0.2788
  949MOL0     H30930   5.092  11.922   6.743 -0.1111  1.8083  0.6688
  949MOL0     H30931   5.269  11.960   6.735  0.9581 -0.0849 -2.3956
  949MOL0     H30932   5.321  11.763   6.832  0.8921  2.2682 -2.2186
  949MOL0     H30933   5.150  11.719   6.860 -2.5911  2.7862  0.8190
  949MOL0     H30934   5.272  11.986   6.963  2.3169 -1.6500  0.0830
  949MOL0     H30935   5.112  11.910   7.001  0.2607  1.1191  0.2179
  949MOL0     H30936   5.256  11.717   7.102  0.8556 -0.0947 -1.7889
  949MOL0     H30937   5.220  11.850   7.191  0.5692 -0.3892  0.0275
  949MOL0     H30938   5.445  11.939   7.178 -0.2543 -2.0501  1.6427
  949MOL0     H30939   5.463  11.864   7.010  2.5290 -1.5289  0.0311
  949MOL0     H30940   5.488  11.646   7.095 -0.1382  1.2212 -0.4151
  949MOL0     H30941   5.444  11.699   7.264  0.1096 -1.3195  0.9388
  949MOL0     H30942   4.834  11.673   6.768 -0.7400 -0.8405  1.1749
  949MOL0     H30943   4.615  11.520   6.731 -1.1351  1.0529 -0.0771
  949MOL0     H30944   4.170  11.719   6.509 -1.9136  0.8272  1.3948
  949MOL0     H30945   3.945  11.633   6.527  1.4619  0.4447  3.0629
  949MOL0     H30946   2.703  11.295   5.263 -0.7920  3.0339  2.0170
  949MOL0     H30947   2.511  11.402   5.305  1.7827 -0.0824 -1.0400
  949MOL0     H30948   1.997  11.380   5.254  2.9069 -3.0196  0.4518
  949MOL0     H30949   1.764  11.452   5.316 -0.1592 -0.5304 -0.2352
  949MOL0     H30950   1.682  11.696   5.533 -3.9833  1.0507  2.6355
  949MOL0     H30951   1.627  11.575   5.407 -2.5727 -0.4179 -0.3207
  949MOL0     H30952   1.437  11.515   5.545 -0.1904  1.2132 -3.1089
  949MOL0     H30953   1.436  11.685   5.495 -0.6680  1.5381  0.9032
  949MOL0     H30954   1.544  11.597   5.756 -1.0586  1.6705  1.9228
  949MOL0     H30955   1.500  11.758   5.710  3.0520 -0.3380 -0.6890
  949MOL0     H30956   1.322  11.513   5.768  1.1112 -0.1803 -0.4180
  949MOL0     H30957   1.251  11.662   5.704 -0.9393 -3.7257 -0.8863
  949MOL0     H30958   1.307  11.772   6.110  1.3989 -0.2523  0.5184
  949MOL0     H30959   1.874  11.460   5.724 -1.9436 -1.1868  0.0974
  949MOL0     H30960   2.223  11.355   5.693 -0.2524  1.4796  2.9274
  949MOL0     H30961   2.086  11.396   5.798 -1.7436  0.0220  1.0888
  949MOL0     H30962   2.114  11.228   5.740  3.2874  0.7998  3.6238
  950MOL0     O30963   8.284   1.463   9.928 -0.0259 -0.0046 -0.2380
  950MOL0     C30964   8.312   1.361   9.869 -0.2881  0.0786  0.2885
  950MOL0     O30965   8.429   1.290   9.890 -0.9301 -0.5461 -0.1923
  950MOL0     C30966   8.521   1.359   9.969  0.3196 -0.3070  0.5645
  950MOL0     C30967   8.614   1.458   9.925  0.7215 -0.2586  0.7221
  950MOL0     C30968   8.715   1.508  10.008  0.0947 -0.6361 -0.9546
  950MOL0     C30969   8.710   1.464  10.144  0.0875  0.4755  0.1434
  950MOL0     O30970   8.806   1.498  10.231  0.4194 -0.2051 -0.0239
  950MOL0     C30971   8.942   1.469  10.195  0.7838  0.1013 -0.4980
  950MOL0     C30972   8.973   1.323  10.165 -0.0543 -0.9315  0.6400
  950MOL0     C30973   9.122   1.285  10.149  0.3800 -0.1085  0.3634
  950MOL0     C30974   9.177   1.310  10.002 -0.2686  0.5465 -0.2715
  950MOL0     C30975   9.312   1.251   9.969  0.6808 -0.0153  0.5639
  950MOL0     C30976   9.425   1.286  10.061 -0.7733 -0.2535 -0.4729
  950MOL0     C30977   9.543   1.194  10.037  0.1125 -0.5042  0.0565
  950MOL0     C30978   9.607   1.179   9.891 -0.5888  0.3053 -1.2361
  950MOL0     N30979   9.732   1.107   9.918 -0.0301  0.6725 -0.4673
  950MOL0     C30980   9.855   1.164   9.932 -1.0952 -0.1475  0.5458
  950MOL0     C30981   9.936   1.058   9.951 -0.3180  0.3648  0.6238
  950MOL0     C30982  10.084   1.049   9.962 -0.0462  0.2423 -0.0039
  950MOL0     C30983  10.107   1.003  10.109  0.4189  0.4650 -0.2007
  950MOL0     C30984  10.251   1.033  10.133  0.5214  0.0763 -0.0163
  950MOL0     C30985  10.308   0.983  10.263  0.6998  0.2927 -0.0733
  950MOL0     O30986  10.298   0.841  10.283  0.2387 -0.4149 -0.3901
  950MOL0     C30987  10.325   0.800  10.410 -0.0641 -0.5709  0.1546
  950MOL0     C30988  10.371   0.875  10.522 -0.0689  0.1300 -0.0284
  950MOL0     C30989  10.379   0.817  10.653  0.6669  0.1663  1.1255
  950MOL0     C30990  10.429   0.895  10.773  0.1068 -0.5535  0.4585
  950MOL0     C30991  10.345   0.674  10.656  0.6180 -0.0266 -0.3773
  950MOL0     C30992  10.354   0.601  10.785  0.2623 -0.2235  0.5628
  950MOL0     O30993  10.317   0.660  10.905 -0.1493 -0.1445 -0.2820
  950MOL0     C30994  10.335   0.588  11.031  0.5778  0.5449 -0.0721
  950MOL0     C30995  10.444   0.499  11.051 -0.4660  0.3503  0.8651
  950MOL0     C30996  10.459   0.428  11.167 -0.0376  0.0762  0.5547
  950MOL0     C30997  10.367   0.447  11.271  0.1773 -0.2553 -0.0647
  950MOL0     O30998  10.370   0.363  11.371  0.6267 -0.1569  0.6806
  950MOL0     C30999  10.396   0.423  11.500 -0.3590  1.2628  0.8165
  950MOL0     C31000  10.510   0.345  11.569 -0.0746  0.1250 -0.4070
  950MOL0     C31001  10.644   0.345  11.490 -0.6654  0.1761 -0.0190
  950MOL0     C31002  10.766   0.305  11.584 -0.3971  0.1291  0.5324
  950MOL0     C31003  10.900   0.372  11.531  0.8550 -0.4412  0.3425
  950MOL0     C31004  11.014   0.342  11.617 -0.2837  0.0280  0.0522
  950MOL0     C31005  11.155   0.416  11.596  0.4279 -0.6344  0.4549
  950MOL0     C31006  11.230   0.379  11.464  0.0878  0.0446 -0.7658
  950MOL0    Cl31007  11.384   0.467  11.443 -0.2424 -0.6305 -0.2657
  950MOL0     C31008  10.251   0.529  11.252 -0.8194  0.3224 -0.2610
  950MOL0     C31009  10.242   0.597  11.135 -0.3932 -0.5548  0.1805
  950MOL0     O31010  10.373   0.480  10.775 -0.0403 -0.0441 -0.0196
  950MOL0     C31011  10.305   0.603  10.540 -0.1816 -0.9309  0.4859
  950MOL0     C31012  10.292   0.668  10.420  0.3020 -0.2684 -0.0281
  950MOL0     N31013   9.859   0.940   9.952 -0.6224  0.0052 -1.2070
  950MOL0     N31014   9.735   0.968   9.927 -0.5664 -0.4860 -0.2644
  950MOL0     C31015   8.615   1.381  10.193  0.4904 -0.6502 -0.4763
  950MOL0     C31016   8.515   1.331  10.106 -0.4510  0.1426 -1.2674
  950MOL0     C31017   8.207   1.297   9.777 -0.3725 -0.4330 -0.4289
  950MOL0     C31018   8.092   1.372   9.745 -0.4894 -0.5324 -0.6102
  950MOL0     C31019   7.985   1.314   9.685 -0.0203  0.2648 -0.3784
  950MOL0     C31020   7.984   1.178   9.649  0.4958 -0.7183 -0.1853
  950MOL0     O31021   7.871   1.136   9.583 -0.1228 -0.2049 -0.1804
  950MOL0     C31022   7.865   0.999   9.540  0.0542 -0.3327 -0.6448
  950MOL0     C31023   7.736   0.972   9.462 -0.3148  0.6058 -0.7115
  950MOL0     C31024   7.608   1.012   9.541 -0.1691 -0.4161  0.6158
  950MOL0     C31025   7.489   0.990   9.454 -0.1605  0.2917 -0.1703
  950MOL0     C31026   7.432   0.855   9.432 -0.0638 -0.7985  0.3793
  950MOL0     C31027   7.394   0.746   9.414 -0.1433 -0.6691  0.1815
  950MOL0     C31028   8.097   1.106   9.681 -1.1159  0.3723  0.2061
  950MOL0     C31029   8.212   1.156   9.745  1.0267 -0.1526  0.0964
  950MOL0     C31030   8.315   1.058   9.787  0.8012  0.9291 -0.0376
  950MOL0     H31031   8.611   1.492   9.822  1.9129  0.6848  0.9709
  950MOL0     H31032   8.790   1.575   9.968 -0.2549  0.5048  0.2238
  950MOL0     H31033   9.006   1.516  10.270 -0.7374  0.0790  0.8728
  950MOL0     H31034   8.955   1.518  10.098 -1.8929  1.6683 -0.1739
  950MOL0     H31035   8.934   1.258  10.244 -0.1918 -1.8768 -0.1795
  950MOL0     H31036   8.923   1.303  10.070  0.5762  2.2298 -0.4616
  950MOL0     H31037   9.181   1.346  10.219 -0.5523  0.9989  0.2172
  950MOL0     H31038   9.129   1.182  10.185  2.3412  0.4095  1.6565
  950MOL0     H31039   9.106   1.260   9.936  0.3439 -1.5118  0.5485
  950MOL0     H31040   9.184   1.417   9.980  1.9924  0.4206 -0.4545
  950MOL0     H31041   9.329   1.271   9.863 -0.5945 -0.0786  0.3314
  950MOL0     H31042   9.287   1.146   9.986 -0.3948  0.2701  0.8053
  950MOL0     H31043   9.466   1.386  10.043 -0.4397  0.0317  1.6579
  950MOL0     H31044   9.403   1.281  10.168  0.1355  2.0905 -0.0989
  950MOL0     H31045   9.506   1.097  10.071 -2.4193  1.1450  2.4833
  950MOL0     H31046   9.630   1.218  10.099  0.4916  0.9055 -0.9829
  950MOL0     H31047   9.547   1.108   9.833 -2.0398 -1.4290  2.1063
  950MOL0     H31048   9.628   1.275   9.844  1.5902  0.9663  0.8849
  950MOL0     H31049   9.877   1.270   9.920  0.0208 -0.1245  2.3849
  950MOL0     H31050  10.129   1.146   9.937 -0.1631  0.4929  0.7304
  950MOL0     H31051  10.119   0.972   9.892 -0.5760  0.8740 -0.9753
  950MOL0     H31052  10.050   1.055  10.187  1.2484 -0.5418  1.1175
  950MOL0     H31053  10.086   0.897  10.124  1.5942  0.4831  1.9703
  950MOL0     H31054  10.309   0.995  10.048  1.6208  3.2871 -0.8698
  950MOL0     H31055  10.264   1.142  10.133 -2.7993  0.6073  1.4986
  950MOL0     H31056  10.409   1.022  10.274 -0.1630  2.2854  1.1871
  950MOL0     H31057  10.260   1.041  10.341  0.0189 -1.1036  0.5759
  950MOL0     H31058  10.398   0.980  10.518  0.0673  0.0753 -3.1819
  950MOL0     H31059  10.476   0.987  10.737  1.1530 -1.8307 -1.6550
  950MOL0     H31060  10.498   0.839  10.836  1.4724  0.3647 -0.1782
  950MOL0     H31061  10.345   0.928  10.834  1.1078  0.7927  1.1465
  950MOL0     H31062  10.522   0.480  10.978 -1.9454  0.9112 -0.9400
  950MOL0     H31063  10.538   0.354  11.176 -2.0098 -2.1764  0.3403
  950MOL0     H31064  10.432   0.526  11.504 -1.6067  1.7470  0.0427
  950MOL0     H31065  10.306   0.423  11.562  0.9626  0.8046  2.8764
  950MOL0     H31066  10.517   0.380  11.672  0.2218  3.4414 -1.4587
  950MOL0     H31067  10.480   0.240  11.576 -1.7744  0.6730  1.1208
  950MOL0     H31068  10.658   0.448  11.456  0.9265  1.1907  3.2599
  950MOL0     H31069  10.646   0.283  11.401 -2.5233  1.3104 -0.8979
  950MOL0     H31070  10.774   0.197  11.574  2.4224  0.5023 -4.8164
  950MOL0     H31071  10.741   0.335  11.686 -0.9825  0.6789  0.2373
  950MOL0     H31072  10.909   0.341  11.427  1.7718  0.3108  0.1890
  950MOL0     H31073  10.885   0.480  11.536  1.9178 -0.3064  1.0989
  950MOL0     H31074  11.039   0.236  11.606 -0.6777  0.0716 -1.5065
  950MOL0     H31075  10.967   0.363  11.713 -1.5456 -1.5856 -0.1653
  950MOL0     H31076  11.218   0.388  11.681  0.8686 -1.2883 -0.0772
  950MOL0     H31077  11.142   0.524  11.603 -2.7812 -0.8000 -0.9975
  950MOL0     H31078  11.159   0.399  11.383 -0.4285  0.4398 -0.2329
  950MOL0     H31079  11.259   0.274  11.467 -0.3361 -0.0812 -0.9409
  950MOL0     H31080  10.189   0.548  11.339 -1.6368 -0.0163 -0.7579
  950MOL0     H31081  10.154   0.654  11.108  0.1127 -0.4004 -1.2397
  950MOL0     H31082  10.274   0.499  10.551 -2.9672 -0.2102  0.3447
  950MOL0     H31083  10.256   0.602  10.341  3.6128 -2.4491  0.0464
  950MOL0     H31084   8.619   1.361  10.300 -2.5627  0.3745 -0.0692
  950MOL0     H31085   8.439   1.266  10.145  0.9861 -0.2404  1.0964
  950MOL0     H31086   8.081   1.475   9.776 -2.1281 -0.8634 -0.0042
  950MOL0     H31087   7.894   1.371   9.671 -0.5449 -0.3450  0.4298
  950MOL0     H31088   7.948   0.987   9.471  0.3658  1.9933 -0.7521
  950MOL0     H31089   7.868   0.928   9.623 -0.0454  0.8584  0.4203
  950MOL0     H31090   7.730   0.868   9.428 -1.4747  0.1389  0.8325
  950MOL0     H31091   7.749   1.029   9.370  3.4298  2.4844  0.7341
  950MOL0     H31092   7.593   0.975   9.643  0.6105  0.3230  1.0104
  950MOL0     H31093   7.613   1.120   9.551 -0.8004 -0.5238  2.5561
  950MOL0     H31094   7.513   1.037   9.359  3.3410  1.6873  1.2228
  950MOL0     H31095   7.413   1.050   9.503  0.4270  0.1110  1.0047
  950MOL0     H31096   7.372   0.642   9.399 -0.3025 -0.5284 -0.6325
  950MOL0     H31097   8.103   0.998   9.667  1.4969  0.3716  0.8926
  950MOL0     H31098   8.304   0.955   9.752  1.7125  0.0799  2.0456
  950MOL0     H31099   8.412   1.096   9.756  0.6215  0.4519 -1.2272
  950MOL0     H31100   8.320   1.045   9.896  1.0236 -0.8723 -0.2446
  951MOL0     O31101   8.869  10.912   7.965  0.7196 -0.2913  0.3231
  951MOL0     C31102   8.790  11.002   8.005  0.1487 -0.3423  0.3901
  951MOL0     O31103   8.686  10.980   8.089 -0.0088  0.6485 -0.6008
  951MOL0     C31104   8.634  10.856   8.121 -0.8296 -0.1458  0.7805
  951MOL0     C31105   8.596  10.767   8.023 -0.0045 -0.0945 -0.5948
  951MOL0     C31106   8.513  10.657   8.062  0.0423 -0.5203  1.0226
  951MOL0     C31107   8.484  10.631   8.200  0.0566 -0.4045  0.3865
  951MOL0     O31108   8.411  10.523   8.253 -0.1818 -0.1635 -0.1539
  951MOL0     C31109   8.324  10.466   8.157 -0.8536  0.3297 -0.3287
  951MOL0     C31110   8.265  10.333   8.210  0.4845  0.3524 -0.3711
  951MOL0     C31111   8.375  10.221   8.209  0.1253 -0.5835  0.8027
  951MOL0     C31112   8.474  10.204   8.331 -0.4699  0.6803 -0.0043
  951MOL0     C31113   8.563  10.084   8.307 -0.2682 -0.1180  0.3897
  951MOL0     C31114   8.661  10.053   8.429  0.1258 -0.6781 -0.0286
  951MOL0     C31115   8.748  10.176   8.461  0.0715 -0.2262 -0.1079
  951MOL0     C31116   8.826  10.237   8.349 -0.3618  0.4907  0.3434
  951MOL0     N31117   8.888  10.133   8.261 -0.5019  0.8964 -0.6139
  951MOL0     C31118   8.896  10.134   8.122 -0.4614 -0.3002 -0.0290
  951MOL0     C31119   8.983  10.034   8.097  0.4100  0.0438  0.5705
  951MOL0     C31120   9.022   9.990   7.962  0.0807 -0.6775  0.1606
  951MOL0     C31121   9.164  10.006   7.950  0.0907 -0.0169  0.0342
  951MOL0     C31122   9.222   9.968   7.813  0.1501  0.6733  0.4335
  951MOL0     C31123   9.370   9.967   7.816 -0.2817 -0.2396  0.3146
  951MOL0     O31124   9.434  10.054   7.911  0.2667 -0.1549  0.2049
  951MOL0     C31125   9.567  10.082   7.893 -0.5300  0.1319  0.0232
  951MOL0     C31126   9.611  10.207   7.951  0.2582 -0.2357 -0.0013
  951MOL0     C31127   9.737  10.259   7.930 -0.2573  0.8545 -0.2372
  951MOL0     C31128   9.766  10.398   7.977 -0.3787 -0.0860  0.2079
  951MOL0     C31129   9.832  10.171   7.875  0.0374 -0.0084  0.3917
  951MOL0     C31130   9.974  10.210   7.855  0.1940 -0.0840 -0.0514
  951MOL0     O31131  10.054  10.099   7.818 -0.3088 -0.0598 -0.7661
  951MOL0     C31132  10.187  10.115   7.804  0.0076 -0.0284 -0.9710
  951MOL0     C31133  10.245  10.202   7.713  0.0449  0.4025 -0.2328
  951MOL0     C31134  10.389  10.219   7.711  0.4984 -0.5976 -0.5953
  951MOL0     C31135  10.472  10.144   7.791 -0.1383 -0.2888  0.4082
  951MOL0     O31136  10.601  10.168   7.770 -0.0256  0.1132  0.5333
  951MOL0     C31137  10.698  10.137   7.879 -0.4083 -0.0060 -0.6473
  951MOL0     C31138  10.793  10.252   7.906  0.0895 -0.2520  0.1077
  951MOL0     C31139  10.723  10.368   7.963 -0.5939 -0.1591  0.8945
  951MOL0     C31140  10.660  10.342   8.102  0.5158 -0.3571  0.2886
  951MOL0     C31141  10.597  10.464   8.164  0.0961  0.2706  0.1508
  951MOL0     C31142  10.692  10.558   8.227 -0.3347  0.0969 -0.0683
  951MOL0     C31143  10.611  10.682   8.273 -0.3130  0.1297 -0.1686
  951MOL0     C31144  10.691  10.787   8.356  0.0396 -0.2017  0.5556
  951MOL0    Cl31145  10.809  10.891   8.267 -0.2340 -0.0200  0.3815
  951MOL0     C31146  10.414  10.060   7.888  0.4885  0.0750  0.2584
  951MOL0     C31147  10.278  10.049   7.896  0.5950  0.7173  0.2776
  951MOL0     O31148  10.010  10.328   7.861 -0.3755 -0.1459  0.1171
  951MOL0     C31149   9.797  10.038   7.842  0.1428 -0.6443 -0.3190
  951MOL0     C31150   9.662   9.998   7.841  0.8386 -0.6898  0.0710
  951MOL0     N31151   9.027   9.980   8.212 -0.6550 -0.2884  0.1155
  951MOL0     N31152   8.983  10.049   8.309  0.1811  1.1618 -0.2987
  951MOL0     C31153   8.542  10.712   8.295  0.0557 -0.4288  0.2147
  951MOL0     C31154   8.614  10.826   8.257  0.0417 -0.3071  0.1329
  951MOL0     C31155   8.820  11.133   7.949  1.4946  0.3275 -0.8802
  951MOL0     C31156   8.782  11.252   8.029  0.4036 -0.2581  0.0079
  951MOL0     C31157   8.803  11.379   7.982  0.3175  0.4578 -0.7607
  951MOL0     C31158   8.871  11.405   7.868 -0.0051 -0.4284 -0.3824
  951MOL0     O31159   8.921  11.536   7.837 -0.1232 -0.2349 -0.6169
  951MOL0     C31160   8.914  11.642   7.931 -0.2131 -0.1875 -0.1937
  951MOL0     C31161   8.973  11.778   7.876 -0.1488 -0.7608  0.2570
  951MOL0     C31162   8.910  11.827   7.751 -0.0985 -0.4460 -0.3486
  951MOL0     C31163   8.926  11.971   7.714 -0.5415  0.3614 -0.1908
  951MOL0     C31164   9.066  12.004   7.693 -0.2411 -0.2009 -0.4284
  951MOL0     C31165   9.187  12.022   7.703 -0.4761  0.1489 -0.5416
  951MOL0     C31166   8.917  11.297   7.798  0.6960  0.7096 -0.6120
  951MOL0     C31167   8.880  11.160   7.826  0.5023 -0.5594 -0.2804
  951MOL0     C31168   8.908  11.055   7.722 -0.1063 -0.0252  0.5848
  951MOL0     H31169   8.624  10.784   7.920  2.7243 -2.4640 -0.3697
  951MOL0     H31170   8.491  10.584   7.985  1.9139  1.6635 -1.8190
  951MOL0     H31171   8.375  10.449   8.062 -1.9127  0.0310 -0.8660
  951MOL0     H31172   8.243  10.539   8.142 -0.7593  0.4392 -0.3115
  951MOL0     H31173   8.234  10.358   8.312 -0.1474  0.1425 -0.5086
  951MOL0     H31174   8.180  10.303   8.148  1.6589 -1.3263 -1.2438
  951MOL0     H31175   8.323  10.125   8.213  1.2453 -1.1871  1.0902
  951MOL0     H31176   8.430  10.240   8.117 -1.4345  1.4712  0.2175
  951MOL0     H31177   8.533  10.294   8.351 -0.0547 -0.0627  2.5478
  951MOL0     H31178   8.415  10.184   8.421  0.9486 -2.4806  0.3599
  951MOL0     H31179   8.629  10.109   8.222  0.9321  0.2995  1.4094
  951MOL0     H31180   8.495   9.999   8.296 -0.3929 -0.5235  3.4645
  951MOL0     H31181   8.613  10.015   8.519  0.9575 -4.4906 -1.0444
  951MOL0     H31182   8.726   9.973   8.394  1.3935  0.2995  0.0307
  951MOL0     H31183   8.813  10.152   8.546 -1.0923  2.1876  1.5737
  951MOL0     H31184   8.683  10.251   8.506  0.2044 -1.2944  1.9902
  951MOL0     H31185   8.770  10.306   8.284  0.1760 -0.7096 -1.4750
  951MOL0     H31186   8.907  10.300   8.387  0.3620  2.6647 -4.0797
  951MOL0     H31187   8.852  10.194   8.042 -2.1250 -0.9036  0.3805
  951MOL0     H31188   8.962  10.055   7.897 -0.3149 -1.3941 -0.2002
  951MOL0     H31189   9.004   9.885   7.938  1.8411 -0.5223 -2.2156
  951MOL0     H31190   9.189  10.109   7.978  1.3393 -0.8058  2.0408
  951MOL0     H31191   9.212   9.947   8.029 -0.2406  2.3402  2.1140
  951MOL0     H31192   9.201   9.864   7.788  1.6141  0.3757  0.3250
  951MOL0     H31193   9.181  10.039   7.741 -2.3572  0.3593  1.4730
  951MOL0     H31194   9.404   9.863   7.817 -2.5575 -1.0502  0.8159
  951MOL0     H31195   9.400  10.002   7.717 -2.8423  1.2764 -0.0276
  951MOL0     H31196   9.533  10.275   7.984  1.4655  1.8863 -1.2874
  951MOL0     H31197   9.844  10.391   8.055 -0.8883 -0.5139  0.6931
  951MOL0     H31198   9.678  10.447   8.019  0.6804  2.6045 -0.4953
  951MOL0     H31199   9.804  10.463   7.898  1.9718 -1.0165  0.4744
  951MOL0     H31200  10.191  10.259   7.638  3.5502  0.3290 -3.0759
  951MOL0     H31201  10.436  10.279   7.634  2.9407 -0.7082  0.6865
  951MOL0     H31202  10.664  10.103   7.977  0.8908 -1.1795 -0.5769
  951MOL0     H31203  10.756  10.052   7.841 -1.3887 -0.8530 -0.3005
  951MOL0     H31204  10.877  10.232   7.973  1.0573  0.1255 -0.9645
  951MOL0     H31205  10.841  10.268   7.809 -1.1735  3.5352 -0.0553
  951MOL0     H31206  10.649  10.408   7.894  0.7019  2.2172  0.7742
  951MOL0     H31207  10.800  10.446   7.965  1.7665 -2.3022 -0.1252
  951MOL0     H31208  10.732  10.287   8.164 -0.3587 -2.5690 -0.5374
  951MOL0     H31209  10.589  10.260   8.091  0.8063 -0.4834 -0.7982
  951MOL0     H31210  10.548  10.518   8.083  0.1211  0.0231 -0.0302
  951MOL0     H31211  10.528  10.427   8.240 -0.0523 -0.9751 -0.5538
  951MOL0     H31212  10.766  10.585   8.152 -0.2133  1.3915  0.4923
  951MOL0     H31213  10.741  10.519   8.317 -1.4289 -0.4689  0.3121
  951MOL0     H31214  10.520  10.647   8.322 -0.5151  0.6312 -0.1796
  951MOL0     H31215  10.577  10.731   8.181  0.1260  2.8490  1.0192
  951MOL0     H31216  10.755  10.724   8.419 -0.6190 -0.8632  0.5743
  951MOL0     H31217  10.627  10.848   8.419  0.5097  0.2869  0.5665
  951MOL0     H31218  10.470   9.993   7.952 -0.5326  0.3517  1.4607
  951MOL0     H31219  10.226   9.994   7.974 -1.3055 -2.5042 -2.9637
  951MOL0     H31220   9.864   9.959   7.808  0.6813 -0.4178  0.2010
  951MOL0     H31221   9.638   9.899   7.802  2.8186 -1.8473  1.5811
  951MOL0     H31222   8.541  10.689   8.401  1.0604 -1.0529  0.1007
  951MOL0     H31223   8.650  10.891   8.336 -0.8894  1.3862 -0.7871
  951MOL0     H31224   8.729  11.250   8.125 -1.2238  2.2761 -0.7257
  951MOL0     H31225   8.772  11.464   8.042 -0.8756 -0.4235 -0.0878
  951MOL0     H31226   8.812  11.664   7.964 -0.6175 -1.3943 -0.5880
  951MOL0     H31227   8.965  11.607   8.021  0.1354  2.8825  0.9388
  951MOL0     H31228   9.081  11.773   7.857  0.0155  1.3370  0.3949
  951MOL0     H31229   8.971  11.849   7.959 -1.9378 -0.4293 -0.0337
  951MOL0     H31230   8.947  11.772   7.664 -1.1381  0.6390 -1.5178
  951MOL0     H31231   8.802  11.814   7.765 -0.0784  1.1048  1.8578
  951MOL0     H31232   8.886  12.036   7.793  1.8803 -0.7193  2.0958
  951MOL0     H31233   8.880  11.994   7.618  0.1550 -1.3875 -0.9877
  951MOL0     H31234   9.294  12.027   7.704 -0.3306 -2.1755  0.3609
  951MOL0     H31235   8.978  11.320   7.710  2.3008  3.2265  1.0239
  951MOL0     H31236   8.812  11.006   7.704  0.1708 -0.6955  0.9078
  951MOL0     H31237   8.950  11.097   7.630 -0.0534  0.1485  0.6880
  951MOL0     H31238   8.985  10.988   7.759 -0.3785  0.6815  2.5439
  952MOL0     O31239   7.705   4.047   2.028 -0.1514 -0.7108  0.1774
  952MOL0     C31240   7.666   3.939   2.007 -0.5558  0.4607  0.0997
  952MOL0     O31241   7.710   3.859   1.905  0.0020  0.1280 -0.3211
  952MOL0     C31242   7.803   3.900   1.814 -0.3699  0.5955 -0.8057
  952MOL0     C31243   7.781   3.906   1.680  0.1457  0.5982 -0.9006
  952MOL0     C31244   7.872   3.966   1.590 -0.8716 -0.2765 -0.8308
  952MOL0     C31245   7.997   3.995   1.638  0.4664 -0.0946  0.7446
  952MOL0     O31246   8.087   4.042   1.537  0.7111  0.0029 -0.1262
  952MOL0     C31247   8.187   4.129   1.576 -0.8357  0.2287 -0.0757
  952MOL0     C31248   8.313   4.058   1.634 -0.4210  0.3634  0.5605
  952MOL0     C31249   8.424   4.078   1.529 -0.0642 -0.2996 -0.2220
  952MOL0     C31250   8.555   4.010   1.575 -0.0874  0.0421 -0.4777
  952MOL0     C31251   8.674   4.056   1.494 -0.4052 -0.5391  0.3510
  952MOL0     C31252   8.801   3.958   1.515  0.2491  0.0863  0.6314
  952MOL0     C31253   8.912   3.997   1.417 -0.4282 -0.2875 -0.2999
  952MOL0     C31254   9.028   3.901   1.441 -0.6793  0.2252  0.1754
  952MOL0     N31255   9.147   3.942   1.360  0.3797  0.7071 -0.3177
  952MOL0     C31256   9.219   4.057   1.385  0.5788 -0.9310  1.0176
  952MOL0     C31257   9.323   4.057   1.295 -0.8048  0.1638 -0.6110
  952MOL0     C31258   9.437   4.163   1.268 -0.4500  0.0481  0.7412
  952MOL0     C31259   9.544   4.142   1.385  0.8208  0.1274  0.3280
  952MOL0     C31260   9.690   4.176   1.349  0.5780  0.3253 -0.6875
  952MOL0     C31261   9.733   4.063   1.246 -0.1204 -0.1097 -0.2705
  952MOL0     O31262   9.881   4.050   1.242  0.4718  0.1067 -0.1616
  952MOL0     C31263   9.958   4.152   1.181 -0.4697  0.0191  0.0582
  952MOL0     C31264   9.915   4.251   1.085  0.0712  0.1641 -0.5851
  952MOL0     C31265  10.003   4.340   1.038  0.2626 -0.1495 -0.0243
  952MOL0     C31266   9.949   4.430   0.938 -0.2296 -0.6239 -0.2820
  952MOL0     C31267  10.137   4.339   1.083 -1.1665 -0.0504  0.7943
  952MOL0     C31268  10.231   4.437   1.028  0.6659  0.0980 -0.2426
  952MOL0     O31269  10.178   4.566   1.025 -0.0973 -0.2686  0.0533
  952MOL0     C31270  10.259   4.681   1.004  0.0108  0.4960  1.3412
  952MOL0     C31271  10.366   4.678   0.912 -0.0393 -0.2263 -0.3175
  952MOL0     C31272  10.453   4.792   0.887 -0.2942  0.6237 -0.1702
  952MOL0     C31273  10.426   4.910   0.961  0.5020 -1.0219 -0.3386
  952MOL0     O31274  10.503   5.025   0.944 -0.5581 -0.2615  0.4223
  952MOL0     C31275  10.494   5.084   0.814 -0.4152  0.3035 -0.5782
  952MOL0     C31276  10.408   5.209   0.801  0.4664  0.8481 -0.7160
  952MOL0     C31277  10.328   5.252   0.916 -0.8531 -0.3947  0.9522
  952MOL0     C31278  10.254   5.380   0.892 -0.1867  0.8579  0.2193
  952MOL0     C31279  10.172   5.446   1.002  0.3673  1.0108  0.3475
  952MOL0     C31280  10.232   5.459   1.145 -0.0476  0.3864  0.9087
  952MOL0     C31281  10.123   5.538   1.221 -0.6276 -0.2108  0.3719
  952MOL0     C31282  10.131   5.522   1.369  0.2105 -0.0820  0.3223
  952MOL0    Cl31283  10.073   5.658   1.468  0.6507 -0.2498 -0.0906
  952MOL0     C31284  10.322   4.906   1.064 -0.4376 -0.0647 -0.9548
  952MOL0     C31285  10.239   4.799   1.079  0.3635  1.1639  1.0636
  952MOL0     O31286  10.347   4.403   1.004 -0.1445 -0.2383 -0.4743
  952MOL0     C31287  10.181   4.246   1.182  0.3130 -0.1753 -0.8607
  952MOL0     C31288  10.090   4.154   1.227 -0.5868  0.1709  0.2965
  952MOL0     N31289   9.314   3.938   1.229  0.0032 -0.0403 -0.3992
  952MOL0     N31290   9.214   3.868   1.264 -0.1744 -0.6130 -0.3906
  952MOL0     C31291   8.018   3.995   1.777 -0.1153  0.1440 -0.4603
  952MOL0     C31292   7.924   3.949   1.863 -0.2586  0.2708  0.3709
  952MOL0     C31293   7.567   3.871   2.103  0.0501  0.3276  0.6028
  952MOL0     C31294   7.518   3.738   2.077 -0.2512  0.0545  0.1340
  952MOL0     C31295   7.423   3.676   2.160 -0.6591 -1.4256  0.3380
  952MOL0     C31296   7.374   3.745   2.267  0.4547 -0.0291 -0.0036
  952MOL0     O31297   7.278   3.688   2.349 -0.0769 -0.0656  0.1711
  952MOL0     C31298   7.160   3.647   2.294 -0.3406  0.0212  0.3573
  952MOL0     C31299   7.068   3.625   2.415 -0.1462  1.3050  0.0124
  952MOL0     C31300   6.918   3.606   2.375  0.0592 -0.5427 -0.5186
  952MOL0     C31301   6.812   3.629   2.492  0.3938  0.6840  0.2723
  952MOL0     C31302   6.840   3.524   2.595  0.2222  0.8148  0.0817
  952MOL0     C31303   6.865   3.427   2.653 -0.5541  0.4836  0.0700
  952MOL0     C31304   7.419   3.868   2.302 -0.2961  0.5514  0.3429
  952MOL0     C31305   7.516   3.932   2.220  0.3786  0.0676  0.7560
  952MOL0     C31306   7.550   4.074   2.262 -0.3706 -0.0338  0.1994
  952MOL0     H31307   7.686   3.864   1.646 -0.5663  0.1813  1.3713
  952MOL0     H31308   7.850   3.963   1.483  0.4926  2.1793 -1.2591
  952MOL0     H31309   8.162   4.204   1.652  0.0816 -1.2487  1.7811
  952MOL0     H31310   8.221   4.179   1.485  0.8719 -0.4668  0.1351
  952MOL0     H31311   8.339   4.092   1.734 -0.2912 -0.8344  0.9463
  952MOL0     H31312   8.299   3.951   1.649 -0.6185 -0.0300 -1.8970
  952MOL0     H31313   8.396   4.044   1.429 -1.3596 -2.7645  0.8913
  952MOL0     H31314   8.450   4.184   1.523 -1.0811 -0.0739 -0.8121
  952MOL0     H31315   8.573   4.029   1.681 -1.4453 -0.2828 -0.1824
  952MOL0     H31316   8.542   3.901   1.569 -1.9184  0.2907 -1.7551
  952MOL0     H31317   8.689   4.164   1.504 -2.5395 -0.3003  1.6319
  952MOL0     H31318   8.638   4.047   1.391 -2.5203  2.2757  0.7245
  952MOL0     H31319   8.834   3.970   1.619 -1.0854  0.1014  1.0754
  952MOL0     H31320   8.773   3.852   1.518 -3.5837  0.9446  2.4671
  952MOL0     H31321   8.934   4.102   1.437 -1.0162 -0.1479 -0.3444
  952MOL0     H31322   8.889   3.991   1.310 -0.5884  0.2187 -0.2994
  952MOL0     H31323   9.060   3.903   1.546  0.2525 -0.6659 -0.0780
  952MOL0     H31324   9.001   3.799   1.414 -0.7001  0.5664 -1.1386
  952MOL0     H31325   9.192   4.136   1.455  0.4154 -0.1582  0.0944
  952MOL0     H31326   9.398   4.264   1.277 -2.5250 -0.5530 -0.7626
  952MOL0     H31327   9.476   4.145   1.167  0.8163 -0.5365  1.3129
  952MOL0     H31328   9.507   4.198   1.471 -2.1519 -2.2112  0.7252
  952MOL0     H31329   9.542   4.033   1.397  0.4095 -0.2500 -2.4852
  952MOL0     H31330   9.701   4.275   1.304 -0.3488  1.9818  2.4830
  952MOL0     H31331   9.746   4.186   1.442 -1.6020  3.7069  0.4374
  952MOL0     H31332   9.699   3.965   1.282  2.4139 -0.8955  0.2323
  952MOL0     H31333   9.699   4.073   1.143  0.8870  2.4545 -0.4109
  952MOL0     H31334   9.812   4.244   1.050 -0.4448  0.2150  0.8483
  952MOL0     H31335   9.873   4.380   0.878 -0.5358  2.7263 -2.9301
  952MOL0     H31336  10.023   4.468   0.867 -2.6862 -0.1741 -2.7141
  952MOL0     H31337   9.903   4.514   0.991 -3.7055 -1.5039 -1.6944
  952MOL0     H31338  10.388   4.593   0.848  1.2307 -0.7664  0.8023
  952MOL0     H31339  10.538   4.778   0.820  0.0846 -0.5665  0.5308
  952MOL0     H31340  10.599   5.116   0.807 -0.4546  0.4752 -0.3856
  952MOL0     H31341  10.480   5.012   0.733  0.1672  0.9522 -1.2638
  952MOL0     H31342  10.473   5.290   0.766  2.2916 -1.4510 -3.0926
  952MOL0     H31343  10.342   5.190   0.715  0.1281  0.4625 -0.3773
  952MOL0     H31344  10.398   5.276   0.997  0.9382  0.2396 -0.7150
  952MOL0     H31345  10.264   5.167   0.941 -2.1959  0.6557  1.2177
  952MOL0     H31346  10.176   5.364   0.817  1.1356 -1.6541 -0.7238
  952MOL0     H31347  10.327   5.452   0.852 -0.5509  1.3287  0.3960
  952MOL0     H31348  10.142   5.546   0.969  0.2780  0.4000 -1.5474
  952MOL0     H31349  10.087   5.379   1.019  0.4307  0.0000 -2.7153
  952MOL0     H31350  10.328   5.512   1.148 -1.4012  2.9743  0.7745
  952MOL0     H31351  10.236   5.356   1.184 -2.6471  0.3079  1.1179
  952MOL0     H31352  10.023   5.520   1.182 -1.0711 -0.2658  1.5011
  952MOL0     H31353  10.134   5.646   1.202 -0.3664 -0.4051 -0.6685
  952MOL0     H31354  10.233   5.501   1.402  0.0476  1.6950  2.1817
  952MOL0     H31355  10.077   5.432   1.400 -0.3645 -0.9174 -2.7700
  952MOL0     H31356  10.301   4.994   1.124 -3.8284 -0.4624 -1.4019
  952MOL0     H31357  10.159   4.802   1.152  0.9213 -1.4575  1.8897
  952MOL0     H31358  10.280   4.237   1.224  0.3092  3.4178  0.2441
  952MOL0     H31359  10.120   4.078   1.298 -1.2153  0.2686  0.6763
  952MOL0     H31360   8.114   4.025   1.819  1.6605 -4.0108 -1.0026
  952MOL0     H31361   7.940   3.960   1.970 -1.4529  3.7465  0.3066
  952MOL0     H31362   7.548   3.676   1.993 -2.2815 -1.6807  0.6165
  952MOL0     H31363   7.393   3.576   2.131 -0.6887 -0.7895 -2.0095
  952MOL0     H31364   7.116   3.728   2.236  1.2949  2.8004  2.7447
  952MOL0     H31365   7.162   3.558   2.230 -1.8457  0.8596 -0.9168
  952MOL0     H31366   7.088   3.698   2.494 -0.2294  1.0027  0.3135
  952MOL0     H31367   7.107   3.534   2.461  0.1270 -0.7887 -3.8964
  952MOL0     H31368   6.894   3.681   2.298 -0.8851 -0.4031 -0.1019
  952MOL0     H31369   6.903   3.503   2.342  2.2184 -2.2445  3.2005
  952MOL0     H31370   6.711   3.607   2.457  0.4486  0.1796  0.4121
  952MOL0     H31371   6.820   3.732   2.528  0.5709  1.8870 -2.9193
  952MOL0     H31372   6.890   3.365   2.737  0.5750  2.5863  1.3813
  952MOL0     H31373   7.383   3.929   2.384 -0.6119 -0.2329  0.8003
  952MOL0     H31374   7.532   4.142   2.179 -2.5496 -2.5489 -1.5654
  952MOL0     H31375   7.483   4.116   2.339  0.7086  3.1921 -0.4745
  952MOL0     H31376   7.654   4.089   2.294 -0.5340 -1.6567  1.7017
  953MOL0     O31377   0.358   6.993   1.348 -0.0520 -0.1063  0.3009
  953MOL0     C31378   0.306   7.068   1.263  0.7577 -0.0033  0.6192
  953MOL0     O31379   0.373   7.142   1.162 -0.2298  0.0684 -0.0276
  953MOL0     C31380   0.502   7.164   1.191 -0.9015  0.1598  0.6228
  953MOL0     C31381   0.537   7.284   1.256  1.0198  0.0686  0.9550
  953MOL0     C31382   0.675   7.320   1.266  0.8550  0.1717 -0.1978
  953MOL0     C31383   0.775   7.243   1.216  0.5926  0.3173 -0.0663
  953MOL0     O31384   0.901   7.290   1.237  0.0836  0.3765  0.3867
  953MOL0     C31385   1.008   7.199   1.269 -0.1783 -0.1997  0.9183
  953MOL0     C31386   1.101   7.183   1.146  0.0223  0.5878  0.7941
  953MOL0     C31387   1.230   7.107   1.164  0.6195  0.3239  0.5488
  953MOL0     C31388   1.311   7.073   1.040 -0.7452 -0.6105 -0.1482
  953MOL0     C31389   1.435   6.990   1.067  0.4845  1.0117  0.3059
  953MOL0     C31390   1.536   7.051   1.160 -0.2469  0.4820  0.6898
  953MOL0     C31391   1.655   6.957   1.197 -0.1118  0.2816  0.6552
  953MOL0     C31392   1.593   6.836   1.272  0.0851 -0.0757 -0.1492
  953MOL0     N31393   1.700   6.763   1.340 -0.3567  1.1974  0.2351
  953MOL0     C31394   1.808   6.703   1.272  0.7246  0.4969  0.2082
  953MOL0     C31395   1.845   6.605   1.356 -1.1461 -0.0287  0.4193
  953MOL0     C31396   1.955   6.510   1.317 -0.1029  0.0124  0.2105
  953MOL0     C31397   2.078   6.522   1.411  0.4507 -0.4018 -0.2507
  953MOL0     C31398   2.185   6.421   1.377 -0.0331  0.0788  0.0612
  953MOL0     C31399   2.220   6.403   1.236  0.1978 -0.2381  0.0418
  953MOL0     O31400   2.282   6.527   1.191 -0.6572  0.4258 -0.0030
  953MOL0     C31401   2.378   6.529   1.091  0.4121 -0.1625  0.1080
  953MOL0     C31402   2.396   6.424   0.998 -0.6907  0.6482 -0.5824
  953MOL0     C31403   2.499   6.428   0.903  0.1304  0.0259  0.5841
  953MOL0     C31404   2.494   6.311   0.807 -0.0574 -0.2375  0.0673
  953MOL0     C31405   2.584   6.540   0.887 -0.0339  0.3635 -0.6377
  953MOL0     C31406   2.694   6.557   0.791 -0.3895  0.0816 -0.8228
  953MOL0     O31407   2.733   6.686   0.764  1.1540 -0.4130 -0.3545
  953MOL0     C31408   2.847   6.710   0.700 -0.2654 -0.1199 -0.1595
  953MOL0     C31409   2.964   6.733   0.769  0.0521  0.4272  0.2088
  953MOL0     C31410   3.089   6.743   0.714  0.1486  0.3458  0.1750
  953MOL0     C31411   3.096   6.758   0.573  0.3419 -0.1722 -0.5320
  953MOL0     O31412   3.217   6.782   0.509  0.2271 -0.7034  0.4187
  953MOL0     C31413   3.320   6.692   0.533 -0.2049 -0.1482  0.5111
  953MOL0     C31414   3.300   6.558   0.456  0.0625 -1.5946 -0.4766
  953MOL0     C31415   3.270   6.583   0.310 -0.3454 -0.5443  0.8759
  953MOL0     C31416   3.283   6.451   0.232  0.1090 -1.1255  0.1154
  953MOL0     C31417   3.264   6.461   0.076  0.1846 -0.6433  0.0349
  953MOL0     C31418   3.365   6.554   0.006 -0.8977 -0.0187 -0.1210
  953MOL0     C31419   3.514   6.519   0.029 -0.2373  0.5334  0.8268
  953MOL0     C31420   3.594   6.614  -0.058 -0.1496  0.2395  0.6255
  953MOL0    Cl31421   3.776   6.584  -0.059 -0.1998 -0.4701 -0.1319
  953MOL0     C31422   2.980   6.764   0.499 -0.0384  0.0567  0.0663
  953MOL0     C31423   2.858   6.731   0.559 -0.1359 -0.4153  0.3703
  953MOL0     O31424   2.735   6.463   0.725 -0.4305  0.0314 -0.2151
  953MOL0     C31425   2.562   6.645   0.977  0.5250  0.1140  1.2926
  953MOL0     C31426   2.455   6.642   1.070 -0.4071 -0.2341 -0.3804
  953MOL0     N31427   1.769   6.609   1.476 -0.6023  0.0378  0.0358
  953MOL0     N31428   1.683   6.701   1.458  0.0991  0.2778 -1.1341
  953MOL0     C31429   0.737   7.125   1.152  0.1587  0.6375 -0.2783
  953MOL0     C31430   0.600   7.076   1.137 -0.8278 -0.2386  0.3048
  953MOL0     C31431   0.151   7.066   1.262  0.3785  0.5554 -0.5240
  953MOL0     C31432   0.088   7.160   1.182 -0.1290 -0.6790  0.6092
  953MOL0     C31433  -0.048   7.177   1.178 -0.1137 -0.4224 -0.3901
  953MOL0     C31434  -0.133   7.099   1.267 -0.8267  0.3169  0.2952
  953MOL0     O31435  -0.265   7.137   1.263  0.9563 -0.3730  0.4042
  953MOL0     C31436  -0.308   7.202   1.392 -0.3959 -0.2415  0.0664
  953MOL0     C31437  -0.381   7.336   1.356 -0.8768  0.2690 -0.6133
  953MOL0     C31438  -0.382   7.436   1.466  0.4048 -0.1972  0.0973
  953MOL0     C31439  -0.258   7.509   1.485 -0.4092  0.6217 -0.5710
  953MOL0     C31440  -0.278   7.612   1.587  0.7856 -0.0315 -0.5099
  953MOL0     C31441  -0.298   7.701   1.663 -0.1992 -0.5966 -0.2134
  953MOL0     C31442  -0.073   7.006   1.354 -0.3190  0.8307 -1.0959
  953MOL0     C31443   0.068   6.978   1.351  0.6693  0.8330 -0.2015
  953MOL0     C31444   0.121   6.868   1.448 -0.6533  0.7926  0.4023
  953MOL0     H31445   0.462   7.347   1.303 -1.3995  0.0095 -2.5019
  953MOL0     H31446   0.685   7.414   1.321 -2.4328  2.1150 -2.5590
  953MOL0     H31447   0.968   7.100   1.289 -1.7212  0.0386 -0.7539
  953MOL0     H31448   1.061   7.226   1.361  0.4720 -2.2195  1.1907
  953MOL0     H31449   1.039   7.144   1.064  2.9535  1.2756 -1.9375
  953MOL0     H31450   1.121   7.283   1.107 -3.3171  1.8632  1.9431
  953MOL0     H31451   1.301   7.164   1.224  1.2058  2.8889 -2.3358
  953MOL0     H31452   1.209   7.006   1.203 -1.9432 -0.8733 -3.3496
  953MOL0     H31453   1.251   7.023   0.962  0.4751  2.1026 -3.0433
  953MOL0     H31454   1.356   7.157   0.987  0.4884 -2.0683 -1.4866
  953MOL0     H31455   1.479   6.950   0.975  0.1227 -2.3095  1.4606
  953MOL0     H31456   1.393   6.903   1.117  0.9486  0.1607 -0.7439
  953MOL0     H31457   1.573   7.146   1.120  1.2449  0.1500  1.1830
  953MOL0     H31458   1.490   7.076   1.256  2.2907 -0.7822  2.3643
  953MOL0     H31459   1.733   7.006   1.254  0.3195  1.6407 -1.0104
  953MOL0     H31460   1.699   6.918   1.105 -1.9061 -0.2651 -0.0214
  953MOL0     H31461   1.525   6.872   1.351  0.1111 -0.9339  0.2785
  953MOL0     H31462   1.538   6.770   1.204 -2.5184  0.4785  1.2424
  953MOL0     H31463   1.841   6.724   1.171  2.0300  0.2955  0.5671
  953MOL0     H31464   1.989   6.528   1.214 -0.6283 -0.9887 -0.1496
  953MOL0     H31465   1.913   6.410   1.324  1.8984 -0.8944 -0.0790
  953MOL0     H31466   2.117   6.623   1.428 -0.1598 -0.5493  2.4765
  953MOL0     H31467   2.038   6.495   1.509 -1.7356  1.2736 -0.5977
  953MOL0     H31468   2.273   6.451   1.434  0.8214  0.1971 -1.2801
  953MOL0     H31469   2.153   6.325   1.419  1.9794  0.3119  2.3724
  953MOL0     H31470   2.301   6.331   1.250 -0.2152 -0.3850  1.9426
  953MOL0     H31471   2.143   6.360   1.172 -1.6240  3.2858 -0.3755
  953MOL0     H31472   2.341   6.331   1.008  0.2949  0.1844  0.8155
  953MOL0     H31473   2.582   6.249   0.826  0.8660  0.5217 -1.5969
  953MOL0     H31474   2.512   6.357   0.710  0.8872 -2.8964 -1.0987
  953MOL0     H31475   2.402   6.253   0.811  0.3827 -1.3774 -3.3011
  953MOL0     H31476   2.976   6.746   0.876  1.4782 -0.4336  0.1750
  953MOL0     H31477   3.172   6.766   0.780  0.3838 -1.7289  0.6757
  953MOL0     H31478   3.398   6.753   0.485 -1.1006 -0.3148 -1.2579
  953MOL0     H31479   3.341   6.669   0.638  0.8775  0.0658  0.3596
  953MOL0     H31480   3.395   6.504   0.459  0.1881 -1.3686 -0.3632
  953MOL0     H31481   3.211   6.507   0.492 -0.7457  0.3830  0.4969
  953MOL0     H31482   3.352   6.651   0.285  0.3390 -1.3240  0.9410
  953MOL0     H31483   3.171   6.625   0.292  1.0779  1.8679 -2.3969
  953MOL0     H31484   3.210   6.381   0.275 -0.2937 -1.2296 -0.7152
  953MOL0     H31485   3.382   6.409   0.251  2.2972  3.2137 -0.4804
  953MOL0     H31486   3.268   6.359   0.036 -1.8722 -0.7915  0.0938
  953MOL0     H31487   3.166   6.494   0.040 -0.5401 -4.1781 -1.6598
  953MOL0     H31488   3.351   6.653   0.050  0.5529 -1.3093  3.6025
  953MOL0     H31489   3.351   6.548  -0.103  0.5674  0.7338 -0.3796
  953MOL0     H31490   3.536   6.413   0.015 -2.2923 -0.3275  3.3088
  953MOL0     H31491   3.549   6.556   0.126 -0.6484  1.8192  0.5092
  953MOL0     H31492   3.567   6.717  -0.031 -2.0231 -0.6454  2.4406
  953MOL0     H31493   3.558   6.607  -0.161  1.8861  2.1791 -0.2917
  953MOL0     H31494   2.994   6.778   0.392  2.6981 -1.2701  0.1514
  953MOL0     H31495   2.772   6.721   0.493 -0.8916 -1.1719  1.4503
  953MOL0     H31496   2.620   6.735   0.963  0.9956 -0.7207 -4.5148
  953MOL0     H31497   2.441   6.729   1.133  1.6244 -1.2026  1.5479
  953MOL0     H31498   0.815   7.055   1.127 -0.1757 -0.0231  0.4957
  953MOL0     H31499   0.582   6.981   1.088  0.9807 -0.4637  0.0204
  953MOL0     H31500   0.144   7.235   1.128  0.1736 -1.9097 -0.8498
  953MOL0     H31501  -0.084   7.257   1.113  0.8202  0.3846  0.0523
  953MOL0     H31502  -0.372   7.135   1.451  1.1144 -1.0223  0.8809
  953MOL0     H31503  -0.220   7.224   1.453 -0.7959 -3.7907  2.2261
  953MOL0     H31504  -0.484   7.333   1.321 -1.8006  2.3144  1.5808
  953MOL0     H31505  -0.336   7.389   1.272 -1.1873 -0.0060 -0.9534
  953MOL0     H31506  -0.462   7.503   1.433  0.7320 -0.0812 -0.4647
  953MOL0     H31507  -0.404   7.390   1.563  1.1474  0.8603  0.7939
  953MOL0     H31508  -0.239   7.558   1.389 -3.0976  3.0862  0.0385
  953MOL0     H31509  -0.173   7.442   1.501 -0.0438  1.2398  0.1125
  953MOL0     H31510  -0.307   7.781   1.734 -0.6949 -1.2656  0.5022
  953MOL0     H31511  -0.126   6.954   1.433  1.7488  1.8336  1.0723
  953MOL0     H31512   0.178   6.798   1.386  0.1368  1.6998  0.0713
  953MOL0     H31513   0.197   6.911   1.515 -1.0154 -0.9817  2.0461
  953MOL0     H31514   0.043   6.814   1.502 -0.0421  1.0542  1.5743
  954MOL0     O31515   0.591   6.901   9.293  0.8720 -0.0222 -0.9097
  954MOL0     C31516   0.540   6.797   9.252 -0.5478  1.0427 -0.1431
  954MOL0     O31517   0.597   6.667   9.266 -0.4047 -0.1780 -0.5894
  954MOL0     C31518   0.703   6.657   9.357  0.3238 -0.5345  0.1617
  954MOL0     C31519   0.829   6.626   9.304 -0.4315  0.0202  0.1178
  954MOL0     C31520   0.936   6.608   9.391 -0.4405 -0.2683  0.0021
  954MOL0     C31521   0.928   6.647   9.527  0.3743  0.4975  0.3591
  954MOL0     O31522   1.035   6.656   9.613  0.4832  0.6134  0.2540
  954MOL0     C31523   1.159   6.597   9.581  0.1689  0.1754  1.0936
  954MOL0     C31524   1.228   6.575   9.720  0.3334  0.5933 -0.5506
  954MOL0     C31525   1.384   6.571   9.709 -0.0022 -0.5589  0.3349
  954MOL0     C31526   1.445   6.544   9.849  0.2112 -0.8966  0.0239
  954MOL0     C31527   1.590   6.592   9.865 -0.1233  0.8014  0.3706
  954MOL0     C31528   1.673   6.513   9.767  0.4441  0.3187  0.7357
  954MOL0     C31529   1.817   6.520   9.814  0.0091  0.4977 -0.1136
  954MOL0     C31530   1.911   6.430   9.725 -0.6607  0.5096  0.1388
  954MOL0     N31531   2.052   6.432   9.757  0.0181  0.1387  0.2422
  954MOL0     C31532   2.127   6.410   9.873 -0.2355  0.4334 -0.0955
  954MOL0     C31533   2.257   6.448   9.846 -0.1156 -0.2604 -0.9877
  954MOL0     C31534   2.376   6.430   9.934 -0.7612 -0.0245 -0.2863
  954MOL0     C31535   2.352   6.508  10.069 -0.5631  0.1516 -0.4359
  954MOL0     C31536   2.436   6.451  10.179 -0.3593  0.3163  0.8135
  954MOL0     C31537   2.431   6.535  10.306 -0.0018  0.3740 -0.2248
  954MOL0     O31538   2.492   6.464  10.421  0.2903  0.1148 -0.0564
  954MOL0     C31539   2.625   6.471  10.429 -0.1463  0.3830 -0.4224
  954MOL0     C31540   2.687   6.415  10.547 -0.0196 -0.0350  0.0459
  954MOL0     C31541   2.829   6.411  10.559  0.4568  0.6374  0.2526
  954MOL0     C31542   2.882   6.331  10.672 -1.0963 -0.4267  1.0677
  954MOL0     C31543   2.911   6.469  10.457 -0.4597 -0.2657 -0.7944
  954MOL0     C31544   3.060   6.461  10.454 -0.3001  0.4165  0.9925
  954MOL0     O31545   3.119   6.567  10.385  0.4159  0.2884  0.4774
  954MOL0     C31546   3.255   6.571  10.409  1.4157  0.4267 -0.0023
  954MOL0     C31547   3.343   6.539  10.307  0.1120  0.4333  0.2709
  954MOL0     C31548   3.483   6.538  10.312  0.0366  0.6399  0.0497
  954MOL0     C31549   3.533   6.567  10.439 -0.6346 -0.1986  0.1771
  954MOL0     O31550   3.667   6.581  10.458 -0.3466 -0.8127 -0.5389
  954MOL0     C31551   3.739   6.472  10.513  0.5959 -0.1177  0.3318
  954MOL0     C31552   3.889   6.506  10.523  0.6535  0.6838 -0.0587
  954MOL0     C31553   3.985   6.473  10.415 -0.0807 -0.1571  0.1143
  954MOL0     C31554   3.968   6.551  10.289  0.2223 -0.4490 -0.2023
  954MOL0     C31555   4.065   6.501  10.190 -0.6372 -0.5942 -0.1859
  954MOL0     C31556   4.020   6.377  10.118 -0.0779  0.1694  0.2029
  954MOL0     C31557   4.091   6.359   9.984  0.0810  0.5215 -1.1575
  954MOL0     C31558   3.998   6.320   9.874  1.7912 -0.1979 -0.3984
  954MOL0    Cl31559   4.078   6.322   9.720  0.0349  0.3018  0.2103
  954MOL0     C31560   3.451   6.603  10.547  0.5089  0.3312  0.5879
  954MOL0     C31561   3.311   6.591  10.532  0.3345 -0.5855 -0.5039
  954MOL0     O31562   3.112   6.356  10.489 -0.2939  0.0061 -0.5969
  954MOL0     C31563   2.848   6.529  10.353 -0.3335 -0.5546 -0.4275
  954MOL0     C31564   2.707   6.529  10.334 -1.5218  0.2492  0.9852
  954MOL0     N31565   2.256   6.519   9.725  0.2925  0.7643  0.7741
  954MOL0     N31566   2.140   6.493   9.664 -0.3685  0.1657  0.2071
  954MOL0     C31567   0.803   6.687   9.571 -1.1774  0.8100 -0.6774
  954MOL0     C31568   0.690   6.681   9.497 -0.0937 -0.1440 -0.3852
  954MOL0     C31569   0.395   6.785   9.202 -0.7643  0.6374  0.0668
  954MOL0     C31570   0.328   6.662   9.195  0.1301 -0.3887 -0.0508
  954MOL0     C31571   0.199   6.656   9.136 -0.8391  0.2583 -0.3509
  954MOL0     C31572   0.146   6.775   9.084 -0.0382  0.0892 -0.7295
  954MOL0     O31573   0.028   6.784   9.020  0.2661 -0.1751  0.1986
  954MOL0     C31574  -0.062   6.674   9.017 -0.4587 -0.1265  0.1675
  954MOL0     C31575  -0.200   6.706   8.958 -1.1602  0.5624  0.3167
  954MOL0     C31576  -0.303   6.744   9.064 -0.6218 -0.7656  0.4000
  954MOL0     C31577  -0.441   6.752   9.010 -0.2620  0.3591  0.5506
  954MOL0     C31578  -0.536   6.814   9.109 -0.3802 -0.1249 -0.8866
  954MOL0     C31579  -0.592   6.845   9.214  1.3637 -0.0171  0.8426
  954MOL0     C31580   0.224   6.886   9.079  0.0451 -0.4969  0.4486
  954MOL0     C31581   0.346   6.900   9.141  0.2372  1.0445  0.1571
  954MOL0     C31582   0.417   7.029   9.109 -0.4296 -0.8146  0.5128
  954MOL0     H31583   0.850   6.605   9.200  2.5160 -3.0365  1.1551
  954MOL0     H31584   1.020   6.558   9.344 -0.6936  0.3782 -1.1696
  954MOL0     H31585   1.232   6.663   9.533  0.7849 -1.1027  0.1869
  954MOL0     H31586   1.152   6.498   9.534 -1.2499  0.9451 -0.4315
  954MOL0     H31587   1.210   6.658   9.789  0.9030  0.4407 -0.2111
  954MOL0     H31588   1.182   6.486   9.764 -2.2663  1.2276 -1.8034
  954MOL0     H31589   1.413   6.492   9.639 -0.3578  1.7453 -2.6018
  954MOL0     H31590   1.407   6.672   9.674 -0.2293 -0.2349  1.0915
  954MOL0     H31591   1.391   6.604   9.922 -0.9610 -2.1976  0.2835
  954MOL0     H31592   1.429   6.442   9.885 -0.1779 -0.1623  2.0705
  954MOL0     H31593   1.624   6.567   9.966  1.6188 -4.5844 -1.2318
  954MOL0     H31594   1.597   6.701   9.851  0.1039  0.9246  1.3821
  954MOL0     H31595   1.644   6.409   9.781 -1.9629  0.8685  0.2678
  954MOL0     H31596   1.654   6.553   9.666 -1.6615  2.7366  1.9835
  954MOL0     H31597   1.823   6.491   9.919  1.6741 -0.8424 -0.5499
  954MOL0     H31598   1.849   6.624   9.799  0.7081  0.5053  1.2932
  954MOL0     H31599   1.875   6.329   9.751  1.9125 -0.2879  0.8762
  954MOL0     H31600   1.898   6.462   9.621  1.5581 -0.4585 -0.4941
  954MOL0     H31601   2.087   6.356   9.959 -1.0361  0.3146 -0.5283
  954MOL0     H31602   2.470   6.453   9.883 -0.0102 -0.0804  1.0325
  954MOL0     H31603   2.380   6.324   9.960 -0.9825  0.1541  0.5111
  954MOL0     H31604   2.387   6.608  10.043  1.4518 -0.7160 -1.2780
  954MOL0     H31605   2.247   6.513  10.102 -1.5197 -1.4225 -2.9155
  954MOL0     H31606   2.404   6.350  10.207  2.1532 -0.1894  2.1901
  954MOL0     H31607   2.537   6.438  10.139 -0.3301 -0.5831  1.1342
  954MOL0     H31608   2.483   6.628  10.285  4.2170 -2.1717 -2.2821
  954MOL0     H31609   2.326   6.547  10.336 -1.1242 -0.9793 -3.1814
  954MOL0     H31610   2.625   6.357  10.614 -2.5831  0.0487 -2.0571
  954MOL0     H31611   2.980   6.371  10.700 -1.1059  0.3301  0.1007
  954MOL0     H31612   2.891   6.228  10.636 -0.7013 -0.7810  2.1418
  954MOL0     H31613   2.810   6.331  10.754 -1.6627  0.4167  0.5937
  954MOL0     H31614   3.312   6.509  10.208 -1.9048  2.7778  0.0894
  954MOL0     H31615   3.546   6.518  10.226 -0.0162  3.1399 -0.6264
  954MOL0     H31616   3.716   6.451  10.618 -0.5878 -1.6159 -0.1892
  954MOL0     H31617   3.705   6.387  10.453 -0.1781 -0.0317  0.6304
  954MOL0     H31618   3.890   6.610  10.558 -1.7327 -0.3018  3.4235
  954MOL0     H31619   3.923   6.444  10.607 -0.7942  2.3125  1.8472
  954MOL0     H31620   4.001   6.367  10.393  4.3173  0.3095  0.2225
  954MOL0     H31621   4.087   6.480  10.452  0.4444 -2.2984 -0.7397
  954MOL0     H31622   3.989   6.658  10.300  1.6345 -0.5199 -1.7350
  954MOL0     H31623   3.863   6.541  10.261 -0.0044  1.7675 -0.3319
  954MOL0     H31624   4.082   6.579  10.115  0.0354 -1.0819 -0.5445
  954MOL0     H31625   4.156   6.493  10.250 -2.6223 -1.6068  2.9802
  954MOL0     H31626   3.914   6.386  10.093 -0.1716 -1.1004  0.0726
  954MOL0     H31627   4.034   6.290  10.182 -0.6517 -1.2381 -1.5112
  954MOL0     H31628   4.172   6.287   9.996 -0.3198 -0.2986 -3.0610
  954MOL0     H31629   4.133   6.454   9.950 -1.0426  0.9325 -1.4230
  954MOL0     H31630   3.912   6.386   9.859 -0.0759 -2.8125 -2.2009
  954MOL0     H31631   3.944   6.225   9.888 -0.9570  1.4543  1.0521
  954MOL0     H31632   3.494   6.635  10.641 -1.0369 -2.3009  2.3020
  954MOL0     H31633   3.266   6.627  10.623 -1.3395 -0.4888 -1.3352
  954MOL0     H31634   2.906   6.574  10.273  1.3642  0.3260  1.2153
  954MOL0     H31635   2.684   6.559  10.232  0.3693  0.1467  0.4921
  954MOL0     H31636   0.805   6.724   9.673  2.1488  3.3901 -1.5005
  954MOL0     H31637   0.589   6.696   9.535 -0.8569  0.3336 -2.4662
  954MOL0     H31638   0.373   6.568   9.225 -1.3425 -0.9322  0.5599
  954MOL0     H31639   0.153   6.559   9.144  0.3927 -0.2405  1.5319
  954MOL0     H31640  -0.018   6.596   8.954  1.5274  0.9382  0.1349
  954MOL0     H31641  -0.080   6.627   9.114 -0.0701 -2.2332 -0.7238
  954MOL0     H31642  -0.228   6.613   8.908 -3.2161  0.6152  1.3125
  954MOL0     H31643  -0.185   6.779   8.878  2.3645 -0.2076  0.0930
  954MOL0     H31644  -0.290   6.663   9.136  1.3879 -1.7284 -0.9439
  954MOL0     H31645  -0.275   6.846   9.090 -2.2768  0.0153 -0.7326
  954MOL0     H31646  -0.476   6.653   8.980 -0.7056  0.9816 -1.1059
  954MOL0     H31647  -0.438   6.821   8.924 -3.4385 -0.1044 -0.0750
  954MOL0     H31648  -0.649   6.873   9.300 -0.8269 -0.6221 -0.3227
  954MOL0     H31649   0.176   6.970   9.029 -1.0278 -0.2963  1.7582
  954MOL0     H31650   0.351   7.095   9.052 -0.9208 -1.6092  0.1320
  954MOL0     H31651   0.452   7.080   9.199 -0.0620 -0.9179  0.4283
  954MOL0     H31652   0.508   7.021   9.050  0.4952 -1.4402  1.9712
  955MOL0     O31653  10.173   2.727   9.044 -0.2128 -0.2238  0.2898
  955MOL0     C31654  10.116   2.733   9.152  0.3242 -0.9579 -0.2321
  955MOL0     O31655  10.170   2.781   9.272 -0.5019 -0.2838 -0.7441
  955MOL0     C31656  10.310   2.793   9.268  1.1346 -0.8108  0.3548
  955MOL0     C31657  10.378   2.919   9.246  0.0745 -0.7678  0.2866
  955MOL0     C31658  10.515   2.923   9.252  0.3591 -0.2843 -0.5072
  955MOL0     C31659  10.591   2.805   9.271 -0.1434 -0.1667 -0.1391
  955MOL0     O31660  10.729   2.810   9.261  0.4489  0.2581 -0.5176
  955MOL0     C31661  10.795   2.920   9.337  0.1004  0.1237  0.4698
  955MOL0     C31662  10.882   2.987   9.230  0.1245  1.0189  0.0128
  955MOL0     C31663  10.946   3.118   9.276  1.0761  0.0356  0.2063
  955MOL0     C31664  11.010   3.177   9.156 -0.0350  0.3013  0.3156
  955MOL0     C31665  11.121   3.268   9.209 -0.8540 -1.0636 -0.2708
  955MOL0     C31666  11.199   3.338   9.094 -0.4141  0.1593 -1.0251
  955MOL0     C31667  11.295   3.446   9.148  0.4697  0.1999  0.6449
  955MOL0     C31668  11.343   3.539   9.039 -0.8394 -0.5761 -0.0462
  955MOL0     N31669  11.451   3.632   9.079  0.5086 -0.3813 -0.0034
  955MOL0     C31670  11.581   3.625   9.021  0.3549 -0.1275 -0.0770
  955MOL0     C31671  11.647   3.724   9.076 -0.0649  0.0771 -0.5863
  955MOL0     C31672  11.786   3.765   9.034 -0.2176 -0.6919 -0.7566
  955MOL0     C31673  11.820   3.751   8.894  0.0144  0.4727 -0.1943
  955MOL0     C31674  11.946   3.833   8.859 -0.4444  0.6359  0.9043
  955MOL0     C31675  12.072   3.757   8.877  0.1483 -0.2482 -0.3474
  955MOL0     O31676  12.182   3.821   8.814  0.0352 -0.2062  0.1782
  955MOL0     C31677  12.312   3.779   8.846  0.2682  0.3621 -0.9968
  955MOL0     C31678  12.344   3.669   8.929 -0.4891 -0.0100 -0.4057
  955MOL0     C31679  12.480   3.645   8.961 -0.3543  0.2072  0.3884
  955MOL0     C31680  12.513   3.526   9.056 -0.2144 -0.6246  0.1807
  955MOL0     C31681  12.581   3.728   8.903  0.1089  0.9027 -0.0820
  955MOL0     C31682  12.728   3.713   8.928  0.7588 -0.8950 -0.5370
  955MOL0     O31683  12.807   3.814   8.888  0.2177  0.1458  0.2016
  955MOL0     C31684  12.938   3.805   8.917  1.0853  0.2635 -1.2548
  955MOL0     C31685  13.037   3.800   8.826  0.9085  0.6628  1.1260
  955MOL0     C31686  13.158   3.759   8.864 -0.5129 -0.5833  0.2172
  955MOL0     C31687  13.195   3.753   8.997  0.0112  0.7553  0.6497
  955MOL0     O31688  13.325   3.730   9.034 -0.5905  0.0406  0.7790
  955MOL0     C31689  13.433   3.769   8.940  0.0380  0.6783 -0.1212
  955MOL0     C31690  13.567   3.767   9.016 -0.4405  0.5043  0.2159
  955MOL0     C31691  13.698   3.715   8.955 -0.2768 -0.9337 -0.2805
  955MOL0     C31692  13.798   3.673   9.070  0.2747  0.8816  0.3304
  955MOL0     C31693  13.914   3.584   9.019 -0.5597 -0.2474  0.6099
  955MOL0     C31694  13.994   3.647   8.901 -0.6103  0.4036  0.5124
  955MOL0     C31695  14.081   3.539   8.832 -0.7192  0.3351  0.3096
  955MOL0     C31696  14.211   3.600   8.761  0.0635  0.0721  0.9799
  955MOL0    Cl31697  14.184   3.724   8.637 -0.1160 -0.0886 -0.0929
  955MOL0     C31698  13.105   3.783   9.101 -0.9666 -0.8663  0.4189
  955MOL0     C31699  12.974   3.804   9.056 -0.6468 -0.0739  0.3953
  955MOL0     O31700  12.768   3.608   8.968 -0.2957 -0.4873 -0.3174
  955MOL0     C31701  12.547   3.832   8.829  0.0373 -0.1402  0.2891
  955MOL0     C31702  12.415   3.855   8.790  0.2272  0.0652  0.1202
  955MOL0     N31703  11.565   3.788   9.171  0.4157 -0.4981 -0.4716
  955MOL0     N31704  11.450   3.727   9.174  0.8034  0.9835 -0.4439
  955MOL0     C31705  10.517   2.679   9.277 -0.3501 -0.5476 -0.7522
  955MOL0     C31706  10.382   2.678   9.292 -1.4559 -0.0793 -0.2099
  955MOL0     C31707   9.980   2.684   9.170  0.1937  0.0772  0.9809
  955MOL0     C31708   9.883   2.761   9.104  0.0125  0.4105  0.8390
  955MOL0     C31709   9.750   2.720   9.104 -0.2861  0.1225 -0.4451
  955MOL0     C31710   9.712   2.594   9.170 -0.1604 -0.2705 -0.3141
  955MOL0     O31711   9.575   2.568   9.171  0.4449 -0.8275 -0.0336
  955MOL0     C31712   9.523   2.469   9.262 -1.0931 -0.3012 -0.4752
  955MOL0     C31713   9.372   2.442   9.240  0.5688  0.6507  0.6513
  955MOL0     C31714   9.307   2.332   9.322  0.2382  0.3030 -0.1640
  955MOL0     C31715   9.160   2.296   9.288  0.6560 -0.0103 -0.4289
  955MOL0     C31716   9.138   2.264   9.150  1.2096  0.3992  1.4295
  955MOL0     C31717   9.119   2.250   9.028 -0.6424 -0.7827  0.0774
  955MOL0     C31718   9.810   2.522   9.236  0.0608  0.1292 -1.1342
  955MOL0     C31719   9.943   2.559   9.227 -0.7835 -0.7509  0.8442
  955MOL0     C31720  10.045   2.452   9.277 -0.2343 -0.5171 -0.8711
  955MOL0     H31721  10.327   3.013   9.226 -0.6946 -0.8694  1.6277
  955MOL0     H31722  10.570   3.016   9.244 -4.4754  3.2071  1.6689
  955MOL0     H31723  10.841   2.876   9.426  1.5650  1.9699  0.6778
  955MOL0     H31724  10.719   2.988   9.376 -0.3431 -0.4580  0.6308
  955MOL0     H31725  10.963   2.916   9.213  0.0940  0.2612  2.5736
  955MOL0     H31726  10.812   2.996   9.146  0.1992  1.0969 -0.0409
  955MOL0     H31727  10.875   3.189   9.319  0.8967 -0.3348  0.5210
  955MOL0     H31728  11.034   3.093   9.336  2.1036  0.4653 -1.0680
  955MOL0     H31729  11.062   3.101   9.096 -0.2001  0.7786 -0.4435
  955MOL0     H31730  10.944   3.231   9.088  1.3138 -0.6650 -1.9062
  955MOL0     H31731  11.197   3.215   9.267 -0.2146  1.2026  1.1068
  955MOL0     H31732  11.090   3.344   9.281 -0.7299 -0.8339 -0.4544
  955MOL0     H31733  11.270   3.266   9.052 -1.5679 -2.3477  0.9740
  955MOL0     H31734  11.134   3.376   9.015 -1.4159  0.6155 -0.0163
  955MOL0     H31735  11.370   3.386   9.200 -0.9420 -2.8229 -0.6184
  955MOL0     H31736  11.234   3.501   9.221  1.0326  0.8750  0.6127
  955MOL0     H31737  11.394   3.478   8.964  0.5334  2.9606 -2.2356
  955MOL0     H31738  11.263   3.601   8.998 -0.1285  0.0476 -0.5114
  955MOL0     H31739  11.617   3.574   8.931  0.3469  0.3492 -0.3515
  955MOL0     H31740  11.870   3.719   9.088  0.3138 -1.2518 -2.0020
  955MOL0     H31741  11.797   3.870   9.062 -0.4358 -0.7767 -0.3473
  955MOL0     H31742  11.819   3.651   8.851  1.6711  0.5985 -0.5796
  955MOL0     H31743  11.735   3.800   8.845  0.1145  1.2761  0.3980
  955MOL0     H31744  11.946   3.847   8.751 -0.1555  2.3279  1.0945
  955MOL0     H31745  11.932   3.931   8.905 -1.5490  0.8401  0.1570
  955MOL0     H31746  12.092   3.757   8.984 -1.4340  2.7750  0.0539
  955MOL0     H31747  12.054   3.657   8.836  1.1761  0.2394 -2.0966
  955MOL0     H31748  12.268   3.597   8.957  2.1825 -2.4041  1.2858
  955MOL0     H31749  12.572   3.450   9.003 -1.3867  0.2696 -2.6067
  955MOL0     H31750  12.427   3.475   9.100 -0.7471 -0.2503 -0.3953
  955MOL0     H31751  12.569   3.559   9.143 -2.3299  0.6801  1.1171
  955MOL0     H31752  13.028   3.796   8.718  3.4540  1.9810  0.8056
  955MOL0     H31753  13.244   3.732   8.803 -0.3582 -0.6552  0.4628
  955MOL0     H31754  13.449   3.689   8.868  2.1595  1.0489 -0.1263
  955MOL0     H31755  13.424   3.868   8.893  0.9492  2.0356  2.3962
  955MOL0     H31756  13.598   3.870   9.035  0.4975  0.2645  0.0432
  955MOL0     H31757  13.557   3.711   9.110 -0.5067  1.0918  0.5650
  955MOL0     H31758  13.738   3.797   8.894 -1.3600  0.3711  0.7088
  955MOL0     H31759  13.680   3.625   8.896  0.3931 -1.8047  0.8240
  955MOL0     H31760  13.736   3.616   9.141  1.5311 -0.3250  0.5065
  955MOL0     H31761  13.839   3.760   9.123 -0.8946  1.1697  0.7910
  955MOL0     H31762  13.975   3.560   9.106 -0.9729  0.3250  1.0595
  955MOL0     H31763  13.868   3.492   8.983  1.0321 -2.2316  3.2967
  955MOL0     H31764  14.043   3.735   8.944  0.4926  1.4251 -2.5794
  955MOL0     H31765  13.933   3.675   8.815 -1.1873  0.2008  0.8538
  955MOL0     H31766  14.018   3.472   8.773 -2.2870  0.4871  1.7302
  955MOL0     H31767  14.124   3.469   8.904 -2.1029 -2.9376 -1.8145
  955MOL0     H31768  14.270   3.523   8.710  1.6826  1.5222  0.6038
  955MOL0     H31769  14.273   3.638   8.842  1.8408 -3.5454  1.5281
  955MOL0     H31770  13.125   3.768   9.207 -1.6372 -2.6571  0.3261
  955MOL0     H31771  12.889   3.791   9.124 -1.8813  0.6839 -0.9444
  955MOL0     H31772  12.619   3.904   8.792 -0.4599 -0.6707 -1.8810
  955MOL0     H31773  12.396   3.934   8.718  1.5473 -2.3007 -3.0660
  955MOL0     H31774  10.576   2.588   9.288 -0.7843 -0.7965 -0.4195
  955MOL0     H31775  10.335   2.580   9.292  0.5974 -1.1437  1.6146
  955MOL0     H31776   9.902   2.858   9.058  2.2073 -0.1371  0.4651
  955MOL0     H31777   9.664   2.764   9.054 -3.3604 -0.2524  3.9686
  955MOL0     H31778   9.590   2.383   9.268  1.2709  1.5207  1.4461
  955MOL0     H31779   9.529   2.506   9.365  1.1912  0.4021 -0.7999
  955MOL0     H31780   9.349   2.426   9.134  1.6570  0.2798  0.4600
  955MOL0     H31781   9.319   2.533   9.268 -0.0233  0.2812  0.7582
  955MOL0     H31782   9.371   2.245   9.337 -2.1441 -1.7005 -0.9026
  955MOL0     H31783   9.296   2.370   9.424  0.1640  2.9362 -1.0740
  955MOL0     H31784   9.096   2.385   9.295  1.6245  0.8922 -2.3928
  955MOL0     H31785   9.127   2.214   9.352  0.3551  0.6871  0.3250
  955MOL0     H31786   9.096   2.223   8.927  1.5581 -1.4799 -0.2860
  955MOL0     H31787   9.785   2.427   9.283 -1.1851  1.5843  1.4026
  955MOL0     H31788  10.087   2.393   9.196 -0.7609  1.0615 -2.3570
  955MOL0     H31789  10.121   2.504   9.336 -2.4447  1.1554  0.7155
  955MOL0     H31790   9.995   2.386   9.349 -2.6907 -0.3447 -2.2725
  956MOL0     O31791   7.997   1.197   7.419  0.1335  0.1523 -0.0794
  956MOL0     C31792   8.114   1.204   7.376 -0.7794 -0.7296 -0.2693
  956MOL0     O31793   8.158   1.305   7.301 -0.3795  0.4827 -0.3395
  956MOL0     C31794   8.097   1.422   7.307  0.2448 -0.2221  0.2771
  956MOL0     C31795   8.156   1.524   7.383 -0.1436 -0.2939 -0.2612
  956MOL0     C31796   8.117   1.653   7.374  0.5631  0.2404  0.4554
  956MOL0     C31797   8.013   1.692   7.284 -0.3921 -0.1218  0.2729
  956MOL0     O31798   7.961   1.820   7.267 -0.4008  0.8182  0.4665
  956MOL0     C31799   7.999   1.916   7.368 -0.4412  0.2831  0.0872
  956MOL0     C31800   7.946   2.053   7.341 -0.4861 -0.4245 -0.0809
  956MOL0     C31801   7.792   2.058   7.322 -0.0260  0.9783 -0.2495
  956MOL0     C31802   7.714   2.074   7.456  0.4345 -0.2191  0.0522
  956MOL0     C31803   7.573   2.134   7.431  0.2266  0.8823  0.7436
  956MOL0     C31804   7.484   2.143   7.560 -0.8466  0.4561 -0.2309
  956MOL0     C31805   7.354   2.221   7.537 -0.1336 -0.0939 -0.1478
  956MOL0     C31806   7.256   2.213   7.651 -0.1467 -0.2150 -0.4893
  956MOL0     N31807   7.137   2.276   7.612  0.6390  0.9484  0.1596
  956MOL0     C31808   7.087   2.392   7.660  0.6517  0.0665 -0.3434
  956MOL0     C31809   6.964   2.405   7.608 -0.3739 -1.0999 -1.1979
  956MOL0     C31810   6.871   2.525   7.622  1.0484  0.2268 -0.6424
  956MOL0     C31811   6.726   2.495   7.651 -0.4061 -0.4296  0.6213
  956MOL0     C31812   6.657   2.448   7.519 -1.0846  0.2974 -0.4524
  956MOL0     C31813   6.512   2.446   7.531  0.5009 -0.3509 -0.4440
  956MOL0     O31814   6.464   2.384   7.410 -0.4656 -0.2991 -0.1989
  956MOL0     C31815   6.351   2.307   7.403  0.1121  0.1587  0.6316
  956MOL0     C31816   6.356   2.203   7.307 -0.4788  0.3080  0.9348
  956MOL0     C31817   6.244   2.127   7.269 -0.3430  0.0211 -0.6786
  956MOL0     C31818   6.278   2.016   7.165  0.5903  0.2366  0.6749
  956MOL0     C31819   6.123   2.164   7.321 -0.4862 -0.0477 -0.5296
  956MOL0     C31820   6.001   2.091   7.290 -0.6804  0.7638 -0.3584
  956MOL0     O31821   5.920   2.046   7.393 -0.2496 -0.1839  0.3258
  956MOL0     C31822   5.789   2.011   7.361  0.1043 -0.2296 -0.1313
  956MOL0     C31823   5.680   2.069   7.434 -0.1387  0.1163 -0.5857
  956MOL0     C31824   5.547   2.030   7.424 -0.7086  0.2930  0.0653
  956MOL0     C31825   5.506   1.933   7.341 -0.3041  0.3340  0.7917
  956MOL0     O31826   5.376   1.901   7.323  1.0908 -0.5281 -0.2316
  956MOL0     C31827   5.348   1.765   7.277 -1.0757 -0.5650 -0.6778
  956MOL0     C31828   5.192   1.753   7.275 -0.1055  0.6771 -0.3901
  956MOL0     C31829   5.125   1.640   7.187 -0.6790 -0.0495  0.0203
  956MOL0     C31830   5.141   1.501   7.237  0.2380  0.7003  0.6392
  956MOL0     C31831   5.119   1.405   7.123  0.4264 -0.7444  0.1267
  956MOL0     C31832   4.964   1.379   7.099 -1.0364 -0.9803 -0.0652
  956MOL0     C31833   4.952   1.273   6.987 -0.1459 -1.0208 -0.3696
  956MOL0     C31834   4.807   1.250   6.966 -0.3791  0.4331  0.2029
  956MOL0    Cl31835   4.767   1.149   7.108  0.1313 -0.4598  0.2650
  956MOL0     C31836   5.610   1.870   7.265 -0.3156 -0.1004 -0.0585
  956MOL0     C31837   5.743   1.907   7.278 -0.9534 -0.2200 -0.5748
  956MOL0     O31838   5.977   2.086   7.174 -0.5645 -0.2522 -0.0261
  956MOL0     C31839   6.114   2.270   7.416  0.2036 -0.1206  0.4958
  956MOL0     C31840   6.229   2.336   7.460  0.4794 -0.2635  0.6912
  956MOL0     N31841   6.948   2.312   7.514  0.6869 -0.0270  1.1154
  956MOL0     N31842   7.051   2.237   7.513  0.4477 -0.3818  0.6810
  956MOL0     C31843   7.949   1.585   7.213 -0.3123 -0.6040 -0.0687
  956MOL0     C31844   7.997   1.458   7.214  0.3907  0.3669 -0.0757
  956MOL0     C31845   8.208   1.091   7.384 -0.6157 -0.5925 -0.0872
  956MOL0     C31846   8.337   1.101   7.319  0.4353 -0.2536 -1.0232
  956MOL0     C31847   8.422   0.989   7.319  0.6445  0.3028  0.0371
  956MOL0     C31848   8.391   0.871   7.387  0.7220 -0.1244 -0.5798
  956MOL0     O31849   8.474   0.758   7.387 -0.1821 -0.3729  0.4495
  956MOL0     C31850   8.567   0.753   7.280  0.1592  1.4507 -0.3742
  956MOL0     C31851   8.598   0.598   7.260 -0.8292 -1.4202 -0.4134
  956MOL0     C31852   8.634   0.539   7.393 -0.3541  0.8031  0.1964
  956MOL0     C31853   8.731   0.425   7.370 -0.7614  0.0105  0.7618
  956MOL0     C31854   8.867   0.472   7.358 -0.2464  0.2830  0.0155
  956MOL0     C31855   8.979   0.518   7.361  0.6270 -1.2323 -0.4895
  956MOL0     C31856   8.269   0.873   7.463  0.0034 -0.3622  0.6721
  956MOL0     C31857   8.173   0.971   7.454  0.0935 -0.1810 -0.0557
  956MOL0     C31858   8.036   0.940   7.517 -0.5684 -0.4509  0.0418
  956MOL0     H31859   8.228   1.482   7.452  2.3116  0.7550 -2.0299
  956MOL0     H31860   8.159   1.723   7.445  2.1095 -0.4633  0.2801
  956MOL0     H31861   8.107   1.915   7.382 -0.4366  0.4682  0.0564
  956MOL0     H31862   7.955   1.883   7.463  1.7111  0.6724  1.2773
  956MOL0     H31863   7.973   2.115   7.428 -0.2019 -0.3628 -0.2117
  956MOL0     H31864   7.992   2.089   7.249 -3.0102 -0.7947 -1.5744
  956MOL0     H31865   7.768   2.141   7.255 -1.3353  1.8043  1.1734
  956MOL0     H31866   7.754   1.970   7.271  0.7616 -0.1813  1.0821
  956MOL0     H31867   7.697   1.983   7.515 -0.6760  2.0604  3.5892
  956MOL0     H31868   7.765   2.143   7.523  0.9840 -0.3530 -0.2206
  956MOL0     H31869   7.523   2.065   7.362 -0.6324  1.0141  1.2193
  956MOL0     H31870   7.586   2.233   7.385 -1.7654  0.5452 -0.7261
  956MOL0     H31871   7.457   2.045   7.600  1.9562  0.3709  1.7752
  956MOL0     H31872   7.541   2.191   7.640  0.1514 -0.7285 -0.2095
  956MOL0     H31873   7.306   2.172   7.452  1.3273 -2.9570  0.5171
  956MOL0     H31874   7.380   2.325   7.519  5.7603 -1.3281 -0.6316
  956MOL0     H31875   7.244   2.110   7.687 -0.1052 -0.6434 -1.6649
  956MOL0     H31876   7.307   2.268   7.731  0.1614  3.3296 -2.9042
  956MOL0     H31877   7.132   2.462   7.729 -0.8893  1.3990 -0.6498
  956MOL0     H31878   6.869   2.576   7.525 -0.1397 -1.7895 -1.7562
  956MOL0     H31879   6.922   2.589   7.694  2.1692 -0.7028 -0.5627
  956MOL0     H31880   6.716   2.420   7.730 -1.7329 -1.1738 -0.2197
  956MOL0     H31881   6.680   2.588   7.687  2.7015  1.5051 -0.0030
  956MOL0     H31882   6.663   2.517   7.434 -2.2491 -0.5384 -1.2470
  956MOL0     H31883   6.698   2.351   7.488  2.0546  1.4707 -0.3703
  956MOL0     H31884   6.485   2.384   7.617  0.7603 -1.7801 -1.3589
  956MOL0     H31885   6.478   2.550   7.542  2.4362  0.5490 -2.4208
  956MOL0     H31886   6.454   2.189   7.264 -0.7235 -0.2329  0.5475
  956MOL0     H31887   6.260   2.057   7.065  2.4260  1.2291  0.7106
  956MOL0     H31888   6.210   1.932   7.184 -0.5903  0.4864 -1.9326
  956MOL0     H31889   6.385   1.994   7.171  0.3930 -0.5064  1.8857
  956MOL0     H31890   5.707   2.146   7.506 -0.4701 -1.4883  1.3274
  956MOL0     H31891   5.473   2.090   7.476 -0.4003 -1.0907  2.2624
  956MOL0     H31892   5.399   1.743   7.183 -1.2278 -0.7209 -0.7246
  956MOL0     H31893   5.394   1.685   7.337  0.2877  0.4952 -0.2647
  956MOL0     H31894   5.156   1.733   7.377 -1.5525  4.3376 -0.0284
  956MOL0     H31895   5.150   1.852   7.254  4.0666  2.5426 -1.0342
  956MOL0     H31896   5.170   1.651   7.088  1.6256 -3.0654  0.5981
  956MOL0     H31897   5.016   1.651   7.180 -0.4096  1.9162 -3.4975
  956MOL0     H31898   5.067   1.484   7.316  3.8572 -3.8060  3.5434
  956MOL0     H31899   5.241   1.499   7.282  1.2533 -0.9395 -1.5450
  956MOL0     H31900   5.171   1.433   7.031  0.1153 -2.1586 -0.5011
  956MOL0     H31901   5.163   1.310   7.156 -2.0134 -1.1443  2.5626
  956MOL0     H31902   4.924   1.472   7.058 -0.0707  0.4528  2.0412
  956MOL0     H31903   4.911   1.353   7.191  2.7594 -0.8665  2.3808
  956MOL0     H31904   4.987   1.180   7.034 -4.4215 -0.8190  4.1276
  956MOL0     H31905   4.989   1.298   6.887 -2.3162 -1.0467 -1.2347
  956MOL0     H31906   4.802   1.183   6.879  0.2446 -1.0564  1.2730
  956MOL0     H31907   4.764   1.348   6.944  1.1392  0.8829 -0.9915
  956MOL0     H31908   5.596   1.804   7.180 -4.0950  0.0756  0.2478
  956MOL0     H31909   5.815   1.854   7.217 -1.5610  0.9096 -2.3666
  956MOL0     H31910   6.016   2.287   7.459  0.8705 -0.6999  2.3394
  956MOL0     H31911   6.222   2.418   7.531 -0.0987  2.6187 -2.3926
  956MOL0     H31912   7.867   1.621   7.152  1.9749 -1.6302 -4.1136
  956MOL0     H31913   7.956   1.371   7.163 -4.3946  2.0166  0.4765
  956MOL0     H31914   8.359   1.187   7.257  2.5008  1.2095  1.5405
  956MOL0     H31915   8.515   0.996   7.264 -0.2932  0.5943 -1.5798
  956MOL0     H31916   8.522   0.781   7.184 -0.9673 -0.4004 -0.4250
  956MOL0     H31917   8.652   0.821   7.286  1.8188 -0.4164 -1.5677
  956MOL0     H31918   8.674   0.587   7.183 -0.4795 -3.5184  0.1641
  956MOL0     H31919   8.509   0.547   7.221 -1.0176 -0.6996 -0.9391
  956MOL0     H31920   8.684   0.599   7.469 -0.1411 -0.9221  1.4660
  956MOL0     H31921   8.540   0.505   7.439 -0.8769  0.7172 -0.8918
  956MOL0     H31922   8.706   0.371   7.279  1.3320  2.2550 -1.2779
  956MOL0     H31923   8.707   0.349   7.446  0.1058  0.1629  1.1969
  956MOL0     H31924   9.073   0.570   7.369  0.3970 -0.3293 -2.8487
  956MOL0     H31925   8.246   0.776   7.505  1.5161 -0.2299  1.8574
  956MOL0     H31926   7.961   0.927   7.439  1.5321 -1.6423 -1.9274
  956MOL0     H31927   8.039   0.842   7.567 -2.6126 -0.2795  0.5669
  956MOL0     H31928   8.016   1.014   7.594  0.9626 -0.6835  0.7057
  957MOL0     O31929   5.451   6.556   5.797 -0.1327 -0.3898 -0.0960
  957MOL0     C31930   5.375   6.614   5.726  0.2530  0.6002 -0.0533
  957MOL0     O31931   5.418   6.701   5.626 -0.3076  0.5017 -0.5281
  957MOL0     C31932   5.550   6.729   5.602 -0.6163  0.3023  0.6961
  957MOL0     C31933   5.640   6.767   5.702  0.0465  0.7369 -0.6893
  957MOL0     C31934   5.769   6.809   5.670 -0.1766 -0.0992 -0.5650
  957MOL0     C31935   5.810   6.817   5.542 -0.4100 -0.7472 -0.6070
  957MOL0     O31936   5.936   6.873   5.514  0.0467  0.0682 -0.5848
  957MOL0     C31937   5.989   6.868   5.383 -0.0633 -0.3951 -0.0556
  957MOL0     C31938   6.045   6.727   5.341 -0.0588 -0.7925 -0.7122
  957MOL0     C31939   6.189   6.699   5.361 -0.1193  0.4499  0.5501
  957MOL0     C31940   6.223   6.696   5.497 -0.1718 -0.2574 -0.5412
  957MOL0     C31941   6.380   6.678   5.504  0.0392  0.2445 -0.7056
  957MOL0     C31942   6.413   6.533   5.465 -0.1167 -0.2514  0.1281
  957MOL0     C31943   6.551   6.498   5.509  0.7789  0.6485  0.3328
  957MOL0     C31944   6.668   6.560   5.433 -0.3853 -0.4813  0.3619
  957MOL0     N31945   6.802   6.538   5.495 -0.0146  0.2091 -0.5048
  957MOL0     C31946   6.916   6.499   5.431 -0.3957  0.0307 -0.4844
  957MOL0     C31947   7.002   6.489   5.536  0.6918  0.4828  0.5220
  957MOL0     C31948   7.148   6.471   5.503 -1.0179  0.4219  0.6703
  957MOL0     C31949   7.226   6.446   5.638  0.3475  0.2925 -0.2336
  957MOL0     C31950   7.378   6.432   5.606 -0.7393  0.1490  0.6343
  957MOL0     C31951   7.415   6.310   5.524 -0.8682 -0.4568  0.4165
  957MOL0     O31952   7.560   6.310   5.510 -0.5238  0.1807 -0.4206
  957MOL0     C31953   7.614   6.187   5.470  0.0979 -0.3426  0.4141
  957MOL0     C31954   7.553   6.062   5.464 -0.5665 -0.1233  0.1041
  957MOL0     C31955   7.619   5.938   5.425 -0.0534 -0.5816 -0.4981
  957MOL0     C31956   7.527   5.823   5.416 -0.2587 -0.5082  0.9029
  957MOL0     C31957   7.755   5.940   5.393 -0.5724 -0.2057  0.4613
  957MOL0     C31958   7.846   5.821   5.379  0.7936  0.2992 -0.6026
  957MOL0     O31959   7.972   5.846   5.359  0.2269  0.6934 -0.2058
  957MOL0     C31960   8.058   5.747   5.312  0.3575  0.3148  0.7363
  957MOL0     C31961   8.193   5.763   5.346 -0.1830  0.1994  0.1905
  957MOL0     C31962   8.298   5.681   5.291  0.7153  0.7741 -0.9797
  957MOL0     C31963   8.263   5.575   5.208 -0.2341  0.1383 -0.3681
  957MOL0     O31964   8.377   5.505   5.170 -0.3732 -0.7249 -0.2879
  957MOL0     C31965   8.347   5.386   5.094 -0.4084  0.3713  0.2812
  957MOL0     C31966   8.419   5.256   5.146 -0.2001  0.7140 -0.0466
  957MOL0     C31967   8.390   5.234   5.291 -0.2970  0.3619 -0.3956
  957MOL0     C31968   8.506   5.292   5.380 -0.1229  0.0052 -0.3810
  957MOL0     C31969   8.476   5.279   5.530  1.0916  0.4085 -0.3456
  957MOL0     C31970   8.431   5.145   5.577  0.6686 -0.6141 -0.5629
  957MOL0     C31971   8.410   5.162   5.728  1.0979 -1.0028 -0.2232
  957MOL0     C31972   8.373   5.031   5.795  0.0675 -0.1829 -0.0637
  957MOL0    Cl31973   8.492   4.900   5.783  0.1116 -0.1294 -0.1116
  957MOL0     C31974   8.129   5.572   5.164  0.3752 -0.1963  0.8238
  957MOL0     C31975   8.029   5.649   5.218 -0.1304 -1.3673 -0.3038
  957MOL0     O31976   7.789   5.712   5.368 -0.3525 -0.5022 -0.3969
  957MOL0     C31977   7.822   6.070   5.392  1.0031  0.8335 -0.2934
  957MOL0     C31978   7.748   6.185   5.427 -0.3746  0.6651  0.3217
  957MOL0     N31979   6.934   6.513   5.654 -0.6587 -0.0279 -0.3843
  957MOL0     N31980   6.813   6.538   5.626  0.3645 -0.0905 -0.2271
  957MOL0     C31981   5.733   6.770   5.442  0.2930  0.4870 -0.6414
  957MOL0     C31982   5.599   6.734   5.468 -0.2791 -0.4249  0.2022
  957MOL0     C31983   5.231   6.614   5.756 -1.0150  0.8750  1.0552
  957MOL0     C31984   5.174   6.483   5.773  0.5263 -0.7812 -0.8687
  957MOL0     C31985   5.047   6.462   5.814  0.7411 -0.5032 -0.7721
  957MOL0     C31986   4.963   6.573   5.826 -0.1789  0.3406 -0.3497
  957MOL0     O31987   4.834   6.546   5.865 -0.2783 -0.1003  0.0979
  957MOL0     C31988   4.736   6.649   5.841 -0.8881 -0.5015  0.0251
  957MOL0     C31989   4.721   6.738   5.955 -0.0025  0.7103  0.9514
  957MOL0     C31990   4.637   6.680   6.075  0.0468 -0.5090  0.4800
  957MOL0     C31991   4.596   6.779   6.190 -0.6052  0.2383 -0.1393
  957MOL0     C31992   4.512   6.703   6.282 -0.4020  1.2743  0.0909
  957MOL0     C31993   4.460   6.657   6.379 -0.8564  0.1384 -0.2606
  957MOL0     C31994   5.013   6.701   5.795 -1.0619 -0.0622  0.0511
  957MOL0     C31995   5.144   6.726   5.757 -0.0675  0.3124 -0.6570
  957MOL0     C31996   5.193   6.868   5.738 -0.0750  0.5626 -0.4361
  957MOL0     H31997   5.608   6.779   5.805 -2.0775  1.1852 -1.3476
  957MOL0     H31998   5.839   6.851   5.742 -0.7810  2.9344 -1.6229
  957MOL0     H31999   6.074   6.935   5.375  1.5727 -2.3617  0.1657
  957MOL0     H32000   5.922   6.894   5.300  1.7412 -0.8829 -1.7469
  957MOL0     H32001   5.988   6.645   5.387 -1.4740  0.1403 -0.7360
  957MOL0     H32002   6.016   6.726   5.235 -2.2814  0.5004 -0.1903
  957MOL0     H32003   6.221   6.606   5.313  3.6892 -0.5381  4.3618
  957MOL0     H32004   6.234   6.787   5.314 -4.2896  3.3826  1.5104
  957MOL0     H32005   6.204   6.790   5.550  0.9466 -0.0431 -0.5014
  957MOL0     H32006   6.173   6.614   5.550  0.9743  0.5213  1.9082
  957MOL0     H32007   6.419   6.682   5.606 -0.3046 -7.3285  0.2388
  957MOL0     H32008   6.435   6.754   5.447  1.0394 -0.4049 -0.6247
  957MOL0     H32009   6.343   6.465   5.514 -0.2368  1.7512  3.0132
  957MOL0     H32010   6.407   6.515   5.358 -1.6441 -2.7735  0.5691
  957MOL0     H32011   6.556   6.392   5.485  0.1265  0.9782 -1.4332
  957MOL0     H32012   6.555   6.506   5.618  0.1357  0.8272  0.3462
  957MOL0     H32013   6.677   6.521   5.331  4.3432 -0.5243  0.5929
  957MOL0     H32014   6.658   6.669   5.435  2.6734 -0.0791  3.7810
  957MOL0     H32015   6.926   6.509   5.323  0.2289 -2.1419 -0.6648
  957MOL0     H32016   7.195   6.560   5.460 -2.9209  2.0337  1.7449
  957MOL0     H32017   7.153   6.390   5.430 -2.3046  1.3233 -0.4633
  957MOL0     H32018   7.205   6.534   5.699 -2.1117 -1.1089  1.0930
  957MOL0     H32019   7.194   6.357   5.693  3.5261 -1.3627 -0.7867
  957MOL0     H32020   7.422   6.518   5.556 -0.2412  0.0053  0.8163
  957MOL0     H32021   7.425   6.426   5.705 -0.5930 -0.3547  0.5374
  957MOL0     H32022   7.381   6.219   5.572  0.9545 -2.7870 -2.3422
  957MOL0     H32023   7.370   6.322   5.425 -0.6885 -0.5236  0.3253
  957MOL0     H32024   7.445   6.049   5.459 -0.6781  0.1902  1.5668
  957MOL0     H32025   7.564   5.754   5.492 -0.2018  2.0791  3.3472
  957MOL0     H32026   7.526   5.776   5.316 -0.0875  1.6178 -0.1522
  957MOL0     H32027   7.424   5.843   5.448 -1.2891 -0.3398 -2.1419
  957MOL0     H32028   8.218   5.842   5.416  2.8292 -0.3441 -0.0969
  957MOL0     H32029   8.396   5.692   5.336  0.1059  2.1046  0.0804
  957MOL0     H32030   8.242   5.358   5.091 -0.7764  1.6713  0.5157
  957MOL0     H32031   8.369   5.410   4.989  1.4488 -2.7254 -0.1917
  957MOL0     H32032   8.381   5.166   5.097 -0.8717 -1.3435  3.9294
  957MOL0     H32033   8.528   5.261   5.132 -0.0533 -3.2886 -1.4185
  957MOL0     H32034   8.388   5.127   5.315  0.4378  1.0059  3.2137
  957MOL0     H32035   8.286   5.266   5.304 -0.4241 -0.1466 -0.1444
  957MOL0     H32036   8.522   5.397   5.354 -0.2695 -0.5172 -2.7873
  957MOL0     H32037   8.597   5.235   5.360  0.5103  0.7097  0.4084
  957MOL0     H32038   8.574   5.305   5.571  1.2308  1.8991 -1.5536
  957MOL0     H32039   8.408   5.357   5.563 -1.1673 -1.5433 -0.1523
  957MOL0     H32040   8.507   5.071   5.548 -0.6769 -2.3601  0.1769
  957MOL0     H32041   8.336   5.109   5.537  0.4747 -1.6481  0.7795
  957MOL0     H32042   8.330   5.232   5.756  0.5436 -1.4006 -0.7807
  957MOL0     H32043   8.502   5.200   5.773 -0.3238  0.4001  1.6509
  957MOL0     H32044   8.292   4.982   5.740  1.6226 -0.3452 -2.3620
  957MOL0     H32045   8.355   5.051   5.901  2.1307 -0.2278  0.3263
  957MOL0     H32046   8.098   5.496   5.093  0.2656 -0.6863  1.3939
  957MOL0     H32047   7.928   5.626   5.186 -1.0972  1.9604 -0.0180
  957MOL0     H32048   7.928   6.079   5.370  1.1968  0.1671  0.3278
  957MOL0     H32049   7.810   6.273   5.437  0.8401  0.0410 -1.3802
  957MOL0     H32050   5.767   6.754   5.341 -0.4876 -3.4813 -0.4269
  957MOL0     H32051   5.529   6.698   5.393  0.4319  0.1752 -0.7775
  957MOL0     H32052   5.256   6.411   5.773  0.1209 -1.2787  0.3779
  957MOL0     H32053   5.009   6.362   5.834  2.2551 -0.4363  3.3060
  957MOL0     H32054   4.765   6.711   5.755  2.0664 -2.8699 -0.8497
  957MOL0     H32055   4.638   6.612   5.809 -1.9898  1.8122  0.5081
  957MOL0     H32056   4.659   6.819   5.915 -1.9495 -1.6290 -1.0227
  957MOL0     H32057   4.815   6.778   5.996  0.0662  0.6248  0.8767
  957MOL0     H32058   4.553   6.631   6.025  0.5265 -1.0696  0.2103
  957MOL0     H32059   4.695   6.595   6.111 -0.2326 -0.8453  0.1461
  957MOL0     H32060   4.545   6.865   6.146  0.3557 -0.8941 -3.7740
  957MOL0     H32061   4.678   6.831   6.241 -0.7745  2.1335 -1.7057
  957MOL0     H32062   4.410   6.604   6.458  2.3771 -3.0298 -0.0792
  957MOL0     H32063   4.958   6.794   5.802 -1.2916 -0.3434  2.6320
  957MOL0     H32064   5.146   6.940   5.805 -1.3143  0.0648 -0.7463
  957MOL0     H32065   5.300   6.882   5.759 -0.4389  0.8730  1.3520
  957MOL0     H32066   5.173   6.898   5.635  0.9163 -0.3478 -0.9228
  958MOL0     O32067   6.195  10.166   5.020 -0.0401  0.5947 -0.2633
  958MOL0     C32068   6.281  10.095   5.068  0.0194 -0.2601 -0.1122
  958MOL0     O32069   6.259   9.971   5.133  0.0140  0.0680 -0.8503
  958MOL0     C32070   6.129   9.938   5.134  1.2661  0.0756 -0.5121
  958MOL0     C32071   6.060   9.855   5.047 -0.5832 -0.3896  0.3706
  958MOL0     C32072   5.925   9.827   5.056  0.3930 -0.3808 -0.2482
  958MOL0     C32073   5.852   9.880   5.161 -0.3823 -0.5133  0.0539
  958MOL0     O32074   5.717   9.856   5.171  0.1919 -0.2087 -0.2333
  958MOL0     C32075   5.635   9.965   5.123 -0.3656  0.2764  0.1517
  958MOL0     C32076   5.483   9.940   5.124 -1.0811  0.2017  0.7213
  958MOL0     C32077   5.408   9.988   5.247 -0.0122  0.5169  0.1777
  958MOL0     C32078   5.397  10.137   5.250  0.2874 -0.3517  0.3719
  958MOL0     C32079   5.373  10.178   5.399  0.0995 -0.5062  1.0335
  958MOL0     C32080   5.397  10.325   5.432  0.0918  0.6676  0.1177
  958MOL0     C32081   5.548  10.345   5.421  0.2202  0.3807  0.0408
  958MOL0     C32082   5.592  10.490   5.468  0.5529  0.1661 -1.2110
  958MOL0     N32083   5.722  10.490   5.535  0.0854 -0.5349 -0.4552
  958MOL0     C32084   5.840  10.456   5.465  0.6325  0.1563 -0.7034
  958MOL0     C32085   5.937  10.476   5.550  0.6324  0.4693 -0.4267
  958MOL0     C32086   6.079  10.478   5.522 -0.5802 -0.4209 -1.3303
  958MOL0     C32087   6.116  10.351   5.440 -0.0604  0.3319 -0.2854
  958MOL0     C32088   6.267  10.320   5.452  0.3598 -1.1711 -0.7021
  958MOL0     C32089   6.354  10.398   5.347 -0.3292  1.2755 -0.2645
  958MOL0     O32090   6.344  10.541   5.375  0.2322 -0.1805  0.2354
  958MOL0     C32091   6.434  10.629   5.309  1.3667  0.2390  0.6118
  958MOL0     C32092   6.481  10.587   5.183  0.3476  0.2638  0.1503
  958MOL0     C32093   6.559  10.670   5.106 -0.7288  0.5618  0.2798
  958MOL0     C32094   6.606  10.627   4.973 -0.6282  0.3193 -0.5646
  958MOL0     C32095   6.584  10.800   5.160  0.2218  0.6734 -0.7292
  958MOL0     C32096   6.658  10.907   5.088  0.2162  0.3377 -0.1417
  958MOL0     O32097   6.689  11.015   5.164  0.0852  0.0894  0.2733
  958MOL0     C32098   6.748  11.118   5.101 -0.5653 -0.6148  0.8441
  958MOL0     C32099   6.883  11.121   5.075  0.1106 -0.6589  0.1993
  958MOL0     C32100   6.930  11.221   4.988 -0.3159 -0.3970 -0.1210
  958MOL0     C32101   6.842  11.320   4.937  0.0159  0.3279 -0.9445
  958MOL0     O32102   6.889  11.408   4.851  0.1204  0.4834 -0.3171
  958MOL0     C32103   6.822  11.521   4.792  0.1475  0.2004  0.3648
  958MOL0     C32104   6.932  11.617   4.762  0.0016 -0.2410  0.6028
  958MOL0     C32105   7.053  11.562   4.680 -0.2193 -0.1937  0.4070
  958MOL0     C32106   7.039  11.424   4.594 -0.5611 -0.0816 -0.6607
  958MOL0     C32107   7.173  11.369   4.540 -0.4375 -0.3691  0.5236
  958MOL0     C32108   7.282  11.342   4.643 -1.0863 -0.1812 -0.3565
  958MOL0     C32109   7.234  11.251   4.761 -0.4048  0.0307  0.4286
  958MOL0     C32110   7.183  11.114   4.704 -0.8747  0.4511 -0.5085
  958MOL0    Cl32111   7.222  11.007   4.841 -0.2149  0.0843  0.2332
  958MOL0     C32112   6.708  11.310   4.971 -1.1095 -0.4151  0.1881
  958MOL0     C32113   6.656  11.207   5.049 -1.1259 -0.1963 -0.0804
  958MOL0     O32114   6.661  10.901   4.962 -0.1455  0.7205 -0.3745
  958MOL0     C32115   6.525  10.839   5.282  0.3377  0.1034 -0.8157
  958MOL0     C32116   6.450  10.755   5.356 -0.0891 -0.5043 -0.4373
  958MOL0     N32117   5.887  10.505   5.674  0.6118  0.7407 -0.0046
  958MOL0     N32118   5.749  10.504   5.666 -0.6703 -0.4136 -0.9661
  958MOL0     C32119   5.919   9.959   5.260 -0.0889 -0.7140  0.0436
  958MOL0     C32120   6.050   9.996   5.235  0.0949  0.1530 -0.4750
  958MOL0     C32121   6.415  10.152   5.068 -0.9438  0.3172  0.2785
  958MOL0     C32122   6.496  10.114   5.172 -0.6288  0.3082  0.5598
  958MOL0     C32123   6.632  10.153   5.181  0.1731 -0.0832  0.5009
  958MOL0     C32124   6.691  10.231   5.080  0.1156 -1.1867 -0.2552
  958MOL0     O32125   6.815  10.275   5.099 -0.4715  0.6325  0.7825
  958MOL0     C32126   6.905  10.349   5.007  0.4702  0.9409  0.4514
  958MOL0     C32127   7.048  10.379   5.074 -0.6994 -0.4979  0.0739
  958MOL0     C32128   7.050  10.475   5.204  0.9235  0.4376 -1.0668
  958MOL0     C32129   6.954  10.590   5.217  0.3417  0.3839  1.0463
  958MOL0     C32130   7.001  10.686   5.118  0.2360  0.5963  0.5478
  958MOL0     C32131   7.030  10.746   5.018  0.7167  0.0136  0.1465
  958MOL0     C32132   6.611  10.255   4.964  0.3449  0.1164  0.3862
  958MOL0     C32133   6.479  10.216   4.958  0.3192 -0.0377 -0.5221
  958MOL0     C32134   6.395  10.249   4.833  0.1854 -0.3800  0.7064
  958MOL0     H32135   6.089   9.811   4.952 -1.1392  0.0239  0.0057
  958MOL0     H32136   5.868   9.766   4.986  0.0819  0.7630 -1.0143
  958MOL0     H32137   5.656   9.977   5.016 -0.5630 -0.4772  0.0252
  958MOL0     H32138   5.659  10.061   5.170 -1.2009  1.1277 -1.1026
  958MOL0     H32139   5.442  10.001   5.044 -0.0609 -0.4773 -0.3525
  958MOL0     H32140   5.459   9.834   5.110  1.4532 -0.2394 -0.9299
  958MOL0     H32141   5.309   9.942   5.258 -1.1531  2.6498 -0.6377
  958MOL0     H32142   5.473   9.963   5.332 -1.1051 -1.1578  0.5747
  958MOL0     H32143   5.491  10.177   5.211 -0.0285 -0.2634 -0.3168
  958MOL0     H32144   5.329  10.181   5.176  2.1896 -1.5219 -2.2011
  958MOL0     H32145   5.440  10.118   5.462 -0.0151 -1.6615  0.0799
  958MOL0     H32146   5.270  10.149   5.423  0.4185 -1.9236  0.7832
  958MOL0     H32147   5.353  10.398   5.363 -0.5420  0.0430 -0.1488
  958MOL0     H32148   5.360  10.352   5.532 -0.5839  2.5945 -0.6092
  958MOL0     H32149   5.584  10.334   5.318  0.4549  2.0192 -0.0791
  958MOL0     H32150   5.599  10.272   5.485  0.1318  0.3499  0.0758
  958MOL0     H32151   5.592  10.560   5.384  0.8582  2.2133  0.4202
  958MOL0     H32152   5.520  10.533   5.538  0.5499  2.1158 -2.3317
  958MOL0     H32153   5.854  10.431   5.361 -0.2192 -1.4120 -0.4719
  958MOL0     H32154   6.131  10.468   5.618  1.3154  0.2485 -2.2389
  958MOL0     H32155   6.102  10.577   5.481 -2.2847  0.3840 -0.4599
  958MOL0     H32156   6.060  10.268   5.483 -0.1264  0.0080 -0.9844
  958MOL0     H32157   6.077  10.350   5.337 -0.1616 -0.4256 -0.2417
  958MOL0     H32158   6.300  10.351   5.552 -1.1095  0.7586 -0.7744
  958MOL0     H32159   6.287  10.215   5.430 -0.2540 -1.8380  1.5889
  958MOL0     H32160   6.456  10.359   5.354 -0.3031  1.3037 -0.4927
  958MOL0     H32161   6.314  10.377   5.248 -4.1897 -3.1643  1.8459
  958MOL0     H32162   6.464  10.495   5.127 -0.2591  1.5439 -1.9070
  958MOL0     H32163   6.706  10.666   4.955 -1.2595  2.1320 -0.3574
  958MOL0     H32164   6.537  10.680   4.907 -0.6532 -0.0624 -0.8468
  958MOL0     H32165   6.597  10.519   4.961  1.1274 -0.2241  2.0259
  958MOL0     H32166   6.944  11.041   5.116  2.0018  0.6781  0.1358
  958MOL0     H32167   7.032  11.216   4.950 -0.9217 -0.0787 -1.9262
  958MOL0     H32168   6.774  11.486   4.701  0.4541 -0.0269  0.2862
  958MOL0     H32169   6.746  11.569   4.854 -0.9640  4.1701 -3.5307
  958MOL0     H32170   6.889  11.709   4.721  0.2948  0.5837  2.0579
  958MOL0     H32171   6.982  11.638   4.857  0.7876 -2.0197  0.6159
  958MOL0     H32172   7.141  11.562   4.744  2.4857 -2.0823 -2.9399
  958MOL0     H32173   7.084  11.635   4.604  2.4246  1.5908  2.9643
  958MOL0     H32174   6.971  11.441   4.511  0.2693 -0.3581 -1.4065
  958MOL0     H32175   6.996  11.345   4.657 -1.5391  0.8894 -0.0682
  958MOL0     H32176   7.143  11.281   4.483 -1.4604  0.8981 -0.9733
  958MOL0     H32177   7.213  11.437   4.465  2.4101 -1.3197  1.0420
  958MOL0     H32178   7.317  11.434   4.690 -1.5733  0.3895 -1.0812
  958MOL0     H32179   7.364  11.303   4.582 -1.9591  0.7182 -2.2094
  958MOL0     H32180   7.157  11.311   4.811 -0.1248  1.2517 -0.5633
  958MOL0     H32181   7.314  11.224   4.830 -0.9779 -0.9383  0.7471
  958MOL0     H32182   7.234  11.081   4.614 -1.6796  0.4871 -0.9884
  958MOL0     H32183   7.074  11.123   4.692 -1.0606  2.6383  1.9080
  958MOL0     H32184   6.645  11.384   4.922 -0.6677  0.1474  0.4720
  958MOL0     H32185   6.552  11.185   5.071 -0.5572 -0.2411  3.0626
  958MOL0     H32186   6.534  10.938   5.326 -2.1811 -0.0820  0.2730
  958MOL0     H32187   6.407  10.780   5.453 -1.1716 -0.5819 -0.8883
  958MOL0     H32188   5.865  10.016   5.335  3.1506  2.6002  0.1605
  958MOL0     H32189   6.100  10.060   5.306  0.3702 -0.8289  0.2314
  958MOL0     H32190   6.457  10.059   5.258  1.7005 -1.4025  0.6266
  958MOL0     H32191   6.699  10.128   5.262  1.1345 -0.6020 -0.4238
  958MOL0     H32192   6.930  10.283   4.924 -1.5290 -0.6700  1.0402
  958MOL0     H32193   6.859  10.442   4.974 -0.7125  1.1010  2.3529
  958MOL0     H32194   7.126  10.406   5.002  0.4805 -2.0205  0.7231
  958MOL0     H32195   7.086  10.283   5.111  0.3454 -0.7328 -1.5044
  958MOL0     H32196   7.026  10.413   5.292 -0.8992  0.1732 -1.7087
  958MOL0     H32197   7.151  10.515   5.213  2.8182 -3.9454  0.1841
  958MOL0     H32198   6.959  10.629   5.319  2.2673 -0.0076  1.1405
  958MOL0     H32199   6.849  10.567   5.199  0.4239 -0.3192  1.4379
  958MOL0     H32200   7.044  10.792   4.922  0.6463  2.4931  1.2616
  958MOL0     H32201   6.656  10.305   4.878 -0.1070  1.2889  0.8118
  958MOL0     H32202   6.331  10.165   4.807  0.5770  0.1744 -2.4894
  958MOL0     H32203   6.333  10.339   4.845 -2.0938 -1.1569 -3.3854
  958MOL0     H32204   6.460  10.267   4.747 -1.5676 -0.7986 -0.7586
  959MOL0     O32205  10.199   0.604   3.684 -0.5091 -0.3828  0.1607
  959MOL0     C32206  10.140   0.498   3.664  0.7062  0.0112 -0.2120
  959MOL0     O32207  10.182   0.378   3.701  0.4248 -0.1181 -0.6232
  959MOL0     C32208  10.305   0.376   3.761  0.2791 -0.1437 -0.2205
  959MOL0     C32209  10.302   0.401   3.892  0.2534  0.5210 -0.9627
  959MOL0     C32210  10.414   0.385   3.971  0.1648  0.1815  0.1091
  959MOL0     C32211  10.534   0.341   3.916  0.4013  0.9038 -0.0825
  959MOL0     O32212  10.643   0.317   4.002  0.2380  0.1407  0.4057
  959MOL0     C32213  10.725   0.209   3.999 -0.7800  0.6501  0.3515
  959MOL0     C32214  10.863   0.249   3.946 -0.0036  0.5657 -0.2290
  959MOL0     C32215  10.950   0.335   4.039  0.8550 -0.0679  0.1859
  959MOL0     C32216  11.044   0.249   4.134  0.4441  0.2497  0.7125
  959MOL0     C32217  11.065   0.340   4.259  0.5944 -0.1020  0.8173
  959MOL0     C32218  10.948   0.319   4.356 -0.0749 -1.1004 -0.2446
  959MOL0     C32219  10.918   0.445   4.441  0.4526 -0.3694 -1.0122
  959MOL0     C32220  11.037   0.501   4.510 -0.8672 -1.1008  0.0600
  959MOL0     N32221  11.114   0.405   4.598 -0.3334  0.2086 -0.3454
  959MOL0     C32222  11.235   0.339   4.570 -0.1796 -0.1999  0.2498
  959MOL0     C32223  11.250   0.252   4.672  0.6918 -0.3548 -0.1912
  959MOL0     C32224  11.371   0.168   4.690  0.5817 -0.1119 -0.7142
  959MOL0     C32225  11.506   0.245   4.660 -0.0402  0.8963  0.2994
  959MOL0     C32226  11.621   0.140   4.678 -0.6231 -0.4836 -0.0557
  959MOL0     C32227  11.761   0.194   4.652  0.4378  0.1204 -0.8336
  959MOL0     O32228  11.853   0.093   4.668  0.2416 -0.6694  0.0989
  959MOL0     C32229  11.988   0.119   4.650  0.3948 -0.7186  0.6004
  959MOL0     C32230  12.078   0.018   4.687 -0.1643  0.0546 -0.0950
  959MOL0     C32231  12.210   0.017   4.639  0.1936 -0.4167 -1.1233
  959MOL0     C32232  12.288  -0.105   4.664 -0.1113 -0.0073  0.3203
  959MOL0     C32233  12.256   0.136   4.576  0.2369  0.0228  1.0282
  959MOL0     C32234  12.391   0.153   4.528  0.0298  0.2034 -0.3572
  959MOL0     O32235  12.464   0.269   4.565  0.4792  0.0143 -0.5979
  959MOL0     C32236  12.594   0.275   4.507  0.6531 -0.3218 -0.0770
  959MOL0     C32237  12.613   0.371   4.412  0.1976 -0.3635  0.0608
  959MOL0     C32238  12.725   0.366   4.322  0.5769  0.4583  0.7663
  959MOL0     C32239  12.816   0.256   4.341 -0.5688 -0.2689  0.2093
  959MOL0     O32240  12.918   0.248   4.248  0.6271 -0.4599 -0.4578
  959MOL0     C32241  13.043   0.321   4.276 -0.1710 -0.0083  0.1790
  959MOL0     C32242  13.156   0.275   4.182  0.0328  0.0654  0.2310
  959MOL0     C32243  13.126   0.298   4.035 -0.4050  0.2885 -0.1513
  959MOL0     C32244  13.201   0.192   3.940 -0.3338 -0.1662  0.3792
  959MOL0     C32245  13.145   0.219   3.796  0.3519 -0.1036  0.0720
  959MOL0     C32246  13.207   0.123   3.703 -0.0285 -0.3664 -0.2332
  959MOL0     C32247  13.178  -0.024   3.747  0.3124 -0.0052  0.2379
  959MOL0     C32248  13.221  -0.135   3.656  0.3791  0.2462  0.1395
  959MOL0    Cl32249  13.141  -0.132   3.495 -0.2844 -0.0717 -0.3661
  959MOL0     C32250  12.794   0.167   4.444 -0.0571 -0.1456 -0.1405
  959MOL0     C32251  12.691   0.176   4.529  0.5259  0.3525  0.6062
  959MOL0     O32252  12.433   0.070   4.450  0.4715  0.5204 -0.7585
  959MOL0     C32253  12.180   0.254   4.563 -0.3689 -0.2895  0.8822
  959MOL0     C32254  12.041   0.244   4.598 -0.0745 -0.0735 -0.7932
  959MOL0     N32255  11.143   0.279   4.769 -0.5623 -0.0853  0.0272
  959MOL0     N32256  11.060   0.361   4.714  0.4835  0.0776 -0.1814
  959MOL0     C32257  10.539   0.317   3.776 -0.8719 -0.2963 -0.2515
  959MOL0     C32258  10.423   0.328   3.706 -0.0755  0.1799  0.3638
  959MOL0     C32259  10.010   0.513   3.593  0.1331  0.8055 -0.0653
  959MOL0     C32260   9.947   0.396   3.552  0.1491 -0.4127  0.5207
  959MOL0     C32261   9.832   0.407   3.465  0.0925 -0.4885  0.1495
  959MOL0     C32262   9.779   0.528   3.417  0.0606 -0.6988 -0.6530
  959MOL0     O32263   9.677   0.539   3.322 -0.4237  0.1625  0.4053
  959MOL0     C32264   9.561   0.450   3.324  1.5499  0.2161  0.3149
  959MOL0     C32265   9.427   0.534   3.320  0.6691  0.2182 -0.4552
  959MOL0     C32266   9.434   0.667   3.245  0.0461 -0.0148 -0.0419
  959MOL0     C32267   9.316   0.756   3.274  0.5704  0.5741  0.2051
  959MOL0     C32268   9.179   0.706   3.248  0.1063  0.4761  0.0162
  959MOL0     C32269   9.061   0.679   3.224 -0.7413 -0.5040  0.2136
  959MOL0     C32270   9.837   0.640   3.462 -0.7457 -0.1744  0.2583
  959MOL0     C32271   9.945   0.635   3.548 -1.3909 -1.1134  0.2284
  959MOL0     C32272  10.000   0.765   3.597  0.1852 -0.8707  0.3095
  959MOL0     H32273  10.205   0.415   3.938  0.0276 -0.4028 -1.1361
  959MOL0     H32274  10.411   0.388   4.079  0.3931  0.4095  0.1100
  959MOL0     H32275  10.677   0.122   3.953 -2.0628  0.6337  1.6740
  959MOL0     H32276  10.747   0.187   4.104 -1.2575  1.2198  0.5703
  959MOL0     H32277  10.918   0.163   3.908 -1.8588  0.8793 -4.0956
  959MOL0     H32278  10.841   0.307   3.856  1.2601  2.2750  0.5010
  959MOL0     H32279  11.033   0.385   3.988  1.1266 -0.6219  0.0756
  959MOL0     H32280  10.883   0.400   4.095  0.1896 -0.3992 -0.2051
  959MOL0     H32281  11.005   0.150   4.156  0.6341 -0.1310 -0.5719
  959MOL0     H32282  11.135   0.226   4.077 -0.2914  1.2105 -0.9103
  959MOL0     H32283  11.084   0.444   4.228 -1.3364 -0.0332 -0.3117
  959MOL0     H32284  11.148   0.307   4.322 -0.3001 -0.7957  1.6465
  959MOL0     H32285  10.859   0.300   4.296  1.2765  0.3451 -2.9288
  959MOL0     H32286  10.974   0.232   4.417 -2.0827 -0.3764  1.7638
  959MOL0     H32287  10.840   0.437   4.517 -0.0323  3.1717 -0.9939
  959MOL0     H32288  10.873   0.518   4.373 -2.0438 -1.2813 -0.4388
  959MOL0     H32289  11.108   0.528   4.431 -0.2076  2.3833  1.6363
  959MOL0     H32290  11.000   0.585   4.570 -0.0462  0.6496 -1.7436
  959MOL0     H32291  11.301   0.353   4.485  1.3816  1.6958  1.6761
  959MOL0     H32292  11.350   0.082   4.625  2.3981 -0.4331 -0.9164
  959MOL0     H32293  11.374   0.124   4.791 -0.6251 -3.0616 -1.8545
  959MOL0     H32294  11.507   0.300   4.565  0.7984 -1.5370 -1.1975
  959MOL0     H32295  11.514   0.317   4.742  0.4137 -0.3354  1.3782
  959MOL0     H32296  11.625   0.101   4.780 -0.7154  0.3842  0.2861
  959MOL0     H32297  11.611   0.059   4.605  0.1679 -1.2495  0.6537
  959MOL0     H32298  11.751   0.236   4.551 -1.8446  2.1913  0.1595
  959MOL0     H32299  11.788   0.275   4.721 -0.4614 -1.1452  1.0743
  959MOL0     H32300  12.038  -0.072   4.732  0.7427 -0.2189  0.1907
  959MOL0     H32301  12.391  -0.072   4.678  0.1411  0.2744 -1.7693
  959MOL0     H32302  12.273  -0.182   4.587 -0.3802 -0.2385  0.5993
  959MOL0     H32303  12.261  -0.161   4.754 -1.4696 -2.1807 -1.3026
  959MOL0     H32304  12.532   0.438   4.384 -0.2736 -1.2182 -0.6804
  959MOL0     H32305  12.726   0.436   4.239  2.7634  2.5756  2.4150
  959MOL0     H32306  13.027   0.429   4.280  0.4884  0.0721  0.8665
  959MOL0     H32307  13.074   0.296   4.378  1.9195 -2.6795 -0.9835
  959MOL0     H32308  13.250   0.320   4.215  0.6383 -0.9135 -0.1197
  959MOL0     H32309  13.190   0.172   4.181  3.5546  1.1035 -0.6376
  959MOL0     H32310  13.157   0.400   4.012  1.5204  0.2046  1.7016
  959MOL0     H32311  13.018   0.290   4.027 -0.3084 -0.5137 -0.8802
  959MOL0     H32312  13.183   0.092   3.979 -1.8778  0.4923  1.4655
  959MOL0     H32313  13.307   0.219   3.944 -0.6671  1.2561  0.3633
  959MOL0     H32314  13.041   0.187   3.798  0.5423 -0.9427 -1.7131
  959MOL0     H32315  13.161   0.325   3.776  1.0861 -0.3649 -0.7913
  959MOL0     H32316  13.316   0.136   3.708  0.0849  0.5052 -3.1889
  959MOL0     H32317  13.172   0.145   3.602  0.9960  2.3927 -0.0708
  959MOL0     H32318  13.069  -0.032   3.745  0.4295 -2.8939  0.9140
  959MOL0     H32319  13.221  -0.052   3.843 -1.0542 -2.8606  0.1069
  959MOL0     H32320  13.201  -0.229   3.707  1.6725 -0.8274 -1.2662
  959MOL0     H32321  13.327  -0.128   3.633  0.5684  1.0626  1.1550
  959MOL0     H32322  12.861   0.081   4.438  1.0887  0.7847 -1.2613
  959MOL0     H32323  12.671   0.096   4.599 -0.1320 -0.6736 -0.6859
  959MOL0     H32324  12.226   0.343   4.520 -0.6562  1.2825  3.5783
  959MOL0     H32325  11.979   0.328   4.570  1.0311  0.2181 -2.5930
  959MOL0     H32326  10.639   0.290   3.742  0.1311  1.3176  1.2293
  959MOL0     H32327  10.438   0.316   3.599  3.3416  1.2122  0.5909
  959MOL0     H32328   9.997   0.300   3.562  0.7453 -0.2380 -0.7038
  959MOL0     H32329   9.790   0.318   3.419 -1.0479  0.2627 -0.3177
  959MOL0     H32330   9.567   0.381   3.240  0.2079  1.2902 -0.7312
  959MOL0     H32331   9.553   0.382   3.409 -2.0244 -2.0143 -1.5321
  959MOL0     H32332   9.395   0.545   3.424 -2.1437 -0.2382 -1.1819
  959MOL0     H32333   9.353   0.475   3.265  0.7923  1.5635 -2.1540
  959MOL0     H32334   9.527   0.719   3.269  0.0491 -0.7139  1.6128
  959MOL0     H32335   9.433   0.643   3.138 -0.8071 -1.9093  0.3544
  959MOL0     H32336   9.324   0.848   3.214  3.5500 -0.3632 -1.0262
  959MOL0     H32337   9.320   0.781   3.380 -1.6005 -2.9101  1.2838
  959MOL0     H32338   8.974   0.636   3.179 -0.2249 -0.7439 -0.5688
  959MOL0     H32339   9.800   0.733   3.420 -0.4192  0.1674  0.7199
  959MOL0     H32340  10.097   0.796   3.558 -1.1865  1.4718 -1.5648
  959MOL0     H32341   9.933   0.845   3.565 -0.4632  0.4521  4.4039
  959MOL0     H32342   9.999   0.761   3.706 -0.8302 -0.4853  0.3316
  960MOL0     O32343   9.128  10.394   7.430 -0.5521 -0.2818 -0.3133
  960MOL0     C32344   9.129  10.277   7.463  0.5285 -0.7790 -0.9213
  960MOL0     O32345   9.175  10.227   7.584 -0.2672 -0.2916  0.2412
  960MOL0     C32346   9.231  10.318   7.668 -0.8646 -0.1543  0.0447
  960MOL0     C32347   9.349  10.379   7.640 -0.6281 -0.3454  0.7526
  960MOL0     C32348   9.403  10.474   7.734  0.5508  0.5480 -0.4595
  960MOL0     C32349   9.358  10.496   7.860  0.1116  0.0263  0.3329
  960MOL0     O32350   9.433  10.577   7.940  0.0488 -0.3091 -0.6975
  960MOL0     C32351   9.364  10.619   8.066  0.1876  0.2949  0.4957
  960MOL0     C32352   9.274  10.737   8.050  0.6226 -0.2535  0.1343
  960MOL0     C32353   9.342  10.872   8.027 -0.5599 -0.6516 -0.6468
  960MOL0     C32354   9.229  10.984   8.019  0.3682 -0.5265 -0.2842
  960MOL0     C32355   9.287  11.121   8.018 -0.0119 -0.7029  0.2648
  960MOL0     C32356   9.173  11.234   7.993 -0.4067  0.6617  0.7204
  960MOL0     C32357   9.232  11.367   8.034  0.2769  0.3249 -1.0647
  960MOL0     C32358   9.268  11.460   7.914 -0.2185 -1.0056 -0.1246
  960MOL0     N32359   9.342  11.575   7.968 -0.2022 -0.5889  0.2119
  960MOL0     C32360   9.471  11.604   7.943 -0.4999 -0.1389 -0.0264
  960MOL0     C32361   9.486  11.736   7.979 -0.0301 -0.8843 -0.1196
  960MOL0     C32362   9.613  11.800   7.966  0.0829  0.0628  0.1059
  960MOL0     C32363   9.700  11.785   8.094  0.1187  0.0934 -0.1798
  960MOL0     C32364   9.837  11.866   8.094  1.1037  0.3856  0.6014
  960MOL0     C32365   9.901  11.852   8.237 -0.0114  0.2512 -0.1951
  960MOL0     O32366  10.002  11.950   8.250  0.1466  0.7669  0.2198
  960MOL0     C32367  10.081  11.939   8.361 -0.0649  0.3382  1.2704
  960MOL0     C32368  10.124  11.822   8.430 -0.2937  0.0842 -0.6473
  960MOL0     C32369  10.206  11.829   8.552  0.0802 -0.3491  0.5592
  960MOL0     C32370  10.226  11.700   8.633 -0.1679 -0.7199 -0.3847
  960MOL0     C32371  10.261  11.958   8.593  0.3386 -0.4651  0.0845
  960MOL0     C32372  10.361  11.979   8.701 -0.4371 -0.4121  0.4179
  960MOL0     O32373  10.393  12.109   8.731  0.0648  0.2115 -0.0372
  960MOL0     C32374  10.488  12.130   8.829 -0.4482 -0.7677  0.7653
  960MOL0     C32375  10.497  12.087   8.957 -0.7007 -0.6154 -0.4951
  960MOL0     C32376  10.600  12.131   9.039  0.5205 -0.0806  0.3081
  960MOL0     C32377  10.691  12.230   9.000 -0.0850  0.7625 -0.0797
  960MOL0     O32378  10.794  12.288   9.071  0.1586  0.8605 -0.0165
  960MOL0     C32379  10.811  12.234   9.203 -0.4288 -0.8938  0.0894
  960MOL0     C32380  10.900  12.330   9.278 -0.5259  0.2010 -0.1334
  960MOL0     C32381  11.017  12.379   9.192 -0.2807  0.2053  0.9263
  960MOL0     C32382  11.103  12.484   9.263 -0.1124  0.3418 -0.3813
  960MOL0     C32383  11.239  12.511   9.199  0.6600 -0.3947  0.1708
  960MOL0     C32384  11.327  12.592   9.295 -0.1677 -0.2463  0.7152
  960MOL0     C32385  11.465  12.613   9.227  0.1559  0.9075 -0.5263
  960MOL0     C32386  11.560  12.684   9.325  0.4170 -0.7659  0.0313
  960MOL0    Cl32387  11.731  12.671   9.272 -0.5979 -0.2572  0.2385
  960MOL0     C32388  10.682  12.278   8.870  0.7243  0.3992 -0.3391
  960MOL0     C32389  10.586  12.228   8.791 -0.8276 -0.3350 -0.0615
  960MOL0     O32390  10.407  11.881   8.755 -0.1045 -0.1266  0.0144
  960MOL0     C32391  10.206  12.066   8.525 -0.0083 -0.6065 -0.1839
  960MOL0     C32392  10.122  12.060   8.417 -0.1040  0.0236  1.1306
  960MOL0     N32393   9.363  11.789   8.018 -0.0978  0.5058  0.0898
  960MOL0     N32394   9.282  11.691   8.011  0.8665  0.2481  0.6010
  960MOL0     C32395   9.235  10.424   7.882  0.6652  0.7278 -0.7304
  960MOL0     C32396   9.171  10.338   7.783  0.1542 -0.0568  1.2709
  960MOL0     C32397   9.070  10.162   7.383 -0.4044 -0.1939 -0.1050
  960MOL0     C32398   9.064  10.032   7.436  0.4425  0.3172 -0.4174
  960MOL0     C32399   9.008   9.928   7.360 -0.1266  0.0231  0.5364
  960MOL0     C32400   8.956   9.947   7.240  1.0352 -0.6048  0.5939
  960MOL0     O32401   8.888   9.843   7.166  0.0957  0.7445 -0.1856
  960MOL0     C32402   8.825   9.730   7.236  0.4002  0.0551  0.2385
  960MOL0     C32403   8.711   9.676   7.153  0.9605  0.1634 -0.5251
  960MOL0     C32404   8.659   9.564   7.228  0.5110  1.4018 -0.1204
  960MOL0     C32405   8.543   9.486   7.167  0.4032  0.1607  0.3162
  960MOL0     C32406   8.432   9.574   7.122 -0.3025  0.1533  0.5946
  960MOL0     C32407   8.339   9.639   7.077 -0.2184  0.4997  0.1353
  960MOL0     C32408   8.950  10.080   7.185 -0.0124  0.5592  0.2166
  960MOL0     C32409   9.014  10.182   7.248 -0.8105  0.7475 -0.2712
  960MOL0     C32410   9.024  10.310   7.168  0.3238 -0.9673  0.0803
  960MOL0     H32411   9.397  10.365   7.544  4.0032  0.3386  2.7236
  960MOL0     H32412   9.484  10.535   7.697 -0.1580  1.6733 -0.2063
  960MOL0     H32413   9.439  10.645   8.141  3.1707 -1.4810 -1.6640
  960MOL0     H32414   9.305  10.540   8.113  0.2356  1.5833  2.8377
  960MOL0     H32415   9.205  10.714   7.968  0.9240 -0.6213 -0.0208
  960MOL0     H32416   9.220  10.750   8.144 -0.9385 -1.7755 -0.4939
  960MOL0     H32417   9.406  10.897   8.111  3.5099 -4.8937 -2.0970
  960MOL0     H32418   9.400  10.863   7.935 -1.6146 -0.2028 -1.3861
  960MOL0     H32419   9.171  10.977   7.927  2.0824  2.8009 -1.7774
  960MOL0     H32420   9.167  10.979   8.109  0.4550 -0.1993 -0.2048
  960MOL0     H32421   9.362  11.119   7.938 -1.2609 -1.6562 -0.9347
  960MOL0     H32422   9.338  11.133   8.114 -0.2877  1.0202  0.2385
  960MOL0     H32423   9.140  11.228   7.889 -1.9965 -1.0844  1.2710
  960MOL0     H32424   9.086  11.209   8.054 -0.6176 -1.5725 -0.4081
  960MOL0     H32425   9.324  11.337   8.085  1.0177  0.0219 -2.5190
  960MOL0     H32426   9.166  11.417   8.105  1.3854  1.7484 -0.9966
  960MOL0     H32427   9.332  11.410   7.841  0.2416  1.2204 -1.2981
  960MOL0     H32428   9.174  11.492   7.868 -1.4747 -2.0778  1.5587
  960MOL0     H32429   9.551  11.555   7.889  1.2226  0.7294  1.6265
  960MOL0     H32430   9.584  11.904   7.951 -2.5601 -0.4342  1.1708
  960MOL0     H32431   9.662  11.770   7.874  2.9903  2.5957  0.6836
  960MOL0     H32432   9.648  11.820   8.184 -1.0855  3.3780 -1.9912
  960MOL0     H32433   9.731  11.684   8.120  2.4397  1.3857  2.7991
  960MOL0     H32434   9.910  11.825   8.023 -0.3004  2.0628 -1.9856
  960MOL0     H32435   9.820  11.973   8.082 -0.3748  0.2963  1.5807
  960MOL0     H32436   9.821  11.864   8.310  0.6734  0.2120  0.5756
  960MOL0     H32437   9.947  11.754   8.251  0.3923  0.6340  1.2635
  960MOL0     H32438  10.088  11.725   8.398  0.4536 -0.3105 -0.2997
  960MOL0     H32439  10.183  11.717   8.733 -1.6814 -0.8101 -0.9895
  960MOL0     H32440  10.333  11.681   8.636  0.3497  1.1198 -3.2161
  960MOL0     H32441  10.172  11.615   8.592 -0.2809 -1.1004  0.5237
  960MOL0     H32442  10.414  12.028   8.996  1.1149 -1.9520  1.5464
  960MOL0     H32443  10.596  12.099   9.142 -1.3789 -2.9423 -0.5166
  960MOL0     H32444  10.718  12.234   9.261 -1.7843  1.8559 -1.8450
  960MOL0     H32445  10.854  12.134   9.200  1.7723  0.0092 -1.6756
  960MOL0     H32446  10.846  12.411   9.328  1.9478  1.4411  0.7399
  960MOL0     H32447  10.939  12.270   9.361 -0.8286  0.0355 -0.1104
  960MOL0     H32448  10.976  12.429   9.104  0.7094 -3.9463 -2.2359
  960MOL0     H32449  11.077  12.297   9.152 -0.3794  0.4874  0.1870
  960MOL0     H32450  11.130  12.447   9.363 -0.6117  0.3970 -0.2216
  960MOL0     H32451  11.059  12.583   9.279 -0.9041  0.0018 -0.3882
  960MOL0     H32452  11.271  12.418   9.152 -0.2072  0.9072 -3.2955
  960MOL0     H32453  11.227  12.574   9.111  0.5493  0.8872  1.0653
  960MOL0     H32454  11.336  12.531   9.386  2.0309 -1.1191 -0.0171
  960MOL0     H32455  11.281  12.687   9.326 -0.0431 -0.4083  1.4277
  960MOL0     H32456  11.462  12.681   9.141 -0.5550  2.2654  0.5358
  960MOL0     H32457  11.507  12.513   9.212  0.8314  0.7688  1.9266
  960MOL0     H32458  11.551  12.644   9.426 -2.9294 -0.8013 -0.1464
  960MOL0     H32459  11.533  12.790   9.337 -1.1332 -0.7776 -2.5927
  960MOL0     H32460  10.759  12.350   8.843  1.2410  0.5847  1.4790
  960MOL0     H32461  10.580  12.262   8.689 -0.1200  1.7253  0.5326
  960MOL0     H32462  10.225  12.168   8.556 -0.5756 -0.6760  0.4239
  960MOL0     H32463  10.088  12.154   8.374  0.2570 -1.0036 -1.5843
  960MOL0     H32464   9.174  10.433   7.971 -0.1439  0.2125 -1.2209
  960MOL0     H32465   9.083  10.281   7.810  0.4382 -0.9463  0.3611
  960MOL0     H32466   9.091  10.008   7.538 -3.5409 -0.8970  0.5355
  960MOL0     H32467   8.997   9.833   7.412  1.9512 -0.6380 -0.1113
  960MOL0     H32468   8.898   9.652   7.260  0.4190  0.4461  1.5069
  960MOL0     H32469   8.785   9.757   7.334 -3.4949 -1.3584 -0.7953
  960MOL0     H32470   8.755   9.659   7.054  0.2422  0.5519 -0.9162
  960MOL0     H32471   8.642   9.760   7.145 -1.3414 -1.2738  2.1547
  960MOL0     H32472   8.737   9.491   7.253 -1.8120 -0.8952  0.8663
  960MOL0     H32473   8.623   9.581   7.329  0.1814 -1.7915  0.3941
  960MOL0     H32474   8.501   9.425   7.248 -0.1603  2.2542  1.6536
  960MOL0     H32475   8.584   9.428   7.083  0.1703  2.1807 -1.2745
  960MOL0     H32476   8.253   9.699   7.054 -1.7561 -1.9607 -0.9498
  960MOL0     H32477   8.898  10.086   7.090  0.6173  0.0660 -0.1712
  960MOL0     H32478   9.126  10.334   7.136 -0.6938  0.0318 -2.7387
  960MOL0     H32479   8.963  10.298   7.077  3.0977 -2.2156 -1.7628
  960MOL0     H32480   9.003  10.397   7.230  0.8158 -2.4280  2.4256
  961MOL0     O32481  11.129   2.954   5.966  0.3758 -0.3195 -0.2603
  961MOL0     C32482  11.119   2.980   6.080  0.6602  0.3887  0.4598
  961MOL0     O32483  11.203   3.061   6.146  0.3293 -0.6187 -0.4993
  961MOL0     C32484  11.287   3.141   6.063  0.3620  0.5105 -0.4870
  961MOL0     C32485  11.265   3.205   5.947  0.3695  0.1254  0.8809
  961MOL0     C32486  11.361   3.301   5.896 -0.0654 -0.3974 -0.1467
  961MOL0     C32487  11.473   3.332   5.965 -0.1795 -0.3559 -0.2645
  961MOL0     O32488  11.561   3.433   5.930  0.4198  0.3154  0.9245
  961MOL0     C32489  11.555   3.483   5.797 -0.1217  0.8093  0.3106
  961MOL0     C32490  11.672   3.585   5.773  0.1376 -0.8140  0.8452
  961MOL0     C32491  11.699   3.604   5.618 -1.1361 -0.5994  0.2279
  961MOL0     C32492  11.834   3.532   5.583  0.6689 -0.1792  0.0621
  961MOL0     C32493  11.947   3.626   5.627 -0.0169 -0.9676  0.1496
  961MOL0     C32494  11.997   3.740   5.528 -1.0795 -0.4183  0.6208
  961MOL0     C32495  12.093   3.842   5.583  0.2957  0.0120  0.9605
  961MOL0     C32496  12.232   3.782   5.601 -0.1083  0.0026  0.3105
  961MOL0     N32497  12.322   3.889   5.638 -0.3410  0.0447  0.2261
  961MOL0     C32498  12.376   3.982   5.553  0.3912  0.1989  0.3892
  961MOL0     C32499  12.449   4.064   5.633 -1.1716 -0.2091  0.2725
  961MOL0     C32500  12.551   4.175   5.585 -0.2493  0.3991  0.4623
  961MOL0     C32501  12.604   4.160   5.447 -0.5483 -0.7033 -0.1301
  961MOL0     C32502  12.509   4.198   5.327  0.1528 -0.1626 -0.0244
  961MOL0     C32503  12.593   4.223   5.204  0.0563  0.2520 -0.2882
  961MOL0     O32504  12.684   4.114   5.190 -0.2080 -0.6361  0.6759
  961MOL0     C32505  12.816   4.144   5.138  0.8447 -0.4684 -1.0892
  961MOL0     C32506  12.916   4.051   5.161 -0.4248  0.1676  0.5861
  961MOL0     C32507  13.049   4.059   5.101  0.3956 -0.1121  0.4364
  961MOL0     C32508  13.162   3.969   5.145 -0.2606 -0.1874  0.0742
  961MOL0     C32509  13.067   4.168   5.011 -0.4442  1.4983 -0.6587
  961MOL0     C32510  13.191   4.178   4.925  0.4442  0.6322  0.3064
  961MOL0     O32511  13.259   4.068   4.891 -0.0738 -0.8639 -0.1775
  961MOL0     C32512  13.395   4.066   4.855 -0.1077 -0.7039 -0.4136
  961MOL0     C32513  13.431   4.094   4.723 -0.0134 -0.0452  0.1996
  961MOL0     C32514  13.567   4.115   4.696  0.5479  0.1757 -0.1062
  961MOL0     C32515  13.667   4.090   4.790  0.1281  0.5484  0.2547
  961MOL0     O32516  13.793   4.094   4.735 -0.3137  0.6284 -0.4702
  961MOL0     C32517  13.909   4.047   4.804  1.2962 -0.5703 -0.1470
  961MOL0     C32518  14.037   4.069   4.739 -0.4337  0.4155 -0.9334
  961MOL0     C32519  14.144   3.981   4.808  0.6998  0.0769  0.2092
  961MOL0     C32520  14.264   3.949   4.721 -0.2730 -0.2420 -0.3408
  961MOL0     C32521  14.369   3.885   4.816  1.1557 -1.2210  0.0260
  961MOL0     C32522  14.493   3.839   4.744 -0.6617  0.1182  0.1942
  961MOL0     C32523  14.474   3.711   4.667  0.6551 -0.1624 -0.5645
  961MOL0     C32524  14.546   3.598   4.748 -1.0289  0.3245  0.4387
  961MOL0    Cl32525  14.525   3.443   4.676 -0.2565 -0.0650 -0.5965
  961MOL0     C32526  13.625   4.052   4.915 -0.3085 -0.0654  0.3935
  961MOL0     C32527  13.490   4.048   4.957 -0.7399  1.2754  0.6120
  961MOL0     O32528  13.231   4.292   4.911  0.7318 -0.5115  0.1531
  961MOL0     C32529  12.969   4.269   4.994  0.4513  0.2209  0.6264
  961MOL0     C32530  12.845   4.252   5.051  0.3050 -0.4387  0.3320
  961MOL0     N32531  12.427   4.024   5.764 -0.8591 -0.5229  0.1160
  961MOL0     N32532  12.335   3.930   5.763  0.2085 -0.3169  0.1106
  961MOL0     C32533  11.492   3.268   6.084 -0.5579 -0.6730  0.5059
  961MOL0     C32534  11.404   3.171   6.134  0.0849  0.6337 -0.9549
  961MOL0     C32535  11.009   2.923   6.164 -0.4877  0.2628 -0.4165
  961MOL0     C32536  11.018   2.930   6.306  0.2422 -0.1521  0.1785
  961MOL0     C32537  10.925   2.874   6.391 -0.0652  0.8760 -0.3593
  961MOL0     C32538  10.810   2.817   6.343  0.7519  1.0955 -0.5250
  961MOL0     O32539  10.741   2.765   6.446 -0.8705  0.5696 -0.2716
  961MOL0     C32540  10.614   2.697   6.417 -0.4858 -0.3544 -0.1862
  961MOL0     C32541  10.526   2.700   6.543 -0.9254  0.3149  0.5645
  961MOL0     C32542  10.463   2.842   6.554 -0.0423 -0.0454 -0.0549
  961MOL0     C32543  10.357   2.845   6.662  0.4197  0.2353 -0.2085
  961MOL0     C32544  10.428   2.861   6.793  0.2447 -0.5124  0.1859
  961MOL0     C32545  10.490   2.862   6.895 -0.3829 -0.0417  0.0811
  961MOL0     C32546  10.788   2.824   6.202  0.2962  0.1054  0.4131
  961MOL0     C32547  10.882   2.876   6.113 -0.2847 -0.0826 -0.4884
  961MOL0     C32548  10.843   2.879   5.957 -0.0719  0.0735 -1.0030
  961MOL0     H32549  11.167   3.185   5.904 -0.2930  1.7319  1.5575
  961MOL0     H32550  11.334   3.344   5.800 -0.3417  0.1317  0.1659
  961MOL0     H32551  11.456   3.525   5.780 -0.4197  0.2566  0.6548
  961MOL0     H32552  11.572   3.406   5.722  0.3734 -0.6637  1.8648
  961MOL0     H32553  11.649   3.685   5.811  2.2187  0.0833 -0.1035
  961MOL0     H32554  11.755   3.533   5.822  1.6069  1.1530  0.5968
  961MOL0     H32555  11.618   3.557   5.561 -1.2003 -1.6278  1.1204
  961MOL0     H32556  11.702   3.710   5.595 -0.6533 -1.0177 -1.7601
  961MOL0     H32557  11.845   3.441   5.641  1.1528  0.4036  0.8988
  961MOL0     H32558  11.832   3.513   5.475  1.0622  2.1765 -0.4226
  961MOL0     H32559  12.031   3.561   5.653  1.7443  1.3375  0.5735
  961MOL0     H32560  11.918   3.673   5.722  0.3302 -2.6475  1.1373
  961MOL0     H32561  12.033   3.681   5.443 -3.7203 -2.2623  0.6646
  961MOL0     H32562  11.905   3.781   5.487 -2.5455  0.4245  4.3299
  961MOL0     H32563  12.056   3.878   5.680  1.5697 -0.3534  1.6079
  961MOL0     H32564  12.091   3.926   5.514  0.0378  0.5426  1.6071
  961MOL0     H32565  12.232   3.705   5.678 -0.3960  0.1041  0.4149
  961MOL0     H32566  12.275   3.730   5.515  0.7560 -0.8394  1.2343
  961MOL0     H32567  12.366   3.990   5.446 -1.7787 -0.1477  0.5299
  961MOL0     H32568  12.641   4.167   5.646 -0.9081  0.4927  1.4640
  961MOL0     H32569  12.494   4.267   5.599  0.1790  0.6287  0.7221
  961MOL0     H32570  12.684   4.234   5.446 -0.9640 -0.2470 -0.2826
  961MOL0     H32571  12.650   4.061   5.435  1.1818 -0.0592  0.8773
  961MOL0     H32572  12.446   4.111   5.304 -0.6484  0.5956 -0.7999
  961MOL0     H32573  12.449   4.288   5.346  0.6772  0.0797  0.5244
  961MOL0     H32574  12.540   4.242   5.109  2.3033 -2.4152 -2.2477
  961MOL0     H32575  12.646   4.317   5.221 -0.2248  0.0984  1.6411
  961MOL0     H32576  12.900   3.970   5.231 -0.9515 -1.0351 -0.8667
  961MOL0     H32577  13.205   3.899   5.073 -3.0563 -0.8743 -1.0881
  961MOL0     H32578  13.118   3.914   5.228  1.0824 -2.1081 -0.4358
  961MOL0     H32579  13.236   4.023   5.204 -1.9341  0.0556  2.0504
  961MOL0     H32580  13.349   4.096   4.652  0.6070 -2.5552 -0.7016
  961MOL0     H32581  13.596   4.148   4.597  1.1618 -2.8490 -1.0588
  961MOL0     H32582  13.917   4.083   4.907 -0.9500 -0.0511 -0.1054
  961MOL0     H32583  13.874   3.945   4.825 -0.6534  0.3462  1.4073
  961MOL0     H32584  14.027   4.036   4.635 -0.2257  0.9251 -1.1187
  961MOL0     H32585  14.055   4.176   4.736  1.6979  0.1019 -1.3372
  961MOL0     H32586  14.091   3.894   4.848 -1.2791  2.1855  2.5364
  961MOL0     H32587  14.170   4.032   4.901  1.3989  0.2856 -0.0983
  961MOL0     H32588  14.305   4.039   4.675 -1.1763  0.4653  0.2117
  961MOL0     H32589  14.234   3.875   4.646  0.7327 -0.8420 -0.1807
  961MOL0     H32590  14.393   3.951   4.901 -0.3753  1.9101 -1.7763
  961MOL0     H32591  14.332   3.798   4.872  0.6043 -1.5317 -0.8059
  961MOL0     H32592  14.580   3.834   4.810  0.1105  3.3352 -0.4070
  961MOL0     H32593  14.510   3.908   4.661 -1.1510 -0.3674 -0.3266
  961MOL0     H32594  14.522   3.708   4.569 -2.1489 -1.8213 -2.0080
  961MOL0     H32595  14.372   3.677   4.648  0.9048 -1.3602  0.1474
  961MOL0     H32596  14.500   3.600   4.847 -0.2043 -2.1212  0.9388
  961MOL0     H32597  14.650   3.627   4.765 -0.8286  0.2396 -0.5772
  961MOL0     H32598  13.703   4.033   4.989 -0.4668 -4.8235 -0.3728
  961MOL0     H32599  13.462   4.038   5.061  1.7068 -0.0433  1.2153
  961MOL0     H32600  12.994   4.352   4.930  0.1104  0.8237  1.2553
  961MOL0     H32601  12.775   4.334   5.038 -0.1668 -0.7465  0.8941
  961MOL0     H32602  11.576   3.304   6.144  0.3031 -2.5230  0.4590
  961MOL0     H32603  11.417   3.129   6.233 -1.1030  2.9931  0.3106
  961MOL0     H32604  11.110   2.960   6.355  0.6017 -1.3738  0.2768
  961MOL0     H32605  10.947   2.890   6.496  0.8979  2.4498 -0.7674
  961MOL0     H32606  10.559   2.744   6.334  0.7747 -0.0141 -0.8518
  961MOL0     H32607  10.643   2.593   6.398  2.0521  0.4278 -0.9978
  961MOL0     H32608  10.591   2.681   6.629 -3.2977 -3.1418  1.8560
  961MOL0     H32609  10.450   2.621   6.533 -0.5190  0.1100 -0.9938
  961MOL0     H32610  10.532   2.925   6.572  1.3786 -1.5173  1.8873
  961MOL0     H32611  10.408   2.859   6.461 -1.5534 -1.0230  0.6207
  961MOL0     H32612  10.302   2.751   6.651 -1.0705  1.0604 -0.0636
  961MOL0     H32613  10.285   2.922   6.632  0.1052  0.1636  0.3423
  961MOL0     H32614  10.545   2.857   6.987 -0.7270  0.5898  0.3268
  961MOL0     H32615  10.690   2.797   6.165  0.3239  0.3407  0.1665
  961MOL0     H32616  10.925   2.872   5.885 -0.8127  0.1802 -1.8689
  961MOL0     H32617  10.773   2.797   5.941 -1.4289  0.8766  0.5034
  961MOL0     H32618  10.792   2.975   5.941  0.6098  0.8760  1.2011
  962MOL0     O32619   5.055   5.480   4.254 -0.3728 -0.7682  0.8438
  962MOL0     C32620   4.943   5.464   4.299  0.1728 -0.1251 -0.1059
  962MOL0     O32621   4.878   5.540   4.392 -0.9387  0.1894  0.2292
  962MOL0     C32622   4.928   5.662   4.428  0.5606  0.5048  1.2362
  962MOL0     C32623   4.881   5.782   4.370  0.2607 -0.6837 -0.6524
  962MOL0     C32624   4.927   5.901   4.426 -0.6062 -0.1132  0.1738
  962MOL0     C32625   5.023   5.913   4.521 -0.2799  0.2003 -0.6651
  962MOL0     O32626   5.071   6.043   4.554 -0.2149  0.0252  0.4469
  962MOL0     C32627   5.129   6.053   4.682 -0.0473  0.1321  0.6897
  962MOL0     C32628   5.227   6.166   4.685 -0.6087 -0.2153 -0.1250
  962MOL0     C32629   5.220   6.259   4.803 -0.0308 -0.5809  0.1675
  962MOL0     C32630   5.290   6.402   4.783  0.7757 -0.3353 -0.5206
  962MOL0     C32631   5.431   6.389   4.729  0.4303  0.4205 -0.4488
  962MOL0     C32632   5.470   6.524   4.663  0.0141  0.4541 -0.6796
  962MOL0     C32633   5.481   6.648   4.747 -0.4638 -0.3938  0.1736
  962MOL0     C32634   5.576   6.625   4.863  0.2423 -0.4984 -0.0205
  962MOL0     N32635   5.593   6.757   4.924 -0.3564 -0.1599  0.3457
  962MOL0     C32636   5.649   6.865   4.863  0.2618 -0.5984 -0.1600
  962MOL0     C32637   5.622   6.977   4.942  0.5166  0.2107  0.3581
  962MOL0     C32638   5.659   7.130   4.919  0.7223 -0.0325 -0.6004
  962MOL0     C32639   5.798   7.142   4.985 -0.6915  0.7749  0.2505
  962MOL0     C32640   5.845   7.281   4.984 -0.0966 -0.0553 -0.2862
  962MOL0     C32641   5.985   7.313   4.949 -0.2599 -0.0198  0.7221
  962MOL0     O32642   6.023   7.236   4.825  0.2761  0.5756  0.2076
  962MOL0     C32643   6.154   7.196   4.808 -0.2282 -0.3572 -0.3725
  962MOL0     C32644   6.258   7.298   4.819  0.6888  0.7197 -0.5732
  962MOL0     C32645   6.392   7.260   4.797 -0.5118 -0.0322  0.2690
  962MOL0     C32646   6.495   7.365   4.821  0.4932 -0.2958 -0.0536
  962MOL0     C32647   6.425   7.126   4.761 -0.6987 -1.1956 -0.6678
  962MOL0     C32648   6.560   7.070   4.737  0.9712 -0.3941  0.0408
  962MOL0     O32649   6.676   7.135   4.785  0.0289 -0.6823  0.1567
  962MOL0     C32650   6.804   7.079   4.781  0.1189  0.6928  0.5827
  962MOL0     C32651   6.868   7.037   4.664  0.4006 -0.9344 -0.5634
  962MOL0     C32652   7.002   6.981   4.667 -1.3390 -0.9709 -0.0810
  962MOL0     C32653   7.056   6.957   4.800  0.0614  0.1194  0.2395
  962MOL0     O32654   7.161   6.880   4.835  0.1495  0.0639 -0.1342
  962MOL0     C32655   7.272   6.846   4.751  0.2431 -0.2644 -0.2060
  962MOL0     C32656   7.391   6.792   4.825  1.1487  0.2663 -0.6199
  962MOL0     C32657   7.511   6.782   4.730 -0.3005  0.0809 -0.6833
  962MOL0     C32658   7.648   6.765   4.811  0.3412 -0.2713  0.5238
  962MOL0     C32659   7.756   6.762   4.705 -0.3526  0.8901 -0.4445
  962MOL0     C32660   7.886   6.723   4.784 -0.7352  0.0350  0.5244
  962MOL0     C32661   8.007   6.706   4.693  0.7550  0.4340 -0.8448
  962MOL0     C32662   8.129   6.656   4.775  0.4690 -0.4673  0.4811
  962MOL0    Cl32663   8.263   6.641   4.669 -0.1843  0.1678 -0.2721
  962MOL0     C32664   6.990   7.009   4.910 -0.5162 -0.3108 -0.2747
  962MOL0     C32665   6.867   7.063   4.907 -0.5314 -0.1567  0.2360
  962MOL0     O32666   6.567   6.962   4.684 -0.0419  0.4615 -0.6697
  962MOL0     C32667   6.315   7.035   4.740  0.6680 -1.3022  1.1985
  962MOL0     C32668   6.189   7.063   4.776  0.0481 -0.1493  0.7993
  962MOL0     N32669   5.561   6.923   5.058 -0.9632  0.3778 -1.2279
  962MOL0     N32670   5.547   6.798   5.046 -0.1927 -0.4525 -0.2910
  962MOL0     C32671   5.066   5.791   4.585 -0.3819 -0.0111 -0.1359
  962MOL0     C32672   5.013   5.669   4.533 -0.5159 -0.4667  0.0721
  962MOL0     C32673   4.864   5.348   4.238  0.2053 -0.0626 -0.1854
  962MOL0     C32674   4.930   5.256   4.159 -0.3410  0.2026 -0.8688
  962MOL0     C32675   4.867   5.141   4.104 -0.4472  0.5824  0.1178
  962MOL0     C32676   4.733   5.124   4.123 -0.6133 -0.5757  0.0650
  962MOL0     O32677   4.664   5.022   4.077 -0.9636 -0.0070  0.0724
  962MOL0     C32678   4.722   4.895   4.095  0.0882  0.0034 -0.4378
  962MOL0     C32679   4.608   4.791   4.069  0.5753 -0.0452  0.5939
  962MOL0     C32680   4.495   4.824   4.179 -0.2971 -0.3611 -0.4982
  962MOL0     C32681   4.403   4.701   4.170 -0.1032  0.4368 -0.0366
  962MOL0     C32682   4.455   4.587   4.246 -0.2597 -0.1275 -0.3708
  962MOL0     C32683   4.488   4.476   4.296  0.2580  0.0337  0.6364
  962MOL0     C32684   4.663   5.231   4.187  0.3822 -0.6287 -0.0821
  962MOL0     C32685   4.719   5.336   4.247 -0.5709 -0.7492 -0.1942
  962MOL0     C32686   4.644   5.435   4.320  0.2864  0.5188  0.5340
  962MOL0     H32687   4.809   5.786   4.289  0.8687  2.1024 -1.1452
  962MOL0     H32688   4.915   5.999   4.382 -0.9901  0.0514  0.6333
  962MOL0     H32689   5.184   5.965   4.716  3.1284  0.6165 -2.6149
  962MOL0     H32690   5.054   6.064   4.761  0.5697 -2.3869  1.7264
  962MOL0     H32691   5.327   6.123   4.673 -0.4186 -1.3584  3.9033
  962MOL0     H32692   5.200   6.225   4.597 -1.1867  0.7698  0.6892
  962MOL0     H32693   5.114   6.268   4.828  0.7000  1.9255  2.8399
  962MOL0     H32694   5.272   6.213   4.887  0.3193  0.5280  0.5764
  962MOL0     H32695   5.225   6.453   4.712  1.1372  1.4679  0.3748
  962MOL0     H32696   5.272   6.456   4.876  1.0028 -1.4034  0.1560
  962MOL0     H32697   5.436   6.306   4.658  2.6850  1.7679 -1.9631
  962MOL0     H32698   5.499   6.358   4.809  0.5982 -4.6091 -2.2211
  962MOL0     H32699   5.569   6.502   4.622  0.8271 -0.7404  1.7423
  962MOL0     H32700   5.407   6.551   4.578 -1.7039  0.5884  0.5950
  962MOL0     H32701   5.377   6.673   4.772 -0.5900  0.1401 -0.8333
  962MOL0     H32702   5.523   6.726   4.683  0.5809 -0.2285  1.0245
  962MOL0     H32703   5.529   6.555   4.932 -0.6318  0.3334  0.2602
  962MOL0     H32704   5.677   6.585   4.857  2.0526  3.3418  1.3450
  962MOL0     H32705   5.706   6.871   4.771  0.6185  0.3857  0.1172
  962MOL0     H32706   5.582   7.190   4.968  0.1027  0.4917 -2.1469
  962MOL0     H32707   5.657   7.160   4.814 -0.2371  0.0087 -0.5717
  962MOL0     H32708   5.780   7.124   5.091  0.6971  2.7780  0.8946
  962MOL0     H32709   5.875   7.074   4.947 -2.2100 -0.2432 -1.1411
  962MOL0     H32710   5.779   7.339   4.919 -1.9858 -1.2514  0.4862
  962MOL0     H32711   5.828   7.327   5.082  1.4192  0.4661 -0.2390
  962MOL0     H32712   6.005   7.419   4.931 -1.3366 -0.0892 -1.1697
  962MOL0     H32713   6.059   7.285   5.024  1.5589 -1.3252 -1.4381
  962MOL0     H32714   6.242   7.397   4.859  1.6201  0.2914  0.9563
  962MOL0     H32715   6.567   7.384   4.742 -0.5307  1.1135 -0.6959
  962MOL0     H32716   6.546   7.333   4.913 -0.9504  1.4453  1.4492
  962MOL0     H32717   6.441   7.459   4.838  3.0514  0.9956  1.6126
  962MOL0     H32718   6.808   7.057   4.576  2.1531  1.4922 -1.3380
  962MOL0     H32719   7.055   6.944   4.580  0.5886 -0.3356  0.7652
  962MOL0     H32720   7.253   6.777   4.669  0.5547  2.0752 -2.3722
  962MOL0     H32721   7.307   6.933   4.694  0.9945 -0.4735 -0.0764
  962MOL0     H32722   7.414   6.856   4.911  2.5185  1.6673 -1.9634
  962MOL0     H32723   7.362   6.701   4.878  3.5420  1.4452  3.1683
  962MOL0     H32724   7.519   6.880   4.683  1.1106 -0.2502 -1.1611
  962MOL0     H32725   7.492   6.702   4.658  0.6434 -1.2232  0.4659
  962MOL0     H32726   7.657   6.677   4.876 -0.4304  1.7865  3.6806
  962MOL0     H32727   7.662   6.844   4.885  3.0845  0.3821 -0.5918
  962MOL0     H32728   7.732   6.686   4.630  1.2321 -1.8454  1.6416
  962MOL0     H32729   7.760   6.857   4.651 -2.5694  1.7459  0.8046
  962MOL0     H32730   7.875   6.630   4.840 -1.4126 -1.4447 -1.9008
  962MOL0     H32731   7.905   6.807   4.851 -2.4583  1.8178 -1.1020
  962MOL0     H32732   8.040   6.801   4.650  0.2659 -0.1989 -2.6997
  962MOL0     H32733   7.973   6.640   4.613 -2.5164  0.9071  0.0199
  962MOL0     H32734   8.110   6.559   4.821 -4.3157 -0.8382 -1.6767
  962MOL0     H32735   8.150   6.728   4.855  0.1107  0.1913 -0.0112
  962MOL0     H32736   7.038   7.002   5.007 -0.0259  0.3980 -0.4534
  962MOL0     H32737   6.825   7.112   4.994 -0.5984 -1.8867  1.2094
  962MOL0     H32738   6.334   6.935   4.702  1.5291  0.1247 -2.5776
  962MOL0     H32739   6.118   6.981   4.769  1.1084 -1.0378  0.1998
  962MOL0     H32740   5.134   5.780   4.669 -0.2977  0.0222 -0.1997
  962MOL0     H32741   5.039   5.574   4.579 -4.7279 -2.5363 -1.3460
  962MOL0     H32742   5.032   5.263   4.121 -0.0443 -1.5853 -0.5050
  962MOL0     H32743   4.939   5.068   4.068  2.5342  3.7576 -0.8889
  962MOL0     H32744   4.811   4.875   4.034  1.4710 -2.4404  2.1466
  962MOL0     H32745   4.763   4.892   4.196  0.4712  0.2536 -0.5861
  962MOL0     H32746   4.646   4.689   4.080  3.0579  0.7542  0.1252
  962MOL0     H32747   4.579   4.796   3.963  1.6514  1.3726  0.3329
  962MOL0     H32748   4.538   4.820   4.279 -0.5518 -0.8237 -0.4055
  962MOL0     H32749   4.446   4.919   4.155 -0.7914 -0.6388 -0.6166
  962MOL0     H32750   4.388   4.680   4.063  2.8071  1.0566 -0.6479
  962MOL0     H32751   4.308   4.725   4.217  1.1979  3.2308  1.4331
  962MOL0     H32752   4.509   4.384   4.346 -3.1876  0.6412  3.5762
  962MOL0     H32753   4.555   5.234   4.194  0.4124 -1.7819  1.3538
  962MOL0     H32754   4.659   5.534   4.278  0.8071 -0.4651 -1.7423
  962MOL0     H32755   4.539   5.404   4.321  0.7405 -1.1963 -0.4620
  962MOL0     H32756   4.666   5.451   4.426 -0.8370  0.5304  0.7771
  963MOL0     O32757   8.705   2.039   6.743  0.0654 -0.2575 -0.2460
  963MOL0     C32758   8.752   2.119   6.661 -0.4354  0.3441  0.3628
  963MOL0     O32759   8.688   2.218   6.593 -0.3522 -0.1980  0.1928
  963MOL0     C32760   8.549   2.242   6.610 -0.3203  0.9616 -0.1640
  963MOL0     C32761   8.494   2.310   6.495 -0.4119  0.2369 -0.9378
  963MOL0     C32762   8.357   2.336   6.494  0.7596  0.2364  0.0686
  963MOL0     C32763   8.275   2.315   6.613 -0.3887 -0.7542  0.8298
  963MOL0     O32764   8.147   2.356   6.624  0.3390  0.2530  0.8432
  963MOL0     C32765   8.129   2.444   6.743  0.1491 -0.7024  0.5332
  963MOL0     C32766   7.979   2.477   6.762  0.6063 -0.1719  0.8679
  963MOL0     C32767   7.920   2.525   6.628  0.2187  0.7799 -0.2472
  963MOL0     C32768   7.769   2.533   6.634 -1.4759  0.0638 -0.0474
  963MOL0     C32769   7.725   2.598   6.505 -0.1464 -0.1279 -0.6008
  963MOL0     C32770   7.578   2.632   6.511 -0.1823 -0.4243  0.4612
  963MOL0     C32771   7.525   2.694   6.389 -0.2862  0.5685 -0.5062
  963MOL0     C32772   7.391   2.757   6.405  0.4439 -0.7228 -0.2561
  963MOL0     N32773   7.268   2.677   6.371 -0.8923 -0.2752 -0.0750
  963MOL0     C32774   7.243   2.665   6.237 -0.2607  1.0627  0.1736
  963MOL0     C32775   7.150   2.570   6.235  0.4128  0.4766 -0.6943
  963MOL0     C32776   7.076   2.517   6.117 -0.2174  0.4347 -0.5774
  963MOL0     C32777   6.936   2.471   6.157  0.7519  0.1344 -1.0560
  963MOL0     C32778   6.843   2.573   6.232  0.8030 -0.1057  0.0994
  963MOL0     C32779   6.819   2.702   6.151  0.5723 -0.4024  0.0187
  963MOL0     O32780   6.701   2.691   6.073 -0.1865 -0.2745  0.6566
  963MOL0     C32781   6.581   2.709   6.126  0.2264 -0.0056 -0.7177
  963MOL0     C32782   6.550   2.765   6.256 -0.6575 -1.4228 -0.5735
  963MOL0     C32783   6.414   2.789   6.307 -0.0564  0.1022  0.2119
  963MOL0     C32784   6.399   2.857   6.435  0.1011 -0.2312 -0.0585
  963MOL0     C32785   6.310   2.741   6.211 -0.0925 -0.2044  0.0661
  963MOL0     C32786   6.163   2.758   6.240 -0.1834 -0.6555  0.1530
  963MOL0     O32787   6.129   2.795   6.371 -0.5808  0.9378 -0.1927
  963MOL0     C32788   5.994   2.801   6.412 -0.3373  1.0143 -0.2778
  963MOL0     C32789   5.941   2.676   6.444  0.3756  0.6748 -0.2007
  963MOL0     C32790   5.804   2.657   6.488  0.2178 -0.7500  0.9193
  963MOL0     C32791   5.732   2.777   6.510  0.4824 -1.1799  0.2624
  963MOL0     O32792   5.597   2.775   6.545  0.0198  0.2708  0.2199
  963MOL0     C32793   5.532   2.660   6.515  0.6061 -0.0445  0.6872
  963MOL0     C32794   5.380   2.683   6.530  0.0893  0.0520  0.2659
  963MOL0     C32795   5.329   2.700   6.675 -0.2598 -0.6999 -0.1798
  963MOL0     C32796   5.182   2.688   6.672 -0.0432 -0.3896 -0.2270
  963MOL0     C32797   5.113   2.705   6.815 -0.2549 -0.7587  0.9110
  963MOL0     C32798   4.961   2.700   6.797 -0.3324  0.9897  0.7619
  963MOL0     C32799   4.903   2.834   6.759  0.0856 -0.9004  0.4142
  963MOL0     C32800   4.760   2.829   6.711  0.9248  0.1292 -0.3409
  963MOL0    Cl32801   4.731   2.699   6.579  0.0155 -0.1206 -0.2361
  963MOL0     C32802   5.796   2.902   6.498 -0.5319 -0.3008  0.0201
  963MOL0     C32803   5.927   2.912   6.452 -1.1948  0.9712  0.1059
  963MOL0     O32804   6.083   2.718   6.149  0.1600 -1.0397  0.2168
  963MOL0     C32805   6.346   2.688   6.082 -0.1478  0.6472  0.2804
  963MOL0     C32806   6.476   2.678   6.042 -0.6536  0.5830  0.0625
  963MOL0     N32807   7.126   2.527   6.366 -0.4282 -0.6134  0.5467
  963MOL0     N32808   7.212   2.582   6.439  0.2500  0.0783  0.3904
  963MOL0     C32809   8.330   2.250   6.726 -0.4347 -0.2347  0.2174
  963MOL0     C32810   8.464   2.214   6.725 -0.5153  0.8153 -0.8313
  963MOL0     C32811   8.906   2.108   6.651 -0.5823  0.3257 -0.6528
  963MOL0     C32812   8.970   2.180   6.552 -0.4043  0.0340 -0.2471
  963MOL0     C32813   9.108   2.186   6.544 -0.7362 -0.5579  0.5030
  963MOL0     C32814   9.192   2.111   6.633  0.4765 -0.0659  0.6295
  963MOL0     O32815   9.329   2.098   6.628 -1.0158 -0.6039  0.2402
  963MOL0     C32816   9.398   2.167   6.523  0.9292 -0.9504  0.0817
  963MOL0     C32817   9.546   2.143   6.553 -0.1900  0.6646 -0.2381
  963MOL0     C32818   9.588   1.991   6.561  0.2854  0.1698 -0.4884
  963MOL0     C32819   9.591   1.931   6.421  0.0530 -0.1798 -0.8965
  963MOL0     C32820   9.725   1.967   6.355  0.2470 -0.6775 -0.3044
  963MOL0     C32821   9.837   1.990   6.313  0.7953 -0.1832 -0.8995
  963MOL0     C32822   9.126   2.026   6.726 -0.1472 -0.2924  0.6567
  963MOL0     C32823   8.984   2.017   6.735  0.2214 -0.0004  1.3452
  963MOL0     C32824   8.931   1.917   6.836 -0.4657 -0.0871 -0.8716
  963MOL0     H32825   8.545   2.340   6.404 -3.9654  1.8148 -2.5972
  963MOL0     H32826   8.291   2.377   6.418 -1.5481 -0.5289  1.5328
  963MOL0     H32827   8.187   2.537   6.738 -0.7700 -0.1907 -1.3189
  963MOL0     H32828   8.161   2.388   6.831 -1.2621  0.4455  1.8045
  963MOL0     H32829   7.929   2.386   6.798 -2.9511  2.0756  2.1358
  963MOL0     H32830   7.956   2.557   6.833 -1.5203  0.3985 -0.3705
  963MOL0     H32831   7.962   2.623   6.603  1.9454  0.2144  0.3297
  963MOL0     H32832   7.943   2.454   6.548 -1.7222  0.1328 -0.2904
  963MOL0     H32833   7.725   2.434   6.649  0.1152 -0.8533 -1.1553
  963MOL0     H32834   7.736   2.594   6.719  0.4433 -0.8281  1.3991
  963MOL0     H32835   7.747   2.532   6.420 -2.1385  1.5888 -2.6078
  963MOL0     H32836   7.785   2.689   6.494 -0.2353  0.5038  2.9474
  963MOL0     H32837   7.512   2.552   6.544 -0.8797  0.9319  2.5235
  963MOL0     H32838   7.572   2.704   6.593  0.4938  0.0250  0.1319
  963MOL0     H32839   7.513   2.621   6.309  0.0763 -1.6173  1.3390
  963MOL0     H32840   7.596   2.767   6.349  1.8051 -1.1100 -0.0398
  963MOL0     H32841   7.380   2.809   6.501 -2.7954  0.0746 -0.9238
  963MOL0     H32842   7.379   2.839   6.334 -2.1045 -1.1736 -0.4695
  963MOL0     H32843   7.283   2.726   6.157 -2.3530 -0.5122 -2.2438
  963MOL0     H32844   7.138   2.439   6.072 -0.0913  0.1906  0.0091
  963MOL0     H32845   7.070   2.606   6.053 -3.1591  1.9501  1.5782
  963MOL0     H32846   6.882   2.432   6.070  1.3766 -0.3483 -1.2318
  963MOL0     H32847   6.956   2.393   6.231  0.3702  2.6424  1.9262
  963MOL0     H32848   6.747   2.533   6.268  0.1849  1.6447  0.4746
  963MOL0     H32849   6.890   2.612   6.323 -0.2849 -1.4913  1.3155
  963MOL0     H32850   6.840   2.797   6.201 -0.1973 -0.4465  0.4457
  963MOL0     H32851   6.900   2.709   6.078  0.2844  0.5356 -0.2253
  963MOL0     H32852   6.640   2.791   6.311 -1.6180  0.2165  0.3178
  963MOL0     H32853   6.496   2.871   6.484  0.0664  0.8562 -0.2797
  963MOL0     H32854   6.332   2.799   6.499 -0.9510  0.9206 -0.0880
  963MOL0     H32855   6.349   2.953   6.423  1.6978  0.4918 -1.2989
  963MOL0     H32856   6.001   2.590   6.418  0.8391  0.9309 -0.0070
  963MOL0     H32857   5.772   2.554   6.495 -1.4897 -0.2066  1.6600
  963MOL0     H32858   5.547   2.619   6.415 -0.9834 -2.8801  1.4969
  963MOL0     H32859   5.566   2.581   6.583  0.7522  0.0786  0.7563
  963MOL0     H32860   5.348   2.763   6.462  1.2318  1.1710  1.0024
  963MOL0     H32861   5.337   2.587   6.500 -0.0475  0.0005  0.6194
  963MOL0     H32862   5.349   2.802   6.710 -2.0992  0.8403 -3.2510
  963MOL0     H32863   5.367   2.622   6.742 -1.3845  0.3671  1.7915
  963MOL0     H32864   5.146   2.594   6.628  0.1319 -0.2986 -0.5644
  963MOL0     H32865   5.151   2.774   6.612 -0.1046  0.6908  1.2898
  963MOL0     H32866   5.152   2.625   6.878  0.4314 -1.6713 -0.6098
  963MOL0     H32867   5.145   2.794   6.870  1.9936  0.8386 -2.6191
  963MOL0     H32868   4.913   2.673   6.893 -1.4422 -1.5367 -0.4085
  963MOL0     H32869   4.938   2.620   6.727 -0.2263  1.6941 -0.0899
  963MOL0     H32870   4.960   2.881   6.678  0.1583  2.1030  2.0728
  963MOL0     H32871   4.916   2.896   6.848 -2.3363  1.2825 -0.5960
  963MOL0     H32872   4.719   2.924   6.677 -0.3612  0.4517  1.8845
  963MOL0     H32873   4.694   2.799   6.793  1.1869 -0.7742 -0.4451
  963MOL0     H32874   5.739   2.994   6.508 -0.7137 -0.5828  1.9021
  963MOL0     H32875   5.975   3.006   6.428 -0.7635  0.7826  0.2264
  963MOL0     H32876   6.263   2.649   6.024  0.7835 -1.3901  0.2527
  963MOL0     H32877   6.504   2.639   5.945 -0.3386 -1.0026  0.7584
  963MOL0     H32878   8.274   2.222   6.814  0.4255 -2.3891  0.1330
  963MOL0     H32879   8.511   2.181   6.818  0.2819  1.0666 -1.1379
  963MOL0     H32880   8.915   2.244   6.484 -1.6453 -1.0299 -0.2867
  963MOL0     H32881   9.159   2.242   6.466  0.3562 -0.7161  1.0740
  963MOL0     H32882   9.367   2.121   6.429 -0.6976 -0.5956  0.4093
  963MOL0     H32883   9.375   2.274   6.525  0.4968 -1.0198  3.6943
  963MOL0     H32884   9.566   2.197   6.646 -1.3035 -1.0122  1.0545
  963MOL0     H32885   9.600   2.184   6.467  1.7335 -2.9256 -0.9166
  963MOL0     H32886   9.680   1.985   6.620  1.6363  1.3699 -2.3573
  963MOL0     H32887   9.513   1.934   6.617  2.7543 -3.9029 -0.8911
  963MOL0     H32888   9.506   1.971   6.364 -0.2447  2.0658  0.9922
  963MOL0     H32889   9.576   1.824   6.438  1.4456 -0.1479  0.7124
  963MOL0     H32890   9.934   2.024   6.281  0.0769  4.3976  0.9925
  963MOL0     H32891   9.187   1.954   6.779  1.2643 -2.1220 -3.1414
  963MOL0     H32892   8.875   1.836   6.789 -1.0655 -1.1246  1.4561
  963MOL0     H32893   9.017   1.870   6.884  0.3679  0.2757 -1.9762
  963MOL0     H32894   8.875   1.959   6.921 -2.0518 -1.3989 -1.2350
  964MOL0     O32895  11.430   0.681   9.560  0.3191 -0.7043  0.5600
  964MOL0     C32896  11.531   0.624   9.523  0.6529  0.2796  0.1158
  964MOL0     O32897  11.532   0.512   9.448 -0.5625  0.3490 -0.2475
  964MOL0     C32898  11.417   0.443   9.409 -0.0110 -0.1191 -0.0708
  964MOL0     C32899  11.414   0.308   9.413 -0.3716 -0.1579  0.0770
  964MOL0     C32900  11.296   0.235   9.390  0.0013  0.1762  0.1691
  964MOL0     C32901  11.179   0.296   9.356 -1.0921  0.0592  0.6938
  964MOL0     O32902  11.070   0.225   9.328  0.6689  0.3268 -0.3239
  964MOL0     C32903  11.013   0.165   9.447  0.0487  0.8315  0.1166
  964MOL0     C32904  10.973   0.014   9.429 -0.2106 -0.4737 -0.4751
  964MOL0     C32905  10.911  -0.008   9.291 -0.1154 -0.2889 -0.0662
  964MOL0     C32906  10.829  -0.137   9.277 -0.1099 -0.3449  0.0316
  964MOL0     C32907  10.761  -0.174   9.149  0.7535  0.1865 -0.8050
  964MOL0     C32908  10.686  -0.314   9.169 -1.0145 -0.0713  0.1527
  964MOL0     C32909  10.655  -0.376   9.033 -0.0938 -0.6812  0.5417
  964MOL0     C32910  10.586  -0.520   9.032  0.8502 -0.5105  0.1145
  964MOL0     N32911  10.657  -0.625   9.096  0.1158  0.9775  0.9549
  964MOL0     C32912  10.781  -0.684   9.070  0.2659  0.5276 -0.0287
  964MOL0     C32913  10.778  -0.811   9.115 -0.0747  0.3467 -0.5502
  964MOL0     C32914  10.875  -0.926   9.102  0.4233 -0.6735 -0.5792
  964MOL0     C32915  11.007  -0.874   9.148 -0.3682  0.8624 -0.6787
  964MOL0     C32916  11.112  -0.980   9.144  0.5986  0.0896  0.4979
  964MOL0     C32917  11.245  -0.914   9.123  0.0459 -0.1972 -0.4372
  964MOL0     O32918  11.255  -0.875   8.987  0.1097 -0.1701 -0.4814
  964MOL0     C32919  11.374  -0.889   8.933 -0.4530 -1.0509 -0.2110
  964MOL0     C32920  11.500  -0.892   8.987 -0.1494 -0.6753 -0.1388
  964MOL0     C32921  11.621  -0.909   8.917 -0.3073  0.6087 -0.2528
  964MOL0     C32922  11.756  -0.909   8.997 -0.4850 -0.1720 -0.6493
  964MOL0     C32923  11.612  -0.934   8.778  0.5167  0.5757 -0.1816
  964MOL0     C32924  11.732  -0.961   8.688  0.3610  0.1246 -0.0786
  964MOL0     O32925  11.704  -0.945   8.554 -0.0341 -0.3865  0.6462
  964MOL0     C32926  11.779  -1.030   8.478  0.4232 -0.6052 -0.8762
  964MOL0     C32927  11.793  -1.167   8.514  0.5001 -0.0660 -1.0842
  964MOL0     C32928  11.872  -1.249   8.429  0.9211 -0.6025  0.4472
  964MOL0     C32929  11.928  -1.207   8.312 -0.1775 -0.3080  0.5271
  964MOL0     O32930  12.007  -1.289   8.252  0.2477 -0.6648 -0.9046
  964MOL0     C32931  12.120  -1.236   8.177 -0.3524  0.1896 -0.6547
  964MOL0     C32932  12.233  -1.333   8.162 -0.1471 -0.6771  0.2182
  964MOL0     C32933  12.340  -1.352   8.269  0.4610  0.0978  0.2748
  964MOL0     C32934  12.430  -1.462   8.229 -0.1196  0.6351 -0.1875
  964MOL0     C32935  12.503  -1.528   8.348 -0.5655 -0.6861  0.2436
  964MOL0     C32936  12.641  -1.467   8.371 -1.2639  0.4802 -0.6127
  964MOL0     C32937  12.735  -1.507   8.254 -0.7546  0.2232 -0.1870
  964MOL0     C32938  12.883  -1.470   8.295  0.4691  0.0948 -0.5650
  964MOL0    Cl32939  12.890  -1.332   8.421  0.1421  0.0209 -0.4164
  964MOL0     C32940  11.902  -1.071   8.274 -0.4698  0.4057 -0.6714
  964MOL0     C32941  11.830  -0.982   8.356 -0.7043 -0.0645  0.2012
  964MOL0     O32942  11.840  -1.003   8.732 -0.3328 -0.2374 -0.1786
  964MOL0     C32943  11.481  -0.926   8.717 -0.3324  0.4723 -0.7866
  964MOL0     C32944  11.363  -0.901   8.794  0.7915 -0.6809 -0.3429
  964MOL0     N32945  10.656  -0.829   9.183 -0.5346  0.0224 -0.3135
  964MOL0     N32946  10.581  -0.721   9.167  0.1307 -0.3635  0.2087
  964MOL0     C32947  11.182   0.436   9.343  0.9622 -0.0457 -0.2416
  964MOL0     C32948  11.295   0.503   9.370  0.1447 -0.1200 -0.6348
  964MOL0     C32949  11.662   0.664   9.570  0.7053 -0.1795 -0.7219
  964MOL0     C32950  11.761   0.566   9.598  0.5568  0.0465 -0.2146
  964MOL0     C32951  11.889   0.598   9.643  0.0827  0.3723 -0.4265
  964MOL0     C32952  11.928   0.727   9.657 -0.0933  0.0037  0.9476
  964MOL0     O32953  12.049   0.769   9.702  0.8070  0.1033  0.0508
  964MOL0     C32954  12.141   0.786   9.588 -0.3460 -0.1202 -0.0569
  964MOL0     C32955  12.283   0.814   9.637 -0.7256  0.1992  0.0286
  964MOL0     C32956  12.383   0.801   9.519  0.8967 -0.4485  0.7581
  964MOL0     C32957  12.528   0.863   9.536  0.0128 -0.2477  0.7334
  964MOL0     C32958  12.615   0.828   9.421  0.3323  1.2219  0.6494
  964MOL0     C32959  12.658   0.762   9.331 -0.4284  0.5842 -0.1142
  964MOL0     C32960  11.831   0.823   9.638 -0.9373 -0.1249 -0.3378
  964MOL0     C32961  11.699   0.798   9.596  0.3515 -0.2324 -0.5695
  964MOL0     C32962  11.613   0.918   9.552 -0.4620 -0.0189  0.3917
  964MOL0     H32963  11.507   0.258   9.437 -1.3531 -1.7331  0.7395
  964MOL0     H32964  11.301   0.127   9.387 -2.3235  0.0262  0.0913
  964MOL0     H32965  10.920   0.220   9.463 -0.3728  0.4035 -0.7748
  964MOL0     H32966  11.070   0.177   9.540 -1.3658 -0.2542  1.1766
  964MOL0     H32967  11.044  -0.065   9.456  1.0048  0.3763 -1.0863
  964MOL0     H32968  10.897  -0.004   9.506  0.0075 -0.5008 -0.2627
  964MOL0     H32969  10.839   0.073   9.277 -1.2884 -1.4442 -0.9949
  964MOL0     H32970  10.987   0.002   9.212  0.7762  0.3312  0.8416
  964MOL0     H32971  10.902  -0.217   9.290  0.9888  0.6917  0.3777
  964MOL0     H32972  10.751  -0.144   9.353 -0.2307 -0.3878 -0.0959
  964MOL0     H32973  10.843  -0.181   9.076  2.0679 -0.5333  0.6648
  964MOL0     H32974  10.684  -0.103   9.118 -0.9462 -0.6743  1.2314
  964MOL0     H32975  10.749  -0.385   9.223 -0.2660 -1.1392 -1.9954
  964MOL0     H32976  10.586  -0.293   9.208 -1.7328  3.7148 -3.0729
  964MOL0     H32977  10.747  -0.374   8.975 -0.1940  1.6098  0.3745
  964MOL0     H32978  10.589  -0.298   8.993  0.5315  0.5722  1.8746
  964MOL0     H32979  10.492  -0.501   9.084 -0.3431 -0.7847 -1.8512
  964MOL0     H32980  10.551  -0.542   8.931 -1.8966  1.0852  0.6145
  964MOL0     H32981  10.857  -0.643   9.005 -0.1704  4.8330  1.8666
  964MOL0     H32982  10.883  -0.972   9.003  0.7019 -1.2087 -0.3142
  964MOL0     H32983  10.848  -1.000   9.178  2.3036 -1.9992 -1.1371
  964MOL0     H32984  11.031  -0.787   9.085  1.0475 -1.3806 -3.4638
  964MOL0     H32985  11.004  -0.843   9.253 -1.1387 -5.1487  1.4400
  964MOL0     H32986  11.106  -1.040   9.236 -2.1983 -0.7062 -0.0845
  964MOL0     H32987  11.088  -1.043   9.058  0.5132  1.6728 -0.6908
  964MOL0     H32988  11.256  -0.829   9.191 -0.6818 -0.2329 -0.2611
  964MOL0     H32989  11.319  -0.993   9.140  0.2392 -0.6129 -2.8307
  964MOL0     H32990  11.507  -0.884   9.095  1.0476  0.4087 -0.2592
  964MOL0     H32991  11.723  -0.873   9.095  0.8267  3.0214 -1.2773
  964MOL0     H32992  11.825  -0.832   8.962  0.4650 -0.5312  0.3785
  964MOL0     H32993  11.793  -1.011   9.009 -1.4705 -0.6235 -1.2567
  964MOL0     H32994  11.749  -1.201   8.608  0.8998  0.8269 -0.5640
  964MOL0     H32995  11.889  -1.354   8.446 -1.2810 -1.0317  0.2657
  964MOL0     H32996  12.074  -1.200   8.084 -2.0859 -1.3961 -0.4582
  964MOL0     H32997  12.162  -1.151   8.232 -0.0234 -0.1669 -0.3567
  964MOL0     H32998  12.193  -1.432   8.135 -0.3167 -0.2275 -1.2932
  964MOL0     H32999  12.282  -1.289   8.075 -1.8732  0.3118 -0.3076
  964MOL0     H33000  12.278  -1.378   8.354 -1.7921 -0.0814 -1.3225
  964MOL0     H33001  12.394  -1.258   8.286  3.1138 -1.4932  1.2467
  964MOL0     H33002  12.483  -1.409   8.149 -0.1063  0.9444  0.0258
  964MOL0     H33003  12.379  -1.542   8.175  1.2733 -0.1451 -0.4039
  964MOL0     H33004  12.439  -1.514   8.436 -0.3319  1.4704  0.1227
  964MOL0     H33005  12.515  -1.635   8.329  1.1545 -0.4822  0.0493
  964MOL0     H33006  12.677  -1.501   8.469  1.0406  2.0527 -0.8328
  964MOL0     H33007  12.631  -1.359   8.385 -0.5062  0.4316  0.4403
  964MOL0     H33008  12.706  -1.457   8.161  0.5706 -0.0244 -0.7597
  964MOL0     H33009  12.728  -1.614   8.237 -2.9871  0.5105 -1.5491
  964MOL0     H33010  12.930  -1.444   8.200  1.0816 -2.3409 -0.9971
  964MOL0     H33011  12.932  -1.559   8.337 -0.1547 -0.3876 -0.8406
  964MOL0     H33012  11.947  -1.027   8.186  0.3451  3.7471  1.2081
  964MOL0     H33013  11.812  -0.881   8.318  2.4295 -0.7249 -3.7598
  964MOL0     H33014  11.469  -0.920   8.609 -1.4511 -0.8992 -0.7679
  964MOL0     H33015  11.270  -0.912   8.738  0.4813 -0.4385  0.1226
  964MOL0     H33016  11.090   0.489   9.320  2.2345  2.0709 -0.7254
  964MOL0     H33017  11.303   0.612   9.373 -0.4856 -0.0260 -1.8292
  964MOL0     H33018  11.737   0.461   9.592  0.1672 -0.2555  3.9633
  964MOL0     H33019  11.960   0.522   9.675 -1.2908  0.0706  2.2056
  964MOL0     H33020  12.135   0.698   9.523 -2.6184  0.6461 -1.0075
  964MOL0     H33021  12.108   0.870   9.526  0.4971 -0.4360 -0.9548
  964MOL0     H33022  12.304   0.745   9.720  0.5723  1.9310  1.2070
  964MOL0     H33023  12.281   0.916   9.675  1.7199  0.8865 -1.4386
  964MOL0     H33024  12.394   0.693   9.502 -1.3000 -0.4048 -1.4433
  964MOL0     H33025  12.340   0.846   9.430  0.2445  1.3168  1.9217
  964MOL0     H33026  12.572   0.832   9.632  3.2968  4.0211  0.9118
  964MOL0     H33027  12.513   0.971   9.533 -2.2141 -0.4983 -2.7908
  964MOL0     H33028  12.708   0.705   9.256 -1.0668 -1.2807  0.7964
  964MOL0     H33029  11.849   0.929   9.648  0.3940 -0.5107  1.9500
  964MOL0     H33030  11.511   0.920   9.593 -0.3268  4.1878  0.9640
  964MOL0     H33031  11.659   1.010   9.590  0.6480 -0.9013  1.2335
  964MOL0     H33032  11.617   0.925   9.443  3.3974 -2.2068  0.2280
  965MOL0     O33033   5.675   3.180   8.151  0.6203  0.0786  0.5091
  965MOL0     C33034   5.718   3.113   8.248 -0.8546 -0.0668  0.5792
  965MOL0     O33035   5.835   3.053   8.247  0.7209  0.0671  0.2351
  965MOL0     C33036   5.951   3.127   8.231 -0.7197 -0.0116 -0.0983
  965MOL0     C33037   6.068   3.049   8.229  0.3951 -0.6110  0.0383
  965MOL0     C33038   6.194   3.101   8.192  0.0795 -0.3218 -0.3389
  965MOL0     C33039   6.203   3.240   8.165  0.1576 -0.5607 -0.6950
  965MOL0     O33040   6.315   3.296   8.113  0.0367  0.6009  0.1112
  965MOL0     C33041   6.360   3.404   8.194  0.0714 -0.7325  0.6867
  965MOL0     C33042   6.506   3.409   8.238 -0.4410 -0.1647 -0.6112
  965MOL0     C33043   6.546   3.285   8.311  0.2554  0.3320  0.3036
  965MOL0     C33044   6.669   3.307   8.408 -0.5796 -0.1798 -0.0978
  965MOL0     C33045   6.804   3.289   8.330 -0.1453  0.3810  0.1778
  965MOL0     C33046   6.931   3.300   8.412  0.5540 -0.4267  0.1436
  965MOL0     C33047   7.064   3.278   8.333 -0.7970 -0.3816 -0.3490
  965MOL0     C33048   7.060   3.143   8.254 -0.6443 -0.1696  0.3176
  965MOL0     N33049   7.192   3.098   8.209  0.4171  0.2276  0.0893
  965MOL0     C33050   7.252   3.126   8.085 -0.4337 -0.5252 -0.3922
  965MOL0     C33051   7.363   3.047   8.084  0.4999  0.5411  0.0525
  965MOL0     C33052   7.464   3.038   7.970 -0.4560  0.2369  0.2211
  965MOL0     C33053   7.591   2.986   8.029 -0.8306 -0.6086 -0.0230
  965MOL0     C33054   7.710   2.975   7.931 -0.0863 -0.6169 -0.4146
  965MOL0     C33055   7.845   2.983   7.997 -0.5773 -0.4203 -0.4868
  965MOL0     O33056   7.944   2.951   7.897 -0.7917  0.9948 -0.6518
  965MOL0     C33057   8.076   2.975   7.918  0.2615 -0.3232  0.3841
  965MOL0     C33058   8.128   2.964   8.050 -0.0162  0.2431  0.6382
  965MOL0     C33059   8.262   2.976   8.081  0.5053 -0.1525  1.2405
  965MOL0     C33060   8.303   2.942   8.218  0.4642 -0.3723  0.2563
  965MOL0     C33061   8.345   3.015   7.977 -0.6025 -0.1640 -0.0219
  965MOL0     C33062   8.496   3.040   7.996  0.5271  0.1249  0.1146
  965MOL0     O33063   8.570   3.044   7.880  0.4994  0.3494  0.0700
  965MOL0     C33064   8.712   3.056   7.884  0.5959  0.0937  0.6571
  965MOL0     C33065   8.790   3.011   7.983  0.1745  0.3221  0.1970
  965MOL0     C33066   8.934   3.025   7.981 -0.5980  0.6263  0.6810
  965MOL0     C33067   8.990   3.075   7.874  0.5514 -0.3348  0.0376
  965MOL0     O33068   9.122   3.074   7.860  0.4251  0.3519 -0.6910
  965MOL0     C33069   9.213   3.096   7.975  0.2201 -0.3510  0.1460
  965MOL0     C33070   9.360   3.125   7.933 -1.1681 -0.2095 -0.0465
  965MOL0     C33071   9.340   3.266   7.857  0.3516 -0.3071 -0.5355
  965MOL0     C33072   9.488   3.338   7.866 -0.1698  1.3706 -0.1436
  965MOL0     C33073   9.503   3.464   7.783  0.5598  0.5569  0.1619
  965MOL0     C33074   9.482   3.445   7.635  0.4970 -0.3112  0.8659
  965MOL0     C33075   9.522   3.575   7.569  0.1475 -0.1820 -0.0543
  965MOL0     C33076   9.495   3.572   7.427 -0.4352 -0.0683  1.1207
  965MOL0    Cl33077   9.580   3.713   7.353  0.2821  0.1350  0.1593
  965MOL0     C33078   8.912   3.108   7.760 -0.0962  0.3313 -0.6017
  965MOL0     C33079   8.774   3.110   7.770 -0.3716  1.0747  0.2431
  965MOL0     O33080   8.538   3.072   8.107 -0.3883  0.3662 -0.4005
  965MOL0     C33081   8.295   3.030   7.847 -0.8107 -0.0658  0.4116
  965MOL0     C33082   8.159   3.007   7.814 -0.5072  0.2561 -0.9790
  965MOL0     N33083   7.354   2.969   8.198 -0.0173  0.5331 -0.7101
  965MOL0     N33084   7.260   2.999   8.273  0.6448  0.2344  0.1274
  965MOL0     C33085   6.085   3.315   8.171 -0.2259  0.7198 -0.2447
  965MOL0     C33086   5.965   3.268   8.218  0.0876 -0.0273 -0.8155
  965MOL0     C33087   5.618   3.093   8.365 -0.2742 -1.2450  0.0036
  965MOL0     C33088   5.658   3.001   8.462  0.0278 -0.3537  0.3227
  965MOL0     C33089   5.585   2.976   8.577  0.2129  0.6043  0.0588
  965MOL0     C33090   5.466   3.043   8.598 -0.4085  0.2139 -0.6864
  965MOL0     O33091   5.398   3.009   8.717 -0.1546  0.0468  0.8759
  965MOL0     C33092   5.273   3.067   8.751  0.5766  0.6428  0.1039
  965MOL0     C33093   5.186   2.953   8.824  0.0780  0.1654  0.7327
  965MOL0     C33094   5.147   2.854   8.714 -1.2706 -0.1852 -0.2395
  965MOL0     C33095   5.094   2.714   8.752  0.0877  0.7424  0.5243
  965MOL0     C33096   5.061   2.637   8.635 -0.5695  0.2897 -0.2496
  965MOL0     C33097   5.019   2.555   8.552  0.2700  0.2029  0.4494
  965MOL0     C33098   5.421   3.133   8.501  0.0536 -0.2739 -0.6538
  965MOL0     C33099   5.498   3.161   8.391  0.5470 -0.4568  0.9714
  965MOL0     C33100   5.436   3.257   8.293 -0.5082  0.0473  0.2333
  965MOL0     H33101   6.056   2.944   8.250 -0.3520 -0.4345  0.5343
  965MOL0     H33102   6.280   3.035   8.190 -2.0527 -3.3229  0.4346
  965MOL0     H33103   6.303   3.413   8.286 -3.0566 -0.4771 -1.1291
  965MOL0     H33104   6.318   3.488   8.138 -1.3381 -2.1400 -0.4959
  965MOL0     H33105   6.578   3.420   8.156 -0.0486  2.4756  0.0044
  965MOL0     H33106   6.516   3.496   8.302 -1.8546  0.1419 -0.7761
  965MOL0     H33107   6.459   3.246   8.366  0.8702 -3.6444 -1.2245
  965MOL0     H33108   6.573   3.215   8.232 -0.1973 -0.7630  1.0835
  965MOL0     H33109   6.665   3.404   8.460  0.0462  0.6971 -1.6167
  965MOL0     H33110   6.668   3.232   8.488 -1.3534  0.0662  0.1347
  965MOL0     H33111   6.795   3.356   8.244 -0.7644  0.4538  0.2945
  965MOL0     H33112   6.792   3.189   8.289 -2.3718  1.6864 -2.7114
  965MOL0     H33113   6.937   3.406   8.441  0.9055 -0.0478 -1.2325
  965MOL0     H33114   6.928   3.241   8.504 -0.2957 -0.5600  0.0362
  965MOL0     H33115   7.149   3.268   8.401 -1.3278  0.3756  0.4527
  965MOL0     H33116   7.085   3.361   8.266  0.4588  0.1334  0.6590
  965MOL0     H33117   7.011   3.065   8.313 -0.7050 -0.7206 -0.4412
  965MOL0     H33118   6.993   3.169   8.172  0.8108 -0.3532 -0.9751
  965MOL0     H33119   7.217   3.198   8.012  2.5684  2.5159  0.8896
  965MOL0     H33120   7.464   3.137   7.923 -2.4925 -0.9712 -2.6286
  965MOL0     H33121   7.437   2.968   7.890  0.0749  0.3916 -0.1030
  965MOL0     H33122   7.615   3.067   8.098 -0.4844  1.8861 -2.8480
  965MOL0     H33123   7.570   2.891   8.079  1.6060 -1.6434 -0.8011
  965MOL0     H33124   7.714   2.873   7.892  1.4306 -0.4073 -0.8722
  965MOL0     H33125   7.701   3.042   7.845  2.7743 -0.9663 -1.0580
  965MOL0     H33126   7.867   3.081   8.039  0.4609 -0.4133 -1.0374
  965MOL0     H33127   7.848   2.900   8.068 -1.6847 -1.0614 -1.1497
  965MOL0     H33128   8.067   2.954   8.139 -0.1519  0.9913  0.6329
  965MOL0     H33129   8.399   2.891   8.228  1.5045  1.5218  0.4197
  965MOL0     H33130   8.233   2.874   8.268 -0.5063  1.0132  0.8438
  965MOL0     H33131   8.318   3.033   8.277 -1.4830 -1.3384  2.4004
  965MOL0     H33132   8.744   2.950   8.060  0.2334 -0.5649 -0.4541
  965MOL0     H33133   8.984   2.992   8.072 -0.3269  1.3475  0.8033
  965MOL0     H33134   9.180   3.176   8.041  3.5477  0.7956  0.5899
  965MOL0     H33135   9.212   3.005   8.036  0.8036 -0.1968  0.3927
  965MOL0     H33136   9.409   3.122   8.031 -3.6914 -4.0969  1.3204
  965MOL0     H33137   9.400   3.049   7.866  0.4019  2.8206 -2.8371
  965MOL0     H33138   9.268   3.323   7.916  0.6630 -0.6070  0.1331
  965MOL0     H33139   9.314   3.255   7.751  3.7338  0.6181 -1.5945
  965MOL0     H33140   9.561   3.259   7.848  3.6685  3.0701  5.3028
  965MOL0     H33141   9.515   3.360   7.969 -1.2320 -1.3333  0.7797
  965MOL0     H33142   9.445   3.546   7.825 -2.1122 -0.6267 -0.9853
  965MOL0     H33143   9.608   3.488   7.804  1.5240 -3.5919  1.2013
  965MOL0     H33144   9.382   3.407   7.609  0.2520  0.8703 -0.0373
  965MOL0     H33145   9.544   3.366   7.591 -0.8665 -0.3285 -1.2059
  965MOL0     H33146   9.631   3.585   7.576  0.6060 -2.4712 -2.3627
  965MOL0     H33147   9.469   3.656   7.620  0.1040 -0.3454  0.1602
  965MOL0     H33148   9.388   3.581   7.405  0.2324  1.7678 -2.0180
  965MOL0     H33149   9.524   3.479   7.377 -0.3485 -1.4576  3.5722
  965MOL0     H33150   8.950   3.137   7.662 -0.5240 -1.0805 -1.2122
  965MOL0     H33151   8.729   3.128   7.673  2.0438 -1.6537 -1.5256
  965MOL0     H33152   8.357   3.063   7.764 -0.3458 -0.1486  0.7219
  965MOL0     H33153   8.117   3.012   7.714 -2.3008  1.4225 -0.2250
  965MOL0     H33154   6.081   3.416   8.131 -4.6064  0.0180 -2.1338
  965MOL0     H33155   5.877   3.333   8.220  0.9113  1.1403  2.2561
  965MOL0     H33156   5.748   2.942   8.447  0.7470  0.2125  2.2074
  965MOL0     H33157   5.630   2.908   8.648 -1.5287  0.8202  1.4185
  965MOL0     H33158   5.293   3.145   8.825  1.9779 -1.2228  1.8384
  965MOL0     H33159   5.219   3.096   8.661  0.8091  0.5658 -0.0618
  965MOL0     H33160   5.095   2.996   8.868  0.3926 -1.8614  3.6229
  965MOL0     H33161   5.233   2.901   8.908  0.5030  3.0720  2.4427
  965MOL0     H33162   5.077   2.910   8.652 -0.1566  0.8632 -0.5828
  965MOL0     H33163   5.238   2.831   8.658 -2.2537 -2.0129 -1.1755
  965MOL0     H33164   5.007   2.727   8.816 -0.0715 -0.2825  0.5349
  965MOL0     H33165   5.167   2.656   8.809  0.5868  2.6071  1.8637
  965MOL0     H33166   4.978   2.509   8.464 -0.4756  1.1923  0.2561
  965MOL0     H33167   5.321   3.173   8.507 -0.7696 -2.1956 -0.9554
  965MOL0     H33168   5.493   3.351   8.292 -0.6058  0.2225  3.1046
  965MOL0     H33169   5.433   3.215   8.192  2.5772 -0.7672  0.3758
  965MOL0     H33170   5.334   3.279   8.324 -1.9375 -3.8123 -1.2100
  966MOL0     O33171   5.394   7.574   6.962 -0.1959  0.4990  0.1309
  966MOL0     C33172   5.381   7.466   6.892  0.6213  0.3004 -0.4930
  966MOL0     O33173   5.488   7.382   6.844 -0.2579  0.4020 -0.6747
  966MOL0     C33174   5.609   7.442   6.880 -0.0483 -0.6139 -0.7645
  966MOL0     C33175   5.656   7.554   6.813 -0.4468  0.4072  0.3550
  966MOL0     C33176   5.781   7.619   6.848 -0.6495  0.8624  0.1510
  966MOL0     C33177   5.862   7.560   6.951  0.7871 -0.1211  0.6948
  966MOL0     O33178   5.979   7.618   6.986  0.9217  0.3965  0.4541
  966MOL0     C33179   5.984   7.689   7.110  0.5355  0.3008 -0.4009
  966MOL0     C33180   6.104   7.772   7.100 -0.3117  0.3394  0.2374
  966MOL0     C33181   6.067   7.902   7.015 -0.1259  0.5735  0.4715
  966MOL0     C33182   6.188   7.997   7.024  0.2391  0.1494  0.2989
  966MOL0     C33183   6.151   8.143   6.978 -1.1809  0.5366 -0.5039
  966MOL0     C33184   6.073   8.209   7.093 -0.0448 -0.1832  0.9904
  966MOL0     C33185   6.031   8.349   7.064 -0.0246  0.6828  0.2851
  966MOL0     C33186   6.126   8.461   7.077  0.2319 -0.7537  0.1074
  966MOL0     N33187   6.134   8.508   7.213 -1.1194  0.2141 -0.4445
  966MOL0     C33188   6.220   8.457   7.305 -0.0797 -0.4835  0.3206
  966MOL0     C33189   6.197   8.529   7.414 -0.8607  0.0506 -0.0275
  966MOL0     C33190   6.272   8.504   7.534 -0.4296 -1.1347 -0.5417
  966MOL0     C33191   6.402   8.594   7.551  0.5128  0.1975  0.0082
  966MOL0     C33192   6.478   8.633   7.415  0.4177  0.1617 -0.3084
  966MOL0     C33193   6.598   8.731   7.434  0.4453 -0.9714  0.4337
  966MOL0     O33194   6.726   8.661   7.443  0.0631 -0.2960  0.5510
  966MOL0     C33195   6.841   8.725   7.479 -0.0594 -0.7682 -0.1444
  966MOL0     C33196   6.852   8.863   7.507  0.4677 -0.2056  0.0626
  966MOL0     C33197   6.979   8.924   7.546  0.6889 -1.0686  0.7997
  966MOL0     C33198   6.980   9.077   7.569 -0.1060  0.1727  0.0169
  966MOL0     C33199   7.091   8.833   7.553  0.0130 -0.9899 -0.0529
  966MOL0     C33200   7.229   8.873   7.609 -0.0530 -0.0910  0.0184
  966MOL0     O33201   7.321   8.771   7.626 -0.0242  0.4869  0.5777
  966MOL0     C33202   7.451   8.804   7.654 -0.4027  0.2499 -0.4981
  966MOL0     C33203   7.488   8.832   7.788  0.2368  0.1557  0.4156
  966MOL0     C33204   7.617   8.864   7.823  0.7404  0.1737  0.2140
  966MOL0     C33205   7.710   8.881   7.717 -1.2046 -0.2708 -0.5620
  966MOL0     O33206   7.838   8.935   7.731 -1.0339 -0.4575 -0.3673
  966MOL0     C33207   7.896   8.942   7.860  0.2763  1.0410 -0.0911
  966MOL0     C33208   8.041   8.999   7.854  0.9805  0.0093 -0.2283
  966MOL0     C33209   8.124   8.990   7.984  0.1205 -0.1163  0.2136
  966MOL0     C33210   8.226   8.878   7.993  0.2898 -0.9495 -0.2726
  966MOL0     C33211   8.279   8.856   8.138 -0.2489  0.1254  0.7880
  966MOL0     C33212   8.386   8.746   8.143  0.6399 -0.6254  0.0931
  966MOL0     C33213   8.455   8.724   8.279 -0.1052 -0.6379  1.0305
  966MOL0     C33214   8.604   8.772   8.271 -0.2648  0.1268 -0.2039
  966MOL0    Cl33215   8.694   8.747   8.426  0.2135  0.5124 -0.2864
  966MOL0     C33216   7.678   8.866   7.586 -0.0369  1.3450 -0.5553
  966MOL0     C33217   7.546   8.819   7.548  0.2285  0.5387 -0.7242
  966MOL0     O33218   7.243   8.985   7.639  0.3600  0.0398 -0.9852
  966MOL0     C33219   7.065   8.698   7.538  0.4801 -0.0471 -0.5389
  966MOL0     C33220   6.946   8.646   7.507  0.4466  0.0192  0.0661
  966MOL0     N33221   6.105   8.622   7.392  0.3823  0.2380  0.3692
  966MOL0     N33222   6.060   8.605   7.274 -0.4216 -0.3326  0.1121
  966MOL0     C33223   5.813   7.446   7.016  0.2292 -1.1650  0.0393
  966MOL0     C33224   5.687   7.388   6.983 -0.4089 -0.1702  0.0346
  966MOL0     C33225   5.240   7.424   6.853  0.6943 -0.2705  0.5769
  966MOL0     C33226   5.132   7.438   6.951 -0.4919 -0.3795  1.2122
  966MOL0     C33227   5.005   7.386   6.927 -0.5243 -0.4497  0.2204
  966MOL0     C33228   4.976   7.317   6.810  0.0257 -0.3229 -0.3063
  966MOL0     O33229   4.849   7.263   6.775 -0.4088  0.4753 -0.5666
  966MOL0     C33230   4.734   7.303   6.856 -0.0527 -0.9300 -0.2709
  966MOL0     C33231   4.605   7.258   6.787  0.0666 -0.2013  0.0266
  966MOL0     C33232   4.590   7.341   6.662 -0.8845 -0.1798  1.2784
  966MOL0     C33233   4.452   7.321   6.594  0.2066 -0.4172  0.0970
  966MOL0     C33234   4.435   7.196   6.517 -0.6216 -0.0680 -0.2185
  966MOL0     C33235   4.444   7.093   6.450  1.0209  0.2939 -0.3075
  966MOL0     C33236   5.074   7.316   6.710  0.6341 -0.4762  0.0828
  966MOL0     C33237   5.203   7.370   6.727 -0.0336 -0.3330  0.7820
  966MOL0     C33238   5.294   7.377   6.607  0.3935 -0.1464  0.2226
  966MOL0     H33239   5.585   7.603   6.747  1.8340 -0.8225 -3.2744
  966MOL0     H33240   5.814   7.712   6.801  0.3437  1.0204  1.1152
  966MOL0     H33241   5.996   7.609   7.185  0.6080  0.9155  0.2567
  966MOL0     H33242   5.894   7.746   7.132  0.0846 -0.4040 -0.3593
  966MOL0     H33243   6.126   7.804   7.202 -1.3875 -3.5094  1.8479
  966MOL0     H33244   6.187   7.720   7.050 -1.5340 -0.0798 -1.4568
  966MOL0     H33245   6.036   7.865   6.917  0.3428  0.6182  0.3048
  966MOL0     H33246   5.978   7.947   7.061 -0.3327 -0.2416  0.8943
  966MOL0     H33247   6.227   8.002   7.127  1.1860 -2.7537  0.1819
  966MOL0     H33248   6.271   7.951   6.969  0.9468 -0.5948  1.8864
  966MOL0     H33249   6.096   8.154   6.884 -1.9394  1.2084 -0.0013
  966MOL0     H33250   6.249   8.191   6.967 -0.4673 -1.0962 -1.4630
  966MOL0     H33251   5.990   8.141   7.116  0.3485 -1.7953 -1.9380
  966MOL0     H33252   6.135   8.205   7.183 -0.5423 -0.3798  1.3367
  966MOL0     H33253   5.944   8.373   7.126  0.0967 -0.5156  0.9575
  966MOL0     H33254   5.985   8.351   6.965  1.1538  1.0237 -0.2842
  966MOL0     H33255   6.224   8.441   7.032 -0.4162 -1.8186 -0.8749
  966MOL0     H33256   6.084   8.538   7.011  0.4511  0.1280  0.9749
  966MOL0     H33257   6.286   8.372   7.297  0.5095 -0.0469  0.4283
  966MOL0     H33258   6.308   8.401   7.531 -1.0274 -1.4089  1.0050
  966MOL0     H33259   6.196   8.517   7.611 -1.5325  0.6370 -1.8390
  966MOL0     H33260   6.377   8.688   7.601  0.9440  1.5478 -2.2060
  966MOL0     H33261   6.474   8.534   7.608 -0.7057 -3.3237 -1.8230
  966MOL0     H33262   6.518   8.543   7.368 -1.8652 -0.0307 -2.0618
  966MOL0     H33263   6.408   8.676   7.343  1.5119 -1.1979 -2.2473
  966MOL0     H33264   6.601   8.808   7.356 -0.4379 -1.3899 -0.0341
  966MOL0     H33265   6.580   8.783   7.528  0.4260 -0.0006 -0.0975
  966MOL0     H33266   6.769   8.933   7.506 -0.7218 -1.4509  2.6510
  966MOL0     H33267   6.973   9.093   7.677 -1.2732  2.1157 -0.2910
  966MOL0     H33268   6.899   9.126   7.514  1.3418  1.7166 -0.8579
  966MOL0     H33269   7.068   9.130   7.530  0.6541 -0.7738  0.4304
  966MOL0     H33270   7.418   8.814   7.869 -0.4716 -1.4098 -0.5009
  966MOL0     H33271   7.649   8.876   7.926 -0.7479  0.7608  0.6319
  966MOL0     H33272   7.839   9.007   7.927 -0.5636  2.1770 -1.8365
  966MOL0     H33273   7.915   8.837   7.887  1.7705  1.7589  1.8976
  966MOL0     H33274   8.099   8.947   7.777  0.5257 -1.6873  0.5439
  966MOL0     H33275   8.037   9.105   7.826  1.7452  0.3498  0.8541
  966MOL0     H33276   8.049   8.975   8.062 -2.4470  0.6861 -1.9269
  966MOL0     H33277   8.179   9.083   8.002 -0.2716 -0.0345  1.0022
  966MOL0     H33278   8.311   8.914   7.934 -0.2262  5.3685  2.0541
  966MOL0     H33279   8.197   8.779   7.956  0.3044 -1.3480  0.7345
  966MOL0     H33280   8.320   8.952   8.169  0.4996 -0.5864  2.1161
  966MOL0     H33281   8.194   8.828   8.202  0.4368 -1.9110  0.8963
  966MOL0     H33282   8.450   8.776   8.059 -0.8568 -1.7958 -1.5586
  966MOL0     H33283   8.352   8.650   8.103  1.2235 -0.3496 -1.1267
  966MOL0     H33284   8.439   8.620   8.310 -3.4086 -0.3916  0.4844
  966MOL0     H33285   8.401   8.781   8.355 -2.9306  2.3479 -2.8003
  966MOL0     H33286   8.610   8.877   8.241 -3.3463  0.1630 -0.9749
  966MOL0     H33287   8.662   8.718   8.195 -2.2540 -0.5060 -1.3353
  966MOL0     H33288   7.758   8.893   7.517 -0.9493  2.6241 -1.1683
  966MOL0     H33289   7.497   8.804   7.453 -0.2212 -2.2524 -0.1262
  966MOL0     H33290   7.149   8.629   7.536  0.3088 -0.2740 -0.0618
  966MOL0     H33291   6.947   8.538   7.502  2.6864 -0.0942  1.5206
  966MOL0     H33292   5.878   7.404   7.092  3.4176 -0.7270 -2.2283
  966MOL0     H33293   5.657   7.302   7.041 -0.4456 -0.3035 -0.1813
  966MOL0     H33294   5.144   7.481   7.049 -0.3895  0.0293  1.0206
  966MOL0     H33295   4.925   7.382   7.000 -1.2209  1.5989 -0.3587
  966MOL0     H33296   4.742   7.257   6.956 -2.8907 -0.4264  0.2589
  966MOL0     H33297   4.732   7.411   6.869 -1.9895 -1.0797  1.0710
  966MOL0     H33298   4.524   7.295   6.851 -0.1395  0.6630 -0.7164
  966MOL0     H33299   4.597   7.151   6.769  0.0389 -0.2905  0.5683
  966MOL0     H33300   4.598   7.446   6.691  0.7041 -0.0762  0.5654
  966MOL0     H33301   4.658   7.314   6.581 -2.7916 -1.4121  0.0025
  966MOL0     H33302   4.432   7.397   6.518 -0.3358 -1.4666 -0.8385
  966MOL0     H33303   4.368   7.340   6.662  1.4344  2.1860  1.0175
  966MOL0     H33304   4.455   7.003   6.393 -1.1991  0.9186 -1.8554
  966MOL0     H33305   5.055   7.279   6.610 -0.0909  2.3875 -0.9479
  966MOL0     H33306   5.366   7.296   6.621 -0.7792 -0.8471  2.8359
  966MOL0     H33307   5.241   7.365   6.511 -0.5358 -1.4561  0.8596
  966MOL0     H33308   5.354   7.468   6.599  0.5498 -0.4023 -2.8995
  967MOL0     O33309   2.446   4.410   6.502  0.4196 -0.0006  0.8359
  967MOL0     C33310   2.396   4.484   6.422 -0.2903  0.9265 -0.0002
  967MOL0     O33311   2.455   4.590   6.356 -0.2021  0.1180  0.0103
  967MOL0     C33312   2.583   4.622   6.380 -0.5698  0.6160 -0.0690
  967MOL0     C33313   2.682   4.524   6.388  0.2149 -0.0112  0.9488
  967MOL0     C33314   2.814   4.550   6.413  0.3540 -0.0194  0.1660
  967MOL0     C33315   2.855   4.682   6.441  0.5501  0.1247  0.3644
  967MOL0     O33316   2.987   4.702   6.459 -0.1878 -0.2815 -0.1379
  967MOL0     C33317   3.036   4.689   6.596 -0.2527  1.3620  0.5888
  967MOL0     C33318   2.980   4.800   6.684  0.7126  0.2071  0.7070
  967MOL0     C33319   3.057   4.809   6.814  0.6296 -0.9208 -0.2841
  967MOL0     C33320   3.144   4.931   6.841 -0.5990 -0.3948  0.3912
  967MOL0     C33321   3.197   4.921   6.990 -0.4728  0.0468  0.4389
  967MOL0     C33322   3.287   5.041   7.029 -0.0444  0.2622 -0.8887
  967MOL0     C33323   3.290   5.065   7.182 -0.9167  0.4413  0.4327
  967MOL0     C33324   3.327   4.941   7.267  0.6666  0.5712 -0.4253
  967MOL0     N33325   3.237   4.943   7.389  0.4794  0.0634 -0.3142
  967MOL0     C33326   3.102   4.936   7.385 -0.4096  0.4345 -0.0025
  967MOL0     C33327   3.064   4.940   7.511  0.5039  0.3198  0.9040
  967MOL0     C33328   2.915   4.945   7.557  0.4540 -0.6166  1.1804
  967MOL0     C33329   2.872   4.800   7.589 -0.5525  0.2398 -0.3200
  967MOL0     C33330   2.942   4.737   7.706 -0.3267 -0.6332 -0.5380
  967MOL0     C33331   2.942   4.832   7.827  0.0181  0.0691  0.1509
  967MOL0     O33332   2.982   4.763   7.941  0.2602 -0.5949 -0.7543
  967MOL0     C33333   3.104   4.789   8.004 -0.4425  0.2582  0.1339
  967MOL0     C33334   3.225   4.812   7.931  1.0011  0.5459  0.2859
  967MOL0     C33335   3.355   4.800   7.986 -0.4877  0.1384 -0.2491
  967MOL0     C33336   3.478   4.791   7.908 -0.7827  0.0442  0.1510
  967MOL0     C33337   3.365   4.789   8.132  0.4035 -1.0220 -0.3270
  967MOL0     C33338   3.487   4.777   8.209  0.4260 -0.0893  0.5322
  967MOL0     O33339   3.493   4.670   8.293  0.3373  0.4754 -0.2091
  967MOL0     C33340   3.607   4.657   8.363 -0.8223 -0.1314 -0.0536
  967MOL0     C33341   3.627   4.706   8.489  0.2624 -0.2013 -0.1208
  967MOL0     C33342   3.740   4.696   8.572 -0.6368 -0.2964  0.5923
  967MOL0     C33343   3.842   4.616   8.524  0.5674 -0.0072 -0.1550
  967MOL0     O33344   3.961   4.576   8.579  0.2847 -0.3849 -0.2761
  967MOL0     C33345   3.995   4.652   8.698 -0.9277 -0.4264  0.3488
  967MOL0     C33346   4.142   4.636   8.730 -0.5858  0.2474 -0.5231
  967MOL0     C33347   4.169   4.677   8.879  0.2640 -0.3311  0.6771
  967MOL0     C33348   4.301   4.630   8.941  0.3453 -0.1093  0.7031
  967MOL0     C33349   4.430   4.681   8.871  0.6976  0.3708  0.4964
  967MOL0     C33350   4.547   4.679   8.963 -0.4992  0.4528 -0.3940
  967MOL0     C33351   4.683   4.698   8.903  0.4894 -0.4767  0.5161
  967MOL0     C33352   4.779   4.719   9.011  0.2333  0.1652  0.2580
  967MOL0    Cl33353   4.931   4.769   8.918 -0.3168  0.7168  0.1659
  967MOL0     C33354   3.829   4.555   8.398  1.2702 -0.5173  0.6104
  967MOL0     C33355   3.708   4.576   8.316 -0.4021  0.1055 -0.0703
  967MOL0     O33356   3.569   4.868   8.201  0.7252  0.3260  1.0114
  967MOL0     C33357   3.238   4.781   8.203  0.4951  0.7003 -0.7955
  967MOL0     C33358   3.115   4.767   8.137 -0.1352 -0.3040  0.4398
  967MOL0     N33359   3.172   4.971   7.593  0.1703 -0.2374  0.4080
  967MOL0     N33360   3.275   4.975   7.514  0.1757 -0.1260  0.2235
  967MOL0     C33361   2.765   4.778   6.416 -0.5958  0.0550 -0.1467
  967MOL0     C33362   2.624   4.756   6.405 -0.7837  0.3414  0.0016
  967MOL0     C33363   2.257   4.460   6.392  0.4274  0.2784  0.3707
  967MOL0     C33364   2.210   4.321   6.392  0.6593 -0.2891  0.3183
  967MOL0     C33365   2.076   4.286   6.364 -0.0670 -0.1136 -0.5128
  967MOL0     C33366   1.991   4.387   6.326  0.1362  0.2570 -0.2002
  967MOL0     O33367   1.862   4.358   6.290  0.1483 -0.1085  0.2545
  967MOL0     C33368   1.848   4.249   6.199 -1.0026 -0.7690 -0.2900
  967MOL0     C33369   1.722   4.265   6.101  0.0208 -0.0641 -0.0539
  967MOL0     C33370   1.595   4.284   6.197  0.0821 -0.3891 -0.2435
  967MOL0     C33371   1.561   4.164   6.281  0.5825 -0.4294 -0.2658
  967MOL0     C33372   1.536   4.034   6.209 -0.3077 -0.0411 -0.2753
  967MOL0     C33373   1.538   3.943   6.127  0.3582 -0.1480  0.4260
  967MOL0     C33374   2.025   4.514   6.323 -0.2268 -0.0984  0.2640
  967MOL0     C33375   2.161   4.547   6.338 -0.4773  0.2779 -0.1507
  967MOL0     C33376   2.203   4.690   6.332  0.1841 -0.1843 -0.1221
  967MOL0     H33377   2.646   4.429   6.352 -1.1065  1.3004 -1.4591
  967MOL0     H33378   2.888   4.472   6.394  1.3655  0.9981 -0.2290
  967MOL0     H33379   3.145   4.694   6.591 -0.1608  0.9751  1.8094
  967MOL0     H33380   3.006   4.595   6.644 -3.8208  2.1588  0.2057
  967MOL0     H33381   2.989   4.891   6.623  0.1540 -1.3533 -1.8523
  967MOL0     H33382   2.875   4.779   6.706  1.1196 -1.0865  1.5036
  967MOL0     H33383   2.984   4.796   6.895 -0.2818  3.1090 -0.2739
  967MOL0     H33384   3.109   4.713   6.824 -1.4804 -1.9966  1.2808
  967MOL0     H33385   3.230   4.928   6.774 -0.1294  0.8937  0.9068
  967MOL0     H33386   3.092   5.025   6.825 -0.4673 -0.1275  1.4292
  967MOL0     H33387   3.239   4.821   7.001  1.8746  1.1122  2.0689
  967MOL0     H33388   3.114   4.922   7.062 -0.9887  3.9326 -0.0046
  967MOL0     H33389   3.385   5.031   6.980 -1.9953 -0.6363 -5.0686
  967MOL0     H33390   3.236   5.127   6.985 -3.5614 -0.9578  0.4270
  967MOL0     H33391   3.190   5.101   7.208  0.7453  2.7293  4.7520
  967MOL0     H33392   3.358   5.150   7.197 -1.1272  0.5017  1.0757
  967MOL0     H33393   3.307   4.846   7.217 -0.9125  2.4517 -3.6597
  967MOL0     H33394   3.434   4.931   7.290  0.7853 -2.6274 -1.7867
  967MOL0     H33395   3.036   4.916   7.301 -3.2365 -0.1256  2.1874
  967MOL0     H33396   2.845   4.984   7.482  0.8700 -0.1717  1.0163
  967MOL0     H33397   2.912   5.007   7.647 -1.3848  0.4675  0.4268
  967MOL0     H33398   2.766   4.795   7.616 -0.5218 -0.3416 -0.2935
  967MOL0     H33399   2.887   4.736   7.502 -1.6209  0.2958 -0.5605
  967MOL0     H33400   2.891   4.643   7.730  0.1149 -0.8972 -0.6045
  967MOL0     H33401   3.045   4.715   7.675 -0.6029 -0.2085 -1.8226
  967MOL0     H33402   3.011   4.914   7.803 -0.2765 -0.3885 -2.6495
  967MOL0     H33403   2.838   4.864   7.836 -0.4206 -1.1663 -0.2772
  967MOL0     H33404   3.229   4.832   7.824 -0.1163 -1.6171 -0.2244
  967MOL0     H33405   3.455   4.834   7.810 -4.1244 -3.5896 -0.9437
  967MOL0     H33406   3.486   4.684   7.884 -0.4329  0.0668  0.1633
  967MOL0     H33407   3.567   4.829   7.958  0.4071  0.5062 -2.1783
  967MOL0     H33408   3.545   4.765   8.528 -0.4693 -1.2951  0.0520
  967MOL0     H33409   3.755   4.747   8.666  1.5904  0.9975 -0.3748
  967MOL0     H33410   3.974   4.759   8.690 -2.2217 -0.7454 -1.1545
  967MOL0     H33411   3.939   4.601   8.777 -0.9953 -0.3711  0.3358
  967MOL0     H33412   4.171   4.533   8.709 -0.6896  0.0681  0.1889
  967MOL0     H33413   4.204   4.698   8.664 -0.2097 -1.2882 -1.6733
  967MOL0     H33414   4.092   4.639   8.947  0.9732 -0.7570  1.2560
  967MOL0     H33415   4.154   4.785   8.891 -2.1078 -0.6820  1.4173
  967MOL0     H33416   4.301   4.523   8.960 -0.4705 -0.0589  1.0408
  967MOL0     H33417   4.298   4.677   9.040 -1.1762 -2.1853  1.7157
  967MOL0     H33418   4.450   4.608   8.792 -1.3176 -3.5641  3.2669
  967MOL0     H33419   4.406   4.779   8.830 -2.6973 -1.8428 -3.5011
  967MOL0     H33420   4.553   4.582   9.014 -1.1240  0.0471 -1.0678
  967MOL0     H33421   4.525   4.756   9.038  0.2037 -1.5293  1.9795
  967MOL0     H33422   4.667   4.788   8.843 -1.6616 -0.3403  1.2253
  967MOL0     H33423   4.704   4.617   8.833 -0.5332  0.5427 -1.0463
  967MOL0     H33424   4.807   4.634   9.074  0.0803 -0.5158 -0.5728
  967MOL0     H33425   4.741   4.792   9.083  1.0596 -0.4129  1.2955
  967MOL0     H33426   3.908   4.490   8.361 -0.5582 -1.8332 -1.1923
  967MOL0     H33427   3.715   4.528   8.219 -1.8162 -3.0059  1.2374
  967MOL0     H33428   3.247   4.761   8.310  0.2988 -0.5790 -1.0039
  967MOL0     H33429   3.023   4.749   8.191  0.5090  2.1547  2.5585
  967MOL0     H33430   2.805   4.879   6.421 -0.0143 -0.2521  1.9069
  967MOL0     H33431   2.562   4.841   6.435 -1.0399 -0.5037  2.0137
  967MOL0     H33432   2.278   4.240   6.414 -1.1124 -2.2536 -1.1148
  967MOL0     H33433   2.046   4.182   6.367 -0.9560  0.0489  4.1423
  967MOL0     H33434   1.936   4.231   6.137  0.2994 -2.4794  1.9428
  967MOL0     H33435   1.843   4.157   6.258 -2.0090 -1.3981 -1.3032
  967MOL0     H33436   1.721   4.173   6.041  1.5001 -2.8125  3.7151
  967MOL0     H33437   1.741   4.350   6.036  0.0079  0.2191  0.3092
  967MOL0     H33438   1.622   4.358   6.273  1.2678  0.2361 -1.2297
  967MOL0     H33439   1.517   4.325   6.132  0.1712 -1.7552 -1.2491
  967MOL0     H33440   1.470   4.192   6.335 -0.3164 -1.2952 -1.2923
  967MOL0     H33441   1.633   4.143   6.361 -0.6805 -0.2796  0.9544
  967MOL0     H33442   1.523   3.854   6.070  1.4350 -0.4202  0.5324
  967MOL0     H33443   1.968   4.603   6.299  1.3488  0.5558 -1.2531
  967MOL0     H33444   2.273   4.717   6.252 -0.2163  0.1413 -0.3671
  967MOL0     H33445   2.119   4.758   6.316  2.6591  3.2632  0.2588
  967MOL0     H33446   2.243   4.731   6.425  0.3803  2.1416 -1.1506
  968MOL0     O33447   7.851   8.170   5.776 -0.5205  0.2666  0.0701
  968MOL0     C33448   7.799   8.060   5.762 -0.3759 -0.4273  0.1411
  968MOL0     O33449   7.869   7.941   5.750 -0.1586  0.2417 -0.7238
  968MOL0     C33450   8.001   7.938   5.702 -0.7986 -0.3516 -0.1983
  968MOL0     C33451   8.072   7.816   5.735  0.1991 -0.4855  0.0953
  968MOL0     C33452   8.206   7.792   5.688  0.7181  0.1474  0.4196
  968MOL0     C33453   8.269   7.898   5.625 -0.0353  0.3854 -0.3383
  968MOL0     O33454   8.404   7.889   5.607  0.3651 -0.0820 -0.4767
  968MOL0     C33455   8.494   7.976   5.684  0.1855 -1.2054 -0.0784
  968MOL0     C33456   8.577   7.883   5.776  0.1643  0.2765 -1.2250
  968MOL0     C33457   8.637   7.963   5.898  0.4389 -0.0718 -0.1715
  968MOL0     C33458   8.538   8.020   6.000 -0.2312 -0.4016  0.1670
  968MOL0     C33459   8.621   8.092   6.109  0.7322  0.4534  0.3324
  968MOL0     C33460   8.554   8.231   6.128  0.4556  0.1524  0.0521
  968MOL0     C33461   8.605   8.294   6.257  0.1856  0.5349  0.3253
  968MOL0     C33462   8.519   8.417   6.285 -0.3705  0.2374  0.7430
  968MOL0     N33463   8.550   8.527   6.197 -0.6503  1.0250  0.8465
  968MOL0     C33464   8.657   8.615   6.227 -0.1967  0.2489  0.1514
  968MOL0     C33465   8.656   8.707   6.133  0.7763  0.4232  0.3217
  968MOL0     C33466   8.761   8.819   6.111 -0.2715 -0.1008  0.4151
  968MOL0     C33467   8.893   8.809   6.196  0.0034 -0.0716 -0.6151
  968MOL0     C33468   8.877   8.870   6.334 -0.7078 -0.3293 -0.0200
  968MOL0     C33469   8.959   8.809   6.445 -0.1511 -0.0573  0.4093
  968MOL0     O33470   9.101   8.805   6.424 -1.2514 -0.0365  0.0077
  968MOL0     C33471   9.165   8.697   6.361 -0.0977 -0.0558  0.6672
  968MOL0     C33472   9.119   8.568   6.356 -0.5371 -0.3160 -0.4271
  968MOL0     C33473   9.187   8.460   6.293 -1.3718 -0.2898 -0.4456
  968MOL0     C33474   9.134   8.321   6.319 -0.4094 -0.0448  0.0419
  968MOL0     C33475   9.313   8.483   6.226 -0.4873 -0.0508 -0.6169
  968MOL0     C33476   9.397   8.389   6.154 -0.0725  0.4045 -0.3876
  968MOL0     O33477   9.349   8.264   6.133  0.2488  0.6728 -0.2145
  968MOL0     C33478   9.424   8.158   6.095 -0.2237 -0.0404 -0.5601
  968MOL0     C33479   9.562   8.146   6.075 -0.1603 -0.0668 -0.8412
  968MOL0     C33480   9.612   8.020   6.040  0.7369  0.3325 -0.7967
  968MOL0     C33481   9.536   7.904   6.022 -0.3974 -0.4399 -0.5676
  968MOL0     O33482   9.595   7.790   5.975 -0.4321  1.8049  0.4622
  968MOL0     C33483   9.532   7.662   5.992  0.5624 -0.0134 -0.3814
  968MOL0     C33484   9.609   7.542   5.954  0.3379 -0.0479  0.1184
  968MOL0     C33485   9.615   7.526   5.801 -0.1823 -0.4286 -0.3704
  968MOL0     C33486   9.483   7.484   5.736  0.8787  0.7005 -1.1583
  968MOL0     C33487   9.505   7.456   5.586  0.1901  0.3619  0.3189
  968MOL0     C33488   9.408   7.342   5.533 -0.8830  1.5213 -0.5599
  968MOL0     C33489   9.261   7.395   5.512 -0.2020 -0.4494 -0.8429
  968MOL0     C33490   9.169   7.294   5.455  0.3548  0.5718  0.5587
  968MOL0    Cl33491   9.162   7.147   5.543  0.1778  0.2337 -0.1140
  968MOL0     C33492   9.403   7.916   6.046  0.2076 -0.7088 -0.2290
  968MOL0     C33493   9.345   8.039   6.079 -0.3035  0.2712  0.4234
  968MOL0     O33494   9.501   8.435   6.109 -0.4178 -0.5103 -0.2773
  968MOL0     C33495   9.349   8.616   6.223 -0.4273  0.7169 -0.4391
  968MOL0     C33496   9.281   8.716   6.291 -0.6958 -0.5649  0.0633
  968MOL0     N33497   8.552   8.672   6.043 -0.1937 -0.2697  0.6270
  968MOL0     N33498   8.489   8.572   6.084  0.8355 -0.3586 -0.5338
  968MOL0     C33499   8.201   8.016   5.593  0.2929 -0.2598 -0.2873
  968MOL0     C33500   8.071   8.036   5.640 -0.5358 -0.6866  0.2873
  968MOL0     C33501   7.653   8.049   5.782 -0.5530 -0.3808 -0.8946
  968MOL0     C33502   7.585   7.935   5.744 -0.2264  0.1836 -1.3858
  968MOL0     C33503   7.445   7.928   5.753 -0.5019 -0.2866  0.2318
  968MOL0     C33504   7.368   8.030   5.814 -0.3649  0.6644  0.5259
  968MOL0     O33505   7.234   8.001   5.840 -0.5203  0.1193  0.1147
  968MOL0     C33506   7.145   8.097   5.909 -0.4579  0.1920 -0.4125
  968MOL0     C33507   6.999   8.070   5.889 -0.6389 -0.4023 -0.7820
  968MOL0     C33508   6.941   7.962   5.975 -0.5408 -0.5843  0.3345
  968MOL0     C33509   6.798   7.927   5.925 -0.1809  0.3227  0.5132
  968MOL0     C33510   6.715   7.864   6.034 -0.6664 -0.1729  0.9325
  968MOL0     C33511   6.641   7.804   6.095 -0.0872  0.5169 -0.1871
  968MOL0     C33512   7.440   8.136   5.864 -0.3718  0.0977 -0.6861
  968MOL0     C33513   7.576   8.149   5.854  0.0417 -0.0279  0.0206
  968MOL0     C33514   7.629   8.272   5.909 -0.3743  0.2121  0.3813
  968MOL0     H33515   8.014   7.741   5.787 -1.5825  0.2384 -0.7811
  968MOL0     H33516   8.264   7.705   5.716  2.2576  0.7866 -0.6654
  968MOL0     H33517   8.436   8.053   5.737 -0.6961 -0.3424 -2.2132
  968MOL0     H33518   8.555   8.030   5.611 -2.5351  4.1107  1.0574
  968MOL0     H33519   8.512   7.802   5.810  1.1823  0.1886  0.6462
  968MOL0     H33520   8.656   7.843   5.712 -1.2337 -1.3000 -2.0402
  968MOL0     H33521   8.696   7.896   5.962 -0.6377  1.7380  2.9910
  968MOL0     H33522   8.700   8.046   5.863  0.7821  0.1527  0.9114
  968MOL0     H33523   8.473   8.088   5.944  0.8427  0.5364  0.0367
  968MOL0     H33524   8.460   7.955   6.040 -1.8226  1.6840  0.6549
  968MOL0     H33525   8.726   8.101   6.079  0.9803  1.1873  1.3611
  968MOL0     H33526   8.611   8.033   6.200 -1.4907 -0.8840 -0.6878
  968MOL0     H33527   8.562   8.306   6.049 -0.2573  0.8972  0.6674
  968MOL0     H33528   8.447   8.212   6.145  0.0215  3.0066  1.0412
  968MOL0     H33529   8.712   8.317   6.254  0.6765 -1.4882  1.1066
  968MOL0     H33530   8.591   8.237   6.349 -2.0732  1.3500  0.5334
  968MOL0     H33531   8.412   8.392   6.289 -0.4219  0.1220 -0.7387
  968MOL0     H33532   8.556   8.463   6.377 -2.6055  2.1613  0.7704
  968MOL0     H33533   8.725   8.618   6.311 -1.9022 -1.4103  1.6933
  968MOL0     H33534   8.717   8.919   6.124 -2.2122 -1.1339  2.3093
  968MOL0     H33535   8.785   8.814   6.004 -3.0560  1.5553 -0.3886
  968MOL0     H33536   8.908   8.701   6.203 -1.7356 -0.3218 -0.5631
  968MOL0     H33537   8.985   8.846   6.148  0.1402 -2.4465 -2.4053
  968MOL0     H33538   8.906   8.976   6.333 -0.6197 -0.3006  1.8969
  968MOL0     H33539   8.771   8.865   6.361 -0.3887  0.4362  1.5180
  968MOL0     H33540   8.942   8.877   6.530  0.8091  1.3522 -0.4727
  968MOL0     H33541   8.927   8.707   6.469  0.6803 -1.1358 -2.6607
  968MOL0     H33542   9.024   8.529   6.392 -0.3762 -2.6602 -2.2723
  968MOL0     H33543   9.071   8.293   6.233 -2.2035  0.6044  1.0901
  968MOL0     H33544   9.071   8.319   6.408  2.9338  0.9527  2.6253
  968MOL0     H33545   9.215   8.249   6.331  1.1963  2.1138  4.0899
  968MOL0     H33546   9.621   8.236   6.091  1.3583 -1.3884  1.7489
  968MOL0     H33547   9.718   7.998   6.028  0.6197 -0.0529 -1.1507
  968MOL0     H33548   9.503   7.644   6.096 -0.6547 -0.5983 -0.8027
  968MOL0     H33549   9.442   7.659   5.931  0.7149 -0.2061 -0.6040
  968MOL0     H33550   9.709   7.548   5.997  1.5141  0.7991 -2.5033
  968MOL0     H33551   9.548   7.457   5.986 -0.4087 -0.2234 -1.6605
  968MOL0     H33552   9.692   7.455   5.770  0.1510  0.8475 -2.6790
  968MOL0     H33553   9.653   7.618   5.756 -1.7432  0.4312  0.0166
  968MOL0     H33554   9.405   7.558   5.754  1.1704  1.3742 -2.4972
  968MOL0     H33555   9.437   7.396   5.781  2.6899  0.4104  0.2355
  968MOL0     H33556   9.489   7.544   5.524  1.4429  0.3558 -0.0438
  968MOL0     H33557   9.605   7.418   5.562 -0.6697 -2.3088  0.6561
  968MOL0     H33558   9.424   7.255   5.597 -0.4726 -1.8997 -4.7923
  968MOL0     H33559   9.447   7.316   5.434 -3.8633  0.7917 -1.6766
  968MOL0     H33560   9.254   7.484   5.448  4.3174 -0.7706 -2.1077
  968MOL0     H33561   9.217   7.424   5.608  1.9204  2.9147 -0.7135
  968MOL0     H33562   9.209   7.269   5.356 -0.9780  2.2259 -0.4705
  968MOL0     H33563   9.064   7.327   5.455 -0.6312 -2.3150  1.0316
  968MOL0     H33564   9.331   7.834   6.040  1.4623 -2.0354  1.7297
  968MOL0     H33565   9.237   8.052   6.085 -0.5677 -1.0541 -0.9696
  968MOL0     H33566   9.449   8.641   6.189 -0.8136  0.6926 -1.6417
  968MOL0     H33567   9.322   8.816   6.288  0.6539 -1.1274 -0.9829
  968MOL0     H33568   8.244   8.099   5.537 -0.3515 -0.8760 -1.7438
  968MOL0     H33569   8.027   8.131   5.612 -0.8603 -0.5965  1.1033
  968MOL0     H33570   7.655   7.861   5.706  2.5860  1.1637  1.4062
  968MOL0     H33571   7.407   7.830   5.727  1.1829 -1.4238  1.8355
  968MOL0     H33572   7.168   8.110   6.015  0.3638 -0.3105 -0.5174
  968MOL0     H33573   7.153   8.195   5.862 -0.0472  0.5153  0.3158
  968MOL0     H33574   6.991   8.052   5.782  0.3299 -1.6146 -0.6701
  968MOL0     H33575   6.953   8.169   5.894 -0.2957 -0.2505 -0.5887
  968MOL0     H33576   7.015   7.882   5.976  1.7393  1.3460 -1.3261
  968MOL0     H33577   6.935   7.995   6.079  0.2535  0.8823 -0.0463
  968MOL0     H33578   6.801   7.861   5.839  0.4416 -0.0845  0.8412
  968MOL0     H33579   6.753   8.024   5.900  1.2230  0.7100 -0.6515
  968MOL0     H33580   6.583   7.745   6.164 -0.1966  0.2374 -0.5149
  968MOL0     H33581   7.395   8.210   5.930  1.0396 -0.8697  1.4820
  968MOL0     H33582   7.547   8.332   5.948 -1.2689  0.3162 -1.5338
  968MOL0     H33583   7.685   8.239   5.996 -0.6637 -2.0916 -0.2451
  968MOL0     H33584   7.697   8.325   5.842 -0.4055 -2.7222 -2.2347
  969MOL0     O33585   2.679  11.174   1.190 -0.6528  0.2181 -0.0805
  969MOL0     C33586   2.578  11.117   1.225  0.2768  0.2068  1.5710
  969MOL0     O33587   2.453  11.138   1.172  0.0204  0.3967  0.4482
  969MOL0     C33588   2.447  11.197   1.050 -0.3864 -0.0573  0.5464
  969MOL0     C33589   2.438  11.129   0.927  0.7337 -0.0912 -0.0758
  969MOL0     C33590   2.446  11.203   0.813 -0.5025  0.5421 -0.5778
  969MOL0     C33591   2.455  11.341   0.803 -0.0892  0.0886 -0.2192
  969MOL0     O33592   2.452  11.424   0.689 -0.7704 -0.4227  0.0336
  969MOL0     C33593   2.469  11.370   0.558  0.4021 -0.5130  0.1709
  969MOL0     C33594   2.583  11.425   0.476  0.0196  0.6478  0.5982
  969MOL0     C33595   2.720  11.368   0.525  0.7424  1.0083  0.4113
  969MOL0     C33596   2.769  11.439   0.647  0.3480  0.4390  0.2165
  969MOL0     C33597   2.902  11.380   0.686  0.8432 -0.3406  0.2051
  969MOL0     C33598   2.954  11.430   0.812  0.0142  1.1415 -0.5241
  969MOL0     C33599   2.860  11.386   0.930 -0.6562  0.2612  0.1604
  969MOL0     C33600   2.933  11.354   1.061  0.8412  0.4607  0.6928
  969MOL0     N33601   3.027  11.238   1.059  0.2117  0.2877  0.6951
  969MOL0     C33602   2.980  11.115   1.038 -0.1423  0.2001 -0.2136
  969MOL0     C33603   3.095  11.044   1.014 -0.4797 -0.1291 -0.5962
  969MOL0     C33604   3.096  10.894   0.982 -0.1315 -1.1222 -0.5276
  969MOL0     C33605   3.012  10.866   0.855 -0.6714 -0.0016 -0.2988
  969MOL0     C33606   3.069  10.937   0.727  0.4492 -0.1753  0.2088
  969MOL0     C33607   3.221  10.896   0.702  0.4716  0.3316 -0.1532
  969MOL0     O33608   3.271  10.946   0.572  0.7390  0.1140 -0.0464
  969MOL0     C33609   3.291  11.075   0.551 -1.2749  0.9406  0.6908
  969MOL0     C33610   3.309  11.176   0.646 -0.8866  0.4674  0.2660
  969MOL0     C33611   3.378  11.290   0.611  0.4077  0.3252 -0.3466
  969MOL0     C33612   3.396  11.396   0.720 -0.0846 -0.0940  0.2956
  969MOL0     C33613   3.404  11.313   0.480  0.3448 -0.5032  0.7558
  969MOL0     C33614   3.478  11.435   0.429  0.1628  0.9308  0.2439
  969MOL0     O33615   3.565  11.415   0.332  0.6176  0.3638  0.2882
  969MOL0     C33616   3.580  11.504   0.229  0.2383 -0.3235  0.6122
  969MOL0     C33617   3.719  11.517   0.185  0.1288 -0.0453 -0.1353
  969MOL0     C33618   3.764  11.610   0.087  0.8308 -0.3887  1.0634
  969MOL0     C33619   3.665  11.696   0.033 -0.6645 -0.3798  0.0560
  969MOL0     O33620   3.701  11.796  -0.060  0.6678  0.0652 -0.3295
  969MOL0     C33621   3.747  11.740  -0.187  0.5136  0.4160 -0.6952
  969MOL0     C33622   3.775  11.856  -0.283 -0.3687 -0.3366 -0.3287
  969MOL0     C33623   3.837  11.981  -0.211  0.4453  0.0501  0.5962
  969MOL0     C33624   3.977  11.960  -0.156 -0.5236  0.2706 -0.3556
  969MOL0     C33625   4.031  12.092  -0.092 -0.4222  0.7303 -0.1110
  969MOL0     C33626   4.149  12.071  -0.016 -0.0603 -0.0246 -0.2949
  969MOL0     C33627   4.184  12.202   0.059 -0.0388 -0.2669  0.2978
  969MOL0     C33628   4.326  12.182   0.108 -0.2132 -0.1828 -0.0897
  969MOL0    Cl33629   4.379  12.353   0.137 -0.3374 -0.1458 -0.0545
  969MOL0     C33630   3.531  11.684   0.068 -0.6504  0.3861 -1.0684
  969MOL0     C33631   3.487  11.593   0.169  0.4246  0.3277 -0.6031
  969MOL0     O33632   3.462  11.548   0.479 -0.4566 -0.6418  0.1626
  969MOL0     C33633   3.374  11.216   0.375 -0.1163 -0.1352 -0.0182
  969MOL0     C33634   3.323  11.091   0.419 -0.3067 -0.2516 -1.1224
  969MOL0     N33635   3.206  11.129   1.012  0.3042 -0.5159  0.0565
  969MOL0     N33636   3.161  11.249   1.029 -0.1448 -0.1112  0.3495
  969MOL0     C33637   2.465  11.403   0.927 -0.7130  0.1516 -0.7507
  969MOL0     C33638   2.459  11.332   1.047 -0.0705  1.2705 -0.5871
  969MOL0     C33639   2.580  11.028   1.343 -0.7061  0.2716  0.3370
  969MOL0     C33640   2.456  11.024   1.409  0.7561 -0.4514 -0.2281
  969MOL0     C33641   2.439  10.933   1.517  0.0034 -0.3123 -0.0214
  969MOL0     C33642   2.543  10.848   1.557  0.2765  0.1136 -1.0115
  969MOL0     O33643   2.519  10.751   1.656 -0.0924 -0.4736 -0.0947
  969MOL0     C33644   2.612  10.657   1.703 -0.0349 -0.6427  0.4974
  969MOL0     C33645   2.532  10.568   1.800 -0.4881  0.1204  0.2071
  969MOL0     C33646   2.538  10.624   1.946  0.1267 -0.1404  0.8127
  969MOL0     C33647   2.428  10.728   1.963 -0.1666 -0.3839 -0.3232
  969MOL0     C33648   2.300  10.661   1.949 -0.9904 -0.0841  0.2036
  969MOL0     C33649   2.194  10.609   1.951  0.1111 -0.6769  0.2770
  969MOL0     C33650   2.673  10.881   1.505  0.3917  0.5191  0.0891
  969MOL0     C33651   2.698  10.966   1.397  0.1050  0.3769 -0.1881
  969MOL0     C33652   2.840  10.971   1.344  0.0400  0.7005 -0.1472
  969MOL0     H33653   2.427  11.021   0.932  0.2735  0.0053  1.6465
  969MOL0     H33654   2.437  11.149   0.719  0.3712  1.9516 -1.5114
  969MOL0     H33655   2.379  11.401   0.503  0.2608 -1.0129  0.1165
  969MOL0     H33656   2.464  11.261   0.558 -1.9859 -0.4585  1.1073
  969MOL0     H33657   2.567  11.399   0.371  0.3868 -1.8480  1.0988
  969MOL0     H33658   2.594  11.534   0.473  0.7704  0.6329  1.9050
  969MOL0     H33659   2.713  11.262   0.550  1.7274  0.9660  0.5556
  969MOL0     H33660   2.793  11.390   0.447  2.1676  2.5137  2.0771
  969MOL0     H33661   2.775  11.548   0.649 -1.8905  0.6031  0.1646
  969MOL0     H33662   2.702  11.416   0.730  2.2472  2.2401  2.3825
  969MOL0     H33663   2.970  11.395   0.602  0.9107 -1.9173 -0.0478
  969MOL0     H33664   2.886  11.272   0.685 -0.6706 -0.1388 -0.0166
  969MOL0     H33665   3.057  11.394   0.825 -0.7856 -2.3391 -2.6421
  969MOL0     H33666   2.952  11.539   0.818 -0.9288  1.1944 -1.6039
  969MOL0     H33667   2.810  11.300   0.884  3.9979 -0.8163 -3.6077
  969MOL0     H33668   2.786  11.462   0.958 -1.3460 -1.0004  1.9877
  969MOL0     H33669   2.994  11.436   1.099  1.8255  0.6495 -1.1683
  969MOL0     H33670   2.863  11.336   1.143 -0.0079 -1.7402 -0.4263
  969MOL0     H33671   2.878  11.078   1.048 -0.2605 -0.1925 -2.4645
  969MOL0     H33672   3.043  10.853   1.069 -1.6793  1.4047 -0.1736
  969MOL0     H33673   3.198  10.856   0.975  0.2443 -0.0226 -1.2673
  969MOL0     H33674   3.017  10.760   0.828 -0.5860  0.5444 -2.5480
  969MOL0     H33675   2.908  10.893   0.875 -0.4436  0.4985  0.2602
  969MOL0     H33676   3.010  10.908   0.639 -2.0321  0.9413  1.4139
  969MOL0     H33677   3.059  11.046   0.729  0.4457  0.0149 -3.2680
  969MOL0     H33678   3.277  10.933   0.789  0.3309 -0.4080  0.2566
  969MOL0     H33679   3.231  10.787   0.697  2.3327  0.4767 -0.6243
  969MOL0     H33680   3.288  11.157   0.750  0.3839 -0.2384  0.4160
  969MOL0     H33681   3.344  11.382   0.815  1.4933  3.4267  1.8644
  969MOL0     H33682   3.356  11.495   0.692  1.1434  0.1202 -0.7901
  969MOL0     H33683   3.503  11.411   0.736 -0.2305  0.5005  0.8046
  969MOL0     H33684   3.788  11.446   0.228  0.4715  0.8288  0.7825
  969MOL0     H33685   3.868  11.614   0.057  0.6078  1.2026  0.3929
  969MOL0     H33686   3.833  11.673  -0.177 -0.2094 -0.2378  1.5832
  969MOL0     H33687   3.674  11.678  -0.239 -1.0470  0.5752  1.2197
  969MOL0     H33688   3.844  11.821  -0.361  1.4124  0.2828  0.9212
  969MOL0     H33689   3.681  11.882  -0.333 -0.5135  0.5721  0.4010
  969MOL0     H33690   3.777  12.022  -0.129  2.0770  0.3075  1.6949
  969MOL0     H33691   3.843  12.064  -0.281 -2.4785 -0.1592 -0.0214
  969MOL0     H33692   4.047  11.927  -0.234 -1.3933  2.7001 -2.2993
  969MOL0     H33693   3.983  11.890  -0.072  2.6515  0.7376 -0.0789
  969MOL0     H33694   4.049  12.170  -0.166 -3.1277  0.0792 -1.5802
  969MOL0     H33695   3.954  12.123  -0.021 -0.2282 -0.6477  0.7563
  969MOL0     H33696   4.227  12.046  -0.089 -2.3459  0.2729 -2.9916
  969MOL0     H33697   4.134  11.994   0.060  3.4080 -0.1819  0.4266
  969MOL0     H33698   4.111  12.234   0.134 -0.9401  0.1727 -0.7166
  969MOL0     H33699   4.187  12.281  -0.017 -0.1679 -1.3060 -0.8131
  969MOL0     H33700   4.398  12.153   0.031  0.1638  3.5940 -1.3427
  969MOL0     H33701   4.325  12.117   0.196 -0.0464  1.1692  0.9472
  969MOL0     H33702   3.464  11.757   0.026 -0.9997  1.1814  0.7925
  969MOL0     H33703   3.385  11.576   0.203  2.0289 -2.2623  3.6203
  969MOL0     H33704   3.402  11.231   0.271 -0.9047 -1.2628 -0.4162
  969MOL0     H33705   3.308  11.011   0.348  1.9754  0.3758 -2.4376
  969MOL0     H33706   2.470  11.511   0.932  1.0160  0.0883  3.4178
  969MOL0     H33707   2.445  11.389   1.139  1.9145 -0.5888  0.9782
  969MOL0     H33708   2.369  11.087   1.394  1.4967  0.6479 -0.0117
  969MOL0     H33709   2.341  10.910   1.557  0.1899 -1.6624 -0.3060
  969MOL0     H33710   2.653  10.593   1.624  1.3551  0.6126  0.1421
  969MOL0     H33711   2.688  10.720   1.750 -0.4364  2.3833 -2.5010
  969MOL0     H33712   2.585  10.472   1.804  0.7077  0.8185  2.1921
  969MOL0     H33713   2.430  10.554   1.762 -2.3820  2.1909  3.9917
  969MOL0     H33714   2.522  10.540   2.014  1.7234 -1.2475 -0.1162
  969MOL0     H33715   2.633  10.674   1.969 -0.8131  3.3236 -1.8662
  969MOL0     H33716   2.429  10.806   1.886 -2.6723  0.0984  0.0283
  969MOL0     H33717   2.432  10.759   2.068  1.4718 -2.6579  0.3729
  969MOL0     H33718   2.096  10.565   1.954 -1.1670  1.8892 -0.8076
  969MOL0     H33719   2.753  10.828   1.556 -1.0469  0.1864  2.1103
  969MOL0     H33720   2.861  10.880   1.288 -1.4050  0.3539 -0.1781
  969MOL0     H33721   2.875  11.058   1.288  0.9257  1.0542  0.9299
  969MOL0     H33722   2.900  10.958   1.434 -0.9929 -2.1057  0.2399
  970MOL0     O33723   3.252   4.101   2.643  0.8276  0.1036  0.5205
  970MOL0     C33724   3.231   4.171   2.735 -0.0306 -0.9189 -1.0694
  970MOL0     O33725   3.330   4.256   2.801  0.3865 -0.5095 -0.2736
  970MOL0     C33726   3.439   4.304   2.730  0.8072 -0.3615  0.1178
  970MOL0     C33727   3.567   4.262   2.770  0.9272  0.8944 -0.4127
  970MOL0     C33728   3.682   4.300   2.699 -0.0964 -0.4780 -0.5887
  970MOL0     C33729   3.660   4.375   2.585 -0.6271 -0.2563 -0.4298
  970MOL0     O33730   3.780   4.407   2.524 -0.2591  0.0170  0.4733
  970MOL0     C33731   3.787   4.487   2.397 -0.3116  0.5521  0.0214
  970MOL0     C33732   3.937   4.488   2.346  1.0873  0.6466  0.2426
  970MOL0     C33733   3.977   4.342   2.317 -0.7153 -0.7251 -0.4205
  970MOL0     C33734   3.898   4.255   2.223  0.2288 -0.1985 -0.9899
  970MOL0     C33735   3.923   4.299   2.081  0.2154  0.2459 -0.0917
  970MOL0     C33736   3.799   4.261   2.004 -0.2577 -0.5485  0.4270
  970MOL0     C33737   3.804   4.289   1.850  0.0260 -0.0202  0.5947
  970MOL0     C33738   3.669   4.274   1.787 -0.1563  0.5794  0.2758
  970MOL0     N33739   3.572   4.381   1.805 -0.8172  0.6791  0.4796
  970MOL0     C33740   3.596   4.516   1.780  0.9804  0.9730 -0.0854
  970MOL0     C33741   3.473   4.579   1.781  0.3955  0.5369 -1.1800
  970MOL0     C33742   3.463   4.724   1.743  0.3585 -1.2386  0.0623
  970MOL0     C33743   3.334   4.780   1.791 -0.7611  0.4699 -0.6491
  970MOL0     C33744   3.323   4.931   1.764  1.0837  0.5058  0.3946
  970MOL0     C33745   3.238   4.971   1.641  0.4816  0.3374  0.3559
  970MOL0     O33746   3.226   5.116   1.618 -0.9824 -0.1071  0.6466
  970MOL0     C33747   3.331   5.176   1.546 -0.9576  0.0379 -0.3250
  970MOL0     C33748   3.326   5.313   1.518 -0.2023  0.1763 -0.0297
  970MOL0     C33749   3.438   5.373   1.450  0.7501 -0.1305  0.5583
  970MOL0     C33750   3.424   5.525   1.423  0.5371 -0.3159  0.8878
  970MOL0     C33751   3.552   5.305   1.416 -0.2022 -0.3987 -0.2974
  970MOL0     C33752   3.669   5.366   1.340 -0.2142 -0.6958 -0.4461
  970MOL0     O33753   3.741   5.275   1.281  0.5956  0.7489  0.0145
  970MOL0     C33754   3.862   5.299   1.228 -0.3626 -0.4124 -0.4886
  970MOL0     C33755   3.972   5.330   1.307 -0.6097 -0.4094  0.3579
  970MOL0     C33756   4.098   5.351   1.251  0.2460 -0.0317 -0.6645
  970MOL0     C33757   4.107   5.361   1.116  0.9452 -0.0211  0.2545
  970MOL0     O33758   4.219   5.425   1.072 -0.7714  0.3908 -1.2554
  970MOL0     C33759   4.190   5.549   1.000 -0.5988  0.2794  0.0843
  970MOL0     C33760   4.320   5.615   0.964  0.6351  0.4046  0.1310
  970MOL0     C33761   4.344   5.717   1.073  0.0808  0.0799  0.0681
  970MOL0     C33762   4.488   5.770   1.062 -0.4998  0.5323 -0.7191
  970MOL0     C33763   4.502   5.868   1.173 -0.5865  0.6571 -0.0539
  970MOL0     C33764   4.636   5.944   1.178  0.1329 -0.2980  0.8662
  970MOL0     C33765   4.765   5.860   1.170 -0.5877 -0.4208 -1.0398
  970MOL0     C33766   4.809   5.817   1.311 -0.4111 -0.2186  0.0336
  970MOL0    Cl33767   4.824   5.969   1.413  0.5142  0.2365  0.3281
  970MOL0     C33768   3.993   5.334   1.030  0.5514  0.1757  1.0242
  970MOL0     C33769   3.867   5.295   1.093 -0.0672  0.0193  0.5326
  970MOL0     O33770   3.696   5.486   1.336  0.6209 -0.6177  0.2406
  970MOL0     C33771   3.550   5.166   1.440  0.0661 -1.5537 -0.0159
  970MOL0     C33772   3.442   5.107   1.495 -0.3955  0.8527 -0.1635
  970MOL0     N33773   3.378   4.487   1.822  0.2910 -0.1335 -0.1130
  970MOL0     N33774   3.441   4.375   1.844  0.9493  0.5077 -0.0507
  970MOL0     C33775   3.531   4.406   2.546  0.2593  0.8246  0.9104
  970MOL0     C33776   3.420   4.373   2.618 -0.9813  0.4381  0.0898
  970MOL0     C33777   3.100   4.178   2.803 -0.1646  1.2360  0.8380
  970MOL0     C33778   3.071   4.283   2.896  0.1097 -0.2798  0.0929
  970MOL0     C33779   2.953   4.297   2.957 -0.3465 -0.3825  0.7921
  970MOL0     C33780   2.843   4.232   2.900 -0.3609  0.2349  0.5222
  970MOL0     O33781   2.717   4.260   2.940 -0.1111  0.0188 -0.1111
  970MOL0     C33782   2.686   4.302   3.075 -0.3769 -1.0292 -0.6291
  970MOL0     C33783   2.707   4.193   3.181 -1.1261  0.0835  0.5452
  970MOL0     C33784   2.625   4.068   3.153 -0.6764 -1.1372  0.8569
  970MOL0     C33785   2.480   4.090   3.187  0.6050 -0.6858 -0.7357
  970MOL0     C33786   2.460   4.130   3.329 -0.1528 -0.7472 -0.0427
  970MOL0     C33787   2.458   4.167   3.446 -0.1254 -0.2401  0.0775
  970MOL0     C33788   2.859   4.136   2.799 -1.2274 -0.6510 -0.6093
  970MOL0     C33789   2.992   4.103   2.758  0.1139  0.2449  0.1313
  970MOL0     C33790   3.003   3.988   2.654  0.5365  0.3230 -0.0466
  970MOL0     H33791   3.568   4.199   2.858 -0.7206  5.8845  3.7660
  970MOL0     H33792   3.786   4.287   2.728 -0.9414 -1.1396  2.4958
  970MOL0     H33793   3.751   4.590   2.402 -1.9617  0.0177  0.0193
  970MOL0     H33794   3.731   4.435   2.318  0.8680  2.7864 -2.4442
  970MOL0     H33795   3.944   4.543   2.251 -1.6515 -0.3490 -0.6335
  970MOL0     H33796   4.014   4.535   2.407  1.3789 -0.4204  0.7188
  970MOL0     H33797   4.078   4.343   2.273 -0.8125 -0.0101 -0.6430
  970MOL0     H33798   3.978   4.289   2.412 -2.7049 -3.0645 -1.6027
  970MOL0     H33799   3.935   4.154   2.243  0.6713  0.3167  1.0779
  970MOL0     H33800   3.793   4.265   2.252  0.4641 -0.7405  0.1019
  970MOL0     H33801   4.017   4.259   2.041  1.9968  0.9630  3.0215
  970MOL0     H33802   3.937   4.407   2.074  0.3001  0.2313 -0.1544
  970MOL0     H33803   3.787   4.153   2.018  0.2863 -0.5717  0.7229
  970MOL0     H33804   3.714   4.319   2.041 -0.3028  0.5909 -1.3468
  970MOL0     H33805   3.870   4.213   1.806  1.2039  0.9387  0.6452
  970MOL0     H33806   3.850   4.387   1.835  1.7392 -0.7207  0.9498
  970MOL0     H33807   3.682   4.244   1.683 -0.0703 -1.8223  0.9064
  970MOL0     H33808   3.624   4.184   1.832  1.5655  0.3205  1.5647
  970MOL0     H33809   3.697   4.538   1.745  1.8306 -2.1038  0.1335
  970MOL0     H33810   3.470   4.731   1.635 -0.5874  2.6975  0.1101
  970MOL0     H33811   3.544   4.792   1.771 -0.8739 -0.2002  1.2511
  970MOL0     H33812   3.249   4.730   1.744 -0.8267  0.6383 -0.7096
  970MOL0     H33813   3.322   4.764   1.899 -1.6677  0.8446 -0.6798
  970MOL0     H33814   3.273   4.982   1.847  3.0294  1.8009  0.8551
  970MOL0     H33815   3.420   4.981   1.756  1.8387 -0.6278  1.8096
  970MOL0     H33816   3.276   4.919   1.553  1.2615  0.7626  0.4367
  970MOL0     H33817   3.137   4.931   1.654 -0.4175  2.0739 -0.8599
  970MOL0     H33818   3.246   5.376   1.554 -0.7653 -1.4819  1.8410
  970MOL0     H33819   3.321   5.562   1.436  0.6359  1.2460 -1.9797
  970MOL0     H33820   3.454   5.551   1.322  2.3973  0.1926  1.5355
  970MOL0     H33821   3.489   5.577   1.494 -0.2160  2.4009 -0.2788
  970MOL0     H33822   3.961   5.334   1.415  1.2971 -0.4904  0.5921
  970MOL0     H33823   4.189   5.378   1.302 -0.4280 -0.2749  0.7097
  970MOL0     H33824   4.149   5.524   0.901  1.7703  0.3245 -0.9847
  970MOL0     H33825   4.126   5.604   1.069  0.6637 -0.6950  2.1278
  970MOL0     H33826   4.397   5.537   0.964 -0.3646 -0.6058 -0.2447
  970MOL0     H33827   4.316   5.657   0.863 -0.6334 -2.5148 -1.1185
  970MOL0     H33828   4.322   5.674   1.171 -0.1992 -2.4044 -1.0264
  970MOL0     H33829   4.269   5.797   1.068 -0.5973 -0.5030  0.6357
  970MOL0     H33830   4.509   5.808   0.962  2.0575  0.3817 -0.3254
  970MOL0     H33831   4.564   5.691   1.076 -0.9264  0.4481  1.5834
  970MOL0     H33832   4.412   5.929   1.168 -4.7179 -4.6956 -0.5874
  970MOL0     H33833   4.493   5.808   1.264  0.2394 -1.2096 -1.1354
  970MOL0     H33834   4.637   6.010   1.265 -3.3922  0.6075  0.3789
  970MOL0     H33835   4.637   6.006   1.088  1.4025  1.6047  2.1235
  970MOL0     H33836   4.838   5.924   1.119 -0.1199 -0.5460 -0.5384
  970MOL0     H33837   4.754   5.775   1.103  1.4042 -0.2835 -1.6160
  970MOL0     H33838   4.908   5.771   1.304 -0.8082 -0.8326 -2.2989
  970MOL0     H33839   4.744   5.737   1.346  0.0673 -0.2985  0.7825
  970MOL0     H33840   4.007   5.341   0.923 -0.6338 -1.4937  0.7285
  970MOL0     H33841   3.787   5.269   1.025  2.0608 -1.5580 -1.5462
  970MOL0     H33842   3.637   5.109   1.407  1.1753 -0.2795  0.5992
  970MOL0     H33843   3.447   4.998   1.492 -0.0636  0.8808 -2.3184
  970MOL0     H33844   3.512   4.458   2.453  1.8183 -0.7478 -0.3636
  970MOL0     H33845   3.322   4.412   2.594 -0.5278 -0.3639 -3.5881
  970MOL0     H33846   3.150   4.346   2.935  0.2272  0.5803 -1.4808
  970MOL0     H33847   2.955   4.369   3.038 -1.0322  0.6106 -0.0452
  970MOL0     H33848   2.744   4.390   3.103 -0.4543 -0.8474 -1.0421
  970MOL0     H33849   2.580   4.329   3.088  0.1736  0.5759  0.8396
  970MOL0     H33850   2.682   4.238   3.278 -3.9942 -0.9062  0.3733
  970MOL0     H33851   2.808   4.153   3.192 -0.8252 -0.4834 -3.0707
  970MOL0     H33852   2.636   4.042   3.047 -0.0884 -1.6779  1.0505
  970MOL0     H33853   2.670   3.984   3.206 -0.5210 -1.6018  0.0013
  970MOL0     H33854   2.423   3.998   3.172 -0.1951 -0.7021  1.9749
  970MOL0     H33855   2.429   4.164   3.124 -1.2256 -0.7699  0.5721
  970MOL0     H33856   2.455   4.173   3.553 -1.0751 -0.7508  0.0914
  970MOL0     H33857   2.775   4.080   2.758 -3.7526  0.6477  2.3804
  970MOL0     H33858   3.064   3.903   2.686 -0.2889 -0.7392 -1.2030
  970MOL0     H33859   2.904   3.946   2.636  0.6819  0.1312 -0.4075
  970MOL0     H33860   3.043   4.013   2.555 -1.0821  1.2602 -0.5070
  971MOL0     O33861   5.212   9.268   0.895  0.2528 -0.7680 -0.0245
  971MOL0     C33862   5.233   9.380   0.850 -0.4182  0.6487 -0.3009
  971MOL0     O33863   5.344   9.420   0.786 -0.2372 -0.0060  0.5822
  971MOL0     C33864   5.445   9.327   0.794  0.0873  0.2174 -0.4311
  971MOL0     C33865   5.517   9.287   0.682 -0.0882  0.4522 -0.1679
  971MOL0     C33866   5.635   9.213   0.701 -0.9580  0.6940 -0.3242
  971MOL0     C33867   5.690   9.183   0.824 -0.3406 -0.7032  0.2246
  971MOL0     O33868   5.801   9.101   0.837  0.1145 -0.4941 -0.7159
  971MOL0     C33869   5.890   9.129   0.948  0.0305  0.4608  0.6867
  971MOL0     C33870   6.028   9.063   0.938  0.2076 -0.9413  0.3472
  971MOL0     C33871   6.098   9.067   0.800  0.3468  0.6545 -0.4390
  971MOL0     C33872   6.139   9.216   0.769  0.1713  0.2252  0.4263
  971MOL0     C33873   6.211   9.235   0.639  0.0059 -0.2171 -0.1726
  971MOL0     C33874   6.239   9.385   0.625  0.0372 -0.1062  0.1666
  971MOL0     C33875   6.336   9.416   0.507 -0.9742  0.2253  0.3869
  971MOL0     C33876   6.486   9.394   0.525  0.2312  0.0800  0.2605
  971MOL0     N33877   6.546   9.399   0.396 -0.5219  0.2533  0.0832
  971MOL0     C33878   6.543   9.291   0.317 -0.8980  0.4029  0.1921
  971MOL0     C33879   6.620   9.320   0.212 -0.2045 -0.2067  0.7205
  971MOL0     C33880   6.655   9.231   0.088 -0.9955  0.8680  0.1168
  971MOL0     C33881   6.564   9.244  -0.040 -0.5074  0.3116  0.1353
  971MOL0     C33882   6.450   9.138  -0.049  0.5840 -0.0777 -0.1900
  971MOL0     C33883   6.334   9.166   0.053  0.3417  0.4758 -0.5776
  971MOL0     O33884   6.269   9.289   0.043  0.0260 -0.7111  0.0782
  971MOL0     C33885   6.185   9.314   0.145  0.1162  0.1151  1.3124
  971MOL0     C33886   6.177   9.445   0.181 -0.7826  0.1785 -0.0972
  971MOL0     C33887   6.085   9.497   0.270 -0.6040  0.4835  0.3327
  971MOL0     C33888   6.108   9.647   0.286  0.6811  0.1328 -0.2253
  971MOL0     C33889   6.004   9.406   0.338 -0.1272 -0.2249 -0.8794
  971MOL0     C33890   5.905   9.446   0.443 -0.3289 -0.6720 -0.6733
  971MOL0     O33891   5.935   9.565   0.504 -0.0539  0.3567  1.4020
  971MOL0     C33892   5.848   9.606   0.598 -0.7214  0.9810  0.2352
  971MOL0     C33893   5.727   9.671   0.569 -0.0159 -1.3135  0.8051
  971MOL0     C33894   5.656   9.711   0.684  0.0837 -0.7228  0.5532
  971MOL0     C33895   5.694   9.686   0.814  0.6651 -0.1846  0.4664
  971MOL0     O33896   5.615   9.739   0.910 -0.0536 -0.3902 -0.6483
  971MOL0     C33897   5.658   9.718   1.045  0.2021  0.7508 -0.8489
  971MOL0     C33898   5.618   9.576   1.107  1.2815 -0.1694  0.4592
  971MOL0     C33899   5.657   9.569   1.245 -0.0743 -0.1481 -0.3700
  971MOL0     C33900   5.562   9.461   1.316  0.6780 -0.0082  0.4831
  971MOL0     C33901   5.577   9.456   1.466  0.0570  0.2390 -0.3052
  971MOL0     C33902   5.488   9.346   1.516 -0.4691  0.0964  0.1796
  971MOL0     C33903   5.494   9.349   1.670  0.0506  0.6757 -1.0022
  971MOL0     C33904   5.419   9.231   1.735 -0.5436 -0.0742  0.0696
  971MOL0    Cl33905   5.400   9.253   1.912 -0.0364  0.1844 -0.4125
  971MOL0     C33906   5.816   9.623   0.835 -0.6160  0.2453 -0.3129
  971MOL0     C33907   5.888   9.573   0.729  0.1374  0.0323 -0.0815
  971MOL0     O33908   5.805   9.377   0.456 -0.5186 -0.9112 -0.1555
  971MOL0     C33909   6.017   9.271   0.306  0.6622  0.1992 -0.4034
  971MOL0     C33910   6.103   9.229   0.209 -0.7332 -0.3931  0.4390
  971MOL0     N33911   6.666   9.450   0.219  0.3227 -0.5816 -0.6684
  971MOL0     N33912   6.630   9.492   0.340  0.5583  0.4220  0.2540
  971MOL0     C33913   5.627   9.243   0.933 -0.0323  0.0060  0.5531
  971MOL0     C33914   5.503   9.315   0.923 -0.1726 -0.8811  0.0419
  971MOL0     C33915   5.114   9.470   0.824 -0.3070  0.2152 -0.7228
  971MOL0     C33916   4.981   9.418   0.810  0.4680  0.4514 -0.1884
  971MOL0     C33917   4.865   9.502   0.803  0.0541  0.1751  0.4854
  971MOL0     C33918   4.887   9.644   0.812  0.4927 -0.5686  1.2640
  971MOL0     O33919   4.792   9.741   0.805  0.1445 -0.3001  0.4730
  971MOL0     C33920   4.671   9.689   0.752  0.0391  0.2906 -0.1020
  971MOL0     C33921   4.560   9.803   0.749 -0.0719 -0.1648  0.1240
  971MOL0     C33922   4.584   9.935   0.669  0.3231 -0.5599 -0.4790
  971MOL0     C33923   4.584   9.918   0.517  0.4286  1.2287  0.2428
  971MOL0     C33924   4.458   9.855   0.474  0.5465  0.9020 -0.2570
  971MOL0     C33925   4.348   9.812   0.453 -0.1352  0.3036  0.3484
  971MOL0     C33926   5.020   9.691   0.818 -0.2191  0.0043  0.1087
  971MOL0     C33927   5.138   9.613   0.837 -0.5170 -0.4270 -0.0829
  971MOL0     C33928   5.274   9.681   0.882 -0.1961  0.5898 -0.5377
  971MOL0     H33929   5.484   9.300   0.580  2.1577 -1.0202 -1.1579
  971MOL0     H33930   5.684   9.185   0.608 -0.9818 -4.4472  0.8689
  971MOL0     H33931   5.859   9.102   1.050 -0.4064 -2.3287 -0.1103
  971MOL0     H33932   5.905   9.237   0.950  1.1764  0.3233  0.1403
  971MOL0     H33933   6.084   9.100   1.025 -0.0128 -0.1024  0.1350
  971MOL0     H33934   6.024   8.955   0.956 -0.9243 -0.7332  1.5493
  971MOL0     H33935   6.184   9.000   0.791 -0.5162 -0.7640  1.2379
  971MOL0     H33936   6.023   9.045   0.724 -0.8475  1.6760  0.4032
  971MOL0     H33937   6.049   9.279   0.769  0.8305  1.4239 -3.3690
  971MOL0     H33938   6.197   9.246   0.857  1.4653 -0.0952 -0.2914
  971MOL0     H33939   6.133   9.222   0.562  0.4616 -1.2690 -0.4824
  971MOL0     H33940   6.294   9.165   0.627 -1.3569 -1.6005 -2.2867
  971MOL0     H33941   6.144   9.439   0.618 -0.6880 -1.4275 -0.3664
  971MOL0     H33942   6.285   9.419   0.719 -1.7092  1.2993  0.5593
  971MOL0     H33943   6.338   9.523   0.483  1.3223  0.3733  1.0333
  971MOL0     H33944   6.303   9.361   0.418  1.2885 -0.5434 -0.0619
  971MOL0     H33945   6.535   9.463   0.595  2.1541 -0.4995 -0.4457
  971MOL0     H33946   6.497   9.297   0.573 -3.5499 -0.8291 -0.3615
  971MOL0     H33947   6.503   9.191   0.332  2.6797 -1.4500 -1.1519
  971MOL0     H33948   6.653   9.127   0.121 -1.3523  0.8027 -0.1108
  971MOL0     H33949   6.758   9.243   0.053 -0.1749  0.2962  2.1897
  971MOL0     H33950   6.528   9.347  -0.054 -3.2252 -0.5747  0.0455
  971MOL0     H33951   6.630   9.213  -0.121 -0.6822  0.4818 -0.0743
  971MOL0     H33952   6.409   9.132  -0.150 -0.6216 -3.6175  0.3812
  971MOL0     H33953   6.488   9.036  -0.035  0.1094  0.0607  2.5393
  971MOL0     H33954   6.254   9.092   0.040 -4.1801  4.3015  2.3752
  971MOL0     H33955   6.370   9.162   0.156 -2.7414 -0.8099  0.5850
  971MOL0     H33956   6.246   9.513   0.131 -0.6985  1.0771  1.1968
  971MOL0     H33957   6.143   9.706   0.202 -0.3276  2.0129  0.6082
  971MOL0     H33958   6.184   9.655   0.365 -0.5563 -1.0223  1.1256
  971MOL0     H33959   6.014   9.688   0.325  0.2013 -2.9118  2.2830
  971MOL0     H33960   5.698   9.713   0.473  3.1602  4.1132  1.7920
  971MOL0     H33961   5.575   9.782   0.668 -1.7458 -2.5982  0.9400
  971MOL0     H33962   5.766   9.738   1.052  1.0579 -3.0034 -1.3137
  971MOL0     H33963   5.611   9.795   1.107 -1.3683 -1.5733  1.0094
  971MOL0     H33964   5.511   9.562   1.089  0.8164 -0.5249  3.1920
  971MOL0     H33965   5.675   9.494   1.062  1.9671 -0.4235  1.7429
  971MOL0     H33966   5.658   9.665   1.298  3.7472  0.0660 -0.6020
  971MOL0     H33967   5.759   9.531   1.253  0.1568  0.6033  0.3951
  971MOL0     H33968   5.577   9.367   1.262 -0.2197  1.5624 -2.7178
  971MOL0     H33969   5.456   9.478   1.295  0.7983  0.6090  0.3814
  971MOL0     H33970   5.684   9.438   1.483 -0.1360 -3.1972 -1.9277
  971MOL0     H33971   5.535   9.545   1.514 -1.4968  0.3330 -1.7888
  971MOL0     H33972   5.518   9.249   1.474 -0.5325  0.5604 -0.9682
  971MOL0     H33973   5.385   9.360   1.485 -0.8070  0.2511  1.3255
  971MOL0     H33974   5.460   9.445   1.709  1.7378  0.7387  0.4307
  971MOL0     H33975   5.599   9.336   1.699 -0.9474 -3.2844  1.6387
  971MOL0     H33976   5.479   9.140   1.728 -0.3264  0.0201  0.6529
  971MOL0     H33977   5.317   9.222   1.697 -0.2947 -0.4241 -0.5402
  971MOL0     H33978   5.853   9.600   0.934 -0.4952 -1.8434 -0.8021
  971MOL0     H33979   5.983   9.523   0.744 -0.6792 -1.4811  0.2605
  971MOL0     H33980   5.948   9.195   0.341 -0.0799  0.6569 -0.8375
  971MOL0     H33981   6.103   9.123   0.182  1.1587 -0.3115 -0.0711
  971MOL0     H33982   5.674   9.229   1.029 -1.7474  1.4373  1.6575
  971MOL0     H33983   5.436   9.334   1.007 -1.9405 -0.0412 -1.4719
  971MOL0     H33984   4.961   9.311   0.810  1.3908  0.2574 -1.2512
  971MOL0     H33985   4.767   9.453   0.800  0.6237 -0.9567 -0.3981
  971MOL0     H33986   4.692   9.645   0.654 -2.2025 -1.6681  0.1903
  971MOL0     H33987   4.634   9.613   0.821 -0.2654 -0.4571 -1.0662
  971MOL0     H33988   4.551   9.832   0.854  2.5472 -0.5049  0.5204
  971MOL0     H33989   4.458   9.770   0.730 -1.2223  1.7607  2.4766
  971MOL0     H33990   4.516  10.014   0.701  2.2098  1.3435 -0.8640
  971MOL0     H33991   4.682   9.971   0.703  0.3639 -1.1076  0.0020
  971MOL0     H33992   4.670   9.854   0.494  0.9319  0.5799  3.4313
  971MOL0     H33993   4.603  10.016   0.474 -0.4961  2.3471  2.2507
  971MOL0     H33994   4.254   9.769   0.425 -2.8045  1.4019  6.0862
  971MOL0     H33995   5.031   9.798   0.820 -2.3830  0.2940 -0.6666
  971MOL0     H33996   5.347   9.678   0.800  2.0106 -1.1695  1.3547
  971MOL0     H33997   5.256   9.780   0.926  0.4889  0.3385  0.3284
  971MOL0     H33998   5.318   9.625   0.964  2.7995  1.9044 -1.1036
  972MOL0     O33999   0.032   8.283  10.609  0.1039  0.5409  0.6288
  972MOL0     C34000   0.056   8.364  10.689  0.1285 -1.1487  0.8247
  972MOL0     O34001   0.168   8.363  10.762  0.1682 -0.4970 -0.1935
  972MOL0     C34002   0.287   8.309  10.708 -0.0841  0.2731 -0.7112
  972MOL0     C34003   0.398   8.397  10.707  0.1219  0.2831  0.1535
  972MOL0     C34004   0.518   8.343  10.666 -1.1399 -0.0676 -0.2139
  972MOL0     C34005   0.538   8.208  10.645 -0.1440 -0.2796  0.6896
  972MOL0     O34006   0.655   8.153  10.618 -0.7045 -0.4700 -0.3846
  972MOL0     C34007   0.778   8.232  10.642  0.2025  0.2915 -0.3502
  972MOL0     C34008   0.907   8.149  10.618 -0.2345 -0.3661  0.2470
  972MOL0     C34009   1.032   8.244  10.602  0.2820 -0.0396 -0.1705
  972MOL0     C34010   1.157   8.166  10.580  0.3246 -1.1564 -0.0628
  972MOL0     C34011   1.279   8.256  10.571 -0.1216 -0.8092 -0.4755
  972MOL0     C34012   1.391   8.184  10.495  0.3977 -1.4198 -0.7273
  972MOL0     C34013   1.460   8.073  10.584 -0.7964 -0.4157  0.1497
  972MOL0     C34014   1.574   7.993  10.507  0.0612  0.5161 -0.4257
  972MOL0     N34015   1.677   8.079  10.455  0.8801 -1.1788  0.0796
  972MOL0     C34016   1.767   8.146  10.540 -1.1664  0.7516  0.5197
  972MOL0     C34017   1.855   8.206  10.454  0.1286 -0.4521  0.1834
  972MOL0     C34018   1.966   8.303  10.480  0.1141  0.5449 -0.1853
  972MOL0     C34019   2.091   8.231  10.527 -0.7131 -0.4567 -0.5028
  972MOL0     C34020   2.185   8.332  10.588  0.5188 -0.1563 -0.1261
  972MOL0     C34021   2.305   8.266  10.661  0.2027  0.4197 -0.4621
  972MOL0     O34022   2.332   8.330  10.791 -0.4929  0.2198  0.9905
  972MOL0     C34023   2.422   8.259  10.869  0.4159 -0.3141  0.2855
  972MOL0     C34024   2.382   8.191  10.984 -0.1326 -0.7231 -0.2776
  972MOL0     C34025   2.480   8.141  11.071  0.5060 -0.6996  0.3363
  972MOL0     C34026   2.429   8.079  11.201 -0.2174  1.0256  0.3849
  972MOL0     C34027   2.624   8.140  11.038  0.6389  0.0183  0.5296
  972MOL0     C34028   2.732   8.096  11.126  0.0435  0.0400 -0.1670
  972MOL0     O34029   2.697   8.046  11.251 -0.6341  0.7214 -0.2272
  972MOL0     C34030   2.791   7.983  11.338  0.4193 -0.2435 -0.0189
  972MOL0     C34031   2.896   7.899  11.294 -0.2613 -0.0023 -0.3782
  972MOL0     C34032   2.980   7.844  11.376 -0.5058  0.0509 -0.6938
  972MOL0     C34033   2.966   7.853  11.516  0.1632  0.1429 -0.7834
  972MOL0     O34034   3.049   7.789  11.603  0.4046 -0.4104 -0.5671
  972MOL0     C34035   3.136   7.688  11.557 -0.5331 -0.5854  0.4193
  972MOL0     C34036   3.158   7.586  11.669 -0.4706 -0.6235  0.1165
  972MOL0     C34037   3.258   7.626  11.767  0.4292 -0.2594  0.0582
  972MOL0     C34038   3.260   7.522  11.872 -0.3144 -0.5840  0.0656
  972MOL0     C34039   3.363   7.570  11.982 -0.1504 -0.4304  0.6198
  972MOL0     C34040   3.350   7.713  12.049 -0.2170 -0.0384  0.2195
  972MOL0     C34041   3.206   7.733  12.091  0.2369  0.0329 -1.0336
  972MOL0     C34042   3.188   7.871  12.151  0.9952  0.5769 -0.1723
  972MOL0    Cl34043   3.021   7.872  12.223 -0.0581 -0.1500 -0.2685
  972MOL0     C34044   2.872   7.933  11.570 -0.3464  0.4443 -0.0536
  972MOL0     C34045   2.783   8.001  11.483 -0.6528  0.3377  0.4295
  972MOL0     O34046   2.847   8.099  11.085  0.5120 -1.3362 -0.2523
  972MOL0     C34047   2.653   8.197  10.919 -0.4160  0.1014  0.3548
  972MOL0     C34048   2.556   8.256  10.838 -0.4726 -0.9034  0.0907
  972MOL0     N34049   1.810   8.175  10.327  0.0366  0.3786 -0.4149
  972MOL0     N34050   1.703   8.094  10.326  0.5509  0.4606  0.1572
  972MOL0     C34051   0.422   8.119  10.643  0.3674  0.3108 -0.2329
  972MOL0     C34052   0.296   8.169  10.679  0.4372  0.5202  0.0172
  972MOL0     C34053  -0.043   8.476  10.713 -0.3050  0.3251 -0.8742
  972MOL0     C34054   0.006   8.582  10.785  1.2242 -0.8394 -0.5120
  972MOL0     C34055  -0.084   8.689  10.816 -0.8298 -0.7978  0.3027
  972MOL0     C34056  -0.215   8.693  10.766 -0.6439  1.0546 -0.1626
  972MOL0     O34057  -0.293   8.795  10.806 -0.1512  0.3275  0.3628
  972MOL0     C34058  -0.419   8.818  10.736 -0.2666 -0.2987 -0.2938
  972MOL0     C34059  -0.472   8.951  10.779 -0.2683  0.0304 -0.1760
  972MOL0     C34060  -0.622   8.968  10.736 -0.4060 -1.1023 -0.3367
  972MOL0     C34061  -0.646   8.940  10.586  0.0037 -0.3339 -0.5159
  972MOL0     C34062  -0.588   9.036  10.488  0.3543 -0.1200  0.1779
  972MOL0     C34063  -0.537   9.114  10.415  0.0852 -0.2991  0.5425
  972MOL0     C34064  -0.258   8.585  10.694 -0.1848 -0.0275  0.0517
  972MOL0     C34065  -0.174   8.470  10.677  0.7996 -1.0814  0.0659
  972MOL0     C34066  -0.250   8.350  10.624  0.4370  0.2249  0.0140
  972MOL0     H34067   0.389   8.503  10.729  1.8600  0.5956 -0.4650
  972MOL0     H34068   0.606   8.407  10.666  0.5459 -2.1885 -2.3343
  972MOL0     H34069   0.767   8.270  10.744  1.0652  3.4544 -1.3186
  972MOL0     H34070   0.789   8.320  10.577  0.9614 -0.1591 -0.8377
  972MOL0     H34071   0.920   8.090  10.709 -1.0192  2.5636  2.4248
  972MOL0     H34072   0.898   8.081  10.533  0.4363 -0.0760 -0.0717
  972MOL0     H34073   1.002   8.314  10.524 -1.8172  0.6195  1.1313
  972MOL0     H34074   1.052   8.304  10.691  0.7023  1.6749 -1.3768
  972MOL0     H34075   1.170   8.098  10.665 -1.0843 -1.3488  0.0278
  972MOL0     H34076   1.142   8.099  10.494  1.3710 -0.6527 -0.6619
  972MOL0     H34077   1.299   8.288  10.674 -0.0951  0.0136 -0.7291
  972MOL0     H34078   1.257   8.344  10.511  2.4048  0.2352  0.0072
  972MOL0     H34079   1.348   8.130  10.410  1.4648  0.2790 -2.4430
  972MOL0     H34080   1.461   8.259  10.456 -0.1950 -0.5136 -0.1016
  972MOL0     H34081   1.382   8.008  10.624 -2.3888  1.5545  0.3836
  972MOL0     H34082   1.495   8.125  10.674  0.4807 -1.8420  0.5136
  972MOL0     H34083   1.620   7.918  10.571 -0.3142  0.4286 -0.2521
  972MOL0     H34084   1.520   7.944  10.425 -4.6297  0.8022  2.1530
  972MOL0     H34085   1.776   8.155  10.648  1.8934 -2.4796  0.7128
  972MOL0     H34086   1.921   8.370  10.554  1.4289  1.1128  0.1459
  972MOL0     H34087   1.993   8.359  10.391 -1.6337  1.8673  0.0768
  972MOL0     H34088   2.055   8.152  10.594 -0.6243  0.0976  0.2083
  972MOL0     H34089   2.139   8.172  10.448  0.9553 -1.0829  0.9169
  972MOL0     H34090   2.222   8.386  10.501 -0.3360  0.5568 -0.0666
  972MOL0     H34091   2.138   8.397  10.662 -1.2557 -2.9769  1.4132
  972MOL0     H34092   2.284   8.160  10.678 -0.6312  0.9370  2.0651
  972MOL0     H34093   2.393   8.273  10.596  1.0950  3.5647  0.9244
  972MOL0     H34094   2.278   8.186  11.015  0.3848  2.9590  2.9321
  972MOL0     H34095   2.445   7.972  11.217 -0.6586  0.8959 -0.0049
  972MOL0     H34096   2.320   8.094  11.201  0.0540  3.2331  0.7488
  972MOL0     H34097   2.460   8.141  11.286  1.1114  0.9695 -0.0354
  972MOL0     H34098   2.922   7.890  11.189 -1.9352  2.7756 -1.1473
  972MOL0     H34099   3.068   7.802  11.328  0.0756  1.2989 -0.7548
  972MOL0     H34100   3.088   7.636  11.474 -1.6473  2.4763 -1.0286
  972MOL0     H34101   3.231   7.728  11.522 -0.8612  0.7483  0.9468
  972MOL0     H34102   3.064   7.580  11.724 -0.0374 -2.3050  0.7383
  972MOL0     H34103   3.173   7.487  11.624  1.9069  0.1724 -1.0448
  972MOL0     H34104   3.229   7.725  11.804 -3.1257  0.0387 -3.0470
  972MOL0     H34105   3.357   7.638  11.723  0.0671 -0.8699 -0.9654
  972MOL0     H34106   3.293   7.424  11.835  1.7272  0.8882 -2.3887
  972MOL0     H34107   3.161   7.523  11.917  0.6201  1.1383  2.2839
  972MOL0     H34108   3.363   7.503  12.068 -2.9294  0.1781  1.1601
  972MOL0     H34109   3.467   7.565  11.947  0.8667 -1.6186  3.5118
  972MOL0     H34110   3.382   7.786  11.974  0.7660 -0.3388  0.3331
  972MOL0     H34111   3.417   7.724  12.135  0.1794 -0.8623  0.0188
  972MOL0     H34112   3.186   7.657  12.168 -1.9915  1.3432 -0.2052
  972MOL0     H34113   3.129   7.734  12.013 -2.5504  2.0716  1.4922
  972MOL0     H34114   3.194   7.946  12.071 -1.2806  0.6152 -0.3858
  972MOL0     H34115   3.265   7.896  12.224  0.1006  2.0124  0.3180
  972MOL0     H34116   2.860   7.940  11.678  1.0059 -0.5821  0.1875
  972MOL0     H34117   2.716   8.080  11.516  0.6006  3.1714 -3.2026
  972MOL0     H34118   2.755   8.231  10.907 -0.0270 -0.8823  0.8057
  972MOL0     H34119   2.598   8.306  10.751 -0.8055 -1.0567 -0.1608
  972MOL0     H34120   0.434   8.015  10.613  2.5098  0.4266  0.0936
  972MOL0     H34121   0.218   8.093  10.680  1.5577 -0.8009 -2.6537
  972MOL0     H34122   0.104   8.568  10.828  1.1111 -2.3806 -0.6864
  972MOL0     H34123  -0.065   8.781  10.870 -3.4518  0.4367 -0.7250
  972MOL0     H34124  -0.403   8.830  10.628 -0.7394  2.8643 -0.0935
  972MOL0     H34125  -0.489   8.738  10.763  0.0570 -0.8025 -0.9239
  972MOL0     H34126  -0.414   9.031  10.733 -1.1642  0.0320 -1.3510
  972MOL0     H34127  -0.462   8.969  10.886  3.1718 -2.1128  0.0417
  972MOL0     H34128  -0.688   8.899  10.791  1.1259 -1.3260  1.3135
  972MOL0     H34129  -0.663   9.066  10.760  0.0444 -0.7299 -1.0578
  972MOL0     H34130  -0.754   8.931  10.569  0.0875 -0.5596 -0.9567
  972MOL0     H34131  -0.615   8.840  10.555 -0.0809 -0.2021 -1.0249
  972MOL0     H34132  -0.481   9.172  10.345 -0.5332 -2.2421 -1.6836
  972MOL0     H34133  -0.362   8.578  10.666  0.2109 -0.5855 -1.3542
  972MOL0     H34134  -0.356   8.369  10.604 -0.0228 -2.7766 -0.9438
  972MOL0     H34135  -0.216   8.319  10.525 -2.8074 -0.5897 -0.9676
  972MOL0     H34136  -0.239   8.262  10.688 -0.5350 -1.1800 -1.6464
  973MOL0     O34137   6.802   7.231   2.028  0.1616 -0.2016  0.3888
  973MOL0     C34138   6.760   7.167   2.127 -0.4563 -0.6970  0.4840
  973MOL0     O34139   6.838   7.103   2.217  0.0244  0.7985  0.8646
  973MOL0     C34140   6.967   7.076   2.182 -0.7485  0.2852  0.2490
  973MOL0     C34141   7.015   7.013   2.064  0.4981  0.3182  0.4108
  973MOL0     C34142   7.148   6.997   2.034  0.2627 -0.3735  0.4655
  973MOL0     C34143   7.243   7.036   2.124 -0.0832 -0.1167 -0.5454
  973MOL0     O34144   7.366   7.000   2.087  0.1987 -0.4010  0.5329
  973MOL0     C34145   7.476   7.043   2.158  0.0427 -0.1315 -0.2017
  973MOL0     C34146   7.588   6.982   2.071 -0.0100 -0.1901 -0.1032
  973MOL0     C34147   7.728   6.982   2.142  0.0391 -0.3967 -0.3278
  973MOL0     C34148   7.822   6.956   2.032 -0.2081 -0.3705 -0.0046
  973MOL0     C34149   7.968   6.979   2.061 -0.2205 -0.4668 -0.4991
  973MOL0     C34150   8.024   6.891   2.172  0.7945  0.2794 -0.3237
  973MOL0     C34151   8.175   6.905   2.191 -0.4883  0.3416 -0.5376
  973MOL0     C34152   8.252   6.815   2.096  0.1435  0.0723  0.1775
  973MOL0     N34153   8.394   6.830   2.088  0.2862  0.4472  0.5010
  973MOL0     C34154   8.464   6.897   1.998  0.4006  0.3536 -1.1676
  973MOL0     C34155   8.597   6.874   2.028 -0.0520  0.2243  0.1921
  973MOL0     C34156   8.721   6.925   1.961  0.3297 -0.5148 -0.0268
  973MOL0     C34157   8.796   6.817   1.875 -0.8035 -0.3800 -0.4565
  973MOL0     C34158   8.901   6.878   1.777  0.3565 -0.6659 -1.0766
  973MOL0     C34159   9.032   6.942   1.833 -0.5905 -0.5292 -0.3222
  973MOL0     O34160   8.996   7.068   1.892 -0.3001 -0.6784  0.4161
  973MOL0     C34161   9.102   7.135   1.946 -0.2971  0.0263 -0.3292
  973MOL0     C34162   9.232   7.079   1.971  0.3307 -0.0041 -0.0667
  973MOL0     C34163   9.317   7.157   2.044 -1.1105 -0.0276 -0.5712
  973MOL0     C34164   9.456   7.098   2.077  1.0440  0.4064  0.8234
  973MOL0     C34165   9.300   7.294   2.084  0.2210 -0.3607 -0.5033
  973MOL0     C34166   9.390   7.387   2.149 -0.1058 -0.4985 -0.7648
  973MOL0     O34167   9.367   7.525   2.125  0.1655 -0.0086  0.0071
  973MOL0     C34168   9.435   7.623   2.198  0.3359 -0.2247 -0.6775
  973MOL0     C34169   9.462   7.742   2.125 -0.5127  0.8407 -0.3242
  973MOL0     C34170   9.526   7.857   2.179 -0.4361  0.0990 -0.1097
  973MOL0     C34171   9.583   7.837   2.307  0.1868 -0.5770 -0.3723
  973MOL0     O34172   9.652   7.942   2.358 -0.5081 -0.0089  0.1317
  973MOL0     C34173   9.743   7.926   2.468 -0.3010 -0.2534  0.0240
  973MOL0     C34174   9.794   8.067   2.499 -0.2120  0.1129 -0.1215
  973MOL0     C34175   9.713   8.144   2.608 -0.4572  0.1414 -0.0227
  973MOL0     C34176   9.764   8.288   2.616 -0.5020 -0.7405 -0.9443
  973MOL0     C34177   9.694   8.372   2.725 -0.5151 -0.0491  0.1076
  973MOL0     C34178   9.774   8.501   2.741  0.8625  0.0799  0.7752
  973MOL0     C34179   9.707   8.578   2.860 -0.6459  0.7001 -0.3068
  973MOL0     C34180   9.789   8.711   2.897 -0.1024  0.5353 -0.5534
  973MOL0    Cl34181   9.750   8.762   3.066  0.0680  0.3510 -0.5366
  973MOL0     C34182   9.553   7.720   2.383  0.0995  0.3254  0.1913
  973MOL0     C34183   9.469   7.618   2.334 -0.0135 -0.7726 -0.5915
  973MOL0     O34184   9.468   7.337   2.225 -0.9787  0.2634  0.1755
  973MOL0     C34185   9.178   7.350   2.033  0.1656 -0.1718  0.6071
  973MOL0     C34186   9.082   7.273   1.976  0.3724  0.6296 -0.2181
  973MOL0     N34187   8.598   6.776   2.124 -0.0539 -0.2303  0.0431
  973MOL0     N34188   8.472   6.742   2.158 -0.0446  0.5162  1.4873
  973MOL0     C34189   7.210   7.083   2.255  0.5911 -0.2410 -1.0296
  973MOL0     C34190   7.068   7.105   2.281 -0.2345 -0.3141  0.8548
  973MOL0     C34191   6.609   7.160   2.149 -0.0728 -1.3349 -0.1558
  973MOL0     C34192   6.566   7.109   2.273 -0.0790  0.4686  0.2173
  973MOL0     C34193   6.432   7.112   2.308  0.2474  0.5296  0.7678
  973MOL0     C34194   6.340   7.149   2.212 -0.3511 -0.3239 -0.3759
  973MOL0     O34195   6.205   7.134   2.228  0.2846 -0.0952  0.0581
  973MOL0     C34196   6.148   7.063   2.339 -0.4930  0.2772 -0.6104
  973MOL0     C34197   6.004   7.111   2.344  0.3727 -0.1348  0.4063
  973MOL0     C34198   5.904   7.048   2.245 -0.0729  0.4094 -0.3419
  973MOL0     C34199   5.890   6.893   2.265  0.8777 -0.3010 -0.3422
  973MOL0     C34200   5.855   6.843   2.402  0.6253 -0.3523  0.9883
  973MOL0     C34201   5.818   6.785   2.505 -0.0015  0.4423 -0.3501
  973MOL0     C34202   6.381   7.190   2.084  0.0045 -0.7807  0.7588
  973MOL0     C34203   6.512   7.197   2.051 -0.3366 -0.4154 -0.1043
  973MOL0     C34204   6.541   7.250   1.920 -0.1164  0.2674  1.3906
  973MOL0     H34205   6.948   6.980   1.984 -0.6006  2.1304  0.5280
  973MOL0     H34206   7.180   6.979   1.932  1.6228  0.2374  0.7656
  973MOL0     H34207   7.473   7.002   2.259  0.3186  2.3473  0.8908
  973MOL0     H34208   7.479   7.152   2.168 -1.9484 -0.1870  1.7510
  973MOL0     H34209   7.556   6.882   2.040  0.5396 -0.3352 -0.2113
  973MOL0     H34210   7.586   7.039   1.978 -0.6587 -1.3596 -0.8291
  973MOL0     H34211   7.752   7.082   2.179  0.4233 -1.3837  2.3148
  973MOL0     H34212   7.740   6.911   2.224  0.0793  0.7328  0.6620
  973MOL0     H34213   7.807   6.853   1.999 -0.7540 -0.6448  1.0521
  973MOL0     H34214   7.786   7.014   1.947  1.5690 -0.0832 -0.5991
  973MOL0     H34215   7.983   7.084   2.088 -0.4498 -0.0724 -1.7950
  973MOL0     H34216   8.032   6.954   1.975  0.6913 -0.8153  0.2613
  973MOL0     H34217   7.973   6.907   2.268  1.1014  0.3076 -0.1635
  973MOL0     H34218   7.988   6.790   2.147  1.4742 -0.1622  0.4092
  973MOL0     H34219   8.206   6.881   2.293 -0.5252  1.7388 -0.1745
  973MOL0     H34220   8.209   7.009   2.180  1.5081 -0.2517 -0.2915
  973MOL0     H34221   8.212   6.714   2.108 -2.2475  0.7747 -1.2146
  973MOL0     H34222   8.214   6.845   1.998 -2.9561  1.0925  1.5376
  973MOL0     H34223   8.431   6.975   1.930  0.5594  1.4904  0.0350
  973MOL0     H34224   8.786   6.964   2.041  0.2039 -1.0098  0.3183
  973MOL0     H34225   8.710   7.015   1.900 -1.0274 -1.4148 -1.1571
  973MOL0     H34226   8.852   6.754   1.945  0.2039 -1.0900 -1.8547
  973MOL0     H34227   8.719   6.753   1.831 -1.5213 -0.3149  0.6417
  973MOL0     H34228   8.926   6.795   1.710  4.1706  0.7737 -1.6753
  973MOL0     H34229   8.853   6.949   1.710 -2.7983 -1.7198 -0.1397
  973MOL0     H34230   9.066   6.874   1.911  2.0560 -0.1082 -0.9957
  973MOL0     H34231   9.117   6.948   1.764 -0.6218  0.7651 -0.2843
  973MOL0     H34232   9.264   6.980   1.941  0.7608 -0.0101  0.4022
  973MOL0     H34233   9.481   7.010   2.016  1.3203  1.2284 -0.2694
  973MOL0     H34234   9.451   7.080   2.185 -0.6751  2.3789  1.1292
  973MOL0     H34235   9.529   7.171   2.042  1.2348 -0.8408 -1.5938
  973MOL0     H34236   9.426   7.754   2.023 -1.9138 -0.6761 -0.0546
  973MOL0     H34237   9.540   7.942   2.113 -0.2188  0.7303  0.7431
  973MOL0     H34238   9.692   7.887   2.556  0.2251  2.7747  1.8112
  973MOL0     H34239   9.825   7.864   2.428  0.3255  1.2577 -1.1327
  973MOL0     H34240   9.899   8.063   2.530 -0.0896 -1.6652 -0.6693
  973MOL0     H34241   9.807   8.127   2.409  1.8803 -0.5009 -0.2941
  973MOL0     H34242   9.733   8.103   2.708  5.1420  2.9624  0.3674
  973MOL0     H34243   9.608   8.155   2.578  0.2571  2.7729 -1.9183
  973MOL0     H34244   9.746   8.336   2.519 -2.1364 -0.1286 -0.3649
  973MOL0     H34245   9.871   8.285   2.637 -1.0148 -2.4770  1.9026
  973MOL0     H34246   9.594   8.395   2.689  0.0729  1.0351 -0.9308
  973MOL0     H34247   9.688   8.320   2.821  2.7190 -2.4186 -0.8107
  973MOL0     H34248   9.797   8.555   2.649  2.3073 -1.0820  0.4326
  973MOL0     H34249   9.873   8.468   2.773  1.3617 -1.9567 -2.4739
  973MOL0     H34250   9.711   8.504   2.941  0.7648 -0.8039 -1.6743
  973MOL0     H34251   9.601   8.599   2.843 -1.1469 -1.7058 -0.4870
  973MOL0     H34252   9.766   8.780   2.815  1.8224 -0.2346 -1.8131
  973MOL0     H34253   9.896   8.691   2.895 -0.1845 -0.3334  1.2951
  973MOL0     H34254   9.589   7.700   2.484  0.3380  0.5557  0.1535
  973MOL0     H34255   9.439   7.533   2.395  0.5976 -1.2007 -0.8836
  973MOL0     H34256   9.147   7.453   2.052 -0.2819 -0.5273  1.9273
  973MOL0     H34257   8.986   7.317   1.952 -1.3736 -1.3289  2.5609
  973MOL0     H34258   7.273   7.104   2.341 -1.2681  3.8770 -0.4363
  973MOL0     H34259   7.035   7.159   2.369  0.0188  1.4887 -0.1080
  973MOL0     H34260   6.636   7.079   2.351 -2.6286  0.4003  2.6406
  973MOL0     H34261   6.401   7.087   2.409  1.6713 -4.2310  0.2891
  973MOL0     H34262   6.153   6.954   2.334  1.3364  0.3282 -0.6844
  973MOL0     H34263   6.189   7.096   2.435  0.9141 -1.8861 -0.3937
  973MOL0     H34264   6.004   7.221   2.344  0.5552 -0.1308  0.8230
  973MOL0     H34265   5.968   7.084   2.444 -1.3778 -1.3913 -0.5103
  973MOL0     H34266   5.806   7.096   2.257 -0.8374 -1.2879  0.5854
  973MOL0     H34267   5.935   7.072   2.143  0.2141 -0.1408 -0.3863
  973MOL0     H34268   5.979   6.831   2.251 -0.5570 -3.3330  2.4825
  973MOL0     H34269   5.810   6.865   2.196 -0.5672  3.1405 -0.2572
  973MOL0     H34270   5.784   6.736   2.594  0.8036  1.1804  0.3847
  973MOL0     H34271   6.301   7.215   2.015 -1.7528 -1.3150  2.5040
  973MOL0     H34272   6.582   7.350   1.935  2.0548 -0.6868  2.2470
  973MOL0     H34273   6.608   7.181   1.867 -0.9307 -1.2933  2.3163
  973MOL0     H34274   6.444   7.251   1.870 -0.5529  1.5068  2.2136
  974MOL0     O34275   8.392   4.171   4.825  0.0326 -0.4797  0.1472
  974MOL0     C34276   8.293   4.133   4.766 -0.4340  0.2367  0.5375
  974MOL0     O34277   8.215   4.217   4.689  0.7158  0.5471  0.1426
  974MOL0     C34278   8.218   4.352   4.706 -0.3704 -0.7942  0.3702
  974MOL0     C34279   8.105   4.414   4.761 -0.0345  0.4749 -0.3172
  974MOL0     C34280   8.120   4.556   4.784  0.1185  0.4188 -0.5619
  974MOL0     C34281   8.233   4.631   4.753  0.1850 -0.1580  0.5959
  974MOL0     O34282   8.242   4.764   4.794 -0.3480 -0.1018 -0.2513
  974MOL0     C34283   8.264   4.856   4.688  0.5941  0.6255 -0.2506
  974MOL0     C34284   8.342   4.964   4.759 -0.2927 -0.7743 -0.2911
  974MOL0     C34285   8.269   5.050   4.858  0.2262  0.1139 -0.1810
  974MOL0     C34286   8.133   5.098   4.805  0.6909 -0.3896  0.5163
  974MOL0     C34287   8.064   5.196   4.905 -0.2719 -0.4642  0.3263
  974MOL0     C34288   7.924   5.253   4.867 -0.6978  0.2730 -0.6774
  974MOL0     C34289   7.821   5.148   4.890  0.4913  0.8059  0.1352
  974MOL0     C34290   7.681   5.189   4.827  0.3449  0.7622  0.0941
  974MOL0     N34291   7.685   5.234   4.689 -0.7031  0.0978 -0.8093
  974MOL0     C34292   7.727   5.163   4.582 -0.2214 -0.1496 -0.8216
  974MOL0     C34293   7.732   5.253   4.478 -0.1613  0.0279 -0.2604
  974MOL0     C34294   7.753   5.211   4.331  0.4324 -1.1573  0.4222
  974MOL0     C34295   7.901   5.199   4.296  0.4364  0.4365  0.3570
  974MOL0     C34296   7.917   5.129   4.159  0.2112 -0.8527  0.4642
  974MOL0     C34297   7.901   4.971   4.174 -0.4999  0.1752 -0.2899
  974MOL0     O34298   7.982   4.909   4.080  0.0510 -0.3048 -0.1622
  974MOL0     C34299   7.967   4.774   4.060 -0.1454  0.2451 -0.0677
  974MOL0     C34300   8.028   4.722   3.940  0.2220  0.3567 -1.1587
  974MOL0     C34301   8.029   4.584   3.909  0.2405  0.1815 -0.9910
  974MOL0     C34302   8.083   4.539   3.787 -0.6917 -0.6406  0.9331
  974MOL0     C34303   7.971   4.492   4.004  0.0244  1.0181  0.4206
  974MOL0     C34304   7.966   4.342   3.988 -0.1993  0.1843  0.1879
  974MOL0     O34305   8.035   4.287   3.886 -0.8981 -0.0257  0.1286
  974MOL0     C34306   8.049   4.148   3.880 -0.3700 -0.1443 -0.6587
  974MOL0     C34307   7.984   4.088   3.777  1.1484 -0.3754  0.0542
  974MOL0     C34308   7.993   3.952   3.760  0.1967 -0.4678  0.0298
  974MOL0     C34309   8.095   3.884   3.836  0.3813 -0.3085 -0.1269
  974MOL0     O34310   8.108   3.752   3.820  0.7666 -0.2023  0.3128
  974MOL0     C34311   8.238   3.700   3.788  0.6398  0.4703 -0.1893
  974MOL0     C34312   8.225   3.577   3.686 -0.6988  0.1155  0.8310
  974MOL0     C34313   8.254   3.616   3.541 -0.0832 -0.2791 -0.1045
  974MOL0     C34314   8.179   3.742   3.486 -1.2057  0.7464 -0.6164
  974MOL0     C34315   8.219   3.768   3.347 -0.1459 -1.0507 -0.5708
  974MOL0     C34316   8.168   3.903   3.305 -0.1049 -0.1793  0.6855
  974MOL0     C34317   8.016   3.916   3.317  0.0402 -0.6432 -0.0100
  974MOL0     C34318   7.937   3.851   3.202 -0.1340 -0.0276 -0.6704
  974MOL0    Cl34319   7.895   3.679   3.244 -0.6679  0.3374 -0.1670
  974MOL0     C34320   8.186   3.959   3.912 -0.0801  1.0638 -0.8079
  974MOL0     C34321   8.155   4.086   3.948 -0.3381 -0.4984 -0.3461
  974MOL0     O34322   7.914   4.275   4.080 -0.0689  0.0745  0.1192
  974MOL0     C34323   7.930   4.545   4.132 -0.4753  0.6028 -0.3598
  974MOL0     C34324   7.924   4.683   4.155  0.5019  0.1598  0.2616
  974MOL0     N34325   7.687   5.376   4.520 -0.7575 -0.2435 -0.6816
  974MOL0     N34326   7.658   5.367   4.647 -0.4530  0.2822 -0.1768
  974MOL0     C34327   8.339   4.558   4.697  0.2233  0.2082  0.3023
  974MOL0     C34328   8.330   4.418   4.672  0.4417  0.0338  0.0797
  974MOL0     C34329   8.256   3.988   4.753 -0.8380 -0.1804  0.3176
  974MOL0     C34330   8.165   3.965   4.651 -0.0245  0.2149 -1.1987
  974MOL0     C34331   8.116   3.837   4.627 -0.0600 -0.2472  0.0535
  974MOL0     C34332   8.172   3.722   4.696 -0.6348  0.1060  0.1934
  974MOL0     O34333   8.126   3.601   4.669  0.0746  0.3455 -0.7040
  974MOL0     C34334   7.984   3.576   4.698  0.3628 -1.0357 -0.2777
  974MOL0     C34335   7.966   3.485   4.821 -0.1017 -0.5840 -0.7448
  974MOL0     C34336   7.992   3.547   4.958 -0.3706  0.5650  0.8423
  974MOL0     C34337   7.879   3.639   5.003  0.4193 -0.5285 -0.2175
  974MOL0     C34338   7.859   3.655   5.152 -0.4452  0.2428  0.6882
  974MOL0     C34339   7.825   3.684   5.266  0.8821  0.4008 -0.8002
  974MOL0     C34340   8.266   3.754   4.804  0.0187 -0.6410  0.1192
  974MOL0     C34341   8.302   3.887   4.837  0.1715  0.8372  0.2882
  974MOL0     C34342   8.407   3.905   4.947 -0.0485 -0.3166 -0.5113
  974MOL0     H34343   8.024   4.352   4.797  1.2125 -1.7631 -1.2070
  974MOL0     H34344   8.027   4.594   4.826 -0.6039 -0.9412 -0.8614
  974MOL0     H34345   8.165   4.879   4.648  1.0087  1.3511 -0.8691
  974MOL0     H34346   8.329   4.817   4.610  0.3097 -0.7678  0.1899
  974MOL0     H34347   8.430   4.927   4.814  0.6383  0.0470 -1.1746
  974MOL0     H34348   8.366   5.033   4.677  0.4061 -1.6292 -0.8291
  974MOL0     H34349   8.263   5.005   4.957 -0.6085  0.4120 -0.0839
  974MOL0     H34350   8.327   5.142   4.863  2.3657 -1.0257 -1.8990
  974MOL0     H34351   8.146   5.153   4.711  1.4554  1.4688  1.6622
  974MOL0     H34352   8.069   5.012   4.785 -1.4390  0.9563  1.1805
  974MOL0     H34353   8.143   5.269   4.925 -0.7526  0.2962 -0.5026
  974MOL0     H34354   8.056   5.147   5.003  0.7986 -0.1786  0.5680
  974MOL0     H34355   7.905   5.325   4.947  1.3221  1.1381 -0.9153
  974MOL0     H34356   7.927   5.292   4.765  2.0075  1.1368 -0.3375
  974MOL0     H34357   7.807   5.118   4.995 -1.5933 -2.5110 -0.9476
  974MOL0     H34358   7.848   5.058   4.835 -3.4569 -0.5523  0.1380
  974MOL0     H34359   7.611   5.105   4.823 -0.4012  1.2593  2.0541
  974MOL0     H34360   7.631   5.266   4.886  0.7945  1.7358 -0.7639
  974MOL0     H34361   7.748   5.057   4.588 -1.3563 -0.3233  0.5892
  974MOL0     H34362   7.696   5.283   4.272  0.0447 -0.9112  1.0828
  974MOL0     H34363   7.696   5.121   4.308 -1.0403 -0.0085 -0.6429
  974MOL0     H34364   7.968   5.286   4.299  2.4570 -1.0476  3.5034
  974MOL0     H34365   7.947   5.141   4.377 -0.7229 -1.7973 -0.5144
  974MOL0     H34366   7.847   5.170   4.085 -1.1416  0.6184  2.4500
  974MOL0     H34367   8.018   5.145   4.122  1.2832  1.5818  3.9605
  974MOL0     H34368   7.931   4.944   4.275 -0.7267 -0.3346 -0.3548
  974MOL0     H34369   7.797   4.939   4.168 -0.3990 -0.7128  1.9442
  974MOL0     H34370   8.061   4.794   3.866  0.9368 -1.2417 -2.4559
  974MOL0     H34371   8.097   4.619   3.714  0.6236 -0.9829  0.7881
  974MOL0     H34372   8.024   4.462   3.738 -3.2711  1.7371  0.0395
  974MOL0     H34373   8.183   4.496   3.802  0.9000  2.0127 -1.0069
  974MOL0     H34374   7.908   4.141   3.720 -1.2803 -0.2723  3.1562
  974MOL0     H34375   7.913   3.907   3.702 -0.6866  2.4656 -1.2408
  974MOL0     H34376   8.294   3.779   3.737 -1.9015  1.9268 -0.9000
  974MOL0     H34377   8.298   3.656   3.869 -2.9656 -2.5845  1.0933
  974MOL0     H34378   8.298   3.503   3.718  1.3121  0.7230 -1.9970
  974MOL0     H34379   8.126   3.532   3.689 -1.5939  1.9866  1.4473
  974MOL0     H34380   8.254   3.530   3.473 -0.0599  0.9274 -1.6811
  974MOL0     H34381   8.361   3.638   3.542 -0.5177  2.1750  0.6795
  974MOL0     H34382   8.204   3.833   3.542  0.8618  0.1474 -0.4688
  974MOL0     H34383   8.077   3.703   3.482  0.2406 -3.4495 -1.1648
  974MOL0     H34384   8.328   3.763   3.350 -0.1597 -1.2115  2.2304
  974MOL0     H34385   8.183   3.688   3.282 -1.2796  1.1506 -2.8246
  974MOL0     H34386   8.185   3.923   3.199  0.5352  1.4858  1.0762
  974MOL0     H34387   8.223   3.979   3.361  3.4548 -2.2110  0.2413
  974MOL0     H34388   7.989   4.023   3.319  0.8610 -0.4390  0.3971
  974MOL0     H34389   7.995   3.884   3.419  3.6845 -0.4225  0.9420
  974MOL0     H34390   7.994   3.848   3.108  0.5150  0.6311 -0.3121
  974MOL0     H34391   7.843   3.902   3.181 -0.1412  0.3942  0.3327
  974MOL0     H34392   8.274   3.905   3.947 -0.6478  1.8614  2.0810
  974MOL0     H34393   8.224   4.142   4.010 -1.1021 -0.2786  0.3229
  974MOL0     H34394   7.890   4.484   4.212 -1.9562 -0.3250 -1.7350
  974MOL0     H34395   7.882   4.715   4.250  1.6193 -1.2659  1.2776
  974MOL0     H34396   8.432   4.601   4.663 -0.1947  1.9292  1.2459
  974MOL0     H34397   8.411   4.359   4.630 -0.8174 -2.4130  0.9170
  974MOL0     H34398   8.132   4.046   4.587 -0.3717  4.0043  3.2204
  974MOL0     H34399   8.047   3.831   4.543 -0.6841  1.3890  0.4033
  974MOL0     H34400   7.927   3.669   4.711 -0.2330 -1.1718 -1.6916
  974MOL0     H34401   7.943   3.539   4.603 -0.0254  1.2275 -1.0537
  974MOL0     H34402   8.035   3.402   4.805  1.1550  0.3098 -0.0961
  974MOL0     H34403   7.863   3.449   4.821 -0.1485 -0.4467 -0.4745
  974MOL0     H34404   8.011   3.470   5.033 -0.1357  0.0811  0.2928
  974MOL0     H34405   8.090   3.594   4.953  0.7411 -1.7222 -1.0151
  974MOL0     H34406   7.785   3.612   4.955 -0.3187  1.9478 -0.3276
  974MOL0     H34407   7.902   3.739   4.963  0.2189 -0.3042  0.2173
  974MOL0     H34408   7.774   3.699   5.360  2.2075  1.7164 -0.2527
  974MOL0     H34409   8.303   3.670   4.861 -0.3918 -3.1545 -3.0224
  974MOL0     H34410   8.411   3.821   5.017  4.2307 -1.0713 -1.4213
  974MOL0     H34411   8.508   3.925   4.912  0.7368  1.2036  2.2933
  974MOL0     H34412   8.378   3.988   5.012  0.1156 -1.1574  0.6676
  975MOL0     O34413   8.450   7.969   8.896  0.7456 -0.4904  0.0357
  975MOL0     C34414   8.413   8.073   8.950 -0.0218  0.0066 -0.4424
  975MOL0     O34415   8.488   8.144   9.038  0.4810 -0.3234 -0.1427
  975MOL0     C34416   8.610   8.099   9.072 -0.0969  0.7041  0.2121
  975MOL0     C34417   8.722   8.137   8.998  0.2427 -0.2970 -0.1082
  975MOL0     C34418   8.846   8.087   9.037  0.5025  0.6434  0.8744
  975MOL0     C34419   8.857   8.011   9.151  0.0093 -0.7037  0.7757
  975MOL0     O34420   8.985   7.980   9.205 -0.2810  1.1287 -0.9707
  975MOL0     C34421   9.095   8.076   9.210  0.3363  0.4776  1.3727
  975MOL0     C34422   9.230   8.023   9.254  0.8638  0.0026 -0.6858
  975MOL0     C34423   9.358   8.099   9.207  0.8377 -0.6826 -1.0967
  975MOL0     C34424   9.499   8.049   9.261  0.9881 -0.7678 -0.2309
  975MOL0     C34425   9.616   8.135   9.197  1.0592  0.2391  1.3559
  975MOL0     C34426   9.752   8.086   9.230  0.3172  0.2478  0.0285
  975MOL0     C34427   9.853   8.151   9.124  0.0728  0.6000 -0.5574
  975MOL0     C34428  10.004   8.126   9.158  0.5603  0.3486 -0.2263
  975MOL0     N34429  10.097   8.183   9.069  0.2483  0.2175 -0.3381
  975MOL0     C34430  10.138   8.125   8.953  0.5335  0.6293  0.8528
  975MOL0     C34431  10.231   8.214   8.914 -0.1268  0.4505  0.4444
  975MOL0     C34432  10.302   8.205   8.784 -0.2213  0.5115 -0.6270
  975MOL0     C34433  10.411   8.095   8.786 -0.2510  0.5939 -0.0499
  975MOL0     C34434  10.465   8.062   8.644  0.2915 -1.3802  0.4809
  975MOL0     C34435  10.575   7.950   8.649 -0.3152  0.5284 -0.9440
  975MOL0     O34436  10.629   7.894   8.526 -0.9394 -0.1513  0.2157
  975MOL0     C34437  10.740   7.959   8.475  0.0057  0.8811  0.7955
  975MOL0     C34438  10.804   7.898   8.364  0.6910 -0.0507  0.3286
  975MOL0     C34439  10.923   7.951   8.305  0.6717 -0.4728 -0.3076
  975MOL0     C34440  10.978   7.876   8.186 -0.1379  0.2887 -0.1672
  975MOL0     C34441  10.984   8.066   8.367 -0.8209 -0.2592 -1.1033
  975MOL0     C34442  11.094   8.143   8.304  0.0537 -0.0195  0.0513
  975MOL0     O34443  11.116   8.270   8.358  0.1499  0.6699 -0.4774
  975MOL0     C34444  11.239   8.322   8.324  0.3274  0.4324  0.0092
  975MOL0     C34445  11.340   8.335   8.424 -0.2845  0.0803 -0.3226
  975MOL0     C34446  11.462   8.394   8.391  0.3347  0.4699 -0.8935
  975MOL0     C34447  11.487   8.442   8.263  0.5601 -0.2792  0.4276
  975MOL0     O34448  11.614   8.488   8.218 -0.2996  0.2383 -0.2351
  975MOL0     C34449  11.699   8.533   8.323 -0.6099 -0.4236  0.3509
  975MOL0     C34450  11.818   8.621   8.274 -0.0880  0.0781 -0.1407
  975MOL0     C34451  11.764   8.737   8.191 -0.4690 -0.3613  0.1941
  975MOL0     C34452  11.878   8.827   8.134  0.0207  0.8913  0.5137
  975MOL0     C34453  11.828   8.954   8.072  0.1767 -0.4824  0.4230
  975MOL0     C34454  11.942   9.042   8.014  0.1407 -0.0739  0.1690
  975MOL0     C34455  11.906   9.182   8.032  0.4608  0.2784  0.4813
  975MOL0     C34456  12.020   9.269   7.983 -0.2788  0.0188 -0.1531
  975MOL0    Cl34457  11.955   9.441   8.014 -0.4054 -0.1222 -0.1221
  975MOL0     C34458  11.391   8.417   8.167 -0.3632 -0.1699  0.2081
  975MOL0     C34459  11.266   8.370   8.196 -0.2613 -1.0403 -0.7245
  975MOL0     O34460  11.146   8.094   8.206 -0.7571  0.1248  1.2315
  975MOL0     C34461  10.926   8.116   8.484  0.1996 -0.0827 -0.0406
  975MOL0     C34462  10.798   8.071   8.533  0.0750 -0.5388 -1.1423
  975MOL0     N34463  10.245   8.320   9.007 -0.4125 -0.2523 -0.4631
  975MOL0     N34464  10.168   8.302   9.099  1.3613 -0.4588 -0.2422
  975MOL0     C34465   8.744   7.955   9.215 -0.1117 -0.2648 -0.5751
  975MOL0     C34466   8.615   8.002   9.179 -0.1468 -0.3446  0.6941
  975MOL0     C34467   8.282   8.129   8.910 -0.3990  0.0879  1.0683
  975MOL0     C34468   8.207   8.059   8.811  1.0170  0.3485 -0.7938
  975MOL0     C34469   8.077   8.102   8.770 -0.0484  0.2286  0.4417
  975MOL0     C34470   8.018   8.225   8.815 -0.5555 -0.3068 -0.9959
  975MOL0     O34471   7.897   8.253   8.765 -0.2821  0.1226  0.4163
  975MOL0     C34472   7.833   8.386   8.785  0.1811  0.3073  0.9893
  975MOL0     C34473   7.717   8.397   8.682  0.8550  0.1706  0.3759
  975MOL0     C34474   7.598   8.313   8.731  0.7286  1.0603 -0.0874
  975MOL0     C34475   7.612   8.162   8.714 -0.1365  0.1309  1.0681
  975MOL0     C34476   7.488   8.092   8.750  0.0749  0.7075 -0.3372
  975MOL0     C34477   7.387   8.034   8.785  0.2295  0.3434  0.2017
  975MOL0     C34478   8.092   8.291   8.912 -0.0148  0.4143 -0.3821
  975MOL0     C34479   8.222   8.252   8.950  0.3779 -0.0308 -0.3273
  975MOL0     C34480   8.289   8.351   9.031  0.3005  0.4926 -0.9731
  975MOL0     H34481   8.703   8.209   8.919 -1.7362  1.5955  1.9898
  975MOL0     H34482   8.927   8.136   8.983  0.9333  0.6285  1.5004
  975MOL0     H34483   9.064   8.162   9.270 -0.2425  2.3449 -1.4156
  975MOL0     H34484   9.120   8.118   9.112  0.9697  3.6225  2.7563
  975MOL0     H34485   9.229   8.025   9.363  0.2168 -0.4569 -0.6751
  975MOL0     H34486   9.257   7.926   9.211  3.1035  1.4070 -2.6902
  975MOL0     H34487   9.372   8.114   9.100  2.4357 -0.5920 -0.8924
  975MOL0     H34488   9.351   8.201   9.247 -1.6387 -2.1511  2.8296
  975MOL0     H34489   9.499   8.039   9.370  1.4366  1.8619  0.0903
  975MOL0     H34490   9.511   7.952   9.213  1.2126 -0.4103 -0.9149
  975MOL0     H34491   9.612   8.240   9.230  0.2152 -0.5897  4.2209
  975MOL0     H34492   9.607   8.127   9.088  2.5655 -1.2424  1.3079
  975MOL0     H34493   9.776   8.117   9.332  0.8711  0.7368 -0.2479
  975MOL0     H34494   9.766   7.977   9.225  1.2376  0.3715 -0.3231
  975MOL0     H34495   9.834   8.258   9.111 -1.6307  0.5608  1.2051
  975MOL0     H34496   9.834   8.107   9.025  2.1397  2.7114 -2.0054
  975MOL0     H34497  10.022   8.169   9.257 -1.7071  0.9498 -0.0175
  975MOL0     H34498  10.013   8.017   9.163 -1.9396 -0.0496 -2.5313
  975MOL0     H34499  10.102   8.042   8.894  1.6516  1.9076 -1.7781
  975MOL0     H34500  10.358   8.296   8.761 -0.8529  0.8087 -1.0127
  975MOL0     H34501  10.222   8.179   8.714  1.7329  0.6825 -3.0508
  975MOL0     H34502  10.490   8.108   8.861  0.5117  1.3488 -0.9570
  975MOL0     H34503  10.354   8.006   8.815 -1.6273  1.0119 -1.3175
  975MOL0     H34504  10.384   8.031   8.576 -0.2825 -0.1736  0.5908
  975MOL0     H34505  10.510   8.152   8.601 -1.1518 -0.6122  0.4883
  975MOL0     H34506  10.660   7.988   8.706 -0.1743  1.5799 -1.8347
  975MOL0     H34507  10.523   7.869   8.701 -1.6000  1.2475 -1.0590
  975MOL0     H34508  10.745   7.813   8.332 -3.6076  2.8817 -0.4874
  975MOL0     H34509  10.919   7.788   8.158 -0.8315  0.0844  1.7603
  975MOL0     H34510  11.081   7.850   8.209  0.1201  2.2546  1.0870
  975MOL0     H34511  10.972   7.940   8.097  0.1079  0.4884 -0.0394
  975MOL0     H34512  11.312   8.290   8.518  0.4189  1.8304  0.7671
  975MOL0     H34513  11.544   8.401   8.462  2.1122 -0.0021 -2.8351
  975MOL0     H34514  11.649   8.595   8.398  1.9066  1.1097  0.8775
  975MOL0     H34515  11.744   8.445   8.369  0.3868 -1.1620 -1.9360
  975MOL0     H34516  11.874   8.642   8.366  2.1318 -0.7193 -1.2229
  975MOL0     H34517  11.895   8.562   8.223 -1.0299 -0.6839 -0.7316
  975MOL0     H34518  11.692   8.798   8.246 -1.4127 -1.4137  0.1732
  975MOL0     H34519  11.708   8.699   8.105  0.9560 -0.8939 -0.5354
  975MOL0     H34520  11.940   8.767   8.066  0.4406  2.7708 -0.8488
  975MOL0     H34521  11.942   8.851   8.219  1.2545  4.1292 -1.1455
  975MOL0     H34522  11.758   8.945   7.989  3.0982  2.3310 -2.6850
  975MOL0     H34523  11.779   9.015   8.149  2.0445  1.1362  0.4401
  975MOL0     H34524  11.962   9.016   7.910 -1.3877  2.2492 -0.7726
  975MOL0     H34525  12.034   9.023   8.071 -0.8374 -0.5900  1.6269
  975MOL0     H34526  11.875   9.202   8.136  2.5969 -2.2963  1.7390
  975MOL0     H34527  11.815   9.210   7.980  0.4835  0.7924  0.7094
  975MOL0     H34528  12.053   9.245   7.882  2.4488 -3.0689  1.3228
  975MOL0     H34529  12.113   9.261   8.040  1.6308 -1.8629 -3.2232
  975MOL0     H34530  11.410   8.455   8.067 -1.5385 -1.1687 -0.4162
  975MOL0     H34531  11.193   8.365   8.115  2.0190  1.4672 -3.1436
  975MOL0     H34532  10.963   8.200   8.542 -1.8610 -1.3984  3.4942
  975MOL0     H34533  10.760   8.132   8.614  2.4094 -1.3388  0.6721
  975MOL0     H34534   8.750   7.876   9.290 -1.7491 -0.1189 -0.2388
  975MOL0     H34535   8.528   7.963   9.232 -0.1777 -1.6113 -0.2423
  975MOL0     H34536   8.237   7.972   8.753 -1.1262 -1.7737  1.0150
  975MOL0     H34537   8.036   8.051   8.683 -1.0707  2.0909 -0.2286
  975MOL0     H34538   7.799   8.400   8.888  1.9786 -1.3418  1.8753
  975MOL0     H34539   7.905   8.462   8.757  1.2241 -1.6320 -2.1853
  975MOL0     H34540   7.759   8.383   8.582  0.4115  2.2707 -0.1479
  975MOL0     H34541   7.681   8.500   8.684 -0.6357 -0.3276  0.9070
  975MOL0     H34542   7.579   8.347   8.834 -1.0630  2.8819 -0.9656
  975MOL0     H34543   7.509   8.326   8.670 -0.2766 -3.1756  0.1875
  975MOL0     H34544   7.706   8.123   8.754  1.3880  2.4282 -0.0622
  975MOL0     H34545   7.631   8.142   8.608  4.0525  0.0898  1.6885
  975MOL0     H34546   7.295   7.983   8.800  0.2824 -0.6722 -2.3629
  975MOL0     H34547   8.055   8.383   8.957 -0.7772  0.3233 -0.8122
  975MOL0     H34548   8.234   8.444   9.050 -0.8061 -0.2447 -0.4480
  975MOL0     H34549   8.292   8.304   9.130  2.1733 -2.2594 -2.2127
  975MOL0     H34550   8.388   8.367   8.989  1.5130 -0.2927  1.3974
  976MOL0     O34551   8.259   1.805   2.001 -0.8179 -0.1362  0.3323
  976MOL0     C34552   8.182   1.891   1.966 -0.5069 -0.0296  0.1490
  976MOL0     O34553   8.218   2.012   1.911 -0.7153  0.3524 -0.3518
  976MOL0     C34554   8.340   2.056   1.934 -0.0355  0.0152 -0.0325
  976MOL0     C34555   8.449   2.027   1.853  0.1315 -0.4061  0.6151
  976MOL0     C34556   8.579   2.073   1.878 -0.8233 -0.0920 -0.3697
  976MOL0     C34557   8.599   2.171   1.979  0.0987  0.1388  0.4159
  976MOL0     O34558   8.723   2.222   1.976  0.6645  0.8193 -0.1137
  976MOL0     C34559   8.778   2.313   2.075  0.2790  0.9170  0.0249
  976MOL0     C34560   8.931   2.299   2.073 -0.1683 -0.4462  0.2386
  976MOL0     C34561   9.000   2.395   2.161  0.4637 -0.5073  0.2931
  976MOL0     C34562   9.142   2.402   2.113  0.3844  0.5483  0.0422
  976MOL0     C34563   9.231   2.487   2.207  0.7021  0.3066 -0.0435
  976MOL0     C34564   9.361   2.524   2.132  0.0704  0.0332 -0.1667
  976MOL0     C34565   9.341   2.599   2.004  0.6221 -0.5373 -0.0913
  976MOL0     C34566   9.450   2.705   1.987  0.4119  1.0315 -0.3407
  976MOL0     N34567   9.586   2.650   2.002  0.2657 -0.7959  0.3172
  976MOL0     C34568   9.634   2.528   1.964  0.5392 -0.4709 -0.8733
  976MOL0     C34569   9.765   2.528   1.978 -0.3477 -0.6285 -0.2996
  976MOL0     C34570   9.853   2.412   1.934  0.9444 -0.4526 -0.0736
  976MOL0     C34571   9.932   2.388   2.066  0.3479 -0.6979 -0.1412
  976MOL0     C34572  10.041   2.296   2.044  0.3363  0.3945 -0.0594
  976MOL0     C34573  10.150   2.346   1.950 -0.3872 -0.3981 -0.4996
  976MOL0     O34574  10.278   2.292   1.974 -0.0180 -0.3062  0.0011
  976MOL0     C34575  10.359   2.320   2.089 -0.1210  0.7207 -0.3058
  976MOL0     C34576  10.318   2.411   2.186 -0.0388 -0.3148 -0.0185
  976MOL0     C34577  10.404   2.448   2.297  0.2319  0.0934 -0.2344
  976MOL0     C34578  10.339   2.547   2.391 -0.2819 -0.2242 -0.0794
  976MOL0     C34579  10.538   2.411   2.300 -0.6009 -0.2557 -0.0350
  976MOL0     C34580  10.631   2.441   2.405  0.0613 -0.7736 -0.5774
  976MOL0     O34581  10.750   2.378   2.389 -0.0487 -0.8143  0.1910
  976MOL0     C34582  10.855   2.399   2.474 -0.0615  0.2849  0.7073
  976MOL0     C34583  10.828   2.389   2.609 -0.0132 -0.1929  0.3111
  976MOL0     C34584  10.932   2.393   2.700 -1.1636 -1.0384  0.1962
  976MOL0     C34585  11.065   2.399   2.657  0.2933 -0.3241 -0.1673
  976MOL0     O34586  11.155   2.406   2.756 -1.0345  0.5790 -0.0074
  976MOL0     C34587  11.285   2.474   2.737 -0.1679 -0.2098  0.2857
  976MOL0     C34588  11.367   2.481   2.866 -0.3208  0.9684 -0.4357
  976MOL0     C34589  11.483   2.586   2.860 -0.9732 -0.0708  0.4268
  976MOL0     C34590  11.584   2.554   2.749  0.5075 -0.1398  0.1656
  976MOL0     C34591  11.712   2.630   2.763  0.6627 -0.3583 -0.0264
  976MOL0     C34592  11.826   2.556   2.687 -0.5749 -0.1169  0.1708
  976MOL0     C34593  11.960   2.627   2.722  0.6730  0.1049 -0.0063
  976MOL0     C34594  12.078   2.555   2.652 -0.6010 -0.1717  0.3198
  976MOL0    Cl34595  12.236   2.605   2.724  0.0110  0.0969 -0.0092
  976MOL0     C34596  11.085   2.399   2.515 -0.0980  0.1462 -0.6004
  976MOL0     C34597  10.981   2.393   2.428 -0.2548 -0.1139  0.3324
  976MOL0     O34598  10.601   2.525   2.492  0.5314  1.0717 -0.9634
  976MOL0     C34599  10.573   2.322   2.200 -0.4338  0.5754 -0.4121
  976MOL0     C34600  10.491   2.275   2.100 -0.0580  0.0342  0.0524
  976MOL0     N34601   9.796   2.654   2.034 -0.6712 -0.3090  0.3616
  976MOL0     N34602   9.691   2.718   2.055 -0.1482 -1.1344  0.4976
  976MOL0     C34603   8.488   2.208   2.062  0.5119  0.1376  0.6299
  976MOL0     C34604   8.372   2.141   2.044 -0.5655 -0.4148 -0.1509
  976MOL0     C34605   8.040   1.849   1.944 -0.3119 -0.1687 -1.1402
  976MOL0     C34606   7.954   1.953   1.894  0.0860  0.1181 -0.1428
  976MOL0     C34607   7.815   1.938   1.895  0.0031  0.1211  0.0555
  976MOL0     C34608   7.762   1.821   1.943  0.1729 -0.0359  0.7345
  976MOL0     O34609   7.622   1.824   1.947  0.0181 -0.0219 -0.2071
  976MOL0     C34610   7.562   1.735   2.051 -0.9418  0.0582  0.7504
  976MOL0     C34611   7.425   1.789   2.104 -0.2708  0.1000 -0.2249
  976MOL0     C34612   7.433   1.926   2.177  0.2733  0.3096 -0.4931
  976MOL0     C34613   7.301   1.982   2.213  0.1931 -0.3187  0.6464
  976MOL0     C34614   7.250   1.903   2.322 -0.3735 -0.4535 -0.7277
  976MOL0     C34615   7.190   1.838   2.404 -0.1349  0.4822 -0.5203
  976MOL0     C34616   7.848   1.711   1.979 -0.2690  0.4198  0.1488
  976MOL0     C34617   7.986   1.730   1.990  0.0038  0.5232  0.3509
  976MOL0     C34618   8.063   1.613   2.055 -0.7009  0.4478 -0.5703
  976MOL0     H34619   8.426   1.950   1.780 -0.7778 -0.8746  1.3950
  976MOL0     H34620   8.670   2.043   1.826 -0.3868 -2.2970  1.4714
  976MOL0     H34621   8.747   2.275   2.172 -0.1460  1.2415  0.0141
  976MOL0     H34622   8.738   2.413   2.057 -1.6432 -0.0418 -1.4170
  976MOL0     H34623   8.956   2.196   2.103 -1.9724 -1.1477 -0.4788
  976MOL0     H34624   8.963   2.308   1.969 -3.9990 -1.7462 -1.2366
  976MOL0     H34625   8.965   2.499   2.162  3.8587  0.7726  1.8582
  976MOL0     H34626   8.980   2.370   2.265  0.7132 -0.4678  0.3536
  976MOL0     H34627   9.180   2.300   2.123 -1.3030  0.0005  1.3633
  976MOL0     H34628   9.138   2.449   2.014 -0.1294  1.5103  0.5000
  976MOL0     H34629   9.263   2.436   2.298 -1.0121 -1.6929 -0.4803
  976MOL0     H34630   9.176   2.578   2.232 -0.3116  0.3020 -2.0321
  976MOL0     H34631   9.429   2.584   2.193 -0.9683  0.3773  0.6806
  976MOL0     H34632   9.410   2.430   2.105  0.2402 -0.2022  0.8803
  976MOL0     H34633   9.244   2.651   2.002  0.6438 -0.4426  0.8295
  976MOL0     H34634   9.348   2.533   1.917 -0.7939  1.5227 -1.8882
  976MOL0     H34635   9.450   2.747   1.886  1.4643 -0.1532 -0.8537
  976MOL0     H34636   9.437   2.787   2.059  2.9748  2.6596 -1.5588
  976MOL0     H34637   9.564   2.453   1.930  0.5751 -0.2663 -1.3986
  976MOL0     H34638   9.920   2.434   1.851  1.6162  1.8454  0.9726
  976MOL0     H34639   9.794   2.324   1.907 -0.4733 -0.3464  2.3619
  976MOL0     H34640   9.956   2.478   2.124 -0.4321 -1.6591  1.7513
  976MOL0     H34641   9.862   2.338   2.133 -2.1161  1.2326 -1.1398
  976MOL0     H34642  10.086   2.278   2.142  0.7800  2.0327  0.0642
  976MOL0     H34643   9.994   2.210   1.996 -3.4868  1.4535  1.4333
  976MOL0     H34644  10.129   2.325   1.845  1.7652 -0.5022 -0.9603
  976MOL0     H34645  10.151   2.455   1.961 -1.4684 -0.4842  0.6280
  976MOL0     H34646  10.221   2.460   2.182  0.6269  1.4241  2.5004
  976MOL0     H34647  10.386   2.641   2.361  2.3597 -1.6609 -0.8124
  976MOL0     H34648  10.358   2.522   2.496 -4.2475  0.0488  0.8662
  976MOL0     H34649  10.232   2.554   2.373 -0.3300 -2.1156 -0.7384
  976MOL0     H34650  10.724   2.383   2.640 -0.3018 -1.6970 -0.8263
  976MOL0     H34651  10.926   2.377   2.807  0.6184  2.3782  0.9186
  976MOL0     H34652  11.356   2.426   2.669 -0.3096  0.2331 -0.1725
  976MOL0     H34653  11.257   2.568   2.689 -1.2421 -0.1885  0.9070
  976MOL0     H34654  11.301   2.508   2.949 -1.4573  0.3933 -1.1242
  976MOL0     H34655  11.411   2.383   2.890 -3.2765 -1.0318 -2.5023
  976MOL0     H34656  11.544   2.569   2.949  0.8516  0.3476 -0.7087
  976MOL0     H34657  11.445   2.687   2.847 -0.9769  0.1331  1.8700
  976MOL0     H34658  11.540   2.581   2.653 -1.8310  1.1347  1.5073
  976MOL0     H34659  11.606   2.447   2.760  0.5805 -0.2708 -1.0772
  976MOL0     H34660  11.708   2.730   2.719  1.5145  0.2604  1.2425
  976MOL0     H34661  11.746   2.655   2.864 -1.9093  1.9823  0.3757
  976MOL0     H34662  11.798   2.578   2.584 -2.7258  0.4036  0.8098
  976MOL0     H34663  11.831   2.447   2.691  1.5905 -0.0349  2.4539
  976MOL0     H34664  11.973   2.628   2.831 -2.2615  1.6769  0.4289
  976MOL0     H34665  11.951   2.734   2.703 -0.2264 -0.3075 -2.2110
  976MOL0     H34666  12.076   2.566   2.543  0.6370 -0.9925  0.1967
  976MOL0     H34667  12.062   2.450   2.676 -0.8925  0.5391  3.6543
  976MOL0     H34668  11.184   2.385   2.474  0.7710  0.0466  1.4118
  976MOL0     H34669  11.004   2.375   2.324  1.8813  1.2152  0.5271
  976MOL0     H34670  10.674   2.284   2.189 -1.0936 -1.4922  0.1425
  976MOL0     H34671  10.526   2.218   2.014 -0.1470 -0.0641  0.0816
  976MOL0     H34672   8.498   2.284   2.139 -3.0406 -1.1188  2.5431
  976MOL0     H34673   8.292   2.156   2.117 -0.7375 -0.0657 -0.4060
  976MOL0     H34674   7.992   2.047   1.854  0.9643 -0.7280 -1.3551
  976MOL0     H34675   7.752   2.024   1.877  1.8602  1.1048 -2.2014
  976MOL0     H34676   7.546   1.641   1.998 -0.6563  0.0217  0.7313
  976MOL0     H34677   7.627   1.711   2.136 -0.8843 -1.8101  0.2148
  976MOL0     H34678   7.387   1.704   2.162 -0.3834  0.3517  0.0708
  976MOL0     H34679   7.370   1.795   2.010  2.7795 -1.8226 -2.3274
  976MOL0     H34680   7.497   1.914   2.264  2.6190  1.2098 -2.0019
  976MOL0     H34681   7.490   2.004   2.125 -2.6360  3.9472  1.2935
  976MOL0     H34682   7.229   1.980   2.131 -0.4009  1.4176  1.0679
  976MOL0     H34683   7.316   2.088   2.237 -1.9315  0.0968  0.4011
  976MOL0     H34684   7.132   1.775   2.469 -1.1442  1.4751 -0.4263
  976MOL0     H34685   7.807   1.614   2.006 -0.3532  0.3898 -0.0869
  976MOL0     H34686   8.120   1.648   2.142 -1.9984 -3.4084  2.1235
  976MOL0     H34687   8.000   1.532   2.093 -0.2899  0.3874  0.0072
  976MOL0     H34688   8.130   1.569   1.981  1.6968  1.4161  0.9053
  977MOL0     O34689   9.319   8.662   1.494  0.3703 -0.1419 -0.1846
  977MOL0     C34690   9.237   8.719   1.420 -0.4498 -0.1857 -1.0010
  977MOL0     O34691   9.201   8.691   1.293 -0.1551  0.2007  0.0580
  977MOL0     C34692   9.224   8.566   1.228 -1.0697  0.2107  0.0481
  977MOL0     C34693   9.219   8.444   1.286  0.1286  0.3736 -0.6384
  977MOL0     C34694   9.250   8.326   1.217  0.6806 -0.3127 -0.2448
  977MOL0     C34695   9.276   8.327   1.084 -0.5608  0.2872  0.9632
  977MOL0     O34696   9.290   8.220   1.006  0.4643  0.2603 -0.2828
  977MOL0     C34697   9.369   8.117   1.063 -0.0626  0.6281 -0.0887
  977MOL0     C34698   9.424   8.023   0.944 -1.6293  0.4729  0.1693
  977MOL0     C34699   9.499   8.097   0.833  0.1378 -0.5308 -0.6353
  977MOL0     C34700   9.601   8.190   0.883  0.0034 -0.2101 -0.4432
  977MOL0     C34701   9.670   8.257   0.756 -0.4529  0.2941 -0.8690
  977MOL0     C34702   9.781   8.352   0.794  0.0687  0.4143 -0.1581
  977MOL0     C34703   9.859   8.307   0.921  0.0634 -0.4760 -0.4275
  977MOL0     C34704   9.963   8.410   0.952  0.0106 -1.0878 -0.3067
  977MOL0     N34705  10.051   8.356   1.050 -0.5529  1.1767 -0.3217
  977MOL0     C34706  10.028   8.371   1.190  0.2607  1.0155  0.3568
  977MOL0     C34707  10.142   8.321   1.240 -0.4933  0.5263  0.5515
  977MOL0     C34708  10.173   8.317   1.385  0.1839  0.1159 -0.6076
  977MOL0     C34709  10.173   8.164   1.426  0.1470 -0.0647 -0.2165
  977MOL0     C34710  10.149   8.142   1.575 -0.0483 -0.1983  0.0443
  977MOL0     C34711  10.261   8.200   1.654 -0.1610  0.1337 -0.2094
  977MOL0     O34712  10.393   8.170   1.594  0.0706 -0.1846 -0.2999
  977MOL0     C34713  10.509   8.238   1.645 -0.1760 -0.3821 -0.2341
  977MOL0     C34714  10.533   8.288   1.773 -0.2377 -1.1310 -0.4129
  977MOL0     C34715  10.658   8.336   1.824 -0.3608  0.5454  0.5806
  977MOL0     C34716  10.648   8.383   1.968 -0.0817  0.9206  0.3121
  977MOL0     C34717  10.770   8.323   1.731 -0.1503  0.1372 -0.8904
  977MOL0     C34718  10.914   8.354   1.783  0.2942 -0.1242 -0.1419
  977MOL0     O34719  10.932   8.446   1.885  0.2970 -0.4918  0.8407
  977MOL0     C34720  11.059   8.468   1.925 -0.5075 -0.1540 -0.0006
  977MOL0     C34721  11.090   8.603   1.945  0.5859  0.2875 -0.2136
  977MOL0     C34722  11.209   8.644   1.996 -0.1146 -0.2581  0.1465
  977MOL0     C34723  11.302   8.543   2.038  0.0016 -0.8821 -0.0429
  977MOL0     O34724  11.421   8.587   2.082 -0.3739  0.1154 -0.7726
  977MOL0     C34725  11.422   8.709   2.165 -0.2798  0.9761 -0.1893
  977MOL0     C34726  11.494   8.656   2.292  0.5436  0.3561  0.2577
  977MOL0     C34727  11.513   8.766   2.400 -0.2104 -0.2006  0.1806
  977MOL0     C34728  11.589   8.717   2.524 -0.4632 -0.0232  0.1298
  977MOL0     C34729  11.580   8.824   2.641  0.7616 -0.1130 -0.1549
  977MOL0     C34730  11.639   8.758   2.771 -0.0574  0.8073 -0.8962
  977MOL0     C34731  11.791   8.723   2.770 -0.3324 -0.3150 -0.3068
  977MOL0     C34732  11.831   8.660   2.901  0.0573 -0.0381  0.3094
  977MOL0    Cl34733  11.805   8.770   3.036 -0.3328  0.1118 -0.5307
  977MOL0     C34734  11.281   8.411   2.003 -0.3622  0.1641  0.8966
  977MOL0     C34735  11.152   8.378   1.951 -0.3079 -0.1117 -0.4009
  977MOL0     O34736  11.004   8.296   1.726  0.1554  0.1931  0.9872
  977MOL0     C34737  10.757   8.254   1.613 -0.6129 -0.9833 -0.1844
  977MOL0     C34738  10.624   8.214   1.571 -0.6196 -0.2087 -0.0113
  977MOL0     N34739  10.230   8.275   1.134 -0.5953  0.5851 -0.3386
  977MOL0     N34740  10.172   8.299   1.021 -0.6077 -0.4280 -0.4525
  977MOL0     C34741   9.276   8.449   1.018  0.5116  0.5155  0.0745
  977MOL0     C34742   9.253   8.568   1.089  0.7881  0.3710 -0.3772
  977MOL0     C34743   9.160   8.833   1.471 -0.5238 -0.5951  0.2971
  977MOL0     C34744   9.038   8.866   1.411  0.1432 -0.6838  0.6339
  977MOL0     C34745   8.969   8.982   1.456  0.0816 -0.1630  0.6124
  977MOL0     C34746   9.024   9.063   1.550 -0.0575 -0.5024  0.0598
  977MOL0     O34747   8.952   9.163   1.615 -0.8455  0.0924 -0.2749
  977MOL0     C34748   8.824   9.206   1.575 -0.5745 -0.0699  0.2134
  977MOL0     C34749   8.786   9.319   1.673  0.1166  0.1079  0.5525
  977MOL0     C34750   8.885   9.430   1.679 -1.0715 -0.1502 -0.6063
  977MOL0     C34751   8.913   9.516   1.555 -0.2532 -0.0425  0.5532
  977MOL0     C34752   8.786   9.578   1.500 -0.2638  0.7523 -0.3031
  977MOL0     C34753   8.697   9.642   1.466 -0.3446  0.3592 -0.5337
  977MOL0     C34754   9.149   9.044   1.602  0.4796 -0.1113 -1.2981
  977MOL0     C34755   9.220   8.924   1.565 -0.9633 -0.0737  0.6140
  977MOL0     C34756   9.354   8.910   1.626  0.1501 -0.1882  1.7929
  977MOL0     H34757   9.192   8.433   1.390 -1.5046  2.0081 -0.8297
  977MOL0     H34758   9.260   8.238   1.280  0.7674  1.3292  2.1629
  977MOL0     H34759   9.313   8.059   1.138  1.2341  0.7390  1.0150
  977MOL0     H34760   9.454   8.155   1.121 -1.3269  1.0443  1.5664
  977MOL0     H34761   9.504   7.961   0.986 -1.6168 -0.7577 -1.6088
  977MOL0     H34762   9.348   7.956   0.904  1.2677 -1.9663 -1.6289
  977MOL0     H34763   9.546   8.025   0.766 -0.4060  0.4940 -2.1697
  977MOL0     H34764   9.436   8.142   0.756  0.0377 -0.8965 -0.7700
  977MOL0     H34765   9.549   8.267   0.940 -2.6705 -0.7681 -1.9842
  977MOL0     H34766   9.671   8.138   0.949  2.6084  2.8333 -0.5367
  977MOL0     H34767   9.598   8.309   0.692 -0.1381 -1.4475 -2.7323
  977MOL0     H34768   9.719   8.180   0.695 -0.8794 -0.5104 -0.2184
  977MOL0     H34769   9.855   8.361   0.714 -0.1831 -0.6988 -0.5352
  977MOL0     H34770   9.733   8.449   0.805  1.7611  1.1466  1.1813
  977MOL0     H34771   9.901   8.209   0.901 -1.9576 -1.0239 -2.4118
  977MOL0     H34772   9.795   8.315   1.010 -1.7147 -1.2978 -1.5664
  977MOL0     H34773  10.022   8.425   0.861  1.6856  4.5327  1.3186
  977MOL0     H34774   9.921   8.504   0.989  3.9934  0.6712  0.3380
  977MOL0     H34775   9.944   8.402   1.251 -2.2780  0.2339 -2.5269
  977MOL0     H34776  10.100   8.370   1.447 -2.7091 -2.3514 -1.6393
  977MOL0     H34777  10.267   8.359   1.420 -0.7721  0.7941  1.2852
  977MOL0     H34778  10.089   8.120   1.371 -2.7165  2.9478  1.3290
  977MOL0     H34779  10.267   8.127   1.385 -0.0822  2.2530 -3.1923
  977MOL0     H34780  10.054   8.184   1.607  0.5674  1.2679  0.0080
  977MOL0     H34781  10.143   8.032   1.579 -3.3306 -0.4007 -4.0787
  977MOL0     H34782  10.253   8.309   1.654  0.2704  0.1741 -0.9417
  977MOL0     H34783  10.259   8.164   1.757 -1.4413  0.8876  0.0388
  977MOL0     H34784  10.452   8.288   1.845 -3.5915  1.0357 -3.8187
  977MOL0     H34785  10.604   8.482   1.956 -0.0571  0.9169  0.1990
  977MOL0     H34786  10.743   8.386   2.022 -0.3713  1.1125  0.8184
  977MOL0     H34787  10.582   8.318   2.027  0.5484  0.3041  0.3564
  977MOL0     H34788  11.023   8.683   1.913  1.0481  0.4548 -0.7877
  977MOL0     H34789  11.231   8.750   1.997 -1.4743  0.0699 -1.2864
  977MOL0     H34790  11.474   8.793   2.118 -1.1122  1.3331 -0.4818
  977MOL0     H34791  11.320   8.738   2.191 -1.5330 -3.4245  0.7832
  977MOL0     H34792  11.432   8.579   2.339 -0.5283  0.1149 -1.4823
  977MOL0     H34793  11.596   8.627   2.263  0.5180 -1.7103  1.9419
  977MOL0     H34794  11.419   8.812   2.431  0.3522  1.4477 -0.4584
  977MOL0     H34795  11.582   8.836   2.354 -1.1518  2.4935  2.5967
  977MOL0     H34796  11.692   8.716   2.488 -0.7358  1.3310 -0.7695
  977MOL0     H34797  11.555   8.622   2.567 -2.1620  0.8872  0.9437
  977MOL0     H34798  11.650   8.904   2.615  0.9280 -0.1176  0.2669
  977MOL0     H34799  11.481   8.869   2.654  1.8185  3.1525 -2.1981
  977MOL0     H34800  11.580   8.667   2.784  1.8180 -0.1454  1.8127
  977MOL0     H34801  11.614   8.836   2.845 -4.7475 -1.6792  0.5996
  977MOL0     H34802  11.855   8.812   2.762  0.0116 -0.5643 -0.3472
  977MOL0     H34803  11.820   8.655   2.689  0.1928  0.4171 -0.7412
  977MOL0     H34804  11.936   8.632   2.887  1.1661  3.3649  0.6660
  977MOL0     H34805  11.769   8.571   2.906 -2.6693  1.6588 -0.8932
  977MOL0     H34806  11.361   8.337   2.009 -0.1098  0.4310  0.8441
  977MOL0     H34807  11.139   8.271   1.941  0.6665 -0.6044  2.6189
  977MOL0     H34808  10.844   8.233   1.551 -1.8258 -0.3694 -2.1644
  977MOL0     H34809  10.607   8.171   1.473 -0.5974 -0.3717  0.0570
  977MOL0     H34810   9.282   8.461   0.910 -4.3252  1.4029 -0.3421
  977MOL0     H34811   9.286   8.660   1.042 -0.6689  1.9494  1.5003
  977MOL0     H34812   8.994   8.811   1.329 -2.4218 -1.8952  2.6910
  977MOL0     H34813   8.872   8.998   1.409  0.3077 -1.1742 -0.2348
  977MOL0     H34814   8.824   9.243   1.472 -1.6038 -1.3088 -0.2513
  977MOL0     H34815   8.743   9.133   1.580  1.5360 -2.4671  2.1287
  977MOL0     H34816   8.777   9.274   1.772  2.2388 -0.9140  0.3272
  977MOL0     H34817   8.689   9.355   1.638 -0.0659 -0.7469  0.1480
  977MOL0     H34818   8.850   9.490   1.763 -1.5602  0.1745 -1.0357
  977MOL0     H34819   8.979   9.385   1.712 -1.2210  0.7918  1.2541
  977MOL0     H34820   8.964   9.467   1.472  0.9096  3.1423 -0.7635
  977MOL0     H34821   8.985   9.595   1.579 -1.2099  0.8307  0.6037
  977MOL0     H34822   8.610   9.697   1.437 -1.2176 -0.3620  0.6496
  977MOL0     H34823   9.190   9.106   1.680 -1.6729 -0.9467  0.6041
  977MOL0     H34824   9.399   9.000   1.670  0.8990 -0.4114  1.5017
  977MOL0     H34825   9.336   8.843   1.710  1.0031 -1.4356  1.0024
  977MOL0     H34826   9.434   8.882   1.557  0.4820 -0.5616  2.3151
  978MOL0     O34827   0.353   4.236  10.694 -1.1219 -0.3061  0.9428
  978MOL0     C34828   0.389   4.352  10.715 -0.2100  0.6139 -0.3290
  978MOL0     O34829   0.514   4.393  10.719 -0.3863  0.1299  0.3140
  978MOL0     C34830   0.591   4.358  10.613  0.1039 -0.0188 -1.3804
  978MOL0     C34831   0.731   4.342  10.631  0.6914  0.4644  0.1378
  978MOL0     C34832   0.815   4.302  10.527 -0.3298 -0.2771 -0.1573
  978MOL0     C34833   0.753   4.273  10.397  0.6433  0.3556  0.5714
  978MOL0     O34834   0.829   4.231  10.282  0.0207 -0.5789  0.0597
  978MOL0     C34835   0.773   4.235  10.147 -0.4095  0.2682  0.0017
  978MOL0     C34836   0.883   4.215  10.042 -0.2322  0.2424  0.2464
  978MOL0     C34837   0.968   4.343  10.032 -0.2178  0.5560  0.1499
  978MOL0     C34838   1.078   4.340   9.921 -0.7270 -0.2909  1.1414
  978MOL0     C34839   1.187   4.247   9.969 -0.6478  1.1916  0.4768
  978MOL0     C34840   1.277   4.202   9.851  0.0882 -0.3061  0.2126
  978MOL0     C34841   1.373   4.314   9.815 -0.3282  0.9799 -1.0161
  978MOL0     C34842   1.453   4.279   9.696 -0.0716 -0.8351 -0.8463
  978MOL0     N34843   1.555   4.384   9.674  0.1349  1.1787 -0.2141
  978MOL0     C34844   1.648   4.429   9.764  0.2466 -0.7107  0.6902
  978MOL0     C34845   1.707   4.538   9.709 -0.3434  0.2020  0.1824
  978MOL0     C34846   1.812   4.620   9.763  0.3237 -0.8751  0.0407
  978MOL0     C34847   1.957   4.564   9.757  0.1627 -0.2483  0.7610
  978MOL0     C34848   1.975   4.419   9.809 -0.0669 -0.9483  0.5051
  978MOL0     C34849   2.117   4.369   9.787 -0.5643 -0.7747  0.5725
  978MOL0     O34850   2.157   4.368   9.649 -0.4712  0.6756  0.2725
  978MOL0     C34851   2.289   4.347   9.614  0.9813 -0.7003 -0.3462
  978MOL0     C34852   2.336   4.396   9.496 -0.3419 -0.8330  0.0619
  978MOL0     C34853   2.465   4.386   9.442 -0.1428 -0.6181  0.1081
  978MOL0     C34854   2.492   4.460   9.313 -0.2629 -0.2376 -0.8096
  978MOL0     C34855   2.562   4.316   9.518  0.1558 -0.0809  0.4829
  978MOL0     C34856   2.704   4.301   9.491  0.0127  0.4785 -0.2764
  978MOL0     O34857   2.784   4.265   9.594 -0.4689 -0.0793  0.4289
  978MOL0     C34858   2.915   4.308   9.579 -0.2611  0.3231  0.5096
  978MOL0     C34859   2.954   4.441   9.608 -0.4205 -0.7950  0.3575
  978MOL0     C34860   3.093   4.472   9.601  0.9968  0.1551  0.2522
  978MOL0     C34861   3.197   4.386   9.574  0.5191  0.3885 -0.5306
  978MOL0     O34862   3.328   4.429   9.566 -0.1389 -0.7724 -0.2033
  978MOL0     C34863   3.428   4.333   9.563  0.3788  1.0756 -0.2806
  978MOL0     C34864   3.552   4.402   9.566 -0.0545  0.4753 -0.7891
  978MOL0     C34865   3.588   4.474   9.427  0.2021  0.6259 -0.2231
  978MOL0     C34866   3.726   4.543   9.424 -0.3911  0.1966 -0.4400
  978MOL0     C34867   3.841   4.455   9.374 -0.1550  0.4032 -0.1243
  978MOL0     C34868   3.978   4.526   9.347 -0.6516 -0.4003 -0.2642
  978MOL0     C34869   4.015   4.615   9.469 -0.9732 -0.5194 -0.3691
  978MOL0     C34870   4.150   4.689   9.434  0.5354 -0.7290  0.0728
  978MOL0    Cl34871   4.179   4.835   9.545 -0.0034 -0.2213 -0.2682
  978MOL0     C34872   3.152   4.255   9.543 -0.9653  0.3495  0.4707
  978MOL0     C34873   3.016   4.216   9.546  0.2388  0.3339 -0.6329
  978MOL0     O34874   2.744   4.336   9.383 -0.4436  0.4607 -0.9045
  978MOL0     C34875   2.514   4.261   9.643  0.3468  0.0038 -0.3410
  978MOL0     C34876   2.379   4.281   9.690  0.1709  0.4592 -0.2555
  978MOL0     N34877   1.653   4.555   9.586 -0.5473  0.2609  0.3904
  978MOL0     N34878   1.565   4.459   9.563 -0.1464  0.5359 -0.0271
  978MOL0     C34879   0.617   4.297  10.381  0.1744  0.6615  0.8674
  978MOL0     C34880   0.538   4.355  10.483 -0.8375  0.1146 -0.9621
  978MOL0     C34881   0.283   4.436  10.783 -0.3841 -0.2338  0.4347
  978MOL0     C34882   0.322   4.519  10.892 -0.0951 -0.2971 -0.1925
  978MOL0     C34883   0.232   4.602  10.959 -0.6032 -0.4044 -0.3638
  978MOL0     C34884   0.100   4.601  10.923  0.6605 -0.9619 -0.5116
  978MOL0     O34885  -0.008   4.684  10.974 -0.4512  0.7643  0.6389
  978MOL0     C34886   0.025   4.737  11.099  0.8199  0.4088 -0.1936
  978MOL0     C34887  -0.108   4.770  11.162  0.0939 -0.2081  0.1418
  978MOL0     C34888  -0.214   4.670  11.155 -0.0277  0.0321 -0.2929
  978MOL0     C34889  -0.183   4.527  11.225  0.9887 -0.4770 -0.4873
  978MOL0     C34890  -0.121   4.552  11.354 -0.0797  0.2800  0.4767
  978MOL0     C34891  -0.066   4.582  11.460 -0.4708  0.8524 -0.1432
  978MOL0     C34892   0.060   4.518  10.816 -0.8591 -0.4031  0.3315
  978MOL0     C34893   0.149   4.441  10.748 -0.8603  0.1633  0.7034
  978MOL0     C34894   0.101   4.367  10.632  0.0224 -0.7398 -0.9046
  978MOL0     H34895   0.766   4.337  10.734 -1.8246 -3.3157  1.0375
  978MOL0     H34896   0.923   4.289  10.530 -0.4660 -1.6453 -0.3650
  978MOL0     H34897   0.726   4.330  10.119  2.5269  1.2612 -1.9776
  978MOL0     H34898   0.701   4.153  10.145 -1.1314  0.8968 -0.4756
  978MOL0     H34899   0.941   4.123  10.057  0.4726  0.9799  2.4224
  978MOL0     H34900   0.838   4.205   9.943  2.2252 -1.2721 -0.7994
  978MOL0     H34901   0.900   4.418   9.992 -2.0012 -0.9804  0.1371
  978MOL0     H34902   1.008   4.367  10.130  2.4000  2.7648 -1.3218
  978MOL0     H34903   1.022   4.306   9.833  1.1433  1.1373 -0.7039
  978MOL0     H34904   1.117   4.438   9.892  0.3268 -2.0857 -4.8921
  978MOL0     H34905   1.149   4.162  10.026 -0.4233  0.3225 -0.6375
  978MOL0     H34906   1.245   4.291  10.051 -0.6901 -1.4877  2.0672
  978MOL0     H34907   1.325   4.112   9.890 -0.6636 -0.3726  1.0059
  978MOL0     H34908   1.208   4.160   9.777 -1.1139  0.6766  0.7348
  978MOL0     H34909   1.439   4.350   9.895  0.9994  1.8797 -2.4420
  978MOL0     H34910   1.316   4.403   9.787 -0.7635 -0.0932 -3.8858
  978MOL0     H34911   1.511   4.191   9.725 -1.5159 -0.9885  2.0130
  978MOL0     H34912   1.384   4.264   9.612 -1.5829  0.1352  0.1581
  978MOL0     H34913   1.673   4.385   9.860  2.0958 -1.3119 -0.0360
  978MOL0     H34914   1.788   4.643   9.867 -3.3338 -1.1716 -0.5922
  978MOL0     H34915   1.807   4.720   9.717 -0.9134 -0.5478  0.8393
  978MOL0     H34916   2.007   4.575   9.660 -1.4332  1.8862  0.0996
  978MOL0     H34917   2.002   4.636   9.827 -1.6281  0.8753  0.8264
  978MOL0     H34918   1.956   4.406   9.916 -4.0830 -1.4347 -0.1119
  978MOL0     H34919   1.901   4.352   9.765 -0.5575  0.3110 -0.6536
  978MOL0     H34920   2.192   4.427   9.841 -1.0172  2.4611 -1.9632
  978MOL0     H34921   2.116   4.265   9.823  0.3252 -1.6860 -1.8592
  978MOL0     H34922   2.259   4.452   9.444 -0.4986  0.8119  1.9420
  978MOL0     H34923   2.577   4.528   9.326 -0.2261  0.2373 -3.2307
  978MOL0     H34924   2.401   4.514   9.285 -1.4406 -0.3722  2.2825
  978MOL0     H34925   2.530   4.393   9.236  3.7343  2.1718 -1.2187
  978MOL0     H34926   2.879   4.519   9.623 -1.4799 -0.5148 -4.4853
  978MOL0     H34927   3.126   4.573   9.623  0.4875 -0.2172  3.0535
  978MOL0     H34928   3.422   4.270   9.652  0.6197  1.8699  0.3009
  978MOL0     H34929   3.423   4.281   9.466 -0.2877  1.7707 -0.6290
  978MOL0     H34930   3.550   4.478   9.644  1.1155  0.9308 -1.1847
  978MOL0     H34931   3.634   4.333   9.587 -0.2296 -0.0673 -1.8073
  978MOL0     H34932   3.508   4.546   9.409  0.7773  1.4654  0.4914
  978MOL0     H34933   3.576   4.399   9.349 -0.3244 -0.5898  0.9876
  978MOL0     H34934   3.743   4.566   9.530 -0.1222  2.0823 -0.8550
  978MOL0     H34935   3.722   4.638   9.369  2.1142  0.1617 -0.8150
  978MOL0     H34936   3.850   4.374   9.447 -0.5950 -0.8705 -1.4394
  978MOL0     H34937   3.804   4.429   9.274  2.2754  2.1834 -1.6045
  978MOL0     H34938   3.958   4.596   9.265  0.4915 -0.1969 -0.3907
  978MOL0     H34939   4.064   4.464   9.321 -0.1633 -0.2042  0.8132
  978MOL0     H34940   4.025   4.553   9.559 -0.3283  0.3135  0.1554
  978MOL0     H34941   3.935   4.686   9.488 -0.6664  0.1866 -1.6622
  978MOL0     H34942   4.152   4.724   9.330 -0.1340 -3.1146 -0.7847
  978MOL0     H34943   4.221   4.607   9.438 -0.5172 -1.6608  0.0247
  978MOL0     H34944   3.224   4.180   9.511 -1.4689  0.1287 -0.1659
  978MOL0     H34945   3.002   4.111   9.522  0.8800  0.1356 -0.1578
  978MOL0     H34946   2.575   4.205   9.714  1.5801 -2.1404 -2.9325
  978MOL0     H34947   2.343   4.223   9.774  2.0476  0.0531  0.3334
  978MOL0     H34948   0.567   4.284  10.285  2.3904  0.0443 -0.2714
  978MOL0     H34949   0.437   4.381  10.453 -0.4417  1.4686 -1.1944
  978MOL0     H34950   0.427   4.517  10.922 -0.6081 -2.4544  1.7435
  978MOL0     H34951   0.269   4.680  11.025  1.2945 -1.3915 -0.1993
  978MOL0     H34952   0.076   4.681  11.178 -1.0602 -0.0666  0.7274
  978MOL0     H34953   0.092   4.822  11.086  2.2566 -0.8434 -1.3815
  978MOL0     H34954  -0.146   4.856  11.107 -0.8937 -2.1520 -2.4165
  978MOL0     H34955  -0.085   4.802  11.265 -2.0929 -1.0771  0.9697
  978MOL0     H34956  -0.300   4.710  11.210  0.4648  0.4817  0.1696
  978MOL0     H34957  -0.243   4.636  11.056  0.1498 -5.8803  1.3082
  978MOL0     H34958  -0.095   4.489  11.171  0.3890 -1.8848 -0.5144
  978MOL0     H34959  -0.267   4.458  11.222  0.9333 -0.4705  0.4520
  978MOL0     H34960  -0.028   4.588  11.560  0.9431 -0.0710 -0.6059
  978MOL0     H34961  -0.037   4.534  10.772 -1.3908 -0.0335  1.5966
  978MOL0     H34962   0.001   4.402  10.609  0.3668 -0.2309 -1.6461
  978MOL0     H34963   0.171   4.378  10.549  3.2844  0.3758  1.7546
  978MOL0     H34964   0.079   4.262  10.655 -2.2457  0.2532  2.1701
  979MOL0     O34965   1.442   6.127   3.206  0.1848 -0.5481  0.6163
  979MOL0     C34966   1.504   6.215   3.150  0.2730  0.1457  0.3531
  979MOL0     O34967   1.573   6.308   3.212 -0.1759  0.1356  0.5895
  979MOL0     C34968   1.561   6.312   3.346  0.1182 -0.6341 -0.2986
  979MOL0     C34969   1.458   6.391   3.401 -0.3118  0.0895 -0.0719
  979MOL0     C34970   1.462   6.411   3.535  0.4145 -0.0673  0.5862
  979MOL0     C34971   1.568   6.374   3.618  0.3486 -0.8810  0.2958
  979MOL0     O34972   1.544   6.400   3.752  0.6611  0.1138  0.0269
  979MOL0     C34973   1.659   6.415   3.837  0.0712  0.2287  0.4274
  979MOL0     C34974   1.623   6.369   3.982  0.7516  0.1082  0.7304
  979MOL0     C34975   1.628   6.218   4.003  0.3899  0.1013 -0.1780
  979MOL0     C34976   1.772   6.164   4.018 -0.7804 -0.4301 -0.6318
  979MOL0     C34977   1.771   6.012   4.010  0.5411  0.3359 -0.2340
  979MOL0     C34978   1.902   5.958   4.058 -0.4570 -0.7081 -0.1726
  979MOL0     C34979   1.949   6.007   4.198 -0.5705  0.6744  0.3668
  979MOL0     C34980   2.077   5.923   4.225 -0.6869  0.4036  0.0795
  979MOL0     N34981   2.099   5.899   4.364 -0.0756  0.1438  0.1212
  979MOL0     C34982   2.228   5.908   4.426 -0.7132 -0.1663  0.5295
  979MOL0     C34983   2.217   5.853   4.551 -0.5366  0.4082 -0.0177
  979MOL0     C34984   2.315   5.869   4.664 -0.6369  0.4074  0.1735
  979MOL0     C34985   2.236   5.918   4.788  0.8486  0.1183 -0.1856
  979MOL0     C34986   2.312   5.909   4.925 -0.0076  0.1587  0.6235
  979MOL0     C34987   2.464   5.941   4.924 -0.2917 -0.0439 -0.0805
  979MOL0     O34988   2.466   6.086   4.911 -0.4403 -0.1125  0.5084
  979MOL0     C34989   2.571   6.147   4.954  0.2711  0.6023 -0.5690
  979MOL0     C34990   2.680   6.101   5.033 -0.3474  0.7568  0.0760
  979MOL0     C34991   2.793   6.187   5.063  0.2052 -0.0177 -0.1681
  979MOL0     C34992   2.911   6.129   5.148  0.6275  0.0708 -0.3917
  979MOL0     C34993   2.790   6.321   5.021  0.0551 -0.5914 -0.7990
  979MOL0     C34994   2.892   6.421   5.060  0.0558  0.8605  0.0725
  979MOL0     O34995   3.022   6.379   5.050 -0.4778 -0.0645  0.3203
  979MOL0     C34996   3.127   6.461   5.086 -0.3220 -0.6937  0.1446
  979MOL0     C34997   3.230   6.409   5.167  0.1807  0.4313 -0.3948
  979MOL0     C34998   3.331   6.496   5.220 -0.1895 -0.1001 -0.5358
  979MOL0     C34999   3.332   6.631   5.178  0.4976  0.4836 -0.7757
  979MOL0     O35000   3.411   6.737   5.224  0.1568  0.6364 -0.6101
  979MOL0     C35001   3.489   6.714   5.346 -0.2659 -0.6570  0.1924
  979MOL0     C35002   3.505   6.849   5.416  0.0996 -0.9421  0.3206
  979MOL0     C35003   3.607   6.845   5.529 -0.2094 -0.3249 -0.1316
  979MOL0     C35004   3.622   6.980   5.599 -0.1506  0.0632 -0.5597
  979MOL0     C35005   3.752   6.967   5.681  0.0703  0.2426  0.0118
  979MOL0     C35006   3.778   7.097   5.757 -0.4723 -0.0269 -0.3209
  979MOL0     C35007   3.916   7.095   5.819 -0.1536 -0.9657 -0.4839
  979MOL0     C35008   3.956   7.209   5.912 -0.0268  0.8530 -0.6497
  979MOL0    Cl35009   3.966   7.365   5.832  0.5090  0.2858  0.3091
  979MOL0     C35010   3.246   6.678   5.074 -0.5096  0.7818 -0.2994
  979MOL0     C35011   3.141   6.590   5.036 -0.2720  1.4571  0.0310
  979MOL0     O35012   2.844   6.531   5.089 -0.8468 -0.0545 -0.3938
  979MOL0     C35013   2.691   6.366   4.940  0.3085  0.5841  0.6561
  979MOL0     C35014   2.578   6.278   4.908 -0.2276  1.4143 -0.3304
  979MOL0     N35015   2.083   5.802   4.555  0.6942  0.0078  0.0305
  979MOL0     N35016   2.022   5.828   4.448  0.4126 -0.1746  1.3314
  979MOL0     C35017   1.665   6.288   3.561 -0.0279  0.4885  0.9480
  979MOL0     C35018   1.659   6.252   3.426 -0.7191 -0.4059 -0.6511
  979MOL0     C35019   1.523   6.201   3.002  0.1273 -0.5712 -0.4155
  979MOL0     C35020   1.420   6.138   2.926  0.6831 -0.1308  0.1827
  979MOL0     C35021   1.420   6.137   2.784 -0.5482  0.6775 -0.6146
  979MOL0     C35022   1.535   6.175   2.718  0.0619 -0.2587 -0.2491
  979MOL0     O35023   1.550   6.200   2.585 -0.8792 -0.4261 -0.1863
  979MOL0     C35024   1.532   6.086   2.503  0.5046  0.7599 -0.1726
  979MOL0     C35025   1.608   5.962   2.531 -0.6723  0.0008  0.7197
  979MOL0     C35026   1.562   5.853   2.639  0.9921 -0.3206 -0.3473
  979MOL0     C35027   1.476   5.746   2.575  0.4152  0.1050  0.3457
  979MOL0     C35028   1.347   5.793   2.523 -0.1621  0.5742  0.6998
  979MOL0     C35029   1.243   5.842   2.482  0.1432  0.4115  0.0275
  979MOL0     C35030   1.642   6.231   2.791  0.3594  0.1738 -1.0344
  979MOL0     C35031   1.635   6.250   2.928  0.4565 -0.0766  0.1158
  979MOL0     C35032   1.757   6.332   2.986 -1.1572 -0.3860 -0.3182
  979MOL0     H35033   1.389   6.439   3.332  2.1963  1.3255 -1.8552
  979MOL0     H35034   1.388   6.481   3.573 -1.1833 -1.8412  0.9082
  979MOL0     H35035   1.680   6.522   3.846  2.1981  0.0710 -1.7754
  979MOL0     H35036   1.747   6.361   3.803 -0.0778  0.1269  0.2086
  979MOL0     H35037   1.693   6.414   4.053  1.5159  1.7526 -0.9781
  979MOL0     H35038   1.515   6.384   3.984  0.4515 -0.4466 -3.2382
  979MOL0     H35039   1.560   6.183   4.081  1.7660  1.2194  1.5931
  979MOL0     H35040   1.583   6.180   3.911  1.1432  1.9657 -1.3668
  979MOL0     H35041   1.822   6.219   3.937  0.4485  1.0334  1.0572
  979MOL0     H35042   1.810   6.207   4.110  5.1611 -0.5513 -2.5931
  979MOL0     H35043   1.744   5.977   3.910 -2.2163  2.2688 -0.2728
  979MOL0     H35044   1.696   5.967   4.076  0.1122  0.4566 -0.6361
  979MOL0     H35045   1.900   5.850   4.043  1.9463 -0.8830  0.3628
  979MOL0     H35046   1.984   5.995   3.996 -1.2031  0.0683 -0.7013
  979MOL0     H35047   1.878   5.989   4.279  0.5232 -1.0308  1.0195
  979MOL0     H35048   1.990   6.108   4.191 -1.6048  1.0000 -2.0165
  979MOL0     H35049   2.077   5.824   4.178 -0.4942  0.6202 -0.3873
  979MOL0     H35050   2.160   5.981   4.185 -1.0262  1.1123  0.3895
  979MOL0     H35051   2.315   5.955   4.380  0.0094 -0.2684  1.7612
  979MOL0     H35052   2.393   5.938   4.632  0.5687 -1.7759 -1.9085
  979MOL0     H35053   2.361   5.772   4.685  0.3514  1.5835  4.2893
  979MOL0     H35054   2.195   6.018   4.771  1.7220  0.6896  0.9069
  979MOL0     H35055   2.158   5.841   4.791  1.0981 -0.2198 -1.8280
  979MOL0     H35056   2.262   5.973   4.998  0.8101 -2.6941  3.9789
  979MOL0     H35057   2.310   5.807   4.964  1.3647 -0.3630 -0.6055
  979MOL0     H35058   2.505   5.908   5.020  2.0514  2.4989 -0.0979
  979MOL0     H35059   2.517   5.894   4.841  2.4088  1.8431  0.4698
  979MOL0     H35060   2.685   5.998   5.068 -0.4529  0.9323  0.6148
  979MOL0     H35061   2.885   6.038   5.204  0.8311  1.1452  1.5309
  979MOL0     H35062   2.932   6.200   5.229 -0.7104 -0.7804  0.7507
  979MOL0     H35063   3.004   6.111   5.093 -0.4225 -1.6830 -1.6924
  979MOL0     H35064   3.246   6.303   5.183 -1.4975  0.0968 -0.7468
  979MOL0     H35065   3.411   6.459   5.283  0.0832  1.6165  0.1887
  979MOL0     H35066   3.443   6.646   5.419 -2.2899  2.0052  1.5639
  979MOL0     H35067   3.585   6.668   5.319 -0.7547 -0.7072 -1.5583
  979MOL0     H35068   3.547   6.921   5.345  0.5488 -1.3531  0.1632
  979MOL0     H35069   3.406   6.874   5.455 -0.3302  2.7980 -2.5304
  979MOL0     H35070   3.700   6.802   5.491  0.5389  2.5784 -1.9058
  979MOL0     H35071   3.570   6.767   5.596  0.5493 -1.8199 -1.3962
  979MOL0     H35072   3.537   6.991   5.666  0.1206  0.2069 -0.2388
  979MOL0     H35073   3.634   7.064   5.530 -1.2334  1.1914  0.5854
  979MOL0     H35074   3.746   6.884   5.751 -3.9869  1.3833  1.3003
  979MOL0     H35075   3.837   6.960   5.612 -0.7622  0.8477 -1.1245
  979MOL0     H35076   3.707   7.122   5.837 -1.7082  0.4615 -1.5397
  979MOL0     H35077   3.770   7.179   5.685  0.5679 -0.5649 -1.0590
  979MOL0     H35078   3.986   7.074   5.738 -1.0297 -2.7048 -0.8302
  979MOL0     H35079   3.920   7.008   5.885 -2.2716  0.8039  2.2161
  979MOL0     H35080   4.053   7.183   5.955  3.1647  3.8669 -5.1150
  979MOL0     H35081   3.882   7.217   5.993 -0.6163  0.5266 -1.1430
  979MOL0     H35082   3.267   6.772   5.025  0.0532 -0.5607 -2.7918
  979MOL0     H35083   3.054   6.618   4.978 -1.2317 -2.1696 -0.5050
  979MOL0     H35084   2.681   6.470   4.913 -0.6119  0.4490  0.4585
  979MOL0     H35085   2.499   6.312   4.842 -0.5984 -0.8830 -1.1411
  979MOL0     H35086   1.744   6.244   3.621 -0.7397 -1.6036  0.4662
  979MOL0     H35087   1.743   6.200   3.382  1.4583  1.5442  0.9690
  979MOL0     H35088   1.332   6.093   2.970  0.3933 -1.0938 -1.3291
  979MOL0     H35089   1.336   6.099   2.726 -1.6586  2.4532 -0.2750
  979MOL0     H35090   1.424   6.071   2.499  0.4159  1.1147  0.5841
  979MOL0     H35091   1.559   6.109   2.400  0.5810 -1.3054 -0.6488
  979MOL0     H35092   1.711   5.989   2.555 -0.2238  1.6037 -2.4048
  979MOL0     H35093   1.614   5.912   2.434 -0.0509  0.3624  0.5691
  979MOL0     H35094   1.652   5.796   2.663  2.4021  1.7103 -0.5606
  979MOL0     H35095   1.511   5.893   2.728 -2.2214  0.7134 -2.4691
  979MOL0     H35096   1.454   5.675   2.656  0.5612 -0.0860  0.2181
  979MOL0     H35097   1.530   5.687   2.501 -1.7199 -2.3319  0.5772
  979MOL0     H35098   1.152   5.885   2.444 -2.2003 -1.9528  2.5351
  979MOL0     H35099   1.727   6.264   2.732  0.2823  0.7289 -0.8377
  979MOL0     H35100   1.731   6.428   3.030  0.0648  0.3484 -1.1402
  979MOL0     H35101   1.810   6.271   3.060  1.8246 -1.0330 -2.7862
  979MOL0     H35102   1.824   6.342   2.900 -0.6623  1.7751  0.2795
  980MOL0     O35103   4.541   8.644   8.406 -0.7492 -0.0251 -0.7957
  980MOL0     C35104   4.646   8.696   8.383 -0.3925 -0.2989 -0.9405
  980MOL0     O35105   4.680   8.820   8.428 -0.1596 -0.5081 -0.1907
  980MOL0     C35106   4.607   8.888   8.525 -0.4427  0.7137  0.1588
  980MOL0     C35107   4.493   8.966   8.493 -0.5851  0.2661 -0.5966
  980MOL0     C35108   4.423   9.026   8.594  0.0797  0.7399 -0.2949
  980MOL0     C35109   4.464   9.027   8.731 -0.0748  0.9592 -0.6685
  980MOL0     O35110   4.384   9.086   8.830  0.9993  0.2562  0.2568
  980MOL0     C35111   4.241   9.124   8.817  1.1636 -0.0845 -0.0690
  980MOL0     C35112   4.186   9.214   8.936 -0.0987 -0.7682  0.5232
  980MOL0     C35113   4.180   9.141   9.071  0.1573 -0.4200  0.9871
  980MOL0     C35114   4.130   9.214   9.195  0.4890  0.3511  0.3172
  980MOL0     C35115   4.207   9.330   9.248 -0.1728 -0.2036 -0.4454
  980MOL0     C35116   4.348   9.279   9.294  0.7963 -0.1456  0.5965
  980MOL0     C35117   4.436   9.374   9.389  0.2942  0.4442  0.6851
  980MOL0     C35118   4.440   9.517   9.335  0.4169  0.6904 -0.3298
  980MOL0     N35119   4.553   9.593   9.394  0.8901  0.1885 -0.1375
  980MOL0     C35120   4.654   9.659   9.330 -0.2399  0.3847 -0.6491
  980MOL0     C35121   4.726   9.717   9.428  0.4592  0.3871 -1.2347
  980MOL0     C35122   4.849   9.793   9.396  0.0336  0.2355  0.8479
  980MOL0     C35123   4.948   9.801   9.513 -0.4097 -0.1816  0.9052
  980MOL0     C35124   5.064   9.886   9.483  0.2369 -0.7665  0.8108
  980MOL0     C35125   5.157   9.927   9.602 -0.5199  0.2551 -0.9658
  980MOL0     O35126   5.220   9.820   9.679  0.8652 -0.1701  0.2650
  980MOL0     C35127   5.332   9.847   9.759  0.1711  0.3300  0.4068
  980MOL0     C35128   5.392   9.737   9.809 -0.9577 -0.0203  0.4316
  980MOL0     C35129   5.515   9.735   9.885 -0.3660 -0.4798  0.0186
  980MOL0     C35130   5.549   9.599   9.945  0.0935  0.0252  0.1100
  980MOL0     C35131   5.581   9.857   9.909 -0.1240  0.1491  0.0955
  980MOL0     C35132   5.696   9.871  10.005  0.5081  0.8863 -0.1412
  980MOL0     O35133   5.731   9.999  10.026 -0.0992  0.2837  0.3414
  980MOL0     C35134   5.844  10.022  10.095  0.0985 -0.3286  0.3664
  980MOL0     C35135   5.965   9.988  10.031  1.6360  0.1551 -0.6495
  980MOL0     C35136   6.082  10.031  10.099  0.1004 -0.6991  0.1256
  980MOL0     C35137   6.076  10.097  10.222 -0.2173 -0.0881 -1.1048
  980MOL0     O35138   6.196  10.137  10.290  0.7328  0.2827  0.0068
  980MOL0     C35139   6.206  10.121  10.436 -0.7545  0.0359  1.1041
  980MOL0     C35140   6.353  10.086  10.482  0.6368  0.4674 -1.1538
  980MOL0     C35141   6.392   9.951  10.415 -0.3608 -0.2949 -0.5574
  980MOL0     C35142   6.532   9.904  10.447  0.3424 -0.1920  0.2943
  980MOL0     C35143   6.562   9.777  10.365  0.6837  0.2594  0.2485
  980MOL0     C35144   6.715   9.751  10.361  0.2359  0.3013 -0.2372
  980MOL0     C35145   6.764   9.759  10.506  0.1002  0.5354  1.2865
  980MOL0     C35146   6.910   9.695  10.520  0.8037 -0.3558 -0.6174
  980MOL0    Cl35147   6.973   9.757  10.670 -0.0318 -0.1956  0.2527
  980MOL0     C35148   5.954  10.130  10.279  0.1936  0.1960 -0.5189
  980MOL0     C35149   5.835  10.091  10.218 -0.1991  1.0644  0.3262
  980MOL0     O35150   5.754   9.775  10.056 -0.1479  0.4051  0.3177
  980MOL0     C35151   5.519   9.972   9.850 -0.0430 -0.7683  0.2566
  980MOL0     C35152   5.398   9.968   9.770 -0.9090  0.0908 -0.0130
  980MOL0     N35153   4.662   9.690   9.546 -0.5895 -0.3064  0.2058
  980MOL0     N35154   4.564   9.616   9.532 -0.1122  0.4270  0.0050
  980MOL0     C35155   4.585   8.964   8.762 -0.3818  0.4367  0.7734
  980MOL0     C35156   4.652   8.893   8.660  0.1441 -0.5581  0.2371
  980MOL0     C35157   4.749   8.621   8.301  0.0658 -0.7672 -0.3191
  980MOL0     C35158   4.880   8.677   8.284  0.1028  0.1988 -0.0583
  980MOL0     C35159   4.975   8.604   8.216 -0.7933 -0.1463 -0.3778
  980MOL0     C35160   4.949   8.486   8.147  0.2649 -0.0743 -0.3418
  980MOL0     O35161   5.032   8.407   8.078 -0.8929  0.4745 -0.0193
  980MOL0     C35162   5.162   8.454   8.055 -0.2095  1.1504  0.0213
  980MOL0     C35163   5.234   8.341   7.989 -0.8689  0.2860 -0.2886
  980MOL0     C35164   5.246   8.201   8.051 -0.0703  0.1321  0.1792
  980MOL0     C35165   5.295   8.201   8.193 -0.0156  0.3145  0.0068
  980MOL0     C35166   5.306   8.067   8.240 -0.3948  0.4939  0.9358
  980MOL0     C35167   5.325   7.946   8.267  0.6384 -0.3107 -0.0237
  980MOL0     C35168   4.818   8.438   8.154  0.0706  0.3224 -0.3189
  980MOL0     C35169   4.714   8.496   8.233 -0.6799  0.2674  0.2140
  980MOL0     C35170   4.584   8.412   8.245 -0.7303 -0.0799 -0.1188
  980MOL0     H35171   4.454   8.961   8.392  1.6777  0.3034 -1.5428
  980MOL0     H35172   4.335   9.083   8.564 -0.5680  0.9064  1.7676
  980MOL0     H35173   4.179   9.034   8.819 -0.1178  0.7776  2.4102
  980MOL0     H35174   4.229   9.187   8.728  0.0153  1.6165  1.2276
  980MOL0     H35175   4.238   9.310   8.942 -1.4719 -0.0962  4.2381
  980MOL0     H35176   4.086   9.242   8.904  0.4401 -0.8477 -1.3515
  980MOL0     H35177   4.128   9.048   9.045  1.1579 -0.3148 -1.6788
  980MOL0     H35178   4.285   9.132   9.099 -0.1661  2.4908  3.7187
  980MOL0     H35179   4.029   9.249   9.173  0.5708  0.4691  0.1294
  980MOL0     H35180   4.116   9.126   9.259 -0.8432 -2.8600 -3.9194
  980MOL0     H35181   4.147   9.371   9.329 -1.9871 -4.4016  0.5902
  980MOL0     H35182   4.206   9.402   9.166  0.5863  2.9198  2.0995
  980MOL0     H35183   4.333   9.186   9.351  0.2242 -1.2471 -1.2733
  980MOL0     H35184   4.400   9.262   9.200 -3.1138 -0.9361 -1.6186
  980MOL0     H35185   4.536   9.332   9.403 -0.5217 -1.1969  1.8525
  980MOL0     H35186   4.385   9.374   9.486 -1.9298 -0.9650 -0.4111
  980MOL0     H35187   4.454   9.514   9.226  2.1197 -1.7665 -0.1303
  980MOL0     H35188   4.339   9.554   9.350 -0.5388 -1.0613 -1.9445
  980MOL0     H35189   4.669   9.662   9.223 -1.9735 -0.0048 -0.9362
  980MOL0     H35190   4.827   9.884   9.340 -1.0416 -0.3962  0.2037
  980MOL0     H35191   4.899   9.742   9.313 -3.2586  0.8171 -1.7345
  980MOL0     H35192   4.893   9.834   9.602  1.0272  2.2404  0.9879
  980MOL0     H35193   4.982   9.700   9.535  0.0789  0.3984  3.0164
  980MOL0     H35194   5.125   9.840   9.405 -0.1698  1.0248 -0.6289
  980MOL0     H35195   5.027   9.976   9.434  0.9986 -1.9721 -2.1568
  980MOL0     H35196   5.236   9.990   9.560 -1.1641  1.9940  0.2718
  980MOL0     H35197   5.103   9.996   9.667  1.6095  1.9780 -0.9047
  980MOL0     H35198   5.332   9.650   9.782 -3.7113  1.3952  1.5536
  980MOL0     H35199   5.496   9.597  10.040  1.1471  1.1342  0.7466
  980MOL0     H35200   5.655   9.579   9.961 -0.3344 -0.8685  2.0533
  980MOL0     H35201   5.518   9.520   9.876  1.2069 -0.3757  0.0384
  980MOL0     H35202   5.968   9.938   9.935 -2.5065 -1.9218  0.0704
  980MOL0     H35203   6.182  10.024  10.056 -0.7804 -0.1686 -2.1774
  980MOL0     H35204   6.186  10.218  10.483  1.0655  1.3373 -0.6598
  980MOL0     H35205   6.140  10.035  10.454 -0.5279 -0.3353  0.2314
  980MOL0     H35206   6.422  10.168  10.457  1.2715  1.0074  1.9841
  980MOL0     H35207   6.352  10.063  10.589  1.1235 -0.1236 -1.2692
  980MOL0     H35208   6.385   9.962  10.307 -0.1805  3.7005 -0.3105
  980MOL0     H35209   6.313   9.883  10.448  0.5749 -1.8204 -1.3260
  980MOL0     H35210   6.536   9.885  10.554  1.1001  0.3066  0.3669
  980MOL0     H35211   6.602   9.986  10.427 -2.2944  1.9383 -0.9185
  980MOL0     H35212   6.511   9.690  10.406  0.1031 -0.8084 -2.4934
  980MOL0     H35213   6.519   9.782  10.264  2.1683  0.6431 -0.3861
  980MOL0     H35214   6.767   9.826  10.299 -1.4008  1.4144 -0.3294
  980MOL0     H35215   6.740   9.656  10.314 -1.2750 -0.0681 -0.3338
  980MOL0     H35216   6.702   9.714  10.584  2.0048  0.3920  2.7732
  980MOL0     H35217   6.770   9.864  10.535  1.6011  2.0071 -3.4518
  980MOL0     H35218   6.984   9.718  10.444  1.3808  0.2993  0.1265
  980MOL0     H35219   6.892   9.587  10.524 -0.2434 -0.2261 -1.2330
  980MOL0     H35220   5.964  10.178  10.375  1.8260 -2.6209  0.8241
  980MOL0     H35221   5.738  10.110  10.262 -0.1898 -1.5621  1.6609
  980MOL0     H35222   5.570  10.063   9.877 -0.0192 -0.9457  0.8298
  980MOL0     H35223   5.370  10.061   9.722  0.2719 -0.3958 -1.7514
  980MOL0     H35224   4.623   8.969   8.864  1.0832  0.0160  0.2655
  980MOL0     H35225   4.746   8.849   8.689  1.9262  2.2649 -0.8364
  980MOL0     H35226   4.899   8.775   8.328 -0.1911 -0.1930  0.9755
  980MOL0     H35227   5.071   8.652   8.200  0.6272 -2.4377  0.6764
  980MOL0     H35228   5.165   8.539   7.986  3.6561  1.7470  0.7142
  980MOL0     H35229   5.209   8.469   8.153  0.0641 -0.4751  0.1642
  980MOL0     H35230   5.336   8.379   7.998  0.1445 -2.2969 -0.0205
  980MOL0     H35231   5.212   8.335   7.882 -1.0120  0.6786 -0.2813
  980MOL0     H35232   5.154   8.142   8.050  1.4000 -2.3408  0.7566
  980MOL0     H35233   5.319   8.140   7.997 -1.4549 -2.0437  0.6422
  980MOL0     H35234   5.229   8.254   8.263  1.3139  0.7214  0.9741
  980MOL0     H35235   5.392   8.251   8.199 -0.8663  2.3093 -1.7789
  980MOL0     H35236   5.352   7.842   8.265 -1.6382 -0.9319 -1.3714
  980MOL0     H35237   4.797   8.351   8.092 -0.1809 -0.1006  0.3548
  980MOL0     H35238   4.505   8.464   8.190  1.5301  1.1227 -2.4932
  980MOL0     H35239   4.607   8.308   8.220 -0.1123 -0.3359  1.4196
  980MOL0     H35240   4.559   8.412   8.351 -1.0069  0.2704 -0.1808
  981MOL0     O35241   6.227   9.861  11.242  0.7283  0.4997  0.3161
  981MOL0     C35242   6.305   9.798  11.311 -0.6370  0.5661 -0.0134
  981MOL0     O35243   6.304   9.665  11.317 -0.2042 -0.1165 -0.7272
  981MOL0     C35244   6.216   9.592  11.244 -1.4827 -0.1614  0.2990
  981MOL0     C35245   6.078   9.621  11.230  0.1081  0.7127 -1.4847
  981MOL0     C35246   6.003   9.545  11.143 -0.3127 -0.0391 -0.2321
  981MOL0     C35247   6.056   9.443  11.069 -0.8813 -0.1559 -0.7187
  981MOL0     O35248   5.972   9.373  10.986  0.7997  0.3644 -0.4482
  981MOL0     C35249   6.035   9.306  10.878 -0.1035  0.2422  0.4215
  981MOL0     C35250   5.922   9.298  10.772 -1.3369  0.0985  0.0180
  981MOL0     C35251   5.975   9.234  10.647  0.4024 -0.4707  0.0423
  981MOL0     C35252   5.866   9.236  10.546  0.8006  0.0947  0.0777
  981MOL0     C35253   5.934   9.198  10.415  0.6148 -0.0528  0.1021
  981MOL0     C35254   5.827   9.199  10.298  0.3291  0.4327 -0.2843
  981MOL0     C35255   5.733   9.321  10.290  0.6963 -0.0949  0.0611
  981MOL0     C35256   5.639   9.317  10.169  0.1556  0.5239 -0.6103
  981MOL0     N35257   5.704   9.308  10.036  0.2052 -0.0277 -0.0395
  981MOL0     C35258   5.811   9.378   9.995  0.0595 -0.8753 -0.6482
  981MOL0     C35259   5.837   9.331   9.872 -0.4488 -0.0872 -0.3542
  981MOL0     C35260   5.942   9.388   9.783  0.3269  0.5141  0.1871
  981MOL0     C35261   5.883   9.445   9.651 -0.5890  0.4907  0.2401
  981MOL0     C35262   5.820   9.588   9.669 -0.8935  0.5157  0.0501
  981MOL0     C35263   5.922   9.694   9.714 -0.1956  0.2673 -0.3174
  981MOL0     O35264   6.036   9.698   9.636 -0.7989 -0.2245  0.1688
  981MOL0     C35265   6.151   9.747   9.701 -0.0983 -0.4191 -0.1132
  981MOL0     C35266   6.251   9.662   9.746  0.2732 -0.1943 -0.0875
  981MOL0     C35267   6.365   9.702   9.821 -0.4084 -0.0690  0.4264
  981MOL0     C35268   6.472   9.597   9.840 -0.2025 -0.0889 -0.0540
  981MOL0     C35269   6.370   9.837   9.871 -0.3114 -0.4237  0.2911
  981MOL0     C35270   6.471   9.881   9.965  0.6284 -0.4049  0.0919
  981MOL0     O35271   6.424   9.981  10.046 -0.7151  0.1683  0.1324
  981MOL0     C35272   6.507  10.090  10.089 -0.3592  0.4985 -0.4159
  981MOL0     C35273   6.649  10.082  10.121 -0.1032 -0.5282 -0.1449
  981MOL0     C35274   6.726  10.189  10.167  0.2342  0.3372  0.1013
  981MOL0     C35275   6.669  10.314  10.170  0.2201 -0.3158 -0.1308
  981MOL0     O35276   6.756  10.412  10.197 -0.0905  1.0991  0.1090
  981MOL0     C35277   6.702  10.538  10.249 -0.3381  0.1595  0.1670
  981MOL0     C35278   6.807  10.644  10.241  0.1342 -0.1651  0.6516
  981MOL0     C35279   6.930  10.602  10.328 -0.5396 -0.2567 -0.9837
  981MOL0     C35280   7.059  10.688  10.324  0.8581  0.4299 -0.0047
  981MOL0     C35281   7.156  10.649  10.429 -1.0192 -0.9454 -0.9736
  981MOL0     C35282   7.241  10.770  10.472 -0.4875  0.1969 -0.3356
  981MOL0     C35283   7.284  10.744  10.623 -0.2770  0.1964 -0.0722
  981MOL0     C35284   7.390  10.845  10.662  0.6948  0.5392 -0.1460
  981MOL0    Cl35285   7.425  10.822  10.838  0.0524 -0.2168 -0.0663
  981MOL0     C35286   6.526  10.324  10.146 -0.0119 -0.2373  1.0220
  981MOL0     C35287   6.452  10.216  10.106  0.0835  0.2193 -0.0209
  981MOL0     O35288   6.588   9.849   9.953 -0.3343 -0.1281  0.1787
  981MOL0     C35289   6.268   9.923   9.823  0.1135  0.2053  0.7191
  981MOL0     C35290   6.162   9.883   9.735 -0.1849 -0.0153 -0.8353
  981MOL0     N35291   5.757   9.222   9.851  0.2194 -0.0582  0.2526
  981MOL0     N35292   5.679   9.210   9.945 -0.6234  0.4232  0.3399
  981MOL0     C35293   6.186   9.400  11.091 -0.3669 -0.3062  0.0474
  981MOL0     C35294   6.271   9.477  11.177 -0.0231 -1.0199 -0.4462
  981MOL0     C35295   6.414   9.870  11.394 -1.2777  0.4723  0.1316
  981MOL0     C35296   6.499   9.790  11.474 -0.0461 -0.0230  0.8094
  981MOL0     C35297   6.616   9.829  11.550  0.2232 -0.3856  0.2980
  981MOL0     C35298   6.642   9.966  11.534  0.3927  0.8638 -0.6324
  981MOL0     O35299   6.746  10.026  11.597  0.5293  0.2870  0.1613
  981MOL0     C35300   6.867   9.957  11.591  0.6257  0.1421  0.7310
  981MOL0     C35301   6.971  10.034  11.672  0.5230  0.2078 -0.5855
  981MOL0     C35302   7.102   9.960  11.680 -0.2161  0.0750 -0.3231
  981MOL0     C35303   7.208  10.034  11.758 -0.1350 -0.0530  0.6858
  981MOL0     C35304   7.318   9.939  11.787  0.4270 -0.2326 -0.2512
  981MOL0     C35305   7.413   9.869  11.818  0.4988  0.1855 -0.4390
  981MOL0     C35306   6.565  10.050  11.443  0.8251 -0.3403  0.2943
  981MOL0     C35307   6.449  10.005  11.378 -0.2671 -0.0169 -0.5664
  981MOL0     C35308   6.389  10.099  11.277  0.2571  0.0227  0.5783
  981MOL0     H35309   6.032   9.700  11.288  0.9165  0.4597 -0.4695
  981MOL0     H35310   5.899   9.572  11.136  0.1503  1.8586 -0.4308
  981MOL0     H35311   6.059   9.204  10.910  1.1140  0.0739 -0.9511
  981MOL0     H35312   6.125   9.351  10.835  0.8448 -0.3878  1.6716
  981MOL0     H35313   5.841   9.245  10.822 -0.2078 -0.8988  0.8565
  981MOL0     H35314   5.887   9.397  10.742 -4.2436 -1.4691 -2.2748
  981MOL0     H35315   6.062   9.274  10.593 -0.1255  0.0033 -0.4778
  981MOL0     H35316   6.018   9.136  10.671 -0.9640 -1.5030 -1.5287
  981MOL0     H35317   5.779   9.175  10.574  1.6368 -0.6250  1.2052
  981MOL0     H35318   5.825   9.338  10.547 -4.9236 -1.8174  0.1114
  981MOL0     H35319   5.988   9.103  10.422  0.6197  0.0052  0.8765
  981MOL0     H35320   6.010   9.274  10.394  0.9635 -0.3174  0.4024
  981MOL0     H35321   5.879   9.190  10.202  2.1825  1.1342  0.6034
  981MOL0     H35322   5.775   9.104  10.314  2.3089 -0.6547  0.0112
  981MOL0     H35323   5.793   9.412  10.285 -0.9105  0.9859 -0.4964
  981MOL0     H35324   5.672   9.334  10.380  1.3272 -1.2071  0.6723
  981MOL0     H35325   5.576   9.228  10.171  1.0300 -0.2761 -3.2196
  981MOL0     H35326   5.577   9.407  10.166  0.4122  0.7567  0.6058
  981MOL0     H35327   5.850   9.464  10.051 -1.7749 -0.2649 -0.2496
  981MOL0     H35328   5.998   9.300   9.751 -2.1732 -1.2812  0.4156
  981MOL0     H35329   6.024   9.446   9.827  2.9200 -1.8954 -1.1167
  981MOL0     H35330   5.967   9.451   9.581 -1.7964 -1.3655 -1.4747
  981MOL0     H35331   5.806   9.381   9.606 -1.8275  3.1612 -1.7440
  981MOL0     H35332   5.789   9.612   9.567 -0.6903  2.7404  0.4571
  981MOL0     H35333   5.743   9.590   9.747 -1.6951  1.8413 -0.7471
  981MOL0     H35334   5.866   9.788   9.707 -0.5496  0.4872  3.3238
  981MOL0     H35335   5.947   9.676   9.819 -0.8334 -1.7186 -0.4601
  981MOL0     H35336   6.241   9.558   9.716 -0.5330 -0.0915 -0.2077
  981MOL0     H35337   6.549   9.606   9.762  1.3529  2.1046  1.6202
  981MOL0     H35338   6.426   9.498   9.833 -0.1615 -0.2957  2.0723
  981MOL0     H35339   6.514   9.621   9.938  2.8878  0.5865 -1.3945
  981MOL0     H35340   6.699   9.988  10.101 -0.5213 -0.7782 -0.0420
  981MOL0     H35341   6.826  10.168  10.201 -1.4029 -1.3184  4.6108
  981MOL0     H35342   6.624  10.576  10.181 -1.5612 -0.6690  1.0576
  981MOL0     H35343   6.659  10.519  10.347  1.8390  0.4289  1.2187
  981MOL0     H35344   6.846  10.653  10.139  0.1871  2.5701  0.8441
  981MOL0     H35345   6.766  10.741  10.271 -1.1292 -0.5320  0.1797
  981MOL0     H35346   6.973  10.503  10.308 -1.7912 -0.9190 -0.4717
  981MOL0     H35347   6.892  10.598  10.431  0.6852  2.9578 -0.2754
  981MOL0     H35348   7.006  10.780  10.347 -4.0453 -2.4994  2.0219
  981MOL0     H35349   7.106  10.688  10.225 -0.1225  0.0391 -0.4945
  981MOL0     H35350   7.098  10.625  10.519  1.1000 -0.0262  0.7212
  981MOL0     H35351   7.228  10.568  10.409  1.3942  0.4146  1.5124
  981MOL0     H35352   7.184  10.863  10.481  0.4669  0.9356 -1.5931
  981MOL0     H35353   7.331  10.779  10.411  0.8662 -2.3005  1.1202
  981MOL0     H35354   7.324  10.644  10.641  1.9088  1.3459  2.1903
  981MOL0     H35355   7.200  10.752  10.693  0.3447 -2.1970  1.0630
  981MOL0     H35356   7.348  10.946  10.656 -2.8159 -0.7627 -0.0707
  981MOL0     H35357   7.479  10.837  10.598  0.4522  1.3065 -0.5973
  981MOL0     H35358   6.479  10.421  10.137  1.9034  0.7780  1.3402
  981MOL0     H35359   6.347  10.218  10.078  0.0499  0.1598  0.1019
  981MOL0     H35360   6.267  10.029   9.848  0.2315  0.3997 -0.0497
  981MOL0     H35361   6.079   9.946   9.702 -0.8211  0.4224  1.4502
  981MOL0     H35362   6.227   9.317  11.036 -0.3082 -0.4951  0.3713
  981MOL0     H35363   6.375   9.453  11.196  0.1588  1.4919  2.6529
  981MOL0     H35364   6.480   9.684  11.490 -1.9966 -0.0713 -1.1868
  981MOL0     H35365   6.680   9.760  11.605  1.5919  0.9373  0.4211
  981MOL0     H35366   6.859   9.856  11.632 -0.0882  0.6977  2.0512
  981MOL0     H35367   6.907   9.954  11.490  0.6399  0.2867  0.7318
  981MOL0     H35368   6.924  10.071  11.764 -1.3328  2.7468 -2.4202
  981MOL0     H35369   7.006  10.121  11.615  2.2147 -0.0038  0.0642
  981MOL0     H35370   7.086   9.865  11.732  1.4573 -1.1733 -1.9696
  981MOL0     H35371   7.137   9.942  11.578  0.4591 -2.6529  0.2983
  981MOL0     H35372   7.169  10.060  11.857 -0.0864 -1.7809  1.1831
  981MOL0     H35373   7.241  10.115  11.693  2.0818 -2.1670 -1.0035
  981MOL0     H35374   7.501   9.809  11.812 -0.7420 -1.7563 -0.0092
  981MOL0     H35375   6.612  10.146  11.423  3.2601 -1.2132  1.4810
  981MOL0     H35376   6.428  10.200  11.294 -3.5612  2.0307 -1.3096
  981MOL0     H35377   6.417  10.070  11.176 -3.7987  0.3029 -0.8252
  981MOL0     H35378   6.280  10.112  11.284 -0.0540  0.7054 -3.2378
  982MOL0     O35379  10.121   3.807  10.104  0.0528  0.5429 -0.1195
  982MOL0     C35380  10.042   3.732  10.162 -0.0610 -0.1311 -0.0789
  982MOL0     O35381  10.054   3.705  10.302  0.9396  0.5637  0.0149
  982MOL0     C35382  10.173   3.713  10.368 -0.0808  0.3555  0.5437
  982MOL0     C35383  10.293   3.687  10.308  0.1750  0.1782  0.7733
  982MOL0     C35384  10.410   3.704  10.377  0.0660  0.4642 -0.2143
  982MOL0     C35385  10.413   3.750  10.508 -0.3931  0.0027 -0.4381
  982MOL0     O35386  10.527   3.770  10.583 -0.4561 -1.2095  0.4503
  982MOL0     C35387  10.655   3.734  10.525  0.2346 -0.2065  0.9011
  982MOL0     C35388  10.757   3.752  10.641 -0.1357  0.1458  0.6520
  982MOL0     C35389  10.751   3.651  10.756  0.2736 -0.8614  0.6669
  982MOL0     C35390  10.870   3.665  10.851 -0.4594  0.0480 -0.0201
  982MOL0     C35391  10.896   3.560  10.957 -0.4665 -0.7500  0.5075
  982MOL0     C35392  11.016   3.590  11.050  0.2841 -0.6882 -0.3839
  982MOL0     C35393  11.078   3.474  11.129  0.0604 -0.4635 -0.6230
  982MOL0     C35394  11.195   3.406  11.056  0.3797 -0.2262 -0.5250
  982MOL0     N35395  11.258   3.301  11.136 -0.3311  0.2861 -0.3804
  982MOL0     C35396  11.336   3.323  11.246  0.3351 -0.1535 -0.4187
  982MOL0     C35397  11.351   3.201  11.304  0.3863 -0.4743  1.1839
  982MOL0     C35398  11.415   3.174  11.436  0.0720  0.2645 -0.0649
  982MOL0     C35399  11.487   3.046  11.432 -0.0474 -0.0486 -0.7867
  982MOL0     C35400  11.580   3.016  11.546 -0.3369 -0.5919  0.4189
  982MOL0     C35401  11.705   3.104  11.561 -0.7736  0.6650  0.0226
  982MOL0     O35402  11.805   3.046  11.470 -0.1643 -0.2304  0.3438
  982MOL0     C35403  11.941   3.059  11.508  0.7941 -0.4937  0.9700
  982MOL0     C35404  11.985   3.159  11.591  0.5386  0.1563 -0.1595
  982MOL0     C35405  12.114   3.168  11.643  0.2026 -0.1659  0.7559
  982MOL0     C35406  12.164   3.288  11.715 -0.3119 -0.2276 -0.6619
  982MOL0     C35407  12.203   3.056  11.620  1.2018 -0.6574 -0.3452
  982MOL0     C35408  12.333   3.038  11.692 -0.6543 -0.2282 -0.2087
  982MOL0     O35409  12.437   3.000  11.605  0.0319  0.1090  0.4668
  982MOL0     C35410  12.554   2.964  11.656  1.0885 -0.5102 -0.8262
  982MOL0     C35411  12.559   2.842  11.731  0.3888 -0.2663 -0.2384
  982MOL0     C35412  12.679   2.803  11.791  0.4640  0.0733 -0.2040
  982MOL0     C35413  12.802   2.868  11.767 -0.7386  0.0498  0.0821
  982MOL0     O35414  12.927   2.813  11.790  0.2874 -0.0414 -0.6398
  982MOL0     C35415  12.953   2.787  11.932 -0.6716 -0.0156 -0.4231
  982MOL0     C35416  13.100   2.736  11.948 -0.4517 -0.1235  0.4362
  982MOL0     C35417  13.209   2.843  11.926 -0.3782 -0.0422  0.1006
  982MOL0     C35418  13.349   2.789  11.952  0.6273  0.1172 -1.0512
  982MOL0     C35419  13.449   2.902  11.967 -0.6412  0.5040  0.5834
  982MOL0     C35420  13.597   2.856  11.996  0.3560  0.2928  0.1189
  982MOL0     C35421  13.669   2.820  11.864  0.1398 -0.6753 -0.2113
  982MOL0     C35422  13.813   2.764  11.902  0.8295  0.2546  0.5788
  982MOL0    Cl35423  13.893   2.715  11.749  0.1740  0.3491 -0.5357
  982MOL0     C35424  12.797   2.981  11.679 -0.1943  0.2069 -0.6929
  982MOL0     C35425  12.672   3.020  11.621  0.1312 -0.3276 -0.9472
  982MOL0     O35426  12.353   3.054  11.809 -0.5255 -0.3262  0.0628
  982MOL0     C35427  12.157   2.958  11.535 -0.4038 -0.1701 -0.7835
  982MOL0     C35428  12.029   2.955  11.488  0.4460 -0.6629  0.4551
  982MOL0     N35429  11.290   3.107  11.226  0.1485  0.4540  0.6910
  982MOL0     N35430  11.233   3.166  11.123 -0.7847 -0.1650  0.2616
  982MOL0     C35431  10.287   3.779  10.573 -0.2161  0.2335  0.8238
  982MOL0     C35432  10.168   3.760  10.500  0.2352  0.1252 -0.1443
  982MOL0     C35433   9.924   3.679  10.092 -0.1259  0.4962 -0.4198
  982MOL0     C35434   9.904   3.537  10.095  0.1058  0.5725 -0.4776
  982MOL0     C35435   9.794   3.476  10.044 -0.4167  0.1922  0.5786
  982MOL0     C35436   9.705   3.548   9.961  0.6315  0.5190  0.5289
  982MOL0     O35437   9.597   3.473   9.902  0.0710 -0.0267  0.1516
  982MOL0     C35438   9.501   3.549   9.823 -0.1949  0.1071 -0.9291
  982MOL0     C35439   9.384   3.462   9.805  0.5584  1.0192  0.3235
  982MOL0     C35440   9.272   3.521   9.735  0.0049 -0.2043 -0.4911
  982MOL0     C35441   9.214   3.652   9.796  1.0760  0.2386 -0.5412
  982MOL0     C35442   9.157   3.645   9.934  0.1635 -0.4986 -0.0297
  982MOL0     C35443   9.108   3.634  10.047 -0.7591  0.5016 -0.7446
  982MOL0     C35444   9.740   3.682   9.933 -0.0265  0.3467  0.4802
  982MOL0     C35445   9.837   3.748  10.011 -0.0666  0.0957  0.0601
  982MOL0     C35446   9.846   3.898   9.983  0.0697 -0.2690 -1.1121
  982MOL0     H35447  10.292   3.647  10.208  3.3300 -0.4596  0.9166
  982MOL0     H35448  10.495   3.673  10.317 -1.6277  1.2339 -3.2621
  982MOL0     H35449  10.693   3.793  10.441  0.3770 -1.1540  0.2894
  982MOL0     H35450  10.652   3.628  10.498  1.6358  0.2407 -1.2470
  982MOL0     H35451  10.854   3.745  10.591  0.1163  0.7317  1.0489
  982MOL0     H35452  10.736   3.856  10.669  0.0381  0.1746  0.6771
  982MOL0     H35453  10.655   3.651  10.808  0.0968 -3.9048  0.5179
  982MOL0     H35454  10.753   3.553  10.707  1.2931 -0.4185 -0.2270
  982MOL0     H35455  10.958   3.672  10.786  0.6187  2.3782  1.5502
  982MOL0     H35456  10.873   3.762  10.902 -0.0792  0.1345 -0.1953
  982MOL0     H35457  10.916   3.462  10.912  0.0954 -0.5340  0.2716
  982MOL0     H35458  10.807   3.548  11.020 -0.2173 -4.1093  0.4443
  982MOL0     H35459  11.092   3.643  10.992 -0.8977 -0.0816 -1.4402
  982MOL0     H35460  10.987   3.663  11.126  0.8570 -0.6608 -0.1853
  982MOL0     H35461  10.999   3.400  11.143 -0.1846  0.1555  1.5312
  982MOL0     H35462  11.101   3.522  11.224 -2.7552  0.4654 -0.3102
  982MOL0     H35463  11.154   3.363  10.964 -2.5926 -1.5951  1.3057
  982MOL0     H35464  11.268   3.478  11.017  0.8930  0.0414  0.8998
  982MOL0     H35465  11.359   3.422  11.286  1.5297 -0.1824 -0.9821
  982MOL0     H35466  11.350   3.188  11.523  0.7955  0.3067  0.4688
  982MOL0     H35467  11.487   3.255  11.450  1.4174 -1.0801  1.0099
  982MOL0     H35468  11.409   2.971  11.419 -1.0610  0.4504  1.9103
  982MOL0     H35469  11.541   3.052  11.337 -2.6972  1.8572 -2.3008
  982MOL0     H35470  11.516   3.018  11.635 -0.2415 -0.1339  0.4772
  982MOL0     H35471  11.615   2.914  11.530 -5.4850 -2.5271 -0.5149
  982MOL0     H35472  11.683   3.209  11.543 -4.0586 -0.1884 -1.7769
  982MOL0     H35473  11.747   3.101  11.662  0.9517  2.2163 -0.5814
  982MOL0     H35474  11.924   3.245  11.619 -0.4635 -1.4789  3.1351
  982MOL0     H35475  12.087   3.363  11.694 -1.2640 -0.5004  1.5578
  982MOL0     H35476  12.268   3.321  11.708 -0.0487 -0.7408  0.5971
  982MOL0     H35477  12.163   3.268  11.823 -2.6006  0.8460 -0.4134
  982MOL0     H35478  12.464   2.794  11.752  0.6407  0.6061  3.6634
  982MOL0     H35479  12.671   2.721  11.862  0.1498  0.5348  0.2965
  982MOL0     H35480  12.943   2.875  11.997 -0.5512 -0.8479  0.7642
  982MOL0     H35481  12.888   2.707  11.970  0.7380 -0.7087  0.6182
  982MOL0     H35482  13.116   2.706  12.052 -3.1212 -1.5952  0.5193
  982MOL0     H35483  13.118   2.656  11.876 -1.6002  0.2294 -0.2820
  982MOL0     H35484  13.202   2.923  12.001 -0.4835 -2.3161  2.6950
  982MOL0     H35485  13.211   2.888  11.827  0.2562  1.3566  0.7186
  982MOL0     H35486  13.385   2.735  11.865  0.4311  0.6404 -1.4618
  982MOL0     H35487  13.362   2.716  12.033 -0.6067 -0.7354 -1.5884
  982MOL0     H35488  13.438   2.982  11.894 -3.0890  1.3885  1.8012
  982MOL0     H35489  13.419   2.948  12.061  1.0122  1.3770  0.7155
  982MOL0     H35490  13.582   2.766  12.055 -2.4392 -1.0533 -2.3483
  982MOL0     H35491  13.649   2.936  12.050  2.6538  0.3277 -1.9789
  982MOL0     H35492  13.667   2.908  11.798  1.5173  1.3281  2.2260
  982MOL0     H35493  13.610   2.736  11.828 -0.7788 -0.8943  1.6502
  982MOL0     H35494  13.801   2.667  11.952 -1.6221 -0.5241 -1.3254
  982MOL0     H35495  13.869   2.841  11.956 -0.6437  1.0709  1.0034
  982MOL0     H35496  12.883   3.044  11.663 -0.0505 -0.2728 -1.9413
  982MOL0     H35497  12.667   3.104  11.554 -2.5828 -0.6061 -1.2103
  982MOL0     H35498  12.236   2.888  11.511 -0.8954 -0.6748 -0.9424
  982MOL0     H35499  11.994   2.879  11.419  1.0468 -1.2800  0.8177
  982MOL0     H35500  10.288   3.826  10.671  2.4335  0.1653  0.8892
  982MOL0     H35501  10.071   3.783  10.541  1.4298  0.9619  2.4690
  982MOL0     H35502   9.972   3.474  10.151 -1.6358  1.1166  2.4599
  982MOL0     H35503   9.777   3.370  10.061  0.2346  0.1895  1.2199
  982MOL0     H35504   9.468   3.642   9.872 -1.2706  0.8205 -2.8964
  982MOL0     H35505   9.548   3.580   9.729  1.7959 -1.5997 -0.5681
  982MOL0     H35506   9.359   3.436   9.908  0.3973 -1.8943 -0.3665
  982MOL0     H35507   9.409   3.365   9.761 -1.0221 -0.8048  3.1859
  982MOL0     H35508   9.298   3.535   9.629 -4.4280  3.1128 -1.4306
  982MOL0     H35509   9.192   3.447   9.723 -0.7785  0.5320  0.1215
  982MOL0     H35510   9.122   3.684   9.746  0.5287  0.2227  0.4240
  982MOL0     H35511   9.279   3.739   9.779  2.0963 -0.6309 -1.1482
  982MOL0     H35512   9.059   3.625  10.142 -1.1805 -0.3934 -1.0422
  982MOL0     H35513   9.680   3.740   9.864  0.3140  0.6324  0.4233
  982MOL0     H35514   9.756   3.953  10.012 -0.1215  0.1050 -2.3615
  982MOL0     H35515   9.930   3.944  10.035 -0.4654  0.3459 -0.7791
  982MOL0     H35516   9.846   3.914   9.875  0.0615 -0.5740 -1.1602
  983MOL0     O35517   2.581  10.489   7.101 -0.4734 -0.4285 -0.4326
  983MOL0     C35518   2.569  10.573   7.006  0.2919 -1.2346 -0.0938
  983MOL0     O35519   2.671  10.655   6.958 -0.4408  0.1542 -0.6234
  983MOL0     C35520   2.795  10.630   7.003  0.7125  1.3968 -0.0562
  983MOL0     C35521   2.860  10.706   7.096 -0.3125 -0.5318 -0.2250
  983MOL0     C35522   2.996  10.687   7.122  0.1632 -0.7905  0.7255
  983MOL0     C35523   3.070  10.590   7.055 -0.3352 -0.4749 -0.3604
  983MOL0     O35524   3.207  10.585   7.070 -0.0389  0.7646  0.0895
  983MOL0     C35525   3.271  10.687   6.994 -0.6636  1.1200 -0.7340
  983MOL0     C35526   3.409  10.632   6.958 -0.7374 -0.4054  0.7529
  983MOL0     C35527   3.500  10.605   7.075  0.4499  0.3124  0.3253
  983MOL0     C35528   3.642  10.618   7.035 -0.1130  0.0052  0.6909
  983MOL0     C35529   3.678  10.519   6.923 -0.1924  0.4570  0.2961
  983MOL0     C35530   3.831  10.521   6.900  0.4957 -0.0783 -0.4131
  983MOL0     C35531   3.883  10.441   6.788  0.0056  0.4602  0.7504
  983MOL0     C35532   3.977  10.327   6.828 -0.4985  0.0987 -0.2705
  983MOL0     N35533   4.121  10.360   6.841  1.3614  0.4866  0.5339
  983MOL0     C35534   4.173  10.477   6.890 -1.0554  0.0285 -0.9985
  983MOL0     C35535   4.305  10.464   6.861 -1.3642  0.4286  0.0090
  983MOL0     C35536   4.419  10.557   6.907 -0.5711  0.5045  1.5495
  983MOL0     C35537   4.411  10.677   6.822 -0.5411 -0.5858 -0.3134
  983MOL0     C35538   4.517  10.781   6.881 -0.2531 -0.5417 -0.8621
  983MOL0     C35539   4.652  10.722   6.906 -0.2914  0.3998  0.3902
  983MOL0     O35540   4.738  10.839   6.919 -0.1622  0.2587 -0.4613
  983MOL0     C35541   4.872  10.811   6.908 -0.9856 -1.3157  0.2222
  983MOL0     C35542   4.934  10.937   6.909 -0.0293  0.0544 -0.3154
  983MOL0     C35543   5.074  10.947   6.910  0.0017  0.7140 -0.5400
  983MOL0     C35544   5.130  11.089   6.926  0.3333  0.5306  1.4261
  983MOL0     C35545   5.154  10.829   6.908 -0.0534  0.0503  0.1813
  983MOL0     C35546   5.306  10.823   6.912 -0.6023  1.8388  0.2330
  983MOL0     O35547   5.359  10.720   6.836 -0.1069 -0.8176  0.0846
  983MOL0     C35548   5.498  10.711   6.844  0.8413 -0.1364  0.8714
  983MOL0     C35549   5.565  10.666   6.732 -0.7258  1.2251  0.2423
  983MOL0     C35550   5.702  10.643   6.727  0.0447 -0.2442  0.2286
  983MOL0     C35551   5.785  10.670   6.840  0.6896  0.4559 -0.5788
  983MOL0     O35552   5.914  10.645   6.814 -0.6017  0.2919 -0.1638
  983MOL0     C35553   6.014  10.706   6.891 -0.0252  0.7409 -0.9211
  983MOL0     C35554   6.140  10.661   6.829 -0.0688 -0.0146 -0.2135
  983MOL0     C35555   6.261  10.717   6.906  0.3750  0.3448  0.1855
  983MOL0     C35556   6.327  10.623   7.016  0.4063  0.2239  0.0435
  983MOL0     C35557   6.437  10.698   7.093  0.2824  1.1356  0.4245
  983MOL0     C35558   6.553  10.715   6.989  0.2139 -0.3495  0.6306
  983MOL0     C35559   6.682  10.772   7.064 -0.2383  0.4996  0.4032
  983MOL0     C35560   6.794  10.809   6.966  0.3070  0.8289  0.1394
  983MOL0    Cl35561   6.819  10.666   6.868 -0.0705  0.1479 -0.1500
  983MOL0     C35562   5.720  10.713   6.961  0.5034 -0.7116  0.0642
  983MOL0     C35563   5.583  10.725   6.963  0.1967 -1.1998 -0.7592
  983MOL0     O35564   5.365  10.904   6.981 -0.8023 -0.1805 -0.1771
  983MOL0     C35565   5.082  10.708   6.907 -0.3190 -0.8773  0.6707
  983MOL0     C35566   4.943  10.695   6.897  0.0150 -0.1195  0.1595
  983MOL0     N35567   4.328  10.331   6.816  0.0241  0.3011  0.1375
  983MOL0     N35568   4.212  10.275   6.791 -0.5112 -0.0305  0.4627
  983MOL0     C35569   3.000  10.512   6.957 -0.0899 -0.2698 -0.1888
  983MOL0     C35570   2.860  10.528   6.938  0.0674  0.3064  0.3935
  983MOL0     C35571   2.434  10.575   6.936 -0.3203  0.3644 -0.5294
  983MOL0     C35572   2.329  10.490   6.991 -1.0453  0.2243  0.0809
  983MOL0     C35573   2.203  10.495   6.938 -0.4558 -1.0604 -0.4778
  983MOL0     C35574   2.171  10.585   6.835  1.1164  0.2910  0.6286
  983MOL0     O35575   2.040  10.581   6.776 -0.1935  0.8473 -0.1425
  983MOL0     C35576   1.982  10.710   6.750  0.1017  0.5454 -1.2807
  983MOL0     C35577   1.831  10.694   6.784 -0.3584  0.2915 -0.0427
  983MOL0     C35578   1.746  10.638   6.667 -0.5299  0.1102  0.6167
  983MOL0     C35579   1.656  10.744   6.586  0.1907 -0.4654  0.1657
  983MOL0     C35580   1.567  10.829   6.668  0.4621 -0.1957 -1.0660
  983MOL0     C35581   1.486  10.897   6.732  0.1459  1.1758  0.1692
  983MOL0     C35582   2.275  10.661   6.775 -0.1914 -0.1533 -0.8173
  983MOL0     C35583   2.405  10.654   6.824 -0.5270 -0.2684 -0.9866
  983MOL0     C35584   2.502  10.753   6.754  0.2603 -0.0466  0.0452
  983MOL0     H35585   2.803  10.788   7.137  0.1755 -0.7261  0.8869
  983MOL0     H35586   3.042  10.757   7.191 -0.8477  0.7243 -0.0781
  983MOL0     H35587   3.281  10.773   7.060  1.3144  0.5954 -0.2919
  983MOL0     H35588   3.221  10.716   6.901  0.0561 -0.0128 -1.4957
  983MOL0     H35589   3.385  10.541   6.903 -2.5460 -0.3640  1.3850
  983MOL0     H35590   3.464  10.683   6.879 -0.3177 -1.4660  0.3487
  983MOL0     H35591   3.476  10.666   7.162 -0.8379  1.8698 -1.0492
  983MOL0     H35592   3.483  10.502   7.108 -0.1703  0.9495  2.1007
  983MOL0     H35593   3.661  10.718   6.995 -1.3880 -0.8143 -2.2488
  983MOL0     H35594   3.709  10.604   7.120  1.8848 -0.4862 -0.8913
  983MOL0     H35595   3.633  10.553   6.830 -0.5674 -1.8997 -0.4293
  983MOL0     H35596   3.655  10.417   6.955 -1.6278 -0.0395 -2.0989
  983MOL0     H35597   3.857  10.626   6.883 -2.1721  0.7435  0.0232
  983MOL0     H35598   3.882  10.481   6.987  1.9286  0.8240 -0.8130
  983MOL0     H35599   3.943  10.501   6.719  3.0068 -3.1767 -0.1032
  983MOL0     H35600   3.800  10.395   6.733  0.2267  0.7102  0.2009
  983MOL0     H35601   3.947  10.282   6.923  1.4650 -0.7956 -0.0180
  983MOL0     H35602   3.962  10.258   6.745  2.3213 -2.5475  1.2018
  983MOL0     H35603   4.130  10.559   6.947 -0.1376 -0.0244 -0.2086
  983MOL0     H35604   4.516  10.507   6.901 -0.8401  0.1260 -2.6206
  983MOL0     H35605   4.402  10.594   7.008 -0.1483  2.8764  0.8291
  983MOL0     H35606   4.441  10.641   6.724  0.4932 -0.0962 -0.1877
  983MOL0     H35607   4.311  10.722   6.822  0.5775  2.0678 -0.0694
  983MOL0     H35608   4.522  10.866   6.812 -0.5733  0.0565 -0.1756
  983MOL0     H35609   4.479  10.830   6.972 -1.4973  1.9705 -2.6167
  983MOL0     H35610   4.658  10.652   6.990 -2.9664 -0.3189  0.0724
  983MOL0     H35611   4.681  10.667   6.816 -2.0615 -0.3102  0.2171
  983MOL0     H35612   4.875  11.029   6.909  0.0910  0.3128 -4.1314
  983MOL0     H35613   5.205  11.083   7.006  2.5011 -1.4281 -0.5825
  983MOL0     H35614   5.055  11.165   6.949  1.3347  1.4547  1.7565
  983MOL0     H35615   5.179  11.123   6.835 -1.2863  0.6742  0.5730
  983MOL0     H35616   5.516  10.629   6.643 -0.3644  0.5172  0.3210
  983MOL0     H35617   5.753  10.613   6.635 -2.8191  2.1753 -2.3617
  983MOL0     H35618   6.002  10.815   6.897  0.8814  0.7786  0.4799
  983MOL0     H35619   6.002  10.664   6.991 -2.4547 -0.1567 -1.5108
  983MOL0     H35620   6.150  10.552   6.831  1.1019  0.0878  1.1109
  983MOL0     H35621   6.133  10.699   6.727 -0.6699 -0.6945 -0.4401
  983MOL0     H35622   6.238  10.814   6.950  0.4431  0.0866  0.7959
  983MOL0     H35623   6.332  10.728   6.823 -1.3219 -2.5942 -1.8620
  983MOL0     H35624   6.353  10.523   6.982 -2.4582 -1.2416  1.8010
  983MOL0     H35625   6.252  10.601   7.092  0.3373 -1.2171 -0.4212
  983MOL0     H35626   6.413  10.797   7.132 -3.1951 -0.1206  1.8695
  983MOL0     H35627   6.466  10.633   7.176 -1.5443 -1.6235 -0.9378
  983MOL0     H35628   6.535  10.787   6.908  0.2772 -1.3102 -0.2713
  983MOL0     H35629   6.573  10.616   6.947 -1.1344  0.8723 -3.4496
  983MOL0     H35630   6.728  10.703   7.136 -1.1675  1.7819  2.3105
  983MOL0     H35631   6.659  10.864   7.117  0.5291  0.5033  0.7480
  983MOL0     H35632   6.878  10.823   7.035 -0.5068 -0.0175  1.3528
  983MOL0     H35633   6.780  10.898   6.905 -0.1297  0.9660  0.4365
  983MOL0     H35634   5.771  10.722   7.057 -0.7210 -0.3324  0.7008
  983MOL0     H35635   5.542  10.747   7.061  0.8924 -0.8249 -0.5449
  983MOL0     H35636   5.120  10.606   6.904 -0.9613 -1.1005 -0.1187
  983MOL0     H35637   4.906  10.594   6.886 -3.5301  0.5213  3.7156
  983MOL0     H35638   3.037  10.424   6.905 -1.2420 -0.7387 -0.2540
  983MOL0     H35639   2.808  10.470   6.863 -2.0337  1.9037  0.5245
  983MOL0     H35640   2.354  10.426   7.075  2.3377  2.7715  1.2633
  983MOL0     H35641   2.133  10.433   6.992  1.2534 -1.3675  1.4973
  983MOL0     H35642   2.023  10.779   6.825  0.8140 -1.8680  0.6863
  983MOL0     H35643   2.004  10.741   6.647 -0.5487  0.3112 -1.4981
  983MOL0     H35644   1.788  10.788   6.822 -2.5988  0.3397 -2.3907
  983MOL0     H35645   1.832  10.618   6.863  1.0369 -1.8987 -2.0431
  983MOL0     H35646   1.813  10.597   6.591 -1.8175  1.5960 -1.3947
  983MOL0     H35647   1.686  10.557   6.709  2.2085 -0.8420  3.0352
  983MOL0     H35648   1.591  10.682   6.524  0.8502 -2.2588  1.2019
  983MOL0     H35649   1.724  10.803   6.524  1.2008  0.5392  2.1357
  983MOL0     H35650   1.425  10.962   6.792 -2.1124 -1.2165  0.6301
  983MOL0     H35651   2.246  10.726   6.694 -1.4827 -2.0526 -1.9438
  983MOL0     H35652   2.549  10.825   6.822  2.0083 -1.0778  0.0051
  983MOL0     H35653   2.577  10.684   6.714 -0.7554 -1.2166  0.1147
  983MOL0     H35654   2.446  10.802   6.674 -1.2543 -0.9395  0.5207
  984MOL0     O35655  10.289   5.245   2.742  0.3774 -0.2152  0.1685
  984MOL0     C35656  10.382   5.291   2.673 -0.5487 -0.5441 -0.5421
  984MOL0     O35657  10.506   5.294   2.720 -0.7786  0.2673 -0.4515
  984MOL0     C35658  10.534   5.211   2.828  0.3676 -0.5989  0.3152
  984MOL0     C35659  10.490   5.084   2.838 -0.2873 -0.1100 -0.3544
  984MOL0     C35660  10.540   5.001   2.934 -0.0952 -0.1257 -0.1794
  984MOL0     C35661  10.633   5.045   3.032 -0.3287 -0.0610 -0.6071
  984MOL0     O35662  10.684   4.964   3.127  0.2171  0.4328  0.3752
  984MOL0     C35663  10.701   4.825   3.083  0.1023 -0.6949  0.5202
  984MOL0     C35664  10.780   4.755   3.184 -0.5546 -0.0730 -0.2517
  984MOL0     C35665  10.708   4.766   3.326  0.0421  0.4156  0.4948
  984MOL0     C35666  10.814   4.781   3.440  0.4254 -0.4281  0.9279
  984MOL0     C35667  10.883   4.922   3.460  0.0558  0.1796 -0.7403
  984MOL0     C35668  10.793   5.033   3.506  0.0332  0.4272  1.2001
  984MOL0     C35669  10.852   5.154   3.590 -0.5102 -0.3395  0.4729
  984MOL0     C35670  10.776   5.287   3.592 -0.4830  0.8256  0.1100
  984MOL0     N35671  10.652   5.289   3.662 -0.3769 -0.1514  0.4168
  984MOL0     C35672  10.536   5.245   3.618  0.1551 -0.6696  0.3078
  984MOL0     C35673  10.458   5.215   3.722  0.0748  0.0552 -0.7216
  984MOL0     C35674  10.311   5.174   3.710 -0.1004  0.3744  0.5509
  984MOL0     C35675  10.282   5.035   3.759 -0.4904  0.1771 -0.3545
  984MOL0     C35676  10.366   4.930   3.680 -0.1872  0.3845 -0.1871
  984MOL0     C35677  10.345   4.792   3.747  0.2935 -0.5896 -0.1749
  984MOL0     O35678  10.438   4.703   3.688  0.2414  0.0165 -0.3765
  984MOL0     C35679  10.434   4.572   3.728 -0.4860 -0.1653  0.1171
  984MOL0     C35680  10.548   4.496   3.679  0.6650 -0.0255  0.8350
  984MOL0     C35681  10.557   4.364   3.710  0.0096 -0.4054  0.6460
  984MOL0     C35682  10.667   4.274   3.642 -0.4090 -0.0468 -0.4640
  984MOL0     C35683  10.467   4.306   3.806  0.4352 -0.6836  0.1226
  984MOL0     C35684  10.459   4.165   3.848  0.1336  0.6080  0.7721
  984MOL0     O35685  10.351   4.130   3.924  0.5464 -0.5310 -0.0379
  984MOL0     C35686  10.327   3.997   3.948 -0.5757  0.9681 -0.4954
  984MOL0     C35687  10.415   3.923   4.025 -0.6764  0.0641  1.4357
  984MOL0     C35688  10.378   3.797   4.059  0.0177  0.6130 -0.0608
  984MOL0     C35689  10.255   3.733   4.016 -0.4627  0.0823  0.5593
  984MOL0     O35690  10.220   3.609   4.045 -0.1412 -0.5102 -0.1707
  984MOL0     C35691  10.217   3.585   4.188 -1.2139  0.4042  0.0549
  984MOL0     C35692  10.119   3.475   4.225 -0.1448  0.0384  0.2071
  984MOL0     C35693  10.117   3.464   4.376  0.1768  0.3659 -0.0652
  984MOL0     C35694   9.990   3.393   4.432 -0.4143  1.2688 -0.5681
  984MOL0     C35695  10.018   3.246   4.475  0.1258  1.0536 -1.1854
  984MOL0     C35696  10.100   3.216   4.600 -0.0899 -0.5882 -0.4629
  984MOL0     C35697  10.173   3.079   4.592 -0.0714  0.3058 -0.4841
  984MOL0     C35698  10.271   3.055   4.706  0.3704 -0.3193 -0.6633
  984MOL0    Cl35699  10.199   3.081   4.869  0.0436  0.1471 -0.1429
  984MOL0     C35700  10.175   3.806   3.933 -0.6573 -0.1309 -0.2513
  984MOL0     C35701  10.215   3.939   3.900  1.4469 -0.5775 -0.6027
  984MOL0     O35702  10.548   4.085   3.814 -0.5625  0.0381  0.3999
  984MOL0     C35703  10.363   4.388   3.857  0.3235  0.1633 -0.0295
  984MOL0     C35704  10.343   4.521   3.820 -0.5971 -0.1305 -0.4759
  984MOL0     N35705  10.536   5.259   3.829  1.0306  0.2545 -0.0442
  984MOL0     N35706  10.639   5.318   3.795 -0.3465 -0.4917  0.9015
  984MOL0     C35707  10.675   5.177   3.021 -0.3562 -0.1871  0.0059
  984MOL0     C35708  10.636   5.258   2.914 -0.3707 -0.3087  0.6960
  984MOL0     C35709  10.341   5.358   2.552 -0.3324  0.1481  0.7413
  984MOL0     C35710  10.209   5.350   2.508  0.2013 -0.1679 -0.6753
  984MOL0     C35711  10.158   5.423   2.409 -0.8728 -0.0800  0.6229
  984MOL0     C35712  10.245   5.512   2.336  0.4379 -1.1999  0.0517
  984MOL0     O35713  10.177   5.573   2.228 -0.5503  0.0306 -0.0139
  984MOL0     C35714  10.258   5.617   2.117 -0.7306  0.2156  0.8377
  984MOL0     C35715  10.293   5.508   2.015 -0.1350 -0.1579  0.6836
  984MOL0     C35716  10.360   5.566   1.892 -1.1391 -0.1535  0.8019
  984MOL0     C35717  10.372   5.459   1.777 -0.0716 -0.7366 -0.1138
  984MOL0     C35718  10.456   5.338   1.812  0.4445  0.5768  0.0607
  984MOL0     C35719  10.528   5.241   1.836  0.3767 -0.6674 -0.6107
  984MOL0     C35720  10.374   5.524   2.370 -0.6466  0.7454 -0.2036
  984MOL0     C35721  10.434   5.444   2.471  0.4372  0.6044  0.0732
  984MOL0     C35722  10.582   5.452   2.492  0.3624  0.6874 -0.1847
  984MOL0     H35723  10.418   5.050   2.764  0.5347 -0.7015 -0.8899
  984MOL0     H35724  10.521   4.894   2.933  2.8924 -0.7620 -0.6865
  984MOL0     H35725  10.749   4.819   2.985 -0.7987  0.4180 -0.0156
  984MOL0     H35726  10.608   4.772   3.061 -0.1734 -0.8392  1.9414
  984MOL0     H35727  10.797   4.650   3.159 -3.5262  0.1371 -4.0268
  984MOL0     H35728  10.880   4.799   3.188  0.4102 -1.9988 -1.7995
  984MOL0     H35729  10.627   4.840   3.328  1.8612  2.4829  2.2387
  984MOL0     H35730  10.645   4.678   3.336  0.8539 -0.2151  0.1459
  984MOL0     H35731  10.758   4.766   3.532  3.6828 -0.8447  3.0009
  984MOL0     H35732  10.874   4.689   3.431  0.8338 -0.0413 -0.6922
  984MOL0     H35733  10.937   4.950   3.370  2.1481 -2.8248 -0.5741
  984MOL0     H35734  10.951   4.912   3.545  0.6576 -0.1361 -1.2451
  984MOL0     H35735  10.758   5.081   3.415 -0.0894 -3.0642 -0.7844
  984MOL0     H35736  10.713   4.985   3.564  1.1180 -1.1549  1.4402
  984MOL0     H35737  10.948   5.168   3.540 -0.3318 -2.2133  0.2124
  984MOL0     H35738  10.864   5.115   3.691 -1.9119 -1.4151  0.2587
  984MOL0     H35739  10.853   5.336   3.653  2.2450 -1.7540 -0.9861
  984MOL0     H35740  10.764   5.336   3.495 -3.0137  0.8709  0.3789
  984MOL0     H35741  10.509   5.235   3.513 -0.9739 -0.5834  0.5780
  984MOL0     H35742  10.267   5.187   3.611 -0.3409 -1.8691  0.3133
  984MOL0     H35743  10.268   5.243   3.782  1.5902  3.0770 -0.8648
  984MOL0     H35744  10.295   5.026   3.867 -1.5741  2.8749  0.0748
  984MOL0     H35745  10.175   5.017   3.770 -0.4822  1.3991  2.6297
  984MOL0     H35746  10.335   4.937   3.575 -3.0986  1.0486  0.6188
  984MOL0     H35747  10.473   4.950   3.685  0.5529 -2.8894 -0.5812
  984MOL0     H35748  10.343   4.798   3.856 -0.0813 -0.4930 -0.1862
  984MOL0     H35749  10.245   4.762   3.714 -0.0020 -0.2742  0.4061
  984MOL0     H35750  10.619   4.551   3.617  0.3732 -0.6658 -0.0698
  984MOL0     H35751  10.699   4.332   3.555  1.0032  2.3791  1.5387
  984MOL0     H35752  10.636   4.174   3.613 -0.3707 -0.7665  1.7436
  984MOL0     H35753  10.755   4.264   3.707 -0.0411 -0.9947 -1.0882
  984MOL0     H35754  10.515   3.955   4.052 -0.4351  1.6153 -0.9938
  984MOL0     H35755  10.439   3.724   4.111 -0.4343  0.6672  0.5541
  984MOL0     H35756  10.321   3.556   4.207 -1.0007  0.2772 -1.2135
  984MOL0     H35757  10.195   3.674   4.249  2.2908  1.8266 -0.5206
  984MOL0     H35758  10.017   3.491   4.189 -0.3007  1.6548  1.3021
  984MOL0     H35759  10.159   3.394   4.163  0.4310  2.0123 -2.1867
  984MOL0     H35760  10.127   3.566   4.413 -2.1663  1.3725 -1.9834
  984MOL0     H35761  10.208   3.412   4.409 -0.9172 -0.1055  2.4300
  984MOL0     H35762   9.912   3.390   4.355 -0.5183 -0.3404 -0.4193
  984MOL0     H35763   9.952   3.459   4.511 -0.1395  0.8799 -0.1095
  984MOL0     H35764   9.919   3.204   4.492  0.2245  0.8686 -1.0565
  984MOL0     H35765  10.068   3.198   4.390 -1.3872 -0.6014 -1.2015
  984MOL0     H35766  10.038   3.236   4.687  2.3684  1.8552  0.8918
  984MOL0     H35767  10.180   3.290   4.605  0.8042 -1.5332 -0.3585
  984MOL0     H35768  10.225   3.076   4.495  0.8264  3.4848 -0.2192
  984MOL0     H35769  10.100   2.998   4.601  0.7525 -0.7462 -2.5751
  984MOL0     H35770  10.348   3.133   4.700  3.2013 -2.3101  4.3573
  984MOL0     H35771  10.307   2.952   4.700  0.5688 -0.2351 -0.9845
  984MOL0     H35772  10.080   3.764   3.899  0.8155 -0.5036 -4.4932
  984MOL0     H35773  10.148   4.010   3.854  2.6591  0.6188 -0.5739
  984MOL0     H35774  10.288   4.349   3.925 -1.5096 -1.1749 -2.6563
  984MOL0     H35775  10.273   4.585   3.872 -0.6253 -0.8576  0.3926
  984MOL0     H35776  10.746   5.207   3.097 -0.6692  0.7936 -0.0704
  984MOL0     H35777  10.681   5.357   2.905  1.1503 -1.1417 -2.4120
  984MOL0     H35778  10.141   5.281   2.556  1.2554 -0.2625  0.7667
  984MOL0     H35779  10.054   5.412   2.378 -0.3329 -1.2027 -0.8905
  984MOL0     H35780  10.198   5.696   2.070 -1.2556  1.4222  3.3734
  984MOL0     H35781  10.355   5.661   2.139 -1.1447  2.0003 -0.6415
  984MOL0     H35782  10.203   5.457   1.980  0.1187  0.4357 -0.9145
  984MOL0     H35783  10.365   5.439   2.060  0.3136 -1.0034 -1.2516
  984MOL0     H35784  10.304   5.648   1.845 -1.4972  0.3910  2.1539
  984MOL0     H35785  10.464   5.597   1.906 -0.6525 -1.0935 -0.4623
  984MOL0     H35786  10.403   5.503   1.682  2.3337 -2.0524 -0.0070
  984MOL0     H35787  10.270   5.425   1.756 -1.3903  1.8695  1.4175
  984MOL0     H35788  10.586   5.154   1.863  2.5289  0.3613 -1.7046
  984MOL0     H35789  10.444   5.587   2.316  2.7446 -0.9704  1.7999
  984MOL0     H35790  10.611   5.537   2.554 -0.6348  0.7068  0.2722
  984MOL0     H35791  10.629   5.360   2.526  0.6544  1.0718  0.4801
  984MOL0     H35792  10.622   5.467   2.391  0.4832  0.6867 -0.1374
  985MOL0     O35793   9.013   8.553   0.813 -0.4561 -0.4450 -0.0834
  985MOL0     C35794   8.905   8.508   0.771  0.3134  0.0111 -0.0697
  985MOL0     O35795   8.894   8.411   0.671 -0.3369  0.6756 -0.9313
  985MOL0     C35796   8.996   8.370   0.592 -0.9161 -0.3471 -0.3961
  985MOL0     C35797   9.110   8.304   0.651  0.2124 -0.3063  0.0231
  985MOL0     C35798   9.208   8.260   0.561 -0.3711 -0.2730  0.6748
  985MOL0     C35799   9.210   8.304   0.423 -0.5583 -0.7413 -0.1615
  985MOL0     O35800   9.317   8.268   0.345  0.5146  0.1702 -0.0737
  985MOL0     C35801   9.343   8.343   0.231 -0.3437  0.1240  0.4586
  985MOL0     C35802   9.492   8.320   0.202 -0.2758  0.3631  0.0985
  985MOL0     C35803   9.590   8.344   0.320 -0.0186  0.2206  0.2233
  985MOL0     C35804   9.730   8.370   0.255 -0.6532  0.2290 -0.5618
  985MOL0     C35805   9.828   8.414   0.366  0.0986 -0.9062  0.4162
  985MOL0     C35806   9.962   8.445   0.309 -0.4779 -0.2524  0.3088
  985MOL0     C35807  10.056   8.493   0.425  0.5390  0.2290 -0.6753
  985MOL0     C35808  10.193   8.530   0.385 -0.9884 -0.1790  0.0126
  985MOL0     N35809  10.257   8.423   0.312  0.9038  0.8757 -0.2272
  985MOL0     C35810  10.323   8.315   0.368 -0.4247  0.7323  0.2728
  985MOL0     C35811  10.394   8.244   0.275  0.5679  0.0189 -0.0336
  985MOL0     C35812  10.482   8.122   0.293 -0.5547  0.0710 -0.3182
  985MOL0     C35813  10.454   8.001   0.203  0.1552 -0.0475  0.2616
  985MOL0     C35814  10.569   7.913   0.204 -0.2590 -0.9703  0.2924
  985MOL0     C35815  10.564   7.821   0.074 -0.2486 -0.8328  0.3511
  985MOL0     O35816  10.660   7.855  -0.032  0.0160  0.0190  0.3775
  985MOL0     C35817  10.796   7.818  -0.017  0.2653  0.0125  0.5822
  985MOL0     C35818  10.843   7.728   0.078 -0.3002  0.4298 -0.1475
  985MOL0     C35819  10.979   7.698   0.090 -0.8228 -0.1552  0.1378
  985MOL0     C35820  11.018   7.596   0.199  0.1444  0.0158 -0.0090
  985MOL0     C35821  11.072   7.756  -0.006  0.0391  0.3078  0.0792
  985MOL0     C35822  11.224   7.730  -0.004  0.9377  0.5096 -0.8455
  985MOL0     O35823  11.289   7.762  -0.112  0.0702 -0.2772  0.0504
  985MOL0     C35824  11.419   7.716  -0.124  0.3230  0.6767  0.4762
  985MOL0     C35825  11.447   7.593  -0.178  0.1630  0.5656  0.4417
  985MOL0     C35826  11.582   7.561  -0.212 -0.9956  0.4614 -0.4193
  985MOL0     C35827  11.689   7.649  -0.184  0.4184 -0.2493 -0.0589
  985MOL0     O35828  11.810   7.607  -0.231 -0.1594 -0.4764 -0.4446
  985MOL0     C35829  11.920   7.652  -0.154 -0.3408  0.9314  0.2275
  985MOL0     C35830  12.062   7.610  -0.204  0.0654 -0.1608 -0.3324
  985MOL0     C35831  12.169   7.669  -0.119  0.5886 -0.9215  0.5011
  985MOL0     C35832  12.303   7.648  -0.182 -0.9704  0.0256  0.1398
  985MOL0     C35833  12.405   7.728  -0.097  0.4631  0.7169  0.2943
  985MOL0     C35834  12.499   7.792  -0.205 -0.0820 -0.3541 -0.3135
  985MOL0     C35835  12.621   7.878  -0.150 -0.2441  0.2692  0.1865
  985MOL0     C35836  12.702   7.789  -0.045  0.5929 -0.3921 -0.5210
  985MOL0    Cl35837  12.623   7.846   0.116 -0.4583 -0.4061 -0.0919
  985MOL0     C35838  11.655   7.773  -0.121  0.3718 -0.7988  0.4878
  985MOL0     C35839  11.524   7.795  -0.077 -0.1554  0.4988  0.8197
  985MOL0     O35840  11.277   7.708   0.103  0.1025  0.8016 -0.1919
  985MOL0     C35841  11.018   7.832  -0.112  0.6328 -0.1804 -0.7849
  985MOL0     C35842  10.881   7.857  -0.121  0.0613 -0.5173 -0.0092
  985MOL0     N35843  10.377   8.312   0.157  0.1919  1.2477 -0.0278
  985MOL0     N35844  10.288   8.406   0.179 -0.0698 -0.6867 -0.1174
  985MOL0     C35845   9.095   8.366   0.371 -0.4825 -0.9554 -0.0455
  985MOL0     C35846   8.987   8.397   0.459  0.4542 -0.6244  0.5925
  985MOL0     C35847   8.778   8.549   0.852 -0.3250  0.1064 -0.0268
  985MOL0     C35848   8.659   8.528   0.780 -0.1582  0.0813  0.2698
  985MOL0     C35849   8.529   8.562   0.838  0.2162  0.4874 -0.2069
  985MOL0     C35850   8.534   8.621   0.958 -0.4135  0.6022 -0.3261
  985MOL0     O35851   8.411   8.659   0.989 -0.0458 -0.1883  0.1839
  985MOL0     C35852   8.393   8.774   1.069  0.0721  0.4460 -0.3269
  985MOL0     C35853   8.255   8.836   1.052  1.0700  0.0417 -0.4893
  985MOL0     C35854   8.227   8.945   1.156  0.7114 -0.1503  0.4228
  985MOL0     C35855   8.080   8.971   1.187  0.6635  0.0387  0.5720
  985MOL0     C35856   8.065   9.087   1.289 -0.1815 -0.4751  1.1246
  985MOL0     C35857   8.053   9.172   1.374 -0.1252  0.3815 -0.0049
  985MOL0     C35858   8.651   8.636   1.042  0.1974 -0.0370  0.2383
  985MOL0     C35859   8.774   8.594   0.988  0.9338 -0.7135 -0.2557
  985MOL0     C35860   8.885   8.608   1.091 -0.6004  0.2129  0.7792
  985MOL0     H35861   9.098   8.285   0.757 -2.1079 -0.9477 -0.2856
  985MOL0     H35862   9.296   8.204   0.590 -0.3162 -0.2635  0.5288
  985MOL0     H35863   9.325   8.451   0.244 -1.5826 -0.2279  1.9379
  985MOL0     H35864   9.282   8.295   0.154  2.1548  0.3540 -1.7970
  985MOL0     H35865   9.517   8.220   0.166  1.0006  0.3051  1.1037
  985MOL0     H35866   9.518   8.390   0.123  0.5998  1.6578  1.4858
  985MOL0     H35867   9.563   8.443   0.359  1.0153 -0.3446  2.5896
  985MOL0     H35868   9.585   8.259   0.390  1.5062  1.4321  1.8945
  985MOL0     H35869   9.767   8.283   0.201  0.3347  0.8220 -0.8601
  985MOL0     H35870   9.716   8.444   0.175 -1.1637  0.4802 -0.2513
  985MOL0     H35871   9.846   8.338   0.442  0.4663 -3.2833 -1.8684
  985MOL0     H35872   9.796   8.503   0.420  2.5574 -0.6940  1.6568
  985MOL0     H35873   9.993   8.352   0.259 -0.8482 -2.2519  3.4744
  985MOL0     H35874   9.952   8.522   0.232 -1.6901 -0.8290 -0.1433
  985MOL0     H35875  10.063   8.416   0.503  1.4334 -0.3457 -1.3137
  985MOL0     H35876  10.022   8.582   0.479 -0.0178 -1.5438  2.1490
  985MOL0     H35877  10.194   8.624   0.328  0.7398  0.4843  1.0853
  985MOL0     H35878  10.256   8.543   0.473  0.9410  2.4995 -1.6054
  985MOL0     H35879  10.337   8.297   0.475  0.8648 -0.5187 -0.0794
  985MOL0     H35880  10.472   8.089   0.396 -1.2514  1.6794  0.1697
  985MOL0     H35881  10.580   8.162   0.262 -1.0478 -0.8264 -3.3490
  985MOL0     H35882  10.365   7.951   0.241 -1.8321  0.9366 -2.7236
  985MOL0     H35883  10.432   8.036   0.102 -2.3258  0.4505  0.9253
  985MOL0     H35884  10.664   7.966   0.218 -0.1729 -0.8271 -0.8089
  985MOL0     H35885  10.572   7.846   0.291  0.9223  1.1515  1.9792
  985MOL0     H35886  10.571   7.716   0.104 -0.4380 -1.3520 -1.3147
  985MOL0     H35887  10.464   7.827   0.029  0.0578  0.2138 -0.2232
  985MOL0     H35888  10.769   7.689   0.147 -1.2760  0.8382 -0.9328
  985MOL0     H35889  11.029   7.492   0.167  1.9026 -0.1454  1.0015
  985MOL0     H35890  10.942   7.586   0.277 -1.2313 -2.7582 -1.5539
  985MOL0     H35891  11.111   7.629   0.246 -0.2227  0.5646  0.3509
  985MOL0     H35892  11.370   7.521  -0.203  0.8180 -0.7114  1.9607
  985MOL0     H35893  11.607   7.474  -0.272 -1.2586 -0.6064  0.9778
  985MOL0     H35894  11.919   7.759  -0.133  0.7304  0.9182  0.4075
  985MOL0     H35895  11.904   7.602  -0.058 -1.2158 -0.7375 -0.7518
  985MOL0     H35896  12.067   7.501  -0.200 -0.9710 -0.3541 -2.5934
  985MOL0     H35897  12.080   7.629  -0.310  0.6554 -2.3536 -0.6804
  985MOL0     H35898  12.151   7.634  -0.017 -0.7925  2.1798  1.4339
  985MOL0     H35899  12.144   7.775  -0.124 -1.0870 -1.2198  1.9000
  985MOL0     H35900  12.304   7.695  -0.281 -0.1984 -0.9991 -0.3474
  985MOL0     H35901  12.324   7.541  -0.185  1.5134  0.4198 -3.3078
  985MOL0     H35902  12.356   7.808  -0.041  0.2626  2.3853 -2.0779
  985MOL0     H35903  12.451   7.662  -0.023  0.0929 -1.3986 -1.2599
  985MOL0     H35904  12.444   7.870  -0.259  0.8654  0.8044  0.3509
  985MOL0     H35905  12.534   7.722  -0.281 -1.3601 -1.3703  0.0068
  985MOL0     H35906  12.603   7.983  -0.123  1.6012  1.1590 -1.7803
  985MOL0     H35907  12.681   7.894  -0.240 -0.5987 -2.3373 -0.5877
  985MOL0     H35908  12.806   7.822  -0.039  1.1444 -1.9827 -0.9681
  985MOL0     H35909  12.688   7.683  -0.068 -2.8400 -0.1815  0.1086
  985MOL0     H35910  11.726   7.855  -0.110  0.0320  0.1034 -2.9253
  985MOL0     H35911  11.509   7.882  -0.014 -1.5882  1.2999 -0.5613
  985MOL0     H35912  11.080   7.869  -0.193 -1.8305  1.3071 -2.1082
  985MOL0     H35913  10.835   7.908  -0.205  1.9872 -0.0817 -0.8443
  985MOL0     H35914   9.076   8.378   0.264 -2.7482  1.0217  0.4848
  985MOL0     H35915   8.898   8.440   0.415  0.8263  0.9919  1.3511
  985MOL0     H35916   8.658   8.497   0.675 -1.5160  2.3756 -0.4741
  985MOL0     H35917   8.432   8.567   0.790 -0.7562  0.0158  1.6549
  985MOL0     H35918   8.403   8.744   1.174  1.0106 -3.9999 -1.4707
  985MOL0     H35919   8.476   8.837   1.036  1.0944 -0.8418 -0.3184
  985MOL0     H35920   8.173   8.764   1.062  0.2358  0.6254 -2.5678
  985MOL0     H35921   8.251   8.876   0.950  1.9948 -0.8458 -0.8902
  985MOL0     H35922   8.281   8.918   1.247 -0.8324 -1.2229  1.0708
  985MOL0     H35923   8.273   9.035   1.113  3.8549 -1.7047  0.2385
  985MOL0     H35924   8.027   8.881   1.218 -0.2058  0.5566  0.6395
  985MOL0     H35925   8.030   9.006   1.096 -0.0008 -1.4030  0.3619
  985MOL0     H35926   8.049   9.244   1.453 -0.4405 -1.4121  1.6949
  985MOL0     H35927   8.638   8.684   1.138  3.3530  0.1037  0.7072
  985MOL0     H35928   8.977   8.552   1.073 -1.2779 -1.0674  1.2140
  985MOL0     H35929   8.913   8.714   1.090 -1.6951  0.5425 -1.6997
  985MOL0     H35930   8.847   8.571   1.186 -2.2651  0.8894  0.4280
  986MOL0     O35931   6.705   3.120   0.061  0.0754 -0.3347 -1.1516
  986MOL0     C35932   6.691   3.176   0.176  0.4605 -0.5746  0.8237
  986MOL0     O35933   6.774   3.264   0.232  0.0539 -0.1793  0.0834
  986MOL0     C35934   6.903   3.267   0.191  1.2331 -0.7794 -0.3296
  986MOL0     C35935   6.980   3.155   0.157  0.9414 -0.0038  1.2883
  986MOL0     C35936   7.116   3.146   0.115 -0.4099  0.2909 -0.0929
  986MOL0     C35937   7.186   3.268   0.114 -0.4274 -0.3693  0.3660
  986MOL0     O35938   7.315   3.289   0.071 -0.0154  0.0025  0.4871
  986MOL0     C35939   7.392   3.181   0.017 -0.2428 -0.1568  0.2893
  986MOL0     C35940   7.513   3.247  -0.062  0.2674  0.0518  0.4597
  986MOL0     C35941   7.605   3.308   0.040 -0.1539 -0.2796 -0.0376
  986MOL0     C35942   7.722   3.383  -0.030 -0.5235 -0.7622  0.1860
  986MOL0     C35943   7.785   3.477   0.072 -0.5032  0.3671  0.2079
  986MOL0     C35944   7.718   3.612   0.076 -0.7173  0.4669 -0.0686
  986MOL0     C35945   7.807   3.710   0.153 -0.0527  0.7726 -0.0905
  986MOL0     C35946   7.731   3.843   0.152  0.1754  1.0253  0.4280
  986MOL0     N35947   7.805   3.957   0.211  0.5112  0.0669  0.0766
  986MOL0     C35948   7.847   3.949   0.347 -0.0842 -0.0127  0.0635
  986MOL0     C35949   7.944   4.046   0.366  0.5635 -0.0257 -0.4194
  986MOL0     C35950   8.025   4.067   0.490  0.1160 -0.2719  0.6162
  986MOL0     C35951   8.111   4.199   0.476  0.0857 -0.1178 -0.0093
  986MOL0     C35952   8.212   4.226   0.589 -0.9630 -0.2842  0.7214
  986MOL0     C35953   8.283   4.344   0.549  0.3200 -0.2483 -0.4770
  986MOL0     O35954   8.405   4.346   0.617  0.9172 -0.2003  0.3854
  986MOL0     C35955   8.474   4.463   0.623 -0.1011  0.0698 -1.1083
  986MOL0     C35956   8.455   4.572   0.541  0.9146  0.3570  0.1309
  986MOL0     C35957   8.536   4.686   0.545  0.2607 -0.1818  0.0158
  986MOL0     C35958   8.512   4.785   0.432  0.5633 -0.2035 -1.3487
  986MOL0     C35959   8.643   4.696   0.638  0.0024  0.2705 -0.2258
  986MOL0     C35960   8.730   4.813   0.656 -0.6490 -0.0844  1.1592
  986MOL0     O35961   8.849   4.795   0.730  1.0668  0.2745  0.4533
  986MOL0     C35962   8.938   4.902   0.728  0.3249 -0.5807  0.0229
  986MOL0     C35963   9.019   4.916   0.609 -0.5744 -0.8319 -0.0232
  986MOL0     C35964   9.141   4.989   0.612 -0.1891  0.0184  0.1331
  986MOL0     C35965   9.182   5.056   0.731  0.6675 -0.6608  0.2933
  986MOL0     O35966   9.305   5.127   0.719  0.4124  0.5394  0.2657
  986MOL0     C35967   9.324   5.236   0.807 -0.2008  0.1423  0.1666
  986MOL0     C35968   9.445   5.322   0.770 -0.0713  0.0085 -0.5164
  986MOL0     C35969   9.580   5.256   0.795 -0.4884  0.3190  0.4314
  986MOL0     C35970   9.690   5.360   0.769 -0.1867 -0.0921  0.7545
  986MOL0     C35971   9.838   5.306   0.771 -0.4323 -0.3006  0.2228
  986MOL0     C35972   9.869   5.202   0.662  0.7406 -0.4452 -0.2476
  986MOL0     C35973  10.003   5.148   0.664 -0.0857 -0.2367 -1.0653
  986MOL0     C35974  10.012   5.037   0.772 -0.5671 -1.0386  0.0139
  986MOL0    Cl35975   9.906   4.908   0.745 -0.0871 -0.1001 -0.0134
  986MOL0     C35976   9.100   5.044   0.848 -0.2151  0.4497  0.0262
  986MOL0     C35977   8.981   4.963   0.847 -0.7619  0.5790  0.2694
  986MOL0     O35978   8.706   4.924   0.604 -0.1718 -0.2286 -0.0866
  986MOL0     C35979   8.668   4.573   0.712 -0.5844  0.0317 -0.1374
  986MOL0     C35980   8.585   4.465   0.705  0.3362  0.8189  1.1032
  986MOL0     N35981   7.954   4.109   0.240  0.3573 -0.5977 -0.4187
  986MOL0     N35982   7.869   4.052   0.152  0.6579  0.6443 -0.0287
  986MOL0     C35983   7.120   3.387   0.157  0.3800 -0.3582 -0.2811
  986MOL0     C35984   6.983   3.383   0.189 -0.9306 -0.1071  0.2307
  986MOL0     C35985   6.559   3.163   0.244  0.1634 -1.0226  0.6557
  986MOL0     C35986   6.510   3.267   0.323  0.0557 -0.1908 -0.0315
  986MOL0     C35987   6.378   3.265   0.369  0.0893  0.4335 -0.2750
  986MOL0     C35988   6.296   3.155   0.346 -0.6259 -0.1867 -0.2180
  986MOL0     O35989   6.177   3.157   0.409  0.1789  0.7879  0.1696
  986MOL0     C35990   6.144   3.042   0.495  1.7252  0.1967  0.7213
  986MOL0     C35991   6.226   3.043   0.621  0.0433 -0.6371 -0.6821
  986MOL0     C35992   6.187   3.165   0.712  0.0988  0.1890 -1.2843
  986MOL0     C35993   6.071   3.127   0.804  0.7020 -0.4967 -0.0829
  986MOL0     C35994   6.026   3.248   0.866 -0.0160 -0.8760 -0.3269
  986MOL0     C35995   5.981   3.355   0.899 -0.1634  0.1342 -0.1398
  986MOL0     C35996   6.348   3.051   0.273 -0.1498  0.1921  0.7035
  986MOL0     C35997   6.479   3.042   0.228 -0.2894  0.0170 -0.0922
  986MOL0     C35998   6.513   2.923   0.142 -0.2216 -0.8197  0.0491
  986MOL0     H35999   6.936   3.057   0.170  0.6007  0.1949  1.6797
  986MOL0     H36000   7.168   3.057   0.080  0.1808  0.8006 -0.5405
  986MOL0     H36001   7.335   3.122  -0.056 -0.0740  0.2425 -0.1751
  986MOL0     H36002   7.434   3.115   0.092 -1.7994 -2.9221 -1.1137
  986MOL0     H36003   7.558   3.178  -0.134 -1.3922 -1.0884  0.4475
  986MOL0     H36004   7.478   3.333  -0.120  0.8884 -0.0980 -0.1596
  986MOL0     H36005   7.549   3.390   0.085  3.1272  2.5738 -0.6805
  986MOL0     H36006   7.650   3.238   0.111  0.1174 -0.9357 -0.8330
  986MOL0     H36007   7.804   3.314  -0.055  0.1288 -0.2031  0.7486
  986MOL0     H36008   7.695   3.437  -0.121  2.4347  2.5979  1.0874
  986MOL0     H36009   7.890   3.503   0.058 -1.2624  2.8385 -1.5636
  986MOL0     H36010   7.779   3.437   0.174 -1.0061  1.9280  0.8263
  986MOL0     H36011   7.699   3.643  -0.027 -0.5352 -0.9413 -0.5525
  986MOL0     H36012   7.625   3.586   0.128  0.2865  0.0607  1.5992
  986MOL0     H36013   7.909   3.719   0.117  0.4392 -1.0138  0.7257
  986MOL0     H36014   7.810   3.673   0.256 -1.3723  1.4851  0.2370
  986MOL0     H36015   7.695   3.878   0.054 -0.5586  0.9611  0.6722
  986MOL0     H36016   7.644   3.826   0.216 -0.3592  1.0992 -0.2599
  986MOL0     H36017   7.821   3.870   0.418 -1.3885 -1.1136 -1.5662
  986MOL0     H36018   8.080   3.974   0.510  0.3279  0.4569  4.0872
  986MOL0     H36019   7.959   4.067   0.577  0.7936  0.4936  1.1502
  986MOL0     H36020   8.161   4.205   0.378  0.5992  2.1768  0.3281
  986MOL0     H36021   8.042   4.284   0.478 -0.7312 -0.7208 -1.2471
  986MOL0     H36022   8.160   4.254   0.680 -0.6767 -0.3522  0.9058
  986MOL0     H36023   8.278   4.141   0.609 -0.2799  0.1812  0.4543
  986MOL0     H36024   8.314   4.342   0.444  3.8431  0.6669  0.4365
  986MOL0     H36025   8.229   4.435   0.576  0.8441 -0.0562 -0.0674
  986MOL0     H36026   8.369   4.577   0.474  0.3570  1.5775  0.9005
  986MOL0     H36027   8.607   4.812   0.385  0.5937 -1.4688 -2.0827
  986MOL0     H36028   8.469   4.873   0.480  2.5144  1.5874 -2.7026
  986MOL0     H36029   8.450   4.746   0.351  0.9528  0.3200 -1.9121
  986MOL0     H36030   8.998   4.855   0.521 -0.1440 -1.4591  0.3003
  986MOL0     H36031   9.193   4.999   0.517 -3.0965  1.0415 -1.4841
  986MOL0     H36032   9.237   5.301   0.815  0.5263  0.9140  2.3969
  986MOL0     H36033   9.343   5.184   0.902 -0.6920 -2.2321 -0.9435
  986MOL0     H36034   9.444   5.351   0.664 -0.5937  3.2142  0.2712
  986MOL0     H36035   9.445   5.414   0.829  0.7769  0.2237 -0.8408
  986MOL0     H36036   9.587   5.163   0.738 -0.2954  0.0224  0.9252
  986MOL0     H36037   9.592   5.224   0.899  4.0343 -1.4698 -0.3793
  986MOL0     H36038   9.680   5.444   0.839 -3.9589  0.3567 -0.1232
  986MOL0     H36039   9.675   5.388   0.664 -1.3376 -3.3725 -0.0687
  986MOL0     H36040   9.901   5.395   0.762 -0.3754 -0.2795  0.8063
  986MOL0     H36041   9.854   5.263   0.870  0.9033  1.3295  0.7589
  986MOL0     H36042   9.854   5.250   0.565  0.5933  0.9854  0.4542
  986MOL0     H36043   9.798   5.119   0.661  0.0869  0.0338 -3.1472
  986MOL0     H36044  10.086   5.218   0.652 -0.1228 -0.4578 -2.8621
  986MOL0     H36045  10.019   5.085   0.575  2.5566 -1.7135  0.3323
  986MOL0     H36046  10.005   5.086   0.869 -0.0550 -0.9581  0.0115
  986MOL0     H36047  10.113   4.995   0.769 -0.6339 -1.6234  3.0417
  986MOL0     H36048   9.144   5.090   0.936  2.3157 -2.8559  0.7013
  986MOL0     H36049   8.926   4.951   0.940 -0.2680 -3.3522  0.2365
  986MOL0     H36050   8.753   4.568   0.779 -0.5303  0.4599 -0.1667
  986MOL0     H36051   8.623   4.370   0.743  1.4997  0.5925 -0.5248
  986MOL0     H36052   7.177   3.479   0.169 -0.3641 -0.1160  1.7786
  986MOL0     H36053   6.944   3.466   0.247 -0.6922  0.1638  0.0087
  986MOL0     H36054   6.574   3.344   0.365 -1.4433 -1.1926  4.6024
  986MOL0     H36055   6.336   3.340   0.436 -0.2042 -0.9501  1.1536
  986MOL0     H36056   6.036   3.044   0.507  1.7149  2.0463  0.6645
  986MOL0     H36057   6.166   2.946   0.447 -0.0012 -0.1244  0.5208
  986MOL0     H36058   6.333   3.044   0.601  0.5206 -1.7039  1.5050
  986MOL0     H36059   6.216   2.955   0.685 -0.7835 -0.6983 -0.8759
  986MOL0     H36060   6.276   3.187   0.771  0.8358  2.3047 -3.0503
  986MOL0     H36061   6.164   3.252   0.649  0.2191 -1.5085 -3.8242
  986MOL0     H36062   6.107   3.061   0.883 -3.6015 -0.6597  2.0176
  986MOL0     H36063   5.994   3.075   0.746  2.0542 -2.8462  0.0888
  986MOL0     H36064   5.947   3.454   0.925 -1.3412 -0.1414 -0.5844
  986MOL0     H36065   6.293   2.961   0.246  1.7227 -1.6322  2.5028
  986MOL0     H36066   6.616   2.901   0.169 -0.7161 -2.7043  0.5123
  986MOL0     H36067   6.449   2.835   0.149  1.9069 -2.4516 -0.0531
  986MOL0     H36068   6.508   2.961   0.039  0.8533  0.5105  0.4621
  987MOL0     O36069   1.838   0.090   1.138  0.1515 -0.0290 -0.5099
  987MOL0     C36070   1.936   0.028   1.194 -0.5902  0.5916  0.7245
  987MOL0     O36071   2.060   0.012   1.134 -0.2617 -0.6802 -0.2505
  987MOL0     C36072   2.087   0.084   1.021 -0.5517  1.4431  0.3086
  987MOL0     C36073   2.082   0.225   1.022 -0.9006 -0.3741  0.4026
  987MOL0     C36074   2.119   0.295   0.898 -0.0008  0.7043 -0.1616
  987MOL0     C36075   2.152   0.223   0.783 -0.1411 -0.3231  0.8124
  987MOL0     O36076   2.191   0.297   0.673  0.9098  0.2313 -0.0841
  987MOL0     C36077   2.241   0.253   0.547  0.3062  0.1625  0.1076
  987MOL0     C36078   2.189   0.340   0.427 -0.1171 -0.9032  0.1098
  987MOL0     C36079   2.236   0.304   0.293  0.4133  0.8413  1.4386
  987MOL0     C36080   2.177   0.169   0.243 -0.2499 -0.0777 -0.3064
  987MOL0     C36081   2.222   0.130   0.091  0.0990 -0.4879 -0.7310
  987MOL0     C36082   2.147   0.003   0.047 -0.7131  0.5203 -0.1824
  987MOL0     C36083   2.207  -0.042  -0.074  0.1256  0.1011  0.1694
  987MOL0     C36084   2.104  -0.137  -0.143  0.2625 -0.3984 -0.0667
  987MOL0     N36085   2.089  -0.265  -0.061 -0.4579 -0.1052  0.5836
  987MOL0     C36086   2.141  -0.381  -0.101  0.0763  0.6989  0.0849
  987MOL0     C36087   2.091  -0.472  -0.016 -0.2592 -0.2860 -0.8160
  987MOL0     C36088   2.103  -0.617  -0.001 -0.1520 -0.1915  0.1173
  987MOL0     C36089   2.189  -0.659   0.118  0.6372 -0.2615 -0.0435
  987MOL0     C36090   2.181  -0.807   0.155 -0.3255  0.1656  0.0967
  987MOL0     C36091   2.271  -0.857   0.277 -0.2113 -0.0145 -0.0862
  987MOL0     O36092   2.401  -0.816   0.259 -0.2997  0.3201 -0.0467
  987MOL0     C36093   2.492  -0.878   0.171 -0.6113  0.4239 -0.6880
  987MOL0     C36094   2.620  -0.818   0.157  0.8249 -0.4416  0.2129
  987MOL0     C36095   2.718  -0.881   0.075 -0.3295  0.9537 -0.1328
  987MOL0     C36096   2.853  -0.812   0.076  0.9119  0.8429 -0.7453
  987MOL0     C36097   2.693  -1.001   0.014 -0.1447  0.1908  1.2159
  987MOL0     C36098   2.783  -1.062  -0.090 -0.7895 -0.0357  0.9294
  987MOL0     O36099   2.919  -1.056  -0.066 -0.4871  0.0541  0.0522
  987MOL0     C36100   3.012  -1.083  -0.161  0.5752  1.0409  0.5594
  987MOL0     C36101   3.139  -1.114  -0.111 -0.0604  0.4970  0.1089
  987MOL0     C36102   3.244  -1.138  -0.201  0.8321 -0.2650 -0.3417
  987MOL0     C36103   3.231  -1.143  -0.343  0.0412 -0.4717 -0.4396
  987MOL0     O36104   3.335  -1.167  -0.433  0.3705 -0.0249  0.3074
  987MOL0     C36105   3.333  -1.115  -0.565  0.1174  0.2017 -0.3177
  987MOL0     C36106   3.446  -1.172  -0.644  0.4078  1.3193 -0.2651
  987MOL0     C36107   3.583  -1.116  -0.607 -0.0694 -0.4828 -0.5773
  987MOL0     C36108   3.692  -1.185  -0.678  0.1310  0.2856  0.0799
  987MOL0     C36109   3.832  -1.154  -0.621  0.7429 -0.5188 -0.1531
  987MOL0     C36110   3.863  -1.000  -0.619  0.0529  0.0329 -0.1166
  987MOL0     C36111   4.009  -0.974  -0.586  0.2363 -0.6107 -0.8038
  987MOL0     C36112   4.063  -0.833  -0.623 -0.2925  0.1355  0.6815
  987MOL0    Cl36113   4.018  -0.781  -0.796 -0.2671  0.0543  0.1881
  987MOL0     C36114   3.108  -1.096  -0.392  0.0452 -0.2319  0.5515
  987MOL0     C36115   3.003  -1.079  -0.299 -0.1503  0.3119  1.1988
  987MOL0     O36116   2.726  -1.102  -0.193 -0.0175 -0.0739  1.0076
  987MOL0     C36117   2.572  -1.069   0.039  0.0573 -0.7053  0.1156
  987MOL0     C36118   2.480  -1.010   0.121  0.2023 -0.2961 -0.7877
  987MOL0     N36119   2.009  -0.411   0.073 -0.5697 -1.4342 -0.3978
  987MOL0     N36120   2.014  -0.282   0.053 -0.5167 -0.4974 -0.1844
  987MOL0     C36121   2.161   0.084   0.788 -0.5984 -0.7576  0.1281
  987MOL0     C36122   2.131   0.010   0.904 -0.4203 -0.8247  0.1976
  987MOL0     C36123   1.925  -0.005   1.340  0.1829  0.4786 -0.2595
  987MOL0     C36124   2.050   0.018   1.417 -0.2936 -0.3047  0.1898
  987MOL0     C36125   2.051   0.001   1.553 -0.3911  0.3534  0.1842
  987MOL0     C36126   1.929  -0.022   1.627  1.2084  0.7024 -0.3878
  987MOL0     O36127   1.911  -0.034   1.764  0.4000 -0.1069 -0.5629
  987MOL0     C36128   2.035  -0.021   1.839  0.3594  0.0479  0.2500
  987MOL0     C36129   2.015  -0.064   1.988  0.4096  0.2801  0.1532
  987MOL0     C36130   1.907   0.019   2.069  0.8148  0.2290  0.4198
  987MOL0     C36131   1.931   0.177   2.052 -0.7527 -0.7050  0.1883
  987MOL0     C36132   2.073   0.218   2.092  0.7006 -0.9966 -0.3760
  987MOL0     C36133   2.186   0.264   2.111 -0.0613 -0.4372 -0.7502
  987MOL0     C36134   1.806  -0.038   1.551  1.4052 -0.6844  0.4188
  987MOL0     C36135   1.805  -0.040   1.406  0.3172 -0.4043 -0.7196
  987MOL0     C36136   1.675  -0.059   1.327 -0.8627  0.6504 -0.4773
  987MOL0     H36137   2.057   0.278   1.113  0.3047  0.1455  0.4596
  987MOL0     H36138   2.123   0.403   0.888  0.2539  0.7063 -0.0424
  987MOL0     H36139   2.205   0.155   0.517 -2.1598  1.4752 -1.5614
  987MOL0     H36140   2.351   0.252   0.553  0.4257  0.5811 -1.5204
  987MOL0     H36141   2.080   0.334   0.435 -0.0004 -0.9627  2.0523
  987MOL0     H36142   2.229   0.441   0.442 -2.7501  0.3511 -0.7810
  987MOL0     H36143   2.190   0.383   0.232  2.2023  1.9799  1.5019
  987MOL0     H36144   2.343   0.293   0.273 -0.3279 -1.4566 -2.2084
  987MOL0     H36145   2.222   0.104   0.319  1.2794  1.1178 -0.1374
  987MOL0     H36146   2.069   0.158   0.253 -0.0939 -0.6757  0.8428
  987MOL0     H36147   2.331   0.117   0.100  0.4084  1.4964 -1.0650
  987MOL0     H36148   2.202   0.203   0.013 -0.1212 -1.8205 -1.9597
  987MOL0     H36149   2.153  -0.075   0.124  1.0420 -0.5505 -1.3268
  987MOL0     H36150   2.049   0.048   0.034 -0.1940  1.2082 -2.0293
  987MOL0     H36151   2.301  -0.093  -0.050 -0.8296 -1.3119  1.0529
  987MOL0     H36152   2.225   0.045  -0.138 -1.9919  1.5051  1.3807
  987MOL0     H36153   2.010  -0.086  -0.165  0.3350 -0.5910 -0.8629
  987MOL0     H36154   2.150  -0.158  -0.240  2.0068 -3.0837  1.2265
  987MOL0     H36155   2.226  -0.401  -0.165 -0.6066  0.8578 -0.9094
  987MOL0     H36156   2.140  -0.657  -0.095 -4.4463 -0.0967 -1.8233
  987MOL0     H36157   2.003  -0.661   0.005 -0.8052  0.9264 -1.9252
  987MOL0     H36158   2.294  -0.630   0.103 -0.0277  1.8274 -0.9760
  987MOL0     H36159   2.155  -0.611   0.210  0.7209  0.1415 -0.2213
  987MOL0     H36160   2.076  -0.821   0.181 -1.0637 -1.7451 -3.3024
  987MOL0     H36161   2.191  -0.869   0.065 -0.4141 -1.4265  1.1418
  987MOL0     H36162   2.244  -0.810   0.372 -0.7427 -0.4942  0.0056
  987MOL0     H36163   2.258  -0.963   0.296  0.3444  0.0936  0.9370
  987MOL0     H36164   2.641  -0.747   0.237 -0.7996 -1.2426  1.4181
  987MOL0     H36165   2.934  -0.871   0.118 -1.0371 -0.8396  0.8620
  987MOL0     H36166   2.850  -0.721   0.137  1.6899  0.7893 -0.6242
  987MOL0     H36167   2.866  -0.767  -0.023 -0.2439  0.6833 -0.9932
  987MOL0     H36168   3.151  -1.117  -0.003  2.0875  0.6202 -0.0723
  987MOL0     H36169   3.339  -1.162  -0.153  0.3896 -3.2133 -0.7174
  987MOL0     H36170   3.253  -1.156  -0.628 -0.7586 -2.0528  2.0923
  987MOL0     H36171   3.336  -1.007  -0.555  1.7687  0.2007 -0.5093
  987MOL0     H36172   3.446  -1.281  -0.639  0.6268  1.2179 -1.9688
  987MOL0     H36173   3.430  -1.148  -0.750 -3.2107  1.6114  0.2152
  987MOL0     H36174   3.609  -1.135  -0.502  0.2367 -0.5111 -0.6596
  987MOL0     H36175   3.587  -1.009  -0.629  2.0154 -0.2093  0.8193
  987MOL0     H36176   3.701  -1.173  -0.787  0.7357 -1.6906 -0.1383
  987MOL0     H36177   3.686  -1.292  -0.657  2.3153 -0.1938 -1.4208
  987MOL0     H36178   3.844  -1.212  -0.529  1.1211 -2.3276 -1.2764
  987MOL0     H36179   3.896  -1.217  -0.684 -1.6669 -3.4746  0.1060
  987MOL0     H36180   3.785  -0.953  -0.558  0.1423 -1.7847  1.4740
  987MOL0     H36181   3.843  -0.963  -0.720  2.3476 -1.1111 -1.0530
  987MOL0     H36182   4.079  -1.042  -0.635  1.4344 -0.7934  1.0444
  987MOL0     H36183   4.008  -1.001  -0.480 -0.1343 -2.7140 -1.3058
  987MOL0     H36184   4.170  -0.830  -0.602 -0.3716  2.8341  1.0321
  987MOL0     H36185   4.026  -0.756  -0.554  1.2792  0.6542  0.9892
  987MOL0     H36186   3.098  -1.057  -0.493  2.2950  0.9864  0.7434
  987MOL0     H36187   2.907  -1.049  -0.341 -0.8810 -0.0018  2.5487
  987MOL0     H36188   2.549  -1.165  -0.005  1.7776 -0.4930 -1.3910
  987MOL0     H36189   2.391  -1.066   0.148  0.2818 -0.2389 -0.4020
  987MOL0     H36190   2.206   0.031   0.704 -0.9077  0.6277 -0.9555
  987MOL0     H36191   2.120  -0.098   0.908 -2.2950 -0.6396  1.6293
  987MOL0     H36192   2.141   0.030   1.360  2.2929 -1.2471  3.8030
  987MOL0     H36193   2.143   0.011   1.610  1.0565  1.5416 -2.1775
  987MOL0     H36194   2.117  -0.083   1.800 -0.0571 -1.1811  1.2528
  987MOL0     H36195   2.058   0.086   1.837 -0.9910  0.3425 -0.1236
  987MOL0     H36196   2.119  -0.059   2.022  0.7576  0.8270 -0.9434
  987MOL0     H36197   1.999  -0.173   1.985  0.6088  0.2626 -2.2828
  987MOL0     H36198   1.807  -0.014   2.040  0.1502 -1.8234  4.4959
  987MOL0     H36199   1.917  -0.002   2.175 -0.5804  1.5365  0.8352
  987MOL0     H36200   1.856   0.233   2.108 -2.3004  0.0021 -2.4037
  987MOL0     H36201   1.911   0.208   1.949 -2.3882  2.9871  1.4610
  987MOL0     H36202   2.277   0.318   2.131 -1.5267  1.0061  3.1485
  987MOL0     H36203   1.715  -0.059   1.607  1.3226 -0.7272  0.2678
  987MOL0     H36204   1.632   0.034   1.290 -1.4776  0.1761 -0.9720
  987MOL0     H36205   1.696  -0.120   1.238 -1.8434 -0.1679 -0.1582
  987MOL0     H36206   1.594  -0.104   1.384 -0.4968  1.8432  1.0553
  988MOL0     O36207   1.676   7.928   8.151 -0.1243 -0.0467  0.1590
  988MOL0     C36208   1.729   7.850   8.066 -0.5257  0.5754 -0.0980
  988MOL0     O36209   1.864   7.839   8.043  0.8176 -0.0198 -0.0130
  988MOL0     C36210   1.954   7.922   8.106 -0.3656  0.4248 -0.4406
  988MOL0     C36211   1.947   7.932   8.245 -0.5150  0.0743 -0.5235
  988MOL0     C36212   2.038   8.016   8.317 -1.0445 -0.8569 -0.1361
  988MOL0     C36213   2.133   8.094   8.246 -0.4950  0.1491  0.3428
  988MOL0     O36214   2.242   8.153   8.316 -0.1420 -0.0504  0.0860
  988MOL0     C36215   2.230   8.197   8.456  0.7156  0.1985  0.4214
  988MOL0     C36216   2.335   8.304   8.490  0.2721  0.6000 -0.6972
  988MOL0     C36217   2.313   8.380   8.627  0.4968  0.0065 -1.0142
  988MOL0     C36218   2.389   8.319   8.747  0.4897  0.2530 -0.0777
  988MOL0     C36219   2.388   8.406   8.869  0.6094 -0.7698 -0.4518
  988MOL0     C36220   2.462   8.342   8.980 -0.8207 -0.1262  0.5981
  988MOL0     C36221   2.362   8.247   9.049 -0.1165  0.5283  0.7986
  988MOL0     C36222   2.430   8.182   9.168 -0.0896  0.4007  0.5681
  988MOL0     N36223   2.538   8.098   9.117  0.6869 -0.1609  0.0621
  988MOL0     C36224   2.535   8.014   9.008  0.7761 -0.1909  0.3210
  988MOL0     C36225   2.652   7.959   9.012 -1.1958  0.2411 -0.6408
  988MOL0     C36226   2.692   7.856   8.908  0.1971 -0.3854  0.2237
  988MOL0     C36227   2.774   7.930   8.803  0.0998  0.5829 -0.2512
  988MOL0     C36228   2.719   8.039   8.712 -0.2964 -0.2746  0.3003
  988MOL0     C36229   2.613   8.002   8.604  0.1854  1.1760  0.1146
  988MOL0     O36230   2.495   7.932   8.660  0.1509  0.4385 -0.2151
  988MOL0     C36231   2.399   7.867   8.587  0.7702 -0.1495 -0.4153
  988MOL0     C36232   2.321   7.779   8.654  0.0206 -0.3173 -0.7100
  988MOL0     C36233   2.228   7.691   8.598 -0.7629 -0.8265  0.0875
  988MOL0     C36234   2.171   7.574   8.687  0.0423 -0.8373 -0.4525
  988MOL0     C36235   2.197   7.705   8.462 -0.3134  0.2656  0.5689
  988MOL0     C36236   2.107   7.620   8.400  0.6952  0.2716 -0.4073
  988MOL0     O36237   1.981   7.600   8.456  0.4362 -0.7205  0.1547
  988MOL0     C36238   1.906   7.505   8.396  0.0854 -0.6936 -0.0169
  988MOL0     C36239   1.820   7.551   8.290 -0.8447 -0.3055 -0.4319
  988MOL0     C36240   1.731   7.465   8.225  0.0355  1.0464 -0.5433
  988MOL0     C36241   1.713   7.337   8.279 -0.0503  0.5674 -0.0392
  988MOL0     O36242   1.614   7.244   8.232 -0.3401 -0.8166 -0.7975
  988MOL0     C36243   1.590   7.246   8.096 -0.1593  0.2266  0.2127
  988MOL0     C36244   1.502   7.134   8.042 -0.0649  0.9186  0.0594
  988MOL0     C36245   1.359   7.161   8.077 -0.7562  0.2216  0.1770
  988MOL0     C36246   1.268   7.051   8.033  0.3986  1.3098 -0.0858
  988MOL0     C36247   1.116   7.080   8.040 -0.5455 -0.0884  0.4205
  988MOL0     C36248   1.073   7.093   8.188 -0.0543 -1.1288 -0.2586
  988MOL0     C36249   0.921   7.097   8.201 -0.6235 -0.2054  0.3764
  988MOL0     C36250   0.879   7.145   8.334  0.4406 -0.9926 -0.9829
  988MOL0    Cl36251   0.698   7.159   8.353  0.4889  0.5382  0.1128
  988MOL0     C36252   1.806   7.289   8.373  0.3302 -0.4666  0.5420
  988MOL0     C36253   1.895   7.373   8.441 -0.1041  0.7992 -0.4029
  988MOL0     O36254   2.151   7.574   8.298  0.4417 -0.5142  0.0734
  988MOL0     C36255   2.273   7.797   8.389  0.1649 -0.4815 -0.1942
  988MOL0     C36256   2.363   7.888   8.456 -0.2189 -0.3868 -0.4574
  988MOL0     N36257   2.731   8.011   9.124  0.0532 -0.0847 -0.8665
  988MOL0     N36258   2.655   8.095   9.184  0.1866 -0.1034  0.1142
  988MOL0     C36259   2.148   8.067   8.107  0.1161 -0.3535 -1.0092
  988MOL0     C36260   2.057   7.979   8.033 -0.5740 -0.1331 -0.0912
  988MOL0     C36261   1.650   7.748   7.992 -0.0698  1.0243  0.6672
  988MOL0     C36262   1.510   7.755   8.020 -0.2271  0.9829  0.1229
  988MOL0     C36263   1.421   7.666   7.960  0.0570  0.3000  0.5838
  988MOL0     C36264   1.471   7.566   7.872  0.3605  0.1977  1.4213
  988MOL0     O36265   1.381   7.473   7.814 -0.6207 -0.1672  0.1990
  988MOL0     C36266   1.249   7.508   7.783  0.1142 -0.5202  0.4170
  988MOL0     C36267   1.181   7.390   7.700  0.9755 -0.7867 -0.5643
  988MOL0     C36268   1.027   7.396   7.716  0.0005 -0.0724  0.2251
  988MOL0     C36269   0.958   7.283   7.649  0.7886  0.1788  0.2445
  988MOL0     C36270   0.944   7.159   7.732 -1.0461 -0.1116  0.2882
  988MOL0     C36271   0.934   7.054   7.784 -1.6818 -0.5841 -0.1959
  988MOL0     C36272   1.610   7.556   7.839 -0.2497  0.9662  0.1759
  988MOL0     C36273   1.698   7.655   7.900 -0.5813  0.1756 -0.3414
  988MOL0     C36274   1.842   7.629   7.864 -0.0934  0.8191  0.4837
  988MOL0     H36275   1.865   7.880   8.295 -0.7085  3.3671  2.9740
  988MOL0     H36276   2.045   8.020   8.425 -0.0342  1.5838 -0.2243
  988MOL0     H36277   2.246   8.107   8.517  1.8020 -0.0304 -0.1717
  988MOL0     H36278   2.129   8.233   8.476 -0.3979 -3.3235  1.9896
  988MOL0     H36279   2.439   8.273   8.476  0.2352  1.1541 -2.5152
  988MOL0     H36280   2.325   8.386   8.417  0.5176  3.2950  2.0779
  988MOL0     H36281   2.353   8.481   8.616 -0.0215  0.1434 -1.6904
  988MOL0     H36282   2.208   8.394   8.656  0.2811 -0.5032 -1.5319
  988MOL0     H36283   2.353   8.217   8.766  2.1036 -0.9580 -2.8725
  988MOL0     H36284   2.485   8.304   8.697 -1.3676  0.4154 -4.0856
  988MOL0     H36285   2.288   8.431   8.904  0.8338 -0.6712  0.1237
  988MOL0     H36286   2.432   8.499   8.831  2.9339 -1.9670 -0.9249
  988MOL0     H36287   2.548   8.287   8.939 -1.1442  1.3601 -2.3461
  988MOL0     H36288   2.504   8.418   9.047 -0.1843  1.7365 -1.7721
  988MOL0     H36289   2.324   8.176   8.975  0.0747  0.5631  0.6673
  988MOL0     H36290   2.278   8.305   9.086  1.1863  1.7398  1.9899
  988MOL0     H36291   2.469   8.267   9.225  2.6957 -1.2273  1.3112
  988MOL0     H36292   2.339   8.134   9.208 -2.2622  2.4144 -1.6457
  988MOL0     H36293   2.460   7.993   8.932  0.3598 -0.5404  0.8241
  988MOL0     H36294   2.596   7.819   8.871 -0.5771  0.7240  1.0506
  988MOL0     H36295   2.749   7.774   8.953  2.7679  0.7275 -0.8431
  988MOL0     H36296   2.853   7.972   8.866  0.9894  0.7288 -1.4325
  988MOL0     H36297   2.825   7.862   8.735  3.1525  3.6411 -1.3386
  988MOL0     H36298   2.661   8.103   8.779 -0.2409  0.0367  0.0494
  988MOL0     H36299   2.803   8.095   8.672 -0.5198  0.1091  0.3710
  988MOL0     H36300   2.584   8.096   8.557 -0.0285  2.0250  1.8366
  988MOL0     H36301   2.666   7.935   8.536  0.4204  2.8392 -1.4306
  988MOL0     H36302   2.328   7.771   8.762 -0.1256  0.7575 -0.6102
  988MOL0     H36303   2.238   7.557   8.772  1.5987  1.4765 -1.1184
  988MOL0     H36304   2.156   7.489   8.619  0.5766 -1.3999  0.1274
  988MOL0     H36305   2.077   7.606   8.731 -1.3649 -0.8962 -3.1897
  988MOL0     H36306   1.833   7.651   8.250 -0.3451  0.1683  0.8567
  988MOL0     H36307   1.662   7.506   8.152 -0.7178  1.0760  0.1732
  988MOL0     H36308   1.549   7.343   8.067 -1.1109 -0.6715 -1.5997
  988MOL0     H36309   1.692   7.233   8.058  0.3507  1.4725  1.0853
  988MOL0     H36310   1.515   7.138   7.934  1.6430  1.0150  0.2369
  988MOL0     H36311   1.530   7.035   8.080 -1.4866 -1.4062 -4.2647
  988MOL0     H36312   1.314   7.256   8.046 -3.1008 -0.3691  1.5113
  988MOL0     H36313   1.349   7.167   8.186  0.6896 -1.4533  0.4383
  988MOL0     H36314   1.290   6.950   8.068 -2.8549 -0.5165 -2.7877
  988MOL0     H36315   1.287   7.050   7.925  0.6480  0.2025 -0.0451
  988MOL0     H36316   1.093   7.173   7.986  0.1664 -0.6669 -0.9392
  988MOL0     H36317   1.062   6.999   7.991 -0.8080  0.2480  0.1531
  988MOL0     H36318   1.116   7.189   8.217 -1.0647 -0.2136 -1.6105
  988MOL0     H36319   1.110   7.010   8.249 -0.4790 -1.5346 -0.5475
  988MOL0     H36320   0.886   6.996   8.178  0.6743 -0.6954  0.4985
  988MOL0     H36321   0.877   7.162   8.125 -0.5020 -1.7838 -1.0865
  988MOL0     H36322   0.916   7.246   8.356  0.3579 -1.3955  1.1996
  988MOL0     H36323   0.917   7.085   8.417 -1.6374 -2.3741 -0.9735
  988MOL0     H36324   1.808   7.182   8.393  2.4862 -0.4008  0.8206
  988MOL0     H36325   1.965   7.317   8.502 -0.4046  2.5525  1.6517
  988MOL0     H36326   2.241   7.821   8.288 -0.4392 -0.3317  0.0265
  988MOL0     H36327   2.420   7.954   8.392 -2.8531  1.0434 -1.4470
  988MOL0     H36328   2.233   8.102   8.049  2.3882 -3.4378  0.2030
  988MOL0     H36329   2.066   7.955   7.928  2.1405 -0.4136  0.1429
  988MOL0     H36330   1.470   7.816   8.100  0.0569  0.3170  0.7901
  988MOL0     H36331   1.313   7.680   7.962 -0.3062 -1.8750 -0.3757
  988MOL0     H36332   1.184   7.526   7.869 -1.1317  0.7695 -0.7582
  988MOL0     H36333   1.254   7.593   7.715  1.6964 -1.7858 -1.1321
  988MOL0     H36334   1.216   7.293   7.734  1.6165 -1.2856 -2.5629
  988MOL0     H36335   1.212   7.401   7.596 -1.9097  1.6383 -1.3309
  988MOL0     H36336   0.992   7.386   7.819 -5.2517  0.4885 -1.2068
  988MOL0     H36337   0.990   7.494   7.684 -0.6788 -0.7399 -1.0983
  988MOL0     H36338   0.996   7.264   7.548 -0.6930 -0.1520 -0.2802
  988MOL0     H36339   0.858   7.317   7.619  2.0867  0.8765 -3.9853
  988MOL0     H36340   0.930   6.960   7.833  4.0961 -0.8202  0.5052
  988MOL0     H36341   1.653   7.487   7.768 -0.3034 -0.4032  1.4076
  988MOL0     H36342   1.894   7.571   7.940 -1.5106 -0.5348  0.4630
  988MOL0     H36343   1.850   7.558   7.782  1.8466 -2.1281  2.9800
  988MOL0     H36344   1.898   7.719   7.836  1.1394 -0.2778 -0.6448
  989MOL0     O36345  10.486   6.132   1.911  0.1628  0.1179  0.5185
  989MOL0     C36346  10.444   6.213   1.818 -1.6536  0.7871  0.5596
  989MOL0     O36347  10.446   6.349   1.821  0.1484  0.5450  0.1997
  989MOL0     C36348  10.471   6.399   1.948 -0.2436 -0.4805 -0.6991
  989MOL0     C36349  10.362   6.438   2.019  0.1893 -0.1579  0.2359
  989MOL0     C36350  10.375   6.485   2.152 -0.2112  0.5240 -0.0379
  989MOL0     C36351  10.499   6.498   2.213  1.0229 -0.7329 -0.3907
  989MOL0     O36352  10.519   6.519   2.343 -0.6917  0.1167 -0.6864
  989MOL0     C36353  10.405   6.561   2.416 -0.7962 -0.4234  0.3374
  989MOL0     C36354  10.441   6.584   2.566 -0.1346  0.0157 -0.2718
  989MOL0     C36355  10.548   6.692   2.590  0.6421 -0.1877  0.3427
  989MOL0     C36356  10.688   6.631   2.617  0.1560 -0.7521  0.5024
  989MOL0     C36357  10.803   6.724   2.653 -0.2960  0.3883  0.1725
  989MOL0     C36358  10.941   6.654   2.673  0.6620 -0.0115  0.1006
  989MOL0     C36359  11.051   6.763   2.695  0.2780 -0.7825  0.1173
  989MOL0     C36360  11.055   6.797   2.847  0.3432 -0.0619  0.2251
  989MOL0     N36361  11.143   6.908   2.856  0.7766 -0.2878 -0.2296
  989MOL0     C36362  11.116   7.042   2.834 -0.2723  0.1792  0.3118
  989MOL0     C36363  11.223   7.112   2.871  0.3143 -0.2459 -0.2096
  989MOL0     C36364  11.261   7.261   2.877  0.1749  0.2452  0.4693
  989MOL0     C36365  11.237   7.324   2.743  0.7601 -0.8962  0.2424
  989MOL0     C36366  11.232   7.481   2.758  0.4575 -0.8938 -1.0556
  989MOL0     C36367  11.351   7.548   2.842 -0.5631  0.0363 -0.2131
  989MOL0     O36368  11.477   7.504   2.788  0.2785  0.1132 -0.0357
  989MOL0     C36369  11.592   7.536   2.852 -0.5538 -0.8215 -0.2500
  989MOL0     C36370  11.602   7.625   2.957  0.6819 -0.3216 -0.2707
  989MOL0     C36371  11.720   7.651   3.016 -0.0068  0.8297  0.2196
  989MOL0     C36372  11.723   7.754   3.126  0.6326  0.1826 -0.8957
  989MOL0     C36373  11.837   7.583   2.971 -1.2270 -1.0328  0.6225
  989MOL0     C36374  11.965   7.612   3.030 -0.2451  0.5823  0.4972
  989MOL0     O36375  12.038   7.500   3.056  0.2281 -0.4382  0.1706
  989MOL0     C36376  12.168   7.505   3.067  0.6931  0.2701  0.0659
  989MOL0     C36377  12.224   7.451   3.184 -0.0247 -0.8528  0.0769
  989MOL0     C36378  12.368   7.440   3.182  0.5061 -0.1908 -0.2408
  989MOL0     C36379  12.452   7.497   3.080  0.2193 -0.4280  0.5347
  989MOL0     O36380  12.586   7.475   3.089  0.5262 -0.1890 -0.8482
  989MOL0     C36381  12.672   7.586   3.050 -0.4314  0.1673 -0.0822
  989MOL0     C36382  12.737   7.663   3.165  0.8033  0.1158  1.2238
  989MOL0     C36383  12.806   7.574   3.266  0.6179  0.4046  0.3500
  989MOL0     C36384  12.741   7.577   3.401  0.2978  0.5737  0.2492
  989MOL0     C36385  12.810   7.506   3.513 -0.6672  0.3645 -0.7429
  989MOL0     C36386  12.953   7.550   3.532 -0.2843 -0.0432  0.4290
  989MOL0     C36387  12.977   7.704   3.556  0.5221 -0.4112  0.1018
  989MOL0     C36388  13.122   7.730   3.570  0.0726 -0.3880  0.2895
  989MOL0    Cl36389  13.182   7.688   3.729  0.0262  0.2039  0.4249
  989MOL0     C36390  12.387   7.554   2.966  0.5693 -0.6069 -0.4150
  989MOL0     C36391  12.251   7.547   2.956 -0.2182 -0.0348  0.2253
  989MOL0     O36392  11.998   7.731   3.048 -0.3644  0.3987  0.0616
  989MOL0     C36393  11.826   7.491   2.865  0.4979  0.0936  0.1863
  989MOL0     C36394  11.706   7.468   2.800 -0.7463 -0.2179 -0.1177
  989MOL0     N36395  11.313   7.014   2.907  0.0093 -0.3848 -0.4438
  989MOL0     N36396  11.268   6.897   2.894 -0.8295  0.0660  1.2031
  989MOL0     C36397  10.614   6.467   2.135 -0.1328 -0.4094  0.8223
  989MOL0     C36398  10.602   6.421   1.999 -0.3227  0.0566  0.5610
  989MOL0     C36399  10.417   6.158   1.686 -0.8361 -0.1511  0.1548
  989MOL0     C36400  10.424   6.243   1.574 -0.4031 -0.1762  0.5953
  989MOL0     C36401  10.371   6.200   1.452  0.0727  0.1491 -0.0628
  989MOL0     C36402  10.329   6.069   1.435  0.8147 -0.3370  0.1835
  989MOL0     O36403  10.297   6.050   1.300  0.6115  1.4040  0.3328
  989MOL0     C36404  10.238   5.925   1.257 -0.1420  0.2549 -0.2172
  989MOL0     C36405  10.156   5.946   1.132  0.4221  0.0457 -1.0034
  989MOL0     C36406  10.232   5.923   1.006  0.4912 -0.0506  0.1904
  989MOL0     C36407  10.139   5.942   0.885 -0.1544  0.6605 -0.5942
  989MOL0     C36408  10.055   5.830   0.857 -0.5066 -0.6935 -0.4374
  989MOL0     C36409   9.965   5.751   0.850 -0.1677 -0.2539  0.4360
  989MOL0     C36410  10.319   5.979   1.539 -0.0066  0.0850 -0.5242
  989MOL0     C36411  10.355   6.033   1.666 -1.2924  0.0515  0.8913
  989MOL0     C36412  10.338   5.934   1.775  0.8861 -0.3493  0.2558
  989MOL0     H36413  10.267   6.414   1.972 -1.2665  2.3121  1.7070
  989MOL0     H36414  10.283   6.515   2.203 -0.1190 -0.3796  0.6710
  989MOL0     H36415  10.330   6.481   2.417  0.5463 -2.0461 -3.9265
  989MOL0     H36416  10.366   6.655   2.375  0.6272  1.5313  3.1093
  989MOL0     H36417  10.350   6.615   2.619  0.4521  0.8740  0.2713
  989MOL0     H36418  10.475   6.489   2.608 -1.6483 -1.0470 -1.3469
  989MOL0     H36419  10.554   6.757   2.502 -0.8662 -0.4132  0.0525
  989MOL0     H36420  10.518   6.750   2.678 -2.3772  3.0246 -2.4942
  989MOL0     H36421  10.683   6.565   2.704 -1.9635 -0.6875  0.4811
  989MOL0     H36422  10.709   6.579   2.523  0.4439 -1.8807  1.1767
  989MOL0     H36423  10.792   6.776   2.748  3.1121 -1.0810  1.5311
  989MOL0     H36424  10.818   6.805   2.580 -2.4125  1.8817  1.3116
  989MOL0     H36425  10.932   6.576   2.749 -0.4201 -0.3651 -0.3779
  989MOL0     H36426  10.964   6.605   2.578  2.5534 -0.2234  0.6143
  989MOL0     H36427  11.030   6.861   2.651  1.0141  1.2799  3.9206
  989MOL0     H36428  11.146   6.725   2.656 -1.5049 -4.1970 -1.3581
  989MOL0     H36429  10.953   6.823   2.878 -0.6203 -0.7004 -2.1999
  989MOL0     H36430  11.087   6.706   2.899  0.4966 -0.1536 -0.0280
  989MOL0     H36431  11.029   7.100   2.806  0.5320  2.0494  1.5065
  989MOL0     H36432  11.367   7.274   2.902  0.7489 -2.3947 -0.2045
  989MOL0     H36433  11.194   7.311   2.946 -0.5942 -1.9070  1.3865
  989MOL0     H36434  11.313   7.305   2.666  0.3785  0.9900 -0.6552
  989MOL0     H36435  11.140   7.295   2.703  0.5842 -2.0786  1.4425
  989MOL0     H36436  11.242   7.525   2.658 -1.1981  1.7512 -0.1579
  989MOL0     H36437  11.135   7.507   2.800  0.6058 -0.8353 -0.7438
  989MOL0     H36438  11.350   7.656   2.827 -1.0226  0.0159 -0.3660
  989MOL0     H36439  11.341   7.514   2.946 -2.3816  1.6071  0.1728
  989MOL0     H36440  11.509   7.674   2.984 -0.3645 -1.6921 -1.2098
  989MOL0     H36441  11.626   7.804   3.130  0.5852  0.0956 -0.9480
  989MOL0     H36442  11.805   7.826   3.115  1.6565 -0.4826  1.7433
  989MOL0     H36443  11.745   7.713   3.225 -3.0316  2.8171  1.2391
  989MOL0     H36444  12.163   7.427   3.270 -0.0291  0.0934  0.3438
  989MOL0     H36445  12.417   7.391   3.266  3.5468  0.4688 -1.4913
  989MOL0     H36446  12.743   7.546   2.977  1.8661 -1.8294  2.9700
  989MOL0     H36447  12.613   7.655   2.990 -2.0676 -1.4986 -0.4929
  989MOL0     H36448  12.804   7.732   3.112  0.1769  1.9386  2.6916
  989MOL0     H36449  12.655   7.720   3.210  0.8456 -0.7259  2.4289
  989MOL0     H36450  12.909   7.609   3.280  1.1570 -1.0692  0.3041
  989MOL0     H36451  12.813   7.471   3.228  0.9132  0.8491 -0.8539
  989MOL0     H36452  12.640   7.538   3.389  0.2413 -0.8162  3.9801
  989MOL0     H36453  12.737   7.684   3.424  1.3514  0.6419  0.1708
  989MOL0     H36454  12.750   7.515   3.605  1.2689 -2.7694  1.0108
  989MOL0     H36455  12.813   7.398   3.496 -1.2554 -0.0759  1.5665
  989MOL0     H36456  13.018   7.532   3.446 -0.8987  0.7442 -0.2190
  989MOL0     H36457  13.000   7.495   3.615  0.4016  1.0876  0.8107
  989MOL0     H36458  12.935   7.732   3.653  1.3313  1.6616 -0.1074
  989MOL0     H36459  12.930   7.765   3.479  0.0496  1.4688  1.8114
  989MOL0     H36460  13.132   7.837   3.546 -0.8758 -0.4138 -0.2910
  989MOL0     H36461  13.176   7.671   3.496  0.7681 -0.1771  0.6140
  989MOL0     H36462  12.440   7.595   2.880  3.5890  0.0719  1.6362
  989MOL0     H36463  12.210   7.598   2.869  0.0561  0.0874  0.1662
  989MOL0     H36464  11.912   7.432   2.835 -1.0063 -1.5039 -1.2044
  989MOL0     H36465  11.698   7.384   2.730  0.2010 -1.2336  0.9442
  989MOL0     H36466  10.719   6.478   2.160  0.3103  0.5675 -1.2751
  989MOL0     H36467  10.690   6.394   1.942 -1.7870 -3.8286 -0.2076
  989MOL0     H36468  10.467   6.343   1.578  0.4789 -0.3879 -1.7859
  989MOL0     H36469  10.377   6.261   1.362  0.1632 -0.2624 -0.3356
  989MOL0     H36470  10.314   5.848   1.238  0.0310  0.3713  0.0021
  989MOL0     H36471  10.161   5.898   1.329 -1.2874 -3.0260 -2.4340
  989MOL0     H36472  10.121   6.049   1.135 -0.1334 -0.0867 -2.2776
  989MOL0     H36473  10.059   5.896   1.139 -2.6556  5.4968  1.4063
  989MOL0     H36474  10.298   6.009   0.998  0.7694 -0.2240  0.5943
  989MOL0     H36475  10.285   5.829   0.987 -1.1013 -0.8228 -0.6506
  989MOL0     H36476  10.205   5.957   0.799  0.2165 -0.2894 -0.4856
  989MOL0     H36477  10.082   6.035   0.898 -2.0402 -0.3481 -1.1922
  989MOL0     H36478   9.883   5.682   0.854 -1.7008  1.5491  1.2184
  989MOL0     H36479  10.288   5.875   1.527  0.5361 -0.1050 -0.2934
  989MOL0     H36480  10.434   5.899   1.813  1.3051  1.9645  1.5595
  989MOL0     H36481  10.276   5.976   1.855 -1.0738  1.7111 -2.1578
  989MOL0     H36482  10.271   5.853   1.747 -1.6608  1.5731  0.4048
  990MOL0     O36483   9.035   0.796   3.890  0.0806 -0.1091 -0.6207
  990MOL0     C36484   9.097   0.736   3.801  0.0438 -1.0314 -0.4946
  990MOL0     O36485   9.229   0.700   3.806  0.0867  0.0743 -0.5079
  990MOL0     C36486   9.289   0.725   3.923  0.3163 -0.1426 -0.0277
  990MOL0     C36487   9.314   0.623   4.014 -0.0086  0.9840 -0.0068
  990MOL0     C36488   9.358   0.648   4.139  0.2748  0.2911 -0.0153
  990MOL0     C36489   9.398   0.774   4.185 -0.5576  0.1731  0.0787
  990MOL0     O36490   9.459   0.796   4.308 -0.4504 -0.2140  0.5195
  990MOL0     C36491   9.508   0.690   4.394 -0.7205 -0.3129  0.1578
  990MOL0     C36492   9.654   0.641   4.358 -0.0979 -0.6810 -0.4962
  990MOL0     C36493   9.764   0.742   4.405 -0.7311 -0.1584 -0.0138
  990MOL0     C36494   9.788   0.747   4.559  0.3595  0.4616  0.7284
  990MOL0     C36495   9.908   0.831   4.591  0.5277  0.3282  1.2162
  990MOL0     C36496   9.921   0.835   4.746 -0.3228  0.1805  0.1870
  990MOL0     C36497  10.028   0.931   4.789 -0.6782  0.5407  0.2916
  990MOL0     C36498  10.034   0.948   4.942 -0.4414 -0.6246 -0.2325
  990MOL0     N36499  10.106   1.064   4.993  0.7551 -0.8376  0.2774
  990MOL0     C36500  10.236   1.058   5.030 -0.4856 -0.6075  0.5003
  990MOL0     C36501  10.270   1.182   5.070 -0.0021 -0.2129 -0.0261
  990MOL0     C36502  10.402   1.230   5.111 -0.4836 -0.4039  0.2222
  990MOL0     C36503  10.485   1.261   4.981 -0.2368 -0.2012 -0.0983
  990MOL0     C36504  10.436   1.397   4.923  0.1045  0.6286 -0.1931
  990MOL0     C36505  10.464   1.519   5.017  0.5417  0.7754 -0.3133
  990MOL0     O36506  10.606   1.527   5.033 -0.0900  0.7857  0.7161
  990MOL0     C36507  10.664   1.611   5.128  0.7662 -0.8652 -0.0375
  990MOL0     C36508  10.592   1.671   5.234  0.9000  0.5880  0.4428
  990MOL0     C36509  10.648   1.743   5.338  0.4433  0.3911  0.3691
  990MOL0     C36510  10.561   1.800   5.446  0.7938 -0.6827 -0.6895
  990MOL0     C36511  10.793   1.768   5.328  0.2635  0.3128 -0.6842
  990MOL0     C36512  10.871   1.839   5.437  0.3155  0.1417 -0.2640
  990MOL0     O36513  10.796   1.918   5.527  0.5554 -0.1212  0.8685
  990MOL0     C36514  10.862   2.013   5.599 -0.2422  0.2012 -0.7503
  990MOL0     C36515  10.906   1.978   5.727 -0.3149  0.5250 -0.1249
  990MOL0     C36516  10.968   2.070   5.807  0.6271 -0.4660 -0.0113
  990MOL0     C36517  10.985   2.203   5.763 -0.2869  0.1424 -0.6889
  990MOL0     O36518  11.048   2.284   5.863  0.5648 -0.0809 -1.0512
  990MOL0     C36519  11.089   2.410   5.819  0.6062 -0.3461 -0.2294
  990MOL0     C36520  11.118   2.493   5.943 -1.2800  0.3625 -0.3849
  990MOL0     C36521  11.193   2.622   5.905  0.5944  0.3237  0.0759
  990MOL0     C36522  11.345   2.606   5.866 -0.0647  0.4656 -0.1712
  990MOL0     C36523  11.409   2.745   5.856  0.2957 -0.3243  1.1405
  990MOL0     C36524  11.544   2.736   5.787 -0.7597 -0.3146 -0.8404
  990MOL0     C36525  11.603   2.882   5.790  0.4202  0.4611  0.1454
  990MOL0     C36526  11.758   2.885   5.789 -0.0813  0.2595 -0.0259
  990MOL0    Cl36527  11.794   3.047   5.714  0.0088 -0.1373  0.4615
  990MOL0     C36528  10.959   2.232   5.630  0.3393 -0.2525  1.5488
  990MOL0     C36529  10.892   2.141   5.551  0.1956  0.2999 -0.0328
  990MOL0     O36530  10.993   1.843   5.432 -0.1319 -0.0259  0.6020
  990MOL0     C36531  10.865   1.713   5.217  0.1281  0.7516  0.6075
  990MOL0     C36532  10.795   1.634   5.126  1.2489 -0.0183  0.2562
  990MOL0     N36533  10.161   1.262   5.056  0.2293 -0.3331  0.5018
  990MOL0     N36534  10.063   1.194   5.003 -0.1410  1.0392 -0.2335
  990MOL0     C36535   9.375   0.878   4.097 -0.8458 -0.8962  1.3964
  990MOL0     C36536   9.315   0.859   3.976 -0.4317 -0.6914  0.6626
  990MOL0     C36537   9.009   0.683   3.691 -0.2298 -0.9148  0.2053
  990MOL0     C36538   9.063   0.581   3.602  0.6583 -0.3171  0.5972
  990MOL0     C36539   8.986   0.525   3.496  0.4998  0.0825 -0.3709
  990MOL0     C36540   8.854   0.577   3.467  0.1078  0.7640 -0.5447
  990MOL0     O36541   8.775   0.519   3.372 -0.7736  0.0955  0.1934
  990MOL0     C36542   8.720   0.388   3.406  0.3450 -0.5198  0.1879
  990MOL0     C36543   8.592   0.420   3.489 -0.0347 -0.6726  0.1385
  990MOL0     C36544   8.495   0.298   3.517 -0.3785  0.3198 -0.0336
  990MOL0     C36545   8.425   0.309   3.659  0.3808  0.2376  0.0961
  990MOL0     C36546   8.337   0.193   3.679 -0.4163 -1.0799 -0.0282
  990MOL0     C36547   8.285   0.090   3.692  0.9413 -0.0344  0.2714
  990MOL0     C36548   8.807   0.683   3.543  0.2893  1.1362 -0.4955
  990MOL0     C36549   8.877   0.735   3.656  0.6126  0.3668 -0.0560
  990MOL0     C36550   8.810   0.854   3.726 -0.0388  0.7806 -0.5419
  990MOL0     H36551   9.281   0.522   3.994  0.0834  0.7974  0.7330
  990MOL0     H36552   9.372   0.556   4.194  0.5777 -0.0214 -0.6012
  990MOL0     H36553   9.437   0.610   4.414 -1.1166  0.1376  0.5741
  990MOL0     H36554   9.517   0.741   4.491 -0.9513 -1.4116  0.7729
  990MOL0     H36555   9.673   0.547   4.410 -3.3935 -0.3413  1.5632
  990MOL0     H36556   9.673   0.627   4.251  0.4260  0.2471 -0.5393
  990MOL0     H36557   9.853   0.712   4.347 -1.4213  1.1355 -1.8409
  990MOL0     H36558   9.730   0.840   4.372 -2.5069 -0.7239  0.0328
  990MOL0     H36559   9.699   0.793   4.603 -2.3268 -2.0980 -1.5781
  990MOL0     H36560   9.811   0.643   4.587 -2.3735 -0.8127 -1.2952
  990MOL0     H36561   9.890   0.930   4.547 -1.3844 -1.8029 -3.3415
  990MOL0     H36562  10.002   0.799   4.547  0.1002 -0.2348  0.7089
  990MOL0     H36563   9.828   0.870   4.792  0.2377  0.0815  1.4607
  990MOL0     H36564   9.941   0.734   4.783 -0.2322  1.0519  2.7695
  990MOL0     H36565  10.011   1.032   4.752 -2.3273  0.3589  0.4903
  990MOL0     H36566  10.124   0.892   4.754 -1.1661 -0.8535  0.4488
  990MOL0     H36567   9.928   0.947   4.970 -0.9368  0.9463 -1.8069
  990MOL0     H36568  10.086   0.859   4.978  3.4574  0.7095 -2.0192
  990MOL0     H36569  10.312   0.980   5.035  1.7684  1.4788  1.0385
  990MOL0     H36570  10.454   1.151   5.167  1.5292  0.5084 -0.2406
  990MOL0     H36571  10.392   1.318   5.175  0.9978 -0.0432  0.0101
  990MOL0     H36572  10.592   1.267   5.004 -0.0263  0.4036 -1.1384
  990MOL0     H36573  10.474   1.188   4.901 -0.6958 -0.2558  0.0152
  990MOL0     H36574  10.481   1.420   4.825  3.4165 -1.0352  0.7893
  990MOL0     H36575  10.328   1.405   4.911 -0.2741 -1.7156  1.1327
  990MOL0     H36576  10.433   1.614   4.972 -3.5555  1.2007  2.8708
  990MOL0     H36577  10.410   1.495   5.109  2.6829 -2.3310  0.2729
  990MOL0     H36578  10.488   1.640   5.242  1.5492 -1.4767  1.8408
  990MOL0     H36579  10.601   1.782   5.546  1.2429  3.9443  0.1516
  990MOL0     H36580  10.455   1.772   5.445  0.1297  0.8418  3.9153
  990MOL0     H36581  10.569   1.908   5.434  1.8497 -0.7443 -0.6285
  990MOL0     H36582  10.897   1.882   5.777  2.5461 -1.0791 -2.3934
  990MOL0     H36583  11.001   2.028   5.902 -2.8787  0.8541  1.9452
  990MOL0     H36584  11.178   2.396   5.757  0.8525  1.0646 -0.2224
  990MOL0     H36585  11.019   2.453   5.746  0.4983 -3.0817 -1.9160
  990MOL0     H36586  11.027   2.523   5.995 -1.0048  1.5450 -0.5503
  990MOL0     H36587  11.169   2.436   6.020 -0.4346  2.5820  0.7925
  990MOL0     H36588  11.191   2.688   5.991  3.2008  0.7522 -0.0979
  990MOL0     H36589  11.141   2.663   5.818  0.6593 -1.4637 -0.8601
  990MOL0     H36590  11.360   2.549   5.774  0.3885  2.2655 -1.2449
  990MOL0     H36591  11.396   2.554   5.948 -1.2903 -0.6537 -0.0841
  990MOL0     H36592  11.348   2.816   5.800  2.0112  0.1253 -0.2540
  990MOL0     H36593  11.404   2.786   5.957  0.6465 -0.2112  1.1143
  990MOL0     H36594  11.551   2.689   5.688  2.7577  0.0185 -0.8482
  990MOL0     H36595  11.615   2.672   5.839  0.8664 -0.5363 -3.1755
  990MOL0     H36596  11.565   2.943   5.873  0.0464 -0.2107  0.4861
  990MOL0     H36597  11.567   2.937   5.703  1.8782  2.5965  0.8186
  990MOL0     H36598  11.800   2.805   5.727 -1.8037  0.5062 -1.5762
  990MOL0     H36599  11.794   2.877   5.892  0.3565  1.6095 -0.0531
  990MOL0     H36600  10.989   2.326   5.585 -2.5749  0.3964  0.8058
  990MOL0     H36601  10.865   2.172   5.450 -0.7820 -2.6249 -0.7549
  990MOL0     H36602  10.971   1.731   5.204 -0.1097  1.2738 -0.7977
  990MOL0     H36603  10.839   1.581   5.041 -2.7185 -0.3816 -1.8091
  990MOL0     H36604   9.413   0.973   4.132  0.0021 -0.7028  0.0461
  990MOL0     H36605   9.307   0.942   3.907 -0.7028 -1.1800  0.0959
  990MOL0     H36606   9.157   0.535   3.631 -0.3728 -2.2947  0.9839
  990MOL0     H36607   9.023   0.433   3.453 -0.5970 -1.2570  1.4107
  990MOL0     H36608   8.704   0.328   3.315 -1.2418 -0.6690  0.5348
  990MOL0     H36609   8.794   0.328   3.459 -0.6418 -1.9694 -0.0182
  990MOL0     H36610   8.531   0.493   3.436  0.6704  1.6798  2.3775
  990MOL0     H36611   8.616   0.468   3.584  1.0793  0.0940 -0.5028
  990MOL0     H36612   8.425   0.290   3.433  1.0166 -2.3030 -1.0906
  990MOL0     H36613   8.543   0.200   3.504 -1.2284 -0.0708 -0.2724
  990MOL0     H36614   8.370   0.403   3.663  2.6057  1.6785 -1.1049
  990MOL0     H36615   8.505   0.309   3.734  0.7160  1.0086 -0.2518
  990MOL0     H36616   8.250  -0.010   3.713  1.1851  0.2380  2.1911
  990MOL0     H36617   8.715   0.729   3.508  1.0895  2.4231 -1.0021
  990MOL0     H36618   8.800   0.830   3.832  1.4913 -0.3708 -0.6291
  990MOL0     H36619   8.867   0.946   3.710  0.5046 -0.2215 -6.6237
  990MOL0     H36620   8.711   0.866   3.681  0.0535  1.0661 -0.6738
  991MOL0     O36621   7.645   5.741   0.580 -0.3866  0.0744  0.1055
  991MOL0     C36622   7.667   5.616   0.565 -0.4878  0.7914 -0.5264
  991MOL0     O36623   7.791   5.555   0.557  0.4215 -0.9069 -0.0521
  991MOL0     C36624   7.907   5.623   0.565  0.0736 -0.8926 -0.0241
  991MOL0     C36625   7.950   5.711   0.666  0.7889  0.0260 -0.1275
  991MOL0     C36626   8.077   5.766   0.661 -0.0193 -0.2314  0.6268
  991MOL0     C36627   8.173   5.735   0.568 -1.4488 -0.8728 -0.4734
  991MOL0     O36628   8.293   5.800   0.585  0.3787  0.0150  0.8114
  991MOL0     C36629   8.370   5.791   0.470  0.1553 -0.5193  0.1299
  991MOL0     C36630   8.489   5.889   0.488 -0.1465 -0.2988 -0.1730
  991MOL0     C36631   8.577   5.835   0.604  0.7829  0.1142 -0.6647
  991MOL0     C36632   8.702   5.920   0.616 -0.2677 -0.0057  0.3604
  991MOL0     C36633   8.795   5.876   0.729 -1.0366  0.1108  0.0666
  991MOL0     C36634   8.936   5.937   0.707  0.1934  0.2078  0.2135
  991MOL0     C36635   9.033   5.862   0.785 -0.4871  0.3538 -0.1752
  991MOL0     C36636   9.066   5.714   0.726  0.7302 -0.6227  0.1170
  991MOL0     N36637   9.205   5.687   0.739 -0.1401  0.7457 -0.7501
  991MOL0     C36638   9.273   5.721   0.854 -1.2449  0.5253  0.6959
  991MOL0     C36639   9.398   5.697   0.813 -0.7911 -0.7815  0.4144
  991MOL0     C36640   9.523   5.742   0.878  0.0687 -0.3531 -0.4632
  991MOL0     C36641   9.501   5.756   1.030  0.6715  0.6502  0.9280
  991MOL0     C36642   9.633   5.794   1.096 -0.1143 -0.6132  0.9057
  991MOL0     C36643   9.680   5.929   1.048  0.1183 -0.6948  0.0352
  991MOL0     O36644   9.585   6.030   1.050  0.6130 -0.0854  0.4529
  991MOL0     C36645   9.533   6.085   1.160 -0.0121 -0.1176 -1.0174
  991MOL0     C36646   9.589   6.075   1.289 -0.1135  0.1264 -0.3271
  991MOL0     C36647   9.533   6.137   1.402 -0.4540 -0.2735 -0.1680
  991MOL0     C36648   9.589   6.111   1.543  0.1804  0.1462 -0.2640
  991MOL0     C36649   9.427   6.230   1.378 -0.0296 -0.2865  0.3337
  991MOL0     C36650   9.379   6.319   1.487 -0.5341 -0.5061 -0.3387
  991MOL0     O36651   9.457   6.400   1.566 -0.3855 -0.8123  0.4925
  991MOL0     C36652   9.571   6.460   1.495  0.4267  0.6142 -0.2023
  991MOL0     C36653   9.568   6.505   1.364 -0.3800 -0.4630 -0.2254
  991MOL0     C36654   9.684   6.573   1.307 -0.1086 -0.1052 -0.1413
  991MOL0     C36655   9.803   6.571   1.379  0.4180  0.1988 -0.6172
  991MOL0     O36656   9.923   6.628   1.336  0.6028  0.1187 -0.4152
  991MOL0     C36657   9.911   6.750   1.256  0.0677  0.6889  0.3028
  991MOL0     C36658  10.046   6.813   1.230  0.3589  0.2351 -0.8724
  991MOL0     C36659  10.131   6.852   1.354  0.2588 -0.1189 -0.1031
  991MOL0     C36660  10.274   6.876   1.310  0.5652  0.0582  0.3612
  991MOL0     C36661  10.352   6.943   1.425  0.2247  0.8439  0.3611
  991MOL0     C36662  10.495   6.969   1.394  0.3734  0.1916 -0.5262
  991MOL0     C36663  10.583   6.999   1.518  0.5317  0.0463 -0.2111
  991MOL0     C36664  10.733   6.983   1.486  0.4179 -0.5639 -0.5561
  991MOL0    Cl36665  10.782   7.107   1.361  0.3650  0.2128  0.0707
  991MOL0     C36666   9.797   6.520   1.510 -0.2869 -0.6459 -0.2479
  991MOL0     C36667   9.692   6.463   1.562  0.8887 -0.2090  0.4947
  991MOL0     O36668   9.263   6.299   1.514 -0.3714 -0.1748 -0.5729
  991MOL0     C36669   9.380   6.254   1.245  0.0060 -0.5916  0.4576
  991MOL0     C36670   9.431   6.182   1.138  0.1959 -0.7237 -0.1676
  991MOL0     N36671   9.405   5.643   0.684 -0.6703  0.8422  0.1512
  991MOL0     N36672   9.282   5.635   0.642  0.1494 -0.0448 -0.5313
  991MOL0     C36673   8.139   5.634   0.473  0.3176  0.3618  0.2025
  991MOL0     C36674   8.002   5.583   0.469 -1.1082  0.5692  0.2323
  991MOL0     C36675   7.561   5.525   0.603  0.0283 -0.3212 -0.2416
  991MOL0     C36676   7.554   5.402   0.533  0.9862 -0.1775  0.7713
  991MOL0     C36677   7.444   5.320   0.555  0.7687 -0.4245 -0.0176
  991MOL0     C36678   7.338   5.340   0.643  0.1447 -0.4633 -0.7807
  991MOL0     O36679   7.223   5.269   0.655 -0.5664 -0.0811 -0.2309
  991MOL0     C36680   7.213   5.141   0.591 -0.3723  0.5922  0.5753
  991MOL0     C36681   7.068   5.083   0.613  0.5026  0.6084  0.3648
  991MOL0     C36682   6.970   5.143   0.515  0.0218  0.2308  0.0579
  991MOL0     C36683   6.956   5.050   0.396  0.8586  0.0854  0.4879
  991MOL0     C36684   6.876   5.120   0.285 -0.3545  0.5809  0.3024
  991MOL0     C36685   6.798   5.164   0.204  0.0229  0.9599 -0.1616
  991MOL0     C36686   7.348   5.464   0.709 -0.5181 -0.5543  0.1372
  991MOL0     C36687   7.456   5.553   0.692 -0.4064  0.3031  0.2368
  991MOL0     C36688   7.455   5.671   0.796  0.3187 -0.3007  0.9765
  991MOL0     H36689   7.884   5.746   0.745 -1.8294 -0.2685 -2.0526
  991MOL0     H36690   8.097   5.846   0.732  1.0283 -0.4312  0.5735
  991MOL0     H36691   8.310   5.824   0.385  1.1555 -3.0631 -1.6905
  991MOL0     H36692   8.405   5.691   0.444 -1.7239 -0.5366 -2.7435
  991MOL0     H36693   8.547   5.875   0.397  3.2858 -2.2896  2.1073
  991MOL0     H36694   8.456   5.993   0.490  2.7450  0.7290 -1.2168
  991MOL0     H36695   8.521   5.833   0.699 -1.3720  3.8852 -1.6267
  991MOL0     H36696   8.598   5.729   0.591 -1.0396 -0.3047 -0.5258
  991MOL0     H36697   8.756   5.918   0.521  0.1568  2.2856  0.4801
  991MOL0     H36698   8.681   6.027   0.627 -2.0597  0.0135 -2.2385
  991MOL0     H36699   8.801   5.766   0.733  2.7747  0.1881  0.2496
  991MOL0     H36700   8.753   5.912   0.823  3.1410  0.2518  2.1320
  991MOL0     H36701   8.968   5.931   0.603  0.4901 -1.1614  0.3598
  991MOL0     H36702   8.938   6.041   0.741  0.8608 -0.1564  1.3784
  991MOL0     H36703   9.014   5.842   0.891 -1.3891 -2.1214 -0.7545
  991MOL0     H36704   9.129   5.915   0.785 -0.7024  0.7714 -0.8094
  991MOL0     H36705   9.013   5.641   0.788  0.3003 -0.0712  0.4083
  991MOL0     H36706   9.037   5.698   0.622  1.0054  1.1128 -0.2551
  991MOL0     H36707   9.232   5.770   0.942  1.9313  3.2370  0.8498
  991MOL0     H36708   9.542   5.836   0.825  1.4844 -0.9363 -1.0364
  991MOL0     H36709   9.600   5.665   0.865  1.7021  0.9594  0.9759
  991MOL0     H36710   9.437   5.844   1.044 -0.4749 -0.0555  0.2951
  991MOL0     H36711   9.452   5.668   1.073  0.0649 -0.7170 -2.3037
  991MOL0     H36712   9.637   5.807   1.205  4.6933  0.3254  0.8476
  991MOL0     H36713   9.702   5.713   1.069 -1.2880 -0.3302 -3.7849
  991MOL0     H36714   9.764   5.958   1.113  1.0813 -0.9168 -1.0853
  991MOL0     H36715   9.720   5.924   0.947  3.2954  1.1715  1.0619
  991MOL0     H36716   9.675   6.011   1.308  2.1712  2.9165 -0.5650
  991MOL0     H36717   9.645   6.017   1.545 -0.2932 -0.1382  1.5084
  991MOL0     H36718   9.496   6.100   1.600  1.1483 -0.1564  1.2928
  991MOL0     H36719   9.645   6.197   1.580  2.2046 -0.1783 -2.3274
  991MOL0     H36720   9.475   6.493   1.310 -1.0341  1.3592  0.4257
  991MOL0     H36721   9.676   6.610   1.206 -1.9314  1.7524  0.6177
  991MOL0     H36722   9.876   6.725   1.155  1.6048 -1.5528  0.2459
  991MOL0     H36723   9.853   6.828   1.305  0.6434 -0.0623  2.2764
  991MOL0     H36724  10.116   6.749   1.176  1.7998  0.7736  0.2983
  991MOL0     H36725  10.023   6.900   1.167  2.1832  1.1593 -0.3476
  991MOL0     H36726  10.142   6.778   1.434 -0.4296  1.7573  1.8202
  991MOL0     H36727  10.100   6.949   1.394  1.2017  1.3432 -2.6973
  991MOL0     H36728  10.275   6.940   1.221 -0.3430 -2.3280 -1.5067
  991MOL0     H36729  10.318   6.784   1.270  1.3306  0.2764  0.6878
  991MOL0     H36730  10.301   7.038   1.446 -3.1967 -0.8480  0.4159
  991MOL0     H36731  10.353   6.888   1.519 -0.5653 -0.0363 -0.1204
  991MOL0     H36732  10.511   7.054   1.327  1.1406 -0.5192 -1.2533
  991MOL0     H36733  10.539   6.884   1.342 -2.2683 -0.6870 -1.4757
  991MOL0     H36734  10.564   6.922   1.594  3.8869 -1.1758 -0.4608
  991MOL0     H36735  10.567   7.100   1.557  3.0164  0.3253  0.2103
  991MOL0     H36736  10.733   6.881   1.446 -3.4557 -1.1994  0.5910
  991MOL0     H36737  10.802   7.000   1.569  3.9155 -0.7655 -3.1975
  991MOL0     H36738   9.890   6.525   1.566 -1.5382 -2.3969  2.1417
  991MOL0     H36739   9.696   6.401   1.651  0.4914 -2.1848 -0.8100
  991MOL0     H36740   9.303   6.328   1.225 -0.3202 -0.3189  2.5141
  991MOL0     H36741   9.392   6.188   1.037 -2.3479 -2.3933  0.6060
  991MOL0     H36742   8.213   5.599   0.402  3.1434  1.5116  2.3628
  991MOL0     H36743   7.973   5.505   0.400 -1.0990  1.4135 -0.7537
  991MOL0     H36744   7.638   5.374   0.470  0.9552  0.1181  0.5964
  991MOL0     H36745   7.438   5.222   0.508 -0.5079 -0.2801 -0.1898
  991MOL0     H36746   7.238   5.148   0.485  3.7330 -3.0997  1.0256
  991MOL0     H36747   7.283   5.067   0.630 -1.6135 -0.4754  0.8548
  991MOL0     H36748   7.026   5.106   0.711 -1.3183  1.4031 -0.5430
  991MOL0     H36749   7.056   4.974   0.614  0.4004  0.6043  2.3559
  991MOL0     H36750   6.873   5.146   0.564 -0.0189  0.7029 -0.0494
  991MOL0     H36751   6.997   5.244   0.482  1.8316 -0.1794  0.1496
  991MOL0     H36752   6.897   4.961   0.420 -1.5762  1.3307 -0.4558
  991MOL0     H36753   7.054   5.017   0.362  0.5705  0.8228 -1.1445
  991MOL0     H36754   6.725   5.215   0.145 -2.6189  0.2366  2.2472
  991MOL0     H36755   7.275   5.487   0.785  0.4605 -0.4660  1.0748
  991MOL0     H36756   7.559   5.693   0.823  0.2758  1.1328  0.0853
  991MOL0     H36757   7.400   5.754   0.750  0.4876 -1.3741 -1.2930
  991MOL0     H36758   7.412   5.641   0.892 -1.8882 -0.1871  0.0733
  992MOL0     O36759  10.270   3.925   2.212 -0.0560  0.4685 -0.5169
  992MOL0     C36760  10.235   3.810   2.235 -0.3809 -0.1235 -0.0140
  992MOL0     O36761  10.254   3.748   2.356 -0.7937 -0.5795  0.4691
  992MOL0     C36762  10.322   3.809   2.453  0.0289 -0.4410 -0.8545
  992MOL0     C36763  10.457   3.837   2.437  0.4392 -0.2541 -0.3276
  992MOL0     C36764  10.531   3.867   2.553  0.8276  0.5727 -0.3794
  992MOL0     C36765  10.470   3.895   2.677  0.0007  0.0947  0.5235
  992MOL0     O36766  10.540   3.921   2.784 -0.5737  0.2208 -0.5474
  992MOL0     C36767  10.578   3.796   2.855  0.9651 -0.1253  0.4501
  992MOL0     C36768  10.715   3.804   2.930  0.9185  0.4371  0.5543
  992MOL0     C36769  10.830   3.840   2.826  0.6245 -1.2083 -0.5004
  992MOL0     C36770  10.896   3.718   2.775  0.0461  0.2390 -0.6392
  992MOL0     C36771  10.987   3.748   2.645  0.2593  0.0922  0.2539
  992MOL0     C36772  10.911   3.759   2.508 -0.0574  1.0784  0.2673
  992MOL0     C36773  10.849   3.623   2.467  0.3321 -0.5801  1.2158
  992MOL0     C36774  10.782   3.627   2.325 -0.5665 -0.3794 -0.4820
  992MOL0     N36775  10.877   3.634   2.212 -0.3380 -0.2657 -0.6708
  992MOL0     C36776  10.934   3.532   2.150  0.6264 -1.0165  0.2177
  992MOL0     C36777  10.996   3.586   2.046  0.0944 -1.0147  0.4014
  992MOL0     C36778  11.060   3.503   1.938 -0.2328  0.3437  1.0801
  992MOL0     C36779  11.200   3.537   1.901  0.3604  0.1104  0.1218
  992MOL0     C36780  11.211   3.684   1.861 -0.1901  0.4251  0.1848
  992MOL0     C36781  11.335   3.714   1.786  0.0366 -0.7919  0.1079
  992MOL0     O36782  11.452   3.690   1.863  0.4513  0.1465  0.2595
  992MOL0     C36783  11.568   3.692   1.801 -0.6045  0.0917  0.0487
  992MOL0     C36784  11.585   3.730   1.666 -0.4022 -0.4564 -0.7898
  992MOL0     C36785  11.716   3.723   1.610  0.1712 -0.2621  0.6441
  992MOL0     C36786  11.713   3.764   1.464  0.2277 -0.3622  0.6543
  992MOL0     C36787  11.831   3.695   1.688  0.8592 -0.1733  0.8431
  992MOL0     C36788  11.971   3.708   1.637  0.2596  0.0352 -0.3353
  992MOL0     O36789  12.060   3.717   1.735 -0.9766 -0.1488 -0.1144
  992MOL0     C36790  12.186   3.770   1.717  0.2210 -1.5407  0.3192
  992MOL0     C36791  12.242   3.835   1.602  0.1437  0.8237  0.5159
  992MOL0     C36792  12.367   3.899   1.599  0.9143 -0.9296  0.8994
  992MOL0     C36793  12.439   3.918   1.717  0.6791  0.3315  0.8097
  992MOL0     O36794  12.552   4.002   1.704  0.1094  0.3678 -0.1086
  992MOL0     C36795  12.619   4.033   1.825  1.1375  0.1627 -0.4587
  992MOL0     C36796  12.734   4.125   1.782  0.3290  0.4249 -0.1988
  992MOL0     C36797  12.805   4.176   1.906  0.6642 -0.5191 -0.2405
  992MOL0     C36798  12.880   4.302   1.870 -0.7300  0.7539 -0.0619
  992MOL0     C36799  12.971   4.347   1.988 -0.3149  0.6352  0.3739
  992MOL0     C36800  13.080   4.246   2.024 -1.1231  0.1820  1.0416
  992MOL0     C36801  13.163   4.183   1.913  0.3318  0.2313  0.5999
  992MOL0     C36802  13.103   4.059   1.836 -0.6992  1.6377 -0.1304
  992MOL0    Cl36803  13.067   3.905   1.926  0.1229  0.5575 -0.0762
  992MOL0     C36804  12.397   3.842   1.829  0.0934  0.1907 -0.4533
  992MOL0     C36805  12.276   3.779   1.829  0.4399 -0.6362  0.2659
  992MOL0     O36806  11.995   3.695   1.517 -0.8690 -0.0114  0.0294
  992MOL0     C36807  11.801   3.653   1.820 -0.0749 -0.3392 -0.3734
  992MOL0     C36808  11.674   3.656   1.879  1.1068 -0.4503  0.1776
  992MOL0     N36809  10.969   3.726   2.053 -0.7764 -0.7024 -0.1548
  992MOL0     N36810  10.908   3.754   2.154  0.3541 -0.3747 -0.2082
  992MOL0     C36811  10.327   3.891   2.680  0.1113 -0.2222 -0.5863
  992MOL0     C36812  10.251   3.837   2.576 -0.3109 -0.0133  0.1714
  992MOL0     C36813  10.178   3.731   2.131  0.0710 -0.2672 -0.2355
  992MOL0     C36814  10.104   3.801   2.033  0.5442 -0.9403  0.3238
  992MOL0     C36815  10.053   3.737   1.920 -0.6007 -0.6831 -0.4618
  992MOL0     C36816  10.063   3.598   1.900 -0.0532 -0.0456 -0.3412
  992MOL0     O36817  10.017   3.523   1.792 -0.4118 -0.2518  0.2553
  992MOL0     C36818   9.943   3.599   1.700  0.8800  0.5514  0.4990
  992MOL0     C36819   9.916   3.508   1.582  0.0490  0.3679 -0.8146
  992MOL0     C36820   9.770   3.467   1.571  0.2307 -0.3013  0.1061
  992MOL0     C36821   9.727   3.388   1.699  0.0108 -0.3502  0.8833
  992MOL0     C36822   9.778   3.251   1.706  0.3190 -0.1864 -0.4322
  992MOL0     C36823   9.828   3.143   1.676 -0.1580 -0.1733 -0.0956
  992MOL0     C36824  10.144   3.536   1.990  0.1629  0.0471  0.3691
  992MOL0     C36825  10.212   3.599   2.096 -0.0386 -1.0283  0.8111
  992MOL0     C36826  10.311   3.515   2.165  0.0469  0.2873 -0.5977
  992MOL0     H36827  10.500   3.809   2.342  2.0209 -0.3042  0.3764
  992MOL0     H36828  10.640   3.866   2.552  1.0562  1.7596  3.7000
  992MOL0     H36829  10.587   3.711   2.787  2.5525 -0.1383  0.6529
  992MOL0     H36830  10.513   3.786   2.943  2.2862 -1.2226  1.3496
  992MOL0     H36831  10.707   3.864   3.022  0.5873 -0.6408  1.2382
  992MOL0     H36832  10.732   3.701   2.963 -3.4803 -0.3584  0.9231
  992MOL0     H36833  10.796   3.890   2.735 -0.4841 -0.8581  0.0927
  992MOL0     H36834  10.898   3.912   2.872 -1.2036 -0.0545  0.4778
  992MOL0     H36835  10.956   3.696   2.864  0.8839  4.0639 -0.0764
  992MOL0     H36836  10.820   3.643   2.751 -1.4931  0.6194  2.5087
  992MOL0     H36837  11.057   3.665   2.641  0.6350  0.3724  0.8055
  992MOL0     H36838  11.037   3.845   2.646 -2.2101  1.7156 -4.1893
  992MOL0     H36839  10.833   3.835   2.496  0.5003  1.8753  1.4703
  992MOL0     H36840  10.991   3.773   2.435 -0.7856 -2.9647 -1.5768
  992MOL0     H36841  10.779   3.599   2.547  0.2363  0.6270  1.5114
  992MOL0     H36842  10.920   3.539   2.464 -1.5431 -2.3265 -3.3217
  992MOL0     H36843  10.712   3.543   2.326 -2.4830  1.1177  1.0188
  992MOL0     H36844  10.714   3.713   2.323  0.8585  0.8219 -3.4571
  992MOL0     H36845  10.932   3.428   2.182  0.3382 -1.9293 -2.4732
  992MOL0     H36846  10.992   3.510   1.853  3.3970 -2.7492 -2.5692
  992MOL0     H36847  11.059   3.399   1.974 -2.8921 -0.4348 -0.9096
  992MOL0     H36848  11.266   3.525   1.988  1.0573 -0.3223 -0.4508
  992MOL0     H36849  11.220   3.458   1.827  1.7915 -0.7537  1.3742
  992MOL0     H36850  11.129   3.700   1.791  1.6085  3.4091 -1.4291
  992MOL0     H36851  11.208   3.751   1.948  1.7607 -0.1154  0.7147
  992MOL0     H36852  11.331   3.646   1.700 -1.7605 -0.9934  0.3131
  992MOL0     H36853  11.333   3.813   1.741 -1.5979  0.0751  1.9440
  992MOL0     H36854  11.496   3.760   1.612 -0.1849 -0.1036 -0.9534
  992MOL0     H36855  11.627   3.826   1.441 -2.2746 -3.5116  0.8439
  992MOL0     H36856  11.705   3.670   1.409 -0.5603  0.6996 -1.1320
  992MOL0     H36857  11.807   3.815   1.438 -0.1051 -0.7870 -1.6438
  992MOL0     H36858  12.187   3.835   1.509 -0.8754 -3.1327  0.9359
  992MOL0     H36859  12.395   3.944   1.505  0.0526 -0.8259  0.6799
  992MOL0     H36860  12.552   4.095   1.885  1.3289  2.4296 -2.4651
  992MOL0     H36861  12.657   3.943   1.874 -1.1403 -1.3154 -1.2684
  992MOL0     H36862  12.805   4.083   1.710 -0.3011  1.6334 -1.5905
  992MOL0     H36863  12.697   4.212   1.727  0.0666  0.9410  0.7671
  992MOL0     H36864  12.862   4.102   1.962  0.7190 -0.7453 -0.5901
  992MOL0     H36865  12.729   4.209   1.977 -1.2099  3.0345 -3.5447
  992MOL0     H36866  12.803   4.379   1.858 -1.8437 -0.5147 -1.5263
  992MOL0     H36867  12.940   4.292   1.778 -2.5226 -0.4987 -1.1726
  992MOL0     H36868  13.012   4.445   1.961 -0.6264  1.2938  2.1752
  992MOL0     H36869  12.908   4.373   2.073  0.1331 -0.8477  1.1969
  992MOL0     H36870  13.036   4.163   2.081 -1.0162 -0.3955  0.2964
  992MOL0     H36871  13.153   4.294   2.091  3.5583 -0.7509 -2.8209
  992MOL0     H36872  13.259   4.157   1.959  1.4186  1.9193 -0.5822
  992MOL0     H36873  13.195   4.258   1.840  0.6050 -3.1807 -3.0882
  992MOL0     H36874  13.173   4.034   1.756 -1.6972  0.9306 -0.8097
  992MOL0     H36875  13.009   4.082   1.784 -0.8258 -0.2700 -0.8194
  992MOL0     H36876  12.466   3.837   1.913 -0.1325 -1.1301 -0.3258
  992MOL0     H36877  12.254   3.722   1.919  0.6201 -0.2237  0.5765
  992MOL0     H36878  11.877   3.630   1.894 -0.5879 -0.3595  0.1555
  992MOL0     H36879  11.659   3.616   1.979 -0.4809 -1.8245 -0.5566
  992MOL0     H36880  10.275   3.916   2.772 -0.5138  0.7849 -1.1847
  992MOL0     H36881  10.143   3.828   2.582 -0.3890  1.6669  3.1663
  992MOL0     H36882  10.079   3.903   2.060  2.3331 -0.1703 -0.7482
  992MOL0     H36883  10.005   3.804   1.848  0.5400 -1.5389 -2.0726
  992MOL0     H36884   9.850   3.639   1.743  1.1597  0.2499  1.4070
  992MOL0     H36885  10.002   3.677   1.652  0.5490  0.4743 -0.0422
  992MOL0     H36886   9.979   3.419   1.583  1.1949  1.1691 -0.2843
  992MOL0     H36887   9.947   3.554   1.488 -0.4419  0.9847 -0.6802
  992MOL0     H36888   9.720   3.563   1.556  1.3137  0.3420  0.4756
  992MOL0     H36889   9.741   3.410   1.483 -3.8479  1.6671 -0.0484
  992MOL0     H36890   9.619   3.388   1.684  0.0685 -2.4505  0.1002
  992MOL0     H36891   9.749   3.444   1.790  0.9425  2.7499 -1.1165
  992MOL0     H36892   9.866   3.045   1.654 -2.3831 -1.2242  0.4586
  992MOL0     H36893  10.173   3.432   1.975  2.8599  0.8991 -0.9527
  992MOL0     H36894  10.338   3.431   2.100  0.1933  0.1606 -0.3759
  992MOL0     H36895  10.411   3.557   2.180  0.9052 -1.4244 -1.2902
  992MOL0     H36896  10.266   3.490   2.261  2.6425 -0.3907  0.5424
  993MOL0     O36897   4.855   1.290   1.550  0.3418  0.3177 -0.2994
  993MOL0     C36898   4.895   1.353   1.454  0.3491  1.3561  0.5639
  993MOL0     O36899   4.861   1.495   1.427 -0.3209 -0.1063 -0.2347
  993MOL0     C36900   4.778   1.565   1.513 -0.8029 -0.4395 -0.1965
  993MOL0     C36901   4.756   1.541   1.650  0.6570  0.7836  0.3263
  993MOL0     C36902   4.657   1.607   1.719 -0.1021  1.0226  0.1826
  993MOL0     C36903   4.590   1.713   1.657  0.8678 -0.6261 -0.5699
  993MOL0     O36904   4.503   1.774   1.745  0.7269  0.5001  0.2247
  993MOL0     C36905   4.414   1.879   1.707  0.2762 -0.3922 -0.5806
  993MOL0     C36906   4.293   1.859   1.604 -0.4918  0.4170  0.3423
  993MOL0     C36907   4.240   1.998   1.559  0.0871 -0.4276 -0.0552
  993MOL0     C36908   4.206   2.097   1.677  0.1543  0.2685 -0.2487
  993MOL0     C36909   4.108   2.055   1.790  0.4698 -0.1996  0.2442
  993MOL0     C36910   4.090   2.158   1.900 -0.0390  0.6591  0.3952
  993MOL0     C36911   3.978   2.104   1.987 -0.0963  0.3216 -0.9921
  993MOL0     C36912   3.972   2.168   2.125  0.6730 -0.1522  0.0191
  993MOL0     N36913   3.930   2.067   2.222  0.4943  0.0821 -0.2182
  993MOL0     C36914   4.005   2.003   2.319  0.6363 -0.0987  0.0447
  993MOL0     C36915   3.913   1.954   2.401 -0.2059  1.2650 -0.0332
  993MOL0     C36916   3.951   1.865   2.516  0.7184  0.3496 -0.4628
  993MOL0     C36917   3.824   1.797   2.579 -0.2173  0.5003 -0.1223
  993MOL0     C36918   3.855   1.772   2.736 -0.0261  0.3105  0.6935
  993MOL0     C36919   3.953   1.669   2.767  0.0039 -0.4916 -0.6129
  993MOL0     O36920   4.095   1.707   2.733 -0.2905  0.2231 -0.9166
  993MOL0     C36921   4.187   1.611   2.695 -0.3570 -0.6569 -1.0697
  993MOL0     C36922   4.167   1.471   2.692 -0.4576 -0.7792 -0.2681
  993MOL0     C36923   4.273   1.380   2.668 -0.1000  0.1840  0.1696
  993MOL0     C36924   4.243   1.230   2.687 -0.1129  0.2432  0.4568
  993MOL0     C36925   4.400   1.437   2.647  0.8684  0.1210  0.2118
  993MOL0     C36926   4.521   1.353   2.620  0.3396  0.0924  0.1607
  993MOL0     O36927   4.517   1.214   2.604 -0.5909  0.8129  0.1916
  993MOL0     C36928   4.635   1.144   2.633  0.0207 -0.2839  1.3489
  993MOL0     C36929   4.635   1.069   2.750  0.3107  0.9914 -0.0081
  993MOL0     C36930   4.742   1.005   2.799  0.0579 -0.3306 -1.4821
  993MOL0     C36931   4.860   1.006   2.724 -0.2405 -0.4660 -0.8976
  993MOL0     O36932   4.973   0.948   2.780 -0.0928 -0.6105 -0.2015
  993MOL0     C36933   5.102   0.949   2.720 -0.2902  0.1998  0.6781
  993MOL0     C36934   5.207   0.865   2.787 -0.0679 -0.0080 -0.5307
  993MOL0     C36935   5.348   0.907   2.759  0.5404  0.2432 -0.9617
  993MOL0     C36936   5.452   0.806   2.823  0.5275  0.0537 -0.5554
  993MOL0     C36937   5.589   0.831   2.766 -0.0344 -0.6501 -0.9379
  993MOL0     C36938   5.701   0.735   2.817  0.5983  0.0475 -0.8474
  993MOL0     C36939   5.823   0.762   2.727 -0.6795 -0.0561  0.1455
  993MOL0     C36940   5.954   0.684   2.760  0.1250 -0.5372  0.5078
  993MOL0    Cl36941   5.924   0.519   2.818 -0.1150 -0.6014  0.2378
  993MOL0     C36942   4.860   1.065   2.590 -0.1274  0.5696  0.1170
  993MOL0     C36943   4.750   1.136   2.548 -0.2889 -0.1141 -0.0037
  993MOL0     O36944   4.629   1.411   2.642  1.0517  0.5913  0.3927
  993MOL0     C36945   4.406   1.576   2.639  0.2173 -0.6795  0.2503
  993MOL0     C36946   4.305   1.663   2.671 -0.0173 -0.8341  0.1604
  993MOL0     N36947   3.792   1.967   2.349 -1.1972  0.5364 -0.4874
  993MOL0     N36948   3.799   2.036   2.235  0.2150  0.3840 -1.3816
  993MOL0     C36949   4.615   1.744   1.526 -0.5972  0.1439  0.4393
  993MOL0     C36950   4.705   1.671   1.457 -0.4257  0.4765  0.0700
  993MOL0     C36951   4.985   1.286   1.361  1.2455  0.4666 -0.3166
  993MOL0     C36952   5.032   1.363   1.254 -0.3027 -0.6367 -0.5085
  993MOL0     C36953   5.135   1.326   1.170  0.0570  0.0174 -1.0802
  993MOL0     C36954   5.190   1.197   1.185 -0.1327 -0.3938 -0.3660
  993MOL0     O36955   5.294   1.152   1.112 -0.4248 -0.7491  0.0694
  993MOL0     C36956   5.374   1.240   1.031 -0.1408  0.0684  0.0539
  993MOL0     C36957   5.495   1.155   0.994  0.0855  0.2960 -0.0476
  993MOL0     C36958   5.458   1.042   0.891 -0.8091 -0.2585  0.0799
  993MOL0     C36959   5.452   1.116   0.750 -0.3544 -0.3788 -0.5010
  993MOL0     C36960   5.427   1.013   0.644  0.1252  0.4668 -0.3539
  993MOL0     C36961   5.416   0.924   0.559 -0.4082  0.1423  0.0285
  993MOL0     C36962   5.135   1.120   1.289  0.2313 -0.4874 -0.4831
  993MOL0     C36963   5.036   1.157   1.376 -0.5110  0.7071  0.0143
  993MOL0     C36964   5.004   1.066   1.483 -0.7394  0.0530  0.0939
  993MOL0     H36965   4.811   1.464   1.702 -0.5273 -0.9661 -0.8922
  993MOL0     H36966   4.632   1.568   1.817 -0.4752  2.2713  0.6022
  993MOL0     H36967   4.481   1.956   1.668  0.7769  0.7673  2.3134
  993MOL0     H36968   4.377   1.914   1.804 -1.3327 -1.2752 -0.8404
  993MOL0     H36969   4.339   1.805   1.521  1.1829  3.2737 -0.7807
  993MOL0     H36970   4.218   1.793   1.647 -0.1571  0.0245  0.3239
  993MOL0     H36971   4.323   2.037   1.499  1.5853 -0.7310  1.7259
  993MOL0     H36972   4.153   1.984   1.494  2.2408  0.0567 -3.2330
  993MOL0     H36973   4.302   2.111   1.727 -0.0958 -1.7589  0.8712
  993MOL0     H36974   4.163   2.186   1.631  0.4731 -0.6011 -2.3823
  993MOL0     H36975   4.150   1.964   1.834  2.2781  0.0934 -0.7785
  993MOL0     H36976   4.012   2.034   1.741  0.4575  0.0495  0.1584
  993MOL0     H36977   4.183   2.172   1.955  1.0101 -1.3445 -0.7744
  993MOL0     H36978   4.060   2.257   1.863  0.5513  0.6889 -0.0160
  993MOL0     H36979   4.000   1.998   2.007  0.8069  0.8212  0.8175
  993MOL0     H36980   3.881   2.117   1.939 -0.3677  1.6823 -0.1098
  993MOL0     H36981   4.064   2.214   2.163  0.9760 -2.4240  2.2728
  993MOL0     H36982   3.898   2.248   2.128  0.3991 -0.4232  1.3087
  993MOL0     H36983   4.113   2.009   2.330  0.4412  2.3433  1.5837
  993MOL0     H36984   4.002   1.919   2.596 -2.4641  0.2268  1.8224
  993MOL0     H36985   4.029   1.794   2.485  1.1250 -0.8452  2.8481
  993MOL0     H36986   3.737   1.863   2.571 -1.2346 -0.8602 -0.7620
  993MOL0     H36987   3.805   1.705   2.523  0.0184  0.1311  0.3983
  993MOL0     H36988   3.874   1.866   2.788  1.4139  0.8867 -0.7928
  993MOL0     H36989   3.767   1.731   2.787  0.8109  0.2721  2.1527
  993MOL0     H36990   3.948   1.658   2.876 -0.2882 -1.5952 -0.7217
  993MOL0     H36991   3.927   1.575   2.717  0.7964 -0.9104 -0.2416
  993MOL0     H36992   4.067   1.434   2.710  0.0229 -0.7023  3.1610
  993MOL0     H36993   4.266   1.173   2.596  1.4156  0.8099  0.4604
  993MOL0     H36994   4.139   1.200   2.700 -0.3023  0.1641 -1.0183
  993MOL0     H36995   4.307   1.200   2.770 -0.1538  2.0764  1.2023
  993MOL0     H36996   4.537   1.073   2.797  0.3567  3.8452  0.0121
  993MOL0     H36997   4.728   0.960   2.898  1.6912 -2.1127 -2.0010
  993MOL0     H36998   5.091   0.912   2.618  0.5585  1.4703  0.0992
  993MOL0     H36999   5.141   1.051   2.721 -0.5045  0.2805  1.6454
  993MOL0     H37000   5.198   0.863   2.896 -0.9704  0.0772 -0.5879
  993MOL0     H37001   5.209   0.759   2.758  0.6156 -1.0391  2.8646
  993MOL0     H37002   5.366   1.010   2.791 -1.1192  0.4438 -0.6088
  993MOL0     H37003   5.356   0.896   2.650 -2.1621 -1.5365 -1.0617
  993MOL0     H37004   5.438   0.699   2.810  1.4570 -0.3124  1.2000
  993MOL0     H37005   5.454   0.829   2.930 -0.5442 -0.3503 -0.4333
  993MOL0     H37006   5.578   0.823   2.658  1.8924  1.1347 -1.3376
  993MOL0     H37007   5.618   0.935   2.783  0.1120 -1.1338  2.6211
  993MOL0     H37008   5.667   0.631   2.809  1.3207 -0.3949  1.2009
  993MOL0     H37009   5.714   0.753   2.924 -1.3802  0.2748 -0.6091
  993MOL0     H37010   5.842   0.869   2.735  3.0143 -0.6042  0.6995
  993MOL0     H37011   5.806   0.751   2.620  0.0100 -0.7042  0.0882
  993MOL0     H37012   6.023   0.733   2.829  0.5728 -1.4939  0.7564
  993MOL0     H37013   6.012   0.680   2.667  0.6199 -0.2526  0.8003
  993MOL0     H37014   4.944   1.045   2.524 -0.3149 -0.3482  0.1478
  993MOL0     H37015   4.754   1.189   2.454 -1.4354  2.3886  1.2521
  993MOL0     H37016   4.501   1.610   2.598 -0.0786 -0.9226 -0.6584
  993MOL0     H37017   4.318   1.770   2.676 -1.6929 -0.6226  0.5593
  993MOL0     H37018   4.578   1.830   1.473 -0.0199  0.1322  0.0070
  993MOL0     H37019   4.714   1.711   1.357  2.2750  1.4837  0.6282
  993MOL0     H37020   4.991   1.461   1.230  1.9276  0.2854 -0.8236
  993MOL0     H37021   5.164   1.381   1.081 -0.1378 -1.0522 -1.8378
  993MOL0     H37022   5.317   1.282   0.948 -1.3753  0.2200  0.9501
  993MOL0     H37023   5.406   1.323   1.095  0.3560 -0.8869  1.0897
  993MOL0     H37024   5.544   1.112   1.082  0.7052  2.3509  0.6859
  993MOL0     H37025   5.574   1.219   0.953 -0.3908  0.1970 -1.1677
  993MOL0     H37026   5.535   0.964   0.889 -1.8493 -1.3696 -3.1243
  993MOL0     H37027   5.358   1.001   0.910 -1.2189 -0.5257 -2.3247
  993MOL0     H37028   5.550   1.159   0.726  1.4849 -4.1462 -0.5245
  993MOL0     H37029   5.368   1.185   0.742 -0.4399 -0.1357  1.7718
  993MOL0     H37030   5.398   0.849   0.484  3.4445 -1.1569  0.2046
  993MOL0     H37031   5.171   1.018   1.289  0.0027 -0.5715 -1.1016
  993MOL0     H37032   5.005   1.111   1.583 -0.0219  1.9762 -0.7375
  993MOL0     H37033   4.910   1.019   1.452 -0.0350 -1.2018 -0.2203
  993MOL0     H37034   5.067   0.980   1.508 -1.6304 -0.5182  0.4251
  994MOL0     O37035   9.953   8.690   7.087 -0.5576  0.2352 -0.1337
  994MOL0     C37036   9.935   8.569   7.121 -1.0658 -0.3312  0.7881
  994MOL0     O37037  10.029   8.461   7.104 -0.0712 -0.5241  0.1714
  994MOL0     C37038  10.148   8.489   7.040  0.3470 -0.1470  0.0790
  994MOL0     C37039  10.168   8.580   6.933  0.8472 -0.3959  0.4958
  994MOL0     C37040  10.292   8.599   6.875 -0.0111  0.7779 -0.4976
  994MOL0     C37041  10.399   8.527   6.910 -0.4924 -0.8948  0.1547
  994MOL0     O37042  10.524   8.543   6.859 -0.7222  0.4574  0.5470
  994MOL0     C37043  10.563   8.652   6.776 -0.4181 -0.7643 -0.3035
  994MOL0     C37044  10.582   8.777   6.856  0.2622 -0.2138 -0.1576
  994MOL0     C37045  10.654   8.885   6.786  0.4338  0.1423  0.4665
  994MOL0     C37046  10.704   8.998   6.874  0.0681 -0.5292 -0.4634
  994MOL0     C37047  10.811   9.083   6.792  0.5838  0.4607 -0.7318
  994MOL0     C37048  10.761   9.164   6.679  0.3729 -0.1381  0.2642
  994MOL0     C37049  10.866   9.239   6.605 -0.7487 -0.0060  0.1211
  994MOL0     C37050  10.799   9.313   6.500 -0.0749  0.1382  0.7780
  994MOL0     N37051  10.884   9.354   6.389 -0.2157 -0.9461  0.3140
  994MOL0     C37052  10.988   9.443   6.401 -0.3593  0.1441  0.4840
  994MOL0     C37053  11.045   9.449   6.278 -0.0537  0.6751  0.5836
  994MOL0     C37054  11.157   9.536   6.250 -0.7674 -0.4158  0.3228
  994MOL0     C37055  11.302   9.469   6.266  0.6425  0.2638  0.0143
  994MOL0     C37056  11.342   9.383   6.148 -0.0528  0.2947  0.1788
  994MOL0     C37057  11.476   9.320   6.171  0.6272 -0.1263  0.3166
  994MOL0     O37058  11.468   9.215   6.270  0.3614 -0.3154 -0.1951
  994MOL0     C37059  11.581   9.205   6.348  0.4468  0.6115  0.1603
  994MOL0     C37060  11.570   9.261   6.465  0.4867 -0.6933 -0.1355
  994MOL0     C37061  11.682   9.252   6.557 -1.2416 -0.0143  0.5830
  994MOL0     C37062  11.651   9.300   6.704 -0.7409 -0.7266 -0.1141
  994MOL0     C37063  11.801   9.180   6.524 -0.3913 -0.6070 -0.7827
  994MOL0     C37064  11.922   9.149   6.604  0.4788 -0.2483  0.1152
  994MOL0     O37065  12.022   9.094   6.533  0.7112 -0.0382 -0.4925
  994MOL0     C37066  12.140   9.058   6.594 -0.0211  0.1047 -0.6237
  994MOL0     C37067  12.196   8.933   6.562  0.9672 -1.0907 -0.1324
  994MOL0     C37068  12.315   8.891   6.624 -0.6654  0.8030 -0.1545
  994MOL0     C37069  12.394   8.976   6.702  0.2295 -0.5285 -0.6526
  994MOL0     O37070  12.516   8.948   6.767  0.2717  0.3695  0.6494
  994MOL0     C37071  12.599   8.853   6.692  0.4635 -0.7540 -0.6046
  994MOL0     C37072  12.579   8.712   6.753 -0.4777  0.1537  0.0251
  994MOL0     C37073  12.632   8.701   6.897 -0.2100  0.5071  0.0344
  994MOL0     C37074  12.779   8.654   6.889  0.1057 -0.2758  0.8667
  994MOL0     C37075  12.841   8.649   7.026  0.1089 -0.1159  0.0668
  994MOL0     C37076  12.988   8.671   7.016 -0.2760 -0.8856  1.0012
  994MOL0     C37077  13.050   8.663   7.152 -0.9293 -0.0315  0.2834
  994MOL0     C37078  13.200   8.655   7.125 -0.7388 -0.0691 -1.2275
  994MOL0    Cl37079  13.286   8.667   7.285 -0.6161 -0.2557  0.4753
  994MOL0     C37080  12.332   9.100   6.744  0.5534 -0.2863  0.1216
  994MOL0     C37081  12.212   9.141   6.691  0.4028  0.6276  0.1367
  994MOL0     O37082  11.915   9.162   6.729 -0.6769  0.2595 -0.4530
  994MOL0     C37083  11.800   9.134   6.393 -0.3556  0.1554  0.2636
  994MOL0     C37084  11.695   9.141   6.306  0.0711  0.6728 -0.5467
  994MOL0     N37085  10.986   9.359   6.192  0.1446  0.8084 -0.1899
  994MOL0     N37086  10.875   9.307   6.257 -0.6135  0.1174 -0.7321
  994MOL0     C37087  10.389   8.436   7.011 -0.0541 -0.2132 -1.6816
  994MOL0     C37088  10.262   8.418   7.080 -0.7774  0.2684 -0.9025
  994MOL0     C37089   9.797   8.525   7.153 -0.4728  0.1896 -0.3204
  994MOL0     C37090   9.790   8.402   7.228  0.1881 -0.0337  0.2686
  994MOL0     C37091   9.674   8.360   7.284  0.5461  0.7536  0.9534
  994MOL0     C37092   9.552   8.421   7.256 -0.0145  0.6218 -0.5645
  994MOL0     O37093   9.444   8.367   7.324 -0.2759  0.0725 -0.3911
  994MOL0     C37094   9.349   8.460   7.370  0.2168 -1.4226  0.2818
  994MOL0     C37095   9.217   8.397   7.333  0.4377  0.7252  0.3475
  994MOL0     C37096   9.084   8.454   7.407 -0.2578 -0.1612  0.1142
  994MOL0     C37097   8.953   8.391   7.366 -0.7677 -0.2949 -0.1894
  994MOL0     C37098   8.933   8.386   7.218  0.3495 -0.0692 -0.7671
  994MOL0     C37099   8.917   8.388   7.099  0.2292 -0.3859  0.4490
  994MOL0     C37100   9.553   8.539   7.182 -0.6520 -0.3685 -0.1238
  994MOL0     C37101   9.673   8.592   7.136  0.4951  0.0833  0.5278
  994MOL0     C37102   9.647   8.734   7.077 -0.2976  0.0278 -0.4971
  994MOL0     H37103  10.090   8.630   6.876  1.2457 -1.8527 -1.4025
  994MOL0     H37104  10.288   8.671   6.794 -1.1121  4.3321  2.4394
  994MOL0     H37105  10.492   8.662   6.694 -2.3718  0.0591  1.3848
  994MOL0     H37106  10.662   8.620   6.741  1.1901 -2.0944  4.6529
  994MOL0     H37107  10.489   8.804   6.908  0.1084 -3.0190  1.2381
  994MOL0     H37108  10.651   8.757   6.938 -0.6052  0.2666  0.7160
  994MOL0     H37109  10.738   8.854   6.723  3.2613  2.7216  2.6549
  994MOL0     H37110  10.582   8.927   6.716  1.8443  0.7217 -0.6846
  994MOL0     H37111  10.615   9.060   6.876  0.2871 -0.1484 -1.6558
  994MOL0     H37112  10.750   8.976   6.971  2.7599 -0.7262 -1.6680
  994MOL0     H37113  10.895   9.015   6.774  1.0669  0.0951  2.4851
  994MOL0     H37114  10.856   9.154   6.862  1.2161  0.4610 -1.1281
  994MOL0     H37115  10.711   9.100   6.605  1.2624  0.4068 -0.8341
  994MOL0     H37116  10.689   9.237   6.715 -0.9533  0.2389 -2.8320
  994MOL0     H37117  10.932   9.174   6.547  0.3968  2.7190 -1.8183
  994MOL0     H37118  10.928   9.300   6.670  0.0851 -1.3656  0.6556
  994MOL0     H37119  10.724   9.249   6.452  0.8499 -1.0729  0.8950
  994MOL0     H37120  10.757   9.401   6.549 -2.0240 -1.2579  1.7396
  994MOL0     H37121  11.029   9.488   6.491  2.3375  1.3718 -1.2381
  994MOL0     H37122  11.163   9.623   6.316 -1.1041 -0.1463  0.0081
  994MOL0     H37123  11.138   9.570   6.147 -2.2691 -1.8473  0.0893
  994MOL0     H37124  11.377   9.548   6.269  2.9907 -1.8364  1.0673
  994MOL0     H37125  11.310   9.407   6.356 -1.8368  1.1283  0.9170
  994MOL0     H37126  11.273   9.298   6.137 -1.7280  1.4401  1.3167
  994MOL0     H37127  11.345   9.450   6.062 -0.2872 -1.8096 -1.5746
  994MOL0     H37128  11.509   9.277   6.075  3.1387 -0.1835  1.1257
  994MOL0     H37129  11.550   9.394   6.201 -0.0311 -0.2932  2.5526
  994MOL0     H37130  11.484   9.319   6.499  1.8485  1.6457 -0.4928
  994MOL0     H37131  11.666   9.210   6.763  0.9900  1.1861  2.5921
  994MOL0     H37132  11.548   9.333   6.717 -0.0122  0.8940  2.0946
  994MOL0     H37133  11.729   9.370   6.737  1.3701 -2.1064 -1.8688
  994MOL0     H37134  12.159   8.877   6.477  1.7836 -3.0623  0.7669
  994MOL0     H37135  12.358   8.797   6.591 -1.4445  0.8249 -1.2702
  994MOL0     H37136  12.570   8.852   6.586  2.0219  1.3927 -1.1127
  994MOL0     H37137  12.702   8.889   6.704 -0.7028  2.4167  1.0864
  994MOL0     H37138  12.471   8.694   6.752 -0.5582  0.6107 -1.2386
  994MOL0     H37139  12.629   8.640   6.688  1.1083 -0.1825  1.5525
  994MOL0     H37140  12.575   8.633   6.961  2.4396  1.2640  3.4401
  994MOL0     H37141  12.628   8.802   6.938  0.5074  1.5220 -2.2024
  994MOL0     H37142  12.828   8.735   6.835 -0.6360 -1.2278 -1.3173
  994MOL0     H37143  12.783   8.560   6.833 -0.1668 -0.9652  1.9673
  994MOL0     H37144  12.796   8.726   7.089  4.4628  0.8052  2.3982
  994MOL0     H37145  12.819   8.555   7.076  0.3878  0.1429  0.6951
  994MOL0     H37146  13.000   8.765   6.962 -2.7231 -1.8377 -1.4388
  994MOL0     H37147  13.036   8.603   6.946  0.2243  0.9558 -0.5231
  994MOL0     H37148  13.019   8.575   7.209  0.1486  0.0353  0.9954
  994MOL0     H37149  13.033   8.756   7.209  0.1131 -0.6586  1.6746
  994MOL0     H37150  13.242   8.729   7.057  0.3399  3.0280  2.4574
  994MOL0     H37151  13.213   8.556   7.081 -0.0658 -1.4122  1.7542
  994MOL0     H37152  12.380   9.168   6.813 -2.8060 -0.5297  2.9381
  994MOL0     H37153  12.167   9.233   6.727  0.5328  0.8116 -0.1705
  994MOL0     H37154  11.882   9.076   6.352  0.1692  0.4368  0.8992
  994MOL0     H37155  11.696   9.097   6.207 -2.6358  0.6846 -0.6507
  994MOL0     H37156  10.476   8.385   7.052 -0.0963  0.6120 -0.5008
  994MOL0     H37157  10.255   8.349   7.164 -0.2738  3.2866  1.8055
  994MOL0     H37158   9.872   8.333   7.245  0.8406 -0.6378 -4.0780
  994MOL0     H37159   9.673   8.270   7.345 -1.0155 -1.1076 -1.6426
  994MOL0     H37160   9.359   8.477   7.478  4.3749  0.2737 -0.1765
  994MOL0     H37161   9.362   8.561   7.330  0.5498 -1.6565 -0.2094
  994MOL0     H37162   9.218   8.289   7.350 -2.3943  0.6045  0.2169
  994MOL0     H37163   9.200   8.410   7.226  2.1635  1.2296  0.1136
  994MOL0     H37164   9.104   8.423   7.510  3.6302 -0.0645 -0.4593
  994MOL0     H37165   9.077   8.562   7.391 -1.7091 -0.2665 -0.1058
  994MOL0     H37166   8.871   8.456   7.400 -1.1284 -0.9131  0.1579
  994MOL0     H37167   8.958   8.299   7.425  1.6051  1.3562  2.4281
  994MOL0     H37168   8.896   8.392   6.994  3.1788  0.7758 -0.2016
  994MOL0     H37169   9.460   8.594   7.173 -0.7253 -0.2862  1.0308
  994MOL0     H37170   9.709   8.808   7.127 -0.8680 -0.0195  0.2964
  994MOL0     H37171   9.676   8.737   6.972 -2.1559  0.0808 -1.0452
  994MOL0     H37172   9.541   8.761   7.073 -1.0575 -2.5271  0.2168
  995MOL0     O37173   3.953   3.488   0.431  0.1963  0.0263  0.7022
  995MOL0     C37174   3.989   3.503   0.317 -0.0302 -0.1099  0.8369
  995MOL0     O37175   3.920   3.469   0.202 -0.1379  0.9457 -0.0587
  995MOL0     C37176   3.790   3.425   0.207 -0.8625  0.0708  0.3069
  995MOL0     C37177   3.741   3.323   0.289  0.1118  0.4207  0.4760
  995MOL0     C37178   3.607   3.286   0.307  0.0734  0.7237 -0.5663
  995MOL0     C37179   3.508   3.349   0.226 -0.0733  0.3931  0.4977
  995MOL0     O37180   3.380   3.313   0.230  0.2410  0.0686  0.7866
  995MOL0     C37181   3.332   3.242   0.347  0.0149  0.4826  0.5443
  995MOL0     C37182   3.201   3.172   0.310 -0.1976 -0.1176  0.6410
  995MOL0     C37183   3.220   3.063   0.206  0.1545 -0.1700  0.4759
  995MOL0     C37184   3.083   2.986   0.211  0.6700  0.6752 -1.0396
  995MOL0     C37185   3.065   2.901   0.086  0.0933 -0.6671  0.4086
  995MOL0     C37186   3.014   2.978  -0.036  0.5104  0.1587 -0.3122
  995MOL0     C37187   3.007   2.873  -0.158  1.4931  0.9480  0.3535
  995MOL0     C37188   3.000   2.949  -0.287 -0.7513  0.1305 -0.1317
  995MOL0     N37189   2.991   2.845  -0.388  0.3285 -0.3584  0.9416
  995MOL0     C37190   2.868   2.786  -0.410 -0.1967  0.8494 -0.0749
  995MOL0     C37191   2.877   2.728  -0.534  0.2593 -0.1469  0.6770
  995MOL0     C37192   2.778   2.645  -0.617 -0.5475 -0.3061 -0.8067
  995MOL0     C37193   2.708   2.728  -0.723  0.0282 -0.5454  0.3465
  995MOL0     C37194   2.794   2.766  -0.847 -0.0473  0.4040 -0.2752
  995MOL0     C37195   2.843   2.644  -0.922 -0.9609  0.4842  0.1940
  995MOL0     O37196   2.923   2.674  -1.045 -0.7649 -0.4485  0.3311
  995MOL0     C37197   3.051   2.723  -1.044 -0.8705 -0.9457  1.0342
  995MOL0     C37198   3.121   2.747  -0.932 -1.2344  0.7653  0.6307
  995MOL0     C37199   3.252   2.802  -0.942  0.2778  0.6761 -0.2271
  995MOL0     C37200   3.311   2.820  -0.802  0.3859  0.2340 -0.1379
  995MOL0     C37201   3.320   2.821  -1.059 -0.2036 -0.6224  0.8821
  995MOL0     C37202   3.466   2.855  -1.064 -0.2343  0.3350 -0.8905
  995MOL0     O37203   3.527   2.839  -1.183  0.5885 -0.5217 -0.2936
  995MOL0     C37204   3.666   2.842  -1.181  0.1885 -0.4273 -0.1831
  995MOL0     C37205   3.739   2.729  -1.175  0.6202  0.1980  0.8332
  995MOL0     C37206   3.873   2.739  -1.206 -0.3334 -0.5086 -0.8017
  995MOL0     C37207   3.943   2.861  -1.213 -0.2021 -0.3567  0.3266
  995MOL0     O37208   4.080   2.852  -1.240  0.1547 -0.1743 -0.2024
  995MOL0     C37209   4.156   2.971  -1.240 -0.5338  0.5071 -0.6467
  995MOL0     C37210   4.297   2.936  -1.293  0.4267 -0.2472  0.0032
  995MOL0     C37211   4.353   2.807  -1.231 -0.0482  0.4802 -0.0665
  995MOL0     C37212   4.511   2.811  -1.231  0.0434 -0.4644  0.0758
  995MOL0     C37213   4.581   2.676  -1.252 -0.7527 -0.2562  0.1338
  995MOL0     C37214   4.719   2.684  -1.193  0.4363 -0.5716  0.9468
  995MOL0     C37215   4.812   2.583  -1.262 -0.0986 -0.2960  0.3400
  995MOL0     C37216   4.939   2.545  -1.181 -0.3579  0.2364  0.0460
  995MOL0    Cl37217   5.070   2.474  -1.279  0.1197  0.7894  0.0373
  995MOL0     C37218   3.867   2.980  -1.195 -0.9314  0.5579 -0.6886
  995MOL0     C37219   3.725   2.969  -1.193 -0.1423 -0.0834 -0.0018
  995MOL0     O37220   3.523   2.902  -0.963  1.0915 -0.4998 -0.0026
  995MOL0     C37221   3.247   2.793  -1.177 -1.1765 -0.8143 -0.6105
  995MOL0     C37222   3.110   2.759  -1.171  0.2028  0.3146  0.3303
  995MOL0     N37223   3.001   2.768  -0.582  0.2875  0.0723 -0.0105
  995MOL0     N37224   3.066   2.838  -0.500  0.3488  0.8121  0.0102
  995MOL0     C37225   3.559   3.450   0.135  0.2196  0.1966 -0.3013
  995MOL0     C37226   3.693   3.491   0.132 -0.4525 -0.0828  0.3298
  995MOL0     C37227   4.125   3.554   0.298  0.2876 -0.2832  0.0728
  995MOL0     C37228   4.139   3.672   0.223 -0.1922 -0.9398 -0.3294
  995MOL0     C37229   4.261   3.731   0.204 -0.2967 -0.4534  0.3755
  995MOL0     C37230   4.375   3.679   0.257 -0.4762  0.8315 -0.8023
  995MOL0     O37231   4.504   3.733   0.240 -0.1655 -0.4025 -0.0765
  995MOL0     C37232   4.522   3.871   0.277  1.0196 -0.4836 -0.5016
  995MOL0     C37233   4.646   3.930   0.209 -0.5928  0.0859 -0.1419
  995MOL0     C37234   4.771   3.860   0.250 -0.3032 -0.0872  0.1916
  995MOL0     C37235   4.879   3.912   0.156 -0.3221  0.0417  0.3908
  995MOL0     C37236   4.925   4.050   0.151 -0.3948 -0.0542 -0.3799
  995MOL0     C37237   4.986   4.159   0.136  1.5450  1.0553 -0.3323
  995MOL0     C37238   4.361   3.554   0.327 -0.2860 -0.0432 -0.6323
  995MOL0     C37239   4.237   3.488   0.349  0.2087  0.0165  0.7269
  995MOL0     C37240   4.242   3.367   0.427  0.5591 -1.2042 -0.3930
  995MOL0     H37241   3.809   3.278   0.360  0.5593  1.4434  0.7070
  995MOL0     H37242   3.579   3.218   0.387 -1.5585 -1.9836 -3.2111
  995MOL0     H37243   3.303   3.309   0.428  2.3408  1.7466  0.3863
  995MOL0     H37244   3.393   3.156   0.377  1.8616  1.3074 -0.6978
  995MOL0     H37245   3.158   3.132   0.402  0.7262 -3.0221 -0.0754
  995MOL0     H37246   3.131   3.240   0.259  0.4415 -0.2581 -0.4656
  995MOL0     H37247   3.243   3.107   0.109 -1.8707  0.9051  0.4366
  995MOL0     H37248   3.303   2.999   0.236  1.6653 -0.0868 -3.0799
  995MOL0     H37249   3.087   2.923   0.300 -0.5435  1.3463 -0.4843
  995MOL0     H37250   2.994   3.049   0.220  0.8276  0.9680 -1.4832
  995MOL0     H37251   2.997   2.818   0.110  0.9620 -1.2470  0.9100
  995MOL0     H37252   3.164   2.870   0.052 -1.0179 -2.6027 -1.3215
  995MOL0     H37253   2.928   3.042  -0.018  2.4778  2.8348  0.2849
  995MOL0     H37254   3.089   3.051  -0.070  1.0888 -1.1825 -2.0879
  995MOL0     H37255   2.922   2.806  -0.143  0.5757  1.9557 -0.1912
  995MOL0     H37256   3.088   2.800  -0.154  1.5440  1.0081  0.4159
  995MOL0     H37257   2.917   3.019  -0.296 -1.5696 -0.2017  3.3272
  995MOL0     H37258   3.087   3.014  -0.303 -0.1422 -0.4842  0.5662
  995MOL0     H37259   2.777   2.789  -0.351 -1.2414 -3.7329 -1.0720
  995MOL0     H37260   2.702   2.601  -0.551  0.5538  0.6937  1.1900
  995MOL0     H37261   2.837   2.560  -0.653  0.6107  0.1248  0.0487
  995MOL0     H37262   2.622   2.679  -0.769 -0.4943  1.2627 -0.7298
  995MOL0     H37263   2.665   2.819  -0.679  0.3053  0.2579 -0.9933
  995MOL0     H37264   2.738   2.825  -0.920 -2.4662 -2.5192 -1.0211
  995MOL0     H37265   2.875   2.828  -0.807  0.3819 -1.6877  2.4140
  995MOL0     H37266   2.906   2.579  -0.861  3.1492  1.7773 -2.2601
  995MOL0     H37267   2.758   2.580  -0.948 -0.9782 -0.4807  2.4267
  995MOL0     H37268   3.079   2.724  -0.834 -1.5334 -0.8381  0.1502
  995MOL0     H37269   3.413   2.783  -0.789 -0.2232 -1.1775  0.8123
  995MOL0     H37270   3.252   2.771  -0.725  1.6212 -1.3415 -0.1487
  995MOL0     H37271   3.307   2.929  -0.787  0.7115  0.1692  0.4388
  995MOL0     H37272   3.689   2.633  -1.182  1.1995  0.0048 -1.3388
  995MOL0     H37273   3.928   2.649  -1.230 -0.9936 -1.4550  1.0794
  995MOL0     H37274   4.109   3.048  -1.302  0.8557  0.0317 -2.3814
  995MOL0     H37275   4.153   3.015  -1.140 -2.0650 -0.8000 -0.0669
  995MOL0     H37276   4.297   2.930  -1.402  0.5127 -1.9919  0.0635
  995MOL0     H37277   4.359   3.023  -1.271 -0.8496  0.1416  2.4749
  995MOL0     H37278   4.327   2.740  -1.313  0.5089  0.3435 -0.1357
  995MOL0     H37279   4.316   2.774  -1.134  1.0848 -1.4939 -0.2631
  995MOL0     H37280   4.541   2.855  -1.135  0.9103 -1.5208  0.3161
  995MOL0     H37281   4.538   2.880  -1.311 -1.8872 -1.5655 -1.6080
  995MOL0     H37282   4.538   2.594  -1.195 -0.5691  0.6563  1.6341
  995MOL0     H37283   4.582   2.643  -1.357 -1.5055 -1.1877  0.4108
  995MOL0     H37284   4.719   2.663  -1.086  2.6324  1.1264  1.3716
  995MOL0     H37285   4.755   2.785  -1.216 -1.9665 -0.3221 -2.5954
  995MOL0     H37286   4.839   2.630  -1.357 -1.1876  1.6751  0.9533
  995MOL0     H37287   4.766   2.487  -1.287  2.5785 -2.5396  3.2156
  995MOL0     H37288   4.917   2.485  -1.093  0.7870  4.1845  3.3057
  995MOL0     H37289   4.971   2.642  -1.142 -3.2466  0.9697  0.8215
  995MOL0     H37290   3.920   3.073  -1.211 -1.2714  0.3397 -3.4915
  995MOL0     H37291   3.659   3.053  -1.210 -1.4939 -1.6501 -3.5690
  995MOL0     H37292   3.301   2.797  -1.271 -0.0919  0.0284  0.0243
  995MOL0     H37293   3.043   2.751  -1.255  0.8125  2.4590 -0.4412
  995MOL0     H37294   3.486   3.499   0.071  1.1824  0.1721 -1.4556
  995MOL0     H37295   3.712   3.573   0.064 -2.9053 -1.5842 -2.4101
  995MOL0     H37296   4.046   3.703   0.177  0.0498 -0.5702 -0.5741
  995MOL0     H37297   4.274   3.815   0.136 -1.8101  0.3462  1.0151
  995MOL0     H37298   4.430   3.926   0.257 -0.1797 -1.7019  1.2804
  995MOL0     H37299   4.552   3.887   0.381 -0.6281  0.1137 -0.0932
  995MOL0     H37300   4.660   4.035   0.235  1.0740  0.0245 -0.6767
  995MOL0     H37301   4.639   3.926   0.100  2.0769 -0.4526 -0.3683
  995MOL0     H37302   4.791   3.874   0.357 -0.6358 -2.7975  0.6627
  995MOL0     H37303   4.762   3.752   0.235  1.9487 -0.5740  1.8276
  995MOL0     H37304   4.845   3.892   0.054  0.2239  0.0092  0.2066
  995MOL0     H37305   4.969   3.852   0.172 -0.7247 -0.6762 -0.0014
  995MOL0     H37306   5.028   4.257   0.123  2.6895  0.3782 -2.1560
  995MOL0     H37307   4.460   3.521   0.357 -1.4708 -1.4077  2.2212
  995MOL0     H37308   4.285   3.272   0.394 -1.5474 -2.9745  1.6461
  995MOL0     H37309   4.286   3.389   0.524 -1.9337  0.9646  0.3744
  995MOL0     H37310   4.138   3.336   0.444  0.4212 -0.8274 -0.5236
  996MOL0     O37311   8.020   2.700   7.068 -0.2037 -0.0712 -0.8186
  996MOL0     C37312   8.015   2.574   7.098  0.4482 -0.0361  0.2906
  996MOL0     O37313   7.897   2.503   7.102 -0.5762 -0.1056 -0.9244
  996MOL0     C37314   7.773   2.563   7.071 -0.8510 -0.3688 -0.8207
  996MOL0     C37315   7.740   2.697   7.089  0.4520 -1.2495 -0.3289
  996MOL0     C37316   7.622   2.755   7.047 -0.2224  0.6465  0.7933
  996MOL0     C37317   7.521   2.678   6.985  0.4597 -0.4689  0.0619
  996MOL0     O37318   7.394   2.725   6.964 -0.2402 -0.3565 -0.2574
  996MOL0     C37319   7.398   2.851   6.896 -0.6097  0.3908 -0.1749
  996MOL0     C37320   7.270   2.850   6.810  0.4598 -0.3472 -0.3586
  996MOL0     C37321   7.229   2.978   6.736  0.0853  0.2873  0.0541
  996MOL0     C37322   7.095   2.966   6.660 -0.3729  0.2827  0.1060
  996MOL0     C37323   7.071   3.088   6.566  0.0715 -0.5111  0.0772
  996MOL0     C37324   6.953   3.060   6.477  0.5975  0.9516 -0.3792
  996MOL0     C37325   6.925   3.193   6.400  0.2370  0.5835 -0.2457
  996MOL0     C37326   6.844   3.153   6.270 -0.5864  0.0660 -0.2405
  996MOL0     N37327   6.701   3.186   6.277  0.0439  0.3359  0.5768
  996MOL0     C37328   6.595   3.095   6.252  0.4363 -0.9771 -0.1295
  996MOL0     C37329   6.488   3.179   6.230  0.1502 -0.8665  0.2823
  996MOL0     C37330   6.353   3.146   6.183  1.4228  1.2879  0.3663
  996MOL0     C37331   6.348   3.092   6.043 -0.4760 -0.4804  0.3875
  996MOL0     C37332   6.201   3.077   5.994 -0.5022 -0.7312 -0.7059
  996MOL0     C37333   6.180   2.978   5.874 -0.3208  0.1937  0.6000
  996MOL0     O37334   6.074   3.019   5.786 -0.0637 -0.6102 -0.1167
  996MOL0     C37335   5.944   3.013   5.823 -0.7694  0.4910  0.6938
  996MOL0     C37336   5.896   2.921   5.917  0.1232 -0.2566 -0.4463
  996MOL0     C37337   5.764   2.934   5.961  0.0975  0.0888 -0.6242
  996MOL0     C37338   5.740   2.857   6.089 -0.2052  0.0476  0.2197
  996MOL0     C37339   5.673   3.013   5.894  0.2543 -0.5801  0.5169
  996MOL0     C37340   5.526   3.019   5.923  0.4050  0.7376  0.3279
  996MOL0     O37341   5.434   3.010   5.823 -0.0745 -0.3760 -0.1813
  996MOL0     C37342   5.305   2.997   5.869 -0.3257  0.3248 -0.1156
  996MOL0     C37343   5.225   3.110   5.890 -0.1813 -0.3320 -0.0954
  996MOL0     C37344   5.086   3.100   5.906  0.0881  0.0320  0.2049
  996MOL0     C37345   5.026   2.975   5.899 -0.5577  0.6808  0.4133
  996MOL0     O37346   4.889   2.963   5.907  0.0817  0.4650  0.0539
  996MOL0     C37347   4.842   2.899   6.026 -1.1277 -0.0710  0.1318
  996MOL0     C37348   4.693   2.864   6.009  0.3733 -0.5410  0.9154
  996MOL0     C37349   4.670   2.733   6.081  0.6778  0.4511  0.0820
  996MOL0     C37350   4.526   2.675   6.077  0.7938  0.0751 -0.9250
  996MOL0     C37351   4.510   2.545   6.142  0.0341 -0.0868  0.3044
  996MOL0     C37352   4.374   2.475   6.122 -0.2459 -0.3726 -0.8621
  996MOL0     C37353   4.363   2.330   6.189 -0.2695 -0.2032  0.1273
  996MOL0     C37354   4.227   2.273   6.162 -0.0922 -0.0374  0.6391
  996MOL0    Cl37355   4.190   2.113   6.253 -0.2534 -0.1681 -0.2835
  996MOL0     C37356   5.111   2.860   5.888  0.9185  0.2506 -0.8025
  996MOL0     C37357   5.248   2.871   5.872 -0.1387 -0.1274  0.0519
  996MOL0     O37358   5.499   3.020   6.044 -0.1758 -0.0085  0.3921
  996MOL0     C37359   5.722   3.098   5.793  0.3693  0.8211 -0.4597
  996MOL0     C37360   5.855   3.101   5.761  0.2646  0.6658 -0.0875
  996MOL0     N37361   6.524   3.311   6.262  0.2223  0.4981 -0.1777
  996MOL0     N37362   6.645   3.311   6.290  0.3759  0.4239  0.4634
  996MOL0     C37363   7.547   2.542   6.974 -0.7756  0.1583 -0.2198
  996MOL0     C37364   7.673   2.492   7.008 -0.1386  0.4601 -0.5193
  996MOL0     C37365   8.129   2.479   7.098 -0.3703 -0.2851 -0.2650
  996MOL0     C37366   8.117   2.343   7.109  0.9566 -1.2575  0.2527
  996MOL0     C37367   8.220   2.252   7.105  0.8298 -0.3959 -0.8430
  996MOL0     C37368   8.349   2.297   7.086 -0.7303  0.9832  0.3678
  996MOL0     O37369   8.444   2.205   7.063 -0.1700 -0.3545 -0.6826
  996MOL0     C37370   8.582   2.225   7.084 -0.2769 -0.0311  0.8101
  996MOL0     C37371   8.637   2.212   7.222  1.2697  0.8296 -1.2572
  996MOL0     C37372   8.629   2.068   7.289 -0.2223 -0.4404 -0.3751
  996MOL0     C37373   8.491   2.042   7.351 -0.1706 -0.4978 -1.1199
  996MOL0     C37374   8.505   1.935   7.447 -0.0319  0.1668  0.1956
  996MOL0     C37375   8.534   1.844   7.513  0.5242 -0.1706 -1.0400
  996MOL0     C37376   8.366   2.441   7.078 -0.2527  0.6511 -0.0237
  996MOL0     C37377   8.262   2.534   7.084  0.0760 -0.1766 -0.6950
  996MOL0     C37378   8.297   2.679   7.068 -0.4514  0.2575  0.2281
  996MOL0     H37379   7.797   2.780   7.131 -2.3838  0.7803 -0.2418
  996MOL0     H37380   7.617   2.863   7.050  3.0612  1.0321 -1.6866
  996MOL0     H37381   7.485   2.868   6.832 -0.3980 -1.3381 -0.3775
  996MOL0     H37382   7.399   2.940   6.960  0.4556  0.2331  0.0366
  996MOL0     H37383   7.273   2.777   6.729 -1.7436 -0.6874 -0.2201
  996MOL0     H37384   7.181   2.823   6.868 -1.4330 -0.1961 -3.0016
  996MOL0     H37385   7.198   3.058   6.805 -2.3415  0.8605 -1.5968
  996MOL0     H37386   7.314   3.008   6.675  0.4879  3.3232  1.8719
  996MOL0     H37387   7.093   2.881   6.591  1.5235 -0.5479  1.0133
  996MOL0     H37388   7.007   2.943   6.721 -0.9244 -0.7544 -1.0384
  996MOL0     H37389   7.158   3.104   6.503 -1.0898 -1.9895 -2.0177
  996MOL0     H37390   7.057   3.171   6.637 -0.5229  1.6211 -2.4015
  996MOL0     H37391   6.977   2.984   6.403  0.9791  1.8876 -1.2428
  996MOL0     H37392   6.860   3.030   6.525 -0.5067 -0.0705 -3.0195
  996MOL0     H37393   7.025   3.232   6.379 -0.3565  2.4390  0.1491
  996MOL0     H37394   6.860   3.259   6.459 -3.2679 -0.6352 -2.5048
  996MOL0     H37395   6.891   3.207   6.189 -1.4383 -1.2913 -1.7056
  996MOL0     H37396   6.851   3.044   6.261  0.6425  0.2106 -1.1550
  996MOL0     H37397   6.599   2.992   6.219 -0.5841 -0.1367 -3.2642
  996MOL0     H37398   6.306   3.244   6.190  1.0694  1.2841 -1.3799
  996MOL0     H37399   6.300   3.079   6.251  0.5108 -0.8258 -2.1985
  996MOL0     H37400   6.397   3.165   5.977 -2.8264 -1.3162 -2.5234
  996MOL0     H37401   6.410   3.002   6.039 -1.1623 -0.9467  0.2210
  996MOL0     H37402   6.139   3.045   6.078 -0.3661 -0.9591 -0.6915
  996MOL0     H37403   6.171   3.177   5.962 -3.2477 -1.3237 -0.1879
  996MOL0     H37404   6.274   2.981   5.819 -0.5200 -2.0848  0.0641
  996MOL0     H37405   6.175   2.873   5.905  1.1452  0.0809  0.4919
  996MOL0     H37406   5.967   2.871   5.983  1.5535 -0.3618 -2.0090
  996MOL0     H37407   5.831   2.830   6.144  0.4779 -0.3373 -1.0563
  996MOL0     H37408   5.690   2.762   6.068  0.9123 -0.3449 -0.7644
  996MOL0     H37409   5.684   2.904   6.170  0.8125  0.3248  0.7796
  996MOL0     H37410   5.266   3.210   5.898  0.8435 -0.8530  1.9109
  996MOL0     H37411   5.027   3.190   5.921  1.1047  0.9624 -1.0859
  996MOL0     H37412   4.897   2.807   6.049  1.8088  1.9454  1.8961
  996MOL0     H37413   4.851   2.973   6.107 -2.1628  0.8978 -0.6126
  996MOL0     H37414   4.642   2.945   6.063  0.0854 -0.1785  0.1158
  996MOL0     H37415   4.672   2.855   5.902  0.4689  0.7223  0.7701
  996MOL0     H37416   4.685   2.755   6.187  1.0661  2.4791 -0.3384
  996MOL0     H37417   4.744   2.663   6.042 -1.3008 -0.2104 -2.7579
  996MOL0     H37418   4.489   2.658   5.975 -0.5929 -0.6572 -0.3265
  996MOL0     H37419   4.446   2.740   6.114 -1.5169 -0.8725 -3.8104
  996MOL0     H37420   4.584   2.473   6.105 -2.0373 -1.3367 -1.6755
  996MOL0     H37421   4.529   2.561   6.248 -0.1899  0.2017  0.2993
  996MOL0     H37422   4.355   2.476   6.014 -1.3011  0.5891 -0.6917
  996MOL0     H37423   4.290   2.528   6.167  2.3037  1.0049  2.6659
  996MOL0     H37424   4.372   2.348   6.296 -1.9140 -0.0883  0.2773
  996MOL0     H37425   4.432   2.256   6.147 -0.2747 -0.0051 -0.2322
  996MOL0     H37426   4.218   2.245   6.057 -0.1456  0.9722  0.3713
  996MOL0     H37427   4.146   2.340   6.191  0.6964  0.3530  2.0356
  996MOL0     H37428   5.072   2.759   5.888 -0.3294  0.7146 -1.0663
  996MOL0     H37429   5.323   2.796   5.846 -0.3690 -0.3874  0.1296
  996MOL0     H37430   5.657   3.176   5.753  0.2412 -0.2210 -2.4209
  996MOL0     H37431   5.898   3.165   5.685  0.9211  0.2464 -0.0728
  996MOL0     H37432   7.467   2.482   6.931  0.0472 -0.8845 -0.3520
  996MOL0     H37433   7.717   2.395   6.987  1.2756  0.9404  0.1005
  996MOL0     H37434   8.021   2.291   7.111 -0.1310  0.6473 -0.0005
  996MOL0     H37435   8.195   2.146   7.105 -2.0215  0.0724  2.9650
  996MOL0     H37436   8.633   2.167   7.006 -1.5266  2.7564 -2.3169
  996MOL0     H37437   8.607   2.328   7.058  0.9520  0.1403  2.4834
  996MOL0     H37438   8.593   2.281   7.295  2.8719  0.1246  0.4563
  996MOL0     H37439   8.743   2.240   7.229  1.2564  1.1274 -2.0963
  996MOL0     H37440   8.638   1.992   7.212 -4.4315  1.2104 -2.8480
  996MOL0     H37441   8.705   2.057   7.366  2.1699  1.1862 -2.3450
  996MOL0     H37442   8.421   2.011   7.273 -0.4648  0.3349 -1.2018
  996MOL0     H37443   8.454   2.134   7.398 -0.4640 -1.7927  1.3603
  996MOL0     H37444   8.576   1.755   7.557 -0.8439 -1.5192 -2.3514
  996MOL0     H37445   8.464   2.483   7.058 -0.1251  0.6045  0.4923
  996MOL0     H37446   8.398   2.699   7.106 -0.7300  3.4236 -0.3629
  996MOL0     H37447   8.278   2.711   6.965 -1.8896  0.7932  0.6335
  996MOL0     H37448   8.232   2.736   7.136 -0.6963 -0.1697  0.3517
  997MOL0     O37449   1.303   3.601  10.969 -0.2629 -0.1325 -0.3666
  997MOL0     C37450   1.242   3.628  11.077  0.4549 -0.6101  0.0758
  997MOL0     O37451   1.307   3.672  11.185 -0.0913  0.1606  0.1185
  997MOL0     C37452   1.433   3.720  11.155  0.1380  0.1806 -0.7065
  997MOL0     C37453   1.536   3.624  11.165 -0.5448  0.3645  0.9687
  997MOL0     C37454   1.668   3.663  11.129  0.5890 -0.9632 -0.3002
  997MOL0     C37455   1.698   3.797  11.098  0.7002 -0.2691  0.4551
  997MOL0     O37456   1.828   3.821  11.077  0.6585 -0.3867  0.2415
  997MOL0     C37457   1.881   3.946  11.021 -0.5537  0.2741  0.4548
  997MOL0     C37458   2.026   3.933  10.968  1.0021  1.4411  0.0173
  997MOL0     C37459   2.130   3.916  11.080 -0.6384 -0.6497 -1.3338
  997MOL0     C37460   2.274   3.882  11.031  0.7108  0.6593  0.0628
  997MOL0     C37461   2.361   3.861  11.153 -0.0210  0.2640 -0.3951
  997MOL0     C37462   2.497   3.798  11.108  0.1495 -0.2721  0.0308
  997MOL0     C37463   2.593   3.782  11.222 -0.6547  0.7068 -0.2113
  997MOL0     C37464   2.677   3.904  11.246  1.0473 -1.0341  0.1465
  997MOL0     N37465   2.744   3.884  11.368 -0.4726  0.0282 -0.3108
  997MOL0     C37466   2.749   3.953  11.488 -0.1006  0.3818 -0.3553
  997MOL0     C37467   2.845   3.889  11.562  0.5844  0.4083  0.1303
  997MOL0     C37468   2.894   3.940  11.695 -0.0623 -0.3012 -0.0825
  997MOL0     C37469   3.050   3.961  11.703 -0.6461  0.4705  0.5003
  997MOL0     C37470   3.094   4.006  11.842  0.4803 -0.3956  0.7462
  997MOL0     C37471   3.240   4.050  11.835 -0.7302 -0.6223 -0.5862
  997MOL0     O37472   3.325   3.936  11.810 -0.3803 -0.7290 -0.3334
  997MOL0     C37473   3.459   3.965  11.795  0.2959  0.2245 -0.3156
  997MOL0     C37474   3.542   3.854  11.789 -0.3276  0.1946  0.0461
  997MOL0     C37475   3.682   3.866  11.778 -0.1691  0.4730 -0.4201
  997MOL0     C37476   3.778   3.739  11.796 -0.5826 -0.0601  0.7573
  997MOL0     C37477   3.735   3.998  11.752  0.9321  0.5635 -0.4747
  997MOL0     C37478   3.881   4.021  11.714 -0.0074 -0.0021 -0.0228
  997MOL0     O37479   3.912   4.153  11.723 -0.2103 -0.0073 -0.3088
  997MOL0     C37480   4.034   4.209  11.674  0.1740  0.0719 -0.2293
  997MOL0     C37481   4.044   4.349  11.689  0.3074 -0.7138 -0.0920
  997MOL0     C37482   4.159   4.413  11.646 -0.2301 -0.6544  0.2528
  997MOL0     C37483   4.271   4.349  11.583  0.7553  0.1042 -0.7623
  997MOL0     O37484   4.375   4.429  11.533 -0.4579  0.3877 -0.6781
  997MOL0     C37485   4.470   4.368  11.446 -0.0101 -0.5332 -0.2640
  997MOL0     C37486   4.587   4.460  11.418 -0.2827 -0.3016  0.0060
  997MOL0     C37487   4.685   4.466  11.533  0.2143 -0.0908  0.6807
  997MOL0     C37488   4.793   4.574  11.498 -1.0451  0.5539 -0.7660
  997MOL0     C37489   4.881   4.603  11.619  0.2032 -0.5216  0.5216
  997MOL0     C37490   5.000   4.694  11.587  0.4634 -0.1486 -0.0257
  997MOL0     C37491   5.096   4.712  11.701 -0.7276  0.3556 -0.1329
  997MOL0     C37492   5.223   4.790  11.673 -0.5978 -0.5235 -0.4000
  997MOL0    Cl37493   5.315   4.797  11.816  0.4240  0.3757  0.0738
  997MOL0     C37494   4.257   4.217  11.561  0.6180  1.6046 -0.9112
  997MOL0     C37495   4.142   4.146  11.607  0.4621 -1.0169 -0.1678
  997MOL0     O37496   3.953   3.929  11.670  0.7907  0.2462 -0.9815
  997MOL0     C37497   3.648   4.104  11.734  0.2843  1.3222 -0.0101
  997MOL0     C37498   3.510   4.085  11.760 -0.9066 -0.2129  0.3189
  997MOL0     N37499   2.902   3.784  11.496  0.5166  0.0100  0.0967
  997MOL0     N37500   2.835   3.778  11.379 -0.8071  0.6765  0.1687
  997MOL0     C37501   1.597   3.893  11.100  0.1143 -0.0678 -0.1931
  997MOL0     C37502   1.461   3.855  11.117  1.1008  0.8124 -0.4787
  997MOL0     C37503   1.087   3.635  11.084 -0.3980  0.6421 -0.9616
  997MOL0     C37504   1.029   3.650  11.209  0.2108 -0.0153 -0.7510
  997MOL0     C37505   0.893   3.628  11.223 -0.5823 -0.3447  0.6907
  997MOL0     C37506   0.810   3.594  11.116 -0.5626 -0.7045  0.5356
  997MOL0     O37507   0.685   3.542  11.117 -0.3674  0.2475 -0.0415
  997MOL0     C37508   0.644   3.467  11.236  0.7972  0.5904  0.3158
  997MOL0     C37509   0.567   3.344  11.199  0.7504  0.1743 -0.5094
  997MOL0     C37510   0.436   3.374  11.132 -1.0389 -0.5774  0.4362
  997MOL0     C37511   0.355   3.253  11.115 -0.7552 -1.2264 -0.6240
  997MOL0     C37512   0.237   3.285  11.034 -0.7491 -0.6055 -0.6705
  997MOL0     C37513   0.138   3.319  10.974  0.3932 -0.1591 -0.6618
  997MOL0     C37514   0.865   3.603  10.987 -0.1502  0.5334 -0.2565
  997MOL0     C37515   1.001   3.624  10.964 -0.6429  0.1656 -0.6681
  997MOL0     C37516   1.048   3.611  10.826  0.8937  0.5577  0.1175
  997MOL0     H37517   1.508   3.520  11.178 -2.6956  0.9989  1.7920
  997MOL0     H37518   1.752   3.594  11.123  3.2376  2.0433 -0.5674
  997MOL0     H37519   1.887   4.025  11.097  0.4801 -0.1979  0.8857
  997MOL0     H37520   1.813   3.983  10.943 -2.2230 -0.1962  1.6361
  997MOL0     H37521   2.016   3.846  10.903 -2.1758  2.2797 -0.7756
  997MOL0     H37522   2.048   4.020  10.904 -0.9749  1.4399 -0.7237
  997MOL0     H37523   2.134   4.005  11.142  0.1420 -2.5995  1.6384
  997MOL0     H37524   2.108   3.827  11.139 -1.7160  1.2137  1.2425
  997MOL0     H37525   2.283   3.791  10.972 -0.4428 -1.7377  3.2841
  997MOL0     H37526   2.305   3.972  10.976  0.0372  1.0268  0.2735
  997MOL0     H37527   2.314   3.790  11.222  0.8551 -0.1707 -0.2388
  997MOL0     H37528   2.366   3.957  11.205  1.5102  1.1065 -1.9905
  997MOL0     H37529   2.472   3.699  11.069  1.7732 -0.6586 -0.0841
  997MOL0     H37530   2.531   3.857  11.023 -3.0216  1.2024 -0.3473
  997MOL0     H37531   2.664   3.705  11.191 -1.9365  0.3544 -2.4765
  997MOL0     H37532   2.537   3.744  11.309  1.0261  0.2181  0.7006
  997MOL0     H37533   2.746   3.917  11.162  1.7044  1.5495  1.0031
  997MOL0     H37534   2.622   3.998  11.259  0.8734 -1.2659  1.2177
  997MOL0     H37535   2.702   4.046  11.516  2.1781  0.7312  2.7983
  997MOL0     H37536   2.860   3.871  11.773 -0.8357  1.0012  0.7710
  997MOL0     H37537   2.847   4.035  11.723 -0.1007 -0.0669 -0.9176
  997MOL0     H37538   3.102   3.869  11.675  1.5187  1.2210  1.7664
  997MOL0     H37539   3.074   4.034  11.625 -1.0669 -0.3300 -0.3878
  997MOL0     H37540   3.019   4.083  11.865  0.9348  0.1747  0.3512
  997MOL0     H37541   3.092   3.929  11.919 -1.2972 -0.1355  1.0129
  997MOL0     H37542   3.253   4.126  11.756  3.6267  0.4415  0.8978
  997MOL0     H37543   3.266   4.101  11.928  0.3252  1.7811 -2.0924
  997MOL0     H37544   3.510   3.752  11.808  0.3438  0.3520  2.2074
  997MOL0     H37545   3.716   3.653  11.826  3.1612 -2.1324  3.3413
  997MOL0     H37546   3.846   3.760  11.879  0.2244 -1.7066  0.5589
  997MOL0     H37547   3.833   3.712  11.706 -1.1578  1.8401 -0.2183
  997MOL0     H37548   3.967   4.412  11.734 -0.2932  0.7409 -2.9495
  997MOL0     H37549   4.167   4.517  11.674 -1.0920 -0.6977  0.6794
  997MOL0     H37550   4.508   4.274  11.488 -0.3434 -0.6019 -0.1134
  997MOL0     H37551   4.414   4.346  11.354  1.7341 -0.1947 -1.4639
  997MOL0     H37552   4.639   4.412  11.335  1.8382  0.1342  1.0178
  997MOL0     H37553   4.556   4.563  11.398 -2.0271 -0.9489 -0.9126
  997MOL0     H37554   4.730   4.368  11.549  0.8597 -0.2836 -1.9427
  997MOL0     H37555   4.639   4.511  11.622 -1.4189  2.9353 -1.4837
  997MOL0     H37556   4.755   4.675  11.479  1.5007  2.2269  2.1208
  997MOL0     H37557   4.865   4.537  11.424 -0.5789 -2.3059  0.9718
  997MOL0     H37558   4.821   4.651  11.697 -1.8553  2.0701 -2.4031
  997MOL0     H37559   4.916   4.510  11.665 -0.8214 -0.1046  2.2180
  997MOL0     H37560   4.966   4.797  11.573  0.2663  0.7001  4.9151
  997MOL0     H37561   5.041   4.656  11.493  2.3680  1.5144  0.0566
  997MOL0     H37562   5.110   4.608  11.734 -0.3598  0.1781 -0.8183
  997MOL0     H37563   5.039   4.763  11.779  1.2895  0.0842  1.5998
  997MOL0     H37564   5.198   4.892  11.642 -0.2067  0.0907  1.1994
  997MOL0     H37565   5.272   4.739  11.590 -2.9513 -1.4310 -1.3202
  997MOL0     H37566   4.341   4.161  11.522  0.5902 -0.5612  1.8161
  997MOL0     H37567   4.141   4.039  11.587  0.2063 -0.6701 -2.2024
  997MOL0     H37568   3.676   4.206  11.710 -3.0463  2.3131 -0.1178
  997MOL0     H37569   3.446   4.171  11.740  0.9051  0.8572 -1.3023
  997MOL0     H37570   1.624   3.997  11.083  3.5193 -0.3475  2.4805
  997MOL0     H37571   1.382   3.927  11.133 -0.9531 -1.1529 -1.2786
  997MOL0     H37572   1.085   3.659  11.302  1.4818  3.6506 -1.7168
  997MOL0     H37573   0.848   3.627  11.322 -0.9060 -1.4845  0.5532
  997MOL0     H37574   0.732   3.431  11.289  1.4209  1.4815 -0.0841
  997MOL0     H37575   0.577   3.527  11.298  0.1603  1.0179 -0.7503
  997MOL0     H37576   0.542   3.293  11.292 -0.5487 -1.8208 -1.8596
  997MOL0     H37577   0.624   3.270  11.143 -0.9564 -2.1761  0.7110
  997MOL0     H37578   0.383   3.445  11.197 -0.9926 -0.0068 -0.1340
  997MOL0     H37579   0.456   3.428  11.038  1.1871  0.5924  1.5098
  997MOL0     H37580   0.317   3.224  11.213  0.7043  1.3798  0.8305
  997MOL0     H37581   0.402   3.168  11.064 -0.3581 -1.6934  0.4982
  997MOL0     H37582   0.050   3.350  10.922 -0.9937  1.3642  2.3176
  997MOL0     H37583   0.807   3.575  10.900 -0.5444  2.4665 -0.6448
  997MOL0     H37584   0.967   3.589  10.756  1.4320  0.1906 -0.4038
  997MOL0     H37585   1.089   3.703  10.783  0.5380  0.4632 -0.4327
  997MOL0     H37586   1.120   3.529  10.816 -0.4565 -0.5091 -1.4374
  998MOL0     O37587   2.412   6.873  10.525 -0.5319  0.3667  0.1421
  998MOL0     C37588   2.381   6.930  10.415 -0.4277 -0.1552  0.7559
  998MOL0     O37589   2.456   7.027  10.360 -0.5985  0.1688 -0.6295
  998MOL0     C37590   2.590   7.010  10.362 -0.0475 -0.0246 -0.3728
  998MOL0     C37591   2.662   7.129  10.346 -0.0964  0.3505  0.6186
  998MOL0     C37592   2.794   7.127  10.326 -0.0168  0.1523 -0.0068
  998MOL0     C37593   2.867   7.013  10.332 -0.4552  0.9565 -0.4057
  998MOL0     O37594   3.005   7.022  10.333 -0.3022  0.1581  0.2424
  998MOL0     C37595   3.087   6.949  10.434 -0.6402  0.3302 -0.0635
  998MOL0     C37596   3.232   6.999  10.432  0.2326 -0.0693 -0.9303
  998MOL0     C37597   3.312   6.962  10.304 -0.2472 -0.6054  0.0233
  998MOL0     C37598   3.317   7.089  10.214  0.2560  0.5486 -0.5712
  998MOL0     C37599   3.422   7.094  10.103  0.0351 -0.3009 -0.7343
  998MOL0     C37600   3.418   7.225  10.019 -0.3657 -0.4976  0.0664
  998MOL0     C37601   3.526   7.218   9.912  0.4299  1.0589 -0.1750
  998MOL0     C37602   3.665   7.250   9.964 -0.1136  0.5744 -0.4981
  998MOL0     N37603   3.760   7.240   9.862 -0.0479 -0.5851  0.1012
  998MOL0     C37604   3.802   7.133   9.797 -0.3518  0.5319  0.1351
  998MOL0     C37605   3.904   7.173   9.709  0.0938 -0.0096 -1.1050
  998MOL0     C37606   3.992   7.096   9.621 -0.0874  0.6259  0.8456
  998MOL0     C37607   3.922   7.066   9.486 -0.4141  0.0791  0.1184
  998MOL0     C37608   3.969   7.169   9.370  0.4137 -1.0394  1.0471
  998MOL0     C37609   4.111   7.153   9.322 -0.8135  0.4290 -0.4202
  998MOL0     O37610   4.130   7.224   9.192 -0.6173 -0.5868 -0.3710
  998MOL0     C37611   4.249   7.220   9.122  0.0218 -0.2031  0.2966
  998MOL0     C37612   4.354   7.142   9.156 -1.0718 -0.7918 -0.4947
  998MOL0     C37613   4.467   7.132   9.079 -0.6897 -0.2691 -0.0080
  998MOL0     C37614   4.573   7.029   9.120  0.6516 -0.0748  0.1346
  998MOL0     C37615   4.484   7.213   8.968  0.2410 -0.0085 -0.0165
  998MOL0     C37616   4.600   7.215   8.876 -0.7358  0.2635 -0.0587
  998MOL0     O37617   4.576   7.189   8.740  0.4702 -0.0355 -0.9183
  998MOL0     C37618   4.671   7.195   8.641  0.5757  0.0199  0.2369
  998MOL0     C37619   4.809   7.229   8.662  0.1694  0.7797  0.1369
  998MOL0     C37620   4.890   7.249   8.544  1.5418 -0.0561  0.4391
  998MOL0     C37621   4.836   7.230   8.417  0.3024 -0.0913  0.1142
  998MOL0     O37622   4.932   7.246   8.314  0.4446  0.1544 -0.4926
  998MOL0     C37623   4.903   7.204   8.187 -0.5623  0.3847 -0.6144
  998MOL0     C37624   4.932   7.050   8.166  0.0142  0.3086 -0.3913
  998MOL0     C37625   5.075   7.006   8.220 -0.5540 -0.0646  0.0843
  998MOL0     C37626   5.189   7.079   8.146  0.5229  0.4508  0.5223
  998MOL0     C37627   5.322   7.006   8.155  0.2691  0.0284  0.3000
  998MOL0     C37628   5.404   7.043   8.041 -0.8553 -0.5982 -0.2091
  998MOL0     C37629   5.531   6.962   8.024 -0.7643 -0.5529 -0.8037
  998MOL0     C37630   5.596   7.012   7.898  0.2258 -0.2887 -0.4083
  998MOL0    Cl37631   5.719   6.892   7.851  0.0443 -0.1329 -0.0283
  998MOL0     C37632   4.697   7.207   8.399  0.2041 -0.5161 -0.4018
  998MOL0     C37633   4.618   7.187   8.510 -0.5221  0.5115  0.3264
  998MOL0     O37634   4.716   7.211   8.929 -0.9632 -0.4549 -0.0930
  998MOL0     C37635   4.374   7.287   8.921 -0.9672  0.2118  0.5441
  998MOL0     C37636   4.261   7.291   9.001 -0.3900 -0.5696 -0.1145
  998MOL0     N37637   3.885   7.305   9.700  0.3955  0.3316 -0.4317
  998MOL0     N37638   3.806   7.342   9.798 -0.9302 -1.1840 -0.1324
  998MOL0     C37639   2.807   6.889  10.350 -0.4101  0.0339 -0.8754
  998MOL0     C37640   2.668   6.891  10.367 -0.0180  0.2438 -0.1995
  998MOL0     C37641   2.248   6.897  10.365  0.1664 -0.2024  0.1209
  998MOL0     C37642   2.186   6.786  10.423  0.2232 -0.4703 -0.7523
  998MOL0     C37643   2.070   6.737  10.366  0.0401 -0.1877  0.7681
  998MOL0     C37644   1.996   6.808  10.270  0.4477 -0.4132 -0.2403
  998MOL0     O37645   1.873   6.758  10.239 -0.0038  1.4111 -0.2636
  998MOL0     C37646   1.793   6.826  10.145  0.0973  0.2646  0.3209
  998MOL0     C37647   1.705   6.926  10.218 -0.3335 -0.2666 -0.4777
  998MOL0     C37648   1.638   7.019  10.130 -0.4546 -0.7448 -0.4925
  998MOL0     C37649   1.508   6.958  10.074 -0.8089  0.8154  0.3376
  998MOL0     C37650   1.413   6.929  10.186 -0.0519  0.5076 -0.3156
  998MOL0     C37651   1.343   6.900  10.282 -0.2011  1.0078  0.1896
  998MOL0     C37652   2.044   6.935  10.227  0.8673  0.1427  0.0819
  998MOL0     C37653   2.181   6.968  10.257 -0.5273  0.6193  0.2067
  998MOL0     C37654   2.229   7.090  10.179 -0.2693  0.2541  0.2146
  998MOL0     H37655   2.604   7.220  10.342 -1.3440 -0.1807  3.6370
  998MOL0     H37656   2.840   7.224  10.312  1.0763 -0.5414 -1.5101
  998MOL0     H37657   3.099   6.847  10.397 -1.5854  0.4946 -0.8618
  998MOL0     H37658   3.050   6.963  10.536  2.5035  2.5732  0.9227
  998MOL0     H37659   3.238   7.105  10.456 -2.6805 -0.6213  3.5156
  998MOL0     H37660   3.278   6.950  10.518 -1.0724 -0.6317 -0.5155
  998MOL0     H37661   3.411   6.945  10.347 -0.1834  1.1562  0.6575
  998MOL0     H37662   3.273   6.875  10.252 -2.7909  0.9763 -0.9117
  998MOL0     H37663   3.215   7.110  10.181  0.1126  1.5924  0.5047
  998MOL0     H37664   3.337   7.174  10.280  0.4335  1.1883 -1.4180
  998MOL0     H37665   3.408   7.009  10.036  1.0872 -1.5324  0.5452
  998MOL0     H37666   3.522   7.091  10.147 -0.3176  2.7069  0.5374
  998MOL0     H37667   3.327   7.221   9.958 -1.6254  3.6898  1.2934
  998MOL0     H37668   3.417   7.316  10.081  0.6519 -0.5473  0.1750
  998MOL0     H37669   3.503   7.294   9.838  3.5376  0.9074 -1.4301
  998MOL0     H37670   3.520   7.117   9.871  0.3545  1.2231 -0.5660
  998MOL0     H37671   3.658   7.353  10.001 -0.0352  1.1911 -2.1013
  998MOL0     H37672   3.696   7.179  10.041  0.0977 -4.1290 -4.4132
  998MOL0     H37673   3.779   7.031   9.828 -0.0618  0.3255 -0.3178
  998MOL0     H37674   4.002   7.002   9.675 -1.6227  1.7945  3.3335
  998MOL0     H37675   4.084   7.154   9.615 -0.9412  1.9631  0.1365
  998MOL0     H37676   3.950   6.965   9.453 -1.6616 -0.5130  0.7687
  998MOL0     H37677   3.812   7.059   9.491 -0.2906 -1.5127  1.7437
  998MOL0     H37678   3.906   7.145   9.283 -0.0341  2.5441  0.2227
  998MOL0     H37679   3.942   7.274   9.387  0.9413 -0.9396  1.2610
  998MOL0     H37680   4.184   7.187   9.395 -1.3477  2.8262 -0.9332
  998MOL0     H37681   4.123   7.045   9.310 -2.2108  0.0208  1.3560
  998MOL0     H37682   4.350   7.089   9.250  1.7857  1.9255  1.3846
  998MOL0     H37683   4.559   6.950   9.046  0.5339  1.5919 -1.7112
  998MOL0     H37684   4.560   6.988   9.221 -4.3483 -0.0798 -0.2658
  998MOL0     H37685   4.674   7.069   9.108  0.7831 -0.3068  0.4623
  998MOL0     H37686   4.858   7.229   8.759 -0.0471  1.0071  0.2460
  998MOL0     H37687   4.996   7.247   8.569  1.7240  0.5214 -0.2751
  998MOL0     H37688   4.801   7.236   8.161 -1.9797 -1.3214  2.2948
  998MOL0     H37689   4.970   7.260   8.120  0.2030 -0.2756 -0.4060
  998MOL0     H37690   4.860   6.985   8.217 -0.0750  0.8498  0.1870
  998MOL0     H37691   4.922   7.035   8.058 -1.7501  0.7154 -0.3226
  998MOL0     H37692   5.088   6.900   8.195  1.2652  0.6617 -2.5714
  998MOL0     H37693   5.082   7.011   8.329  0.4821 -2.7964  0.2301
  998MOL0     H37694   5.200   7.178   8.192  0.0748  0.5771  0.3712
  998MOL0     H37695   5.159   7.076   8.041  0.6696  1.2556  0.4509
  998MOL0     H37696   5.368   7.011   8.254 -1.8087 -1.5904  1.4141
  998MOL0     H37697   5.298   6.900   8.144 -1.6610  0.2963  1.5338
  998MOL0     H37698   5.441   7.143   8.066  3.9366 -2.6295  2.1141
  998MOL0     H37699   5.347   7.046   7.948  2.1626  0.8705 -2.1733
  998MOL0     H37700   5.511   6.855   8.027  2.4259 -1.2543 -1.0279
  998MOL0     H37701   5.605   6.981   8.103 -1.2396 -2.5168  0.1728
  998MOL0     H37702   5.636   7.114   7.897 -1.0381  0.2527 -2.4333
  998MOL0     H37703   5.523   7.005   7.817  0.9602  2.4979 -1.4380
  998MOL0     H37704   4.648   7.200   8.302 -1.1398  0.7429  0.1401
  998MOL0     H37705   4.513   7.174   8.487 -0.6896  0.1958  1.2227
  998MOL0     H37706   4.380   7.335   8.824  0.9081 -3.7472 -1.5523
  998MOL0     H37707   4.183   7.351   8.955 -0.2876  2.1466  2.8852
  998MOL0     H37708   2.864   6.798  10.338  0.7266  0.3789  1.3319
  998MOL0     H37709   2.616   6.797  10.377 -0.2837 -0.1628 -3.8984
  998MOL0     H37710   2.224   6.728  10.507  2.8555 -2.0775 -2.8871
  998MOL0     H37711   2.021   6.649  10.406 -4.1154  0.8080 -1.5284
  998MOL0     H37712   1.865   6.868  10.073  0.0149  1.6119  0.9945
  998MOL0     H37713   1.735   6.751  10.089  0.9195 -0.1166 -0.0347
  998MOL0     H37714   1.766   6.983  10.288  2.1264 -0.3625 -2.3885
  998MOL0     H37715   1.631   6.866  10.271  0.3776 -2.6465 -1.9633
  998MOL0     H37716   1.618   7.121  10.165  0.0810 -1.0624  0.7802
  998MOL0     H37717   1.705   7.026  10.044  1.1078 -0.4526  0.7124
  998MOL0     H37718   1.540   6.866  10.025 -2.0785  1.1742 -1.2318
  998MOL0     H37719   1.472   7.029   9.999  0.2927  0.1335 -0.8800
  998MOL0     H37720   1.273   6.892  10.362  0.3554 -1.5907  0.5196
  998MOL0     H37721   1.991   6.995  10.153  2.3079 -1.6750 -2.6152
  998MOL0     H37722   2.203   7.181  10.233  4.0100  1.3682  0.8047
  998MOL0     H37723   2.337   7.092  10.162 -0.1291 -0.1109  1.0237
  998MOL0     H37724   2.180   7.101  10.081  0.5091  3.1803  0.0617
  999MOL0     O37725   5.076   9.243   2.366  0.2000 -0.8059  0.8052
  999MOL0     C37726   5.086   9.196   2.255 -0.2535  0.4087 -0.1782
  999MOL0     O37727   5.202   9.144   2.203 -0.0445 -0.0241  0.0008
  999MOL0     C37728   5.319   9.195   2.258  0.3666  0.0513 -0.0586
  999MOL0     C37729   5.395   9.103   2.335 -0.1082 -0.4402 -0.4906
  999MOL0     C37730   5.520   9.142   2.386  0.4769 -0.7905  0.1538
  999MOL0     C37731   5.570   9.264   2.354 -0.3713  0.9022  0.2948
  999MOL0     O37732   5.679   9.311   2.420 -0.1840 -0.0090  0.3636
  999MOL0     C37733   5.772   9.214   2.470  0.2596 -0.2198  0.1182
  999MOL0     C37734   5.892   9.291   2.519 -0.1835  0.4611 -0.3453
  999MOL0     C37735   5.997   9.189   2.588  0.0163  0.0517 -0.4488
  999MOL0     C37736   6.097   9.267   2.662  0.2250  0.1493 -0.8888
  999MOL0     C37737   6.207   9.188   2.728 -0.7373  0.7854 -0.2359
  999MOL0     C37738   6.178   9.090   2.851  1.4429  0.3014  0.8017
  999MOL0     C37739   6.297   9.057   2.946 -0.2479  0.1533  0.5184
  999MOL0     C37740   6.423   8.996   2.884 -0.6711  0.3352 -0.3000
  999MOL0     N37741   6.532   8.981   2.982 -0.4459 -0.0105 -0.2478
  999MOL0     C37742   6.537   8.863   3.054 -0.6482  0.5165  0.0344
  999MOL0     C37743   6.648   8.864   3.128  0.6000 -0.2446 -0.6278
  999MOL0     C37744   6.695   8.749   3.215 -0.5580 -0.4165  0.1947
  999MOL0     C37745   6.723   8.800   3.353  0.2446  0.1125 -0.3507
  999MOL0     C37746   6.784   8.687   3.434 -0.6706  0.3166 -0.0700
  999MOL0     C37747   6.899   8.616   3.377  0.0657 -0.4354  0.2991
  999MOL0     O37748   6.956   8.532   3.475  0.0096  0.4722 -0.5561
  999MOL0     C37749   7.081   8.485   3.457 -0.7942 -0.7928  0.5643
  999MOL0     C37750   7.151   8.410   3.554  1.1869 -0.3479  0.7236
  999MOL0     C37751   7.290   8.376   3.549 -0.0808  0.6760 -0.2640
  999MOL0     C37752   7.346   8.301   3.669 -0.2628 -0.0912  0.6824
  999MOL0     C37753   7.359   8.405   3.429  0.8647 -0.3155  0.4457
  999MOL0     C37754   7.508   8.380   3.415  0.4392  0.0624  0.1495
  999MOL0     O37755   7.572   8.432   3.301 -0.2357 -0.4240 -0.1541
  999MOL0     C37756   7.700   8.390   3.274  0.0568 -0.2197 -0.1837
  999MOL0     C37757   7.728   8.268   3.214  0.5754 -0.9246 -1.0344
  999MOL0     C37758   7.858   8.244   3.172  0.3208  1.1569  0.3343
  999MOL0     C37759   7.960   8.337   3.179 -0.0880  0.9767 -0.3106
  999MOL0     O37760   8.081   8.287   3.145 -0.1905 -0.0579  1.2541
  999MOL0     C37761   8.194   8.377   3.155 -0.2926  0.8245  0.2927
  999MOL0     C37762   8.315   8.304   3.112  0.3048 -0.0526 -0.0486
  999MOL0     C37763   8.434   8.393   3.135 -0.7802  0.1320  0.0808
  999MOL0     C37764   8.459   8.484   3.021 -0.1665 -1.0787  0.9405
  999MOL0     C37765   8.604   8.524   3.039  0.9875 -0.1770  0.0984
  999MOL0     C37766   8.636   8.630   2.941  0.3722  0.3415  0.5081
  999MOL0     C37767   8.582   8.772   2.979  0.4147  0.9009  0.1111
  999MOL0     C37768   8.594   8.861   2.854  0.5354 -0.1728 -0.0028
  999MOL0    Cl37769   8.465   8.842   2.738 -0.4020  0.1594 -0.2292
  999MOL0     C37770   7.933   8.468   3.231  0.9532 -0.3718 -0.2241
  999MOL0     C37771   7.801   8.491   3.272 -0.7725  0.3391 -0.2866
  999MOL0     O37772   7.563   8.290   3.486  0.1331 -0.1213 -0.6978
  999MOL0     C37773   7.288   8.480   3.331 -0.4530  0.0511 -0.0485
  999MOL0     C37774   7.155   8.512   3.341  0.7784 -0.1817 -0.0587
  999MOL0     N37775   6.714   8.982   3.095  0.5659  0.0169 -0.6150
  999MOL0     N37776   6.642   9.054   3.014 -0.1654  0.6244  0.2462
  999MOL0     C37777   5.494   9.356   2.281  0.0593 -0.9683 -0.1003
  999MOL0     C37778   5.362   9.327   2.241 -0.1303 -0.5301 -0.5958
  999MOL0     C37779   4.953   9.163   2.191 -0.9613 -0.1353  0.3318
  999MOL0     C37780   4.839   9.140   2.274  0.5627 -0.5430 -0.0142
  999MOL0     C37781   4.711   9.103   2.222  0.0832  0.4825  0.6523
  999MOL0     C37782   4.701   9.093   2.078  0.0958  0.0014  0.4647
  999MOL0     O37783   4.580   9.071   2.020 -0.0858 -0.4892  0.4405
  999MOL0     C37784   4.451   9.077   2.086 -0.2753 -0.2102  0.1621
  999MOL0     C37785   4.337   9.074   1.988  0.8511 -0.1751  0.2997
  999MOL0     C37786   4.206   9.131   2.051 -0.2812 -0.1150 -0.1711
  999MOL0     C37787   4.150   9.024   2.150  0.2314  0.9789 -0.8437
  999MOL0     C37788   4.001   9.037   2.169  0.3112 -0.4286  0.0206
  999MOL0     C37789   3.873   9.036   2.186  0.2534 -0.7370  0.3242
  999MOL0     C37790   4.819   9.104   2.003 -0.8352 -0.7834  0.9437
  999MOL0     C37791   4.941   9.135   2.049 -0.0679  0.8115  0.4392
  999MOL0     C37792   5.056   9.143   1.956 -0.5215  0.6705 -0.0754
  999MOL0     H37793   5.371   9.007   2.378  0.4009 -0.1256  0.5564
  999MOL0     H37794   5.585   9.065   2.427  1.5149  0.9658  2.0251
  999MOL0     H37795   5.790   9.137   2.394  0.5636  1.8442 -2.0160
  999MOL0     H37796   5.727   9.169   2.559  1.9906  2.6001  2.6096
  999MOL0     H37797   5.931   9.336   2.427  1.8326 -1.5756 -0.5499
  999MOL0     H37798   5.872   9.370   2.592 -1.6168 -1.7038  1.7671
  999MOL0     H37799   5.943   9.125   2.657  2.0843 -1.2803  0.0453
  999MOL0     H37800   6.038   9.120   2.513 -3.3533 -3.0935  0.3406
  999MOL0     H37801   6.149   9.339   2.598 -1.0878 -0.1989 -2.4214
  999MOL0     H37802   6.042   9.319   2.741  1.1082 -2.2929  1.4822
  999MOL0     H37803   6.285   9.258   2.759 -0.6881  0.3477  0.6633
  999MOL0     H37804   6.264   9.129   2.655 -2.7685 -2.3756  0.5387
  999MOL0     H37805   6.098   9.134   2.910  0.4793 -0.1829 -0.1145
  999MOL0     H37806   6.140   8.998   2.806 -0.7862  0.7143  1.7408
  999MOL0     H37807   6.260   8.992   3.025  0.3654 -1.8836 -0.8079
  999MOL0     H37808   6.332   9.153   2.987  0.0713 -0.5730  2.0056
  999MOL0     H37809   6.401   8.898   2.842  2.9944 -1.1587  0.8569
  999MOL0     H37810   6.458   9.060   2.802 -1.9080  1.0638 -0.2882
  999MOL0     H37811   6.472   8.777   3.065  0.6073 -0.2825  1.5563
  999MOL0     H37812   6.790   8.714   3.173 -1.3797 -1.1909 -1.0912
  999MOL0     H37813   6.623   8.667   3.211 -0.5269 -0.4318 -0.1724
  999MOL0     H37814   6.789   8.886   3.339 -0.0381  0.3736 -0.0732
  999MOL0     H37815   6.627   8.828   3.396  0.1053 -2.2863  1.0305
  999MOL0     H37816   6.819   8.739   3.524  1.1351  2.4561 -1.9240
  999MOL0     H37817   6.696   8.625   3.454 -0.9857  1.2980  1.8148
  999MOL0     H37818   6.865   8.558   3.291  0.9579  2.6849 -2.3895
  999MOL0     H37819   6.975   8.690   3.347 -0.0306 -0.2964  0.4012
  999MOL0     H37820   7.076   8.380   3.627 -1.0802  1.5161 -0.6753
  999MOL0     H37821   7.393   8.207   3.639  1.8386  1.1024 -0.0050
  999MOL0     H37822   7.263   8.290   3.739 -1.0512  3.0269  0.3826
  999MOL0     H37823   7.425   8.367   3.708 -0.5648 -0.6071  2.2177
  999MOL0     H37824   7.647   8.197   3.228 -0.1267  0.4196  2.6601
  999MOL0     H37825   7.872   8.145   3.131  2.3708  0.4144  2.5493
  999MOL0     H37826   8.180   8.461   3.086 -0.3161 -0.7231 -1.7110
  999MOL0     H37827   8.192   8.415   3.257  1.4968  0.9605  0.2942
  999MOL0     H37828   8.334   8.208   3.161 -1.1289 -0.1691  0.3183
  999MOL0     H37829   8.300   8.255   3.015  0.6285 -0.7834  0.2618
  999MOL0     H37830   8.512   8.317   3.142 -4.1802 -3.7476  0.2764
  999MOL0     H37831   8.431   8.441   3.233  0.4697  1.2807 -0.4331
  999MOL0     H37832   8.382   8.560   3.031 -0.6655 -1.4480  0.0026
  999MOL0     H37833   8.447   8.439   2.921  2.7458 -0.1910  0.0837
  999MOL0     H37834   8.619   8.556   3.143 -1.3785  1.4786  0.0005
  999MOL0     H37835   8.669   8.439   3.014 -0.9357 -1.7198  0.0807
  999MOL0     H37836   8.594   8.588   2.850  1.0347 -0.9712  0.7719
  999MOL0     H37837   8.746   8.628   2.936  0.3339 -1.4947 -0.4492
  999MOL0     H37838   8.629   8.825   3.062 -0.1002  1.6737 -0.0792
  999MOL0     H37839   8.477   8.776   3.009 -0.2149  1.1976 -2.0096
  999MOL0     H37840   8.691   8.856   2.804  1.3554 -1.4817  1.6425
  999MOL0     H37841   8.597   8.959   2.902  1.3759 -0.9567  1.6066
  999MOL0     H37842   8.016   8.537   3.232  1.7400 -1.0854  3.8399
  999MOL0     H37843   7.769   8.588   3.309  1.5689  0.9047  0.4337
  999MOL0     H37844   7.347   8.507   3.244 -2.4192  3.5079 -0.4796
  999MOL0     H37845   7.110   8.555   3.252  1.1251 -1.1070 -0.6897
  999MOL0     H37846   5.549   9.449   2.269  2.8989 -2.4754  0.3420
  999MOL0     H37847   5.303   9.401   2.187 -0.7706 -0.1719  0.5537
  999MOL0     H37848   4.839   9.162   2.380 -0.3664 -0.8123  0.0521
  999MOL0     H37849   4.621   9.096   2.281  0.0066 -2.7593  0.3300
  999MOL0     H37850   4.444   8.985   2.145 -1.4660 -0.7053 -0.7186
  999MOL0     H37851   4.452   9.164   2.153  2.4728  2.1886 -2.6961
  999MOL0     H37852   4.322   8.970   1.958 -2.2775  0.0662  0.7152
  999MOL0     H37853   4.353   9.122   1.891 -0.6938 -1.7757 -0.8095
  999MOL0     H37854   4.208   9.233   2.091  0.4902  0.3963 -1.4337
  999MOL0     H37855   4.137   9.152   1.969  2.2019  2.5458 -1.8125
  999MOL0     H37856   4.195   9.028   2.249 -2.7544 -0.4363  0.6789
  999MOL0     H37857   4.175   8.924   2.115  1.0016  0.9291 -0.1573
  999MOL0     H37858   3.768   9.049   2.203  0.4096  3.1396 -0.7011
  999MOL0     H37859   4.812   9.085   1.896  1.0324  2.8333  0.0080
  999MOL0     H37860   5.101   9.242   1.946  0.4278  0.4996  2.0101
  999MOL0     H37861   5.128   9.068   1.991 -0.6269  0.9081  0.6692
  999MOL0     H37862   5.019   9.119   1.856  0.2518  0.2116 -0.2609
 1000MOL0     O37863   9.625   2.095  10.250  0.1306 -0.3104  0.1867
 1000MOL0     C37864   9.500   2.106  10.256 -0.5747  0.2404  0.2915
 1000MOL0     O37865   9.432   2.145  10.372 -0.0143  0.4191 -0.3103
 1000MOL0     C37866   9.503   2.188  10.477  0.0165  0.1807  0.1235
 1000MOL0     C37867   9.578   2.094  10.550 -0.2963 -0.1677  0.2477
 1000MOL0     C37868   9.639   2.130  10.667  0.2188  0.7664  0.4372
 1000MOL0     C37869   9.643   2.267  10.710 -0.0016 -0.6086  0.4438
 1000MOL0     O37870   9.704   2.313  10.820 -0.3344 -0.2594  0.0527
 1000MOL0     C37871   9.739   2.227  10.927 -0.6800 -0.6036  0.2674
 1000MOL0     C37872   9.823   2.298  11.037 -0.3518 -0.0718 -1.1234
 1000MOL0     C37873   9.746   2.405  11.105  1.0176  0.4699 -0.3895
 1000MOL0     C37874   9.825   2.467  11.229 -0.2056  0.2527  0.8574
 1000MOL0     C37875   9.739   2.566  11.312  0.7503  0.0741  0.1339
 1000MOL0     C37876   9.712   2.697  11.226  0.2371 -0.0060 -0.4402
 1000MOL0     C37877   9.616   2.794  11.298 -0.8562 -0.3622  0.2954
 1000MOL0     C37878   9.480   2.731  11.318 -0.0140  0.0742  0.3666
 1000MOL0     N37879   9.391   2.821  11.390  0.0317 -0.7334  0.2917
 1000MOL0     C37880   9.385   2.846  11.523 -0.6599 -0.1319 -0.3378
 1000MOL0     C37881   9.276   2.923  11.547  0.3666 -0.8069  0.0173
 1000MOL0     C37882   9.211   2.958  11.675  0.8216  0.2756 -0.2819
 1000MOL0     C37883   9.307   3.037  11.764 -0.2199  0.6707 -0.1550
 1000MOL0     C37884   9.232   3.102  11.888  0.1856 -0.8491 -0.4172
 1000MOL0     C37885   9.327   3.137  12.008  0.4733 -0.2056  0.4260
 1000MOL0     O37886   9.419   3.250  11.982  0.0913  0.0418 -0.0370
 1000MOL0     C37887   9.541   3.253  12.039 -0.6024  0.8703 -0.0906
 1000MOL0     C37888   9.636   3.326  11.963  0.5917  0.0540  0.3716
 1000MOL0     C37889   9.771   3.332  12.001 -0.8049 -0.4066 -0.3436
 1000MOL0     C37890   9.872   3.411  11.911 -0.4572 -0.0858  0.3322
 1000MOL0     C37891   9.807   3.279  12.127  0.4497  0.4097 -0.2350
 1000MOL0     C37892   9.939   3.288  12.191 -0.9397  0.2781  0.2164
 1000MOL0     O37893  10.027   3.374  12.136  0.3003  0.4560 -0.0410
 1000MOL0     C37894  10.150   3.391  12.191 -0.2785 -0.8008  0.7172
 1000MOL0     C37895  10.189   3.529  12.190 -0.3514 -0.3761  0.8003
 1000MOL0     C37896  10.328   3.556  12.225 -0.1128  1.1871  1.5758
 1000MOL0     C37897  10.424   3.452  12.260  0.3009  1.1602 -0.4908
 1000MOL0     O37898  10.553   3.481  12.280  0.3626 -0.0565 -0.4123
 1000MOL0     C37899  10.635   3.390  12.354 -0.3099  0.1806  0.1364
 1000MOL0     C37900  10.754   3.347  12.259  0.9646 -0.3230  0.1108
 1000MOL0     C37901  10.879   3.310  12.327  0.7664  0.2333 -0.5342
 1000MOL0     C37902  10.871   3.174  12.402 -0.2228 -0.2443 -0.1109
 1000MOL0     C37903  11.002   3.168  12.493  0.2404  0.9040 -0.0883
 1000MOL0     C37904  11.017   3.024  12.560  0.1894  0.1029 -0.0198
 1000MOL0     C37905  11.139   3.015  12.653  0.2424 -0.2800 -0.8080
 1000MOL0     C37906  11.113   2.898  12.746 -1.0053 -0.3418 -0.3375
 1000MOL0    Cl37907  11.165   2.754  12.651  0.3308 -0.4252 -0.6919
 1000MOL0     C37908  10.374   3.317  12.257 -0.5334 -0.1209  0.2722
 1000MOL0     C37909  10.246   3.288  12.216  0.3202 -0.1646 -0.1731
 1000MOL0     O37910   9.964   3.218  12.288 -0.5523  0.3155  0.2998
 1000MOL0     C37911   9.713   3.200  12.202 -0.2123  0.2299  0.4898
 1000MOL0     C37912   9.578   3.182  12.155 -0.7871  0.5751  0.0001
 1000MOL0     N37913   9.225   2.952  11.419  0.3464 -0.1514 -0.3462
 1000MOL0     N37914   9.296   2.894  11.326 -0.4988  0.7239  0.2618
 1000MOL0     C37915   9.564   2.361  10.647  0.2682  0.1910  0.1638
 1000MOL0     C37916   9.501   2.322  10.530 -0.6360  0.3733 -0.2760
 1000MOL0     C37917   9.420   2.069  10.139  0.4778  0.9517  0.4927
 1000MOL0     C37918   9.274   2.074  10.157  0.8340 -0.3485 -0.6079
 1000MOL0     C37919   9.186   2.024  10.059  1.0028  0.2871 -0.0167
 1000MOL0     C37920   9.241   1.961   9.950 -0.0543 -0.8144 -0.1851
 1000MOL0     O37921   9.158   1.909   9.850 -0.3787 -0.2587 -0.3734
 1000MOL0     C37922   9.016   1.939   9.852  0.3437 -0.2054  0.0053
 1000MOL0     C37923   8.938   1.890   9.726 -0.9898 -0.3946  0.0748
 1000MOL0     C37924   8.962   1.985   9.610 -0.1021  0.0950  0.0343
 1000MOL0     C37925   8.896   2.124   9.642  0.4035  0.2325  0.8293
 1000MOL0     C37926   8.865   2.199   9.521  0.3497 -0.3390  0.9453
 1000MOL0     C37927   8.839   2.262   9.417 -0.0327  0.6265  0.6063
 1000MOL0     C37928   9.380   1.959   9.922 -0.6945  0.7733 -0.1328
 1000MOL0     C37929   9.471   2.016  10.015  0.5412  0.6866  0.1280
 1000MOL0     C37930   9.611   2.022   9.979  0.7404  0.0627  0.1876
 1000MOL0     H37931   9.593   1.994  10.511 -1.5655 -0.0905 -0.4820
 1000MOL0     H37932   9.702   2.055  10.713 -0.3862  0.3975  0.6633
 1000MOL0     H37933   9.793   2.137  10.896 -0.9277 -0.8145  0.4473
 1000MOL0     H37934   9.644   2.185  10.960 -0.1593 -1.9076  0.1952
 1000MOL0     H37935   9.853   2.219  11.105  0.0666 -0.7253 -2.0399
 1000MOL0     H37936   9.914   2.343  10.996 -0.2674  1.3364  0.4909
 1000MOL0     H37937   9.709   2.483  11.037 -0.2445  2.3747  2.3086
 1000MOL0     H37938   9.656   2.352  11.140  0.2459  2.6886  1.1574
 1000MOL0     H37939   9.862   2.379  11.282  0.2967 -1.6233 -2.3586
 1000MOL0     H37940   9.910   2.524  11.189 -1.2736  0.7384 -0.8383
 1000MOL0     H37941   9.788   2.596  11.405  0.2861  0.7962  0.1489
 1000MOL0     H37942   9.646   2.515  11.340  0.6018 -0.7917 -1.7495
 1000MOL0     H37943   9.803   2.754  11.205 -0.0888  0.4571 -0.6014
 1000MOL0     H37944   9.667   2.661  11.133  0.0374  0.8813 -0.6890
 1000MOL0     H37945   9.605   2.882  11.234 -1.5716 -1.0796 -0.6018
 1000MOL0     H37946   9.655   2.835  11.391  2.7040 -1.6360 -0.5019
 1000MOL0     H37947   9.439   2.701  11.221 -1.7728  1.3586  0.6627
 1000MOL0     H37948   9.486   2.643  11.383 -0.6455 -1.0115 -0.9777
 1000MOL0     H37949   9.462   2.812  11.592  0.1241  2.4931  0.1930
 1000MOL0     H37950   9.185   2.866  11.728 -0.0120  1.7339  1.9629
 1000MOL0     H37951   9.123   3.018  11.650  0.9756  0.7254  0.2335
 1000MOL0     H37952   9.379   2.961  11.797 -2.8050 -1.2397  1.3882
 1000MOL0     H37953   9.351   3.126  11.717  0.6562  1.0161  1.2499
 1000MOL0     H37954   9.191   3.201  11.866  0.7176 -0.9236 -1.8194
 1000MOL0     H37955   9.162   3.027  11.926 -0.5421 -0.7696 -1.5662
 1000MOL0     H37956   9.262   3.169  12.090  0.7149  0.7735  0.2457
 1000MOL0     H37957   9.373   3.044  12.042 -1.8417 -1.7383 -0.4126
 1000MOL0     H37958   9.592   3.377  11.878  2.3097 -0.2810 -0.7647
 1000MOL0     H37959   9.908   3.505  11.953 -0.4906  0.4208 -0.7373
 1000MOL0     H37960   9.821   3.445  11.820 -0.7387  0.2044  0.5985
 1000MOL0     H37961   9.963   3.354  11.891 -1.2202 -1.5191  0.7785
 1000MOL0     H37962  10.127   3.607  12.147 -0.9850 -2.0575 -1.5501
 1000MOL0     H37963  10.374   3.653  12.205  5.2780 -1.7105 -2.8404
 1000MOL0     H37964  10.684   3.446  12.436 -1.4659  0.1515  0.8677
 1000MOL0     H37965  10.582   3.305  12.398 -0.9249  0.8774  0.7736
 1000MOL0     H37966  10.712   3.270  12.194  2.1204  0.3304 -1.4788
 1000MOL0     H37967  10.778   3.429  12.190  0.6061  0.4414  0.8789
 1000MOL0     H37968  10.921   3.385  12.395 -1.7486 -1.9076  3.8430
 1000MOL0     H37969  10.952   3.297  12.247  1.6633 -0.3149  0.3663
 1000MOL0     H37970  10.871   3.089  12.333  1.1783 -1.3238  1.1348
 1000MOL0     H37971  10.774   3.170  12.452 -1.9407  1.8286 -2.9674
 1000MOL0     H37972  11.092   3.183  12.434  0.0535  0.7901 -0.4039
 1000MOL0     H37973  10.995   3.236  12.578  4.0005 -1.4648  2.4148
 1000MOL0     H37974  11.019   2.957  12.474 -1.7827  1.4218 -1.1940
 1000MOL0     H37975  10.925   2.988  12.606 -1.0763 -0.6216 -2.9094
 1000MOL0     H37976  11.140   3.096  12.727  2.7927 -0.3911 -0.6579
 1000MOL0     H37977  11.234   3.022  12.599  1.2490  1.6272  1.0602
 1000MOL0     H37978  11.008   2.884  12.776 -1.0301  0.3004 -0.1076
 1000MOL0     H37979  11.164   2.894  12.843 -0.9548 -1.0959 -0.3858
 1000MOL0     H37980  10.427   3.227  12.285 -3.0995 -0.5079  4.9614
 1000MOL0     H37981  10.207   3.187  12.205  1.5724 -0.5510 -1.2515
 1000MOL0     H37982   9.737   3.160  12.299  1.5910  3.0824  1.3534
 1000MOL0     H37983   9.497   3.135  12.210 -1.3573 -0.7466 -1.8666
 1000MOL0     H37984   9.571   2.466  10.672 -0.6704 -0.2235  2.4315
 1000MOL0     H37985   9.442   2.401  10.484 -2.1766 -1.0369 -0.8602
 1000MOL0     H37986   9.224   2.112  10.246  1.6206 -0.3317 -0.1627
 1000MOL0     H37987   9.077   2.023  10.061  0.9820 -0.8656 -0.6003
 1000MOL0     H37988   8.968   1.880   9.931 -1.0496  1.8201  0.7760
 1000MOL0     H37989   9.000   2.046   9.870 -1.0714 -0.2835 -0.6380
 1000MOL0     H37990   8.832   1.875   9.747 -1.1938  1.2785  0.3537
 1000MOL0     H37991   8.975   1.791   9.694  0.8159 -0.1230  1.2044
 1000MOL0     H37992   9.068   2.005   9.587 -0.0339 -1.5533 -1.2402
 1000MOL0     H37993   8.919   1.941   9.520 -1.7474  1.2947  0.1992
 1000MOL0     H37994   8.960   2.194   9.697 -0.3281  1.8283 -0.2781
 1000MOL0     H37995   8.796   2.106   9.682 -0.5309  1.1745 -0.9311
 1000MOL0     H37996   8.813   2.336   9.343 -0.2434 -0.4911 -0.4620
 1000MOL0     H37997   9.417   1.913   9.831  0.9525  0.5317  0.6371
 1000MOL0     H37998   9.677   1.956  10.036  1.9944  2.1901  1.3142
 1000MOL0     H37999   9.631   2.008   9.873  0.1445 -2.4582  0.3460
 1000MOL0     H38000   9.642   2.126   9.993  0.4567  0.5811 -2.5872
 1001MOL0     O38001   7.133   7.300   2.925  0.4819  0.4721  0.8345
 1001MOL0     C38002   7.118   7.376   3.020 -0.1690 -0.3076 -0.4635
 1001MOL0     O38003   7.215   7.414   3.109 -0.2540  0.3111  0.2494
 1001MOL0     C38004   7.343   7.351   3.107  0.0281  1.0141 -0.0673
 1001MOL0     C38005   7.374   7.242   3.190  0.1574 -0.3675 -0.0979
 1001MOL0     C38006   7.510   7.193   3.199 -0.5955 -0.0129  0.7097
 1001MOL0     C38007   7.602   7.228   3.101 -0.0068 -0.8403 -0.3407
 1001MOL0     O38008   7.731   7.176   3.115 -0.2462  0.0623  1.0985
 1001MOL0     C38009   7.768   7.043   3.149  0.8506  0.2390  0.8664
 1001MOL0     C38010   7.913   7.040   3.191 -0.5028 -0.5036  0.1507
 1001MOL0     C38011   7.958   7.139   3.300 -0.2462 -0.2066  0.2911
 1001MOL0     C38012   8.111   7.133   3.330  0.5576 -0.7873 -0.5074
 1001MOL0     C38013   8.153   7.236   3.421 -0.0770  0.4775  0.3634
 1001MOL0     C38014   8.302   7.251   3.441  0.0043 -0.3658 -0.1324
 1001MOL0     C38015   8.352   7.358   3.530  0.4355  0.1341  0.3119
 1001MOL0     C38016   8.438   7.460   3.449  0.3648  0.9184 -0.1521
 1001MOL0     N38017   8.472   7.579   3.529  0.1873  0.0750  0.7845
 1001MOL0     C38018   8.412   7.622   3.646 -0.5794  0.7567  0.1088
 1001MOL0     C38019   8.492   7.733   3.687 -0.7385  0.5947  0.5186
 1001MOL0     C38020   8.482   7.814   3.812  0.1961  0.2886 -0.4552
 1001MOL0     C38021   8.500   7.967   3.788 -0.9733  0.1979 -0.9461
 1001MOL0     C38022   8.523   8.042   3.920  0.0734  0.0422 -0.1115
 1001MOL0     C38023   8.399   8.049   4.020  0.0833  0.2003 -0.4222
 1001MOL0     O38024   8.289   8.093   3.932  0.4642  0.7320  0.0993
 1001MOL0     C38025   8.183   8.151   3.998  0.0973 -0.2378  0.3505
 1001MOL0     C38026   8.154   8.159   4.140 -0.3572  0.2188  0.1058
 1001MOL0     C38027   8.060   8.256   4.191  0.7960  0.8045  0.3913
 1001MOL0     C38028   8.028   8.251   4.343  0.1766  0.4565  0.1633
 1001MOL0     C38029   7.994   8.343   4.096  0.1585  0.2408 -0.4259
 1001MOL0     C38030   7.895   8.450   4.132  0.6590  0.6476  0.4024
 1001MOL0     O38031   7.823   8.506   4.037  0.6550 -0.0823  0.3903
 1001MOL0     C38032   7.741   8.610   4.065 -0.5114  0.9829  0.4758
 1001MOL0     C38033   7.644   8.598   4.166  0.5100 -0.3485 -0.2652
 1001MOL0     C38034   7.578   8.718   4.201  0.1669  0.2115  0.0682
 1001MOL0     C38035   7.595   8.841   4.128  0.5005  0.1202  0.4543
 1001MOL0     O38036   7.523   8.950   4.164  0.4990  0.3396 -0.1510
 1001MOL0     C38037   7.424   9.005   4.075  0.4685  0.0019 -0.3141
 1001MOL0     C38038   7.385   9.146   4.110  0.2207 -0.7495 -0.3063
 1001MOL0     C38039   7.244   9.198   4.075 -0.1510 -0.5110 -0.1612
 1001MOL0     C38040   7.135   9.111   4.124 -0.7501 -0.5229  0.7433
 1001MOL0     C38041   6.993   9.178   4.110 -0.7963 -0.2260 -0.5046
 1001MOL0     C38042   6.877   9.087   4.148 -0.1369 -0.3539  0.0418
 1001MOL0     C38043   6.735   9.134   4.099  0.0362  0.0846 -0.2997
 1001MOL0     C38044   6.639   9.039   4.166 -0.4482  0.4979  0.6660
 1001MOL0    Cl38045   6.478   9.086   4.121 -0.2214  0.1752 -0.5673
 1001MOL0     C38046   7.692   8.848   4.033  0.1405  0.3227 -1.2248
 1001MOL0     C38047   7.765   8.729   4.001  0.5452 -0.0546 -0.4701
 1001MOL0     O38048   7.894   8.493   4.247  0.0378  0.6082  0.3499
 1001MOL0     C38049   8.008   8.321   3.958  0.7156 -0.0228 -0.6394
 1001MOL0     C38050   8.095   8.224   3.912 -0.3356  0.1895  0.0735
 1001MOL0     N38051   8.584   7.764   3.584  0.6698 -0.0433  0.4213
 1001MOL0     N38052   8.564   7.672   3.491  0.2697  0.1183 -0.6298
 1001MOL0     C38053   7.570   7.345   3.017 -0.2437 -0.3025 -1.1207
 1001MOL0     C38054   7.436   7.403   3.019 -0.9000  0.4406  0.3972
 1001MOL0     C38055   6.982   7.426   3.062 -0.6124  0.7302  0.1954
 1001MOL0     C38056   6.933   7.394   3.194  0.2845 -0.1032 -0.1507
 1001MOL0     C38057   6.813   7.444   3.241 -1.1936 -0.3114  0.2652
 1001MOL0     C38058   6.741   7.535   3.155  0.4620  0.2235 -0.1055
 1001MOL0     O38059   6.636   7.603   3.225 -0.3369  0.6229 -0.0404
 1001MOL0     C38060   6.688   7.682   3.338 -0.2119  0.0661  0.3139
 1001MOL0     C38061   6.622   7.823   3.340  0.0733 -0.1136  0.1514
 1001MOL0     C38062   6.483   7.825   3.403  0.2889  0.7962 -0.1719
 1001MOL0     C38063   6.425   7.973   3.405  0.1082 -0.3283  0.2629
 1001MOL0     C38064   6.289   7.977   3.458  0.4882 -0.6562  0.3060
 1001MOL0     C38065   6.188   7.989   3.530 -0.3601 -0.2868  0.5510
 1001MOL0     C38066   6.786   7.571   3.029 -0.2134  0.8388  0.2397
 1001MOL0     C38067   6.898   7.505   2.973 -0.1506  0.1561 -0.4487
 1001MOL0     C38068   6.929   7.535   2.828  0.3797  0.7589 -0.8036
 1001MOL0     H38069   7.297   7.188   3.245  3.6248 -2.8686  2.7809
 1001MOL0     H38070   7.540   7.111   3.263 -0.1066  0.3662  0.9747
 1001MOL0     H38071   7.761   6.963   3.075 -1.3864  0.5551  0.6609
 1001MOL0     H38072   7.703   7.010   3.231  0.1874 -0.3384  0.1188
 1001MOL0     H38073   7.926   6.939   3.231 -2.0107 -0.7543  0.0744
 1001MOL0     H38074   7.971   7.057   3.099 -0.4928 -0.8017  0.1035
 1001MOL0     H38075   7.932   7.243   3.280 -1.5405 -0.2233  1.6615
 1001MOL0     H38076   7.894   7.112   3.385  1.9888  0.3867  2.2813
 1001MOL0     H38077   8.149   7.038   3.369  0.6068 -1.3961 -1.9754
 1001MOL0     H38078   8.162   7.142   3.233 -3.0931  0.6344 -2.4991
 1001MOL0     H38079   8.116   7.211   3.520  4.7484  0.6163  2.4765
 1001MOL0     H38080   8.104   7.330   3.393 -0.6619 -0.2301 -1.1358
 1001MOL0     H38081   8.342   7.155   3.473  0.7419 -0.4985 -1.3742
 1001MOL0     H38082   8.346   7.264   3.342  1.7749  0.1072  0.6767
 1001MOL0     H38083   8.417   7.307   3.601 -0.1051 -1.2787 -0.1757
 1001MOL0     H38084   8.269   7.400   3.589  0.7317 -1.4607  1.9507
 1001MOL0     H38085   8.533   7.409   3.426  0.3471  0.8181 -0.0063
 1001MOL0     H38086   8.386   7.481   3.355 -2.2112 -1.1328  0.6864
 1001MOL0     H38087   8.322   7.587   3.696 -0.1414  1.6964  1.6580
 1001MOL0     H38088   8.546   7.778   3.893  1.4471  2.3943 -0.4296
 1001MOL0     H38089   8.382   7.797   3.855 -0.1084  0.3726 -1.1172
 1001MOL0     H38090   8.586   7.993   3.725 -2.4385  0.8984 -2.7598
 1001MOL0     H38091   8.420   8.001   3.722  1.1843 -1.3511 -4.6557
 1001MOL0     H38092   8.617   8.016   3.969 -0.0727 -0.2534  0.0167
 1001MOL0     H38093   8.533   8.146   3.889  2.1665 -0.9193 -3.0540
 1001MOL0     H38094   8.381   7.953   4.070 -1.6113  1.5244  1.6778
 1001MOL0     H38095   8.428   8.125   4.093 -0.7457  1.4553 -1.3531
 1001MOL0     H38096   8.198   8.087   4.209  3.2912  0.6014 -1.5913
 1001MOL0     H38097   7.929   8.206   4.357  0.9296 -1.6549 -0.9006
 1001MOL0     H38098   8.034   8.352   4.383  2.3456  1.6631 -2.8524
 1001MOL0     H38099   8.096   8.180   4.391 -0.4286 -0.9166 -0.9418
 1001MOL0     H38100   7.623   8.513   4.230  0.6809  0.9657  1.6065
 1001MOL0     H38101   7.505   8.710   4.280  0.3729  0.9176  0.3394
 1001MOL0     H38102   7.443   8.996   3.968  0.0993  0.0816 -0.3864
 1001MOL0     H38103   7.333   8.954   4.106  0.4610 -0.2925 -0.8068
 1001MOL0     H38104   7.399   9.172   4.215 -1.5694  0.6182 -0.3624
 1001MOL0     H38105   7.456   9.213   4.060 -1.3361  2.3881  1.4065
 1001MOL0     H38106   7.238   9.191   3.966  3.1744 -2.5947 -0.3541
 1001MOL0     H38107   7.234   9.302   4.108  3.0433  0.6345 -2.3790
 1001MOL0     H38108   7.153   9.093   4.231  1.5524 -0.7318  0.3511
 1001MOL0     H38109   7.137   9.020   4.063 -0.0120 -0.6993  1.0212
 1001MOL0     H38110   6.997   9.266   4.175  2.5825 -0.3076 -0.4116
 1001MOL0     H38111   6.986   9.218   4.009 -2.6414 -1.2657 -0.8237
 1001MOL0     H38112   6.876   9.071   4.257 -0.2591  0.3220  0.1417
 1001MOL0     H38113   6.904   8.988   4.109 -3.6864 -1.6136  0.3903
 1001MOL0     H38114   6.735   9.128   3.990  1.0409 -3.8109 -0.2330
 1001MOL0     H38115   6.701   9.234   4.127  0.1570 -0.5802  2.5486
 1001MOL0     H38116   6.651   9.058   4.273 -0.2660  3.1133  0.2465
 1001MOL0     H38117   6.660   8.932   4.158  1.6940  0.8044  1.5477
 1001MOL0     H38118   7.711   8.939   3.977 -1.2342 -0.6198 -3.3855
 1001MOL0     H38119   7.827   8.715   3.913  0.6256  1.5512 -0.6938
 1001MOL0     H38120   7.947   8.371   3.883 -0.5659 -1.2255 -0.4259
 1001MOL0     H38121   8.101   8.199   3.806  1.8426 -0.5638  0.3354
 1001MOL0     H38122   7.649   7.375   2.948  0.3731 -0.8379 -0.6662
 1001MOL0     H38123   7.412   7.484   2.951  1.9805  1.2990  0.2694
 1001MOL0     H38124   7.001   7.329   3.249  2.0973  1.0041 -0.9790
 1001MOL0     H38125   6.788   7.409   3.341  3.6768 -0.6116  1.6240
 1001MOL0     H38126   6.656   7.633   3.431 -0.0043  2.8925  1.9692
 1001MOL0     H38127   6.796   7.699   3.338 -0.4570  1.8232  0.7618
 1001MOL0     H38128   6.627   7.879   3.246  0.7450  1.1892  0.9315
 1001MOL0     H38129   6.682   7.886   3.407 -0.3150 -2.5070  2.9258
 1001MOL0     H38130   6.418   7.759   3.344 -0.9010  0.3553  1.5679
 1001MOL0     H38131   6.475   7.776   3.501 -0.7067 -2.1449 -1.5821
 1001MOL0     H38132   6.431   8.017   3.305 -4.0659 -2.1603 -1.0035
 1001MOL0     H38133   6.491   8.022   3.478 -1.7520 -1.0979  2.6168
 1001MOL0     H38134   6.090   8.021   3.560 -1.3622 -0.1146 -2.5404
 1001MOL0     H38135   6.736   7.647   2.970  1.2879  2.5161  1.0545
 1001MOL0     H38136   6.876   7.464   2.764  0.1526  0.0056  0.2116
 1001MOL0     H38137   6.884   7.631   2.803  1.3903  0.8851 -2.2802
 1001MOL0     H38138   7.035   7.541   2.800  1.0760 -0.1102  1.4521
 1002MOL0     O38139   3.036  10.097  10.167 -1.0012 -0.3621 -0.9221
 1002MOL0     C38140   2.920  10.100  10.204  0.1645 -0.0874 -0.1001
 1002MOL0     O38141   2.824  10.185  10.149 -0.1406  0.8893 -0.7892
 1002MOL0     C38142   2.856  10.283  10.058 -0.0040  0.0423 -0.9828
 1002MOL0     C38143   2.752  10.301   9.966  0.7134 -0.2791 -0.7863
 1002MOL0     C38144   2.766  10.401   9.869  0.4136 -0.1093 -0.2065
 1002MOL0     C38145   2.894  10.455   9.847 -0.3190 -0.5953 -0.0153
 1002MOL0     O38146   2.927  10.537   9.736  0.6034 -0.8613  0.1469
 1002MOL0     C38147   2.826  10.586   9.644 -1.0445 -0.3003  0.5924
 1002MOL0     C38148   2.887  10.693   9.554 -0.2294  0.3899 -0.6741
 1002MOL0     C38149   3.003  10.629   9.467  0.9398 -0.5157  0.1050
 1002MOL0     C38150   3.105  10.728   9.409 -0.9288 -0.2703 -0.3763
 1002MOL0     C38151   3.040  10.854   9.343  1.3069  0.6587  0.6373
 1002MOL0     C38152   3.147  10.946   9.279  0.2305 -0.4987  0.4460
 1002MOL0     C38153   3.082  11.071   9.207  0.1253 -0.5292  0.5601
 1002MOL0     C38154   3.159  11.200   9.206  0.9370 -0.4542 -0.2167
 1002MOL0     N38155   3.282  11.184   9.127 -0.0856  0.4701 -0.3978
 1002MOL0     C38156   3.309  11.182   8.993  0.4427 -0.2515  0.6329
 1002MOL0     C38157   3.445  11.173   8.985  0.7149  0.6488 -0.6011
 1002MOL0     C38158   3.511  11.179   8.853 -0.0185 -0.6388 -0.3654
 1002MOL0     C38159   3.598  11.306   8.840 -0.2679 -0.8843  0.2181
 1002MOL0     C38160   3.531  11.446   8.822 -0.7715 -0.6196 -0.1376
 1002MOL0     C38161   3.636  11.556   8.813  0.4074 -0.2796 -0.5016
 1002MOL0     O38162   3.707  11.554   8.685 -0.5180  0.4630 -0.4372
 1002MOL0     C38163   3.824  11.627   8.669  0.6574 -0.0815 -0.4969
 1002MOL0     C38164   3.878  11.713   8.766  0.6726  0.8727 -0.1329
 1002MOL0     C38165   3.990  11.785   8.750  0.0524  0.3720  0.4772
 1002MOL0     C38166   4.036  11.873   8.860 -0.3618 -0.6577 -0.4756
 1002MOL0     C38167   4.050  11.789   8.623  0.1374  0.0297  0.2865
 1002MOL0     C38168   4.170  11.870   8.593  0.4481  0.3882 -1.0089
 1002MOL0     O38169   4.262  11.883   8.691 -0.2191 -0.3851 -0.1140
 1002MOL0     C38170   4.392  11.922   8.672 -0.1242  0.5245 -0.7829
 1002MOL0     C38171   4.464  11.914   8.792 -0.1977  0.3379  0.1507
 1002MOL0     C38172   4.594  11.949   8.799 -1.2591  0.6649 -0.0132
 1002MOL0     C38173   4.658  12.000   8.685  0.4622 -0.0589 -0.1504
 1002MOL0     O38174   4.789  12.044   8.708 -0.4602  0.4984 -0.1969
 1002MOL0     C38175   4.817  12.174   8.660 -0.1698 -0.1553  0.0062
 1002MOL0     C38176   4.959  12.220   8.702  0.0775  0.2562 -0.5629
 1002MOL0     C38177   5.030  12.334   8.621  0.5868  0.2551 -0.8426
 1002MOL0     C38178   5.068  12.301   8.484 -0.1580 -0.0253  0.9984
 1002MOL0     C38179   5.223  12.329   8.466 -0.0797  0.6806 -0.1016
 1002MOL0     C38180   5.254  12.275   8.325  0.6985 -0.1851 -0.9921
 1002MOL0     C38181   5.408  12.284   8.306 -0.7874 -0.9344  0.2552
 1002MOL0     C38182   5.472  12.425   8.325 -0.5801 -0.2907 -1.0368
 1002MOL0    Cl38183   5.636  12.426   8.269  0.2821  0.0979  0.2365
 1002MOL0     C38184   4.588  12.006   8.567  0.3808  0.1609  0.2154
 1002MOL0     C38185   4.455  11.967   8.560  0.5294 -0.4708  0.8639
 1002MOL0     O38186   4.175  11.911   8.481  0.5198 -0.3630  0.3241
 1002MOL0     C38187   3.992  11.712   8.530  0.1585 -0.1632  0.8298
 1002MOL0     C38188   3.884  11.636   8.542  0.9814  0.0947  0.2827
 1002MOL0     N38189   3.496  11.184   9.112  0.4545 -0.0758 -0.4212
 1002MOL0     N38190   3.401  11.172   9.198  0.8993 -0.5435 -0.1769
 1002MOL0     C38191   2.995  10.443   9.941 -0.3539  0.1093  0.6021
 1002MOL0     C38192   2.974  10.361  10.052 -0.0385 -0.7694  0.0037
 1002MOL0     C38193   2.874  10.006  10.307  0.3235 -0.4130  0.0971
 1002MOL0     C38194   2.734  10.014  10.340 -0.3488 -0.5959 -0.0197
 1002MOL0     C38195   2.681   9.945  10.444  0.0267  0.2409  0.7218
 1002MOL0     C38196   2.756   9.853  10.514  0.2483 -0.0051 -0.0718
 1002MOL0     O38197   2.698   9.790  10.621 -0.4026 -0.1494 -0.6322
 1002MOL0     C38198   2.783   9.710  10.709  0.4576  0.5994 -0.0490
 1002MOL0     C38199   2.704   9.695  10.840 -0.2672 -0.3813  0.2496
 1002MOL0     C38200   2.579   9.600  10.833 -0.2617 -0.2631 -0.5173
 1002MOL0     C38201   2.514   9.575  10.969 -0.5274  0.8103  0.0552
 1002MOL0     C38202   2.578   9.456  11.029 -0.0723 -0.2791  0.7491
 1002MOL0     C38203   2.631   9.372  11.098 -0.2088 -0.0774 -0.4105
 1002MOL0     C38204   2.887   9.829  10.473  0.3283  0.1733  0.1321
 1002MOL0     C38205   2.950   9.902  10.373 -0.3798 -0.2004 -0.1840
 1002MOL0     C38206   3.094   9.872  10.336 -0.3635 -0.0931  0.8040
 1002MOL0     H38207   2.665  10.237   9.973 -2.0513  3.2857  0.3101
 1002MOL0     H38208   2.697  10.420   9.788  0.9930  3.5909  0.0063
 1002MOL0     H38209   2.745  10.636   9.697 -1.6963 -0.4775 -0.2247
 1002MOL0     H38210   2.787  10.496   9.597  1.6043 -0.4075 -1.6998
 1002MOL0     H38211   2.805  10.741   9.500  0.3865  1.4047 -0.7275
 1002MOL0     H38212   2.932  10.771   9.616  0.6018 -0.8634  0.3491
 1002MOL0     H38213   3.062  10.558   9.526  3.7037 -0.1376 -1.9740
 1002MOL0     H38214   2.951  10.577   9.387 -0.5883 -1.0598  1.4166
 1002MOL0     H38215   3.176  10.766   9.482 -1.5286 -1.5962  0.9525
 1002MOL0     H38216   3.159  10.681   9.326 -0.8020  0.2896 -0.6106
 1002MOL0     H38217   2.997  10.919   9.420  1.9559 -0.2509  1.8142
 1002MOL0     H38218   2.956  10.826   9.279  1.0828  1.0653  0.7551
 1002MOL0     H38219   3.204  10.993   9.360 -0.5093  2.2490 -0.5203
 1002MOL0     H38220   3.213  10.893   9.211 -0.7843  1.2947 -2.0868
 1002MOL0     H38221   2.996  11.100   9.268  0.3786  2.1090 -0.2328
 1002MOL0     H38222   3.056  11.041   9.105  0.4656  2.1978 -0.3937
 1002MOL0     H38223   3.096  11.279   9.166 -0.2060 -1.0922  0.2465
 1002MOL0     H38224   3.178  11.226   9.310 -2.3571  1.9793 -0.0675
 1002MOL0     H38225   3.232  11.212   8.922 -0.9928  0.9490  2.5800
 1002MOL0     H38226   3.434  11.185   8.775  0.5193 -0.9414 -0.9300
 1002MOL0     H38227   3.574  11.092   8.831  1.4391  0.1918  0.4457
 1002MOL0     H38228   3.664  11.306   8.928  0.1354 -0.9793 -0.0843
 1002MOL0     H38229   3.657  11.282   8.751 -1.1694  1.6548 -1.1588
 1002MOL0     H38230   3.457  11.450   8.742 -1.2702  2.0008  0.3718
 1002MOL0     H38231   3.471  11.442   8.914 -0.6834 -1.6861 -0.1160
 1002MOL0     H38232   3.585  11.652   8.821 -0.2350 -0.4833 -1.8801
 1002MOL0     H38233   3.711  11.553   8.893  2.5990  1.4283 -2.3301
 1002MOL0     H38234   3.836  11.723   8.866 -1.9284 -0.2119 -1.0526
 1002MOL0     H38235   3.960  11.878   8.939  1.2667 -1.0107  1.1942
 1002MOL0     H38236   4.045  11.974   8.820  1.1850 -0.5181  0.1391
 1002MOL0     H38237   4.133  11.839   8.897 -0.2999 -1.2410 -1.1491
 1002MOL0     H38238   4.417  11.874   8.881 -0.5287  3.5379  1.5385
 1002MOL0     H38239   4.655  11.960   8.887 -1.0030 -3.4069  0.5299
 1002MOL0     H38240   4.805  12.178   8.552  2.9817  0.2236 -0.4232
 1002MOL0     H38241   4.744  12.248   8.694 -1.1626  0.5961 -3.3937
 1002MOL0     H38242   4.958  12.246   8.808 -0.6368  1.3879 -0.8285
 1002MOL0     H38243   5.015  12.126   8.692 -0.1347  0.2657 -2.2030
 1002MOL0     H38244   5.116  12.363   8.682 -0.0750 -1.7410  1.1932
 1002MOL0     H38245   4.954  12.411   8.606  0.5012  0.7564  1.6881
 1002MOL0     H38246   5.011  12.365   8.416  4.7755  2.8092 -0.9922
 1002MOL0     H38247   5.034  12.198   8.465 -1.0910  0.5727 -0.8797
 1002MOL0     H38248   5.241  12.434   8.486  1.3808  0.9211 -2.3939
 1002MOL0     H38249   5.283  12.268   8.534 -0.1153  0.5671 -0.1697
 1002MOL0     H38250   5.201  12.339   8.254 -0.2286  0.4322  0.2209
 1002MOL0     H38251   5.212  12.174   8.316 -1.1063  0.4123  0.2534
 1002MOL0     H38252   5.437  12.254   8.205 -1.0136 -0.1784 -0.0460
 1002MOL0     H38253   5.459  12.214   8.372  0.8106  0.6137  0.7407
 1002MOL0     H38254   5.471  12.452   8.431  1.7178 -0.4788 -0.9123
 1002MOL0     H38255   5.409  12.501   8.279  0.3496 -0.1033 -2.0191
 1002MOL0     H38256   4.634  12.050   8.478  1.4079 -1.9031 -0.3322
 1002MOL0     H38257   4.407  11.965   8.462 -0.3914 -0.4599  1.3000
 1002MOL0     H38258   4.029  11.724   8.428  0.9723  2.6043  1.3859
 1002MOL0     H38259   3.844  11.585   8.455  2.5431 -1.0669  0.1970
 1002MOL0     H38260   3.086  10.501   9.940 -0.9814  1.1135  0.0600
 1002MOL0     H38261   3.053  10.348  10.126 -0.8986  3.3674  1.9546
 1002MOL0     H38262   2.672  10.082  10.283  0.8045 -1.6415 -2.7008
 1002MOL0     H38263   2.578   9.949  10.479 -2.1563 -1.6198 -4.4031
 1002MOL0     H38264   2.823   9.621  10.660 -0.3628  0.5731 -0.6781
 1002MOL0     H38265   2.866   9.777  10.735 -0.9852  2.8884 -1.0647
 1002MOL0     H38266   2.679   9.794  10.880  2.5703  0.2467  0.6499
 1002MOL0     H38267   2.768   9.649  10.915 -1.8301  0.3155  2.0924
 1002MOL0     H38268   2.520   9.668  10.771 -1.3319  0.2716  1.0435
 1002MOL0     H38269   2.608   9.506  10.784 -0.0232 -1.1967  1.3537
 1002MOL0     H38270   2.406   9.556  10.969 -0.1186 -1.8970  1.7890
 1002MOL0     H38271   2.528   9.655  11.042 -0.4807  0.5934  0.2831
 1002MOL0     H38272   2.664   9.292  11.160  2.2399  1.4749  0.4411
 1002MOL0     H38273   2.944   9.748  10.517  0.0393  0.9179  1.9729
 1002MOL0     H38274   3.129   9.779  10.383  2.2591 -0.7513 -2.1029
 1002MOL0     H38275   3.112   9.854  10.229  4.0992  0.4410  1.2493
 1002MOL0     H38276   3.164   9.939  10.386 -0.7446  0.8113  0.1433
 1003MOL0     O38277   4.990   3.688  11.257  0.1696 -0.3714 -0.0766
 1003MOL0     C38278   4.943   3.652  11.364 -0.1962 -0.2692 -0.3207
 1003MOL0     O38279   5.017   3.609  11.474 -0.8186 -0.1586  0.1244
 1003MOL0     C38280   5.152   3.626  11.462 -0.2676  0.4615  0.6782
 1003MOL0     C38281   5.217   3.756  11.479 -0.0955 -0.0610 -1.0678
 1003MOL0     C38282   5.356   3.775  11.479  0.5012 -0.1023 -0.0991
 1003MOL0     C38283   5.440   3.661  11.462  0.1003 -0.3417 -0.8667
 1003MOL0     O38284   5.575   3.685  11.450  0.5213 -0.3906 -0.4034
 1003MOL0     C38285   5.660   3.566  11.468  0.2326 -0.6696 -0.4220
 1003MOL0     C38286   5.803   3.608  11.514 -0.7678 -0.1549 -0.2937
 1003MOL0     C38287   5.875   3.712  11.433  0.3498  0.2095  0.7501
 1003MOL0     C38288   6.034   3.709  11.467  0.6145  1.2980 -0.2391
 1003MOL0     C38289   6.088   3.845  11.429  0.1156  0.2387 -0.4709
 1003MOL0     C38290   6.238   3.850  11.436  0.3222 -0.3737 -0.1616
 1003MOL0     C38291   6.278   3.985  11.393 -0.4108 -0.3541  0.9781
 1003MOL0     C38292   6.423   4.023  11.438 -1.0734  0.4979  0.1745
 1003MOL0     N38293   6.452   4.164  11.423 -0.1520  0.3132 -0.5572
 1003MOL0     C38294   6.461   4.234  11.297 -0.2523 -0.2422 -0.4816
 1003MOL0     C38295   6.476   4.368  11.332 -0.2578 -0.6705 -0.5933
 1003MOL0     C38296   6.503   4.480  11.234 -0.3047  0.5772  0.4574
 1003MOL0     C38297   6.388   4.584  11.242  0.3605 -0.1127 -0.4918
 1003MOL0     C38298   6.380   4.658  11.381 -0.8178 -0.0423 -0.0425
 1003MOL0     C38299   6.255   4.752  11.393 -0.0712 -1.0823  0.7360
 1003MOL0     O38300   6.252   4.834  11.275 -0.9019  0.1009  0.1774
 1003MOL0     C38301   6.326   4.953  11.285 -0.2894  0.1672 -0.3577
 1003MOL0     C38302   6.273   5.060  11.357  1.4199  0.0962 -0.4368
 1003MOL0     C38303   6.338   5.184  11.374  0.2038 -0.6297 -0.0540
 1003MOL0     C38304   6.259   5.291  11.457  0.0504 -0.1083 -0.4973
 1003MOL0     C38305   6.468   5.200  11.329  0.8566  0.6775 -0.3979
 1003MOL0     C38306   6.546   5.323  11.360  0.2366 -1.1550 -0.2532
 1003MOL0     O38307   6.479   5.437  11.395  0.0598  0.2514  1.0245
 1003MOL0     C38308   6.543   5.539  11.447 -0.6302  0.1630  0.8678
 1003MOL0     C38309   6.665   5.548  11.520 -0.1793 -0.2529 -0.4316
 1003MOL0     C38310   6.714   5.663  11.571 -0.2326 -0.9361  0.3378
 1003MOL0     C38311   6.645   5.788  11.562 -0.7514 -0.2390  0.8204
 1003MOL0     O38312   6.692   5.912  11.588 -0.0493  0.1943 -0.5025
 1003MOL0     C38313   6.789   5.933  11.697 -0.2988 -1.0817  0.0600
 1003MOL0     C38314   6.798   6.090  11.719 -0.0799 -0.2959 -0.4052
 1003MOL0     C38315   6.865   6.137  11.842 -0.5485 -1.3150 -0.2873
 1003MOL0     C38316   6.838   6.285  11.887 -0.6254  0.3057 -0.2051
 1003MOL0     C38317   6.920   6.399  11.825 -0.5024  0.1048  0.3755
 1003MOL0     C38318   7.047   6.431  11.897 -0.4045  0.6626  0.9273
 1003MOL0     C38319   7.145   6.490  11.801 -0.4359 -0.3193  0.1126
 1003MOL0     C38320   7.280   6.527  11.875 -0.0316  0.9192 -0.2385
 1003MOL0    Cl38321   7.312   6.422  12.019 -0.3758 -0.2140  0.2588
 1003MOL0     C38322   6.524   5.781  11.491  0.5353  0.3114  0.1260
 1003MOL0     C38323   6.478   5.659  11.433 -0.8584 -0.2340  0.2382
 1003MOL0     O38324   6.666   5.316  11.347  0.1407 -0.1595  0.0730
 1003MOL0     C38325   6.524   5.090  11.256 -0.4074 -0.4432 -0.2048
 1003MOL0     C38326   6.451   4.973  11.235 -0.3690 -0.1285  1.0653
 1003MOL0     N38327   6.486   4.374  11.476  0.5524 -0.0339 -0.7328
 1003MOL0     N38328   6.475   4.251  11.520 -0.0883  0.0545 -0.0193
 1003MOL0     C38329   5.381   3.533  11.452  0.1515  0.1596 -0.6740
 1003MOL0     C38330   5.242   3.516  11.452  0.1714 -0.1351  0.0036
 1003MOL0     C38331   4.804   3.609  11.378 -0.3566 -0.4342  0.1108
 1003MOL0     C38332   4.759   3.545  11.491 -0.0264  0.4947 -0.2955
 1003MOL0     C38333   4.631   3.500  11.511 -0.1685 -0.4328 -0.3034
 1003MOL0     C38334   4.533   3.514  11.417 -0.0881  0.2187  0.4395
 1003MOL0     O38335   4.417   3.454  11.441 -0.0524 -0.1953 -0.5678
 1003MOL0     C38336   4.331   3.418  11.333  0.0404 -0.7824 -0.6239
 1003MOL0     C38337   4.201   3.358  11.388 -0.0890 -0.3114 -0.3034
 1003MOL0     C38338   4.236   3.229  11.472  0.2627 -0.5878  0.8057
 1003MOL0     C38339   4.104   3.159  11.525 -0.5598  0.2259 -0.0820
 1003MOL0     C38340   4.124   3.035  11.600 -0.1409 -0.3439 -0.0804
 1003MOL0     C38341   4.135   2.947  11.682 -0.2761  0.2308  0.9937
 1003MOL0     C38342   4.573   3.572  11.293 -0.3943 -0.5041 -0.0329
 1003MOL0     C38343   4.703   3.627  11.281 -0.4144 -0.4521  0.1720
 1003MOL0     C38344   4.731   3.704  11.153 -0.1370 -1.0084  0.9800
 1003MOL0     H38345   5.153   3.844  11.484 -2.2872 -1.6127 -0.4714
 1003MOL0     H38346   5.402   3.871  11.503  1.2872 -0.8151  1.3385
 1003MOL0     H38347   5.647   3.490  11.390 -3.0380 -0.3822 -0.3196
 1003MOL0     H38348   5.623   3.520  11.560  1.1445  0.7371  0.6827
 1003MOL0     H38349   5.816   3.640  11.618  6.5213  0.0339 -0.7599
 1003MOL0     H38350   5.865   3.519  11.507 -1.3163 -0.4400 -1.9658
 1003MOL0     H38351   5.855   3.704  11.326  0.2907  1.4540  0.6454
 1003MOL0     H38352   5.829   3.810  11.449 -1.1275 -0.1745 -0.9458
 1003MOL0     H38353   6.049   3.690  11.574  0.2522 -2.3140 -0.7126
 1003MOL0     H38354   6.082   3.627  11.413 -2.8551 -0.4427 -0.9791
 1003MOL0     H38355   6.034   3.904  11.502 -0.1122 -2.5086  1.7431
 1003MOL0     H38356   6.051   3.870  11.329 -0.0996  1.3649 -0.1158
 1003MOL0     H38357   6.265   3.829  11.540  2.8938  1.0380 -0.4644
 1003MOL0     H38358   6.282   3.784  11.362  1.4137 -0.2157  0.3270
 1003MOL0     H38359   6.211   4.058  11.439 -0.5014  0.2866 -0.1383
 1003MOL0     H38360   6.260   3.981  11.285  0.0721  1.0490  0.8189
 1003MOL0     H38361   6.443   3.992  11.541  0.7146 -1.8848 -0.7866
 1003MOL0     H38362   6.491   3.962  11.377 -3.2024  0.6552 -2.5401
 1003MOL0     H38363   6.448   4.194  11.197 -0.0192  0.3672 -0.7605
 1003MOL0     H38364   6.504   4.449  11.130 -0.3574 -0.6052  0.7978
 1003MOL0     H38365   6.603   4.523  11.248  0.6010 -1.8941  2.3481
 1003MOL0     H38366   6.395   4.660  11.163 -3.5641  1.1370  0.1372
 1003MOL0     H38367   6.293   4.530  11.242 -0.1895  0.7601  1.6886
 1003MOL0     H38368   6.371   4.588  11.464 -1.2276  1.5222  1.2686
 1003MOL0     H38369   6.474   4.713  11.394 -1.6320  1.2762  0.4850
 1003MOL0     H38370   6.156   4.705  11.388 -1.6327  2.0043 -4.4795
 1003MOL0     H38371   6.264   4.817  11.481 -0.3756 -0.6522  0.4518
 1003MOL0     H38372   6.182   5.034  11.409 -0.0208  2.5415 -1.5586
 1003MOL0     H38373   6.162   5.251  11.490  0.7441  0.3249  2.2805
 1003MOL0     H38374   6.231   5.374  11.391 -2.4100 -0.3178  0.1684
 1003MOL0     H38375   6.312   5.332  11.543  3.0352 -0.3440 -2.0996
 1003MOL0     H38376   6.725   5.458  11.526  2.1965  1.2360 -0.3008
 1003MOL0     H38377   6.799   5.660  11.639 -0.8786  1.3123  1.3510
 1003MOL0     H38378   6.753   5.890  11.791 -1.0056 -0.6829 -0.0242
 1003MOL0     H38379   6.888   5.898  11.665 -0.4357  1.6289 -4.1950
 1003MOL0     H38380   6.862   6.118  11.635 -1.0749  3.4070 -0.0725
 1003MOL0     H38381   6.695   6.126  11.708  0.0223 -0.1246 -0.8037
 1003MOL0     H38382   6.971   6.127  11.821 -0.5610 -2.8797  0.2227
 1003MOL0     H38383   6.838   6.066  11.921  2.4400 -1.5357  0.6503
 1003MOL0     H38384   6.863   6.283  11.994  1.9619  1.9042 -0.6915
 1003MOL0     H38385   6.734   6.313  11.869 -1.1666 -2.6516 -2.3696
 1003MOL0     H38386   6.938   6.390  11.718  0.5348 -2.0007  0.6800
 1003MOL0     H38387   6.861   6.490  11.836  1.8720  1.4633  4.0664
 1003MOL0     H38388   7.079   6.332  11.930 -0.3100  0.8327  1.3594
 1003MOL0     H38389   7.029   6.498  11.982  3.5587 -0.3614  2.8171
 1003MOL0     H38390   7.102   6.577  11.751 -3.8788 -1.5379  0.6805
 1003MOL0     H38391   7.167   6.419  11.721  2.0704 -1.3873  1.6085
 1003MOL0     H38392   7.262   6.631  11.906 -2.8768  0.5993 -0.5450
 1003MOL0     H38393   7.359   6.520  11.800 -1.5647  1.1570 -1.9733
 1003MOL0     H38394   6.472   5.876  11.480  0.3094  0.1485 -0.2767
 1003MOL0     H38395   6.389   5.665  11.372 -0.3628  0.3085 -0.4424
 1003MOL0     H38396   6.617   5.114  11.205 -1.3518  1.2950 -1.2162
 1003MOL0     H38397   6.504   4.897  11.178 -1.7962 -1.6341  1.6574
 1003MOL0     H38398   5.444   3.447  11.435  0.3145 -0.6817  3.2039
 1003MOL0     H38399   5.201   3.417  11.433  0.4931 -0.4213  0.7719
 1003MOL0     H38400   4.829   3.517  11.569 -3.0044 -0.1766  2.3122
 1003MOL0     H38401   4.613   3.429  11.591 -3.0593  0.0454 -0.4406
 1003MOL0     H38402   4.308   3.505  11.271 -0.4947 -0.7334 -0.3664
 1003MOL0     H38403   4.373   3.339  11.270  0.8365 -0.2916 -0.7125
 1003MOL0     H38404   4.133   3.342  11.304 -0.0802 -0.5702 -0.2616
 1003MOL0     H38405   4.161   3.434  11.456  0.9359 -0.4761  0.5046
 1003MOL0     H38406   4.295   3.157  11.413  0.2748 -0.1817  0.3174
 1003MOL0     H38407   4.292   3.265  11.558  3.2513  0.1311 -1.2649
 1003MOL0     H38408   4.041   3.141  11.437 -1.5032  1.6367  0.2704
 1003MOL0     H38409   4.048   3.225  11.592 -1.6706 -2.1472  1.4429
 1003MOL0     H38410   4.144   2.861  11.746 -1.0951 -0.3910  0.2968
 1003MOL0     H38411   4.493   3.582  11.221  0.6935 -0.7355 -1.3093
 1003MOL0     H38412   4.819   3.680  11.092  1.4952 -2.1074  3.6010
 1003MOL0     H38413   4.649   3.707  11.081  0.6203 -1.5453  0.0751
 1003MOL0     H38414   4.750   3.806  11.188  1.1166 -1.1881  0.8877
 1004MOL0     O38415   1.135   3.486   7.004 -0.6335  0.3833 -0.1498
 1004MOL0     C38416   1.111   3.606   7.012 -0.4446 -0.0809  0.3184
 1004MOL0     O38417   1.202   3.705   7.080  0.1827  0.7254  0.4664
 1004MOL0     C38418   1.316   3.675   7.152 -0.1313 -0.8019  0.9470
 1004MOL0     C38419   1.407   3.785   7.138  0.4142 -0.2590 -0.6049
 1004MOL0     C38420   1.533   3.773   7.198  0.7004 -0.0419  0.3790
 1004MOL0     C38421   1.565   3.668   7.279 -0.0581  0.0850  0.0854
 1004MOL0     O38422   1.685   3.666   7.353 -0.5582  1.0687 -0.7996
 1004MOL0     C38423   1.783   3.767   7.332 -0.5488 -0.8547 -0.1719
 1004MOL0     C38424   1.893   3.769   7.445  0.1700  0.3028  0.3640
 1004MOL0     C38425   1.978   3.639   7.427  0.2088 -0.6854 -1.3926
 1004MOL0     C38426   2.105   3.629   7.524 -0.7672 -0.5780  0.5905
 1004MOL0     C38427   2.180   3.497   7.495 -0.3514 -0.4565 -0.5030
 1004MOL0     C38428   2.268   3.516   7.366  0.1936 -0.4075 -0.2003
 1004MOL0     C38429   2.367   3.397   7.355  1.0910  0.1287  0.2082
 1004MOL0     C38430   2.408   3.403   7.207 -0.3072  0.7721  0.0194
 1004MOL0     N38431   2.490   3.524   7.176 -0.1376 -0.5831 -0.0212
 1004MOL0     C38432   2.565   3.592   7.267  0.8793  0.2598  1.2811
 1004MOL0     C38433   2.595   3.707   7.206 -0.4715  0.0011 -0.5440
 1004MOL0     C38434   2.647   3.821   7.281  0.6949 -0.6078  0.4329
 1004MOL0     C38435   2.550   3.947   7.273 -0.6660  0.9219  0.4304
 1004MOL0     C38436   2.575   4.057   7.375 -0.0641  0.4083 -0.2637
 1004MOL0     C38437   2.686   4.145   7.329  0.1534 -0.1662  0.3312
 1004MOL0     O38438   2.753   4.204   7.450  0.2415 -0.2130  0.3379
 1004MOL0     C38439   2.856   4.286   7.423  0.5108 -0.1552 -1.3075
 1004MOL0     C38440   2.926   4.323   7.536 -0.0390 -0.0906 -0.8016
 1004MOL0     C38441   3.045   4.399   7.536  0.1815 -0.3393 -1.0823
 1004MOL0     C38442   3.121   4.417   7.670  0.0177 -0.7364  0.2144
 1004MOL0     C38443   3.082   4.461   7.413  0.6223 -0.1333 -0.3402
 1004MOL0     C38444   3.204   4.540   7.387  0.3447  0.0187  0.1662
 1004MOL0     O38445   3.302   4.542   7.484  0.6596 -0.0030 -0.6115
 1004MOL0     C38446   3.427   4.584   7.451  0.4794  0.2465 -1.2190
 1004MOL0     C38447   3.482   4.688   7.527 -0.2487 -0.1012  0.4889
 1004MOL0     C38448   3.609   4.737   7.496 -0.4910  0.5221  0.1842
 1004MOL0     C38449   3.683   4.684   7.389 -0.3131  0.1583 -0.8440
 1004MOL0     O38450   3.801   4.728   7.347  0.2578 -0.4716 -0.3670
 1004MOL0     C38451   3.836   4.704   7.207 -0.7876 -0.3662  0.4216
 1004MOL0     C38452   3.959   4.791   7.171 -0.0352  0.4618 -0.0493
 1004MOL0     C38453   4.012   4.732   7.038 -0.0185 -0.4941  0.7118
 1004MOL0     C38454   4.121   4.633   7.047 -0.7448  0.0469  0.0232
 1004MOL0     C38455   4.188   4.627   6.909  0.1661  0.9755  0.4918
 1004MOL0     C38456   4.301   4.533   6.910 -0.5073  0.3064  0.1338
 1004MOL0     C38457   4.357   4.500   6.776  0.5639  1.3176 -0.0907
 1004MOL0     C38458   4.287   4.388   6.701 -0.4052 -0.0815 -0.4282
 1004MOL0    Cl38459   4.348   4.369   6.528  0.6045  0.0408 -0.1161
 1004MOL0     C38460   3.630   4.572   7.328  0.0601  0.5750  0.0937
 1004MOL0     C38461   3.506   4.519   7.355  0.7571 -0.4736  0.1456
 1004MOL0     O38462   3.203   4.612   7.294 -0.5435 -1.0455  0.3014
 1004MOL0     C38463   2.993   4.440   7.304  0.1829  0.4765  0.1229
 1004MOL0     C38464   2.889   4.351   7.310 -0.6003  0.1276  0.8694
 1004MOL0     N38465   2.547   3.706   7.075  0.7259 -1.2252  0.5074
 1004MOL0     N38466   2.485   3.593   7.058 -0.3259 -0.3639  0.1293
 1004MOL0     C38467   1.474   3.563   7.285  0.0002 -0.1571 -0.4539
 1004MOL0     C38468   1.350   3.563   7.223  0.0563 -0.0003 -0.1323
 1004MOL0     C38469   0.989   3.662   6.948 -0.3799  0.1809  1.2471
 1004MOL0     C38470   0.879   3.572   6.952  0.5935 -0.2111  0.4615
 1004MOL0     C38471   0.761   3.599   6.887 -0.2730  0.8929 -0.0573
 1004MOL0     C38472   0.744   3.720   6.822 -0.3286 -0.1487  0.2324
 1004MOL0     O38473   0.627   3.730   6.754  0.0230 -0.6837 -0.2679
 1004MOL0     C38474   0.611   3.842   6.675  1.0008 -0.3262  0.4587
 1004MOL0     C38475   0.470   3.822   6.609 -0.5322 -0.6456  0.5590
 1004MOL0     C38476   0.357   3.798   6.711  0.6508  0.7962 -0.5184
 1004MOL0     C38477   0.216   3.794   6.667 -0.1488  0.4200 -0.3277
 1004MOL0     C38478   0.185   3.693   6.557  0.2889 -0.2675  0.0767
 1004MOL0     C38479   0.163   3.613   6.470  0.0651  1.3301  0.5509
 1004MOL0     C38480   0.850   3.812   6.830 -0.2269  0.2738  0.3259
 1004MOL0     C38481   0.973   3.787   6.887  0.9532  0.8098 -0.2482
 1004MOL0     C38482   1.081   3.902   6.871 -0.2487 -0.0024 -0.3308
 1004MOL0     H38483   1.371   3.876   7.091 -2.6854 -1.4033 -0.6678
 1004MOL0     H38484   1.598   3.859   7.192  0.2131  0.2301 -3.4355
 1004MOL0     H38485   1.739   3.867   7.331 -1.1496 -0.9996  2.5944
 1004MOL0     H38486   1.840   3.743   7.242  1.6947  0.8550  0.6882
 1004MOL0     H38487   1.956   3.857   7.428  0.9847 -0.3710 -0.1865
 1004MOL0     H38488   1.843   3.782   7.541  4.7061 -0.9796  3.2131
 1004MOL0     H38489   1.914   3.554   7.454  1.9211 -0.9512  2.5269
 1004MOL0     H38490   2.016   3.641   7.324  3.3101 -3.1174 -0.4806
 1004MOL0     H38491   2.159   3.720   7.497 -3.1681  1.0027  0.8810
 1004MOL0     H38492   2.071   3.628   7.627 -1.1539 -0.0693  0.4674
 1004MOL0     H38493   2.109   3.414   7.492 -2.1624  0.9566  0.6100
 1004MOL0     H38494   2.245   3.487   7.583 -2.1897  1.4536  1.1823
 1004MOL0     H38495   2.197   3.519   7.282 -0.7087 -0.8019  0.5212
 1004MOL0     H38496   2.318   3.613   7.373 -0.3415 -0.2014  1.1273
 1004MOL0     H38497   2.313   3.302   7.362 -3.0629  2.1932 -0.8008
 1004MOL0     H38498   2.450   3.407   7.425  1.9898  0.6608 -0.8964
 1004MOL0     H38499   2.483   3.325   7.192 -0.3561  0.9149 -1.0649
 1004MOL0     H38500   2.323   3.386   7.140  0.6334 -0.4533 -0.9083
 1004MOL0     H38501   2.568   3.583   7.375  0.1996 -1.2492  1.2065
 1004MOL0     H38502   2.737   3.861   7.235  1.1781 -0.4500  1.4867
 1004MOL0     H38503   2.673   3.802   7.385 -0.7011 -1.2204  0.6978
 1004MOL0     H38504   2.540   3.982   7.170 -4.0524 -1.6112 -0.2667
 1004MOL0     H38505   2.454   3.906   7.306  0.1486 -1.0544  0.5075
 1004MOL0     H38506   2.485   4.113   7.402  0.8380  1.3404  0.9609
 1004MOL0     H38507   2.605   4.013   7.471  0.0411  1.1814  0.0709
 1004MOL0     H38508   2.767   4.088   7.282  0.6801  0.5396  0.3794
 1004MOL0     H38509   2.647   4.216   7.256 -2.3518 -3.0836 -1.4247
 1004MOL0     H38510   2.897   4.284   7.633  2.9364 -1.5278 -0.3728
 1004MOL0     H38511   3.204   4.346   7.672  1.1609  0.4757  3.8192
 1004MOL0     H38512   3.055   4.398   7.755 -1.4140  1.1947 -0.3900
 1004MOL0     H38513   3.160   4.519   7.678 -1.8371  0.1099 -0.8187
 1004MOL0     H38514   3.413   4.734   7.596 -1.7995  0.4301 -1.3218
 1004MOL0     H38515   3.657   4.818   7.550 -2.6091  1.2743  1.0319
 1004MOL0     H38516   3.856   4.598   7.189  1.1168  0.0825 -0.3471
 1004MOL0     H38517   3.750   4.725   7.144 -2.4430 -0.8772  2.3900
 1004MOL0     H38518   3.927   4.895   7.167 -0.3560  0.4075  0.8654
 1004MOL0     H38519   4.033   4.792   7.252  1.9241 -2.3796 -1.6494
 1004MOL0     H38520   4.051   4.802   6.964  2.4329 -2.6526 -0.1989
 1004MOL0     H38521   3.928   4.696   6.980  0.9481 -1.7830  0.0516
 1004MOL0     H38522   4.099   4.531   7.078  1.9902  0.1457  2.7999
 1004MOL0     H38523   4.191   4.662   7.126  2.1522 -0.6850 -2.1057
 1004MOL0     H38524   4.110   4.577   6.852  1.2514 -0.1289 -0.0755
 1004MOL0     H38525   4.218   4.726   6.872  0.3612  1.2223  1.2811
 1004MOL0     H38526   4.275   4.436   6.955 -0.8780  0.2064 -0.2814
 1004MOL0     H38527   4.384   4.577   6.965  1.5302 -3.0076 -0.0392
 1004MOL0     H38528   4.460   4.465   6.772 -0.1800 -1.0724  0.2813
 1004MOL0     H38529   4.348   4.588   6.711  0.5878  1.3928  0.0072
 1004MOL0     H38530   4.182   4.416   6.690 -0.9142 -2.1110 -1.3394
 1004MOL0     H38531   4.291   4.288   6.746  2.0573  1.2395  2.6849
 1004MOL0     H38532   3.677   4.532   7.238  2.6269  3.6357 -0.0968
 1004MOL0     H38533   3.471   4.431   7.301  2.5956 -2.4233  1.9021
 1004MOL0     H38534   3.012   4.494   7.212  3.3658  1.9423  1.4845
 1004MOL0     H38535   2.835   4.340   7.216  0.0372  3.6043 -0.0396
 1004MOL0     H38536   1.495   3.477   7.347 -1.6278  0.4458  1.0185
 1004MOL0     H38537   1.284   3.477   7.224 -0.3004  0.2571 -0.8486
 1004MOL0     H38538   0.895   3.474   6.994  1.7911 -1.1782 -2.0655
 1004MOL0     H38539   0.679   3.530   6.902 -1.6635  1.9463 -2.3059
 1004MOL0     H38540   0.595   3.939   6.721 -2.3283 -1.2022  1.3974
 1004MOL0     H38541   0.687   3.843   6.596  0.3201 -5.9774 -0.6765
 1004MOL0     H38542   0.469   3.753   6.524  0.2778  1.2341 -1.0671
 1004MOL0     H38543   0.457   3.919   6.559  0.6835 -0.2527  0.9884
 1004MOL0     H38544   0.371   3.710   6.774 -1.0799  0.7460 -0.1359
 1004MOL0     H38545   0.354   3.892   6.767 -1.7770  1.0465 -0.9186
 1004MOL0     H38546   0.184   3.892   6.631 -0.6496  0.2329 -0.3973
 1004MOL0     H38547   0.153   3.775   6.754 -0.5934 -1.1251 -0.9441
 1004MOL0     H38548   0.150   3.539   6.393  1.1844  1.2485  0.4199
 1004MOL0     H38549   0.842   3.908   6.780 -0.0871 -0.5011 -1.2510
 1004MOL0     H38550   1.038   3.986   6.816 -1.2240 -1.8095 -2.4869
 1004MOL0     H38551   1.120   3.940   6.966 -2.6876  2.6341 -0.2527
 1004MOL0     H38552   1.167   3.861   6.818 -0.5055 -2.6607  1.1015
 1005MOL0     O38553   5.074   7.611   7.785 -0.4891  0.6849  0.0908
 1005MOL0     C38554   5.083   7.703   7.866  0.3018  0.3824 -0.2255
 1005MOL0     O38555   5.186   7.728   7.944 -0.0775  0.0022 -0.4895
 1005MOL0     C38556   5.300   7.651   7.951  0.9932  0.0109  0.5791
 1005MOL0     C38557   5.309   7.516   7.919 -0.0710 -0.1702 -0.0059
 1005MOL0     C38558   5.426   7.447   7.939 -0.0517 -0.0364 -0.4795
 1005MOL0     C38559   5.546   7.512   7.983  0.7843  0.3231 -0.4604
 1005MOL0     O38560   5.662   7.435   8.002  0.5099  0.6194  0.4479
 1005MOL0     C38561   5.793   7.494   8.028  0.0408 -0.4913 -0.4484
 1005MOL0     C38562   5.907   7.384   8.017 -0.3309 -0.1258 -0.0827
 1005MOL0     C38563   5.904   7.299   7.889  0.2940  0.9819 -0.0472
 1005MOL0     C38564   5.989   7.172   7.887 -0.5975  0.1216 -0.0012
 1005MOL0     C38565   5.993   7.117   7.742 -0.3197 -0.1308  0.2040
 1005MOL0     C38566   6.069   6.984   7.741  0.7288 -0.7211  0.4126
 1005MOL0     C38567   6.041   6.899   7.618  0.1615  0.5897 -0.0204
 1005MOL0     C38568   6.098   6.960   7.485 -0.0018 -0.2883  0.6723
 1005MOL0     N38569   6.219   6.888   7.449  0.0561 -0.4539 -0.7510
 1005MOL0     C38570   6.225   6.754   7.420 -0.0741 -0.0851 -0.3030
 1005MOL0     C38571   6.354   6.734   7.393  0.2222 -0.7608  0.2981
 1005MOL0     C38572   6.424   6.604   7.372 -0.0097 -0.1684 -0.2791
 1005MOL0     C38573   6.525   6.597   7.269 -0.9962 -0.3630  0.8312
 1005MOL0     C38574   6.662   6.544   7.303 -0.0950 -0.2807 -0.4574
 1005MOL0     C38575   6.740   6.603   7.425 -0.5006  0.4589  0.2314
 1005MOL0     O38576   6.872   6.538   7.406  0.2016  0.3419 -0.0277
 1005MOL0     C38577   6.983   6.606   7.453  0.9746 -0.2178 -0.1092
 1005MOL0     C38578   6.983   6.674   7.574  0.1254  0.5760  0.3269
 1005MOL0     C38579   7.097   6.749   7.606 -0.9196  0.4718  0.0083
 1005MOL0     C38580   7.085   6.839   7.725 -0.4557 -0.7514 -0.1021
 1005MOL0     C38581   7.213   6.747   7.516  0.6620 -0.6595 -0.8004
 1005MOL0     C38582   7.351   6.813   7.550 -0.1326  0.2167 -0.6387
 1005MOL0     O38583   7.466   6.749   7.512 -0.4886  0.6236  0.1311
 1005MOL0     C38584   7.584   6.776   7.564  0.6677  0.5124 -0.6703
 1005MOL0     C38585   7.687   6.833   7.486 -0.2393 -0.6844 -0.6058
 1005MOL0     C38586   7.820   6.835   7.521 -0.1626 -0.4397  0.1593
 1005MOL0     C38587   7.861   6.784   7.651 -0.2808 -0.8143 -0.1313
 1005MOL0     O38588   7.991   6.777   7.708  0.2510  0.1735  0.2711
 1005MOL0     C38589   8.088   6.846   7.629  0.6845 -0.4905 -0.6100
 1005MOL0     C38590   8.221   6.811   7.694  0.0093 -0.3842  0.6699
 1005MOL0     C38591   8.342   6.876   7.619 -0.2856  0.1538  0.9972
 1005MOL0     C38592   8.476   6.808   7.670  0.4655  0.8539  0.3065
 1005MOL0     C38593   8.595   6.868   7.595  0.3007  0.3063 -0.6859
 1005MOL0     C38594   8.709   6.907   7.692  0.0036 -0.8250 -0.3508
 1005MOL0     C38595   8.815   6.969   7.608 -0.2868 -0.0089  0.5211
 1005MOL0     C38596   8.944   6.979   7.691  0.3713  0.1915 -0.1258
 1005MOL0    Cl38597   8.913   7.067   7.853  0.0559 -0.1253  0.5972
 1005MOL0     C38598   7.754   6.737   7.738  0.1878  0.3683  0.5531
 1005MOL0     C38599   7.618   6.736   7.691  0.8613 -0.5002  0.3651
 1005MOL0     O38600   7.354   6.927   7.599 -0.1847  0.7703 -0.5959
 1005MOL0     C38601   7.217   6.673   7.402  0.7975  0.5131  0.5199
 1005MOL0     C38602   7.099   6.595   7.375 -0.1286 -0.4757  0.4360
 1005MOL0     N38603   6.430   6.850   7.421  0.7875  0.3469 -0.0498
 1005MOL0     N38604   6.345   6.945   7.460  0.0229  0.1244 -0.0412
 1005MOL0     C38605   5.535   7.651   8.000 -0.4725 -0.7349  0.4204
 1005MOL0     C38606   5.416   7.724   7.996 -0.6058  0.1099 -0.9765
 1005MOL0     C38607   4.959   7.785   7.885  1.2155  0.2927  0.0745
 1005MOL0     C38608   4.974   7.897   7.974 -0.6238  0.0999  0.3767
 1005MOL0     C38609   4.869   7.986   8.001 -0.6276 -0.2628  0.4229
 1005MOL0     C38610   4.743   7.963   7.939 -0.7424  0.1736  0.6136
 1005MOL0     O38611   4.641   8.043   7.983  0.0468 -0.3786  0.2245
 1005MOL0     C38612   4.511   8.019   7.925 -0.0005  0.0926  0.2800
 1005MOL0     C38613   4.412   8.112   7.993 -0.1882  0.0270  0.4008
 1005MOL0     C38614   4.423   8.096   8.146  0.1657 -0.2291 -0.3930
 1005MOL0     C38615   4.311   8.163   8.226 -0.5260 -0.0350  0.3438
 1005MOL0     C38616   4.319   8.136   8.367  0.3882 -0.0031  1.1103
 1005MOL0     C38617   4.311   8.113   8.486  0.5184 -0.7839  0.3029
 1005MOL0     C38618   4.731   7.866   7.841  0.2812  0.5270  0.7331
 1005MOL0     C38619   4.836   7.777   7.814  0.0125  0.2149 -0.2304
 1005MOL0     C38620   4.809   7.675   7.708  0.1435  0.6785 -0.5010
 1005MOL0     H38621   5.223   7.459   7.885 -1.9008  0.1500  3.6017
 1005MOL0     H38622   5.431   7.342   7.910 -0.6791  0.0986 -1.1206
 1005MOL0     H38623   5.796   7.546   8.124  0.3186 -0.0385 -0.6970
 1005MOL0     H38624   5.817   7.572   7.955  0.4062  0.7578  0.9538
 1005MOL0     H38625   6.005   7.431   8.028 -0.9546  1.9595 -2.3572
 1005MOL0     H38626   5.878   7.315   8.097 -1.1813  0.2242 -0.0660
 1005MOL0     H38627   5.801   7.272   7.865 -0.1119  1.4830  1.1069
 1005MOL0     H38628   5.947   7.367   7.815 -1.8170 -0.5154 -2.8386
 1005MOL0     H38629   6.083   7.194   7.938 -0.7099 -1.2631  0.8868
 1005MOL0     H38630   5.948   7.091   7.950 -0.5948  0.3688  0.3230
 1005MOL0     H38631   6.047   7.190   7.681 -3.6737  1.8927 -0.5881
 1005MOL0     H38632   5.894   7.098   7.699  0.5183 -3.6956 -0.5045
 1005MOL0     H38633   6.177   7.001   7.738  0.8148 -1.2410  0.4371
 1005MOL0     H38634   6.046   6.925   7.830  0.5040  0.1767  0.9706
 1005MOL0     H38635   5.933   6.882   7.611 -0.0332  1.3901  0.9005
 1005MOL0     H38636   6.099   6.809   7.640 -0.0403  0.3430 -0.4739
 1005MOL0     H38637   6.033   6.955   7.397 -2.6116 -0.9523  2.5080
 1005MOL0     H38638   6.125   7.065   7.503 -1.8626  0.0786  1.6816
 1005MOL0     H38639   6.141   6.685   7.418  1.0725 -1.5114 -0.9661
 1005MOL0     H38640   6.350   6.531   7.337  0.5050 -0.9203  0.1738
 1005MOL0     H38641   6.467   6.571   7.467 -1.8959 -1.2089  0.2765
 1005MOL0     H38642   6.491   6.547   7.178  0.8677  0.4694 -0.4092
 1005MOL0     H38643   6.542   6.697   7.227 -0.3354 -0.8084 -0.0038
 1005MOL0     H38644   6.650   6.440   7.335  3.3025 -0.1912  1.5261
 1005MOL0     H38645   6.728   6.553   7.216  0.1313  1.0761 -0.1595
 1005MOL0     H38646   6.758   6.711   7.421  3.5073  0.2640  4.1725
 1005MOL0     H38647   6.685   6.570   7.514  0.9778  1.3225  1.5316
 1005MOL0     H38648   6.894   6.671   7.636 -0.5571 -0.0037 -0.6541
 1005MOL0     H38649   6.994   6.834   7.785 -0.1602 -0.1878  0.4135
 1005MOL0     H38650   7.093   6.940   7.682 -2.0336 -0.8964 -0.7847
 1005MOL0     H38651   7.174   6.826   7.788 -0.5567 -0.3527  0.1252
 1005MOL0     H38652   7.657   6.867   7.387  0.7142  3.2848  0.2846
 1005MOL0     H38653   7.891   6.874   7.448 -0.7898 -1.7873 -1.2259
 1005MOL0     H38654   8.081   6.829   7.522  2.8033  2.1466 -1.3075
 1005MOL0     H38655   8.081   6.953   7.654  1.8236 -0.6680  0.6288
 1005MOL0     H38656   8.204   6.833   7.800  0.3798 -2.0166  1.0968
 1005MOL0     H38657   8.243   6.704   7.690  3.2574  0.1904 -0.0652
 1005MOL0     H38658   8.331   6.983   7.642  1.8675  0.2442  1.8074
 1005MOL0     H38659   8.334   6.863   7.511  1.0742 -0.7768  0.9902
 1005MOL0     H38660   8.481   6.700   7.653 -0.3477  0.7674  0.5771
 1005MOL0     H38661   8.484   6.831   7.777  2.9839  4.0186 -0.3932
 1005MOL0     H38662   8.615   6.791   7.520 -4.2879 -1.0564 -0.7862
 1005MOL0     H38663   8.557   6.963   7.557  2.8079  1.9476  0.6468
 1005MOL0     H38664   8.754   6.825   7.749  0.2355 -1.2161 -1.0800
 1005MOL0     H38665   8.682   6.984   7.764 -1.0713 -3.0586  1.8030
 1005MOL0     H38666   8.779   7.069   7.584 -1.3915 -0.1967  1.3242
 1005MOL0     H38667   8.829   6.910   7.517 -1.3440  0.2565  0.1672
 1005MOL0     H38668   9.021   7.036   7.638  0.6208 -1.6314 -1.8287
 1005MOL0     H38669   8.979   6.882   7.727  0.8707  0.8645  1.3020
 1005MOL0     H38670   7.787   6.708   7.837  0.1655  0.6448  0.6427
 1005MOL0     H38671   7.536   6.681   7.738 -0.4607  1.6088  0.6245
 1005MOL0     H38672   7.301   6.665   7.334  0.0553  0.6846 -0.4576
 1005MOL0     H38673   7.097   6.534   7.285 -0.8436 -1.3329  1.0148
 1005MOL0     H38674   5.629   7.696   8.030  1.1771 -2.0409 -2.4124
 1005MOL0     H38675   5.422   7.826   8.031  2.7796 -0.9040  2.0905
 1005MOL0     H38676   5.069   7.929   8.015  0.1547  0.2696 -1.4390
 1005MOL0     H38677   4.891   8.070   8.066  0.0762 -0.2126  0.1224
 1005MOL0     H38678   4.519   8.032   7.816  0.3659  3.2382  0.5815
 1005MOL0     H38679   4.472   7.919   7.945 -2.2292  1.3844  3.3528
 1005MOL0     H38680   4.309   8.088   7.963  0.9347 -0.8639 -3.2624
 1005MOL0     H38681   4.429   8.216   7.964 -4.5986  1.9360  3.4698
 1005MOL0     H38682   4.426   7.991   8.173 -0.3796 -0.2658 -0.4529
 1005MOL0     H38683   4.518   8.126   8.191 -0.2209 -0.3661  0.5355
 1005MOL0     H38684   4.214   8.128   8.189 -0.4110  2.4676 -2.8066
 1005MOL0     H38685   4.324   8.269   8.200  1.3280 -0.0408  1.1066
 1005MOL0     H38686   4.293   8.070   8.583 -1.0405 -2.5273 -0.6963
 1005MOL0     H38687   4.641   7.857   7.782 -0.1094 -1.9515  1.5682
 1005MOL0     H38688   4.884   7.683   7.629  0.8994  0.2506  0.1670
 1005MOL0     H38689   4.810   7.570   7.740 -0.7941  0.6022 -0.6820
 1005MOL0     H38690   4.713   7.698   7.660 -0.5490  1.4586  1.1792
 1006MOL0     O38691   1.944   3.326   0.546  0.0171  0.1867  0.0663
 1006MOL0     C38692   1.929   3.294   0.662 -0.6662 -0.1009 -0.0237
 1006MOL0     O38693   2.033   3.284   0.756 -0.5567  0.2150 -0.2979
 1006MOL0     C38694   2.159   3.346   0.742 -0.4954  0.3299 -0.3964
 1006MOL0     C38695   2.271   3.269   0.713 -0.6421 -0.6751 -0.2709
 1006MOL0     C38696   2.400   3.323   0.700  0.0158  0.9743 -0.1241
 1006MOL0     C38697   2.410   3.464   0.710 -0.7266  0.0866 -0.3258
 1006MOL0     O38698   2.529   3.524   0.695 -0.4229  0.2466  1.0665
 1006MOL0     C38699   2.647   3.457   0.743 -0.1791  0.1687  0.8265
 1006MOL0     C38700   2.758   3.563   0.766 -0.1757 -0.1019  0.4509
 1006MOL0     C38701   2.903   3.513   0.795 -0.7454 -0.2707  0.3244
 1006MOL0     C38702   2.927   3.455   0.937 -0.6217 -0.6595  0.4926
 1006MOL0     C38703   3.068   3.409   0.952 -0.2752  1.2585  0.5817
 1006MOL0     C38704   3.085   3.339   1.097 -0.8719  0.1100  1.0918
 1006MOL0     C38705   3.222   3.262   1.105  0.3887  0.1867 -0.5541
 1006MOL0     C38706   3.322   3.343   1.187  0.2833 -0.0748  0.9186
 1006MOL0     N38707   3.431   3.257   1.228  0.6399  0.8288 -0.2531
 1006MOL0     C38708   3.431   3.197   1.351 -0.4886 -0.8698 -0.2274
 1006MOL0     C38709   3.538   3.114   1.344  0.1107 -0.3051  0.5627
 1006MOL0     C38710   3.600   3.036   1.455 -0.5884  0.3144  0.4229
 1006MOL0     C38711   3.594   2.891   1.404  0.0164  0.1315  0.4426
 1006MOL0     C38712   3.674   2.793   1.493  0.0370 -0.8275  1.0358
 1006MOL0     C38713   3.819   2.811   1.486 -0.5912  0.0577 -0.1561
 1006MOL0     O38714   3.882   2.735   1.586 -0.3480  0.5868 -0.8371
 1006MOL0     C38715   4.007   2.676   1.560  0.9494  0.6509  0.3767
 1006MOL0     C38716   4.127   2.734   1.608  0.1819  0.1595 -0.1708
 1006MOL0     C38717   4.248   2.676   1.589  0.8588  0.6572  0.0749
 1006MOL0     C38718   4.373   2.758   1.626 -0.4953 -0.0078  0.5173
 1006MOL0     C38719   4.254   2.549   1.529 -0.6442  0.9254  0.9350
 1006MOL0     C38720   4.384   2.473   1.521  0.3535  0.4522 -0.1836
 1006MOL0     O38721   4.376   2.375   1.432 -0.3449  0.4157  0.5060
 1006MOL0     C38722   4.492   2.303   1.396  0.4442 -1.1301 -0.5855
 1006MOL0     C38723   4.560   2.324   1.278  0.1214  0.8804 -0.3854
 1006MOL0     C38724   4.680   2.255   1.248  0.4741  0.9425 -0.0925
 1006MOL0     C38725   4.731   2.163   1.342 -0.0336 -0.1154 -0.3412
 1006MOL0     O38726   4.835   2.081   1.328  0.0566 -0.8498  0.0018
 1006MOL0     C38727   4.907   2.072   1.210 -0.6904  0.6148  0.4077
 1006MOL0     C38728   4.985   1.941   1.200  0.2316 -0.2343  0.0143
 1006MOL0     C38729   5.048   1.926   1.058 -0.1428  0.2989  0.3398
 1006MOL0     C38730   5.095   1.787   1.038 -0.3921  0.1711  0.0042
 1006MOL0     C38731   5.151   1.779   0.890  0.5719 -0.8282 -0.7300
 1006MOL0     C38732   5.256   1.675   0.863  0.7810 -0.1929 -0.0541
 1006MOL0     C38733   5.383   1.726   0.926  0.0386 -0.0683  0.7116
 1006MOL0     C38734   5.486   1.624   0.981  0.4530 -0.4660 -0.0470
 1006MOL0    Cl38735   5.500   1.521   0.837 -0.0946 -0.0606  0.0079
 1006MOL0     C38736   4.668   2.148   1.466 -0.7626 -0.5125  0.2591
 1006MOL0     C38737   4.553   2.218   1.491  1.0297  0.5825  0.0094
 1006MOL0     O38738   4.478   2.495   1.598 -0.0332  0.0035 -0.6436
 1006MOL0     C38739   4.139   2.475   1.505 -0.2719  0.1110  0.3892
 1006MOL0     C38740   4.017   2.547   1.527 -0.0391  0.3374  0.3709
 1006MOL0     N38741   3.592   3.122   1.217  0.5410  0.1887  0.1221
 1006MOL0     N38742   3.538   3.225   1.152  0.8595  0.1429 -0.1324
 1006MOL0     C38743   2.297   3.542   0.736 -0.6916 -0.6169  0.9247
 1006MOL0     C38744   2.172   3.482   0.759 -0.6421  0.5856  0.1750
 1006MOL0     C38745   1.797   3.257   0.701 -0.7612 -0.7592  0.9211
 1006MOL0     C38746   1.761   3.263   0.836 -0.3194  0.1218  0.2549
 1006MOL0     C38747   1.639   3.219   0.883  0.3205 -0.0339  0.9579
 1006MOL0     C38748   1.541   3.166   0.793 -0.2635  0.0258 -0.0576
 1006MOL0     O38749   1.420   3.115   0.829  0.7854 -0.1324  0.3366
 1006MOL0     C38750   1.362   3.156   0.952  0.5250 -0.1466  0.2002
 1006MOL0     C38751   1.215   3.116   0.959  0.1261  0.0307 -0.0091
 1006MOL0     C38752   1.127   3.179   0.858 -0.2230  1.0328 -0.2174
 1006MOL0     C38753   1.124   3.328   0.871 -0.1785 -0.1436  0.1365
 1006MOL0     C38754   1.208   3.403   0.776  0.0272  0.1938 -0.0568
 1006MOL0     C38755   1.269   3.465   0.686 -0.5686 -1.4047  0.4240
 1006MOL0     C38756   1.580   3.162   0.653 -0.7739 -0.5378 -0.8642
 1006MOL0     C38757   1.705   3.204   0.609  0.9740 -0.1560 -0.0133
 1006MOL0     C38758   1.729   3.180   0.467  0.1585 -0.0149 -0.4644
 1006MOL0     H38759   2.248   3.165   0.691 -0.4755 -0.3406 -2.1398
 1006MOL0     H38760   2.488   3.263   0.682 -2.5145 -2.5916 -1.8501
 1006MOL0     H38761   2.684   3.402   0.656  0.3945  3.1022 -0.9492
 1006MOL0     H38762   2.627   3.395   0.831 -1.2366  1.2891  1.4023
 1006MOL0     H38763   2.753   3.627   0.678 -2.3266  0.3907  0.8906
 1006MOL0     H38764   2.721   3.624   0.849 -1.7120  0.0264 -0.2891
 1006MOL0     H38765   2.920   3.438   0.717 -3.7720 -1.3796  0.5964
 1006MOL0     H38766   2.963   3.600   0.771 -1.7477  0.8563  1.7351
 1006MOL0     H38767   2.899   3.530   1.012 -2.4379  0.1511 -0.9206
 1006MOL0     H38768   2.863   3.369   0.959  0.5341 -1.1931  1.9322
 1006MOL0     H38769   3.142   3.489   0.941  2.1606 -1.1401 -1.7237
 1006MOL0     H38770   3.087   3.342   0.868 -3.1227  1.9400 -0.7470
 1006MOL0     H38771   3.086   3.416   1.174  2.1034  0.7480  0.5383
 1006MOL0     H38772   3.016   3.256   1.111  0.4222 -1.3161 -0.4659
 1006MOL0     H38773   3.261   3.230   1.008 -0.8969 -1.2764 -0.6281
 1006MOL0     H38774   3.207   3.173   1.166  0.6664  0.9486  0.6721
 1006MOL0     H38775   3.353   3.429   1.127 -0.5182 -0.1210  0.4146
 1006MOL0     H38776   3.276   3.392   1.274 -1.1750 -0.1369  0.2191
 1006MOL0     H38777   3.358   3.220   1.428 -1.0333  1.5348 -1.3578
 1006MOL0     H38778   3.533   3.034   1.542 -1.8238 -0.4077 -0.5022
 1006MOL0     H38779   3.706   3.056   1.474 -0.0813 -1.4491 -0.3396
 1006MOL0     H38780   3.489   2.863   1.417  0.1589  0.4505  2.7229
 1006MOL0     H38781   3.623   2.879   1.299 -0.0789 -0.4602  0.4805
 1006MOL0     H38782   3.632   2.787   1.594 -2.1971 -0.8200  0.1580
 1006MOL0     H38783   3.659   2.697   1.444  0.7243  1.6993 -4.9447
 1006MOL0     H38784   3.856   2.788   1.386 -0.9216 -0.8149 -0.0802
 1006MOL0     H38785   3.851   2.911   1.518  2.3720 -0.8507  0.0453
 1006MOL0     H38786   4.108   2.826   1.663 -1.5471 -0.5751  0.5413
 1006MOL0     H38787   4.459   2.756   1.560  1.5080  1.2237  2.9100
 1006MOL0     H38788   4.418   2.719   1.718  3.5790  1.2902 -0.6966
 1006MOL0     H38789   4.343   2.862   1.645 -1.8857  0.0242 -1.5294
 1006MOL0     H38790   4.532   2.406   1.212  0.5235  0.5905 -0.9207
 1006MOL0     H38791   4.721   2.262   1.148 -0.9814 -1.7145 -0.9574
 1006MOL0     H38792   4.839   2.065   1.125 -1.1734 -0.6741  0.8802
 1006MOL0     H38793   4.970   2.161   1.208 -2.6642  2.0683  0.1821
 1006MOL0     H38794   5.064   1.940   1.276  1.3952  2.0806 -1.0562
 1006MOL0     H38795   4.922   1.853   1.213 -0.3580  0.1260 -0.3813
 1006MOL0     H38796   5.138   1.988   1.045  1.0492 -1.6646 -1.5350
 1006MOL0     H38797   4.976   1.956   0.982  0.5646 -1.1514 -0.9489
 1006MOL0     H38798   5.015   1.713   1.045  1.2425 -1.8466 -1.2856
 1006MOL0     H38799   5.172   1.769   1.114 -0.9567  2.8368  1.3017
 1006MOL0     H38800   5.060   1.763   0.831  0.4150 -1.9371 -0.2167
 1006MOL0     H38801   5.187   1.878   0.860 -3.3867  0.1423 -2.9389
 1006MOL0     H38802   5.275   1.649   0.759  0.8082  0.5377 -0.2378
 1006MOL0     H38803   5.219   1.585   0.913 -3.1448  1.8265  1.1394
 1006MOL0     H38804   5.364   1.799   1.005 -0.4739  0.9508 -0.3156
 1006MOL0     H38805   5.439   1.787   0.854 -0.7450  1.5394  1.4062
 1006MOL0     H38806   5.453   1.577   1.074  4.6120  0.4845  2.1714
 1006MOL0     H38807   5.581   1.675   0.999  0.9211 -1.7085  1.1897
 1006MOL0     H38808   4.708   2.081   1.541  1.8145  2.7534  2.0948
 1006MOL0     H38809   4.506   2.200   1.587  0.2680 -1.6274 -0.7012
 1006MOL0     H38810   4.137   2.373   1.469  1.5156  0.0067  0.4733
 1006MOL0     H38811   3.934   2.479   1.509 -0.7444  1.0363  0.9414
 1006MOL0     H38812   2.307   3.650   0.744  1.4396 -0.6953  0.1606
 1006MOL0     H38813   2.083   3.542   0.775 -1.0554  0.8688 -2.7278
 1006MOL0     H38814   1.836   3.291   0.910 -1.1034  0.7121  0.8422
 1006MOL0     H38815   1.620   3.229   0.990  1.6914 -3.4726  1.6559
 1006MOL0     H38816   1.412   3.107   1.036 -1.2500 -2.1574  0.1575
 1006MOL0     H38817   1.372   3.264   0.970 -0.3940  0.1160 -0.7566
 1006MOL0     H38818   1.179   3.133   1.061  0.7764 -1.8187  0.5802
 1006MOL0     H38819   1.206   3.010   0.934 -0.5318 -0.2419  1.3137
 1006MOL0     H38820   1.158   3.151   0.757 -1.1565 -2.3945  0.3290
 1006MOL0     H38821   1.027   3.137   0.867 -0.2385  1.2143  0.4860
 1006MOL0     H38822   1.147   3.351   0.976 -1.6693 -3.9870  1.4872
 1006MOL0     H38823   1.018   3.350   0.857  0.5391  3.3452 -0.5640
 1006MOL0     H38824   1.321   3.525   0.614  2.1351 -0.9535  2.5714
 1006MOL0     H38825   1.513   3.116   0.581  0.8756 -1.0429 -2.1419
 1006MOL0     H38826   1.718   3.280   0.422 -0.8991  0.2125  0.2493
 1006MOL0     H38827   1.824   3.128   0.459  1.0160  1.5738 -1.0173
 1006MOL0     H38828   1.655   3.112   0.424  0.6114 -0.6249 -0.2788
 1007MOL0     O38829   6.056   7.834   4.094 -0.1860 -0.1356  0.0910
 1007MOL0     C38830   6.060   7.933   4.159 -0.1692 -0.0201 -0.2060
 1007MOL0     O38831   6.175   8.007   4.192  0.1443  0.0468 -0.0794
 1007MOL0     C38832   6.299   7.958   4.164  0.1969  0.1321 -0.2749
 1007MOL0     C38833   6.378   8.061   4.107 -0.1828  0.1002 -0.1020
 1007MOL0     C38834   6.510   8.028   4.089 -0.4008 -0.3055  0.7098
 1007MOL0     C38835   6.571   7.901   4.107 -0.9421 -0.6842 -0.6467
 1007MOL0     O38836   6.709   7.891   4.096  0.7190 -0.2451 -0.0122
 1007MOL0     C38837   6.779   7.771   4.144  0.1362 -1.0770  0.2547
 1007MOL0     C38838   6.791   7.675   4.025  0.1259  0.2319 -0.0084
 1007MOL0     C38839   6.903   7.566   4.040  0.1432  1.0459  0.0368
 1007MOL0     C38840   7.048   7.614   4.053  0.5006  0.7053  0.1011
 1007MOL0     C38841   7.142   7.491   4.050  0.1309 -0.4269 -0.2007
 1007MOL0     C38842   7.260   7.506   4.159 -0.4109  0.0403 -0.1791
 1007MOL0     C38843   7.355   7.389   4.160  0.4963  0.1065 -0.4493
 1007MOL0     C38844   7.437   7.378   4.027 -0.1551  0.1505 -0.1485
 1007MOL0     N38845   7.571   7.430   4.046 -0.0786  1.3379 -0.0945
 1007MOL0     C38846   7.601   7.566   4.049 -0.5924  0.2309 -0.6795
 1007MOL0     C38847   7.731   7.570   4.068 -0.1877  0.6616  0.2337
 1007MOL0     C38848   7.816   7.698   4.094  0.5270 -1.5006  0.5842
 1007MOL0     C38849   7.857   7.777   3.970  0.4638 -0.0513  0.1641
 1007MOL0     C38850   7.995   7.714   3.919  0.0895  0.3508  0.0330
 1007MOL0     C38851   8.065   7.784   3.796 -0.2275  0.4415  0.6028
 1007MOL0     O38852   8.012   7.740   3.670 -0.1326 -0.3898 -0.4644
 1007MOL0     C38853   8.090   7.755   3.563  0.2034  0.4976  0.1828
 1007MOL0     C38854   8.076   7.654   3.461  0.0917 -0.3608  0.4727
 1007MOL0     C38855   8.154   7.667   3.340  0.3463  0.2682  0.3059
 1007MOL0     C38856   8.126   7.558   3.239 -0.3355  0.2302 -0.3446
 1007MOL0     C38857   8.252   7.770   3.333  0.2329  1.0628 -0.4175
 1007MOL0     C38858   8.356   7.778   3.225  0.2131  0.3737 -0.2430
 1007MOL0     O38859   8.404   7.900   3.204  0.0837  0.1169  0.3529
 1007MOL0     C38860   8.507   7.914   3.120  0.1826  0.2998  0.2288
 1007MOL0     C38861   8.639   7.899   3.169  0.5307 -0.0911 -0.0987
 1007MOL0     C38862   8.751   7.912   3.080  0.0170  0.0720 -0.5868
 1007MOL0     C38863   8.737   7.964   2.955  0.2453  0.7857  0.2930
 1007MOL0     O38864   8.856   7.992   2.887  0.2855  0.1879 -0.2426
 1007MOL0     C38865   8.867   8.126   2.844 -0.1143  0.0259 -0.4320
 1007MOL0     C38866   8.969   8.197   2.930  0.4403  0.6236  0.1993
 1007MOL0     C38867   8.949   8.187   3.082  0.1502 -0.5888 -0.2424
 1007MOL0     C38868   9.031   8.294   3.156 -0.4934 -0.3498 -0.4319
 1007MOL0     C38869   8.981   8.317   3.300 -0.6909  0.5172  0.0161
 1007MOL0     C38870   9.025   8.439   3.364 -0.0320 -0.5954  0.1667
 1007MOL0     C38871   8.949   8.463   3.491 -0.2776  0.3108 -0.2049
 1007MOL0     C38872   8.978   8.599   3.548  0.3247 -0.1327 -0.1311
 1007MOL0    Cl38873   8.892   8.715   3.434  0.0348  0.2491 -0.1428
 1007MOL0     C38874   8.612   7.971   2.902 -0.0919 -1.0146 -0.2139
 1007MOL0     C38875   8.499   7.950   2.985 -0.1510  0.1090 -1.0078
 1007MOL0     O38876   8.380   7.680   3.153 -0.5229 -0.8499  0.4307
 1007MOL0     C38877   8.258   7.857   3.444  0.0605 -1.0602  0.1272
 1007MOL0     C38878   8.173   7.859   3.550 -0.9176  0.4306  0.7288
 1007MOL0     N38879   7.775   7.436   4.074 -0.8687  0.4869  0.0278
 1007MOL0     N38880   7.679   7.352   4.058  0.0846  0.1917 -0.4308
 1007MOL0     C38881   6.489   7.797   4.145 -0.6016 -0.6481  0.8841
 1007MOL0     C38882   6.349   7.826   4.179 -0.0137  0.2435  0.8550
 1007MOL0     C38883   5.929   7.984   4.208 -0.4502 -1.1711  0.0291
 1007MOL0     C38884   5.823   7.891   4.214  0.0204 -0.3738 -0.1084
 1007MOL0     C38885   5.694   7.931   4.239 -0.5761  0.5045 -0.0472
 1007MOL0     C38886   5.659   8.066   4.263  0.3976  0.3667 -0.6568
 1007MOL0     O38887   5.533   8.107   4.285  0.2118  0.7554 -0.1160
 1007MOL0     C38888   5.513   8.237   4.335  0.2545  0.1758 -1.2045
 1007MOL0     C38889   5.564   8.240   4.482 -0.0996 -0.2306  0.5225
 1007MOL0     C38890   5.540   8.371   4.555  0.1780 -0.6655  0.1974
 1007MOL0     C38891   5.630   8.483   4.523 -0.0731  0.0217  1.4666
 1007MOL0     C38892   5.773   8.448   4.537  0.3060  0.5130 -0.0648
 1007MOL0     C38893   5.893   8.422   4.538 -0.1645 -0.1850 -0.0845
 1007MOL0     C38894   5.762   8.158   4.263  0.0803  0.5442 -0.9601
 1007MOL0     C38895   5.896   8.122   4.236 -0.6289  1.1995  0.7617
 1007MOL0     C38896   5.996   8.233   4.205  0.4741  0.0449 -0.3207
 1007MOL0     H38897   6.337   8.155   4.073 -0.4919  0.1638  0.4343
 1007MOL0     H38898   6.580   8.098   4.044  1.1384 -1.5111  1.1110
 1007MOL0     H38899   6.737   7.718   4.229  2.5773 -1.7155  1.1583
 1007MOL0     H38900   6.884   7.794   4.163  0.0426  1.8876 -2.1155
 1007MOL0     H38901   6.698   7.625   3.997 -0.5485  0.7806  1.1487
 1007MOL0     H38902   6.829   7.755   3.960 -1.7340  2.1533  1.1202
 1007MOL0     H38903   6.877   7.493   4.117  3.7510 -3.1585 -2.2306
 1007MOL0     H38904   6.895   7.515   3.943 -2.0632 -1.6252  1.4990
 1007MOL0     H38905   7.074   7.695   3.983 -0.5824 -0.9170 -2.3216
 1007MOL0     H38906   7.052   7.651   4.156  0.2054  1.2048 -0.0623
 1007MOL0     H38907   7.169   7.477   3.945 -0.6610 -3.8004 -0.0530
 1007MOL0     H38908   7.085   7.401   4.073 -0.0142 -0.7669 -1.7912
 1007MOL0     H38909   7.323   7.592   4.136 -1.2436  1.3699  2.1476
 1007MOL0     H38910   7.213   7.523   4.256  0.8850 -1.0451  0.6757
 1007MOL0     H38911   7.304   7.293   4.176  2.5222 -0.7607  1.3086
 1007MOL0     H38912   7.427   7.386   4.242 -0.5342  0.3241  0.4807
 1007MOL0     H38913   7.456   7.279   3.984 -1.9070 -0.0627 -0.5123
 1007MOL0     H38914   7.400   7.444   3.947  0.1633 -0.8361 -1.1287
 1007MOL0     H38915   7.532   7.649   4.038 -1.7239 -0.9388 -3.1480
 1007MOL0     H38916   7.897   7.678   4.166  0.9437  0.4424  0.7096
 1007MOL0     H38917   7.743   7.763   4.142 -0.0455 -2.3406  0.8757
 1007MOL0     H38918   7.778   7.757   3.897  0.8370 -0.2076 -0.1998
 1007MOL0     H38919   7.872   7.882   3.998  0.2527  0.3838 -1.3023
 1007MOL0     H38920   8.062   7.736   4.002 -0.8489  2.9119  0.1894
 1007MOL0     H38921   7.973   7.608   3.900  0.1845  0.2009  0.7370
 1007MOL0     H38922   8.075   7.893   3.801 -2.0241  0.5797  2.6797
 1007MOL0     H38923   8.166   7.742   3.795 -0.3026  0.2021  1.5977
 1007MOL0     H38924   8.012   7.568   3.476 -2.5892  1.3046 -0.7472
 1007MOL0     H38925   8.033   7.500   3.247 -0.0978 -0.3760 -1.6948
 1007MOL0     H38926   8.202   7.480   3.245 -0.0725  0.5845  1.4741
 1007MOL0     H38927   8.118   7.607   3.141 -2.6390  2.0048  0.6135
 1007MOL0     H38928   8.641   7.877   3.276 -2.0042 -0.7773 -0.1265
 1007MOL0     H38929   8.852   7.888   3.113  0.4435 -1.0379 -2.5308
 1007MOL0     H38930   8.902   8.125   2.740  1.9891  0.8133  0.2151
 1007MOL0     H38931   8.773   8.182   2.844 -0.6692 -0.8838  0.2902
 1007MOL0     H38932   9.069   8.163   2.903  0.7699  1.2151  0.6394
 1007MOL0     H38933   8.954   8.302   2.901 -2.6502  0.2754  0.1910
 1007MOL0     H38934   8.988   8.094   3.124 -1.0123 -1.1354 -0.3240
 1007MOL0     H38935   8.843   8.186   3.110 -0.4783 -0.9588 -2.4459
 1007MOL0     H38936   9.023   8.384   3.096 -0.3797 -1.0716 -1.5516
 1007MOL0     H38937   9.132   8.253   3.153  1.0179  3.0658 -0.7721
 1007MOL0     H38938   8.871   8.317   3.305 -0.7044  1.5306  0.0806
 1007MOL0     H38939   9.012   8.234   3.363  0.3299 -0.1581 -1.3312
 1007MOL0     H38940   8.993   8.520   3.298 -0.6782 -1.3817 -0.5209
 1007MOL0     H38941   9.133   8.440   3.380  0.1160  0.6469 -0.7254
 1007MOL0     H38942   8.986   8.383   3.556  0.5930  0.3206 -0.6619
 1007MOL0     H38943   8.841   8.454   3.480 -1.0466 -0.8608  5.3553
 1007MOL0     H38944   9.082   8.631   3.539 -0.9373  4.6787 -0.6303
 1007MOL0     H38945   8.943   8.603   3.652 -3.5159 -1.1991 -1.2276
 1007MOL0     H38946   8.596   8.001   2.799 -0.4327  0.2578  0.1928
 1007MOL0     H38947   8.398   7.960   2.945  0.3600 -0.6869 -2.5653
 1007MOL0     H38948   8.344   7.922   3.452 -1.4523  0.8485  2.0049
 1007MOL0     H38949   8.169   7.940   3.622 -1.3228  0.5174  0.6152
 1007MOL0     H38950   6.526   7.695   4.154 -0.8037 -0.8050  0.0604
 1007MOL0     H38951   6.293   7.740   4.213  0.1757 -0.3437 -0.2768
 1007MOL0     H38952   5.856   7.789   4.194 -0.6873 -0.7317  0.4804
 1007MOL0     H38953   5.618   7.853   4.234  1.8756 -2.0890  0.3397
 1007MOL0     H38954   5.557   8.329   4.295  2.3636  0.4587  1.4848
 1007MOL0     H38955   5.405   8.252   4.336  0.1304 -0.6305 -1.8935
 1007MOL0     H38956   5.669   8.207   4.482  0.3257  1.0599  0.7695
 1007MOL0     H38957   5.511   8.167   4.544  1.0778  0.6513  2.6972
 1007MOL0     H38958   5.435   8.398   4.540  0.4359  2.5734  3.0635
 1007MOL0     H38959   5.543   8.359   4.664 -1.6498 -0.9708  0.2493
 1007MOL0     H38960   5.611   8.573   4.582  0.6106  2.2889 -1.4908
 1007MOL0     H38961   5.618   8.510   4.417  4.9220 -3.7085 -0.4198
 1007MOL0     H38962   5.998   8.409   4.524 -0.2986 -0.6480 -0.7294
 1007MOL0     H38963   5.754   8.264   4.284 -1.8315  0.4563 -1.0832
 1007MOL0     H38964   6.028   8.225   4.101  0.1705 -2.4013 -0.2932
 1007MOL0     H38965   5.959   8.333   4.232  3.0270  0.6676  1.1894
 1007MOL0     H38966   6.072   8.211   4.280  0.2277  2.4696  0.7353
 1008MOL0     O38967   0.727   8.039   5.332  0.0261 -0.2717 -0.0876
 1008MOL0     C38968   0.725   8.140   5.250 -0.6965  0.3388  0.0330
 1008MOL0     O38969   0.828   8.228   5.226  0.5331  0.3541  0.0703
 1008MOL0     C38970   0.958   8.214   5.275  0.3340  0.3935  0.2670
 1008MOL0     C38971   0.981   8.172   5.408  0.4119  0.0106  0.5065
 1008MOL0     C38972   1.111   8.158   5.462  0.5219 -0.3461  0.5701
 1008MOL0     C38973   1.219   8.178   5.382 -0.1497 -0.2111 -0.0969
 1008MOL0     O38974   1.350   8.145   5.418 -0.1988  0.3851  0.2227
 1008MOL0     C38975   1.366   8.028   5.501 -0.3772  1.1080 -0.8917
 1008MOL0     C38976   1.437   8.061   5.634  0.6761  0.1755  0.1653
 1008MOL0     C38977   1.466   7.931   5.707 -0.3971 -0.8665  0.8151
 1008MOL0     C38978   1.531   7.961   5.844 -0.0713  0.5220  0.4010
 1008MOL0     C38979   1.559   7.831   5.917 -0.5806  0.3417 -0.5565
 1008MOL0     C38980   1.592   7.864   6.062  0.6302 -0.7825  0.3254
 1008MOL0     C38981   1.464   7.891   6.150 -0.1000 -0.6261  0.8962
 1008MOL0     C38982   1.451   8.035   6.199 -0.3720 -0.2076  0.2386
 1008MOL0     N38983   1.551   8.075   6.301  0.4479  0.2724  0.5980
 1008MOL0     C38984   1.654   8.161   6.280  0.0871 -0.2166 -0.8563
 1008MOL0     C38985   1.713   8.169   6.408 -0.4850  0.0872 -0.5171
 1008MOL0     C38986   1.842   8.236   6.425  0.4781  0.1445 -0.1848
 1008MOL0     C38987   1.956   8.164   6.515  0.7610 -1.0769  0.3110
 1008MOL0     C38988   1.982   8.013   6.494  0.5178 -0.7745 -0.7183
 1008MOL0     C38989   2.017   7.978   6.347 -1.3489 -0.5736 -0.1918
 1008MOL0     O38990   2.131   8.049   6.299  0.3745 -0.6018 -0.2203
 1008MOL0     C38991   2.244   7.974   6.320 -0.0790  0.5353  0.3050
 1008MOL0     C38992   2.274   7.872   6.223  0.0123  0.0217 -0.5562
 1008MOL0     C38993   2.397   7.806   6.226  0.6900  0.1895 -0.3668
 1008MOL0     C38994   2.417   7.698   6.126  0.0552  0.1063  0.3060
 1008MOL0     C38995   2.491   7.833   6.332  0.0245 -0.0636  0.4330
 1008MOL0     C38996   2.630   7.759   6.343 -0.5890 -0.2962  0.5933
 1008MOL0     O38997   2.711   7.812   6.439 -0.2671 -0.5903 -0.1481
 1008MOL0     C38998   2.838   7.772   6.469  0.6053  0.5608 -0.6883
 1008MOL0     C38999   2.898   7.865   6.551 -0.8960 -0.3420 -0.7394
 1008MOL0     C39000   3.030   7.837   6.604 -0.0650 -0.0755 -1.2103
 1008MOL0     C39001   3.085   7.709   6.588  0.3620  0.1143  0.0829
 1008MOL0     O39002   3.200   7.679   6.657 -0.6241  0.3691 -0.2820
 1008MOL0     C39003   3.226   7.543   6.684  0.5332  0.8797 -0.0323
 1008MOL0     C39004   3.303   7.540   6.817  0.2580  0.7270  0.8357
 1008MOL0     C39005   3.446   7.602   6.817  0.4954 -0.5448 -0.6198
 1008MOL0     C39006   3.528   7.571   6.943  0.5432  0.2076 -0.0105
 1008MOL0     C39007   3.649   7.666   6.951  0.8279  0.6975 -0.2241
 1008MOL0     C39008   3.756   7.624   7.054  0.3397  0.0866 -0.1988
 1008MOL0     C39009   3.873   7.721   7.059 -0.1780 -0.3214 -0.2731
 1008MOL0     C39010   3.832   7.871   7.100 -0.4737  0.5446  0.1880
 1008MOL0    Cl39011   3.732   7.881   7.241  0.2176  0.2119 -0.0259
 1008MOL0     C39012   3.018   7.616   6.507 -0.3293  0.0533 -0.5826
 1008MOL0     C39013   2.898   7.647   6.444 -0.4200 -0.5754  0.2802
 1008MOL0     O39014   2.663   7.666   6.268  0.2956  0.2002  0.0726
 1008MOL0     C39015   2.459   7.941   6.419 -0.2228 -0.3158 -0.2877
 1008MOL0     C39016   2.338   8.007   6.410 -0.4495  0.1162  0.3806
 1008MOL0     N39017   1.636   8.100   6.497  0.5774  0.0405  0.0415
 1008MOL0     N39018   1.535   8.045   6.431 -0.2958  0.5787 -0.2719
 1008MOL0     C39019   1.198   8.234   5.261  0.3791  0.3929  0.4413
 1008MOL0     C39020   1.073   8.260   5.208  0.0889 -0.1479 -0.4054
 1008MOL0     C39021   0.612   8.162   5.157 -0.4498  0.8098  0.3205
 1008MOL0     C39022   0.631   8.234   5.039 -0.6866 -0.2948 -0.0807
 1008MOL0     C39023   0.526   8.255   4.952 -0.4945  0.5279  0.7606
 1008MOL0     C39024   0.395   8.217   4.988 -0.0960  0.1079  0.1599
 1008MOL0     O39025   0.298   8.221   4.893 -0.1636  0.4617 -0.5839
 1008MOL0     C39026   0.210   8.333   4.901 -0.0417  0.0486  0.0299
 1008MOL0     C39027   0.064   8.280   4.918  0.4624 -0.3144  0.5870
 1008MOL0     C39028  -0.038   8.394   4.928  0.3325 -0.0177 -0.1694
 1008MOL0     C39029  -0.182   8.351   4.898  0.5218 -0.2409  0.4212
 1008MOL0     C39030  -0.214   8.211   4.940 -0.0818  0.6744  0.6322
 1008MOL0     C39031  -0.232   8.101   4.970 -0.1887 -0.3385 -0.6209
 1008MOL0     C39032   0.374   8.163   5.117  0.5107  0.0309  0.2654
 1008MOL0     C39033   0.480   8.132   5.201 -0.5508 -0.1556  0.3874
 1008MOL0     C39034   0.447   8.076   5.337 -0.2923  0.0789  0.7301
 1008MOL0     H39035   0.890   8.144   5.459  1.1810 -1.5955  1.0606
 1008MOL0     H39036   1.123   8.126   5.565  0.8876  0.5772  0.8264
 1008MOL0     H39037   1.431   7.952   5.455 -0.3726 -0.0001  0.8698
 1008MOL0     H39038   1.276   7.979   5.540  0.9751  0.3991  1.5278
 1008MOL0     H39039   1.527   8.119   5.612  0.4571 -0.0588 -1.5072
 1008MOL0     H39040   1.374   8.125   5.697 -0.0562 -0.5828  0.2239
 1008MOL0     H39041   1.374   7.875   5.723  0.3601 -2.2552  0.4475
 1008MOL0     H39042   1.536   7.869   5.650  0.5786  1.7314 -1.0561
 1008MOL0     H39043   1.625   8.016   5.834  0.8810 -1.2411 -1.0979
 1008MOL0     H39044   1.464   8.026   5.901  0.3168  1.3671 -0.0988
 1008MOL0     H39045   1.640   7.777   5.866  0.5625  1.5391 -0.0773
 1008MOL0     H39046   1.468   7.771   5.909 -0.7558  0.4625  0.4299
 1008MOL0     H39047   1.634   7.772   6.102  1.4947 -0.0046  1.2573
 1008MOL0     H39048   1.659   7.951   6.061 -1.8420  1.2879 -1.4945
 1008MOL0     H39049   1.461   7.828   6.239 -2.1231 -1.2444  0.4370
 1008MOL0     H39050   1.376   7.872   6.087 -0.6913  1.7848  0.8756
 1008MOL0     H39051   1.431   8.108   6.120 -2.9264 -0.4341  0.5698
 1008MOL0     H39052   1.353   8.050   6.247 -0.7155 -0.3101 -0.4159
 1008MOL0     H39053   1.690   8.212   6.192  3.5575 -1.1365 -0.1089
 1008MOL0     H39054   1.825   8.340   6.454 -2.5576 -0.4178  0.3282
 1008MOL0     H39055   1.887   8.257   6.328 -1.0984  4.6370 -0.1590
 1008MOL0     H39056   2.044   8.223   6.486 -1.7617  2.7806 -0.1327
 1008MOL0     H39057   1.927   8.195   6.616 -0.9565  0.6405 -0.6524
 1008MOL0     H39058   2.057   7.976   6.565  1.6783 -1.8649 -2.4556
 1008MOL0     H39059   1.887   7.964   6.518 -1.8654  2.6790 -2.2371
 1008MOL0     H39060   2.028   7.870   6.331 -0.1229  0.0821 -6.3878
 1008MOL0     H39061   1.930   7.999   6.283 -2.2285 -0.2991  1.0521
 1008MOL0     H39062   2.199   7.855   6.146  1.0919  0.1728 -1.6799
 1008MOL0     H39063   2.411   7.596   6.166 -2.2184 -0.9500 -2.4363
 1008MOL0     H39064   2.512   7.718   6.076 -0.1383  1.0279  0.3076
 1008MOL0     H39065   2.344   7.703   6.045 -0.0845 -2.4225  0.1913
 1008MOL0     H39066   2.846   7.958   6.572 -0.5253 -0.1306 -0.7520
 1008MOL0     H39067   3.079   7.911   6.667 -0.7547 -2.2926  2.2270
 1008MOL0     H39068   3.137   7.482   6.704  0.4271  1.5653  1.7699
 1008MOL0     H39069   3.268   7.500   6.592 -1.5534 -0.5060 -0.4028
 1008MOL0     H39070   3.234   7.587   6.887 -1.9262  0.0024 -0.7079
 1008MOL0     H39071   3.302   7.435   6.844 -3.1520  0.4584  0.1128
 1008MOL0     H39072   3.443   7.712   6.815  0.5647 -0.5263 -0.0127
 1008MOL0     H39073   3.499   7.569   6.727  0.2038 -2.5483 -0.1048
 1008MOL0     H39074   3.554   7.465   6.936 -1.1700 -0.2240 -0.1563
 1008MOL0     H39075   3.466   7.573   7.033  2.1224 -3.2898  1.3596
 1008MOL0     H39076   3.705   7.677   6.857  4.0628 -2.6522  1.0539
 1008MOL0     H39077   3.608   7.764   6.974  0.7577  0.7187 -0.4338
 1008MOL0     H39078   3.793   7.523   7.038  1.8694  0.7987 -1.4665
 1008MOL0     H39079   3.712   7.623   7.154  2.8985  0.3759  1.0273
 1008MOL0     H39080   3.937   7.711   6.970  1.0627 -2.2194  0.7597
 1008MOL0     H39081   3.945   7.685   7.133  3.0909  1.5245 -2.3110
 1008MOL0     H39082   3.765   7.900   7.018 -0.0348 -1.0356 -0.7695
 1008MOL0     H39083   3.921   7.934   7.109 -0.1943  0.0766  0.7435
 1008MOL0     H39084   3.063   7.522   6.476 -0.3738 -0.6153  1.2485
 1008MOL0     H39085   2.844   7.566   6.397 -0.9187 -1.2696  1.9795
 1008MOL0     H39086   2.528   7.980   6.494  0.9635 -1.0781 -0.9456
 1008MOL0     H39087   2.307   8.097   6.463 -2.4050  0.2356 -0.8521
 1008MOL0     H39088   1.277   8.267   5.194  1.6764  0.6088  2.0101
 1008MOL0     H39089   1.049   8.302   5.111 -3.3290  1.5562  0.9974
 1008MOL0     H39090   0.730   8.270   5.013  0.6085 -3.1818  0.4400
 1008MOL0     H39091   0.531   8.289   4.849 -0.2632 -0.2472  0.5126
 1008MOL0     H39092   0.232   8.396   4.988 -2.5290 -0.1506  0.8840
 1008MOL0     H39093   0.209   8.383   4.804 -0.0394  0.3590  0.1888
 1008MOL0     H39094   0.053   8.214   5.005 -2.4717 -1.0120 -0.1883
 1008MOL0     H39095   0.033   8.218   4.833 -2.4971  1.1511  0.4848
 1008MOL0     H39096  -0.037   8.434   5.030 -1.1504 -4.2676  1.7479
 1008MOL0     H39097  -0.003   8.468   4.856  2.3283 -2.8527 -2.3323
 1008MOL0     H39098  -0.191   8.364   4.790  1.5303  0.8710  0.4464
 1008MOL0     H39099  -0.262   8.420   4.926  1.2559  0.4875  0.7755
 1008MOL0     H39100  -0.231   8.000   5.006  2.4615 -1.6961 -3.9246
 1008MOL0     H39101   0.269   8.149   5.138  0.3762 -0.6229 -0.7733
 1008MOL0     H39102   0.464   8.141   5.423 -0.9814 -1.0032  1.7290
 1008MOL0     H39103   0.340   8.051   5.344  0.2001 -2.0163  1.5604
 1008MOL0     H39104   0.502   7.981   5.347  0.4290  0.6072  2.0591
 1009MOL0     O39105   5.750   4.721   1.051  0.3361  0.6732 -0.1217
 1009MOL0     C39106   5.831   4.802   1.004  0.1651 -0.2249  0.6762
 1009MOL0     O39107   5.798   4.937   0.997 -0.3020  0.2479 -0.1733
 1009MOL0     C39108   5.666   4.965   1.006  0.8885 -0.1290 -0.3266
 1009MOL0     C39109   5.632   5.040   1.116  0.3506  0.1337  0.3650
 1009MOL0     C39110   5.499   5.075   1.144  0.4591 -0.4527  1.0567
 1009MOL0     C39111   5.398   5.028   1.057 -0.1496 -0.4271 -0.4635
 1009MOL0     O39112   5.262   5.069   1.083 -0.5639 -0.6814 -0.2233
 1009MOL0     C39113   5.158   4.966   1.112  0.2602 -0.5207  0.3538
 1009MOL0     C39114   5.118   4.979   1.262  0.0689  0.4726  0.7078
 1009MOL0     C39115   5.200   4.890   1.352 -0.5602  0.4174  0.0902
 1009MOL0     C39116   5.139   4.899   1.494 -0.3663  0.0175 -0.4382
 1009MOL0     C39117   5.209   4.792   1.576 -0.2068  0.0815 -0.1387
 1009MOL0     C39118   5.187   4.789   1.725 -0.8309 -0.2686 -0.2252
 1009MOL0     C39119   5.046   4.792   1.780 -0.6412  0.1554 -0.1608
 1009MOL0     C39120   5.005   4.928   1.835  0.2287  0.2950  0.3348
 1009MOL0     N39121   4.871   4.900   1.897 -0.9642  0.7198  0.4679
 1009MOL0     C39122   4.793   5.007   1.939  0.8290  0.2636 -0.0731
 1009MOL0     C39123   4.715   4.957   2.040  1.4043 -0.2581 -0.1210
 1009MOL0     C39124   4.629   5.039   2.125  0.3651 -0.4419  0.5698
 1009MOL0     C39125   4.492   5.073   2.061  0.4391  0.7909 -0.8760
 1009MOL0     C39126   4.435   4.957   1.970  0.2538 -0.4935 -0.4117
 1009MOL0     C39127   4.282   4.979   1.976  0.2963 -0.5700  0.1738
 1009MOL0     O39128   4.220   4.959   2.107  0.4893 -0.0750  0.0998
 1009MOL0     C39129   4.084   4.923   2.112 -0.6418  0.6104 -0.7226
 1009MOL0     C39130   3.999   4.956   2.000  0.8134 -0.3366 -0.8690
 1009MOL0     C39131   3.866   4.928   2.007 -0.1347  0.0339 -0.0610
 1009MOL0     C39132   3.782   4.989   1.894  0.0735 -0.5098  0.3359
 1009MOL0     C39133   3.816   4.857   2.124  0.3738  0.0503  0.2094
 1009MOL0     C39134   3.675   4.805   2.125  0.0468  0.3471 -0.1592
 1009MOL0     O39135   3.625   4.769   2.247 -1.0170  0.6636  0.1876
 1009MOL0     C39136   3.498   4.717   2.273  0.3003 -0.0292  0.1318
 1009MOL0     C39137   3.438   4.610   2.201  0.3400  0.3193 -0.1559
 1009MOL0     C39138   3.310   4.569   2.254 -1.1936  0.6419 -0.3892
 1009MOL0     C39139   3.244   4.627   2.358  0.3863  0.3580 -0.8159
 1009MOL0     O39140   3.126   4.578   2.408 -0.2855  0.1476 -0.6608
 1009MOL0     C39141   3.076   4.446   2.377  0.3228  0.2905 -1.1882
 1009MOL0     C39142   2.956   4.418   2.473  0.2692 -0.1215  0.5630
 1009MOL0     C39143   2.839   4.511   2.447 -0.1650  0.5108 -0.7135
 1009MOL0     C39144   2.721   4.475   2.535  0.2784 -0.6228 -0.2583
 1009MOL0     C39145   2.640   4.352   2.482  0.6656 -0.1226 -1.5288
 1009MOL0     C39146   2.543   4.331   2.599 -0.0046  1.4157 -1.4080
 1009MOL0     C39147   2.458   4.208   2.570 -0.2064  0.9042  0.6718
 1009MOL0     C39148   2.359   4.171   2.677  0.4500  0.1218 -0.3244
 1009MOL0    Cl39149   2.425   4.111   2.823 -0.0827  0.2362  0.4945
 1009MOL0     C39150   3.308   4.725   2.427  0.9510  0.2445 -0.2861
 1009MOL0     C39151   3.430   4.776   2.387  0.1508 -0.0045  0.9482
 1009MOL0     O39152   3.623   4.776   2.022 -0.6629 -0.2298  0.1978
 1009MOL0     C39153   3.903   4.835   2.230  1.1451 -0.5801  0.8355
 1009MOL0     C39154   4.032   4.871   2.229  0.6325 -0.1649 -0.2159
 1009MOL0     N39155   4.738   4.822   2.055  0.0419 -0.1158  0.2339
 1009MOL0     N39156   4.829   4.790   1.966  0.9272 -0.8272  0.1523
 1009MOL0     C39157   5.432   4.951   0.946 -0.3003 -0.8946 -0.2268
 1009MOL0     C39158   5.562   4.919   0.923 -0.6753 -0.1076 -0.6600
 1009MOL0     C39159   5.970   4.770   0.969 -0.6808 -0.2642  0.5412
 1009MOL0     C39160   6.065   4.873   0.954 -0.7525  0.9746  0.3528
 1009MOL0     C39161   6.199   4.850   0.928 -0.2884 -0.1451  0.8764
 1009MOL0     C39162   6.248   4.715   0.918 -0.1760  0.1646 -0.7396
 1009MOL0     O39163   6.382   4.687   0.908  0.7006  0.3539 -0.2552
 1009MOL0     C39164   6.430   4.549   0.918  0.0142  0.1792 -0.8679
 1009MOL0     C39165   6.429   4.469   0.795 -0.8204 -0.1362 -0.2345
 1009MOL0     C39166   6.543   4.502   0.702 -0.1382 -0.3580 -0.2156
 1009MOL0     C39167   6.632   4.385   0.667 -0.0441  0.5414 -0.7546
 1009MOL0     C39168   6.738   4.362   0.756  0.6189  0.4574 -0.0956
 1009MOL0     C39169   6.817   4.346   0.845 -0.0587 -0.2217  0.4273
 1009MOL0     C39170   6.152   4.615   0.931 -0.3159 -0.1631  0.4800
 1009MOL0     C39171   6.011   4.634   0.944 -0.5222 -0.5061 -0.1139
 1009MOL0     C39172   5.916   4.511   0.961 -0.7171  0.6578  0.3035
 1009MOL0     H39173   5.704   5.080   1.186  0.6849  3.8427 -1.8380
 1009MOL0     H39174   5.468   5.139   1.226 -0.5779  0.4621 -0.0154
 1009MOL0     H39175   5.176   4.863   1.079  0.2720 -0.3843 -0.0718
 1009MOL0     H39176   5.069   4.991   1.053  1.2998  1.5299 -0.4379
 1009MOL0     H39177   5.129   5.084   1.290  2.2207 -0.4020  3.6178
 1009MOL0     H39178   5.010   4.959   1.266  0.2234 -0.1169  2.8097
 1009MOL0     H39179   5.202   4.784   1.326 -2.2451 -0.4823  3.1180
 1009MOL0     H39180   5.303   4.924   1.340 -0.2445  0.6178  2.7953
 1009MOL0     H39181   5.163   5.000   1.530 -0.3556  0.6340 -2.0510
 1009MOL0     H39182   5.030   4.890   1.499 -0.4983  1.8268  1.2411
 1009MOL0     H39183   5.314   4.779   1.548 -0.2810  0.2154 -0.4761
 1009MOL0     H39184   5.166   4.696   1.543  0.7495 -0.7874  1.0371
 1009MOL0     H39185   5.226   4.692   1.757  0.3753 -0.3765 -1.8409
 1009MOL0     H39186   5.252   4.871   1.759  0.3626 -1.6177  0.8727
 1009MOL0     H39187   5.039   4.718   1.861 -0.7697  2.0695  1.6653
 1009MOL0     H39188   4.976   4.758   1.704 -0.6337  0.7236 -0.4243
 1009MOL0     H39189   5.082   4.960   1.906 -0.3617  0.6717  0.8091
 1009MOL0     H39190   4.990   5.002   1.756  1.4865  3.6165  2.9694
 1009MOL0     H39191   4.799   5.108   1.900 -1.5631 -0.4790 -2.7737
 1009MOL0     H39192   4.675   5.138   2.138  0.2436 -0.1912 -0.7644
 1009MOL0     H39193   4.612   4.978   2.214 -1.1635 -1.8657 -0.6347
 1009MOL0     H39194   4.437   5.108   2.149  0.1364  0.6593 -1.0110
 1009MOL0     H39195   4.495   5.153   1.987 -0.5934  0.5630 -1.1811
 1009MOL0     H39196   4.477   4.971   1.870  3.9936  1.7611  1.2136
 1009MOL0     H39197   4.457   4.859   2.012 -0.4630 -0.8258 -0.8074
 1009MOL0     H39198   4.277   5.083   1.944  1.4030  0.4803  3.1182
 1009MOL0     H39199   4.238   4.912   1.902 -0.3176 -0.7396  0.6752
 1009MOL0     H39200   4.037   5.015   1.918  1.7321  0.4985  0.1317
 1009MOL0     H39201   3.815   4.939   1.802  1.0395  2.5851 -1.1399
 1009MOL0     H39202   3.808   5.095   1.893  0.3520 -0.5387  2.0904
 1009MOL0     H39203   3.676   4.983   1.920 -0.7626  0.3061 -2.5035
 1009MOL0     H39204   3.482   4.553   2.120  0.9752  0.6903 -0.0863
 1009MOL0     H39205   3.272   4.476   2.214  1.5966 -1.4569  1.4200
 1009MOL0     H39206   3.033   4.456   2.277  0.3531  1.9276 -1.0665
 1009MOL0     H39207   3.145   4.362   2.385 -0.7707 -0.6411 -1.2593
 1009MOL0     H39208   2.927   4.313   2.463  1.8223 -0.5679  0.5418
 1009MOL0     H39209   2.996   4.424   2.574  0.5575 -0.3633  0.4649
 1009MOL0     H39210   2.806   4.513   2.343 -1.8317  1.0368 -0.2052
 1009MOL0     H39211   2.872   4.609   2.482  1.0006 -1.4571  4.8878
 1009MOL0     H39212   2.658   4.563   2.547  0.4812 -0.7127  1.7716
 1009MOL0     H39213   2.759   4.453   2.635  0.3871 -0.0979 -0.1820
 1009MOL0     H39214   2.586   4.369   2.388 -2.7419 -0.8147  0.1459
 1009MOL0     H39215   2.704   4.264   2.465  0.8374 -0.3552  0.1516
 1009MOL0     H39216   2.478   4.419   2.610 -0.7188  1.4297 -4.7533
 1009MOL0     H39217   2.597   4.309   2.692 -1.4609 -1.4650 -1.1376
 1009MOL0     H39218   2.518   4.118   2.552  0.0463  0.6954  2.4243
 1009MOL0     H39219   2.409   4.228   2.474  1.4159  0.3302 -0.3181
 1009MOL0     H39220   2.304   4.087   2.634  2.1348 -1.3581  0.3112
 1009MOL0     H39221   2.287   4.252   2.691  0.6803  0.1979  0.4651
 1009MOL0     H39222   3.254   4.769   2.511  0.3199  1.9905 -1.5539
 1009MOL0     H39223   3.475   4.855   2.446 -0.6258  0.5066  0.8643
 1009MOL0     H39224   3.873   4.784   2.321  1.1180 -0.9907  0.5999
 1009MOL0     H39225   4.095   4.850   2.315 -1.1354 -2.1261  0.6746
 1009MOL0     H39226   5.362   4.911   0.873  0.3487 -0.5292 -1.0650
 1009MOL0     H39227   5.585   4.848   0.844  1.0618 -1.8757  1.2972
 1009MOL0     H39228   6.048   4.979   0.970  4.0424  1.8920  0.8877
 1009MOL0     H39229   6.267   4.931   0.903 -0.8460 -0.5402 -2.3628
 1009MOL0     H39230   6.530   4.550   0.963  1.9486  2.8190 -4.6960
 1009MOL0     H39231   6.365   4.498   0.990 -0.1054 -2.8068 -2.8864
 1009MOL0     H39232   6.333   4.483   0.744 -2.0528  0.7923  2.1589
 1009MOL0     H39233   6.432   4.364   0.826  3.0475 -0.1695 -0.2518
 1009MOL0     H39234   6.502   4.544   0.609 -1.5151 -1.5098 -0.1545
 1009MOL0     H39235   6.593   4.588   0.748 -1.1810  1.7445 -2.7423
 1009MOL0     H39236   6.676   4.396   0.567  0.6847 -1.4693 -0.7074
 1009MOL0     H39237   6.577   4.291   0.651  0.6208  0.2287 -1.2947
 1009MOL0     H39238   6.886   4.339   0.926  1.8647 -1.1351 -1.2010
 1009MOL0     H39239   6.172   4.508   0.928 -0.9381 -0.3783  2.3754
 1009MOL0     H39240   5.868   4.505   1.059  0.9303  0.6940  1.1518
 1009MOL0     H39241   5.837   4.512   0.886 -0.6278  1.0929  0.2119
 1009MOL0     H39242   5.982   4.426   0.945  0.0935  1.3226  0.0138
 1010MOL0     O39243   1.523  10.472   9.412  0.4735  0.4694 -0.0664
 1010MOL0     C39244   1.505  10.430   9.298 -1.1838 -0.3514 -0.8032
 1010MOL0     O39245   1.611  10.392   9.227 -0.0027  0.1353  0.2051
 1010MOL0     C39246   1.741  10.390   9.269  0.4177  0.1364 -0.2562
 1010MOL0     C39247   1.807  10.513   9.305  0.3706  0.1404  0.5781
 1010MOL0     C39248   1.945  10.518   9.352  0.3469 -0.3486  0.8503
 1010MOL0     C39249   2.003  10.384   9.362  2.2794 -0.0057 -1.7279
 1010MOL0     O39250   2.121  10.384   9.427  0.0735 -0.8491 -0.4272
 1010MOL0     C39251   2.226  10.312   9.349 -0.6676  0.0735 -1.5173
 1010MOL0     C39252   2.294  10.406   9.249 -0.5615 -0.1043  0.0637
 1010MOL0     C39253   2.356  10.532   9.313 -0.9080  0.1748  0.0170
 1010MOL0     C39254   2.448  10.607   9.210 -0.7345  0.0099 -0.2753
 1010MOL0     C39255   2.527  10.714   9.300  0.4815 -0.4883 -0.4129
 1010MOL0     C39256   2.624  10.795   9.215  0.2922 -0.9488 -0.3662
 1010MOL0     C39257   2.544  10.904   9.138  0.4264  0.3149  0.3330
 1010MOL0     C39258   2.626  11.017   9.074 -0.2649 -0.3814  0.1805
 1010MOL0     N39259   2.656  11.132   9.164 -0.6049 -0.8537  0.9690
 1010MOL0     C39260   2.658  11.261   9.125  0.4286  0.0482 -0.2582
 1010MOL0     C39261   2.730  11.328   9.221 -0.7801 -0.8382  0.1594
 1010MOL0     C39262   2.769  11.473   9.221 -0.1794 -0.7090 -0.0619
 1010MOL0     C39263   2.689  11.554   9.334 -0.9709 -0.0643 -0.1495
 1010MOL0     C39264   2.543  11.579   9.291  0.6370  0.1482  0.4852
 1010MOL0     C39265   2.460  11.673   9.388  0.8551 -0.0112  0.6726
 1010MOL0     O39266   2.321  11.659   9.349 -0.1234 -0.2284 -0.3452
 1010MOL0     C39267   2.235  11.722   9.439  0.0556 -0.1126  0.1157
 1010MOL0     C39268   2.112  11.749   9.388  0.1900 -0.4605  0.4236
 1010MOL0     C39269   2.008  11.816   9.456 -0.1735 -0.0227 -0.5228
 1010MOL0     C39270   1.881  11.839   9.381  0.0111 -0.4919  0.4066
 1010MOL0     C39271   2.029  11.848   9.592  0.3659  0.2896  0.0543
 1010MOL0     C39272   1.928  11.899   9.685  0.0839 -0.0778  0.0872
 1010MOL0     O39273   1.976  11.954   9.805 -0.0060  0.0409  0.3184
 1010MOL0     C39274   1.920  12.067   9.858  0.7642 -0.5247 -0.1001
 1010MOL0     C39275   2.006  12.178   9.850  0.5026  0.6806  0.0967
 1010MOL0     C39276   1.972  12.300   9.899  0.1920 -0.2182 -0.9404
 1010MOL0     C39277   1.833  12.324   9.935 -1.7246 -0.0393  1.0363
 1010MOL0     O39278   1.802  12.456   9.970  0.0286  0.1866 -0.3744
 1010MOL0     C39279   1.665  12.481  10.011 -0.1697 -0.5059  0.1510
 1010MOL0     C39280   1.650  12.643  10.003 -0.0120  0.5180 -0.3739
 1010MOL0     C39281   1.503  12.685  10.023  0.3898 -0.3005 -0.4068
 1010MOL0     C39282   1.475  12.831   9.974 -0.5304  0.6945 -0.2919
 1010MOL0     C39283   1.328  12.874   9.987  0.2084  0.5137 -0.2210
 1010MOL0     C39284   1.299  13.019   9.967  0.4101 -0.7173 -0.3075
 1010MOL0     C39285   1.150  13.051   9.972  0.9835  0.7955  0.2853
 1010MOL0     C39286   1.091  13.077   9.838 -0.4911  0.7298  0.4459
 1010MOL0    Cl39287   1.167  13.215   9.755 -0.2191 -0.0072 -0.3461
 1010MOL0     C39288   1.749  12.211   9.941 -0.3343 -0.5029  1.0350
 1010MOL0     C39289   1.786  12.081   9.902 -0.1360  0.0877 -1.1994
 1010MOL0     O39290   1.808  11.909   9.651 -0.3936  0.3405  0.5438
 1010MOL0     C39291   2.166  11.851   9.634 -0.4299  0.3410  0.4834
 1010MOL0     C39292   2.263  11.782   9.557 -0.8501 -1.5218 -0.0920
 1010MOL0     N39293   2.763  11.233   9.310  0.3660  0.5619 -1.1010
 1010MOL0     N39294   2.725  11.116   9.283  0.4636  0.5662 -0.4524
 1010MOL0     C39295   1.934  10.263   9.322  0.1264  0.3845 -0.2179
 1010MOL0     C39296   1.808  10.264   9.274 -0.9471  0.2195 -0.3286
 1010MOL0     C39297   1.363  10.403   9.260 -0.4013  0.5939 -0.3968
 1010MOL0     C39298   1.255  10.461   9.336 -0.6551 -0.2635  0.0984
 1010MOL0     C39299   1.121  10.428   9.311 -0.6706  0.5507 -0.2476
 1010MOL0     C39300   1.088  10.333   9.213  0.3335 -0.3890  0.7755
 1010MOL0     O39301   0.948  10.308   9.203 -0.8088 -0.0384 -0.4406
 1010MOL0     C39302   0.880  10.228   9.102 -0.5258  0.8163 -0.7519
 1010MOL0     C39303   0.866  10.311   8.975  0.7323  0.5853 -0.5115
 1010MOL0     C39304   0.767  10.437   8.998  0.5929  0.1212 -1.0729
 1010MOL0     C39305   0.731  10.511   8.866 -0.1401 -0.1751  1.6690
 1010MOL0     C39306   0.673  10.641   8.904 -0.2901  0.0903 -0.5215
 1010MOL0     C39307   0.643  10.756   8.929  0.7089  0.4795 -0.6770
 1010MOL0     C39308   1.190  10.273   9.149 -0.2800 -0.1031  0.5742
 1010MOL0     C39309   1.331  10.296   9.168  0.2081 -0.1273 -0.5904
 1010MOL0     C39310   1.428  10.204   9.115  0.0072 -0.5086  0.2146
 1010MOL0     H39311   1.759  10.611   9.299  1.1245  0.4214 -3.6537
 1010MOL0     H39312   1.991  10.612   9.379  3.6597 -1.6938  0.5194
 1010MOL0     H39313   2.188  10.227   9.292  1.0336 -2.3979  0.8112
 1010MOL0     H39314   2.305  10.273   9.414  0.4324  1.0198 -2.2367
 1010MOL0     H39315   2.375  10.342   9.212  0.9224  1.4122  0.5613
 1010MOL0     H39316   2.224  10.435   9.170  0.4714  1.7434 -0.2211
 1010MOL0     H39317   2.286  10.602   9.362  1.1200  0.0702  3.3794
 1010MOL0     H39318   2.416  10.500   9.398 -2.6590 -0.3683  1.1068
 1010MOL0     H39319   2.516  10.533   9.167 -0.9570 -1.3181  1.5218
 1010MOL0     H39320   2.393  10.640   9.122 -0.5575 -1.9973 -1.2012
 1010MOL0     H39321   2.587  10.657   9.371  0.5187 -0.0503 -0.0858
 1010MOL0     H39322   2.448  10.779   9.339 -0.2599 -2.2778  1.2297
 1010MOL0     H39323   2.688  10.853   9.283  1.7687 -3.6811  0.7101
 1010MOL0     H39324   2.689  10.728   9.158  2.5027  0.8434 -0.0774
 1010MOL0     H39325   2.473  10.952   9.205 -1.0062 -0.4728 -0.5560
 1010MOL0     H39326   2.483  10.852   9.063  2.0594 -0.4364 -0.5386
 1010MOL0     H39327   2.719  10.972   9.039 -1.0213 -1.1190 -0.9539
 1010MOL0     H39328   2.555  11.058   9.001  0.7454  1.7739  0.3339
 1010MOL0     H39329   2.613  11.305   9.037  1.6126 -1.2331 -1.5450
 1010MOL0     H39330   2.748  11.526   9.128 -0.5366 -1.4464 -0.4015
 1010MOL0     H39331   2.876  11.475   9.245 -0.3806  0.1204  0.8338
 1010MOL0     H39332   2.703  11.502   9.430  0.8365  2.7417  1.2466
 1010MOL0     H39333   2.746  11.645   9.356  0.9032 -1.3322  0.5658
 1010MOL0     H39334   2.548  11.622   9.191  0.8073 -0.4441  0.2369
 1010MOL0     H39335   2.488  11.485   9.277 -1.4517  1.2922  0.5591
 1010MOL0     H39336   2.475  11.630   9.488  0.7095 -3.7747 -0.7610
 1010MOL0     H39337   2.491  11.778   9.396 -0.4320  0.2617  3.2578
 1010MOL0     H39338   2.098  11.717   9.286 -2.3194 -0.4946  0.7327
 1010MOL0     H39339   1.797  11.782   9.423  0.0261  0.3541  1.6095
 1010MOL0     H39340   1.894  11.811   9.276 -2.9790 -1.9659  0.3073
 1010MOL0     H39341   1.855  11.945   9.380  2.2832  0.1370  1.5177
 1010MOL0     H39342   2.106  12.157   9.814  0.6546  2.8315 -0.8872
 1010MOL0     H39343   2.037  12.387   9.889 -0.8138  0.7001  0.2463
 1010MOL0     H39344   1.596  12.430   9.944  0.1638 -2.7694  1.3915
 1010MOL0     H39345   1.648  12.449  10.115 -1.3772 -1.4840 -0.3283
 1010MOL0     H39346   1.709  12.697  10.078 -0.0649  0.3663 -0.2210
 1010MOL0     H39347   1.681  12.670   9.902 -0.7103 -1.7059 -1.2501
 1010MOL0     H39348   1.480  12.696  10.129  0.2571  2.0641 -0.6340
 1010MOL0     H39349   1.444  12.609   9.971 -1.1807  0.7943 -0.2650
 1010MOL0     H39350   1.505  12.837   9.869 -1.2468  0.6766 -0.5050
 1010MOL0     H39351   1.531  12.898  10.040  1.8356 -0.5827 -0.9018
 1010MOL0     H39352   1.273  12.818   9.911  0.1765  2.0174 -1.3626
 1010MOL0     H39353   1.299  12.852  10.090 -1.3189  2.7358 -0.0920
 1010MOL0     H39354   1.339  13.045   9.869 -1.3025  1.6415 -0.4499
 1010MOL0     H39355   1.345  13.074  10.049  0.3747  0.0713 -0.8097
 1010MOL0     H39356   1.132  13.135  10.041 -2.6679 -1.2403  2.1353
 1010MOL0     H39357   1.088  12.967  10.005  0.1378  1.2524 -0.1157
 1010MOL0     H39358   0.984  13.097   9.850 -0.4769  0.7543  0.5338
 1010MOL0     H39359   1.100  12.993   9.770  1.1977 -0.1453  1.6725
 1010MOL0     H39360   1.648  12.239   9.971 -0.2102  1.9464 -0.5330
 1010MOL0     H39361   1.709  12.006   9.911 -0.3847  0.4522 -0.1613
 1010MOL0     H39362   2.206  11.882   9.730  0.7297 -1.1551  0.5109
 1010MOL0     H39363   2.367  11.769   9.587  0.0715  0.6290 -2.0488
 1010MOL0     H39364   1.987  10.169   9.326 -0.6708 -0.0855 -0.4271
 1010MOL0     H39365   1.763  10.173   9.236 -0.2138  0.1071 -0.9606
 1010MOL0     H39366   1.286  10.536   9.408  2.3350  0.5139 -1.8277
 1010MOL0     H39367   1.042  10.475   9.369 -0.8923  1.4021 -1.2014
 1010MOL0     H39368   0.942  10.139   9.088 -1.9767 -0.2400 -0.7032
 1010MOL0     H39369   0.785  10.190   9.142  0.9407 -3.6590 -0.9665
 1010MOL0     H39370   0.832  10.254   8.888  1.4660 -2.7704  1.2411
 1010MOL0     H39371   0.965  10.352   8.951  1.1384 -0.6773 -1.0824
 1010MOL0     H39372   0.681  10.408   9.061  1.6030  0.4968  0.5404
 1010MOL0     H39373   0.811  10.518   9.057  0.2535 -1.3895  1.4418
 1010MOL0     H39374   0.662  10.453   8.805  2.1654 -2.5475  1.1081
 1010MOL0     H39375   0.818  10.536   8.805 -1.7547  1.9772  0.1246
 1010MOL0     H39376   0.614  10.859   8.938 -3.0601 -0.6072  2.5643
 1010MOL0     H39377   1.162  10.185   9.092  2.5495 -0.9542  0.3340
 1010MOL0     H39378   1.497  10.166   9.191  0.5258 -1.1467 -0.5535
 1010MOL0     H39379   1.387  10.119   9.059  1.5733 -0.5862 -0.8799
 1010MOL0     H39380   1.477  10.257   9.032 -3.4351 -0.0894 -1.7637
 1011MOL0     O39381   1.273   4.900   5.602  0.4511  0.2916  0.2562
 1011MOL0     C39382   1.294   5.017   5.631 -0.1466  0.0127 -0.4052
 1011MOL0     O39383   1.211   5.123   5.604  0.0762  0.7059 -0.5464
 1011MOL0     C39384   1.081   5.100   5.584 -0.0456  1.2636  0.0297
 1011MOL0     C39385   1.009   5.055   5.692  0.8124 -0.1900 -0.3646
 1011MOL0     C39386   0.875   5.032   5.678  0.0751  0.0447  0.6837
 1011MOL0     C39387   0.802   5.045   5.552  0.2259 -0.6130 -0.0313
 1011MOL0     O39388   0.668   5.043   5.529 -0.4890  0.6084 -0.2201
 1011MOL0     C39389   0.580   4.995   5.633 -0.5812  0.5137  0.8936
 1011MOL0     C39390   0.442   5.002   5.571 -0.1255 -0.5992  0.3431
 1011MOL0     C39391   0.326   4.944   5.659  0.0342  1.2408 -0.5739
 1011MOL0     C39392   0.271   5.038   5.777 -0.4259 -0.1655  0.0308
 1011MOL0     C39393   0.117   5.023   5.804 -0.9699 -0.2181  0.3508
 1011MOL0     C39394   0.042   5.075   5.678 -1.0257 -0.0918  0.1430
 1011MOL0     C39395  -0.105   5.109   5.707 -0.8557 -0.0652 -0.4930
 1011MOL0     C39396  -0.185   4.983   5.723 -0.4206 -0.1651  0.7218
 1011MOL0     N39397  -0.170   4.888   5.605 -0.6103 -0.6276  0.0405
 1011MOL0     C39398  -0.232   4.900   5.476 -0.1295  0.7772 -0.0891
 1011MOL0     C39399  -0.208   4.777   5.422  0.3893 -0.5189 -0.6055
 1011MOL0     C39400  -0.228   4.734   5.280 -0.2908  0.2326  0.1334
 1011MOL0     C39401  -0.134   4.810   5.182 -1.2300  1.0675  0.8787
 1011MOL0     C39402   0.014   4.772   5.222  0.5544  0.0781 -0.6546
 1011MOL0     C39403   0.122   4.818   5.123 -0.3076  0.4557 -0.6188
 1011MOL0     O39404   0.256   4.782   5.164  0.0143  0.2038 -0.0783
 1011MOL0     C39405   0.362   4.853   5.111  0.4642  0.3127 -0.2043
 1011MOL0     C39406   0.487   4.840   5.165 -0.4789  1.1174  0.0793
 1011MOL0     C39407   0.604   4.901   5.103  0.4265 -0.8545  0.5544
 1011MOL0     C39408   0.745   4.876   5.151 -0.2340  0.8079  0.0796
 1011MOL0     C39409   0.576   4.990   4.996 -0.6068  0.0484 -0.3419
 1011MOL0     C39410   0.682   5.057   4.925 -0.3197  0.5877 -0.2804
 1011MOL0     O39411   0.775   4.977   4.862  0.1271 -0.5960 -0.5092
 1011MOL0     C39412   0.892   5.023   4.799 -0.2185  0.0978 -0.1351
 1011MOL0     C39413   0.962   5.139   4.836  0.2586  0.2082  0.0241
 1011MOL0     C39414   1.088   5.166   4.783 -0.2026 -0.1683 -0.5043
 1011MOL0     C39415   1.131   5.086   4.678 -0.7176 -0.3381 -0.1036
 1011MOL0     O39416   1.245   5.113   4.608  0.3948 -0.1764 -0.8218
 1011MOL0     C39417   1.244   5.234   4.542 -0.7443 -0.8144  0.0878
 1011MOL0     C39418   1.375   5.246   4.458  0.9786 -0.3125  0.5162
 1011MOL0     C39419   1.489   5.272   4.557  0.1988 -0.6629  0.6530
 1011MOL0     C39420   1.617   5.294   4.479 -0.4088  0.6476 -0.2812
 1011MOL0     C39421   1.643   5.443   4.458 -0.0351 -0.4469  0.1497
 1011MOL0     C39422   1.764   5.483   4.366 -0.6923  0.6165 -0.0982
 1011MOL0     C39423   1.747   5.623   4.314 -0.4305  0.3069 -0.0307
 1011MOL0     C39424   1.655   5.664   4.213 -0.3308  0.1406 -0.1699
 1011MOL0    Cl39425   1.702   5.561   4.066 -0.2558 -0.3339 -0.1641
 1011MOL0     C39426   1.055   4.976   4.633  0.2590 -0.3103 -0.6349
 1011MOL0     C39427   0.941   4.940   4.702 -0.1963  0.2403  0.4094
 1011MOL0     O39428   0.666   5.182   4.907 -0.6014  0.2206  0.4573
 1011MOL0     C39429   0.445   5.009   4.948 -0.1278 -0.3820  0.4599
 1011MOL0     C39430   0.339   4.945   5.002  0.2165 -0.3180  0.3606
 1011MOL0     N39431  -0.142   4.699   5.507  0.1059  0.2404  0.3672
 1011MOL0     N39432  -0.116   4.765   5.619  0.2380 -0.0969 -0.2746
 1011MOL0     C39433   0.881   5.088   5.449  0.0293 -0.4631 -0.1001
 1011MOL0     C39434   1.015   5.123   5.466 -0.9916  0.4974  0.4408
 1011MOL0     C39435   1.430   5.054   5.693  0.4950  0.2022  0.4907
 1011MOL0     C39436   1.435   5.112   5.821 -0.3008 -0.5546 -0.4165
 1011MOL0     C39437   1.562   5.150   5.876  0.1019 -0.3679  0.8023
 1011MOL0     C39438   1.677   5.129   5.796 -0.4835 -0.3926 -0.4373
 1011MOL0     O39439   1.800   5.170   5.843 -0.1033  0.5007 -0.3262
 1011MOL0     C39440   1.827   5.195   5.977  0.6610  0.1737 -0.4524
 1011MOL0     C39441   1.975   5.207   6.010  1.4335  0.7509 -0.0521
 1011MOL0     C39442   1.997   5.185   6.163 -1.2753  0.3229 -0.4076
 1011MOL0     C39443   2.018   5.043   6.212  0.6533  0.4647  0.3664
 1011MOL0     C39444   1.898   4.984   6.265  0.1270  0.4648  1.2427
 1011MOL0     C39445   1.803   4.915   6.290 -0.1825  0.2138  0.6738
 1011MOL0     C39446   1.672   5.063   5.676  0.4034 -0.0385 -0.0169
 1011MOL0     C39447   1.555   5.019   5.622  1.3195 -0.2344 -0.6952
 1011MOL0     C39448   1.552   4.959   5.482 -0.2220 -0.2781 -0.1421
 1011MOL0     H39449   1.068   5.041   5.783  1.9281  1.4395 -0.7836
 1011MOL0     H39450   0.825   5.006   5.770 -1.3771  1.3616  0.3078
 1011MOL0     H39451   0.589   5.060   5.721 -0.9520  1.7445  0.0464
 1011MOL0     H39452   0.600   4.890   5.656 -1.9041 -0.0680 -0.4909
 1011MOL0     H39453   0.415   5.106   5.551  1.2018 -0.5316 -1.2463
 1011MOL0     H39454   0.451   4.954   5.473  0.8745 -0.0285  0.1493
 1011MOL0     H39455   0.242   4.908   5.599 -1.8852  1.4089  1.8453
 1011MOL0     H39456   0.363   4.852   5.706 -3.2667  1.0436  2.0628
 1011MOL0     H39457   0.317   5.008   5.871 -0.7018 -0.6307  0.0226
 1011MOL0     H39458   0.284   5.145   5.761  1.0035 -0.0017  2.0080
 1011MOL0     H39459   0.097   5.074   5.898  4.5687 -0.3722  1.9905
 1011MOL0     H39460   0.092   4.918   5.822 -0.3065 -0.0751  2.3613
 1011MOL0     H39461   0.081   5.170   5.641 -3.0777  0.3473 -1.0680
 1011MOL0     H39462   0.050   5.004   5.595 -1.4026  0.2217 -0.1674
 1011MOL0     H39463  -0.156   5.169   5.631 -3.9598 -1.5406  0.2592
 1011MOL0     H39464  -0.108   5.171   5.797 -4.0733  3.1340 -2.5093
 1011MOL0     H39465  -0.155   4.932   5.815 -0.4723 -1.9342 -0.2103
 1011MOL0     H39466  -0.290   5.015   5.722 -0.8433 -1.3261 -2.6071
 1011MOL0     H39467  -0.298   4.976   5.434  0.8271  1.6774 -0.0043
 1011MOL0     H39468  -0.331   4.757   5.249 -1.4302  0.9826  3.9710
 1011MOL0     H39469  -0.207   4.627   5.274  0.2585  0.3272  0.3623
 1011MOL0     H39470  -0.162   4.778   5.082 -1.6301 -0.2312  1.3804
 1011MOL0     H39471  -0.131   4.919   5.193  1.1054  0.9437  2.3816
 1011MOL0     H39472   0.028   4.821   5.319 -0.2597  2.6031 -1.7235
 1011MOL0     H39473   0.022   4.663   5.223 -0.2072 -0.1257 -3.7905
 1011MOL0     H39474   0.102   4.785   5.020 -3.2291  0.5325 -0.1632
 1011MOL0     H39475   0.115   4.927   5.123 -0.3378  0.4629  0.6051
 1011MOL0     H39476   0.504   4.777   5.252  3.9046  1.7882 -0.0381
 1011MOL0     H39477   0.796   4.972   5.142 -0.5812  0.9274 -0.7309
 1011MOL0     H39478   0.789   4.802   5.084 -1.0825  1.0806 -0.8016
 1011MOL0     H39479   0.742   4.837   5.253 -1.1918  0.3979 -0.0856
 1011MOL0     H39480   0.915   5.197   4.915 -0.5031 -1.8492  1.1569
 1011MOL0     H39481   1.133   5.252   4.831 -3.1693  0.8134  0.8195
 1011MOL0     H39482   1.155   5.261   4.483 -0.9320  3.3355  1.9584
 1011MOL0     H39483   1.243   5.312   4.618  1.5804  0.2343 -0.8751
 1011MOL0     H39484   1.393   5.148   4.414  0.1032  0.2952 -1.3099
 1011MOL0     H39485   1.365   5.311   4.370  3.3876 -0.6797 -0.0843
 1011MOL0     H39486   1.493   5.184   4.620  2.0555 -0.0587  1.4425
 1011MOL0     H39487   1.475   5.355   4.627  1.5244 -1.9158  2.4764
 1011MOL0     H39488   1.623   5.242   4.383  1.6592  0.5497 -0.1503
 1011MOL0     H39489   1.700   5.256   4.540 -0.2084 -0.6133 -1.3080
 1011MOL0     H39490   1.559   5.490   4.405  2.5197  2.8781 -1.3299
 1011MOL0     H39491   1.642   5.503   4.549 -1.8984  1.5314 -1.0539
 1011MOL0     H39492   1.782   5.418   4.280 -3.2626  0.1061 -0.3407
 1011MOL0     H39493   1.852   5.477   4.429  1.6566 -1.5959 -3.2640
 1011MOL0     H39494   1.846   5.643   4.272  0.5137 -1.0776  1.4013
 1011MOL0     H39495   1.742   5.692   4.398  0.5510  1.8679 -1.2071
 1011MOL0     H39496   1.688   5.767   4.192  0.7845 -0.3413 -0.8814
 1011MOL0     H39497   1.548   5.659   4.231 -0.3461 -0.5493 -0.4267
 1011MOL0     H39498   1.090   4.916   4.549 -0.0009 -0.9129 -0.3134
 1011MOL0     H39499   0.891   4.849   4.673 -0.0053  0.5973 -1.1470
 1011MOL0     H39500   0.420   5.057   4.854 -2.0572 -3.6450 -0.8577
 1011MOL0     H39501   0.245   4.951   4.950 -0.8300  3.0689  2.3201
 1011MOL0     H39502   0.833   5.109   5.354 -2.8990  0.8523  1.5300
 1011MOL0     H39503   1.066   5.167   5.381  0.7136 -2.3242 -0.1342
 1011MOL0     H39504   1.350   5.128   5.887  1.4901  1.2962  1.5938
 1011MOL0     H39505   1.583   5.187   5.976  3.5831  0.4724 -0.1053
 1011MOL0     H39506   1.764   5.280   6.005  1.5038  0.4966  0.5146
 1011MOL0     H39507   1.791   5.114   6.041 -0.6082  1.3144  0.3361
 1011MOL0     H39508   2.017   5.302   5.977  2.3221  0.8006  1.1555
 1011MOL0     H39509   2.024   5.122   5.961 -1.7703 -1.3548  0.0672
 1011MOL0     H39510   2.080   5.253   6.181 -0.5681 -0.5391 -0.3827
 1011MOL0     H39511   1.918   5.229   6.225 -2.6816 -1.5760 -0.7574
 1011MOL0     H39512   2.086   5.044   6.298  1.4676 -2.0913 -0.1664
 1011MOL0     H39513   2.061   4.975   6.138 -0.1672  1.1312 -0.7483
 1011MOL0     H39514   1.727   4.846   6.321 -2.1075  1.4763 -0.9767
 1011MOL0     H39515   1.756   5.041   5.611  1.0708 -2.0550  1.4332
 1011MOL0     H39516   1.651   4.970   5.438  0.9699 -3.4163  1.3972
 1011MOL0     H39517   1.533   4.853   5.504  1.5752  0.1518  5.0681
 1011MOL0     H39518   1.482   5.005   5.412  2.8189  1.7795 -2.0420
 1012MOL0     O39519  11.249   3.437   7.185  0.6018 -0.3676  0.4017
 1012MOL0     C39520  11.303   3.404   7.083  1.0584  0.1228  1.1214
 1012MOL0     O39521  11.395   3.304   7.073  0.7664 -0.2048 -1.0919
 1012MOL0     C39522  11.492   3.280   7.172  0.1398 -0.3969 -0.3796
 1012MOL0     C39523  11.578   3.383   7.215  0.5656  0.3758 -0.3707
 1012MOL0     C39524  11.685   3.352   7.301 -0.0232 -0.2175  0.5002
 1012MOL0     C39525  11.705   3.223   7.345 -0.2111 -0.0877 -1.2032
 1012MOL0     O39526  11.802   3.189   7.440 -0.1238 -0.4026  0.5890
 1012MOL0     C39527  11.922   3.269   7.449  1.0496  0.1012 -0.1045
 1012MOL0     C39528  12.050   3.185   7.452 -0.2868  0.4392  0.5442
 1012MOL0     C39529  12.066   3.148   7.607 -0.7846 -0.1278  0.2992
 1012MOL0     C39530  11.973   3.046   7.666  0.0642 -0.7870  0.7094
 1012MOL0     C39531  12.001   2.896   7.620  0.4652 -0.4874 -0.0429
 1012MOL0     C39532  12.107   2.836   7.711 -0.1388 -0.7735  0.6176
 1012MOL0     C39533  12.140   2.688   7.695 -0.7189 -0.4265  1.0359
 1012MOL0     C39534  12.186   2.670   7.551 -0.0602 -0.0281 -0.7589
 1012MOL0     N39535  12.313   2.732   7.523 -1.1022 -0.2278 -0.3829
 1012MOL0     C39536  12.350   2.740   7.393  0.0281  0.5389  2.2444
 1012MOL0     C39537  12.484   2.763   7.389 -0.0943  0.0193  0.3399
 1012MOL0     C39538  12.556   2.764   7.255  0.1917 -0.5687 -0.9208
 1012MOL0     C39539  12.701   2.787   7.275 -1.3228 -0.1285  0.0995
 1012MOL0     C39540  12.776   2.751   7.145 -0.2779 -0.0073 -0.3486
 1012MOL0     C39541  12.927   2.771   7.165  0.6919 -0.9373 -0.0445
 1012MOL0     O39542  12.950   2.913   7.188  0.0703 -0.0261 -0.3669
 1012MOL0     C39543  13.081   2.957   7.162 -0.7300  0.7901 -0.1068
 1012MOL0     C39544  13.101   3.098   7.166  0.4349 -0.2251  0.8149
 1012MOL0     C39545  13.226   3.164   7.130  0.3254  0.7953  0.3639
 1012MOL0     C39546  13.222   3.318   7.114  0.2942 -0.2211  0.5341
 1012MOL0     C39547  13.343   3.084   7.126 -0.4392  1.6628  0.9836
 1012MOL0     C39548  13.480   3.132   7.100  0.1406  0.8435  1.1561
 1012MOL0     O39549  13.572   3.046   7.048 -0.1842 -0.3270 -0.5407
 1012MOL0     C39550  13.702   3.078   7.014  0.7759 -0.1545 -0.0924
 1012MOL0     C39551  13.810   2.993   7.038  0.1339  0.5123 -0.4095
 1012MOL0     C39552  13.943   3.032   7.002 -0.3556  0.7741  0.0933
 1012MOL0     C39553  13.970   3.154   6.932  0.4762  0.2647 -0.5037
 1012MOL0     O39554  14.091   3.191   6.890 -0.2069 -0.1911  0.1880
 1012MOL0     C39555  14.213   3.123   6.923  0.8307  0.7060 -0.1282
 1012MOL0     C39556  14.251   3.161   7.067 -0.1909  0.0516  0.9587
 1012MOL0     C39557  14.251   3.309   7.113 -0.9668  0.1406  0.1035
 1012MOL0     C39558  14.354   3.397   7.037 -0.7732  0.0962 -0.3892
 1012MOL0     C39559  14.497   3.354   7.060 -0.0535  0.5403 -1.2051
 1012MOL0     C39560  14.556   3.395   7.198 -0.4613  0.6479  0.0058
 1012MOL0     C39561  14.697   3.323   7.221 -0.4290 -0.7242 -0.0541
 1012MOL0     C39562  14.794   3.314   7.101 -0.2583  0.4954 -0.1528
 1012MOL0    Cl39563  14.843   3.481   7.040  0.0259  0.3954 -0.0401
 1012MOL0     C39564  13.860   3.224   6.898  0.0768 -0.2224 -0.1133
 1012MOL0     C39565  13.730   3.199   6.946 -0.0308  0.0394 -0.0807
 1012MOL0     O39566  13.498   3.250   7.146  0.4218 -0.5194  0.1991
 1012MOL0     C39567  13.327   2.942   7.139  0.4433 -0.3433 -0.2188
 1012MOL0     C39568  13.201   2.880   7.149  0.4277  0.1955 -1.2707
 1012MOL0     N39569  12.534   2.770   7.520  0.5473 -0.2439  1.2848
 1012MOL0     N39570  12.427   2.744   7.602  0.2789  0.1285  0.1343
 1012MOL0     C39571  11.607   3.122   7.311  0.5754 -0.2081 -0.5032
 1012MOL0     C39572  11.499   3.151   7.226  0.4524  0.1761 -0.2783
 1012MOL0     C39573  11.272   3.480   6.954  0.6587  1.1657 -0.0260
 1012MOL0     C39574  11.362   3.524   6.853 -0.9422 -0.2279 -0.4412
 1012MOL0     C39575  11.332   3.585   6.739  0.2738  0.2565 -0.0748
 1012MOL0     C39576  11.203   3.612   6.710  0.3964  1.0027  0.8015
 1012MOL0     O39577  11.158   3.691   6.599 -0.1633  0.4107 -0.4350
 1012MOL0     C39578  11.249   3.768   6.533  0.6396  0.0844 -0.4581
 1012MOL0     C39579  11.160   3.881   6.489 -0.4250  0.3786 -0.4798
 1012MOL0     C39580  11.232   3.998   6.423  0.6973  0.4120  0.1750
 1012MOL0     C39581  11.133   4.068   6.332  0.8672  0.3814  0.0826
 1012MOL0     C39582  11.008   4.118   6.393 -0.7068  0.3464 -0.8309
 1012MOL0     C39583  10.907   4.166   6.440 -0.3025 -0.5871 -0.4351
 1012MOL0     C39584  11.105   3.566   6.798  0.2095  0.8120 -0.0507
 1012MOL0     C39585  11.138   3.496   6.916 -0.0311  0.3868 -0.9908
 1012MOL0     C39586  11.020   3.443   6.995 -1.4226 -0.6912  0.1129
 1012MOL0     H39587  11.559   3.482   7.174 -0.5815  0.1720 -0.3584
 1012MOL0     H39588  11.744   3.437   7.332 -2.9247  2.0216  0.3176
 1012MOL0     H39589  11.921   3.334   7.538  0.1499  0.0184 -0.0505
 1012MOL0     H39590  11.929   3.338   7.365  0.6891  1.4936  0.9742
 1012MOL0     H39591  12.036   3.092   7.396 -1.0700  0.7009  0.2828
 1012MOL0     H39592  12.135   3.237   7.407  0.1848 -1.8339 -1.4190
 1012MOL0     H39593  12.165   3.102   7.596  0.0767  1.8351 -0.6717
 1012MOL0     H39594  12.075   3.236   7.670  1.9397  1.8934 -2.5710
 1012MOL0     H39595  11.987   3.050   7.774 -4.3045 -0.1836  1.4301
 1012MOL0     H39596  11.867   3.061   7.641  0.6093 -0.5290 -1.7028
 1012MOL0     H39597  12.027   2.904   7.514 -0.9093 -1.2021 -0.4546
 1012MOL0     H39598  11.914   2.830   7.632 -0.1823  0.2147 -0.7777
 1012MOL0     H39599  12.201   2.887   7.689 -0.8207 -0.9492 -3.3414
 1012MOL0     H39600  12.082   2.851   7.817 -1.0661  1.2590  0.1686
 1012MOL0     H39601  12.061   2.616   7.718 -0.9626 -0.4752  0.0876
 1012MOL0     H39602  12.216   2.660   7.768 -1.8738  1.5278  3.1386
 1012MOL0     H39603  12.193   2.562   7.533  2.1322 -0.7850  3.2803
 1012MOL0     H39604  12.110   2.703   7.480 -1.7855  0.6859  1.2947
 1012MOL0     H39605  12.298   2.736   7.298  2.4999 -0.4198  0.8499
 1012MOL0     H39606  12.512   2.836   7.186  0.9555  0.6593 -0.1537
 1012MOL0     H39607  12.538   2.666   7.209  0.6488 -0.5153 -1.2204
 1012MOL0     H39608  12.714   2.893   7.299  1.9804 -0.1620 -1.0183
 1012MOL0     H39609  12.741   2.724   7.355 -1.4824  0.0639  0.3292
 1012MOL0     H39610  12.747   2.655   7.103 -1.2195  0.4320 -0.7493
 1012MOL0     H39611  12.743   2.824   7.070  1.8733  2.4107  0.8648
 1012MOL0     H39612  12.956   2.703   7.246 -0.5553 -0.3116  0.9717
 1012MOL0     H39613  12.978   2.746   7.072 -0.8953 -1.8835 -0.6916
 1012MOL0     H39614  13.008   3.153   7.158  0.1340 -0.9309 -1.3639
 1012MOL0     H39615  13.261   3.355   7.019  1.7890  0.3497  1.3462
 1012MOL0     H39616  13.276   3.354   7.202 -2.0497 -2.1224  2.9153
 1012MOL0     H39617  13.117   3.347   7.122  0.2609 -0.4406  0.9125
 1012MOL0     H39618  13.799   2.895   7.083 -2.1140  1.5891  1.6270
 1012MOL0     H39619  14.019   2.961   7.032  1.5680  3.0647  1.0451
 1012MOL0     H39620  14.213   3.014   6.924 -0.4513  0.6914 -0.3933
 1012MOL0     H39621  14.287   3.161   6.851  1.6298  0.6953  0.6678
 1012MOL0     H39622  14.188   3.099   7.131  0.1868 -1.6091 -0.2034
 1012MOL0     H39623  14.343   3.111   7.096 -1.9892 -3.3524  1.3261
 1012MOL0     H39624  14.273   3.304   7.220  1.3184  0.9632 -0.2864
 1012MOL0     H39625  14.157   3.360   7.090 -0.9303  0.4638  0.6600
 1012MOL0     H39626  14.342   3.504   7.056 -1.0930  0.0493 -0.3231
 1012MOL0     H39627  14.326   3.376   6.933  0.9393 -0.4197 -0.7677
 1012MOL0     H39628  14.513   3.246   7.050  0.7167  0.1568  2.4533
 1012MOL0     H39629  14.558   3.406   6.986  2.2862 -0.5081 -0.1442
 1012MOL0     H39630  14.481   3.382   7.276  0.2319  1.2233  0.7928
 1012MOL0     H39631  14.573   3.503   7.198 -4.1985  1.3913  2.0786
 1012MOL0     H39632  14.680   3.221   7.259  0.5237 -0.8934 -0.0548
 1012MOL0     H39633  14.732   3.385   7.304 -0.3142  0.4650 -0.9725
 1012MOL0     H39634  14.758   3.262   7.012  1.6924  0.0276 -0.7087
 1012MOL0     H39635  14.877   3.253   7.135 -1.9530 -0.0613  3.4779
 1012MOL0     H39636  13.878   3.302   6.824 -2.3150  1.4758  0.9535
 1012MOL0     H39637  13.658   3.273   6.913 -0.1653 -0.7301 -1.5762
 1012MOL0     H39638  13.408   2.870   7.133 -0.8816 -2.1512  1.7915
 1012MOL0     H39639  13.200   2.772   7.152  0.0785  0.2236  0.4978
 1012MOL0     H39640  11.618   3.019   7.343  3.7490  0.2262  0.0794
 1012MOL0     H39641  11.425   3.076   7.199  0.0636 -0.3456  2.0660
 1012MOL0     H39642  11.469   3.509   6.866 -0.8738 -1.2484 -1.8449
 1012MOL0     H39643  11.416   3.609   6.675  1.0264  1.0144  1.1508
 1012MOL0     H39644  11.335   3.807   6.587  0.0168  0.3084  0.3869
 1012MOL0     H39645  11.286   3.711   6.447  4.2846 -1.1527  1.7337
 1012MOL0     H39646  11.095   3.914   6.570  1.0539 -2.1367  1.8716
 1012MOL0     H39647  11.095   3.838   6.412 -0.2041 -1.7064  0.4330
 1012MOL0     H39648  11.270   4.076   6.490 -0.3548  0.7440  0.4009
 1012MOL0     H39649  11.319   3.957   6.371  0.4348 -0.1599  0.1876
 1012MOL0     H39650  11.100   4.003   6.250 -3.9724  0.6519  1.5283
 1012MOL0     H39651  11.184   4.159   6.299  1.7037  0.9129  2.6138
 1012MOL0     H39652  10.820   4.210   6.484 -0.7568 -1.4412 -0.4606
 1012MOL0     H39653  11.002   3.598   6.788 -1.3017 -2.4190  3.1060
 1012MOL0     H39654  11.033   3.337   7.022  1.5589  0.0739  2.1031
 1012MOL0     H39655  11.014   3.496   7.090 -1.6464 -1.8024  0.7424
 1012MOL0     H39656  10.928   3.450   6.936 -0.2471  1.3439 -1.6254
 1013MOL0     O39657   2.048   2.032   1.712 -0.1978  0.1692 -0.2996
 1013MOL0     C39658   1.981   1.946   1.652  0.3366 -0.0147  0.3504
 1013MOL0     O39659   2.030   1.844   1.572  0.2721  0.4777 -0.6263
 1013MOL0     C39660   2.169   1.829   1.552  0.4100 -1.2388 -0.2030
 1013MOL0     C39661   2.213   1.829   1.425 -0.6969 -0.5477  0.0456
 1013MOL0     C39662   2.350   1.806   1.408 -0.0362 -0.4545 -0.2148
 1013MOL0     C39663   2.434   1.784   1.523 -1.0527 -0.2858 -0.1427
 1013MOL0     O39664   2.570   1.753   1.510  0.1817 -0.1506  0.1999
 1013MOL0     C39665   2.629   1.726   1.387 -0.1129  0.2493 -0.1903
 1013MOL0     C39666   2.783   1.712   1.402  0.2884  0.2755 -0.1355
 1013MOL0     C39667   2.846   1.726   1.269 -0.6017  0.0319  0.2049
 1013MOL0     C39668   2.996   1.708   1.274  0.5018  0.1132 -0.5953
 1013MOL0     C39669   3.077   1.748   1.154 -0.2838  0.6398  0.1465
 1013MOL0     C39670   3.229   1.732   1.176  0.7636 -0.4610  0.1620
 1013MOL0     C39671   3.301   1.773   1.045  1.1173 -0.2472  0.0395
 1013MOL0     C39672   3.445   1.718   1.026 -0.7244 -0.8747 -0.6275
 1013MOL0     N39673   3.489   1.725   0.887 -0.0279 -0.4527 -0.2879
 1013MOL0     C39674   3.408   1.725   0.777 -0.7521  0.8011  0.4207
 1013MOL0     C39675   3.491   1.694   0.674  0.4114 -0.5869 -0.2401
 1013MOL0     C39676   3.452   1.641   0.537  0.3103 -0.1163 -0.4938
 1013MOL0     C39677   3.508   1.729   0.423 -0.4873 -0.3328  0.3762
 1013MOL0     C39678   3.480   1.881   0.433 -0.5057 -0.0486  0.3103
 1013MOL0     C39679   3.555   1.951   0.316 -0.0982 -0.4274 -0.1229
 1013MOL0     O39680   3.699   1.940   0.316  0.6457  0.2405 -0.3057
 1013MOL0     C39681   3.780   2.023   0.248  0.9021 -0.3697  0.5733
 1013MOL0     C39682   3.742   2.143   0.175 -0.0865  0.3409 -0.3973
 1013MOL0     C39683   3.836   2.225   0.113  0.1235  0.2593  0.2548
 1013MOL0     C39684   3.789   2.338   0.023 -0.0975  0.0486 -0.7925
 1013MOL0     C39685   3.969   2.178   0.102  0.5396  0.1212  0.2348
 1013MOL0     C39686   4.089   2.262   0.055 -0.0003  0.5303  0.2260
 1013MOL0     O39687   4.201   2.192   0.015  0.0060 -0.0031 -0.3792
 1013MOL0     C39688   4.317   2.261  -0.015 -0.3836 -0.3194  0.3271
 1013MOL0     C39689   4.325   2.366  -0.109 -0.3808 -0.7104 -0.2451
 1013MOL0     C39690   4.446   2.418  -0.153 -0.3970  0.3303 -0.3816
 1013MOL0     C39691   4.560   2.363  -0.110 -0.2447  0.2146 -0.5411
 1013MOL0     O39692   4.687   2.402  -0.155 -0.2162 -0.0784 -0.4880
 1013MOL0     C39693   4.685   2.481  -0.274 -0.8037  0.3627  0.7331
 1013MOL0     C39694   4.826   2.512  -0.327  0.1473 -0.1648 -0.0661
 1013MOL0     C39695   4.928   2.538  -0.220 -0.2922 -0.0650  0.5012
 1013MOL0     C39696   5.010   2.424  -0.164  0.0482  0.7243 -0.0969
 1013MOL0     C39697   5.097   2.459  -0.055 -0.5405 -0.1491  0.6702
 1013MOL0     C39698   5.198   2.566  -0.090 -1.5122  0.4385 -0.1795
 1013MOL0     C39699   5.334   2.567  -0.016  0.5185 -0.3202 -0.2475
 1013MOL0     C39700   5.444   2.492  -0.087 -0.3752  0.4022  0.2690
 1013MOL0    Cl39701   5.593   2.535   0.005  0.5885  0.2530  0.0121
 1013MOL0     C39702   4.557   2.251  -0.021  0.0394  0.1012  1.0943
 1013MOL0     C39703   4.439   2.202   0.034  0.6179 -0.1163  0.5344
 1013MOL0     O39704   4.079   2.383   0.053  0.0357  0.7605  0.2841
 1013MOL0     C39705   3.994   2.052   0.144  0.5432 -0.8657  0.0535
 1013MOL0     C39706   3.909   1.978   0.225 -0.6211 -0.4640  0.7992
 1013MOL0     N39707   3.621   1.699   0.719  0.2754  0.5119  0.0395
 1013MOL0     N39708   3.618   1.718   0.846  0.0423 -0.0389  0.0216
 1013MOL0     C39709   2.385   1.805   1.652 -0.0036 -0.9005  0.7792
 1013MOL0     C39710   2.251   1.821   1.666  0.2720  0.2918  1.0354
 1013MOL0     C39711   1.831   1.959   1.666 -0.1960 -0.8012 -0.0945
 1013MOL0     C39712   1.771   2.085   1.637  0.2526 -0.2582 -0.9907
 1013MOL0     C39713   1.632   2.107   1.635  0.6102  0.2800 -0.1064
 1013MOL0     C39714   1.550   1.993   1.668  0.0062 -0.3368 -0.2804
 1013MOL0     O39715   1.409   1.997   1.650  1.0727 -0.3825 -0.1235
 1013MOL0     C39716   1.350   2.122   1.636  0.0428  0.2351 -0.4742
 1013MOL0     C39717   1.198   2.108   1.635  0.2480 -0.3043 -1.0095
 1013MOL0     C39718   1.147   2.048   1.766 -1.5852  0.0493 -0.0428
 1013MOL0     C39719   0.994   2.040   1.784 -0.3624 -0.4507 -0.3258
 1013MOL0     C39720   0.941   2.178   1.788  0.0963  0.1007 -0.0204
 1013MOL0     C39721   0.918   2.302   1.794 -0.4452  0.5414  0.3936
 1013MOL0     C39722   1.604   1.868   1.683 -0.1861 -0.3924  0.4388
 1013MOL0     C39723   1.745   1.853   1.683 -0.1520 -0.4623  0.2689
 1013MOL0     C39724   1.793   1.719   1.700  0.3307 -0.2654  0.9352
 1013MOL0     H39725   2.145   1.826   1.341  0.7082 -2.8882 -1.1037
 1013MOL0     H39726   2.389   1.787   1.309  1.3071  0.5984  0.0886
 1013MOL0     H39727   2.601   1.802   1.314  0.9914 -1.1583 -2.1904
 1013MOL0     H39728   2.591   1.630   1.350 -1.9581 -0.5967  3.4559
 1013MOL0     H39729   2.814   1.793   1.468  0.0802 -0.1362  0.4677
 1013MOL0     H39730   2.801   1.616   1.451 -1.0762  0.2556  0.3830
 1013MOL0     H39731   2.819   1.637   1.211  1.9419 -1.8318  1.6432
 1013MOL0     H39732   2.819   1.821   1.224 -0.2944 -0.5442 -1.2332
 1013MOL0     H39733   3.029   1.781   1.349 -1.1309 -1.2364  1.5488
 1013MOL0     H39734   3.017   1.608   1.313  0.9046  0.3931 -0.0824
 1013MOL0     H39735   3.057   1.849   1.116 -1.4309  0.6659  0.7769
 1013MOL0     H39736   3.045   1.673   1.081  3.2687 -1.6271  0.6692
 1013MOL0     H39737   3.255   1.802   1.256  1.1892 -1.8585  1.2909
 1013MOL0     H39738   3.255   1.629   1.201 -5.3048 -2.2574  0.4931
 1013MOL0     H39739   3.302   1.882   1.036 -0.0238  0.2213  3.7433
 1013MOL0     H39740   3.238   1.724   0.970  0.8802 -0.1416  0.1676
 1013MOL0     H39741   3.516   1.778   1.084  0.5108 -1.3040 -1.6614
 1013MOL0     H39742   3.467   1.615   1.056  2.3005 -0.9018 -2.5181
 1013MOL0     H39743   3.300   1.729   0.790 -0.7097  0.4528  0.8934
 1013MOL0     H39744   3.343   1.633   0.529  0.1725 -0.1146  1.1719
 1013MOL0     H39745   3.490   1.540   0.521 -0.3368 -0.4704  0.1479
 1013MOL0     H39746   3.617   1.712   0.420  0.3747  3.7606  1.8579
 1013MOL0     H39747   3.467   1.700   0.326  0.2232  0.9989 -0.3432
 1013MOL0     H39748   3.373   1.901   0.425 -0.7604 -1.8087 -1.3496
 1013MOL0     H39749   3.532   1.916   0.524  0.5123  1.0926 -0.6641
 1013MOL0     H39750   3.514   1.931   0.217 -0.2483  2.1525 -0.6469
 1013MOL0     H39751   3.535   2.057   0.331 -1.6018 -0.9669  2.1392
 1013MOL0     H39752   3.642   2.180   0.196 -0.5916 -1.1927  0.0798
 1013MOL0     H39753   3.864   2.373  -0.048  1.9774  1.4865  1.8893
 1013MOL0     H39754   3.757   2.426   0.080 -1.3767 -2.8890  3.5708
 1013MOL0     H39755   3.706   2.294  -0.034 -0.6927  0.9681 -0.6484
 1013MOL0     H39756   4.236   2.411  -0.151 -2.4237 -3.4303  0.9242
 1013MOL0     H39757   4.430   2.500  -0.222 -0.2630  1.4966  0.9049
 1013MOL0     H39758   4.630   2.434  -0.356 -0.1625  0.2089  0.3910
 1013MOL0     H39759   4.637   2.577  -0.251 -0.7857  1.4177 -3.0347
 1013MOL0     H39760   4.873   2.435  -0.389  4.2284  0.5477  1.8211
 1013MOL0     H39761   4.805   2.597  -0.393  0.0881  1.3023  1.7619
 1013MOL0     H39762   4.878   2.590  -0.138  0.5306  0.9676  0.3818
 1013MOL0     H39763   4.990   2.613  -0.270  0.3755 -0.0816  1.2735
 1013MOL0     H39764   5.078   2.377  -0.236  2.1893 -0.6706  2.6756
 1013MOL0     H39765   4.942   2.345  -0.133 -1.7980  0.6072 -3.8273
 1013MOL0     H39766   5.041   2.482   0.035 -2.2205 -1.9004  0.1511
 1013MOL0     H39767   5.152   2.368  -0.029  0.5862  0.0170 -0.9424
 1013MOL0     H39768   5.157   2.666  -0.072 -1.9443  0.4897 -1.3255
 1013MOL0     H39769   5.209   2.555  -0.198  1.8828 -2.6056  0.3003
 1013MOL0     H39770   5.323   2.530   0.087  0.3669  4.3387  1.6908
 1013MOL0     H39771   5.368   2.671  -0.011 -0.8355  0.2085 -1.5379
 1013MOL0     H39772   5.448   2.527  -0.190  3.1553 -0.0629  0.1224
 1013MOL0     H39773   5.423   2.385  -0.098  0.4761  0.2158  0.3965
 1013MOL0     H39774   4.654   2.204  -0.005  0.4259  0.6114  0.2695
 1013MOL0     H39775   4.433   2.110   0.091  4.9818  0.1958  1.8804
 1013MOL0     H39776   4.088   2.002   0.124  1.2988  0.9559 -1.2084
 1013MOL0     H39777   3.938   1.883   0.269  0.8691 -0.4583 -0.1091
 1013MOL0     H39778   2.447   1.814   1.741  0.4846  1.8661  0.2572
 1013MOL0     H39779   2.208   1.825   1.765  2.5066  0.4997  2.0754
 1013MOL0     H39780   1.843   2.161   1.608  1.7116 -0.4349  1.7772
 1013MOL0     H39781   1.601   2.202   1.591  1.1908 -0.3954 -2.0652
 1013MOL0     H39782   1.383   2.194   1.712 -1.8776  1.2993 -0.5754
 1013MOL0     H39783   1.383   2.156   1.537  2.0735 -1.0330 -0.2875
 1013MOL0     H39784   1.167   2.038   1.557  0.4263 -0.8838 -0.5675
 1013MOL0     H39785   1.144   2.198   1.605 -1.0497 -0.8049 -0.2273
 1013MOL0     H39786   1.195   1.951   1.776  4.4127  2.7260  1.2549
 1013MOL0     H39787   1.199   2.105   1.844 -0.0584 -1.0416 -0.2237
 1013MOL0     H39788   0.962   1.979   1.869  0.8637 -0.1177  0.4022
 1013MOL0     H39789   0.952   1.992   1.694  1.7072 -0.7803 -1.1830
 1013MOL0     H39790   0.900   2.406   1.813  1.0432  0.9825 -0.4577
 1013MOL0     H39791   1.532   1.789   1.701 -1.4469  0.6339  0.0345
 1013MOL0     H39792   1.848   1.679   1.614  3.2585  3.8393  0.6242
 1013MOL0     H39793   1.867   1.719   1.781  2.1584 -0.2286 -0.6431
 1013MOL0     H39794   1.714   1.646   1.720 -0.8054  0.5438 -0.4084
 1014MOL0     O39795  11.111   3.440   5.088  0.1224  0.2106 -0.3784
 1014MOL0     C39796  11.057   3.475   5.194 -0.9850 -0.9753  0.0373
 1014MOL0     O39797  11.073   3.601   5.251 -0.0478 -0.0655  0.1620
 1014MOL0     C39798  11.143   3.692   5.184 -0.5002  0.6369  0.3410
 1014MOL0     C39799  11.279   3.674   5.167  1.0047  0.1060  0.8651
 1014MOL0     C39800  11.357   3.776   5.101  0.3384  1.1443  0.2549
 1014MOL0     C39801  11.299   3.883   5.038  0.4295 -0.3357 -0.2244
 1014MOL0     O39802  11.366   3.985   4.964 -0.3611 -0.0002  0.0285
 1014MOL0     C39803  11.504   4.011   4.998  0.2743  0.3903  0.0492
 1014MOL0     C39804  11.568   4.072   4.864  0.2388 -0.0345  0.8377
 1014MOL0     C39805  11.714   4.115   4.880 -0.0672  0.6420 -0.5213
 1014MOL0     C39806  11.781   4.153   4.743  0.8119  0.2273 -0.3205
 1014MOL0     C39807  11.920   4.196   4.768 -0.4653 -0.9877 -0.1293
 1014MOL0     C39808  12.001   4.257   4.652 -0.5313  0.1196 -0.6941
 1014MOL0     C39809  11.969   4.404   4.625  0.7238 -0.0451  1.1418
 1014MOL0     C39810  12.023   4.434   4.480 -0.5802  0.3692 -0.0722
 1014MOL0     N39811  12.169   4.429   4.489  0.1593 -0.1623  0.9320
 1014MOL0     C39812  12.234   4.327   4.418  0.8218  0.1514  0.0887
 1014MOL0     C39813  12.364   4.347   4.443 -0.2631 -0.5464  1.1044
 1014MOL0     C39814  12.479   4.252   4.400  0.1012 -0.7120  0.0010
 1014MOL0     C39815  12.613   4.319   4.422  0.3399  0.6807  0.3030
 1014MOL0     C39816  12.720   4.231   4.356  0.9097  0.7990  0.5634
 1014MOL0     C39817  12.847   4.303   4.346 -0.5617 -0.1410  0.2088
 1014MOL0     O39818  12.929   4.291   4.471 -0.2778  0.2012 -0.0484
 1014MOL0     C39819  13.052   4.350   4.456 -0.7077  0.2233 -1.1812
 1014MOL0     C39820  13.108   4.409   4.339  0.7739 -1.1278  0.4269
 1014MOL0     C39821  13.240   4.464   4.346  0.0441 -0.1015 -0.3258
 1014MOL0     C39822  13.287   4.534   4.224  0.1142 -0.9110  0.1380
 1014MOL0     C39823  13.308   4.479   4.468  0.1520 -0.0020 -0.5449
 1014MOL0     C39824  13.434   4.548   4.490  0.0859  0.6349 -0.4108
 1014MOL0     O39825  13.478   4.546   4.619  0.1710 -0.0975 -0.2920
 1014MOL0     C39826  13.603   4.593   4.652  0.0020  0.0012 -0.2398
 1014MOL0     C39827  13.705   4.506   4.690  0.3892  0.1411 -0.7552
 1014MOL0     C39828  13.828   4.558   4.734  1.2831 -0.3152  0.4926
 1014MOL0     C39829  13.856   4.705   4.719  0.6440 -0.3564 -0.3806
 1014MOL0     O39830  13.973   4.759   4.776  1.1323  0.7686  0.5263
 1014MOL0     C39831  13.983   4.731   4.918 -0.7672  0.0391 -0.0726
 1014MOL0     C39832  14.121   4.766   4.968  0.2796 -0.2746  0.0943
 1014MOL0     C39833  14.222   4.681   4.893  0.2351 -0.2542 -0.0380
 1014MOL0     C39834  14.347   4.685   4.982  0.1645  0.2304 -0.4136
 1014MOL0     C39835  14.467   4.661   4.892 -0.1083  0.0180 -1.3093
 1014MOL0     C39836  14.597   4.648   4.978 -0.1995 -0.1957 -0.4594
 1014MOL0     C39837  14.718   4.601   4.904 -0.1283 -0.1386 -0.3644
 1014MOL0     C39838  14.839   4.598   5.001  0.2322  0.5604 -0.1173
 1014MOL0    Cl39839  14.988   4.516   4.926  0.4225 -0.1196  0.2773
 1014MOL0     C39840  13.749   4.784   4.669 -0.1889  0.3522 -0.8891
 1014MOL0     C39841  13.624   4.731   4.649  0.1750 -0.4771 -0.9852
 1014MOL0     O39842  13.493   4.602   4.396 -0.8827  0.8564 -0.7208
 1014MOL0     C39843  13.247   4.423   4.587 -0.1026  0.6415  0.0066
 1014MOL0     C39844  13.122   4.357   4.577  0.1878  0.0567  0.2561
 1014MOL0     N39845  12.371   4.468   4.518  0.1758  0.3168 -0.3039
 1014MOL0     N39846  12.254   4.510   4.555  0.0275  0.2404  0.2728
 1014MOL0     C39847  11.160   3.901   5.053  0.0719  0.0135 -0.1267
 1014MOL0     C39848  11.085   3.810   5.131  0.6593 -0.7593  0.1936
 1014MOL0     C39849  10.991   3.382   5.279 -0.0562  0.5244 -0.8938
 1014MOL0     C39850  10.945   3.431   5.402 -0.6291 -0.4363  0.0400
 1014MOL0     C39851  10.883   3.356   5.493 -0.2205 -0.6761 -0.4245
 1014MOL0     C39852  10.856   3.225   5.471  0.3300 -0.4965  0.9228
 1014MOL0     O39853  10.814   3.148   5.578 -0.3305 -0.4680 -0.2606
 1014MOL0     C39854  10.912   3.058   5.625  0.2728 -0.3856  0.4678
 1014MOL0     C39855  10.899   2.919   5.571  0.1355 -0.4672  0.4801
 1014MOL0     C39856  11.036   2.842   5.567 -0.6718  0.5122 -0.3075
 1014MOL0     C39857  11.020   2.690   5.552  0.4259 -0.3810 -0.1659
 1014MOL0     C39858  11.144   2.605   5.521  0.4695  0.1081 -0.2582
 1014MOL0     C39859  11.235   2.531   5.481 -0.0333 -0.3434  0.1739
 1014MOL0     C39860  10.892   3.164   5.347  0.5474  0.2128 -0.4577
 1014MOL0     C39861  10.961   3.243   5.252  0.9508  0.7546 -0.0887
 1014MOL0     C39862  10.984   3.181   5.110 -0.4572  0.0147 -0.7856
 1014MOL0     H39863  11.325   3.579   5.191 -1.5174 -1.1799  0.9289
 1014MOL0     H39864  11.464   3.761   5.091 -0.0561 -3.0361  0.3897
 1014MOL0     H39865  11.561   3.924   5.032  0.3003  0.6128  0.5825
 1014MOL0     H39866  11.509   4.089   5.074  0.4121 -0.0551  0.5010
 1014MOL0     H39867  11.551   3.996   4.787 -0.3636  1.3124 -0.4110
 1014MOL0     H39868  11.508   4.159   4.836  0.0084 -1.1922 -2.9020
 1014MOL0     H39869  11.718   4.199   4.951  0.0143 -1.8306  2.6277
 1014MOL0     H39870  11.773   4.036   4.927 -0.8585  1.6681  2.4373
 1014MOL0     H39871  11.783   4.075   4.667  0.8361  2.5872 -2.8925
 1014MOL0     H39872  11.727   4.235   4.694  2.8744  0.5614 -2.1493
 1014MOL0     H39873  11.983   4.111   4.796  1.3072  0.6605  1.1852
 1014MOL0     H39874  11.926   4.270   4.848 -2.1037 -1.4268  0.4404
 1014MOL0     H39875  12.101   4.259   4.696 -1.9586 -0.0517  2.9169
 1014MOL0     H39876  11.989   4.199   4.560 -0.5729  0.8183 -1.1349
 1014MOL0     H39877  12.010   4.475   4.697  0.3188  1.2034  0.1650
 1014MOL0     H39878  11.860   4.414   4.624  0.8623  2.0442 -0.8767
 1014MOL0     H39879  11.987   4.360   4.408 -0.5634  0.2624  0.0280
 1014MOL0     H39880  11.993   4.534   4.449  3.2072  2.6320  2.7635
 1014MOL0     H39881  12.190   4.242   4.367  1.2567 -0.4080  0.6302
 1014MOL0     H39882  12.463   4.227   4.295  0.6357 -1.3839  0.0734
 1014MOL0     H39883  12.477   4.165   4.466 -2.0134  0.9282  2.3112
 1014MOL0     H39884  12.615   4.418   4.377 -2.7031  0.1363 -1.3226
 1014MOL0     H39885  12.626   4.329   4.530  1.0431 -0.2640  0.3222
 1014MOL0     H39886  12.739   4.141   4.416  1.3674 -0.3685 -1.2300
 1014MOL0     H39887  12.686   4.198   4.257  0.5454 -0.2927  1.0319
 1014MOL0     H39888  12.906   4.261   4.264 -1.1293  2.9579 -1.9347
 1014MOL0     H39889  12.832   4.408   4.322  0.8547 -0.2316 -1.2703
 1014MOL0     H39890  13.057   4.403   4.243  0.3901  1.7088  0.3793
 1014MOL0     H39891  13.224   4.506   4.139  0.7645 -1.3914 -0.2028
 1014MOL0     H39892  13.384   4.485   4.209  0.8420  0.6863 -0.5876
 1014MOL0     H39893  13.299   4.642   4.232 -0.2838 -0.8062 -0.6477
 1014MOL0     H39894  13.685   4.400   4.695  4.3965 -0.7287  0.5444
 1014MOL0     H39895  13.894   4.482   4.775  1.4153 -0.8578 -0.6936
 1014MOL0     H39896  13.921   4.783   4.992  1.1277  2.5811 -0.1417
 1014MOL0     H39897  13.959   4.627   4.941 -1.7803  0.1956 -0.3586
 1014MOL0     H39898  14.152   4.870   4.960  0.0420 -0.3559 -2.6208
 1014MOL0     H39899  14.126   4.746   5.076  0.3292  1.1716  0.3724
 1014MOL0     H39900  14.255   4.726   4.799  0.9612 -1.3342 -0.3175
 1014MOL0     H39901  14.178   4.582   4.879  0.4401 -0.5559  1.2675
 1014MOL0     H39902  14.346   4.609   5.060  1.3417 -3.0947 -3.3837
 1014MOL0     H39903  14.370   4.788   5.011  0.7487  0.8286 -2.8020
 1014MOL0     H39904  14.459   4.564   4.842 -0.2819 -0.1295 -0.9997
 1014MOL0     H39905  14.474   4.748   4.826  3.7959  0.7903 -0.1483
 1014MOL0     H39906  14.586   4.568   5.052 -1.0880 -0.5042 -0.9207
 1014MOL0     H39907  14.618   4.747   5.021  2.9966 -0.6559 -0.7163
 1014MOL0     H39908  14.740   4.667   4.820  1.0566 -0.7956 -0.5975
 1014MOL0     H39909  14.701   4.503   4.858 -1.1081  0.1882 -0.7228
 1014MOL0     H39910  14.806   4.535   5.084  0.0448  2.8274  1.6391
 1014MOL0     H39911  14.861   4.700   5.035 -1.6903  1.0378 -0.2167
 1014MOL0     H39912  13.767   4.891   4.666 -0.0483  0.3465 -0.4288
 1014MOL0     H39913  13.538   4.798   4.646  0.4794 -0.0113  0.1588
 1014MOL0     H39914  13.279   4.436   4.690 -0.5211 -2.6529  0.6733
 1014MOL0     H39915  13.076   4.318   4.667 -1.8914 -1.4450 -1.3590
 1014MOL0     H39916  11.109   3.984   5.004  0.4014 -0.9659 -2.2638
 1014MOL0     H39917  10.980   3.827   5.150  0.4706 -3.0159  1.4170
 1014MOL0     H39918  10.941   3.535   5.432 -1.2892  0.4125 -2.6337
 1014MOL0     H39919  10.841   3.399   5.583  0.4960 -0.0680 -0.3758
 1014MOL0     H39920  11.004   3.105   5.588 -0.4926  0.4258 -0.4763
 1014MOL0     H39921  10.922   3.053   5.734 -1.4312 -2.0028  0.6160
 1014MOL0     H39922  10.860   2.913   5.469 -1.9445 -0.9089  1.2574
 1014MOL0     H39923  10.822   2.867   5.629  1.4966 -1.3887  1.5359
 1014MOL0     H39924  11.095   2.888   5.487 -0.6110 -0.2383 -0.7002
 1014MOL0     H39925  11.083   2.857   5.665 -2.5632 -1.4315  0.9837
 1014MOL0     H39926  10.953   2.683   5.466 -0.2129 -1.2755  0.3871
 1014MOL0     H39927  10.965   2.639   5.632 -0.9651 -1.5697 -1.8330
 1014MOL0     H39928  11.306   2.454   5.458 -1.7120 -3.4406  4.2409
 1014MOL0     H39929  10.854   3.065   5.325 -2.6346  1.3723 -0.7568
 1014MOL0     H39930  10.961   3.074   5.109 -3.1859  0.4543  1.4095
 1014MOL0     H39931  10.911   3.233   5.047 -0.5213  0.3224 -0.4571
 1014MOL0     H39932  11.089   3.190   5.079 -0.0218 -1.4464  0.1667
 1015MOL0     O39933   4.925  10.541   1.504 -0.3376 -0.0000 -0.5058
 1015MOL0     C39934   4.870  10.455   1.573 -1.1246 -0.1399  0.7483
 1015MOL0     O39935   4.854  10.461   1.703  0.0148 -0.0489 -0.4137
 1015MOL0     C39936   4.897  10.571   1.768 -0.2998  1.0825 -0.3322
 1015MOL0     C39937   4.815  10.683   1.770 -0.0067 -0.2373  0.4123
 1015MOL0     C39938   4.849  10.793   1.844  0.3713 -0.5498 -0.0090
 1015MOL0     C39939   4.974  10.798   1.904 -1.6239 -0.3824  0.2158
 1015MOL0     O39940   5.017  10.911   1.967  0.2093 -0.6650  0.4240
 1015MOL0     C39941   5.002  11.043   1.905  0.5867  0.5306  0.5774
 1015MOL0     C39942   5.056  11.158   1.994 -0.0681  0.4156 -0.0269
 1015MOL0     C39943   5.118  11.268   1.903  0.0464  0.0900 -0.0659
 1015MOL0     C39944   5.158  11.384   1.988 -0.6961  0.5818 -0.5295
 1015MOL0     C39945   5.211  11.497   1.896  0.5149 -0.0859  0.3061
 1015MOL0     C39946   5.316  11.446   1.790  0.2228  0.0491 -0.0221
 1015MOL0     C39947   5.383  11.559   1.706 -0.1594 -0.2045  0.4608
 1015MOL0     C39948   5.530  11.569   1.733 -0.0243  0.3764 -0.6742
 1015MOL0     N39949   5.554  11.611   1.884 -0.3355  0.5009  0.4593
 1015MOL0     C39950   5.537  11.551   2.007  0.1375 -0.1293 -0.4133
 1015MOL0     C39951   5.591  11.636   2.096 -0.7446  0.5756 -0.1006
 1015MOL0     C39952   5.583  11.630   2.247  0.0624  0.0435  0.1565
 1015MOL0     C39953   5.452  11.683   2.298  0.9174  0.3344  0.0246
 1015MOL0     C39954   5.353  11.565   2.322  0.0806  0.8661  0.7439
 1015MOL0     C39955   5.212  11.576   2.269  0.5322 -0.3591  0.1905
 1015MOL0     O39956   5.130  11.458   2.299  0.0128  0.2903 -0.1391
 1015MOL0     C39957   4.993  11.481   2.308  0.7070  0.4468  0.4717
 1015MOL0     C39958   4.922  11.439   2.428 -0.2470 -0.7341  0.0034
 1015MOL0     C39959   4.782  11.465   2.451 -1.1014  0.3423  0.3476
 1015MOL0     C39960   4.718  11.411   2.575 -0.2101  0.5538  0.5828
 1015MOL0     C39961   4.718  11.534   2.346 -0.5648  0.0625 -0.7180
 1015MOL0     C39962   4.577  11.575   2.353 -0.4785 -0.3730 -0.4480
 1015MOL0     O39963   4.558  11.691   2.278 -0.2796  0.1177  0.0127
 1015MOL0     C39964   4.440  11.769   2.281 -0.3475 -0.3253 -0.1835
 1015MOL0     C39965   4.456  11.896   2.229 -0.3543 -0.2873 -0.6059
 1015MOL0     C39966   4.345  11.981   2.213 -0.1044  0.2078  0.1488
 1015MOL0     C39967   4.217  11.948   2.248 -0.1524 -0.4008 -0.2363
 1015MOL0     O39968   4.110  12.034   2.228  0.5412 -0.8067  0.3268
 1015MOL0     C39969   3.982  12.006   2.287  0.1620  0.7482 -0.8583
 1015MOL0     C39970   3.878  12.121   2.271  0.1702  0.3574 -0.5236
 1015MOL0     C39971   3.851  12.143   2.124 -0.7063  0.3488 -0.0258
 1015MOL0     C39972   3.741  12.242   2.115 -0.5420 -0.2812 -0.8799
 1015MOL0     C39973   3.701  12.279   1.979 -0.2636 -0.0667 -0.8558
 1015MOL0     C39974   3.675  12.167   1.884 -0.3855  0.4693  0.1960
 1015MOL0     C39975   3.550  12.078   1.922  0.3869  0.3164  0.0148
 1015MOL0     C39976   3.516  11.980   1.816  0.1142  0.5792 -0.0170
 1015MOL0    Cl39977   3.642  11.855   1.842  0.2053 -0.2452  0.2220
 1015MOL0     C39978   4.201  11.822   2.304 -0.3426  0.5551 -0.8355
 1015MOL0     C39979   4.307  11.735   2.326  0.0800  0.1441 -0.0894
 1015MOL0     O39980   4.492  11.500   2.397 -0.5659 -0.4887  0.4432
 1015MOL0     C39981   4.792  11.578   2.234  0.0182  0.0944 -0.3929
 1015MOL0     C39982   4.923  11.551   2.211  0.4065 -0.5942  0.0564
 1015MOL0     N39983   5.646  11.744   2.024  1.0819 -0.1868  0.2609
 1015MOL0     N39984   5.616  11.731   1.902 -0.7412 -1.0399  0.5531
 1015MOL0     C39985   5.063  10.691   1.905 -0.3154  0.2473  0.5440
 1015MOL0     C39986   5.024  10.574   1.833  0.5378 -0.2773 -0.1608
 1015MOL0     C39987   4.825  10.337   1.484  0.2451 -0.0589  0.7183
 1015MOL0     C39988   4.912  10.298   1.375  0.3612 -0.1012  0.6039
 1015MOL0     C39989   4.882  10.193   1.289  0.3632 -0.2951  0.9393
 1015MOL0     C39990   4.770  10.110   1.308  0.5159 -0.3735  0.0793
 1015MOL0     O39991   4.721  10.013   1.218  0.0150 -0.7350 -1.2428
 1015MOL0     C39992   4.818   9.934   1.158 -0.9385 -0.6737  0.7091
 1015MOL0     C39993   4.897   9.862   1.268 -0.7653 -0.1308  0.0189
 1015MOL0     C39994   5.018   9.770   1.206  0.4865 -0.4128 -0.8609
 1015MOL0     C39995   5.107   9.715   1.311 -0.1252  0.5634 -0.6116
 1015MOL0     C39996   5.215   9.810   1.335 -0.0279 -0.1096 -0.4111
 1015MOL0     C39997   5.311   9.886   1.350  0.1778  1.1616 -0.2581
 1015MOL0     C39998   4.684  10.152   1.410 -0.4198 -0.1693  0.2144
 1015MOL0     C39999   4.710  10.263   1.497  0.4384  0.1553 -0.1885
 1015MOL0     C40000   4.603  10.288   1.599  0.1234  0.2004  0.2529
 1015MOL0     H40001   4.726  10.692   1.708 -0.0605  0.2932  0.5564
 1015MOL0     H40002   4.782  10.879   1.844  0.5612 -0.3894 -0.9936
 1015MOL0     H40003   4.895  11.055   1.884  1.1224  2.1183 -1.6778
 1015MOL0     H40004   5.049  11.041   1.806 -0.5181 -2.6539  0.0302
 1015MOL0     H40005   4.977  11.197   2.059 -0.4395 -0.7061  0.2316
 1015MOL0     H40006   5.130  11.113   2.061 -0.8568 -0.9090 -0.0079
 1015MOL0     H40007   5.202  11.226   1.847 -0.5758  0.1044 -1.0355
 1015MOL0     H40008   5.041  11.294   1.830  0.4007  0.7105 -0.2214
 1015MOL0     H40009   5.070  11.419   2.043 -0.2886 -0.8102  1.1042
 1015MOL0     H40010   5.240  11.354   2.055  1.7453  5.6290 -0.7601
 1015MOL0     H40011   5.255  11.579   1.954  0.4324 -0.2323  0.5808
 1015MOL0     H40012   5.124  11.543   1.850  0.9666 -0.2516 -0.7488
 1015MOL0     H40013   5.398  11.392   1.839  2.1753  3.2046  0.5117
 1015MOL0     H40014   5.257  11.383   1.724 -3.2443  0.5416  2.3315
 1015MOL0     H40015   5.345  11.660   1.727 -0.0302  0.7443 -3.1186
 1015MOL0     H40016   5.370  11.546   1.598 -3.1548 -0.8173  0.8023
 1015MOL0     H40017   5.570  11.470   1.710 -1.1158  0.6057 -4.0754
 1015MOL0     H40018   5.570  11.644   1.664 -0.8917  0.8050 -0.7247
 1015MOL0     H40019   5.482  11.463   2.036 -0.3398  0.3562  0.1751
 1015MOL0     H40020   5.667  11.690   2.283  0.8097 -2.0842  2.2523
 1015MOL0     H40021   5.597  11.526   2.276 -4.2165 -0.9366 -0.6024
 1015MOL0     H40022   5.458  11.734   2.395 -0.1974  0.4500  0.0532
 1015MOL0     H40023   5.411  11.760   2.232 -0.7476 -0.7178 -0.2431
 1015MOL0     H40024   5.381  11.471   2.275 -0.0625  0.3064  1.7561
 1015MOL0     H40025   5.347  11.545   2.429  1.2478  1.1899  0.8935
 1015MOL0     H40026   5.173  11.662   2.324 -0.7674  0.2182 -1.5635
 1015MOL0     H40027   5.213  11.596   2.162 -3.4633 -0.0796  0.0771
 1015MOL0     H40028   4.984  11.383   2.496  0.5834  1.3670  1.0569
 1015MOL0     H40029   4.777  11.329   2.619 -1.3499 -2.5058 -2.9969
 1015MOL0     H40030   4.620  11.369   2.549 -1.4909  2.3208  2.2854
 1015MOL0     H40031   4.706  11.493   2.645  0.4822  2.1943 -1.1302
 1015MOL0     H40032   4.555  11.911   2.186  1.5423 -4.9284  1.4489
 1015MOL0     H40033   4.365  12.081   2.175  3.0295  0.1796  1.4500
 1015MOL0     H40034   3.950  11.916   2.234  0.7305  0.7740 -1.2435
 1015MOL0     H40035   3.999  11.981   2.392  0.3572 -2.7538 -1.6115
 1015MOL0     H40036   3.786  12.113   2.329  0.1970  5.3657  0.6523
 1015MOL0     H40037   3.921  12.207   2.323  0.5051 -1.9660  3.4465
 1015MOL0     H40038   3.834  12.047   2.074 -0.8682  0.6125 -0.4785
 1015MOL0     H40039   3.945  12.170   2.074  1.2351 -0.4906  2.8616
 1015MOL0     H40040   3.779  12.332   2.164 -1.1498 -0.9590  0.8894
 1015MOL0     H40041   3.655  12.209   2.172  0.0848  0.9023  0.8536
 1015MOL0     H40042   3.610  12.338   1.989  0.5960  0.9338  2.2026
 1015MOL0     H40043   3.776  12.351   1.944  1.0786  1.2420  3.9900
 1015MOL0     H40044   3.751  12.089   1.880 -0.7055  0.2105 -0.9737
 1015MOL0     H40045   3.658  12.213   1.786  2.4461  3.1932  0.8083
 1015MOL0     H40046   3.456  12.132   1.939 -0.8174 -1.8921  0.7219
 1015MOL0     H40047   3.572  12.037   2.021  2.5528 -0.1553 -0.6057
 1015MOL0     H40048   3.521  12.027   1.717  0.0941 -0.2438 -0.4160
 1015MOL0     H40049   3.417  11.934   1.824 -0.5799  2.1377  0.7909
 1015MOL0     H40050   4.107  11.796   2.351  0.7586  3.2675  3.4360
 1015MOL0     H40051   4.289  11.638   2.372 -0.6633  1.4085  2.4979
 1015MOL0     H40052   4.735  11.622   2.152 -3.8992  0.1206  2.0891
 1015MOL0     H40053   4.972  11.586   2.121 -0.2433 -1.5719 -0.6902
 1015MOL0     H40054   5.158  10.705   1.957 -0.1298 -1.1733  0.6088
 1015MOL0     H40055   5.088  10.485   1.833 -0.6707 -1.3778 -4.3076
 1015MOL0     H40056   5.010  10.344   1.369  1.0654 -1.5042  0.8937
 1015MOL0     H40057   4.949  10.162   1.210 -1.9092 -2.0100 -0.4177
 1015MOL0     H40058   4.767   9.857   1.100 -0.2941 -1.3169  0.9779
 1015MOL0     H40059   4.891   9.977   1.089 -2.3979 -0.0527 -0.4907
 1015MOL0     H40060   4.825   9.806   1.328 -2.6682  1.4960 -0.6500
 1015MOL0     H40061   4.944   9.931   1.339  0.1889 -1.6602  0.9435
 1015MOL0     H40062   4.959   9.690   1.161 -0.6016  0.5906 -1.2561
 1015MOL0     H40063   5.083   9.809   1.127 -0.0049 -0.0007 -1.0699
 1015MOL0     H40064   5.150   9.619   1.282  0.4051 -0.5473  3.3172
 1015MOL0     H40065   5.050   9.700   1.403  2.0576 -0.5582  0.6494
 1015MOL0     H40066   5.394   9.945   1.382  0.9012 -0.6510  1.3870
 1015MOL0     H40067   4.594  10.093   1.403  0.6314 -1.6492 -1.8637
 1015MOL0     H40068   4.529  10.361   1.564 -1.9917 -1.5313  0.9263
 1015MOL0     H40069   4.542  10.198   1.607  0.9840 -0.3151  1.3830
 1015MOL0     H40070   4.641  10.323   1.696  1.0257  2.9057 -0.9685
 1016MOL0     O40071   8.471   0.464   5.586 -0.2869  0.3412 -0.4464
 1016MOL0     C40072   8.519   0.502   5.476  0.0197 -0.6688 -0.0819
 1016MOL0     O40073   8.632   0.588   5.458 -0.0986  0.5647  0.8141
 1016MOL0     C40074   8.696   0.640   5.565  0.3000 -0.0774  0.4051
 1016MOL0     C40075   8.741   0.561   5.669  0.1437  0.3459 -0.5011
 1016MOL0     C40076   8.787   0.613   5.796 -0.5046 -1.1484  0.5404
 1016MOL0     C40077   8.788   0.754   5.812  0.2396 -0.1026  0.1605
 1016MOL0     O40078   8.824   0.801   5.941  1.0483 -0.4927  0.0001
 1016MOL0     C40079   8.810   0.941   5.973  0.9504  0.0148  0.0100
 1016MOL0     C40080   8.923   1.017   5.909 -0.0311 -0.2465  0.0480
 1016MOL0     C40081   9.050   0.993   5.997 -0.8961  0.8642  0.2306
 1016MOL0     C40082   9.158   1.094   5.981  0.4013  0.1933 -0.3357
 1016MOL0     C40083   9.289   1.055   6.043  0.6015 -0.1951 -0.3086
 1016MOL0     C40084   9.411   1.141   6.011 -0.3696  0.8560 -0.7743
 1016MOL0     C40085   9.533   1.070   6.068  0.0620 -0.1089  0.5195
 1016MOL0     C40086   9.664   1.144   6.029 -0.2168  1.3160  0.2678
 1016MOL0     N40087   9.657   1.281   6.081 -0.1646  0.1712 -0.6603
 1016MOL0     C40088   9.628   1.396   6.015  0.2165  0.1271  0.1837
 1016MOL0     C40089   9.597   1.495   6.109 -0.1040 -0.0606  0.2431
 1016MOL0     C40090   9.547   1.639   6.082 -0.4091  0.3331  0.7763
 1016MOL0     C40091   9.662   1.734   6.039 -0.4547 -0.1492 -0.7639
 1016MOL0     C40092   9.694   1.722   5.882  0.2522  0.7143 -0.2278
 1016MOL0     C40093   9.781   1.819   5.820 -0.6540 -0.0682  0.5399
 1016MOL0     O40094   9.799   1.799   5.679 -0.4974  0.3979  0.2163
 1016MOL0     C40095   9.838   1.902   5.596 -1.2711  0.2016 -0.4251
 1016MOL0     C40096   9.863   1.881   5.459 -0.4299 -0.0433  0.8394
 1016MOL0     C40097   9.897   1.988   5.364  0.0052 -0.2889  0.3789
 1016MOL0     C40098   9.908   1.968   5.213  0.3100 -0.6591  0.1576
 1016MOL0     C40099   9.917   2.111   5.421 -0.5175 -0.8174  0.8632
 1016MOL0     C40100   9.971   2.223   5.345 -0.6373 -0.2209  0.0441
 1016MOL0     O40101   9.896   2.333   5.356  0.2284 -0.2357 -0.3202
 1016MOL0     C40102   9.948   2.449   5.316  0.0418 -0.6859  0.2565
 1016MOL0     C40103   9.897   2.516   5.203 -0.2724 -0.3564 -0.6851
 1016MOL0     C40104   9.954   2.642   5.170 -0.1502 -0.7658  0.6660
 1016MOL0     C40105  10.040   2.707   5.249  0.2212 -0.7042 -0.0096
 1016MOL0     O40106  10.085   2.833   5.208  0.8241 -0.6192  0.4416
 1016MOL0     C40107  10.227   2.828   5.174 -0.2007 -0.9554 -0.0674
 1016MOL0     C40108  10.262   2.751   5.040  0.1262 -0.2119  0.7023
 1016MOL0     C40109  10.289   2.607   5.084 -0.1247  0.1998  0.5603
 1016MOL0     C40110  10.308   2.516   4.957 -0.7215 -0.4363  0.3167
 1016MOL0     C40111  10.445   2.516   4.878  0.0998 -0.2837  0.1484
 1016MOL0     C40112  10.437   2.424   4.759 -0.9033  0.0781  0.5030
 1016MOL0     C40113  10.314   2.437   4.667 -0.1850 -0.0977  0.4834
 1016MOL0     C40114  10.312   2.576   4.591  0.1507  0.3145  0.0464
 1016MOL0    Cl40115  10.149   2.613   4.515 -0.8522 -0.2397  0.0457
 1016MOL0     C40116  10.096   2.636   5.360 -0.5142  0.8005 -0.2386
 1016MOL0     C40117  10.043   2.508   5.396  0.0370 -0.2873 -0.6619
 1016MOL0     O40118  10.068   2.210   5.275  0.2850  0.0855  0.3980
 1016MOL0     C40119   9.903   2.132   5.559 -0.3105 -0.1853  0.4603
 1016MOL0     C40120   9.850   2.036   5.641  0.2877 -0.4297 -0.8654
 1016MOL0     N40121   9.601   1.436   6.235  0.5093 -0.1822  0.1959
 1016MOL0     N40122   9.641   1.311   6.216  0.2623  0.0789  0.0487
 1016MOL0     C40123   8.744   0.836   5.697 -0.5513  0.6306 -0.0623
 1016MOL0     C40124   8.698   0.778   5.578  0.6788 -0.3347 -0.5439
 1016MOL0     C40125   8.462   0.435   5.352  0.7619 -0.7882  0.1278
 1016MOL0     C40126   8.488   0.511   5.235 -0.0273  0.2370  0.3975
 1016MOL0     C40127   8.442   0.462   5.109 -0.5504 -0.2864  0.1280
 1016MOL0     C40128   8.357   0.352   5.102 -0.9272  0.0635 -0.6266
 1016MOL0     O40129   8.284   0.314   4.991 -0.1036 -0.6824  0.2726
 1016MOL0     C40130   8.351   0.339   4.869 -0.2918  0.0622 -0.4943
 1016MOL0     C40131   8.320   0.235   4.758  0.0044 -0.9214 -0.1033
 1016MOL0     C40132   8.346   0.286   4.617 -0.3076  0.6413  0.4361
 1016MOL0     C40133   8.326   0.179   4.512 -0.5831 -0.6455  0.3501
 1016MOL0     C40134   8.415   0.059   4.531 -1.0041 -0.6265  0.0909
 1016MOL0     C40135   8.493  -0.039   4.545 -0.7710 -0.4811  1.3410
 1016MOL0     C40136   8.337   0.277   5.216  1.0144  0.0763  0.4333
 1016MOL0     C40137   8.393   0.307   5.345  0.5404 -0.3918  0.2095
 1016MOL0     C40138   8.357   0.204   5.453  0.4784  0.1166  0.0550
 1016MOL0     H40139   8.726   0.455   5.651 -3.0182  0.4509  0.8920
 1016MOL0     H40140   8.826   0.552   5.876  1.1860  1.3286  1.7129
 1016MOL0     H40141   8.793   0.957   6.080  1.4112  0.3593  0.0349
 1016MOL0     H40142   8.715   0.961   5.925  2.2410  1.3376 -2.1541
 1016MOL0     H40143   8.946   0.987   5.807 -0.6877  0.2363 -0.2503
 1016MOL0     H40144   8.906   1.125   5.904  0.6281 -0.1936 -1.4289
 1016MOL0     H40145   9.018   0.988   6.101  0.0718 -1.2813  0.4634
 1016MOL0     H40146   9.086   0.893   5.973 -2.0742  0.3622  0.4797
 1016MOL0     H40147   9.181   1.098   5.874 -0.5906 -1.2463 -0.6366
 1016MOL0     H40148   9.131   1.190   6.025  0.1725 -1.0708  2.5407
 1016MOL0     H40149   9.312   0.959   5.998 -0.7601 -0.7642  0.1779
 1016MOL0     H40150   9.271   1.029   6.148 -2.5248  0.8579 -0.4846
 1016MOL0     H40151   9.427   1.160   5.905 -1.3541  0.5572 -0.9831
 1016MOL0     H40152   9.405   1.236   6.065  3.4242 -0.3326  2.2115
 1016MOL0     H40153   9.524   0.965   6.040  2.7895 -0.3123  0.1656
 1016MOL0     H40154   9.531   1.070   6.177 -0.4948  2.6659  0.5853
 1016MOL0     H40155   9.747   1.085   6.068  1.6067  1.3826 -3.2223
 1016MOL0     H40156   9.676   1.148   5.921  1.3013  2.5712  0.4482
 1016MOL0     H40157   9.631   1.406   5.907 -1.8741  3.9109  0.3009
 1016MOL0     H40158   9.519   1.682   6.178  3.1348 -0.1990  2.1674
 1016MOL0     H40159   9.471   1.649   6.004 -0.0328 -0.9322  0.2214
 1016MOL0     H40160   9.641   1.840   6.056 -0.4565 -0.3293  0.4526
 1016MOL0     H40161   9.752   1.721   6.101 -1.9231 -2.8113  1.0007
 1016MOL0     H40162   9.733   1.621   5.867  0.0681  0.1655  2.5046
 1016MOL0     H40163   9.601   1.730   5.824 -0.0793  1.2866  0.3715
 1016MOL0     H40164   9.736   1.918   5.835  3.6310  2.2109 -0.0216
 1016MOL0     H40165   9.875   1.807   5.874 -0.9387 -1.6249  0.7251
 1016MOL0     H40166   9.857   1.779   5.420 -0.7223 -0.2288  1.3597
 1016MOL0     H40167  10.012   1.949   5.182  0.4928 -3.4205  2.0754
 1016MOL0     H40168   9.867   2.059   5.168 -2.2302 -1.9139 -0.1826
 1016MOL0     H40169   9.851   1.879   5.186 -0.6520 -0.8655  2.6362
 1016MOL0     H40170   9.823   2.478   5.135 -0.5427  0.4954 -0.8779
 1016MOL0     H40171   9.937   2.694   5.076 -2.3007 -0.6321  1.0754
 1016MOL0     H40172  10.257   2.932   5.159  0.5431 -1.4034 -2.0726
 1016MOL0     H40173  10.286   2.792   5.259 -1.9558 -2.4321  0.5946
 1016MOL0     H40174  10.188   2.777   4.964 -0.1345  0.8959  1.3076
 1016MOL0     H40175  10.357   2.791   5.004 -0.1023 -1.8451 -1.9896
 1016MOL0     H40176  10.206   2.566   5.143  0.4634 -2.6176 -0.3713
 1016MOL0     H40177  10.377   2.590   5.147  1.3056 -5.3150 -2.2804
 1016MOL0     H40178  10.224   2.549   4.895 -0.8242 -1.7491 -0.2815
 1016MOL0     H40179  10.285   2.412   4.983  0.8383 -0.7233  0.6027
 1016MOL0     H40180  10.484   2.615   4.849  2.2859  0.9000  5.7278
 1016MOL0     H40181  10.514   2.479   4.955  2.2724 -0.7095 -1.8701
 1016MOL0     H40182  10.430   2.327   4.809 -0.7887  0.1779  0.7153
 1016MOL0     H40183  10.534   2.419   4.710 -0.3324 -3.5052  1.7408
 1016MOL0     H40184  10.216   2.423   4.712 -0.3833 -0.3822 -0.0372
 1016MOL0     H40185  10.321   2.358   4.592 -0.2351 -2.0925  2.5018
 1016MOL0     H40186  10.391   2.587   4.516 -2.8021  0.6480 -3.2835
 1016MOL0     H40187  10.325   2.660   4.660 -1.2771 -0.4635  1.3403
 1016MOL0     H40188  10.173   2.668   5.430 -1.6684  1.0385  0.9435
 1016MOL0     H40189  10.081   2.451   5.480 -1.9273 -2.7680 -1.3341
 1016MOL0     H40190   9.937   2.230   5.592  2.8588 -0.2072 -2.2407
 1016MOL0     H40191   9.841   2.070   5.743  1.1743 -0.2366 -0.8463
 1016MOL0     H40192   8.733   0.944   5.702 -1.5367  0.4857  3.1067
 1016MOL0     H40193   8.664   0.848   5.502 -1.4211 -0.0558  0.5647
 1016MOL0     H40194   8.543   0.604   5.244 -0.1040  0.2044  1.3042
 1016MOL0     H40195   8.456   0.515   5.015 -2.1716  1.0979  0.6120
 1016MOL0     H40196   8.317   0.438   4.837  0.5129  0.8940  1.0786
 1016MOL0     H40197   8.460   0.344   4.880 -0.3507 -0.1746  0.2823
 1016MOL0     H40198   8.214   0.209   4.764 -0.7188  0.8603 -2.9721
 1016MOL0     H40199   8.368   0.138   4.772 -0.1339 -0.9105  0.4720
 1016MOL0     H40200   8.282   0.373   4.599 -1.5316 -0.0966  1.0572
 1016MOL0     H40201   8.445   0.333   4.618 -0.1567  0.3424  0.0232
 1016MOL0     H40202   8.351   0.210   4.410 -2.7812  0.7119  0.1601
 1016MOL0     H40203   8.222   0.145   4.506  0.3504 -3.5768 -1.5340
 1016MOL0     H40204   8.557  -0.124   4.533 -2.1965 -1.4108 -0.0945
 1016MOL0     H40205   8.284   0.184   5.202 -0.6557  0.6728  2.2803
 1016MOL0     H40206   8.416   0.230   5.542 -0.6720  0.1694  0.8316
 1016MOL0     H40207   8.250   0.222   5.470  0.9749  1.6557  1.9114
 1016MOL0     H40208   8.369   0.102   5.416  2.7963 -0.9847  3.3965
 1017MOL0     O40209   4.263   6.962   5.993  0.0483  0.2502 -0.6051
 1017MOL0     C40210   4.316   6.869   5.936 -0.4131  0.0752  0.4684
 1017MOL0     O40211   4.414   6.883   5.835 -0.1027 -0.5313  0.2082
 1017MOL0     C40212   4.427   7.004   5.771  0.4626  0.0390 -0.4553
 1017MOL0     C40213   4.328   7.101   5.764 -0.2948  0.1819 -0.9986
 1017MOL0     C40214   4.341   7.210   5.682  1.0160 -1.0664 -0.3603
 1017MOL0     C40215   4.466   7.233   5.615  0.5432  0.3196  0.6256
 1017MOL0     O40216   4.474   7.342   5.536 -0.2076  0.1301 -0.2161
 1017MOL0     C40217   4.420   7.467   5.575 -0.1328 -0.1279  0.3023
 1017MOL0     C40218   4.512   7.574   5.522  0.4097  0.8615 -0.1593
 1017MOL0     C40219   4.646   7.586   5.610  0.7153  0.0166  0.5438
 1017MOL0     C40220   4.731   7.694   5.540 -0.7672  0.0968  0.5187
 1017MOL0     C40221   4.867   7.691   5.612  0.4029 -0.4359 -0.0550
 1017MOL0     C40222   4.969   7.773   5.534 -1.4400 -0.0230  0.3580
 1017MOL0     C40223   5.105   7.791   5.610  0.4318  0.0144 -0.0050
 1017MOL0     C40224   5.201   7.871   5.527 -0.6686  0.0704 -0.3527
 1017MOL0     N40225   5.295   7.934   5.621  0.1830 -0.0606  0.6039
 1017MOL0     C40226   5.414   7.884   5.654 -0.5678 -0.3878  0.2122
 1017MOL0     C40227   5.477   7.986   5.722 -0.0968  0.0509  0.5916
 1017MOL0     C40228   5.614   7.981   5.785 -0.4340  1.1812  0.1993
 1017MOL0     C40229   5.719   8.064   5.709  0.3418  0.3608 -0.6004
 1017MOL0     C40230   5.849   8.003   5.750 -0.4890  0.3109  0.3263
 1017MOL0     C40231   5.958   8.084   5.681  0.1921 -0.1374 -0.7335
 1017MOL0     O40232   5.948   8.089   5.542 -0.4096 -0.7618 -0.6069
 1017MOL0     C40233   6.055   8.147   5.481 -0.8554  0.8942 -0.1020
 1017MOL0     C40234   6.077   8.136   5.346  0.1935 -0.3239  0.2102
 1017MOL0     C40235   6.192   8.183   5.272  0.1991 -0.7691 -0.8163
 1017MOL0     C40236   6.189   8.167   5.118 -0.8697  0.0940 -0.0344
 1017MOL0     C40237   6.297   8.240   5.349  0.4438  0.2188 -0.0192
 1017MOL0     C40238   6.430   8.293   5.302  0.0696  0.0255  0.1966
 1017MOL0     O40239   6.446   8.333   5.168  0.8274  0.5067 -1.1249
 1017MOL0     C40240   6.570   8.352   5.134 -0.4620 -0.1857  0.7326
 1017MOL0     C40241   6.610   8.250   5.054  0.5982 -1.1907  0.2716
 1017MOL0     C40242   6.735   8.265   4.993 -0.4464 -0.4906  0.1826
 1017MOL0     C40243   6.820   8.368   5.011  0.1446 -0.5650 -0.2415
 1017MOL0     O40244   6.941   8.390   4.947 -0.8466 -0.4734  0.0795
 1017MOL0     C40245   6.930   8.385   4.798  0.6420 -0.1190  0.3321
 1017MOL0     C40246   7.065   8.382   4.731 -0.9716  0.3287  0.1258
 1017MOL0     C40247   7.173   8.484   4.780  0.2240 -0.0325  0.1451
 1017MOL0     C40248   7.290   8.402   4.858 -0.3118 -0.5897  0.5881
 1017MOL0     C40249   7.364   8.509   4.936 -0.9759  0.0642 -0.2195
 1017MOL0     C40250   7.492   8.452   4.998  0.0783  0.1291 -0.3717
 1017MOL0     C40251   7.456   8.366   5.120 -0.4837  0.0381  0.0784
 1017MOL0     C40252   7.583   8.298   5.162  0.4454 -0.1660  0.2423
 1017MOL0    Cl40253   7.550   8.177   5.294 -0.2197  0.1950 -0.1741
 1017MOL0     C40254   6.779   8.464   5.113  0.0650 -0.2986  0.8730
 1017MOL0     C40255   6.655   8.455   5.170  0.9404 -0.0824  1.3274
 1017MOL0     O40256   6.522   8.290   5.382 -0.5739 -0.1760 -0.6370
 1017MOL0     C40257   6.275   8.245   5.484 -0.7747 -0.0092 -0.4504
 1017MOL0     C40258   6.165   8.203   5.552 -0.2951  0.1462  0.3681
 1017MOL0     N40259   5.381   8.091   5.736 -0.8431 -0.1836 -0.3253
 1017MOL0     N40260   5.279   8.055   5.672  0.3899  0.0520  0.7743
 1017MOL0     C40261   4.560   7.134   5.615 -0.4249  0.6681 -0.0804
 1017MOL0     C40262   4.548   7.017   5.697  0.0568  0.2982  0.3989
 1017MOL0     C40263   4.283   6.730   5.983  0.3827 -0.5184 -0.4395
 1017MOL0     C40264   4.332   6.620   5.914  0.7646  0.2047  0.6307
 1017MOL0     C40265   4.292   6.494   5.949  0.3950 -0.0532  0.2547
 1017MOL0     C40266   4.213   6.464   6.057 -0.2586  0.1011 -1.0438
 1017MOL0     O40267   4.168   6.338   6.102 -0.4902 -0.2471 -0.5831
 1017MOL0     C40268   4.254   6.228   6.098  0.2890 -0.3684  0.1694
 1017MOL0     C40269   4.325   6.202   6.235 -0.3794 -0.4298 -0.2187
 1017MOL0     C40270   4.421   6.322   6.270 -0.0664 -0.3095 -0.5713
 1017MOL0     C40271   4.483   6.323   6.408 -0.5574 -0.3379  0.5451
 1017MOL0     C40272   4.574   6.206   6.417  0.8567  0.6119  0.4338
 1017MOL0     C40273   4.641   6.104   6.419 -0.5483  0.0174  0.3430
 1017MOL0     C40274   4.154   6.574   6.129  0.1160  0.4435  0.1659
 1017MOL0     C40275   4.186   6.708   6.089  0.3709 -0.3720 -0.4310
 1017MOL0     C40276   4.123   6.815   6.176  0.0347  0.2545  0.3158
 1017MOL0     H40277   4.231   7.095   5.813 -0.3025  1.3840 -0.8268
 1017MOL0     H40278   4.257   7.277   5.672  1.6209 -0.5305 -2.4515
 1017MOL0     H40279   4.413   7.475   5.684 -1.7373  1.6996  0.1206
 1017MOL0     H40280   4.323   7.473   5.524  1.2537  0.6785 -2.4006
 1017MOL0     H40281   4.547   7.544   5.422  4.1898 -2.4236  1.8482
 1017MOL0     H40282   4.459   7.670   5.521 -2.8695 -0.8022 -1.5998
 1017MOL0     H40283   4.625   7.610   5.715  1.5103 -0.3221  0.7927
 1017MOL0     H40284   4.700   7.491   5.602 -0.5420 -0.5528 -2.2357
 1017MOL0     H40285   4.750   7.672   5.434 -0.6927  0.2292  0.5038
 1017MOL0     H40286   4.689   7.796   5.547 -0.2080  0.2028  3.0181
 1017MOL0     H40287   4.902   7.588   5.620 -2.8389 -1.5084  2.0144
 1017MOL0     H40288   4.847   7.724   5.714 -1.0038 -2.1178  0.2606
 1017MOL0     H40289   4.995   7.729   5.437  0.2285 -1.1059  1.2443
 1017MOL0     H40290   4.931   7.872   5.507 -2.9953 -1.3842 -2.8905
 1017MOL0     H40291   5.143   7.692   5.637 -1.1613 -0.4296  0.7024
 1017MOL0     H40292   5.083   7.848   5.700  1.9672 -0.1392  0.5051
 1017MOL0     H40293   5.248   7.803   5.455 -1.0107  1.1549 -1.6218
 1017MOL0     H40294   5.160   7.955   5.471 -0.9132  0.1996  0.0167
 1017MOL0     H40295   5.463   7.789   5.631  0.6613  0.1476  0.5511
 1017MOL0     H40296   5.643   7.877   5.766  2.0530  1.4037  2.2128
 1017MOL0     H40297   5.609   8.014   5.890 -0.2319  0.3849  0.4677
 1017MOL0     H40298   5.710   8.039   5.603  0.5140 -2.7370  0.0117
 1017MOL0     H40299   5.688   8.167   5.730 -4.2786 -0.8143 -0.5758
 1017MOL0     H40300   5.859   8.008   5.859 -1.9795 -1.8653  0.6399
 1017MOL0     H40301   5.848   7.896   5.724 -1.5246  0.5791 -0.7962
 1017MOL0     H40302   5.967   8.188   5.713 -2.5861 -0.1462  0.3093
 1017MOL0     H40303   6.051   8.039   5.718  0.6582  2.4207  1.4817
 1017MOL0     H40304   5.999   8.078   5.297 -0.4586 -0.3250  1.2163
 1017MOL0     H40305   6.141   8.073   5.088  3.0660 -1.1671 -3.3801
 1017MOL0     H40306   6.290   8.151   5.080 -0.3062 -1.4286  1.9173
 1017MOL0     H40307   6.136   8.249   5.068 -0.4230  0.7969  0.6261
 1017MOL0     H40308   6.548   8.161   5.044  0.2460 -1.5281  3.8389
 1017MOL0     H40309   6.767   8.192   4.919  1.2944 -1.1346  1.5050
 1017MOL0     H40310   6.868   8.299   4.769  0.8151  0.1208 -0.7805
 1017MOL0     H40311   6.875   8.475   4.769 -0.4719 -1.5162 -2.1934
 1017MOL0     H40312   7.112   8.284   4.732 -3.9619 -1.3288 -2.8290
 1017MOL0     H40313   7.053   8.398   4.623  3.5507 -0.6504 -0.7423
 1017MOL0     H40314   7.126   8.563   4.839  0.2135  0.3058 -0.3152
 1017MOL0     H40315   7.211   8.522   4.685 -2.1322 -0.2725 -0.9789
 1017MOL0     H40316   7.356   8.351   4.787 -1.8167 -1.3282 -0.3318
 1017MOL0     H40317   7.247   8.331   4.928 -1.0763  0.9271  1.7115
 1017MOL0     H40318   7.392   8.595   4.875 -0.3565  0.3300  0.4154
 1017MOL0     H40319   7.298   8.549   5.014  0.5086  1.1965  0.5112
 1017MOL0     H40320   7.566   8.526   5.031  1.8667 -1.1467 -1.3611
 1017MOL0     H40321   7.544   8.389   4.926  1.6417 -0.4782  1.2194
 1017MOL0     H40322   7.373   8.298   5.098 -2.1120  2.2391 -1.0640
 1017MOL0     H40323   7.422   8.421   5.208 -0.4642  1.6787 -0.8907
 1017MOL0     H40324   7.657   8.369   5.200 -0.8494  0.1019  2.4537
 1017MOL0     H40325   7.618   8.237   5.078 -1.4086 -0.6161 -0.2352
 1017MOL0     H40326   6.846   8.548   5.130  0.4946  0.2009 -2.5603
 1017MOL0     H40327   6.612   8.529   5.236 -2.6831 -0.5298 -0.2849
 1017MOL0     H40328   6.356   8.285   5.543 -0.7610 -0.3115 -0.2630
 1017MOL0     H40329   6.176   8.200   5.660 -0.1162  0.7002  0.3695
 1017MOL0     H40330   4.646   7.150   5.551 -0.0833 -0.4008  0.1055
 1017MOL0     H40331   4.624   6.940   5.707  2.8711  2.8479 -0.1090
 1017MOL0     H40332   4.393   6.635   5.825 -0.2433  0.1861 -0.0706
 1017MOL0     H40333   4.327   6.408   5.893  0.8644  0.6333 -0.5396
 1017MOL0     H40334   4.181   6.148   6.085  1.9577 -1.8045 -0.8082
 1017MOL0     H40335   4.319   6.226   6.010 -0.1050 -0.5905 -0.1199
 1017MOL0     H40336   4.373   6.104   6.234 -1.2307 -0.9575  2.5978
 1017MOL0     H40337   4.242   6.206   6.305 -2.6691  2.3608 -2.8071
 1017MOL0     H40338   4.497   6.333   6.192  0.0158 -1.3834 -0.6564
 1017MOL0     H40339   4.357   6.411   6.270 -0.1398 -0.3588 -0.0862
 1017MOL0     H40340   4.406   6.300   6.482 -1.0178 -3.4229 -0.7311
 1017MOL0     H40341   4.530   6.415   6.446 -1.1534 -0.3132  1.2328
 1017MOL0     H40342   4.699   6.018   6.445  0.6619  1.0058  1.0023
 1017MOL0     H40343   4.087   6.550   6.211  1.5507  0.3566  1.3769
 1017MOL0     H40344   4.202   6.879   6.216  1.1948  0.9631 -2.8147
 1017MOL0     H40345   4.063   6.877   6.108 -0.5451 -2.0790 -1.4278
 1017MOL0     H40346   4.056   6.783   6.256 -0.6150 -1.4910 -0.8619
 1018MOL0     O40347   2.059   5.080   8.625  0.3130  0.1795 -0.4769
 1018MOL0     C40348   1.972   5.126   8.557 -0.1868  0.4059 -0.2843
 1018MOL0     O40349   1.990   5.232   8.468  0.4121 -0.0386  0.2360
 1018MOL0     C40350   2.102   5.309   8.474 -0.2221 -0.8115 -0.5181
 1018MOL0     C40351   2.154   5.366   8.595  0.5361  0.8396  0.3700
 1018MOL0     C40352   2.263   5.456   8.596 -0.3766  0.1390  0.2661
 1018MOL0     C40353   2.331   5.478   8.473 -1.5417  0.2420  0.6662
 1018MOL0     O40354   2.452   5.547   8.458 -0.3662 -0.5780 -0.1364
 1018MOL0     C40355   2.483   5.626   8.574  0.1793 -0.0672  1.0431
 1018MOL0     C40356   2.585   5.733   8.526 -0.2078 -0.1255 -1.3472
 1018MOL0     C40357   2.517   5.824   8.426 -0.9862 -0.5285 -0.3455
 1018MOL0     C40358   2.584   5.958   8.411  0.1801 -0.3226 -0.0507
 1018MOL0     C40359   2.506   6.046   8.313  0.2162 -0.0675  0.1915
 1018MOL0     C40360   2.550   6.197   8.328  0.2112 -0.1969 -0.1062
 1018MOL0     C40361   2.496   6.280   8.206  0.3278  0.6414 -0.5216
 1018MOL0     C40362   2.527   6.425   8.192 -0.2182  0.0099 -0.0367
 1018MOL0     N40363   2.671   6.442   8.196 -0.1707 -0.0233  0.6181
 1018MOL0     C40364   2.732   6.435   8.075 -0.7479  0.7279 -0.1658
 1018MOL0     C40365   2.855   6.483   8.105  0.1764  0.4056  0.4176
 1018MOL0     C40366   2.968   6.481   8.010  0.3899 -0.0416 -0.1027
 1018MOL0     C40367   2.952   6.582   7.883  0.1921  0.6272 -0.4884
 1018MOL0     C40368   3.025   6.709   7.908 -0.1332 -0.0431 -0.1479
 1018MOL0     C40369   3.051   6.794   7.783  0.4538  0.6031  0.1782
 1018MOL0     O40370   3.122   6.716   7.682 -0.1296 -0.1416  0.2660
 1018MOL0     C40371   3.254   6.689   7.709  0.4337  0.1119  0.5396
 1018MOL0     C40372   3.350   6.774   7.765  0.8342 -0.0494  1.1788
 1018MOL0     C40373   3.486   6.731   7.789 -0.1055 -0.7144 -0.1764
 1018MOL0     C40374   3.573   6.842   7.847 -0.2284 -0.0928 -0.3800
 1018MOL0     C40375   3.533   6.607   7.752 -0.7780  0.0571 -0.1141
 1018MOL0     C40376   3.678   6.557   7.770 -0.4984  0.1336  0.6936
 1018MOL0     O40377   3.767   6.632   7.836 -0.0691  0.2532  0.2255
 1018MOL0     C40378   3.908   6.628   7.818  0.6160  0.5836 -0.1819
 1018MOL0     C40379   3.979   6.603   7.933 -0.0993  0.2229  0.3631
 1018MOL0     C40380   4.117   6.619   7.941  0.1062  0.3436  0.4825
 1018MOL0     C40381   4.188   6.655   7.834 -0.4364 -0.5896  0.2470
 1018MOL0     O40382   4.328   6.671   7.851  0.0470 -0.2109 -0.7577
 1018MOL0     C40383   4.399   6.589   7.756 -1.9634  1.2247 -0.5717
 1018MOL0     C40384   4.528   6.666   7.729  0.4614  0.6867 -0.9635
 1018MOL0     C40385   4.651   6.576   7.711 -1.1543  0.5157 -0.2808
 1018MOL0     C40386   4.775   6.665   7.676  0.6446 -0.0840  1.0634
 1018MOL0     C40387   4.896   6.577   7.647 -0.2010 -0.3609  0.0872
 1018MOL0     C40388   5.019   6.661   7.630 -0.2983 -0.4883  0.4904
 1018MOL0     C40389   5.012   6.778   7.546  0.3988 -0.5943 -0.6720
 1018MOL0     C40390   5.144   6.844   7.508 -0.4250  0.8992 -0.7936
 1018MOL0    Cl40391   5.233   6.903   7.650 -0.1053 -0.3140 -0.0136
 1018MOL0     C40392   4.119   6.669   7.708  0.3898 -0.2081 -0.0924
 1018MOL0     C40393   3.980   6.654   7.701  0.8458 -0.3732 -0.1501
 1018MOL0     O40394   3.704   6.453   7.706 -0.0661 -0.9530  1.1317
 1018MOL0     C40395   3.437   6.517   7.700 -0.3230  1.1088 -0.2208
 1018MOL0     C40396   3.301   6.558   7.682  0.5678  0.3628  0.4258
 1018MOL0     N40397   2.876   6.502   8.240  0.0628  0.8907  0.5857
 1018MOL0     N40398   2.761   6.480   8.299 -0.3441 -0.4149  0.4191
 1018MOL0     C40399   2.284   5.423   8.356 -0.0311  0.1233 -0.8930
 1018MOL0     C40400   2.162   5.348   8.351  0.1159 -0.5653  0.5976
 1018MOL0     C40401   1.843   5.058   8.544  0.5193  0.0748  0.4194
 1018MOL0     C40402   1.752   5.090   8.432  0.2577 -0.5259 -0.1129
 1018MOL0     C40403   1.620   5.040   8.437  0.3050  1.0879  0.2705
 1018MOL0     C40404   1.572   4.966   8.541 -0.4220  0.4440  0.0842
 1018MOL0     O40405   1.446   4.915   8.539  0.1628  0.1926 -0.1577
 1018MOL0     C40406   1.435   4.773   8.567 -0.7608 -0.3960  0.9062
 1018MOL0     C40407   1.296   4.717   8.579  0.2499 -0.1456 -0.6121
 1018MOL0     C40408   1.229   4.784   8.693  0.1422  0.1240 -0.8544
 1018MOL0     C40409   1.106   4.707   8.720  0.4818 -0.0451 -0.4221
 1018MOL0     C40410   1.011   4.804   8.771  0.2657  0.7044 -0.0664
 1018MOL0     C40411   0.941   4.889   8.825  0.1137 -0.6976  0.7999
 1018MOL0     C40412   1.656   4.957   8.654  0.3627  0.8881 -0.3011
 1018MOL0     C40413   1.785   4.996   8.654  0.7253  0.1778 -0.1942
 1018MOL0     C40414   1.863   4.973   8.785  0.0193 -0.2842  0.7333
 1018MOL0     H40415   2.108   5.338   8.689 -0.8694 -2.1046 -1.0815
 1018MOL0     H40416   2.296   5.492   8.694  0.8827 -0.5678  0.1273
 1018MOL0     H40417   2.522   5.553   8.646 -0.1026  0.6162  1.9062
 1018MOL0     H40418   2.402   5.672   8.631 -0.8847 -2.0326  1.1959
 1018MOL0     H40419   2.633   5.780   8.612  2.4338 -2.7938 -1.1864
 1018MOL0     H40420   2.669   5.689   8.471 -1.0067  1.5287 -4.1121
 1018MOL0     H40421   2.522   5.781   8.326  0.1965 -0.2309 -0.4300
 1018MOL0     H40422   2.416   5.835   8.465 -0.1925  1.0200  1.4115
 1018MOL0     H40423   2.609   6.005   8.506  2.5019  0.3430 -0.9058
 1018MOL0     H40424   2.686   5.948   8.372  1.8218  2.5290  2.9938
 1018MOL0     H40425   2.400   6.040   8.336 -0.1479  1.7285 -0.8308
 1018MOL0     H40426   2.519   5.995   8.217 -2.0729 -1.8674  0.7743
 1018MOL0     H40427   2.518   6.249   8.419  0.1826  1.4545 -1.0252
 1018MOL0     H40428   2.659   6.191   8.338  0.2756 -4.7141 -1.1787
 1018MOL0     H40429   2.387   6.272   8.211  0.5049 -1.6705  3.1433
 1018MOL0     H40430   2.534   6.229   8.117 -0.5230  0.6628 -0.9009
 1018MOL0     H40431   2.485   6.472   8.103  0.1164  1.3957  0.5113
 1018MOL0     H40432   2.489   6.479   8.279  0.7365  2.0149 -0.7979
 1018MOL0     H40433   2.694   6.407   7.978 -1.0788 -4.2218  1.1687
 1018MOL0     H40434   2.969   6.383   7.962 -1.7066  1.2298 -3.0270
 1018MOL0     H40435   3.073   6.483   8.041  0.7896 -0.5559 -1.3767
 1018MOL0     H40436   3.008   6.532   7.804  0.0933  0.8182 -0.6788
 1018MOL0     H40437   2.847   6.596   7.854  0.1798  0.1129 -0.7084
 1018MOL0     H40438   2.968   6.768   7.980 -1.2298  0.6774 -1.5453
 1018MOL0     H40439   3.111   6.675   7.966 -1.8842 -3.0810  0.9540
 1018MOL0     H40440   2.954   6.826   7.743  1.5507 -0.2204 -3.4935
 1018MOL0     H40441   3.100   6.879   7.831 -0.7917 -0.8309  4.4813
 1018MOL0     H40442   3.321   6.874   7.794 -1.4435 -0.5861  0.9235
 1018MOL0     H40443   3.598   6.839   7.954 -2.0242 -0.1506  0.0733
 1018MOL0     H40444   3.522   6.938   7.834 -1.6596 -0.5912  1.1850
 1018MOL0     H40445   3.667   6.850   7.792  1.0070  2.1309  1.8373
 1018MOL0     H40446   3.934   6.598   8.032 -1.1385  2.7032  0.0970
 1018MOL0     H40447   4.171   6.637   8.033 -2.9283  2.6206  1.9910
 1018MOL0     H40448   4.412   6.493   7.807  1.7393  2.7608  1.7386
 1018MOL0     H40449   4.346   6.568   7.662 -1.5113  0.0790 -0.5904
 1018MOL0     H40450   4.513   6.732   7.643 -2.1434  1.4291 -0.0388
 1018MOL0     H40451   4.547   6.728   7.816  2.2579 -0.2928 -0.6110
 1018MOL0     H40452   4.644   6.498   7.635  1.4891 -1.0554  0.9629
 1018MOL0     H40453   4.683   6.541   7.809 -1.1789  2.9161  0.6606
 1018MOL0     H40454   4.793   6.743   7.750  0.7417  0.7117  0.2152
 1018MOL0     H40455   4.749   6.722   7.587  0.8022 -1.8983 -0.2053
 1018MOL0     H40456   4.918   6.502   7.724  2.3579 -0.4779 -0.6748
 1018MOL0     H40457   4.881   6.529   7.550  2.0673 -2.4613  0.6730
 1018MOL0     H40458   5.096   6.604   7.577  0.7530  1.3411 -0.0535
 1018MOL0     H40459   5.057   6.691   7.728 -0.6419 -0.8423  0.7339
 1018MOL0     H40460   4.961   6.852   7.609 -0.0481 -0.5008 -1.1372
 1018MOL0     H40461   4.958   6.770   7.451  0.4736 -2.2161 -0.5961
 1018MOL0     H40462   5.128   6.914   7.425 -0.7286  0.7499 -0.8651
 1018MOL0     H40463   5.193   6.771   7.442  0.1264  0.6312 -0.0957
 1018MOL0     H40464   4.176   6.689   7.617 -0.4309  1.5324 -0.2628
 1018MOL0     H40465   3.916   6.668   7.614 -2.0824  0.4953  1.9805
 1018MOL0     H40466   3.452   6.414   7.668 -3.4441 -0.3048  2.3123
 1018MOL0     H40467   3.231   6.482   7.649 -1.8135  1.2455  2.9802
 1018MOL0     H40468   2.349   5.425   8.270  0.2880 -1.9098 -0.7504
 1018MOL0     H40469   2.121   5.306   8.260 -4.2108 -2.1599  2.9866
 1018MOL0     H40470   1.794   5.153   8.355 -2.4280  1.7772  0.1522
 1018MOL0     H40471   1.540   5.055   8.364  0.7425  1.4725 -0.1347
 1018MOL0     H40472   1.487   4.723   8.484  0.9074  0.4108  1.4193
 1018MOL0     H40473   1.481   4.745   8.662  1.3441 -6.1076 -1.3140
 1018MOL0     H40474   1.304   4.609   8.597 -2.1744  0.0316  2.2270
 1018MOL0     H40475   1.251   4.726   8.479 -0.4808  2.3583 -0.1300
 1018MOL0     H40476   1.298   4.773   8.778 -1.7134 -0.5001  0.6335
 1018MOL0     H40477   1.198   4.887   8.677 -3.1647 -0.8353 -1.3097
 1018MOL0     H40478   1.117   4.625   8.792  1.1302 -0.5890 -1.1251
 1018MOL0     H40479   1.055   4.666   8.633  1.0171  0.7464 -1.1215
 1018MOL0     H40480   0.885   4.965   8.875 -2.5125 -1.7241 -0.4328
 1018MOL0     H40481   1.614   4.910   8.743  1.3403 -0.7254 -0.6457
 1018MOL0     H40482   1.922   5.061   8.815 -2.5016  1.1383  1.8311
 1018MOL0     H40483   1.792   4.956   8.866  1.4946 -1.7673  1.7744
 1018MOL0     H40484   1.927   4.885   8.778 -1.4002 -1.2499 -0.9392
 1019MOL0     O40485   2.801   1.588   3.132  0.1011  0.0045 -0.2921
 1019MOL0     C40486   2.795   1.710   3.134 -0.2968  0.6751  0.4047
 1019MOL0     O40487   2.894   1.784   3.182  0.5303 -0.0156 -0.4798
 1019MOL0     C40488   2.953   1.734   3.303  1.0628 -0.7414 -0.2749
 1019MOL0     C40489   2.882   1.694   3.419 -0.2367 -0.2990 -0.3250
 1019MOL0     C40490   2.953   1.642   3.534  0.0975  0.4389  0.0529
 1019MOL0     C40491   3.092   1.642   3.534  0.6939 -0.0301 -0.2344
 1019MOL0     O40492   3.166   1.583   3.630 -0.0250 -0.3844 -0.2412
 1019MOL0     C40493   3.128   1.595   3.774  0.6858  0.2410 -0.0283
 1019MOL0     C40494   3.238   1.512   3.850  0.6688 -0.0583  0.0839
 1019MOL0     C40495   3.263   1.368   3.786 -0.5354 -0.2179  0.6729
 1019MOL0     C40496   3.385   1.320   3.857  0.2269  0.6220 -0.0235
 1019MOL0     C40497   3.411   1.179   3.818  0.0514  0.4475 -0.8078
 1019MOL0     C40498   3.284   1.086   3.826  0.0032 -0.5405  0.6286
 1019MOL0     C40499   3.314   0.936   3.830 -0.8894 -0.2838  0.2941
 1019MOL0     C40500   3.193   0.854   3.869 -0.2774  0.7251  0.5056
 1019MOL0     N40501   3.216   0.713   3.831  0.2958 -0.1115  0.7640
 1019MOL0     C40502   3.278   0.620   3.907 -0.1827 -0.4344  0.1964
 1019MOL0     C40503   3.268   0.506   3.834 -1.3316  0.2890 -0.7323
 1019MOL0     C40504   3.309   0.366   3.879  0.1001  0.0505  0.2453
 1019MOL0     C40505   3.459   0.327   3.851 -0.9394  0.0388 -0.3990
 1019MOL0     C40506   3.508   0.200   3.929  0.1838  0.6301 -0.1182
 1019MOL0     C40507   3.416   0.078   3.889  0.5703 -0.6254 -0.6153
 1019MOL0     O40508   3.485  -0.040   3.916 -0.9433  0.0564 -0.6894
 1019MOL0     C40509   3.588  -0.074   3.817  0.9555  0.9396 -1.2951
 1019MOL0     C40510   3.551  -0.078   3.681  0.6022  0.4090 -0.3564
 1019MOL0     C40511   3.641  -0.111   3.577  0.8969  0.1210  0.5158
 1019MOL0     C40512   3.590  -0.122   3.434 -0.2717 -0.2312 -0.4497
 1019MOL0     C40513   3.773  -0.129   3.617 -0.2560 -1.0580  0.5209
 1019MOL0     C40514   3.876  -0.175   3.519 -0.3809  0.5754  0.3896
 1019MOL0     O40515   4.009  -0.173   3.559  0.2097 -0.3568 -0.5099
 1019MOL0     C40516   4.105  -0.232   3.483 -0.4517 -0.5419  0.7338
 1019MOL0     C40517   4.113  -0.369   3.457  0.3083  0.0406  0.0293
 1019MOL0     C40518   4.224  -0.416   3.384  0.6289 -0.1582 -0.2143
 1019MOL0     C40519   4.315  -0.325   3.329 -0.1699 -0.2634  0.0868
 1019MOL0     O40520   4.422  -0.362   3.253  0.3272  0.1216  0.4574
 1019MOL0     C40521   4.422  -0.501   3.210 -0.5799 -0.1502 -0.9367
 1019MOL0     C40522   4.537  -0.510   3.108 -0.1009 -0.7171  0.0347
 1019MOL0     C40523   4.525  -0.632   3.023 -0.1656 -0.5193 -0.0084
 1019MOL0     C40524   4.557  -0.754   3.110  0.7575  0.4062 -0.6968
 1019MOL0     C40525   4.552  -0.884   3.030 -0.0780 -0.1713 -0.3305
 1019MOL0     C40526   4.594  -1.008   3.102  0.8387  0.0861  0.5334
 1019MOL0     C40527   4.483  -1.053   3.206 -0.5195  0.0784 -0.9184
 1019MOL0     C40528   4.517  -1.185   3.279  1.2847 -0.2451 -0.0134
 1019MOL0    Cl40529   4.593  -1.141   3.427 -0.0472  1.0387 -0.0293
 1019MOL0     C40530   4.306  -0.187   3.353  0.6646 -0.2230  0.1276
 1019MOL0     C40531   4.207  -0.146   3.435 -0.1740 -0.3682  0.9595
 1019MOL0     O40532   3.839  -0.228   3.417 -0.1313  0.0981  0.7541
 1019MOL0     C40533   3.816  -0.120   3.749  0.9984  0.7114 -0.0696
 1019MOL0     C40534   3.721  -0.104   3.850  0.3720 -0.0180 -0.0135
 1019MOL0     N40535   3.194   0.526   3.723 -0.2792 -0.1087 -0.2297
 1019MOL0     N40536   3.164   0.651   3.723 -0.0866  0.9922  0.2425
 1019MOL0     C40537   3.162   1.697   3.422 -0.4737 -0.2208 -0.2142
 1019MOL0     C40538   3.090   1.728   3.307 -0.2738 -0.9040 -0.2744
 1019MOL0     C40539   2.692   1.767   3.039 -0.0917 -0.6629 -0.2497
 1019MOL0     C40540   2.715   1.895   2.991 -0.5699  0.1721  0.2441
 1019MOL0     C40541   2.632   1.954   2.899 -0.4202  0.1408 -0.1475
 1019MOL0     C40542   2.524   1.879   2.848  0.0010  0.7839 -0.7289
 1019MOL0     O40543   2.461   1.931   2.735 -0.0053  0.1067  0.2202
 1019MOL0     C40544   2.336   1.875   2.700  0.1178 -0.0224  0.4703
 1019MOL0     C40545   2.264   1.940   2.589  0.7977 -0.3138 -0.5485
 1019MOL0     C40546   2.173   2.057   2.645 -0.2174 -0.1464 -0.2672
 1019MOL0     C40547   2.103   2.130   2.533 -0.0464 -0.3017 -0.0632
 1019MOL0     C40548   1.982   2.062   2.492 -0.1574 -1.0600 -0.3917
 1019MOL0     C40549   1.887   2.001   2.448 -0.6655 -0.5602  0.2553
 1019MOL0     C40550   2.491   1.761   2.913  0.1422  0.0246 -0.6955
 1019MOL0     C40551   2.570   1.700   3.009  0.1132  0.2973  0.7886
 1019MOL0     C40552   2.519   1.574   3.078 -0.3266 -0.4524 -0.6199
 1019MOL0     H40553   2.774   1.694   3.420 -0.3118  1.6820  2.7427
 1019MOL0     H40554   2.902   1.603   3.621 -0.4295  0.8925 -0.0462
 1019MOL0     H40555   3.030   1.546   3.786  0.7528  0.6600  3.1020
 1019MOL0     H40556   3.115   1.697   3.812 -0.8290 -0.2553  0.8983
 1019MOL0     H40557   3.336   1.558   3.858 -0.0661  1.3688  1.3877
 1019MOL0     H40558   3.210   1.491   3.953  0.9297  0.8945  0.3574
 1019MOL0     H40559   3.168   1.315   3.799 -0.2261 -1.5821 -1.9842
 1019MOL0     H40560   3.283   1.376   3.679  0.6493  0.1711  0.9055
 1019MOL0     H40561   3.479   1.372   3.837  1.7295 -0.7937  2.7929
 1019MOL0     H40562   3.376   1.344   3.964  1.0198 -0.2786  0.2608
 1019MOL0     H40563   3.480   1.141   3.894 -0.2772 -0.6547 -1.0365
 1019MOL0     H40564   3.464   1.160   3.725  2.8909  4.2088 -0.2173
 1019MOL0     H40565   3.235   1.111   3.921 -0.0295  0.8285  0.2679
 1019MOL0     H40566   3.219   1.108   3.741 -0.5480  0.3959  1.2766
 1019MOL0     H40567   3.391   0.918   3.906  0.3204  0.6146 -0.6731
 1019MOL0     H40568   3.341   0.917   3.725 -1.5222  2.3119 -0.4006
 1019MOL0     H40569   3.181   0.864   3.977  1.3748 -0.1401  0.8067
 1019MOL0     H40570   3.101   0.892   3.823  0.2878  1.0915 -0.3608
 1019MOL0     H40571   3.331   0.644   3.998  0.3447  0.1898 -0.2644
 1019MOL0     H40572   3.246   0.299   3.820 -1.9443  3.0758 -1.3035
 1019MOL0     H40573   3.292   0.356   3.986 -2.9966 -2.8747 -0.3546
 1019MOL0     H40574   3.473   0.306   3.745  1.3493  0.0611 -0.1391
 1019MOL0     H40575   3.528   0.408   3.874 -2.0291  1.3938 -1.7075
 1019MOL0     H40576   3.607   0.173   3.891 -1.5029  0.1606 -4.8806
 1019MOL0     H40577   3.500   0.220   4.037 -0.1995 -0.6991  0.1167
 1019MOL0     H40578   3.323   0.083   3.946 -0.4721 -0.4139 -2.2671
 1019MOL0     H40579   3.386   0.095   3.785 -0.9289  2.8807  0.2489
 1019MOL0     H40580   3.444  -0.079   3.660  0.4841 -0.3726  0.2435
 1019MOL0     H40581   3.480  -0.120   3.432 -0.2670  1.1646 -0.5921
 1019MOL0     H40582   3.608  -0.210   3.373 -1.3618 -2.7308  2.5416
 1019MOL0     H40583   3.629  -0.030   3.390  0.2364  0.8845  2.1272
 1019MOL0     H40584   4.029  -0.431   3.487  1.5968 -1.2442  1.1773
 1019MOL0     H40585   4.231  -0.522   3.361  1.6795  0.0194 -0.8032
 1019MOL0     H40586   4.437  -0.574   3.289 -1.9458 -0.3548 -0.8430
 1019MOL0     H40587   4.324  -0.526   3.168 -1.5593  2.4648 -0.3925
 1019MOL0     H40588   4.527  -0.417   3.051  2.5706 -0.3589  0.0413
 1019MOL0     H40589   4.633  -0.493   3.158 -2.4577  1.8683  4.2250
 1019MOL0     H40590   4.592  -0.645   2.938  0.2609 -1.9467  0.5262
 1019MOL0     H40591   4.422  -0.620   2.987 -0.0652  0.6143  0.0232
 1019MOL0     H40592   4.490  -0.762   3.196  1.5954  0.4202 -0.0294
 1019MOL0     H40593   4.657  -0.763   3.154  0.9781  1.0143 -1.0655
 1019MOL0     H40594   4.457  -0.907   2.980  0.6155 -0.9194 -1.3553
 1019MOL0     H40595   4.618  -0.864   2.945 -0.9612  2.9161 -0.4278
 1019MOL0     H40596   4.690  -0.984   3.150  1.9104  0.6031 -1.7020
 1019MOL0     H40597   4.611  -1.080   3.021  2.2567  0.8818  0.0739
 1019MOL0     H40598   4.395  -1.057   3.141  0.0578 -0.2006 -1.7086
 1019MOL0     H40599   4.463  -0.981   3.286  2.1436 -2.2691  2.1181
 1019MOL0     H40600   4.574  -1.249   3.211  1.0653  0.8804 -1.3001
 1019MOL0     H40601   4.424  -1.239   3.303 -0.3039  1.5829 -1.6772
 1019MOL0     H40602   4.385  -0.117   3.326  0.3566  0.1553  0.1950
 1019MOL0     H40603   4.210  -0.039   3.452  2.9849 -0.3025  0.6314
 1019MOL0     H40604   3.920  -0.141   3.772  0.4936 -0.8434  0.9639
 1019MOL0     H40605   3.762  -0.081   3.948 -1.8178 -0.4373  1.0778
 1019MOL0     H40606   3.270   1.684   3.409 -1.0144 -3.6606 -2.9468
 1019MOL0     H40607   3.151   1.744   3.218  0.6006  0.5606  0.5583
 1019MOL0     H40608   2.803   1.951   3.022  1.5404 -1.0472 -2.9923
 1019MOL0     H40609   2.653   2.050   2.853  0.2487 -0.1793 -0.5299
 1019MOL0     H40610   2.347   1.771   2.669  0.3710  0.5725 -1.5855
 1019MOL0     H40611   2.270   1.875   2.787 -2.0084  0.0564 -1.0342
 1019MOL0     H40612   2.188   1.874   2.546 -1.9233  2.8564 -1.0246
 1019MOL0     H40613   2.340   1.983   2.524  1.2223 -1.3381 -0.7452
 1019MOL0     H40614   2.107   2.018   2.723  2.8908 -0.2703  2.4707
 1019MOL0     H40615   2.232   2.143   2.679 -2.9579  2.8001 -2.2710
 1019MOL0     H40616   2.165   2.136   2.442  0.0410  2.1682  0.0981
 1019MOL0     H40617   2.084   2.232   2.568  1.8328 -0.6465  2.2808
 1019MOL0     H40618   1.799   1.953   2.411 -1.3945  0.6351  0.3924
 1019MOL0     H40619   2.407   1.705   2.872  1.1880 -0.4785 -2.2254
 1019MOL0     H40620   2.577   1.492   3.035  0.1825  0.0238 -0.8640
 1019MOL0     H40621   2.526   1.585   3.186  1.4325  3.6543 -0.9642
 1019MOL0     H40622   2.416   1.552   3.046 -0.4222  0.0686 -0.6834
 1020MOL0     O40623   3.629   9.320   8.537  0.0345 -0.1042 -0.1615
 1020MOL0     C40624   3.526   9.387   8.544  0.1929 -0.3911 -0.0659
 1020MOL0     O40625   3.508   9.509   8.490  0.7057  0.0487  0.0849
 1020MOL0     C40626   3.611   9.574   8.427 -0.5158  0.4725  0.9564
 1020MOL0     C40627   3.596   9.631   8.298 -0.2342 -0.0786 -0.8086
 1020MOL0     C40628   3.699   9.697   8.238 -0.3617 -0.2208  0.1624
 1020MOL0     C40629   3.824   9.718   8.303  0.2301  0.0116 -0.0077
 1020MOL0     O40630   3.925   9.764   8.225 -0.6283  0.2914 -0.3918
 1020MOL0     C40631   4.023   9.838   8.302 -0.6495 -1.0459  0.6091
 1020MOL0     C40632   4.104   9.921   8.213  0.1731 -0.8556 -0.3582
 1020MOL0     C40633   4.176   9.843   8.104  1.2211 -0.8674 -0.7583
 1020MOL0     C40634   4.094   9.850   7.973  0.7510 -1.0419 -0.2523
 1020MOL0     C40635   4.144   9.782   7.842  0.0653 -0.5195  0.3340
 1020MOL0     C40636   4.148   9.627   7.863 -0.7191  0.2765  0.0750
 1020MOL0     C40637   4.176   9.549   7.728  0.4720 -0.2873 -1.0811
 1020MOL0     C40638   4.051   9.490   7.676 -0.5824  0.3752  0.5824
 1020MOL0     N40639   4.075   9.427   7.542  0.6293 -0.2921  0.0573
 1020MOL0     C40640   4.088   9.495   7.426  0.9839 -1.1856  0.6702
 1020MOL0     C40641   4.143   9.408   7.338 -0.3538  0.4532  0.6744
 1020MOL0     C40642   4.208   9.456   7.210  0.8384  0.2754  0.4816
 1020MOL0     C40643   4.150   9.376   7.093 -0.4284  0.0477 -0.1792
 1020MOL0     C40644   4.199   9.408   6.955 -0.3495  0.8205 -0.2764
 1020MOL0     C40645   4.352   9.405   6.946 -0.5027 -0.1614 -0.8454
 1020MOL0     O40646   4.398   9.269   6.964  0.2358  0.1297 -0.0416
 1020MOL0     C40647   4.520   9.244   7.018 -0.3996 -0.4365 -0.5052
 1020MOL0     C40648   4.541   9.110   7.053 -0.0500 -0.4621  1.2708
 1020MOL0     C40649   4.657   9.072   7.122  0.6055  0.9144  0.1912
 1020MOL0     C40650   4.672   8.921   7.148  0.2458  0.2537 -0.3479
 1020MOL0     C40651   4.756   9.165   7.159 -0.6535  0.4378 -0.4443
 1020MOL0     C40652   4.885   9.130   7.219  0.7447 -0.7547  0.0857
 1020MOL0     O40653   4.944   9.230   7.287  0.3549 -0.7123 -0.3531
 1020MOL0     C40654   5.061   9.214   7.339 -0.9705 -0.6175 -0.1723
 1020MOL0     C40655   5.084   9.176   7.473  0.4432 -0.7898 -0.0740
 1020MOL0     C40656   5.209   9.139   7.514  0.5245  1.1672 -0.7675
 1020MOL0     C40657   5.320   9.158   7.434  0.0054 -0.2130  0.1564
 1020MOL0     O40658   5.435   9.134   7.492 -0.2479 -0.2106  0.5546
 1020MOL0     C40659   5.518   9.036   7.422 -0.1213 -0.2722 -0.8012
 1020MOL0     C40660   5.647   9.035   7.507  0.1050 -0.1451  0.6492
 1020MOL0     C40661   5.733   9.164   7.519  0.5827  0.1230 -0.6140
 1020MOL0     C40662   5.808   9.202   7.393  0.4185  0.1925 -0.3035
 1020MOL0     C40663   5.943   9.134   7.383 -0.7039 -1.2360  0.3777
 1020MOL0     C40664   5.997   9.129   7.232  0.0789  1.1200 -0.0395
 1020MOL0     C40665   6.142   9.096   7.239 -0.5789 -0.6002 -0.1727
 1020MOL0     C40666   6.170   8.955   7.279  0.5014 -0.1860 -0.3446
 1020MOL0    Cl40667   6.357   8.948   7.287 -0.3862  0.5666  0.0826
 1020MOL0     C40668   5.293   9.201   7.298  0.7261  0.0037  0.2658
 1020MOL0     C40669   5.168   9.219   7.249 -0.2909 -0.1099 -0.1542
 1020MOL0     O40670   4.925   9.013   7.229 -0.3348 -0.5038  0.7188
 1020MOL0     C40671   4.731   9.296   7.124 -0.2650 -0.4374 -0.3823
 1020MOL0     C40672   4.625   9.334   7.049  0.0723  0.1866  0.2399
 1020MOL0     N40673   4.145   9.282   7.396  0.0981  0.3044  0.2632
 1020MOL0     N40674   4.103   9.294   7.521  0.9364  0.4802  0.1445
 1020MOL0     C40675   3.839   9.665   8.426 -0.1509 -0.0226 -0.2186
 1020MOL0     C40676   3.734   9.596   8.490 -0.4006 -0.0303 -0.0063
 1020MOL0     C40677   3.410   9.312   8.592 -0.4080  0.1800 -0.0740
 1020MOL0     C40678   3.404   9.169   8.572 -0.3376  0.3405  0.9159
 1020MOL0     C40679   3.296   9.093   8.602  0.1263  0.0652 -0.3886
 1020MOL0     C40680   3.194   9.154   8.673  0.2235  0.0476  0.0780
 1020MOL0     O40681   3.081   9.104   8.722  0.9080  0.1156  0.2048
 1020MOL0     C40682   3.051   8.970   8.689  0.0863  0.0321 -0.1994
 1020MOL0     C40683   2.908   8.930   8.732 -0.3578 -0.5896 -0.6997
 1020MOL0     C40684   2.915   8.913   8.891  0.1107  0.2027  0.3378
 1020MOL0     C40685   2.777   8.956   8.944 -0.4259 -0.8022  0.0224
 1020MOL0     C40686   2.677   8.849   8.936  1.4746  0.1544 -1.0351
 1020MOL0     C40687   2.590   8.765   8.937  1.5420 -0.1745  0.5601
 1020MOL0     C40688   3.198   9.291   8.704 -0.2201 -0.1678  0.1867
 1020MOL0     C40689   3.311   9.372   8.669 -0.5359  0.7928  0.0154
 1020MOL0     C40690   3.315   9.510   8.723  0.1064  0.0157 -1.5021
 1020MOL0     H40691   3.500   9.624   8.247 -1.0946  2.8625  0.1855
 1020MOL0     H40692   3.687   9.729   8.135  3.2665  1.1149  0.0076
 1020MOL0     H40693   4.082   9.771   8.366 -1.0796  1.9776  4.5779
 1020MOL0     H40694   3.972   9.911   8.365 -1.3347 -0.5095 -0.5440
 1020MOL0     H40695   4.046  10.008   8.180  2.3317  1.2143  0.9213
 1020MOL0     H40696   4.191   9.958   8.269  1.0780  0.0611 -2.2607
 1020MOL0     H40697   4.271   9.887   8.076  1.3327  2.7278  3.9427
 1020MOL0     H40698   4.184   9.740   8.142 -3.5021 -1.1338  0.2399
 1020MOL0     H40699   3.997   9.804   7.992  1.0276 -1.3170  0.5223
 1020MOL0     H40700   4.099   9.956   7.946  0.6720 -0.9038  0.2625
 1020MOL0     H40701   4.236   9.824   7.802 -1.9301  2.8201 -1.1525
 1020MOL0     H40702   4.071   9.798   7.762 -0.2077 -1.9463  0.2585
 1020MOL0     H40703   4.231   9.607   7.931  1.2146 -1.0141 -2.4995
 1020MOL0     H40704   4.049   9.596   7.899 -0.9464 -2.6207 -2.5631
 1020MOL0     H40705   4.253   9.478   7.760  2.0214  0.7914 -2.2621
 1020MOL0     H40706   4.226   9.613   7.654  1.5286 -0.2792 -0.3885
 1020MOL0     H40707   4.020   9.407   7.740  0.3025  1.3339  2.3230
 1020MOL0     H40708   3.975   9.568   7.666 -0.1416  0.6357 -1.0499
 1020MOL0     H40709   4.064   9.601   7.420  1.4476 -1.0613  0.9336
 1020MOL0     H40710   4.314   9.432   7.217  0.8429 -0.7037 -1.9282
 1020MOL0     H40711   4.189   9.562   7.190 -0.8622 -0.1189 -0.2810
 1020MOL0     H40712   4.170   9.271   7.114  3.7345  0.9684  1.4403
 1020MOL0     H40713   4.041   9.386   7.087 -0.2588  1.8101 -1.0765
 1020MOL0     H40714   4.166   9.340   6.875  0.6618  2.8523 -2.5474
 1020MOL0     H40715   4.173   9.510   6.926  1.5713  0.8538 -2.1135
 1020MOL0     H40716   4.382   9.454   6.853 -0.2408  2.2939  0.4594
 1020MOL0     H40717   4.392   9.474   7.020 -1.1375  0.9823 -1.5401
 1020MOL0     H40718   4.469   9.030   7.043  1.2523 -1.4083 -1.8572
 1020MOL0     H40719   4.703   8.905   7.252 -0.3687  1.0891 -0.0330
 1020MOL0     H40720   4.747   8.874   7.083  0.6105  0.5197 -0.1248
 1020MOL0     H40721   4.578   8.872   7.121  0.2016  1.2391 -2.1196
 1020MOL0     H40722   5.006   9.173   7.548  1.6698 -2.0273  1.2151
 1020MOL0     H40723   5.238   9.110   7.615 -0.6336 -1.6731 -1.1575
 1020MOL0     H40724   5.477   8.935   7.423 -0.9750  0.0175  1.5580
 1020MOL0     H40725   5.547   9.068   7.321  0.2957  0.9894 -0.3064
 1020MOL0     H40726   5.596   9.014   7.602 -2.3274  0.0229 -0.5464
 1020MOL0     H40727   5.702   8.945   7.478 -1.3716 -0.0276 -2.9550
 1020MOL0     H40728   5.809   9.147   7.597 -1.6558 -3.4701  1.0591
 1020MOL0     H40729   5.669   9.242   7.560 -2.2832 -2.4661  0.2364
 1020MOL0     H40730   5.825   9.309   7.389 -0.0402  0.3296  1.0454
 1020MOL0     H40731   5.735   9.192   7.311  0.6199  2.3680 -0.7878
 1020MOL0     H40732   6.017   9.179   7.450  0.4628 -1.5148 -0.6843
 1020MOL0     H40733   5.925   9.033   7.420 -0.9203 -0.9111  1.1781
 1020MOL0     H40734   5.982   9.221   7.176 -2.3908  1.7859  1.5501
 1020MOL0     H40735   5.947   9.047   7.180  1.4834  1.3442 -1.8018
 1020MOL0     H40736   6.192   9.170   7.302 -1.8418  0.0118  0.1567
 1020MOL0     H40737   6.185   9.105   7.139 -0.0650 -0.7811  0.0316
 1020MOL0     H40738   6.131   8.884   7.206 -0.0436 -0.4362  0.1809
 1020MOL0     H40739   6.117   8.945   7.374 -2.2520  0.2758 -1.7437
 1020MOL0     H40740   5.379   9.220   7.235  0.5893 -0.8513 -0.1917
 1020MOL0     H40741   5.156   9.246   7.144  0.3491  1.0245  0.0459
 1020MOL0     H40742   4.802   9.376   7.140 -0.0902 -0.6591 -0.0476
 1020MOL0     H40743   4.616   9.437   7.016  4.0413  0.3577 -0.8025
 1020MOL0     H40744   3.941   9.664   8.463  1.2998  3.0317 -3.4820
 1020MOL0     H40745   3.744   9.558   8.591  1.0646 -0.6643 -0.3695
 1020MOL0     H40746   3.483   9.116   8.519 -0.9448  2.1564 -1.9892
 1020MOL0     H40747   3.282   8.988   8.575 -2.6684  0.1667  0.4044
 1020MOL0     H40748   3.049   8.962   8.580  3.9692  0.1074 -0.4296
 1020MOL0     H40749   3.118   8.900   8.739 -0.2119 -0.9422 -1.1481
 1020MOL0     H40750   2.864   8.839   8.690  0.5600  0.0870 -3.3125
 1020MOL0     H40751   2.838   9.010   8.706  1.6714  1.2707 -0.7279
 1020MOL0     H40752   2.944   8.811   8.918  0.5643  0.0723 -0.5797
 1020MOL0     H40753   2.988   8.979   8.938 -1.0696  1.0268  1.0626
 1020MOL0     H40754   2.738   9.047   8.897 -1.1401  0.2467  2.5079
 1020MOL0     H40755   2.790   8.982   9.049 -0.5569  2.8273 -0.7175
 1020MOL0     H40756   2.510   8.694   8.940  1.3680  0.0537  2.5857
 1020MOL0     H40757   3.117   9.342   8.755  0.8366  1.3419  0.4106
 1020MOL0     H40758   3.288   9.583   8.646 -1.3674  0.8693 -0.2180
 1020MOL0     H40759   3.243   9.515   8.805 -0.8037 -0.6102 -2.2474
 1020MOL0     H40760   3.417   9.534   8.754 -0.5674  0.9161  0.1315
 1021MOL0     O40761   8.068   0.067   0.592 -0.1641  0.4058  0.8835
 1021MOL0     C40762   7.987   0.109   0.670  0.4313  0.2557  1.0093
 1021MOL0     O40763   8.013   0.110   0.802 -0.1397  0.0760 -0.0126
 1021MOL0     C40764   8.139   0.137   0.834 -0.1342 -0.0875  0.3490
 1021MOL0     C40765   8.203   0.041   0.904 -0.2866 -0.1678 -0.4566
 1021MOL0     C40766   8.344   0.060   0.940 -0.5489 -0.0882  0.2427
 1021MOL0     C40767   8.418   0.165   0.888 -0.1219  0.5065  0.5655
 1021MOL0     O40768   8.555   0.158   0.911 -0.3226 -0.0492  0.0905
 1021MOL0     C40769   8.624   0.286   0.907 -0.1679 -0.5608 -0.3594
 1021MOL0     C40770   8.772   0.282   0.919  0.3573  0.3299  0.2493
 1021MOL0     C40771   8.807   0.198   1.043  0.5494  0.8379  0.0628
 1021MOL0     C40772   8.800   0.275   1.169 -0.3407 -0.5037  0.4886
 1021MOL0     C40773   8.781   0.189   1.297 -0.4163 -0.4040  0.9520
 1021MOL0     C40774   8.885   0.079   1.315 -0.3465  0.5119 -0.5852
 1021MOL0     C40775   9.030   0.132   1.329  0.2409 -0.0310  0.2836
 1021MOL0     C40776   9.056   0.251   1.409  0.0995 -0.2507  0.8946
 1021MOL0     N40777   9.193   0.289   1.416  0.3821 -0.7790  0.1347
 1021MOL0     C40778   9.296   0.281   1.319  0.7017 -0.8334 -0.3380
 1021MOL0     C40779   9.410   0.266   1.382  1.4634 -1.0317  0.2442
 1021MOL0     C40780   9.537   0.245   1.300 -0.0903 -0.4811 -0.4821
 1021MOL0     C40781   9.630   0.160   1.378  0.3617 -0.1645  0.1525
 1021MOL0     C40782   9.724   0.082   1.280 -0.2577 -0.4111 -0.5995
 1021MOL0     C40783   9.837   0.020   1.362  0.3881 -0.3028  0.4475
 1021MOL0     O40784   9.912   0.132   1.410  0.0575 -0.4287  0.0030
 1021MOL0     C40785  10.049   0.110   1.415  0.0637  0.3456  0.7731
 1021MOL0     C40786  10.101   0.008   1.500  0.7925 -0.4903  0.1273
 1021MOL0     C40787  10.241  -0.009   1.510  0.2501  0.0783 -0.3267
 1021MOL0     C40788  10.303  -0.105   1.605 -0.0391  0.2172 -1.0156
 1021MOL0     C40789  10.328   0.074   1.431  0.5392  0.4041  0.3120
 1021MOL0     C40790  10.473   0.074   1.431 -0.3819 -0.8114  0.1374
 1021MOL0     O40791  10.532  -0.045   1.446  0.5236 -0.1741  0.3559
 1021MOL0     C40792  10.665  -0.054   1.493 -0.0122  0.6700 -0.7143
 1021MOL0     C40793  10.680  -0.099   1.625  0.5780  0.1955  0.1090
 1021MOL0     C40794  10.801  -0.107   1.695  0.0369  0.4787 -0.0210
 1021MOL0     C40795  10.925  -0.076   1.616  0.9994 -0.0719  0.0856
 1021MOL0     O40796  11.050  -0.086   1.676  0.6180  0.1450 -0.2886
 1021MOL0     C40797  11.158  -0.136   1.604 -0.0044  0.2556  0.4435
 1021MOL0     C40798  11.288  -0.076   1.655  0.0812  0.4485 -0.7069
 1021MOL0     C40799  11.409  -0.156   1.603  0.1166  0.1576  0.3729
 1021MOL0     C40800  11.543  -0.083   1.634 -0.0633 -0.6170 -0.4430
 1021MOL0     C40801  11.660  -0.171   1.634  0.3726  1.7637  0.6121
 1021MOL0     C40802  11.787  -0.102   1.683 -0.3415  0.6703 -0.4664
 1021MOL0     C40803  11.910  -0.194   1.680  0.7498  0.5436  0.0032
 1021MOL0     C40804  12.039  -0.113   1.682  1.1113 -0.0433  0.2276
 1021MOL0    Cl40805  12.036  -0.015   1.534  0.0491 -0.1435 -0.4794
 1021MOL0     C40806  10.903  -0.026   1.482 -1.0231  0.2121  0.3234
 1021MOL0     C40807  10.777  -0.025   1.418  0.1057 -0.1197 -0.5371
 1021MOL0     O40808  10.532   0.184   1.435 -0.6584  0.7379  0.0458
 1021MOL0     C40809  10.266   0.169   1.346 -0.4124  0.2013  0.1862
 1021MOL0     C40810  10.137   0.184   1.332  0.7408  0.4762  0.2059
 1021MOL0     N40811   9.384   0.263   1.514 -0.3128  0.1109  0.0018
 1021MOL0     N40812   9.254   0.281   1.535  0.4002 -0.2405 -0.3746
 1021MOL0     C40813   8.346   0.264   0.824 -0.1138 -0.2199  0.8459
 1021MOL0     C40814   8.207   0.247   0.790  0.4628  0.3630  0.7610
 1021MOL0     C40815   7.851   0.136   0.628  0.6259 -0.2962 -0.4663
 1021MOL0     C40816   7.758   0.167   0.732 -0.3312  0.0161  0.1467
 1021MOL0     C40817   7.621   0.191   0.706 -0.0729 -0.4877 -0.0150
 1021MOL0     C40818   7.576   0.183   0.578 -0.0052  0.4642 -1.1026
 1021MOL0     O40819   7.450   0.213   0.532 -0.3502 -0.2677 -0.3992
 1021MOL0     C40820   7.378   0.298   0.623  0.9152 -0.0552 -0.6572
 1021MOL0     C40821   7.250   0.338   0.557  0.3374 -0.9751 -0.1122
 1021MOL0     C40822   7.164   0.417   0.662  0.0935  0.3560  0.0591
 1021MOL0     C40823   7.021   0.436   0.598  0.8235  0.5924  0.4608
 1021MOL0     C40824   7.025   0.548   0.507 -1.1753  0.4449  0.0274
 1021MOL0     C40825   7.017   0.626   0.421 -0.4685 -0.6094  0.4182
 1021MOL0     C40826   7.664   0.142   0.477 -0.0392 -0.1079  0.9350
 1021MOL0     C40827   7.802   0.125   0.496 -0.8161  0.2442 -0.6228
 1021MOL0     C40828   7.885   0.068   0.378  0.5078 -0.2198 -0.5939
 1021MOL0     H40829   8.151  -0.051   0.931  2.2012 -2.3438 -2.5178
 1021MOL0     H40830   8.390  -0.016   1.003  1.4187  2.8636  2.6077
 1021MOL0     H40831   8.582   0.345   0.989 -0.5189  0.8654 -1.5178
 1021MOL0     H40832   8.607   0.336   0.810  1.6337 -0.5462 -0.7037
 1021MOL0     H40833   8.806   0.231   0.829 -4.0658 -2.5870 -0.0935
 1021MOL0     H40834   8.816   0.382   0.922  0.7087  0.1869 -0.1047
 1021MOL0     H40835   8.740   0.113   1.056  1.9332 -0.4256 -0.7852
 1021MOL0     H40836   8.909   0.162   1.028  0.8532  1.2651  1.0135
 1021MOL0     H40837   8.898   0.323   1.171 -0.2678 -0.6723  0.8704
 1021MOL0     H40838   8.717   0.346   1.168  1.1813  1.3589  0.5435
 1021MOL0     H40839   8.686   0.135   1.304  0.5834 -2.5642 -0.7650
 1021MOL0     H40840   8.785   0.255   1.383  0.3961  0.1230  0.5199
 1021MOL0     H40841   8.853   0.036   1.411  0.5570  0.7372 -0.1722
 1021MOL0     H40842   8.870  -0.002   1.243 -1.5144 -0.6725  0.9089
 1021MOL0     H40843   9.065   0.154   1.228 -1.9749  2.0504 -0.1138
 1021MOL0     H40844   9.092   0.050   1.368 -2.4316 -1.8894  0.9191
 1021MOL0     H40845   8.997   0.335   1.371  1.7524 -0.5298 -2.5857
 1021MOL0     H40846   9.020   0.224   1.509  0.6187 -3.7947  0.2326
 1021MOL0     H40847   9.273   0.279   1.213 -2.5051  2.1791  0.1071
 1021MOL0     H40848   9.593   0.337   1.281  0.6016 -0.7714  0.0915
 1021MOL0     H40849   9.505   0.197   1.207  2.6138 -0.6965 -1.4079
 1021MOL0     H40850   9.692   0.231   1.434 -0.2981 -0.3219  1.1020
 1021MOL0     H40851   9.579   0.091   1.446  2.1427 -1.5314  0.1972
 1021MOL0     H40852   9.660   0.015   1.221 -2.0889  0.9482 -0.2495
 1021MOL0     H40853   9.763   0.145   1.199 -1.7463  1.5039  0.0844
 1021MOL0     H40854   9.803  -0.043   1.446  0.2033 -0.0222  0.5847
 1021MOL0     H40855   9.887  -0.041   1.287 -1.2371  0.0032 -0.9538
 1021MOL0     H40856  10.036  -0.051   1.564 -0.0910  0.3425  0.0218
 1021MOL0     H40857  10.221  -0.150   1.662  0.6803  0.6711  0.4181
 1021MOL0     H40858  10.367  -0.057   1.680 -1.2402  0.1734  0.0819
 1021MOL0     H40859  10.363  -0.182   1.556  0.9851 -0.8869  1.7760
 1021MOL0     H40860  10.589  -0.126   1.678 -1.3609 -1.1363 -3.5329
 1021MOL0     H40861  10.808  -0.144   1.796  0.7901  1.4123  0.2888
 1021MOL0     H40862  11.160  -0.245   1.615 -0.6213  0.2604  0.6380
 1021MOL0     H40863  11.157  -0.116   1.496 -0.4737  0.1063  0.4155
 1021MOL0     H40864  11.292   0.029   1.624  2.0916 -0.2346 -3.0451
 1021MOL0     H40865  11.291  -0.068   1.764 -0.0492  0.9416 -0.7352
 1021MOL0     H40866  11.402  -0.162   1.494 -0.3303  3.8574  0.0639
 1021MOL0     H40867  11.410  -0.257   1.645  2.4936  0.6772  1.7346
 1021MOL0     H40868  11.535  -0.037   1.732  0.6034  1.7121 -1.4162
 1021MOL0     H40869  11.548   0.001   1.563  1.6347  0.8990  1.3613
 1021MOL0     H40870  11.635  -0.252   1.703  1.8885 -1.5680 -2.4430
 1021MOL0     H40871  11.681  -0.215   1.536 -0.0424  0.8216  0.9401
 1021MOL0     H40872  11.778  -0.072   1.788  1.7882  1.2528 -0.4034
 1021MOL0     H40873  11.798  -0.010   1.625 -3.5958  3.2184  2.5422
 1021MOL0     H40874  11.899  -0.246   1.585 -3.0758  2.4350 -0.7896
 1021MOL0     H40875  11.896  -0.266   1.761 -2.1066  1.4285  0.4146
 1021MOL0     H40876  12.125  -0.180   1.670  0.7423 -0.4268 -0.2906
 1021MOL0     H40877  12.038  -0.048   1.770 -1.1681 -1.5531  1.4087
 1021MOL0     H40878  10.986  -0.002   1.416 -3.5485 -0.2709 -3.3355
 1021MOL0     H40879  10.781   0.007   1.315  2.7399 -0.2887 -0.5553
 1021MOL0     H40880  10.338   0.215   1.278 -1.1645 -0.1885 -0.8992
 1021MOL0     H40881  10.096   0.262   1.267  2.3664  1.3314  0.1638
 1021MOL0     H40882   8.390   0.361   0.800  0.5991 -0.0657  2.5936
 1021MOL0     H40883   8.156   0.325   0.734 -0.4751 -0.4724  0.4318
 1021MOL0     H40884   7.796   0.166   0.834 -1.9261 -0.5937  0.7544
 1021MOL0     H40885   7.561   0.222   0.791  1.5219 -1.7062  1.6124
 1021MOL0     H40886   7.349   0.251   0.717  0.8048  0.5381 -0.3947
 1021MOL0     H40887   7.435   0.389   0.645 -0.2962  0.3963  0.7418
 1021MOL0     H40888   7.203   0.249   0.514 -1.4503  1.1679 -2.9745
 1021MOL0     H40889   7.284   0.403   0.476  0.4784  0.4353  1.0308
 1021MOL0     H40890   7.154   0.352   0.749  0.6574  0.1362 -0.0387
 1021MOL0     H40891   7.205   0.514   0.694 -0.9260  0.7547  0.2004
 1021MOL0     H40892   6.944   0.461   0.672  0.5588 -0.4785  0.5559
 1021MOL0     H40893   6.994   0.342   0.549 -0.5471  1.4082 -0.4233
 1021MOL0     H40894   7.022   0.701   0.344 -0.5499 -1.5090 -0.4714
 1021MOL0     H40895   7.632   0.127   0.375 -2.7598 -0.4188  1.7476
 1021MOL0     H40896   7.812   0.049   0.299 -0.5042 -3.5365  0.9388
 1021MOL0     H40897   7.966   0.127   0.337  1.2235  0.8745  2.1507
 1021MOL0     H40898   7.927  -0.028   0.411  1.1792  0.2882  0.0510
 1022MOL0     O40899   7.374   6.830   5.258  0.1100  0.2069  0.1759
 1022MOL0     C40900   7.293   6.741   5.231 -0.9183  0.0257  0.2408
 1022MOL0     O40901   7.325   6.616   5.187  0.0660 -0.1058 -0.9335
 1022MOL0     C40902   7.448   6.572   5.175  0.5318  1.1234  0.0166
 1022MOL0     C40903   7.547   6.577   5.280  0.2340 -0.1272  0.1595
 1022MOL0     C40904   7.675   6.517   5.272  0.7381  0.4719 -0.0739
 1022MOL0     C40905   7.718   6.458   5.156 -0.8910  0.2173 -0.2610
 1022MOL0     O40906   7.844   6.409   5.146 -0.3854  0.4984  0.2854
 1022MOL0     C40907   7.904   6.342   5.031 -0.5960  0.0729 -0.1386
 1022MOL0     C40908   8.022   6.265   5.092  0.8000  0.1082  0.1380
 1022MOL0     C40909   8.087   6.163   5.002 -0.0429 -0.1413 -0.1002
 1022MOL0     C40910   8.207   6.100   5.067  0.6989  0.2030  0.9346
 1022MOL0     C40911   8.287   6.011   4.966  0.6340 -0.7598  0.4476
 1022MOL0     C40912   8.395   5.939   5.046 -0.4083 -0.3157 -0.3944
 1022MOL0     C40913   8.419   5.798   4.983 -0.3916  0.0225  0.7711
 1022MOL0     C40914   8.476   5.793   4.840 -0.5934 -0.4031 -0.5703
 1022MOL0     N40915   8.485   5.660   4.782 -0.4182 -0.4902  0.1716
 1022MOL0     C40916   8.599   5.588   4.749  0.5497 -0.2762  0.9865
 1022MOL0     C40917   8.552   5.468   4.698  0.7478 -0.7085  0.2240
 1022MOL0     C40918   8.642   5.367   4.637  0.1203  0.9715  0.0998
 1022MOL0     C40919   8.611   5.226   4.698  0.0576  0.3610 -0.3391
 1022MOL0     C40920   8.722   5.122   4.675 -1.0065  0.4550  0.3334
 1022MOL0     C40921   8.717   5.082   4.533 -0.6417 -0.0270 -0.4030
 1022MOL0     O40922   8.617   4.982   4.520  0.1456  0.1769 -0.1062
 1022MOL0     C40923   8.661   4.850   4.513  0.6245 -0.3638  1.1845
 1022MOL0     C40924   8.780   4.806   4.573 -1.0496  0.6691 -0.3312
 1022MOL0     C40925   8.810   4.670   4.591 -0.7225  0.6254 -0.5197
 1022MOL0     C40926   8.947   4.646   4.655 -0.2915  0.0072  0.2931
 1022MOL0     C40927   8.722   4.575   4.546 -0.5371  0.3062  0.1626
 1022MOL0     C40928   8.749   4.430   4.564  0.9774 -0.1434 -1.2649
 1022MOL0     O40929   8.670   4.345   4.489 -0.9217 -0.7630  0.2315
 1022MOL0     C40930   8.677   4.212   4.505 -0.4779  0.5013  0.7647
 1022MOL0     C40931   8.699   4.132   4.391  0.0105  0.3574  0.2270
 1022MOL0     C40932   8.716   3.993   4.420 -0.2395 -1.2850  0.8464
 1022MOL0     C40933   8.704   3.941   4.551 -0.1740  0.5810  0.1465
 1022MOL0     O40934   8.724   3.801   4.560  0.9079 -0.6038  0.6359
 1022MOL0     C40935   8.658   3.738   4.677 -0.3249  0.0986  0.0057
 1022MOL0     C40936   8.649   3.581   4.656  0.5242  0.7504 -0.2070
 1022MOL0     C40937   8.534   3.525   4.738 -0.7158  0.8053  0.3202
 1022MOL0     C40938   8.520   3.370   4.716 -0.6171  0.4035  0.7352
 1022MOL0     C40939   8.395   3.319   4.798 -0.3513  0.1594 -1.0807
 1022MOL0     C40940   8.424   3.325   4.949  0.3113 -0.1556  0.2308
 1022MOL0     C40941   8.309   3.247   5.019  0.3444  0.5932 -0.2238
 1022MOL0     C40942   8.348   3.223   5.163  0.5365 -0.1701 -0.5604
 1022MOL0    Cl40943   8.458   3.082   5.170 -0.1987 -0.2884 -0.0774
 1022MOL0     C40944   8.668   4.023   4.657 -0.4069 -0.3783 -0.3388
 1022MOL0     C40945   8.663   4.153   4.626  0.8083 -0.5472 -0.2599
 1022MOL0     O40946   8.834   4.388   4.648  0.2345 -0.1059  0.1147
 1022MOL0     C40947   8.605   4.616   4.474  0.1340  0.4864  1.0303
 1022MOL0     C40948   8.574   4.749   4.464 -0.2599 -0.5250  0.6232
 1022MOL0     N40949   8.416   5.473   4.716 -0.2910 -0.5535 -0.1926
 1022MOL0     N40950   8.374   5.588   4.758 -0.8034 -0.2555 -0.5336
 1022MOL0     C40951   7.623   6.447   5.050  0.2334 -0.0810 -0.3107
 1022MOL0     C40952   7.490   6.500   5.062 -0.6395  0.0427 -0.0754
 1022MOL0     C40953   7.154   6.783   5.253  0.4407 -0.3386  0.4038
 1022MOL0     C40954   7.064   6.727   5.163 -0.1481  1.3686  0.0678
 1022MOL0     C40955   6.922   6.761   5.178 -0.6775 -0.2739  0.1988
 1022MOL0     C40956   6.873   6.847   5.271 -0.6154 -0.2988  0.2980
 1022MOL0     O40957   6.738   6.883   5.279 -0.0227 -0.1806  0.3101
 1022MOL0     C40958   6.657   6.880   5.160  0.2373  0.1786  0.4980
 1022MOL0     C40959   6.558   6.989   5.145 -0.1992 -0.3627  0.4446
 1022MOL0     C40960   6.472   7.029   5.271  0.7234  0.1019  0.3766
 1022MOL0     C40961   6.364   7.130   5.236  0.1760  0.1526 -0.9270
 1022MOL0     C40962   6.260   7.066   5.163  0.2682 -0.2061 -0.8798
 1022MOL0     C40963   6.176   6.998   5.110  0.7779 -0.7856 -0.0591
 1022MOL0     C40964   6.964   6.910   5.363  0.0119  0.8303  0.7853
 1022MOL0     C40965   7.102   6.876   5.350 -0.7314 -0.0340 -0.8969
 1022MOL0     C40966   7.189   6.940   5.458 -0.5011 -0.1133  0.7121
 1022MOL0     H40967   7.531   6.638   5.368 -0.6029  1.3486 -0.9768
 1022MOL0     H40968   7.745   6.511   5.355  0.3302  0.7284  0.2919
 1022MOL0     H40969   7.946   6.414   4.960 -3.5616 -1.2071 -3.4756
 1022MOL0     H40970   7.831   6.271   4.989  1.0071 -0.7221 -1.6915
 1022MOL0     H40971   8.095   6.345   5.104  0.7675  0.9367 -3.8404
 1022MOL0     H40972   7.984   6.232   5.189 -5.8983  2.8528 -0.9715
 1022MOL0     H40973   8.013   6.092   4.964 -0.3820  0.6773 -1.0095
 1022MOL0     H40974   8.114   6.222   4.914 -0.0726  3.0510  1.8750
 1022MOL0     H40975   8.276   6.179   5.096  0.2015  0.8713  0.3361
 1022MOL0     H40976   8.170   6.038   5.149  1.3281 -1.7932 -0.2168
 1022MOL0     H40977   8.344   6.071   4.894  0.6541  2.3242  2.7918
 1022MOL0     H40978   8.224   5.941   4.910 -1.8849  0.5780  1.4150
 1022MOL0     H40979   8.484   6.002   5.037  0.0309 -1.0154 -1.2114
 1022MOL0     H40980   8.383   5.919   5.153  3.1231 -0.0429  0.1828
 1022MOL0     H40981   8.328   5.738   4.988  0.4248 -1.5270 -1.4046
 1022MOL0     H40982   8.488   5.745   5.050  0.9344  1.8864  0.9622
 1022MOL0     H40983   8.415   5.868   4.789 -3.8494 -0.7464  2.4614
 1022MOL0     H40984   8.579   5.826   4.858 -1.0482  0.5236  0.4213
 1022MOL0     H40985   8.704   5.616   4.758  1.2273 -1.6406 -1.6791
 1022MOL0     H40986   8.745   5.390   4.664 -0.6003  3.4770  0.9814
 1022MOL0     H40987   8.650   5.384   4.529 -0.2497  1.5099  0.1526
 1022MOL0     H40988   8.600   5.235   4.806 -2.2937 -0.2151 -0.4823
 1022MOL0     H40989   8.519   5.187   4.654 -0.2463  1.9664 -1.2319
 1022MOL0     H40990   8.816   5.167   4.710 -0.8725 -0.6508  1.4851
 1022MOL0     H40991   8.711   5.043   4.751  1.1924 -0.8265 -0.5827
 1022MOL0     H40992   8.693   5.164   4.464  0.2957  0.0118 -0.7081
 1022MOL0     H40993   8.814   5.049   4.494 -0.2155  0.5773  0.1230
 1022MOL0     H40994   8.850   4.881   4.610  2.0892 -0.5818 -3.1520
 1022MOL0     H40995   9.006   4.737   4.671  1.8604 -0.8387 -2.1702
 1022MOL0     H40996   9.003   4.587   4.581  0.0307  1.6718 -0.8581
 1022MOL0     H40997   8.935   4.593   4.749  3.2279  0.7229  1.2825
 1022MOL0     H40998   8.699   4.172   4.290  0.7225  0.1462  0.1395
 1022MOL0     H40999   8.732   3.926   4.336 -0.1226 -0.4556  0.1978
 1022MOL0     H41000   8.707   3.754   4.773  1.6455 -2.3065 -0.4870
 1022MOL0     H41001   8.554   3.770   4.689 -0.6891 -1.3048  0.8469
 1022MOL0     H41002   8.643   3.557   4.550 -1.5394 -2.1238  0.4465
 1022MOL0     H41003   8.740   3.531   4.691  0.1502  1.0266  1.2250
 1022MOL0     H41004   8.439   3.573   4.710 -2.2263 -2.3046 -0.3510
 1022MOL0     H41005   8.553   3.542   4.844 -0.6621 -1.0063  0.6236
 1022MOL0     H41006   8.607   3.315   4.755 -0.3609 -1.6333 -2.3841
 1022MOL0     H41007   8.513   3.354   4.609 -1.1679 -0.6064  0.9166
 1022MOL0     H41008   8.310   3.382   4.768 -0.4297  0.1882 -0.8093
 1022MOL0     H41009   8.382   3.214   4.773  1.2249  0.1864 -2.0947
 1022MOL0     H41010   8.414   3.428   4.983 -4.2120 -0.2578 -0.1922
 1022MOL0     H41011   8.519   3.281   4.982  1.1947  1.8178  0.4338
 1022MOL0     H41012   8.279   3.153   4.972  0.8278 -0.5495  1.6255
 1022MOL0     H41013   8.225   3.317   5.016 -1.8618 -1.9259 -1.6105
 1022MOL0     H41014   8.259   3.203   5.224  0.5674 -0.7509 -0.7017
 1022MOL0     H41015   8.405   3.307   5.204  1.8615 -1.0019 -0.6375
 1022MOL0     H41016   8.657   3.996   4.762  1.6110  0.6347  0.1945
 1022MOL0     H41017   8.637   4.227   4.702  1.9522 -0.0847 -0.2867
 1022MOL0     H41018   8.527   4.549   4.439  1.4557  0.6447 -2.6876
 1022MOL0     H41019   8.479   4.781   4.423  0.1633  0.2903  0.2603
 1022MOL0     H41020   7.650   6.385   4.965  1.8970 -0.9155  0.7870
 1022MOL0     H41021   7.420   6.477   4.983 -2.2109  1.0163  0.9639
 1022MOL0     H41022   7.092   6.669   5.076 -0.3559  2.6233 -0.8746
 1022MOL0     H41023   6.868   6.729   5.090  1.7008 -1.8605 -0.7776
 1022MOL0     H41024   6.721   6.891   5.072 -0.7251  0.1180 -0.2185
 1022MOL0     H41025   6.608   6.783   5.147  1.1348 -0.1778 -0.3001
 1022MOL0     H41026   6.512   6.971   5.048 -0.2465  2.3350 -0.1112
 1022MOL0     H41027   6.612   7.082   5.124  0.1175 -0.3747  1.1478
 1022MOL0     H41028   6.429   6.941   5.321  0.4377 -0.5378 -0.9516
 1022MOL0     H41029   6.542   7.081   5.338 -1.0860  1.1953  1.4892
 1022MOL0     H41030   6.396   7.225   5.193 -0.8874  2.6103  3.1499
 1022MOL0     H41031   6.323   7.160   5.333 -1.1249  1.2308 -1.7693
 1022MOL0     H41032   6.102   6.941   5.059  0.4237  2.2946 -3.3693
 1022MOL0     H41033   6.931   6.976   5.443  0.1158 -1.0413  2.4560
 1022MOL0     H41034   7.137   6.931   5.553 -0.4798  0.8069  0.8258
 1022MOL0     H41035   7.281   6.883   5.473 -0.6536 -1.4488 -2.6570
 1022MOL0     H41036   7.206   7.047   5.439 -1.1948  0.0701  1.0970
 1023MOL0     O41037   8.130   5.983   7.712  0.8918 -0.5895  0.4620
 1023MOL0     C41038   8.174   5.997   7.598 -0.2285 -0.8383 -0.3286
 1023MOL0     O41039   8.303   5.991   7.563 -0.2112 -0.1561  0.4480
 1023MOL0     C41040   8.401   6.012   7.662 -0.1840  0.0584 -0.2698
 1023MOL0     C41041   8.493   6.116   7.669  0.0213  0.5532  0.8332
 1023MOL0     C41042   8.583   6.125   7.778  0.1703  1.0836 -0.3020
 1023MOL0     C41043   8.600   6.024   7.879  0.3700 -0.5574  0.4456
 1023MOL0     O41044   8.697   6.031   7.971 -0.0991 -0.2273 -0.2519
 1023MOL0     C41045   8.790   6.146   7.969 -0.4340 -0.5102  0.1192
 1023MOL0     C41046   8.880   6.151   8.101 -1.6180  0.8689 -0.9310
 1023MOL0     C41047   9.002   6.051   8.099  0.0208 -0.3967  0.8235
 1023MOL0     C41048   9.108   6.093   8.202 -0.3056  0.2218 -0.0855
 1023MOL0     C41049   9.243   6.031   8.171 -0.5112  0.3580 -1.0619
 1023MOL0     C41050   9.344   6.062   8.280 -0.1941  0.2626 -0.3777
 1023MOL0     C41051   9.488   6.031   8.231  0.1407  0.7375 -0.0281
 1023MOL0     C41052   9.577   6.089   8.336 -1.1104  0.0178  0.1601
 1023MOL0     N41053   9.721   6.046   8.323  0.0999  0.3341  0.4827
 1023MOL0     C41054   9.832   6.113   8.369  0.5483  0.3754 -0.5956
 1023MOL0     C41055   9.940   6.043   8.331 -0.2266 -0.0393 -0.4999
 1023MOL0     C41056  10.076   6.082   8.380  0.9626  0.1840  1.0117
 1023MOL0     C41057  10.173   5.974   8.381 -0.8447 -0.5595 -0.0949
 1023MOL0     C41058  10.316   6.034   8.372 -0.0104  0.0170 -0.0828
 1023MOL0     C41059  10.409   5.914   8.332 -0.2949 -0.7428 -0.5749
 1023MOL0     O41060  10.446   5.853   8.460  0.5315  0.4008  0.1161
 1023MOL0     C41061  10.533   5.746   8.465  0.6779  0.7233  0.4160
 1023MOL0     C41062  10.569   5.694   8.587  0.5676 -0.0797 -0.1762
 1023MOL0     C41063  10.673   5.601   8.601  0.3555  1.0717 -0.1584
 1023MOL0     C41064  10.715   5.570   8.747 -0.4857  0.5385  1.1257
 1023MOL0     C41065  10.733   5.546   8.487  0.3361  0.2108 -0.1502
 1023MOL0     C41066  10.849   5.457   8.495 -0.8488 -0.2710  0.4961
 1023MOL0     O41067  10.905   5.421   8.376  0.1028  0.0040 -0.0728
 1023MOL0     C41068  11.011   5.334   8.392  0.0469 -0.3315 -0.3631
 1023MOL0     C41069  11.142   5.388   8.375  0.2121 -0.4815  0.2680
 1023MOL0     C41070  11.246   5.300   8.368 -0.6155  0.3748 -0.0316
 1023MOL0     C41071  11.234   5.161   8.363 -0.4762 -0.3047 -0.3553
 1023MOL0     O41072  11.354   5.094   8.372  0.1052  0.0321 -0.3340
 1023MOL0     C41073  11.337   4.956   8.412  0.1168  0.5651 -0.2398
 1023MOL0     C41074  11.474   4.888   8.434 -0.3125 -0.8670  0.9335
 1023MOL0     C41075  11.566   4.981   8.521  0.7639  0.0123  0.1928
 1023MOL0     C41076  11.667   4.894   8.596  0.5218  0.0274  0.0531
 1023MOL0     C41077  11.789   4.979   8.639 -0.5430 -0.2866  0.0944
 1023MOL0     C41078  11.894   4.902   8.715  0.3255 -0.1137 -0.0502
 1023MOL0     C41079  11.851   4.857   8.848  0.4580  0.2929 -0.2473
 1023MOL0     C41080  11.965   4.829   8.941  0.6257  0.0496 -0.4397
 1023MOL0    Cl41081  12.098   4.726   8.879  0.3326  0.2342 -0.3643
 1023MOL0     C41082  11.102   5.108   8.364  1.0579 -0.0286  0.2283
 1023MOL0     C41083  10.995   5.197   8.384  0.8128  0.3346  0.8478
 1023MOL0     O41084  10.893   5.424   8.607  0.6503 -0.7276  0.0171
 1023MOL0     C41085  10.689   5.589   8.359 -0.9000  0.3517  0.0733
 1023MOL0     C41086  10.592   5.691   8.347 -0.1578  0.2160  0.4583
 1023MOL0     N41087   9.897   5.932   8.258 -0.1688  0.3694 -0.6694
 1023MOL0     N41088   9.768   5.932   8.258  0.3271  0.1071  0.7844
 1023MOL0     C41089   8.514   5.915   7.871 -0.1319  0.0073  0.4051
 1023MOL0     C41090   8.419   5.917   7.768 -0.1155 -0.6360  0.2546
 1023MOL0     C41091   8.082   6.024   7.489  0.2162 -0.1174 -0.8416
 1023MOL0     C41092   8.128   6.108   7.385  0.2699 -0.2923  0.7627
 1023MOL0     C41093   8.034   6.163   7.300 -0.5737 -0.6867  0.5050
 1023MOL0     C41094   7.902   6.138   7.296  0.9867  0.1549  0.1474
 1023MOL0     O41095   7.823   6.207   7.207 -0.2681 -0.4244 -0.2011
 1023MOL0     C41096   7.706   6.141   7.173  0.3843  0.1342 -0.1473
 1023MOL0     C41097   7.660   6.175   7.030  0.5092  0.1613  1.1046
 1023MOL0     C41098   7.531   6.089   7.004  0.0347 -0.2220  0.4274
 1023MOL0     C41099   7.488   6.101   6.853  0.1530 -0.4577  0.1620
 1023MOL0     C41100   7.369   6.024   6.813  0.0837 -0.5129  0.4210
 1023MOL0     C41101   7.272   5.948   6.790  0.6034 -0.0340 -0.7649
 1023MOL0     C41102   7.864   6.053   7.401 -0.2777 -0.3621  0.2880
 1023MOL0     C41103   7.945   6.001   7.501 -0.7593  0.5611 -0.1728
 1023MOL0     C41104   7.867   5.921   7.609 -0.4530  0.0924 -0.8743
 1023MOL0     H41105   8.497   6.200   7.600  1.4623  0.2542  0.5152
 1023MOL0     H41106   8.645   6.214   7.781 -3.3714  3.7476  0.0529
 1023MOL0     H41107   8.732   6.238   7.966 -0.1563 -0.2167  2.1861
 1023MOL0     H41108   8.857   6.139   7.882 -0.6955  0.8734 -0.2208
 1023MOL0     H41109   8.912   6.255   8.112 -1.1886  0.7757 -1.2941
 1023MOL0     H41110   8.823   6.129   8.192 -1.1468 -0.5185 -0.9504
 1023MOL0     H41111   8.981   5.945   8.117  1.9289 -0.8676  0.5104
 1023MOL0     H41112   9.034   6.065   7.995 -1.5505 -1.1996  0.1958
 1023MOL0     H41113   9.113   6.202   8.208 -0.4066  0.1268  3.0290
 1023MOL0     H41114   9.077   6.075   8.305 -0.2882  2.9033  0.4586
 1023MOL0     H41115   9.278   6.079   8.079  0.0263 -2.7766 -2.6263
 1023MOL0     H41116   9.243   5.923   8.155  1.1172  0.2858 -0.7905
 1023MOL0     H41117   9.331   6.170   8.294 -1.2398 -0.0804  1.6558
 1023MOL0     H41118   9.308   6.006   8.367 -0.5574 -2.9853 -2.4405
 1023MOL0     H41119   9.505   6.061   8.127 -2.0241 -2.0999 -1.3338
 1023MOL0     H41120   9.494   5.923   8.215  1.8471  1.2553 -4.5347
 1023MOL0     H41121   9.568   6.198   8.340  1.1519  0.2499  3.6522
 1023MOL0     H41122   9.539   6.056   8.433  2.7378 -1.4644  1.3419
 1023MOL0     H41123   9.826   6.206   8.423  2.8653 -0.5699  1.4630
 1023MOL0     H41124  10.072   6.140   8.473 -1.7411  1.4228  0.2461
 1023MOL0     H41125  10.106   6.155   8.304 -4.5770  4.0544  1.8866
 1023MOL0     H41126  10.170   5.922   8.477 -1.4785 -2.2277 -0.9911
 1023MOL0     H41127  10.160   5.898   8.303  1.2851  0.4030 -1.5089
 1023MOL0     H41128  10.324   6.106   8.290  1.2836  1.1158  0.9667
 1023MOL0     H41129  10.351   6.084   8.463 -0.3993 -0.9690  0.6358
 1023MOL0     H41130  10.365   5.841   8.263  1.6371 -4.2084  1.5878
 1023MOL0     H41131  10.502   5.945   8.284 -0.9320 -0.3315 -1.5843
 1023MOL0     H41132  10.518   5.739   8.672 -1.5774 -1.1972 -0.7858
 1023MOL0     H41133  10.647   5.621   8.815 -1.1614  2.6100 -0.9591
 1023MOL0     H41134  10.817   5.596   8.775  0.8806 -3.4077  0.5296
 1023MOL0     H41135  10.707   5.462   8.767 -3.2756  0.2488 -0.9178
 1023MOL0     H41136  11.166   5.493   8.370  0.3447 -0.4025  1.9153
 1023MOL0     H41137  11.346   5.341   8.366  0.3353 -1.6121 -3.9071
 1023MOL0     H41138  11.279   4.956   8.505 -1.5586 -0.3143 -1.2235
 1023MOL0     H41139  11.284   4.897   8.336 -1.6649  0.1040  1.2761
 1023MOL0     H41140  11.472   4.787   8.476  0.2591 -1.8373 -1.2048
 1023MOL0     H41141  11.507   4.882   8.330  0.4662 -2.6342  1.2449
 1023MOL0     H41142  11.509   5.051   8.581  0.3030  0.9964 -1.3270
 1023MOL0     H41143  11.611   5.045   8.444 -2.0780 -0.7499 -2.3114
 1023MOL0     H41144  11.693   4.817   8.523 -1.2432  0.0087 -0.5791
 1023MOL0     H41145  11.617   4.849   8.682 -0.5154  0.3353 -0.3731
 1023MOL0     H41146  11.827   5.016   8.544 -0.2875 -2.0373 -0.5164
 1023MOL0     H41147  11.756   5.066   8.697  0.4856 -0.9698  1.7939
 1023MOL0     H41148  11.984   4.963   8.727  0.1585  0.0177  0.5742
 1023MOL0     H41149  11.916   4.809   8.662  0.2625 -0.7613  1.0085
 1023MOL0     H41150  11.789   4.769   8.827 -1.1470  1.4276 -0.4293
 1023MOL0     H41151  11.790   4.933   8.896 -0.4365  1.3874 -2.9612
 1023MOL0     H41152  11.906   4.787   9.023 -1.4266  2.9820 -0.2400
 1023MOL0     H41153  12.006   4.925   8.975 -1.6882  2.1148 -3.0057
 1023MOL0     H41154  11.079   5.002   8.364 -0.9932  0.3834  0.0636
 1023MOL0     H41155  10.894   5.158   8.372  1.5120 -1.1665 -0.7477
 1023MOL0     H41156  10.736   5.553   8.269  0.6491  0.4506  0.8013
 1023MOL0     H41157  10.561   5.725   8.248 -2.1186  0.9271  1.2741
 1023MOL0     H41158   8.512   5.831   7.940  0.3607 -0.4783 -0.1636
 1023MOL0     H41159   8.343   5.840   7.779 -0.9039 -0.1656 -1.4233
 1023MOL0     H41160   8.231   6.135   7.362  0.7514 -0.5937  2.4633
 1023MOL0     H41161   8.071   6.233   7.225 -1.1875 -1.1741 -0.2663
 1023MOL0     H41162   7.732   6.034   7.170 -1.0170 -0.2080 -0.9983
 1023MOL0     H41163   7.633   6.157   7.253 -0.3709 -0.0859 -0.7782
 1023MOL0     H41164   7.738   6.155   6.956 -1.4549 -1.2801 -0.6718
 1023MOL0     H41165   7.635   6.281   7.025  0.3660  0.0828 -0.1128
 1023MOL0     H41166   7.549   5.981   7.010  1.5137  0.0301  1.0985
 1023MOL0     H41167   7.447   6.118   7.068 -0.5270 -2.0921  0.6122
 1023MOL0     H41168   7.574   6.079   6.789 -1.1737 -3.3789 -0.7705
 1023MOL0     H41169   7.467   6.208   6.840 -2.9843 -0.7792  1.7118
 1023MOL0     H41170   7.182   5.894   6.771 -1.0537  1.6198  1.8794
 1023MOL0     H41171   7.758   6.031   7.409 -0.7572  1.0424 -1.4584
 1023MOL0     H41172   7.760   5.919   7.586 -0.1683 -1.3978 -2.2981
 1023MOL0     H41173   7.907   5.820   7.620  3.8249  1.8193  2.0543
 1023MOL0     H41174   7.877   5.969   7.706 -1.1281 -1.0125 -0.2362
 1024MOL0     O41175   1.004   3.674  10.270  0.2221 -0.0130  0.1013
 1024MOL0     C41176   0.960   3.773  10.328  0.7457 -0.0036 -0.0404
 1024MOL0     O41177   1.014   3.901  10.313  1.0211  0.4923  0.0435
 1024MOL0     C41178   1.146   3.935  10.311  0.1805  0.3759 -0.4229
 1024MOL0     C41179   1.249   3.846  10.285 -0.0421 -0.1297  0.0753
 1024MOL0     C41180   1.380   3.886  10.282 -0.4172 -0.2675 -0.5202
 1024MOL0     C41181   1.412   4.015  10.323  0.3384 -0.0225  0.3344
 1024MOL0     O41182   1.539   4.058  10.301  0.7580 -0.2819 -0.1405
 1024MOL0     C41183   1.605   4.125  10.407  0.4724  0.8527 -0.6236
 1024MOL0     C41184   1.753   4.080  10.418  1.0644  0.0841  0.0110
 1024MOL0     C41185   1.811   4.167  10.522  0.2440 -0.4015 -0.0354
 1024MOL0     C41186   1.936   4.116  10.594 -0.0342  0.0893  0.2042
 1024MOL0     C41187   2.013   4.215  10.670  0.3893 -0.8551 -0.1762
 1024MOL0     C41188   2.106   4.312  10.586 -0.7470  0.9784 -0.7327
 1024MOL0     C41189   2.243   4.265  10.554  0.3826  0.1601  0.2812
 1024MOL0     C41190   2.335   4.254  10.676  0.1634  0.5609 -0.1971
 1024MOL0     N41191   2.477   4.240  10.649  0.5172 -0.8037  0.6709
 1024MOL0     C41192   2.545   4.144  10.579  0.9685  0.2323  0.2318
 1024MOL0     C41193   2.673   4.181  10.561  0.1970 -0.0442  0.5480
 1024MOL0     C41194   2.781   4.105  10.482  0.0459 -0.2786  0.0631
 1024MOL0     C41195   2.726   4.053  10.347  0.6364  0.4066  0.3337
 1024MOL0     C41196   2.844   4.010  10.246  0.0085 -0.1906  0.0612
 1024MOL0     C41197   2.932   3.890  10.286 -0.4659 -0.6254 -0.0901
 1024MOL0     O41198   3.033   3.878  10.186  0.0789 -0.2026  0.0859
 1024MOL0     C41199   3.139   3.966  10.193 -0.8626 -0.3366 -0.1121
 1024MOL0     C41200   3.180   4.037  10.307 -0.6681 -0.0006 -0.2391
 1024MOL0     C41201   3.302   4.115  10.290  0.1443 -0.0516 -0.3501
 1024MOL0     C41202   3.340   4.219  10.392  0.0696  0.0918  0.5211
 1024MOL0     C41203   3.364   4.118  10.163 -0.2517  0.6220  0.5008
 1024MOL0     C41204   3.472   4.206  10.119  0.0355 -0.1281  0.2969
 1024MOL0     O41205   3.557   4.157  10.025 -0.2919 -0.2466 -0.2909
 1024MOL0     C41206   3.661   4.234   9.983 -0.0601  0.2311 -0.0741
 1024MOL0     C41207   3.651   4.351   9.905  0.0004  0.5917  0.1465
 1024MOL0     C41208   3.765   4.429   9.875  0.3245  0.3374  0.6933
 1024MOL0     C41209   3.893   4.386   9.907 -0.1907  0.4058 -0.3752
 1024MOL0     O41210   4.007   4.458   9.884 -0.3471 -0.5112  0.4307
 1024MOL0     C41211   4.016   4.595   9.921  0.5568  0.5475  1.2619
 1024MOL0     C41212   4.118   4.597  10.027 -0.4992 -0.0507  0.8924
 1024MOL0     C41213   4.184   4.737  10.032 -1.1767 -0.2147  0.1083
 1024MOL0     C41214   4.296   4.762   9.926 -0.1639  0.0736  0.2340
 1024MOL0     C41215   4.372   4.892   9.967  0.2842  0.1277 -0.0326
 1024MOL0     C41216   4.442   4.966   9.852 -1.0810 -0.4032  0.1247
 1024MOL0     C41217   4.572   4.917   9.785 -0.0522  0.4349 -0.3889
 1024MOL0     C41218   4.639   5.039   9.703  0.0518  0.3377  0.1004
 1024MOL0    Cl41219   4.786   4.971   9.647 -0.1017 -0.2159 -0.2922
 1024MOL0     C41220   3.906   4.254   9.961 -0.4991 -0.3761  0.1868
 1024MOL0     C41221   3.793   4.188  10.010  0.4296  0.2402 -0.3834
 1024MOL0     O41222   3.484   4.316  10.169  0.1507  0.8485 -0.1327
 1024MOL0     C41223   3.323   4.028  10.064 -0.2787 -0.2009  0.0849
 1024MOL0     C41224   3.220   3.952  10.084  0.0859 -0.1242  0.9566
 1024MOL0     N41225   2.668   4.319  10.592 -0.1355  0.4922 -0.4097
 1024MOL0     N41226   2.567   4.346  10.665 -0.1314 -0.1516  0.5573
 1024MOL0     C41227   1.307   4.109  10.354 -0.2753  0.1507  0.1355
 1024MOL0     C41228   1.176   4.067  10.346 -0.2965 -0.1243 -0.4328
 1024MOL0     C41229   0.844   3.766  10.416 -0.2276  0.0795 -0.3318
 1024MOL0     C41230   0.781   3.892  10.448 -0.1929 -0.0409  0.3120
 1024MOL0     C41231   0.660   3.893  10.518 -0.1844  0.1518 -0.7914
 1024MOL0     C41232   0.596   3.772  10.541  0.7875  0.1600 -1.5814
 1024MOL0     O41233   0.477   3.773  10.603 -0.1218 -0.1508 -0.3667
 1024MOL0     C41234   0.370   3.731  10.517 -0.0805 -0.3763  0.1745
 1024MOL0     C41235   0.312   3.865  10.442 -0.1565  0.0317 -0.1893
 1024MOL0     C41236   0.257   3.970  10.540 -0.8374 -0.8762  0.1388
 1024MOL0     C41237   0.117   3.957  10.592  0.1499 -0.3608  0.3624
 1024MOL0     C41238   0.031   3.965  10.472 -0.4008  0.4316 -0.4618
 1024MOL0     C41239  -0.039   3.989  10.377 -0.3734  0.3906 -0.2536
 1024MOL0     C41240   0.656   3.647  10.517  0.4307  0.6965 -0.2157
 1024MOL0     C41241   0.779   3.642  10.453  0.6386 -0.9982 -0.1994
 1024MOL0     C41242   0.839   3.508  10.431 -0.9709  0.1036  0.4609
 1024MOL0     H41243   1.233   3.746  10.246  1.2900  0.4557 -2.2268
 1024MOL0     H41244   1.461   3.822  10.248  2.8773  1.4649  3.2512
 1024MOL0     H41245   1.562   4.105  10.506  3.5614  0.6165  0.7778
 1024MOL0     H41246   1.611   4.234  10.396  1.4364  1.1072  1.7823
 1024MOL0     H41247   1.764   3.976  10.450 -1.1378 -0.3603 -0.5073
 1024MOL0     H41248   1.804   4.094  10.323 -0.2172  1.5422 -0.5026
 1024MOL0     H41249   1.836   4.266  10.482  1.7196 -1.3681 -1.6575
 1024MOL0     H41250   1.739   4.181  10.603 -0.1317  1.9412 -0.6902
 1024MOL0     H41251   1.903   4.031  10.655  2.1656 -1.5292 -0.7376
 1024MOL0     H41252   2.013   4.071  10.531  0.3679 -0.3645  1.0053
 1024MOL0     H41253   2.081   4.159  10.735 -1.0137  0.1267  2.2782
 1024MOL0     H41254   1.942   4.280  10.723 -0.1056  1.5169 -3.4413
 1024MOL0     H41255   2.052   4.331  10.493  0.7900 -3.1405 -2.7299
 1024MOL0     H41256   2.113   4.400  10.650 -2.4686 -1.1959  2.7768
 1024MOL0     H41257   2.287   4.329  10.477 -3.1423  1.4040 -0.8871
 1024MOL0     H41258   2.246   4.164  10.514  0.8145 -0.4423  1.7794
 1024MOL0     H41259   2.314   4.346  10.733  3.7054  1.6877 -0.5060
 1024MOL0     H41260   2.307   4.167  10.736  2.4513 -0.5596 -0.6518
 1024MOL0     H41261   2.499   4.052  10.545  1.3135  0.6095 -1.3003
 1024MOL0     H41262   2.817   4.019  10.539  2.0807  1.2480  1.2156
 1024MOL0     H41263   2.867   4.171  10.462 -0.7064  1.0427  0.9748
 1024MOL0     H41264   2.649   3.976  10.361 -4.1297  4.4170 -0.6642
 1024MOL0     H41265   2.680   4.145  10.310  1.0009  0.5461  0.2267
 1024MOL0     H41266   2.791   3.984  10.154 -2.3828  0.7678  1.0644
 1024MOL0     H41267   2.911   4.093  10.222  1.0609 -1.5088 -1.7387
 1024MOL0     H41268   2.987   3.901  10.380  0.6920 -1.2579 -0.6665
 1024MOL0     H41269   2.871   3.800  10.279 -2.2257  0.5170 -0.1987
 1024MOL0     H41270   3.124   4.043  10.399 -2.0710 -2.9086 -0.8099
 1024MOL0     H41271   3.447   4.206  10.408 -0.0271 -2.6914 -0.5159
 1024MOL0     H41272   3.285   4.199  10.485  0.9511  1.0183  1.2664
 1024MOL0     H41273   3.315   4.319  10.355  0.1905 -0.5591 -1.4461
 1024MOL0     H41274   3.551   4.388   9.883 -0.5523 -1.0732 -0.3065
 1024MOL0     H41275   3.756   4.520   9.817 -0.0585 -0.6037 -0.8021
 1024MOL0     H41276   4.047   4.648   9.830 -0.8772  1.0868  1.0539
 1024MOL0     H41277   3.926   4.651   9.949 -0.3284 -1.1498  1.9660
 1024MOL0     H41278   4.087   4.549  10.120  2.2130 -4.5203 -0.1925
 1024MOL0     H41279   4.195   4.528   9.991 -3.1095 -3.5074  1.4905
 1024MOL0     H41280   4.226   4.755  10.132 -0.6161  1.9842 -0.4683
 1024MOL0     H41281   4.104   4.809  10.018  2.4342  4.1050 -0.7019
 1024MOL0     H41282   4.256   4.774   9.825  3.7508  0.2888 -1.4851
 1024MOL0     H41283   4.370   4.683   9.911 -1.1023 -0.7218 -0.3341
 1024MOL0     H41284   4.303   4.962  10.015 -0.6989 -0.7891 -0.0910
 1024MOL0     H41285   4.450   4.861  10.037  0.8312 -1.0435 -1.1105
 1024MOL0     H41286   4.471   5.063   9.895 -0.7283 -0.8687  0.9604
 1024MOL0     H41287   4.366   4.989   9.776 -2.2042 -1.2370  0.9576
 1024MOL0     H41288   4.550   4.844   9.707 -0.9278  2.1888 -1.8481
 1024MOL0     H41289   4.641   4.881   9.863 -0.0868  2.2333  0.5248
 1024MOL0     H41290   4.669   5.117   9.774 -0.1801  0.9364 -0.4429
 1024MOL0     H41291   4.582   5.090   9.624  0.4946  0.5980 -0.0517
 1024MOL0     H41292   4.007   4.214   9.957 -2.1502 -5.2200  0.2349
 1024MOL0     H41293   3.806   4.096  10.066 -2.2340  0.5624  0.9573
 1024MOL0     H41294   3.366   4.033   9.964 -1.0544 -1.2146 -0.3138
 1024MOL0     H41295   3.181   3.890  10.004 -1.2186 -1.5047  2.5867
 1024MOL0     H41296   1.330   4.214  10.369 -0.9186  0.5790 -1.6509
 1024MOL0     H41297   1.095   4.135  10.370  0.3885  1.4808 -2.3612
 1024MOL0     H41298   0.810   3.990  10.412 -0.0696 -0.6869 -1.4665
 1024MOL0     H41299   0.608   3.983  10.548  0.0702 -0.3697  1.3486
 1024MOL0     H41300   0.397   3.668  10.431 -0.3825  1.3890 -1.2859
 1024MOL0     H41301   0.306   3.678  10.588 -0.5081 -1.5559 -1.0295
 1024MOL0     H41302   0.228   3.822  10.386 -0.4345  0.0942  0.1727
 1024MOL0     H41303   0.392   3.903  10.378  0.0114 -1.2310 -0.7740
 1024MOL0     H41304   0.316   3.963  10.632  1.3108  0.7210 -1.0069
 1024MOL0     H41305   0.272   4.073  10.505 -2.0880 -0.9311 -0.6076
 1024MOL0     H41306   0.088   4.032  10.666 -0.9474 -0.5760  0.1624
 1024MOL0     H41307   0.114   3.863  10.648  1.1237  0.9907  2.8438
 1024MOL0     H41308  -0.083   4.028  10.288 -0.0141  1.1447 -0.1098
 1024MOL0     H41309   0.614   3.549  10.540 -0.6913  0.7398 -1.8452
 1024MOL0     H41310   0.942   3.523  10.465 -0.7627 -0.8589  0.2729
 1024MOL0     H41311   0.802   3.422  10.488 -0.2893  0.3014  1.2225
 1024MOL0     H41312   0.825   3.473  10.328  1.6292  2.8062 -0.9569
  11.43286  11.43286  11.43286
